/*--------------------------------*- C++ -*----------------------------------*\
  =========                 |
  \\      /  F ield         | OpenFOAM: The Open Source CFD Toolbox
   \\    /   O peration     | Website:  https://openfoam.org
    \\  /    A nd           | Version:  10
     \\/     M anipulation  |
\*---------------------------------------------------------------------------*/
FoamFile
{
    format      ascii;
    class       volVectorField;
    location    "1.5";
    object      U;
}
// * * * * * * * * * * * * * * * * * * * * * * * * * * * * * * * * * * * * * //

dimensions      [0 1 -1 0 0 0 0];

internalField   nonuniform List<vector> 
8000
(
(-0.000247915 0.000246885 -2.62672e-06)
(-0.000884322 0.000320922 7.18364e-06)
(-0.00162558 0.000314319 9.065e-06)
(-0.00230878 0.000293409 9.54609e-06)
(-0.00293793 0.000265061 9.03229e-06)
(-0.00349578 0.000230322 7.92111e-06)
(-0.0039682 0.00018995 6.41732e-06)
(-0.0043433 0.000144756 4.61714e-06)
(-0.00461124 9.56176e-05 2.58015e-06)
(-0.00476421 4.34657e-05 3.46512e-07)
(-0.00479667 -1.06523e-05 -2.02152e-06)
(-0.00470541 -6.57374e-05 -4.45797e-06)
(-0.0044899 -0.000120441 -6.91005e-06)
(-0.00415263 -0.000173351 -9.29002e-06)
(-0.0036995 -0.000222895 -1.14773e-05)
(-0.00314011 -0.000267375 -1.32946e-05)
(-0.00248845 -0.000305021 -1.4436e-05)
(-0.00176419 -0.000333701 -1.43788e-05)
(-0.000967276 -0.000345214 -1.25531e-05)
(-0.000273865 -0.000269021 -1.74736e-06)
(-0.000333321 0.000893921 -1.34179e-05)
(-0.00116607 0.00113817 -3.34565e-06)
(-0.00212059 0.00111324 -7.95512e-07)
(-0.00300133 0.00103824 6.13071e-07)
(-0.00381112 0.000936537 1.15863e-06)
(-0.00452778 0.000812163 1.23597e-06)
(-0.00513329 0.000668036 1.03731e-06)
(-0.0056127 0.000507207 6.32517e-07)
(-0.00595377 0.000332871 4.47568e-08)
(-0.00614689 0.000148366 -6.96507e-07)
(-0.00618548 -4.28748e-05 -1.5754e-06)
(-0.00606573 -0.000236773 -2.55516e-06)
(-0.00578705 -0.000429 -3.6216e-06)
(-0.00535282 -0.000614715 -4.71032e-06)
(-0.00477054 -0.000788486 -5.72138e-06)
(-0.00405236 -0.000944423 -6.48986e-06)
(-0.003216 -0.00107633 -6.7008e-06)
(-0.0022864 -0.00117662 -5.80679e-06)
(-0.00126552 -0.00121745 -3.29722e-06)
(-0.000364525 -0.000966171 8.1983e-06)
(-0.000354774 0.00169337 -1.71911e-05)
(-0.00124143 0.00213202 -6.82345e-06)
(-0.00225707 0.00208323 -4.02479e-06)
(-0.00319295 0.00194168 -2.32565e-06)
(-0.00405292 0.00175004 -1.45672e-06)
(-0.00481371 0.00151614 -1.01462e-06)
(-0.00545656 0.00124571 -8.13215e-07)
(-0.00596606 0.000944588 -7.91787e-07)
(-0.00632961 0.000618801 -9.32607e-07)
(-0.00653745 0.000274536 -1.22591e-06)
(-0.00658225 -8.17986e-05 -1.66384e-06)
(-0.00645964 -0.000443022 -2.23361e-06)
(-0.00616878 -0.000801223 -2.917e-06)
(-0.00571232 -0.00114754 -3.65384e-06)
(-0.0050972 -0.00147199 -4.34936e-06)
(-0.00433536 -0.00176361 -4.83788e-06)
(-0.00344489 -0.0020107 -4.79044e-06)
(-0.00245206 -0.00219886 -3.62621e-06)
(-0.00135847 -0.00227703 -8.33295e-07)
(-0.00039146 -0.00182573 1.1241e-05)
(-0.000378084 0.00251855 -2.01752e-05)
(-0.00132417 0.00316065 -9.28083e-06)
(-0.00240806 0.00308627 -6.2521e-06)
(-0.0034056 0.00287531 -4.32442e-06)
(-0.00432161 0.00259052 -3.24446e-06)
(-0.00513168 0.00224373 -2.58399e-06)
(-0.00581655 0.00184362 -2.15159e-06)
(-0.00636054 0.00139891 -1.88993e-06)
(-0.00675087 0.000918366 -1.7865e-06)
(-0.00697745 0.000410867 -1.84204e-06)
(-0.00703265 -0.000114328 -2.06165e-06)
(-0.0069112 -0.000647563 -2.418e-06)
(-0.00661092 -0.00117745 -2.91245e-06)
(-0.0061333 -0.00169121 -3.49022e-06)
(-0.00548396 -0.00217421 -4.05497e-06)
(-0.00467388 -0.00261007 -4.43156e-06)
(-0.00372098 -0.00298097 -4.26323e-06)
(-0.00265293 -0.00326471 -2.91303e-06)
(-0.00147144 -0.00338522 1.62827e-07)
(-0.0004242 -0.00272387 1.3164e-05)
(-0.000410611 0.0034084 -2.32232e-05)
(-0.00143887 0.00427041 -1.15077e-05)
(-0.00261658 0.00416748 -8.21007e-06)
(-0.00369869 0.00388072 -6.05745e-06)
(-0.0046911 0.00349499 -4.80183e-06)
(-0.00556802 0.00302673 -3.98283e-06)
(-0.00630963 0.00248802 -3.39714e-06)
(-0.00690019 0.00189065 -2.98639e-06)
(-0.00732691 0.00124615 -2.74108e-06)
(-0.00757954 0.00056585 -2.66785e-06)
(-0.00764999 -0.000138721 -2.77814e-06)
(-0.00753175 -0.000855423 -3.03376e-06)
(-0.00722087 -0.00156997 -3.45519e-06)
(-0.0067168 -0.00226586 -3.99165e-06)
(-0.0060229 -0.00292369 -4.54118e-06)
(-0.00514824 -0.00352102 -4.91144e-06)
(-0.00410999 -0.00403265 -4.70154e-06)
(-0.00293733 -0.00442674 -3.18688e-06)
(-0.00163236 -0.00459832 2.44828e-07)
(-0.000471196 -0.00370879 1.46711e-05)
(-0.000453896 0.00438618 -2.68512e-05)
(-0.00159098 0.00548974 -1.40077e-05)
(-0.00289227 0.00535375 -1.03742e-05)
(-0.00408493 0.00498205 -7.95518e-06)
(-0.00517636 0.00448436 -6.50784e-06)
(-0.00613913 0.00388282 -5.53052e-06)
(-0.00695315 0.00319352 -4.80434e-06)
(-0.00760296 0.00243165 -4.26815e-06)
(-0.00807624 0.00161145 -3.91447e-06)
(-0.00836289 0.000746365 -3.75524e-06)
(-0.00845448 -0.00015035 -3.81028e-06)
(-0.00834297 -0.00106499 -4.02004e-06)
(-0.00802185 -0.00198096 -4.43488e-06)
(-0.00748747 -0.0028785 -5.00937e-06)
(-0.00673954 -0.00373341 -5.63329e-06)
(-0.00578368 -0.00451645 -6.08937e-06)
(-0.00463493 -0.00519336 -5.91285e-06)
(-0.00332376 -0.00571972 -4.24985e-06)
(-0.00185247 -0.00595591 -3.75418e-07)
(-0.000535871 -0.00481456 1.60506e-05)
(-0.000509569 0.00547768 -3.14935e-05)
(-0.00178612 0.00685019 -1.7196e-05)
(-0.00324464 0.00667435 -1.31292e-05)
(-0.00457636 0.00620483 -1.03559e-05)
(-0.00579081 0.00558014 -8.65077e-06)
(-0.00685892 0.00482965 -7.46323e-06)
(-0.00776085 0.00397445 -6.55728e-06)
(-0.00848231 0.00303354 -5.8691e-06)
(-0.00901225 0.00202377 -5.39398e-06)
(-0.00934139 0.000960142 -5.15157e-06)
(-0.00946138 -0.000143264 -5.17553e-06)
(-0.0093624 -0.00127252 -5.35969e-06)
(-0.00903441 -0.00240987 -5.81269e-06)
(-0.00846929 -0.00353332 -6.49465e-06)
(-0.00766091 -0.00461421 -7.28899e-06)
(-0.00660888 -0.00561579 -7.94556e-06)
(-0.00532365 -0.00649254 -7.91104e-06)
(-0.0038356 -0.00718329 -6.14486e-06)
(-0.00214662 -0.00750497 -1.74772e-06)
(-0.00062295 -0.00608225 1.73742e-05)
(-0.000580038 0.00671386 -3.76039e-05)
(-0.00203227 0.00838916 -2.14791e-05)
(-0.00368692 0.00816312 -1.68364e-05)
(-0.00518932 0.00757756 -1.35611e-05)
(-0.0065521 0.00680534 -1.14723e-05)
(-0.00774487 0.00588533 -9.96597e-06)
(-0.0087493 0.00484499 -8.79018e-06)
(-0.00955368 0.00370772 -7.87964e-06)
(-0.0101497 0.00249278 -7.23366e-06)
(-0.0105299 0.00121585 -6.88497e-06)
(-0.0106872 -0.000109455 -6.89791e-06)
(-0.0106096 -0.00147125 -7.05279e-06)
(-0.0102827 -0.0028523 -7.5898e-06)
(-0.00969183 -0.00423046 -8.46559e-06)
(-0.00882207 -0.0055737 -9.56559e-06)
(-0.00766288 -0.00683746 -1.06023e-05)
(-0.00621561 -0.0079624 -1.09042e-05)
(-0.00450731 -0.00886459 -9.16199e-06)
(-0.00253754 -0.0093044 -4.19273e-06)
(-0.000739931 -0.00756503 1.8497e-05)
(-0.000668991 0.00813252 -4.58091e-05)
(-0.00234125 0.0101515 -2.74018e-05)
(-0.00423806 0.00985913 -2.19585e-05)
(-0.00594643 0.00913157 -1.79325e-05)
(-0.00748373 0.00818366 -1.52379e-05)
(-0.00881934 0.00706715 -1.32198e-05)
(-0.00993851 0.00581783 -1.16146e-05)
(-0.0108346 0.00446419 -1.03562e-05)
(-0.0115042 0.00302749 -9.44552e-06)
(-0.0119437 0.00152266 -8.93528e-06)
(-0.0121485 -3.97645e-05 -9.03421e-06)
(-0.0121053 -0.00165023 -9.06212e-06)
(-0.0117936 -0.00329775 -9.74963e-06)
(-0.0111907 -0.00496283 -1.09486e-05)
(-0.010268 -0.00661272 -1.25573e-05)
(-0.00899869 -0.00819574 -1.42704e-05)
(-0.00736733 -0.00963623 -1.52673e-05)
(-0.00539048 -0.0108196 -1.38562e-05)
(-0.00306101 -0.0114294 -8.35582e-06)
(-0.000899208 -0.00933417 1.89839e-05)
(-0.000782309 0.00978185 -5.70922e-05)
(-0.00273099 0.0121924 -3.58062e-05)
(-0.00492561 0.0118084 -2.91712e-05)
(-0.00687942 0.0109011 -2.39585e-05)
(-0.00861732 0.00973846 -2.02671e-05)
(-0.0101108 0.00838996 -1.74056e-05)
(-0.0113523 0.00690228 -1.51058e-05)
(-0.0123441 0.00530977 -1.32959e-05)
(-0.0130913 0.00363499 -1.19583e-05)
(-0.0135973 0.00189023 -1.10702e-05)
(-0.0138601 8.0126e-05 -1.04271e-05)
(-0.0138676 -0.00179235 -1.1141e-05)
(-0.0135953 -0.00372684 -1.21956e-05)
(-0.0130068 -0.00571209 -1.39189e-05)
(-0.0120551 -0.0077201 -1.63437e-05)
(-0.0106878 -0.0096956 -1.92126e-05)
(-0.00886016 -0.0115453 -2.15574e-05)
(-0.00656371 -0.0131145 -2.11643e-05)
(-0.00377528 -0.0139783 -1.53934e-05)
(-0.00112234 -0.0114902 1.78004e-05)
(-0.00092988 0.0117263 -7.31062e-05)
(-0.00322967 0.0145825 -4.8083e-05)
(-0.00579058 0.014066 -3.95101e-05)
(-0.00803361 0.0129229 -3.23159e-05)
(-0.00999581 0.0114909 -2.69306e-05)
(-0.0116557 0.00986335 -2.26617e-05)
(-0.0130188 0.00810116 -1.92401e-05)
(-0.014102 0.00624519 -1.65771e-05)
(-0.0149238 0.00431808 -1.46278e-05)
(-0.0154986 0.00232678 -1.33289e-05)
(-0.0158311 0.000266653 -1.25349e-05)
(-0.0159123 -0.00187353 -1.33151e-05)
(-0.0157134 -0.00410816 -1.47453e-05)
(-0.015184 -0.00644303 -1.721e-05)
(-0.0142516 -0.00886456 -2.08921e-05)
(-0.0128256 -0.0113232 -2.56593e-05)
(-0.0108122 -0.0137112 -3.04976e-05)
(-0.00814914 -0.0158256 -3.25993e-05)
(-0.00477923 -0.0170821 -2.73024e-05)
(-0.00144914 -0.0141832 1.24549e-05)
(-0.00112933 0.0140571 -9.6792e-05)
(-0.00388332 0.0174143 -6.66214e-05)
(-0.00689538 0.0166984 -5.45797e-05)
(-0.00947466 0.0152351 -4.39067e-05)
(-0.011678 0.013456 -3.55699e-05)
(-0.0135007 0.0114868 -2.89423e-05)
(-0.0149706 0.00940578 -2.37328e-05)
(-0.0161273 0.00726053 -1.97928e-05)
(-0.0170098 0.00507137 -1.70019e-05)
(-0.0176488 0.00283601 -1.52679e-05)
(-0.0180605 0.000534956 -1.46263e-05)
(-0.0182425 -0.00186246 -1.50761e-05)
(-0.0181649 -0.00439478 -1.6853e-05)
(-0.0177633 -0.00709628 -2.02806e-05)
(-0.0169353 -0.00998306 -2.57709e-05)
(-0.0155366 -0.0130295 -3.35407e-05)
(-0.0133954 -0.0161298 -4.27626e-05)
(-0.0103401 -0.0190345 -5.04152e-05)
(-0.00624833 -0.0209162 -4.72927e-05)
(-0.0019579 -0.0176509 -2.6759e-06)
(-0.00141418 0.016914 -0.000133702)
(-0.00477059 0.0208134 -9.56746e-05)
(-0.00833695 0.0197863 -7.68207e-05)
(-0.0112993 0.0178726 -5.97645e-05)
(-0.0137454 0.0156358 -4.61901e-05)
(-0.0157061 0.0132416 -3.56456e-05)
(-0.0172452 0.0107886 -2.76842e-05)
(-0.0184365 0.00832894 -2.19338e-05)
(-0.0193485 0.00587613 -1.80212e-05)
(-0.0200351 0.00341346 -1.56265e-05)
(-0.0205297 0.00090034 -1.46832e-05)
(-0.0208421 -0.00172045 -1.50388e-05)
(-0.0209473 -0.00452105 -1.72094e-05)
(-0.0207723 -0.00757946 -2.17181e-05)
(-0.0201849 -0.0109641 -2.94874e-05)
(-0.018975 -0.0147056 -4.15802e-05)
(-0.0168591 -0.0187375 -5.80304e-05)
(-0.0134483 -0.0228118 -7.73586e-05)
(-0.00850826 -0.0257083 -8.0116e-05)
(-0.00281146 -0.0222944 -3.9799e-05)
(-0.00185319 0.0204843 -0.000193626)
(-0.00603448 0.0249354 -0.000142074)
(-0.01027 0.02342 -0.000109403)
(-0.0136519 0.0208575 -8.04172e-05)
(-0.0163106 0.0180068 -5.75196e-05)
(-0.0183482 0.0150791 -4.06874e-05)
(-0.0198834 0.0121933 -2.8791e-05)
(-0.0210399 0.00939845 -2.07613e-05)
(-0.0219253 0.00669336 -1.55801e-05)
(-0.0226246 0.00403984 -1.23557e-05)
(-0.0231945 0.0013707 -1.09075e-05)
(-0.023664 -0.00140569 -1.0914e-05)
(-0.0240239 -0.00440281 -1.30226e-05)
(-0.0242064 -0.0077596 -1.80496e-05)
(-0.0240614 -0.0116268 -2.78351e-05)
(-0.0233134 -0.0161443 -4.49851e-05)
(-0.0215555 -0.021354 -7.19264e-05)
(-0.017977 -0.0271582 -0.000115457)
(-0.0121862 -0.0316868 -0.000133548)
(-0.00436852 -0.0288953 -0.000127323)
(-0.00256324 0.0254178 -0.000311795)
(-0.00790025 0.0301098 -0.000224006)
(-0.0129255 0.0277331 -0.000157517)
(-0.0167435 0.0241844 -0.000104087)
(-0.0195254 0.0204985 -6.43913e-05)
(-0.0215198 0.0169015 -3.81699e-05)
(-0.0229257 0.0135195 -2.15427e-05)
(-0.0239361 0.010381 -1.14173e-05)
(-0.0247065 0.00745559 -5.30058e-06)
(-0.0253571 0.00467425 -1.54266e-06)
(-0.0259745 0.00193811 4.84133e-07)
(-0.0266148 -0.00088278 1.5371e-06)
(-0.0273003 -0.0039424 9.38813e-07)
(-0.0279951 -0.00746002 -2.13084e-06)
(-0.0285681 -0.0116953 -1.05793e-05)
(-0.0287053 -0.0169757 -2.96781e-05)
(-0.0279387 -0.0235438 -6.66804e-05)
(-0.0246847 -0.031825 -0.000155178)
(-0.0185895 -0.038878 -0.000202762)
(-0.007546 -0.038882 -0.000330511)
(-0.00408516 0.0305733 -0.00045501)
(-0.0111961 0.036017 -0.00034073)
(-0.0167942 0.0326078 -0.000210181)
(-0.0209211 0.0277213 -0.000115747)
(-0.0235922 0.0229387 -4.94577e-05)
(-0.0253228 0.0185256 -1.25849e-05)
(-0.0263971 0.0146 7.02592e-06)
(-0.0270948 0.0111376 1.64212e-05)
(-0.0276209 0.00805748 2.07183e-05)
(-0.028129 0.00524761 2.29966e-05)
(-0.0287363 0.00257517 2.5192e-05)
(-0.029527 -0.000115768 2.92046e-05)
(-0.030581 -0.00303736 3.28405e-05)
(-0.0319353 -0.00646243 3.92862e-05)
(-0.0335469 -0.0107451 4.63703e-05)
(-0.0351302 -0.016557 4.55997e-05)
(-0.0364228 -0.024316 2.9675e-05)
(-0.0345232 -0.0362254 -0.000122665)
(-0.0300709 -0.0469835 -0.000187373)
(-0.0142088 -0.0551785 -0.000735303)
(-0.00537418 0.0447054 -0.000998619)
(-0.0147844 0.0445059 -0.000564341)
(-0.021887 0.0386136 -0.000274618)
(-0.0264325 0.0312281 -7.38587e-05)
(-0.0286559 0.0249253 3.45566e-05)
(-0.0297519 0.01958 7.3842e-05)
(-0.03017 0.0151316 8.40907e-05)
(-0.0303028 0.01143 8.2037e-05)
(-0.0303926 0.00831429 7.67436e-05)
(-0.0306096 0.00561512 7.27375e-05)
(-0.0310829 0.00315974 7.32797e-05)
(-0.0319455 0.000751862 8.03812e-05)
(-0.0333326 -0.00184584 9.67729e-05)
(-0.0353428 -0.00496589 0.000132894)
(-0.0382273 -0.00910402 0.000194452)
(-0.0417159 -0.0154425 0.000273788)
(-0.0468276 -0.0245816 0.000417308)
(-0.0478364 -0.0413683 0.000196688)
(-0.0491989 -0.0583635 0.000205358)
(-0.0255901 -0.0836105 -0.00133378)
(-0.0148156 0.0476053 -0.00146761)
(-0.0298829 0.0552454 -0.00103944)
(-0.0304521 0.0455595 -0.0002814)
(-0.033825 0.0355859 5.28507e-05)
(-0.0337246 0.0271187 0.000234915)
(-0.0330424 0.0203462 0.000276678)
(-0.0320292 0.0151765 0.000263366)
(-0.031047 0.0112327 0.000230006)
(-0.0302935 0.00818225 0.000196871)
(-0.0299095 0.00574639 0.000173352)
(-0.0300175 0.00372383 0.000162478)
(-0.0307437 0.00194037 0.000168411)
(-0.0322786 0.000292571 0.000206557)
(-0.0348625 -0.00160337 0.000292984)
(-0.0392173 -0.00332631 0.00046107)
(-0.0448126 -0.00855352 0.000702907)
(-0.0546312 -0.0124909 0.00124341)
(-0.0578642 -0.0353154 0.00120824)
(-0.0678547 -0.0553106 0.00176454)
(-0.028162 -0.125845 -0.00152555)
(-0.0419089 0.107483 -0.00299396)
(-0.0376588 0.0537188 -0.000118447)
(-0.0318817 0.0421124 0.000732814)
(-0.0242505 0.0298142 0.00123497)
(-0.0164603 0.0208231 0.00123138)
(-0.0101182 0.0150549 0.00100729)
(-0.00496577 0.0110847 0.000778419)
(-0.001029 0.00818656 0.000593791)
(0.00184614 0.00602912 0.000462372)
(0.00381289 0.00439346 0.000379686)
(0.00498638 0.00312594 0.000339694)
(0.00547002 0.00209777 0.000350378)
(0.00503384 0.00122893 0.000428781)
(0.00454951 0.00010738 0.000603698)
(0.000852084 -0.00143091 0.00104388)
(0.00128994 -0.00631007 0.00146929)
(-0.0106698 -0.0158881 0.00380218)
(-0.00277358 -0.0464607 0.00314889)
(-0.0374053 -0.0992603 0.00585333)
(0.00929496 -0.203034 -0.00383729)
(0.120089 0.109691 -0.00471906)
(0.140248 0.0550011 -0.00337971)
(0.205381 0.034424 -0.00153133)
(0.235327 0.0219317 -4.98963e-05)
(0.253471 0.0135487 0.000589504)
(0.26599 0.00857893 0.000735778)
(0.274579 0.00574915 0.000702902)
(0.280517 0.00403722 0.000601342)
(0.284755 0.00291396 0.000490524)
(0.287819 0.00214273 0.000401605)
(0.289944 0.00159156 0.00035203)
(0.291431 0.00116116 0.000323854)
(0.29183 0.000783602 0.000397545)
(0.292548 0.000430171 0.000422342)
(0.288808 -0.000694769 0.000899556)
(0.290708 -0.00110741 0.00103616)
(0.268499 -0.00707065 0.00236439)
(0.27249 -0.014631 0.00270308)
(0.172224 -0.0422985 -0.00109764)
(0.161775 -0.106677 -0.011637)
(-0.000318371 0.000315252 -5.71366e-06)
(-0.001135 0.000417548 6.46652e-06)
(-0.00208301 0.000409451 9.37193e-06)
(-0.00295267 0.000381725 1.04974e-05)
(-0.00375115 0.000344168 1.02227e-05)
(-0.00445715 0.000298274 9.0545e-06)
(-0.00505323 0.000245089 7.26962e-06)
(-0.00552474 0.00018572 5.00876e-06)
(-0.00585958 0.000121346 2.36149e-06)
(-0.00604832 5.32316e-05 -5.85401e-07)
(-0.00608438 -1.72678e-05 -3.7962e-06)
(-0.00596426 -8.88193e-05 -7.14214e-06)
(-0.00568774 -0.000159712 -1.05128e-05)
(-0.00525834 -0.000228135 -1.3763e-05)
(-0.00468372 -0.000292088 -1.6697e-05)
(-0.00397601 -0.000349424 -1.90386e-05)
(-0.00315244 -0.000397902 -2.03483e-05)
(-0.00223688 -0.000434715 -1.99402e-05)
(-0.00122665 -0.000448281 -1.72064e-05)
(-0.000346833 -0.000342177 -3.29212e-06)
(-0.000437003 0.00114149 -2.00177e-05)
(-0.00152478 0.0014787 -7.38104e-06)
(-0.00276585 0.00144786 -3.51374e-06)
(-0.00390646 0.00134862 -1.12676e-06)
(-0.00495213 0.0012142 8.20048e-10)
(-0.00587491 0.00105028 3.82057e-07)
(-0.0066521 0.000860833 2.84004e-07)
(-0.00726496 0.000650004 -1.84761e-07)
(-0.0076982 0.000422075 -9.78661e-07)
(-0.00794008 0.000181495 -2.06017e-06)
(-0.00798276 -6.71995e-05 -3.40461e-06)
(-0.00782203 -0.000318748 -4.92595e-06)
(-0.00745785 -0.000567566 -6.5653e-06)
(-0.00689504 -0.000807451 -8.20323e-06)
(-0.00614358 -0.0010315 -9.66343e-06)
(-0.00521913 -0.00123227 -1.06763e-05)
(-0.00414398 -0.00140192 -1.07813e-05)
(-0.00294896 -0.00153049 -9.2538e-06)
(-0.00163392 -0.00157881 -5.57998e-06)
(-0.000470881 -0.0012294 9.18559e-06)
(-0.000466678 0.00216008 -2.57198e-05)
(-0.00162817 0.00276511 -1.28058e-05)
(-0.00295205 0.00270456 -8.53941e-06)
(-0.00416714 0.00251765 -5.64924e-06)
(-0.00528025 0.00226492 -3.98907e-06)
(-0.00626197 0.00195729 -3.03533e-06)
(-0.0070887 0.00160256 -2.52516e-06)
(-0.00774107 0.00120861 -2.36007e-06)
(-0.00820337 0.000783494 -2.50207e-06)
(-0.00846368 0.000335401 -2.9294e-06)
(-0.00851334 -0.000127234 -3.62298e-06)
(-0.00834753 -0.000595089 -4.53629e-06)
(-0.00796585 -0.00105799 -5.61308e-06)
(-0.00737236 -0.00150461 -6.7389e-06)
(-0.00657643 -0.00192227 -7.74213e-06)
(-0.00559355 -0.00229713 -8.34886e-06)
(-0.00444653 -0.00261441 -8.07595e-06)
(-0.00316789 -0.00285523 -6.15179e-06)
(-0.00175687 -0.00294803 -2.07171e-06)
(-0.000506571 -0.00232114 1.33718e-05)
(-0.000498009 0.00320837 -3.06861e-05)
(-0.00173859 0.00409315 -1.72173e-05)
(-0.00315254 0.0040007 -1.25631e-05)
(-0.00444856 0.00372244 -9.2538e-06)
(-0.0056348 0.00334728 -7.18379e-06)
(-0.00668043 0.0028917 -5.81308e-06)
(-0.00756119 0.00236749 -4.87497e-06)
(-0.00825747 0.00178639 -4.27685e-06)
(-0.00875341 0.00116012 -3.98958e-06)
(-0.00903675 0.000500421 -4.00381e-06)
(-0.00909845 -0.000180579 -4.31235e-06)
(-0.00893268 -0.000870235 -4.86087e-06)
(-0.00853752 -0.00155397 -5.62006e-06)
(-0.00791557 -0.00221548 -6.48139e-06)
(-0.00707464 -0.00283623 -7.2683e-06)
(-0.00602906 -0.00339553 -7.68909e-06)
(-0.00480147 -0.00387089 -7.21725e-06)
(-0.00342609 -0.00423334 -5.00286e-06)
(-0.00190205 -0.00437647 -5.16915e-07)
(-0.000548594 -0.00345816 1.60672e-05)
(-0.000541558 0.00433766 -3.59477e-05)
(-0.00189112 0.00552449 -2.15565e-05)
(-0.00342852 0.00539616 -1.64329e-05)
(-0.00483516 0.005018 -1.26777e-05)
(-0.00612075 0.00451001 -1.02215e-05)
(-0.0072527 0.00389511 -8.48963e-06)
(-0.00820616 0.00318968 -7.20454e-06)
(-0.00896148 0.00240958 -6.27541e-06)
(-0.00950292 0.00157022 -5.67926e-06)
(-0.00981814 0.000686601 -5.41575e-06)
(-0.00989759 -0.00022615 -5.48779e-06)
(-0.00973401 -0.00115216 -5.83149e-06)
(-0.00932338 -0.00207313 -6.44306e-06)
(-0.00866581 -0.00296804 -7.21732e-06)
(-0.00776637 -0.00381229 -7.96609e-06)
(-0.0066371 -0.00457759 -8.3666e-06)
(-0.00529969 -0.0052322 -7.82318e-06)
(-0.00379024 -0.00573463 -5.36195e-06)
(-0.00210797 -0.00593846 -3.82095e-07)
(-0.000608607 -0.00470324 1.79907e-05)
(-0.000599517 0.00557809 -4.22632e-05)
(-0.00209343 0.00709636 -2.65757e-05)
(-0.00379338 0.0069261 -2.08513e-05)
(-0.00534457 0.00643568 -1.65433e-05)
(-0.0067588 0.00578008 -1.36304e-05)
(-0.00800148 0.00499007 -1.14935e-05)
(-0.0090475 0.00408748 -9.8409e-06)
(-0.00987775 0.00309275 -8.58278e-06)
(-0.0104772 0.0020249 -7.70209e-06)
(-0.010834 0.00090177 -7.20764e-06)
(-0.010938 -0.000259244 -7.11493e-06)
(-0.0107804 -0.00144014 -7.33786e-06)
(-0.0103541 -0.00261969 -7.90981e-06)
(-0.00965538 -0.00377271 -8.73068e-06)
(-0.00868481 -0.00486854 -9.59609e-06)
(-0.00745022 -0.00587032 -1.01389e-05)
(-0.00597075 -0.00673492 -9.66243e-06)
(-0.00428396 -0.00740471 -7.00725e-06)
(-0.0023889 -0.00768548 -1.43805e-06)
(-0.000690938 -0.00609979 1.94514e-05)
(-0.000674155 0.00696269 -5.0351e-05)
(-0.00235319 0.00884961 -3.29778e-05)
(-0.00426006 0.00862825 -2.64581e-05)
(-0.00599308 0.00800813 -2.14004e-05)
(-0.00756705 0.00718468 -1.78623e-05)
(-0.00894539 0.00619859 -1.5177e-05)
(-0.0101036 0.00507844 -1.30409e-05)
(-0.0110241 0.0038498 -1.13672e-05)
(-0.011694 0.00253521 -1.01466e-05)
(-0.0121024 0.00115457 -9.40006e-06)
(-0.0122396 -0.000273625 -9.16205e-06)
(-0.0120945 -0.00173087 -9.29627e-06)
(-0.011656 -0.00319453 -9.90714e-06)
(-0.0109147 -0.00463651 -1.09014e-05)
(-0.00986409 -0.00602047 -1.20599e-05)
(-0.00850455 -0.00730011 -1.29581e-05)
(-0.00684957 -0.00841814 -1.27588e-05)
(-0.00493655 -0.00929539 -1.00303e-05)
(-0.00276339 -0.00967826 -3.81395e-06)
(-0.000801425 -0.0076997 2.04622e-05)
(-0.000768805 0.00853072 -6.10209e-05)
(-0.00268133 0.0108322 -4.15189e-05)
(-0.00484649 0.0105457 -3.39108e-05)
(-0.00680271 0.00977137 -2.77786e-05)
(-0.00856914 0.00875249 -2.33179e-05)
(-0.0101078 0.00754281 -1.98207e-05)
(-0.0113963 0.0061795 -1.69797e-05)
(-0.012421 0.00469403 -1.47153e-05)
(-0.0131725 0.00311213 -1.30265e-05)
(-0.0136428 0.00145463 -1.19518e-05)
(-0.0138235 -0.000260708 -1.15637e-05)
(-0.0137014 -0.00201736 -1.16026e-05)
(-0.0132598 -0.00379385 -1.23295e-05)
(-0.0124814 -0.00556156 -1.36528e-05)
(-0.0113485 -0.00727984 -1.53508e-05)
(-0.00984923 -0.00889248 -1.69347e-05)
(-0.00798572 -0.0103247 -1.73805e-05)
(-0.00579115 -0.0114683 -1.48596e-05)
(-0.00325974 -0.0119928 -8.02851e-06)
(-0.000949323 -0.00956992 2.06963e-05)
(-0.000888537 0.0103299 -7.53989e-05)
(-0.0030939 0.0131014 -5.32216e-05)
(-0.00557825 0.0127281 -4.40556e-05)
(-0.00780386 0.0117645 -3.63107e-05)
(-0.00979658 0.0105125 -3.04262e-05)
(-0.0115185 0.00904331 -2.56762e-05)
(-0.0129524 0.00740526 -2.17651e-05)
(-0.0140916 0.00563655 -1.86217e-05)
(-0.0149334 0.00376556 -1.62472e-05)
(-0.0154753 0.00181223 -1.47002e-05)
(-0.0157116 -0.000209117 -1.42131e-05)
(-0.0156277 -0.00228733 -1.40367e-05)
(-0.0152002 -0.00440633 -1.49767e-05)
(-0.0144007 -0.00654123 -1.68433e-05)
(-0.0131951 -0.00865033 -1.94388e-05)
(-0.0115512 -0.0106683 -2.22377e-05)
(-0.00945025 -0.0124998 -2.39848e-05)
(-0.00691244 -0.0139972 -2.22821e-05)
(-0.00392258 -0.0147265 -1.50801e-05)
(-0.00114995 -0.0118003 1.9377e-05)
(-0.00104136 0.0124204 -9.52155e-05)
(-0.00361515 0.015727 -6.96235e-05)
(-0.00649241 0.0152327 -5.80929e-05)
(-0.00903902 0.0140295 -4.78185e-05)
(-0.0112914 0.0124925 -3.96658e-05)
(-0.0132152 0.0107169 -3.29432e-05)
(-0.0148032 0.00876549 -2.7387e-05)
(-0.0160608 0.00668409 -2.2925e-05)
(-0.0169969 0.00450268 -1.95245e-05)
(-0.0176176 0.00223763 -1.71443e-05)
(-0.0179231 -0.000104319 -1.5602e-05)
(-0.0178986 -0.0025212 -1.60324e-05)
(-0.0175137 -0.00500963 -1.74347e-05)
(-0.0167254 -0.00755499 -2.01369e-05)
(-0.0154758 -0.0101212 -2.41372e-05)
(-0.0137009 -0.0126379 -2.89782e-05)
(-0.0113458 -0.0149872 -3.31773e-05)
(-0.00839923 -0.0169701 -3.35622e-05)
(-0.00482487 -0.0180074 -2.66864e-05)
(-0.00143009 -0.0145184 1.48111e-05)
(-0.00124055 0.0148823 -0.000123289)
(-0.00428278 0.0187973 -9.31613e-05)
(-0.00764372 0.0181277 -7.77863e-05)
(-0.0105684 0.0166106 -6.33752e-05)
(-0.0131105 0.0147165 -5.15209e-05)
(-0.0152457 0.012573 -4.16632e-05)
(-0.0169854 0.0102612 -3.35841e-05)
(-0.0183546 0.00783543 -2.71808e-05)
(-0.01938 0.00532524 -2.23499e-05)
(-0.0200824 0.0027396 -1.89507e-05)
(-0.0204705 7.21607e-05 -1.6721e-05)
(-0.0205331 -0.00269017 -1.71764e-05)
(-0.0202341 -0.00556596 -1.90109e-05)
(-0.0195123 -0.00856108 -2.28113e-05)
(-0.0182781 -0.0116568 -2.88632e-05)
(-0.0164199 -0.0147889 -3.69618e-05)
(-0.0138219 -0.0178209 -4.55586e-05)
(-0.0104057 -0.020491 -5.06016e-05)
(-0.00609129 -0.0220077 -4.56719e-05)
(-0.00183978 -0.0179161 3.4765e-06)
(-0.00150934 0.0178267 -0.000164433)
(-0.00515762 0.0224264 -0.000127821)
(-0.00911474 0.0214934 -0.000105735)
(-0.0124784 0.0195517 -8.42992e-05)
(-0.0153307 0.0171994 -6.62914e-05)
(-0.0176708 0.014607 -5.1441e-05)
(-0.019541 0.0118785 -3.95433e-05)
(-0.020997 0.009076 -3.03678e-05)
(-0.0220929 0.0062254 -2.36295e-05)
(-0.0228708 0.00332285 -1.90803e-05)
(-0.023353 0.000342371 -1.66474e-05)
(-0.0235369 -0.00275431 -1.62868e-05)
(-0.0233847 -0.00601682 -1.83347e-05)
(-0.0228162 -0.00948666 -2.33574e-05)
(-0.0217037 -0.0131816 -3.21212e-05)
(-0.0198685 -0.0170664 -4.50964e-05)
(-0.0170981 -0.0210049 -6.11733e-05)
(-0.0131775 -0.0246748 -7.59599e-05)
(-0.00794544 -0.0269606 -7.64514e-05)
(-0.0024788 -0.0223012 -2.27077e-05)
(-0.00189083 0.0214216 -0.000227287)
(-0.00634155 0.026767 -0.000180311)
(-0.0110321 0.0254251 -0.000145672)
(-0.0148947 0.0228905 -0.000111906)
(-0.018057 0.019938 -8.35354e-05)
(-0.0205671 0.0167909 -6.08055e-05)
(-0.0225167 0.0135797 -4.33081e-05)
(-0.0240078 0.0103707 -3.03785e-05)
(-0.0251334 0.00717981 -2.12242e-05)
(-0.0259656 0.00398331 -1.51947e-05)
(-0.0265478 0.000727232 -1.17668e-05)
(-0.0268924 -0.00266243 -1.07921e-05)
(-0.0269665 -0.00627754 -1.27754e-05)
(-0.0266771 -0.0102149 -1.87644e-05)
(-0.025858 -0.0145575 -3.04818e-05)
(-0.0242477 -0.0193392 -4.99041e-05)
(-0.0214951 -0.0244713 -7.77436e-05)
(-0.0171138 -0.0296289 -0.000112098)
(-0.010808 -0.0331762 -0.00012526)
(-0.00355841 -0.0282051 -8.1603e-05)
(-0.00247163 0.0258712 -0.000326386)
(-0.00801649 0.0319972 -0.000260886)
(-0.0135948 0.0300239 -0.000202157)
(-0.0180025 0.0266451 -0.000146444)
(-0.0214324 0.0228958 -0.000100601)
(-0.0240297 0.0190597 -6.57978e-05)
(-0.0259615 0.0152925 -4.06235e-05)
(-0.0273971 0.0116553 -2.31856e-05)
(-0.0284805 0.0081427 -1.15096e-05)
(-0.0293235 0.0047015 -4.06148e-06)
(-0.0299988 0.00124195 4.97619e-07)
(-0.0305417 -0.00235502 2.79146e-06)
(-0.0309373 -0.00623518 2.02158e-06)
(-0.0310962 -0.0105725 -3.26511e-06)
(-0.030828 -0.0155535 -1.62986e-05)
(-0.029788 -0.0213474 -4.21794e-05)
(-0.027472 -0.0280019 -8.59831e-05)
(-0.0228693 -0.0353759 -0.000158694)
(-0.015506 -0.0409758 -0.000200552)
(-0.00555613 -0.0366837 -0.000211662)
(-0.00338405 0.0319981 -0.000509402)
(-0.0104451 0.0385208 -0.000394557)
(-0.017089 0.0354471 -0.000282126)
(-0.0220652 0.0308017 -0.000184514)
(-0.025645 0.0259821 -0.000109019)
(-0.0281709 0.0212913 -5.68453e-05)
(-0.0299209 0.016895 -2.26553e-05)
(-0.0311572 0.0128253 -1.32798e-06)
(-0.0320864 0.00903727 1.18597e-05)
(-0.0328654 0.00543559 2.03742e-05)
(-0.0336032 0.00188846 2.62752e-05)
(-0.0343683 -0.0017732 3.12653e-05)
(-0.0351825 -0.00575243 3.46293e-05)
(-0.0359934 -0.0103212 3.48248e-05)
(-0.0366302 -0.0158042 2.67815e-05)
(-0.036701 -0.0226056 5.42237e-07)
(-0.0356266 -0.0310276 -5.68999e-05)
(-0.0314425 -0.041603 -0.000197394)
(-0.0237798 -0.0504103 -0.000290784)
(-0.00970373 -0.0497306 -0.000498019)
(-0.00534917 0.0380652 -0.000733675)
(-0.0147157 0.0458753 -0.000580228)
(-0.0221311 0.0415154 -0.00037081)
(-0.0275148 0.035201 -0.000204936)
(-0.0309419 0.0289976 -8.41984e-05)
(-0.0331118 0.0232729 -1.17246e-05)
(-0.0344187 0.018193 2.89189e-05)
(-0.0352426 0.013722 5.00396e-05)
(-0.0358547 0.00974721 6.09608e-05)
(-0.0364534 0.00611601 6.78459e-05)
(-0.0371852 0.00265091 7.48916e-05)
(-0.0381562 -0.000855547 8.55361e-05)
(-0.0394539 -0.00467602 9.83264e-05)
(-0.0411098 -0.00915295 0.000116204)
(-0.0430623 -0.0147404 0.000134377)
(-0.044955 -0.0222635 0.000136267)
(-0.0464831 -0.0322561 0.000107054)
(-0.0440499 -0.0475351 -0.00012714)
(-0.0386727 -0.0611765 -0.000262117)
(-0.0183661 -0.07153 -0.00105523)
(-0.00669641 0.055143 -0.0014708)
(-0.0189342 0.0561558 -0.000904492)
(-0.0286633 0.0488977 -0.000476355)
(-0.0346258 0.0394983 -0.000153373)
(-0.037502 0.0314407 3.48088e-05)
(-0.0388456 0.0245711 0.00011901)
(-0.0392853 0.0188516 0.000151436)
(-0.0393653 0.0140931 0.000158403)
(-0.0394085 0.0100847 0.0001563)
(-0.0396347 0.00660255 0.000154734)
(-0.0402052 0.00341679 0.000160758)
(-0.0412795 0.000271771 0.000179198)
(-0.0430079 -0.00312617 0.000215136)
(-0.0455059 -0.00720413 0.000281401)
(-0.0490563 -0.0125867 0.000384701)
(-0.0533045 -0.0207275 0.000501873)
(-0.0595702 -0.0323301 0.00068696)
(-0.0606816 -0.0537215 0.00033472)
(-0.062562 -0.0753244 0.000266467)
(-0.0314268 -0.109678 -0.00188297)
(-0.0172913 0.0563579 -0.00214034)
(-0.037489 0.0703174 -0.00157964)
(-0.0394331 0.0581259 -0.000534947)
(-0.0442621 0.0454944 -1.42108e-05)
(-0.0441203 0.0345914 0.000292774)
(-0.0431017 0.0258087 0.000394865)
(-0.0415957 0.0191099 0.000404407)
(-0.0401488 0.0140086 0.000373479)
(-0.039032 0.0100656 0.000335736)
(-0.0384263 0.00691366 0.000308899)
(-0.0384753 0.00427932 0.000301411)
(-0.0393129 0.00193716 0.000321559)
(-0.0411563 -0.000263826 0.000390376)
(-0.0442752 -0.0027778 0.000526573)
(-0.0494918 -0.00518661 0.000775675)
(-0.0559041 -0.0117821 0.00110742)
(-0.0673501 -0.016579 0.00177121)
(-0.0692676 -0.0463635 0.00163979)
(-0.0806777 -0.0729245 0.00219638)
(-0.0269073 -0.167374 -0.00234366)
(-0.0586395 0.125074 -0.00395804)
(-0.0513858 0.0661595 -0.000438383)
(-0.0456572 0.0534119 0.00068414)
(-0.0347332 0.0381983 0.00144056)
(-0.0234437 0.0267903 0.00154491)
(-0.0141058 0.019332 0.00133471)
(-0.00648343 0.0141606 0.00108265)
(-0.000656332 0.0103774 0.000861739)
(0.00361312 0.00756259 0.000698562)
(0.0065699 0.00542919 0.000594046)
(0.00841377 0.00377386 0.000549009)
(0.00933373 0.00241613 0.000576427)
(0.00910135 0.00127557 0.000704503)
(0.00891759 -0.000208984 0.000964666)
(0.00504689 -0.00203568 0.00160264)
(0.00793839 -0.00806939 0.00218578)
(-0.0052401 -0.0194836 0.00509139)
(0.0115135 -0.0574112 0.0041868)
(-0.0292317 -0.125125 0.00741077)
(0.0298893 -0.249346 -0.00526979)
(0.13109 0.134554 -0.0062299)
(0.158069 0.0732268 -0.00464358)
(0.233061 0.0475335 -0.00236968)
(0.272843 0.0312259 -0.000391661)
(0.298459 0.019804 0.000591435)
(0.316814 0.0126259 0.000919069)
(0.32988 0.00837291 0.000959094)
(0.339102 0.00577836 0.00086867)
(0.345726 0.00409805 0.00074024)
(0.350544 0.00296182 0.000626223)
(0.353915 0.00217434 0.000561142)
(0.356458 0.00155829 0.000522779)