/*--------------------------------*- C++ -*----------------------------------*\
  =========                 |
  \\      /  F ield         | OpenFOAM: The Open Source CFD Toolbox
   \\    /   O peration     | Website:  https://openfoam.org
    \\  /    A nd           | Version:  10
     \\/     M anipulation  |
\*---------------------------------------------------------------------------*/
FoamFile
{
    format      ascii;
    class       surfaceScalarField;
    location    "1.45";
    object      phi;
}
// * * * * * * * * * * * * * * * * * * * * * * * * * * * * * * * * * * * * * //

dimensions      [0 3 -1 0 0 0 0];

internalField   nonuniform List<scalar> 
22800
(
-5.50005e-06
5.53946e-06
-3.94309e-08
-1.26248e-05
7.05211e-06
7.25892e-08
-1.96095e-05
6.88853e-06
9.62264e-08
-2.61338e-05
6.42045e-06
1.03882e-07
-3.20217e-05
5.78839e-06
9.94981e-08
-3.71258e-05
5.01636e-06
8.76586e-08
-4.13189e-05
4.12242e-06
7.07509e-08
-4.44945e-05
3.12558e-06
5.00083e-08
-4.65665e-05
2.04581e-06
2.6169e-08
-4.747e-05
9.03943e-07
-4.11515e-10
-4.71639e-05
-2.77933e-07
-2.81939e-08
-4.56306e-05
-1.47584e-06
-5.74251e-08
-4.28815e-05
-2.66235e-06
-8.67926e-08
-3.89588e-05
-3.80753e-06
-1.15169e-07
-3.39397e-05
-4.87807e-06
-1.40994e-07
-2.79397e-05
-5.838e-06
-1.62023e-07
-2.11153e-05
-6.64981e-06
-1.74549e-07
-1.36744e-05
-7.26842e-06
-1.72509e-07
-5.99742e-06
-7.52694e-06
-1.50052e-07
-5.97313e-06
-2.42862e-08
-7.25409e-06
1.2961e-05
-1.67474e-07
-1.64001e-05
1.62488e-05
-5.06294e-08
-2.53496e-05
1.58572e-05
-1.90999e-08
-3.36995e-05
1.47711e-05
-7.92454e-10
-4.12231e-05
1.33047e-05
7.35024e-09
-4.77324e-05
1.15162e-05
9.4205e-09
-5.30674e-05
9.44968e-06
7.77668e-09
-5.70953e-05
7.15023e-06
3.29303e-09
-5.97106e-05
4.66438e-06
-3.35607e-09
-6.08338e-05
2.03961e-06
-1.23769e-08
-6.04185e-05
-6.69882e-07
-2.34293e-08
-5.84415e-05
-3.41711e-06
-3.57385e-08
-5.49199e-05
-6.13486e-06
-4.90363e-08
-4.99077e-05
-8.75729e-06
-6.24352e-08
-4.3502e-05
-1.12092e-05
-7.4596e-08
-3.5848e-05
-1.34086e-05
-8.33994e-08
-2.71434e-05
-1.52694e-05
-8.50293e-08
-1.76522e-05
-1.66865e-05
-7.31485e-08
-7.84909e-06
-1.72872e-05
-4.27945e-08
-1.39127e-05
9.04792e-08
-7.71635e-06
2.08921e-05
-2.14773e-07
-1.74433e-05
2.60701e-05
-9.43818e-08
-2.69498e-05
2.54234e-05
-5.96601e-08
-3.58123e-05
2.36707e-05
-3.71692e-08
-4.37932e-05
2.13104e-05
-2.49342e-08
-5.06965e-05
1.84378e-05
-1.82654e-08
-5.63569e-05
1.5125e-05
-1.49217e-08
-6.06378e-05
1.14453e-05
-1.41416e-08
-6.34305e-05
7.47275e-06
-1.56464e-08
-6.46549e-05
3.28326e-06
-1.92505e-08
-6.42526e-05
-1.0474e-06
-2.48243e-08
-6.2202e-05
-5.43566e-06
-3.2096e-08
-5.85131e-05
-9.78298e-06
-4.07065e-08
-5.3234e-05
-1.39866e-05
-4.9813e-08
-4.6458e-05
-1.7927e-05
-5.81285e-08
-3.8331e-05
-2.14722e-05
-6.3514e-08
-2.90575e-05
-2.44809e-05
-6.1981e-08
-1.89167e-05
-2.67805e-05
-4.6805e-08
-8.41644e-06
-2.77744e-05
-1.30087e-08
-2.24561e-05
1.26976e-07
-8.23158e-06
2.93779e-05
-2.54205e-07
-1.8616e-05
3.65824e-05
-1.27809e-07
-2.87561e-05
3.56535e-05
-9.00308e-08
-3.82009e-05
3.31799e-05
-6.43817e-08
-4.67004e-05
2.98591e-05
-4.9148e-08
-5.40516e-05
2.58284e-05
-3.94187e-08
-6.00857e-05
2.11919e-05
-3.28973e-08
-6.46641e-05
1.60526e-05
-2.88342e-08
-6.76766e-05
1.05122e-05
-2.70209e-08
-6.90387e-05
4.67272e-06
-2.74158e-08
-6.86897e-05
-1.3663e-06
-3.00151e-08
-6.6594e-05
-7.49699e-06
-3.44322e-08
-6.2752e-05
-1.35845e-05
-4.05373e-08
-5.7199e-05
-1.94921e-05
-4.75396e-08
-5.00175e-05
-2.50544e-05
-5.41225e-08
-4.13476e-05
-3.0084e-05
-5.80178e-08
-3.13983e-05
-3.43753e-05
-5.48937e-08
-2.04679e-05
-3.76736e-05
-3.73727e-08
-9.1127e-06
-3.91297e-05
9.66308e-11
-3.17193e-05
1.50426e-07
-8.94817e-06
3.86215e-05
-2.95347e-07
-2.02399e-05
4.80337e-05
-1.5953e-07
-3.12521e-05
4.67838e-05
-1.18125e-07
-4.14942e-05
4.35113e-05
-8.92111e-08
-5.06996e-05
3.91358e-05
-7.12752e-08
-5.86573e-05
3.38452e-05
-5.90575e-08
-6.51959e-05
2.77806e-05
-5.01392e-08
-7.01769e-05
2.10774e-05
-4.37685e-08
-7.349e-05
1.3865e-05
-3.97778e-08
-7.50477e-05
6.26868e-06
-3.81954e-08
-7.47833e-05
-1.59161e-06
-3.90972e-08
-7.26449e-05
-9.59343e-06
-4.20092e-08
-6.8616e-05
-1.75664e-05
-4.70118e-08
-6.27109e-05
-2.53437e-05
-5.33503e-08
-5.49922e-05
-3.27135e-05
-5.96286e-08
-4.55866e-05
-3.94263e-05
-6.33488e-08
-3.47044e-05
-4.51979e-05
-5.96306e-08
-2.26688e-05
-4.96691e-05
-4.00526e-08
-1.01064e-05
-5.16936e-05
1.39123e-09
-4.19938e-05
1.68231e-07
-9.89967e-06
4.88657e-05
-3.44572e-07
-2.239e-05
6.07197e-05
-1.9576e-07
-3.45468e-05
5.90904e-05
-1.49771e-07
-4.58269e-05
5.49082e-05
-1.16883e-07
-5.5943e-05
4.93476e-05
-9.58477e-08
-6.46765e-05
4.26598e-05
-8.09527e-08
-7.1857e-05
3.50307e-05
-6.96195e-08
-7.73506e-05
2.66321e-05
-6.10796e-08
-8.10505e-05
1.76202e-05
-5.51988e-08
-8.2869e-05
8.13929e-06
-5.20714e-08
-8.27328e-05
-1.67594e-06
-5.18767e-08
-8.0568e-05
-1.17042e-05
-5.39626e-08
-7.63331e-05
-2.17426e-05
-5.87055e-08
-7.00097e-05
-3.16018e-05
-6.54036e-08
-6.16253e-05
-4.10253e-05
-7.25464e-08
-5.12798e-05
-4.96945e-05
-7.73074e-08
-3.91757e-05
-5.72279e-05
-7.40123e-08
-2.56636e-05
-6.31286e-05
-5.27014e-08
-1.1466e-05
-6.58851e-05
-6.01887e-09
-5.36433e-05
1.83464e-07
-1.11218e-05
6.03951e-05
-4.07602e-07
-2.51437e-05
7.49836e-05
-2.41984e-07
-3.87496e-05
7.28864e-05
-1.89996e-07
-5.1328e-05
6.76383e-05
-1.51764e-07
-6.25681e-05
6.07142e-05
-1.26515e-07
-7.22478e-05
5.24475e-05
-1.08018e-07
-8.02047e-05
4.30811e-05
-9.35335e-08
-8.63179e-05
3.28276e-05
-8.22851e-08
-9.04924e-05
2.18688e-05
-7.41801e-08
-9.26448e-05
1.03611e-05
-6.93988e-08
-9.26978e-05
-1.55468e-06
-6.82764e-08
-9.05485e-05
-1.37837e-05
-6.98045e-08
-8.61195e-05
-2.60967e-05
-7.48747e-08
-7.93424e-05
-3.82961e-05
-8.28603e-08
-7.01872e-05
-5.00884e-05
-9.21541e-08
-5.87019e-05
-6.10803e-05
-9.95027e-08
-4.50615e-05
-7.07702e-05
-9.81308e-08
-2.96394e-05
-7.84749e-05
-7.5844e-08
-1.32841e-05
-8.22168e-05
-2.35171e-08
-6.71242e-05
1.96691e-07
-1.26661e-05
7.35519e-05
-4.9069e-07
-2.86101e-05
9.12314e-05
-3.03869e-07
-4.40107e-05
8.85307e-05
-2.43774e-07
-5.81694e-05
8.1995e-05
-1.97921e-07
-7.07523e-05
7.34636e-05
-1.66435e-07
-8.15425e-05
6.33802e-05
-1.4256e-07
-9.0399e-05
5.2061e-05
-1.23436e-07
-9.7229e-05
3.97659e-05
-1.083e-07
-0.000101962
2.66989e-05
-9.71055e-08
-0.000104529
1.30179e-05
-9.01476e-08
-0.000104854
-1.14148e-06
-8.80462e-08
-0.000102798
-1.57503e-05
-8.9053e-08
-9.82355e-05
-3.05642e-05
-9.50494e-08
-9.10226e-05
-4.54036e-05
-1.05453e-07
-8.10374e-05
-5.99548e-05
-1.18689e-07
-6.82345e-05
-7.37521e-05
-1.31026e-07
-5.2722e-05
-8.61484e-05
-1.34223e-07
-3.48757e-05
-9.62084e-05
-1.12852e-07
-1.57036e-05
-0.000101334
-5.46595e-08
-8.30336e-05
2.05808e-07
-1.46097e-05
8.87642e-05
-6.02518e-07
-3.29473e-05
0.000109958
-3.89069e-07
-5.05414e-05
0.000106442
-3.17507e-07
-6.65857e-05
9.82995e-05
-2.60235e-07
-8.07279e-05
8.78249e-05
-2.19041e-07
-9.2774e-05
7.56131e-05
-1.86749e-07
-0.000102628
6.20755e-05
-1.60467e-07
-0.000110249
4.75261e-05
-1.39456e-07
-0.000115612
3.21854e-05
-1.23677e-07
-0.000118676
1.61961e-05
-1.13494e-07
-0.000119382
-3.25963e-07
-1.09993e-07
-0.000117547
-1.74743e-05
-1.10526e-07
-0.000112985
-3.50087e-05
-1.18262e-07
-0.00010544
-5.28152e-05
-1.3267e-07
-9.46506e-05
-7.0592e-05
-1.52484e-07
-8.04091e-05
-8.78199e-05
-1.737e-07
-6.26836e-05
-0.000103688
-1.86245e-07
-4.17983e-05
-0.000116924
-1.70081e-07
-1.8953e-05
-0.000124072
-1.07275e-07
-0.000102192
2.05105e-07
-1.70711e-05
0.000106592
-7.56563e-07
-3.83889e-05
0.000131785
-5.09252e-07
-5.8644e-05
0.000127118
-4.20409e-07
-7.68984e-05
0.000116899
-3.45172e-07
-9.27989e-05
0.000104014
-2.88318e-07
-0.000106206
8.9263e-05
-2.42547e-07
-0.000117107
7.31814e-05
-2.05059e-07
-0.000125549
5.6143e-05
-1.75082e-07
-0.000131584
3.83735e-05
-1.52412e-07
-0.000135227
1.99762e-05
-1.37158e-07
-0.000136445
1.02125e-06
-1.29703e-07
-0.000135025
-1.87629e-05
-1.31508e-07
-0.000130699
-3.91917e-05
-1.42261e-07
-0.000123066
-6.02855e-05
-1.62872e-07
-0.000111645
-8.18201e-05
-1.93081e-07
-9.59659e-05
-0.00010327
-2.29351e-07
-7.57252e-05
-0.000123669
-2.59761e-07
-5.10714e-05
-0.000141319
-2.57996e-07
-2.34132e-05
-0.000151535
-1.95003e-07
-0.000125787
1.81783e-07
-2.02404e-05
0.000127807
-9.75111e-07
-4.52892e-05
0.000157517
-6.83291e-07
-6.87584e-05
0.000151153
-5.663e-07
-8.95556e-05
0.000138158
-4.6143e-07
-0.000107367
0.000122203
-3.78604e-07
-0.000122164
0.000104371
-3.11002e-07
-0.000134076
8.53493e-05
-2.55977e-07
-0.000143293
6.55724e-05
-2.12486e-07
-0.000149992
4.52522e-05
-1.79745e-07
-0.00015428
2.4421e-05
-1.56537e-07
-0.000156145
3.02579e-06
-1.39179e-07
-0.000155418
-1.93427e-05
-1.46968e-07
-0.000151712
-4.27358e-05
-1.62408e-07
-0.000144439
-6.73663e-05
-1.91815e-07
-0.000132812
-9.32099e-05
-2.3765e-07
-0.000115935
-0.000119848
-2.98258e-07
-9.30171e-05
-0.000146226
-3.61176e-07
-6.37606e-05
-0.000170183
-3.92902e-07
-2.97524e-05
-0.000185203
-3.40763e-07
-0.000155646
1.06741e-07
-2.44367e-05
0.000153541
-1.29696e-06
-5.42015e-05
0.000188225
-9.42817e-07
-8.1539e-05
0.000179267
-7.76044e-07
-0.000105189
0.000162427
-6.20152e-07
-0.000124965
0.000142473
-4.93315e-07
-0.000141046
0.000120843
-3.90233e-07
-0.000153793
9.84043e-05
-3.08128e-07
-0.000163614
7.56381e-05
-2.45032e-07
-0.000170872
5.27092e-05
-1.9895e-07
-0.000175813
2.953e-05
-1.68213e-07
-0.000178507
5.8726e-06
-1.52813e-07
-0.000178825
-1.8872e-05
-1.52504e-07
-0.000176297
-4.50932e-05
-1.70215e-07
-0.000170127
-7.33265e-05
-2.09931e-07
-0.000159124
-0.000103936
-2.77166e-07
-0.000141745
-0.000136853
-3.75142e-07
-0.000116342
-0.000171134
-4.94178e-07
-8.1628e-05
-0.000204299
-5.97921e-07
-3.9217e-05
-0.000227033
-5.80605e-07
-0.000194784
-7.8802e-08
-3.02259e-05
0.00018556
-1.79348e-06
-6.60158e-05
0.000225357
-1.34256e-06
-9.79772e-05
0.000212309
-1.08046e-06
-0.000124697
0.000189981
-8.33327e-07
-0.000146307
0.000164713
-6.30727e-07
-0.000163343
0.000138349
-4.70469e-07
-0.000176525
0.000111935
-3.47875e-07
-0.000186586
8.59562e-05
-2.57737e-07
-0.000194153
6.04707e-05
-1.94356e-07
-0.000199673
3.52032e-05
-1.53029e-07
-0.000203349
9.68017e-06
-1.31166e-07
-0.000205148
-1.69468e-05
-1.27003e-07
-0.000204571
-4.55239e-05
-1.46231e-07
-0.000200634
-7.70673e-05
-1.95788e-07
-0.000191692
-0.000112589
-2.88271e-07
-0.000175319
-0.000152788
-4.37716e-07
-0.000148441
-0.000197366
-6.47043e-07
-0.00010768
-0.000244161
-8.98587e-07
-5.43202e-05
-0.000279427
-9.66509e-07
-0.000248572
-5.31923e-07
-3.86893e-05
0.000226837
-2.58742e-06
-8.22248e-05
0.000270861
-1.96848e-06
-0.000119603
0.000251206
-1.51839e-06
-0.000149374
0.000220857
-1.10544e-06
-0.000172343
0.000188453
-7.72075e-07
-0.000189634
0.000156163
-5.22526e-07
-0.000202519
0.000125164
-3.43499e-07
-0.000212179
9.58363e-05
-2.20174e-07
-0.00021959
6.80198e-05
-1.3782e-07
-0.000225472
4.11694e-05
-8.44569e-08
-0.000230219
1.44805e-05
-5.32267e-08
-0.000233966
-1.31607e-05
-3.94918e-08
-0.000236317
-4.31201e-05
-5.29916e-08
-0.000236215
-7.7066e-05
-1.03115e-07
-0.00023163
-0.000116961
-2.13249e-07
-0.000219094
-0.000164904
-4.19469e-07
-0.000193531
-0.000222172
-7.55816e-07
-0.000147186
-0.0002892
-1.30605e-06
-8.07459e-05
-0.000344289
-1.57794e-06
-0.00032776
-1.55809e-06
-5.15954e-05
0.000282534
-4.10183e-06
-0.000105125
0.00032743
-3.03899e-06
-0.000148709
0.000296941
-2.15056e-06
-0.000181047
0.000254606
-1.4113e-06
-0.000204298
0.000212554
-8.5035e-07
-0.000220566
0.000172902
-4.70737e-07
-0.000231945
0.000136768
-2.2497e-07
-0.000240198
0.00010416
-7.08972e-08
-0.000246707
7.45063e-05
2.30643e-08
-0.000252502
4.68876e-05
7.61653e-08
-0.000258264
2.01299e-05
1.12513e-07
-0.00026435
-7.21666e-06
1.4257e-07
-0.000270717
-3.69046e-05
1.51573e-07
-0.000276504
-7.14177e-05
1.38349e-07
-0.000279675
-0.000113861
7.05624e-08
-0.000275772
-0.000168667
-1.40351e-07
-0.000257659
-0.000239686
-5.98796e-07
-0.000209187
-0.000335974
-1.69807e-06
-0.000128634
-0.00042249
-2.35167e-06
-0.000452511
-3.88335e-06
-7.7129e-05
0.000365604
-5.94034e-06
-0.000140535
0.000395379
-4.54367e-06
-0.000189514
0.000348764
-2.84411e-06
-0.000222378
0.00028904
-1.56891e-06
-0.000243661
0.000234494
-6.56862e-07
-0.000256729
0.000186099
-1.29463e-07
-0.000264739
0.000144626
1.51079e-07
-0.000270107
0.000109234
2.94014e-07
-0.000274623
7.86563e-05
3.65883e-07
-0.000279613
5.14708e-05
4.07345e-07
-0.000286074
2.61402e-05
4.51044e-07
-0.000294562
7.2915e-07
5.41265e-07
-0.000305897
-2.61532e-05
5.84228e-07
-0.000319707
-5.8296e-05
6.87898e-07
-0.000335041
-9.93239e-05
7.98054e-07
-0.000346558
-0.000157938
7.875e-07
-0.000347879
-0.000238949
5.83682e-07
-0.000306261
-0.000376341
-1.25027e-06
-0.000219778
-0.000506787
-2.18637e-06
-0.000663783
-8.50604e-06
-0.000100845
0.000478988
-1.25386e-05
-0.000185125
0.000487015
-7.35589e-06
-0.000243681
0.000411022
-3.70253e-06
-0.000275566
0.000322025
-1.10007e-06
-0.00029117
0.000249759
3.39475e-07
-0.00029744
0.000191438
9.31907e-07
-0.000299217
0.000145275
1.12764e-06
-0.000299557
0.00010843
1.14388e-06
-0.00030049
7.84831e-05
1.10546e-06
-0.000303456
5.33625e-05
1.0746e-06
-0.000309556
3.11407e-05
1.09978e-06
-0.000320252
1.02266e-05
1.19876e-06
-0.000336466
-1.13958e-05
1.4563e-06
-0.000359028
-3.76814e-05
1.94721e-06
-0.000391061
-7.00311e-05
2.74016e-06
-0.000424867
-0.000127769
3.63664e-06
-0.000467634
-0.000201449
5.26786e-06
-0.000452961
-0.000393346
2.33059e-06
-0.000377652
-0.000584138
2.0418e-06
-0.00102574
-1.56947e-05
-0.000235567
0.000732714
-1.81593e-05
-0.000294866
0.00055925
-1.29355e-05
-0.000326244
0.000446204
-3.80346e-06
-0.000337259
0.000332688
3.51763e-07
-0.000333341
0.000243146
2.69536e-06
-0.000323625
0.000178388
3.33349e-06
-0.000312908
0.000131292
3.2655e-06
-0.000303723
9.63259e-05
2.92029e-06
-0.000297719
6.9909e-05
2.56929e-06
-0.000296063
4.93912e-05
2.3158e-06
-0.000299978
3.28362e-05
2.21955e-06
-0.000310741
1.86608e-05
2.32901e-06
-0.00033044
5.49919e-06
2.80317e-06
-0.000362685
-9.32138e-06
3.88595e-06
-0.000413957
-2.45849e-05
5.82563e-06
-0.000477976
-7.22568e-05
8.50674e-06
-0.000563295
-0.000130807
1.46767e-05
-0.000591076
-0.000378542
1.29767e-05
-0.000500898
-0.00069273
1.84154e-05
-0.0015083
-1.83373e-05
-0.000390551
0.00115877
-3.55096e-05
-0.000352758
0.00052381
-2.35267e-06
-0.000283774
0.000369691
7.52884e-06
-0.000208813
0.00024404
1.36857e-05
-0.00013924
0.000159609
1.39644e-05
-8.16603e-05
0.000109186
1.16221e-05
-3.71966e-05
7.76917e-05
9.1364e-06
-4.28191e-06
5.6336e-05
7.0752e-06
1.88718e-05
4.10907e-05
5.66461e-06
3.37027e-05
2.98289e-05
4.73139e-06
4.10107e-05
2.12091e-05
4.31912e-06
4.10837e-05
1.40531e-05
4.53464e-06
3.33152e-05
7.669e-06
5.59875e-06
1.57866e-05
4.81065e-07
7.72615e-06
-6.85529e-06
-1.50812e-05
1.31382e-05
-5.18175e-05
-4.41178e-05
1.68232e-05
-9.83109e-05
-0.000130757
4.64436e-05
-0.000182082
-0.000329506
3.47351e-05
-0.000181995
-0.000758533
6.57153e-05
-0.00164871
-4.15854e-05
0.00121475
-5.59744e-05
0.00177856
-4.00054e-05
0.00216635
-1.80908e-05
0.00241127
-8.83527e-07
0.00256426
6.6228e-06
0.00266492
8.51756e-06
0.00273432
8.29999e-06
0.00278344
7.21455e-06
0.00281853
5.99428e-06
0.00284336
4.99883e-06
0.00286012
4.45662e-06
0.00286996
4.20586e-06
0.00287249
5.14403e-06
0.00286736
5.60526e-06
0.00284102
1.12645e-05
0.00278404
1.28558e-05
0.00262482
2.84639e-05
0.00226527
3.00472e-05
0.00151784
-1.10989e-05
-0.000130874
-7.01904e-06
7.03467e-06
-5.5063e-08
-1.60709e-05
9.10795e-06
1.64795e-08
-2.49182e-05
8.90596e-06
3.75912e-08
-3.31538e-05
8.29112e-06
4.83283e-08
-4.05658e-05
7.46164e-06
4.98615e-08
-4.69742e-05
6.45107e-06
4.50121e-08
-5.22229e-05
5.2839e-06
3.55361e-08
-5.61809e-05
3.98563e-06
2.24338e-08
-5.8744e-05
2.58277e-06
6.50131e-09
-5.98347e-05
1.10305e-06
-1.27827e-08
-5.94053e-05
-4.24782e-07
-3.28175e-08
-5.74389e-05
-1.96976e-06
-5.40545e-08
-5.39533e-05
-3.49685e-06
-7.56054e-08
-4.90043e-05
-4.96791e-06
-9.62362e-08
-4.269e-05
-6.34081e-06
-1.14438e-07
-3.51536e-05
-7.57029e-06
-1.28181e-07
-2.65845e-05
-8.60909e-06
-1.34508e-07
-1.72294e-05
-9.39838e-06
-1.29294e-07
-7.56472e-06
-9.70516e-06
-1.09543e-07
-7.56094e-06
-2.8065e-08
-9.42759e-06
1.64363e-05
-1.41479e-07
-2.12356e-05
2.09368e-05
-7.14912e-08
-3.27573e-05
2.04517e-05
-4.31097e-08
-4.34724e-05
1.90288e-05
-2.34492e-08
-5.31009e-05
1.71101e-05
-1.25816e-08
-6.14087e-05
1.4776e-05
-7.68336e-09
-6.81958e-05
1.20858e-05
-7.0343e-09
-7.32967e-05
9.09954e-06
-9.73041e-09
-7.65811e-05
5.87905e-06
-1.51734e-08
-7.79541e-05
2.48656e-06
-2.29584e-08
-7.7361e-05
-1.0088e-06
-3.24792e-08
-7.47801e-05
-4.54301e-06
-4.34031e-08
-7.02378e-05
-8.03304e-06
-5.51713e-08
-6.38069e-05
-1.13945e-05
-6.66795e-08
-5.56134e-05
-1.45324e-05
-7.64724e-08
-4.58409e-05
-1.73438e-05
-8.24822e-08
-3.47333e-05
-1.97201e-05
-8.15603e-08
-2.26107e-05
-2.15249e-05
-6.93081e-08
-1.00756e-05
-2.22398e-05
-4.3258e-08
-1.75902e-05
4.42172e-08
-1.00568e-05
2.64613e-05
-1.82998e-07
-2.26456e-05
3.35429e-05
-1.11648e-07
-3.49139e-05
3.27408e-05
-8.04772e-08
-4.63124e-05
3.0448e-05
-5.79459e-08
-5.65478e-05
2.73638e-05
-4.32795e-08
-6.53756e-05
2.36197e-05
-3.40875e-08
-7.25886e-05
1.93126e-05
-2.87401e-08
-7.80167e-05
1.454e-05
-2.64734e-08
-8.15265e-05
9.40001e-06
-2.68927e-08
-8.30213e-05
3.99184e-06
-2.97168e-08
-8.24343e-05
-1.58606e-06
-3.45726e-08
-7.97445e-05
-7.22376e-06
-4.1151e-08
-7.49707e-05
-1.27986e-05
-4.8862e-08
-6.81793e-05
-1.8179e-05
-5.66912e-08
-5.94926e-05
-2.32141e-05
-6.32068e-08
-4.90954e-05
-2.77382e-05
-6.62961e-08
-3.72408e-05
-3.1574e-05
-6.26536e-08
-2.42675e-05
-3.44974e-05
-4.75937e-08
-1.08209e-05
-3.56805e-05
-1.8813e-08
-2.83561e-05
7.18764e-08
-1.07398e-05
3.71691e-05
-2.22141e-07
-2.41902e-05
4.70141e-05
-1.48708e-07
-3.72851e-05
4.58599e-05
-1.14245e-07
-4.94392e-05
4.26257e-05
-8.79047e-08
-6.03437e-05
3.8289e-05
-6.9817e-08
-6.97457e-05
3.30393e-05
-5.70419e-08
-7.74337e-05
2.70157e-05
-4.80098e-08
-8.32361e-05
2.03556e-05
-4.20307e-08
-8.70176e-05
1.31933e-05
-3.87864e-08
-8.86775e-05
5.66239e-06
-3.80873e-08
-8.81457e-05
-2.10808e-06
-3.98026e-08
-8.53856e-05
-9.97483e-06
-4.35036e-08
-8.04042e-05
-1.77719e-05
-4.86903e-08
-7.32529e-05
-2.53234e-05
-5.44133e-08
-6.40408e-05
-3.24211e-05
-5.92019e-08
-5.29463e-05
-3.88299e-05
-6.0799e-08
-4.02278e-05
-4.42919e-05
-5.55877e-08
-2.62469e-05
-4.84773e-05
-3.83708e-08
-1.17103e-05
-5.02104e-05
-6.64914e-09
-4.00059e-05
8.99665e-08
-1.16867e-05
4.88254e-05
-2.65013e-07
-2.63225e-05
6.16781e-05
-1.87592e-07
-4.05518e-05
6.01202e-05
-1.49174e-07
-5.37372e-05
5.58406e-05
-1.18718e-07
-6.55496e-05
5.01269e-05
-9.67656e-08
-7.57261e-05
4.32371e-05
-8.03208e-08
-8.40531e-05
3.53604e-05
-6.77803e-08
-9.03597e-05
2.66769e-05
-5.84976e-08
-9.45118e-05
1.73578e-05
-5.22276e-08
-9.64058e-05
7.56703e-06
-4.88684e-08
-9.59642e-05
-2.54045e-06
-4.83129e-08
-9.31322e-05
-1.27986e-05
-5.01292e-08
-8.78963e-05
-2.30008e-05
-5.39556e-08
-8.02826e-05
-3.29317e-05
-5.8839e-08
-7.03759e-05
-4.23242e-05
-6.32071e-08
-5.83389e-05
-5.08658e-05
-6.45487e-08
-4.44314e-05
-5.82003e-05
-5.87425e-08
-2.90447e-05
-6.38642e-05
-3.97778e-08
-1.29744e-05
-6.62746e-05
-4.69549e-09
-5.29138e-05
1.01776e-07
-1.29439e-05
6.17417e-05
-3.16937e-07
-2.91457e-05
7.79178e-05
-2.33615e-07
-4.48636e-05
7.58784e-05
-1.90032e-07
-5.93908e-05
7.04054e-05
-1.54357e-07
-7.2373e-05
6.31408e-05
-1.27651e-07
-8.35389e-05
5.44289e-05
-1.06831e-07
-9.26772e-05
4.45192e-05
-9.0285e-08
-9.9624e-05
3.36401e-05
-7.74138e-08
-0.000104251
2.19981e-05
-6.80359e-08
-0.000106457
9.78229e-06
-6.21217e-08
-0.000106154
-2.83488e-06
-5.96504e-08
-0.000103265
-1.56817e-05
-6.01503e-08
-9.77445e-05
-2.85168e-05
-6.34143e-08
-8.95786e-05
-4.10946e-05
-6.84898e-08
-7.88102e-05
-5.30915e-05
-7.36612e-08
-6.5569e-05
-6.41081e-05
-7.60534e-08
-5.01056e-05
-7.36669e-05
-7.08055e-08
-3.28434e-05
-8.11284e-05
-5.06817e-08
-1.46994e-05
-8.44125e-05
-1.20656e-08
-6.75386e-05
1.08802e-07
-1.45601e-05
7.62778e-05
-3.83548e-07
-3.2764e-05
9.6172e-05
-2.92371e-07
-5.03667e-05
9.35328e-05
-2.41785e-07
-6.65717e-05
8.66575e-05
-1.98914e-07
-8.09966e-05
7.76048e-05
-1.65655e-07
-9.33672e-05
6.68305e-05
-1.38888e-07
-0.000103484
5.46598e-05
-1.17036e-07
-0.000111203
4.13758e-05
-9.95736e-08
-0.000116411
2.72186e-05
-8.63914e-08
-0.000119014
1.23933e-05
-7.75391e-08
-0.000118921
-2.92303e-06
-7.31039e-08
-0.00011602
-1.858e-05
-7.25233e-08
-0.000110222
-3.43138e-05
-7.58354e-08
-0.000101452
-4.98654e-05
-8.21239e-08
-8.96822e-05
-6.48636e-05
-8.95298e-08
-7.49798e-05
-7.88153e-05
-9.47185e-08
-5.75609e-05
-9.10922e-05
-9.17994e-08
-3.78754e-05
-0.000100818
-7.1722e-08
-1.7e-05
-0.000105282
-2.95237e-08
-8.44526e-05
1.10641e-07
-1.66053e-05
9.2864e-05
-4.71632e-07
-3.73237e-05
0.000116957
-3.70392e-07
-5.72614e-05
0.000113537
-3.09979e-07
-7.55086e-05
0.000104963
-2.56709e-07
-9.16553e-05
9.3799e-05
-2.13877e-07
-0.000105437
8.0648e-05
-1.78469e-07
-0.000116685
6.59332e-05
-1.49044e-07
-0.000125292
4.99997e-05
-1.25188e-07
-0.000131181
3.31172e-05
-1.06861e-07
-0.000134276
1.54924e-05
-9.41841e-08
-0.000134488
-2.71118e-06
-8.73939e-08
-0.000131666
-2.14059e-05
-8.5727e-08
-0.000125658
-4.03273e-05
-8.9654e-08
-0.000116297
-5.92334e-05
-9.83665e-08
-0.000103443
-7.77263e-05
-1.09957e-07
-8.70478e-05
-9.52207e-05
-1.20596e-07
-6.72457e-05
-0.000110905
-1.2303e-07
-4.44877e-05
-0.000123583
-1.0553e-07
-2.00526e-05
-0.000129711
-6.06703e-08
-0.000104404
1.04648e-07
-1.91834e-05
0.000112036
-5.90682e-07
-4.30361e-05
0.000140897
-4.76584e-07
-6.58294e-05
0.000136414
-4.01807e-07
-8.65122e-05
0.000125719
-3.32924e-07
-0.000104656
0.000111999
-2.75586e-07
-0.000120029
9.60617e-05
-2.27194e-07
-0.000132525
7.84553e-05
-1.86609e-07
-0.000142107
5.95958e-05
-1.5355e-07
-0.000148759
3.97733e-05
-1.27979e-07
-0.000152444
1.91746e-05
-1.10009e-07
-0.00015309
-2.07518e-06
-1.00039e-07
-0.000150498
-2.40115e-05
-9.70993e-08
-0.000144437
-4.64043e-05
-1.02225e-07
-0.000134606
-6.90828e-05
-1.14859e-07
-0.000120688
-9.16634e-05
-1.33366e-07
-0.000102438
-0.000113491
-1.53577e-07
-7.98164e-05
-0.000133546
-1.66589e-07
-5.32093e-05
-0.000150204
-1.56813e-07
-2.414e-05
-0.000158775
-1.12196e-07
-0.000128424
8.50555e-08
-2.2453e-05
0.000134487
-7.55062e-07
-5.02122e-05
0.000168771
-6.24066e-07
-7.64709e-05
0.00016278
-5.27253e-07
-0.000100007
0.000149344
-4.34083e-07
-0.000120397
0.000132455
-3.54183e-07
-0.000137488
0.000113196
-2.8595e-07
-0.000151285
9.22762e-05
-2.2876e-07
-0.000161871
7.01883e-05
-1.82398e-07
-0.00016933
4.72271e-05
-1.46603e-07
-0.000173699
2.35275e-05
-1.21176e-07
-0.000174941
-8.56736e-07
-1.06693e-07
-0.000172813
-2.61687e-05
-1.02013e-07
-0.000166987
-5.22631e-05
-1.08861e-07
-0.000156976
-7.91297e-05
-1.2712e-07
-0.000142197
-0.00010648
-1.56158e-07
-0.000122078
-0.000133647
-1.92163e-07
-9.62464e-05
-0.000159413
-2.24616e-07
-6.48676e-05
-0.000181608
-2.32685e-07
-2.97343e-05
-0.000193909
-1.95122e-07
-0.000158017
4.06686e-08
-2.66662e-05
0.000161166
-9.87568e-07
-5.93204e-05
0.000201575
-8.32966e-07
-8.97653e-05
0.000193359
-7.00495e-07
-0.00011658
0.000176266
-5.68285e-07
-0.000139404
0.000155353
-4.52603e-07
-0.000158236
0.000132071
-3.53833e-07
-0.000173276
0.000107332
-2.72031e-07
-0.000184794
8.17007e-05
-2.0672e-07
-0.000193039
5.54488e-05
-1.56802e-07
-0.000198158
2.86111e-05
-1.2064e-07
-0.000200189
1.12995e-06
-9.51432e-08
-0.000198861
-2.75515e-05
-9.2381e-08
-0.00019374
-5.7445e-05
-1.01398e-07
-0.0001841
-8.88347e-05
-1.26711e-07
-0.000168975
-0.000121672
-1.70471e-07
-0.000147269
-0.00015542
-2.30991e-07
-0.000118005
-0.000188742
-2.97365e-07
-8.07958e-05
-0.000218867
-3.42791e-07
-3.76696e-05
-0.000237049
-3.26759e-07
-0.000195523
-5.74643e-08
-3.22399e-05
0.000193434
-1.32575e-06
-7.10852e-05
0.000240612
-1.13492e-06
-0.000106567
0.000229006
-9.41564e-07
-0.000137052
0.000206876
-7.44732e-07
-0.000162364
0.000180742
-5.71497e-07
-0.000182785
0.000152528
-4.25766e-07
-0.000198825
0.000123372
-3.08047e-07
-0.000211047
9.38937e-05
-2.16663e-07
-0.000219941
6.42922e-05
-1.48598e-07
-0.000225838
3.44407e-05
-1.00699e-07
-0.000228837
4.04783e-06
-7.13757e-08
-0.000228774
-2.77083e-05
-5.92732e-08
-0.000225064
-6.1258e-05
-6.70012e-08
-0.000216718
-9.72915e-05
-9.85361e-08
-0.000202269
-0.000136239
-1.60067e-07
-0.000179821
-0.000177988
-2.55571e-07
-0.00014734
-0.000221339
-3.77991e-07
-0.000103214
-0.000263093
-4.97765e-07
-4.95156e-05
-0.000290795
-5.33055e-07
-0.000244852
-2.64642e-07
-3.98982e-05
0.000233373
-1.83387e-06
-8.66562e-05
0.000287608
-1.58054e-06
-0.000128154
0.000270701
-1.27772e-06
-0.000162579
0.00024144
-9.71245e-07
-0.000190186
0.000208422
-7.04659e-07
-0.000211747
0.000174107
-4.87465e-07
-0.00022826
0.000139856
-3.18996e-07
-0.00024071
0.00010628
-1.93688e-07
-0.000249933
7.34241e-05
-1.03678e-07
-0.000256513
4.09093e-05
-4.1969e-08
-0.000260705
8.1131e-06
-3.85399e-09
-0.000262462
-2.60985e-05
2.01584e-08
-0.000261145
-6.27386e-05
1.72573e-08
-0.000255516
-0.000103098
-1.81491e-08
-0.000243534
-0.000148415
-9.37758e-08
-0.000222205
-0.000199522
-2.31543e-07
-0.000187742
-0.000256011
-4.38606e-07
-0.00013595
-0.000315082
-7.0166e-07
-6.84538e-05
-0.00035841
-8.47756e-07
-0.000313164
-6.74468e-07
-5.09958e-05
0.000284399
-2.61729e-06
-0.000107935
0.000344824
-2.24553e-06
-0.000156475
0.000319463
-1.74076e-06
-0.000194796
0.000279902
-1.24605e-06
-0.000224057
0.000237739
-8.28246e-07
-0.000245834
0.000195867
-5.05397e-07
-0.000261863
0.000155811
-2.69898e-07
-0.000273722
0.000118025
-1.05838e-07
-0.00028269
8.22501e-05
3.39172e-09
-0.000289695
4.7741e-05
8.95856e-08
-0.000295226
1.34433e-05
1.4742e-07
-0.000299431
-2.21205e-05
1.87096e-07
-0.000301769
-6.0656e-05
2.03129e-07
-0.000300897
-0.000104257
1.83687e-07
-0.00029427
-0.000155355
9.97286e-08
-0.000277601
-0.000216524
-8.62352e-08
-0.000244635
-0.000289333
-3.99094e-07
-0.000185823
-0.00037427
-9.29705e-07
-0.000101852
-0.000442655
-1.30445e-06
-0.000415087
-1.48674e-06
-6.75411e-05
0.000351804
-3.96607e-06
-0.000137701
0.000415233
-3.28771e-06
-0.000194367
0.00037635
-2.37109e-06
-0.00023597
0.000321633
-1.53914e-06
-0.000265479
0.000267275
-8.77088e-07
-0.000285811
0.000216136
-4.07421e-07
-0.0002998
0.000169673
-9.66715e-08
-0.000309788
0.000127833
1.0894e-07
-0.000317576
8.98163e-05
2.45237e-07
-0.000324479
5.4382e-05
3.37696e-07
-0.000331325
1.99914e-05
4.10134e-07
-0.000338549
-1.52333e-05
4.79781e-07
-0.000345982
-5.36111e-05
5.39759e-07
-0.000352511
-9.81701e-05
5.79902e-07
-0.00035555
-0.000152803
5.573e-07
-0.000349592
-0.000223004
3.81402e-07
-0.00032589
-0.000313572
-6.18619e-08
-0.000264673
-0.000436145
-1.04011e-06
-0.000163271
-0.000544597
-1.81139e-06
-0.000579046
-3.19429e-06
-9.98681e-05
0.000451421
-5.68925e-06
-0.000183384
0.000498923
-4.71777e-06
-0.000247088
0.000440291
-3.08137e-06
-0.000289373
0.000364059
-1.70993e-06
-0.000316254
0.000294186
-6.86975e-07
-0.000332345
0.000232143
-4.61818e-08
-0.000341918
0.000179054
3.42875e-07
-0.000348172
0.000133824
5.5739e-07
-0.00035343
9.47607e-05
6.78724e-07
-0.000359361
5.99581e-05
7.62889e-07
-0.000367156
2.73873e-05
8.50111e-07
-0.000377637
-5.18156e-06
9.6991e-07
-0.000391415
-4.0367e-05
1.11892e-06
-0.000408113
-8.20939e-05
1.30886e-06
-0.000426399
-0.000135212
1.49346e-06
-0.000439691
-0.000210444
1.51997e-06
-0.000440519
-0.000313428
1.26774e-06
-0.000389006
-0.000488454
-4.53856e-07
-0.000280465
-0.00065369
-1.63527e-06
-0.000861578
-6.44001e-06
-0.000126387
0.000575733
-1.0464e-05
-0.000239015
0.000611317
-7.12197e-06
-0.000316018
0.000517514
-3.92336e-06
-0.000357599
0.000406002
-1.46202e-06
-0.000377304
0.000314119
1.10701e-07
-0.000384547
0.000239439
8.7868e-07
-0.000385979
0.000180378
1.23647e-06
-0.00038571
0.000133327
1.37179e-06
-0.000386383
9.51212e-05
1.41742e-06
-0.000389788
6.29832e-05
1.45459e-06
-0.000397306
3.44603e-05
1.5448e-06
-0.000410564
7.53858e-06
1.73673e-06
-0.000430613
-2.0941e-05
2.07891e-06
-0.000458432
-5.49314e-05
2.60424e-06
-0.000497526
-9.67381e-05
3.35972e-06
-0.000538168
-0.000170234
4.06831e-06
-0.000590002
-0.000261421
5.09569e-06
-0.000572291
-0.000506254
2.41997e-06
-0.000472184
-0.000752977
1.22222e-06
-0.00133792
-1.15383e-05
-0.000286337
0.000858737
-1.48258e-05
-0.000374367
0.000697553
-1.11416e-05
-0.000421063
0.000564728
-4.32125e-06
-0.000437419
0.000423237
-5.27022e-07
-0.000431705
0.000309307
1.79286e-06
-0.000417652
0.000226022
2.69774e-06
-0.000402235
0.000165311
2.91513e-06
-0.000389032
0.000120235
2.80902e-06
-0.000380251
8.6277e-05
2.63253e-06
-0.000377294
5.98268e-05
2.51454e-06
-0.00038155
3.83981e-05
2.53755e-06
-0.000394332
1.988e-05
2.77006e-06
-0.000418045
2.24359e-06
3.3316e-06
-0.00045689
-1.64643e-05
4.26358e-06
-0.000517238
-3.64162e-05
5.85149e-06
-0.000589955
-9.66612e-05
7.65189e-06
-0.000683324
-0.000164653
1.12775e-05
-0.000704696
-0.000480946
9.03944e-06
-0.000566188
-0.000883537
1.04669e-05
-0.00190691
-1.55286e-05
-0.000526165
0.00137434
-2.4946e-05
-0.000488532
0.000663705
-6.13746e-06
-0.000398065
0.000479795
1.99496e-06
-0.000292253
0.00032376
7.3505e-06
-0.000191795
0.000214066
8.74728e-06
-0.000108179
0.000145995
8.03281e-06
-4.34151e-05
0.000102838
6.84586e-06
4.53234e-06
7.3677e-05
5.68608e-06
3.86526e-05
5.29981e-05
4.82329e-06
6.10349e-05
3.79113e-05
4.2646e-06
7.31749e-05
2.64884e-05
4.0888e-06
7.62161e-05
1.69635e-05
4.40979e-06
6.97814e-05
8.86715e-06
5.40995e-06
5.43438e-05
-5.59966e-07
7.25941e-06
3.71297e-05
-1.7862e-05
1.17981e-05
-5.57188e-06
-5.10714e-05
1.39349e-05
-2.34459e-06
-0.000154261
3.28242e-05
-9.15715e-05
-0.000381565
2.45815e-05
-3.63973e-05
-0.00091274
3.97444e-05
-0.00195351
-3.13835e-05
0.00135695
-3.8588e-05
0.00201058
-2.99259e-05
0.00248825
-1.59659e-05
0.00281474
-3.612e-06
0.00303235
3.07186e-06
0.00318132
5.54512e-06
0.00328636
6.10248e-06
0.00336152
5.73369e-06
0.00341545
5.06106e-06
0.00345392
4.43545e-06
0.00348077
4.09273e-06
0.00349796
3.98356e-06
0.00350724
4.73462e-06
0.00350705
5.22828e-06
0.00349121
9.24382e-06
0.00344276
1.02375e-05
0.00329703
1.99332e-05
0.00292523
2.02762e-05
0.00200485
-3.45798e-06
-7.95341e-05
-7.14524e-06
7.1508e-06
-6.06278e-08
-1.63792e-05
9.28428e-06
-3.38264e-08
-2.54042e-05
9.08044e-06
-1.78648e-08
-3.38022e-05