/*--------------------------------*- C++ -*----------------------------------*\
  =========                 |
  \\      /  F ield         | OpenFOAM: The Open Source CFD Toolbox
   \\    /   O peration     | Website:  https://openfoam.org
    \\  /    A nd           | Version:  10
     \\/     M anipulation  |
\*---------------------------------------------------------------------------*/
FoamFile
{
    format      ascii;
    class       volVectorField;
    location    "8.425";
    object      U;
}
// * * * * * * * * * * * * * * * * * * * * * * * * * * * * * * * * * * * * * //

dimensions      [0 1 -1 0 0 0 0];

internalField   nonuniform List<vector> 
475
(
(0.974316 0.0161421 0)
(0.975794 0.00634098 0)
(0.950272 0.0315223 0)
(0.954476 0.00113758 0)
(0.920043 0.0302338 0)
(0.998394 0.00870262 0)
(1.01425 0.014786 0)
(1.02515 0.0151942 0)
(1.04402 0.00861666 0)
(1.05546 0.00208466 0)
(0.999735 0.000266254 0)
(1.00997 -0.00296607 0)
(1.02395 -0.00472535 0)
(1.04158 -0.0093766 0)
(1.05601 -0.0144013 0)
(0.999873 -0.0100331 0)
(1.0103 -0.0195579 0)
(1.02253 -0.0220332 0)
(1.0357 -0.0231256 0)
(1.0441 -0.025623 0)
(0.980966 -0.00963296 0)
(0.968957 -0.0192101 0)
(0.953847 -0.021739 0)
(0.933188 -0.0224256 0)
(0.907697 -0.0227791 0)
(0.925073 -0.0162425 0)
(0.93235 -0.0360499 0)
(0.937685 -0.0487709 0)
(0.943905 -0.058108 0)
(0.953093 -0.0666912 0)
(0.966139 -0.0770192 0)
(0.98286 -0.089923 0)
(1.00211 -0.106534 0)
(1.0221 -0.125973 0)
(1.04184 -0.148308 0)
(1.05908 -0.171748 0)
(1.07274 -0.194728 0)
(1.08087 -0.21544 0)
(1.08304 -0.231273 0)
(1.07799 -0.241098 0)
(1.06593 -0.243386 0)
(1.04664 -0.239197 0)
(1.02037 -0.23 0)
(0.990133 -0.216167 0)
(0.959802 -0.197599 0)
(0.930814 -0.174931 0)
(0.903497 -0.148449 0)
(0.878326 -0.119542 0)
(0.855339 -0.0895009 0)
(0.835685 -0.0597796 0)
(0.820388 -0.0315177 0)
(0.809103 -0.00506415 0)
(0.802361 0.0183398 0)
(0.798729 0.0383695 0)
(0.798705 0.0551772 0)
(0.799412 0.0683029 0)
(0.802442 0.0779656 0)
(0.803053 0.0829227 0)
(0.80657 0.0852157 0)
(0.804846 0.0827622 0)
(0.807702 0.0796795 0)
(0.802043 0.0715313 0)
(0.803549 0.0655108 0)
(0.793551 0.0556654 0)
(0.792943 0.0501402 0)
(0.779205 0.0421914 0)
(0.777213 0.0361562 0)
(0.761253 0.0312823 0)
(0.759269 0.0259104 0)
(0.740338 0.0268426 0)
(1.06881 -0.00862108 0)
(1.07764 -0.0212052 0)
(1.08284 -0.0330833 0)
(1.08405 -0.04401 0)
(1.08503 -0.0551519 0)
(1.08538 -0.0677955 0)
(1.08633 -0.0828817 0)
(1.08609 -0.101032 0)
(1.08452 -0.121774 0)
(1.08021 -0.144455 0)
(1.07193 -0.167591 0)
(1.05935 -0.189118 0)
(1.04063 -0.206499 0)
(1.01666 -0.216853 0)
(0.985658 -0.218464 0)
(0.949124 -0.21246 0)
(0.905355 -0.204186 0)
(0.854983 -0.192845 0)
(0.802837 -0.175784 0)
(0.752648 -0.154614 0)
(0.705632 -0.131316 0)
(0.663827 -0.107515 0)
(0.62731 -0.0840825 0)
(0.595751 -0.0612117 0)
(0.570351 -0.0392936 0)
(0.552217 -0.0182351 0)
(0.539998 0.00184625 0)
(0.534715 0.0200889 0)
(0.536002 0.0360557 0)
(0.542355 0.0497091 0)
(0.551504 0.0607058 0)
(0.563613 0.069133 0)
(0.575574 0.0739634 0)
(0.589468 0.0764606 0)
(0.600005 0.074647 0)
(0.611954 0.072339 0)
(0.617828 0.0660623 0)
(0.625378 0.0631294 0)
(0.626622 0.0558737 0)
(0.629817 0.0535724 0)
(0.629536 0.0456297 0)
(0.629828 0.0421952 0)
(0.629578 0.03678 0)
(0.628048 0.0339328 0)
(0.626187 0.0349496 0)
(1.06896 -0.0223011 0)
(1.07617 -0.0327649 0)
(1.0811 -0.0439872 0)
(1.08069 -0.0549559 0)
(1.07906 -0.0656795 0)
(1.07382 -0.0770359 0)
(1.06743 -0.0900843 0)
(1.05787 -0.104706 0)
(1.04533 -0.12189 0)
(1.02935 -0.139734 0)
(1.0078 -0.159117 0)
(0.982851 -0.175215 0)
(0.95083 -0.187947 0)
(0.914106 -0.189362 0)
(0.867505 -0.177845 0)
(0.811583 -0.160387 0)
(0.742605 -0.150568 0)
(0.669984 -0.143735 0)
(0.599076 -0.132598 0)
(0.525002 -0.112577 0)
(0.45506 -0.0873497 0)
(0.395664 -0.0621319 0)
(0.347894 -0.0408735 0)
(0.310277 -0.0240552 0)
(0.282654 -0.0101122 0)
(0.264985 0.00220165 0)
(0.255531 0.0141901 0)
(0.253988 0.0254227 0)
(0.258903 0.035115 0)
(0.269154 0.0435776 0)
(0.283528 0.0507573 0)
(0.301219 0.0564308 0)
(0.320518 0.0599797 0)
(0.341328 0.0618343 0)
(0.361213 0.0613502 0)
(0.381478 0.0602165 0)
(0.399196 0.0568489 0)
(0.416716 0.0545441 0)
(0.432809 0.0488963 0)
(0.446594 0.0463152 0)
(0.463304 0.039007 0)
(0.471038 0.0372569 0)
(0.489478 0.0314064 0)
(0.490556 0.030811 0)
(0.511025 0.0296359 0)
(1.05078 -0.0301112 0)
(1.05073 -0.0361237 0)
(1.04895 -0.0425948 0)
(1.03962 -0.0493295 0)
(1.02871 -0.0557969 0)
(1.01011 -0.0631264 0)
(0.98954 -0.0709532 0)
(0.961066 -0.0806203 0)
(0.928013 -0.0913607 0)
(0.887292 -0.103704 0)
(0.837373 -0.116702 0)
(0.782876 -0.127813 0)
(0.713969 -0.137258 0)
(0.64658 -0.133097 0)
(0.571575 -0.11337 0)
(0.478955 -0.0883688 0)
(0.350671 -0.0598315 0)
(0.227226 -0.0258835 0)
(0.136974 -0.00431063 0)
(0.0752173 -0.00269534 0)
(0.0397832 -0.00695462 0)
(0.0206198 -0.0076127 0)
(0.00976855 -0.00525571 0)
(0.00418232 -0.00167932 0)
(0.00259268 0.00236395 0)
(0.00503692 0.00676427 0)
(0.011524 0.0113712 0)
(0.0222195 0.0157239 0)
(0.0367655 0.0199808 0)
(0.0547706 0.0241126 0)
(0.0758594 0.0278692 0)
(0.0995386 0.0309896 0)
(0.125072 0.0330874 0)
(0.151918 0.0342671 0)
(0.179021 0.034263 0)
(0.206261 0.0334928 0)
(0.23232 0.0315379 0)
(0.257627 0.0294636 0)
(0.28125 0.0263321 0)
(0.302646 0.0238651 0)
(0.324053 0.0201194 0)
(0.33886 0.0183242 0)
(0.360678 0.0147582 0)
(0.366833 0.0144919 0)
(0.393289 0.0126576 0)
(0.87995 -0.0243902 0)
(0.848572 -0.0260465 0)
(0.815452 -0.0283367 0)
(0.776446 -0.0304029 0)
(0.735464 -0.0326005 0)
(0.686322 -0.0353741 0)
(0.635761 -0.0378975 0)
(0.574713 -0.0427646 0)
(0.511559 -0.0459418 0)
(0.435341 -0.0539732 0)
(0.352762 -0.0562841 0)
(0.260829 -0.0671549 0)
(0.144637 -0.0653909 0)
(0.0502581 -0.0209547 0)
(-0.0107131 0.0284653 0)
(-0.0343697 0.060267 0)
(-0.0356715 0.0682071 0)
(-0.0239193 0.0453498 0)
(-0.0144156 0.0090251 0)
(-0.0180767 -0.0185995 0)
(-0.0347005 -0.027277 0)
(-0.0543481 -0.025096 0)
(-0.0700655 -0.0192897 0)
(-0.0808263 -0.0137109 0)
(-0.0868279 -0.00921942 0)
(-0.0883966 -0.00552984 0)
(-0.0860804 -0.00246814 0)
(-0.0803432 0.000106513 0)
(-0.0713484 0.00221329 0)
(-0.0593125 0.00396468 0)
(-0.0445048 0.00539936 0)
(-0.0273518 0.00649982 0)
(-0.00836446 0.00719123 0)
(0.0118502 0.00755097 0)
(0.0324397 0.00752205 0)
(0.0528271 0.00717911 0)
(0.0723365 0.00646185 0)
(0.0906871 0.00566281 0)
(0.107245 0.00467427 0)
(0.122039 0.00378103 0)
(0.134832 0.00289661 0)
(0.145501 0.00217671 0)
(0.155523 0.00172184 0)
(0.16174 0.00164031 0)
(0.17397 0.00153964 0)
(0.00294144 -0.0247468 0)
(0.00353444 -0.0246682 0)
(-0.00460581 -0.0157742 0)
(-0.0235097 0.00190426 0)
(-0.0599367 0.0184703 0)
(-0.10628 0.0264022 0)
(-0.154124 0.0283124 0)
(-0.199386 0.0273529 0)
(-0.23827 0.0242909 0)
(-0.267643 0.0197905 0)
(-0.285226 0.014154 0)
(-0.290153 0.00770078 0)
(-0.28266 0.000298048 0)
(-0.262976 -0.00687383 0)
(-0.231739 -0.0134471 0)
(-0.19051 -0.0188135 0)
(-0.142221 -0.0218943 0)
(-0.0893619 -0.0237933 0)
(-0.0340696 -0.0240301 0)
(0.0213075 -0.0231538 0)
(0.0745713 -0.0212707 0)
(0.123314 -0.0183046 0)
(0.165636 -0.0144858 0)
(0.199979 -0.0101954 0)
(0.225531 -0.00576308 0)
(0.242006 -0.00135651 0)
(0.249076 0.00261235 0)
(0.248199 0.0059769 0)
(0.240442 0.0083107 0)
(0.227487 0.00946891 0)
(0.211037 0.0100437 0)
(0.192785 0.0104412 0)
(0.174 0.0103146 0)
(0.155808 0.00896797 0)
(0.139291 0.00643793 0)
(0.125928 0.00330191 0)
(0.11636 0.000357938 0)
(0.110922 -0.00190689 0)
(0.108548 -0.00332826 0)
(0.108824 -0.00408625 0)
(0.110619 -0.00432593 0)
(0.113787 -0.00400403 0)
(0.117917 -0.00316323 0)
(0.121099 -0.00243477 0)
(0.127109 -0.00136134 0)
(-0.00137172 0.0198568 0)
(-0.0203799 0.0341109 0)
(-0.0626058 0.0457725 0)
(-0.0989211 0.0573496 0)
(-0.133968 0.0656536 0)
(-0.161502 0.0669087 0)
(-0.182755 0.0625911 0)
(-0.19718 0.0539041 0)
(-0.204257 0.0419836 0)
(-0.202073 0.0262782 0)
(-0.190055 0.00911124 0)
(-0.167923 -0.00951011 0)
(-0.13604 -0.0285527 0)
(-0.0942027 -0.0465488 0)
(-0.0439238 -0.0625569 0)
(0.0136997 -0.0749109 0)
(0.0769945 -0.0832188 0)
(0.142174 -0.0874159 0)
(0.207542 -0.0878761 0)
(0.270739 -0.0850769 0)
(0.330429 -0.0793062 0)
(0.385105 -0.0706755 0)
(0.433136 -0.0596238 0)
(0.473274 -0.0468664 0)
(0.504843 -0.0334757 0)
(0.527891 -0.0200089 0)
(0.541737 -0.00713455 0)
(0.547977 0.00420888 0)
(0.546926 0.0139012 0)
(0.538778 0.0213871 0)
(0.524548 0.0260548 0)
(0.506917 0.0277362 0)
(0.487454 0.0276085 0)
(0.468034 0.0263305 0)
(0.449325 0.0236672 0)
(0.432611 0.0191979 0)
(0.417405 0.0140452 0)
(0.405275 0.0089477 0)
(0.395227 0.00506264 0)
(0.387869 0.00148432 0)
(0.383197 -0.000805442 0)
(0.380205 -0.00332468 0)
(0.379331 -0.00443408 0)
(0.378413 -0.00536255 0)
(0.376977 -0.00547495 0)
(-0.0346708 -0.00950198 0)
(-0.0668556 0.0316182 0)
(-0.0749376 0.0517371 0)
(-0.0765693 0.0648657 0)
(-0.0698502 0.0706923 0)
(-0.0567323 0.0685217 0)
(-0.0395059 0.0600931 0)
(-0.017199 0.0465169 0)
(0.00802541 0.0285559 0)
(0.039066 0.00674993 0)
(0.0767854 -0.0180763 0)
(0.121715 -0.0452786 0)
(0.172456 -0.0729459 0)
(0.227521 -0.0984572 0)
(0.286911 -0.121027 0)
(0.347691 -0.137743 0)
(0.40876 -0.148597 0)
(0.468528 -0.153479 0)
(0.525505 -0.152847 0)
(0.578533 -0.147169 0)
(0.626916 -0.136573 0)
(0.669806 -0.12159 0)
(0.706347 -0.103025 0)
(0.735884 -0.0821079 0)
(0.75815 -0.0601735 0)
(0.773573 -0.0381998 0)
(0.781974 -0.0171524 0)
(0.784386 0.00137874 0)
(0.781096 0.0173113 0)
(0.772481 0.0302865 0)
(0.758977 0.0396488 0)
(0.742627 0.044926 0)
(0.723997 0.0472648 0)
(0.705621 0.046778 0)
(0.686741 0.0436162 0)
(0.669225 0.0367919 0)
(0.650875 0.0289218 0)
(0.635652 0.0208299 0)
(0.619566 0.0143176 0)
(0.609356 0.00827929 0)
(0.597037 0.00254685 0)
(0.593516 -0.000295623 0)
(0.5838 -0.00293654 0)
(0.585901 -0.000782659 0)
(0.576853 0.000671951 0)
(-0.0294126 0.141131 0)
(-0.0242867 0.0887841 0)
(-0.0109927 0.0723705 0)
(0.0175057 0.0633933 0)
(0.0549049 0.0552269 0)
(0.0991374 0.0454272 0)
(0.148346 0.0316096 0)
(0.200225 0.0136462 0)
(0.253645 -0.0100877 0)
(0.310432 -0.0384628 0)
(0.369022 -0.0691885 0)
(0.429252 -0.10065 0)
(0.489832 -0.131449 0)
(0.549823 -0.159078 0)
(0.608168 -0.181785 0)
(0.663245 -0.198002 0)
(0.713781 -0.206928 0)
(0.759141 -0.209049 0)
(0.79912 -0.204885 0)
(0.833813 -0.194445 0)
(0.863573 -0.17794 0)
(0.888263 -0.15639 0)
(0.907776 -0.130815 0)
(0.922204 -0.102867 0)
(0.931723 -0.074199 0)
(0.937095 -0.0459675 0)
(0.938266 -0.0192604 0)
(0.936033 0.00479971 0)
(0.930133 0.0252691 0)
(0.921473 0.0416592 0)
(0.909438 0.0541805 0)
(0.89599 0.061998 0)
(0.879469 0.0657927 0)
(0.863962 0.0656799 0)
(0.845892 0.0624664 0)
(0.830982 0.0563591 0)
(0.811225 0.0479245 0)
(0.798072 0.0394709 0)
(0.778361 0.0303118 0)
(0.769445 0.023932 0)
(0.749546 0.0155668 0)
(0.743156 0.00981789 0)
(0.724044 0.00430156 0)
(0.721662 0.000976291 0)
(0.706935 0.00450523 0)
(0.0824832 0.00431312 0)
(0.11918 -0.00472615 0)
(0.203148 -0.00775949 0)
(0.268544 -0.013391 0)
(0.331337 -0.0216205 0)
(0.39497 -0.0328655 0)
(0.458947 -0.0473471 0)
(0.522996 -0.0657996 0)
(0.585762 -0.0876446 0)
(0.648105 -0.113591 0)
(0.708104 -0.14145 0)
(0.76499 -0.169448 0)
(0.817123 -0.196157 0)
(0.863249 -0.218658 0)
(0.902358 -0.235342 0)
(0.93388 -0.245033 0)
(0.957219 -0.247173 0)
(0.972829 -0.243 0)
(0.982222 -0.233395 0)
(0.987123 -0.218082 0)
(0.988649 -0.19703 0)
(0.987341 -0.170965 0)
(0.983708 -0.140954 0)
(0.9784 -0.109133 0)
(0.972225 -0.0771418 0)
(0.966193 -0.0462544 0)
(0.959644 -0.0175053 0)
(0.953537 0.00851202 0)
(0.946877 0.0308134 0)
(0.940825 0.048906 0)
(0.933133 0.0627487 0)
(0.926239 0.0721941 0)
(0.91604 0.0771608 0)
(0.908504 0.0784807 0)
(0.896113 0.0754386 0)
(0.888844 0.0705945 0)
(0.873034 0.0622605 0)
(0.865567 0.0550737 0)
(0.846519 0.0453492 0)
(0.839887 0.03862 0)
(0.819103 0.0303002 0)
(0.813398 0.0240545 0)
(0.792237 0.0192477 0)
(0.788399 0.0145987 0)
(0.767215 0.0157919 0)
)
;

boundaryField
{
    inlet
    {
        type            fixedValue;
        value           uniform (1 0 0);
    }
    outlet
    {
        type            zeroGradient;
    }
    upperWall
    {
        type            noSlip;
    }
    lowerWall
    {
        type            noSlip;
    }
    frontAndBack
    {
        type            empty;
    }
}


// ************************************************************************* //
