/*--------------------------------*- C++ -*----------------------------------*\
  =========                 |
  \\      /  F ield         | OpenFOAM: The Open Source CFD Toolbox
   \\    /   O peration     | Website:  https://openfoam.org
    \\  /    A nd           | Version:  10
     \\/     M anipulation  |
\*---------------------------------------------------------------------------*/
FoamFile
{
    format      ascii;
    class       volVectorField;
    location    "5.975";
    object      U;
}
// * * * * * * * * * * * * * * * * * * * * * * * * * * * * * * * * * * * * * //

dimensions      [0 1 -1 0 0 0 0];

internalField   nonuniform List<vector> 
400
(
(-0.000101708 9.3584e-05 0)
(-0.000861421 0.000327869 0)
(-0.00215281 0.000407352 0)
(-0.00343574 0.000424417 0)
(-0.00472494 0.000424899 0)
(-0.00598116 0.000421174 0)
(-0.00718329 0.000412472 0)
(-0.00830748 0.000394624 0)
(-0.00932042 0.000362724 0)
(-0.0101785 0.000311521 0)
(-0.0108273 0.000235881 0)
(-0.0112031 0.000131707 0)
(-0.0112345 -4.48583e-06 0)
(-0.0108495 -0.000172925 0)
(-0.00998703 -0.000366528 0)
(-0.00861137 -0.000569962 0)
(-0.0067403 -0.000753471 0)
(-0.00451456 -0.000864313 0)
(-0.00200419 -0.000803541 0)
(-0.000332939 -0.000366649 0)
(-0.000359829 0.000871522 0)
(-0.00194366 0.00186614 0)
(-0.00435354 0.00219024 0)
(-0.00673703 0.00224009 0)
(-0.0090978 0.00219669 0)
(-0.0113594 0.00211163 0)
(-0.0134731 0.00198724 0)
(-0.015391 0.00181226 0)
(-0.0170554 0.00157188 0)
(-0.0183965 0.00125007 0)
(-0.0193324 0.000831047 0)
(-0.0197723 0.000301187 0)
(-0.0196188 -0.000345824 0)
(-0.0187742 -0.00109892 0)
(-0.0171596 -0.0019269 0)
(-0.0147364 -0.0027668 0)
(-0.0115491 -0.00350378 0)
(-0.00781157 -0.00393233 0)
(-0.00364695 -0.00367955 0)
(-0.000722885 -0.00195638 0)
(-0.000464057 0.00225643 0)
(-0.00239844 0.00432602 0)
(-0.00528095 0.00497597 0)
(-0.00811135 0.00504764 0)
(-0.0108991 0.00490859 0)
(-0.0135565 0.00466484 0)
(-0.0160282 0.0043263 0)
(-0.0182614 0.00387588 0)
(-0.0201932 0.00328862 0)
(-0.021749 0.00253664 0)
(-0.0228419 0.00159232 0)
(-0.0233719 0.000432825 0)
(-0.023223 -0.000950306 0)
(-0.0222767 -0.00253858 0)
(-0.0204327 -0.00426989 0)
(-0.0176256 -0.00601794 0)
(-0.0138834 -0.00755062 0)
(-0.00944149 -0.00844735 0)
(-0.00443486 -0.00795256 0)
(-0.000887131 -0.00445688 0)
(-0.000496391 0.00370583 0)
(-0.00257912 0.00691131 0)
(-0.00567824 0.00788996 0)
(-0.00871134 0.00797386 0)
(-0.0117008 0.00773263 0)
(-0.0145582 0.00732854 0)
(-0.0172317 0.0067786 0)
(-0.0196723 0.00605959 0)
(-0.0218201 0.00513546 0)
(-0.0236014 0.00396401 0)
(-0.0249262 0.00250187 0)
(-0.0256848 0.00071242 0)
(-0.0257441 -0.00142283 0)
(-0.0249481 -0.0038928 0)
(-0.0231407 -0.00661519 0)
(-0.0201927 -0.00940478 0)
(-0.0160743 -0.0118991 0)
(-0.0110265 -0.0134124 0)
(-0.00519317 -0.012713 0)
(-0.00102798 -0.00721718 0)
(-0.000507841 0.00523018 0)
(-0.0026824 0.0096441 0)
(-0.00593306 0.0109697 0)
(-0.00911438 0.0110703 0)
(-0.0122625 0.0107326 0)
(-0.0152924 0.0101785 0)
(-0.0181609 0.00943335 0)
(-0.0208278 0.00846755 0)
(-0.0232414 0.00723273 0)
(-0.0253335 0.00566876 0)
(-0.0270126 0.00370893 0)
(-0.028157 0.00128959 0)
(-0.0286087 -0.0016346 0)
(-0.0281607 -0.00507437 0)
(-0.0265726 -0.00894786 0)
(-0.0236067 -0.0130194 0)
(-0.0191134 -0.0167744 0)
(-0.013298 -0.0191792 0)
(-0.00631171 -0.0183529 0)
(-0.00124274 -0.0104885 0)
(-0.000517127 0.00680705 0)
(-0.00278208 0.012501 0)
(-0.00618815 0.0141967 0)
(-0.00952551 0.0143247 0)
(-0.0128446 0.0139045 0)
(-0.0160662 0.0132235 0)
(-0.0191595 0.0123167 0)
(-0.0220983 0.0111489 0)
(-0.0248452 0.00965823 0)
(-0.0273443 0.00776262 0)
(-0.0295098 0.00536298 0)
(-0.0312126 0.00235257 0)
(-0.0322704 -0.00136672 0)
(-0.0324134 -0.00586216 0)
(-0.0312842 -0.01109 0)
(-0.028476 -0.0167904 0)
(-0.0236284 -0.022277 0)
(-0.0168102 -0.0260554 0)
(-0.00812973 -0.0252965 0)
(-0.00161884 -0.0145553 0)
(-0.000528564 0.00843966 0)
(-0.00289793 0.0154917 0)
(-0.0064815 0.0175838 0)
(-0.00999494 0.0177512 0)
(-0.0135047 0.0172661 0)
(-0.0169396 0.0164876 0)
(-0.0202851 0.015464 0)
(-0.0235351 0.0141564 0)
(-0.0266752 0.0124898 0)
(-0.0296729 0.0103573 0)
(-0.032462 0.00761843 0)
(-0.0349208 0.00410233 0)
(-0.0368557 -0.000377216 0)
(-0.0379365 -0.00597105 0)
(-0.0376632 -0.0127654 0)
(-0.0353881 -0.0205443 0)
(-0.0304014 -0.0284702 0)
(-0.0224104 -0.0344557 0)
(-0.0112889 -0.0342416 0)
(-0.00234503 -0.0199606 0)
(-0.000542473 0.010139 0)
(-0.00303356 0.0186382 0)
(-0.00681924 0.0211533 0)
(-0.0105257 0.0213695 0)
(-0.0142382 0.0208349 0)
(-0.0178951 0.0199899 0)
(-0.0215029 0.018901 0)
(-0.0250829 0.0175308 0)
(-0.0286541 0.0157949 0)
(-0.0322245 0.0135628 0)
(-0.0357724 0.0106488 0)
(-0.0392156 0.00680282 0)
(-0.042358 0.00171738 0)
(-0.0448602 -0.00492897 0)
(-0.0461083 -0.0134549 0)
(-0.0451365 -0.0238251 0)
(-0.040717 -0.0351851 0)
(-0.0317747 -0.0448026 0)
(-0.0173455 -0.0463152 0)
(-0.0039275 -0.0278302 0)
(-0.000559545 0.0119167 0)
(-0.00319202 0.0219632 0)
(-0.00720412 0.0249245 0)
(-0.0111133 0.0251904 0)
(-0.0150274 0.0246144 0)
(-0.0188954 0.0237294 0)
(-0.0227492 0.0226284 0)
(-0.0266446 0.0212837 0)
(-0.0306463 0.0196111 0)
(-0.0348223 0.0174656 0)
(-0.0392259 0.0146213 0)
(-0.0438596 0.010745 0)
(-0.0486139 0.00537175 0)
(-0.0532242 -0.00209776 0)
(-0.0570352 -0.0122532 0)
(-0.0588398 -0.0255764 0)
(-0.0567869 -0.0415523 0)
(-0.0482697 -0.0571515 0)
(-0.0299094 -0.0633102 0)
(-0.00763936 -0.0406421 0)
(-0.000582835 0.0137879 0)
(-0.00338281 0.0254917 0)
(-0.00764752 0.028912 0)
(-0.0117613 0.0292132 0)
(-0.0158598 0.0285892 0)
(-0.0199036 0.0276792 0)
(-0.0239527 0.0266126 0)
(-0.0281027 0.0253834 0)
(-0.032475 0.0239242 0)
(-0.037218 0.0220977 0)
(-0.0424999 0.0196629 0)
(-0.0484838 0.0162245 0)
(-0.0552684 0.0111659 0)
(-0.0627566 0.00360145 0)
(-0.0706192 -0.00754505 0)
(-0.0778521 -0.0234682 0)
(-0.0819543 -0.0450058 0)
(-0.0772801 -0.0703371 0)
(-0.0546636 -0.0881542 0)
(-0.0154902 -0.0636943 0)
(-0.000619845 0.0157774 0)
(-0.00362784 0.0292565 0)
(-0.00817834 0.0331285 0)
(-0.0124912 0.0334256 0)
(-0.0167397 0.0327231 0)
(-0.0208961 0.0317814 0)
(-0.0250493 0.0307767 0)
(-0.0293356 0.0297395 0)
(-0.0339352 0.0286417 0)
(-0.0390886 0.0273884 0)
(-0.0451109 0.0257769 0)
(-0.0523975 0.0234238 0)
(-0.0614031 0.0196571 0)
(-0.0725927 0.0133962 0)
(-0.0863994 0.00304857 0)
(-0.102895 -0.0136703 0)
(-0.11879 -0.0406913 0)
(-0.121564 -0.0821108 0)
(-0.0918011 -0.125947 0)
(-0.0270462 -0.106935 0)
(-0.000686283 0.0179304 0)
(-0.00397041 0.0333098 0)
(-0.00885417 0.0375944 0)
(-0.0133534 0.0378102 0)
(-0.0176988 0.0369613 0)
(-0.0218753 0.0359454 0)
(-0.025999 0.0349957 0)
(-0.0302408 0.0341919 0)
(-0.0348299 0.0335721 0)
(-0.0400899 0.0331322 0)
(-0.0464861 0.0327902 0)
(-0.0546934 0.0323141 0)
(-0.0656781 0.0312063 0)
(-0.0807909 0.0285595 0)
(-0.101917 0.0226592 0)
(-0.130377 0.00891677 0)
(-0.159944 -0.0243985 0)
(-0.166042 -0.0951323 0)
(-0.124374 -0.184859 0)
(-0.0384202 -0.178977 0)
(-0.000811968 0.0203129 0)
(-0.0044844 0.0376781 0)
(-0.00977215 0.0422494 0)
(-0.0144412 0.0422506 0)
(-0.0188137 0.0411634 0)
(-0.022888 0.040011 0)
(-0.0268074 0.0390701 0)
(-0.0307623 0.0384795 0)
(-0.0349986 0.0383657 0)
(-0.0398773 0.0388613 0)
(-0.045957 0.0400997 0)
(-0.0541245 0.0421897 0)
(-0.0657737 0.0451589 0)
(-0.0830533 0.0487004 0)
(-0.109125 0.0508187 0)
(-0.145087 0.041677 0)
(-0.178963 -0.00360762 0)
(-0.177136 -0.11909 0)
(-0.134279 -0.260955 0)
(-0.0481043 -0.275673 0)
(-0.00107728 0.0231774 0)
(-0.00536627 0.0428137 0)
(-0.0111304 0.0476096 0)
(-0.0158835 0.0472451 0)
(-0.0201592 0.0456756 0)
(-0.0239945 0.0441305 0)
(-0.0275345 0.0429732 0)
(-0.0309484 0.0424133 0)
(-0.0344536 0.0426717 0)
(-0.0383695 0.0440466 0)
(-0.0432065 0.0469674 0)
(-0.0498143 0.0520357 0)
(-0.0595856 0.0600253 0)
(-0.0744354 0.0709941 0)
(-0.0971112 0.081212 0)
(-0.126451 0.0730861 0)
(-0.153042 0.0117658 0)
(-0.14438 -0.141505 0)
(-0.124291 -0.321168 0)
(-0.0481205 -0.377967 0)
(-0.00145402 0.0266934 0)
(-0.00639628 0.0475044 0)
(-0.0129035 0.0517322 0)
(-0.0178895 0.0504833 0)
(-0.0221352 0.0484539 0)
(-0.0256047 0.0467439 0)
(-0.0285215 0.0455838 0)
(-0.0310596 0.0451243 0)
(-0.0333596 0.0456209 0)
(-0.035578 0.0474993 0)
(-0.037972 0.0514573 0)
(-0.0409585 0.0585253 0)
(-0.0453668 0.0700067 0)
(-0.0518255 0.0855774 0)
(-0.0618827 0.0999661 0)
(-0.0728614 0.0898424 0)
(-0.0875042 0.0202571 0)
(-0.0790628 -0.146404 0)
(-0.0942266 -0.351272 0)
(-0.03054 -0.463452 0)
(-0.00351909 0.0299198 0)
(-0.0107403 0.0560732 0)
(-0.0166787 0.0602187 0)
(-0.0209037 0.0584847 0)
(-0.0242009 0.0550955 0)
(-0.026934 0.0520343 0)
(-0.0291654 0.0496897 0)
(-0.0308744 0.0482712 0)
(-0.0319817 0.0480278 0)
(-0.0323573 0.0493711 0)
(-0.0318336 0.0530626 0)
(-0.0301087 0.0602083 0)
(-0.0273315 0.0723735 0)
(-0.022024 0.0884801 0)
(-0.0164791 0.103918 0)
(-0.00481595 0.0937025 0)
(-0.00661042 0.0261501 0)
(-0.000595943 -0.13057 0)
(-0.0495705 -0.35153 0)
(-0.00802086 -0.510429 0)
(-0.00117562 0.0439063 0)
(-0.00870476 0.0585449 0)
(-0.0196336 0.0591276 0)
(-0.0242816 0.0546362 0)
(-0.0283566 0.0513947 0)
(-0.0306581 0.0490461 0)
(-0.0319157 0.0473799 0)
(-0.0321843 0.0462824 0)
(-0.0314065 0.04593 0)
(-0.0292994 0.0466266 0)
(-0.0254129 0.0490914 0)
(-0.0186515 0.0540275 0)
(-0.00890831 0.0628997 0)
(0.00755084 0.0747538 0)
(0.0265061 0.0859578 0)
(0.0561656 0.0779857 0)
(0.0622906 0.0218888 0)
(0.0676302 -0.10165 0)
(-0.00429619 -0.325001 0)
(0.0178456 -0.521634 0)
(-0.012396 0.0328996 0)
(-0.0243678 0.0798915 0)
(-0.0240301 0.0787325 0)
(-0.0304274 0.073558 0)
(-0.0325631 0.0662806 0)
(-0.0329658 0.0600975 0)
(-0.0315345 0.0549756 0)
(-0.0285998 0.0508678 0)
(-0.0242707 0.0477659 0)
(-0.018284 0.0455217 0)
(-0.0106784 0.0445463 0)
(2.56049e-05 0.0450254 0)
(0.0134484 0.0482575 0)
(0.0340011 0.0533574 0)
(0.0553199 0.0595973 0)
(0.0910487 0.0545551 0)
(0.0987703 0.0198536 0)
(0.12541 -0.0660952 0)
(0.0557155 -0.288952 0)
(0.059957 -0.505731 0)
(-0.0772001 0.0967852 0)
(-0.0629329 0.0594846 0)
(-0.0653346 0.0599373 0)
(-0.0440401 0.0532655 0)
(-0.0270048 0.0463695 0)
(-0.00730949 0.0412078 0)
(0.0112592 0.0374767 0)
(0.0299393 0.0342629 0)
(0.0470871 0.0318626 0)
(0.0653158 0.0295809 0)
(0.080998 0.0281913 0)
(0.100626 0.0270871 0)
(0.114954 0.0269838 0)
(0.142422 0.027596 0)
(0.153861 0.0248903 0)
(0.201641 0.0190145 0)
(0.196762 -0.0149535 0)
(0.239362 -0.079957 0)
(0.166256 -0.263399 0)
(0.127667 -0.442477 0)
(0.119772 0.140719 0)
(0.152446 0.0861568 0)
(0.229419 0.0635769 0)
(0.284763 0.0481485 0)
(0.326049 0.0374688 0)
(0.364422 0.0296807 0)
(0.392911 0.0242655 0)
(0.424432 0.0202549 0)
(0.444091 0.0173494 0)
(0.472822 0.0151945 0)
(0.485594 0.0134189 0)
(0.515065 0.0124141 0)
(0.520604 0.0112857 0)
(0.554586 0.010891 0)
(0.549787 0.00947919 0)
(0.586886 0.00568507 0)
(0.558251 -0.00368849 0)
(0.56789 -0.0272479 0)
(0.430338 -0.0726815 0)
(0.27648 -0.152034 0)
)
;

boundaryField
{
    movingWall
    {
        type            fixedValue;
        value           uniform (1 0 0);
    }
    fixedWalls
    {
        type            noSlip;
    }
    frontAndBack
    {
        type            empty;
    }
}


// ************************************************************************* //
