/*--------------------------------*- C++ -*----------------------------------*\
  =========                 |
  \\      /  F ield         | OpenFOAM: The Open Source CFD Toolbox
   \\    /   O peration     | Website:  https://openfoam.org
    \\  /    A nd           | Version:  10
     \\/     M anipulation  |
\*---------------------------------------------------------------------------*/
FoamFile
{
    format      ascii;
    class       surfaceScalarField;
    location    "1.85";
    object      phi;
}
// * * * * * * * * * * * * * * * * * * * * * * * * * * * * * * * * * * * * * //

dimensions      [0 3 -1 0 0 0 0];

internalField   nonuniform List<scalar> 
928
(
0.0958888
0.00411125
0.103769
-0.00788028
0.10653
-0.00276107
-0.00981363
0.116344
0.0946806
0.00943061
0.105633
-0.0188326
0.102628
0.000243976
-0.0197582
0.112573
0.0955076
0.013923
0.109182
-0.032507
0.103852
0.0055738
-0.0410244
0.125118
0.103334
0.0105886
0.0930014
-0.022174
0.0983604
0.000214809
0.146065
-0.088729
0.110948
0.00539576
-0.0164667
0.127415
0.108852
0.00911643
-0.0413536
0.133739
0.126582
0.00765309
-0.0471455
0.132374
0.153718
0.106573
0.127084
0.000331066
0.127361
-0.000277496
0.128908
-0.00154673
-0.00173902
0.130647
0.134718
-0.000647717
0.134577
-0.000136543
0.135287
-0.00225742
-0.00282754
0.136376
0.134234
-0.0025079
0.135969
-0.00187169
0.140666
-0.00695408
-0.000663459
0.138502
0.112882
-0.00881684
0.0916019
0.019408
0.0888813
-0.0042335
0.0926586
-0.00444075
0.131855
-0.00120813
0.132406
-0.000550661
0.132966
-0.000560668
0.132898
6.86362e-05
0.132771
0.000126587
0.13252
0.000251035
0.132552
-3.2059e-05
0.132795
-0.000243123
0.13256
0.000234866
0.131662
0.000898698
0.129736
0.00192551
0.127705
0.00203147
0.125026
0.00267822
0.122281
0.00274514
0.119484
0.00279744
0.116982
0.00250209
0.115519
0.00146299
0.114488
0.00103117
0.11458
-9.23866e-05
0.114697
-0.000117108
0.115398
-0.000700546
0.115732
-0.000334525
0.115773
-4.12978e-05
0.115482
0.000291776
0.114167
0.00131441
0.112778
0.00138947
0.110425
0.0023527
0.108417
0.00200836
0.10605
0.00236728
0.104071
0.00197896
0.102425
0.00164561
0.100731
0.00169417
0.100021
0.000710079
0.098827
0.00119371
0.0989598
-0.000132766
0.0987143
0.000245442
0.099472
-0.00075771
0.100346
-0.000873745
0.10168
-0.0013344
-0.00149146
0.137723
-0.00255489
0.138451
-0.00127933
0.138768
-0.000877916
0.139255
-0.000417577
0.140635
-0.00125329
0.141415
-0.000529155
0.142104
-0.000720837
0.142576
-0.000716077
0.14239
0.000420845
0.142073
0.00121668
0.140871
0.00312653
0.139344
0.00355848
0.137139
0.00488389
0.13487
0.00501352
0.132462
0.00520599
0.130364
0.00460037
0.128967
0.00285914
0.127955
0.00204386
0.128029
-0.000166722
0.128546
-0.000634048
0.129308
-0.00146207
0.130333
-0.00136029
0.130872
-0.000580415
0.131302
-0.000138245
0.13038
0.00223656
0.129473
0.00229696
0.127521
0.00430496
0.1258
0.00372852
0.124016
0.00415126
0.122171
0.0038241
0.121043
0.00277431
0.119479
0.0032575
0.118898
0.00129182
0.117796
0.00229506
0.117668
-4.23677e-06
0.117705
0.00020843
0.118212
-0.00126522
0.119149
-0.00181011
0.120265
-0.00245111
-0.00323351
0.135588
0.000358642
0.134959
-0.000650436
0.135952
-0.00187029
0.137885
-0.00235141
0.137328
-0.000695816
0.137868
-0.00106916
0.138129
-0.000981544
0.138332
-0.00091964
0.13836
0.000392929
0.138824
0.000753258
0.139884
0.0020661
0.140135
0.00330738
0.139991
0.00502794
0.139115
0.00588938
0.138095
0.00622605
0.137308
0.00538731
0.136298
0.00386977
0.135714
0.00262696
0.134432
0.00111598
0.133788
9.28475e-06
0.133815
-0.00148869
0.134441
-0.00198588
0.135421
-0.00156102
0.136478
-0.00119454
0.137834
0.000880034
0.138444
0.00168689
0.138875
0.00387386
0.138557
0.00404711
0.137966
0.00474177
0.136952
0.00483798
0.135644
0.00408237
0.134305
0.00459713
0.132665
0.00293147
0.131564
0.00339565
0.130381
0.00117925
0.129382
0.00120679
0.128458
-0.000340656
0.127404
-0.000756588
0.126109
-0.0011556
-0.00235712
0.0900649
0.00295231
0.0845139
0.00490055
0.0851704
-0.00252674
0.0848154
-0.00199642
0.0790262
0.00509339
0.0738058
0.00415116
0.0767684
-0.0039441
0.0747913
0.00105746
0.0740272
0.00115701
0.0766182
-0.00183773
0.080273
-0.00158868
0.0840572
-0.000476845
0.0877088
0.00137635
0.0897009
0.00389732
0.0903431
0.00558385
0.0892545
0.00647589
0.086477
0.00664729
0.0833517
0.00575221
0.0814127
0.00305498
0.0808884
0.000533619
0.0812967
-0.00189706
0.0836445
-0.00433364
0.0870026
-0.00491909
0.0913443
-0.00553628
0.0965897
-0.00436538
0.101138
-0.00286136
0.106272
-0.00126013
0.109944
0.000374624
0.113225
0.0014616
0.115561
0.00250206
0.116726
0.00291667
0.117024
0.00429985
0.115248
0.00470711
0.112417
0.00622687
0.107185
0.00641044
0.100503
0.00788919
0.0930868
0.00707567
0.0855904
0.0067398
0.0794897
0.00494514
-7.95616e-05
0.111118
-0.00052964
0.0885448
0.000399344
0.0896377
-0.000878049
0.000908663
0.10933
-0.0098594
0.0881687
0.0215604
0.0865899
0.00070077
0.0874985
-0.00335253
-0.00546431
-0.0187854
0.0348409
-0.014825
-0.00819391
-0.0424058
0.02314
-0.00227351
-0.00319081
0.0186083
0.013959
0.0132991
-0.00288467
-0.0150901
-0.0140166
0.00843582
0.0176565
-0.000441363
0.0137777
-0.000440403
-0.0025277
0.00826058
-0.0106974
-0.00909127
0.0224452
-0.00966954
0.00472943
0.000834001
-0.0144476
-0.00631111
0.00820258
-0.00324635
-0.00190775
-0.000845522
-0.00423856
0.00267592
-0.00511012
0.00653563
-0.00433656
0.00995505
-0.00204307
0.0128566
0.000995744
0.0149548
0.00348565
0.016142
0.00528868
0.0169472
0.00584213
0.0185135
0.00418593
0.0201622
0.00140629
0.0216037
-0.000907924
0.0237345
-0.00402785
0.0259319
-0.00653108
0.0282742
-0.00726136
0.0302268
-0.00748884
0.0325266
-0.0066652
0.0346018
-0.00493659
0.0357891
-0.00244737
0.0367958
-0.00063216
0.0377693
0.000488174
0.038498
0.00177336
0.0387619
0.00265271
0.0389069
0.00415492
0.0392401
0.00437389
0.0390125
0.00645447
0.0385223
0.00690062
0.0382048
0.00820666
0.0384475
0.00683294
0.0385026
0.00668476
0.0392326
0.00421512
-0.00150527
-0.00868829
0.0112547
0.00345352
0.00163592
0.00142834
-0.000502518
-0.0096373
0.000368247
0.0006082
0.0121997
0.00888866
-0.00355103
-0.00274832
-0.00281066
0.00124419
0.00421007
0.00710258
-0.00776614
0.00840322
-0.00553921
0.00881901
-0.0055259
0.0105722
-0.00608977
0.0131952
-0.00466608
0.0167265
-0.00253555
0.0204162
-0.000204004
0.0237142
0.00199067
0.0272955
0.00226079
0.0305652
0.000916213
0.0325637
-0.000592197
0.0340373
-0.00238152
0.034247
-0.0042375
0.0331767
-0.00546084
0.0318535
-0.00593813
0.030284
-0.00591938
0.0287137
-0.00509489
0.0279855
-0.00420832
0.027618
-0.00207995
0.02799
-0.00100415
0.0287233
-0.000245101
0.0296133
0.00088339
0.0314657
0.000800241
0.0335143
0.00210634
0.0361683
0.00171988
0.0394952
0.0031276
0.0433654
0.00303041
0.0479014
0.00367067
0.0520692
0.00266514
0.0564441
0.00230981
0.0596734
0.000985873
-0.00233469
0.103616
-0.0134755
0.0941814
0.0309951
0.0996115
-0.00472935
0.0401234
0.146987
0.095981
-0.0094565
0.107811
0.0191649
0.103617
-0.00053512
0.0196806
0.12406
0.0947259
-0.00418243
0.106193
0.00769784
0.102457
0.00320124
0.00965608
0.112481
0.0958176
0.103515
0.106717
0.116373
0.154955
-0.00796779
0.0452722
0.109682
0.124879
-0.0087872
0.0414801
0.128671
0.108678
-0.00498372
0.0160867
0.134071
0.111389
0.127476
0.103713
0.00277901
0.115466
0.00220554
0.111912
0.000669173
-0.000723579
0.0986192
0.131834
-0.000384026
0.134896
-0.000856157
0.133029
0.00253656
0.00240373
0.129901
0.133943
-0.000256068
0.132821
0.000265582
0.134249
0.00110944
0.00166644
0.134986
0.12722
0.127485
0.128595
0.130261
0.106137
0.00373684
0.103642
0.00413063
0.0999189
0.00322087
0.0986775
0.00160969
0.106113
0.00476408
0.102254
0.000308192
0.101978
-0.00253497
0.108904
-0.00271618
0.105548
-0.00440921
0.10552
-0.00551143
0.104647
-0.00465268
0.102367
-0.00380997
0.099713
-0.00201237
0.097976
-0.000798528
0.0974394
0.000332569
0.0989782
0.000451892
0.101593
-0.000353536
0.104599
-0.00209023
0.108318
-0.00431136
0.111307
-0.0053708
0.112885
-0.00581491
0.112724
-0.00530004
0.110582
-0.00379601
0.107291
-0.00262856
0.102388
-0.000192126
0.0977265
0.000453548
0.0928743
0.00277225
0.0900893
0.0017808
0.087702
0.00214223
0.0872017
0.00138367
0.0876328
0.000369115
0.0880679
0.00167127
0.0909802
-0.00119239
0.0926264
0.00148137
0.0972837
-0.00162686
0.100597
0.000357689
0.105268
-0.00200643
0.110419
-0.0028405
0.115217
-0.00381311
-0.00601555
0.130985
0.00265349
0.132545
0.00256981
0.133626
0.00214067
0.133802
0.00143333
0.13794
0.000625537
0.137802
0.000447019
0.13644
-0.00117321
0.13613
-0.00240596
0.134812
-0.00309143
0.133204
-0.00390385
0.13206
-0.00350862
0.131558
-0.00330812
0.131048
-0.00150225
0.130965
-0.000714759
0.131034
0.000263221
0.131709
-0.000223164
0.132866
-0.00151046
0.133245
-0.00246904
0.132948
-0.00401507
0.131751
-0.0041738
0.130559
-0.0046229
0.129167
-0.00390763
0.128109
-0.00273838
0.127256
-0.00177526
0.126425
0.000638828
0.126025
0.0008538
0.126017
0.00277965
0.126207
0.00159132
0.126411
0.00193762
0.126791
0.00100441
0.126974
0.000186086
0.127975
0.000670185
0.128361
-0.00157857
0.129905
-6.239e-05
0.130693
-0.00241548
0.132438
-0.00138703
0.133355
-0.00292297
0.133896
-0.00338135
0.133801
-0.00371897
-0.00403434
0.136133
0.00150618
0.137394
0.0013092
0.138739
0.000795177
0.139464
0.000708867
0.140146
-5.66203e-05
0.140923
-0.000329881
0.140623
-0.000873114
0.139359
-0.00114201
0.137901
-0.00163379
0.136063
-0.00206562
0.134422
-0.00186758
0.132879
-0.00176499
0.132229
-0.000853044
0.132123
-0.000608618
0.132616
-0.000229688
0.132794
-0.000401234
0.132368
-0.0010846
0.131404
-0.0015044
0.129859
-0.00247025
0.128093
-0.00240819
0.126113
-0.00264246
0.124185
-0.00198007
0.122841
-0.00139441
0.121968
-0.000901421
0.122294
0.000311927
0.122861
0.000287558
0.124228
0.00141226
0.125321
0.000498117
0.126278
0.000980638
0.127207
7.61416e-05
0.127457
-6.42451e-05
0.128424
-0.000296698
0.127711
-0.000865947
0.128296
-0.000647752
0.127272
-0.00139065
0.12687
-0.000985376
0.1258
-0.00185277
0.124137
-0.00171827
0.12302
-0.00260191
-0.00233977
0.131767
0.133076
0.133872
0.134581
0.134524
0.134194
0.133321
0.132179
0.130545
0.128479
0.126612
0.124847
0.123994
0.123385
0.123156
0.122754
0.12167
0.120165
0.117695
0.115287
0.112644
0.110664
0.10927
0.108369
0.10868
0.108968
0.11038
0.110878
0.111859
0.111935
0.111871
0.111574
0.110708
0.110061
0.10867
0.107685
0.105832
0.104113
0.101512
)
;

boundaryField
{
    inlet
    {
        type            calculated;
        value           nonuniform List<scalar> 10(-0.1 -0.1 -0.1 -0.1 -0.1 -0.1 -0.1 -0.1 -0.1 -0.1);
    }
    outlet
    {
        type            calculated;
        value           nonuniform List<scalar> 10(0.103172 0.122007 0.125232 0.0772121 0.0406583 0.0605028 0.118898 0.13182 0.121325 0.0991718);
    }
    obstacle
    {
        type            calculated;
        value           uniform 0;
    }
    upperWall
    {
        type            calculated;
        value           uniform 0;
    }
    lowerWall
    {
        type            calculated;
        value           uniform 0;
    }
    frontAndBack
    {
        type            empty;
        value           nonuniform List<scalar> 0();
    }
}


// ************************************************************************* //
