/*--------------------------------*- C++ -*----------------------------------*\
  =========                 |
  \\      /  F ield         | OpenFOAM: The Open Source CFD Toolbox
   \\    /   O peration     | Website:  https://openfoam.org
    \\  /    A nd           | Version:  10
     \\/     M anipulation  |
\*---------------------------------------------------------------------------*/
FoamFile
{
    format      ascii;
    class       volScalarField;
    location    "8.25";
    object      p;
}
// * * * * * * * * * * * * * * * * * * * * * * * * * * * * * * * * * * * * * //

dimensions      [0 2 -2 0 0 0 0];

internalField   nonuniform List<scalar> 
400
(
-6.76422e-09
-2.52501e-05
3.13741e-05
0.000140583
0.000310163
0.000542891
0.000842952
0.00121555
0.00166562
0.00219643
0.002808
0.0034946
0.0042416
0.00502228
0.00579444
0.00650121
0.00707557
0.00745758
0.0076461
0.00756329
2.77467e-05
2.00724e-06
6.56809e-05
0.000176975
0.000345197
0.000573954
0.000867885
0.00123237
0.00167249
0.00219191
0.00279138
0.00346628
0.00420232
0.00497682
0.0057475
0.00645709
0.00703507
0.00741781
0.0076085
0.00750881
-4.00674e-05
-7.44359e-05
-1.26089e-05
9.41122e-05
0.000255799
0.000476301
0.000760858
0.00111584
0.00154785
0.00206275
0.00266407
0.00335062
0.00411373
0.0049299
0.00575711
0.00653033
0.00716281
0.00757039
0.00775672
0.00760233
-0.000182251
-0.00022266
-0.000164802
-6.57241e-05
8.54927e-05
0.000293101
0.000563242
0.000903757
0.00132349
0.00183171
0.00243669
0.00314273
0.00394636
0.00482969
0.00575129
0.00663512
0.00736828
0.00782301
0.00799888
0.00774838
-0.000406935
-0.000452447
-0.000401266
-0.00031349
-0.000177363
1.18696e-05
0.00026141
0.000580875
0.000981909
0.00147809
0.00208403
0.00281271
0.00366963
0.00464594
0.00570404
0.00675634
0.00765207
0.00818906
0.00833814
0.00791968
-0.000712628
-0.000763227
-0.000721464
-0.000649032
-0.000533575
-0.000369989
-0.000150138
0.000137253
0.00050666
0.00097629
0.00156821
0.00230713
0.00321429
0.00429493
0.00552537
0.0068178
0.0079719
0.0086565
0.00874508
0.00803339
-0.00109452
-0.00115078
-0.00112126
-0.00106881
-0.00098084
-0.000852329
-0.000674897
-0.000436361
-0.000120303
0.000295298
0.000839494
0.00154949
0.00246675
0.00362525
0.00503402
0.00663577
0.00818703
0.009154
0.00912973
0.00795059
-0.00154613
-0.00160895
-0.00159451
-0.00156703
-0.00151425
-0.00143201
-0.00131291
-0.00114573
-0.000914414
-0.000596011
-0.000158158
0.000444258
0.00127182
0.00239367
0.00386955
0.0057602
0.00785087
0.00937085
0.00922055
0.00756157
-0.00205924
-0.00212955
-0.00213257
-0.00213466
-0.00212467
-0.00210045
-0.00205735
-0.00198776
-0.00188045
-0.00171865
-0.00147658
-0.00111518
-0.000579831
0.000208581
0.00138309
0.00312577
0.00563565
0.00812894
0.00831023
0.00697666
-0.00262395
-0.00270249
-0.002724
-0.00275861
-0.00279719
-0.00284103
-0.00289045
-0.00294491
-0.00300359
-0.00306561
-0.00313066
-0.00320252
-0.00330575
-0.00350716
-0.00377107
-0.00349303
-0.00149346
0.00254939
0.00513682
0.00640702
-0.00322924
-0.0033164
-0.00335498
-0.0034218
-0.0035106
-0.00362767
-0.00378046
-0.00397913
-0.00423973
-0.00458931
-0.00507595
-0.00579094
-0.0069364
-0.00896207
-0.0121596
-0.0157561
-0.0154709
-0.00967209
-0.00264088
0.00358963
-0.00386421
-0.00395931
-0.00400884
-0.00410213
-0.00423603
-0.00442309
-0.00467905
-0.00502661
-0.00550295
-0.00617195
-0.00715035
-0.00865779
-0.0111331
-0.0155203
-0.0224584
-0.0308967
-0.0338506
-0.0269604
-0.0158991
-0.00484597
-0.00452184
-0.00462426
-0.00467425
-0.00478206
-0.00494688
-0.00518871
-0.00553142
-0.00600873
-0.00667664
-0.00763126
-0.00904831
-0.0112494
-0.0148434
-0.0210122
-0.0305182
-0.0417016
-0.0470774
-0.0405467
-0.029632
-0.0163368
-0.00519461
-0.00529441
-0.00531879
-0.00541702
-0.00559057
-0.00586374
-0.00626252
-0.00682699
-0.00762098
-0.00875136
-0.0104164
-0.0129505
-0.0169799
-0.0235521
-0.0334994
-0.0444229
-0.0502213
-0.044073
-0.0354374
-0.02266
-0.00591011
-0.0060151
-0.00599125
-0.00605858
-0.006203
-0.0064615
-0.00686294
-0.00744751
-0.00827678
-0.0094458
-0.0111418
-0.0136586
-0.0174386
-0.0233521
-0.0318408
-0.0401389
-0.0445464
-0.0390369
-0.0339271
-0.0214891
-0.00675165
-0.00666024
-0.00650679
-0.00645526
-0.00654331
-0.006782
-0.00718168
-0.00776454
-0.00857775
-0.00968843
-0.0112347
-0.013438
-0.0166586
-0.0211702
-0.027254
-0.0326491
-0.0354016
-0.0302451
-0.0276414
-0.0122521
-0.00721959
-0.00762643
-0.00729599
-0.0072678
-0.0072237
-0.00732378
-0.00758137
-0.00803016
-0.00871332
-0.0096787
-0.0109827
-0.0128482
-0.0154461
-0.0187621
-0.0230327
-0.0262244
-0.0275055
-0.0221114
-0.0184502
0.00652812
-0.0105983
-0.00805497
-0.00737212
-0.0067298
-0.00661058
-0.00675032
-0.00709249
-0.0076004
-0.00829737
-0.00918778
-0.0104019
-0.0119935
-0.0141461
-0.0166927
-0.0197159
-0.0213674
-0.0212244
-0.0141616
-0.00409069
0.0389511
-0.00723648
-0.0102075
-0.00906714
-0.00902097
-0.00851326
-0.00823588
-0.00814579
-0.00827367
-0.00866552
-0.00930486
-0.0103165
-0.0116769
-0.0137177
-0.0161031
-0.0191762
-0.0204786
-0.0193936
-0.00548093
0.020145
0.0966988
-0.0324759
-0.00738037
-0.00578121
-0.00498538
-0.00475149
-0.00493226
-0.00541325
-0.00600397
-0.00679463
-0.00770556
-0.00898251
-0.0104789
-0.0124436
-0.0142144
-0.0155063
-0.0126176
-0.0024914
0.0315346
0.0979625
0.228579
)
;

boundaryField
{
    movingWall
    {
        type            zeroGradient;
    }
    fixedWalls
    {
        type            zeroGradient;
    }
    frontAndBack
    {
        type            empty;
    }
}


// ************************************************************************* //
