/*--------------------------------*- C++ -*----------------------------------*\
  =========                 |
  \\      /  F ield         | OpenFOAM: The Open Source CFD Toolbox
   \\    /   O peration     | Website:  https://openfoam.org
    \\  /    A nd           | Version:  10
     \\/     M anipulation  |
\*---------------------------------------------------------------------------*/
FoamFile
{
    format      ascii;
    class       volVectorField;
    location    "8.75";
    object      U;
}
// * * * * * * * * * * * * * * * * * * * * * * * * * * * * * * * * * * * * * //

dimensions      [0 1 -1 0 0 0 0];

internalField   nonuniform List<vector> 
400
(
(-0.000161544 0.000141824 0)
(-0.00120641 0.000447217 0)
(-0.00297363 0.000558464 0)
(-0.00478964 0.000595932 0)
(-0.00667359 0.000616746 0)
(-0.00858739 0.000639117 0)
(-0.0105181 0.000662251 0)
(-0.0124434 0.000678309 0)
(-0.0143165 0.00067604 0)
(-0.016061 0.000640797 0)
(-0.0175638 0.00055484 0)
(-0.0186697 0.000399285 0)
(-0.0191851 0.000159162 0)
(-0.0188873 -0.000182093 0)
(-0.0175654 -0.000606222 0)
(-0.0150915 -0.0010606 0)
(-0.0115364 -0.0014378 0)
(-0.00732961 -0.00158427 0)
(-0.00284628 -0.00132936 0)
(-0.000273745 -0.00043476 0)
(-0.000522687 0.00123093 0)
(-0.00272076 0.00256268 0)
(-0.00609025 0.00306294 0)
(-0.00955187 0.00323244 0)
(-0.0131038 0.00329424 0)
(-0.0166574 0.00332124 0)
(-0.0201621 0.00331381 0)
(-0.0235569 0.003243 0)
(-0.0267472 0.0030653 0)
(-0.0295959 0.00272562 0)
(-0.0319145 0.00216081 0)
(-0.0334586 0.0013057 0)
(-0.0339481 0.000105717 0)
(-0.033064 -0.00144678 0)
(-0.0305075 -0.00326893 0)
(-0.02612 -0.00514083 0)
(-0.0200379 -0.00665156 0)
(-0.0129169 -0.00721429 0)
(-0.00537755 -0.00618494 0)
(-0.000771929 -0.0026417 0)
(-0.00068477 0.00319437 0)
(-0.00342788 0.0060248 0)
(-0.00755043 0.00708227 0)
(-0.0117554 0.00742509 0)
(-0.0160426 0.00750956 0)
(-0.0203048 0.00748516 0)
(-0.0244817 0.00735768 0)
(-0.0285041 0.00707391 0)
(-0.0322692 0.00655078 0)
(-0.0356285 0.00568276 0)
(-0.0383792 0.00434914 0)
(-0.040258 0.00242841 0)
(-0.0409326 -0.000176226 0)
(-0.0400101 -0.00347302 0)
(-0.0370991 -0.00731012 0)
(-0.0319226 -0.0112508 0)
(-0.0245453 -0.0144595 0)
(-0.0157364 -0.0156702 0)
(-0.0063335 -0.0134966 0)
(-0.000788604 -0.00609718 0)
(-0.000738365 0.00529984 0)
(-0.00371022 0.00974149 0)
(-0.00816732 0.0113719 0)
(-0.012697 0.0118761 0)
(-0.017314 0.0119717 0)
(-0.0219138 0.0118915 0)
(-0.026447 0.011649 0)
(-0.0308597 0.0111693 0)
(-0.0350664 0.0103315 0)
(-0.038936 0.00897793 0)
(-0.0422734 0.00692032 0)
(-0.0448037 0.00396037 0)
(-0.0461558 -6.69247e-05 0)
(-0.0458343 -0.0052232 0)
(-0.043248 -0.0113532 0)
(-0.0378402 -0.0178235 0)
(-0.0293909 -0.023284 0)
(-0.0186861 -0.025481 0)
(-0.00692394 -0.0218187 0)
(-0.000503025 -0.00954002 0)
(-0.000740889 0.00749602 0)
(-0.00379017 0.01364 0)
(-0.00839055 0.015873 0)
(-0.0130698 0.0165522 0)
(-0.0178609 0.0166789 0)
(-0.0226738 0.016578 0)
(-0.0274845 0.0162761 0)
(-0.0322713 0.015681 0)
(-0.0369871 0.0146366 0)
(-0.0415417 0.0129298 0)
(-0.0457734 0.0102904 0)
(-0.0494113 0.00640509 0)
(-0.0520313 0.000969922 0)
(-0.0530232 -0.0062115 0)
(-0.0515174 -0.0150949 0)
(-0.0464624 -0.0249392 0)
(-0.037004 -0.0337861 0)
(-0.0235492 -0.0378427 0)
(-0.00777834 -0.032121 0)
(7.80269e-05 -0.0130722 0)
(-0.0007213 0.00970085 0)
(-0.00378015 0.0176069 0)
(-0.0084402 0.0204737 0)
(-0.0131971 0.0213533 0)
(-0.018101 0.0215501 0)
(-0.0230834 0.0214931 0)
(-0.0281562 0.0212314 0)
(-0.0333445 0.0206646 0)
(-0.0386602 0.019608 0)
(-0.044083 0.0177947 0)
(-0.0495249 0.0148614 0)
(-0.0547672 0.0103445 0)
(-0.0593843 0.00371378 0)
(-0.0626891 -0.00552853 0)
(-0.0635161 -0.0176305 0)
(-0.0600889 -0.0320441 0)
(-0.0502379 -0.0463334 0)
(-0.0328578 -0.0543758 0)
(-0.00996934 -0.0458765 0)
(0.000977929 -0.0167266 0)
(-0.000689902 0.0118739 0)
(-0.00372422 0.0215847 0)
(-0.00840105 0.0251162 0)
(-0.0131939 0.026226 0)
(-0.0181679 0.0265399 0)
(-0.0232795 0.0266059 0)
(-0.0285834 0.02651 0)
(-0.0341651 0.026159 0)
(-0.0401182 0.0253564 0)
(-0.0465299 0.0237943 0)
(-0.0534464 0.0210206 0)
(-0.0608028 0.016402 0)
(-0.0683276 0.00910952 0)
(-0.0754292 -0.00180752 0)
(-0.0808203 -0.0171961 0)
(-0.0817709 -0.0375701 0)
(-0.0734409 -0.0608463 0)
(-0.0509722 -0.0776615 0)
(-0.0167191 -0.0662417 0)
(0.00173302 -0.0215842 0)
(-0.000649043 0.0139929 0)
(-0.00363531 0.0255423 0)
(-0.00829643 0.0297657 0)
(-0.0130824 0.0311293 0)
(-0.0180702 0.0316014 0)
(-0.02324 0.0318668 0)
(-0.0286921 0.0320672 0)
(-0.0345816 0.0321405 0)
(-0.0411056 0.0319105 0)
(-0.0485018 0.0310694 0)
(-0.0570336 0.0291208 0)
(-0.0669492 0.0253058 0)
(-0.0783958 0.0185317 0)
(-0.0912667 0.00727186 0)
(-0.1047 -0.0106943 0)
(-0.114396 -0.0383088 0)
(-0.110198 -0.0764131 0)
(-0.0819071 -0.110647 0)
(-0.0351148 -0.098828 0)
(0.000124672 -0.0315315 0)
(-0.000600222 0.0160394 0)
(-0.00352033 0.0294541 0)
(-0.00813501 0.0343847 0)
(-0.0128605 0.0360077 0)
(-0.0177808 0.0366573 0)
(-0.0228946 0.0371762 0)
(-0.0283432 0.0377838 0)
(-0.0343498 0.0384802 0)
(-0.041221 0.0391565 0)
(-0.0493753 0.0395791 0)
(-0.0593742 0.0393251 0)
(-0.0719569 0.0376949 0)
(-0.0881139 0.0335809 0)
(-0.108931 0.024876 0)
(-0.13366 0.00662425 0)
(-0.154762 -0.0303754 0)
(-0.154951 -0.092215 0)
(-0.123135 -0.15359 0)
(-0.0721439 -0.148319 0)
(-0.00886808 -0.0552084 0)
(-0.000548156 0.0180003 0)
(-0.00339509 0.033299 0)
(-0.00793828 0.0389309 0)
(-0.0125404 0.040788 0)
(-0.0172875 0.0415956 0)
(-0.0221866 0.0423763 0)
(-0.0274068 0.0434508 0)
(-0.033223 0.0449157 0)
(-0.040032 0.0467876 0)
(-0.0484157 0.0490102 0)
(-0.0592352 0.0514197 0)
(-0.073769 0.0536748 0)
(-0.0939598 0.0549451 0)
(-0.122171 0.0521699 0)
(-0.157176 0.0349523 0)
(-0.185876 -0.0155512 0)
(-0.187626 -0.108637 0)
(-0.160977 -0.199084 0)
(-0.117807 -0.211457 0)
(-0.028307 -0.106945 0)
(-0.000503634 0.0198776 0)
(-0.00329398 0.0370679 0)
(-0.00775778 0.0433575 0)
(-0.012173 0.0453754 0)
(-0.0166256 0.0462643 0)
(-0.0211165 0.0472456 0)
(-0.0258207 0.0487558 0)
(-0.0310274 0.051014 0)
(-0.0371638 0.054214 0)
(-0.0448832 0.0585814 0)
(-0.055207 0.0644055 0)
(-0.0696881 0.0719488 0)
(-0.0905452 0.0805124 0)
(-0.120316 0.0846799 0)
(-0.15582 0.0666582 0)
(-0.182505 0.000861657 0)
(-0.184118 -0.118225 0)
(-0.168 -0.234399 0)
(-0.138958 -0.283371 0)
(-0.0469032 -0.201346 0)
(-0.00048935 0.0217096 0)
(-0.00328665 0.0408047 0)
(-0.00769648 0.0476746 0)
(-0.0118679 0.0497257 0)
(-0.0159015 0.0505444 0)
(-0.0197798 0.0515684 0)
(-0.0236582 0.0533551 0)
(-0.0277875 0.0562466 0)
(-0.0325279 0.0606271 0)
(-0.0384221 0.067033 0)
(-0.0463057 0.0762341 0)
(-0.0573527 0.0889708 0)
(-0.0727917 0.104023 0)
(-0.094171 0.112658 0)
(-0.117796 0.091978 0)
(-0.134388 0.0144923 0)
(-0.136767 -0.116616 0)
(-0.131389 -0.25166 0)
(-0.123475 -0.341932 0)
(-0.0477521 -0.307533 0)
(-0.000536227 0.0235479 0)
(-0.00345778 0.0444696 0)
(-0.00789172 0.0516934 0)
(-0.0118012 0.0535473 0)
(-0.0153206 0.0540947 0)
(-0.0184013 0.0549519 0)
(-0.0211698 0.0567485 0)
(-0.0237936 0.0599099 0)
(-0.02647 0.0649382 0)
(-0.0294584 0.0725427 0)
(-0.033099 0.0836998 0)
(-0.0377176 0.0991488 0)
(-0.0432518 0.117075 0)
(-0.0503514 0.126673 0)
(-0.0578871 0.10471 0)
(-0.0622354 0.0229256 0)
(-0.0666103 -0.106648 0)
(-0.071553 -0.245268 0)
(-0.090709 -0.364553 0)
(-0.0344274 -0.382672 0)
(-0.000750561 0.0257179 0)
(-0.0040978 0.0486946 0)
(-0.00867297 0.0561972 0)
(-0.0122232 0.0576397 0)
(-0.0150823 0.0575321 0)
(-0.0172246 0.0577565 0)
(-0.0187231 0.0590322 0)
(-0.0196282 0.061823 0)
(-0.0199549 0.0666421 0)
(-0.0196402 0.0741724 0)
(-0.0185308 0.0852995 0)
(-0.0160841 0.100422 0)
(-0.0115772 0.117718 0)
(-0.00441791 0.126514 0)
(0.00199753 0.105508 0)
(0.0074981 0.027057 0)
(-0.00282716 -0.0931905 0)
(-0.0189615 -0.222568 0)
(-0.0623049 -0.364553 0)
(-0.0211475 -0.434656 0)
(-0.00109424 0.0283928 0)
(-0.00489694 0.0521381 0)
(-0.00994885 0.0588861 0)
(-0.0134068 0.0591816 0)
(-0.0157954 0.0583134 0)
(-0.016987 0.0580047 0)
(-0.0171212 0.0588001 0)
(-0.0162135 0.0610132 0)
(-0.0141588 0.0650445 0)
(-0.0106487 0.0714116 0)
(-0.00527289 0.0806979 0)
(0.00313159 0.0929984 0)
(0.0153183 0.106672 0)
(0.032333 0.113027 0)
(0.0470941 0.0949232 0)
(0.0590174 0.0283755 0)
(0.0438208 -0.0754085 0)
(0.023296 -0.188014 0)
(-0.0406399 -0.348953 0)
(-0.00979367 -0.469766 0)
(-0.00317715 0.0305834 0)
(-0.00934215 0.0592144 0)
(-0.0137003 0.0658404 0)
(-0.01607 0.0655003 0)
(-0.017035 0.062848 0)
(-0.0169436 0.0606548 0)
(-0.0157875 0.0595833 0)
(-0.0134029 0.0599395 0)
(-0.00950078 0.0619918 0)
(-0.0036248 0.0660016 0)
(0.00478858 0.0723023 0)
(0.0170035 0.0806575 0)
(0.0330489 0.0895425 0)
(0.0544191 0.0926224 0)
(0.0724616 0.0787832 0)
(0.0885071 0.0295379 0)
(0.0708764 -0.051378 0)
(0.0504096 -0.145055 0)
(-0.0266322 -0.32609 0)
(0.002692 -0.492215 0)
(-0.000950936 0.043985 0)
(-0.00763592 0.0606385 0)
(-0.0170246 0.0630115 0)
(-0.0193941 0.0591421 0)
(-0.0206869 0.0560837 0)
(-0.0198003 0.0540741 0)
(-0.017467 0.0530682 0)
(-0.0135595 0.0529698 0)
(-0.00789237 0.0538981 0)
(4.83117e-05 0.0559044 0)
(0.0107102 0.0593999 0)
(0.0251281 0.0639332 0)
(0.0426322 0.0684513 0)
(0.0654864 0.0689142 0)
(0.0832064 0.05891 0)
(0.10145 0.0265048 0)
(0.0825896 -0.0310561 0)
(0.0663786 -0.105229 0)
(-0.00945592 -0.302835 0)
(0.0215644 -0.502029 0)
(-0.0125632 0.0322248 0)
(-0.0232174 0.0804152 0)
(-0.0211145 0.0804734 0)
(-0.0253652 0.0755126 0)
(-0.025186 0.0681037 0)
(-0.0231909 0.0619955 0)
(-0.019102 0.0571319 0)
(-0.0130984 0.0534266 0)
(-0.00525868 0.0508912 0)
(0.00489075 0.0493095 0)
(0.0173001 0.0489263 0)
(0.032814 0.0491966 0)
(0.0498916 0.0503991 0)
(0.0718443 0.0495599 0)
(0.086356 0.0449491 0)
(0.106526 0.028688 0)
(0.0926098 -0.00602559 0)
(0.100486 -0.0651184 0)
(0.0399041 -0.273991 0)
(0.0574913 -0.489711 0)
(-0.0776543 0.0958687 0)
(-0.0632515 0.0587778 0)
(-0.0652505 0.0599809 0)
(-0.0427245 0.0533534 0)
(-0.0249347 0.0463817 0)
(-0.00429633 0.0412156 0)
(0.0151899 0.0374522 0)
(0.0350603 0.0342631 0)
(0.0535099 0.0319587 0)
(0.073597 0.0298918 0)
(0.0911216 0.0287401 0)
(0.113503 0.0276717 0)
(0.129279 0.0270409 0)
(0.158226 0.0259863 0)
(0.168116 0.0206978 0)
(0.202951 0.0118317 0)
(0.191508 -0.0213189 0)
(0.222922 -0.0741325 0)
(0.154203 -0.251804 0)
(0.124918 -0.433357 0)
(0.11938 0.140757 0)
(0.151971 0.0860627 0)
(0.228403 0.0634903 0)
(0.28387 0.0480371 0)
(0.325298 0.037411 0)
(0.363617 0.0296569 0)
(0.392343 0.0242325 0)
(0.423561 0.0201807 0)
(0.443517 0.0172905 0)
(0.472107 0.0149867 0)
(0.484955 0.0132888 0)
(0.514344 0.0119666 0)
(0.519874 0.0108411 0)
(0.552144 0.00961914 0)
(0.547179 0.00760703 0)
(0.579292 0.00317088 0)
(0.547838 -0.00584383 0)
(0.553415 -0.0270899 0)
(0.419883 -0.0731723 0)
(0.275177 -0.1519 0)
)
;

boundaryField
{
    movingWall
    {
        type            fixedValue;
        value           uniform (1 0 0);
    }
    fixedWalls
    {
        type            noSlip;
    }
    frontAndBack
    {
        type            empty;
    }
}


// ************************************************************************* //
