/*--------------------------------*- C++ -*----------------------------------*\
  =========                 |
  \\      /  F ield         | OpenFOAM: The Open Source CFD Toolbox
   \\    /   O peration     | Website:  https://openfoam.org
    \\  /    A nd           | Version:  10
     \\/     M anipulation  |
\*---------------------------------------------------------------------------*/
FoamFile
{
    format      ascii;
    class       volScalarField;
    location    "3.9";
    object      p;
}
// * * * * * * * * * * * * * * * * * * * * * * * * * * * * * * * * * * * * * //

dimensions      [0 2 -2 0 0 0 0];

internalField   nonuniform List<scalar> 
400
(
-1.52404e-08
-3.08233e-05
-1.03589e-05
3.58596e-05
0.0001139
0.000224339
0.000367557
0.000543685
0.000752021
0.000990583
0.00125568
0.00154146
0.00183958
0.00213892
0.00242582
0.00268468
0.00289855
0.00305132
0.00314062
0.00312083
3.10038e-05
-8.9997e-07
2.07707e-05
6.48576e-05
0.000138845
0.000243913
0.00038085
0.000550158
0.000751502
0.000983292
0.00124223
0.00152258
0.00181683
0.00211393
0.00240026
0.00266001
0.00287578
0.00303129
0.00312527
0.00310417
6.93531e-06
-2.99935e-05
-9.98844e-06
3.13692e-05
0.000102332
0.000204312
0.000338496
0.000505919
0.00070685
0.000940323
0.00120365
0.00149228
0.00179832
0.00211072
0.00241521
0.0026946
0.00292917
0.00309963
0.00320373
0.00317815
-4.82848e-05
-8.95079e-05
-7.18113e-05
-3.40699e-05
3.29013e-05
0.000130911
0.00026179
0.000427388
0.00062893
0.000866496
0.00113844
0.00144085
0.00176719
0.00210618
0.00244243
0.00275625
0.00302414
0.00322163
0.00334436
0.00331686
-0.000140441
-0.00018638
-0.00017173
-0.000138502
-7.64172e-05
1.68683e-05
0.000144028
0.000308006
0.000511333
0.000755576
0.00104065
0.00136401
0.00172028
0.00209847
0.00248219
0.00284876
0.00316893
0.00340981
0.00356284
0.00353553
-0.000269705
-0.000321368
-0.000310672
-0.00028327
-0.000227614
-0.000140717
-1.88617e-05
0.000142283
0.000346946
0.000598697
0.000899635
0.00124935
0.00164492
0.0020761
0.00252583
0.00296793
0.00336562
0.00367309
0.00387372
0.00385034
-0.000436194
-0.000494869
-0.000489285
-0.000469591
-0.000422782
-0.000345155
-0.000231779
-7.66487e-05
0.000126613
0.000384215
0.000701307
0.00108036
0.00152314
0.00202098
0.00255779
0.00310415
0.00361396
0.00402258
0.00429784
0.00428752
-0.000640372
-0.000707581
-0.000708547
-0.000699057
-0.000664481
-0.000600401
-0.000500565
-0.00035707
-0.000160989
9.72716e-05
0.000427283
0.000837819
0.00132932
0.00190554
0.00255221
0.00323829
0.0039076
0.00447059
0.00486424
0.0048899
-0.00088281
-0.000960249
-0.0009694
-0.00097317
-0.000955189
-0.000910433
-0.000831337
-0.000708019
-0.000528775
-0.000280206
5.23386e-05
0.000483361
0.00102522
0.00168766
0.00246595
0.00333333
0.00422583
0.00502547
0.00561063
0.00572963
-0.00116417
-0.00125363
-0.00127257
-0.00129301
-0.00129683
-0.00127863
-0.00122971
-0.00113834
-0.000990075
-0.000767489
-0.000449993
-1.44168e-05
0.000562984
0.0013062
0.00222875
0.00331954
0.00451644
0.00567612
0.00658191
0.00693352
-0.00148542
-0.00158864
-0.00161845
-0.00165893
-0.0016902
-0.00170695
-0.00169968
-0.00165524
-0.00155694
-0.00138377
-0.00110933
-0.000700911
-0.000118943
0.000672886
0.0017286
0.00306967
0.00466194
0.00635942
0.00781903
0.00872202
-0.00184845
-0.00196674
-0.0020071
-0.00207015
-0.00213432
-0.00219494
-0.00224223
-0.00226231
-0.00223735
-0.00214433
-0.001953
-0.00162302
-0.0011015
-0.000322104
0.000802211
0.00236007
0.00440653
0.00686217
0.00924888
0.0115322
-0.00225753
-0.00239082
-0.00243842
-0.00252444
-0.0026256
-0.00273856
-0.00285364
-0.00295705
-0.00303155
-0.00305498
-0.0029977
-0.00281811
-0.00245642
-0.00182668
-0.000828339
0.000761648
0.00317322
0.00653671
0.0104424
0.0153756
-0.00272152
-0.00286401
-0.00290777
-0.00301335
-0.0031547
-0.00332848
-0.00352414
-0.0037286
-0.00392744
-0.00410329
-0.00423344
-0.00428614
-0.00421163
-0.00392534
-0.00328917
-0.00213794
4.97378e-06
0.00381881
0.00926326
0.0184107
-0.0032653
-0.0034263
-0.00345538
-0.00357877
-0.00374876
-0.00397282
-0.00424621
-0.00455918
-0.00490056
-0.00526016
-0.00563059
-0.0060067
-0.0063841
-0.0067558
-0.00712598
-0.00749068
-0.00753588
-0.0052934
-0.000165552
0.0141257
-0.003968
-0.00392562
-0.00388072
-0.00396222
-0.00417619
-0.00449722
-0.00490179
-0.005368
-0.00588344
-0.00644548
-0.00706741
-0.00778455
-0.00867222
-0.00986324
-0.0116925
-0.0145619
-0.0191424
-0.0208492
-0.0176745
0.00255006
-0.00444436
-0.00491091
-0.00475676
-0.00494779
-0.00514986
-0.00546186
-0.00588046
-0.0063967
-0.00700455
-0.00770704
-0.00853164
-0.00955223
-0.0109472
-0.0129893
-0.0165796
-0.0219354
-0.0326353
-0.0401558
-0.0369944
-0.00596062
-0.00763911
-0.00513311
-0.0047334
-0.00448188
-0.00474694
-0.00526339
-0.00595045
-0.00673076
-0.00758654
-0.00850258
-0.00952934
-0.0107205
-0.0123985
-0.0146911
-0.0193601
-0.0256294
-0.03797
-0.0462431
-0.0404326
0.0116284
-0.00447668
-0.00736453
-0.00662135
-0.00701892
-0.00706054
-0.00731295
-0.0077492
-0.0083404
-0.00905599
-0.00988382
-0.0107981
-0.0118657
-0.0134851
-0.0155394
-0.0203823
-0.0264728
-0.0366505
-0.0372839
-0.0144716
0.0708776
-0.0289288
-0.00409122
-0.00313106
-0.00282923
-0.00313784
-0.00391485
-0.00500148
-0.00611124
-0.00732599
-0.00846255
-0.00979759
-0.0110934
-0.0130147
-0.0152433
-0.0183352
-0.0202812
-0.0179871
0.00575937
0.07
0.208302
)
;

boundaryField
{
    movingWall
    {
        type            zeroGradient;
    }
    fixedWalls
    {
        type            zeroGradient;
    }
    frontAndBack
    {
        type            empty;
    }
}


// ************************************************************************* //
