/*--------------------------------*- C++ -*----------------------------------*\
  =========                 |
  \\      /  F ield         | OpenFOAM: The Open Source CFD Toolbox
   \\    /   O peration     | Website:  https://openfoam.org
    \\  /    A nd           | Version:  10
     \\/     M anipulation  |
\*---------------------------------------------------------------------------*/
FoamFile
{
    format      ascii;
    class       surfaceScalarField;
    location    "2.175";
    object      phi;
}
// * * * * * * * * * * * * * * * * * * * * * * * * * * * * * * * * * * * * * //

dimensions      [0 3 -1 0 0 0 0];

internalField   nonuniform List<scalar> 
760
(
-1.37996e-05
1.37995e-05
-3.45693e-05
2.07697e-05
-5.55409e-05
2.09716e-05
-7.53109e-05
1.97701e-05
-9.33296e-05
1.80187e-05
-0.000109161
1.58313e-05
-0.000122409
1.32484e-05
-0.000132718
1.03087e-05
-0.000139774
7.05611e-06
-0.000143315
3.54126e-06
-0.000143137
-1.77837e-07
-0.000139103
-4.03425e-06
-0.00013117
-7.93321e-06
-0.000119401
-1.17687e-05
-0.000103986
-1.54156e-05
-8.52551e-05
-1.87307e-05
-6.37053e-05
-2.15498e-05
-4.00929e-05
-2.36124e-05
-1.624e-05
-2.38529e-05
-1.624e-05
-2.14297e-05
3.52293e-05
-5.15979e-05
5.09379e-05
-8.18613e-05
5.1235e-05
-0.000110324
4.82327e-05
-0.000136176
4.38706e-05
-0.000158781
3.84366e-05
-0.000177579
3.20459e-05
-0.000192077
2.48068e-05
-0.000201856
1.68354e-05
-0.000206569
8.25418e-06
-0.00020599
-7.56627e-07
-0.000199923
-1.0102e-05
-0.00018835
-1.9506e-05
-0.000171385
-2.87334e-05
-0.000149309
-3.74913e-05
-0.000122599
-4.54415e-05
-9.19546e-05
-5.21937e-05
-5.84391e-05
-5.71279e-05
-2.447e-05
-5.78221e-05
-4.071e-05
-2.33494e-05
5.85787e-05
-5.60922e-05
8.36807e-05
-8.88756e-05
8.40184e-05
-0.000119679
7.90364e-05
-0.000147646
7.18371e-05
-0.000172101
6.28921e-05
-0.000192453
5.23982e-05
-0.000208185
4.05386e-05
-0.000218856
2.75057e-05
-0.000224111
1.35095e-05
-0.000223658
-1.20953e-06
-0.000217292
-1.64676e-05
-0.000204974
-3.18241e-05
-0.000186787
-4.69212e-05
-0.00016299
-6.12883e-05
-0.000134059
-7.4372e-05
-0.000100727
-8.55255e-05
-6.41347e-05
-9.37204e-05
-2.69171e-05
-9.50397e-05
-6.76271e-05
-2.48314e-05
8.34101e-05
-5.97155e-05
0.000118565
-9.46225e-05
0.000118925
-0.000127419
0.000111833
-0.000157213
0.000101631
-0.000183308
8.89872e-05
-0.000205097
7.4187e-05
-0.000222048
5.74896e-05
-0.000233702
3.91602e-05
-0.000239673
1.94808e-05
-0.000239664
-1.21851e-06
-0.000233374
-2.27576e-05
-0.000220707
-4.44914e-05
-0.000201681
-6.59477e-05
-0.000176488
-8.64807e-05
-0.000145561
-0.000105299
-0.000109634
-0.000121452
-6.99333e-05
-0.000133421
-2.937e-05
-0.000135603
-9.69971e-05
-2.67939e-05
0.000110204
-6.44906e-05
0.000156261
-0.000102194
0.000156629
-0.000137615
0.000147254
-0.000169813
0.000133829
-0.000198069
0.000117243
-0.000221762
9.78798e-05
-0.000240349
7.60772e-05
-0.000253357
5.21675e-05
-0.000260367
2.6491e-05
-0.000261041
-5.44615e-07
-0.000254989
-2.88092e-05
-0.000242014
-5.74661e-05
-0.000222017
-8.59452e-05
-0.000195075
-0.000113422
-0.000161529
-0.000138845
-0.000122091
-0.000160891
-7.80942e-05
-0.000177418
-3.2854e-05
-0.000180843
-0.000129851
-2.93859e-05
0.00013959
-7.07711e-05
0.000197647
-0.000112127
0.000197986
-0.000150956
0.000186082
-0.000186258
0.000169131
-0.000217293
0.000148278
-0.000243433
0.000124019
-0.000264135
9.67792e-05
-0.000278916
6.69489e-05
-0.00028733
3.4905e-05
-0.000289001
1.12628e-06
-0.000283408
-3.44028e-05
-0.000270222
-7.06519e-05
-0.000249161
-0.000107006
-0.000220112
-0.000142471
-0.000183245
-0.000175713
-0.000139189
-0.000204947
-8.93879e-05
-0.000227218
-3.77179e-05
-0.000232513
-0.000167569
-3.26868e-05
0.000172277
-7.87464e-05
0.000243706
-0.000124699
0.000243938
-0.000167778
0.000229162
-0.000206921
0.000208274
-0.00024137
0.000182727
-0.00027051
0.00015316
-0.000293821
0.00012009
-0.000310834
8.3962e-05
-0.000321096
4.51666e-05
-0.000324123
4.15319e-06
-0.000319364
-3.91612e-05
-0.000306236
-8.37802e-05
-0.000284197
-0.000129045
-0.000252827
-0.000173842
-0.000211993
-0.000216547
-0.000162116
-0.000254824
-0.000104706
-0.000284628
-4.43892e-05
-0.00029283
-0.000211958
-3.67993e-05
0.000209076
-8.86544e-05
0.000295561
-0.000140247
0.00029553
-0.000188479
0.000277394
-0.000232219
0.000252014
-0.000270714
0.000221222
-0.000303394
0.00018584
-0.0003298
0.000146496
-0.000349515
0.000103677
-0.000362103
5.7754e-05
-0.000367036
9.08691e-06
-0.000363651
-4.25465e-05
-0.000351097
-9.63339e-05
-0.000328461
-0.000151682
-0.000294834
-0.000207468
-0.000249561
-0.00026182
-0.000192614
-0.000311771
-0.000125413
-0.000351829
-5.3561e-05
-0.000364682
-0.000265519
-4.18751e-05
0.000250951
-0.000100833
0.000354519
-0.000159239
0.000353936
-0.000213588
0.000331744
-0.000262687
0.000301113
-0.000305826
0.000264361
-0.000342535
0.000222549
-0.00037248
0.00017644
-0.000395361
0.000126558
-0.000410814
7.32075e-05
-0.000418315
1.65872e-05
-0.000417095
-4.3766e-05
-0.000405995
-0.000107434
-0.000383603
-0.000174073
-0.000348286
-0.000242785
-0.000298491
-0.000311615
-0.000233312
-0.000376949
-0.000153684
-0.000431458
-6.64232e-05
-0.000451943
-0.000331942
-4.81453e-05
0.000299096
-0.000115776
0.000422151
-0.000182334
0.000420494
-0.000243824
0.000393233
-0.000299017
0.000356306
-0.000347312
0.000312656
-0.000388429
0.000263665
-0.000422254
0.000210265
-0.000448702
0.000153006
-0.000467577
9.20827e-05
-0.000478431
2.74412e-05
-0.000480462
-4.17345e-05
-0.000472182
-0.000115715
-0.000451572
-0.000194683
-0.000415977
-0.00027838
-0.000362387
-0.000365205
-0.000288232
-0.000451104
-0.000193088
-0.000526601
-8.51363e-05
-0.000559895
-0.000417079
-5.59746e-05
0.000355071
-0.00013422
0.000500396
-0.000210479
0.000496752
-0.000280175
0.000462929
-0.000342114
0.000418246
-0.000395915
0.000366457
-0.000441615
0.000309364
-0.000479461
0.000248111
-0.000509724
0.00018327
-0.000532516
0.000114874
-0.000547599
4.25239e-05
-0.000554278
-3.50552e-05
-0.0005508
-0.000119193
-0.000534499
-0.000210984
-0.000501406
-0.000311474
-0.000446324
-0.000420287
-0.000363633
-0.000533794
-0.000249723
-0.000640512
-0.000113892
-0.000695725
-0.000530971
-6.59637e-05
0.000421035
-0.000157294
0.000591726
-0.000245054
0.000584513
-0.000324021
0.000541896
-0.000393185
0.000487409
-0.000452554
0.000425826
-0.000502673
0.000359483
-0.000544341
0.00028978
-0.000578375
0.000217303
-0.000605384
0.000141884
-0.00062555
6.26896e-05
-0.000638533
-2.20714e-05
-0.000642538
-0.000115188
-0.000634399
-0.000219123
-0.000608689
-0.000337183
-0.000557243
-0.000471734
-0.000469371
-0.000621666
-0.000334438
-0.000775444
-0.000161447
-0.000868716
-0.000692418
-7.91603e-05
0.000500195
-0.000186769
0.000699335
-0.000288107
0.00068585
-0.000377311
0.0006311
-0.00045385
0.000563948
-0.000518385
0.000490361
-0.000572229
0.000413328
-0.000616984
0.000334534
-0.00065425
0.00025457
-0.000685379
0.000173012
-0.00071123
8.85405e-05
-0.000732259
-1.04213e-06
-0.000747039
-0.000100408
-0.000752491
-0.000213671
-0.000742067
-0.000347608
-0.000704201
-0.0005096
-0.000620821
-0.000705046
-0.000467374
-0.000928892
-0.000248184
-0.00108791
-0.000940602
-9.75382e-05
0.000597733
-0.000225637
0.000827434
-0.000342759
0.000802972
-0.00044282
0.000731162
-0.000526309
0.000647436
-0.000594879
0.000558932
-0.000650973
0.000469421
-0.000697291
0.000380852
-0.000736493
0.000293773
-0.000770968
0.000207486
-0.000802628
0.000120201
-0.0008327
2.90302e-05
-0.000861876
-7.12322e-05
-0.000887814
-0.000187733
-0.000904426
-0.000330995
-0.000897668
-0.000516358
-0.000841035
-0.00076168
-0.000685217
-0.00108471
-0.000416655
-0.00135647
-0.00135726
-0.00012261
0.000720343
-0.000277073
0.000981898
-0.000413033
0.000938931
-0.0005243
0.000842429
-0.000613475
0.000736611
-0.000683884
0.000629341
-0.000739651
0.000525188
-0.000784923
0.000426125
-0.000823662
0.000332511
-0.000859522
0.000243347
-0.000895673
0.000156352
-0.000935122
6.84798e-05
-0.000981408
-2.49471e-05
-0.0010347
-0.000134439
-0.00109348
-0.000272219
-0.00114449
-0.000465348
-0.00115871
-0.000747456
-0.00104107
-0.00120235
-0.000739537
-0.001658
-0.00209679
-0.000178373
0.000898716
-0.000358155
0.00116168
-0.000508712
0.00108949
-0.000627383
0.000961099
-0.000718907
0.000828135
-0.000787389
0.000697823
-0.000838669
0.000576468
-0.000878676
0.000466132
-0.000913011
0.000366846
-0.000946808
0.000277143
-0.000985284
0.000194828
-0.00103318
0.000116374
-0.00109448
3.6353e-05
-0.00117802
-5.08994e-05
-0.00129172
-0.000158513
-0.00142945
-0.000327623
-0.00157502
-0.000601885
-0.00156858
-0.00120879
-0.00125012
-0.00197646
-0.00334691
-0.000184458
0.00108317
-0.000434953
0.00141217
-0.000624664
0.0012792
-0.00075855
0.00109499
-0.000848582
0.000918167
-0.00090561
0.000754851
-0.000941979
0.000612837
-0.000967135
0.000491288
-0.000988236
0.000387947
-0.00101069
0.000299602
-0.00103968
0.000223817
-0.00108124
0.00015793
-0.00114713
0.000102245
-0.00125048
5.2449e-05
-0.00142034
1.13445e-05
-0.00165542
-9.25426e-05
-0.00197473
-0.000282576
-0.00208159
-0.00110193
-0.00165249
-0.00240557
-0.0049994
-0.000479172
0.00156235
-0.000668446
0.00160145
-0.000804919
0.00141567
-0.000897858
0.00118792
-0.000938388
0.000958697
-0.000946294
0.000762757
-0.00093716
0.000603703
-0.000921206
0.000475333
-0.000906033
0.000372774
-0.000897602
0.000291171
-0.000903088
0.000229303
-0.000927253
0.000182095
-0.000982429
0.000157421
-0.00107376
0.000143777
-0.00122732
0.000164911
-0.0014279
0.000108029
-0.00165397
-5.65071e-05
-0.00173398
-0.00102191
-0.00115926
-0.00298029
-0.00615866
-0.00120033
0.00276267
-0.00110521
0.00150633
-0.000879025
0.00118949
-0.000599287
0.000908187
-0.000322643
0.000682053
-7.26155e-05
0.00051273
0.000141487
0.0003896
0.000317927
0.000298894
0.000459117
0.000231584
0.000570511
0.000179777
0.000656136
0.000143678
0.000723868
0.000114363
0.000782688
9.86019e-05
0.00083563
9.08356e-05
0.000927118
7.34232e-05
0.000987153
4.79943e-05
0.0011411
-0.000210456
0.00102959
-0.000910394
0.000792132
-0.00274284
-0.00536653
0.00276267
0.004269
0.00545849
0.00636668
0.00704873
0.00756146
0.00795106
0.00824996
0.00848154
0.00866132
0.00880499
0.00891936
0.00901796
0.00910879
0.00918222
0.00923021
0.00901976
0.00810936
0.00536653
)
;

boundaryField
{
    movingWall
    {
        type            calculated;
        value           uniform 0;
    }
    fixedWalls
    {
        type            calculated;
        value           uniform 0;
    }
    frontAndBack
    {
        type            empty;
        value           nonuniform List<scalar> 0();
    }
}


// ************************************************************************* //
