/*--------------------------------*- C++ -*----------------------------------*\
  =========                 |
  \\      /  F ield         | OpenFOAM: The Open Source CFD Toolbox
   \\    /   O peration     | Website:  https://openfoam.org
    \\  /    A nd           | Version:  10
     \\/     M anipulation  |
\*---------------------------------------------------------------------------*/
FoamFile
{
    format      ascii;
    class       volVectorField;
    location    "0.55";
    object      U;
}
// * * * * * * * * * * * * * * * * * * * * * * * * * * * * * * * * * * * * * //

dimensions      [0 1 -1 0 0 0 0];

internalField   nonuniform List<vector> 
475
(
(0.944406 0.0386193 0)
(1.02011 -0.0603378 0)
(0.92676 0.0897382 0)
(1.0322 -0.086285 0)
(1.00441 0.0171199 0)
(1.01996 -0.00697622 0)
(0.991258 0.0174276 0)
(1.03656 0.0100841 0)
(1.06473 -0.0758103 0)
(1.02963 -0.044095 0)
(1.00675 0.00593756 0)
(0.988353 -0.0249833 0)
(1.03126 -0.0243114 0)
(1.05259 -0.0398782 0)
(1.02489 -0.0887253 0)
(1.00537 -0.0137825 0)
(0.999041 -0.0256087 0)
(1.02147 -0.0296624 0)
(1.03702 -0.0576103 0)
(1.01265 -0.0624139 0)
(0.983935 -0.00937446 0)
(0.957815 -0.020801 0)
(0.954758 -0.0267909 0)
(0.923571 -0.0305168 0)
(0.856551 -0.0359097 0)
(1.05164 -0.181852 0)
(1.14991 -0.335265 0)
(1.17187 -0.39499 0)
(1.08555 -0.350249 0)
(0.912088 -0.263694 0)
(0.75794 -0.186172 0)
(0.656245 -0.13214 0)
(0.595378 -0.0964785 0)
(0.561393 -0.0714507 0)
(0.543272 -0.0528411 0)
(0.533684 -0.0388099 0)
(0.528474 -0.0283188 0)
(0.5255 -0.0205663 0)
(0.523709 -0.0148896 0)
(0.522579 -0.0107578 0)
(0.521841 -0.00776161 0)
(0.521348 -0.00559412 0)
(0.521013 -0.00402874 0)
(0.520784 -0.00289969 0)
(0.520624 -0.00208612 0)
(0.520511 -0.0015002 0)
(0.520431 -0.00107833 0)
(0.520375 -0.000774654 0)
(0.520336 -0.000556208 0)
(0.520308 -0.000399246 0)
(0.520288 -0.000286591 0)
(0.520274 -0.000205775 0)
(0.520263 -0.000147754 0)
(0.520255 -0.000106029 0)
(0.52025 -7.59909e-05 0)
(0.520246 -5.43855e-05 0)
(0.520244 -3.88867e-05 0)
(0.520242 -2.77983e-05 0)
(0.520241 -1.98993e-05 0)
(0.52024 -1.42711e-05 0)
(0.520239 -1.02558e-05 0)
(0.520238 -7.38698e-06 0)
(0.520237 -5.33605e-06 0)
(0.520239 -3.88828e-06 0)
(0.520234 -2.85424e-06 0)
(0.520242 -2.17443e-06 0)
(0.520231 -1.75279e-06 0)
(0.520243 -1.36604e-06 0)
(0.520239 -1.52034e-06 0)
(0.520237 -1.57642e-06 0)
(1.08162 -0.140885 0)
(0.973438 -0.355985 0)
(0.741237 -0.392861 0)
(0.610573 -0.256591 0)
(0.574721 -0.135366 0)
(0.567213 -0.0838517 0)
(0.564922 -0.0686652 0)
(0.561207 -0.0606083 0)
(0.555112 -0.0511459 0)
(0.547941 -0.0408264 0)
(0.541162 -0.0313418 0)
(0.535565 -0.0234948 0)
(0.53129 -0.0173645 0)
(0.528152 -0.0127232 0)
(0.52589 -0.00927124 0)
(0.524272 -0.00673101 0)
(0.523118 -0.00487394 0)
(0.522296 -0.00352217 0)
(0.521711 -0.00254136 0)
(0.521292 -0.00183156 0)
(0.520992 -0.0013189 0)
(0.520776 -0.000949097 0)
(0.520622 -0.000682504 0)
(0.520511 -0.000490391 0)
(0.520433 -0.000352059 0)
(0.520377 -0.000252596 0)
(0.520336 -0.000181214 0)
(0.520306 -0.000130066 0)
(0.520285 -9.34238e-05 0)
(0.520269 -6.71114e-05 0)
(0.520258 -4.81415e-05 0)
(0.520251 -3.44269e-05 0)
(0.520246 -2.45301e-05 0)
(0.520242 -1.74258e-05 0)
(0.520239 -1.23817e-05 0)
(0.520237 -8.8429e-06 0)
(0.520235 -6.38162e-06 0)
(0.520233 -4.66565e-06 0)
(0.520235 -3.46084e-06 0)
(0.520229 -2.57649e-06 0)
(0.520238 -1.97888e-06 0)
(0.520226 -1.57104e-06 0)
(0.520238 -1.24387e-06 0)
(0.520234 -1.37484e-06 0)
(0.520232 -1.57841e-06 0)
(1.0292 -0.125712 0)
(1.01209 -0.101764 0)
(0.905112 -0.112371 0)
(0.778439 -0.152895 0)
(0.701045 -0.156551 0)
(0.660834 -0.125901 0)
(0.629169 -0.0900596 0)
(0.601281 -0.0626737 0)
(0.579097 -0.044337 0)
(0.562612 -0.0320995 0)
(0.550685 -0.0235647 0)
(0.542121 -0.0173738 0)
(0.535963 -0.0127939 0)
(0.531523 -0.00938937 0)
(0.528317 -0.00686461 0)
(0.526003 -0.00500081 0)
(0.524334 -0.00363146 0)
(0.523133 -0.00263006 0)
(0.522267 -0.00190098 0)
(0.521644 -0.00137209 0)
(0.521195 -0.000989242 0)
(0.520872 -0.000712335 0)
(0.520639 -0.000512158 0)
(0.520473 -0.000367688 0)
(0.520353 -0.000263758 0)
(0.520267 -0.000189268 0)
(0.520205 -0.000135976 0)
(0.52016 -9.77838e-05 0)
(0.520128 -7.02701e-05 0)
(0.520105 -5.03387e-05 0)
(0.520089 -3.5886e-05 0)
(0.520077 -2.54823e-05 0)
(0.520069 -1.80979e-05 0)
(0.520063 -1.29215e-05 0)
(0.520058 -9.30981e-06 0)
(0.520055 -6.77017e-06 0)
(0.520053 -4.93135e-06 0)
(0.52005 -3.57741e-06 0)
(0.520051 -2.54245e-06 0)
(0.520046 -1.82499e-06 0)
(0.520054 -1.34544e-06 0)
(0.520042 -1.09056e-06 0)
(0.520054 -9.3137e-07 0)
(0.520049 -1.17241e-06 0)
(0.520047 -1.40897e-06 0)
(0.963886 -0.0737314 0)
(0.914799 -0.121736 0)
(0.861219 -0.134933 0)
(0.790445 -0.103585 0)
(0.719611 -0.0653645 0)
(0.664317 -0.0431375 0)
(0.624552 -0.0322738 0)
(0.596033 -0.0256268 0)
(0.575263 -0.0204043 0)
(0.559786 -0.015961 0)
(0.548106 -0.0122409 0)
(0.539327 -0.0092426 0)
(0.532793 -0.00690012 0)
(0.527971 -0.00510781 0)
(0.524432 -0.00375576 0)
(0.521848 -0.00274647 0)
(0.519968 -0.00199937 0)
(0.518605 -0.0014503 0)
(0.517619 -0.00104915 0)
(0.516906 -0.000757318 0)
(0.516392 -0.00054559 0)
(0.516021 -0.000392277 0)
(0.515753 -0.000281531 0)
(0.515562 -0.0002018 0)
(0.515424 -0.000144597 0)
(0.515324 -0.000103636 0)
(0.515253 -7.42855e-05 0)
(0.515201 -5.3192e-05 0)
(0.515164 -3.79882e-05 0)
(0.515138 -2.7039e-05 0)
(0.515119 -1.92078e-05 0)
(0.515106 -1.36619e-05 0)
(0.515097 -9.75253e-06 0)
(0.51509 -6.99067e-06 0)
(0.515085 -5.01799e-06 0)
(0.515081 -3.60457e-06 0)
(0.515078 -2.5314e-06 0)
(0.515075 -1.82994e-06 0)
(0.515076 -1.19614e-06 0)
(0.515071 -1.00494e-06 0)
(0.515079 -7.06094e-07 0)
(0.515066 -5.5217e-07 0)
(0.515078 -7.65505e-07 0)
(0.515073 -7.52849e-07 0)
(0.515071 -1.03783e-06 0)
(0.801887 -0.0356856 0)
(0.752891 -0.0240862 0)
(0.684549 -0.0175448 0)
(0.614047 -0.0172356 0)
(0.561803 -0.0162447 0)
(0.526765 -0.0137293 0)
(0.501682 -0.0105521 0)
(0.482546 -0.0077098 0)
(0.467967 -0.00560229 0)
(0.456916 -0.00412797 0)
(0.44853 -0.0030763 0)
(0.442197 -0.0022987 0)
(0.437454 -0.00171292 0)
(0.433929 -0.00126971 0)
(0.431328 -0.000935412 0)
(0.429419 -0.000684925 0)
(0.428027 -0.00049872 0)
(0.427015 -0.000361402 0)
(0.426283 -0.000260868 0)
(0.425754 -0.000187699 0)
(0.425374 -0.000134676 0)
(0.4251 -9.63786e-05 0)
(0.424904 -6.8803e-05 0)
(0.424763 -4.90183e-05 0)
(0.424663 -3.48786e-05 0)
(0.424591 -2.48048e-05 0)
(0.424539 -1.76344e-05 0)
(0.424503 -1.25219e-05 0)
(0.424476 -8.86718e-06 0)
(0.424458 -6.25388e-06 0)
(0.424445 -4.39422e-06 0)
(0.424436 -3.08321e-06 0)
(0.424429 -2.16627e-06 0)
(0.424424 -1.53955e-06 0)
(0.424421 -1.10702e-06 0)
(0.424418 -7.99665e-07 0)
(0.424416 -5.40237e-07 0)
(0.424415 -4.1491e-07 0)
(0.424415 -2.15412e-07 0)
(0.424412 -2.62707e-07 0)
(0.424417 -1.07295e-07 0)
(0.424408 -5.00243e-08 0)
(0.424417 -3.01546e-07 0)
(0.424414 -2.38167e-07 0)
(0.424411 -4.77817e-07 0)
(-0.0321209 -0.0144444 0)
(-0.0271332 -0.0232909 0)
(0.0378506 -0.0284248 0)
(0.102375 -0.0342507 0)
(0.176005 -0.0325657 0)
(0.240852 -0.0271026 0)
(0.292509 -0.0208094 0)
(0.331221 -0.0151945 0)
(0.359149 -0.0107637 0)
(0.378853 -0.00749768 0)
(0.392603 -0.00518158 0)
(0.40216 -0.00357349 0)
(0.408803 -0.00246778 0)
(0.413432 -0.00170905 0)
(0.416669 -0.00118748 0)
(0.41894 -0.000828066 0)
(0.420536 -0.000579737 0)
(0.421662 -0.000407325 0)
(0.42246 -0.000286776 0)
(0.423026 -0.00020201 0)
(0.423427 -0.000142368 0)
(0.423712 -0.000100544 0)
(0.423914 -7.12506e-05 0)
(0.424057 -5.06061e-05 0)
(0.42416 -3.58936e-05 0)
(0.424233 -2.53283e-05 0)
(0.424286 -1.77674e-05 0)
(0.424323 -1.24425e-05 0)
(0.424349 -8.77165e-06 0)
(0.424367 -6.25499e-06 0)
(0.42438 -4.48931e-06 0)
(0.424389 -3.21525e-06 0)
(0.424396 -2.26796e-06 0)
(0.424401 -1.55049e-06 0)
(0.424405 -1.04414e-06 0)
(0.424407 -7.14323e-07 0)
(0.424409 -5.48489e-07 0)
(0.424409 -3.91121e-07 0)
(0.424411 -3.96277e-07 0)
(0.424409 -2.06039e-07 0)
(0.424415 -2.37273e-07 0)
(0.424408 -2.03684e-07 0)
(0.424417 7.99074e-08 0)
(0.424416 1.10063e-08 0)
(0.424413 1.04895e-07 0)
(-0.0273033 0.0862173 0)
(-0.0312584 -0.040445 0)
(0.0475706 -0.0875988 0)
(0.12742 -0.114685 0)
(0.221117 -0.109984 0)
(0.300261 -0.0913964 0)
(0.361214 -0.0702515 0)
(0.405932 -0.0516091 0)
(0.43791 -0.036944 0)
(0.460512 -0.0260815 0)
(0.476427 -0.0182967 0)
(0.48764 -0.0128137 0)
(0.495558 -0.0089817 0)
(0.501165 -0.00630843 0)
(0.505146 -0.00444172 0)
(0.507979 -0.00313588 0)
(0.509996 -0.0022201 0)
(0.511437 -0.00157542 0)
(0.512468 -0.00111952 0)
(0.513207 -0.000796132 0)
(0.513736 -0.000566646 0)
(0.514114 -0.000403951 0)
(0.514384 -0.000288498 0)
(0.514578 -0.000206198 0)
(0.514718 -0.000147195 0)
(0.514819 -0.000104805 0)
(0.514891 -7.44882e-05 0)
(0.514943 -5.30065e-05 0)
(0.514979 -3.79036e-05 0)
(0.515005 -2.72618e-05 0)
(0.515023 -1.96486e-05 0)
(0.515037 -1.40995e-05 0)
(0.515047 -9.99735e-06 0)
(0.515054 -6.96164e-06 0)
(0.51506 -4.78911e-06 0)
(0.515063 -3.30124e-06 0)
(0.515066 -2.37765e-06 0)
(0.515067 -1.71559e-06 0)
(0.51507 -1.42579e-06 0)
(0.515066 -9.77208e-07 0)
(0.515075 -8.55814e-07 0)
(0.515065 -7.20191e-07 0)
(0.515077 -2.66324e-07 0)
(0.515074 -3.54191e-07 0)
(0.515072 -2.95126e-07 0)
(-0.113249 0.0225923 0)
(-0.119095 -0.123492 0)
(0.0247908 -0.19206 0)
(0.12673 -0.222562 0)
(0.240847 -0.204336 0)
(0.328052 -0.163593 0)
(0.388753 -0.122276 0)
(0.429573 -0.0882689 0)
(0.456966 -0.062638 0)
(0.475592 -0.0441207 0)
(0.488467 -0.0310178 0)
(0.497495 -0.0218277 0)
(0.503891 -0.0153945 0)
(0.508454 -0.0108849 0)
(0.51172 -0.00771575 0)
(0.514061 -0.00548254 0)
(0.515743 -0.0039039 0)
(0.516952 -0.00278409 0)
(0.517822 -0.00198741 0)
(0.518449 -0.00141978 0)
(0.518899 -0.00101527 0)
(0.519222 -0.000726848 0)
(0.519453 -0.000520748 0)
(0.51962 -0.000372989 0)
(0.519741 -0.000266845 0)
(0.519828 -0.000190706 0)
(0.51989 -0.000136343 0)
(0.519935 -9.77001e-05 0)
(0.519966 -7.02248e-05 0)
(0.519988 -5.05578e-05 0)
(0.520005 -3.63302e-05 0)
(0.520017 -2.59457e-05 0)
(0.520026 -1.83722e-05 0)
(0.520032 -1.29334e-05 0)
(0.520037 -9.1264e-06 0)
(0.52004 -6.51185e-06 0)
(0.520042 -4.73645e-06 0)
(0.520042 -3.48152e-06 0)
(0.520046 -2.61838e-06 0)
(0.520042 -1.9122e-06 0)
(0.520051 -1.45576e-06 0)
(0.52004 -1.12013e-06 0)
(0.520052 -7.76548e-07 0)
(0.520049 -8.26974e-07 0)
(0.520048 -9.12032e-07 0)
(0.0039767 0.370861 0)
(0.02144 -0.154166 0)
(0.148174 -0.312846 0)
(0.223676 -0.348606 0)
(0.315587 -0.309266 0)
(0.390199 -0.236013 0)
(0.437957 -0.168096 0)
(0.466461 -0.117051 0)
(0.48361 -0.0812856 0)
(0.494444 -0.0566653 0)
(0.501693 -0.039717 0)
(0.506771 -0.027983 0)
(0.510427 -0.019801 0)
(0.513091 -0.0140589 0)
(0.515038 -0.0100084 0)
(0.51646 -0.00713999 0)
(0.517497 -0.00510197 0)
(0.518252 -0.00364968 0)
(0.518802 -0.00261247 0)
(0.5192 -0.0018709 0)
(0.519488 -0.00134058 0)
(0.519695 -0.000961227 0)
(0.519845 -0.000689528 0)
(0.519953 -0.000494547 0)
(0.520032 -0.000354423 0)
(0.520089 -0.000253775 0)
(0.520129 -0.000181672 0)
(0.520158 -0.000130199 0)
(0.520178 -9.35166e-05 0)
(0.520193 -6.73028e-05 0)
(0.520204 -4.84181e-05 0)
(0.520212 -3.46789e-05 0)
(0.520218 -2.46553e-05 0)
(0.520222 -1.73982e-05 0)
(0.520225 -1.22517e-05 0)
(0.520227 -8.68974e-06 0)
(0.520228 -6.27772e-06 0)
(0.520228 -4.6283e-06 0)
(0.520231 -3.51193e-06 0)
(0.520227 -2.65781e-06 0)
(0.520236 -2.06453e-06 0)
(0.520225 -1.60321e-06 0)
(0.520237 -1.17424e-06 0)
(0.520234 -1.13185e-06 0)
(0.520232 -1.21169e-06 0)
(0.380336 -0.0908072 0)
(0.323362 -0.293902 0)
(0.52118 -0.431271 0)
(0.53799 -0.450475 0)
(0.523619 -0.389167 0)
(0.523495 -0.292661 0)
(0.522441 -0.202119 0)
(0.520002 -0.135362 0)
(0.518208 -0.0910084 0)
(0.517388 -0.062248 0)
(0.517251 -0.0433168 0)
(0.5175 -0.030522 0)
(0.517918 -0.0216753 0)
(0.518366 -0.015464 0)
(0.518775 -0.0110625 0)
(0.519117 -0.00792625 0)
(0.519393 -0.00568428 0)
(0.519609 -0.00407847 0)
(0.519775 -0.00292713 0)
(0.519899 -0.00210124 0)
(0.51999 -0.00150859 0)
(0.520056 -0.00108311 0)
(0.520105 -0.000777454 0)
(0.520141 -0.000557816 0)
(0.520169 -0.000400071 0)
(0.520189 -0.000286923 0)
(0.520202 -0.00020587 0)
(0.520212 -0.000147815 0)
(0.520218 -0.000106165 0)
(0.520223 -7.62036e-05 0)
(0.520227 -5.45955e-05 0)
(0.52023 -3.90066e-05 0)
(0.520232 -2.77971e-05 0)
(0.520234 -1.98053e-05 0)
(0.520235 -1.41404e-05 0)
(0.520235 -1.01383e-05 0)
(0.520236 -7.31607e-06 0)
(0.520235 -5.31804e-06 0)
(0.520237 -3.9096e-06 0)
(0.520233 -2.88208e-06 0)
(0.520242 -2.18124e-06 0)
(0.520231 -1.72849e-06 0)
(0.520243 -1.31976e-06 0)
(0.520239 -1.41525e-06 0)
(0.520237 -1.46793e-06 0)
)
;

boundaryField
{
    inlet
    {
        type            fixedValue;
        value           uniform (1 0 0);
    }
    outlet
    {
        type            zeroGradient;
    }
    upperWall
    {
        type            noSlip;
    }
    lowerWall
    {
        type            noSlip;
    }
    frontAndBack
    {
        type            empty;
    }
}


// ************************************************************************* //
