/*--------------------------------*- C++ -*----------------------------------*\
  =========                 |
  \\      /  F ield         | OpenFOAM: The Open Source CFD Toolbox
   \\    /   O peration     | Website:  https://openfoam.org
    \\  /    A nd           | Version:  10
     \\/     M anipulation  |
\*---------------------------------------------------------------------------*/
FoamFile
{
    format      ascii;
    class       volVectorField;
    location    "3.55";
    object      U;
}
// * * * * * * * * * * * * * * * * * * * * * * * * * * * * * * * * * * * * * //

dimensions      [0 1 -1 0 0 0 0];

internalField   nonuniform List<vector> 
496
(
(9.97175 0.0790824 0)
(9.90562 -0.180537 0)
(10.1964 -0.110748 0)
(10.6949 -0.222692 0)
(10.1114 0.526152 0)
(9.72827 -1.1904 0)
(10.2422 -0.316894 0)
(10.6769 -1.03912 0)
(10.8847 1.31955 0)
(9.02479 -2.71342 0)
(11.0496 -0.195453 0)
(10.6311 -3.67134 0)
(12.086 1.63826 0)
(8.12868 -2.45454 0)
(12.697 0.759827 0)
(10.1003 -5.87871 0)
(11.3934 -0.23854 4.06248e-18)
(12.0738 -0.198139 -1.39004e-18)
(11.5457 -0.55451 1.3801e-18)
(12.3583 0.0285673 5.48731e-19)
(12.5417 -2.20141 -5.44769e-18)
(13.0806 -0.563579 8.42666e-19)
(12.8429 -5.46117 -2.36716e-17)
(15.1382 -3.84024 4.79616e-17)
(12.7571 -0.227351 0)
(13.0577 -0.199013 0)
(13.4022 -0.166623 0)
(13.3117 0.035215 0)
(13.0545 -0.0365351 0)
(13.4422 -0.228925 0)
(13.9228 -0.257524 0)
(13.9836 -0.267357 0)
(12.6348 0.083942 0)
(13.0109 0.0656156 0)
(13.4725 0.786317 0)
(13.4777 0.779387 0)
(10.7148 -4.06386 0)
(8.02166 -0.77472 0)
(11.6706 -0.148525 0)
(8.97909 -0.887715 0)
(13.2707 0.114211 0)
(13.0337 0.234031 0)
(13.137 0.245997 0)
(13.2035 0.395418 0)
(13.3938 0.46608 0)
(13.3558 0.484266 0)
(13.2679 0.47103 0)
(13.1226 0.440751 0)
(12.9882 0.451287 0)
(12.8761 0.40631 0)
(12.7331 0.428557 0)
(12.6382 0.375921 0)
(12.5259 0.405775 0)
(12.4508 0.365529 0)
(12.3669 0.381216 0)
(12.2342 0.35428 0)
(12.1466 0.354418 0)
(11.9478 0.344729 0)
(11.8939 0.322849 0)
(11.6477 0.325046 0)
(11.668 0.292108 0)
(11.4479 0.298405 0)
(11.5253 0.237321 0)
(11.3371 0.235177 0)
(11.4143 0.188891 0)
(11.3357 0.225175 0)
(11.3346 0.219184 0)
(11.2789 0.252592 0)
(11.0315 0.265105 0)
(10.9035 0.256344 0)
(10.4538 0.313827 0)
(10.3086 0.273235 0)
(9.9903 0.304261 0)
(9.88118 0.202982 0)
(9.93752 0.137249 0)
(9.79005 0.0876075 0)
(10.1702 0.00123062 0)
(10.0514 0.044897 0)
(10.453 0.0126218 0)
(10.4193 0.0843043 0)
(13.8521 -0.532012 0)
(13.6566 -0.690576 0)
(13.7465 -0.668236 0)
(13.9579 -0.477694 0)
(13.9783 -0.370347 0)
(13.9681 -0.349705 0)
(13.8252 -0.32565 0)
(13.7989 -0.296813 0)
(13.6669 -0.245334 0)
(13.6363 -0.244576 0)
(13.5339 -0.213842 0)
(13.4864 -0.218883 0)
(13.4564 -0.168339 0)
(13.3822 -0.167206 0)
(13.3973 -0.120232 0)
(13.2598 -0.129925 0)
(13.2764 -0.0733073 0)
(13.0837 -0.0724466 0)
(13.1033 -0.0503673 0)
(12.9099 -0.0458775 0)
(12.9431 -0.0965128 0)
(12.7985 -0.0510324 0)
(12.8199 -0.18684 0)
(12.7654 -0.0867956 0)
(12.7984 -0.227334 0)
(12.8761 -0.0718128 0)
(12.8469 -0.0777452 0)
(12.9164 0.0798423 0)
(12.7036 0.21318 0)
(12.6531 0.201405 0)
(12.3686 0.295462 0)
(12.156 0.0646359 0)
(11.9836 0.105182 0)
(11.6981 -0.137476 0)
(11.808 -0.10728 0)
(11.6384 -0.264819 0)
(11.9051 -0.313465 0)
(11.9385 -0.241471 0)
(12.1715 -0.30894 0)
(12.3697 -0.0422556 0)
(13.0349 0.479386 0)
(13.1725 0.349319 0)
(13.4529 0.388779 0)
(13.7791 0.590833 0)
(13.6097 0.4219 0)
(13.5462 0.547864 0)
(13.5821 0.538336 0)
(13.4545 0.617375 0)
(13.5502 0.647014 0)
(13.2991 0.540243 0)
(13.4881 0.597029 0)
(13.2488 0.427288 0)
(13.5116 0.557915 0)
(13.2574 0.348782 0)
(13.4707 0.489114 0)
(13.2909 0.3253 0)
(13.3807 0.45011 0)
(13.317 0.413278 0)
(13.1966 0.440666 0)
(13.2955 0.511821 0)
(13.0157 0.350017 0)
(13.2394 0.453192 0)
(12.8926 0.10166 0)
(13.1294 0.243669 0)
(12.9033 -0.0720016 0)
(13.0873 0.111065 0)
(13.1825 0.0904807 0)
(13.2139 0.236519 0)
(13.4963 0.599845 0)
(13.2204 0.572122 0)
(13.3997 1.08618 0)
(12.9 0.770942 0)
(13.0564 0.941222 0)
(12.73 0.437695 0)
(12.7411 0.108095 0)
(12.5584 -0.156949 0)
(12.3229 -0.549162 0)
(12.466 -0.289344 0)
(12.2078 -0.544446 0)
(12.5265 -0.166028 0)
(8.7555 -0.643687 0)
(8.5866 -0.848308 0)
(8.98605 -0.255675 0)
(9.79512 -1.02101 0)
(7.68075 -0.688884 0)
(9.60696 -0.463289 0)
(8.13354 -0.459082 0)
(9.38676 -0.185816 0)
(8.29624 -0.190343 0)
(8.91061 -0.0247873 0)
(8.70129 0.0025212 0)
(8.96724 0.0365166 0)
(9.24321 -0.00438919 0)
(8.88517 -0.0275945 0)
(9.5863 -0.0330782 0)
(8.98679 -0.0622134 0)
(9.8417 -0.0178433 0)
(9.25182 -0.00834213 0)
(9.84088 0.0862884 0)
(9.61133 0.120518 0)
(9.50056 0.121707 0)
(9.55239 0.149773 0)
(8.93219 0.0704322 0)
(9.41637 0.0736686 0)
(8.51063 -0.0875916 0)
(9.44671 -0.0930629 0)
(8.92251 -0.220198 0)
(9.81555 -0.196394 0)
(10.0383 -0.0560403 0)
(10.4336 0.0325635 0)
(11.1874 0.242226 0)
(10.7062 0.247877 0)
(11.289 0.356162 0)
(10.1832 0.331823 0)
(9.89607 0.340214 0)
(9.00711 0.351785 0)
(8.26272 0.22338 0)
(8.43348 0.151064 0)
(7.67718 -0.233919 0)
(8.54895 -0.251584 0)
(12.0001 0.607822 -1.07943e-17)
(8.27253 -0.695722 -1.82204e-17)
(11.1367 0.317573 3.18661e-17)
(5.15951 -4.47081 -8.63146e-17)
(11.9804 -0.607284 1.04256e-17)
(8.07635 1.10135 1.75967e-17)
(11.5848 0.189679 -3.0775e-17)
(4.67062 5.28353 8.15487e-17)
(-9.83089 -0.382892 0)
(9.12682 -0.382374 0)
(1.10703 5.2348 0)
(0.782067 -1.00807 0)
(15.4065 -6.55056 4.07953e-17)
(-15.2883 -4.39627 0)
(6.96676 3.83879 0)
(-3.13026 -2.31371 0)
(2.14365 0.732821 0)
(1.76278 0.207098 0)
(3.31414 1.6116 0)
(-0.125753 0.157811 0)
(-0.401921 0.168478 0)
(1.87566 1.85781 0)
(-1.2377 0.402481 0)
(0.398974 0.891043 0)
(-0.598803 -0.0417657 0)
(0.746665 0.195454 0)
(0.973416 0.318719 0)
(0.902365 0.24514 0)
(1.10683 0.169958 0)
(1.29784 0.0816567 0)
(1.25686 0.119088 0)
(1.76852 0.205817 0)
(1.50928 0.135096 0)
(1.75134 0.208525 0)
(2.2425 0.529296 0)
(2.02707 0.504843 0)
(1.94505 0.331013 0)
(2.40983 0.593008 0)
(2.41671 0.379459 0)
(2.47517 0.165003 0)
(2.577 -0.0738216 0)
(3.31882 -0.298967 0)
(3.0492 -0.343754 0)
(3.84912 -0.429287 0)
(4.1339 -0.171683 0)
(4.32507 0.173924 0)
(4.63632 0.411948 0)
(4.60971 0.737192 0)
(4.66987 1.0677 0)
(4.53523 1.0812 0)
(4.27538 0.899048 0)
(4.37569 0.633856 0)
(4.5728 0.100342 0)
(4.32168 -0.201606 0)
(4.62923 -0.903311 0)
(5.03 -0.738651 0)
(1.23821 -0.048371 0)
(-1.46304 -0.916045 0)
(-1.82423 1.4683 0)
(1.95199 0.135245 0)
(-2.60801 -1.11456 0)
(2.28329 0.139867 0)
(-1.85154 0.259476 0)
(2.46549 -0.735649 0)
(0.906783 -0.637376 0)
(0.959638 -0.647695 0)
(1.08901 -0.301019 0)
(1.2872 -0.232687 0)
(1.6548 -0.295044 0)
(1.68339 -0.305168 0)
(1.74177 -0.283498 0)
(2.05398 -0.334251 0)
(2.08506 -0.22196 0)
(1.97205 -0.226038 0)
(2.34918 -0.226275 0)
(2.77704 -0.0478641 0)
(2.47938 0.0329658 0)
(3.0069 -0.0346278 0)
(3.52672 -0.260914 0)
(3.06725 -0.227353 0)
(3.82471 -0.600696 0)
(3.50586 -0.80922 0)
(3.44742 -0.80544 0)
(3.87531 -0.951645 0)
(3.17851 -0.60389 0)
(4.11261 -0.377515 0)
(3.68927 0.16882 0)
(4.08206 0.547892 0)
(4.72504 0.717111 0)
(4.80673 0.811325 0)
(5.28893 0.82183 0)
(5.90409 0.46521 0)
(5.91691 0.118753 0)
(6.19539 -0.0716012 0)
(6.33987 -0.681055 0)
(5.77854 -0.644819 0)
(12.6023 -1.48221 0)
(7.85861 2.6478 0)
(13.2984 -0.555255 0)
(10.6106 6.68697 0)
(10.8266 -1.50182 0)
(9.08061 3.20421 0)
(11.248 0.0974548 0)
(10.8765 4.27655 0)
(10.0725 -0.505267 0)
(9.82296 1.32352 0)
(10.263 0.465992 0)
(10.9299 1.11375 0)
(9.99022 -0.0581458 0)
(9.94544 0.139964 0)
(10.2001 0.168535 0)
(10.8295 0.173364 0)
(13.2724 5.84413 5.01813e-17)
(16.8799 4.16415 -8.0034e-17)
(13.2283 2.05044 0)
(13.3142 0.0174336 0)
(11.7365 0.523763 0)
(12.663 -0.316773 0)
(11.5171 0.232864 0)
(12.27 0.146008 0)
(10.4566 2.8674 0)
(12.95 2.3104 0)
(8.48098 -0.228711 0)
(10.2658 0.994789 0)
(12.5836 -1.51077 0)
(12.1938 -2.49134 0)
(12.6114 -1.55462 0)
(12.2934 -0.588922 0)
(13.1248 -0.272864 0)
(13.467 0.227098 0)
(13.53 0.617705 0)
(13.2348 0.917489 0)
(12.6834 0.119293 0)
(12.8519 0.0734805 0)
(12.7924 -0.171708 0)
(12.7225 -0.189539 0)
(9.97568 0.85252 0)
(10.5314 1.15553 0)
(10.3826 0.971067 0)
(9.63121 0.903727 0)
(10.7185 0.69279 0)
(10.26 0.370895 0)
(10.2562 0.368491 0)
(10.1036 0.00400492 0)
(10.5141 -0.0737094 0)
(10.5521 -0.053953 0)
(10.3002 -0.0367175 0)
(10.6645 -0.0432199 0)
(10.0449 -0.0322408 0)
(10.8066 -0.0589666 0)
(9.91006 -0.00122359 0)
(10.7097 -0.0429038 0)
(9.84864 0.0218476 0)
(10.4545 0.0122413 0)
(9.88806 0.0836275 0)
(10.2544 0.0600252 0)
(10.2341 0.111579 0)
(10.1949 0.109251 0)
(10.8429 0.0170047 0)
(10.5257 -0.00154229 0)
(11.2297 -0.154439 0)
(10.8275 -0.203759 0)
(10.9653 -0.247398 0)
(10.4783 -0.270781 0)
(9.88925 -0.172988 0)
(9.81878 -0.18245 0)
(8.97602 0.0466193 0)
(9.35117 0.195095 0)
(8.93866 0.347745 0)
(9.64991 0.362089 0)
(9.96182 0.248901 0)
(10.3447 0.140933 0)
(11.3362 -0.212914 0)
(11.2872 -0.268528 0)
(12.2668 -0.481227 0)
(12.1964 -0.349914 0)
(12.8726 -0.403154 0)
(12.8453 -0.209893 0)
(13.402 -0.426696 0)
(13.2093 -0.280838 0)
(13.5082 -0.531235 0)
(13.2732 -0.545632 0)
(13.2655 -0.607848 0)
(13.1332 -0.609519 0)
(13.0809 -0.586567 0)
(13.1295 -0.655812 0)
(12.8938 -0.505639 0)
(13.0311 -0.601082 0)
(12.752 -0.37272 0)
(12.9642 -0.507232 0)
(12.6969 -0.269835 0)
(12.8686 -0.395895 0)
(12.7012 -0.210623 0)
(12.7874 -0.289643 0)
(12.7631 -0.214375 0)
(12.7199 -0.201058 0)
(12.9072 -0.327406 0)
(12.7538 -0.223729 0)
(13.0127 -0.562396 0)
(12.6853 -0.454149 0)
(12.8006 -0.812084 0)
(12.4231 -0.664624 0)
(12.4278 -0.699379 0)
(12.2786 -0.487277 0)
(12.114 -0.0831572 0)
(12.1908 -0.0373269 0)
(11.9521 0.409765 0)
(12.2817 0.139903 0)
(12.1822 0.349332 0)
(12.5948 -0.014543 0)
(12.7089 -0.21178 0)
(12.9172 -0.397271 0)
(12.9735 -0.929612 0)
(12.7461 -0.805394 0)
(12.6215 -1.34011 0)
(12.1454 -0.835665 0)
(13.2482 0.98447 0)
(13.3304 0.938257 0)
(13.6589 0.728319 0)
(13.7574 0.620266 0)
(13.9093 0.437635 0)
(13.7535 0.393791 0)
(13.7488 0.331499 0)
(13.5358 0.333812 0)
(13.5411 0.28416 0)
(13.3696 0.227632 0)
(13.3736 0.218301 0)
(13.2362 0.16225 0)
(13.2333 0.213616 0)
(13.1594 0.142248 0)
(13.122 0.225605 0)
(13.074 0.156297 0)
(13.008 0.226406 0)
(13.0255 0.148598 0)
(12.962 0.160162 0)
(13.0102 0.122443 0)
(12.9605 0.0718986 0)
(12.9563 0.0761839 0)
(12.874 -0.0438253 0)
(12.7391 0.00421681 0)
(12.6493 -0.0941276 0)
(12.4238 0.040394 0)
(12.348 0.0323513 0)
(12.1361 0.139661 0)
(12.139 0.212923 0)
(12.14 0.212762 0)
(12.213 0.365435 0)
(12.4005 0.206725 0)
(12.4449 0.262887 0)
(12.7045 0.00601584 0)
(12.5634 -0.0901327 0)
(12.6621 -0.24505 0)
(12.35 -0.319029 0)
(12.2326 -0.206143 0)
(11.994 -0.159814 0)
(11.5843 0.0890233 0)
(12.696 -0.275025 0)
(12.8414 -0.239979 0)
(13.0286 -0.350063 0)
(13.1961 -0.393832 0)
(13.3266 -0.485642 0)
(13.264 -0.489671 0)
(13.2139 -0.477694 0)
(12.9575 -0.47587 0)
(12.9252 -0.455555 0)
(12.6797 -0.48309 0)
(12.7207 -0.446466 0)
(12.4707 -0.469938 0)
(12.5347 -0.413365 0)
(12.309 -0.438576 0)
(12.3656 -0.37365 0)
(12.154 -0.386799 0)
(12.1496 -0.32252 0)
(12.0072 -0.340353 0)
(11.9663 -0.31435 0)
(11.92 -0.324455 0)
(11.8256 -0.339642 0)
(11.8155 -0.322392 0)
(11.6006 -0.359631 0)
(11.4975 -0.318346 0)
(11.2248 -0.379622 0)
(11.0574 -0.337471 0)
(10.9096 -0.359608 0)
(10.7315 -0.294688 0)
(10.809 -0.222224 0)
(10.6822 -0.193354 0)
(10.9276 -0.1093 0)
(10.8728 -0.159981 0)
(11.0476 -0.128028 0)
(11.0367 -0.226973 0)
(10.9035 -0.259655 0)
(10.82 -0.314544 0)
(10.3 -0.400061 0)
(10.1213 -0.376582 0)
(9.63358 -0.476085 0)
(9.42202 -0.327058 0)
)
;

boundaryField
{
    inlet
    {
        type            fixedValue;
        value           uniform (10 0 0);
    }
    outlet
    {
        type            zeroGradient;
    }
    obstacle
    {
        type            noSlip;
    }
    upperWall
    {
        type            noSlip;
    }
    lowerWall
    {
        type            noSlip;
    }
    frontAndBack
    {
        type            empty;
    }
}


// ************************************************************************* //
