/*--------------------------------*- C++ -*----------------------------------*\
  =========                 |
  \\      /  F ield         | OpenFOAM: The Open Source CFD Toolbox
   \\    /   O peration     | Website:  https://openfoam.org
    \\  /    A nd           | Version:  10
     \\/     M anipulation  |
\*---------------------------------------------------------------------------*/
FoamFile
{
    format      ascii;
    class       surfaceScalarField;
    location    "8.2";
    object      phi;
}
// * * * * * * * * * * * * * * * * * * * * * * * * * * * * * * * * * * * * * //

dimensions      [0 3 -1 0 0 0 0];

internalField   nonuniform List<scalar> 
890
(
0.00984607
0.000153931
0.00971778
0.000128284
0.00946838
0.000249405
0.00941779
5.05941e-05
0.000147957
0.00926983
0.0101199
3.40704e-05
0.0102014
4.67029e-05
0.0104076
4.32273e-05
0.0104654
-7.19109e-06
-6.87106e-05
0.0106821
0.0100716
-3.75244e-05
0.0102153
-9.69939e-05
0.0103783
-0.000119752
0.0105211
-0.000150062
-0.000190618
0.010643
0.0100896
-0.000127144
0.010214
-0.000221363
0.01033
-0.000235763
0.0104187
-0.000238744
-0.000251108
0.0104792
0.00987286
0.00965149
0.00941573
0.00917699
0.00892588
0.00927033
-0.000102907
0.000102407
0.00929441
-0.000265904
0.000241824
0.00936768
-0.000387556
0.00031428
0.00947718
-0.000490912
0.000381421
0.00961424
-0.000597089
0.00046002
0.00978136
-0.000734618
0.000567506
0.00996391
-0.00089139
0.000708841
0.0101548
-0.00108016
0.000889247
0.0103441
-0.00129433
0.00110501
0.0105151
-0.00153163
0.00136062
0.010656
-0.00176999
0.00162909
0.0107558
-0.00199893
0.00189915
0.0108022
-0.00218998
0.00214356
0.0107899
-0.00232327
0.00233565
0.0106977
-0.00236974
0.00246193
0.0105141
-0.00232243
0.00250597
0.0102729
-0.00223454
0.00247574
0.0100153
-0.00213835
0.00239594
0.00974188
-0.00197976
0.00225321
0.00945587
-0.00176805
0.00205406
0.00917009
-0.00152272
0.0018085
0.0088933
-0.00124632
0.0015231
0.00863997
-0.000959718
0.00121305
0.00842464
-0.000681386
0.000896714
0.00825417
-0.000415831
0.000586305
0.00812737
-0.00016635
0.000293149
0.00803452
6.29172e-05
2.9937e-05
0.00798362
0.000265586
-0.000214692
0.0079633
0.000437834
-0.000417515
0.00796268
0.000579651
-0.000579028
0.00797244
0.000686482
-0.000696238
0.00798431
0.000757716
-0.000769591
0.00799469
0.000790155
-0.000800528
0.00799834
0.000794688
-0.000798343
0.0079929
0.000762287
-0.000756848
0.00797234
0.000723956
-0.000703392
0.00793757
0.000656374
-0.000621612
0.00788172
0.000615626
-0.000559768
0.00781545
0.000534607
-0.000468336
0.00773205
0.000496872
-0.000413474
0.00764786
0.000404235
-0.000320042
0.00754671
0.000375987
-0.000274847
0.00744957
0.000322823
-0.000225673
0.00734222
0.000321749
-0.000214401
0.000338233
-0.000241941
0.010747
-0.000167844
0.010771
-0.000289854
0.0107929
-0.000409524
0.010823
-0.000520998
0.0108571
-0.000631201
0.0108762
-0.00075369
0.0108815
-0.000896644
0.0108652
-0.00106387
0.0108262
-0.00125535
0.0107534
-0.00145879
0.0106401
-0.00165669
0.0104755
-0.00183434
0.0102632
-0.00197769
0.00999014
-0.00205023
0.00962617
-0.00200577
0.00918629
-0.00188255
0.00871212
-0.00176038
0.00822009
-0.00164631
0.00773358
-0.00149325
0.00725996
-0.00129444
0.00682239
-0.00108515
0.00642047
-0.000844399
0.00607422
-0.000613462
0.00579459
-0.000401753
0.00558566
-0.000206906
0.00543974
-2.04257e-05
0.00536652
0.000136134
0.00535525
0.000276859
0.00539493
0.000398157
0.00547335
0.000501231
0.00557702
0.000582805
0.00569434
0.000640399
0.005813
0.000671497
0.00592476
0.000682923
0.00601639
0.000670659
0.00608839
0.000651957
0.00613421
0.000610554
0.00616749
0.000582346
0.00618532
0.000516776
0.00619843
0.000483763
0.00620278
0.000399889
0.0061944
0.000384364
0.00619132
0.000325904
0.00617603
0.000337038
0.000331073
0.0107278
-0.000252549
0.0107723
-0.000334376
0.0107865
-0.000423711
0.0107807
-0.000515245
0.0107536
-0.000604047
0.0107019
-0.000702021
0.0106203
-0.000815007
0.0105052
-0.000948805
0.0103491
-0.00109927
0.0101554
-0.00126509
0.00993295
-0.00143424
0.00967295
-0.00157434
0.00934685
-0.00165159
0.0088717
-0.00157508
0.00827063
-0.0014047
0.00765451
-0.00126643
0.00700569
-0.00111156
0.00626563
-0.000906251
0.00550799
-0.000735603
0.00481503
-0.000601476
0.00418307
-0.000453201
0.00365686
-0.000318185
0.00323997
-0.000196568
0.00292882
-9.06042e-05
0.00271827
3.6407e-06
0.002601
9.68429e-05
0.00256083
0.000176304
0.00258897
0.000248717
0.0026742
0.00031293
0.0028056
0.000369831
0.00297126
0.000417142
0.00315945
0.000452209
0.00335776
0.000473187
0.00355867
0.000482015
0.00375223
0.000477106
0.00393981
0.000464372
0.00411329
0.000437071
0.00428582
0.000409813
0.00443865
0.000363946
0.00458992
0.000332494
0.00471213
0.000277682
0.00483279
0.000263705
0.00493934
0.00021935
0.00504785
0.000228532
0.000205169
0.010509
-0.000282397
0.0104944
-0.000319801
0.0104356
-0.000364829
0.010329
-0.000408717
0.01018
-0.000455008
0.00998351
-0.000505534
0.00972976
-0.000561256
0.00941564
-0.000634686
0.00902415
-0.000707776
0.00856981
-0.000810751
0.00802674
-0.000891167
0.0074675
-0.00101511
0.00685426
-0.00103836
0.00605738
-0.000778202
0.00507044
-0.000417756
0.00390899
-0.000104969
0.00273261
6.48116e-05
0.00171753
0.000108829
0.000984927
-2.99861e-06
0.000512607
-0.000129157
0.000254982
-0.000195575
0.000114216
-0.000177419
4.33189e-05
-0.00012567
2.22308e-05
-6.9516e-05
4.18096e-05
-1.59381e-05
0.000109371
2.92819e-05
0.000218814
6.68607e-05
0.000367454
0.000100077
0.000550666
0.000129718
0.000764531
0.000155966
0.00100383
0.000177839
0.00126203
0.000194013
0.00153205
0.000203166
0.00180693
0.000207135
0.00207969
0.000204351
0.00234728
0.000196776
0.00260131
0.000183039
0.00284397
0.000167152
0.00306219
0.000145732
0.00326741
0.000127271
0.00344038
0.000104715
0.00361114
9.29438e-05
0.00375463
7.58652e-05
0.00390735
7.58109e-05
6.38617e-05
0.00864348
0.00832368
0.00795885
0.00755013
0.00709513
0.00658959
0.00602834
0.00539365
0.00468587
0.00387512
0.00298396
0.00196885
0.000930495
0.000152294
-0.000265462
-0.000370431
-0.00030562
-0.000196791
-0.00019979
-0.000328946
-0.000524521
-0.00070194
-0.000827611
-0.000897127
-0.000913065
-0.000883783
-0.000816922
-0.000716845
-0.000587128
-0.000431161
-0.000253322
-5.93095e-05
0.000143856
0.000350991
0.000555342
0.000752118
0.000935157
0.00110231
0.00124804
0.00137531
0.00148003
0.00157297
0.00164884
0.00172465
3.69537e-05
-3.69537e-05
-1.17517e-06
3.81288e-05
-0.000145394
0.000144219
-0.000445267
0.000299874
-0.000875555
0.000430288
-0.00135766
0.000482107
-0.00183101
0.000473344
-0.00225223
0.000421225
-0.00259309
0.000340863
-0.00282654
0.000233449
-0.00293819
0.000111643
-0.00291558
-2.26014e-05
-0.00276624
-0.000149347
-0.00249376
-0.000272473
-0.00211052
-0.000383246
-0.00163903
-0.000471493
-0.00111151
-0.000527514
-0.000552966
-0.000558546
1.53285e-05
-0.000568294
0.000568635
-0.000553307
0.001082
-0.000513367
0.00153344
-0.000451437
0.00190573
-0.000372291
0.0021884
-0.000282672
0.00237791
-0.000189504
0.00247418
-9.62727e-05
0.00248293
-8.75502e-06
0.00242571
5.72245e-05
0.00231537
0.00011034
0.00216736
0.000148012
0.0019968
0.000170555
0.00181615
0.000180651
0.00163523
0.000180923
0.00146621
0.000169014
0.00132768
0.000138538
0.00123068
9.6996e-05
0.00117297
5.77126e-05
0.00114872
2.42485e-05
0.00114899
-2.68434e-07
0.00116811
-1.91259e-05
0.00119899
-3.0877e-05
0.00123898
-3.99904e-05
0.00127691
-3.79272e-05
0.00131449
-3.75876e-05
-3.35811e-05
-0.000109309
7.23553e-05
-0.000439846
0.000368666
-0.000833909
0.000538282
-0.0012015
0.000667461
-0.00150628
0.000735069
-0.00174642
0.000722252
-0.00192037
0.000647291
-0.00202205
0.000522909
-0.00204277
0.000361574
-0.00196803
0.00015871
-0.00179262
-6.37678e-05
-0.00152061
-0.000294608
-0.0011392
-0.000530752
-0.000661102
-0.000750576
-9.92531e-05
-0.000945094
0.000516041
-0.00108679
0.0011686
-0.00118008
0.00183444
-0.00122438
0.00249004
-0.00122389
0.00311438
-0.00117765
0.00368901
-0.00108799
0.00419678
-0.000959204
0.00462456
-0.000800072
0.00496454
-0.000622654
0.00521392
-0.000438883
0.00537467
-0.000257023
0.00545491
-8.8998e-05
0.00545726
5.48727e-05
0.00539204
0.000175569
0.00527145
0.000268598
0.00511486
0.000327141
0.00493921
0.000356302
0.0047555
0.000364632
0.00457896
0.000345558
0.00441714
0.000300355
0.00427761
0.000236529
0.00415859
0.000176731
0.00406306
0.000119778
0.00398701
7.57836e-05
0.00393766
3.02263e-05
0.00390781
-1.02993e-06
0.00388504
-1.72195e-05
0.00386998
-2.2871e-05
0.00384631
-1.39151e-05
-2.36434e-05
-0.000517012
0.000589367
-0.000705591
0.000557245
-0.00075624
0.000588931
-0.000714817
0.000626038
-0.000603381
0.000623633
-0.00044615
0.000565022
-0.000248234
0.000449376
-1.22956e-05
0.00028697
0.000275581
7.3698e-05
0.000624022
-0.000189732
0.0010371
-0.000476847
0.00151554
-0.000773042
0.00204544
-0.00106066
0.00261982
-0.00132495
0.00322301
-0.00154829
0.00384187
-0.00170565
0.0044566
-0.0017948
0.00505101
-0.0018188
0.00561085
-0.00178373
0.00612518
-0.00169198
0.00658183
-0.00154464
0.00697093
-0.0013483
0.00728571
-0.00111485
0.00752537
-0.000862312
0.00769089
-0.000604407
0.00778688
-0.000353012
0.00782032
-0.000122439
0.00779371
8.14846e-05
0.00771348
0.000255804
0.00759311
0.000388967
0.00744169
0.000478558
0.00727192
0.000526077
0.0070925
0.000544043
0.00691165
0.000526412
0.00673356
0.000478444
0.00656339
0.000406701
0.00640504
0.000335084
0.00626222
0.000262594
0.00614585
0.000192153
0.00605171
0.000124367
0.00599115
5.95321e-05
0.00594052
3.34142e-05
0.00590606
1.15878e-05
0.00585593
3.62086e-05
4.59942e-05
-0.000253401
0.000842768
-0.000171704
0.000475548
5.08866e-05
0.00036634
0.000390866
0.000286059
0.000817159
0.00019734
0.0012989
8.32779e-05
0.00181328
-6.50063e-05
0.00234679
-0.000246531
0.00290054
-0.000480055
0.00347005
-0.000759241
0.00405166
-0.00105846
0.00464441
-0.00136578
0.0052432
-0.00165945
0.00583152
-0.00191327
0.00639595
-0.00211272
0.0069278
-0.0022375
0.00741383
-0.00228083
0.00784971
-0.00225469
0.00823306
-0.00216708
0.00856015
-0.00201907
0.00882979
-0.00181428
0.00904119
-0.00155971
0.00919547
-0.00126913
0.00929751
-0.000964353
0.00935183
-0.00065872
0.00936541
-0.000366601
0.00934461
-0.000101639
0.00928547
0.000140629
0.009196
0.00034527
0.00908272
0.000502249
0.00894756
0.000613716
0.00879434
0.000679305
0.00863244
0.000705942
0.00846439
0.000694458
0.00829527
0.000647563
0.00812291
0.000579066
0.00796291
0.000495076
0.00780569
0.000419814
0.00766362
0.000334226
0.0075172
0.000270784
0.00739119
0.000185542
0.00727971
0.000144898
0.00718956
0.00010174
0.00711984
0.000105925
0.000133287
0.000945175
0.00166255
0.00234317
0.00301065
0.00366801
0.00431879
0.00496263
0.00560534
0.00623029
0.00683167
0.0074023
0.00793567
0.00841977
0.00884216
0.00919137
0.00945985
0.00965476
0.00979601
0.00988214
0.00991713
0.00991135
0.00987475
0.00981866
0.00975103
0.00967861
0.00960516
0.00953346
0.00945939
0.00938715
0.00931037
0.00922785
0.00913756
0.00904297
0.00893909
0.00882981
0.00870548
0.00857894
0.00843899
0.00830488
0.00816219
0.00802769
0.00789774
0.00777381
0.00766533
)
;

boundaryField
{
    inlet
    {
        type            calculated;
        value           nonuniform List<scalar> 5(-0.01 -0.01 -0.01 -0.01 -0.01);
    }
    outlet
    {
        type            calculated;
        value           nonuniform List<scalar> 10(0.00724592 0.00618319 0.00517375 0.00404865 0.00178851 0.00134808 0.00383637 0.00578629 0.00703255 0.00755668);
    }
    upperWall
    {
        type            calculated;
        value           uniform 0;
    }
    lowerWall
    {
        type            calculated;
        value           uniform 0;
    }
    frontAndBack
    {
        type            empty;
        value           nonuniform List<scalar> 0();
    }
}


// ************************************************************************* //
