/*--------------------------------*- C++ -*----------------------------------*\
  =========                 |
  \\      /  F ield         | OpenFOAM: The Open Source CFD Toolbox
   \\    /   O peration     | Website:  https://openfoam.org
    \\  /    A nd           | Version:  10
     \\/     M anipulation  |
\*---------------------------------------------------------------------------*/
FoamFile
{
    format      ascii;
    class       volVectorField;
    location    "2.525";
    object      U;
}
// * * * * * * * * * * * * * * * * * * * * * * * * * * * * * * * * * * * * * //

dimensions      [0 1 -1 0 0 0 0];

internalField   nonuniform List<vector> 
496
(
(9.97536 0.103222 0)
(9.89989 -0.252592 0)
(10.2727 -0.0844158 0)
(10.7875 -0.244298 0)
(10.1653 0.544239 0)
(9.66063 -1.40037 0)
(10.3846 -0.254362 0)
(10.7053 -1.25098 0)
(11.1884 1.43814 0)
(8.59436 -3.05457 0)
(11.4511 0.0717275 0)
(10.3314 -4.29753 0)
(12.8938 1.60893 0)
(7.31841 -2.61798 0)
(13.9902 0.813647 0)
(9.37492 -6.56884 0)
(11.5116 -0.211622 2.36548e-18)
(12.2073 -0.167364 2.91719e-19)
(11.7162 -0.443133 -1.45366e-18)
(12.4353 0.131991 2.65713e-18)
(12.948 -1.94251 -9.14357e-19)
(12.7241 -0.602642 -2.94951e-18)
(14.2656 -5.32777 -3.70268e-17)
(14.8767 -4.47616 6.75072e-17)
(12.7785 -0.18393 0)
(13.0307 -0.0975763 0)
(13.1972 -0.0548536 0)
(13.188 0.111465 0)
(13.021 0.0578639 0)
(13.4497 -0.23229 0)
(13.6428 -0.560581 0)
(13.7643 -0.584617 0)
(12.229 1.05278 0)
(12.4277 0.982172 0)
(12.646 0.53046 0)
(13.1805 0.700601 0)
(12.5987 -2.70478 0)
(10.9778 -2.01227 0)
(8.79796 -0.797145 0)
(11.7751 -0.444289 0)
(13.231 0.187597 0)
(13.2166 0.310668 0)
(13.2053 0.31456 0)
(13.1935 0.367987 0)
(13.1755 0.3552 0)
(13.1281 0.335833 0)
(13.013 0.392746 0)
(12.9113 0.365533 0)
(12.7844 0.456015 0)
(12.6613 0.425997 0)
(12.4927 0.462379 0)
(12.2098 0.37837 0)
(12.0283 0.388352 0)
(11.8304 0.349541 0)
(11.8059 0.248579 0)
(11.7491 0.237125 0)
(11.8377 0.116864 0)
(11.9 0.153098 0)
(11.9863 0.0865423 0)
(12.1906 0.131666 0)
(12.234 0.149019 0)
(12.3516 0.163894 0)
(12.1438 0.311914 0)
(12.082 0.303192 0)
(11.7761 0.46203 0)
(11.491 0.42028 0)
(11.1328 0.564373 0)
(10.5889 0.60195 0)
(10.38 0.58548 0)
(9.87679 0.568938 0)
(10.0021 0.30999 0)
(9.90766 0.269392 0)
(10.2971 0.0475446 0)
(10.5923 0.0758054 0)
(10.859 0.0498937 0)
(11.071 0.115257 0)
(10.9515 0.24956 0)
(10.8109 0.286946 0)
(10.5728 0.421996 0)
(10.1845 0.303744 0)
(13.7575 -0.574403 0)
(13.74 -0.455501 0)
(13.69 -0.401324 0)
(13.6887 -0.337318 0)
(13.6586 -0.307378 0)
(13.6847 -0.26792 0)
(13.6426 -0.162975 0)
(13.5903 -0.164984 0)
(13.5326 -0.0224313 0)
(13.4079 0.005559 0)
(13.2207 0.0670011 0)
(13.0248 0.0167338 0)
(12.8456 -0.0426057 0)
(12.7014 -0.0531178 0)
(12.5898 -0.20856 0)
(12.658 -0.116499 0)
(12.6831 -0.348424 0)
(12.8666 -0.255844 0)
(12.9563 -0.366827 0)
(13.2128 -0.262738 0)
(13.3638 -0.185777 0)
(13.524 -0.178463 0)
(13.5525 0.063517 0)
(13.4098 0.0477773 0)
(13.2951 0.357874 0)
(12.9569 0.225061 0)
(12.8294 0.27128 0)
(12.392 0.0562625 0)
(12.1071 -0.11953 0)
(11.6482 -0.106032 0)
(11.3371 -0.419466 0)
(11.3219 -0.367343 0)
(11.3597 -0.696806 0)
(11.7648 -0.579321 0)
(11.9628 -0.402198 0)
(12.3351 -0.265558 0)
(12.4298 0.0843172 0)
(12.4773 0.0631484 0)
(12.4255 0.172335 0)
(12.1296 0.110981 0)
(13.3801 0.473119 0)
(13.3495 0.341998 0)
(13.5097 0.270107 0)
(13.2255 0.130406 0)
(13.4479 0.174825 0)
(13.3326 0.258196 0)
(13.4586 0.333386 0)
(13.3093 0.346314 0)
(13.5078 0.584475 0)
(13.3751 0.591439 0)
(13.2209 0.744399 0)
(13.0236 0.754228 0)
(12.7278 0.722272 0)
(12.7039 0.572956 0)
(12.4745 0.245583 0)
(12.5282 0.0501628 0)
(12.2944 -0.329366 0)
(12.4081 -0.304041 0)
(12.4875 -0.432212 0)
(12.59 -0.326535 0)
(13.0309 -0.186802 0)
(12.9732 -0.189271 0)
(13.6008 0.274918 0)
(13.4822 0.292745 0)
(13.9364 0.913377 0)
(13.6506 1.00026 0)
(13.506 1.48297 0)
(12.9128 1.65956 0)
(12.0809 1.59847 0)
(11.8354 1.503 0)
(11.0416 0.490122 0)
(11.4212 0.0154815 0)
(10.9778 -0.868663 0)
(11.4893 -0.874305 0)
(11.531 -0.81699 0)
(11.6456 -0.481828 0)
(11.9741 0.159567 0)
(11.7771 0.306924 0)
(12.0481 0.741381 0)
(12.0506 0.480885 0)
(10.5521 -0.750597 0)
(9.89634 -0.23523 0)
(10.8973 -0.268623 0)
(9.49108 -0.514808 0)
(10.279 0.100722 0)
(10.4248 -0.423913 0)
(9.64375 -0.260333 0)
(10.2712 0.0977771 0)
(10.7686 0.171614 0)
(10.6884 0.126618 0)
(11.0539 0.160511 0)
(10.9451 0.297962 0)
(10.9595 0.334004 0)
(10.4271 0.356779 0)
(9.86968 0.30328 0)
(9.31233 0.211068 0)
(8.66428 0.166386 0)
(8.6969 -0.0399444 0)
(8.09461 -0.218209 0)
(8.65896 -0.387575 0)
(8.65289 -0.554514 0)
(9.16322 -0.577727 0)
(10.1319 -0.453771 0)
(10.1811 -0.380827 0)
(11.4987 -0.083278 0)
(11.5235 0.145255 0)
(12.7119 0.456277 0)
(12.9534 0.579499 0)
(13.6248 0.674342 0)
(14.1767 0.518826 0)
(13.362 0.307901 0)
(13.3397 0.199853 0)
(11.0561 0.0091259 0)
(11.1269 -0.137579 0)
(9.45835 -0.336333 0)
(9.89676 -0.42921 0)
(9.73174 -0.197595 0)
(9.52085 -0.182007 0)
(10.013 0.106195 0)
(9.07287 0.248577 0)
(11.7606 0.56092 -1.03037e-17)
(8.53127 -0.811269 -1.77396e-17)
(10.8492 -0.0786721 3.07648e-17)
(5.46742 -4.6684 -8.3405e-17)
(12.4171 -0.452895 1.03125e-17)
(7.94762 0.657831 1.75594e-17)
(11.5587 0.117125 -3.05962e-17)
(5.09302 4.52858 8.34517e-17)
(2.49461 3.96348 0)
(-2.42346 -2.35818 0)
(5.31145 0.543718 0)
(-1.05484 4.53042 0)
(-8.86089 -1.94855 3.12359e-17)
(9.71418 -4.51581 0)
(-12.0534 0.199553 0)
(6.02727 2.1843 0)
(-0.854369 -3.13941 0)
(1.29098 0.536353 0)
(-1.18479 0.46037 0)
(-0.671238 -1.58527 0)
(2.87076 1.45233 0)
(-0.924583 -0.149143 0)
(-0.0433867 -0.88817 0)
(2.8042 0.460551 0)
(1.90254 0.162697 0)
(1.66356 0.450208 0)
(1.88585 0.54008 0)
(2.45567 0.83148 0)
(2.55656 1.12699 0)
(2.25821 1.10424 0)
(1.95704 0.86785 0)
(2.4325 0.610649 0)
(2.29441 0.127211 0)
(2.49544 -0.297364 0)
(2.83676 -0.667469 0)
(3.032 -0.948112 0)
(3.03326 -1.13098 0)
(3.87517 -1.14894 0)
(4.13473 -0.877213 0)
(4.20531 -0.763936 0)
(4.77378 -0.31405 0)
(5.14018 0.303055 0)
(4.97879 0.595821 0)
(4.77183 0.922973 0)
(4.86866 1.23446 0)
(3.97942 1.43111 0)
(3.76666 1.27812 0)
(3.52356 1.21373 0)
(3.44475 0.652261 0)
(3.61091 0.246622 0)
(3.89764 -0.11651 0)
(4.24527 -0.125546 0)
(4.34388 0.108284 0)
(4.79153 0.343564 0)
(4.85886 1.05005 0)
(4.78901 0.758571 0)
(0.222462 -0.231166 0)
(-1.75556 1.48117 0)
(2.62562 0.0319411 0)
(-0.586739 -1.34342 0)
(-0.657352 0.613749 0)
(2.01965 0.290695 0)
(-0.646997 -1.60193 0)
(1.0895 -0.945112 0)
(-0.483227 0.0621894 0)
(0.905266 0.0169268 0)
(1.16933 -0.128852 0)
(1.06342 0.105111 0)
(1.27009 0.477498 0)
(1.77517 0.722042 0)
(2.27368 0.418557 0)
(2.72156 0.135094 0)
(2.9531 -0.133951 0)
(3.19652 -0.467963 0)
(3.24398 -0.759395 0)
(3.10241 -0.948222 0)
(2.91357 -1.11908 0)
(2.77028 -1.3514 0)
(2.44633 -1.024 0)
(2.19964 -0.811052 0)
(2.09688 -0.426489 0)
(2.41183 0.032595 0)
(2.31716 0.512719 0)
(2.39273 0.934491 0)
(2.8047 1.05912 0)
(3.11318 1.16642 0)
(3.43923 0.961377 0)
(3.80388 0.540824 0)
(4.5306 0.0565536 0)
(4.34424 -0.402146 0)
(5.06711 -0.861713 0)
(4.37072 -0.837856 0)
(4.9946 -0.63098 0)
(5.07235 -0.524435 0)
(4.94019 0.34033 0)
(5.92026 0.406255 0)
(11.7169 -1.81855 0)
(8.30098 2.83878 0)
(12.6499 -1.03826 0)
(10.1252 6.70049 0)
(10.6938 -1.27219 0)
(9.06698 2.89722 0)
(11.2978 0.272003 0)
(10.6119 4.14745 0)
(9.97316 -0.487037 0)
(9.87445 1.19873 0)
(10.2425 0.275743 0)
(10.805 1.12779 0)
(9.95251 -0.0437605 0)
(9.98281 0.138693 0)
(10.2143 0.124678 0)
(10.7528 0.213534 0)
(13.1792 5.22638 3.64361e-17)
(15.4087 4.55821 -6.54936e-17)
(13.1618 2.13154 0)
(13.0354 0.627811 0)
(11.6469 0.335467 0)
(12.4674 -0.196739 0)
(11.4011 0.223866 0)
(12.1664 0.193233 0)
(10.9832 2.62777 0)
(9.15575 1.85088 0)
(8.65775 1.49562 0)
(8.07423 -0.633009 0)
(12.7901 -0.637852 0)
(12.7899 -0.705757 0)
(13.1164 -0.487579 0)
(13.7507 -0.264419 0)
(13.0555 -0.157441 0)
(13.4895 0.1672 0)
(13.7324 0.474558 0)
(13.9723 0.538328 0)
(12.695 0.204159 0)
(13.0227 0.207256 0)
(13.1763 0.139034 0)
(13.2446 0.0828811 0)
(8.37114 -0.0102451 0)
(9.12211 -0.107382 0)
(8.49345 -0.305035 0)
(9.22055 -0.127294 0)
(8.84589 -0.160273 0)
(7.94039 -0.244555 0)
(8.35024 -0.284484 0)
(8.6577 -0.425404 0)
(7.75158 -0.162684 0)
(7.82751 -0.0648181 0)
(7.41575 0.0346531 0)
(8.30196 0.127196 0)
(7.87814 0.315215 0)
(8.53063 0.370599 0)
(9.06203 0.260114 0)
(9.38603 0.0890762 0)
(10.3757 -0.152675 0)
(9.93679 -0.234824 0)
(10.8965 -0.331047 0)
(9.94785 -0.223026 0)
(9.96707 -0.227201 0)
(9.14739 -0.188725 0)
(7.8921 -0.303856 0)
(7.79663 -0.35678 0)
(6.05648 -0.199718 0)
(6.6715 -0.170792 0)
(5.95342 0.205675 0)
(6.19456 0.533852 0)
(7.24386 0.56217 0)
(7.03002 0.86151 0)
(8.90613 0.459256 0)
(8.82986 0.503584 0)
(10.3288 0.0156704 0)
(10.6356 -0.0911599 0)
(11.0733 -0.197622 0)
(11.391 -0.233179 0)
(10.7566 0.0922698 0)
(11.1833 -0.0914146 0)
(10.447 0.372272 0)
(10.7114 0.262204 0)
(13.9129 0.0584748 0)
(14.0416 0.0379606 0)
(13.9988 -0.0673239 0)
(14.0731 -0.226776 0)
(13.7547 -0.298458 0)
(13.8355 -0.26196 0)
(13.4467 -0.146427 0)
(13.617 -0.330289 0)
(13.4608 -0.201171 0)
(13.4004 -0.174663 0)
(13.4153 -0.0434204 0)
(13.3416 -0.067298 0)
(13.693 -0.194262 0)
(13.4826 -0.162179 0)
(14.0218 -0.546631 0)
(13.7303 -0.562472 0)
(14.0285 -0.977751 0)
(13.7152 -0.923723 0)
(13.7653 -0.997879 0)
(13.7356 -0.881842 0)
(13.4984 -0.485856 0)
(13.7415 -0.410351 0)
(13.1841 0.16539 0)
(13.4931 0.0647857 0)
(12.885 0.398336 0)
(12.9409 0.285193 0)
(12.7409 0.251211 0)
(12.4921 0.43962 0)
(12.8828 -0.00466132 0)
(12.6473 0.209326 0)
(13.424 -0.566988 0)
(13.2221 -0.626544 0)
(13.7618 -1.21933 0)
(13.3112 -1.42587 0)
(13.493 -1.34698 0)
(13.1655 -1.34848 0)
(13.094 -0.591154 0)
(13.0088 -0.453122 0)
(12.8722 0.115338 0)
(12.9719 0.0649122 0)
(14.0356 0.367499 0)
(13.9617 0.326731 0)
(13.9278 0.131551 0)
(13.8543 0.0122532 0)
(13.8363 -0.00509887 0)
(13.6888 -0.0638358 0)
(13.5618 0.12162 0)
(13.4337 0.0763639 0)
(13.4499 0.179501 0)
(13.4803 0.0770268 0)
(13.5038 0.209229 0)
(13.6105 0.181617 0)
(13.6066 0.124145 0)
(13.6681 0.0937105 0)
(13.5076 -0.111683 0)
(13.4174 -0.0930021 0)
(13.1071 -0.25996 0)
(12.8908 -0.103552 0)
(12.6288 -0.0971599 0)
(12.4391 0.039287 0)
(12.2596 0.186593 0)
(12.1768 0.165253 0)
(12.1466 0.408718 0)
(12.295 0.294083 0)
(12.3926 0.527514 0)
(12.6898 0.459893 0)
(12.7906 0.566778 0)
(13.0828 0.528061 0)
(13.1587 0.394475 0)
(13.3814 0.246301 0)
(13.3413 -0.0893017 0)
(13.2147 -0.216877 0)
(13.0215 -0.393168 0)
(12.5917 -0.1939 0)
(12.4072 -0.05845 0)
(11.9532 0.192754 0)
(11.8772 0.439169 0)
(11.749 0.443564 0)
(11.8129 0.700067 0)
(12.0044 0.438327 0)
(13.3156 -0.0932485 0)
(13.2308 -0.129753 0)
(13.202 -0.207182 0)
(13.0657 -0.250376 0)
(13.0671 -0.273708 0)
(12.9067 -0.328722 0)
(12.8414 -0.240892 0)
(12.5846 -0.252567 0)
(12.5561 -0.194729 0)
(12.5396 -0.273726 0)
(12.5978 -0.213113 0)
(12.6031 -0.241851 0)
(12.5229 -0.275453 0)
(12.5325 -0.310124 0)
(12.3068 -0.380886 0)
(12.1515 -0.362089 0)
(11.7301 -0.472875 0)
(11.4785 -0.44245 0)
(11.1964 -0.519746 0)
(10.9904 -0.454726 0)
(10.8604 -0.40372 0)
(10.6211 -0.340455 0)
(10.6952 -0.216023 0)
(10.6644 -0.22385 0)
(10.9476 -0.104683 0)
(11.1355 -0.138783 0)
(11.3505 -0.0932873 0)
(11.6142 -0.123429 0)
(11.6268 -0.212648 0)
(11.8453 -0.232467 0)
(11.6087 -0.40048 0)
(11.5058 -0.344934 0)
(11.0546 -0.514771 0)
(10.5655 -0.489046 0)
(10.3142 -0.584855 0)
(9.75722 -0.569052 0)
(9.9383 -0.443736 0)
(9.67145 -0.436156 0)
(9.99299 -0.272882 0)
(10.1272 -0.298649 0)
)
;

boundaryField
{
    inlet
    {
        type            fixedValue;
        value           uniform (10 0 0);
    }
    outlet
    {
        type            zeroGradient;
    }
    obstacle
    {
        type            noSlip;
    }
    upperWall
    {
        type            noSlip;
    }
    lowerWall
    {
        type            noSlip;
    }
    frontAndBack
    {
        type            empty;
    }
}


// ************************************************************************* //
