/*--------------------------------*- C++ -*----------------------------------*\
  =========                 |
  \\      /  F ield         | OpenFOAM: The Open Source CFD Toolbox
   \\    /   O peration     | Website:  https://openfoam.org
    \\  /    A nd           | Version:  10
     \\/     M anipulation  |
\*---------------------------------------------------------------------------*/
FoamFile
{
    format      ascii;
    class       volScalarField;
    location    "3.775";
    object      p;
}
// * * * * * * * * * * * * * * * * * * * * * * * * * * * * * * * * * * * * * //

dimensions      [0 2 -2 0 0 0 0];

internalField   nonuniform List<scalar> 
496
(
29.3305
28.6409
25.3986
19.4934
30.5217
30.2453
25.9736
19.4507
35.5135
33.6683
26.2593
15.8432
41.8578
40.4298
36.2165
23.1645
11.178
1.54661
10.5989
1.23732
1.32325
-5.34677
-26.9498
-49.7446
-5.93098
-10.8432
-13.8129
-15.3873
-6.64471
-12.5378
-16.6582
-18.5035
-1.53999
-4.92344
-11.5242
-14.5723
-21.8252
-15.9103
-16.4474
-12.6362
-15.9083
-15.8358
-15.3792
-14.5428
-14.4055
-14.18
-12.9031
-10.889
-9.50532
-9.51918
-9.62429
-8.74441
-6.77893
-5.6665
-6.02862
-7.15439
-7.86125
-7.66246
-7.45528
-7.30225
-7.41231
-7.3264
-7.02838
-6.71238
-6.27403
-5.94756
-5.31662
-4.70932
-4.06588
-3.51827
-3.11388
-2.70248
-2.44508
-2.07512
-1.81997
-1.57072
-1.31611
-1.17141
-0.80037
-0.303351
-18.62
-18.0301
-16.7123
-15.7466
-15.3285
-14.4897
-12.8555
-11.001
-9.8142
-9.40572
-9.15623
-7.99245
-6.59931
-5.76618
-6.01383
-6.87876
-7.50641
-7.62828
-7.58378
-7.52261
-7.63461
-7.52417
-7.27104
-6.8508
-6.37031
-5.91397
-5.21715
-4.64233
-3.93111
-3.39285
-2.87487
-2.47434
-2.27005
-1.91931
-1.8127
-1.51904
-1.34167
-1.15346
-0.843017
-0.442216
-16.9188
-17.6452
-16.9686
-16.7291
-16.3868
-14.8713
-12.8285
-11.1068
-10.109
-9.41041
-8.80027
-7.70529
-6.54125
-6.14912
-6.28553
-6.86579
-7.26606
-7.84381
-7.96424
-8.11124
-8.07876
-7.78876
-7.56482
-7.01933
-6.62966
-5.86968
-5.28958
-4.63036
-3.94104
-3.49636
-3.04
-2.69932
-2.44164
-2.36273
-2.27704
-2.17235
-2.21978
-1.74311
-1.10929
-0.32024
-16.5847
-18.7929
-17.7977
-18.268
-16.9023
-15.1371
-13.4533
-11.7818
-10.2005
-9.1138
-7.94857
-6.10118
-5.45116
-5.06344
-5.4143
-5.77899
-6.42415
-7.60217
-8.00992
-8.79057
-8.92476
-8.51462
-7.84533
-7.35024
-6.98935
-5.86811
-5.57316
-4.50393
-3.66355
-2.99964
-1.96818
-1.83447
-1.55748
-1.99458
-1.96402
-2.57696
-2.76657
-2.15408
-1.98603
-0.684483
45.9587
48.1539
61.7728
74.546
45.4685
45.96
59.7154
71.8057
-26.3985
-52.6537
-29.834
-15.5743
-27.8336
-39.476
-37.3477
-17.4198
-20.4119
-13.0726
-23.4672
-21.0158
-15.0292
-15.3525
-15.3002
-11.8709
-8.55605
-8.23775
-7.71433
-7.33599
-6.90507
-6.45063
-6.36097
-7.04256
-7.35017
-7.62187
-8.17142
-8.57603
-8.04226
-7.58286
-7.56499
-7.03405
-6.24433
-5.81584
-5.41589
-4.72899
-4.2267
-3.62767
-3.02562
-2.86323
-2.43158
-2.12326
-2.12692
-2.20032
-1.83683
-1.62559
-1.30212
-0.427877
-12.3106
-18.5981
-16.156
-23.0598
-16.4861
-14.3913
-14.0034
-9.47608
-7.59006
-8.43547
-7.71458
-7.67839
-8.29007
-8.71322
-8.74207
-8.84182
-8.69771
-8.31021
-8.34336
-7.92543
-7.33191
-6.68227
-6.35877
-6.30994
-5.48821
-5.13347
-5.10412
-4.81755
-4.5243
-4.48448
-4.3363
-3.9585
-3.59183
-2.88572
-2.171
-1.51385
-0.78579
-0.0440741
0.114419
0.0141508
40.609
37.2347
32.3551
16.0364
31.8457
29.8295
22.0166
11.121
26.6924
26.9428
22.9999
16.7177
26.0452
25.4898
22.1558
16.6291
-38.5561
-62.2534
-5.12194
-11.0425
7.32507
-1.93707
7.85435
-1.95232
-33.0331
-15.5504
-5.71729
-14.2386
-4.92068
-4.82853
-9.48845
-13.6953
-9.36806
-14.5887
-16.7902
-16.986
-9.09038
-12.8401
-14.3693
-14.7842
-13.6026
-16.0748
-18.7909
-17.7263
-16.9192
-14.8553
-11.672
-7.77633
-5.36225
-6.54552
-8.21443
-9.47838
-9.46416
-9.56322
-9.85759
-9.64764
-9.74621
-8.89015
-8.23739
-7.24587
-6.26061
-5.64069
-4.92753
-4.92427
-4.66062
-4.66379
-4.33335
-4.67299
-4.7617
-4.59704
-4.78771
-4.36459
-4.1195
-3.16717
-2.18666
-0.772179
0.48839
0.999322
1.71713
0.750588
-15.8146
-16.5189
-16.9268
-17.113
-15.8729
-13.3521
-10.5693
-8.93972
-8.02847
-8.04789
-8.71386
-9.31518
-9.3846
-9.0662
-9.17901
-8.93178
-8.76696
-8.18628
-7.62732
-7.11678
-6.69833
-6.36191
-5.92569
-5.818
-5.49916
-5.62366
-5.29149
-4.96925
-4.84884
-4.61019
-4.47496
-3.99817
-3.4877
-2.7184
-1.95944
-1.171
-0.696785
-0.23283
0.147481
0.0329109
-17.1442
-17.3346
-16.897
-15.8513
-14.4538
-12.8711
-11.1817
-9.88498
-9.26006
-9.06599
-9.10365
-8.80334
-8.61355
-8.5339
-8.87746
-9.07893
-8.80564
-8.38403
-7.82247
-7.36518
-6.75729
-6.1956
-5.76021
-5.32254
-5.17055
-4.76876
-4.68797
-4.35117
-4.29194
-4.04467
-3.85336
-3.60425
-3.18924
-2.75006
-2.08138
-1.42487
-0.632233
-0.178245
-0.02809
0.167936
-14.8161
-15.0641
-15.1022
-14.5592
-13.5989
-12.797
-11.4971
-9.86913
-9.17611
-9.33446
-9.3895
-8.57093
-8.07058
-8.25514
-8.97617
-9.35844
-8.89092
-8.27219
-7.59209
-7.27782
-6.78405
-6.35952
-5.93103
-5.57945
-5.36838
-5.07092
-4.85312
-4.50511
-4.26652
-4.10562
-3.86709
-3.6857
-3.238
-2.75066
-2.07835
-1.46032
-0.933565
-0.521352
-0.26638
-0.0868523
)
;

boundaryField
{
    inlet
    {
        type            zeroGradient;
    }
    outlet
    {
        type            fixedValue;
        value           uniform 0;
    }
    obstacle
    {
        type            zeroGradient;
    }
    upperWall
    {
        type            zeroGradient;
    }
    lowerWall
    {
        type            zeroGradient;
    }
    frontAndBack
    {
        type            empty;
    }
}


// ************************************************************************* //
