/*--------------------------------*- C++ -*----------------------------------*\
  =========                 |
  \\      /  F ield         | OpenFOAM: The Open Source CFD Toolbox
   \\    /   O peration     | Website:  https://openfoam.org
    \\  /    A nd           | Version:  10
     \\/     M anipulation  |
\*---------------------------------------------------------------------------*/
FoamFile
{
    format      ascii;
    class       volScalarField;
    location    "7.25";
    object      p;
}
// * * * * * * * * * * * * * * * * * * * * * * * * * * * * * * * * * * * * * //

dimensions      [0 2 -2 0 0 0 0];

internalField   nonuniform List<scalar> 
400
(
8.76771e-09
-2.1494e-05
3.14231e-05
0.000133104
0.000290527
0.00050589
0.000782322
0.0011235
0.0015325
0.0020107
0.00255649
0.00316343
0.00381809
0.00449804
0.00516984
0.00578974
0.00630649
0.00667017
0.00687248
0.00683262
2.32906e-05
1.21358e-06
5.98041e-05
0.000162545
0.000317952
0.000529033
0.000799416
0.00113309
0.00153341
0.00200221
0.00253857
0.00313691
0.00378418
0.00446043
0.00513254
0.00575663
0.00627942
0.00664887
0.0068596
0.00680972
-3.79935e-05
-6.77831e-05
-1.09929e-05
8.77006e-05
0.000237615
0.000442045
0.000705229
0.0010321
0.00142737
0.00189464
0.0024351
0.00304563
0.00371705
0.00442918
0.00514841
0.00582622
0.00639944
0.00680247
0.00702874
0.00694579
-0.000164006
-0.000199284
-0.000145916
-5.3614e-05
8.78406e-05
0.000282198
0.000534621
0.00085146
0.00123946
0.00170507
0.00225309
0.00288467
0.00359408
0.00436357
0.00516152
0.00593249
0.00659671
0.00706138
0.00731755
0.00718195
-0.000361478
-0.00040162
-0.000353755
-0.000270623
-0.000141085
3.91846e-05
0.000276486
0.000578938
0.000955879
0.00141746
0.00197359
0.00263143
0.00339253
0.00424328
0.00515615
0.0060679
0.00687569
0.00744256
0.0077487
0.00751771
-0.000629255
-0.00067449
-0.00063428
-0.000563518
-0.000450278
-0.000289685
-7.42914e-05
0.000205896
0.000563106
0.00101183
0.00156824
0.00224834
0.00306258
0.00401293
0.00507649
0.00618897
0.00721696
0.0079518
0.00834114
0.00793319
-0.000963993
-0.00101509
-0.000984853
-0.000930285
-0.000838906
-0.000705575
-0.000521996
-0.000276613
4.54982e-05
0.000463241
0.000999833
0.00168224
0.00253701
0.00358233
0.00482024
0.0062006
0.00755826
0.00857785
0.00911088
0.0083914
-0.00136137
-0.00141941
-0.00140159
-0.00136753
-0.00130458
-0.00120788
-0.00106911
-0.0008761
-0.000612273
-0.000255365
0.000224231
0.000865024
0.00171379
0.0028171
0.0041989
0.00589196
0.00771808
0.00924446
0.0100152
0.00885349
-0.00181588
-0.00188203
-0.00187884
-0.00186957
-0.00184195
-0.00179228
-0.00171346
-0.00159454
-0.00141986
-0.00116693
-0.000803715
-0.000285604
0.000448153
0.00146462
0.00280191
0.0047746
0.0071616
0.00959614
0.0107747
0.00930123
-0.00232076
-0.00239612
-0.00240886
-0.00242766
-0.00244142
-0.00244873
-0.00244545
-0.0024243
-0.00237438
-0.00227931
-0.00211443
-0.00184135
-0.00140043
-0.000700595
0.000418031
0.00191129
0.00447647
0.00818589
0.0102103
0.00962279
-0.00286839
-0.00295379
-0.00298184
-0.00302966
-0.00308817
-0.00315967
-0.00324494
-0.00334346
-0.00345405
-0.00357491
-0.00370406
-0.00384094
-0.00399504
-0.00421659
-0.00458746
-0.00490036
-0.00366688
0.00109221
0.00562747
0.00862783
-0.00345144
-0.00354682
-0.00358575
-0.00365926
-0.00376096
-0.00389815
-0.00407813
-0.00430975
-0.00460646
-0.00499025
-0.00549987
-0.00620864
-0.00726861
-0.00903189
-0.0120957
-0.0164221
-0.0186925
-0.01368
-0.00577485
0.00252502
-0.0040656
-0.00417066
-0.00421203
-0.00430259
-0.00443824
-0.00463312
-0.00490234
-0.00526504
-0.00575215
-0.00641561
-0.007348
-0.00872398
-0.0108944
-0.0145431
-0.0209119
-0.0298893
-0.0371612
-0.0330582
-0.0227394
-0.00949207
-0.00470604
-0.00481139
-0.00483214
-0.00492021
-0.00507379
-0.00531149
-0.00565216
-0.00612404
-0.00677166
-0.00767011
-0.00895414
-0.0108655
-0.0139172
-0.0189468
-0.0274729
-0.0389017
-0.0491652
-0.0462858
-0.0367893
-0.0215176
-0.00540252
-0.00551757
-0.00549845
-0.00556716
-0.00570576
-0.00594654
-0.00631423
-0.0068419
-0.00757944
-0.00860778
-0.0100757
-0.0122136
-0.0155912
-0.0208985
-0.0298016
-0.0409536
-0.0507911
-0.0475766
-0.0404803
-0.0249924
-0.00623639
-0.00615667
-0.00601741
-0.00598102
-0.00607991
-0.0063227
-0.00671763
-0.00728381
-0.00806285
-0.0091242
-0.0106104
-0.0126816
-0.015832
-0.0205702
-0.0279313
-0.0362679
-0.0430272
-0.0400022
-0.0352585
-0.017464
-0.00672098
-0.0071443
-0.00684196
-0.00684265
-0.00682684
-0.00694886
-0.00722352
-0.00768373
-0.0083695
-0.00932822
-0.0106852
-0.0124919
-0.0152166
-0.0189385
-0.0243713
-0.029733
-0.0340066
-0.0299577
-0.0243372
0.00195909
-0.010101
-0.0075789
-0.00693474
-0.00634052
-0.00626095
-0.00643835
-0.00681535
-0.00735525
-0.00807938
-0.00900187
-0.0102425
-0.011858
-0.0141434
-0.01704
-0.0209476
-0.0240194
-0.0256416
-0.019477
-0.0075978
0.0358505
-0.00678337
-0.00977965
-0.00869986
-0.0087065
-0.0082453
-0.00800611
-0.00795317
-0.0081145
-0.00853561
-0.00920607
-0.0102316
-0.0116159
-0.0137548
-0.0163676
-0.0202113
-0.0226801
-0.0230536
-0.00940187
0.0174073
0.0945089
-0.0320007
-0.00695285
-0.00542152
-0.00467137
-0.00447163
-0.00468966
-0.00521214
-0.00583631
-0.00666614
-0.00761232
-0.00892443
-0.0104759
-0.0125926
-0.014693
-0.0165822
-0.0146234
-0.0054674
0.0282656
0.0960802
0.227738
)
;

boundaryField
{
    movingWall
    {
        type            zeroGradient;
    }
    fixedWalls
    {
        type            zeroGradient;
    }
    frontAndBack
    {
        type            empty;
    }
}


// ************************************************************************* //
