/*--------------------------------*- C++ -*----------------------------------*\
  =========                 |
  \\      /  F ield         | OpenFOAM: The Open Source CFD Toolbox
   \\    /   O peration     | Website:  https://openfoam.org
    \\  /    A nd           | Version:  10
     \\/     M anipulation  |
\*---------------------------------------------------------------------------*/
FoamFile
{
    format      ascii;
    class       volScalarField;
    location    "1.325";
    object      p;
}
// * * * * * * * * * * * * * * * * * * * * * * * * * * * * * * * * * * * * * //

dimensions      [0 2 -2 0 0 0 0];

internalField   nonuniform List<scalar> 
400
(
4.02384e-10
1.86862e-05
0.000120206
0.000285643
0.000512983
0.000797299
0.00113215
0.00150981
0.00192136
0.00235675
0.00280497
0.00325421
0.00369207
0.00410589
0.0044831
0.00481164
0.00508047
0.00528024
0.00540548
0.00543399
-1.95999e-05
-1.53345e-06
0.000100562
0.000266483
0.000494591
0.000780077
0.00111656
0.00149638
0.00191061
0.00234923
0.00280113
0.00325453
0.00369687
0.00411533
0.00449712
0.00482996
0.00510253
0.00530527
0.00543281
0.00546133
-0.000122921
-0.000105359
-2.13193e-07
0.000170853
0.000406283
0.000701201
0.00104913
0.00144228
0.00187157
0.00232675
0.00279658
0.00326873
0.00373023
0.00416774
0.0045678
0.00491734
0.00520418
0.00541791
0.00555259
0.00558224
-0.000298456
-0.000280793
-0.000170306
9.69019e-06
0.000257711
0.000568747
0.000936134
0.00135184
0.00180651
0.00228953
0.00278917
0.00329266
0.00378623
0.00425564
0.00468632
0.00506391
0.00537482
0.00560717
0.005754
0.00578656
-0.000550586
-0.00053252
-0.000414324
-0.000221483
4.45933e-05
0.000378689
0.000773852
0.00122171
0.00171251
0.00223514
0.00277729
0.0033255
0.00386497
0.00438023
0.00485517
0.00527358
0.00561972
0.00587954
0.00604443
0.00608166
-0.000885503
-0.000866891
-0.000738525
-0.000528763
-0.000238925
0.000125484
0.000557125
0.00104718
0.00158539
0.00216006
0.00275819
0.00336551
0.003966
0.00454263
0.00507732
0.00555133
0.00594598
0.00624401
0.00643425
0.00647839
-0.00131107
-0.0012919
-0.00115079
-0.000919839
-0.000600239
-0.000197892
0.000279371
0.000822181
0.00141967
0.00205952
0.00272798
0.00340996
0.00408811
0.0047436
0.00535592
0.00590315
0.00636257
0.00671233
0.00693738
0.00699145
-0.00183732
-0.00181779
-0.00166121
-0.00140451
-0.00104875
-0.000600343
-6.77535e-05
0.000538973
0.0012083
0.00192722
0.00268129
0.00345474
0.00422893
0.00498313
0.00569408
0.00633592
0.00688062
0.0072998
0.00757241
0.00764089
-0.00247677
-0.00245729
-0.00228232
-0.00199495
-0.00159608
-0.00109282
-0.000494498
0.000188021
0.00094243
0.00175509
0.00261092
0.00349388
0.00438424
0.00525969
0.00609407
0.00685689
0.00751333
0.00802584
0.00836395
0.00845386
-0.00324483
-0.00322616
-0.00302956
-0.00270604
-0.00225632
-0.00168854
-0.00101315
-0.00024212
0.000611357
0.00153303
0.00250744
0.00351889
0.00454709
0.00556896
0.00655594
0.0074725
0.00827543
0.00891456
0.00934431
0.0094676
-0.00416049
-0.00414379
-0.00392193
-0.00355593
-0.00304647
-0.00240316
-0.00163812
-0.000764821
0.000202458
0.00124892
0.00235885
0.00351812
0.00470661
0.00590218
0.00707535
0.00818623
0.00918175
0.00999512
0.0105558
0.0107344
-0.00524754
-0.00523432
-0.00498295
-0.00456679
-0.0039869
-0.00325508
-0.00238595
-0.00139519
-0.000298566
0.000888855
0.00215315
0.00347622
0.00484658
0.00624388
0.00764036
0.0089946
0.0102439
0.0113011
0.0120536
0.0123305
-0.00653663
-0.0065282
-0.00624231
-0.00576602
-0.00510214
-0.0042656
-0.00327493
-0.00214938
-0.000907164
0.000435826
0.00186612
0.0033718
0.0049436
0.00656878
0.00822676
0.00988049
0.0114628
0.0128674
0.0139074
0.0143723
-0.00807135
-0.00806583
-0.00773866
-0.0071882
-0.00642197
-0.00545889
-0.00432414
-0.00304288
-0.00163725
-0.000124295
0.0014844
0.00318213
0.00496699
0.00683845
0.00879109
0.0108033
0.0128138
0.0147225
0.0162044
0.0170403
-0.00989035
-0.00989218
-0.00952122
-0.00887797
-0.00798307
-0.00686174
-0.00555198
-0.00408856
-0.00249922
-0.00080283
0.000991177
0.00288239
0.00487879
0.00699847
0.00926217
0.0116833
0.0142238
0.0168611
0.019013
0.0206653
-0.0122597
-0.0121236
-0.0116803
-0.0109006
-0.00983231
-0.00850321
-0.00697434
-0.00529382
-0.00349668
-0.00160403
0.000376359
0.00245113
0.00463662
0.0069776
0.00952934
0.0123732
0.0154968
0.0191454
0.0222331
0.0257207
-0.0145233
-0.0147107
-0.0142559
-0.0133305
-0.0120244
-0.0104103
-0.00859845
-0.00665436
-0.00462057
-0.00252029
-0.000360532
0.00186959
0.00419885
0.00668486
0.00939734
0.0125762
0.0160285
0.0211461
0.0252801
0.0329635
-0.0199447
-0.0179044
-0.0175061
-0.016165
-0.0145195
-0.0125481
-0.0103895
-0.00812845
-0.00582519
-0.00350541
-0.0011731
0.00120033
0.00368176
0.0062804
0.00920671
0.0128403
0.0167297
0.0235817
0.0294881
0.0427967
-0.0222179
-0.0238597
-0.0226479
-0.0209271
-0.0184253
-0.0155344
-0.0126396
-0.00984096
-0.00716039
-0.0045832
-0.00209762
0.000302952
0.0025794
0.00494708
0.00656028
0.0111475
0.010425
0.0209774
0.0209224
0.0526665
-0.045922
-0.0234232
-0.0233285
-0.0213215
-0.0185582
-0.0157632
-0.0129983
-0.0102397
-0.00754407
-0.00494084
-0.00243772
-2.88461e-06
0.00234539
0.00486133
0.00730177
0.0113921
0.0156752
0.0299456
0.051473
0.111669
)
;

boundaryField
{
    movingWall
    {
        type            zeroGradient;
    }
    fixedWalls
    {
        type            zeroGradient;
    }
    frontAndBack
    {
        type            empty;
    }
}


// ************************************************************************* //
