/*--------------------------------*- C++ -*----------------------------------*\
  =========                 |
  \\      /  F ield         | OpenFOAM: The Open Source CFD Toolbox
   \\    /   O peration     | Website:  https://openfoam.org
    \\  /    A nd           | Version:  10
     \\/     M anipulation  |
\*---------------------------------------------------------------------------*/
FoamFile
{
    format      ascii;
    class       volScalarField;
    location    "8.8";
    object      p;
}
// * * * * * * * * * * * * * * * * * * * * * * * * * * * * * * * * * * * * * //

dimensions      [0 2 -2 0 0 0 0];

internalField   nonuniform List<scalar> 
400
(
5.27192e-09
-2.78261e-05
3.00499e-05
0.000142032
0.000316381
0.000556156
0.000866136
0.00125241
0.00172107
0.00227661
0.00292009
0.0036463
0.00443988
0.00527137
0.00609232
0.00683683
0.00742748
0.00780075
0.00796204
0.00785099
3.08005e-05
2.51699e-06
6.82711e-05
0.000182963
0.000356383
0.000592425
0.000896277
0.00127412
0.00173204
0.00227488
0.0029045
0.00361695
0.00439729
0.00522102
0.00603949
0.00678597
0.00737809
0.00774761
0.00790472
0.00777429
-4.007e-05
-7.75277e-05
-1.36136e-05
9.62268e-05
0.000262516
0.00048935
0.000782496
0.00114912
0.00159691
0.00213315
0.00276289
0.00348616
0.0042946
0.00516429
0.00604552
0.00686134
0.00750811
0.00789208
0.0080247
0.00782939
-0.000190706
-0.00023454
-0.000174905
-7.34469e-05
8.11685e-05
0.000293387
0.00056983
0.000919131
0.00135133
0.00187742
0.00250795
0.0032497
0.00410079
0.00504235
0.00602722
0.00696364
0.00771287
0.00812563
0.00820693
0.00789771
-0.00043023
-0.000479329
-0.000427089
-0.000338229
-0.000200645
-9.46157e-06
0.00024292
0.000566846
0.0009752
0.00148354
0.00210946
0.00286994
0.00377455
0.00481454
0.00594889
0.00707079
0.00798873
0.00845318
0.00843469
0.00793361
-0.000756976
-0.000811187
-0.000769464
-0.000697789
-0.000583578
-0.000421757
-0.000204009
8.14581e-05
0.00045018
0.000922319
0.00152327
0.00228285
0.00322831
0.00436896
0.00568963
0.0070783
0.00827166
0.00883416
0.00863941
0.00781248
-0.00116523
-0.00122501
-0.00119696
-0.00114762
-0.00106438
-0.000942513
-0.000773901
-0.000546455
-0.000243362
0.000158574
0.000691165
0.00139681
0.00232623
0.00352468
0.00500971
0.00672246
0.00834175
0.00910288
0.00865312
0.00733502
-0.00164714
-0.00171326
-0.00170196
-0.00168035
-0.00163649
-0.00156691
-0.00146519
-0.00132133
-0.00112077
-0.000841819
-0.000452791
9.12596e-05
0.000852509
0.00190826
0.00333805
0.00528378
0.00747098
0.00868632
0.00808129
0.0064155
-0.00219276
-0.00226601
-0.00227389
-0.00228476
-0.00228823
-0.00228345
-0.0022678
-0.00223664
-0.00218299
-0.00209627
-0.00196011
-0.00175081
-0.00144284
-0.000993413
-0.000231434
0.0012209
0.0037077
0.00600765
0.00630959
0.00551514
-0.00279024
-0.00287113
-0.002899
-0.00294498
-0.00300127
-0.00307116
-0.00315838
-0.0032677
-0.00340669
-0.00358811
-0.00383489
-0.00419591
-0.0047973
-0.00585901
-0.00734418
-0.00810453
-0.00617677
-0.00169586
0.00233782
0.00495919
-0.0034265
-0.00351513
-0.00356099
-0.00364093
-0.00375038
-0.0038985
-0.00409755
-0.00436551
-0.00473155
-0.00524575
-0.00599896
-0.00716352
-0.00910812
-0.0125707
-0.0177207
-0.0226409
-0.0223473
-0.0153162
-0.00648438
0.0011575
-0.00408858
-0.00418387
-0.00424049
-0.00434701
-0.00450211
-0.00472191
-0.00502783
-0.00545206
-0.00604809
-0.00690882
-0.00820591
-0.0102631
-0.0136994
-0.0196811
-0.0285172
-0.0377071
-0.0394818
-0.0313128
-0.0197559
-0.00809573
-0.004768
-0.00486907
-0.00492459
-0.00504353
-0.00522683
-0.00549822
-0.00588693
-0.0064357
-0.00721569
-0.00834834
-0.0100542
-0.0127336
-0.0171253
-0.024342
-0.0348405
-0.0451211
-0.0480761
-0.0403187
-0.0301534
-0.0176805
-0.005456
-0.00555256
-0.00557917
-0.00568379
-0.00586955
-0.00616422
-0.0065979
-0.00721736
-0.00809777
-0.00936354
-0.0112413
-0.0140818
-0.0186918
-0.0256978
-0.0356373
-0.044319
-0.0474736
-0.0405116
-0.0333304
-0.021777
-0.00617921
-0.00627825
-0.00625152
-0.00631805
-0.00646592
-0.00673491
-0.00715622
-0.00777395
-0.00865677
-0.00991064
-0.0117511
-0.0143145
-0.0184075
-0.0242019
-0.0319546
-0.0382246
-0.0404519
-0.0344055
-0.030585
-0.0193228
-0.00702242
-0.00692375
-0.00676192
-0.0067015
-0.00678328
-0.00701995
-0.00742303
-0.00801598
-0.00884834
-0.0099903
-0.0116036
-0.0138237
-0.0170358
-0.0212535
-0.0265978
-0.0304616
-0.0316541
-0.0261979
-0.0245715
-0.00995339
-0.00747925
-0.00787577
-0.00752885
-0.00748374
-0.00742391
-0.00751283
-0.00776277
-0.0082069
-0.00889022
-0.00984803
-0.0112125
-0.01305
-0.015556
-0.0186033
-0.0222684
-0.0244429
-0.0246851
-0.0192361
-0.0164071
0.00834897
-0.0108546
-0.00829794
-0.00759389
-0.00692494
-0.00678426
-0.00690524
-0.00723179
-0.00772633
-0.00841392
-0.00930645
-0.0105275
-0.0120954
-0.0141695
-0.0165044
-0.019092
-0.0201035
-0.0193244
-0.0122948
-0.00281779
0.0403115
-0.0074699
-0.0104228
-0.00924751
-0.00917168
-0.00863826
-0.00834296
-0.00823951
-0.008353
-0.00873679
-0.00938176
-0.0103964
-0.0117486
-0.0137253
-0.015951
-0.0186575
-0.0193921
-0.0177335
-0.00386957
0.0211529
0.0976496
-0.0327138
-0.00758957
-0.00595646
-0.00513537
-0.00488141
-0.0050456
-0.00551094
-0.00608761
-0.0068678
-0.00777421
-0.00904239
-0.0105125
-0.0124011
-0.0139962
-0.0149915
-0.0116857
-0.00116642
0.0328595
0.0987386
0.229115
)
;

boundaryField
{
    movingWall
    {
        type            zeroGradient;
    }
    fixedWalls
    {
        type            zeroGradient;
    }
    frontAndBack
    {
        type            empty;
    }
}


// ************************************************************************* //
