/*--------------------------------*- C++ -*----------------------------------*\
  =========                 |
  \\      /  F ield         | OpenFOAM: The Open Source CFD Toolbox
   \\    /   O peration     | Website:  https://openfoam.org
    \\  /    A nd           | Version:  10
     \\/     M anipulation  |
\*---------------------------------------------------------------------------*/
FoamFile
{
    format      ascii;
    class       surfaceScalarField;
    location    "5.575";
    object      phi;
}
// * * * * * * * * * * * * * * * * * * * * * * * * * * * * * * * * * * * * * //

dimensions      [0 3 -1 0 0 0 0];

internalField   nonuniform List<scalar> 
760
(
-8.81904e-06
8.81902e-06
-2.93189e-05
2.04999e-05
-5.34613e-05
2.41424e-05
-7.80545e-05
2.45933e-05
-0.000102079
2.40246e-05
-0.000125093
2.30134e-05
-0.000146666
2.1573e-05
-0.000166242
1.9576e-05
-0.000183107
1.68653e-05
-0.000196383
1.32759e-05
-0.000205035
8.65194e-06
-0.000207907
2.87254e-06
-0.000203792
-4.11578e-06
-0.0001916
-1.2191e-05
-0.000170582
-2.1019e-05
-0.000140625
-2.99563e-05
-0.00010279
-3.78352e-05
-6.02685e-05
-4.25215e-05
-2.04662e-05
-3.98023e-05
-2.04662e-05
-2.15051e-05
3.03241e-05
-6.10475e-05
6.00423e-05
-0.000105913
6.90083e-05
-0.000151027
6.97065e-05
-0.000194491
6.74894e-05
-0.000235298
6.38204e-05
-0.000272545
5.88195e-05
-0.000305228
5.22591e-05
-0.000332188
4.38252e-05
-0.000352091
3.31795e-05
-0.000363407
1.99678e-05
-0.000364624
4.08949e-06
-0.000354073
-1.4667e-05
-0.000330337
-3.59264e-05
-0.000292559
-5.8797e-05
-0.000240845
-8.16703e-05
-0.000177003
-0.000101678
-0.00010601
-0.000113514
-3.88771e-05
-0.000106935
-5.93433e-05
-2.66163e-05
5.69404e-05
-7.40215e-05
0.000107447
-0.000127212
0.000122199
-0.000180356
0.00012285
-0.000231314
0.000118448
-0.000278947
0.000111453
-0.000322246
0.000102119
-0.000360117
9.01297e-05
-0.000391307
7.50149e-05
-0.000414377
5.62499e-05
-0.000427741
3.33314e-05
-0.000429575
5.92426e-06
-0.000417886
-2.63562e-05
-0.000390971
-6.28413e-05
-0.000347565
-0.000102203
-0.000287439
-0.000141797
-0.000212337
-0.000176779
-0.000127902
-0.00019795
-4.72707e-05
-0.000187566
-0.000106614
-2.85623e-05
8.55027e-05
-7.95053e-05
0.00015839
-0.000136516
0.00017921
-0.00019343
0.000179764
-0.000248093
0.000173111
-0.00029941
0.00016277
-0.000346424
0.000149133
-0.000388087
0.000131793
-0.000423172
0.000110101
-0.000450213
8.32905e-05
-0.000467461
5.05793e-05
-0.000472907
1.13701e-05
-0.000464089
-3.51744e-05
-0.000438474
-8.84561e-05
-0.000393864
-0.000146812
-0.000329055
-0.000206606
-0.000245278
-0.000260557
-0.0001487
-0.000294528
-5.50312e-05
-0.000281235
-0.000161645
-2.97308e-05
0.000115234
-8.32321e-05
0.000211892
-0.000143172
0.00023915
-0.00020314
0.000239732
-0.000261025
0.000230996
-0.000315847
0.000217592
-0.000366784
0.00020007
-0.000412916
0.000177924
-0.000453112
0.000150297
-0.000485923
0.000116101
-0.000509463
7.41192e-05
-0.000521311
2.32178e-05
-0.000518471
-3.80141e-05
-0.000497205
-0.000109722
-0.000453771
-0.000190247
-0.000385177
-0.0002752
-0.000291223
-0.000354511
-0.000178464
-0.000407287
-6.64538e-05
-0.000393245
-0.000228099
-3.09489e-05
0.000146183
-8.71894e-05
0.000268132
-0.000150336
0.000302296
-0.000213699
0.000303095
-0.000275234
0.000292531
-0.00033413
0.000276489
-0.00038977
0.000255709
-0.000441448
0.000229603
-0.000488231
0.00019708
-0.000528789
0.000156659
-0.000561186
0.000106517
-0.000582653
4.46846e-05
-0.000589508
-3.11596e-05
-0.000576376
-0.000122854
-0.000537236
-0.000229386
-0.000466104
-0.000346331
-0.000359884
-0.000460731
-0.000224494
-0.000542677
-8.49742e-05
-0.000532764
-0.000313073
-3.24177e-05
0.0001786
-9.18796e-05
0.000327594
-0.000158758
0.000369175
-0.000226027
0.000370364
-0.000291725
0.000358229
-0.000355269
0.000340033
-0.000416332
0.000316772
-0.000474547
0.000287818
-0.000529332
0.000251865
-0.000579671
0.000206998
-0.000623802
0.000150648
-0.000658759
7.96418e-05
-0.000680343
-9.57535e-06
-0.000681224
-0.000121974
-0.000652253
-0.000258357
-0.000582682
-0.000415902
-0.00046383
-0.000579583
-0.000298047
-0.00070846
-0.000116817
-0.000713995
-0.00042989
-3.41704e-05
0.000212771
-9.7393e-05
0.000390817
-0.000168523
0.000440305
-0.000240117
0.000441958
-0.000310322
0.000428434
-0.000378845
0.000408555
-0.000445754
0.000383682
-0.000511175
0.000353238
-0.000575101
0.000315791
-0.00063714
0.000269037
-0.000696109
0.000209616
-0.000749388
0.000132921
-0.000792277
3.33134e-05
-0.000816431
-9.78201e-05
-0.000808455
-0.000266333
-0.000750807
-0.00047355
-0.000624778
-0.000705612
-0.000422368
-0.00091087
-0.000176837
-0.000959527
-0.000606727
-3.62457e-05
0.000249016
-0.0001038
0.000458371
-0.000179639
0.000516144
-0.000255808
0.000518127
-0.000330586
0.000503212
-0.000404038
0.000482007
-0.00047674
0.000456384
-0.000549484
0.000425983
-0.00062312
0.000389427
-0.000698308
0.000344225
-0.000775074
0.000286383
-0.000852013
0.00020986
-0.000924782
0.000106083
-0.000985818
-3.67845e-05
-0.00101781
-0.00023434
-0.000995146
-0.000496215
-0.000883055
-0.000817702
-0.000648327
-0.0011456
-0.000301662
-0.00130619
-0.000908388
-3.87637e-05
0.00028778
-0.000111317
0.000530924
-0.000192269
0.000597096
-0.000273061
0.000598918
-0.000352128
0.000582279
-0.000429958
0.000559838
-0.000507732
0.000534158
-0.000587072
0.000505322
-0.000669967
0.000472322
-0.000758635
0.000432893
-0.000855174
0.000382921
-0.000960788
0.000315473
-0.0010742
0.000219493
-0.00118982
7.88378e-05
-0.00129293
-0.000131233
-0.00135201
-0.000437134
-0.00130926
-0.000860451
-0.00107326
-0.0013816
-0.000566889
-0.00181256
-0.00147528
-4.19985e-05
0.000329778
-0.000120437
0.000609362
-0.000206897
0.000683557
-0.000292135
0.000684156
-0.000374798
0.000664942
-0.000455854
0.000640894
-0.00053714
0.000615444
-0.000621184
0.000589366
-0.000711307
0.000562445
-0.000811753
0.000533339
-0.000927681
0.000498849
-0.0010648
0.000452596
-0.00122837
0.000383058
-0.00142046
0.000270928
-0.00163999
8.82919e-05
-0.00185953
-0.000217594
-0.00198619
-0.000733785
-0.00179866
-0.00156913
-0.0010394
-0.00257183
-0.00251467
-4.64956e-05
0.000376274
-0.000132124
0.000694991
-0.000224522
0.000775955
-0.000313781
0.000773414
-0.000398887
0.000750047
-0.000481349
0.000723357
-0.00056365
0.000697745
-0.00064915
0.000674866
-0.000742448
0.000655743
-0.000849946
0.000640836
-0.00098058
0.000629483
-0.00114667
0.00061869
-0.00136461
0.000600998
-0.00165482
0.000561139
-0.00203463
0.000468101
-0.00249022
0.000237992
-0.00286027
-0.000363733
-0.00269173
-0.00173767
-0.00157665
-0.00368691
-0.00409132
-5.32469e-05
0.000429521
-0.000148053
0.000789797
-0.000246906
0.000874808
-0.000339524
0.000866033
-0.00042541
0.000835933
-0.00050674
0.000804687
-0.0005866
0.000777605
-0.00066883
0.000757096
-0.000758779
0.000745692
-0.00086441
0.000746467
-0.000997974
0.000763047
-0.00117864
0.000799354
-0.00143619
0.000858551
-0.00181287
0.000937821
-0.00234859
0.00100382
-0.00299559
0.000884987
-0.00346723
0.000107909
-0.00320002
-0.00200487
-0.00187583
-0.0050111
-0.00596716
-6.48245e-05
0.000494346
-0.000171926
0.000896899
-0.000277028
0.00097991
-0.000371057
0.000960061
-0.000455373
0.000920249
-0.000532881
0.000882195
-0.000606529
0.000851253
-0.000680035
0.000830602
-0.000758619
0.000824277
-0.000850319
0.000838168
-0.000968415
0.000881143
-0.00113512
0.000966064
-0.00138658
0.00111
-0.00176753
0.00131877
-0.00230387
0.00154016
-0.00289932
0.00148044
-0.00326977
0.000478358
-0.00296437
-0.00231027
-0.00187004
-0.00610543
-0.0078372
-7.89073e-05
0.000573253
-0.000201814
0.00101981
-0.000316312
0.00109441
-0.000414494
0.00105824
-0.000496343
0.0010021
-0.000566223
0.000952076
-0.000628091
0.000913121
-0.000685389
0.000887899
-0.000741634
0.000880522
-0.000801791
0.000898324
-0.000875029
0.000954381
-0.00097639
0.00106743
-0.00113266
0.00126627
-0.00136858
0.0015547
-0.00169767
0.00186925
-0.00201304
0.00179581
-0.00221768
0.000682996
-0.00212771
-0.00240025
-0.00154524
-0.0066879
-0.00938244
-0.000145178
0.000718431
-0.000282054
0.00115668
-0.000386123
0.00119848
-0.000466343
0.00113846
-0.000533752
0.00106951
-0.000592118
0.00101044
-0.000642179
0.000963182
-0.000683258
0.000928978
-0.000714615
0.000911879
-0.000734778
0.000918487
-0.000743055
0.000962658
-0.000738847
0.00106322
-0.000726381
0.0012538
-0.000696244
0.00152456
-0.000661292
0.0018343
-0.000619982
0.0017545
-0.000640168
0.000703182
-0.000883209
-0.00215721
-0.000863528
-0.00670758
-0.010246
-9.56072e-05
0.000814038
-0.000296134
0.00135721
-0.000443954
0.0013463
-0.000546797
0.00124131
-0.000616061
0.00113877
-0.000661531
0.00105591
-0.000688138
0.000989789
-0.000697063
0.000937904
-0.000686653
0.000901469
-0.000649693
0.000881526
-0.000576496
0.000889461
-0.00044815
0.000934871
-0.000242372
0.00104803
5.99016e-05
0.00122229
0.000467225
0.00142698
0.000850052
0.00137167
0.000967137
0.000586096
0.000448819
-0.00163889
1.77274e-05
-0.00627648
-0.0102282
-0.000388496
0.00120253
-0.000476092
0.0014448
-0.000562574
0.00143278
-0.000641526
0.00132026
-0.000676031
0.00117327
-0.000673184
0.00105306
-0.00064042
0.000957024
-0.000578888
0.000876372
-0.00049211
0.000814691
-0.000372891
0.000762307
-0.000214717
0.000731287
2.33968e-06
0.000717815
0.00030435
0.000746015
0.000720237
0.000806402
0.00126568
0.000881535
0.00180335
0.000833998
0.00220687
0.000182578
0.00191066
-0.00134268
0.000997408
-0.00536323
-0.00923083
-0.00135184
0.00255437
-0.00131571
0.00140868
-0.00107139
0.00118846
-0.000718119
0.000966992
-0.000342311
0.000797467
3.62441e-05
0.000674509
0.000404472
0.000588797
0.000759843
0.000521
0.0011024
0.000472139
0.00143508
0.000429624
0.00176599
0.000400372
0.00210277
0.00038104
0.00247893
0.000369855
0.00291016
0.000375173
0.00345989
0.000331806
0.00405361
0.000240269
0.00443619
-0.000199993
0.00430717
-0.00121366
0.00267941
-0.00373547
-0.00655142
0.00255437
0.00396305
0.0051515
0.0061185
0.00691596
0.00759047
0.00817927
0.00870027
0.00917241
0.00960203
0.0100024
0.0103834
0.0107533
0.0111285
0.0114603
0.0117005
0.0115006
0.0102869
0.00655142
)
;

boundaryField
{
    movingWall
    {
        type            calculated;
        value           uniform 0;
    }
    fixedWalls
    {
        type            calculated;
        value           uniform 0;
    }
    frontAndBack
    {
        type            empty;
        value           nonuniform List<scalar> 0();
    }
}


// ************************************************************************* //
