/*--------------------------------*- C++ -*----------------------------------*\
  =========                 |
  \\      /  F ield         | OpenFOAM: The Open Source CFD Toolbox
   \\    /   O peration     | Website:  https://openfoam.org
    \\  /    A nd           | Version:  10
     \\/     M anipulation  |
\*---------------------------------------------------------------------------*/
FoamFile
{
    format      ascii;
    class       surfaceScalarField;
    location    "0.275";
    object      phi;
}
// * * * * * * * * * * * * * * * * * * * * * * * * * * * * * * * * * * * * * //

dimensions      [0 3 -1 0 0 0 0];

internalField   nonuniform List<scalar> 
760
(
-5.18359e-06
5.18359e-06
-1.05273e-05
5.34368e-06
-1.56014e-05
5.07414e-06
-2.02717e-05
4.67024e-06
-2.44227e-05
4.15104e-06
-2.79556e-05
3.53288e-06
-3.07891e-05
2.83352e-06
-3.28603e-05
2.07121e-06
-3.41244e-05
1.26411e-06
-3.45544e-05
4.30026e-07
-3.41409e-05
-4.13545e-07
-3.28917e-05
-1.24919e-06
-3.08324e-05
-2.05928e-06
-2.80067e-05
-2.82577e-06
-2.44766e-05
-3.5301e-06
-2.0323e-05
-4.15358e-06
-1.56451e-05
-4.67792e-06
-1.05588e-05
-5.08626e-06
-5.19983e-06
-5.35897e-06
-5.19984e-06
-5.61254e-06
1.07961e-05
-1.13892e-05
1.11204e-05
-1.68723e-05
1.05572e-05
-2.19158e-05
9.7137e-06
-2.63952e-05
8.63047e-06
-3.02047e-05
7.34234e-06
-3.32578e-05
5.88671e-06
-3.54884e-05
4.30172e-06
-3.68492e-05
2.62496e-06
-3.73122e-05
8.93037e-07
-3.68675e-05
-8.58287e-07
-3.55232e-05
-2.59348e-06
-3.33059e-05
-4.27652e-06
-3.02614e-05
-5.87029e-06
-2.64551e-05
-7.33641e-06
-2.19729e-05
-8.63578e-06
-1.69209e-05
-9.7299e-06
-1.14244e-05
-1.05828e-05
-5.63066e-06
-1.11527e-05
-1.08305e-05
-5.90123e-06
1.66974e-05
-1.19725e-05
1.71916e-05
-1.77289e-05
1.63136e-05
-2.30162e-05
1.50011e-05
-2.77047e-05
1.33189e-05
-3.16854e-05
1.1323e-05
-3.48711e-05
9.0724e-06
-3.71957e-05
6.62634e-06
-3.86132e-05
4.04242e-06
-3.9096e-05
1.37591e-06
-3.86346e-05
-1.3197e-06
-3.72367e-05
-3.99145e-06
-3.49277e-05
-6.58545e-06
-3.17524e-05
-9.04563e-06
-2.77756e-05
-1.13132e-05
-2.3084e-05
-1.33274e-05
-1.77867e-05
-1.50272e-05
-1.20144e-05
-1.63551e-05
-5.92284e-06
-1.72442e-05
-1.67533e-05
-6.34341e-06
2.30408e-05
-1.28641e-05
2.37124e-05
-1.90361e-05
2.24856e-05
-2.4692e-05
2.0657e-05
-2.96941e-05
1.83211e-05
-3.39298e-05
1.55587e-05
-3.73114e-05
1.2454e-05
-3.97744e-05
9.08932e-06
-4.12748e-05
5.54283e-06
-4.17869e-05
1.88801e-06
-4.13015e-05
-1.80511e-06
-3.98254e-05
-5.46755e-06
-3.73821e-05
-9.02874e-06
-3.40136e-05
-1.24141e-05
-2.97831e-05
-1.55437e-05
-2.47774e-05
-1.83331e-05
-1.91091e-05
-2.06955e-05
-1.29172e-05
-2.25471e-05
-6.37082e-06
-2.37905e-05
-2.31242e-05
-6.96174e-06
3.00025e-05
-1.41087e-05
3.08593e-05
-2.08561e-05
2.9233e-05
-2.70182e-05
2.68191e-05
-3.24467e-05
2.37495e-05
-3.70253e-05
2.01374e-05
-4.06678e-05
1.60965e-05
-4.33134e-05
1.17349e-05
-4.49227e-05
7.15215e-06
-4.54733e-05
2.43858e-06
-4.4957e-05
-2.32143e-06
-4.3379e-05
-7.04555e-06
-4.0759e-05
-1.16488e-05
-3.71339e-05
-1.60392e-05
-3.25624e-05
-2.01152e-05
-2.71298e-05
-2.37658e-05
-2.0952e-05
-2.68732e-05
-1.41786e-05
-2.93205e-05
-6.99793e-06
-3.09712e-05
-3.01221e-05
-7.78256e-06
3.77851e-05
-1.57569e-05
3.88337e-05
-2.32576e-05
3.67336e-05
-3.00738e-05
3.36353e-05
-3.60454e-05
2.97211e-05
-4.10542e-05
2.51461e-05
-4.50188e-05
2.00611e-05
-4.78872e-05
1.46033e-05
-4.96282e-05
8.89322e-06
-5.02256e-05
3.03593e-06
-4.9673e-05
-2.87401e-06
-4.79731e-05
-8.74548e-06
-4.51387e-05
-1.44831e-05
-4.11976e-05
-1.99802e-05
-3.61992e-05
-2.51136e-05
-3.0223e-05
-2.9742e-05
-2.33865e-05
-3.37097e-05
-1.58513e-05
-3.68557e-05
-7.8316e-06
-3.89909e-05
-3.79537e-05
-8.84446e-06
4.66295e-05
-1.78819e-05
4.78712e-05
-2.63376e-05
4.51893e-05
-3.39686e-05
4.12663e-05
-4.06024e-05
3.63549e-05
-4.61238e-05
3.06676e-05
-5.04641e-05
2.44013e-05
-5.35871e-05
1.77263e-05
-5.54769e-05
1.0783e-05
-5.61274e-05
3.68643e-06
-5.55358e-05
-3.46562e-06
-5.37004e-05
-1.05808e-05
-5.0623e-05
-1.75605e-05
-4.63153e-05
-2.4288e-05
-4.08092e-05
-3.06196e-05
-3.41707e-05
-3.63805e-05
-2.65137e-05
-4.13668e-05
-1.80116e-05
-4.53578e-05
-8.91216e-06
-4.80904e-05
-4.68658e-05
-1.02043e-05
5.68338e-05
-2.05896e-05
5.82565e-05
-3.02336e-05
5.48333e-05
-3.88528e-05
4.98856e-05
-4.6266e-05
4.37681e-05
-5.23711e-05
3.67727e-05
-5.71247e-05
2.9155e-05
-6.05197e-05
2.11213e-05
-6.25652e-05
1.28285e-05
-6.32719e-05
4.39312e-06
-6.26426e-05
-4.09487e-06
-6.06693e-05
-1.25541e-05
-5.73359e-05
-2.0894e-05
-5.26275e-05
-2.89964e-05
-4.65457e-05
-3.67015e-05
-3.9129e-05
-4.37971e-05
-3.04766e-05
-5.00192e-05
-2.07704e-05
-5.5064e-05
-1.02992e-05
-5.85615e-05
-5.71651e-05
-1.19476e-05
6.87815e-05
-2.40355e-05
7.03444e-05
-3.51404e-05
6.59382e-05
-4.49319e-05
5.96771e-05
-5.32302e-05
5.20664e-05
-5.9966e-05
4.35085e-05
-6.5143e-05
3.4332e-05
-6.88025e-05
2.47808e-05
-7.0994e-05
1.502e-05
-7.17543e-05
5.15342e-06
-7.10952e-05
-4.75394e-06
-6.89991e-05
-1.46502e-05
-6.54227e-05
-2.44704e-05
-6.03092e-05
-3.411e-05
-5.36093e-05
-4.34013e-05
-4.53115e-05
-5.20949e-05
-3.54792e-05
-5.98516e-05
-2.42906e-05
-6.62526e-05
-1.20828e-05
-7.07693e-05
-6.92479e-05
-1.42074e-05
8.29888e-05
-2.84525e-05
8.45895e-05
-4.13388e-05
7.88244e-05
-5.24883e-05
7.08265e-05
-6.17478e-05
6.13259e-05
-6.91161e-05
5.08767e-05
-7.46791e-05
3.9895e-05
-7.85557e-05
2.86574e-05
-8.08573e-05
1.73215e-05
-8.16597e-05
5.95584e-06
-8.09882e-05
-5.42544e-06
-7.88116e-05
-1.68268e-05
-7.50469e-05
-2.82351e-05
-6.95737e-05
-3.95832e-05
-6.22617e-05
-5.07133e-05
-5.30121e-05
-6.13444e-05
-4.1815e-05
-7.10487e-05
-2.88175e-05
-7.92501e-05
-1.44037e-05
-8.51831e-05
-8.36516e-05
-1.71998e-05
0.000100189
-3.41992e-05
0.000101589
-4.9239e-05
9.38643e-05
-6.19124e-05
8.34999e-05
-7.21466e-05
7.15601e-05
-8.00695e-05
5.87997e-05
-8.59041e-05
4.57295e-05
-8.98888e-05
3.26422e-05
-9.22251e-05
1.96578e-05
-9.30446e-05
6.77534e-06
-9.23916e-05
-6.07839e-06
-9.02171e-05
-1.90013e-05
-8.63823e-05
-3.20699e-05
-8.0675e-05
-4.52904e-05
-7.2841e-05
-5.85473e-05
-6.26374e-05
-7.15481e-05
-4.99147e-05
-8.37714e-05
-3.47299e-05
-9.44349e-05
-1.74921e-05
-0.000102421
-0.000101144
-2.12934e-05
0.000121482
-4.18425e-05
0.000122138
-5.94504e-05
0.000111472
-7.37468e-05
9.77963e-05
-8.48475e-05
8.26609e-05
-9.31136e-05
6.70657e-05
-9.89846e-05
5.16005e-05
-0.000102877
3.65345e-05
-0.000105117
2.18983e-05
-0.00010591
7.56819e-06
-0.000105324
-6.66425e-06
-0.000103289
-2.10365e-05
-9.95957e-05
-3.57634e-05
-9.39055e-05
-5.09806e-05
-8.57811e-05
-6.66717e-05
-7.47519e-05
-8.25772e-05
-6.04187e-05
-9.81046e-05
-4.26294e-05
-0.000112224
-2.17429e-05
-0.000123307
-0.000122887
-2.71519e-05
0.000148634
-5.23041e-05
0.00014729
-7.28898e-05
0.000132058
-8.87445e-05
0.000113651
-0.000100381
9.42975e-05
-0.000108556
7.52405e-05
-0.000114051
5.70953e-05
-0.000117528
4.00116e-05
-0.00011947
2.38406e-05
-0.000120168
8.26594e-06
-0.000119719
-7.11274e-06
-0.000118031
-2.27248e-05
-0.000114813
-3.89816e-05
-0.000109573
-5.62207e-05
-0.000101624
-7.46206e-05
-9.01377e-05
-9.40635e-05
-7.42917e-05
-0.000113951
-5.34974e-05
-0.000133019
-2.78733e-05
-0.000148931
-0.00015076
-3.60338e-05
0.000184668
-6.71195e-05
0.000178376
-9.09464e-05
0.000155885
-0.000107938
0.000130643
-0.000119371
0.000105731
-0.000126686
8.25549e-05
-0.000131151
6.15607e-05
-0.000133732
4.2593e-05
-0.000135086
2.51944e-05
-0.000135591
8.77025e-06
-0.000135373
-7.32989e-06
-0.000134322
-2.37761e-05
-0.000132069
-4.12345e-05
-0.000127957
-6.03328e-05
-0.000120997
-8.15803e-05
-0.000109861
-0.0001052
-9.29952e-05
-0.000130816
-6.89749e-05
-0.000157039
-3.72539e-05
-0.000180653
-0.000188014
-5.04318e-05
0.0002351
-8.89021e-05
0.000216846
-0.00011572
0.000182703
-0.000132663
0.000147585
-0.000142486
0.000115554
-0.000147693
8.77625e-05
-0.000150168
6.40349e-05
-0.000151194
4.36192e-05
-0.000151577
2.55779e-05
-0.000151759
8.95181e-06
-0.000151887
-7.20135e-06
-0.000151845
-2.38183e-05
-0.000151219
-4.18605e-05
-0.000149221
-6.23312e-05
-0.000144556
-8.6245e-05
-0.000135281
-0.000114475
-0.000118734
-0.000147363
-9.18622e-05
-0.000183911
-5.26228e-05
-0.000219892
-0.000240637
-7.55971e-05
0.000310697
-0.00012217
0.000263419
-0.000150259
0.000210792
-0.000164498
0.000161825
-0.000170281
0.000121337
-0.000171505
8.89865e-05
-0.000170687
6.32171e-05
-0.000169338
4.22707e-05
-0.000168308
2.45474e-05
-0.000168018
8.66178e-06
-0.000168611
-6.6083e-06
-0.000169995
-2.24346e-05
-0.000171799
-4.00561e-05
-0.000173227
-6.09035e-05
-0.000172799
-8.6673e-05
-0.000167974
-0.0001193
-0.000154675
-0.000160662
-0.000126983
-0.000211603
-7.97074e-05
-0.000267167
-0.000320344
-0.000121315
0.000432011
-0.000174314
0.000316419
-0.000198529
0.000235006
-0.000204955
0.000168251
-0.00020281
0.000119192
-0.000197475
8.36517e-05
-0.000191817
5.7559e-05
-0.000187231
3.76848e-05
-0.000184347
2.16637e-05
-0.000183436
7.75059e-06
-0.000184594
-5.45089e-06
-0.000187792
-1.92364e-05
-0.00019284
-3.50074e-05
-0.00019921
-5.45341e-05
-0.000205627
-8.02556e-05
-0.000209332
-0.000115596
-0.000204919
-0.000165074
-0.000182339
-0.000234183
-0.000130295
-0.000319211
-0.000450639
-0.000224718
0.00065673
-0.000259439
0.000351139
-0.000264798
0.000240364
-0.000253838
0.000157291
-0.000238024
0.000103377
-0.000223091
6.87188e-05
-0.000211079
4.55469e-05
-0.000202525
2.91311e-05
-0.00019746
1.65982e-05
-0.000195805
6.09588e-06
-0.000197555
-3.70054e-06
-0.000202789
-1.40029e-05
-0.000211682
-2.61136e-05
-0.000224353
-4.1864e-05
-0.000240482
-6.41266e-05
-0.000258371
-9.7706e-05
-0.000273074
-0.000150372
-0.000270683
-0.000236574
-0.000237406
-0.000352489
-0.000688044
-0.000317389
0.000974119
-0.000323716
0.000357466
-0.000297322
0.000213971
-0.000257021
0.00011699
-0.000221051
6.74071e-05
-0.000193526
4.1194e-05
-0.000173872
2.58922e-05
-0.000160816
1.60759e-05
-0.000153295
9.07677e-06
-0.00015065
3.45095e-06
-0.000152651
-1.69953e-06
-0.000159505
-7.14887e-06
-0.000171844
-1.37751e-05
-0.000190701
-2.30062e-05
-0.000217277
-3.75507e-05
-0.000251908
-6.30748e-05
-0.0002907
-0.000111581
-0.000313597
-0.000213676
-0.000301281
-0.000364805
-0.000989326
0.000974119
0.00133158
0.00154556
0.00166255
0.00172995
0.00177115
0.00179704
0.00181312
0.00182219
0.00182564
0.00182394
0.00181679
0.00180302
0.00178001
0.00174246
0.00167939
0.00156781
0.00135413
0.000989326
)
;

boundaryField
{
    movingWall
    {
        type            calculated;
        value           uniform 0;
    }
    fixedWalls
    {
        type            calculated;
        value           uniform 0;
    }
    frontAndBack
    {
        type            empty;
        value           nonuniform List<scalar> 0();
    }
}


// ************************************************************************* //
