/*--------------------------------*- C++ -*----------------------------------*\
  =========                 |
  \\      /  F ield         | OpenFOAM: The Open Source CFD Toolbox
   \\    /   O peration     | Website:  https://openfoam.org
    \\  /    A nd           | Version:  10
     \\/     M anipulation  |
\*---------------------------------------------------------------------------*/
FoamFile
{
    format      ascii;
    class       volVectorField;
    location    "0.275";
    object      U;
}
// * * * * * * * * * * * * * * * * * * * * * * * * * * * * * * * * * * * * * //

dimensions      [0 1 -1 0 0 0 0];

internalField   nonuniform List<vector> 
400
(
(-0.000129573 0.00012882 0)
(-0.000393073 0.000132778 0)
(-0.000654049 0.000126089 0)
(-0.000897992 0.000116064 0)
(-0.00111878 0.000103173 0)
(-0.0013111 8.78202e-05 0)
(-0.00147042 7.04439e-05 0)
(-0.00159316 5.14974e-05 0)
(-0.00167663 3.14328e-05 0)
(-0.00171902 1.06942e-05 0)
(-0.00171943 -1.02814e-05 0)
(-0.00167782 -3.10588e-05 0)
(-0.00159503 -5.11979e-05 0)
(-0.00147278 -7.0248e-05 0)
(-0.00131372 -8.7748e-05 0)
(-0.00112141 -0.000103233 0)
(-0.000900367 -0.000116252 0)
(-0.000655928 -0.000126387 0)
(-0.000394268 -0.000133155 0)
(-0.000129979 -0.000129221 0)
(-0.000140291 0.000398345 0)
(-0.00042541 0.000410368 0)
(-0.000707545 0.000389631 0)
(-0.000971103 0.000358564 0)
(-0.00120948 0.000318645 0)
(-0.00141696 0.000271144 0)
(-0.00158872 0.000217432 0)
(-0.00172095 0.000158914 0)
(-0.00181083 9.69816e-05 0)
(-0.00185647 3.29945e-05 0)
(-0.00185693 -3.17152e-05 0)
(-0.00181216 -9.58227e-05 0)
(-0.00172303 -0.000157986 0)
(-0.00159134 -0.000216826 0)
(-0.00141988 -0.000270922 0)
(-0.00121241 -0.000318835 0)
(-0.000973749 -0.000359153 0)
(-0.000709641 -0.000390564 0)
(-0.000426744 -0.000411547 0)
(-0.000140744 -0.000399599 0)
(-0.000147511 0.0006864 0)
(-0.000447247 0.00070676 0)
(-0.000743624 0.000670814 0)
(-0.00102013 0.00061703 0)
(-0.00126985 0.000548031 0)
(-0.00148683 0.00046607 0)
(-0.00166618 0.00037355 0)
(-0.00180408 0.000272904 0)
(-0.00189772 0.00016651 0)
(-0.00194527 5.66664e-05 0)
(-0.0019458 -5.43916e-05 0)
(-0.00189928 -0.000164448 0)
(-0.00180652 -0.00027125 0)
(-0.00166928 -0.000372466 0)
(-0.00149028 -0.000465669 0)
(-0.00127332 -0.000548364 0)
(-0.00102328 -0.000618076 0)
(-0.000746118 -0.000672477 0)
(-0.000448837 -0.000708865 0)
(-0.000148053 -0.000688642 0)
(-0.000158574 0.000992108 0)
(-0.000480654 0.00102111 0)
(-0.000798722 0.000968619 0)
(-0.00109487 0.000890272 0)
(-0.00136165 0.000790022 0)
(-0.00159285 0.000671272 0)
(-0.00178346 0.000537584 0)
(-0.0019297 0.000392496 0)
(-0.00202886 0.000239401 0)
(-0.00207921 8.15228e-05 0)
(-0.00207988 -7.80439e-05 0)
(-0.00203081 -0.000236243 0)
(-0.00193275 -0.000389956 0)
(-0.00178733 -0.00053591 0)
(-0.00159717 -0.000670641 0)
(-0.00136601 -0.000790519 0)
(-0.00109883 -0.000891868 0)
(-0.000801879 -0.000971171 0)
(-0.00048267 -0.00102435 0)
(-0.000159261 -0.000995565 0)
(-0.000174047 0.00132424 0)
(-0.000527325 0.00136227 0)
(-0.000875534 0.00129113 0)
(-0.00119876 0.00118534 0)
(-0.00148886 0.00105049 0)
(-0.00173929 0.000891415 0)
(-0.00194498 0.000713038 0)
(-0.00210228 0.000520118 0)
(-0.00220871 0.000317094 0)
(-0.00226274 0.000108074 0)
(-0.0022636 -0.00010307 0)
(-0.00221122 -0.000312544 0)
(-0.00210621 -0.000516443 0)
(-0.00194998 -0.000710598 0)
(-0.00174491 -0.000890472 0)
(-0.00149456 -0.00105118 0)
(-0.00120396 -0.00118763 0)
(-0.000879689 -0.00129483 0)
(-0.000529984 -0.00136698 0)
(-0.000174954 -0.00132928 0)
(-0.000194594 0.00169226 0)
(-0.000589201 0.00173968 0)
(-0.000977066 0.00164681 0)
(-0.00133553 0.00150939 0)
(-0.00165557 0.0013352 0)
(-0.0019303 0.00113091 0)
(-0.00215476 0.000903095 0)
(-0.00232565 0.000657899 0)
(-0.00244091 0.00040082 0)
(-0.00249938 0.000136762 0)
(-0.0025005 -0.000129782 0)
(-0.00244418 -0.000394457 0)
(-0.0023308 -0.000652733 0)
(-0.00216136 -0.000899629 0)
(-0.00193775 -0.00112952 0)
(-0.00166317 -0.0013361 0)
(-0.0013425 -0.00151256 0)
(-0.000982668 -0.001652 0)
(-0.000592801 -0.00174634 0)
(-0.000195822 -0.0016994 0)
(-0.000221185 0.00210719 0)
(-0.000669109 0.00216421 0)
(-0.00110763 0.00204511 0)
(-0.00151039 0.00187013 0)
(-0.00186735 0.00165005 0)
(-0.00217139 0.001394 0)
(-0.00241799 0.00111064 0)
(-0.00260456 0.000807654 0)
(-0.00272985 0.000491585 0)
(-0.00279334 0.000167958 0)
(-0.00279481 -0.000158384 0)
(-0.00273417 -0.00048283 0)
(-0.00261138 -0.000800496 0)
(-0.00242677 -0.00110577 0)
(-0.00218138 -0.00139197 0)
(-0.00187761 -0.00165118 0)
(-0.00151988 -0.00187445 0)
(-0.00111531 -0.0020523 0)
(-0.000674068 -0.00217353 0)
(-0.000222882 -0.00211723 0)
(-0.000255257 0.00258244 0)
(-0.000771177 0.00264882 0)
(-0.00127339 0.00249688 0)
(-0.00173061 0.00227593 0)
(-0.0021317 0.00200099 0)
(-0.00246972 0.00168458 0)
(-0.00274111 0.00133798 0)
(-0.0029447 0.000970634 0)
(-0.0030806 0.000589999 0)
(-0.00314935 0.000201902 0)
(-0.00315128 -0.000188915 0)
(-0.00308629 -0.000578073 0)
(-0.00295374 -0.000960792 0)
(-0.00275283 -0.00133117 0)
(-0.00248316 -0.00168157 0)
(-0.00214566 -0.0020023 0)
(-0.00174366 -0.00228171 0)
(-0.00128404 -0.00250676 0)
(-0.000778107 -0.0026618 0)
(-0.000257635 -0.00259649 0)
(-0.000298969 0.00313489 0)
(-0.000901531 0.0032094 0)
(-0.00148326 0.00301476 0)
(-0.00200633 0.00273575 0)
(-0.0024587 0.00239362 0)
(-0.0028344 0.00200562 0)
(-0.00313193 0.00158635 0)
(-0.00335254 0.00114711 0)
(-0.00349858 0.000696003 0)
(-0.00357225 0.000238607 0)
(-0.00357479 -0.000221147 0)
(-0.00350604 -0.000679881 0)
(-0.00336448 -0.00113364 0)
(-0.00314754 -0.00157681 0)
(-0.00285252 -0.00200112 0)
(-0.00247775 -0.002395 0)
(-0.00202438 -0.00274336 0)
(-0.0014982 -0.00302824 0)
(-0.000911353 -0.00322745 0)
(-0.000302357 -0.00315462 0)
(-0.000355695 0.00378679 0)
(-0.00106952 0.00386603 0)
(-0.00175035 0.00361354 0)
(-0.0023518 0.00325889 0)
(-0.00286183 0.00283258 0)
(-0.00327698 0.00235842 0)
(-0.00359963 0.00185509 0)
(-0.00383505 0.00133571 0)
(-0.0039891 0.000808455 0)
(-0.0040665 0.00027772 0)
(-0.00406977 -0.000254448 0)
(-0.00399879 -0.000786814 0)
(-0.00385067 -0.00131736 0)
(-0.00362031 -0.00184171 0)
(-0.00330135 -0.00235161 0)
(-0.00288789 -0.00283368 0)
(-0.00237695 -0.00326868 0)
(-0.00177155 -0.00363184 0)
(-0.00108367 -0.00389119 0)
(-0.000360617 -0.00381468 0)
(-0.000430983 0.00456887 0)
(-0.00128997 0.00464478 0)
(-0.0020944 0.00431057 0)
(-0.00278735 0.00385426 0)
(-0.00335917 0.00332021 0)
(-0.00381188 0.00274113 0)
(-0.00415464 0.0021404 0)
(-0.00439918 0.00153252 0)
(-0.00455658 0.00092458 0)
(-0.00463516 0.00031833 0)
(-0.00463932 -0.000287629 0)
(-0.00456896 -0.000895777 0)
(-0.00441937 -0.00150763 0)
(-0.00418179 -0.00212158 0)
(-0.00384448 -0.00273067 0)
(-0.00339482 -0.00332027 0)
(-0.0028226 -0.00386643 0)
(-0.00212485 -0.00433519 0)
(-0.00131077 -0.00467996 0)
(-0.000438327 -0.00460874 0)
(-0.000534568 0.00552596 0)
(-0.00158733 0.00558019 0)
(-0.00254569 0.00512565 0)
(-0.00334223 0.00452871 0)
(-0.00397496 0.00385426 0)
(-0.00445679 0.00314648 0)
(-0.00480823 0.00243362 0)
(-0.00505088 0.00172995 0)
(-0.0052033 0.00103935 0)
(-0.0052787 0.000358753 0)
(-0.00528388 -0.00031875 0)
(-0.00521878 -0.0010014 0)
(-0.00507648 -0.00169637 0)
(-0.00484336 -0.00240711 0)
(-0.00450004 -0.00313025 0)
(-0.00402365 -0.00385175 0)
(-0.00339194 -0.004543 0)
(-0.00259009 -0.00515831 0)
(-0.00161874 -0.00562951 0)
(-0.000545951 -0.00558391 0)
(-0.000684772 0.0067275 0)
(-0.00200398 0.0067182 0)
(-0.00315167 0.00607976 0)
(-0.00405882 0.00528344 0)
(-0.0047414 0.00442376 0)
(-0.00523253 0.00355866 0)
(-0.00557117 0.00271901 0)
(-0.00579346 0.00191528 0)
(-0.00592778 0.00114463 0)
(-0.00599325 0.000396248 0)
(-0.00599948 -0.000344896 0)
(-0.00594658 -0.00109527 0)
(-0.00582508 -0.00187033 0)
(-0.00561567 -0.0026817 0)
(-0.00528912 -0.0035333 0)
(-0.00480757 -0.00441569 0)
(-0.00412925 -0.00529839 0)
(-0.00321745 -0.00612204 0)
(-0.00205302 -0.00678736 0)
(-0.000703346 -0.00681373 0)
(-0.000918607 0.00828816 0)
(-0.00261668 0.00811857 0)
(-0.00398745 0.00719071 0)
(-0.00499833 0.00610648 0)
(-0.00569975 0.00500275 0)
(-0.00616154 0.0039487 0)
(-0.00645162 0.00297071 0)
(-0.00662526 0.00206882 0)
(-0.00672233 0.0012283 0)
(-0.00676823 0.000426704 0)
(-0.0067754 -0.000362008 0)
(-0.00674422 -0.00116511 0)
(-0.00666291 -0.0020093 0)
(-0.00650632 -0.00291836 0)
(-0.00623402 -0.00390902 0)
(-0.00578874 -0.00498363 0)
(-0.0050984 -0.00611797 0)
(-0.00408652 -0.00724291 0)
(-0.00269651 -0.00821487 0)
(-0.000951013 -0.00842072 0)
(-0.0013155 0.0104121 0)
(-0.00357103 0.00985284 0)
(-0.0051723 0.00846032 0)
(-0.00624692 0.00695906 0)
(-0.00689919 0.00554029 0)
(-0.00726458 0.00426793 0)
(-0.00745106 0.00314917 0)
(-0.00753586 0.00216243 0)
(-0.00756989 0.00127367 0)
(-0.00758356 0.000444459 0)
(-0.0075913 -0.000364889 0)
(-0.00759387 -0.00119447 0)
(-0.00757833 -0.00208484 0)
(-0.00751539 -0.00307633 0)
(-0.00735439 -0.00420618 0)
(-0.00701651 -0.00550052 0)
(-0.00638865 -0.00695778 0)
(-0.00532363 -0.00851847 0)
(-0.00370743 -0.00998332 0)
(-0.00137674 -0.0106221 0)
(-0.00205581 0.0134256 0)
(-0.00515765 0.0119802 0)
(-0.00689173 0.00984158 0)
(-0.00791858 0.00775232 0)
(-0.00839089 0.00594502 0)
(-0.00855266 0.00444034 0)
(-0.00855711 0.00319849 0)
(-0.00850074 0.0021592 0)
(-0.00844029 0.00126004 0)
(-0.00840678 0.000442534 0)
(-0.00841432 -0.000347646 0)
(-0.00846416 -0.00116351 0)
(-0.00854476 -0.00206031 0)
(-0.00862766 -0.00309878 0)
(-0.0086582 -0.00434568 0)
(-0.00854032 -0.00586862 0)
(-0.00811644 -0.00771912 0)
(-0.00712393 -0.00989197 0)
(-0.00540013 -0.0121501 0)
(-0.0021792 -0.0138062 0)
(-0.00350236 0.0185863 0)
(-0.00791666 0.0145586 0)
(-0.00941273 0.0111968 0)
(-0.0101433 0.0083121 0)
(-0.0102106 0.0060666 0)
(-0.0100104 0.0043562 0)
(-0.00973151 0.00304711 0)
(-0.00947359 0.00201645 0)
(-0.00928582 0.00116487 0)
(-0.00919049 0.000413311 0)
(-0.00919657 -0.000304637 0)
(-0.00930575 -0.00105163 0)
(-0.00951279 -0.00189467 0)
(-0.00979992 -0.00291471 0)
(-0.0101234 -0.00421554 0)
(-0.010389 -0.00592951 0)
(-0.010411 -0.00820924 0)
(-0.00976948 -0.0112012 0)
(-0.00839665 -0.0147303 0)
(-0.00380029 -0.0191066 0)
(-0.00708009 0.0228709 0)
(-0.0135719 0.0163503 0)
(-0.0131151 0.0119216 0)
(-0.0130067 0.00823593 0)
(-0.0123007 0.00565574 0)
(-0.0115237 0.00387418 0)
(-0.0108468 0.00261868 0)
(-0.0103319 0.00169457 0)
(-0.00999146 0.000969347 0)
(-0.00982361 0.000350791 0)
(-0.0098259 -0.000231717 0)
(-0.0100001 -0.000841719 0)
(-0.0103529 -0.00154953 0)
(-0.0108924 -0.00244717 0)
(-0.0116152 -0.00366846 0)
(-0.0124736 -0.00541457 0)
(-0.0133233 -0.00797781 0)
(-0.0135978 -0.0117443 0)
(-0.0142634 -0.0162352 0)
(-0.00749219 -0.0243271 0)
(-0.010675 0.0487977 0)
(-0.0184182 0.020149 0)
(-0.0152385 0.0126766 0)
(-0.0138704 0.00735962 0)
(-0.0119175 0.0044722 0)
(-0.0103314 0.00283537 0)
(-0.00915903 0.0018256 0)
(-0.00834747 0.00114858 0)
(-0.0078371 0.000649851 0)
(-0.00758497 0.000240508 0)
(-0.00756918 -0.000139009 0)
(-0.00778922 -0.000539071 0)
(-0.00826606 -0.00101881 0)
(-0.00904178 -0.00166743 0)
(-0.0101749 -0.00264501 0)
(-0.0117151 -0.00426845 0)
(-0.0136305 -0.00718273 0)
(-0.0146861 -0.0128399 0)
(-0.0184216 -0.0210672 0)
(-0.00859224 -0.0506729 0)
(0.058147 0.0376235 0)
(0.0501162 0.0127145 0)
(0.0751597 0.00703388 0)
(0.0805014 0.0035812 0)
(0.0848849 0.00193305 0)
(0.0875745 0.0011293 0)
(0.0892295 0.000691801 0)
(0.0902683 0.000425171 0)
(0.0908922 0.000241408 0)
(0.0912028 9.69316e-05 0)
(0.0912454 -3.37489e-05 0)
(0.0910239 -0.0001706 0)
(0.0905016 -0.000337357 0)
(0.0895848 -0.000573811 0)
(0.0880795 -0.000961963 0)
(0.0856116 -0.00168862 0)
(0.0811939 -0.00317907 0)
(0.0768302 -0.00664612 0)
(0.0505451 -0.0119687 0)
(0.0596628 -0.0368901 0)
)
;

boundaryField
{
    movingWall
    {
        type            fixedValue;
        value           uniform (1 0 0);
    }
    fixedWalls
    {
        type            noSlip;
    }
    frontAndBack
    {
        type            empty;
    }
}


// ************************************************************************* //
