/*--------------------------------*- C++ -*----------------------------------*\
  =========                 |
  \\      /  F ield         | OpenFOAM: The Open Source CFD Toolbox
   \\    /   O peration     | Website:  https://openfoam.org
    \\  /    A nd           | Version:  10
     \\/     M anipulation  |
\*---------------------------------------------------------------------------*/
FoamFile
{
    format      ascii;
    class       volVectorField;
    location    "3.35";
    object      U;
}
// * * * * * * * * * * * * * * * * * * * * * * * * * * * * * * * * * * * * * //

dimensions      [0 1 -1 0 0 0 0];

internalField   nonuniform List<vector> 
400
(
(-0.000161039 0.000158495 0)
(-0.00094229 0.000366211 0)
(-0.00210566 0.000402312 0)
(-0.00317702 0.00039202 0)
(-0.00420078 0.00036905 0)
(-0.00514377 0.000338241 0)
(-0.00598169 0.000299414 0)
(-0.00669289 0.000251843 0)
(-0.00725503 0.000194958 0)
(-0.00764566 0.000128501 0)
(-0.00784312 5.26854e-05 0)
(-0.00782718 -3.17983e-05 0)
(-0.00758088 -0.000123742 0)
(-0.0070931 -0.000220243 0)
(-0.00636073 -0.000317334 0)
(-0.00539076 -0.000409794 0)
(-0.00420687 -0.000490258 0)
(-0.00286739 -0.000544698 0)
(-0.00134413 -0.000525534 0)
(-0.00025935 -0.00026774 0)
(-0.000381781 0.000945608 0)
(-0.00177685 0.00172543 0)
(-0.00369412 0.00184637 0)
(-0.00546893 0.00178357 0)
(-0.00714989 0.00166072 0)
(-0.0086832 0.00149856 0)
(-0.0100281 0.00129936 0)
(-0.0111501 0.00106307 0)
(-0.0120153 0.00078991 0)
(-0.0125918 0.000480897 0)
(-0.0128501 0.000138121 0)
(-0.0127644 -0.000234858 0)
(-0.0123139 -0.000629386 0)
(-0.0114865 -0.00103432 0)
(-0.0102824 -0.00143436 0)
(-0.0087165 -0.0018093 0)
(-0.00682817 -0.00213106 0)
(-0.00470203 -0.00234569 0)
(-0.00231293 -0.002281 0)
(-0.000515556 -0.0013304 0)
(-0.000443674 0.00217014 0)
(-0.00202736 0.00368207 0)
(-0.0041816 0.00389953 0)
(-0.00617147 0.00375325 0)
(-0.00805298 0.00348056 0)
(-0.00976732 0.00312359 0)
(-0.0112704 0.00268915 0)
(-0.0125247 0.00217947 0)
(-0.0134942 0.00159692 0)
(-0.0141447 0.000945067 0)
(-0.0144447 0.00022943 0)
(-0.0143634 -0.000541436 0)
(-0.0138756 -0.0013521 0)
(-0.0129669 -0.00218028 0)
(-0.0116338 -0.00299541 0)
(-0.00988784 -0.00375747 0)
(-0.00776871 -0.00441115 0)
(-0.00536865 -0.00484954 0)
(-0.00265731 -0.00474133 0)
(-0.000599619 -0.00290862 0)
(-0.00046987 0.00340087 0)
(-0.00215616 0.00567159 0)
(-0.00445169 0.00598594 0)
(-0.00656967 0.00575442 0)
(-0.00857506 0.00533243 0)
(-0.0104071 0.00478292 0)
(-0.0120209 0.00411659 0)
(-0.0133784 0.00333737 0)
(-0.0144423 0.00244896 0)
(-0.0151763 0.00145641 0)
(-0.0155458 0.000367694 0)
(-0.015516 -0.000804185 0)
(-0.0150536 -0.00204045 0)
(-0.0141338 -0.0033095 0)
(-0.0127434 -0.00456632 0)
(-0.010885 -0.00574993 0)
(-0.00859192 -0.00677397 0)
(-0.00596202 -0.00747147 0)
(-0.00295936 -0.00733506 0)
(-0.000667995 -0.00456278 0)
(-0.000498075 0.00471219 0)
(-0.0022984 0.00779521 0)
(-0.00475455 0.00821286 0)
(-0.00702052 0.00789274 0)
(-0.00917103 0.00731627 0)
(-0.0111436 0.00656842 0)
(-0.0128932 0.00566395 0)
(-0.0143817 0.00460814 0)
(-0.015571 0.00340529 0)
(-0.0164226 0.00206056 0)
(-0.0168975 0.00058209 0)
(-0.0169544 -0.00101603 0)
(-0.0165501 -0.00271185 0)
(-0.015645 -0.00446719 0)
(-0.0142084 -0.00622445 0)
(-0.0122255 -0.00790009 0)
(-0.00971594 -0.00936982 0)
(-0.00678245 -0.0103915 0)
(-0.00338319 -0.0102498 0)
(-0.000766099 -0.00643027 0)
(-0.000535165 0.00611885 0)
(-0.00248159 0.0100818 0)
(-0.00514246 0.0106118 0)
(-0.00759711 0.0101997 0)
(-0.0099322 0.00946346 0)
(-0.0120834 0.00851203 0)
(-0.0140062 0.00736437 0)
(-0.0156632 0.00602678 0)
(-0.0170164 0.00450306 0)
(-0.0180255 0.00279674 0)
(-0.0186472 0.000913313 0)
(-0.018833 -0.00113604 0)
(-0.0185257 -0.00333153 0)
(-0.0176653 -0.00563198 0)
(-0.0161959 -0.00796975 0)
(-0.0140731 -0.0102384 0)
(-0.0112904 -0.0122676 0)
(-0.00794909 -0.0137168 0)
(-0.00399762 -0.0136128 0)
(-0.000912648 -0.00860248 0)
(-0.000582375 0.00764554 0)
(-0.00271208 0.0125714 0)
(-0.0056278 0.0132243 0)
(-0.00831565 0.012715 0)
(-0.0108774 0.0118121 0)
(-0.013247 0.0106508 0)
(-0.0153816 0.00925493 0)
(-0.0172462 0.00763144 0)
(-0.0188042 0.00578256 0)
(-0.0200153 0.00370779 0)
(-0.0208329 0.00140646 0)
(-0.0212017 -0.00111805 0)
(-0.0210482 -0.00385568 0)
(-0.0202857 -0.00676997 0)
(-0.018822 -0.00979068 0)
(-0.0165659 -0.0127915 0)
(-0.0134615 -0.0155479 0)
(-0.00959198 -0.0175883 0)
(-0.00488635 -0.0176008 0)
(-0.00113305 -0.0112163 0)
(-0.000640462 0.00932154 0)
(-0.0029941 0.0153115 0)
(-0.00621874 0.0160979 0)
(-0.00918565 0.0154832 0)
(-0.0120162 0.0144035 0)
(-0.0146428 0.0130239 0)
(-0.0170262 0.0113743 0)
(-0.0191361 0.00946245 0)
(-0.0209405 0.00728796 0)
(-0.022402 0.00484382 0)
(-0.0234733 0.00211891 0)
(-0.0240953 -0.000897296 0)
(-0.0241778 -0.00421674 0)
(-0.0236013 -0.00781868 0)
(-0.0222253 -0.0116458 0)
(-0.0198868 -0.0155632 0)
(-0.0164421 -0.0192898 0)
(-0.0119145 -0.0221819 0)
(-0.00619498 -0.022457 0)
(-0.00147736 -0.0144793 0)
(-0.000710911 0.0111788 0)
(-0.00333406 0.0183535 0)
(-0.00692648 0.0192825 0)
(-0.0102194 0.0185484 0)
(-0.0133594 0.017277 0)
(-0.0162784 0.0156678 0)
(-0.0189436 0.0137585 0)
(-0.0213329 0.0115585 0)
(-0.0234231 0.00906435 0)
(-0.0251846 0.0062603 0)
(-0.0265742 0.00311919 0)
(-0.0275373 -0.000395228 0)
(-0.0279697 -0.00431343 0)
(-0.0277159 -0.00866794 0)
(-0.0265774 -0.0134372 0)
(-0.0242874 -0.0185048 0)
(-0.0205549 -0.0235456 0)
(-0.0152532 -0.0277059 0)
(-0.00819895 -0.0285165 0)
(-0.00205312 -0.0187294 0)
(-0.000796734 0.0132543 0)
(-0.00374276 0.0217548 0)
(-0.00776857 0.0228308 0)
(-0.0114352 0.0219548 0)
(-0.0149226 0.0204691 0)
(-0.0181638 0.0186141 0)
(-0.0211362 0.0164378 0)
(-0.0238309 0.0139531 0)
(-0.0262393 0.0111542 0)
(-0.0283476 0.00801574 0)
(-0.0301292 0.00449091 0)
(-0.031528 0.000511391 0)
(-0.0324509 -0.00399592 0)
(-0.0327269 -0.00913821 0)
(-0.0320776 -0.0149746 0)
(-0.0301042 -0.021465 0)
(-0.0262908 -0.028292 0)
(-0.0201831 -0.0343757 0)
(-0.011456 -0.0362476 0)
(-0.00310645 -0.024567 0)
(-0.000903891 0.0155939 0)
(-0.00423883 0.0255825 0)
(-0.00877296 0.0267994 0)
(-0.0128614 0.0257448 0)
(-0.0167289 0.0240111 0)
(-0.0203127 0.0218862 0)
(-0.0236056 0.0194325 0)
(-0.0266174 0.0166692 0)
(-0.0293614 0.0135906 0)
(-0.0318488 0.0101631 0)
(-0.0340794 0.00632053 0)
(-0.0360248 0.00195973 0)
(-0.0376205 -0.00306655 0)
(-0.0386981 -0.00895788 0)
(-0.038928 -0.0159221 0)
(-0.0377653 -0.0241018 0)
(-0.0343836 -0.0333192 0)
(-0.0277169 -0.0423182 0)
(-0.0171664 -0.0462663 0)
(-0.00522879 -0.033157 0)
(-0.00104432 0.0182601 0)
(-0.00485467 0.0299175 0)
(-0.00998452 0.0312491 0)
(-0.0145412 0.0299578 0)
(-0.0188128 0.0279251 0)
(-0.0227457 0.0254947 0)
(-0.0263545 0.0227472 0)
(-0.029674 0.0197118 0)
(-0.0327467 0.0163871 0)
(-0.0356191 0.0127369 0)
(-0.0383342 0.00868085 0)
(-0.0409171 0.00408009 0)
(-0.0433716 -0.00128767 0)
(-0.0455904 -0.00773703 0)
(-0.0472636 -0.0157273 0)
(-0.0477575 -0.0257348 0)
(-0.0458932 -0.037992 0)
(-0.0396492 -0.0512701 0)
(-0.0279361 -0.0591533 0)
(-0.00989309 -0.0470761 0)
(-0.00124362 0.0213462 0)
(-0.00564915 0.0348674 0)
(-0.0114749 0.0362454 0)
(-0.0165404 0.034625 0)
(-0.0212256 0.0322198 0)
(-0.0254943 0.0294326 0)
(-0.0293902 0.0263645 0)
(-0.032979 0.0230592 0)
(-0.0363379 0.0195257 0)
(-0.0395568 0.0157345 0)
(-0.0427383 0.0116047 0)
(-0.0459964 0.00697558 0)
(-0.0494431 0.00156507 0)
(-0.0531553 -0.00505983 0)
(-0.0570096 -0.0136081 0)
(-0.0604818 -0.0251373 0)
(-0.0621765 -0.0407693 0)
(-0.0588838 -0.0598822 0)
(-0.0488875 -0.0751121 0)
(-0.0204794 -0.0713998 0)
(-0.00155285 0.0249418 0)
(-0.00673943 0.0405552 0)
(-0.0133679 0.0418776 0)
(-0.0189576 0.0398019 0)
(-0.0240401 0.0369063 0)
(-0.0286049 0.0336749 0)
(-0.0327297 0.030238 0)
(-0.0365142 0.0266532 0)
(-0.0400724 0.0229429 0)
(-0.0435407 0.0190983 0)
(-0.0470939 0.0150724 0)
(-0.0509587 0.0107486 0)
(-0.0554127 0.00587271 0)
(-0.060792 -9.09786e-05 0)
(-0.0674981 -0.00814035 0)
(-0.0757219 -0.0199734 0)
(-0.0842727 -0.0382026 0)
(-0.0886591 -0.0647437 0)
(-0.085177 -0.0934003 0)
(-0.0389386 -0.116056 0)
(-0.00199305 0.0296736 0)
(-0.00812461 0.0468592 0)
(-0.0157737 0.0477592 0)
(-0.0219275 0.0449453 0)
(-0.027386 0.0415431 0)
(-0.0321653 0.0379311 0)
(-0.0364111 0.0341884 0)
(-0.0402697 0.030363 0)
(-0.0438821 0.0265052 0)
(-0.0474069 0.0226547 0)
(-0.0510531 0.0188333 0)
(-0.0551416 0.0150088 0)
(-0.060204 0.0110517 0)
(-0.0670743 0.00654552 0)
(-0.0769092 0.000501678 0)
(-0.0912809 -0.00924985 0)
(-0.110293 -0.0269527 0)
(-0.125786 -0.0614265 0)
(-0.129613 -0.115787 0)
(-0.0514016 -0.196673 0)
(-0.00381429 0.0338885 0)
(-0.0118045 0.0561271 0)
(-0.0193731 0.0564281 0)
(-0.025653 0.0529773 0)
(-0.0311029 0.0484058 0)
(-0.0359647 0.0436565 0)
(-0.0402739 0.0389868 0)
(-0.0441311 0.0345103 0)
(-0.0476557 0.030295 0)
(-0.0510138 0.0263966 0)
(-0.0544519 0.0229287 0)
(-0.0583417 0.0200335 0)
(-0.0633245 0.0179398 0)
(-0.0705275 0.0167562 0)
(-0.0818783 0.0160676 0)
(-0.0997749 0.0131352 0)
(-0.12549 2.41734e-05 0)
(-0.144536 -0.0520617 0)
(-0.151494 -0.157616 0)
(-0.0345474 -0.311819 0)
(-0.00181695 0.0480481 0)
(-0.0105511 0.0597141 0)
(-0.0231145 0.0584278 0)
(-0.0301421 0.0532973 0)
(-0.0365506 0.0489327 0)
(-0.04133 0.0446738 0)
(-0.0450702 0.040495 0)
(-0.0480954 0.036375 0)
(-0.050635 0.0324053 0)
(-0.0528374 0.0286764 0)
(-0.0548598 0.0254756 0)
(-0.0569084 0.0230928 0)
(-0.0594628 0.0222789 0)
(-0.0634126 0.0236737 0)
(-0.0706401 0.0279494 0)
(-0.0824722 0.0301062 0)
(-0.10774 0.0193752 0)
(-0.117042 -0.0544988 0)
(-0.127149 -0.215609 0)
(-0.00272334 -0.41142 0)
(-0.011047 0.0393167 0)
(-0.0267995 0.0838937 0)
(-0.028654 0.0794288 0)
(-0.0368803 0.0729199 0)
(-0.0405849 0.0645941 0)
(-0.0428202 0.0566265 0)
(-0.0436136 0.0493907 0)
(-0.0435646 0.0429333 0)
(-0.0430016 0.0373011 0)
(-0.042021 0.0323962 0)
(-0.0409361 0.0285214 0)
(-0.0395342 0.0260336 0)
(-0.0382685 0.0259019 0)
(-0.0361528 0.029446 0)
(-0.0355023 0.0385909 0)
(-0.0275305 0.0456723 0)
(-0.033187 0.0423417 0)
(-0.00831147 -0.0440831 0)
(-0.0386162 -0.251522 0)
(0.0327104 -0.4578 0)
(-0.0745523 0.102311 0)
(-0.0587987 0.0651511 0)
(-0.0594012 0.0624667 0)
(-0.0397633 0.0548706 0)
(-0.0233137 0.0470178 0)
(-0.00586817 0.0406417 0)
(0.0102064 0.0354726 0)
(0.0250855 0.0308872 0)
(0.0380549 0.0270451 0)
(0.0502404 0.0233008 0)
(0.060301 0.0206871 0)
(0.0707555 0.0181848 0)
(0.0791604 0.0177629 0)
(0.0926399 0.0176088 0)
(0.0989745 0.0197592 0)
(0.136898 0.0175651 0)
(0.131718 -0.000621239 0)
(0.191851 -0.0578435 0)
(0.130374 -0.251292 0)
(0.114724 -0.434506 0)
(0.121157 0.140764 0)
(0.156498 0.087569 0)
(0.236728 0.0653139 0)
(0.292848 0.0500538 0)
(0.336952 0.0392898 0)
(0.374465 0.031298 0)
(0.405054 0.0254646 0)
(0.433263 0.02075 0)
(0.453389 0.0171797 0)
(0.476884 0.0142895 0)
(0.487225 0.011437 0)
(0.510471 0.0104336 0)
(0.510843 0.00732906 0)
(0.539009 0.00836935 0)
(0.527565 0.00494736 0)
(0.564033 0.00335392 0)
(0.531571 -0.00359437 0)
(0.553653 -0.0311031 0)
(0.422747 -0.0736029 0)
(0.27633 -0.150992 0)
)
;

boundaryField
{
    movingWall
    {
        type            fixedValue;
        value           uniform (1 0 0);
    }
    fixedWalls
    {
        type            noSlip;
    }
    frontAndBack
    {
        type            empty;
    }
}


// ************************************************************************* //
