/*--------------------------------*- C++ -*----------------------------------*\
  =========                 |
  \\      /  F ield         | OpenFOAM: The Open Source CFD Toolbox
   \\    /   O peration     | Website:  https://openfoam.org
    \\  /    A nd           | Version:  10
     \\/     M anipulation  |
\*---------------------------------------------------------------------------*/
FoamFile
{
    format      ascii;
    class       surfaceScalarField;
    location    "9.525";
    object      phi;
}
// * * * * * * * * * * * * * * * * * * * * * * * * * * * * * * * * * * * * * //

dimensions      [0 3 -1 0 0 0 0];

internalField   nonuniform List<scalar> 
760
(
-1.40878e-05
1.40872e-05
-4.56216e-05
3.15338e-05
-8.37038e-05
3.80822e-05
-0.000124162
4.04583e-05
-0.000165807
4.16445e-05
-0.000208411
4.26047e-05
-0.000251732
4.33202e-05
-0.000295092
4.33602e-05
-0.000337153
4.2061e-05
-0.00037569
3.85367e-05
-0.000407401
3.17118e-05
-0.000427839
2.0438e-05
-0.000431601
3.76179e-06
-0.000412856
-1.87454e-05
-0.000367255
-4.56011e-05
-0.00029435
-7.29046e-05
-0.000200955
-9.3395e-05
-0.000103377
-9.75778e-05
-2.61436e-05
-7.72336e-05
-2.61436e-05
-3.44891e-05
4.85763e-05
-9.73027e-05
9.43474e-05
-0.000171025
0.000111804
-0.000248728
0.000118162
-0.000327874
0.00012079
-0.000407356
0.000122086
-0.00048609
0.000122055
-0.000562382
0.000119652
-0.000633559
0.000113239
-0.000695687
0.000100664
-0.000743359
7.93842e-05
-0.000769557
4.66358e-05
-0.000766858
1.06323e-06
-0.000726631
-5.89729e-05
-0.000643116
-0.000129115
-0.000516274
-0.000199747
-0.000356769
-0.0002529
-0.000190369
-0.000263978
-5.59357e-05
-0.000211667
-8.20794e-05
-4.41457e-05
9.2722e-05
-0.000122057
0.000172259
-0.000212537
0.000202283
-0.000307238
0.000212864
-0.000403107
0.000216659
-0.000498763
0.000217742
-0.000592908
0.000216199
-0.000683637
0.000210381
-0.000768044
0.000197646
-0.000841877
0.000174496
-0.000899211
0.000136718
-0.000932472
7.98975e-05
-0.000932238
8.29266e-07
-0.000887563
-0.000103649
-0.000789614
-0.000227065
-0.000635441
-0.000353919
-0.000436079
-0.000452262
-0.000226049
-0.000474008
-6.1604e-05
-0.000376112
-0.000143683
-4.7916e-05
0.000140638
-0.000132411
0.000256754
-0.00023024
0.000300112
-0.000332454
0.000315078
-0.000435998
0.000320203
-0.0005397
0.000321444
-0.000642582
0.000319081
-0.000743167
0.000310966
-0.000839045
0.000293524
-0.000926421
0.000261872
-0.000999549
0.000209847
-0.00105009
0.000130441
-0.00106682
1.75592e-05
-0.00103504
-0.00013543
-0.000938413
-0.000323693
-0.000765316
-0.000527016
-0.000521619
-0.000695959
-0.000254276
-0.000741351
-5.62079e-05
-0.00057418
-0.000199891
-4.86691e-05
0.000189307
-0.000135424
0.000343509
-0.000236142
0.00040083
-0.000341701
0.000420637
-0.000449318
0.00042782
-0.000558347
0.000430473
-0.000668542
0.000429277
-0.000779367
0.000421791
-0.000889521
0.000403677
-0.000996349
0.0003687
-0.00109497
0.000308467
-0.00117701
0.000212486
-0.00122896
6.9506e-05
-0.0012314
-0.000132993
-0.00115613
-0.000398958
-0.00097298
-0.000710168
-0.000669692
-0.000999248
-0.000305584
-0.00110546
-4.75583e-05
-0.000832206
-0.00024745
-4.79219e-05
0.000237229
-0.000134754
0.000430342
-0.000236199
0.000502275
-0.000343144
0.000527582
-0.000453205
0.000537881
-0.000566472
0.00054374
-0.000683754
0.000546559
-0.000805918
0.000543955
-0.000933451
0.00053121
-0.0010658
0.000501046
-0.00120026
0.000442929
-0.00133024
0.000342464
-0.00144228
0.000181554
-0.00151418
-6.10984e-05
-0.00150001
-0.000413124
-0.00133361
-0.00087657
-0.000956489
-0.00137637
-0.000434592
-0.00162736
-5.42662e-05
-0.00121253
-0.000301716
-4.63098e-05
0.000283539
-0.000131949
0.000515982
-0.000232786
0.000603111
-0.000339755
0.000634551
-0.000450896
0.000649022
-0.000567127
0.000659971
-0.000690548
0.00066998
-0.000823883
0.00067729
-0.000970192
0.000677519
-0.00113243
0.000663288
-0.00131252
0.000623019
-0.00150966
0.0005396
-0.00171655
0.000388448
-0.00191076
0.000133103
-0.00202723
-0.000296651
-0.00193077
-0.000973025
-0.00148183
-0.00182532
-0.00075258
-0.00235661
-0.000141083
-0.00182403
-0.000442798
-4.40457e-05
0.000327585
-0.000127528
0.000599464
-0.000226575
0.000702158
-0.000332079
0.000740055
-0.00044243
0.000759373
-0.000559354
0.000776896
-0.0006863
0.000796925
-0.000828123
0.000819114
-0.000991229
0.000840625
-0.00118371
0.00085577
-0.0014153
0.000854607
-0.00169709
0.000821392
-0.00203728
0.000728635
-0.00241524
0.000511069
-0.00273716
2.52637e-05
-0.00276176
-0.000948421
-0.00228457
-0.0023025
-0.001398
-0.00324318
-0.00044028
-0.00278175
-0.000883079
-4.12572e-05
0.000368842
-0.00012176
0.000679967
-0.00021778
0.000798178
-0.000319977
0.000842252
-0.000426901
0.000866297
-0.000540906
0.0008909
-0.00066662
0.00092264
-0.00081093
0.000963424
-0.000983735
0.00101343
-0.00119934
0.00107137
-0.00147849
0.00113376
-0.0018489
0.0011918
-0.00233588
0.00121562
-0.00291458
0.00108977
-0.00341887
0.000529556
-0.00357508
-0.000792215
-0.0031925
-0.00268508
-0.00232789
-0.00410779
-0.00102705
-0.00408258
-0.00191013
-3.8201e-05
0.000407043
-0.000115158
0.000756925
-0.000206935
0.000889954
-0.000303697
0.000939014
-0.000403855
0.000966456
-0.000510043
0.000997088
-0.000627567
0.00104016
-0.000764629
0.00110049
-0.0009337
0.0011825
-0.00115407
0.00129174
-0.0014554
0.00143509
-0.00187677
0.00161316
-0.00244331
0.00178216
-0.00310538
0.00175184
-0.00366581
0.00108998
-0.00387862
-0.000579408
-0.00368976
-0.00287394
-0.00304418
-0.00475337
-0.00167769
-0.00544908
-0.00358782
-3.53911e-05
0.000442434
-0.00010878
0.000830313
-0.000195349
0.000976524
-0.000284488
0.00102815
-0.000374147
0.00105611
-0.000466727
0.00108967
-0.0005673
0.00114074
-0.000683792
0.00121698
-0.000828446
0.00132715
-0.00102027
0.00148356
-0.00128736
0.00170218
-0.001662
0.0019878
-0.00214997
0.00227013
-0.00267825
0.00228013
-0.00310343
0.00151516
-0.0032975
-0.000385331
-0.0032874
-0.00288404
-0.00293726
-0.00510351
-0.00187931
-0.00650702
-0.00546713
-3.38631e-05
0.000476297
-0.000104691
0.000901142
-0.000185623
0.00105746
-0.000265124
0.00110765
-0.000340635
0.00113163
-0.000413872
0.0011629
-0.000488614
0.00121548
-0.000570448
0.00129881
-0.00066744
0.00142415
-0.000790839
0.00160696
-0.000954465
0.00186581
-0.00116847
0.00220181
-0.00142431
0.00252597
-0.00167432
0.00253014
-0.00187987
0.00172071
-0.00202201
-0.000243198
-0.00216022
-0.00274583
-0.00217243
-0.0050913
-0.00157838
-0.00710107
-0.00704551
-3.47858e-05
0.000511083
-0.000105345
0.000971701
-0.000181332
0.00113344
-0.000250272
0.00117659
-0.000309007
0.00119036
-0.000358447
0.00121234
-0.000400692
0.00125772
-0.000437854
0.00133597
-0.000471903
0.00145819
-0.000503522
0.00163858
-0.000530031
0.00189232
-0.000541946
0.00221372
-0.00053228
0.00251631
-0.000505799
0.00250366
-0.000520487
0.0017354
-0.000655877
-0.000107808
-0.000958675
-0.00244303
-0.00129893
-0.00475105
-0.00113567
-0.00726433
-0.00818119
-4.23721e-05
0.000553455
-0.00011765
0.00104698
-0.000189066
0.00120486
-0.000245167
0.00123269
-0.000284627
0.00122982
-0.000308189
0.00123591
-0.00031584
0.00126537
-0.000306453
0.00132659
-0.000276648
0.00142839
-0.000218478
0.00158041
-0.000116946
0.00179079
4.58502e-05
0.00205093
0.00027202
0.00229014
0.000508237
0.00226744
0.000631672
0.00161196
0.000481285
4.25789e-05
4.37142e-05
-0.00200546
-0.000604405
-0.00410293
-0.000795593
-0.00707314
-0.00897678
-5.28959e-05
0.000606351
-0.000137369
0.00113145
-0.000209918
0.00127741
-0.000259391
0.00128217
-0.000282207
0.00125264
-0.000280095
0.00123379
-0.000253411
0.00123869
-0.00019979
0.00127297
-0.000113484
0.00134208
1.81248e-05
0.0014488
0.000207798
0.00160111
0.000477866
0.00178086
0.000832139
0.00193586
0.00120105
0.00189852
0.00141309
0.00139992
0.00126551
0.000190154
0.000717688
-0.00145763
-0.000106276
-0.00327896
-0.000517578
-0.00666184
-0.00949436
-0.000120758
0.000727109
-0.000219309
0.00123
-0.000274884
0.00133298
-0.000295616
0.0013029
-0.000289885
0.00124691
-0.00026055
0.00120446
-0.000205267
0.00118341
-0.000118557
0.00118626
7.71885e-06
0.00121581
0.000182782
0.00127374
0.000423391
0.00136051
0.000743067
0.00146118
0.00113658
0.00154235
0.00154126
0.00149385
0.00179043
0.00115076
0.00166772
0.000312865
0.00110082
-0.000890735
0.000210684
-0.00238883
-0.000304986
-0.00614617
-0.00979935
-7.77439e-05
0.000804853
-0.000242999
0.00139526
-0.000337315
0.0014273
-0.000367678
0.00133326
-0.000352566
0.00123179
-0.000302619
0.00115451
-0.000220221
0.00110101
-0.000102208
0.00106824
5.71281e-05
0.00105647
0.000267498
0.00106337
0.000537497
0.00109051
0.000874554
0.00112413
0.00126479
0.00115212
0.00165624
0.00110239
0.00190937
0.000897628
0.0018181
0.000404139
0.00133502
-0.000407654
0.000567301
-0.00162111
6.98436e-05
-0.00564871
-0.0097295
-0.000374574
0.00117943
-0.000419325
0.00144001
-0.000448789
0.00145676
-0.000464437
0.00134891
-0.000431549
0.00119891
-0.000356721
0.00107968
-0.000242968
0.000987256
-8.80086e-05
0.000913283
0.000107479
0.000860984
0.000349512
0.000821337
0.000637771
0.000802248
0.000974877
0.000787019
0.00134351
0.000783482
0.00169442
0.000751479
0.00195325
0.000638801
0.0019731
0.000384291
0.00181233
-0.000246883
0.00146293
-0.00127172
0.000830308
-0.00501609
-0.00889919
-0.00136299
0.00254242
-0.00132075
0.00139777
-0.00105203
0.00118804
-0.000670028
0.00096691
-0.000268525
0.000797403
0.000136778
0.000674382
0.000535412
0.000588621
0.000927682
0.000521013
0.00131536
0.000473306
0.00170425
0.000432446
0.00209972
0.000406779
0.00250423
0.000382511
0.00292487
0.00036284
0.00334463
0.000331715
0.00373256
0.000250876
0.0040006
0.00011625
0.00407751
-0.000323795
0.00394047
-0.00113467
0.00250239
-0.00357801
-0.0063968
0.00254242
0.00394019
0.00512823
0.00609514
0.00689254
0.00756692
0.00815554
0.00867656
0.00914986
0.00958231
0.00998909
0.0103716
0.0107344
0.0110662
0.011317
0.0114333
0.0111095
0.00997481
0.0063968
)
;

boundaryField
{
    movingWall
    {
        type            calculated;
        value           uniform 0;
    }
    fixedWalls
    {
        type            calculated;
        value           uniform 0;
    }
    frontAndBack
    {
        type            empty;
        value           nonuniform List<scalar> 0();
    }
}


// ************************************************************************* //
