/*--------------------------------*- C++ -*----------------------------------*\
  =========                 |
  \\      /  F ield         | OpenFOAM: The Open Source CFD Toolbox
   \\    /   O peration     | Website:  https://openfoam.org
    \\  /    A nd           | Version:  10
     \\/     M anipulation  |
\*---------------------------------------------------------------------------*/
FoamFile
{
    format      ascii;
    class       surfaceScalarField;
    location    "6.1";
    object      phi;
}
// * * * * * * * * * * * * * * * * * * * * * * * * * * * * * * * * * * * * * //

dimensions      [0 3 -1 0 0 0 0];

internalField   nonuniform List<scalar> 
760
(
-9.36291e-06
9.36289e-06
-3.09076e-05
2.15447e-05
-5.64876e-05
2.558e-05
-8.27778e-05
2.62903e-05
-0.000108698
2.59201e-05
-0.000133808
2.51102e-05
-0.000157683
2.38746e-05
-0.000179736
2.20532e-05
-0.000199176
1.94405e-05
-0.00021499
1.58133e-05
-0.000225939
1.0949e-05
-0.000230596
4.65697e-06
-0.000227427
-3.16903e-06
-0.000214983
-1.24438e-05
-0.000192202
-2.27811e-05
-0.000158826
-3.33755e-05
-0.000116101
-4.27249e-05
-6.79326e-05
-4.81688e-05
-2.3003e-05
-4.49295e-05
-2.3003e-05
-2.26883e-05
3.20512e-05
-6.44256e-05
6.3282e-05
-0.000112217
7.3371e-05
-0.000160703
7.47764e-05
-0.000207844
7.3061e-05
-0.000252584
6.98503e-05
-0.00029398
6.52714e-05
-0.000330948
5.90204e-05
-0.000362175
5.06676e-05
-0.000386097
3.97351e-05
-0.00040087
2.5722e-05
-0.000404518
8.30571e-06
-0.000394983
-1.27045e-05
-0.000370281
-3.71458e-05
-0.000329135
-6.3927e-05
-0.000271475
-9.10355e-05
-0.000199425
-0.000114775
-0.000119072
-0.000128522
-4.34145e-05
-0.000120587
-6.64175e-05
-2.82749e-05
6.0326e-05
-7.86766e-05
0.000113684
-0.000135728
0.000130422
-0.000193209
0.000132258
-0.000248798
0.00012865
-0.000301291
0.000122344
-0.000349631
0.000113611
-0.00039263
0.00010202
-0.000428878
8.69149e-05
-0.000456686
6.75437e-05
-0.000474108
4.31436e-05
-0.000478905
1.31029e-05
-0.000468487
-2.31226e-05
-0.000440512
-6.51207e-05
-0.00039314
-0.000111299
-0.000325827
-0.000158349
-0.000240583
-0.000200019
-0.000144361
-0.000224743
-5.2894e-05
-0.000212054
-0.000119312
-3.03923e-05
9.07184e-05
-8.46424e-05
0.000167934
-0.000145875
0.000191655
-0.000207502
0.000193885
-0.000267187
0.000188334
-0.000323787
0.000178944
-0.000376321
0.000166145
-0.000423679
0.000149378
-0.000464507
0.000127743
-0.000497111
0.000100148
-0.000519395
6.54267e-05
-0.000528839
2.25477e-05
-0.000522386
-2.95756e-05
-0.000496587
-9.09195e-05
-0.000448367
-0.000159519
-0.000375811
-0.000230905
-0.000280161
-0.000295669
-0.000169103
-0.000335801
-6.17977e-05
-0.000319359
-0.000181109
-3.14874e-05
0.000122206
-8.82419e-05
0.000224688
-0.000152388
0.000255801
-0.000217095
0.000258592
-0.000280093
0.000251331
-0.000340395
0.000239246
-0.000397204
0.000222954
-0.000449596
0.00020177
-0.000496376
0.000174522
-0.000535927
0.000139699
-0.000566039
9.55387e-05
-0.000583761
4.02692e-05
-0.000585349
-2.79867e-05
-0.000565847
-0.000110422
-0.000520129
-0.000205237
-0.000443826
-0.000307208
-0.000336114
-0.000403381
-0.00020505
-0.000466865
-7.50095e-05
-0.0004494
-0.000256119
-3.24921e-05
0.000154698
-9.1718e-05
0.000283914
-0.000158843
0.000322926
-0.000226781
0.00032653
-0.000293363
0.000317913
-0.000357826
0.000303709
-0.000419646
0.000284775
-0.000478204
0.000260328
-0.000532598
0.000228916
-0.000581437
0.000188538
-0.000622555
0.000136657
-0.000652642
7.03568e-05
-0.000667188
-1.34408e-05
-0.000659255
-0.000118355
-0.000620688
-0.000243804
-0.000543002
-0.000384895
-0.000421182
-0.0005252
-0.000261913
-0.000626135
-9.68786e-05
-0.000614434
-0.000352997
-3.36528e-05
0.000188351
-9.56847e-05
0.000345946
-0.000166163
0.000393404
-0.000237697
0.000398064
-0.000308238
0.000388455
-0.000377315
0.000372786
-0.000444785
0.000352245
-0.000510482
0.000326024
-0.000574006
0.000292441
-0.000634457
0.000248989
-0.000690026
0.000192226
-0.000737393
0.000117724
-0.000771418
2.05842e-05
-0.000783183
-0.00010659
-0.000760378
-0.000266609
-0.000688149
-0.000457124
-0.000553346
-0.000660004
-0.000356302
-0.000823179
-0.000136126
-0.000834611
-0.000489123
-3.50086e-05
0.000223359
-0.000100249
0.000411186
-0.000174449
0.000467604
-0.000249831
0.000473446
-0.000324494
0.000463117
-0.000398324
0.000446616
-0.000471677
0.000425598
-0.000545028
0.000399376
-0.000618764
0.000366177
-0.000692887
0.000323112
-0.000766524
0.000265863
-0.000837113
0.000188313
-0.00089895
8.24211e-05
-0.000942932
-6.26077e-05
-0.000951804
-0.000257737
-0.000901941
-0.000506987
-0.000765619
-0.000796326
-0.000524718
-0.00106408
-0.000214826
-0.0011445
-0.000703948
-3.65946e-05
0.000259954
-0.000105471
0.000480063
-0.00018368
0.000545813
-0.000262959
0.000552725
-0.000341562
0.000541721
-0.000419799
0.000524852
-0.00049864
0.000504439
-0.000579395
0.000480131
-0.000663561
0.000450343
-0.000752572
0.000412123
-0.000847293
0.000360584
-0.000947087
0.000288106
-0.00104809
0.000183426
-0.00114261
3.1906e-05
-0.00121084
-0.000189501
-0.00122052
-0.000497303
-0.00111998
-0.000896874
-0.000844227
-0.00133983
-0.00038483
-0.0016039
-0.00108878
-3.85332e-05
0.000298487
-0.000111568
0.000553098
-0.000194008
0.000628252
-0.00027699
0.000635707
-0.000358938
0.000623669
-0.000440627
0.000606541
-0.000523718
0.00058753
-0.000610512
0.000566925
-0.000703933
0.000543764
-0.000807465
0.000515655
-0.000924862
0.00047798
-0.00105941
0.000422658
-0.00121233
0.00033634
-0.00137923
0.000198807
-0.00155236
-1.63664e-05
-0.00169194
-0.000357727
-0.00170783
-0.000880985
-0.00142658
-0.00162108
-0.000721164
-0.00230931
-0.00180994
-4.11151e-05
0.000339602
-0.00011907
0.000631053
-0.00020595
0.000715133
-0.000292198
0.000721955
-0.000376433
0.000707904
-0.00045992
0.000690028
-0.000545021
0.000672632
-0.000635039
0.000656942
-0.000734437
0.000643163
-0.000849165
0.000630383
-0.000986967
0.000615783
-0.00115743
0.000593125
-0.00137164
0.000550545
-0.00164106
0.000468225
-0.00196962
0.000312198
-0.0023354
8.04726e-06
-0.00255954
-0.000656838
-0.00226922
-0.00191141
-0.00121139
-0.00336713
-0.00302134
-4.4927e-05
0.000384529
-0.000129029
0.000715154
-0.000220619
0.000806723
-0.000309449
0.000810784
-0.00039443
0.000792885
-0.000477338
0.000772936
-0.000561145
0.000756439
-0.000649965
0.000745762
-0.000749588
0.000742786
-0.000868342
0.000749138
-0.00101836
0.000765799
-0.00121742
0.000792186
-0.00149142
0.000824541
-0.00187518
0.000851991
-0.00239661
0.000833628
-0.00298959
0.000601022
-0.003377
-0.000269423
-0.0029986
-0.00228981
-0.00167607
-0.00468967
-0.00469741
-5.09893e-05
0.000435518
-0.000143204
0.000807369
-0.000239949
0.000903468
-0.000330533
0.000901368
-0.000414264
0.000876616
-0.000493494
0.000852166
-0.000571698
0.000834643
-0.000653256
0.00082732
-0.000744431
0.000833961
-0.000854822
0.000859528
-0.000999647
0.000910625
-0.0012035
0.000996038
-0.00150488
0.00112592
-0.00195118
0.00129829
-0.00256339
0.00144584
-0.00321619
0.00125382
-0.00354461
5.89922e-05
-0.00312189
-0.00271252
-0.00190102
-0.00591054
-0.00659842
-6.21135e-05
0.000497632
-0.000165722
0.000910978
-0.000267309
0.00100506
-0.000357402
0.000991461
-0.000437208
0.000956422
-0.000509728
0.000924686
-0.000577975
0.00090289
-0.000645836
0.000895181
-0.000718803
0.000906928
-0.000805402
0.000946127
-0.000919714
0.00102494
-0.00108451
0.00116084
-0.00133453
0.00137594
-0.00170131
0.00166507
-0.00217763
0.00192216
-0.00262456
0.00170074
-0.00284459
0.000279021
-0.00260972
-0.00294739
-0.00179483
-0.00672543
-0.00839325
-7.56196e-05
0.000573252
-0.000194107
0.00102946
-0.000304004
0.00111495
-0.000396777
0.00108423
-0.000471983
0.00103163
-0.000533911
0.000986614
-0.000586318
0.000955297
-0.000632299
0.000941161
-0.000674765
0.000949395
-0.000717623
0.000988985
-0.000767819
0.00107513
-0.000835056
0.00122807
-0.000935836
0.00147672
-0.00107146
0.00180069
-0.00124315
0.00209385
-0.00136831
0.00182591
-0.00148122
0.000391927
-0.00157271
-0.0028559
-0.0012798
-0.00701834
-0.00967306
-0.000142448
0.0007157
-0.000275334
0.00116235
-0.000373547
0.00121317
-0.000446015
0.0011567
-0.000503959
0.00108957
-0.000551248
0.0010339
-0.000588135
0.000992185
-0.000613089
0.000966115
-0.000623981
0.000960287
-0.000617166
0.00098217
-0.000588479
0.00104645
-0.000530467
0.00117006
-0.000437061
0.00138332
-0.000286817
0.00165045
-8.7902e-05
0.00189494
6.28897e-05
0.00167512
8.22326e-05
0.000372584
-0.000363042
-0.00241063
-0.000601851
-0.00677953
-0.0102749
-9.32713e-05
0.000808971
-0.000289901
0.00135898
-0.000430971
0.00135424
-0.000524443
0.00125017
-0.000582747
0.00114788
-0.000615704
0.00106686
-0.000627591
0.00100407
-0.000618555
0.000957078
-0.000585465
0.000927197
-0.000519105
0.00091581
-0.000406967
0.000934309
-0.000226645
0.000989739
4.93044e-05
0.00110737
0.000430916
0.00126883
0.000912245
0.00141361
0.00133911
0.00124826
0.00139001
0.000321685
0.000732979
-0.00175359
0.000119879
-0.00616643
-0.010155
-0.000387108
0.00119608
-0.000468268
0.00144014
-0.000547876
0.00143384
-0.000619504
0.0013218
-0.000646038
0.00117441
-0.00063394
0.00105476
-0.000589679
0.000959812
-0.00051382
0.000881219
-0.000408416
0.000821793
-0.000265859
0.000773253
-7.81906e-05
0.00074664
0.000173031
0.000738518
0.000512469
0.000767927
0.000958696
0.000822608
0.00150584
0.000866468
0.00199566
0.000758433
0.00228477
3.25801e-05
0.00190411
-0.00137294
0.0010121
-0.00527443
-0.00914293
-0.00135649
0.00255257
-0.00132231
0.00140596
-0.00107623
0.00118776
-0.000720095
0.000965664
-0.000341741
0.000796056
4.04052e-05
0.000672616
0.000413426
0.000586791
0.000775216
0.000519429
0.00112685
0.000470161
0.00147115
0.000428954
0.00181708
0.000400711
0.00217367
0.000381922
0.00257005
0.00037155
0.00302065
0.000372007
0.003567
0.000320116
0.00411157
0.000213865
0.00438269
-0.000238541
0.00421735
-0.0012076
0.00263717
-0.00369424
-0.00650576
0.00255257
0.00395853
0.00514629
0.00611196
0.00690802
0.00758063
0.00816742
0.00868685
0.00915701
0.00958597
0.00998668
0.0103686
0.0107401
0.0111122
0.0114323
0.0116461
0.0114076
0.0102
0.00650576
)
;

boundaryField
{
    movingWall
    {
        type            calculated;
        value           uniform 0;
    }
    fixedWalls
    {
        type            calculated;
        value           uniform 0;
    }
    frontAndBack
    {
        type            empty;
        value           nonuniform List<scalar> 0();
    }
}


// ************************************************************************* //
