/*--------------------------------*- C++ -*----------------------------------*\
  =========                 |
  \\      /  F ield         | OpenFOAM: The Open Source CFD Toolbox
   \\    /   O peration     | Website:  https://openfoam.org
    \\  /    A nd           | Version:  10
     \\/     M anipulation  |
\*---------------------------------------------------------------------------*/
FoamFile
{
    format      ascii;
    class       volScalarField;
    location    "9";
    object      p;
}
// * * * * * * * * * * * * * * * * * * * * * * * * * * * * * * * * * * * * * //

dimensions      [0 2 -2 0 0 0 0];

internalField   nonuniform List<scalar> 
475
(
-0.0413243
-0.066721
-0.0960035
-0.119543
-0.142106
-0.067132
-0.0804557
-0.0967297
-0.115791
-0.13278
-0.0652759
-0.0746492
-0.0895875
-0.107076
-0.12347
-0.0646723
-0.0754493
-0.0903085
-0.105804
-0.119409
-0.0348307
-0.061737
-0.0854015
-0.103088
-0.115935
-0.160368
-0.171426
-0.175695
-0.177075
-0.178175
-0.179755
-0.181756
-0.183474
-0.183853
-0.182082
-0.177653
-0.170381
-0.160384
-0.148456
-0.135442
-0.121988
-0.108495
-0.0954805
-0.0848017
-0.0782019
-0.0761862
-0.0773423
-0.0796768
-0.081694
-0.0829524
-0.0833904
-0.0829175
-0.0811173
-0.0780503
-0.0732949
-0.0672897
-0.0602941
-0.0527293
-0.0450517
-0.0375741
-0.0307867
-0.0246164
-0.0193222
-0.0148394
-0.0111326
-0.0082227
-0.00566475
-0.00366617
-0.00193988
-0.000536392
-0.149448
-0.161069
-0.166897
-0.168432
-0.168141
-0.167304
-0.166143
-0.164471
-0.162012
-0.158567
-0.154067
-0.148606
-0.142239
-0.135192
-0.127483
-0.11895
-0.109271
-0.0994471
-0.0917331
-0.0874847
-0.0870908
-0.0895137
-0.0928566
-0.0953785
-0.0965338
-0.0964412
-0.0951681
-0.0924026
-0.0878319
-0.0817405
-0.0743549
-0.0657849
-0.0566224
-0.0472546
-0.0381529
-0.0298586
-0.0223771
-0.0162359
-0.0111687
-0.00739067
-0.00459236
-0.00243546
-0.00111121
-0.000135549
0.00024184
-0.136908
-0.146477
-0.152126
-0.154307
-0.154062
-0.152175
-0.149228
-0.145494
-0.141264
-0.1368
-0.132672
-0.129717
-0.128447
-0.12865
-0.126866
-0.120207
-0.109274
-0.101159
-0.0975505
-0.0956991
-0.0945965
-0.0951467
-0.0964729
-0.0977634
-0.0984675
-0.098296
-0.0969482
-0.0939931
-0.0894808
-0.0832127
-0.0755018
-0.0665656
-0.0569966
-0.0471011
-0.0375182
-0.0286458
-0.0207366
-0.014269
-0.00902454
-0.00528821
-0.00251832
-0.000727989
0.000299015
0.000767979
0.000587143
-0.130298
-0.138188
-0.143118
-0.145085
-0.144456
-0.141569
-0.137071
-0.131293
-0.124922
-0.118589
-0.11386
-0.112355
-0.11604
-0.126358
-0.133401
-0.126359
-0.107182
-0.0923588
-0.0882458
-0.0919959
-0.0970362
-0.100193
-0.101492
-0.10144
-0.100598
-0.0990832
-0.0967374
-0.0932002
-0.088176
-0.0816825
-0.0739218
-0.0650685
-0.0555982
-0.0458371
-0.0363939
-0.0275694
-0.0198182
-0.01335
-0.00817143
-0.00436277
-0.00157386
9.6258e-05
0.00105672
0.00120591
0.000787722
-0.125648
-0.132877
-0.137529
-0.139412
-0.138495
-0.135092
-0.129715
-0.123008
-0.115725
-0.108786
-0.103889
-0.102568
-0.108172
-0.120986
-0.130748
-0.129229
-0.118523
-0.1064
-0.0982603
-0.0956987
-0.0962658
-0.0976066
-0.0986607
-0.0990568
-0.0986721
-0.0973821
-0.0949994
-0.0912852
-0.086237
-0.0797904
-0.0720895
-0.0633681
-0.0540468
-0.0445073
-0.0352741
-0.0266601
-0.0191007
-0.0127296
-0.0076554
-0.00383192
-0.00113657
0.000530678
0.00140223
0.00141526
0.000970984
-0.185205
-0.18562
-0.186068
-0.186828
-0.187853
-0.18964
-0.19237
-0.195595
-0.198228
-0.198728
-0.195467
-0.18741
-0.174251
-0.156243
-0.134223
-0.109755
-0.0847937
-0.0612489
-0.0406203
-0.023803
-0.0114195
-0.00351515
0.00031831
0.00084699
-0.00104663
-0.00445895
-0.00864577
-0.0131062
-0.0173417
-0.0213065
-0.0248651
-0.027908
-0.0303861
-0.0322245
-0.0333596
-0.0338017
-0.0334215
-0.0320102
-0.0294839
-0.0259247
-0.0216464
-0.0170122
-0.012179
-0.0072673
-0.00227857
-0.17995
-0.181908
-0.182715
-0.184317
-0.186513
-0.189585
-0.193481
-0.197716
-0.201254
-0.202566
-0.200026
-0.192697
-0.18012
-0.162299
-0.140174
-0.115298
-0.0898185
-0.0658868
-0.0449237
-0.0279064
-0.0152252
-0.00700656
-0.00287046
-0.00200795
-0.00354278
-0.00661858
-0.0104498
-0.0145395
-0.0187252
-0.0225333
-0.0257563
-0.0283597
-0.0304696
-0.0320936
-0.0331497
-0.033589
-0.033298
-0.0320272
-0.0295816
-0.0260509
-0.0218177
-0.0171142
-0.0122979
-0.00732166
-0.00231079
-0.188883
-0.187654
-0.187099
-0.18706
-0.188434
-0.191414
-0.195711
-0.200447
-0.204485
-0.20624
-0.203811
-0.19646
-0.18394
-0.166324
-0.144605
-0.120359
-0.0956963
-0.0726145
-0.0525389
-0.0362829
-0.0242738
-0.0166384
-0.0129433
-0.0122986
-0.0137481
-0.0164843
-0.0198158
-0.0231954
-0.0263709
-0.0291381
-0.0310766
-0.0322588
-0.0330266
-0.0335253
-0.0336358
-0.0332835
-0.0323826
-0.0306967
-0.0281557
-0.0246297
-0.0205895
-0.0162056
-0.0116646
-0.00711695
-0.00241772
-0.176409
-0.179149
-0.180531
-0.182409
-0.18497
-0.188583
-0.193207
-0.198107
-0.20209
-0.20381
-0.201641
-0.194689
-0.182738
-0.166183
-0.146073
-0.123964
-0.101725
-0.0811149
-0.0634511
-0.0495563
-0.0398039
-0.0340458
-0.0316573
-0.0316875
-0.0331708
-0.0353591
-0.0376668
-0.0395547
-0.0408352
-0.0414854
-0.0411367
-0.0399325
-0.0383041
-0.036532
-0.0345502
-0.0323774
-0.0301344
-0.0275927
-0.0247191
-0.0212766
-0.0176351
-0.0138262
-0.00987993
-0.00599243
-0.00208342
-0.212581
-0.193166
-0.189544
-0.187032
-0.186803
-0.188922
-0.192273
-0.195786
-0.198199
-0.198325
-0.195032
-0.187676
-0.17616
-0.161142
-0.143675
-0.125029
-0.106562
-0.0896212
-0.0755785
-0.0655274
-0.0597045
-0.0572378
-0.0570015
-0.0579932
-0.059483
-0.0609253
-0.061885
-0.0619836
-0.0608875
-0.0584112
-0.054855
-0.0505394
-0.0457576
-0.040865
-0.0360407
-0.0314965
-0.0273501
-0.0234959
-0.019925
-0.0164025
-0.0130833
-0.00986258
-0.00679369
-0.00398704
-0.00139239
)
;

boundaryField
{
    inlet
    {
        type            zeroGradient;
    }
    outlet
    {
        type            fixedValue;
        value           uniform 0;
    }
    upperWall
    {
        type            zeroGradient;
    }
    lowerWall
    {
        type            zeroGradient;
    }
    frontAndBack
    {
        type            empty;
    }
}


// ************************************************************************* //
