/*--------------------------------*- C++ -*----------------------------------*\
  =========                 |
  \\      /  F ield         | OpenFOAM: The Open Source CFD Toolbox
   \\    /   O peration     | Website:  https://openfoam.org
    \\  /    A nd           | Version:  10
     \\/     M anipulation  |
\*---------------------------------------------------------------------------*/
FoamFile
{
    format      ascii;
    class       surfaceScalarField;
    location    "9";
    object      phi;
}
// * * * * * * * * * * * * * * * * * * * * * * * * * * * * * * * * * * * * * //

dimensions      [0 3 -1 0 0 0 0];

internalField   nonuniform List<scalar> 
890
(
0.00984618
0.00015382
0.00971702
0.00012916
0.00946767
0.00024935
0.00941485
5.28215e-05
0.000149724
0.00926512
0.0101196
3.4256e-05
0.0102016
4.70977e-05
0.0104073
4.37232e-05
0.0104661
-6.02577e-06
-6.64928e-05
0.0106823
0.0100717
-3.74307e-05
0.0102153
-9.64684e-05
0.0103784
-0.000119454
0.0105216
-0.000149198
-0.000189012
0.0106441
0.0100898
-0.000127244
0.010214
-0.000220636
0.0103308
-0.000236281
0.010419
-0.000237384
-0.000251149
0.0104811
0.00987276
0.00965212
0.00941584
0.00917845
0.0089273
0.00926941
-9.83105e-05
9.40207e-05
0.00929332
-0.000260595
0.000236693
0.00936416
-0.000384066
0.000313221
0.00946718
-0.00048958
0.000386556
0.0095952
-0.000595204
0.000467191
0.00975015
-0.000724687
0.000569736
0.00992299
-0.000870554
0.000697714
0.0101047
-0.00103701
0.000855316
0.0102886
-0.00123248
0.00104852
0.0104591
-0.0014408
0.00127032
0.0106056
-0.00166349
0.00151704
0.0107145
-0.00187067
0.00176176
0.0107798
-0.00205882
0.00199349
0.0107878
-0.0021918
0.00218378
0.0107298
-0.00226088
0.00231896
0.0105874
-0.00224109
0.00238344
0.010368
-0.00215707
0.00237652
0.0101199
-0.0020741
0.00232214
0.0098568
-0.00196003
0.00222316
0.00957922
-0.00179085
0.00206843
0.009294
-0.00158599
0.00187121
0.00901177
-0.00135533
0.00163755
0.00874156
-0.00110571
0.00137592
0.00850484
-0.000864435
0.00110116
0.00831157
-0.000631133
0.000824396
0.00816479
-0.000405326
0.000552109
0.00806359
-0.000190766
0.000291961
0.0080007
1.41608e-05
4.87342e-05
0.00797936
0.000206524
-0.00018519
0.00798868
0.000385061
-0.000394379
0.00801964
0.000531958
-0.000562912
0.00806234
0.000661271
-0.00070397
0.0081114
0.000744955
-0.000794015
0.00815478
0.000815062
-0.000858446
0.00819051
0.000827299
-0.000863032
0.00820624
0.000830808
-0.000846532
0.00821162
0.000781832
-0.000787219
0.00819512
0.000730039
-0.000713531
0.00817027
0.000653061
-0.000628218
0.00812595
0.000571457
-0.000527137
0.00807404
0.000503156
-0.000451239
0.00800823
0.000429202
-0.000363397
0.00793141
0.000382441
-0.000305614
0.0078508
0.000345632
-0.000265029
0.000306193
-0.000220242
0.010749
-0.000164996
0.0107734
-0.000284953
0.0107947
-0.000405407
0.0108201
-0.000514948
0.0108486
-0.000623765
0.010862
-0.000738075
0.010864
-0.000872572
0.0108489
-0.00102187
0.0108141
-0.00119764
0.0107524
-0.00137915
0.0106556
-0.00156671
0.0105142
-0.0017293
0.0103293
-0.00187385
0.0100852
-0.00194776
0.00977163
-0.00194728
0.009368
-0.00183746
0.00891894
-0.00170801
0.00844526
-0.00160043
0.00796456
-0.00147933
0.00748996
-0.00131626
0.00703973
-0.00113575
0.00661703
-0.000932624
0.00623471
-0.000723392
0.00590851
-0.000538234
0.00565228
-0.000374899
0.00547177
-0.000224816
0.00536076
-7.97601e-05
0.00531503
5.98884e-05
0.00533118
0.00019038
0.00539946
0.000316779
0.00550565
0.000425766
0.00564028
0.000526641
0.0057872
0.000598032
0.00594125
0.000661015
0.00608805
0.0006805
0.0062214
0.000697457
0.00633795
0.00066528
0.00642683
0.000641163
0.00650053
0.000579358
0.00653714
0.000534847
0.00656321
0.000477088
0.00656149
0.000430923
0.00655267
0.000391255
0.00654203
0.000356276
0.000322253
0.0107293
-0.000250175
0.0107754
-0.000331021
0.0107898
-0.00041988
0.0107837
-0.000508808
0.0107555
-0.000595545
0.0107042
-0.00068681
0.0106247
-0.000793037
0.0105162
-0.000913351
0.0103699
-0.00105135
0.0101892
-0.00119848
0.00997814
-0.00135563
0.00973594
-0.0014871
0.00944859
-0.0015865
0.00904516
-0.00154432
0.00850547
-0.00140759
0.00789262
-0.00122461
0.00729002
-0.00110542
0.00661979
-0.000930194
0.00588899
-0.000748524
0.00518221
-0.000609484
0.00452668
-0.000480227
0.00394363
-0.000349568
0.00346161
-0.000241377
0.00308168
-0.000158305
0.00280169
-9.49076e-05
0.00261749
-4.0613e-05
0.00252227
1.54604e-05
0.00250211
8.00525e-05
0.00254428
0.000148206
0.00264274
0.000218316
0.0027841
0.000284412
0.00296209
0.000348646
0.00316086
0.000399267
0.00337843
0.000443446
0.00359489
0.000464041
0.00381183
0.000480515
0.00401161
0.000465496
0.00419859
0.000454181
0.00436354
0.000414408
0.00450793
0.000390464
0.00464134
0.000343671
0.00475518
0.000317082
0.0048678
0.000278637
0.00496851
0.000255566
0.000230245
0.0105108
-0.000279801
0.0104991
-0.000319323
0.01044
-0.000360781
0.0103375
-0.000406368
0.0101896
-0.000447647
0.0100008
-0.000497963
0.00975444
-0.000546702
0.00945563
-0.000614539
0.00908384
-0.000679565
0.00865281
-0.000767446
0.00814345
-0.000846275
0.00759241
-0.000936061
0.00701868
-0.00101277
0.00632415
-0.000849795
0.00543748
-0.000520919
0.0044155
-0.000202632
0.00328464
2.54501e-05
0.00222273
0.000131708
0.00136976
0.000104445
0.000786092
-2.58127e-05
0.000441814
-0.000135949
0.000256733
-0.000164487
0.000155644
-0.000140288
0.000101829
-0.00010449
7.91748e-05
-7.22531e-05
8.27398e-05
-4.4178e-05
0.000114398
-1.61978e-05
0.000181772
1.26789e-05
0.000287517
4.24612e-05
0.000430676
7.51567e-05
0.000607799
0.00010729
0.000817646
0.000138798
0.00105222
0.000164694
0.00130906
0.000186609
0.00157514
0.000197953
0.00184994
0.000205718
0.00211417
0.00020127
0.00237359
0.000194757
0.00261029
0.00017771
0.0028372
0.000163558
0.003039
0.000141871
0.00322867
0.000127405
0.00339948
0.000107827
0.00355641
9.86439e-05
8.68041e-05
0.0086475
0.00832818
0.0079674
0.00756103
0.00711339
0.00661542
0.00606872
0.00545418
0.00477462
0.00400717
0.0031609
0.00222483
0.00121206
0.000362266
-0.000158653
-0.000361285
-0.000335835
-0.000204127
-9.96816e-05
-0.000125494
-0.000261443
-0.00042593
-0.000566217
-0.000670708
-0.000742961
-0.000787139
-0.000803336
-0.000790657
-0.000748196
-0.00067304
-0.00056575
-0.000426952
-0.000262258
-7.56485e-05
0.000122304
0.000328023
0.000529293
0.00072405
0.00090176
0.00106532
0.00120719
0.00133459
0.00144242
0.00154107
2.53894e-05
-2.53894e-05
-1.72015e-05
4.2591e-05
-0.000138083
0.000120881
-0.000377223
0.00023914
-0.000732135
0.000354911
-0.00114662
0.000414485
-0.00157594
0.000429323
-0.00197883
0.000402886
-0.00232323
0.000344407
-0.00258211
0.000258879
-0.00273679
0.000154676
-0.00277072
3.3934e-05
-0.00268531
-8.54181e-05
-0.0024833
-0.000202001
-0.00217192
-0.000311388
-0.00176918
-0.000402736
-0.00129937
-0.00046981
-0.000787302
-0.000512068
-0.000256276
-0.000531026
0.000276182
-0.000532458
0.000786899
-0.000510717
0.00125501
-0.000468109
0.0016627
-0.000407688
0.00199638
-0.000333684
0.00224727
-0.000250888
0.00241184
-0.000164577
0.00248939
-7.75465e-05
0.00248385
5.54281e-06
0.00241079
7.30621e-05
0.00228021
0.000130574
0.00211
0.000170214
0.00191858
0.000191423
0.00172144
0.000197136
0.00153181
0.000189625
0.00135801
0.000173806
0.00120629
0.000151721
0.00108467
0.000121619
0.000999515
8.51534e-05
0.000949527
4.99878e-05
0.000931807
1.77197e-05
0.000935774
-3.96667e-06
0.000955556
-1.97825e-05
0.000983734
-2.81776e-05
0.00102002
-3.62883e-05
-3.36124e-05
-8.84526e-05
6.30631e-05
-0.000390492
0.000344631
-0.000755528
0.000485917
-0.00110128
0.000584891
-0.00139297
0.000646602
-0.00162726
0.000648774
-0.00180158
0.000603647
-0.0019128
0.000514105
-0.00195254
0.000384139
-0.00190898
0.000215323
-0.00176833
1.4022e-05
-0.00154195
-0.00019244
-0.0012159
-0.000411474
-0.000795257
-0.000622641
-0.000291882
-0.000814763
0.000274312
-0.00096893
0.000882246
-0.00107774
0.0015123
-0.00114212
0.00214682
-0.00116554
0.00276313
-0.00114877
0.00334496
-0.00109255
0.00387614
-0.000999283
0.0043431
-0.000874651
0.00473615
-0.000726736
0.00504828
-0.000563019
0.00527849
-0.000394785
0.00542698
-0.000226033
0.00549799
-6.54661e-05
0.00549286
7.81893e-05
0.00542149
0.000201946
0.00529075
0.000300949
0.00511277
0.000369409
0.00490225
0.000407656
0.00467805
0.000413817
0.00445394
0.000397923
0.00424222
0.000363441
0.00404934
0.000314501
0.00388391
0.000250577
0.00375404
0.000179859
0.00365697
0.000114787
0.00359179
6.12203e-05
0.00355173
2.0271e-05
0.00353175
-8.19865e-06
0.0035323
-3.68307e-05
-3.74112e-05
-0.000520691
0.000583755
-0.000720558
0.000544498
-0.000790943
0.000556302
-0.000772759
0.000566707
-0.000681069
0.000554912
-0.000537796
0.000505501
-0.000349232
0.000415083
-0.000118446
0.000283319
0.000159175
0.000106518
0.000492541
-0.000118043
0.000883221
-0.000376658
0.00133642
-0.000645641
0.00183879
-0.000913845
0.00238519
-0.00116904
0.00296235
-0.00139192
0.00355712
-0.0015637
0.00415409
-0.00167471
0.00473805
-0.00172609
0.00529508
-0.00172256
0.00581676
-0.00167045
0.00629267
-0.00156846
0.00671258
-0.00141919
0.00706921
-0.00123129
0.00735927
-0.00101679
0.00758252
-0.000786274
0.00774029
-0.000552556
0.00783622
-0.000321962
0.00787567
-0.000104914
0.00785519
9.86741e-05
0.00778188
0.000275248
0.00766494
0.000417888
0.00751078
0.000523574
0.00732737
0.000591065
0.00712324
0.000617949
0.00691323
0.000607933
0.00670411
0.000572557
0.00650757
0.000511046
0.00632217
0.000435977
0.00615648
0.00034555
0.00601263
0.000258638
0.00588912
0.000184724
0.00579567
0.000113729
0.00571598
7.14817e-05
0.00565747
2.16886e-05
3.10645e-06
-0.000266429
0.000850184
-0.000206557
0.000484626
-1.09342e-05
0.000360679
0.000294118
0.000261654
0.000684945
0.000164085
0.00113821
5.2234e-05
0.00163123
-7.79362e-05
0.00215122
-0.000236673
0.00269632
-0.000438582
0.0032585
-0.000680219
0.00383421
-0.000952365
0.00441964
-0.00123108
0.00501053
-0.00150473
0.00559349
-0.00175199
0.00615519
-0.00195362
0.00668636
-0.00209488
0.00717645
-0.00216481
0.00761922
-0.00216886
0.00801383
-0.00211717
0.00835787
-0.0020145
0.00864992
-0.0018605
0.00888973
-0.00165901
0.00907831
-0.00141986
0.00921832
-0.0011568
0.00931557
-0.000883524
0.00937326
-0.000610249
0.00939669
-0.000345392
0.00939094
-9.91632e-05
0.0093509
0.000138717
0.0092784
0.00034774
0.00918169
0.000514604
0.00905908
0.000646188
0.00891825
0.000731894
0.00875536
0.000780834
0.00858595
0.000777342
0.00840987
0.000748637
0.00823732
0.000683602
0.00806876
0.000604534
0.00790257
0.000511742
0.00775269
0.000408518
0.00760832
0.00032909
0.00748251
0.000239539
0.00736638
0.00018761
0.00724703
0.000141036
0.000101695
0.000944204
0.00166552
0.00233942
0.00298763
0.00361891
0.00424088
0.00486066
0.0054793
0.00608923
0.00667934
0.00724401
0.0077747
0.00826345
0.00869524
0.00906058
0.00934914
0.00956085
0.00971414
0.00982013
0.00987406
0.00988476
0.00986331
0.00981937
0.00976373
0.0097046
0.00964646
0.00959303
0.0095426
0.00949613
0.00944949
0.00940118
0.0093434
0.00928128
0.00920367
0.00911798
0.00902008
0.00891647
0.00880747
0.00869099
0.00857237
0.00845022
0.00832637
0.00820836
0.00808437
)
;

boundaryField
{
    inlet
    {
        type            calculated;
        value           nonuniform List<scalar> 5(-0.01 -0.01 -0.01 -0.01 -0.01);
    }
    outlet
    {
        type            calculated;
        value           nonuniform List<scalar> 10(0.00776485 0.00652597 0.00506052 0.00369985 0.00162787 0.00105363 0.0035361 0.00561695 0.00714845 0.00796582);
    }
    upperWall
    {
        type            calculated;
        value           uniform 0;
    }
    lowerWall
    {
        type            calculated;
        value           uniform 0;
    }
    frontAndBack
    {
        type            empty;
        value           nonuniform List<scalar> 0();
    }
}


// ************************************************************************* //
