/*--------------------------------*- C++ -*----------------------------------*\
  =========                 |
  \\      /  F ield         | OpenFOAM: The Open Source CFD Toolbox
   \\    /   O peration     | Website:  https://openfoam.org
    \\  /    A nd           | Version:  10
     \\/     M anipulation  |
\*---------------------------------------------------------------------------*/
FoamFile
{
    format      ascii;
    class       volVectorField;
    location    "9";
    object      U;
}
// * * * * * * * * * * * * * * * * * * * * * * * * * * * * * * * * * * * * * //

dimensions      [0 1 -1 0 0 0 0];

internalField   nonuniform List<vector> 
475
(
(0.974458 0.0160999 0)
(0.975624 0.00642815 0)
(0.950445 0.0314695 0)
(0.954116 0.00130624 0)
(0.920132 0.0302689 0)
(0.99839 0.00870321 0)
(1.01419 0.0148259 0)
(1.02524 0.0152376 0)
(1.04391 0.00871844 0)
(1.0556 0.00225462 0)
(0.999685 0.000273086 0)
(1.00997 -0.00294389 0)
(1.02404 -0.00465607 0)
(1.04145 -0.00931457 0)
(1.05626 -0.0142606 0)
(0.999713 -0.0100384 0)
(1.01043 -0.0195032 0)
(1.02248 -0.0220261 0)
(1.03575 -0.0230405 0)
(1.04426 -0.0255663 0)
(0.980789 -0.00965547 0)
(0.969135 -0.0191422 0)
(0.953692 -0.021807 0)
(0.933434 -0.0223189 0)
(0.907641 -0.0228693 0)
(0.924578 -0.0158587 0)
(0.931985 -0.0357777 0)
(0.937241 -0.0486376 0)
(0.943687 -0.0582582 0)
(0.952375 -0.0669375 0)
(0.965056 -0.0768405 0)
(0.980664 -0.0891087 0)
(0.999081 -0.104029 0)
(1.01824 -0.12221 0)
(1.03742 -0.142418 0)
(1.05469 -0.164575 0)
(1.06892 -0.186002 0)
(1.07825 -0.205998 0)
(1.08181 -0.221564 0)
(1.07902 -0.232035 0)
(1.06908 -0.235612 0)
(1.05217 -0.232918 0)
(1.02849 -0.225438 0)
(0.999776 -0.2139 0)
(0.969449 -0.198035 0)
(0.940017 -0.178468 0)
(0.912096 -0.155588 0)
(0.88576 -0.129955 0)
(0.861646 -0.10306 0)
(0.839959 -0.0759999 0)
(0.823087 -0.0495146 0)
(0.810142 -0.0243308 0)
(0.803163 -0.000401796 0)
(0.798162 0.0209563 0)
(0.79962 0.0406248 0)
(0.799507 0.0566562 0)
(0.806283 0.0706416 0)
(0.807331 0.0795208 0)
(0.815972 0.0866737 0)
(0.815295 0.0879273 0)
(0.822644 0.0877387 0)
(0.818781 0.0827285 0)
(0.822961 0.0762312 0)
(0.815912 0.0684205 0)
(0.817353 0.0586643 0)
(0.80737 0.0511296 0)
(0.807378 0.0423861 0)
(0.793496 0.036526 0)
(0.793215 0.0327129 0)
(0.776477 0.0278276 0)
(1.06868 -0.00835807 0)
(1.07789 -0.0207469 0)
(1.08267 -0.0326221 0)
(1.08436 -0.0435446 0)
(1.08455 -0.0546647 0)
(1.08532 -0.0667731 0)
(1.08515 -0.0812211 0)
(1.08545 -0.0978119 0)
(1.08306 -0.117431 0)
(1.07976 -0.138182 0)
(1.07183 -0.160341 0)
(1.06095 -0.18047 0)
(1.04403 -0.198127 0)
(1.02221 -0.208568 0)
(0.994165 -0.212014 0)
(0.959848 -0.206799 0)
(0.919032 -0.198831 0)
(0.871669 -0.189074 0)
(0.820649 -0.175057 0)
(0.77048 -0.156177 0)
(0.722634 -0.13511 0)
(0.678828 -0.113285 0)
(0.640069 -0.0921151 0)
(0.606008 -0.0718615 0)
(0.576792 -0.0523124 0)
(0.55467 -0.0332711 0)
(0.540413 -0.0149194 0)
(0.533109 0.00282058 0)
(0.531034 0.0195339 0)
(0.536778 0.0354064 0)
(0.544453 0.048637 0)
(0.55879 0.0605472 0)
(0.570421 0.0684176 0)
(0.588523 0.0754645 0)
(0.600164 0.0770025 0)
(0.617643 0.0784529 0)
(0.626869 0.0739626 0)
(0.639794 0.0701888 0)
(0.645683 0.0628456 0)
(0.652802 0.0563484 0)
(0.654807 0.0504422 0)
(0.656886 0.0444358 0)
(0.655043 0.0408562 0)
(0.65546 0.0371572 0)
(0.652576 0.033609 0)
(1.06876 -0.0222119 0)
(1.07665 -0.0324817 0)
(1.08087 -0.0437411 0)
(1.08145 -0.0544722 0)
(1.0788 -0.0651725 0)
(1.07477 -0.0759643 0)
(1.06714 -0.0884815 0)
(1.05906 -0.102025 0)
(1.04564 -0.118104 0)
(1.0316 -0.134685 0)
(1.01011 -0.152899 0)
(0.987408 -0.168497 0)
(0.956761 -0.181339 0)
(0.922769 -0.184794 0)
(0.879656 -0.176519 0)
(0.82809 -0.159099 0)
(0.763875 -0.146466 0)
(0.692983 -0.138822 0)
(0.624019 -0.130483 0)
(0.553363 -0.114911 0)
(0.482677 -0.0926058 0)
(0.419268 -0.0682014 0)
(0.366598 -0.0465486 0)
(0.324357 -0.030209 0)
(0.29165 -0.0181466 0)
(0.268727 -0.00845547 0)
(0.25526 0.000712114 0)
(0.249922 0.0106608 0)
(0.251311 0.0207295 0)
(0.259017 0.0303759 0)
(0.270798 0.0389834 0)
(0.287819 0.047102 0)
(0.305761 0.0532149 0)
(0.328049 0.0584324 0)
(0.348128 0.0602605 0)
(0.371482 0.061547 0)
(0.390867 0.0588087 0)
(0.410787 0.0574262 0)
(0.428784 0.0521625 0)
(0.442369 0.0496346 0)
(0.459618 0.0440708 0)
(0.467092 0.0407731 0)
(0.484424 0.0367086 0)
(0.488212 0.0335313 0)
(0.506028 0.0306692 0)
(1.05075 -0.0299517 0)
(1.05122 -0.0359362 0)
(1.04892 -0.0422807 0)
(1.04061 -0.0489287 0)
(1.02882 -0.0552534 0)
(1.01184 -0.0622332 0)
(0.990084 -0.0697084 0)
(0.964083 -0.0786173 0)
(0.930157 -0.0887095 0)
(0.892871 -0.100005 0)
(0.843229 -0.112199 0)
(0.79248 -0.122755 0)
(0.726253 -0.131941 0)
(0.660289 -0.131348 0)
(0.589229 -0.11519 0)
(0.506558 -0.0918161 0)
(0.394116 -0.0654752 0)
(0.269816 -0.0350606 0)
(0.169207 -0.00817689 0)
(0.0986706 0.000376242 0)
(0.0556945 -0.00260096 0)
(0.0324918 -0.00510196 0)
(0.0195234 -0.00495465 0)
(0.012128 -0.00377571 0)
(0.00830914 -0.0021862 0)
(0.00729205 -0.000149672 0)
(0.0089554 0.00260581 0)
(0.0139538 0.00610469 0)
(0.022703 0.0102214 0)
(0.035351 0.0149354 0)
(0.0514383 0.0196831 0)
(0.071159 0.0243915 0)
(0.0933051 0.028245 0)
(0.11836 0.031489 0)
(0.144058 0.0331045 0)
(0.171709 0.0341291 0)
(0.198065 0.0333622 0)
(0.224547 0.0323564 0)
(0.249646 0.0296105 0)
(0.271533 0.0275478 0)
(0.295801 0.0238813 0)
(0.31066 0.0220116 0)
(0.33575 0.0186278 0)
(0.342717 0.0171929 0)
(0.369956 0.0152406 0)
(0.880282 -0.0241915 0)
(0.848771 -0.0261385 0)
(0.815968 -0.0280533 0)
(0.777224 -0.0304424 0)
(0.736341 -0.0321874 0)
(0.68818 -0.0351553 0)
(0.637468 -0.0372161 0)
(0.578817 -0.0418581 0)
(0.515441 -0.044839 0)
(0.44392 -0.0515143 0)
(0.361816 -0.0550973 0)
(0.276333 -0.0615512 0)
(0.167072 -0.066831 0)
(0.0679868 -0.032892 0)
(0.000865779 0.0162893 0)
(-0.0312506 0.050617 0)
(-0.0374283 0.0687815 0)
(-0.0269256 0.0565278 0)
(-0.0128924 0.0252262 0)
(-0.00811535 -0.00675092 0)
(-0.018176 -0.0229424 0)
(-0.0351817 -0.0249529 0)
(-0.0507745 -0.0204271 0)
(-0.0628269 -0.0150723 0)
(-0.0714505 -0.0108335 0)
(-0.0771354 -0.00775453 0)
(-0.0800853 -0.00535805 0)
(-0.0802388 -0.00311394 0)
(-0.077457 -0.00098348 0)
(-0.0715277 0.00100888 0)
(-0.0623656 0.00280587 0)
(-0.0499651 0.00446779 0)
(-0.0347745 0.00580236 0)
(-0.0171187 0.00686996 0)
(0.00219866 0.00742856 0)
(0.0226631 0.00775126 0)
(0.042937 0.00746751 0)
(0.0629058 0.00694328 0)
(0.0814742 0.00607462 0)
(0.098513 0.0051597 0)
(0.114065 0.00428193 0)
(0.126823 0.00346718 0)
(0.140084 0.00276192 0)
(0.147354 0.00260113 0)
(0.16275 0.0023091 0)
(0.00251084 -0.0235475 0)
(0.00235833 -0.0232229 0)
(-0.00565775 -0.0157451 0)
(-0.0218706 -0.000836771 0)
(-0.0527101 0.0142712 0)
(-0.0934589 0.0228953 0)
(-0.13732 0.0259562 0)
(-0.18032 0.0261134 0)
(-0.218702 0.0240227 0)
(-0.249341 0.0202881 0)
(-0.269528 0.0152661 0)
(-0.277957 0.00941405 0)
(-0.274745 0.0026579 0)
(-0.259713 -0.00420687 0)
(-0.233413 -0.0106834 0)
(-0.197209 -0.0160669 0)
(-0.153308 -0.0197784 0)
(-0.104095 -0.0221394 0)
(-0.0519084 -0.0229594 0)
(0.00135078 -0.0225307 0)
(0.0536029 -0.021271 0)
(0.102634 -0.0189934 0)
(0.146565 -0.0158143 0)
(0.183836 -0.0120257 0)
(0.213208 -0.00793447 0)
(0.234329 -0.00369471 0)
(0.246559 0.000368831 0)
(0.250229 0.00401789 0)
(0.246248 0.00746919 0)
(0.235715 0.00974474 0)
(0.220188 0.0104621 0)
(0.20165 0.0102229 0)
(0.181786 0.00972462 0)
(0.162203 0.00887177 0)
(0.143766 0.00736815 0)
(0.127497 0.00525167 0)
(0.113794 0.00294807 0)
(0.103668 0.000822029 0)
(0.0969416 -0.000918635 0)
(0.0938281 -0.00208426 0)
(0.0931334 -0.00276846 0)
(0.0944232 -0.00322119 0)
(0.0970552 -0.00303237 0)
(0.0996854 -0.00294757 0)
(0.105353 -0.00202692 0)
(-0.000833832 0.0200302 0)
(-0.0179942 0.0333956 0)
(-0.0582929 0.0424625 0)
(-0.092953 0.0516188 0)
(-0.12629 0.0594171 0)
(-0.153089 0.0617663 0)
(-0.174097 0.0593282 0)
(-0.188876 0.0528157 0)
(-0.196996 0.0427782 0)
(-0.196812 0.0293192 0)
(-0.187099 0.0137107 0)
(-0.168011 -0.00367253 0)
(-0.139434 -0.0215617 0)
(-0.101654 -0.0389857 0)
(-0.0551763 -0.0548913 0)
(-0.00156602 -0.0678003 0)
(0.0580949 -0.0771132 0)
(0.120587 -0.0825814 0)
(0.183981 -0.0844519 0)
(0.246245 -0.08314 0)
(0.305665 -0.0790713 0)
(0.361164 -0.0722865 0)
(0.411076 -0.0631258 0)
(0.454386 -0.0520805 0)
(0.489728 -0.0398009 0)
(0.517346 -0.0271723 0)
(0.536537 -0.01444 0)
(0.547548 -0.00249297 0)
(0.5511 0.00845928 0)
(0.547552 0.0179615 0)
(0.537073 0.0252349 0)
(0.521154 0.0296563 0)
(0.500933 0.0311235 0)
(0.47897 0.0301945 0)
(0.456043 0.0280051 0)
(0.434513 0.0247932 0)
(0.414211 0.020728 0)
(0.396493 0.015481 0)
(0.381514 0.0103182 0)
(0.370307 0.00526922 0)
(0.361929 0.00178962 0)
(0.356943 -0.00106415 0)
(0.353577 -0.00293505 0)
(0.353227 -0.00431719 0)
(0.3536 -0.00457728 0)
(-0.0347038 -0.0107388 0)
(-0.0674076 0.0292687 0)
(-0.0768024 0.0481618 0)
(-0.079715 0.0594897 0)
(-0.0744623 0.0648487 0)
(-0.0626735 0.0636073 0)
(-0.0462862 0.0573964 0)
(-0.0248248 0.0463546 0)
(0.000227415 0.0308302 0)
(0.0304145 0.0113029 0)
(0.0668658 -0.0114805 0)
(0.109589 -0.0367388 0)
(0.158633 -0.0630906 0)
(0.211751 -0.0879246 0)
(0.269005 -0.110227 0)
(0.32823 -0.127887 0)
(0.387946 -0.140006 0)
(0.446765 -0.146714 0)
(0.503336 -0.148127 0)
(0.556573 -0.14494 0)
(0.605592 -0.137143 0)
(0.650013 -0.125041 0)
(0.688712 -0.109351 0)
(0.721388 -0.0910877 0)
(0.747147 -0.0709651 0)
(0.7667 -0.0503565 0)
(0.779642 -0.0298562 0)
(0.786604 -0.0102462 0)
(0.787551 0.00764565 0)
(0.783635 0.0229521 0)
(0.773742 0.035398 0)
(0.759859 0.04445 0)
(0.742019 0.0502856 0)
(0.722933 0.0521201 0)
(0.701308 0.0509719 0)
(0.681222 0.0472826 0)
(0.659836 0.0417292 0)
(0.642384 0.0343292 0)
(0.622847 0.0252976 0)
(0.609613 0.0174408 0)
(0.593121 0.0102012 0)
(0.585525 0.00493637 0)
(0.573591 0.00114961 0)
(0.569957 -0.00341313 0)
(0.561698 -0.00317617 0)
(-0.0298245 0.141502 0)
(-0.0256728 0.0894238 0)
(-0.0143393 0.0714766 0)
(0.0122374 0.0605155 0)
(0.0471244 0.0513794 0)
(0.0892776 0.0417689 0)
(0.136486 0.0291018 0)
(0.187108 0.0129013 0)
(0.239879 -0.00808395 0)
(0.295584 -0.0335906 0)
(0.353717 -0.0622096 0)
(0.413169 -0.0915747 0)
(0.473247 -0.12069 0)
(0.532933 -0.147578 0)
(0.590898 -0.170263 0)
(0.645942 -0.187349 0)
(0.696823 -0.197857 0)
(0.742802 -0.201917 0)
(0.783497 -0.200084 0)
(0.819229 -0.192852 0)
(0.850004 -0.180026 0)
(0.876248 -0.162013 0)
(0.897467 -0.139949 0)
(0.914351 -0.115183 0)
(0.926248 -0.0889581 0)
(0.934711 -0.0623972 0)
(0.938857 -0.0361784 0)
(0.940275 -0.0115656 0)
(0.937503 0.0112867 0)
(0.933152 0.0308909 0)
(0.923889 0.0468395 0)
(0.91356 0.0590544 0)
(0.898465 0.0672637 0)
(0.885017 0.0716934 0)
(0.866024 0.071472 0)
(0.851183 0.0684775 0)
(0.830593 0.0617486 0)
(0.817214 0.0539655 0)
(0.796658 0.0445109 0)
(0.784847 0.0344474 0)
(0.765481 0.0266019 0)
(0.757082 0.0176773 0)
(0.739289 0.0131843 0)
(0.734391 0.00782743 0)
(0.714851 0.00382279 0)
(0.0815613 0.00482138 0)
(0.119761 -0.00418562 0)
(0.202936 -0.0075221 0)
(0.268004 -0.0136706 0)
(0.32908 -0.0220991 0)
(0.391147 -0.0331284 0)
(0.453003 -0.0467398 0)
(0.515073 -0.0635901 0)
(0.576612 -0.0839102 0)
(0.637288 -0.107337 0)
(0.696798 -0.133433 0)
(0.753182 -0.159773 0)
(0.805341 -0.185096 0)
(0.852066 -0.207148 0)
(0.892303 -0.224199 0)
(0.925095 -0.235031 0)
(0.94994 -0.238847 0)
(0.967284 -0.236664 0)
(0.978063 -0.229371 0)
(0.983982 -0.217242 0)
(0.986271 -0.199993 0)
(0.985843 -0.177778 0)
(0.982695 -0.151616 0)
(0.978329 -0.123145 0)
(0.972473 -0.0939283 0)
(0.967303 -0.0648232 0)
(0.96143 -0.0367538 0)
(0.957515 -0.0103077 0)
(0.95195 0.0140257 0)
(0.948983 0.0353897 0)
(0.942278 0.0527312 0)
(0.939249 0.0670032 0)
(0.930223 0.0764688 0)
(0.926434 0.0827349 0)
(0.914389 0.0834684 0)
(0.909136 0.0819151 0)
(0.894624 0.0760853 0)
(0.888666 0.0683 0)
(0.872523 0.0592329 0)
(0.866051 0.0486274 0)
(0.847971 0.0405721 0)
(0.842585 0.0314125 0)
(0.822233 0.0253127 0)
(0.819659 0.0208931 0)
(0.796587 0.0164978 0)
)
;

boundaryField
{
    inlet
    {
        type            fixedValue;
        value           uniform (1 0 0);
    }
    outlet
    {
        type            zeroGradient;
    }
    upperWall
    {
        type            noSlip;
    }
    lowerWall
    {
        type            noSlip;
    }
    frontAndBack
    {
        type            empty;
    }
}


// ************************************************************************* //
