/*--------------------------------*- C++ -*----------------------------------*\
  =========                 |
  \\      /  F ield         | OpenFOAM: The Open Source CFD Toolbox
   \\    /   O peration     | Website:  https://openfoam.org
    \\  /    A nd           | Version:  10
     \\/     M anipulation  |
\*---------------------------------------------------------------------------*/
FoamFile
{
    format      ascii;
    class       surfaceScalarField;
    location    "1.4";
    object      phi;
}
// * * * * * * * * * * * * * * * * * * * * * * * * * * * * * * * * * * * * * //

dimensions      [0 3 -1 0 0 0 0];

internalField   nonuniform List<scalar> 
760
(
-1.40366e-05
1.40366e-05
-3.21198e-05
1.80832e-05
-4.97845e-05
1.76647e-05
-6.6223e-05
1.64385e-05
-8.10108e-05
1.47878e-05
-9.37884e-05
1.27777e-05
-0.000104245
1.0457e-05
-0.000112122
7.87701e-06
-0.000117213
5.09063e-06
-0.000119366
2.15284e-06
-0.000118487
-8.78496e-07
-0.000114546
-3.94159e-06
-0.000107579
-6.96713e-06
-9.76991e-05
-9.87966e-06
-8.5103e-05
-1.25961e-05
-7.00757e-05
-1.50273e-05
-5.29951e-05
-1.70806e-05
-3.43523e-05
-1.86428e-05
-1.50877e-05
-1.92645e-05
-1.50877e-05
-1.87492e-05
3.27858e-05
-4.22259e-05
4.15598e-05
-6.51169e-05
4.05558e-05
-8.6399e-05
3.77205e-05
-0.000105515
3.3904e-05
-0.000122001
2.92631e-05
-0.000135459
2.39157e-05
-0.000145565
1.79825e-05
-0.000152061
1.15867e-05
-0.000154761
4.85295e-06
-0.000153559
-2.08021e-06
-0.000148415
-9.08634e-06
-0.000139382
-1.59999e-05
-0.000126607
-2.26542e-05
-0.000110341
-2.88619e-05
-9.09485e-05
-3.44203e-05
-6.89127e-05
-3.91164e-05
-4.48683e-05
-4.26871e-05
-1.99966e-05
-4.41363e-05
-3.50843e-05
-1.99828e-05
5.27686e-05
-4.49889e-05
6.65659e-05
-6.93409e-05
6.49078e-05
-9.19609e-05
6.03405e-05
-0.000112264
5.42075e-05
-0.000129766
4.6765e-05
-0.000144057
3.82064e-05
-0.000154801
2.87265e-05
-0.000161736
1.85217e-05
-0.000164673
7.79029e-06
-0.000163481
-3.27268e-06
-0.000158122
-1.44453e-05
-0.000148636
-2.54861e-05
-0.000135156
-3.61343e-05
-0.000117925
-4.60924e-05
-9.73109e-05
-5.50344e-05
-7.3815e-05
-6.26124e-05
-4.81085e-05
-6.83936e-05
-2.14551e-05
-7.07897e-05
-5.65395e-05
-2.13397e-05
7.41083e-05
-4.80584e-05
9.32846e-05
-7.40525e-05
9.09019e-05
-9.81724e-05
8.44604e-05
-0.000119803
7.58382e-05
-0.000138442
6.54042e-05
-0.000153672
5.34363e-05
-0.000165154
4.02087e-05
-0.000172623
2.59906e-05
-0.000175882
1.10488e-05
-0.000174793
-4.36177e-06
-0.000169288
-1.99499e-05
-0.000159385
-3.53892e-05
-0.000145187
-5.03318e-05
-0.000126914
-6.4366e-05
-0.000104919
-7.70297e-05
-7.97141e-05
-8.78169e-05
-5.20172e-05
-9.60905e-05
-2.32111e-05
-9.95957e-05
-7.97506e-05
-2.32244e-05
9.73327e-05
-5.23029e-05
0.000122363
-8.05532e-05
0.000119152
-0.000106723
0.00011063
-0.000130156
9.92716e-05
-0.000150332
8.55795e-05
-0.000166826
6.99309e-05
-0.000179304
5.26862e-05
-0.000187501
3.41874e-05
-0.000191215
1.47632e-05
-0.000190296
-5.28097e-06
-0.000184639
-2.5607e-05
-0.000174222
-4.58063e-05
-0.0001591
-6.54536e-05
-0.000139444
-8.40214e-05
-0.00011558
-0.000100895
-8.80216e-05
-0.000115375
-5.75457e-05
-0.000126566
-2.5709e-05
-0.000131432
-0.00010546
-2.57268e-05
0.00012306
-5.79225e-05
0.000154559
-8.91334e-05
0.000150363
-0.00011797
0.000139467
-0.000143727
0.000125028
-0.000165864
0.000107717
-0.000183964
8.8031e-05
-0.000197705
6.64268e-05
-0.000206836
4.33179e-05
-0.000211156
1.90836e-05
-0.000210501
-5.93605e-06
-0.000204717
-3.13913e-05
-0.000193722
-5.68008e-05
-0.000177495
-8.16811e-05
-0.000156124
-0.000105392
-0.00012987
-0.000127148
-9.92322e-05
-0.000146013
-6.50499e-05
-0.000160749
-2.91172e-05
-0.000167365
-0.000134577
-2.89432e-05
0.000152003
-6.51235e-05
0.000190739
-0.000100083
0.000185322
-0.000132255
0.000171639
-0.000160876
0.00015365
-0.000185402
0.000132243
-0.00020544
0.000108068
-0.000220702
8.16896e-05
-0.000230973
5.35888e-05
-0.000236068
2.41783e-05
-0.000235812
-6.192e-06
-0.000229986
-3.72169e-05
-0.000218424
-6.83629e-05
-0.000200984
-9.91214e-05
-0.000177618
-0.000128758
-0.000148464
-0.000156302
-0.000113956
-0.000180521
-7.49866e-05
-0.000199718
-3.36604e-05
-0.000208691
-0.000168237
-3.30117e-05
0.000185014
-7.41958e-05
0.000231923
-0.000113798
0.000224925
-0.000150029
0.00020787
-0.00018207
0.000185691
-0.000209395
0.000159568
-0.000231669
0.000130343
-0.000248684
9.87047e-05
-0.00026029
6.51949e-05
-0.000266343
3.02312e-05
-0.000266673
-5.8618e-06
-0.000260981
-4.29092e-05
-0.000248979
-8.03652e-05
-0.000230346
-0.000117754
-0.000204816
-0.000154289
-0.000172301
-0.000188816
-0.000133076
-0.000219746
-8.80386e-05
-0.000244756
-3.96866e-05
-0.000257043
-0.000207924
-3.81376e-05
0.000223152
-8.55575e-05
0.000279343
-0.000130837
0.000270204
-0.000171909
0.000248942
-0.000207916
0.000221698
-0.000238397
0.000190049
-0.000263141
0.000155087
-0.000282078
0.000117641
-0.000295179
7.82961e-05
-0.000302381
3.74332e-05
-0.000303547
-4.69575e-06
-0.000298285
-4.81713e-05
-0.000286148
-9.25018e-05
-0.000266554
-0.000137348
-0.000238891
-0.000181951
-0.000202689
-0.000225018
-0.000157884
-0.000264551
-0.000105248
-0.000297392
-4.77519e-05
-0.000314539
-0.000255676
-4.46336e-05
0.000267786
-9.98221e-05
0.000334532
-0.000151989
0.000322371
-0.000198733
0.000295686
-0.000239204
0.000262168
-0.000273093
0.000223938
-0.000300412
0.000182405
-0.000321324
0.000138553
-0.000336006
9.29778e-05
-0.000344535
4.59616e-05
-0.000346854
-2.37636e-06
-0.000342479
-5.25458e-05
-0.000330774
-0.000104207
-0.000310786
-0.000157336
-0.000281384
-0.000211353
-0.000241459
-0.000264943
-0.000190295
-0.000315715
-0.000128243
-0.000359444
-5.87852e-05
-0.000383997
-0.000314461
-5.29948e-05
0.00032078
-0.000117912
0.000399449
-0.000178397
0.000382857
-0.000231661
0.000348949
-0.000276969
0.000307477
-0.000314318
0.000261287
-0.000344096
0.000212183
-0.000366843
0.000161301
-0.000383054
0.000109189
-0.00039303
5.59371e-05
-0.000396894
1.48767e-06
-0.000394057
-5.53827e-05
-0.000383705
-0.00011456
-0.000364409
-0.000176632
-0.000334275
-0.000241487
-0.000291172
-0.000308045
-0.000233203
-0.000373685
-0.000159652
-0.000432995
-7.44247e-05
-0.000469224
-0.000388886
-6.40395e-05
0.00038482
-0.000141251
0.000476661
-0.00021174
0.000453345
-0.000272308
0.000409517
-0.000322572
0.000357741
-0.000363083
0.000301798
-0.000394843
0.000243944
-0.000418967
0.000185425
-0.000436438
0.00012666
-0.000447924
6.74223e-05
-0.000453634
7.19838e-06
-0.000453263
-5.57541e-05
-0.000445657
-0.000122165
-0.000428876
-0.000193413
-0.000400031
-0.000270332
-0.000355403
-0.000352673
-0.000291034
-0.000438055
-0.000203847
-0.000520181
-9.77513e-05
-0.00057532
-0.000486637
-7.91881e-05
0.000464008
-0.000172095
0.000569567
-0.000254528
0.000535779
-0.000322951
0.00047794
-0.000377808
0.000412598
-0.000420607
0.000344596
-0.0004533
0.000276638
-0.000477855
0.000209979
-0.000495941
0.000144747
-0.000508729
8.02106e-05
-0.000516744
1.52131e-05
-0.000519915
-5.25829e-05
-0.000516982
-0.000125098
-0.000505517
-0.000204878
-0.000481498
-0.000294352
-0.000439034
-0.000395137
-0.00037066
-0.000506428
-0.000268368
-0.000622474
-0.000135016
-0.000708672
-0.000621653
-0.000101076
0.000565084
-0.00021415
0.000682641
-0.000310577
0.000632206
-0.000386814
0.000554177
-0.000445033
0.000470817
-0.000488296
0.000387859
-0.000520029
0.000308371
-0.000543379
0.000233329
-0.000560912
0.000162279
-0.000574482
9.37809e-05
-0.000585069
2.57999e-05
-0.000593012
-4.46405e-05
-0.000597232
-0.000120877
-0.00059509
-0.00020702
-0.000581585
-0.000307857
-0.000548295
-0.000428427
-0.000482779
-0.000571944
-0.000366651
-0.000738602
-0.000200784
-0.000874539
-0.000822437
-0.000133874
0.000698958
-0.000273008
0.000821775
-0.000385517
0.000744715
-0.00046839
0.00063705
-0.000527214
0.000529641
-0.000567672
0.000428317
-0.000595365
0.000336065
-0.000614966
0.00025293
-0.000630084
0.000177398
-0.00064336
0.000107056
-0.000656451
3.88912e-05
-0.000670276
-3.08155e-05
-0.000684468
-0.000106686
-0.00069685
-0.000194639
-0.000702332
-0.000302375
-0.000690142
-0.000440617
-0.000642717
-0.000619369
-0.000521997
-0.000859321
-0.000321475
-0.00107506
-0.00114391
-0.000196824
0.000895781
-0.000362573
0.000987525
-0.000489412
0.000871554
-0.000574032
0.00072167
-0.000627914
0.000583522
-0.000660087
0.00046049
-0.000679029
0.000355006
-0.000691163
0.000265064
-0.000701166
0.000187401
-0.000712408
0.000118298
-0.000727252
5.3735e-05
-0.000747419
-1.06482e-05
-0.000773982
-8.01221e-05
-0.000806314
-0.000162307
-0.000841741
-0.000266947
-0.000867563
-0.000414795
-0.000868182
-0.00061875
-0.000766228
-0.000961275
-0.000552518
-0.00128877
-0.00169643
-0.000249558
0.00114534
-0.000472489
0.00121046
-0.000625878
0.00102494
-0.000709348
0.00080514
-0.000749189
0.000623364
-0.000763937
0.000475238
-0.000766777
0.000357847
-0.000765973
0.00026426
-0.000766846
0.000188274
-0.000773037
0.000124489
-0.000787281
6.79791e-05
-0.000812767
1.48385e-05
-0.000851624
-4.12651e-05
-0.000905986
-0.000107945
-0.000982606
-0.000190327
-0.00106303
-0.000334375
-0.00116527
-0.000516506
-0.00113065
-0.000995893
-0.000936605
-0.00148282
-0.00263304
-0.000566184
0.00171152
-0.00073916
0.00138343
-0.000832987
0.00111877
-0.000867979
0.000840132
-0.000858758
0.000614143
-0.000831888
0.000448368
-0.000801677
0.000327635
-0.000775509
0.000238092
-0.000757794
0.000170559
-0.000751494
0.000118189
-0.000759362
7.58467e-05
-0.000784011
3.94879e-05
-0.000830219
4.94256e-06
-0.00090683
-3.13341e-05
-0.00102665
-7.05033e-05
-0.0011731
-0.000187934
-0.00136268
-0.000326922
-0.00141181
-0.000946764
-0.00114627
-0.00174836
-0.0037793
-0.00102862
0.00274014
-0.000956001
0.00131082
-0.000781244
0.000944012
-0.000579698
0.000638586
-0.000387246
0.00042169
-0.000225733
0.000286855
-0.000100075
0.000201976
-6.7295e-06
0.000144747
5.96145e-05
0.000104215
0.000103246
7.45578e-05
0.000126882
5.22102e-05
0.000132622
3.3748e-05
0.000119592
1.79731e-05
8.79289e-05
3.28621e-07
5.2053e-05
-3.46275e-05
-3.45354e-05
-0.000101346
-5.4072e-05
-0.000307386
-0.000231542
-0.000769294
-0.000142153
-0.00183775
-0.00392146
0.00274014
0.00405096
0.00499497
0.00563355
0.00605525
0.0063421
0.00654408
0.00668882
0.00679304
0.0068676
0.00691981
0.00695356
0.00697153
0.00697186
0.00693723
0.00683588
0.0065285
0.0057592
0.00392146
)
;

boundaryField
{
    movingWall
    {
        type            calculated;
        value           uniform 0;
    }
    fixedWalls
    {
        type            calculated;
        value           uniform 0;
    }
    frontAndBack
    {
        type            empty;
        value           nonuniform List<scalar> 0();
    }
}


// ************************************************************************* //
