/*--------------------------------*- C++ -*----------------------------------*\
  =========                 |
  \\      /  F ield         | OpenFOAM: The Open Source CFD Toolbox
   \\    /   O peration     | Website:  https://openfoam.org
    \\  /    A nd           | Version:  10
     \\/     M anipulation  |
\*---------------------------------------------------------------------------*/
FoamFile
{
    format      ascii;
    class       volVectorField;
    location    "1.4";
    object      U;
}
// * * * * * * * * * * * * * * * * * * * * * * * * * * * * * * * * * * * * * //

dimensions      [0 1 -1 0 0 0 0];

internalField   nonuniform List<vector> 
400
(
(-0.000320147 0.000315835 0)
(-0.00112703 0.000411712 0)
(-0.00205629 0.000402557 0)
(-0.00291081 0.000374838 0)
(-0.00369381 0.000337518 0)
(-0.00438519 0.000292008 0)
(-0.00496788 0.00023937 0)
(-0.00542766 0.000180729 0)
(-0.00575289 0.000117277 0)
(-0.00593463 5.0265e-05 0)
(-0.00596676 -1.8942e-05 0)
(-0.00584611 -8.901e-05 0)
(-0.0055728 -0.00015828 0)
(-0.00515055 -0.000224997 0)
(-0.00458703 -0.000287237 0)
(-0.00389423 -0.000342946 0)
(-0.00308901 -0.000390001 0)
(-0.00219371 -0.000425841 0)
(-0.00120927 -0.000439958 0)
(-0.000345897 -0.000341045 0)
(-0.000432324 0.00113135 0)
(-0.00149328 0.00144541 0)
(-0.00269572 0.00141134 0)
(-0.00380312 0.00131316 0)
(-0.00481646 0.00118094 0)
(-0.00570964 0.00101998 0)
(-0.00646077 0.000834275 0)
(-0.00705182 0.000627953 0)
(-0.00746825 0.00040529 0)
(-0.00769902 0.000170683 0)
(-0.0077368 -7.13725e-05 0)
(-0.00757789 -0.000315709 0)
(-0.0072226 -0.000556949 0)
(-0.00667589 -0.000789119 0)
(-0.00594761 -0.00100562 0)
(-0.00505305 -0.00119937 0)
(-0.00401374 -0.00136297 0)
(-0.0028583 -0.00148736 0)
(-0.00159074 -0.0015373 0)
(-0.000462894 -0.00121334 0)
(-0.000460753 0.00213047 0)
(-0.00159138 0.00269203 0)
(-0.00287162 0.00262595 0)
(-0.00404913 0.00244192 0)
(-0.00512581 0.00219442 0)
(-0.00607423 0.00189367 0)
(-0.00687164 0.00154741 0)
(-0.0074995 0.00116347 0)
(-0.0079429 0.000749841 0)
(-0.00819062 0.000314611 0)
(-0.00823461 -0.000133935 0)
(-0.00807063 -0.000586695 0)
(-0.00769871 -0.00103387 0)
(-0.00712308 -0.0014646 0)
(-0.00635305 -0.00186678 0)
(-0.00540373 -0.00222728 0)
(-0.00429718 -0.0025322 0)
(-0.0030635 -0.00276435 0)
(-0.00170646 -0.00285967 0)
(-0.000496805 -0.00228027 0)
(-0.000491858 0.00316113 0)
(-0.00169981 0.00398164 0)
(-0.00306746 0.00388125 0)
(-0.00432365 0.00360749 0)
(-0.00547114 0.00324035 0)
(-0.00648124 0.00279527 0)
(-0.00733055 0.00228393 0)
(-0.00800031 0.001718 0)
(-0.00847549 0.0011091 0)
(-0.00874461 0.000468825 0)
(-0.00879931 -0.000190931 0)
(-0.00863444 -0.000857831 0)
(-0.00824867 -0.00151778 0)
(-0.00764489 -0.00215515 0)
(-0.00683101 -0.00275227 0)
(-0.00582112 -0.00328954 0)
(-0.00463717 -0.0037458 0)
(-0.00331078 -0.00409466 0)
(-0.00184604 -0.00424095 0)
(-0.000537606 -0.00339317 0)
(-0.000535247 0.00427076 0)
(-0.00185011 0.00537074 0)
(-0.00333796 0.00523192 0)
(-0.004702 0.00486001 0)
(-0.00594598 0.00436302 0)
(-0.00703957 0.0037625 0)
(-0.00795883 0.00307463 0)
(-0.00868498 0.00231522 0)
(-0.00920317 0.00149952 0)
(-0.00950189 0.000642357 0)
(-0.00957238 -0.00024141 0)
(-0.00940819 -0.00113629 0)
(-0.0090061 -0.00202456 0)
(-0.00836675 -0.00288607 0)
(-0.00749554 -0.00369737 0)
(-0.00640451 -0.00443167 0)
(-0.00511484 -0.00505915 0)
(-0.00365984 -0.00554199 0)
(-0.00204418 -0.00574927 0)
(-0.000595912 -0.00461009 0)
(-0.000592997 0.0054899 0)
(-0.00204952 0.00689656 0)
(-0.00369566 0.00671298 0)
(-0.00520063 0.00623065 0)
(-0.00656952 0.0055892 0)
(-0.00777017 0.00481762 0)
(-0.00877842 0.00393754 0)
(-0.00957605 0.00296926 0)
(-0.010149 0.00193168 0)
(-0.0104862 0.000842431 0)
(-0.0105786 -0.00028136 0)
(-0.0104182 -0.00142207 0)
(-0.009999 -0.00255911 0)
(-0.00931821 -0.0036683 0)
(-0.00837709 -0.00472043 0)
(-0.00718385 -0.00568057 0)
(-0.00575742 -0.00650823 0)
(-0.00413241 -0.00715086 0)
(-0.00231408 -0.00743474 0)
(-0.000675763 -0.00597375 0)
(-0.000667386 0.00685109 0)
(-0.00230563 0.0085989 0)
(-0.00415331 0.00836107 0)
(-0.00583558 0.00775102 0)
(-0.00735954 0.00694509 0)
(-0.00869129 0.00598177 0)
(-0.00980724 0.00488934 0)
(-0.0106909 0.00369324 0)
(-0.01133 0.00241588 0)
(-0.011715 0.00107698 0)
(-0.0118369 -0.00030519 0)
(-0.011686 -0.00171243 0)
(-0.0112524 -0.00312274 0)
(-0.0105281 -0.00450903 0)
(-0.00950788 -0.00583666 0)
(-0.00819312 -0.00706173 0)
(-0.0065977 -0.00813046 0)
(-0.004756 -0.0089706 0)
(-0.00267318 -0.00935519 0)
(-0.000782694 -0.00753412 0)
(-0.000761767 0.00839308 0)
(-0.00262933 0.0105245 0)
(-0.00472867 0.0102181 0)
(-0.00662862 0.00945597 0)
(-0.00833939 0.00845832 0)
(-0.00982597 0.0072761 0)
(-0.011067 0.00594611 0)
(-0.0120495 0.00449964 0)
(-0.0127653 0.00296232 0)
(-0.0132073 0.00135487 0)
(-0.013368 -0.000305076 0)
(-0.0132358 -0.00200109 0)
(-0.0127956 -0.00371225 0)
(-0.0120321 -0.00541077 0)
(-0.0109298 -0.00705772 0)
(-0.00947866 -0.0085998 0)
(-0.00768225 -0.00996683 0)
(-0.00557105 -0.0110598 0)
(-0.00314807 -0.0115828 0)
(-0.000925455 -0.00935546 0)
(-0.000881226 0.0101629 0)
(-0.00303659 0.0127291 0)
(-0.00544705 0.012332 0)
(-0.0076098 0.0113833 0)
(-0.00954016 0.0101568 0)
(-0.0112036 0.00872027 0)
(-0.0125837 0.00712162 0)
(-0.0136747 0.0053988 0)
(-0.0144749 0.00358013 0)
(-0.0149824 0.0016856 0)
(-0.0151929 -0.000270404 0)
(-0.0150932 -0.00227668 0)
(-0.0146621 -0.00431727 0)
(-0.0138736 -0.00636769 0)
(-0.012697 -0.00838769 0)
(-0.0111035 -0.0103152 0)
(-0.00907777 -0.0120604 0)
(-0.00663814 -0.0134882 0)
(-0.00378057 -0.0142098 0)
(-0.00111844 -0.0115236 0)
(-0.00103377 0.0122201 0)
(-0.00355148 0.015281 0)
(-0.00634507 0.0147589 0)
(-0.00882102 0.0135737 0)
(-0.0110033 0.0120672 0)
(-0.0128612 0.0103303 0)
(-0.0143885 0.00842493 0)
(-0.0155911 0.0063968 0)
(-0.0164785 0.00427579 0)
(-0.0170578 0.00207859 0)
(-0.0173303 -0.00018722 0)
(-0.0172826 -0.00252091 0)
(-0.0168866 -0.00491683 0)
(-0.0161026 -0.00736055 0)
(-0.0148774 -0.00981677 0)
(-0.013153 -0.012218 0)
(-0.0108805 -0.0144531 0)
(-0.00804967 -0.016339 0)
(-0.00463878 -0.017357 0)
(-0.00138662 -0.0141597 0)
(-0.00123263 0.0146436 0)
(-0.00421142 0.0182662 0)
(-0.00747676 0.0175646 0)
(-0.0103216 0.01607 0)
(-0.0127847 0.0142125 0)
(-0.014846 0.0121146 0)
(-0.0165173 0.00985653 0)
(-0.017824 0.00749195 0)
(-0.0187932 0.00505049 0)
(-0.0194455 0.00254153 0)
(-0.0197924 -4.0256e-05 0)
(-0.0198228 -0.00270688 0)
(-0.0195017 -0.00547522 0)
(-0.0187735 -0.00834981 0)
(-0.0175545 -0.0113113 0)
(-0.0157419 -0.0142972 0)
(-0.0132305 -0.0171773 0)
(-0.0099496 -0.0197097 0)
(-0.00583843 -0.0211866 0)
(-0.00177611 -0.0174448 0)
(-0.00150089 0.0175435 0)
(-0.00507665 0.0217965 0)
(-0.00892347 0.0208274 0)
(-0.0121964 0.0189144 0)
(-0.0149599 0.0166067 0)
(-0.0172174 0.0140684 0)
(-0.0190114 0.0114022 0)
(-0.0203973 0.00866963 0)
(-0.0214291 0.00589645 0)
(-0.0221487 0.00307927 0)
(-0.0225788 0.000193266 0)
(-0.0227177 -0.00279593 0)
(-0.0225296 -0.00593653 0)
(-0.0219388 -0.00926627 0)
(-0.020825 -0.0127997 0)
(-0.0190216 -0.0165006 0)
(-0.0163332 -0.0202377 0)
(-0.012567 -0.0237077 0)
(-0.0075861 -0.0259181 0)
(-0.00237809 -0.021667 0)
(-0.00188137 0.0210847 0)
(-0.00624821 0.0260204 0)
(-0.0108099 0.0246399 0)
(-0.0145691 0.0221436 0)
(-0.0176321 0.0192461 0)
(-0.0200508 0.0161637 0)
(-0.0219163 0.013025 0)
(-0.0233299 0.0098957 0)
(-0.0243837 0.00679122 0)
(-0.0251488 0.00368842 0)
(-0.0256677 0.000535393 0)
(-0.0259528 -0.0027382 0)
(-0.0259722 -0.00621963 0)
(-0.0256368 -0.00999888 0)
(-0.0247891 -0.0141513 0)
(-0.0231832 -0.0187042 0)
(-0.0204893 -0.0235704 0)
(-0.0162734 -0.0284324 0)
(-0.0102678 -0.0318427 0)
(-0.00338361 -0.027318 0)
(-0.00245918 0.0254863 0)
(-0.00790489 0.03112 0)
(-0.0133311 0.0291034 0)
(-0.017621 0.0257754 0)
(-0.0209416 0.0220941 0)
(-0.023439 0.0183364 0)
(-0.0252796 0.0146547 0)
(-0.0266313 0.0111082 0)
(-0.0276365 0.00769087 0)
(-0.0284047 0.00435054 0)
(-0.0290056 0.000999913 0)
(-0.0294729 -0.00247555 0)
(-0.0297905 -0.00621524 0)
(-0.0298706 -0.0103817 0)
(-0.0295304 -0.015147 0)
(-0.0284452 -0.020663 0)
(-0.0261288 -0.0269703 0)
(-0.0216777 -0.0338991 0)
(-0.014637 -0.0392589 0)
(-0.00521991 -0.0353649 0)
(-0.00337762 0.0314891 0)
(-0.0103253 0.037462 0)
(-0.016776 0.0343587 0)
(-0.0216139 0.0297902 0)
(-0.0250732 0.0250596 0)
(-0.0274908 0.0204673 0)
(-0.0291448 0.0161727 0)
(-0.0302937 0.0122062 0)
(-0.031141 0.00852225 0)
(-0.0318393 0.00502727 0)
(-0.0324933 0.00159215 0)
(-0.0331673 -0.00194675 0)
(-0.0338775 -0.00578827 0)
(-0.0345676 -0.0101846 0)
(-0.035069 -0.0154394 0)
(-0.0350108 -0.0219183 0)
(-0.033809 -0.029911 0)
(-0.0297051 -0.0398104 0)
(-0.0222878 -0.0482225 0)
(-0.0090017 -0.0476153 0)
(-0.00528546 0.0375689 0)
(-0.0144989 0.0446536 0)
(-0.0217253 0.0402659 0)
(-0.0269605 0.034038 0)
(-0.0302645 0.0279454 0)
(-0.0323226 0.0223458 0)
(-0.0335344 0.0173885 0)
(-0.0342726 0.0130355 0)
(-0.0348037 0.00917408 0)
(-0.0353205 0.0056534 0)
(-0.0359627 0.00229724 0)
(-0.0368335 -0.00109851 0)
(-0.0380051 -0.00479507 0)
(-0.0394936 -0.00911819 0)
(-0.0412279 -0.0145068 0)
(-0.0428762 -0.0217051 0)
(-0.0440428 -0.0312924 0)
(-0.0415248 -0.0455556 0)
(-0.0361003 -0.0585488 0)
(-0.0169814 -0.0678823 0)
(-0.00675064 0.0544798 0)
(-0.018847 0.05487 0)
(-0.0281932 0.0475092 0)
(-0.0339715 0.0382644 0)
(-0.036704 0.0303234 0)
(-0.0379363 0.0235801 0)
(-0.038297 0.0179877 0)
(-0.0383086 0.0133559 0)
(-0.0382866 0.00946835 0)
(-0.0384454 0.00610072 0)
(-0.0389409 0.00302296 0)
(-0.0399193 -1.52739e-05 0)
(-0.0415134 -0.00329393 0)
(-0.0438342 -0.0072191 0)
(-0.0471098 -0.0124325 0)
(-0.0510782 -0.0202648 0)
(-0.056637 -0.0314928 0)
(-0.0574711 -0.0516206 0)
(-0.0588528 -0.0720748 0)
(-0.0298697 -0.103037 0)
(-0.0173579 0.0560928 0)
(-0.0370996 0.0680717 0)
(-0.0388523 0.0560333 0)
(-0.0434252 0.0436439 0)
(-0.0433111 0.0330392 0)
(-0.0422856 0.0245374 0)
(-0.0407902 0.0180727 0)
(-0.0393533 0.0131687 0)
(-0.0382425 0.00938077 0)
(-0.0376321 0.00636024 0)
(-0.0376577 0.00382701 0)
(-0.0384421 0.00156054 0)
(-0.0401782 -0.000598538 0)
(-0.0431695 -0.0030976 0)
(-0.0481487 -0.00557862 0)
(-0.0544454 -0.0118963 0)
(-0.0652321 -0.0170925 0)
(-0.0677458 -0.0445695 0)
(-0.0785796 -0.0693627 0)
(-0.0284524 -0.156774 0)
(-0.0561604 0.12491 0)
(-0.0497367 0.0649222 0)
(-0.043884 0.0518738 0)
(-0.0339487 0.0369069 0)
(-0.023463 0.0256786 0)
(-0.014802 0.018384 0)
(-0.00773264 0.013379 0)
(-0.00233302 0.0097405 0)
(0.00161455 0.00704214 0)
(0.00432875 0.00500225 0)
(0.00597763 0.00341712 0)
(0.00672885 0.00211758 0)
(0.00637682 0.000984861 0)
(0.00593355 -0.000484917 0)
(0.0022284 -0.00243668 0)
(0.00382837 -0.00835303 0)
(-0.0086704 -0.0197431 0)
(0.00531021 -0.0561465 0)
(-0.0338269 -0.120506 0)
(0.0246935 -0.241619 0)
(0.132605 0.132333 0)
(0.158134 0.0705314 0)
(0.232374 0.0450632 0)
(0.2703 0.029317 0)
(0.29401 0.0183711 0)
(0.310926 0.0115953 0)
(0.322923 0.00765633 0)
(0.331343 0.00527291 0)
(0.337374 0.00373417 0)
(0.34174 0.00268999 0)
(0.344795 0.00196363 0)
(0.346996 0.00140649 0)
(0.347789 0.000972416 0)
(0.349275 0.000555131 0)
(0.345016 -0.000483471 0)
(0.349797 -0.000929754 0)
(0.32333 -0.00720345 0)
(0.334994 -0.0146551 0)
(0.221373 -0.0453436 0)
(0.201064 -0.118742 0)
)
;

boundaryField
{
    movingWall
    {
        type            fixedValue;
        value           uniform (1 0 0);
    }
    fixedWalls
    {
        type            noSlip;
    }
    frontAndBack
    {
        type            empty;
    }
}


// ************************************************************************* //
