/*--------------------------------*- C++ -*----------------------------------*\
  =========                 |
  \\      /  F ield         | OpenFOAM: The Open Source CFD Toolbox
   \\    /   O peration     | Website:  https://openfoam.org
    \\  /    A nd           | Version:  10
     \\/     M anipulation  |
\*---------------------------------------------------------------------------*/
FoamFile
{
    format      ascii;
    class       volVectorField;
    location    "5.3";
    object      U;
}
// * * * * * * * * * * * * * * * * * * * * * * * * * * * * * * * * * * * * * //

dimensions      [0 1 -1 0 0 0 0];

internalField   nonuniform List<vector> 
400
(
(-9.16489e-05 8.5226e-05 0)
(-0.000810352 0.000311064 0)
(-0.0020263 0.0003822 0)
(-0.00321301 0.000393472 0)
(-0.00439299 0.000389081 0)
(-0.00552787 0.000379675 0)
(-0.00659571 0.00036452 0)
(-0.00757331 0.000340352 0)
(-0.00843055 0.000303531 0)
(-0.00913026 0.000250353 0)
(-0.00962847 0.000177515 0)
(-0.00987595 8.30953e-05 0)
(-0.00981967 -3.60033e-05 0)
(-0.00940866 -0.000177537 0)
(-0.00860323 -0.000335477 0)
(-0.00738302 -0.000498268 0)
(-0.00576782 -0.00064451 0)
(-0.00386897 -0.000734855 0)
(-0.00172138 -0.000684926 0)
(-0.000285644 -0.000310013 0)
(-0.000337068 0.000818388 0)
(-0.0018274 0.00176016 0)
(-0.00407425 0.00203958 0)
(-0.00626055 0.00206059 0)
(-0.00840308 0.00199596 0)
(-0.0104302 0.00189029 0)
(-0.0122948 0.00174577 0)
(-0.0139527 0.00155445 0)
(-0.015353 0.00130633 0)
(-0.0164378 0.000991171 0)
(-0.0171417 0.000599601 0)
(-0.0173978 0.000124155 0)
(-0.0171346 -0.000435204 0)
(-0.0162836 -0.00106601 0)
(-0.0147974 -0.0017424 0)
(-0.0126576 -0.00241731 0)
(-0.0099084 -0.00300805 0)
(-0.00671799 -0.00336057 0)
(-0.00315482 -0.00315857 0)
(-0.000632043 -0.00168694 0)
(-0.000430532 0.0021146 0)
(-0.00223112 0.00405185 0)
(-0.00489074 0.00460117 0)
(-0.0074627 0.00461232 0)
(-0.00997102 0.00443252 0)
(-0.0123343 0.00415313 0)
(-0.0144999 0.00378316 0)
(-0.0164188 0.00331157 0)
(-0.0180359 0.00272252 0)
(-0.019289 0.00199917 0)
(-0.0201097 0.00112617 0)
(-0.0204213 9.24657e-05 0)
(-0.0201388 -0.00109978 0)
(-0.0191818 -0.00242857 0)
(-0.0174871 -0.00384193 0)
(-0.0150196 -0.0052449 0)
(-0.0118137 -0.00647105 0)
(-0.00805462 -0.00720743 0)
(-0.0038141 -0.00682005 0)
(-0.000776632 -0.00385657 0)
(-0.000459579 0.00345629 0)
(-0.00239356 0.00643861 0)
(-0.00524691 0.00725913 0)
(-0.00799852 0.00725284 0)
(-0.0106848 0.00695366 0)
(-0.013223 0.00650054 0)
(-0.0155626 0.00590854 0)
(-0.0176567 0.00516287 0)
(-0.0194513 0.00424079 0)
(-0.0208837 0.00311672 0)
(-0.0218811 0.00176625 0)
(-0.02236 0.000172363 0)
(-0.02222 -0.00166742 0)
(-0.0213513 -0.00373128 0)
(-0.019653 -0.0059478 0)
(-0.0170472 -0.00817644 0)
(-0.0135327 -0.0101574 0)
(-0.00930163 -0.0113858 0)
(-0.00442675 -0.0108467 0)
(-0.000900445 -0.00623284 0)
(-0.000473906 0.00487264 0)
(-0.00250413 0.0089685 0)
(-0.00551137 0.0100757 0)
(-0.00841113 0.0100545 0)
(-0.0112527 0.00963856 0)
(-0.0139551 0.00901729 0)
(-0.016473 0.00821229 0)
(-0.0187654 0.00720468 0)
(-0.0207826 0.00596339 0)
(-0.0224639 0.00445104 0)
(-0.023733 0.00262838 0)
(-0.0244935 0.000461808 0)
(-0.0246251 -0.00206459 0)
(-0.0239801 -0.00493976 0)
(-0.022397 -0.00808453 0)
(-0.0197246 -0.011317 0)
(-0.0158852 -0.0142679 0)
(-0.0110559 -0.0161833 0)
(-0.00531459 -0.015553 0)
(-0.00108825 -0.00903011 0)
(-0.000489349 0.0063514 0)
(-0.00262544 0.0116337 0)
(-0.00580462 0.0130481 0)
(-0.00887251 0.0130189 0)
(-0.0118924 0.012495 0)
(-0.0147861 0.0117202 0)
(-0.0175171 0.0107238 0)
(-0.0200532 0.00948275 0)
(-0.0223534 0.00795606 0)
(-0.0243629 0.00609077 0)
(-0.0260058 0.00382553 0)
(-0.027176 0.00109859 0)
(-0.0277307 -0.00213916 0)
(-0.0274713 -0.00590831 0)
(-0.0261518 -0.0101448 0)
(-0.0235065 -0.0146381 0)
(-0.0193207 -0.0188925 0)
(-0.0137004 -0.021828 0)
(-0.00671411 -0.0212411 0)
(-0.00140772 -0.0124701 0)
(-0.00050915 0.00790255 0)
(-0.00277259 0.0144542 0)
(-0.00615561 0.0161992 0)
(-0.0094206 0.0161699 0)
(-0.0126472 0.0155488 0)
(-0.0157617 0.0146398 0)
(-0.0187392 0.0134816 0)
(-0.0215615 0.0120478 0)
(-0.0242022 0.010287 0)
(-0.0266202 0.00812707 0)
(-0.0287482 0.00547645 0)
(-0.0304781 0.00223073 0)
(-0.0316502 -0.00171428 0)
(-0.032012 -0.00644726 0)
(-0.0312081 -0.0119616 0)
(-0.0288027 -0.0180581 0)
(-0.0243507 -0.0241159 0)
(-0.0177551 -0.0286322 0)
(-0.00901531 -0.0283858 0)
(-0.00198907 -0.0169545 0)
(-0.000533585 0.00954246 0)
(-0.00294861 0.0174603 0)
(-0.00656946 0.0195605 0)
(-0.0100581 0.0195362 0)
(-0.013514 0.018827 0)
(-0.0168696 0.0178039 0)
(-0.0201156 0.0165188 0)
(-0.0232532 0.0149446 0)
(-0.0262793 0.0130207 0)
(-0.029178 0.0106545 0)
(-0.0319058 0.00771832 0)
(-0.0343699 0.00404752 0)
(-0.0364137 -0.000551643 0)
(-0.0377413 -0.00625854 0)
(-0.0378748 -0.0132227 0)
(-0.036153 -0.0213395 0)
(-0.0317684 -0.0299162 0)
(-0.0241648 -0.0369394 0)
(-0.013083 -0.037706 0)
(-0.00315569 -0.0232391 0)
(-0.000563487 0.0112884 0)
(-0.00315694 0.0206832 0)
(-0.00705007 0.0231606 0)
(-0.0107836 0.0231397 0)
(-0.0144816 0.0223455 0)
(-0.0180839 0.021226 0)
(-0.0216014 0.0198516 0)
(-0.0250615 0.0181996 0)
(-0.0284941 0.016205 0)
(-0.0319242 0.0137589 0)
(-0.0353568 0.0106965 0)
(-0.0387502 0.00678337 0)
(-0.0419634 0.00171142 0)
(-0.0447221 -0.00486996 0)
(-0.0464787 -0.0133614 0)
(-0.0462969 -0.0239133 0)
(-0.0428755 -0.0359439 0)
(-0.0347929 -0.0469636 0)
(-0.0209719 -0.050298 0)
(-0.00574295 -0.0329209 0)
(-0.000601833 0.0131611 0)
(-0.00340687 0.024157 0)
(-0.00760905 0.0270253 0)
(-0.0116024 0.0269934 0)
(-0.0155425 0.0261064 0)
(-0.0193784 0.0249003 0)
(-0.0231447 0.0234714 0)
(-0.0269016 0.0218098 0)
(-0.0307218 0.0198564 0)
(-0.0346888 0.0174975 0)
(-0.0388845 0.0145424 0)
(-0.0433608 0.0106935 0)
(-0.0480862 0.00551105 0)
(-0.0528984 -0.00161808 0)
(-0.0572878 -0.011389 0)
(-0.0601887 -0.0245503 0)
(-0.0597929 -0.04099 0)
(-0.0532354 -0.0582291 0)
(-0.0371258 -0.0676782 0)
(-0.0116873 -0.0493842 0)
(-0.000655622 0.0151905 0)
(-0.00371861 0.0279229 0)
(-0.00827296 0.0311793 0)
(-0.0125348 0.031101 0)
(-0.0167021 0.0300943 0)
(-0.0207347 0.0287961 0)
(-0.0246948 0.0273369 0)
(-0.0286787 0.0257296 0)
(-0.0328089 0.0239368 0)
(-0.0372415 0.0218622 0)
(-0.0421663 0.0193197 0)
(-0.0477954 0.0159801 0)
(-0.0543234 0.0112902 0)
(-0.0618222 0.00438782 0)
(-0.0702231 -0.00587848 0)
(-0.0788031 -0.0208797 0)
(-0.0854407 -0.0420199 0)
(-0.084814 -0.068491 0)
(-0.0674745 -0.0917986 0)
(-0.0232015 -0.0801212 0)
(-0.000739434 0.0174255 0)
(-0.00413135 0.0320387 0)
(-0.00909291 0.0356502 0)
(-0.0136242 0.0354573 0)
(-0.0179862 0.0342749 0)
(-0.0221524 0.0328542 0)
(-0.0262145 0.031367 0)
(-0.0303042 0.0298595 0)
(-0.0345923 0.028335 0)
(-0.0393104 0.0267493 0)
(-0.0447762 0.0249762 0)
(-0.0514205 0.0227412 0)
(-0.0597978 0.019509 0)
(-0.0705516 0.0143314 0)
(-0.0843513 0.00567189 0)
(-0.101896 -0.00881862 0)
(-0.121062 -0.0333762 0)
(-0.130641 -0.0739974 0)
(-0.109496 -0.12711 0)
(-0.0366536 -0.137595 0)
(-0.000882169 0.0199393 0)
(-0.00471553 0.0365532 0)
(-0.0101576 0.0404155 0)
(-0.0149502 0.0399925 0)
(-0.0194537 0.0385576 0)
(-0.0236598 0.0369683 0)
(-0.0276929 0.0354294 0)
(-0.0317131 0.0340294 0)
(-0.0359216 0.0328333 0)
(-0.0406036 0.0318866 0)
(-0.0461831 0.0311946 0)
(-0.0533061 0.0306695 0)
(-0.0629545 0.0300279 0)
(-0.0765953 0.0286183 0)
(-0.0964168 0.0250339 0)
(-0.124561 0.0152475 0)
(-0.156981 -0.0117545 0)
(-0.171612 -0.07906 0)
(-0.139176 -0.185684 0)
(-0.042332 -0.227969 0)
(-0.00115638 0.0229505 0)
(-0.00564334 0.0418408 0)
(-0.0116373 0.0458843 0)
(-0.0166228 0.0450936 0)
(-0.0211661 0.0431975 0)
(-0.0252972 0.0412326 0)
(-0.0291561 0.0394784 0)
(-0.0329022 0.0380787 0)
(-0.0367374 0.0371685 0)
(-0.0409532 0.0369158 0)
(-0.0460077 0.0375461 0)
(-0.0526582 0.0393326 0)
(-0.0621611 0.0425661 0)
(-0.0764972 0.0472588 0)
(-0.0987031 0.0520394 0)
(-0.130835 0.0488918 0)
(-0.16635 0.0142926 0)
(-0.174052 -0.0941963 0)
(-0.13758 -0.260695 0)
(-0.0434492 -0.332054 0)
(-0.00154325 0.0266713 0)
(-0.00673922 0.0468222 0)
(-0.0135376 0.0503494 0)
(-0.018832 0.0487341 0)
(-0.023458 0.0464292 0)
(-0.0273859 0.0443344 0)
(-0.0308423 0.0426034 0)
(-0.034015 0.0413293 0)
(-0.0370683 0.0406838 0)
(-0.0401967 0.0409567 0)
(-0.0437218 0.0426328 0)
(-0.0482187 0.0464578 0)
(-0.0547688 0.0534593 0)
(-0.0650035 0.0641497 0)
(-0.0814418 0.0764946 0)
(-0.104438 0.0761863 0)
(-0.131138 0.031306 0)
(-0.129838 -0.109693 0)
(-0.11483 -0.31559 0)
(-0.0395481 -0.428244 0)
(-0.00358914 0.0301317 0)
(-0.0109925 0.0556927 0)
(-0.0172581 0.0590922 0)
(-0.0219322 0.057014 0)
(-0.0257859 0.0534447 0)
(-0.0291736 0.0501063 0)
(-0.0321631 0.0473237 0)
(-0.0347719 0.045259 0)
(-0.0369878 0.0440988 0)
(-0.0387877 0.0441615 0)
(-0.0401571 0.0460763 0)
(-0.0411263 0.0508775 0)
(-0.0421115 0.0601966 0)
(-0.0430634 0.0744543 0)
(-0.0457407 0.091297 0)
(-0.047515 0.0906637 0)
(-0.0582114 0.0428276 0)
(-0.0516235 -0.108843 0)
(-0.0744609 -0.337669 0)
(-0.0178147 -0.500791 0)
(-0.00124671 0.044199 0)
(-0.00893786 0.0582964 0)
(-0.0201946 0.0584471 0)
(-0.0253895 0.0538794 0)
(-0.0301249 0.0505723 0)
(-0.0331843 0.0480312 0)
(-0.0352926 0.0460376 0)
(-0.0365785 0.0444679 0)
(-0.0370606 0.0434786 0)
(-0.0365689 0.0433276 0)
(-0.034783 0.0446976 0)
(-0.0309685 0.0484036 0)
(-0.0248533 0.0562794 0)
(-0.0138038 0.0681529 0)
(-0.00128417 0.0830464 0)
(0.0218883 0.0831145 0)
(0.0259886 0.0406212 0)
(0.0365971 -0.0914694 0)
(-0.0181129 -0.32862 0)
(0.0131822 -0.524458 0)
(-0.0122202 0.0334144 0)
(-0.0246822 0.0800737 0)
(-0.0247569 0.0785207 0)
(-0.0315962 0.0732817 0)
(-0.0342124 0.0660305 0)
(-0.0351578 0.0597594 0)
(-0.0343869 0.0544724 0)
(-0.0322829 0.0501363 0)
(-0.0290119 0.0467296 0)
(-0.0243851 0.0440935 0)
(-0.0184852 0.0426623 0)
(-0.00995576 0.0426717 0)
(0.000686687 0.0458393 0)
(0.01834 0.0516434 0)
(0.0382388 0.0611377 0)
(0.0732983 0.0625974 0)
(0.0853667 0.0350852 0)
(0.119868 -0.0587151 0)
(0.0560512 -0.294492 0)
(0.0561313 -0.509697 0)
(-0.0768409 0.097246 0)
(-0.0625267 0.0600276 0)
(-0.0647262 0.0600945 0)
(-0.0437515 0.0534308 0)
(-0.0267833 0.0465459 0)
(-0.00734844 0.0413708 0)
(0.0109921 0.0376117 0)
(0.0292 0.0343166 0)
(0.0458938 0.0318574 0)
(0.063304 0.0293914 0)
(0.0781395 0.0278488 0)
(0.0965151 0.0265325 0)
(0.109558 0.02625 0)
(0.135161 0.0271702 0)
(0.146421 0.0254853 0)
(0.194313 0.0213746 0)
(0.194066 -0.0122127 0)
(0.243893 -0.080833 0)
(0.171343 -0.267657 0)
(0.127301 -0.447547 0)
(0.119946 0.140537 0)
(0.152535 0.0860872 0)
(0.229959 0.0635886 0)
(0.285184 0.0482437 0)
(0.32672 0.0375915 0)
(0.365039 0.0298983 0)
(0.393897 0.0244649 0)
(0.425515 0.0205264 0)
(0.445087 0.0176897 0)
(0.474493 0.0154642 0)
(0.486491 0.0137917 0)
(0.516667 0.0127067 0)
(0.521884 0.0115693 0)
(0.555434 0.0114096 0)
(0.551678 0.00985369 0)
(0.588659 0.00687151 0)
(0.562496 -0.00215931 0)
(0.573917 -0.0264679 0)
(0.435673 -0.0729267 0)
(0.278715 -0.153123 0)
)
;

boundaryField
{
    movingWall
    {
        type            fixedValue;
        value           uniform (1 0 0);
    }
    fixedWalls
    {
        type            noSlip;
    }
    frontAndBack
    {
        type            empty;
    }
}


// ************************************************************************* //
