/*--------------------------------*- C++ -*----------------------------------*\
  =========                 |
  \\      /  F ield         | OpenFOAM: The Open Source CFD Toolbox
   \\    /   O peration     | Website:  https://openfoam.org
    \\  /    A nd           | Version:  10
     \\/     M anipulation  |
\*---------------------------------------------------------------------------*/
FoamFile
{
    format      ascii;
    class       volScalarField;
    location    "4.925";
    object      p;
}
// * * * * * * * * * * * * * * * * * * * * * * * * * * * * * * * * * * * * * //

dimensions      [0 2 -2 0 0 0 0];

internalField   nonuniform List<scalar> 
400
(
1.88997e-09
-2.48373e-05
5.55998e-06
6.8018e-05
0.000168742
0.000308598
0.000488652
0.000709885
0.000972486
0.00127521
0.00161473
0.00198491
0.00237631
0.00277467
0.00316175
0.00351567
0.00381196
0.00402632
0.00415326
0.00414005
2.55639e-05
-1.07011e-07
3.30194e-05
9.44024e-05
0.000191797
0.000326752
0.000500793
0.000715288
0.000970794
0.00126649
0.00159947
0.00196361
0.00235145
0.00274816
0.00313577
0.00349232
0.00379261
0.00401196
0.00414615
0.00413134
-9.16137e-06
-4.0635e-05
-9.12504e-06
4.92697e-05
0.000143113
0.00027421
0.00044456
0.000656201
0.000910504
0.00120756
0.00154543
0.00191989
0.00232281
0.00274037
0.00315368
0.00353881
0.0038671
0.00410882
0.00425796
0.00423666
-8.35801e-05
-0.000119515
-9.04226e-05
-3.61721e-05
5.27308e-05
0.000178508
0.000343904
0.000551997
0.000805434
0.00110581
0.00145262
0.00184155
0.00227171
0.00272476
0.00318224
0.00361722
0.00399494
0.00427705
0.00445377
0.00442919
-0.000203367
-0.000243823
-0.000218144
-0.00016931
-8.68005e-05
3.21429e-05
0.000191227
0.000394894
0.000647577
0.000953135
0.00131417
0.00173162
0.00219379
0.00269684
0.00321906
0.00372921
0.00418426
0.00453148
0.0047533
0.00472815
-0.000368232
-0.000413945
-0.000392803
-0.000351064
-0.000277114
-0.000167598
-1.76915e-05
0.000178667
0.000428088
0.000737213
0.00111178
0.00155505
0.00206523
0.00263589
0.00324725
0.00386455
0.00443428
0.00488272
0.00517638
0.00515605
-0.00057749
-0.000629533
-0.000614254
-0.000581849
-0.000519571
-0.000423494
-0.000287618
-0.000104087
0.000136249
0.000443518
0.000828013
0.00129851
0.00185988
0.00251184
0.00323796
0.00400163
0.00473719
0.00534243
0.00575127
0.00575075
-0.000830559
-0.00089024
-0.000882363
-0.000862078
-0.000815541
-0.000738424
-0.000623663
-0.000461613
-0.00024039
5.41764e-05
0.000438175
0.000928145
0.00153751
0.00227831
0.00314272
0.00409833
0.0050689
0.0059175
0.00651556
0.00657648
-0.00112671
-0.00119546
-0.00119656
-0.00119151
-0.00116556
-0.00111433
-0.00103005
-0.000901624
-0.000714626
-0.000450737
-8.73362e-05
0.000402198
0.00104693
0.00186493
0.00287997
0.00407312
0.00536769
0.00659225
0.00751393
0.00774596
-0.00146503
-0.00154429
-0.00155558
-0.00156881
-0.00156858
-0.00155113
-0.00150867
-0.00142941
-0.00129724
-0.00109049
-0.000780588
-0.000330802
0.000303145
0.00116798
0.00231817
0.00377215
0.00548821
0.00728816
0.0087882
0.00946414
-0.00184473
-0.00193574
-0.00195741
-0.00199107
-0.0020212
-0.00204548
-0.0020572
-0.00204519
-0.00199338
-0.00187892
-0.00166971
-0.0013211
-0.00077198
5.70969e-05
0.00124101
0.00290002
0.00508983
0.00773172
0.0102804
0.0119838
-0.00226588
-0.0023693
-0.00239935
-0.00245356
-0.0025169
-0.00258955
-0.00266716
-0.00274092
-0.00279736
-0.00281642
-0.00276833
-0.00260863
-0.00227005
-0.00165319
-0.000631894
0.000938286
0.00339825
0.00702235
0.0112912
0.0149746
-0.00273116
-0.00284651
-0.00287904
-0.00295019
-0.00304573
-0.00316986
-0.00332213
-0.0034978
-0.00368909
-0.003884
-0.00406383
-0.00419942
-0.0042449
-0.00412973
-0.00375718
-0.00297284
-0.00130138
0.00250863
0.00852813
0.0154871
-0.0032454
-0.00336413
-0.00338302
-0.00346106
-0.00358515
-0.00376207
-0.00399386
-0.00428154
-0.00462609
-0.00502872
-0.00549166
-0.0060199
-0.0066272
-0.00735548
-0.00835204
-0.00983401
-0.0115051
-0.00999836
-0.00354954
0.00781895
-0.00384224
-0.00397682
-0.00396958
-0.00404715
-0.0041792
-0.00438525
-0.00467669
-0.00506373
-0.00555869
-0.0061801
-0.00696006
-0.0079544
-0.00927921
-0.0111563
-0.0141532
-0.0191255
-0.0268543
-0.029589
-0.0238047
-0.00692058
-0.00460026
-0.00453379
-0.00442513
-0.00442543
-0.0045546
-0.00481229
-0.00519461
-0.00570377
-0.00635498
-0.00717787
-0.00823193
-0.00962883
-0.0116075
-0.0145242
-0.0194384
-0.0272056
-0.04082
-0.0476283
-0.0437271
-0.0196391
-0.00508013
-0.0055146
-0.0052731
-0.00533955
-0.00540482
-0.00559909
-0.00593673
-0.00643957
-0.00713093
-0.00804138
-0.00924011
-0.010836
-0.0131701
-0.0165534
-0.0225281
-0.0302443
-0.0474148
-0.0540366
-0.0501879
-0.0140799
-0.00840236
-0.00588443
-0.00533735
-0.00487174
-0.00491366
-0.00522275
-0.00573962
-0.00641738
-0.00726889
-0.00830203
-0.00960652
-0.0112218
-0.0135723
-0.0168893
-0.0224753
-0.0301072
-0.0420254
-0.0457161
-0.0348164
0.017955
-0.00519162
-0.00812965
-0.00717991
-0.00730884
-0.00701879
-0.00695621
-0.0070942
-0.00746629
-0.00810161
-0.00894882
-0.0101066
-0.0115385
-0.0137132
-0.0166853
-0.0217975
-0.0279727
-0.0359988
-0.0295923
-0.0020597
0.0823739
-0.0301409
-0.00516329
-0.00386519
-0.00323244
-0.00316573
-0.00355983
-0.0043055
-0.00515238
-0.00622192
-0.00737761
-0.00886286
-0.0106228
-0.0130135
-0.0158943
-0.0194508
-0.0209118
-0.0173175
0.011779
0.0819352
0.220665
)
;

boundaryField
{
    movingWall
    {
        type            zeroGradient;
    }
    fixedWalls
    {
        type            zeroGradient;
    }
    frontAndBack
    {
        type            empty;
    }
}


// ************************************************************************* //
