/*--------------------------------*- C++ -*----------------------------------*\
  =========                 |
  \\      /  F ield         | OpenFOAM: The Open Source CFD Toolbox
   \\    /   O peration     | Website:  https://openfoam.org
    \\  /    A nd           | Version:  10
     \\/     M anipulation  |
\*---------------------------------------------------------------------------*/
FoamFile
{
    format      ascii;
    class       surfaceScalarField;
    location    "5.075";
    object      phi;
}
// * * * * * * * * * * * * * * * * * * * * * * * * * * * * * * * * * * * * * //

dimensions      [0 3 -1 0 0 0 0];

internalField   nonuniform List<scalar> 
760
(
-8.53493e-06
8.53491e-06
-2.83503e-05
1.98154e-05
-5.141e-05
2.30597e-05
-7.46689e-05
2.32589e-05
-9.71739e-05
2.2505e-05
-0.000118481
2.13075e-05
-0.00013816
1.96786e-05
-0.00015568
1.75205e-05
-0.000170397
1.47171e-05
-0.00018155
1.11522e-05
-0.000188274
6.72422e-06
-0.000189648
1.37415e-06
-0.000184711
-4.93666e-06
-0.000172673
-1.20381e-05
-0.000153029
-1.96439e-05
-0.000125794
-2.72356e-05
-9.18896e-05
-3.39041e-05
-5.39472e-05
-3.79425e-05
-1.83202e-05
-3.5627e-05
-1.83202e-05
-2.0711e-05
2.9246e-05
-5.85542e-05
5.76586e-05
-0.000101001
6.55061e-05
-0.000143282
6.55406e-05
-0.000183654
6.28768e-05
-0.000221153
5.88068e-05
-0.000254916
5.34413e-05
-0.000284015
4.66189e-05
-0.000307419
3.81212e-05
-0.00032399
2.77238e-05
-0.000332457
1.51911e-05
-0.000331712
6.28481e-07
-0.000320346
-1.63025e-05
-0.000297422
-3.49621e-05
-0.000262409
-5.46565e-05
-0.000215557
-7.40883e-05
-0.000158433
-9.10281e-05
-9.5136e-05
-0.000101239
-3.50337e-05
-9.57292e-05
-5.33539e-05
-2.53757e-05
5.46216e-05
-7.03209e-05
0.000102604
-0.000120214
0.000115399
-0.000169633
0.000114959
-0.000216627
0.000109872
-0.00026012
0.0001023
-0.000299152
9.24724e-05
-0.000332708
8.01751e-05
-0.000359677
6.50902e-05
-0.00037883
4.68767e-05
-0.000388876
2.52379e-05
-0.00038833
8.1843e-08
-0.000375684
-2.89479e-05
-0.000349728
-6.09185e-05
-0.000309644
-9.47403e-05
-0.000255448
-0.000128284
-0.000188692
-0.000157784
-0.000113988
-0.000175943
-4.2369e-05
-0.000167349
-9.57229e-05
-2.71764e-05
8.1798e-05
-7.53853e-05
0.000150813
-0.000128778
0.000168792
-0.000181638
0.000167819
-0.000231998
0.000160231
-0.000278807
0.000149109
-0.000321138
0.000134804
-0.000358003
0.000117039
-0.000388289
9.53761e-05
-0.000410724
6.93116e-05
-0.000423851
3.83658e-05
-0.000426097
2.32781e-06
-0.000415452
-3.95935e-05
-0.000390121
-8.62496e-05
-0.000348581
-0.00013628
-0.000290169
-0.000186697
-0.000216091
-0.000231861
-0.000131361
-0.000260673
-4.8964e-05
-0.000249746
-0.000144687
-2.84241e-05
0.000110222
-7.92473e-05
0.000201636
-0.000135587
0.000225132
-0.000191479
0.000223711
-0.000244978
0.00021373
-0.000295118
0.000199249
-0.000341063
0.000180748
-0.000381906
0.000157882
-0.000416586
0.000130056
-0.000443808
9.65342e-05
-0.000461976
5.65334e-05
-0.000469087
9.43933e-06
-0.000462802
-4.58793e-05
-0.000440311
-0.000108741
-0.000398941
-0.000177649
-0.000336733
-0.000248906
-0.000253929
-0.000314665
-0.000155911
-0.000358691
-5.85486e-05
-0.000347108
-0.000203236
-2.98393e-05
0.000140061
-8.36356e-05
0.000255432
-0.000143371
0.000284867
-0.000202787
0.000283128
-0.000259977
0.00027092
-0.000314098
0.000253369
-0.000364459
0.000231109
-0.000410302
0.000203725
-0.000450685
0.000170439
-0.000484358
0.000130208
-0.000509619
8.17935e-05
-0.000524142
2.39629e-05
-0.000524957
-4.50645e-05
-0.00050798
-0.000125718
-0.000468799
-0.00021683
-0.000403282
-0.000314422
-0.000309678
-0.000408269
-0.000193162
-0.000475207
-7.37464e-05
-0.000466524
-0.000276982
-3.1584e-05
0.000171645
-8.89561e-05
0.000312804
-0.000152734
0.000348645
-0.000216301
0.000346696
-0.000277803
0.000332422
-0.000336566
0.000312132
-0.000392118
0.000286661
-0.000443941
0.000255549
-0.000491332
0.00021783
-0.000533224
0.0001721
-0.000567953
0.000116523
-0.000592956
4.89659e-05
-0.000604695
-3.33251e-05
-0.000597469
-0.000132944
-0.000564424
-0.000249875
-0.000497928
-0.000380918
-0.000392357
-0.000513841
-0.000250907
-0.000616657
-9.89026e-05
-0.000618528
-0.000375885
-3.36888e-05
0.000205334
-9.5292e-05
0.000374407
-0.000163757
0.00041711
-0.000232032
0.00041497
-0.000298335
0.000398724
-0.000362222
0.00037602
-0.000423528
0.000347967
-0.000482103
0.000314124
-0.000537655
0.000273381
-0.000589527
0.000223973
-0.000636378
0.000163374
-0.000675663
8.82511e-05
-0.000703661
-5.32758e-06
-0.000712861
-0.000123745
-0.00069336
-0.000269375
-0.000632239
-0.000442039
-0.000516817
-0.000629263
-0.000344155
-0.000789319
-0.000143739
-0.000818944
-0.000519623
-3.61972e-05
0.000241531
-0.000102728
0.000440938
-0.000176484
0.000490866
-0.000249891
0.000488377
-0.000321268
0.000470101
-0.00039047
0.000445221
-0.000457739
0.000415237
-0.000523448
0.000379833
-0.000587941
0.000337874
-0.000651309
0.000287341
-0.00071301
0.000225075
-0.000771229
0.000146471
-0.00082198
4.54228e-05
-0.000857914
-8.78105e-05
-0.000865049
-0.00026224
-0.000823642
-0.000483447
-0.000709348
-0.000743557
-0.000504738
-0.000993929
-0.000231892
-0.00109179
-0.000751515
-3.92282e-05
0.00028076
-0.00011148
0.00051319
-0.000191098
0.000570484
-0.000269895
0.000567174
-0.000346333
0.00054654
-0.000420639
0.000519527
-0.000493569
0.000488166
-0.000566171
0.000452436
-0.000639688
0.000411391
-0.000715377
0.00036303
-0.000794156
0.000303853
-0.000875876
0.000228191
-0.000957787
0.000127334
-0.00103454
-1.10562e-05
-0.00109001
-0.000206773
-0.00109795
-0.000475505
-0.00101745
-0.000824058
-0.000799653
-0.00121172
-0.000419779
-0.00147166
-0.00117129
-4.30406e-05
0.0003238
-0.000122018
0.000592167
-0.00020806
0.000656526
-0.00029231
0.000651424
-0.000373442
0.000627672
-0.000452133
0.000598218
-0.000529734
0.000565767
-0.000608088
0.00053079
-0.000689542
0.000492845
-0.000776942
0.00045043
-0.00087348
0.000400391
-0.0009822
0.000336911
-0.00110472
0.000249859
-0.00123878
0.000123002
-0.00137636
-6.91928e-05
-0.00148888
-0.000362985
-0.00151572
-0.000797216
-0.00133974
-0.00138771
-0.000805261
-0.00200614
-0.00197656
-4.81453e-05
0.000371946
-0.000135231
0.000679253
-0.000228284
0.000749579
-0.000317811
0.000740951
-0.000402843
0.000712704
-0.000484604
0.000679979
-0.000565083
0.000646247
-0.000646922
0.000612629
-0.00073363
0.000579553
-0.00082992
0.000546719
-0.000942062
0.000512533
-0.00107807
0.000472921
-0.0012473
0.000419089
-0.00145831
0.000334013
-0.00171712
0.000189612
-0.00201388
-6.622e-05
-0.00225738
-0.000553724
-0.00217891
-0.00146618
-0.00138411
-0.00280094
-0.00336067
-5.54981e-05
0.000427444
-0.000152699
0.000776454
-0.000253375
0.000850255
-0.000347707
0.000835282
-0.000435327
0.000800324
-0.000518169
0.000762821
-0.000598862
0.00072694
-0.000680647
0.000694414
-0.000767904
0.000666811
-0.000866942
0.000645756
-0.000987122
0.000632713
-0.00114246
0.000628262
-0.0013537
0.000630324
-0.00165002
0.000630338
-0.00206378
0.000603366
-0.00258997
0.00045997
-0.0030723
-7.13895e-05
-0.00300679
-0.00153168
-0.00185677
-0.00395096
-0.00521744
-6.74349e-05
0.000494879
-0.000177749
0.000886768
-0.000285996
0.000958502
-0.000383531
0.000932817
-0.00047176
0.000888554
-0.000553371
0.000844432
-0.000631136
0.000804704
-0.000708436
0.000771714
-0.000789935
0.00074831
-0.000882639
0.000738461
-0.00099785
0.000747924
-0.00115432
0.000784728
-0.00138314
0.000859145
-0.0017289
0.000976104
-0.00223646
0.00111092
-0.00286991
0.00109342
-0.00337744
0.000436149
-0.00319195
-0.00171718
-0.00193056
-0.00521235
-0.007148
-8.2094e-05
0.000576973
-0.000209093
0.00101377
-0.000327718
0.00107713
-0.000430726
0.00103583
-0.000518477
0.000976304
-0.000595252
0.000921207
-0.000665036
0.000874488
-0.000731364
0.000838042
-0.00079793
0.000814876
-0.000869914
0.000810445
-0.00095694
0.00083495
-0.00107598
0.000903766
-0.0012585
0.00104167
-0.00154519
0.00126279
-0.00197191
0.00153764
-0.00245359
0.0015751
-0.00281222
0.000794772
-0.00263268
-0.00189671
-0.00172137
-0.00612366
-0.00886937
-0.000147469
0.000724441
-0.000287829
0.00115413
-0.000397477
0.00118677
-0.00048522
0.00112357
-0.00056157
0.00105265
-0.000630016
0.000989653
-0.000691632
0.000936105
-0.000746505
0.000892915
-0.000795025
0.000863395
-0.000837599
0.000853019
-0.000876594
0.000873945
-0.000917008
0.00094418
-0.000973584
0.00109824
-0.00105391
0.00134312
-0.00118436
0.00166809
-0.00130439
0.00169513
-0.00143003
0.000920414
-0.00148925
-0.0018375
-0.00116841
-0.0064445
-0.0100378
-9.78801e-05
0.000822321
-0.000302105
0.00135835
-0.000456401
0.00134107
-0.000568112
0.00123528
-0.000647665
0.00113221
-0.000704685
0.00104667
-0.000744745
0.000976165
-0.000770042
0.000918212
-0.000780248
0.000873601
-0.000770479
0.00084325
-0.000734393
0.00083786
-0.000657599
0.000867385
-0.000528561
0.000969207
-0.000322758
0.00113731
-4.00181e-05
0.00138535
0.000213476
0.00144164
0.000329082
0.000804807
-3.11969e-05
-0.00147722
-0.000205827
-0.00626987
-0.0102436
-0.000389264
0.00121159
-0.000483867
0.00145296
-0.000576822
0.00143402
-0.000662369
0.00132083
-0.000704219
0.00117406
-0.00071021
0.00105266
-0.000688489
0.000954443
-0.000641264
0.000870986
-0.000573236
0.000805573
-0.000477896
0.000747911
-0.000351872
0.000711836
-0.000175517
0.00069103
8.00676e-05
0.000713622
0.000439324
0.000778058
0.000943378
0.000881298
0.00149099
0.000894029
0.00197694
0.000318853
0.00178917
-0.00128945
0.0009518
-0.0054325
-0.0092918
-0.00134495
0.00255654
-0.00130507
0.00141308
-0.00106163
0.00119058
-0.000710717
0.000969917
-0.000337511
0.000800852
3.68618e-05
0.000678292
0.000399628
0.000591677
0.000746384
0.00052423
0.00107787
0.00047409
0.00139634
0.000429438
0.00170846
0.000399713
0.00202352
0.000375969
0.00237247
0.000364673
0.00277829
0.000372239
0.00332268
0.000336912
0.00395093
0.000265782
0.0044394
-0.000169621
0.00435384
-0.0012039
0.00268944
-0.00376809
-0.00660237
0.00255654
0.00396961
0.00516019
0.00613011
0.00693096
0.00760925
0.00820093
0.00872516
0.00919925
0.00962869
0.0100284
0.0104044
0.010769
0.0111413
0.0114782
0.011744
0.0115744
0.0103705
0.00660237
)
;

boundaryField
{
    movingWall
    {
        type            calculated;
        value           uniform 0;
    }
    fixedWalls
    {
        type            calculated;
        value           uniform 0;
    }
    frontAndBack
    {
        type            empty;
        value           nonuniform List<scalar> 0();
    }
}


// ************************************************************************* //
