/*--------------------------------*- C++ -*----------------------------------*\
  =========                 |
  \\      /  F ield         | OpenFOAM: The Open Source CFD Toolbox
   \\    /   O peration     | Website:  https://openfoam.org
    \\  /    A nd           | Version:  10
     \\/     M anipulation  |
\*---------------------------------------------------------------------------*/
FoamFile
{
    format      ascii;
    class       surfaceScalarField;
    location    "5.25";
    object      phi;
}
// * * * * * * * * * * * * * * * * * * * * * * * * * * * * * * * * * * * * * //

dimensions      [0 3 -1 0 0 0 0];

internalField   nonuniform List<scalar> 
760
(
-8.60095e-06
8.60094e-06
-2.86158e-05
2.00149e-05
-5.20179e-05
2.3402e-05
-7.57078e-05
2.369e-05
-9.87087e-05
2.30008e-05
-0.000120577
2.18685e-05
-0.000140883
2.03055e-05
-0.000159087
1.82039e-05
-0.00017452
1.54339e-05
-0.000186383
1.18627e-05
-0.000193754
7.37053e-06
-0.000195629
1.87495e-06
-0.000190972
-4.65652e-06
-0.000178892
-1.20799e-05
-0.000158802
-2.00899e-05
-0.000130675
-2.8127e-05
-9.54779e-05
-3.51974e-05
-5.60258e-05
-3.9452e-05
-1.90254e-05
-3.70004e-05
-1.90254e-05
-2.09466e-05
2.95475e-05
-5.9339e-05
5.84073e-05
-0.00010259
6.66533e-05
-0.000145819
6.6919e-05
-0.000187227
6.44085e-05
-0.000225834
6.04757e-05
-0.000260763
5.52347e-05
-0.000291061
4.85017e-05
-0.000315654
4.00263e-05
-0.000333337
2.95464e-05
-0.000342753
1.67866e-05
-0.000342653
1.77465e-06
-0.000331557
-1.57529e-05
-0.00030836
-3.52764e-05
-0.000272426
-5.60237e-05
-0.000223957
-7.65959e-05
-0.0001646
-9.45547e-05
-9.87446e-05
-0.000105308
-3.63083e-05
-9.94367e-05
-5.53337e-05
-2.57676e-05
5.53151e-05
-7.15288e-05
0.000104169
-0.000122533
0.000117658
-0.00017321
0.000117595
-0.000221541
0.00011274
-0.000266428
0.000105363
-0.000306894
9.57006e-05
-0.000341897
8.35047e-05
-0.000370278
6.84069e-05
-0.000390737
5.00051e-05
-0.000401885
2.79344e-05
-0.000402124
2.01414e-06
-0.000389785
-2.80921e-05
-0.000363497
-6.1564e-05
-0.000322298
-9.72234e-05
-0.000266121
-0.000132772
-0.000196583
-0.000164093
-0.000118635
-0.000183256
-4.40114e-05
-0.00017406
-9.93451e-05
-2.76169e-05
8.2932e-05
-7.67351e-05
0.000153287
-0.000131349
0.000172271
-0.000185578
0.000171825
-0.00023739
0.000164552
-0.000285718
0.000153691
-0.000329624
0.000139607
-0.000368099
0.000121979
-0.000399991
0.000100299
-0.000423962
7.39763e-05
-0.00043846
4.24318e-05
-0.000441758
5.3126e-06
-0.000431708
-3.81426e-05
-0.000406265
-8.70065e-05
-0.000363688
-0.0001398
-0.000303138
-0.000193323
-0.000225832
-0.000241399
-0.000137161
-0.000271927
-5.10108e-05
-0.00026021
-0.000150356
-2.88356e-05
0.000111768
-8.05478e-05
0.000204999
-0.000138102
0.000229825
-0.000195371
0.000229094
-0.00025035
0.000219532
-0.000302069
0.000205409
-0.000349693
0.000187231
-0.000392312
0.000164599
-0.00042884
0.000136827
-0.000457927
0.000103064
-0.000477878
6.23827e-05
-0.000486559
1.39932e-05
-0.000481398
-4.33039e-05
-0.000459287
-0.000109117
-0.000417206
-0.000181882
-0.000352859
-0.00025767
-0.00026635
-0.000327907
-0.000163449
-0.000374828
-6.12311e-05
-0.000362429
-0.000211587
-3.01821e-05
0.00014195
-8.47878e-05
0.000259605
-0.000145674
0.000290711
-0.000206425
0.000289845
-0.000265083
0.00027819
-0.000320816
0.000261142
-0.000372956
0.000239371
-0.000420761
0.000212404
-0.00046329
0.000179356
-0.000499263
0.000139037
-0.000526896
9.00148e-05
-0.000543718
3.08153e-05
-0.00054651
-4.05112e-05
-0.000530768
-0.00012486
-0.000491552
-0.000221097
-0.000424134
-0.000325088
-0.000326337
-0.000425705
-0.000203597
-0.000497567
-7.75679e-05
-0.000488458
-0.000289155
-3.18318e-05
0.000173781
-8.98935e-05
0.000317666
-0.000154719
0.000355537
-0.00021954
0.000354666
-0.000282463
0.000341112
-0.000342844
0.000321523
-0.000400258
0.000296785
-0.000454235
0.000266382
-0.00050411
0.00022923
-0.000548827
0.000183754
-0.000586685
0.000127873
-0.00061499
5.91196e-05
-0.000629944
-2.55565e-05
-0.000625347
-0.000129457
-0.000593556
-0.000252888
-0.000525942
-0.000392702
-0.000415915
-0.000535732
-0.000266466
-0.000647016
-0.000104968
-0.000649956
-0.000394123
-3.38156e-05
0.000207597
-9.59497e-05
0.0003798
-0.000165317
0.000424904
-0.00023472
0.000424069
-0.000302348
0.000408741
-0.00036781
0.000386984
-0.000431016
0.000359992
-0.000491907
0.000327273
-0.00055028
0.000287603
-0.000605558
0.000239032
-0.000656434
0.000178748
-0.000700289
0.000102975
-0.000733346
7.50088e-06
-0.000747324
-0.00011548
-0.00073143
-0.000268782
-0.000671192
-0.00045294
-0.000552014
-0.000654909
-0.000369539
-0.000829492
-0.000154756
-0.00086474
-0.000548878
-3.61756e-05
0.000243773
-0.000103036
0.000446661
-0.000177499
0.000499368
-0.000251848
0.000498418
-0.000324387
0.000481279
-0.00039504
0.000457637
-0.000464163
0.000429114
-0.000532266
0.000395375
-0.000599857
0.000355195
-0.000667211
0.000306387
-0.000733969
0.000245506
-0.000798462
0.000167468
-0.000856299
6.53379e-05
-0.00090039
-7.13885e-05
-0.0009154
-0.000253771
-0.00087952
-0.000488821
-0.000765142
-0.000769287
-0.000550476
-0.00104416
-0.000254735
-0.00116048
-0.000803613
-3.90308e-05
0.000282803
-0.000111367
0.000518997
-0.00019144
0.000579441
-0.000270923
0.000577901
-0.000348267
0.000558623
-0.000423787
0.000533158
-0.000498385
0.000503713
-0.000573302
0.000470292
-0.000650025
0.000431917
-0.00073012
0.000386482
-0.000814871
0.000330257
-0.000904515
0.000257112
-0.000996666
0.000157489
-0.00108634
1.82824e-05
-0.00115678
-0.000183331
-0.00118011
-0.00046549
-0.00111036
-0.000839038
-0.000887011
-0.0012675
-0.000469135
-0.00157836
-0.00127275
-4.26453e-05
0.000325449
-0.000121421
0.000597772
-0.000207609
0.000665629
-0.000292205
0.000662497
-0.000373874
0.000640292
-0.000453396
0.00061268
-0.00053229
0.000582607
-0.000612632
0.000550634
-0.000697096
0.000516381
-0.00078899
0.000478376
-0.000892144
0.000433411
-0.00101046
0.000375423
-0.00114667
0.000293704
-0.00129909
0.000170702
-0.00146335
-1.90745e-05
-0.0016092
-0.000319637
-0.00166835
-0.000779885
-0.00149396
-0.0014419
-0.000891573
-0.00218074
-0.00216432
-4.75421e-05
0.000372991
-0.000134112
0.000684342
-0.000226945
0.000758462
-0.000316391
0.000751942
-0.000401468
0.000725369
-0.000483504
0.000694716
-0.000564662
0.000663765
-0.000647833
0.000633805
-0.000736901
0.000605449
-0.000837149
0.000578624
-0.000955738
0.000552
-0.00110208
0.000521765
-0.00128774
0.000479369
-0.00152497
0.000407926
-0.0018223
0.000278259
-0.00217526
3.3322e-05
-0.00246882
-0.000486328
-0.00237515
-0.00153557
-0.00146832
-0.00308758
-0.00363264
-5.469e-05
0.000427681
-0.000151055
0.000780707
-0.000251109
0.000858516
-0.000344862
0.000845696
-0.000431909
0.000812416
-0.000514276
0.000777084
-0.000594761
0.000744249
-0.000676821
0.000715865
-0.000765181
0.000693808
-0.000866731
0.000680174
-0.000991839
0.000677108
-0.00115629
0.000686217
-0.00138392
0.000706996
-0.00170893
0.000732942
-0.00216872
0.000738051
-0.00274672
0.000611321
-0.00324112
8.06665e-06
-0.00311373
-0.00166296
-0.00187137
-0.00432993
-0.00550401
-6.65091e-05
0.00049419
-0.000175704
0.000889902
-0.000282867
0.000965679
-0.000379197
0.000942026
-0.000466099
0.000899318
-0.00054635
0.000857334
-0.000622794
0.000820694
-0.000698946
0.000792017
-0.000779689
0.000774552
-0.000872429
0.000772914
-0.000989241
0.00079392
-0.00115029
0.00084727
-0.00138902
0.000945726
-0.00175146
0.00109538
-0.00227801
0.0012646
-0.00291115
0.00124446
-0.00338226
0.000479178
-0.0031335
-0.00191172
-0.00190453
-0.00555891
-0.00740854
-8.09621e-05
0.000575152
-0.000206533
0.00101547
-0.000323735
0.00108288
-0.000425087
0.00104338
-0.000510818
0.00098505
-0.000585262
0.000931777
-0.00065241
0.000887842
-0.000715791
0.000855399
-0.000779081
0.000837841
-0.00084746
0.000841293
-0.000930585
0.000877046
-0.00104512
0.000961809
-0.00122166
0.00112226
-0.00149656
0.00137028
-0.00189774
0.00166578
-0.0023263
0.00167303
-0.00262738
0.000780255
-0.00246199
-0.00207711
-0.00166825
-0.00635265
-0.00907679
-0.000146703
0.000721855
-0.000285864
0.00115463
-0.000393542
0.00119056
-0.000478623
0.00112846
-0.000551849
0.00105828
-0.00061683
0.000996758
-0.000674536
0.000945548
-0.000724801
0.000905664
-0.000767648
0.000880688
-0.000802862
0.000876507
-0.00083179
0.000905973
-0.00085759
0.000987609
-0.000891579
0.00115625
-0.000935105
0.00141381
-0.00100829
0.00173896
-0.00106787
0.00173261
-0.00115022
0.000862601
-0.00127121
-0.00195612
-0.00105885
-0.00656501
-0.0101356
-9.70652e-05
0.00081892
-0.000299972
0.00135754
-0.000451981
0.00134257
-0.000560585
0.00123706
-0.000636552
0.00113424
-0.000689585
0.00104979
-0.000725023
0.000980987
-0.000744722
0.000925362
-0.000747906
0.000883872
-0.000728816
0.000857418
-0.000679896
0.000857053
-0.000584812
0.000892525
-0.000428185
0.000999625
-0.00018629
0.00117191
0.00014551
0.00140716
0.000452792
0.00142533
0.000579948
0.000735444
0.000162623
-0.00153879
-0.000110595
-0.00629179
-0.0102462
-0.000389062
0.00120798
-0.000481074
0.00144955
-0.000571754
0.00143325
-0.000655024
0.00132033
-0.000694321
0.00117354
-0.000697224
0.00105269
-0.000671628
0.000955391
-0.000619329
0.000873063
-0.000544691
0.000809234
-0.000440857
0.000753584
-0.000303321
0.000719517
-0.000112598
0.000701802
0.000160905
0.000726121
0.000543307
0.000789509
0.00106762
0.00088285
0.00161668
0.000876269
0.00207887
0.000273257
0.00185021
-0.00131013
0.00097125
-0.00541283
-0.00927498
-0.00134769
0.00255567
-0.00130938
0.00141124
-0.00106572
0.00118959
-0.000714017
0.00096863
-0.000339838
0.000799362
3.60991e-05
0.000676756
0.000400959
0.000590531
0.000751109
0.000522913
0.00108675
0.000473597
0.00141074
0.000429594
0.00172998
0.000400271
0.00205323
0.00037855
0.00241252
0.00036684
0.00282759
0.000374439
0.00337483
0.000335601
0.0039933
0.000257799
0.00444498
-0.000178419
0.00434461
-0.00120977
0.00268871
-0.00375693
-0.00658627
0.00255567
0.00396691
0.0051565
0.00612513
0.00692449
0.00760125
0.00819178
0.00871469
0.00918829
0.00961789
0.0100182
0.0103967
0.0107635
0.011138
0.0114736
0.0117314
0.011553
0.0103432
0.00658627
)
;

boundaryField
{
    movingWall
    {
        type            calculated;
        value           uniform 0;
    }
    fixedWalls
    {
        type            calculated;
        value           uniform 0;
    }
    frontAndBack
    {
        type            empty;
        value           nonuniform List<scalar> 0();
    }
}


// ************************************************************************* //
