/*--------------------------------*- C++ -*----------------------------------*\
  =========                 |
  \\      /  F ield         | OpenFOAM: The Open Source CFD Toolbox
   \\    /   O peration     | Website:  https://openfoam.org
    \\  /    A nd           | Version:  10
     \\/     M anipulation  |
\*---------------------------------------------------------------------------*/
FoamFile
{
    format      ascii;
    class       volVectorField;
    location    "8.95";
    object      U;
}
// * * * * * * * * * * * * * * * * * * * * * * * * * * * * * * * * * * * * * //

dimensions      [0 1 -1 0 0 0 0];

internalField   nonuniform List<vector> 
475
(
(0.974444 0.0161034 0)
(0.97564 0.0064215 0)
(0.95043 0.0314742 0)
(0.954141 0.00129224 0)
(0.920128 0.0302645 0)
(0.998383 0.00870336 0)
(1.01421 0.0148228 0)
(1.02523 0.0152339 0)
(1.04392 0.0087139 0)
(1.05558 0.00223628 0)
(0.999679 0.000273221 0)
(1.00998 -0.00294778 0)
(1.02402 -0.00466147 0)
(1.04147 -0.00931412 0)
(1.05623 -0.014277 0)
(0.999717 -0.0100384 0)
(1.01043 -0.0195075 0)
(1.02247 -0.0220261 0)
(1.03576 -0.0230462 0)
(1.04424 -0.0255749 0)
(0.9808 -0.00965304 0)
(0.969125 -0.019148 0)
(0.9537 -0.0218008 0)
(0.933421 -0.0223299 0)
(0.907637 -0.0228614 0)
(0.924618 -0.0158898 0)
(0.932018 -0.0358043 0)
(0.937289 -0.0486519 0)
(0.943707 -0.0582648 0)
(0.952431 -0.0669194 0)
(0.965161 -0.0768751 0)
(0.980834 -0.0891755 0)
(0.999344 -0.104226 0)
(1.01855 -0.12251 0)
(1.03778 -0.142887 0)
(1.05505 -0.165168 0)
(1.06926 -0.18671 0)
(1.07847 -0.206767 0)
(1.08193 -0.222351 0)
(1.07897 -0.2328 0)
(1.06881 -0.236278 0)
(1.05171 -0.233464 0)
(1.02782 -0.225865 0)
(0.998953 -0.214145 0)
(0.968579 -0.198055 0)
(0.939178 -0.178283 0)
(0.911307 -0.155124 0)
(0.885061 -0.129219 0)
(0.861048 -0.102098 0)
(0.839555 -0.0747803 0)
(0.822853 -0.0481048 0)
(0.810156 -0.022766 0)
(0.803181 0.00118721 0)
(0.79836 0.0225458 0)
(0.799699 0.0420519 0)
(0.799719 0.057859 0)
(0.806235 0.0714894 0)
(0.807295 0.0800415 0)
(0.815595 0.0868257 0)
(0.814697 0.0876366 0)
(0.821769 0.0871903 0)
(0.817529 0.0817349 0)
(0.821571 0.0753036 0)
(0.814179 0.0672345 0)
(0.815547 0.0576144 0)
(0.805328 0.0502017 0)
(0.805072 0.0415277 0)
(0.790985 0.0362151 0)
(0.79055 0.032146 0)
(0.773604 0.0273983 0)
(1.0687 -0.00838655 0)
(1.07786 -0.0207874 0)
(1.0827 -0.0326546 0)
(1.08432 -0.0435894 0)
(1.08459 -0.0547113 0)
(1.08531 -0.0668819 0)
(1.08523 -0.0813571 0)
(1.0855 -0.0980641 0)
(1.08315 -0.117778 0)
(1.0798 -0.138684 0)
(1.07182 -0.160938 0)
(1.06083 -0.181177 0)
(1.04373 -0.198833 0)
(1.02176 -0.209232 0)
(0.993498 -0.212568 0)
(0.958921 -0.207242 0)
(0.917882 -0.199265 0)
(0.87026 -0.189436 0)
(0.819099 -0.17518 0)
(0.768907 -0.156094 0)
(0.721083 -0.134848 0)
(0.677438 -0.112892 0)
(0.638854 -0.0915829 0)
(0.604993 -0.0711506 0)
(0.576063 -0.0513877 0)
(0.554364 -0.0321621 0)
(0.540422 -0.0136553 0)
(0.533229 0.00419328 0)
(0.531502 0.0209993 0)
(0.537327 0.0367567 0)
(0.545241 0.0498181 0)
(0.559413 0.0614455 0)
(0.57113 0.0690828 0)
(0.588914 0.0757853 0)
(0.600456 0.0769987 0)
(0.617593 0.078136 0)
(0.626464 0.0732597 0)
(0.639074 0.0694579 0)
(0.644501 0.0618738 0)
(0.651242 0.0557427 0)
(0.652858 0.0499166 0)
(0.654552 0.0441447 0)
(0.652697 0.0407331 0)
(0.653056 0.0367209 0)
(0.650155 0.0333968 0)
(1.06879 -0.0222274 0)
(1.0766 -0.0325088 0)
(1.0809 -0.0437567 0)
(1.08137 -0.0545106 0)
(1.07883 -0.0652257 0)
(1.07468 -0.0760609 0)
(1.06714 -0.0886232 0)
(1.05896 -0.102233 0)
(1.04559 -0.118408 0)
(1.03143 -0.135087 0)
(1.00989 -0.15341 0)
(0.98706 -0.169038 0)
(0.956239 -0.181899 0)
(0.922083 -0.185166 0)
(0.87869 -0.176658 0)
(0.826765 -0.159158 0)
(0.762103 -0.146774 0)
(0.691001 -0.139245 0)
(0.621949 -0.130722 0)
(0.550988 -0.114776 0)
(0.480225 -0.0922223 0)
(0.417042 -0.0677288 0)
(0.364783 -0.0461379 0)
(0.322933 -0.0298417 0)
(0.290633 -0.0176892 0)
(0.268164 -0.00779224 0)
(0.255123 0.00166645 0)
(0.250106 0.0118517 0)
(0.25183 0.0219764 0)
(0.259777 0.0315605 0)
(0.27185 0.0400812 0)
(0.288945 0.048028 0)
(0.307066 0.0539551 0)
(0.329253 0.0588918 0)
(0.349363 0.0604669 0)
(0.372496 0.0614843 0)
(0.391695 0.0585895 0)
(0.411398 0.0571322 0)
(0.429066 0.0517969 0)
(0.442516 0.0493749 0)
(0.459637 0.043683 0)
(0.467041 0.0405126 0)
(0.484569 0.036333 0)
(0.488206 0.0331151 0)
(0.50604 0.0304443 0)
(1.05076 -0.029969 0)
(1.05116 -0.0359514 0)
(1.04893 -0.0423004 0)
(1.04052 -0.0489665 0)
(1.02882 -0.0553051 0)
(1.01168 -0.0623105 0)
(0.990022 -0.0698106 0)
(0.963831 -0.078776 0)
(0.929958 -0.0889282 0)
(0.892428 -0.100305 0)
(0.842721 -0.112561 0)
(0.791728 -0.123164 0)
(0.725202 -0.132377 0)
(0.659198 -0.131532 0)
(0.587729 -0.115069 0)
(0.504473 -0.0915445 0)
(0.390661 -0.0651028 0)
(0.266125 -0.0343302 0)
(0.166318 -0.00770895 0)
(0.0964755 0.000190113 0)
(0.0542034 -0.00301651 0)
(0.031408 -0.00540654 0)
(0.0186194 -0.00512373 0)
(0.01134 -0.00377908 0)
(0.00764719 -0.00199402 0)
(0.00683514 0.000256857 0)
(0.00880047 0.00321762 0)
(0.0142186 0.00684863 0)
(0.0234666 0.0110398 0)
(0.0365868 0.01575 0)
(0.0531389 0.020449 0)
(0.0732344 0.0250489 0)
(0.0957315 0.028778 0)
(0.120981 0.0318454 0)
(0.146866 0.0332992 0)
(0.174519 0.0341635 0)
(0.200855 0.0332565 0)
(0.227232 0.0321335 0)
(0.252151 0.0293197 0)
(0.27398 0.0272308 0)
(0.298013 0.0235599 0)
(0.312848 0.0217167 0)
(0.337756 0.0182966 0)
(0.344571 0.0169084 0)
(0.371658 0.015003 0)
(0.880262 -0.0242057 0)
(0.84874 -0.0261333 0)
(0.815937 -0.0280736 0)
(0.777146 -0.0304474 0)
(0.736276 -0.0322143 0)
(0.688006 -0.0351824 0)
(0.637327 -0.037261 0)
(0.578466 -0.0419476 0)
(0.515109 -0.0449109 0)
(0.443226 -0.051727 0)
(0.361038 -0.0551842 0)
(0.275113 -0.061977 0)
(0.165198 -0.0668468 0)
(0.0664353 -0.0319838 0)
(-0.000228778 0.0173396 0)
(-0.031554 0.0514789 0)
(-0.0372631 0.068976 0)
(-0.0265466 0.0557996 0)
(-0.0127784 0.0238844 0)
(-0.00863499 -0.00789772 0)
(-0.0193157 -0.0234129 0)
(-0.0366374 -0.0250184 0)
(-0.0523213 -0.0203593 0)
(-0.0643661 -0.0149952 0)
(-0.072892 -0.0107529 0)
(-0.0783628 -0.00764474 0)
(-0.0809613 -0.0051941 0)
(-0.0806732 -0.00287629 0)
(-0.0773999 -0.000719097 0)
(-0.0709487 0.00127112 0)
(-0.0612735 0.00305235 0)
(-0.0484138 0.00467713 0)
(-0.0328328 0.00596772 0)
(-0.0148955 0.00697205 0)
(0.00461989 0.00747228 0)
(0.0251491 0.00773502 0)
(0.0453924 0.00739777 0)
(0.0652451 0.00683895 0)
(0.0836429 0.00594939 0)
(0.100496 0.00503675 0)
(0.115811 0.00416327 0)
(0.128402 0.00335208 0)
(0.141395 0.00266765 0)
(0.14854 0.00250797 0)
(0.163643 0.00223017 0)
(0.00254481 -0.0236429 0)
(0.0024543 -0.0233405 0)
(-0.00556441 -0.0157563 0)
(-0.0219785 -0.000629987 0)
(-0.0532551 0.014608 0)
(-0.0944528 0.0231923 0)
(-0.138648 0.0261579 0)
(-0.181853 0.0262273 0)
(-0.220295 0.0240573 0)
(-0.25085 0.0202564 0)
(-0.270837 0.0151735 0)
(-0.278984 0.00927781 0)
(-0.275441 0.00246735 0)
(-0.260033 -0.00442325 0)
(-0.233324 -0.0109155 0)
(-0.196701 -0.0162962 0)
(-0.152431 -0.019956 0)
(-0.102903 -0.0222854 0)
(-0.0504448 -0.0230612 0)
(0.00300879 -0.0225955 0)
(0.055374 -0.021287 0)
(0.104411 -0.0189522 0)
(0.148243 -0.0157196 0)
(0.185302 -0.0118849 0)
(0.214378 -0.00775663 0)
(0.235127 -0.00349232 0)
(0.24691 0.000577189 0)
(0.250175 0.00424292 0)
(0.245806 0.00762113 0)
(0.234977 0.00976507 0)
(0.219294 0.0104012 0)
(0.200729 0.0101836 0)
(0.180939 0.00973636 0)
(0.161491 0.00888271 0)
(0.143214 0.00732574 0)
(0.127147 0.00514541 0)
(0.113722 0.00278005 0)
(0.103967 0.000609622 0)
(0.097658 -0.00113734 0)
(0.0949266 -0.00227405 0)
(0.094518 -0.00293778 0)
(0.0960126 -0.00334325 0)
(0.098821 -0.00311301 0)
(0.101569 -0.00298334 0)
(0.107351 -0.00201063 0)
(-0.000876683 0.0200153 0)
(-0.018181 0.0334452 0)
(-0.0586314 0.0427153 0)
(-0.0934213 0.0520656 0)
(-0.126895 0.0599191 0)
(-0.153757 0.0621933 0)
(-0.174788 0.0596092 0)
(-0.18954 0.0529283 0)
(-0.19759 0.0427377 0)
(-0.197261 0.0290943 0)
(-0.187346 0.0133755 0)
(-0.167996 -0.00412617 0)
(-0.139163 -0.0221199 0)
(-0.101059 -0.0395989 0)
(-0.0542627 -0.0555257 0)
(-0.00031724 -0.0683978 0)
(0.0596563 -0.0776377 0)
(0.122379 -0.0830068 0)
(0.185961 -0.0847679 0)
(0.248326 -0.0833392 0)
(0.307793 -0.0791322 0)
(0.363249 -0.0721952 0)
(0.413037 -0.0628856 0)
(0.456114 -0.0516881 0)
(0.491156 -0.0392961 0)
(0.518429 -0.0265802 0)
(0.537189 -0.0138013 0)
(0.547759 -0.00185839 0)
(0.55087 0.00903707 0)
(0.546918 0.0183891 0)
(0.53607 0.0254545 0)
(0.519868 0.0296335 0)
(0.49956 0.030874 0)
(0.477709 0.0298321 0)
(0.455071 0.0276298 0)
(0.43395 0.024389 0)
(0.414048 0.0202165 0)
(0.39681 0.0148787 0)
(0.382364 0.00972349 0)
(0.371603 0.0047892 0)
(0.363629 0.00146032 0)
(0.358889 -0.00132299 0)
(0.355808 -0.0031335 0)
(0.35565 -0.00445348 0)
(0.356018 -0.00467372 0)
(-0.034707 -0.0106447 0)
(-0.0673683 0.0294511 0)
(-0.0766567 0.0484396 0)
(-0.0794629 0.0599016 0)
(-0.0740874 0.0653115 0)
(-0.0621833 0.064005 0)
(-0.0457223 0.0576336 0)
(-0.0241819 0.0463919 0)
(0.000883263 0.0306776 0)
(0.0311513 0.0109669 0)
(0.0676958 -0.0119762 0)
(0.110577 -0.037407 0)
(0.159783 -0.0638831 0)
(0.213052 -0.0887842 0)
(0.270492 -0.111125 0)
(0.329859 -0.128721 0)
(0.3897 -0.140744 0)
(0.448601 -0.147312 0)
(0.505225 -0.148572 0)
(0.558457 -0.1452 0)
(0.607449 -0.137168 0)
(0.651773 -0.12482 0)
(0.69032 -0.108908 0)
(0.722755 -0.090414 0)
(0.748247 -0.0700999 0)
(0.767487 -0.0493783 0)
(0.780067 -0.0287896 0)
(0.786626 -0.00916583 0)
(0.787219 0.00862223 0)
(0.782898 0.0237036 0)
(0.77262 0.0359168 0)
(0.758461 0.0447369 0)
(0.740477 0.0502422 0)
(0.721304 0.0517059 0)
(0.699791 0.0503696 0)
(0.679952 0.0465546 0)
(0.658894 0.0408167 0)
(0.641694 0.0331291 0)
(0.622438 0.0240672 0)
(0.60948 0.0164514 0)
(0.593286 0.0093932 0)
(0.586129 0.00439906 0)
(0.574319 0.000501604 0)
(0.571056 -0.00380583 0)
(0.5632 -0.00310675 0)
(-0.0298004 0.141481 0)
(-0.0255669 0.0893664 0)
(-0.0140896 0.0715281 0)
(0.0126376 0.0607244 0)
(0.0477354 0.0516747 0)
(0.0900587 0.0420562 0)
(0.137433 0.0293056 0)
(0.188177 0.0129705 0)
(0.241 -0.00822096 0)
(0.296808 -0.0339611 0)
(0.354986 -0.0627796 0)
(0.414494 -0.0922988 0)
(0.474632 -0.12155 0)
(0.534348 -0.148518 0)
(0.592334 -0.171229 0)
(0.647388 -0.188264 0)
(0.698263 -0.198649 0)
(0.744192 -0.202542 0)
(0.784839 -0.200536 0)
(0.820493 -0.19309 0)
(0.851194 -0.179967 0)
(0.877323 -0.161638 0)
(0.898433 -0.139289 0)
(0.91513 -0.114264 0)
(0.926861 -0.0878189 0)
(0.935102 -0.0610554 0)
(0.939015 -0.0347497 0)
(0.940111 -0.01012 0)
(0.937133 0.0126601 0)
(0.932445 0.0320048 0)
(0.92287 0.0476707 0)
(0.912219 0.0595585 0)
(0.89701 0.0674408 0)
(0.883355 0.0714186 0)
(0.864276 0.0708173 0)
(0.849464 0.0675227 0)
(0.828976 0.0605583 0)
(0.81574 0.0527518 0)
(0.7951 0.0430799 0)
(0.783505 0.0332774 0)
(0.764246 0.0254995 0)
(0.756044 0.0168266 0)
(0.738362 0.0126533 0)
(0.733195 0.00690356 0)
(0.714067 0.00331533 0)
(0.0816355 0.00478814 0)
(0.119721 -0.004231 0)
(0.202957 -0.00755234 0)
(0.268041 -0.013653 0)
(0.329243 -0.022066 0)
(0.391458 -0.0331227 0)
(0.45346 -0.0467837 0)
(0.515722 -0.063773 0)
(0.577337 -0.0842113 0)
(0.638163 -0.107825 0)
(0.697745 -0.13409 0)
(0.754156 -0.160568 0)
(0.806311 -0.18599 0)
(0.853018 -0.208088 0)
(0.893172 -0.22514 0)
(0.925832 -0.235892 0)
(0.950553 -0.239572 0)
(0.967765 -0.237237 0)
(0.978428 -0.229762 0)
(0.984251 -0.217414 0)
(0.98648 -0.199872 0)
(0.985971 -0.177322 0)
(0.982801 -0.150856 0)
(0.97839 -0.122122 0)
(0.972538 -0.09265 0)
(0.967289 -0.0633269 0)
(0.961422 -0.0351431 0)
(0.957363 -0.0086254 0)
(0.951784 0.0156205 0)
(0.948527 0.0367173 0)
(0.941726 0.0538135 0)
(0.938399 0.0677431 0)
(0.929273 0.076824 0)
(0.925221 0.0826249 0)
(0.912952 0.0829386 0)
(0.907612 0.0811182 0)
(0.892928 0.0748773 0)
(0.887005 0.067072 0)
(0.870614 0.0578139 0)
(0.864063 0.0474564 0)
(0.845884 0.0395532 0)
(0.840308 0.0304612 0)
(0.820019 0.0248443 0)
(0.817227 0.0202423 0)
(0.794133 0.0160756 0)
)
;

boundaryField
{
    inlet
    {
        type            fixedValue;
        value           uniform (1 0 0);
    }
    outlet
    {
        type            zeroGradient;
    }
    upperWall
    {
        type            noSlip;
    }
    lowerWall
    {
        type            noSlip;
    }
    frontAndBack
    {
        type            empty;
    }
}


// ************************************************************************* //
