/*--------------------------------*- C++ -*----------------------------------*\
  =========                 |
  \\      /  F ield         | OpenFOAM: The Open Source CFD Toolbox
   \\    /   O peration     | Website:  https://openfoam.org
    \\  /    A nd           | Version:  10
     \\/     M anipulation  |
\*---------------------------------------------------------------------------*/
FoamFile
{
    format      ascii;
    class       volVectorField;
    location    "3.075";
    object      U;
}
// * * * * * * * * * * * * * * * * * * * * * * * * * * * * * * * * * * * * * //

dimensions      [0 1 -1 0 0 0 0];

internalField   nonuniform List<vector> 
475
(
(0.964997 0.0172325 0)
(0.987427 0.00274583 0)
(0.93976 0.034203 0)
(0.969446 -0.00519803 0)
(0.91233 0.0291649 0)
(0.997251 0.00867151 0)
(1.01599 0.0124922 0)
(1.02329 0.0166202 0)
(1.04449 0.00381715 0)
(1.05215 -0.00220339 0)
(1.00041 -0.000511823 0)
(1.00832 -0.00253661 0)
(1.0245 -0.00582493 0)
(1.04214 -0.0118913 0)
(1.05436 -0.0154725 0)
(1.0002 -0.0099565 0)
(1.00904 -0.0193126 0)
(1.02265 -0.0248735 0)
(1.03519 -0.0243326 0)
(1.04258 -0.0259871 0)
(0.980337 -0.00954502 0)
(0.969903 -0.0188907 0)
(0.953095 -0.0229826 0)
(0.930971 -0.0221024 0)
(0.905588 -0.0244514 0)
(0.940066 -0.0308552 0)
(0.938726 -0.0327666 0)
(0.930371 -0.0357 0)
(0.940032 -0.0434448 0)
(0.979298 -0.0587992 0)
(1.02403 -0.0970253 0)
(1.06427 -0.163121 0)
(1.10133 -0.235181 0)
(1.10628 -0.305002 0)
(1.08099 -0.364668 0)
(1.0443 -0.384805 0)
(0.968251 -0.37155 0)
(0.870907 -0.319338 0)
(0.781572 -0.216247 0)
(0.676379 -0.112971 0)
(0.57302 -0.0492489 0)
(0.512532 -0.0111194 0)
(0.499258 0.0222877 0)
(0.51421 0.0507215 0)
(0.537643 0.066694 0)
(0.557663 0.06911 0)
(0.570841 0.0619019 0)
(0.578164 0.0501852 0)
(0.581753 0.0379211 0)
(0.583369 0.0272728 0)
(0.584092 0.0189604 0)
(0.584461 0.0128845 0)
(0.584696 0.00862182 0)
(0.584877 0.00570588 0)
(0.585021 0.00374181 0)
(0.585139 0.00243203 0)
(0.585229 0.0015651 0)
(0.585298 0.000995299 0)
(0.58535 0.000623681 0)
(0.585386 0.000383342 0)
(0.585413 0.000229923 0)
(0.58543 0.000132929 0)
(0.585443 7.34072e-05 0)
(0.585451 3.69979e-05 0)
(0.585456 1.64134e-05 0)
(0.58546 4.60604e-06 0)
(0.585462 -7.62291e-07 0)
(0.585463 -2.46755e-06 0)
(0.585464 -2.60994e-06 0)
(0.585465 7.84768e-07 0)
(1.06574 -0.0220011 0)
(1.07769 -0.0326449 0)
(1.08053 -0.0317822 0)
(1.0855 -0.0394543 0)
(1.10409 -0.0620716 0)
(1.12024 -0.0955705 0)
(1.1306 -0.148817 0)
(1.1274 -0.21321 0)
(1.08687 -0.276278 0)
(1.0242 -0.324073 0)
(0.959334 -0.322512 0)
(0.86238 -0.281535 0)
(0.744736 -0.21095 0)
(0.654812 -0.0923712 0)
(0.585636 0.0172002 0)
(0.525853 0.0518948 0)
(0.482875 0.0355954 0)
(0.462843 0.0190659 0)
(0.46582 0.0193464 0)
(0.483867 0.0274992 0)
(0.506639 0.0335787 0)
(0.527537 0.0342603 0)
(0.544208 0.0306275 0)
(0.55653 0.0249354 0)
(0.565226 0.0189888 0)
(0.571205 0.0137801 0)
(0.575263 0.00965714 0)
(0.578 0.00659709 0)
(0.579845 0.0044208 0)
(0.581084 0.00291701 0)
(0.581915 0.00189818 0)
(0.582468 0.0012179 0)
(0.582836 0.000768957 0)
(0.583078 0.000476057 0)
(0.583236 0.000287291 0)
(0.583339 0.000167525 0)
(0.583404 9.27019e-05 0)
(0.583445 4.76394e-05 0)
(0.583472 2.05528e-05 0)
(0.583487 6.05035e-06 0)
(0.583498 -1.67698e-06 0)
(0.583503 -4.65932e-06 0)
(0.583507 -4.74591e-06 0)
(0.583509 -4.17771e-06 0)
(0.583511 -3.60622e-07 0)
(1.06606 -0.0310885 0)
(1.07321 -0.0380632 0)
(1.07533 -0.0438188 0)
(1.07729 -0.064162 0)
(1.07735 -0.0866194 0)
(1.07466 -0.115778 0)
(1.06963 -0.162246 0)
(1.04587 -0.207902 0)
(1.00371 -0.242821 0)
(0.946882 -0.270069 0)
(0.87467 -0.255082 0)
(0.789556 -0.194935 0)
(0.699038 -0.13718 0)
(0.637038 -0.0721541 0)
(0.615925 0.00278114 0)
(0.615339 0.0463513 0)
(0.608099 0.049155 0)
(0.585267 0.0366204 0)
(0.559913 0.028925 0)
(0.543692 0.0281086 0)
(0.537896 0.0286654 0)
(0.539216 0.027175 0)
(0.544074 0.0234354 0)
(0.549881 0.0186168 0)
(0.555222 0.0138717 0)
(0.559553 0.00985288 0)
(0.562821 0.00675604 0)
(0.565178 0.0045126 0)
(0.566832 0.00295287 0)
(0.56797 0.00189838 0)
(0.568745 0.00119914 0)
(0.569267 0.000742795 0)
(0.569617 0.000448855 0)
(0.569849 0.000262382 0)
(0.570001 0.000146008 0)
(0.570101 7.47355e-05 0)
(0.570164 3.25735e-05 0)
(0.570204 8.90593e-06 0)
(0.570229 -4.02857e-06 0)
(0.570243 -9.21579e-06 0)
(0.570252 -1.09748e-05 0)
(0.570256 -1.03703e-05 0)
(0.570259 -8.03831e-06 0)
(0.570259 -6.43102e-06 0)
(0.570261 -2.07828e-06 0)
(1.04634 -0.035115 0)
(1.04538 -0.0419166 0)
(1.03717 -0.0484056 0)
(1.03014 -0.0573821 0)
(1.01499 -0.07272 0)
(0.986752 -0.0901375 0)
(0.960571 -0.110012 0)
(0.902665 -0.145983 0)
(0.821244 -0.174517 0)
(0.745511 -0.175684 0)
(0.638194 -0.15386 0)
(0.509191 -0.100712 0)
(0.40852 -0.0406995 0)
(0.353483 0.00556608 0)
(0.337929 0.0410079 0)
(0.347442 0.0630555 0)
(0.365106 0.0694474 0)
(0.38281 0.065595 0)
(0.399335 0.0564504 0)
(0.415789 0.0453051 0)
(0.43264 0.0345772 0)
(0.448852 0.0254424 0)
(0.463079 0.0181473 0)
(0.474579 0.0125754 0)
(0.483289 0.00848701 0)
(0.489571 0.00559397 0)
(0.493943 0.0036094 0)
(0.496906 0.00228208 0)
(0.498877 0.00141235 0)
(0.500167 0.000852419 0)
(0.501002 0.000497567 0)
(0.501533 0.000277099 0)
(0.501866 0.000142577 0)
(0.502071 6.31745e-05 0)
(0.502193 1.84783e-05 0)
(0.502264 -5.52096e-06 0)
(0.502302 -1.63801e-05 0)
(0.502323 -2.03196e-05 0)
(0.502331 -2.0537e-05 0)
(0.502333 -1.79886e-05 0)
(0.502333 -1.5397e-05 0)
(0.50233 -1.23523e-05 0)
(0.502328 -8.84356e-06 0)
(0.502326 -6.75897e-06 0)
(0.502324 -2.79694e-06 0)
(0.873902 -0.025569 0)
(0.842189 -0.0267204 0)
(0.801837 -0.0325225 0)
(0.76078 -0.0322036 0)
(0.712301 -0.0407975 0)
(0.644491 -0.0495243 0)
(0.57866 -0.0551233 0)
(0.474908 -0.0904538 0)
(0.32122 -0.101956 0)
(0.185553 -0.0498001 0)
(0.0930345 0.00273549 0)
(0.037265 0.0204477 0)
(0.0124771 0.0175011 0)
(0.0113503 0.013146 0)
(0.0297413 0.013754 0)
(0.0625065 0.0143491 0)
(0.100917 0.0114508 0)
(0.138059 0.00653465 0)
(0.169749 0.00252645 0)
(0.194764 0.000492543 0)
(0.213779 -0.000149014 0)
(0.22788 -0.000222022 0)
(0.238088 -0.000169734 0)
(0.245275 -0.000130795 0)
(0.250187 -0.000119154 0)
(0.253448 -0.000119768 0)
(0.255553 -0.000120427 0)
(0.256874 -0.000116695 0)
(0.257681 -0.000108523 0)
(0.258155 -9.74421e-05 0)
(0.258421 -8.50414e-05 0)
(0.258559 -7.24174e-05 0)
(0.258621 -6.06194e-05 0)
(0.258639 -4.97284e-05 0)
(0.258634 -3.99784e-05 0)
(0.258617 -3.15434e-05 0)
(0.258596 -2.4499e-05 0)
(0.258575 -1.90606e-05 0)
(0.258556 -1.43807e-05 0)
(0.25854 -1.08192e-05 0)
(0.258526 -8.17359e-06 0)
(0.258516 -5.71279e-06 0)
(0.258508 -3.98443e-06 0)
(0.258502 -2.80092e-06 0)
(0.258498 -1.1e-06 0)
(-0.00811962 -0.0254062 0)
(-0.0311519 -0.0099428 0)
(-0.093468 0.0286964 0)
(-0.208322 0.060124 0)
(-0.335852 0.0645386 0)
(-0.440701 0.0526668 0)
(-0.500267 0.0314036 0)
(-0.509249 0.00596049 0)
(-0.470068 -0.0226873 0)
(-0.385041 -0.0474332 0)
(-0.261817 -0.0654828 0)
(-0.114295 -0.0723166 0)
(0.0388173 -0.0651264 0)
(0.176189 -0.0483347 0)
(0.280566 -0.026758 0)
(0.343567 -0.0061881 0)
(0.368243 0.00832507 0)
(0.365824 0.0151918 0)
(0.349266 0.0158191 0)
(0.328623 0.0131202 0)
(0.309414 0.00957427 0)
(0.293771 0.00641245 0)
(0.281999 0.00401886 0)
(0.273622 0.00237926 0)
(0.267911 0.00133275 0)
(0.26415 0.000699221 0)
(0.261746 0.00033199 0)
(0.260254 0.000128409 0)
(0.259354 2.1925e-05 0)
(0.258831 -2.9025e-05 0)
(0.258541 -4.95814e-05 0)
(0.258393 -5.44136e-05 0)
(0.258328 -5.14064e-05 0)
(0.258308 -4.52467e-05 0)
(0.258315 -3.77313e-05 0)
(0.258332 -3.04518e-05 0)
(0.258353 -2.41777e-05 0)
(0.258375 -1.86333e-05 0)
(0.258394 -1.44517e-05 0)
(0.258411 -1.09226e-05 0)
(0.258424 -7.98789e-06 0)
(0.258435 -5.95074e-06 0)
(0.258442 -4.09097e-06 0)
(0.258448 -2.64269e-06 0)
(0.258452 -1.03963e-06 0)
(-0.0234357 0.0721477 0)
(-0.0820522 0.103845 0)
(-0.16481 0.151268 0)
(-0.248966 0.170401 0)
(-0.318282 0.153457 0)
(-0.36565 0.109058 0)
(-0.377907 0.0473488 0)
(-0.355567 -0.0316375 0)
(-0.298717 -0.107914 0)
(-0.206681 -0.176308 0)
(-0.0875338 -0.225302 0)
(0.0519988 -0.246788 0)
(0.195852 -0.235378 0)
(0.327569 -0.193844 0)
(0.438869 -0.134521 0)
(0.518955 -0.0738089 0)
(0.563142 -0.0251722 0)
(0.577953 0.00654668 0)
(0.575318 0.0225035 0)
(0.565423 0.02712 0)
(0.553692 0.0254936 0)
(0.542365 0.0211762 0)
(0.532423 0.0162425 0)
(0.52425 0.0117683 0)
(0.517858 0.00816849 0)
(0.513054 0.00547994 0)
(0.509565 0.00357222 0)
(0.507101 0.00226913 0)
(0.505407 0.00140464 0)
(0.504266 0.000844382 0)
(0.503513 0.000489306 0)
(0.503025 0.000268814 0)
(0.502716 0.000135784 0)
(0.502525 5.78653e-05 0)
(0.502409 1.42464e-05 0)
(0.502343 -7.89471e-06 0)
(0.502305 -1.85396e-05 0)
(0.502287 -2.16435e-05 0)
(0.502279 -2.09829e-05 0)
(0.502277 -1.88758e-05 0)
(0.502278 -1.56388e-05 0)
(0.502281 -1.235e-05 0)
(0.502282 -9.15771e-06 0)
(0.502285 -6.78417e-06 0)
(0.502286 -2.70167e-06 0)
(-0.0152862 0.0661271 0)
(-0.0248678 0.115502 0)
(-0.0289262 0.16576 0)
(-0.0401896 0.186655 0)
(-0.0375678 0.164986 0)
(-0.0261508 0.110245 0)
(-0.00450037 0.0299406 0)
(0.0353432 -0.0689139 0)
(0.101968 -0.174138 0)
(0.181817 -0.267302 0)
(0.269798 -0.337939 0)
(0.35795 -0.371053 0)
(0.441774 -0.358132 0)
(0.512904 -0.304914 0)
(0.571943 -0.222973 0)
(0.621857 -0.127792 0)
(0.653033 -0.0460838 0)
(0.659057 0.00494373 0)
(0.647847 0.0277999 0)
(0.631867 0.0336461 0)
(0.617699 0.0316869 0)
(0.606421 0.0268946 0)
(0.597597 0.0214973 0)
(0.590692 0.0164572 0)
(0.585292 0.0121651 0)
(0.581113 0.00872574 0)
(0.577946 0.00609528 0)
(0.575603 0.00415876 0)
(0.573911 0.00277712 0)
(0.572714 0.00181644 0)
(0.571885 0.00116333 0)
(0.571317 0.000727744 0)
(0.570936 0.000442848 0)
(0.570683 0.000259955 0)
(0.570517 0.000144568 0)
(0.57041 7.42395e-05 0)
(0.570342 3.19844e-05 0)
(0.5703 8.41049e-06 0)
(0.570274 -3.93684e-06 0)
(0.570258 -9.59596e-06 0)
(0.570249 -1.11369e-05 0)
(0.570245 -1.02562e-05 0)
(0.570242 -8.24295e-06 0)
(0.570242 -6.46747e-06 0)
(0.57024 -1.98267e-06 0)
(0.00643206 0.14729 0)
(0.0610005 0.130653 0)
(0.125639 0.190659 0)
(0.191276 0.205481 0)
(0.263279 0.173701 0)
(0.323756 0.106896 0)
(0.387859 0.00432112 0)
(0.459662 -0.108237 0)
(0.523467 -0.222582 0)
(0.585506 -0.315423 0)
(0.642245 -0.385802 0)
(0.677475 -0.427778 0)
(0.70303 -0.404402 0)
(0.714182 -0.33273 0)
(0.7042 -0.249983 0)
(0.69745 -0.157098 0)
(0.700793 -0.0609423 0)
(0.699068 0.011756 0)
(0.684834 0.0482121 0)
(0.663579 0.0568675 0)
(0.642527 0.0514103 0)
(0.625251 0.0416591 0)
(0.612443 0.0321571 0)
(0.603457 0.024208 0)
(0.597282 0.0178776 0)
(0.593037 0.0129491 0)
(0.590097 0.00919113 0)
(0.588047 0.00639287 0)
(0.586615 0.00436071 0)
(0.585615 0.00291994 0)
(0.584923 0.00192068 0)
(0.584447 0.00124087 0)
(0.584124 0.00078657 0)
(0.583906 0.000488008 0)
(0.583761 0.000294633 0)
(0.583666 0.000172117 0)
(0.583604 9.53537e-05 0)
(0.583564 4.89842e-05 0)
(0.583539 2.14594e-05 0)
(0.583523 6.31915e-06 0)
(0.583514 -1.62899e-06 0)
(0.583508 -4.50053e-06 0)
(0.583504 -4.78404e-06 0)
(0.583503 -4.1957e-06 0)
(0.5835 -2.96956e-07 0)
(0.127592 -0.0327429 0)
(0.106054 -0.0168877 0)
(0.250367 0.0126345 0)
(0.361778 0.0286577 0)
(0.481722 0.0191462 0)
(0.589989 -0.0270568 0)
(0.691122 -0.0986479 0)
(0.782768 -0.189539 0)
(0.842827 -0.295963 0)
(0.879781 -0.379059 0)
(0.900965 -0.419446 0)
(0.879778 -0.439 0)
(0.839424 -0.405129 0)
(0.796459 -0.305518 0)
(0.731649 -0.1994 0)
(0.669656 -0.115069 0)
(0.638712 -0.041099 0)
(0.63165 0.0209508 0)
(0.632501 0.0593224 0)
(0.631425 0.0724452 0)
(0.625288 0.0680476 0)
(0.616068 0.0557849 0)
(0.606804 0.0423751 0)
(0.599312 0.0308584 0)
(0.594026 0.021948 0)
(0.590615 0.0153848 0)
(0.588538 0.0106666 0)
(0.587312 0.00732152 0)
(0.586596 0.00497402 0)
(0.586173 0.00334218 0)
(0.585919 0.00221888 0)
(0.58576 0.00145353 0)
(0.585658 0.000937852 0)
(0.585592 0.0005946 0)
(0.585547 0.000368811 0)
(0.585519 0.000222872 0)
(0.585498 0.000129519 0)
(0.585485 7.16647e-05 0)
(0.585476 3.61636e-05 0)
(0.58547 1.59297e-05 0)
(0.585467 4.315e-06 0)
(0.585465 -8.61369e-07 0)
(0.585463 -2.54929e-06 0)
(0.585463 -2.65788e-06 0)
(0.585462 7.91179e-07 0)
)
;

boundaryField
{
    inlet
    {
        type            fixedValue;
        value           uniform (1 0 0);
    }
    outlet
    {
        type            zeroGradient;
    }
    upperWall
    {
        type            noSlip;
    }
    lowerWall
    {
        type            noSlip;
    }
    frontAndBack
    {
        type            empty;
    }
}


// ************************************************************************* //
