/*--------------------------------*- C++ -*----------------------------------*\
  =========                 |
  \\      /  F ield         | OpenFOAM: The Open Source CFD Toolbox
   \\    /   O peration     | Website:  https://openfoam.org
    \\  /    A nd           | Version:  10
     \\/     M anipulation  |
\*---------------------------------------------------------------------------*/
FoamFile
{
    format      ascii;
    class       volScalarField;
    location    "5.6";
    object      p;
}
// * * * * * * * * * * * * * * * * * * * * * * * * * * * * * * * * * * * * * //

dimensions      [0 2 -2 0 0 0 0];

internalField   nonuniform List<scalar> 
475
(
-0.0561461
-0.0816708
-0.111028
-0.13451
-0.157345
-0.0820317
-0.0953051
-0.111645
-0.130688
-0.147554
-0.0801207
-0.0894191
-0.104358
-0.121929
-0.13824
-0.0795717
-0.0901663
-0.105132
-0.120639
-0.134071
-0.0496393
-0.0765393
-0.100207
-0.117796
-0.130574
-0.175627
-0.185781
-0.190599
-0.196139
-0.204187
-0.214639
-0.224759
-0.23049
-0.229962
-0.222065
-0.207737
-0.189378
-0.169399
-0.149921
-0.131874
-0.116407
-0.105018
-0.0978926
-0.0943252
-0.0910312
-0.0842051
-0.0742046
-0.0635238
-0.0523641
-0.0393132
-0.0259208
-0.0145486
-0.00677083
-0.00200989
0.0015327
0.00518657
0.00898201
0.0122132
0.0142638
0.0150024
0.014686
0.0136855
0.0123083
0.0107508
0.00912141
0.00746659
0.00580027
0.00413587
0.00247758
0.000824011
-0.164271
-0.176139
-0.182753
-0.186789
-0.18992
-0.192978
-0.195318
-0.195403
-0.192237
-0.185277
-0.175757
-0.16468
-0.154037
-0.144827
-0.13571
-0.127821
-0.122395
-0.118877
-0.116425
-0.112645
-0.104345
-0.0916519
-0.0768934
-0.0614392
-0.0457264
-0.0305872
-0.0178995
-0.00871222
-0.00244515
0.0024085
0.00690524
0.0111045
0.014458
0.0164805
0.0171062
0.0166022
0.0153476
0.0136749
0.0118152
0.00990286
0.00800704
0.00614886
0.00433988
0.00257583
0.000849148
-0.151917
-0.161608
-0.167437
-0.170448
-0.171115
-0.170278
-0.167804
-0.164139
-0.159054
-0.153434
-0.14926
-0.146993
-0.146757
-0.143688
-0.137778
-0.136522
-0.137659
-0.136183
-0.131772
-0.124508
-0.112428
-0.0967772
-0.0799527
-0.0625247
-0.045344
-0.0297262
-0.0170865
-0.0077606
-0.00100039
0.0043085
0.0089356
0.0129789
0.016083
0.0179209
0.0184448
0.017861
0.0164936
0.0146568
0.0126049
0.0104923
0.0084148
0.0064073
0.00448361
0.00264032
0.000858415
-0.145042
-0.152697
-0.157457
-0.159021
-0.157925
-0.154156
-0.147934
-0.140323
-0.131817
-0.125696
-0.124192
-0.132687
-0.146778
-0.145785
-0.131197
-0.124649
-0.129858
-0.135993
-0.136567
-0.130446
-0.11753
-0.0996981
-0.0799702
-0.0607183
-0.0430115
-0.0279212
-0.0159672
-0.00693881
-0.000109642
0.00536878
0.0100359
0.0139631
0.0169194
0.0186624
0.0191496
0.0185483
0.0171406
0.0152215
0.0130651
0.0108375
0.00864593
0.00654946
0.00455933
0.00266906
0.000856528
-0.140106
-0.147074
-0.151184
-0.152119
-0.150053
-0.144643
-0.136814
-0.126958
-0.11727
-0.109743
-0.109661
-0.122317
-0.140126
-0.147284
-0.144957
-0.139839
-0.136103
-0.13396
-0.129838
-0.121562
-0.108978
-0.0928014
-0.0748661
-0.0569916
-0.0405898
-0.0265079
-0.0151716
-0.00636143
0.000505732
0.00605577
0.010695
0.0145009
0.0172966
0.0189005
0.0192936
0.0186345
0.017194
0.0152648
0.01308
0.010845
0.00865361
0.006554
0.00456148
0.00266688
0.000852846
-0.20389
-0.205328
-0.20748
-0.210581
-0.218265
-0.231015
-0.245098
-0.255238
-0.256901
-0.248194
-0.228614
-0.199452
-0.163063
-0.123238
-0.0840497
-0.0491885
-0.0208432
0.000128441
0.0140393
0.0216001
0.024499
0.0246727
0.023609
0.0221153
0.0205265
0.0186798
0.0162792
0.0127183
0.00835812
0.00424976
0.00136875
0.000108836
0.000248668
0.00143998
0.00293303
0.00445576
0.00567276
0.00640905
0.00662682
0.00636967
0.00571773
0.00476274
0.0035824
0.00224211
0.00079061
-0.196401
-0.199289
-0.203061
-0.21008
-0.221557
-0.237562
-0.253269
-0.26421
-0.266621
-0.258925
-0.240556
-0.211558
-0.17458
-0.133763
-0.0931023
-0.0573612
-0.0284081
-0.00696958
0.00736965
0.0155802
0.0190003
0.019775
0.0197955
0.019551
0.0185658
0.0167982
0.0141035
0.0109007
0.0075993
0.00479046
0.00271339
0.00141377
0.00112705
0.00179036
0.00320537
0.00470332
0.00588619
0.00658912
0.00676847
0.0064701
0.00578268
0.00480056
0.0036027
0.00224966
0.000791434
-0.205172
-0.203735
-0.205177
-0.211746
-0.225352
-0.243413
-0.260324
-0.272335
-0.275129
-0.267174
-0.248499
-0.219771
-0.183444
-0.143749
-0.104713
-0.0698814
-0.0417728
-0.0212973
-0.00749376
0.000782175
0.00480034
0.00641665
0.00726463
0.00811004
0.00878763
0.00908449
0.00903994
0.00844038
0.00722973
0.00563752
0.00419724
0.00330932
0.00322254
0.0038678
0.00495719
0.00606093
0.00689972
0.00728907
0.0072371
0.00676271
0.00595138
0.00488684
0.00363674
0.00225289
0.000780641
-0.192339
-0.194536
-0.197172
-0.205081
-0.218617
-0.236089
-0.252486
-0.264175
-0.26808
-0.262034
-0.24559
-0.219691
-0.186561
-0.150806
-0.116632
-0.085981
-0.0610789
-0.043548
-0.031805
-0.0240299
-0.0192271
-0.0158239
-0.0125766
-0.0092758
-0.00581765
-0.00230152
0.000892669
0.00289457
0.00374975
0.00416345
0.00474016
0.00565554
0.00667442
0.00761489
0.00839184
0.00888992
0.00902698
0.00879354
0.00821063
0.00737295
0.00632115
0.005097
0.00374072
0.00229072
0.000778621
-0.225862
-0.204222
-0.201552
-0.204898
-0.215334
-0.230733
-0.245538
-0.254965
-0.256776
-0.249763
-0.23404
-0.211269
-0.18334
-0.153829
-0.126621
-0.103289
-0.0846031
-0.0718495
-0.0641073
-0.0581318
-0.0520404
-0.0454277
-0.0380389
-0.0302496
-0.0226252
-0.0145858
-0.00759576
-0.00302965
-0.000307777
0.00191783
0.00444679
0.00718578
0.00957993
0.0112114
0.0119627
0.0119667
0.0114379
0.0105599
0.00945621
0.00820555
0.0068477
0.00541112
0.00391063
0.00236714
0.000792135
)
;

boundaryField
{
    inlet
    {
        type            zeroGradient;
    }
    outlet
    {
        type            fixedValue;
        value           uniform 0;
    }
    upperWall
    {
        type            zeroGradient;
    }
    lowerWall
    {
        type            zeroGradient;
    }
    frontAndBack
    {
        type            empty;
    }
}


// ************************************************************************* //
