/*--------------------------------*- C++ -*----------------------------------*\
  =========                 |
  \\      /  F ield         | OpenFOAM: The Open Source CFD Toolbox
   \\    /   O peration     | Website:  https://openfoam.org
    \\  /    A nd           | Version:  10
     \\/     M anipulation  |
\*---------------------------------------------------------------------------*/
FoamFile
{
    format      ascii;
    class       surfaceScalarField;
    location    "5.6";
    object      phi;
}
// * * * * * * * * * * * * * * * * * * * * * * * * * * * * * * * * * * * * * //

dimensions      [0 3 -1 0 0 0 0];

internalField   nonuniform List<scalar> 
890
(
0.00984988
0.000150118
0.00971709
0.000132789
0.00946953
0.000247566
0.00941487
5.4652e-05
0.000147981
0.00926689
0.0101184
3.17574e-05
0.0102022
4.89433e-05
0.0104086
4.11825e-05
0.0104626
6.74952e-07
-6.70815e-05
0.0106776
0.0100694
-3.76049e-05
0.0102143
-9.59831e-05
0.0103777
-0.00012223
0.0105221
-0.000143688
-0.000191792
0.0106468
0.0100881
-0.000125711
0.0102152
-0.00022309
0.010328
-0.000235008
0.0104225
-0.000238188
-0.000251975
0.0104827
0.00987429
0.0096512
0.00941619
0.009178
0.00892603
0.00925763
-0.00010487
0.000114134
0.0092782
-0.000253311
0.000232739
0.00937146
-0.000361749
0.000268489
0.00952748
-0.000450822
0.000294798
0.00973321
-0.000587823
0.000382095
0.00996433
-0.000786871
0.000555754
0.0101979
-0.00103704
0.000803507
0.0104239
-0.00135528
0.00112926
0.0106205
-0.00169367
0.00149705
0.0107701
-0.0020493
0.00189973
0.0108544
-0.00236474
0.00228043
0.0108718
-0.00261756
0.00260016
0.010807
-0.00278614
0.0028509
0.0106381
-0.00278092
0.0029498
0.0103725
-0.00265489
0.00292051
0.0100725
-0.00250106
0.00280107
0.00974832
-0.0022156
0.00253981
0.00939087
-0.00184448
0.00220193
0.00901209
-0.00145251
0.00183129
0.0086223
-0.0010204
0.00141019
0.00824238
-0.000595905
0.000975825
0.00790257
-0.000252628
0.000592447
0.00760062
3.9436e-05
0.000262505
0.0073184
0.000315771
-3.35488e-05
0.00705773
0.000572176
-0.000311506
0.00681525
0.000747169
-0.000504683
0.00660529
0.000808414
-0.000598461
0.00644485
0.000797134
-0.000636696
0.00634301
0.000784536
-0.000682693
0.00629972
0.000806966
-0.000763678
0.0063007
0.000844786
-0.000845758
0.00632272
0.000854473
-0.000876496
0.0063448
0.000808096
-0.000830178
0.00635537
0.000707517
-0.00071808
0.00635298
0.000574125
-0.000571739
0.00634217
0.000433007
-0.000422201
0.0063286
0.000303981
-0.000290407
0.00631614
0.000197598
-0.000185138
0.00630648
0.000117726
-0.000108062
0.0062998
6.17323e-05
-5.50551e-05
0.00629556
2.65516e-05
-2.23121e-05
0.00629302
5.2174e-06
-2.67755e-06
0.00629142
-4.50682e-06
6.1015e-06
0.00629031
-9.7867e-06
1.08993e-05
-8.85684e-06
9.51183e-06
0.0107444
-0.000171652
0.0107757
-0.000284646
0.0108207
-0.000406691
0.0108869
-0.000516993
0.0109652
-0.000666155
0.0110071
-0.00082875
0.0110244
-0.00105437
0.010986
-0.00131684
0.0108984
-0.00160613
0.0107443
-0.00189521
0.0105225
-0.00214293
0.0102543
-0.00234929
0.00988851
-0.00242039
0.00942777
-0.00232018
0.00892393
-0.00215105
0.00838129
-0.00195842
0.00783465
-0.00166896
0.00730154
-0.00131137
0.00678206
-0.000933034
0.00629478
-0.000533114
0.00584765
-0.000148775
0.00544459
0.00015043
0.00507818
0.000405847
0.00475917
0.000634776
0.00453987
0.000791482
0.00444822
0.000838817
0.00446357
0.000793068
0.00454711
0.000713593
0.00467402
0.000657621
0.00483644
0.000644546
0.00502775
0.000653475
0.00523401
0.000648219
0.00543683
0.000605274
0.00562058
0.000523767
0.00577641
0.000418293
0.00590173
0.00030769
0.00599802
0.000207686
0.00606885
0.000126773
0.00611869
6.78874e-05
0.00615202
2.84023e-05
0.00617308
5.48829e-06
0.00618563
-7.33375e-06
0.00619234
-1.12186e-05
0.00619569
-1.31334e-05
-9.75491e-06
0.010728
-0.000252871
0.0107813
-0.000337972
0.0108008
-0.000426175
0.0108134
-0.000529596
0.0107948
-0.000647579
0.0107433
-0.000777191
0.0106452
-0.000956298
0.0104777
-0.00114937
0.0102682
-0.00139656
0.0099986
-0.00162565
0.00969743
-0.00184176
0.00928495
-0.00193682
0.00868371
-0.00181915
0.0080376
-0.00167407
0.00737705
-0.0014905
0.00660981
-0.00119118
0.00582756
-0.000886717
0.00511746
-0.000601266
0.00448105
-0.000296625
0.0039637
-1.57696e-05
0.00355784
0.000257094
0.0032343
0.000473962
0.0030165
0.00062365
0.00294812
0.000703158
0.00302821
0.000711391
0.00321095
0.000656076
0.00343562
0.000568396
0.00366424
0.000484979
0.00389099
0.000430864
0.00412769
0.000407847
0.00438258
0.000398587
0.00464962
0.000381185
0.00491211
0.000342781
0.00515181
0.00028407
0.0053554
0.000214702
0.00551678
0.000146309
0.00563645
8.80171e-05
0.00571925
4.39661e-05
0.00577248
1.46609e-05
0.00580383
-2.94534e-06
0.00582051
-1.11941e-05
0.00582747
-1.4291e-05
0.00582927
-1.30261e-05
0.00582808
-1.19368e-05
-7.76585e-06
0.0105104
-0.000280622
0.0104994
-0.000326972
0.0104357
-0.000362458
0.0103346
-0.00042844
0.0101628
-0.000475847
0.00994521
-0.000559579
0.00963109
-0.000642182
0.00923796
-0.000756238
0.00874
-0.000898597
0.00813698
-0.00102264
0.00752566
-0.00123044
0.00676812
-0.00117927
0.0057478
-0.000798833
0.00450954
-0.00043581
0.00321994
-0.000200903
0.00212191
-9.31464e-05
0.00133031
-9.5123e-05
0.000842354
-0.000113308
0.000605853
-6.01246e-05
0.000541363
4.87211e-05
0.000634454
0.000164003
0.000845878
0.000262538
0.00114604
0.000323492
0.00150732
0.00034187
0.00189256
0.000326159
0.00226193
0.000286703
0.00259021
0.00024011
0.00287481
0.000200379
0.00313148
0.000174198
0.00337949
0.00015984
0.00362803
0.000150039
0.00387237
0.000136848
0.00409921
0.000115939
0.00429428
8.90056e-05
0.00444845
6.05288e-05
0.00455975
3.50112e-05
0.00463247
1.52949e-05
0.00467457
1.8694e-06
0.00469444
-5.21131e-06
0.00469995
-8.45231e-06
0.00469774
-8.98288e-06
0.00469171
-8.26549e-06
0.00468526
-6.57422e-06
0.00467868
-5.36095e-06
-3.23353e-06
0.00864541
0.00831843
0.00795598
0.00752754
0.00705169
0.00649211
0.00584993
0.00509369
0.00419509
0.00317245
0.00194201
0.000762745
-3.60881e-05
-0.000471898
-0.000672802
-0.000765948
-0.000861071
-0.00097438
-0.0010345
-0.000985783
-0.00082178
-0.000559242
-0.00023575
0.00010612
0.000432279
0.000718981
0.000959091
0.00115947
0.00133367
0.00149351
0.00164355
0.0017804
0.00189633
0.00198534
0.00204587
0.00208088
0.00209617
0.00209804
0.00209283
0.00208438
0.0020754
0.00206713
0.00206056
0.0020552
5.4013e-05
-5.4013e-05
-2.92654e-05
8.32785e-05
-0.000387767
0.000358501
-0.00105774
0.000669973
-0.00186298
0.000805242
-0.00260837
0.000745391
-0.00320293
0.000594555
-0.00361841
0.000415487
-0.00383543
0.000217014
-0.00384319
7.76104e-06
-0.00366581
-0.000177377
-0.00331075
-0.00035506
-0.00280047
-0.000510281
-0.00217183
-0.000628638
-0.00146702
-0.000704815
-0.000733709
-0.000733311
-6.79562e-06
-0.000726914
0.000689245
-0.000696041
0.00132735
-0.0006381
0.00187983
-0.000552483
0.00233725
-0.000457417
0.00269912
-0.000361874
0.00295989
-0.000260772
0.00310664
-0.000146751
0.00312532
-1.86762e-05
0.00302595
9.93727e-05
0.00282549
0.000200453
0.00256997
0.000255521
0.00231405
0.000255918
0.00210054
0.000213513
0.00194935
0.000151193
0.00185979
8.95544e-05
0.00182156
3.82303e-05
0.00182172
-1.58709e-07
0.00184354
-2.18161e-05
0.00187611
-3.25736e-05
0.00191092
-3.48113e-05
0.00194302
-3.20994e-05
0.00197008
-2.70596e-05
0.00199159
-2.15076e-05
0.00200784
-1.62456e-05
0.00201987
-1.20351e-05
0.00202827
-8.40251e-06
0.00203446
-6.18431e-06
-3.50322e-06
-0.000254974
0.000200961
-0.000774482
0.000602786
-0.00132492
0.000908935
-0.00179007
0.00113512
-0.00215512
0.0011703
-0.00242322
0.00101349
-0.002569
0.000740326
-0.00258239
0.000428881
-0.00245382
8.8443e-05
-0.00220304
-0.000243015
-0.00179917
-0.000581251
-0.00125337
-0.000900856
-0.00058949
-0.00117416
0.000157499
-0.00137563
0.000944228
-0.00149154
0.00174013
-0.00152921
0.00250883
-0.00149561
0.00322404
-0.00141125
0.00386482
-0.00127887
0.00440714
-0.0010948
0.00483885
-0.000889135
0.0051735
-0.000696523
0.00542625
-0.000513517
0.00560448
-0.000324979
0.00573024
-0.000144441
0.00582086
8.7498e-06
0.00587917
0.000142147
0.00586355
0.000271144
0.00573431
0.000385158
0.00549959
0.000448224
0.00521522
0.000435572
0.0049495
0.000355266
0.00474717
0.000240563
0.0046182
0.00012881
0.00455355
4.28344e-05
0.00453258
-1.15975e-05
0.00453671
-3.89497e-05
0.00455289
-4.82699e-05
0.00457281
-4.69817e-05
0.00459226
-4.09594e-05
0.00460902
-3.30094e-05
0.004623
-2.60098e-05
0.00463346
-1.88653e-05
0.00464203
-1.47508e-05
-8.81273e-06
-0.000470838
0.000671799
-0.000619335
0.000751284
-0.000589873
0.000879472
-0.000468205
0.00101346
-0.000299637
0.00100173
-9.95261e-05
0.000813384
0.000128483
0.000512317
0.000407733
0.00014963
0.000760985
-0.000264809
0.00121538
-0.000697412
0.00175264
-0.00111851
0.00236199
-0.00151021
0.00302424
-0.00183641
0.00370393
-0.00205532
0.00438784
-0.00217546
0.00505062
-0.00219199
0.00565811
-0.00210311
0.00618665
-0.00193979
0.00662847
-0.00172069
0.00697726
-0.00144359
0.00722315
-0.00113503
0.00737078
-0.000844152
0.00744427
-0.000587011
0.00745777
-0.000338473
0.00741152
-9.81971e-05
0.00733141
8.88583e-05
0.00726881
0.000204755
0.00723864
0.000301306
0.00719986
0.000423941
0.00710019
0.000547891
0.00691889
0.00061688
0.00668045
0.000593702
0.0064318
0.000489211
0.00621382
0.000346791
0.00604665
0.00021001
0.00593144
0.000103613
0.00585904
3.34479e-05
0.00581779
-7.01717e-06
0.00579717
-2.63661e-05
0.00578911
-3.28968e-05
0.00578794
-3.18468e-05
0.00579057
-2.8637e-05
0.00579427
-2.25589e-05
0.00579863
-1.91167e-05
-1.21357e-05
-0.000150579
0.000822378
8.20599e-05
0.000518645
0.000471685
0.000489847
0.000987413
0.000497729
0.00156041
0.00042873
0.00213714
0.000236655
0.00270528
-5.58199e-05
0.00326773
-0.000412819
0.00383967
-0.000836755
0.00443043
-0.00128817
0.0050314
-0.00171947
0.00563195
-0.00211076
0.00623358
-0.00243804
0.0068079
-0.00262965
0.0073296
-0.00269716
0.00779049
-0.00265287
0.00817032
-0.00248294
0.00846254
-0.00223202
0.00866792
-0.00192606
0.00878693
-0.0015626
0.00882636
-0.00117445
0.00879566
-0.000813456
0.00870916
-0.000500514
0.00858598
-0.000215295
0.00843183
5.59564e-05
0.00825321
0.00026748
0.00807399
0.00038397
0.00792466
0.000450637
0.00781364
0.000534965
0.00771122
0.000650316
0.00758115
0.000746943
0.00740631
0.000768541
0.00719451
0.000701013
0.00697029
0.00057101
0.00676041
0.000419896
0.00658316
0.000280862
0.00644585
0.000170749
0.00634684
9.19962e-05
0.00627968
4.07994e-05
0.00623702
9.76059e-06
0.00621166
-6.49227e-06
0.00619774
-1.47168e-05
0.00619087
-1.56883e-05
0.00618793
-1.61759e-05
-1.15989e-05
0.000936512
0.0016879
0.00244623
0.00323876
0.00404958
0.00484199
0.00558968
0.00630612
0.00696642
0.00757797
0.00813893
0.00862833
0.00904119
0.00936134
0.0095847
0.0097329
0.00978977
0.00975968
0.0096649
0.00951248
0.00931386
0.00909285
0.00885484
0.00860599
0.00835044
0.00811324
0.00789875
0.00771269
0.00756496
0.0074516
0.00735278
0.00724483
0.00711566
0.00696859
0.00681675
0.00667541
0.00655576
0.00646261
0.00639535
0.00635006
0.00632125
0.00630386
0.00629427
0.00628899
)
;

boundaryField
{
    inlet
    {
        type            calculated;
        value           nonuniform List<scalar> 5(-0.01 -0.01 -0.01 -0.01 -0.01);
    }
    outlet
    {
        type            calculated;
        value           nonuniform List<scalar> 10(0.00628966 0.00619659 0.00582609 0.00467415 0.00205196 0.00203796 0.00464734 0.00580195 0.0061874 0.00628691);
    }
    upperWall
    {
        type            calculated;
        value           uniform 0;
    }
    lowerWall
    {
        type            calculated;
        value           uniform 0;
    }
    frontAndBack
    {
        type            empty;
        value           nonuniform List<scalar> 0();
    }
}


// ************************************************************************* //
