/*--------------------------------*- C++ -*----------------------------------*\
  =========                 |
  \\      /  F ield         | OpenFOAM: The Open Source CFD Toolbox
   \\    /   O peration     | Website:  https://openfoam.org
    \\  /    A nd           | Version:  10
     \\/     M anipulation  |
\*---------------------------------------------------------------------------*/
FoamFile
{
    format      ascii;
    class       volScalarField;
    location    "4.6";
    object      p;
}
// * * * * * * * * * * * * * * * * * * * * * * * * * * * * * * * * * * * * * //

dimensions      [0 2 -2 0 0 0 0];

internalField   nonuniform List<scalar> 
8000
(
-3.72216e-06
-1.62825e-05
1.41226e-05
7.28698e-05
0.000165448
0.000292561
0.000454782
0.00065225
0.000884118
0.00114834
0.00144106
0.00175614
0.00208474
0.00241479
0.00273171
0.0030187
0.00325803
0.00343289
0.00353979
0.00354488
4.37601e-06
-7.84725e-06
2.37488e-05
8.13295e-05
0.000171566
0.000295478
0.000453929
0.000647343
0.000875239
0.00113583
0.00142553
0.00173821
0.0020656
0.00239629
0.00271523
0.00300541
0.00324853
0.00342716
0.0035386
0.00354287
-3.6803e-05
-5.19715e-05
-2.15909e-05
3.3832e-05
0.000121611
0.000242982
0.000399184
0.000591148
0.000819006
0.00108162
0.00137608
0.0016973
0.00203688
0.00238325
0.00272098
0.00303157
0.00329444
0.00348899
0.00361143
0.00361385
-0.000114548
-0.000132268
-0.000103726
-5.13265e-05
3.30149e-05
0.000150874
0.000304095
0.000494388
0.000722813
0.00098932
0.00129213
0.00162697
0.00198619
0.00235913
0.00272902
0.00307505
0.00337264
0.00359569
0.00373809
0.00374139
-0.000234968
-0.000255596
-0.000229638
-0.000181182
-0.000101265
1.21204e-05
0.000161588
0.00034989
0.000579372
0.00085149
0.00116611
0.00152056
0.00190847
0.0023198
0.00273678
0.00313571
0.0034867
0.00375498
0.00392949
0.00393646
-0.00039931
-0.000423463
-0.000400926
-0.000357644
-0.000283677
-0.000176535
-3.26972e-05
0.000151854
0.000381109
0.000658542
0.000986325
0.00136412
0.00178708
0.00224935
0.00273017
0.00320326
0.00363177
0.00396838
0.00419262
0.00420822
-0.000608756
-0.000637218
-0.000619099
-0.000582635
-0.00051684
-0.000418755
-0.000283885
-0.000106775
0.000118536
0.000398121
0.00073741
0.00114004
0.00160659
0.00212569
0.00268683
0.00325896
0.00379642
0.00423468
0.00453571
0.00457071
-0.000864728
-0.000898411
-0.000885846
-0.00085824
-0.000803547
-0.000718476
-0.0005976
-0.000433979
-0.00021948
5.50057e-05
0.000398952
0.00082093
0.0013262
0.001913
0.00257055
0.0032698
0.00395675
0.00454526
0.00496612
0.00504521
-0.00116893
-0.00120879
-0.0012029
-0.00118641
-0.00114632
-0.00107929
-0.000979194
-0.000837755
-0.000644694
-0.000387649
-5.24338e-05
0.000376091
0.000911738
0.00156307
0.00232446
0.0031784
0.00406449
0.0048736
0.00548346
0.00566483
-0.00152363
-0.00157051
-0.00157207
-0.00156879
-0.00154701
-0.0015038
-0.0014328
-0.00132486
-0.00116796
-0.000946751
-0.000642228
-0.000231847
0.00030922
0.00100343
0.00186298
0.00288833
0.00402554
0.00515219
0.00606284
0.00647494
-0.00193224
-0.00198664
-0.00199543
-0.00200663
-0.00200635
-0.00199278
-0.00196007
-0.00189902
-0.00179685
-0.00163635
-0.0013948
-0.00104289
-0.000544025
0.00014455
0.00106667
0.00223493
0.00365727
0.00522205
0.00661632
0.00753266
-0.00240059
-0.00246202
-0.00247581
-0.00250078
-0.00252353
-0.00254428
-0.00255867
-0.00255856
-0.00253205
-0.00246234
-0.00232596
-0.00209011
-0.00170934
-0.00112248
-0.000252844
0.000986559
0.00263254
0.00472757
0.00684266
0.00883519
-0.00293949
-0.00300505
-0.00301776
-0.00305194
-0.00309577
-0.00315271
-0.00322085
-0.00329427
-0.00336398
-0.00341691
-0.00343407
-0.00338727
-0.00323406
-0.00290818
-0.0023104
-0.00129001
0.000386797
0.00292036
0.00602699
0.0100476
-0.00356882
-0.00362762
-0.00362461
-0.0036569
-0.00371571
-0.00380745
-0.0039321
-0.0040871
-0.00426861
-0.00447109
-0.00468649
-0.004902
-0.00509703
-0.00523169
-0.00523336
-0.00493353
-0.00393401
-0.00137703
0.0027162
0.010251
-0.00433018
-0.00437629
-0.00434265
-0.00436017
-0.00441447
-0.00452115
-0.00468714
-0.00491598
-0.00521096
-0.00557734
-0.00602462
-0.00656748
-0.00723274
-0.00804373
-0.00902133
-0.0100108
-0.0105676
-0.00834656
-0.00304758
0.00922357
-0.005373
-0.00519384
-0.00504684
-0.004974
-0.00500394
-0.0051369
-0.00536569
-0.00568565
-0.00610171
-0.00662771
-0.00729543
-0.00815392
-0.00929914
-0.0108215
-0.0129058
-0.0152937
-0.0179124
-0.0163706
-0.0112637
0.00664259
-0.00635036
-0.0064727
-0.00620345
-0.00612593
-0.0060685
-0.00611788
-0.00628708
-0.00658675
-0.00703089
-0.00763726
-0.00845454
-0.00954264
-0.0110869
-0.0131839
-0.0163386
-0.0199707
-0.0258069
-0.0265547
-0.0221198
0.00477272
-0.0101809
-0.00737326
-0.00680703
-0.00621049
-0.00605838
-0.00614697
-0.00642874
-0.00685693
-0.00743303
-0.00815971
-0.00912382
-0.0103134
-0.0121
-0.014419
-0.0182477
-0.0226139
-0.030557
-0.0320347
-0.0263489
0.0153304
-0.00997891
-0.0108331
-0.00947453
-0.00907989
-0.00847002
-0.00811331
-0.00800033
-0.00811811
-0.00847031
-0.00903318
-0.0098724
-0.0109942
-0.0127284
-0.0150067
-0.0190082
-0.0234943
-0.0310834
-0.0280929
-0.0134648
0.0558169
-0.0343177
-0.00894911
-0.00748521
-0.00616414
-0.00554496
-0.0055694
-0.0059543
-0.00647825
-0.00718448
-0.00798968
-0.00911373
-0.0103772
-0.012306
-0.014336
-0.0172847
-0.0182468
-0.0171165
0.00263693
0.0468322
0.158498
-1.70466e-06
-2.3094e-05
6.21195e-06
6.43553e-05
0.000157295
0.000285271
0.000448711
0.00064777
0.000881784
0.00114862
0.00144435
0.0017627
0.00209519
0.00242949
0.00275073
0.00304174
0.00328397
0.0034592
0.00356425
0.00355579
1.74443e-05
-4.05529e-06
2.72183e-05
8.41082e-05
0.000174069
0.000297853
0.00045626
0.000649762
0.000877942
0.00113907
0.00142955
0.00174284
0.00207271
0.00240545
0.00272666
0.0030191
0.00326376
0.00344213
0.00355237
0.00354212
-2.0203e-05
-4.63056e-05
-1.62902e-05
3.82763e-05
0.000125655
0.000246756
0.000402759
0.000594654
0.000822633
0.00108567
0.00138099
0.00170404
0.00204482
0.00239329
0.0027336
0.0030469
0.00331175
0.00350613
0.00362729
0.00361235
-9.50457e-05
-0.000124686
-9.64764e-05
-4.50135e-05
3.88433e-05
0.000156319
0.000309201
0.000499281
0.000727718
0.000994579
0.00129819
0.00163458
0.00199575
0.00237121
0.00274425
0.00309362
0.00339375
0.00361682
0.00375783
0.003741
-0.000213293
-0.000246742
-0.000221065
-0.00017355
-9.40983e-05
1.89268e-05
0.000168089
0.000356233
0.000585818
0.000858441
0.00117412
0.00153031
0.00192105
0.00233574
0.00275697
0.00316055
0.00351524
0.00378395
0.00395686
0.00394032
-0.000375492
-0.000413475
-0.000391131
-0.000348742
-0.000275159
-0.000168275
-2.461e-05
0.000159959
0.000389551
0.000667811
0.000997122
0.00137744
0.00180507
0.00227137
0.00275823
0.0032382
0.00367255
0.00401058
0.00423303
0.00422076
-0.000582452
-0.000625931
-0.000607876
-0.000572233
-0.000506715
-0.000408757
-0.000273884
-9.65152e-05
0.000129465
0.000410338
0.000751779
0.00115753
0.00162737
0.00215567
0.00272643
0.00330946
0.00385686
0.00429909
0.00459842
0.00460051
-0.000835425
-0.000885544
-0.000872883
-0.00084602
-0.0007915
-0.000706422
-0.000585354
-0.000421199
-0.000205629
7.07426e-05
0.000417772
0.000844442
0.00135627
0.00195442
0.0026269
0.00334401
0.0040487
0.00464755
0.00506796
0.00511084
-0.00113597
-0.00119396
-0.00118779
-0.00117198
-0.00113199
-0.00106486
-0.000964407
-0.000822166
-0.000627597
-0.000367953
-2.84328e-05
0.000406933
0.000953459
0.00161847
0.00240471
0.00328835
0.00420679
0.00504082
0.00565669
0.00580836
-0.00148613
-0.0015532
-0.00155427
-0.00155168
-0.00152999
-0.00148667
-0.00141524
-0.0013063
-0.00114749
-0.000922949
-0.000612785
-0.000192999
0.00036302
0.00107906
0.00197553
0.00304937
0.00424638
0.00543023
0.00637137
0.0068065
-0.00188895
-0.00196608
-0.00197417
-0.00198617
-0.00198612
-0.0019726
-0.00193957
-0.00187749
-0.0017732
-0.00160879
-0.00136041
-0.000996714
-0.000478174
0.000242357
0.00120866
0.00246397
0.00399386
0.00568053
0.00717532
0.0083228
-0.00234951
-0.00243699
-0.00244985
-0.00247595
-0.00249936
-0.00252062
-0.00253509
-0.00253429
-0.00250581
-0.00243198
-0.00228785
-0.00203795
-0.00163197
-0.00100233
-7.2494e-05
0.00127631
0.00310135
0.00542093
0.00782427
0.0105896
-0.00287716
-0.00297388
-0.00298569
-0.00302175
-0.00306692
-0.00312508
-0.00319403
-0.00326759
-0.00333609
-0.00338554
-0.00339527
-0.00333406
-0.00315392
-0.00277973
-0.00209998
-0.000992332
0.000839587
0.00373454
0.00723636
0.0129018
-0.00348683
-0.00358243
-0.00357744
-0.00361308
-0.00367602
-0.00377213
-0.00390044
-0.00405776
-0.00423982
-0.00444026
-0.00464959
-0.00485232
-0.00502451
-0.00512592
-0.00509997
-0.00483522
-0.00394405
-0.00160016
0.00179845
0.0118457
-0.00421759
-0.00432424
-0.00428988
-0.00431579
-0.00437548
-0.00448699
-0.00465703
-0.00488903
-0.00518592
-0.00555213
-0.00599694
-0.00653404
-0.00719245
-0.00802145
-0.00913986
-0.0106518
-0.0123061
-0.011439
-0.0088319
0.00605528
-0.00518293
-0.00506826
-0.00493016
-0.00487176
-0.00492113
-0.00507182
-0.00531581
-0.00564823
-0.0060734
-0.00660467
-0.00727342
-0.00813067
-0.00928329
-0.0108796
-0.0132954
-0.0167784
-0.0217364
-0.0231897
-0.0225025
-0.00245976
-0.00596327
-0.00631263
-0.00605204
-0.00603442
-0.00600697
-0.0060828
-0.00627174
-0.00658667
-0.00703786
-0.007646
-0.00845817
-0.00953906
-0.0110803
-0.0132578
-0.0168252
-0.0217198
-0.0304829
-0.0352881
-0.0364122
-0.00586071
-0.00959987
-0.0069601
-0.00643195
-0.00590308
-0.00585576
-0.00603031
-0.00637871
-0.00684859
-0.00744893
-0.00818034
-0.00912538
-0.0102966
-0.0120355
-0.0142913
-0.0184782
-0.0238935
-0.0336926
-0.0388547
-0.0375641
0.0118907
-0.0071875
-0.00972916
-0.00878657
-0.00879425
-0.0084034
-0.0082004
-0.00816706
-0.00831674
-0.00868276
-0.00922319
-0.0100286
-0.0110423
-0.0126822
-0.0148221
-0.0189911
-0.0242068
-0.0325609
-0.0316441
-0.0153597
0.0639203
-0.0319439
-0.00699911
-0.00586634
-0.00511595
-0.00487115
-0.00509543
-0.00564117
-0.00625352
-0.00705759
-0.00786759
-0.00902451
-0.0102309
-0.0121127
-0.0142109
-0.0171654
-0.0185434
-0.0167237
0.00516683
0.0609087
0.189923
4.45565e-06
-2.05904e-05
7.96442e-06
6.55631e-05
0.000158537
0.000286974
0.000451224
0.00065146
0.000886998
0.00115583
0.00145412
0.00177573
0.00211169
0.00244986
0.00277505
0.00306968
0.00331454
0.00349049
0.00359465
0.00357963
2.90645e-05
3.17579e-06
3.40174e-05
9.01934e-05
0.000179844
0.000303568
0.000462146
0.000656099
0.000885069
0.00114741
0.00143965
0.0017557
0.00208785
0.00242368
0.00274821
0.00304378
0.00329073
0.00346973
0.00357944
0.00356283
-5.80135e-06
-3.70398e-05
-7.47585e-06
4.62663e-05
0.000133206
0.000254089
0.000410096
0.000602288
0.000830947
0.00109513
0.00139208
0.00171699
0.0020614
0.00241361
0.00275789
0.00307505
0.00334285
0.00353825
0.00365899
0.00363659
-7.78585e-05
-0.000113118
-8.53552e-05
-3.48043e-05
4.85204e-05
0.000165676
0.000318468
0.000508778
0.000737868
0.00100592
0.00131135
0.00165007
0.00201541
0.00239545
0.00277354
0.00312796
0.00343217
0.003657
0.00379792
0.00377253
-0.000193559
-0.000233047
-0.000207789
-0.000161224
-8.23259e-05
3.03714e-05
0.00017947
0.000367927
0.000598338
0.000872464
0.00119047
0.00154989
0.00194569
0.00236636
0.00279446
0.0032052
0.00356604
0.00383792
0.00401142
0.00398488
-0.000353028
-0.000397488
-0.000375506
-0.000334074
-0.000261026
-0.000154428
-1.07343e-05
0.000174323
0.000405044
0.000685305
0.00101774
0.00140277
0.00183675
0.00231111
0.00280771
0.0032983
0.00374234
0.00408622
0.00431065
0.00428665
-0.000556734
-0.000607211
-0.000589442
-0.000554761
-0.000489763
-0.000392049
-0.000257043
-7.89771e-05
0.000148513
0.000432041
0.000777741
0.0011899
0.00166772
0.00220737
0.00279235
0.00339156
0.00395473
0.00440791
0.00471209
0.00470096
-0.000805671
-0.00086343
-0.000850975
-0.000825108
-0.000771138
-0.000686315
-0.000565063
-0.000400041
-0.000182603
9.70641e-05
0.000449369
0.00088391
0.00140706
0.00202099
0.00271431
0.00345634
0.004187
0.00480654
0.00523761
0.00526813
-0.0011011
-0.00116752
-0.00116149
-0.00114679
-0.00110748
-0.00104074
-0.000940181
-0.000797031
-0.000600348
-0.000336822
9.11872e-06
0.000454348
0.00101404
0.00170225
0.00251873
0.00344029
0.00440129
0.00527398
0.00591268
0.00606202
-0.00144464
-0.00152114
-0.00152232
-0.00152108
-0.00150039
-0.00145781
-0.00138659
-0.00127695
-0.00111606
-0.000887305
-0.000569699
-0.000137616
0.000438344
0.00118112
0.00211907
0.00324877
0.00451422
0.00576893
0.00676061
0.00722404
-0.0018387
-0.0019265
-0.00193477
-0.00194858
-0.00195013
-0.00193805
-0.00190594
-0.00184383
-0.00173797
-0.00156959
-0.00131354
-0.000936455
-0.000396232
0.000354813
0.00137794
0.00271087
0.00434595
0.00615846
0.00776622
0.00902486
-0.00228729
-0.00238699
-0.00240023
-0.00242899
-0.00245508
-0.00247905
-0.00249576
-0.00249625
-0.0024675
-0.00239094
-0.00224018
-0.00197733
-0.0015478
-0.000876318
0.000113167
0.00154245
0.0035102
0.00603254
0.00866467
0.011614
-0.00279804
-0.00290927
-0.00292198
-0.00296222
-0.0030118
-0.00307458
-0.00314784
-0.00322494
-0.0032956
-0.00334498
-0.00335117
-0.00328103
-0.00308332
-0.00267991
-0.00196597
-0.000807592
0.00115732
0.00426881
0.00807163
0.0139129
-0.00338183
-0.0034938
-0.00349033
-0.00353259
-0.00360336
-0.00370796
-0.00384454
-0.00400931
-0.00419749
-0.00440207
-0.00461286
-0.00481423
-0.00498286
-0.00508283
-0.00507808
-0.00489547
-0.00416939
-0.00187266
0.00179981
0.0117485
-0.00407527
-0.00420601
-0.0041746
-0.0042127
-0.00428456
-0.00440879
-0.00459126
-0.00483527
-0.0051435
-0.00551961
-0.00597328
-0.00652178
-0.00719901
-0.0080765
-0.00934608
-0.0112541
-0.0136582
-0.013316
-0.0105868
0.00384188
-0.00497825
-0.00488982
-0.0047584
-0.00471588
-0.0047856
-0.00495821
-0.00522433
-0.00557823
-0.00602455
-0.006574
-0.00725971
-0.00813693
-0.00932549
-0.011012
-0.0136882
-0.0178175
-0.0241118
-0.0267628
-0.0257156
-0.00625034
-0.00562584
-0.00602973
-0.00578672
-0.00581183
-0.00581876
-0.00593009
-0.0061535
-0.00650183
-0.00698824
-0.00762488
-0.0084572
-0.00955617
-0.0111251
-0.0133828
-0.0172173
-0.0226779
-0.0325065
-0.0380003
-0.0378865
-0.00745206
-0.00921177
-0.00660333
-0.00605714
-0.00555301
-0.00555707
-0.00579266
-0.00620124
-0.00672891
-0.00738153
-0.00815134
-0.00911608
-0.0102962
-0.0120254
-0.0143354
-0.0185679
-0.0243898
-0.033888
-0.0383784
-0.0331581
0.0141709
-0.00610159
-0.00889419
-0.00807117
-0.00820048
-0.00790669
-0.00779408
-0.00784789
-0.00810726
-0.00856697
-0.00917475
-0.0100182
-0.011034
-0.0126525
-0.0148236
-0.0190018
-0.0244212
-0.0319876
-0.0288199
-0.00807146
0.0701123
-0.0312141
-0.00618646
-0.00505009
-0.00441573
-0.00430131
-0.00462939
-0.00527035
-0.00596562
-0.00684926
-0.00771777
-0.00890341
-0.010162
-0.0120048
-0.0142121
-0.0170262
-0.0183024
-0.0154206
0.00941058
0.0709514
0.202349
1.17251e-05
-1.54893e-05
1.25019e-05
6.96337e-05
0.00016262
0.000291439
0.000456433
0.000657804
0.000894913
0.0011658
0.00146666
0.00179135
0.00213084
0.00247284
0.00280193
0.00310012
0.00334768
0.00352485
0.00362901
0.00361074
3.91754e-05
1.10494e-05
4.14811e-05
9.71428e-05
0.00018663
0.000310463
0.00046944
0.00066413
0.000894242
0.00115819
0.0014526
0.00177144
0.0021067
0.00244611
0.00277439
0.00307347
0.00332315
0.00350346
0.0036134
0.00359348
6.31563e-06
-2.7467e-05
1.66093e-06
5.48107e-05
0.000141508
0.000262417
0.000418742
0.000611609
0.000841384
0.0011072
0.00140637
0.00173413
0.00208225
0.00243867
0.00278742
0.00310891
0.0033802
0.00357746
0.00369875
0.00367253
-6.34261e-05
-0.000101459
-7.41414e-05
-2.42439e-05
5.8779e-05
0.0001759
0.000328964
0.000519938
0.000750196
0.00102003
0.00132796
0.00167003
0.00203987
0.00242517
0.00280902
0.0031692
0.0034783
0.00370607
0.00384819
0.00381853
-0.000176773
-0.000219264
-0.000194453
-0.000148577
-6.99954e-05
4.26716e-05
0.000192084
0.000381313
0.0006131
0.000889364
0.00121042
0.00157397
0.00197559
0.00240323
0.00283922
0.00325818
0.00362639
0.00390316
0.00407911
0.00404788
-0.000333613
-0.000381328
-0.000359786
-0.000319065
-0.000246327
-0.000139722
4.3775e-06
0.000190389
0.000422805
0.000705714
0.00104174
0.0014296
0.00187375
0.00235784
0.0028656
0.00336831
0.00382388
0.00417615
0.00440537
0.0043765
-0.000534188
-0.000588211
-0.000570875
-0.000536936
-0.000472252
-0.000374504
-0.000239002
-5.97802e-05
0.000169796
0.000456727
0.000807843
0.00122977
0.00171473
0.00226687
0.0028677
0.00348506
0.0040666
0.00453449
0.0048479
0.00483265
-0.000779264
-0.000840919
-0.000828903
-0.000803851
-0.000750251
-0.000665428
-0.000543653
-0.000377335
-0.000157482
0.000126194
0.000484746
0.000928557
0.00146421
0.00209554
0.0028115
0.00358078
0.00434087
0.00498656
0.00543539
0.00546541
-0.00106982
-0.00114056
-0.00113501
-0.00112128
-0.0010825
-0.00101592
-0.000914958
-0.00077053
-0.000571268
-0.000303258
4.98957e-05
0.000506169
0.00108215
0.00179326
0.0026412
0.00360295
0.00461064
0.0055297
0.00620314
0.00636345
-0.00140709
-0.00148842
-0.00149019
-0.0014902
-0.00147037
-0.00142833
-0.00135707
-0.00124648
-0.00108318
-0.000849833
-0.000524377
-7.96851e-05
0.000515321
0.00128677
0.00226656
0.00345325
0.00479092
0.00612648
0.00718872
0.00769244
-0.00179287
-0.00188614
-0.00189521
-0.00191076
-0.00191378
-0.00190294
-0.00187155
-0.00180926
-0.00170172
-0.00152938
-0.00126583
-0.000875882
-0.000314963
0.000468482
0.00154192
0.00294894
0.00468917
0.00663752
0.00838856
0.00975451
-0.00223024
-0.00233622
-0.00235063
-0.00238193
-0.00241049
-0.00243688
-0.00245562
-0.00245738
-0.00242855
-0.0023498
-0.00219353
-0.00191991
-0.00147125
-0.000768269
0.000270829
0.00177701
0.00387461
0.00660216
0.00951088
0.0126616
-0.00272535
-0.00284403
-0.00285861
-0.00290273
-0.0029563
-0.00302325
-0.00310056
-0.00318122
-0.00325449
-0.00330498
-0.00330999
-0.00323528
-0.00302792
-0.00260809
-0.00187083
-0.000676588
0.00137852
0.00470753
0.00895539
0.0150905
-0.00328617
-0.00340686
-0.00340611
-0.00345415
-0.00353147
-0.0036433
-0.00378727
-0.00395915
-0.00415389
-0.00436444
-0.00458064
-0.00478757
-0.00496433
-0.00508116
-0.00511989
-0.00503756
-0.00449261
-0.00227807
0.00188311
0.012081
-0.00394725
-0.00409083
-0.00406402
-0.00411211
-0.00419412
-0.00432915
-0.00452266
-0.00477775
-0.00509714
-0.00548547
-0.00595328
-0.00652153
-0.00723341
-0.00818241
-0.00962112
-0.0119131
-0.0151268
-0.0153926
-0.0123112
0.00240778
-0.00479919
-0.00472556
-0.00460117
-0.00457139
-0.00465635
-0.0048463
-0.0051308
-0.0055031
-0.00596703
-0.006537
-0.00724543
-0.00815355
-0.00939888
-0.0112029
-0.0141594
-0.0189077
-0.0265744
-0.0303063
-0.0291588
-0.00886459
-0.00536055
-0.00580148
-0.00556664
-0.00562039
-0.00565165
-0.00578901
-0.00603859
-0.00641293
-0.00692334
-0.00758454
-0.00844296
-0.00957337
-0.0111977
-0.0135638
-0.0177018
-0.0236982
-0.0346907
-0.0408414
-0.0408621
-0.00848083
-0.00886541
-0.00629047
-0.00574653
-0.0052671
-0.00530186
-0.00557604
-0.00602631
-0.00659245
-0.00728256
-0.00808588
-0.00907933
-0.0102842
-0.0120454
-0.0144301
-0.0188188
-0.0249862
-0.0349071
-0.039181
-0.0336615
0.0162689
-0.00549497
-0.00844043
-0.00762606
-0.00781956
-0.00757222
-0.00751348
-0.00762474
-0.00792888
-0.00843243
-0.00908033
-0.00995667
-0.0109899
-0.0126351
-0.0148408
-0.0191132
-0.0246669
-0.0322315
-0.0282474
-0.00662007
0.0752017
-0.0306014
-0.00556491
-0.00443737
-0.0038609
-0.00382207
-0.00422285
-0.00493682
-0.00569734
-0.00664273
-0.0075651
-0.00878955
-0.0100933
-0.0119519
-0.0142103
-0.0170588
-0.0182776
-0.0151545
0.0112177
0.0750348
0.210591
1.94161e-05
-8.53956e-06
1.92232e-05
7.61493e-05
0.000169203
0.000298355
0.000463988
0.000666352
0.000904866
0.00117762
0.00148085
0.00180841
0.0021512
0.00249682
0.0028296
0.00313124
0.00338159
0.00356046
0.00366536
0.00364595
4.80727e-05
1.9093e-05
4.93157e-05
0.000104736
0.000194232
0.000318319
0.000477835
0.000673409
0.000904812
0.00117053
0.00146722
0.0017889
0.00212744
0.00247052
0.0028026
0.00310531
0.00335798
0.0035402
0.0036511
0.00363016
1.65404e-05
-1.82089e-05
1.06915e-05
6.35583e-05
0.000150229
0.000271363
0.000428212
0.000621976
0.000853096
0.00112079
0.00142245
0.00175335
0.00210526
0.00246598
0.00281931
0.00314527
0.0034204
0.00362023
0.00374291
0.00371558
-5.14485e-05
-9.05397e-05
-6.34622e-05
-1.38836e-05
6.90858e-05
0.000186415
0.000340011
0.000531937
0.000763669
0.00103562
0.00134643
0.00169227
0.0020667
0.00245739
0.00284718
0.00321334
0.00352777
0.00375935
0.00390371
0.00387293
-0.000162808
-0.000206453
-0.00018189
-0.000136359
-5.78379e-05
5.5053e-05
0.000205057
0.000395366
0.000628868
0.000907655
0.00123224
0.00160056
0.00200795
0.00244265
0.00288671
0.00331414
0.00369024
0.00397299
0.00415268
0.00412045
-0.000317315
-0.000366287
-0.000345003
-0.000304651
-0.000231976
-0.000125119
1.96538e-05
0.000206916
0.000441361
0.000727329
0.00106786
0.00146304
0.00191342
0.00240686
0.00292584
0.00344084
0.00390845
0.00427037
0.004506
0.00447657
-0.000515071
-0.000570468
-0.000553406
-0.00051988
-0.000455282
-0.000357279
-0.000221043
-4.04095e-05
0.000191512
0.00048204
0.000838251
0.00126608
0.00176243
0.0023276
0.0029442
0.00357958
0.00417971
0.00466356
0.00498811
0.00497361
-0.000756663
-0.000819826
-0.000808125
-0.000783574
-0.000730141
-0.000645131
-0.00052264
-0.000354831
-0.000132381
0.000155432
0.0005202
0.000972904
0.00152131
0.00216965
0.00290739
0.00370289
0.00449171
0.00516414
0.00563267
0.00566686
-0.00104283
-0.00111524
-0.00111009
-0.00109702
-0.0010586
-0.000992025
-0.000890523
-0.000744711
-0.000542812
-0.000270353
8.98132e-05
0.000556666
0.00114816
0.00188077
0.0027579
0.00375698
0.00480857
0.00577246
0.00648155
0.00665444
-0.00137446
-0.00145765
-0.00145997
-0.00146093
-0.0014418
-0.00140017
-0.00132881
-0.00121725
-0.00105166
-0.000814043
-0.000481373
-2.52349e-05
0.000587106
0.00138434
0.00240126
0.00363882
0.00504183
0.00645188
0.00758114
0.00811556
-0.00175286
-0.00184821
-0.0018581
-0.00187506
-0.00187935
-0.00186962
-0.00183892
-0.00177656
-0.00166769
-0.00149206
-0.0012222
-0.000821441
-0.000243068
0.000567579
0.00168336
0.00315374
0.0049858
0.00705516
0.00893431
0.0103664
-0.00218036
-0.00228873
-0.00230435
-0.00233775
-0.00236846
-0.00239704
-0.00241778
-0.00242098
-0.00239262
-0.00231271
-0.00215277
-0.00187155
-0.00140901
-0.000682264
0.000394673
0.00196496
0.00417281
0.00708069
0.010226
0.0134838
-0.00266208
-0.00278358
-0.00279999
-0.00284725
-0.00290423
-0.00297492
-0.00305607
-0.00314044
-0.00321698
-0.00326991
-0.00327619
-0.003201
-0.00299042
-0.00256304
-0.00181198
-0.000597388
0.00152936
0.00505882
0.00971759
0.0159826
-0.00320423
-0.0033282
-0.00332998
-0.00338251
-0.00346503
-0.00358288
-0.00373341
-0.00391219
-0.00411407
-0.00433206
-0.00455658
-0.00477402
-0.00496532
-0.00510548
-0.00518808
-0.00518749
-0.00476841
-0.00255563
0.00218825
0.0124886
-0.00384055
-0.00398895
-0.00396581
-0.00402089
-0.00411049
-0.00425414
-0.00445713
-0.00472262
-0.00505361
-0.00545536
-0.00594021
-0.0065328
-0.00728406
-0.00830322
-0.00988401
-0.0124739
-0.0163306
-0.0169127
-0.0131204
0.00186214
-0.00465635
-0.00458828
-0.00446883
-0.00444753
-0.00454253
-0.00474468
-0.00504318
-0.00543103
-0.00591238
-0.00650207
-0.00723527
-0.00817912
-0.00948584
-0.011402
-0.0146025
-0.0198315
-0.0285258
-0.0329905
-0.031078
-0.010091
-0.00517268
-0.00562608
-0.00539277
-0.00546123
-0.00550609
-0.00565958
-0.00592705
-0.00632111
-0.00685291
-0.00753845
-0.00842562
-0.00959421
-0.0112846
-0.0137616
-0.0181789
-0.0246164
-0.0365803
-0.0432081
-0.0421875
-0.00893532
-0.00861382
-0.00605623
-0.00551803
-0.0050515
-0.00509965
-0.00539339
-0.00586755
-0.00646096
-0.00717901
-0.00801138
-0.00903563
-0.0102743
-0.0120897
-0.0145531
-0.0191342
-0.0255959
-0.0359643
-0.040165
-0.0330194
0.0175538
-0.00522005
-0.00819151
-0.00735204
-0.00755827
-0.00732107
-0.00728222
-0.00741867
-0.00775258
-0.00828908
-0.00897026
-0.00988146
-0.0109425
-0.0126366
-0.0148905
-0.0192854
-0.0249549
-0.0325521
-0.027989
-0.00432767
0.07824
-0.0302791
-0.00522847
-0.00408947
-0.00351889
-0.00350198
-0.00393373
-0.0046845
-0.00548406
-0.00646953
-0.00743207
-0.00869301
-0.010039
-0.0119413
-0.0142632
-0.0171827
-0.0184117
-0.0150599
0.0122044
0.0780084
0.214585
2.67322e-05
-1.48168e-06
2.61814e-05
8.30499e-05
0.000176245
0.000305768
0.000472045
0.000675379
0.000915238
0.00118976
0.00149522
0.00182544
0.00217131
0.00252027
0.00285649
0.00316138
0.00341446
0.00359523
0.00370118
0.00368147
5.59307e-05
2.66625e-05
5.67948e-05
0.000112152
0.000201776
0.00032621
0.000486342
0.000682858
0.000915588
0.00118307
0.00148201
0.00180643
0.00214814
0.00249472
0.00283045
0.00313665
0.00339231
0.00357664
0.00368878
0.00366765
2.53379e-05
-9.73237e-06
1.9071e-05
7.18591e-05
0.000158648
0.000280127
0.000437607
0.000632355
0.000864889
0.0011345
0.00143863
0.00177263
0.00212818
0.00249301
0.00285072
0.00318099
0.0034599
0.0036625
0.00378688
0.00375939
-4.13129e-05
-8.07532e-05
-5.37787e-05
-4.29367e-06
7.87882e-05
0.00019647
0.000350733
0.000543726
0.000777026
0.00105115
0.00136485
0.00171438
0.00209324
0.00248909
0.00288452
0.00325641
0.00357607
0.00381162
0.00395853
0.00392772
-0.000151039
-0.000195059
-0.000170607
-0.000125183
-4.65478e-05
6.67206e-05
0.000217456
0.000408964
0.000644271
0.000925623
0.0012537
0.00162661
0.00203958
0.00248099
0.00293266
0.00336809
0.00375178
0.00404057
0.00422428
0.0041923
-0.000303561
-0.000352935
-0.000331774
-0.000291549
-0.000218762
-0.000111505
3.40713e-05
0.000222687
0.000459218
0.000748235
0.00109308
0.00149435
0.00195153
0.0024538
0.00298323
0.00350967
0.00398859
0.00435995
0.00460208
0.00457352
-0.000498886
-0.000554713
-0.000537801
-0.000504442
-0.000439762
-0.000341366
-0.000204286
-2.21735e-05
0.000212095
0.000506121
0.000867261
0.00130155
0.00180761
0.00238472
0.00301575
0.00366754
0.00428473
0.0047836
0.00511896
0.0051066
-0.000737462
-0.000801089
-0.000789592
-0.00076529
-0.000711862
-0.000626536
-0.000503243
-0.000333919
-0.000108944
0.000182789
0.000553351
0.0010143
0.00157426
0.00223791
0.00299513
0.00381396
0.00462843
0.00532509
0.00581185
0.00585097
-0.00101983
-0.00109275
-0.0010879
-0.00107523
-0.00103699
-0.000970304
-0.000868195
-0.000721019
-0.000516639
-0.000240097
0.000126404
0.000602693
0.00120781
0.00195937
0.00286192
0.00389337
0.00498309
0.00598609
0.00672675
0.00691047
-0.00134662
-0.00143037
-0.00143316
-0.00143477
-0.00141614
-0.00137477
-0.00130323
-0.00119076
-0.00102312
-0.000781748
-0.00044283
2.31482e-05
0.00065035
0.00146943
0.00251758
0.00379793
0.00525615
0.00672903
0.00791482
0.00847177
-0.00171874
-0.00181474
-0.00182532
-0.00184332
-0.00184861
-0.00183976
-0.00180964
-0.00174724
-0.00163734
-0.00145908
-0.00118417
-0.000774691
-0.000182222
0.000650149
0.00180017
0.00332199
0.00522981
0.0073987
0.00938143
0.0108561
-0.00213804
-0.00224715
-0.0022638
-0.00229879
-0.00233122
-0.00236161
-0.00238406
-0.00238865
-0.002361
-0.00228068
-0.00211847
-0.00183201
-0.00135952
-0.000615109
0.000489913
0.00210981
0.00440761
0.00746274
0.0107922
0.0141173
-0.00260894
-0.0027313
-0.00274923
-0.00279884
-0.00285851
-0.00293224
-0.0030167
-0.00310446
-0.00318432
-0.0032403
-0.00324906
-0.00317541
-0.0029648
-0.00253456
-0.00177659
-0.00055462
0.00163468
0.0053394
0.0103236
0.0166749
-0.00313671
-0.00326165
-0.00326547
-0.00332125
-0.00340769
-0.00353023
-0.00368615
-0.00387096
-0.00407955
-0.00430516
-0.00453865
-0.00476728
-0.00497379
-0.00513578
-0.00525325
-0.00530654
-0.00496808
-0.00272152
0.00249586
0.0128982
-0.00375515
-0.00390502
-0.00388456
-0.00394428
-0.00403927
-0.00418936
-0.00439987
-0.00467414
-0.00501555
-0.00543013
-0.00593185
-0.00654832
-0.00733647
-0.00841613
-0.0101073
-0.0129109
-0.0172198
-0.0179837
-0.0135821
0.00165749
-0.0045458
-0.00447935
-0.00436329
-0.00434743
-0.00444907
-0.00465972
-0.00496859
-0.00536874
-0.00586481
-0.00647231
-0.00722927
-0.00820778
-0.00957186
-0.0115849
-0.0149831
-0.0205765
-0.0300024
-0.0350069
-0.032448
-0.0108297
-0.00503986
-0.00549698
-0.00526322
-0.00533867
-0.00539077
-0.0055541
-0.00583356
-0.00624197
-0.0067909
-0.00749716
-0.00841158
-0.00961851
-0.0113748
-0.0139533
-0.0186095
-0.0254064
-0.0381623
-0.0452378
-0.0434633
-0.00937197
-0.00843363
-0.00588519
-0.00535311
-0.00489393
-0.00494816
-0.00525183
-0.00574013
-0.006351
-0.00708955
-0.00794549
-0.00899911
-0.0102733
-0.0121508
-0.0146833
-0.0194765
-0.0261961
-0.0370397
-0.0413605
-0.0333142
0.0181419
-0.00507227
-0.00804434
-0.00717952
-0.00738664
-0.00714747
-0.00711426
-0.00726185
-0.00761214
-0.0081693
-0.0088739
-0.0098157
-0.0109062
-0.0126565
-0.0149643
-0.0194908
-0.025271
-0.0330078
-0.028192
-0.00345227
0.0800237
-0.0300768
-0.00502122
-0.00387186
-0.00329715
-0.00328515
-0.0037288
-0.0044978
-0.00531892
-0.00633097
-0.00732125
-0.0086176
-0.00999988
-0.0119587
-0.0143395
-0.0173567
-0.018619
-0.0152224
0.0125139
0.079404
0.216809
3.31892e-05
4.93283e-06
3.25899e-05
8.95029e-05
0.000182887
0.000312782
0.000479662
0.000683877
0.000924943
0.00120104
0.00150846
0.00184103
0.00218959
0.00254149
0.00288073
0.00318852
0.00344408
0.00362668
0.00373375
0.00371408
6.26481e-05
3.33099e-05
6.34346e-05
0.000118837
0.000208654
0.000333464
0.000494205
0.000691614
0.000925572
0.00119466
0.00149563
0.0018225
0.00216703
0.00251672
0.00285568
0.003165
0.00342339
0.00360976
0.00372317
0.00370221
3.27215e-05
-2.42251e-06
2.63704e-05
7.92e-05
0.000166184
0.00028805
0.000446167
0.000641862
0.000875717
0.00114709
0.00145347
0.00179023
0.00214902
0.00251749
0.00287908
0.00321318
0.00349552
0.00370075
0.00382681
0.00379956
-3.29237e-05
-7.24417e-05
-4.54812e-05
4.04126e-06
8.73221e-05
0.000205411
0.000360356
0.000554384
0.000789158
0.00106529
0.00138161
0.00173443
0.00211722
0.00251762
0.00291803
0.00329496
0.00361929
0.00385853
0.00400787
0.00397747
-0.000141352
-0.000185453
-0.000161021
-0.000115565
-3.67254e-05
7.69757e-05
0.000228455
0.000421118
0.000658108
0.000941802
0.00127302
0.00164996
0.00206787
0.00251516
0.00297346
0.00341587
0.00380621
0.00410043
0.00428783
0.00425657
-0.000292255
-0.000341712
-0.000320583
-0.000280341
-0.000207353
-9.96443e-05
4.67348e-05
0.000236633
0.000475081
0.000766838
0.00111548
0.00152187
0.00198517
0.00249511
0.00303352
0.00356974
0.00405838
0.00443797
0.00468588
0.00465858
-0.000485575
-0.000541489
-0.000524635
-0.000491294
-0.000426442
-0.000327608
-0.0001897
-6.21269e-06
0.000230176
0.000527308