/*--------------------------------*- C++ -*----------------------------------*\
  =========                 |
  \\      /  F ield         | OpenFOAM: The Open Source CFD Toolbox
   \\    /   O peration     | Website:  https://openfoam.org
    \\  /    A nd           | Version:  10
     \\/     M anipulation  |
\*---------------------------------------------------------------------------*/
FoamFile
{
    format      ascii;
    class       volScalarField;
    location    "4.825";
    object      p;
}
// * * * * * * * * * * * * * * * * * * * * * * * * * * * * * * * * * * * * * //

dimensions      [0 2 -2 0 0 0 0];

internalField   nonuniform List<scalar> 
400
(
4.97564e-09
-2.5206e-05
4.38154e-06
6.54358e-05
0.000164171
0.000301413
0.00047816
0.000695314
0.000952971
0.0012498
0.0015824
0.0019446
0.00232695
0.00271559
0.00309279
0.00343733
0.00372555
0.003934
0.00405747
0.00404411
2.58945e-05
-1.67511e-07
3.20086e-05
9.18855e-05
0.000187219
0.000319515
0.000490227
0.000700645
0.000951242
0.00124112
0.00156734
0.00192384
0.00230245
0.00268936
0.00306702
0.00341408
0.00370614
0.00391942
0.00404994
0.00403508
-7.92521e-06
-3.97142e-05
-9.16064e-06
4.77487e-05
0.000139577
0.000268087
0.000435202
0.00064287
0.000892364
0.00118368
0.00151482
0.00188134
0.00227492
0.00268218
0.00308481
0.00345961
0.0037788
0.00401376
0.00415885
0.00413782
-8.05879e-05
-0.000116816
-8.867e-05
-3.58597e-05
5.11128e-05
0.000174426
0.000336741
0.000541027
0.000789806
0.00108456
0.00142488
0.00180729
0.00222611
0.00266786
0.00311352
0.00353669
0.00390375
0.00417787
0.00434977
0.00432584
-0.000197779
-0.000238541
-0.000213772
-0.000166297
-8.55812e-05
3.10896e-05
0.000187331
0.000387448
0.000635682
0.000935626
0.00128941
0.00169675
0.00215047
0.00264202
0.00315101
0.00364725
0.00408924
0.00442639
0.00464209
0.00461809
-0.000359241
-0.000405299
-0.000385009
-0.000344512
-0.000272161
-0.000164639
-1.72175e-05
0.000176015
0.000421449
0.000725416
0.00109326
0.00152785
0.0020278
0.00258555
0.00318154
0.0037819
0.00433491
0.00476988
0.0050552
0.00503665
-0.000564365
-0.000616813
-0.000602308
-0.000570993
-0.000510055
-0.000415592
-0.000281688
-0.000100634
0.000136489
0.00043946
0.000818098
0.00128061
0.00183161
0.00246953
0.0031778
0.00392048
0.00463399
0.00522013
0.00561675
0.00561863
-0.000812674
-0.000872837
-0.000865641
-0.000846262
-0.000800743
-0.000724752
-0.000611273
-0.000450779
-0.0002316
6.00793e-05
0.000439813
0.00092346
0.00152375
0.00224971
0.00309399
0.00402383
0.00496483
0.00578518
0.00636367
0.00642671
-0.00110357
-0.0011729
-0.00117458
-0.00117025
-0.00114494
-0.00109426
-0.0010104
-0.000882302
-0.000695698
-0.000432582
-7.09132e-05
0.000414863
0.00105207
0.00185824
0.00285315
0.0040162
0.0052714
0.00645288
0.00734029
0.00757064
-0.0014363
-0.00151625
-0.00152805
-0.00154182
-0.00154189
-0.00152436
-0.00148132
-0.00140089
-0.00126693
-0.00105792
-0.000745688
-0.000294365
0.000338784
0.00119861
0.00233178
0.00375499
0.00542163
0.00715507
0.00859094
0.00924878
-0.00181025
-0.0019021
-0.00192427
-0.00195838
-0.00198854
-0.0020122
-0.00202234
-0.0020075
-0.00195128
-0.00183064
-0.00161346
-0.00125549
-0.000696981
0.000138676
0.0013253
0.00296657
0.0051081
0.00765272
0.0100768
0.0117487
-0.00222571
-0.00233013
-0.00236078
-0.00241554
-0.00247885
-0.00255056
-0.0026258
-0.00269517
-0.00274449
-0.00275289
-0.00268961
-0.00250913
-0.00214317
-0.00149266
-0.000433146
0.00118126
0.00364129
0.00715991
0.0112215
0.0148574
-0.00268553
-0.00280203
-0.00283539
-0.00290745
-0.00300331
-0.00312668
-0.00327631
-0.00344653
-0.00362835
-0.0038081
-0.00396483
-0.00406604
-0.00406077
-0.00386914
-0.00337779
-0.00241339
-0.000519295
0.00337133
0.009245
0.0160931
-0.00319501
-0.00331514
-0.00333546
-0.00341526
-0.00354058
-0.00371758
-0.00394733
-0.00422954
-0.00456348
-0.00494793
-0.00538125
-0.00586207
-0.00639318
-0.00699475
-0.00776518
-0.00884614
-0.00987778
-0.00806175
-0.00171714
0.0094355
-0.00378741
-0.0039236
-0.00391857
-0.00399917
-0.00413398
-0.00434177
-0.00463299
-0.00501636
-0.00550209
-0.00610562
-0.00685402
-0.00779401
-0.0090233
-0.0107343
-0.0134271
-0.0178559
-0.0246232
-0.0269849
-0.0212553
-0.00469322
-0.00454102
-0.00447551
-0.0043705
-0.00437583
-0.00451083
-0.00477387
-0.00515994
-0.00566962
-0.00631613
-0.00712618
-0.00815439
-0.00950353
-0.0113915
-0.0141521
-0.0187905
-0.0262421
-0.0388337
-0.0457676
-0.0418559
-0.0180663
-0.0050204
-0.00545552
-0.00521942
-0.00529336
-0.00536829
-0.00557224
-0.00591895
-0.00642877
-0.00712303
-0.00803075
-0.00921856
-0.0107926
-0.0130719
-0.0163312
-0.0221693
-0.030272
-0.0457348
-0.0540075
-0.050203
-0.0140808
-0.00833608
-0.00581704
-0.00527809
-0.00482487
-0.00488082
-0.00520528
-0.00573782
-0.00643019
-0.00729371
-0.00833509
-0.00964405
-0.011266
-0.0136416
-0.0167389
-0.0223499
-0.0301172
-0.0420634
-0.0465437
-0.0359807
0.0170467
-0.00512926
-0.0080593
-0.00712048
-0.00726264
-0.00699326
-0.00695274
-0.00711403
-0.00751081
-0.00816579
-0.00902861
-0.0101982
-0.0116242
-0.0137872
-0.0166648
-0.0217645
-0.0280605
-0.0361889
-0.0304797
-0.00311006
0.0817091
-0.0300491
-0.0050752
-0.0037966
-0.00317898
-0.00313236
-0.00355183
-0.00432351
-0.00519623
-0.00629161
-0.00745935
-0.00895983
-0.0107107
-0.0130754
-0.01594
-0.0194729
-0.0210373
-0.0176033
0.0111329
0.0810159
0.219934
)
;

boundaryField
{
    movingWall
    {
        type            zeroGradient;
    }
    fixedWalls
    {
        type            zeroGradient;
    }
    frontAndBack
    {
        type            empty;
    }
}


// ************************************************************************* //
