/*--------------------------------*- C++ -*----------------------------------*\
  =========                 |
  \\      /  F ield         | OpenFOAM: The Open Source CFD Toolbox
   \\    /   O peration     | Website:  https://openfoam.org
    \\  /    A nd           | Version:  10
     \\/     M anipulation  |
\*---------------------------------------------------------------------------*/
FoamFile
{
    format      ascii;
    class       volVectorField;
    location    "4.825";
    object      U;
}
// * * * * * * * * * * * * * * * * * * * * * * * * * * * * * * * * * * * * * //

dimensions      [0 1 -1 0 0 0 0];

internalField   nonuniform List<vector> 
400
(
(-9.17994e-05 8.64412e-05 0)
(-0.000798566 0.000308531 0)
(-0.00197954 0.000373012 0)
(-0.00311516 0.000379798 0)
(-0.00423485 0.000371688 0)
(-0.0053011 0.000357979 0)
(-0.00629141 0.000337988 0)
(-0.00718295 0.000309076 0)
(-0.00794767 0.00026842 0)
(-0.00855251 0.000213279 0)
(-0.00895991 0.000141384 0)
(-0.0091294 5.1909e-05 0)
(-0.00901879 -5.73109e-05 0)
(-0.00858948 -0.000183357 0)
(-0.00781377 -0.000320796 0)
(-0.00668028 -0.00046013 0)
(-0.00521036 -0.00058458 0)
(-0.00349891 -0.000662581 0)
(-0.0015593 -0.000618995 0)
(-0.000258347 -0.000278153 0)
(-0.000331049 0.000805319 0)
(-0.001776 0.00171448 0)
(-0.00392844 0.00196 0)
(-0.0059961 0.00196054 0)
(-0.00800633 0.00188144 0)
(-0.00989126 0.00176183 0)
(-0.0116052 0.00160374 0)
(-0.0131061 0.00140137 0)
(-0.0143476 0.00114767 0)
(-0.0152792 0.000835839 0)
(-0.0158458 0.000460167 0)
(-0.0159934 1.65658e-05 0)
(-0.0156663 -0.000491106 0)
(-0.0148138 -0.00105067 0)
(-0.0134049 -0.00163914 0)
(-0.0114327 -0.0022182 0)
(-0.00894144 -0.00272301 0)
(-0.00607364 -0.00302989 0)
(-0.00286508 -0.00285877 0)
(-0.000578534 -0.00153125 0)
(-0.000417094 0.00205917 0)
(-0.00214374 0.00390901 0)
(-0.00466673 0.00438377 0)
(-0.00707782 0.0043536 0)
(-0.00941226 0.00414771 0)
(-0.0115937 0.00384602 0)
(-0.0135711 0.00345674 0)
(-0.0152983 0.0029726 0)
(-0.0167251 0.00238325 0)
(-0.0177971 0.00167829 0)
(-0.0184571 0.000849337 0)
(-0.0186416 -0.000107913 0)
(-0.0182844 -0.00118675 0)
(-0.0173269 -0.002363 0)
(-0.015726 -0.00359075 0)
(-0.0134632 -0.0047925 0)
(-0.0105765 -0.00583843 0)
(-0.00722315 -0.00647855 0)
(-0.00343796 -0.00615638 0)
(-0.000707318 -0.00350192 0)
(-0.000444353 0.00334539 0)
(-0.00229496 0.00617832 0)
(-0.0049969 0.006883 0)
(-0.00757292 0.0068162 0)
(-0.0100702 0.00648101 0)
(-0.0124106 0.00599836 0)
(-0.0145444 0.0053818 0)
(-0.0164266 0.00462182 0)
(-0.0180072 0.00370367 0)
(-0.0192304 0.00261148 0)
(-0.0200342 0.00133174 0)
(-0.0203506 -0.000141348 0)
(-0.0200987 -0.00180495 0)
(-0.0191949 -0.00362912 0)
(-0.0175691 -0.00554983 0)
(-0.0151715 -0.00745167 0)
(-0.0120158 -0.00913167 0)
(-0.00826623 -0.0101896 0)
(-0.00395488 -0.00974551 0)
(-0.000814654 -0.00563955 0)
(-0.000461095 0.00470683 0)
(-0.00241148 0.00858831 0)
(-0.00526911 0.00953641 0)
(-0.00799337 0.00943409 0)
(-0.0106438 0.00897025 0)
(-0.0131427 0.00830914 0)
(-0.0154441 0.00746991 0)
(-0.0175066 0.00644035 0)
(-0.0192828 0.00519993 0)
(-0.0207168 0.00372462 0)
(-0.021742 0.00199077 0)
(-0.0222802 -1.90878e-05 0)
(-0.0222318 -0.00230468 0)
(-0.0214814 -0.0048444 0)
(-0.0199139 -0.00756282 0)
(-0.0174246 -0.0103083 0)
(-0.0139733 -0.0127915 0)
(-0.00971919 -0.0144184 0)
(-0.00469455 -0.0139006 0)
(-0.000974891 -0.0081346 0)
(-0.000481 0.00613783 0)
(-0.00254748 0.011141 0)
(-0.00558722 0.0123508 0)
(-0.00848671 0.0122175 0)
(-0.0113192 0.0116302 0)
(-0.0140083 0.0108 0)
(-0.0165142 0.00975219 0)
(-0.0188017 0.00847155 0)
(-0.0208289 0.00693015 0)
(-0.0225428 0.00509235 0)
(-0.0238752 0.00291841 0)
(-0.0247348 0.000371196 0)
(-0.0250032 -0.00257003 0)
(-0.024525 -0.00590433 0)
(-0.0231167 -0.00955993 0)
(-0.0205884 -0.013356 0)
(-0.016802 -0.0169023 0)
(-0.0118762 -0.0193517 0)
(-0.00583613 -0.0188626 0)
(-0.00123965 -0.0111652 0)
(-0.000506631 0.00765243 0)
(-0.00271517 0.0138626 0)
(-0.00597464 0.0153553 0)
(-0.00908341 0.0151958 0)
(-0.0121312 0.0144914 0)
(-0.0150442 0.0135045 0)
(-0.0177911 0.0122681 0)
(-0.020347 0.0107641 0)
(-0.0226799 0.00895596 0)
(-0.0247453 0.00679303 0)
(-0.0264782 0.00421253 0)
(-0.0277816 0.00114628 0)
(-0.0285191 -0.0024683 0)
(-0.0284872 -0.00667259 0)
(-0.0274142 -0.0114302 0)
(-0.0249813 -0.0165561 0)
(-0.0208823 -0.0215543 0)
(-0.0151093 -0.0252484 0)
(-0.00765029 -0.0250015 0)
(-0.00170055 -0.0150436 0)
(-0.000538289 0.00927033 0)
(-0.00291741 0.0167882 0)
(-0.00643635 0.0185861 0)
(-0.00978676 0.0184027 0)
(-0.0130789 0.0175858 0)
(-0.0162425 0.0164553 0)
(-0.0192586 0.0150545 0)
(-0.0221172 0.0133637 0)
(-0.024803 0.0113383 0)
(-0.0272889 0.00891047 0)
(-0.029524 0.00598789 0)
(-0.0314172 0.00245721 0)
(-0.0328244 -0.00180762 0)
(-0.0334983 -0.00692978 0)
(-0.0330631 -0.0129609 0)
(-0.0310192 -0.0197685 0)
(-0.0267897 -0.0267789 0)
(-0.0200606 -0.0324076 0)
(-0.0106973 -0.0328581 0)
(-0.00257306 -0.0203251 0)
(-0.000576911 0.0110123 0)
(-0.00315806 0.0199545 0)
(-0.00697737 0.022078 0)
(-0.0105978 0.0218668 0)
(-0.0141555 0.0209371 0)
(-0.0175854 0.0196743 0)
(-0.0208847 0.0181356 0)
(-0.0240644 0.0163038 0)
(-0.0271343 0.0141286 0)
(-0.0300968 0.0115257 0)
(-0.0329322 0.00837016 0)
(-0.035578 0.00448974 0)
(-0.0379088 -0.000335251 0)
(-0.0396583 -0.00633737 0)
(-0.0403519 -0.0137599 0)
(-0.0392693 -0.0226357 0)
(-0.0354378 -0.0324199 0)
(-0.0279347 -0.0410859 0)
(-0.0162577 -0.0432327 0)
(-0.00439918 -0.0281088 0)
(-0.000625401 0.0129029 0)
(-0.00344633 0.0234012 0)
(-0.00760979 0.0258639 0)
(-0.011524 0.0256102 0)
(-0.0153582 0.0245579 0)
(-0.0190545 0.023168 0)
(-0.022631 0.0215175 0)
(-0.0261256 0.019597 0)
(-0.0295825 0.0173573 0)
(-0.0330489 0.0147046 0)
(-0.0365619 0.011486 0)
(-0.0401254 0.00746924 0)
(-0.0436588 0.00232509 0)
(-0.0469587 -0.00436647 0)
(-0.0495381 -0.0131353 0)
(-0.0504659 -0.0243763 0)
(-0.0482882 -0.0378319 0)
(-0.041071 -0.0511927 0)
(-0.0272702 -0.0571989 0)
(-0.00854056 -0.0407764 0)
(-0.000690377 0.0149752 0)
(-0.00380138 0.0271755 0)
(-0.00835903 0.0299763 0)
(-0.0125851 0.0296467 0)
(-0.0166939 0.0284464 0)
(-0.0206371 0.026923 0)
(-0.024458 0.0251798 0)
(-0.0282264 0.0232232 0)
(-0.0320287 0.0210161 0)
(-0.0359705 0.0184702 0)
(-0.040171 0.0154229 0)
(-0.0447454 0.0115992 0)
(-0.0497639 0.00655802 0)
(-0.0552 -0.000366537 0)
(-0.0607235 -0.0100284 0)
(-0.0654451 -0.0234747 0)
(-0.0675465 -0.0412169 0)
(-0.0636211 -0.0614153 0)
(-0.0493651 -0.0758682 0)
(-0.0178005 -0.0634007 0)
(-0.000785621 0.0172804 0)
(-0.00425983 0.0313391 0)
(-0.0092725 0.0344492 0)
(-0.0138214 0.0339811 0)
(-0.0181866 0.032583 0)
(-0.0223331 0.0309005 0)
(-0.0263334 0.029069 0)
(-0.0302914 0.0271187 0)
(-0.0343382 0.0250393 0)
(-0.0386456 0.0227733 0)
(-0.043439 0.0201876 0)
(-0.0490053 0.0170195 0)
(-0.0556739 0.0127841 0)
(-0.0637439 0.00664682 0)
(-0.0734609 -0.00266571 0)
(-0.0846332 -0.0169669 0)
(-0.0955139 -0.0384896 0)
(-0.100267 -0.0682239 0)
(-0.0874353 -0.100911 0)
(-0.0332266 -0.106481 0)
(-0.000939215 0.019897 0)
(-0.0048889 0.0359569 0)
(-0.0104326 0.0392854 0)
(-0.0153043 0.0385739 0)
(-0.0198864 0.0369083 0)
(-0.0241635 0.0350268 0)
(-0.0282426 0.0330919 0)
(-0.0322583 0.0311652 0)
(-0.0363766 0.0292808 0)
(-0.040825 0.0274425 0)
(-0.0459298 0.0256019 0)
(-0.0521676 0.0236038 0)
(-0.0602285 0.0210782 0)
(-0.0710684 0.0172497 0)
(-0.0859769 0.0106889 0)
(-0.106403 -0.00122025 0)
(-0.130752 -0.0239935 0)
(-0.146972 -0.0682289 0)
(-0.130686 -0.138485 0)
(-0.0440012 -0.183345 0)
(-0.00121739 0.0230135 0)
(-0.00584399 0.0413373 0)
(-0.0119928 0.0448062 0)
(-0.0171344 0.0437213 0)
(-0.0218504 0.0416045 0)
(-0.0261613 0.0393522 0)
(-0.0301973 0.0371907 0)
(-0.0341041 0.0352237 0)
(-0.0380622 0.0335354 0)
(-0.042326 0.0322194 0)
(-0.047283 0.0313891 0)
(-0.0535581 0.0311459 0)
(-0.0621807 0.031504 0)
(-0.0747823 0.0321782 0)
(-0.0938953 0.0320702 0)
(-0.122205 0.0268096 0)
(-0.156605 0.002951 0)
(-0.175164 -0.070515 0)
(-0.148419 -0.202022 0)
(-0.040609 -0.289665 0)
(-0.00161155 0.0268951 0)
(-0.00698975 0.0465468 0)
(-0.0139843 0.0495399 0)
(-0.0194872 0.0476714 0)
(-0.0243621 0.0451713 0)
(-0.0285816 0.0427904 0)
(-0.0323669 0.0406379 0)
(-0.0359051 0.0387724 0)
(-0.0393625 0.0373107 0)
(-0.0429357 0.0364515 0)
(-0.046943 0.0365245 0)
(-0.0519625 0.0380259 0)
(-0.0590661 0.041633 0)
(-0.0700557 0.0477992 0)
(-0.0879464 0.0557032 0)
(-0.115088 0.0570107 0)
(-0.148262 0.0274038 0)
(-0.157811 -0.0826081 0)
(-0.132231 -0.27203 0)
(-0.0362243 -0.392289 0)
(-0.0036306 0.03052 0)
(-0.0111423 0.0556067 0)
(-0.0176429 0.0584113 0)
(-0.0226508 0.0560862 0)
(-0.0269007 0.0523772 0)
(-0.0307336 0.0488113 0)
(-0.0342109 0.0456768 0)
(-0.0373738 0.0431041 0)
(-0.0402482 0.0412325 0)
(-0.0428746 0.0403043 0)
(-0.0453376 0.0408102 0)
(-0.047845 0.0436016 0)
(-0.0510199 0.0501043 0)
(-0.0555847 0.0612141 0)
(-0.063534 0.0760775 0)
(-0.0748581 0.0800182 0)
(-0.093636 0.0456647 0)
(-0.0929522 -0.0880294 0)
(-0.0946948 -0.31373 0)
(-0.0252072 -0.476779 0)
(-0.00130096 0.0446086 0)
(-0.00911453 0.0582749 0)
(-0.0206139 0.0581257 0)
(-0.0262026 0.0535234 0)
(-0.0314012 0.0501443 0)
(-0.0349798 0.0474058 0)
(-0.0376537 0.0451001 0)
(-0.0396057 0.0431048 0)
(-0.0409033 0.0415513 0)
(-0.041461 0.0406551 0)
(-0.041078 0.0410281 0)
(-0.0392907 0.0434604 0)
(-0.0359786 0.0498317 0)
(-0.0294621 0.0604432 0)
(-0.0222622 0.0758652 0)
(-0.00792961 0.0802141 0)
(-0.00840541 0.0476166 0)
(0.00102973 -0.081443 0)
(-0.0368615 -0.321959 0)
(0.0075023 -0.521936 0)
(-0.012008 0.0340263 0)
(-0.024929 0.080439 0)
(-0.0253122 0.07853 0)
(-0.0324526 0.0732182 0)
(-0.0353895 0.0659526 0)
(-0.0367137 0.0595473 0)
(-0.0364062 0.0540669 0)
(-0.0349027 0.0494779 0)
(-0.0324056 0.0457281 0)
(-0.0287913 0.0427123 0)
(-0.0241889 0.0408144 0)
(-0.0174337 0.0403346 0)
(-0.00917478 0.0431688 0)
(0.00547357 0.049067 0)
(0.0223832 0.060718 0)
(0.0542424 0.0656657 0)
(0.0677346 0.0449095 0)
(0.105312 -0.0535168 0)
(0.048913 -0.295583 0)
(0.0561821 -0.511052 0)
(-0.0764631 0.0977282 0)
(-0.0620418 0.0606561 0)
(-0.0639799 0.0603427 0)
(-0.0432328 0.0536723 0)
(-0.026307 0.0467769 0)
(-0.00708598 0.0415495 0)
(0.0110164 0.0376968 0)
(0.0287678 0.0342925 0)
(0.0450356 0.0316897 0)
(0.061572 0.0290164 0)
(0.075765 0.0273248 0)
(0.0927959 0.0256696 0)
(0.104671 0.0253623 0)
(0.128921 0.02636 0)
(0.139117 0.02548 0)
(0.186564 0.0224786 0)
(0.189316 -0.0103142 0)
(0.242786 -0.0788312 0)
(0.172921 -0.26786 0)
(0.126502 -0.447622 0)
(0.120071 0.14036 0)
(0.152698 0.0860846 0)
(0.23059 0.0636937 0)
(0.285773 0.0484337 0)
(0.327686 0.0378554 0)
(0.366038 0.0301996 0)
(0.395363 0.02475 0)
(0.426829 0.0209505 0)
(0.446856 0.0179596 0)
(0.476093 0.015811 0)
(0.487807 0.0140769 0)
(0.518495 0.0127655 0)
(0.522181 0.0118219 0)
(0.556673 0.0112259 0)
(0.55178 0.00999064 0)
(0.589034 0.00738352 0)
(0.564348 -0.00231635 0)
(0.575507 -0.0261822 0)
(0.439724 -0.0753857 0)
(0.278866 -0.156698 0)
)
;

boundaryField
{
    movingWall
    {
        type            fixedValue;
        value           uniform (1 0 0);
    }
    fixedWalls
    {
        type            noSlip;
    }
    frontAndBack
    {
        type            empty;
    }
}


// ************************************************************************* //
