/*--------------------------------*- C++ -*----------------------------------*\
  =========                 |
  \\      /  F ield         | OpenFOAM: The Open Source CFD Toolbox
   \\    /   O peration     | Website:  https://openfoam.org
    \\  /    A nd           | Version:  10
     \\/     M anipulation  |
\*---------------------------------------------------------------------------*/
FoamFile
{
    format      ascii;
    class       volScalarField;
    location    "3.3";
    object      p;
}
// * * * * * * * * * * * * * * * * * * * * * * * * * * * * * * * * * * * * * //

dimensions      [0 2 -2 0 0 0 0];

internalField   nonuniform List<scalar> 
400
(
1.11857e-08
-3.20235e-05
-1.1233e-05
3.54171e-05
0.000113347
0.000222908
0.000363839
0.000535479
0.000736278
0.000963447
0.00121266
0.00147776
0.00175058
0.00202093
0.00227681
0.00250502
0.0026917
0.00282404
0.0029008
0.0028792
3.18354e-05
-1.50681e-06
1.9622e-05
6.36682e-05
0.000137333
0.000241519
0.000376337
0.00054148
0.000735739
0.000956673
0.00120027
0.00146049
0.00172976
0.00199789
0.00225287
0.0024813
0.00266897
0.00280296
0.00288299
0.00286003
7.7652e-06
-3.00997e-05
-1.05241e-05
3.12051e-05
0.00010249
0.000204468
0.000337613
0.000502064
0.000697089
0.000920703
0.00116932
0.00143775
0.00171787
0.00199937
0.0022696
0.00251402
0.00271663
0.00286233
0.00295019
0.00292352
-4.67497e-05
-8.87901e-05
-7.12669e-05
-3.24547e-05
3.5931e-05
0.000135438
0.000267121
0.000431807
0.000629514
0.000859018
0.00111743
0.00139991
0.00169911
0.00200423
0.00230138
0.00257397
0.00280316
0.00297009
0.00307237
0.00304387
-0.00013734
-0.000184184
-0.000169278
-0.000133974
-6.88991e-05
2.80428e-05
0.000158685
0.000324783
0.000527386
0.00076636
0.00103987
0.00134384
0.00167148
0.00201177
0.00234959
0.00266558
0.00293641
0.00313724
0.00326281
0.00323383
-0.000264707
-0.000317523
-0.000306014
-0.000275247
-0.000214517
-0.000121032
8.03427e-06
0.000175637
0.000384197
0.00063507
0.000927921
0.00126003
0.00162583
0.00201428
0.00240899
0.00278723
0.00311949
0.00337182
0.00353355
0.00350631
-0.000429591
-0.000489837
-0.00048282
-0.000458233
-0.000403751
-0.000315722
-0.000190106
-2.24341e-05
0.000191482
0.000454994
0.000769899
0.00113556
0.00154877
0.0019992
0.00246975
0.00293407
0.00335472
0.00368412
0.00390163
0.00388139
-0.000633182
-0.000702606
-0.000701562
-0.000685515
-0.000640203
-0.000560977
-0.000442335
-0.00027798
-6.15268e-05
0.000212955
0.00055015
0.000952461
0.00142103
0.00194741
0.00251538
0.00309576
0.00364193
0.00408685
0.00439108
0.00439064
-0.000876883
-0.000957523
-0.000964325
-0.000959969
-0.000927908
-0.00086239
-0.000756241
-0.000601024
-0.000387741
-0.00010728
0.000248702
0.000685739
0.00121536
0.00182984
0.0025182
0.00325121
0.00397336
0.00459299
0.00503421
0.00508486
-0.00116226
-0.00125643
-0.00127327
-0.00128455
-0.00127106
-0.00122589
-0.00114001
-0.00100266
-0.000801876
-0.000524725
-0.000157311
0.000315575
0.000895961
0.00160333
0.00243258
0.00335977
0.00432457
0.00520972
0.00587164
0.00604979
-0.00149116
-0.0016014
-0.00163053
-0.00166206
-0.00167368
-0.00165727
-0.00160188
-0.00149432
-0.00131976
-0.00106161
-0.000701232
-0.000218308
0.000407881
0.00120426
0.00218523
0.00334605
0.0046357
0.00591995
0.00694944
0.00743637
-0.00186613
-0.00199496
-0.00203817
-0.0020949
-0.00213919
-0.00216166
-0.00214927
-0.00208653
-0.0019561
-0.00173825
-0.00140987
-0.000943411
-0.000306993
0.000548483
0.00166305
0.00307404
0.00477438
0.00664357
0.00829258
0.00950673
-0.00229165
-0.0024406
-0.00249804
-0.00258469
-0.00266988
-0.00274271
-0.00278777
-0.00278743
-0.00272257
-0.00257182
-0.0023098
-0.00190395
-0.00130924
-0.000480655
0.00069374
0.00230543
0.00446213
0.00712886
0.00978165
0.0127552
-0.00277677
-0.00294388
-0.00301043
-0.00313058
-0.00326579
-0.00340205
-0.00352038
-0.00360123
-0.00362493
-0.00357092
-0.00341589
-0.00312917
-0.00266509
-0.00195057
-0.000883669
0.000692266
0.00316546
0.00668584
0.0107872
0.0171178
-0.00333466
-0.00352622
-0.00359376
-0.00375197
-0.00393888
-0.00414411
-0.00434764
-0.00452676
-0.00466053
-0.0047314
-0.0047258
-0.00463012
-0.00442319
-0.00406363
-0.0034864
-0.00259229
-0.000494948
0.00351818
0.00874822
0.0202974
-0.00405927
-0.00406011
-0.00409428
-0.00425814
-0.00453237
-0.00486406
-0.00521039
-0.00553312
-0.00580737
-0.00602212
-0.00618311
-0.00630733
-0.0064242
-0.00656355
-0.00674702
-0.00683277
-0.00713366
-0.00504334
-0.00163192
0.0165246
-0.00458757
-0.00513233
-0.00508057
-0.00540172
-0.0057073
-0.00606464
-0.00644629
-0.00682191
-0.0071729
-0.00749117
-0.00779876
-0.00814993
-0.00866043
-0.00952583
-0.0111082
-0.0137354
-0.0193446
-0.0213384
-0.0194331
0.00833293
-0.00765633
-0.00524087
-0.00505943
-0.00506516
-0.00554736
-0.00619433
-0.0069019
-0.00757311
-0.00817343
-0.00867646
-0.00913956
-0.00962746
-0.0103825
-0.0116641
-0.0144482
-0.0184835
-0.028323
-0.0335786
-0.0314694
0.0162422
-0.00463953
-0.00764993
-0.00719708
-0.0079488
-0.00831249
-0.00878671
-0.00930866
-0.00979289
-0.0102356
-0.0105947
-0.0108914
-0.0112853
-0.011957
-0.0133206
-0.0169201
-0.0214871
-0.0326293
-0.0343493
-0.0169697
0.061293
-0.0285194
-0.00405082
-0.00356057
-0.00375104
-0.00448366
-0.00556623
-0.00678083
-0.00783719
-0.00881109
-0.00948586
-0.0101912
-0.0107205
-0.0117577
-0.0129815
-0.0152755
-0.0165437
-0.0149268
0.00454347
0.0626537
0.194342
)
;

boundaryField
{
    movingWall
    {
        type            zeroGradient;
    }
    fixedWalls
    {
        type            zeroGradient;
    }
    frontAndBack
    {
        type            empty;
    }
}


// ************************************************************************* //
