/*--------------------------------*- C++ -*----------------------------------*\
  =========                 |
  \\      /  F ield         | OpenFOAM: The Open Source CFD Toolbox
   \\    /   O peration     | Website:  https://openfoam.org
    \\  /    A nd           | Version:  10
     \\/     M anipulation  |
\*---------------------------------------------------------------------------*/
FoamFile
{
    format      ascii;
    class       volVectorField;
    location    "3.3";
    object      U;
}
// * * * * * * * * * * * * * * * * * * * * * * * * * * * * * * * * * * * * * //

dimensions      [0 1 -1 0 0 0 0];

internalField   nonuniform List<vector> 
400
(
(-0.000165451 0.000162975 0)
(-0.000951578 0.000369624 0)
(-0.00211542 0.000404526 0)
(-0.00318615 0.000393581 0)
(-0.00420816 0.000370016 0)
(-0.00514843 0.000338532 0)
(-0.00598266 0.000298979 0)
(-0.00668928 0.000250695 0)
(-0.00724613 0.000193181 0)
(-0.00763109 0.000126247 0)
(-0.00782299 5.0178e-05 0)
(-0.00780213 -3.43226e-05 0)
(-0.00755219 -0.00012596 0)
(-0.00706275 -0.000221843 0)
(-0.00633124 -0.000318058 0)
(-0.00536505 -0.000409487 0)
(-0.00418786 -0.000488979 0)
(-0.00285697 -0.000542955 0)
(-0.00134377 -0.000524807 0)
(-0.000261925 -0.00026992 0)
(-0.000385101 0.000954797 0)
(-0.00177923 0.00172794 0)
(-0.00368769 0.00184419 0)
(-0.00545273 0.00177938 0)
(-0.00712295 0.00165515 0)
(-0.00864504 0.00149168 0)
(-0.00997858 0.00129126 0)
(-0.0110892 0.001054 0)
(-0.0119437 0.000780344 0)
(-0.0125104 0.000471492 0)
(-0.0127608 0.00012971 0)
(-0.0126698 -0.000241264 0)
(-0.0122174 -0.000632742 0)
(-0.0113923 -0.00103366 0)
(-0.0101955 -0.00142897 0)
(-0.00864213 -0.00179888 0)
(-0.00677143 -0.00211617 0)
(-0.00466631 -0.00232868 0)
(-0.00230094 -0.00226795 0)
(-0.000515913 -0.00133051 0)
(-0.000446132 0.00217977 0)
(-0.00202563 0.00367587 0)
(-0.00416653 0.00388415 0)
(-0.00614242 0.00373455 0)
(-0.00800915 0.00346017 0)
(-0.00970858 0.00310193 0)
(-0.0111969 0.00266665 0)
(-0.0124371 0.00215685 0)
(-0.0133934 0.0015752 0)
(-0.0140323 0.000925611 0)
(-0.0143231 0.000213876 0)
(-0.0142359 -0.000551182 0)
(-0.0137464 -0.00135406 0)
(-0.0128413 -0.00217266 0)
(-0.0115178 -0.0029769 0)
(-0.00978812 -0.00372773 0)
(-0.00769164 -0.00437149 0)
(-0.00531879 -0.00480492 0)
(-0.00263856 -0.00470432 0)
(-0.000598621 -0.00289986 0)
(-0.000472442 0.00341078 0)
(-0.00215405 0.00565614 0)
(-0.00443514 0.00595681 0)
(-0.00653809 0.00572072 0)
(-0.00852755 0.00529671 0)
(-0.0103434 0.0047459 0)
(-0.0119411 0.00407901 0)
(-0.0132829 0.00330034 0)
(-0.0143318 0.00241407 0)
(-0.0150523 0.00142573 0)
(-0.0154107 0.000343724 0)
(-0.0153728 -0.000818607 0)
(-0.0149069 -0.00204226 0)
(-0.0139895 -0.00329581 0)
(-0.0126084 -0.00453496 0)
(-0.0107672 -0.0057001 0)
(-0.00849945 -0.00670755 0)
(-0.00590104 -0.00739614 0)
(-0.00293543 -0.00727062 0)
(-0.000666155 -0.00454331 0)
(-0.000501164 0.00472261 0)
(-0.00229732 0.00777022 0)
(-0.00473906 0.00816942 0)
(-0.00698985 0.00784331 0)
(-0.009124 0.00726428 0)
(-0.0110796 0.00651488 0)
(-0.0128119 0.00560982 0)
(-0.014283 0.00455493 0)
(-0.0154552 0.00335512 0)
(-0.0162907 0.00201625 0)
(-0.0167513 0.000547086 0)
(-0.0167968 -0.00103769 0)
(-0.0163855 -0.00271569 0)
(-0.0154797 -0.00444889 0)
(-0.0140506 -0.00618042 0)
(-0.0120849 -0.00782856 0)
(-0.00960326 -0.00927288 0)
(-0.00670643 -0.0102798 0)
(-0.00335205 -0.0101518 0)
(-0.00076301 -0.00639665 0)
(-0.000538966 0.00613075 0)
(-0.00248216 0.0100478 0)
(-0.00512898 0.0105542 0)
(-0.00756854 0.0101343 0)
(-0.00988696 0.00939467 0)
(-0.0120204 0.00844095 0)
(-0.0139246 0.00729216 0)
(-0.0155622 0.00595524 0)
(-0.0168954 0.00443483 0)
(-0.0178849 0.00273538 0)
(-0.018488 0.00086335 0)
(-0.0186574 -0.00116917 0)
(-0.0183379 -0.00334148 0)
(-0.0174719 -0.00561229 0)
(-0.0160064 -0.00791461 0)
(-0.0138999 -0.0101442 0)
(-0.0111478 -0.0121358 0)
(-0.0078501 -0.0135612 0)
(-0.00395484 -0.0134725 0)
(-0.000907248 -0.00854959 0)
(-0.000587071 0.00766025 0)
(-0.00271481 0.0125292 0)
(-0.00561713 0.0131528 0)
(-0.00829018 0.0126337 0)
(-0.0108351 0.0117261 0)
(-0.0131862 0.0105611 0)
(-0.0153006 0.00916283 0)
(-0.0171433 0.00753894 0)
(-0.018678 0.00569273 0)
(-0.0198649 0.00362493 0)
(-0.0206583 0.0013362 0)
(-0.0210039 -0.00116868 0)
(-0.0208307 -0.00387783 0)
(-0.0200551 -0.00675427 0)
(-0.0185891 -0.00972785 0)
(-0.0163459 -0.0126744 0)
(-0.0132744 -0.015376 0)
(-0.00945747 -0.0173783 0)
(-0.00482428 -0.0174054 0)
(-0.0011232 -0.0111355 0)
(-0.000646269 0.00934071 0)
(-0.00299962 0.0152623 0)
(-0.0062119 0.0160132 0)
(-0.00916463 0.0153861 0)
(-0.0119783 0.0142997 0)
(-0.0145857 0.0129145 0)
(-0.0169474 0.0112603 0)
(-0.0190328 0.0093459 0)
(-0.0208099 0.00717223 0)
(-0.0222418 0.00473386 0)
(-0.0232818 0.00202135 0)
(-0.0238716 -0.00097422 0)
(-0.0239237 -0.00426002 0)
(-0.0233229 -0.00781556 0)
(-0.0219338 -0.0115818 0)
(-0.0196008 -0.0154254 0)
(-0.0161885 -0.0190726 0)
(-0.0117242 -0.0219032 0)
(-0.00609968 -0.0221869 0)
(-0.0014585 -0.0143556 0)
(-0.000718087 0.0112046 0)
(-0.00334316 0.018299 0)
(-0.00692483 0.0191857 0)
(-0.0102047 0.0184362 0)
(-0.0133282 0.0171554 0)
(-0.0162277 0.0155377 0)
(-0.0188697 0.0136205 0)
(-0.0212318 0.0114145 0)
(-0.0232904 0.00891777 0)
(-0.025016 0.00611655 0)
(-0.0263665 0.00298634 0)
(-0.0272853 -0.00050543 0)
(-0.0276722 -0.00438989 0)
(-0.027378 -0.00869092 0)
(-0.0262088 -0.0133843 0)
(-0.0239088 -0.0183531 0)
(-0.0202018 -0.0232798 0)
(-0.0149731 -0.0273403 0)
(-0.00804294 -0.0281431 0)
(-0.00201479 -0.0185351 0)
(-0.000805578 0.0132893 0)
(-0.00375643 0.0216974 0)
(-0.00777385 0.0227234 0)
(-0.0114293 0.0218285 0)
(-0.0149013 0.0203302 0)
(-0.0181231 0.0184626 0)
(-0.0210713 0.0162739 0)
(-0.0237361 0.0137781 0)
(-0.0261084 0.0109713 0)
(-0.0281737 0.00783007 0)
(-0.0299042 0.00431084 0)
(-0.0312479 0.000349519 0)
(-0.0321095 -0.00412492 0)
(-0.0323189 -0.00920868 0)
(-0.03161 -0.0149544 0)
(-0.0295974 -0.0213163 0)
(-0.0257872 -0.027981 0)
(-0.0197537 -0.0339043 0)
(-0.0111808 -0.0357284 0)
(-0.0030232 -0.0242484 0)
(-0.000914736 0.0156415 0)
(-0.0042582 0.0255253 0)
(-0.00878732 0.026684 0)
(-0.0128673 0.0256063 0)
(-0.0167214 0.0238558 0)
(-0.0202868 0.0217133 0)
(-0.0235551 0.0192413 0)
(-0.0265352 0.0164602 0)
(-0.0292393 0.0133658 0)
(-0.0316773 0.00992696 0)
(-0.0338479 0.00608012 0)
(-0.0357216 0.00172579 0)
(-0.0372314 -0.00327364 0)
(-0.0382106 -0.00910703 0)
(-0.0383379 -0.0159712 0)
(-0.0370835 -0.0239922 0)
(-0.0336522 -0.032985 0)
(-0.0270298 -0.0417317 0)
(-0.0166402 -0.0455456 0)
(-0.00503657 -0.0325994 0)
(-0.00105752 0.0183244 0)
(-0.00488102 0.0298645 0)
(-0.0100105 0.0311294 0)
(-0.0145629 0.02981 0)
(-0.0188241 0.0277556 0)
(-0.0227407 0.0253015 0)
(-0.0263257 0.0225282 0)
(-0.0296127 0.0194665 0)
(-0.0326429 0.0161161 0)
(-0.0354607 0.0124428 0)
(-0.0381068 0.00836884 0)
(-0.0406036 0.0037603 0)
(-0.0429451 -0.00159575 0)
(-0.0450236 -0.00800875 0)
(-0.0465329 -0.0159061 0)
(-0.0468455 -0.0257361 0)
(-0.044819 -0.0377021 0)
(-0.0385071 -0.0506038 0)
(-0.0268683 -0.0581753 0)
(-0.00942735 -0.0460157 0)
(-0.00125954 0.0214322 0)
(-0.00568381 0.0348244 0)
(-0.0115153 0.0361266 0)
(-0.0165824 0.0344728 0)
(-0.0212619 0.0320397 0)
(-0.0255176 0.0292211 0)
(-0.0293918 0.0261185 0)
(-0.0329489 0.0227767 0)
(-0.0362646 0.0192055 0)
(-0.0394263 0.0153766 0)
(-0.0425323 0.0112103 0)
(-0.0456891 0.00654874 0)
(-0.0490056 0.00111734 0)
(-0.0525366 -0.00550659 0)
(-0.0561397 -0.0139989 0)
(-0.0592888 -0.0253745 0)
(-0.0606079 -0.0406857 0)
(-0.0569624 -0.0592913 0)
(-0.0467545 -0.0738624 0)
(-0.0194253 -0.0693316 0)
(-0.00157183 0.0250522 0)
(-0.00678336 0.040525 0)
(-0.0134257 0.0417625 0)
(-0.0190257 0.039647 0)
(-0.024109 0.0367178 0)
(-0.0286656 0.0334477 0)
(-0.0327719 0.029967 0)
(-0.0365271 0.0263345 0)
(-0.0400439 0.0225735 0)
(-0.0434567 0.0186746 0)
(-0.0469355 0.0145888 0)
(-0.0506983 0.0101978 0)
(-0.0550055 0.00524677 0)
(-0.0601646 -0.00078612 0)
(-0.0665393 -0.008887 0)
(-0.0742572 -0.0206867 0)
(-0.0821013 -0.0386898 0)
(-0.0856773 -0.0645995 0)
(-0.0817109 -0.0918811 0)
(-0.037464 -0.111939 0)
(-0.0020154 0.029828 0)
(-0.00818183 0.0468784 0)
(-0.0158539 0.0476883 0)
(-0.0220273 0.0448299 0)
(-0.0274931 0.0413801 0)
(-0.0322711 0.0377114 0)
(-0.0365043 0.0339062 0)
(-0.0403381 0.030016 0)
(-0.0439142 0.0260917 0)
(-0.0473914 0.0221709 0)
(-0.0509757 0.0182687 0)
(-0.0549794 0.014342 0)
(-0.0599144 0.0102476 0)
(-0.0665788 0.0055557 0)
(-0.0760473 -0.000722626 0)
(-0.0897733 -0.0106916 0)
(-0.107797 -0.0283987 0)
(-0.122344 -0.0619356 0)
(-0.126122 -0.113177 0)
(-0.0513114 -0.189192 0)
(-0.00382737 0.0340676 0)
(-0.0118481 0.0561306 0)
(-0.0194681 0.056323 0)
(-0.0257942 0.0528107 0)
(-0.031273 0.048189 0)
(-0.0361435 0.0433818 0)
(-0.040443 0.0386491 0)
(-0.0442757 0.0341072 0)
(-0.047766 0.0298236 0)
(-0.0510854 0.0258505 0)
(-0.0544843 0.0222917 0)
(-0.0583328 0.0192705 0)
(-0.0632592 0.0169833 0)
(-0.0703562 0.0154928 0)
(-0.0814707 0.0143445 0)
(-0.0989234 0.0109054 0)
(-0.124013 -0.00232218 0)
(-0.142913 -0.0525038 0)
(-0.150617 -0.152719 0)
(-0.0363761 -0.303063 0)
(-0.00186204 0.0482479 0)
(-0.010659 0.05981 0)
(-0.0232641 0.0584617 0)
(-0.030345 0.0532771 0)
(-0.0367695 0.0488355 0)
(-0.0415578 0.0444856 0)
(-0.0452913 0.0402129 0)
(-0.0483006 0.0360027 0)
(-0.0508226 0.0319466 0)
(-0.0530136 0.0281335 0)
(-0.0550411 0.0248385 0)
(-0.057124 0.0223284 0)
(-0.0597556 0.0213064 0)
(-0.0638475 0.0223587 0)
(-0.071261 0.0260923 0)
(-0.0834612 0.0278046 0)
(-0.109018 0.0171956 0)
(-0.118946 -0.054278 0)
(-0.129593 -0.210107 0)
(-0.00347057 -0.404773 0)
(-0.0110343 0.039649 0)
(-0.0269388 0.0840585 0)
(-0.0288648 0.0794319 0)
(-0.0371273 0.0728207 0)
(-0.0408367 0.064406 0)
(-0.0430764 0.0563367 0)
(-0.0438777 0.049001 0)
(-0.0438445 0.0424603 0)
(-0.043308 0.0367601 0)
(-0.0423755 0.0318013 0)
(-0.0413671 0.0278857 0)
(-0.0400985 0.0253392 0)
(-0.0390377 0.0251078 0)
(-0.0372991 0.0284819 0)
(-0.0371197 0.0372779 0)
(-0.0302214 0.0441973 0)
(-0.0368702 0.041036 0)
(-0.0131471 -0.0440787 0)
(-0.0428852 -0.247424 0)
(0.0330843 -0.453137 0)
(-0.0744625 0.102646 0)
(-0.0586378 0.065384 0)
(-0.0591829 0.0625629 0)
(-0.0396176 0.054872 0)
(-0.0232114 0.0469322 0)
(-0.00588546 0.040471 0)
(0.0100618 0.0352224 0)
(0.0247769 0.0305802 0)
(0.0375768 0.0266846 0)
(0.0495507 0.0229146 0)
(0.0594021 0.0202853 0)
(0.0696111 0.017779 0)
(0.0777923 0.0173611 0)
(0.0908192 0.0171916 0)
(0.0970638 0.0193922 0)
(0.133949 0.0171748 0)
(0.12835 -0.00037571 0)
(0.18827 -0.0578132 0)
(0.126518 -0.250322 0)
(0.113666 -0.432829 0)
(0.121267 0.14085 0)
(0.156803 0.0876731 0)
(0.237123 0.0653809 0)
(0.293294 0.0500894 0)
(0.33742 0.0392886 0)
(0.374814 0.0312535 0)
(0.405327 0.0253583 0)
(0.43323 0.0205897 0)
(0.453249 0.0169911 0)
(0.47628 0.0140447 0)
(0.486494 0.0112292 0)
(0.509258 0.0101794 0)
(0.509467 0.00709544 0)
(0.537209 0.00821672 0)
(0.52562 0.00458663 0)
(0.561761 0.00338487 0)
(0.529161 -0.00379331 0)
(0.551404 -0.0308816 0)
(0.420708 -0.0724116 0)
(0.275906 -0.150583 0)
)
;

boundaryField
{
    movingWall
    {
        type            fixedValue;
        value           uniform (1 0 0);
    }
    fixedWalls
    {
        type            noSlip;
    }
    frontAndBack
    {
        type            empty;
    }
}


// ************************************************************************* //
