/*--------------------------------*- C++ -*----------------------------------*\
  =========                 |
  \\      /  F ield         | OpenFOAM: The Open Source CFD Toolbox
   \\    /   O peration     | Website:  https://openfoam.org
    \\  /    A nd           | Version:  10
     \\/     M anipulation  |
\*---------------------------------------------------------------------------*/
FoamFile
{
    format      ascii;
    class       volVectorField;
    location    "9.05";
    object      U;
}
// * * * * * * * * * * * * * * * * * * * * * * * * * * * * * * * * * * * * * //

dimensions      [0 1 -1 0 0 0 0];

internalField   nonuniform List<vector> 
496
(
(9.94807 0.0743958 0)
(9.95153 -0.174356 0)
(10.2055 -0.106084 0)
(10.7896 -0.219979 0)
(10.0455 0.509874 0)
(9.81582 -1.27799 0)
(10.2283 -0.295857 0)
(10.8249 -1.13762 0)
(10.8379 1.37594 0)
(9.08648 -2.99275 0)
(11.2506 -0.144563 0)
(10.7537 -4.14775 0)
(11.949 1.64883 0)
(8.24708 -2.76488 0)
(12.7501 0.962715 0)
(10.2767 -6.73477 0)
(11.4488 -0.216578 2.94148e-18)
(12.1685 -0.183304 -3.71586e-19)
(11.6385 -0.414705 -8.62103e-19)
(12.4751 0.227465 2.05249e-18)
(13.0586 -2.11885 -2.08285e-18)
(13.1687 -0.45813 -1.68056e-18)
(13.093 -5.22247 -3.6591e-17)
(15.7085 -4.58658 6.59731e-17)
(12.7091 -0.183913 0)
(12.9848 -0.162428 0)
(13.1526 -0.0905464 0)
(13.1409 0.0240415 0)
(13.0578 0.161529 0)
(13.4405 -0.152997 0)
(13.7151 -0.57074 0)
(13.788 -0.719945 0)
(12.6373 0.78417 0)
(12.6922 1.20338 0)
(12.9473 0.852631 0)
(13.2104 0.40973 0)
(10.862 -2.47114 0)
(9.99358 -1.69824 0)
(7.90658 -2.25952 0)
(8.08849 -0.708262 0)
(13.213 0.124342 0)
(13.1899 0.241933 0)
(13.2516 0.316126 0)
(13.2117 0.394832 0)
(13.2231 0.408678 0)
(13.1125 0.410289 0)
(13.038 0.420313 0)
(12.8697 0.395429 0)
(12.7404 0.408952 0)
(12.5577 0.395653 0)
(12.4121 0.406806 0)
(12.1441 0.360367 0)
(11.9684 0.365982 0)
(11.7393 0.337126 0)
(11.6989 0.273489 0)
(11.5967 0.202515 0)
(11.7243 0.129307 0)
(11.7627 0.115284 0)
(11.9157 0.112079 0)
(11.885 0.160821 0)
(11.8867 0.216477 0)
(11.6126 0.234544 0)
(11.3125 0.313854 0)
(10.7591 0.34481 0)
(10.487 0.414478 0)
(9.99677 0.361692 0)
(10.0401 0.234783 0)
(9.87018 0.163716 0)
(10.3096 -0.0199304 0)
(10.4884 0.00820607 0)
(10.9719 -0.107319 0)
(11.2887 0.0399268 0)
(11.4963 0.0393274 0)
(11.8005 0.223437 0)
(11.5221 0.265971 0)
(11.4791 0.370946 0)
(10.6756 0.487079 0)
(10.3877 0.467201 0)
(9.71378 0.573972 0)
(9.57555 0.291917 0)
(13.8743 -0.740104 0)
(13.8828 -0.539657 0)
(13.9181 -0.409504 0)
(13.8749 -0.268178 0)
(13.8315 -0.203333 0)
(13.7773 -0.15613 0)
(13.7045 -0.103386 0)
(13.6053 -0.132885 0)
(13.52 -0.051078 0)
(13.4001 -0.020513 0)
(13.2572 0.0548176 0)
(13.0528 0.0216973 0)
(12.9216 3.38901e-05 0)
(12.6876 -0.026183 0)
(12.6258 -0.155698 0)
(12.5286 -0.18305 0)
(12.712 -0.321694 0)
(12.7689 -0.30038 0)
(13.0335 -0.236618 0)
(13.0624 -0.0729322 0)
(13.188 0.218866 0)
(12.9732 0.344732 0)
(12.8468 0.513977 0)
(12.4057 0.323101 0)
(12.1373 0.228378 0)
(11.6652 0.0093143 0)
(11.5249 -0.20955 0)
(11.4662 -0.264414 0)
(11.6277 -0.607098 0)
(11.9334 -0.546616 0)
(12.1889 -0.777534 0)
(12.6222 -0.620335 0)
(12.8023 -0.507971 0)
(13.2807 -0.213598 0)
(13.197 0.206666 0)
(13.4107 0.419235 0)
(12.9315 0.568672 0)
(12.8018 0.334773 0)
(12.236 0.097292 0)
(11.8467 -0.154775 0)
(13.6156 0.228361 0)
(13.7878 0.321884 0)
(13.9213 0.317696 0)
(13.6442 0.305098 0)
(13.7892 0.334773 0)
(13.565 0.430157 0)
(13.64 0.453415 0)
(13.4266 0.413081 0)
(13.6068 0.512187 0)
(13.5029 0.605939 0)
(13.4742 0.717223 0)
(13.2546 0.760603 0)
(13.1172 0.799946 0)
(12.8898 0.633926 0)
(12.7673 0.372864 0)
(12.6205 0.0391196 0)
(12.6002 -0.235013 0)
(12.5919 -0.375166 0)
(12.8127 -0.330462 0)
(12.9197 -0.163711 0)
(13.2988 0.255317 0)
(13.4188 0.642823 0)
(13.3886 1.14884 0)
(13.1533 1.38695 0)
(12.7369 1.43526 0)
(12.7046 1.1095 0)
(12.246 0.369573 0)
(12.3834 -0.120233 0)
(11.6736 -0.718469 0)
(11.8463 -0.614562 0)
(11.3419 -0.862767 0)
(11.6058 -0.649972 0)
(11.7784 -0.702368 0)
(12.1887 -0.318827 0)
(12.9598 0.108712 0)
(13.2351 0.695447 0)
(13.5757 1.30554 0)
(13.2193 1.48677 0)
(13.1499 1.78247 0)
(13.0386 0.688143 0)
(8.61486 -0.155056 0)
(9.56918 -0.0918755 0)
(9.49064 -0.475293 0)
(8.73985 -0.284346 0)
(9.45819 -0.0595534 0)
(9.52761 -0.27104 0)
(9.06286 -0.137292 0)
(9.31693 -0.0503324 0)
(9.62372 0.0840897 0)
(10.0392 0.0817488 0)
(10.2297 0.0791719 0)
(10.3455 0.198245 0)
(10.4686 0.276345 0)
(9.84637 0.321305 0)
(9.66975 0.367824 0)
(8.83195 0.28597 0)
(8.48906 0.150214 0)
(8.26728 -0.107274 0)
(8.30205 -0.362337 0)
(8.76802 -0.506276 0)
(9.26575 -0.373625 0)
(10.2387 -0.09226 0)
(10.7566 0.175498 0)
(11.417 0.463382 0)
(11.5963 0.492419 0)
(11.2799 0.528057 0)
(10.1747 0.571543 0)
(9.0542 0.678752 0)
(7.36945 0.598716 0)
(7.26057 0.253416 0)
(6.07022 -0.333273 0)
(7.25656 -0.825406 0)
(6.87421 -1.26103 0)
(8.43424 -1.26238 0)
(9.13428 -0.891786 0)
(10.161 -0.485978 0)
(11.4522 0.166317 0)
(11.5451 0.332113 0)
(12.7023 0.176532 0)
(11.2264 0.115949 0)
(12.3969 0.544337 -1.06118e-17)
(7.81944 -0.764747 -1.78946e-17)
(11.6914 -0.118757 3.13096e-17)
(4.82002 -4.602 -8.44981e-17)
(11.7894 -0.622261 1.06406e-17)
(8.4771 0.844106 1.80706e-17)
(10.9344 -0.0299787 -3.15219e-17)
(5.41203 4.61224 8.50505e-17)
(-9.89397 1.96311 0)
(12.4963 5.89308 0)
(-10.1645 0.754335 0)
(5.9526 -3.56701 0)
(4.33096 -4.78852 3.49664e-17)
(-3.56568 1.32127 0)
(6.61468 -0.612694 0)
(-1.93128 -2.26238 0)
(-0.239637 0.203723 0)
(0.629339 1.6183 0)
(-0.818856 -1.2091 0)
(0.503829 0.000384778 0)
(1.4385 1.21235 0)
(-1.50182 0.451509 0)
(-0.081159 -0.181374 0)
(1.20801 -0.0566334 0)
(1.25899 0.192993 0)
(1.28377 0.726942 0)
(1.24795 0.645801 0)
(1.1561 0.578231 0)
(1.39486 0.803825 0)
(1.78285 1.09819 0)
(1.61155 1.04786 0)
(1.6845 0.530926 0)
(1.83579 -0.0277354 0)
(2.4964 -0.341204 0)
(2.44813 -0.872318 0)
(2.99181 -1.10503 0)
(3.82991 -0.805929 0)
(4.24206 -0.401484 0)
(4.54284 0.053385 0)
(4.87273 0.645364 0)
(4.86183 1.26578 0)
(4.59793 1.62141 0)
(4.22868 1.64939 0)
(4.02939 1.40928 0)
(3.97956 0.604887 0)
(4.16762 -0.158019 0)
(4.33276 -0.991886 0)
(4.616 -1.62465 0)
(4.54091 -2.11365 0)
(5.49862 -2.13684 0)
(5.58017 -1.79242 0)
(6.29795 -1.14451 0)
(6.78639 -0.194342 0)
(6.47644 0.507201 0)
(6.67424 1.52576 0)
(5.37309 1.28427 0)
(-2.90559 2.21927 0)
(2.38636 -0.737017 0)
(-1.67349 -0.228625 0)
(0.198247 -0.943468 0)
(-1.36348 0.611789 0)
(0.886016 0.0984815 0)
(0.493217 -1.708 0)
(0.496147 -1.04866 0)
(-0.471947 -0.0909241 0)
(0.911651 -0.220875 0)
(1.23653 -0.230796 0)
(1.65242 -0.0194052 0)
(1.64519 0.181018 0)
(2.0592 0.332027 0)
(2.64801 0.268382 0)
(3.14992 0.0348602 0)
(3.18282 -0.452405 0)
(3.73769 -0.993008 0)
(3.5457 -1.22807 0)
(3.15635 -1.40169 0)
(3.31661 -1.3951 0)
(3.23816 -0.900748 0)
(3.19676 -0.149296 0)
(3.61727 0.6221 0)
(3.91839 1.17533 0)
(4.50875 1.56094 0)
(5.00435 1.55975 0)
(5.60493 1.31341 0)
(6.39445 0.763967 0)
(6.69872 0.0886695 0)
(7.15505 -0.561498 0)
(6.80945 -1.11859 0)
(6.49226 -1.53236 0)
(5.5902 -1.91459 0)
(5.43254 -1.67705 0)
(4.74462 -0.947681 0)
(5.07972 0.179273 0)
(4.9354 0.809856 0)
(4.99767 2.05291 0)
(5.35549 1.67054 0)
(12.6244 -1.5531 0)
(7.56813 2.57947 0)
(13.6177 -0.800036 0)
(9.55179 6.50846 0)
(11.0288 -1.41335 0)
(8.80171 2.98369 0)
(11.353 -0.0356198 0)
(10.4366 4.19853 0)
(10.1235 -0.513607 0)
(9.72154 1.3079 0)
(10.3364 0.303945 0)
(10.7306 1.17208 0)
(9.97568 -0.0901065 0)
(9.91945 0.20043 0)
(10.2129 0.122872 0)
(10.765 0.202235 0)
(13.9937 5.28924 3.41042e-17)
(14.957 4.4132 -6.46244e-17)
(12.9538 1.89154 0)
(12.7201 0.559766 0)
(11.6744 0.436073 0)
(12.3857 -0.15318 0)
(11.444 0.227675 0)
(12.1549 0.161339 0)
(12.3098 2.6637 0)
(10.6905 2.04877 0)
(8.46484 0.97509 0)
(11.4903 1.13524 0)
(12.2867 -1.12281 0)
(12.3418 -0.94732 0)
(12.6969 -0.482851 0)
(13.1515 -0.337921 0)
(12.9766 -0.086992 0)
(13.3641 0.268758 0)
(13.6037 0.569463 0)
(13.6917 0.702832 0)
(12.6842 0.175472 0)
(12.9767 0.130556 0)
(13.1577 0.0479853 0)
(13.1951 0.00785683 0)
(9.6209 0.623868 0)
(10.6466 0.283941 0)
(10.1115 0.590459 0)
(10.5748 0.308303 0)
(10.212 0.390039 0)
(9.79809 -0.00584394 0)
(10.2572 -0.149666 0)
(10.3688 -0.182628 0)
(10.0025 -0.182902 0)
(9.8754 -0.129111 0)
(9.40185 -0.00536078 0)
(9.82406 0.0816741 0)
(9.60873 0.183757 0)
(10.0811 0.285448 0)
(10.1829 0.275085 0)
(10.7732 0.0886664 0)
(11.2272 -0.116012 0)
(11.636 -0.311807 0)
(11.7586 -0.421311 0)
(11.3808 -0.455972 0)
(10.7087 -0.416216 0)
(9.74584 -0.406456 0)
(9.08133 -0.204682 0)
(8.26274 0.181865 0)
(8.53895 0.522562 0)
(8.23338 0.817064 0)
(9.55781 0.651012 0)
(9.5435 0.52627 0)
(11.0892 -0.135278 0)
(11.2695 -0.479145 0)
(12.4109 -0.985194 0)
(12.7216 -0.925782 0)
(12.7315 -0.830362 0)
(12.1188 -0.616926 0)
(10.0687 -0.667771 0)
(9.02319 -0.692456 0)
(7.07253 0.0634991 0)
(7.39186 0.206672 0)
(6.47852 1.36118 0)
(7.60385 1.09008 0)
(13.4638 -0.280745 0)
(13.5874 -0.293188 0)
(13.6633 -0.346678 0)
(13.6173 -0.457222 0)
(13.4745 -0.554497 0)
(13.4439 -0.545672 0)
(13.3013 -0.620836 0)
(13.2989 -0.646547 0)
(13.1235 -0.531821 0)
(13.2083 -0.472544 0)
(12.9649 -0.167982 0)
(13.0545 -0.138803 0)
(13.0759 -0.0843452 0)
(13.2608 -0.229671 0)
(13.3036 -0.411699 0)
(13.3416 -0.698994 0)
(13.1413 -1.04062 0)
(12.8597 -1.29171 0)
(12.4091 -1.30443 0)
(12.2836 -1.10358 0)
(11.9458 -0.48334 0)
(11.8915 -0.00500767 0)
(11.694 0.496752 0)
(11.7953 0.638646 0)
(12.0394 0.60871 0)
(12.1603 0.577447 0)
(12.8301 0.0571044 0)
(12.8357 -0.132135 0)
(13.5644 -0.933772 0)
(12.9766 -1.1662 0)
(13.1702 -1.77774 0)
(12.0403 -1.73035 0)
(11.9578 -1.31523 0)
(11.3379 -0.485622 0)
(10.9906 0.548884 0)
(10.9549 0.80155 0)
(10.2702 1.24549 0)
(10.7338 0.816724 0)
(10.2223 1.22199 0)
(11.0544 0.690958 0)
(13.8523 0.603852 0)
(13.8782 0.514337 0)
(13.9384 0.334723 0)
(13.8487 0.251526 0)
(13.8203 0.180436 0)
(13.6482 0.187977 0)
(13.5845 0.166185 0)
(13.3902 0.161362 0)
(13.3363 0.220234 0)
(13.2442 0.166686 0)
(13.2546 0.231635 0)
(13.2058 0.259982 0)
(13.3064 0.256966 0)
(13.3357 0.17882 0)
(13.3104 0.022495 0)
(13.1618 -0.0536233 0)
(12.9812 -0.156708 0)
(12.7717 -0.084975 0)
(12.4287 0.0442055 0)
(12.1743 0.149559 0)
(11.8834 0.3044 0)
(11.9646 0.339142 0)
(11.994 0.564974 0)
(12.3261 0.530621 0)
(12.5556 0.543866 0)
(12.8716 0.358665 0)
(13.0835 0.0887365 0)
(13.009 -0.182331 0)
(12.9462 -0.527488 0)
(12.472 -0.46047 0)
(12.3535 -0.481625 0)
(11.6471 -0.0949001 0)
(11.4269 0.00450013 0)
(10.8891 0.345748 0)
(11.0212 0.600716 0)
(11.0953 0.729072 0)
(11.4971 1.03157 0)
(11.9626 0.773377 0)
(12.1962 1.04455 0)
(12.8963 0.563217 0)
(13.2825 -0.124177 0)
(13.2846 -0.187762 0)
(13.3447 -0.316905 0)
(13.2714 -0.347759 0)
(13.2483 -0.403395 0)
(13.0275 -0.410791 0)
(12.9477 -0.418936 0)
(12.7126 -0.442613 0)
(12.6566 -0.381822 0)
(12.4923 -0.41797 0)
(12.5562 -0.351433 0)
(12.4328 -0.343285 0)
(12.4838 -0.298233 0)
(12.3586 -0.347439 0)
(12.3641 -0.39976 0)
(12.0893 -0.407922 0)
(11.9083 -0.475631 0)
(11.5138 -0.501001 0)
(11.2741 -0.539151 0)
(10.9164 -0.505771 0)
(10.8376 -0.387403 0)
(10.7981 -0.320018 0)
(10.9859 -0.171374 0)
(11.2408 -0.173206 0)
(11.4824 -0.1191 0)
(11.7461 -0.167668 0)
(11.6701 -0.26045 0)
(11.6282 -0.310876 0)
(11.1858 -0.48242 0)
(10.7775 -0.452183 0)
(10.2806 -0.638993 0)
(9.69418 -0.508105 0)
(9.58753 -0.470986 0)
(9.11349 -0.232965 0)
(9.69909 -0.0456565 0)
(9.61906 0.0567555 0)
(10.58 0.18879 0)
(10.8436 0.0974824 0)
(11.4965 0.160478 0)
(11.9971 -0.0620992 0)
)
;

boundaryField
{
    inlet
    {
        type            fixedValue;
        value           uniform (10 0 0);
    }
    outlet
    {
        type            zeroGradient;
    }
    obstacle
    {
        type            noSlip;
    }
    upperWall
    {
        type            noSlip;
    }
    lowerWall
    {
        type            noSlip;
    }
    frontAndBack
    {
        type            empty;
    }
}


// ************************************************************************* //
