/*--------------------------------*- C++ -*----------------------------------*\
  =========                 |
  \\      /  F ield         | OpenFOAM: The Open Source CFD Toolbox
   \\    /   O peration     | Website:  https://openfoam.org
    \\  /    A nd           | Version:  10
     \\/     M anipulation  |
\*---------------------------------------------------------------------------*/
FoamFile
{
    format      ascii;
    class       volVectorField;
    location    "4.15";
    object      U;
}
// * * * * * * * * * * * * * * * * * * * * * * * * * * * * * * * * * * * * * //

dimensions      [0 1 -1 0 0 0 0];

internalField   nonuniform List<vector> 
475
(
(0.972311 0.016921 0)
(0.977248 0.00521362 0)
(0.949044 0.0322482 0)
(0.955613 -0.000112242 0)
(0.919703 0.0302718 0)
(0.99785 0.00890237 0)
(1.01492 0.0142511 0)
(1.02597 0.0149612 0)
(1.04356 0.0091799 0)
(1.05573 -3.58696e-05 0)
(0.99982 0.00024433 0)
(1.01009 -0.00317652 0)
(1.02378 -0.00471963 0)
(1.04129 -0.00851137 0)
(1.05704 -0.0167934 0)
(1.00001 -0.0101477 0)
(1.0103 -0.0196265 0)
(1.0218 -0.0219031 0)
(1.03636 -0.0227947 0)
(1.04463 -0.0272653 0)
(0.980832 -0.00959977 0)
(0.969086 -0.0192093 0)
(0.953274 -0.0216061 0)
(0.934152 -0.0225057 0)
(0.906516 -0.0236865 0)
(0.927216 -0.0183512 0)
(0.936271 -0.0340106 0)
(0.943292 -0.0447328 0)
(0.950444 -0.0486611 0)
(0.970445 -0.062286 0)
(0.998599 -0.0896824 0)
(1.02912 -0.1172 0)
(1.05682 -0.159841 0)
(1.07887 -0.208233 0)
(1.09573 -0.247483 0)
(1.09362 -0.285627 0)
(1.08244 -0.311075 0)
(1.05736 -0.322257 0)
(1.01659 -0.318557 0)
(0.971061 -0.28408 0)
(0.908365 -0.237558 0)
(0.847406 -0.188648 0)
(0.793697 -0.121453 0)
(0.71981 -0.0469047 0)
(0.636102 0.00782978 0)
(0.572066 0.0383151 0)
(0.538509 0.0587356 0)
(0.531212 0.0776676 0)
(0.540906 0.0924918 0)
(0.557787 0.0981609 0)
(0.574496 0.0934601 0)
(0.58737 0.0811319 0)
(0.595767 0.0652508 0)
(0.600586 0.0492206 0)
(0.603082 0.0351204 0)
(0.604288 0.0238336 0)
(0.604863 0.0154283 0)
(0.605158 0.00952834 0)
(0.605334 0.0055933 0)
(0.605454 0.00308735 0)
(0.605539 0.00156159 0)
(0.605599 0.00067697 0)
(0.605641 0.000189371 0)
(0.60567 -5.4503e-05 0)
(0.605683 -0.000160554 0)
(0.605686 -0.000186031 0)
(0.605684 -0.00018118 0)
(0.60568 -0.00014741 0)
(0.605677 -0.000127902 0)
(0.605671 -7.83577e-05 0)
(1.06898 -0.00992924 0)
(1.07966 -0.0212465 0)
(1.08464 -0.0388352 0)
(1.08897 -0.0483848 0)
(1.09696 -0.063241 0)
(1.09939 -0.0912716 0)
(1.1056 -0.119887 0)
(1.10573 -0.162026 0)
(1.094 -0.204405 0)
(1.07787 -0.239615 0)
(1.04273 -0.274981 0)
(1.00395 -0.288545 0)
(0.956895 -0.2829 0)
(0.888369 -0.268203 0)
(0.820304 -0.223139 0)
(0.744746 -0.163815 0)
(0.662991 -0.10545 0)
(0.591193 -0.0269632 0)
(0.521078 0.0538318 0)
(0.461011 0.0928956 0)
(0.42649 0.0884452 0)
(0.416219 0.0715064 0)
(0.424137 0.0629512 0)
(0.44522 0.0632398 0)
(0.473186 0.0648591 0)
(0.501975 0.0626061 0)
(0.527704 0.0556778 0)
(0.548728 0.0457711 0)
(0.564878 0.0350714 0)
(0.576729 0.0252318 0)
(0.585117 0.0171266 0)
(0.590881 0.010986 0)
(0.594739 0.00664169 0)
(0.597259 0.00374739 0)
(0.598867 0.00192269 0)
(0.599867 0.000838687 0)
(0.60047 0.000236419 0)
(0.600818 -6.52682e-05 0)
(0.601015 -0.000195169 0)
(0.601121 -0.000235379 0)
(0.601173 -0.000223416 0)
(0.601193 -0.00019715 0)
(0.601196 -0.000152356 0)
(0.601194 -0.00012708 0)
(0.601183 -7.64056e-05 0)
(1.06725 -0.0233131 0)
(1.0791 -0.0321519 0)
(1.08097 -0.0494335 0)
(1.08093 -0.0604174 0)
(1.08162 -0.076013 0)
(1.07191 -0.0982936 0)
(1.06764 -0.121427 0)
(1.0513 -0.153372 0)
(1.02598 -0.185768 0)
(0.996829 -0.218163 0)
(0.949543 -0.241006 0)
(0.901892 -0.240066 0)
(0.841913 -0.2224 0)
(0.75632 -0.20009 0)
(0.673016 -0.1592 0)
(0.594415 -0.100494 0)
(0.518079 -0.0422026 0)
(0.461383 0.0191213 0)
(0.430157 0.0762014 0)
(0.423868 0.100663 0)
(0.432832 0.0899334 0)
(0.442964 0.0672126 0)
(0.451231 0.0509351 0)
(0.461822 0.0443423 0)
(0.476854 0.0423863 0)
(0.494976 0.040127 0)
(0.513637 0.0356268 0)
(0.530679 0.0292427 0)
(0.54487 0.0222039 0)
(0.555851 0.0156507 0)
(0.563844 0.0102563 0)
(0.569361 0.0062246 0)
(0.572988 0.00344778 0)
(0.575262 0.00167403 0)
(0.576621 0.000621726 0)
(0.577389 4.88899e-05 0)
(0.577797 -0.000228309 0)
(0.577985 -0.000329627 0)
(0.57805 -0.000335826 0)
(0.57805 -0.000301094 0)
(0.578022 -0.00024748 0)
(0.577986 -0.000198785 0)
(0.577947 -0.000145263 0)
(0.57792 -0.000115329 0)
(0.577882 -6.74333e-05 0)
(1.04822 -0.0312978 0)
(1.05236 -0.0374977 0)
(1.04494 -0.0462018 0)
(1.03723 -0.0552373 0)
(1.02028 -0.0663949 0)
(0.997416 -0.0777228 0)
(0.970027 -0.0969028 0)
(0.924551 -0.115441 0)
(0.879576 -0.135072 0)
(0.807088 -0.164191 0)
(0.720888 -0.176611 0)
(0.648877 -0.168349 0)
(0.53864 -0.138108 0)
(0.390149 -0.0819094 0)
(0.275936 -0.0286198 0)
(0.210875 0.00757543 0)
(0.179187 0.0351419 0)
(0.178074 0.0605274 0)
(0.203806 0.078431 0)
(0.245158 0.0800812 0)
(0.287766 0.0680225 0)
(0.322479 0.0536932 0)
(0.34909 0.0430757 0)
(0.371585 0.0360138 0)
(0.392847 0.0305465 0)
(0.413431 0.0253073 0)
(0.432432 0.0199185 0)
(0.448724 0.0146591 0)
(0.461664 0.00999644 0)
(0.471219 0.00626015 0)
(0.477807 0.0035376 0)
(0.482056 0.00172362 0)
(0.484614 0.000619199 0)
(0.486036 8.72549e-06 0)
(0.486736 -0.00028263 0)
(0.487014 -0.000386658 0)
(0.487065 -0.000391062 0)
(0.487005 -0.000351734 0)
(0.4869 -0.000293987 0)
(0.486786 -0.000234777 0)
(0.486682 -0.000179187 0)
(0.486595 -0.000135361 0)
(0.486522 -9.50622e-05 0)
(0.486476 -7.21143e-05 0)
(0.486419 -4.0719e-05 0)
(0.87858 -0.0236209 0)
(0.846839 -0.0283119 0)
(0.809292 -0.0288536 0)
(0.771546 -0.033028 0)
(0.718895 -0.0389411 0)
(0.667454 -0.0399229 0)
(0.598838 -0.052994 0)
(0.516198 -0.0549764 0)
(0.433502 -0.0681877 0)
(0.299916 -0.099029 0)
(0.152646 -0.0707704 0)
(0.0454753 -0.00484254 0)
(-0.0215503 0.0276249 0)
(-0.0577344 0.0253984 0)
(-0.0738874 0.009691 0)
(-0.0769925 6.20219e-07 0)
(-0.0676155 0.00092802 0)
(-0.04373 0.00814079 0)
(-0.00456896 0.0139787 0)
(0.0415579 0.0150575 0)
(0.0838244 0.0117477 0)
(0.118099 0.00756514 0)
(0.144549 0.00452638 0)
(0.165527 0.00285077 0)
(0.182842 0.00200192 0)
(0.197245 0.00143611 0)
(0.208831 0.000908247 0)
(0.217591 0.000408064 0)
(0.223711 -1.38541e-06 0)
(0.227613 -0.000278923 0)
(0.229831 -0.000425517 0)
(0.230892 -0.000468322 0)
(0.231228 -0.000444677 0)
(0.23116 -0.000391062 0)
(0.230904 -0.000324756 0)
(0.230585 -0.000257529 0)
(0.230273 -0.000197061 0)
(0.229998 -0.000147198 0)
(0.229772 -0.000107414 0)
(0.229593 -7.65859e-05 0)
(0.229458 -5.34054e-05 0)
(0.229356 -3.6647e-05 0)
(0.229284 -2.39667e-05 0)
(0.229235 -1.6192e-05 0)
(0.229187 -8.13055e-06 0)
(8.03329e-05 -0.0344799 0)
(-0.00722071 -0.0251352 0)
(-0.0401504 0.00921789 0)
(-0.125331 0.0460431 0)
(-0.23566 0.0586904 0)
(-0.334246 0.0533614 0)
(-0.410334 0.0414826 0)
(-0.454395 0.0276113 0)
(-0.466813 0.0124471 0)
(-0.45086 -0.0044978 0)
(-0.408127 -0.0205604 0)
(-0.340241 -0.0345128 0)
(-0.252984 -0.0449528 0)
(-0.152135 -0.0505384 0)
(-0.0438893 -0.0522414 0)
(0.0665763 -0.0498645 0)
(0.17207 -0.0416449 0)
(0.26431 -0.0283318 0)
(0.335641 -0.0112175 0)
(0.378553 0.00692321 0)
(0.388653 0.0208032 0)
(0.371178 0.0259805 0)
(0.339179 0.0225603 0)
(0.304926 0.01553 0)
(0.275876 0.00896835 0)
(0.254609 0.00430472 0)
(0.24068 0.00147476 0)
(0.232422 -2.52007e-05 0)
(0.228035 -0.000693594 0)
(0.226052 -0.000898323 0)
(0.225438 -0.000874029 0)
(0.225536 -0.000755947 0)
(0.225958 -0.000614981 0)
(0.226487 -0.000482857 0)
(0.22701 -0.00036881 0)
(0.227476 -0.000276419 0)
(0.227866 -0.000204352 0)
(0.22818 -0.000148999 0)
(0.228426 -0.000106876 0)
(0.228615 -7.55474e-05 0)
(0.228755 -5.23563e-05 0)
(0.228858 -3.57587e-05 0)
(0.228931 -2.34295e-05 0)
(0.228981 -1.58463e-05 0)
(0.229028 -7.93719e-06 0)
(-0.0153013 0.0435615 0)
(-0.0689601 0.0720658 0)
(-0.140983 0.115972 0)
(-0.203281 0.140357 0)
(-0.258164 0.137195 0)
(-0.294964 0.11179 0)
(-0.315729 0.0756071 0)
(-0.314072 0.0334625 0)
(-0.294744 -0.0119664 0)
(-0.254136 -0.056595 0)
(-0.195402 -0.0974323 0)
(-0.117437 -0.131994 0)
(-0.0268872 -0.1561 0)
(0.0734622 -0.170791 0)
(0.174734 -0.177605 0)
(0.273842 -0.175205 0)
(0.368295 -0.159769 0)
(0.450923 -0.132944 0)
(0.519481 -0.097875 0)
(0.575829 -0.0555967 0)
(0.616933 -0.0109199 0)
(0.634412 0.0257183 0)
(0.627196 0.0456889 0)
(0.603991 0.0489151 0)
(0.575282 0.0417382 0)
(0.548523 0.0308441 0)
(0.527159 0.0204523 0)
(0.511686 0.0123533 0)
(0.501192 0.00678786 0)
(0.494412 0.00329487 0)
(0.490213 0.00126001 0)
(0.48773 0.00016307 0)
(0.486351 -0.000369803 0)
(0.485666 -0.000579996 0)
(0.485391 -0.000620826 0)
(0.485347 -0.00057675 0)
(0.485422 -0.000497931 0)
(0.485549 -0.00040974 0)
(0.485688 -0.000324801 0)
(0.485819 -0.000250839 0)
(0.485932 -0.000187614 0)
(0.486023 -0.000139803 0)
(0.486098 -9.72816e-05 0)
(0.486146 -7.33172e-05 0)
(0.486203 -4.12354e-05 0)
(-0.0310198 0.0371916 0)
(-0.0495961 0.0924058 0)
(-0.0436651 0.126307 0)
(-0.0386659 0.14648 0)
(-0.0238091 0.141024 0)
(-0.00164145 0.106994 0)
(0.0215945 0.0606283 0)
(0.0511681 0.00968756 0)
(0.0924138 -0.0452968 0)
(0.147415 -0.101976 0)
(0.210846 -0.156543 0)
(0.281527 -0.204382 0)
(0.354872 -0.237275 0)
(0.429276 -0.25176 0)
(0.497951 -0.256207 0)
(0.556123 -0.250871 0)
(0.607562 -0.226554 0)
(0.648743 -0.185747 0)
(0.673411 -0.141207 0)
(0.689273 -0.0939841 0)
(0.706437 -0.0393402 0)
(0.720807 0.01513 0)
(0.722055 0.0540133 0)
(0.707978 0.0695394 0)
(0.684835 0.0661021 0)
(0.65966 0.0531402 0)
(0.637026 0.0383638 0)
(0.618882 0.0257226 0)
(0.605359 0.0163205 0)
(0.595737 0.00986821 0)
(0.589107 0.00565574 0)
(0.584662 0.00300271 0)
(0.581759 0.00138658 0)
(0.579919 0.000443956 0)
(0.578793 -7.32259e-05 0)
(0.57814 -0.000326923 0)
(0.577786 -0.000419108 0)
(0.577619 -0.000422431 0)
(0.577557 -0.000379742 0)
(0.577553 -0.000321036 0)
(0.577575 -0.000256194 0)
(0.577608 -0.000202552 0)
(0.577644 -0.000146688 0)
(0.577669 -0.000115867 0)
(0.577706 -6.76263e-05 0)
(-0.0224193 0.154473 0)
(0.0173808 0.102703 0)
(0.0658979 0.121731 0)
(0.122683 0.136372 0)
(0.190247 0.123503 0)
(0.258802 0.0883973 0)
(0.322093 0.0396696 0)
(0.384204 -0.0241097 0)
(0.449892 -0.091334 0)
(0.513189 -0.155482 0)
(0.573523 -0.212372 0)
(0.631108 -0.258576 0)
(0.681125 -0.295855 0)
(0.725751 -0.31155 0)
(0.764671 -0.30463 0)
(0.788943 -0.289402 0)
(0.800621 -0.257106 0)
(0.806152 -0.199481 0)
(0.799329 -0.138144 0)
(0.778149 -0.0885137 0)
(0.757884 -0.0411881 0)
(0.748174 0.0101089 0)
(0.742554 0.0555827 0)
(0.732525 0.0828767 0)
(0.715608 0.0885604 0)
(0.69421 0.0785399 0)
(0.672246 0.0616504 0)
(0.652693 0.0445475 0)
(0.636936 0.0304205 0)
(0.625119 0.0199558 0)
(0.616715 0.0126661 0)
(0.610976 0.00776773 0)
(0.60718 0.00455768 0)
(0.604737 0.00250498 0)
(0.603204 0.00123584 0)
(0.602268 0.00048427 0)
(0.601712 6.8939e-05 0)
(0.601392 -0.000138778 0)
(0.601215 -0.000224728 0)
(0.601124 -0.000245218 0)
(0.601082 -0.000225189 0)
(0.601068 -0.000196334 0)
(0.601069 -0.000151038 0)
(0.601073 -0.000125916 0)
(0.601086 -7.5825e-05 0)
(0.0990308 0.00266343 0)
(0.120482 -0.0106644 0)
(0.224576 -0.00241312 0)
(0.30848 0.00297004 0)
(0.404467 -0.0117655 0)
(0.49965 -0.0397003 0)
(0.586058 -0.0758822 0)
(0.666724 -0.125998 0)
(0.741493 -0.17878 0)
(0.806393 -0.231912 0)
(0.855731 -0.284416 0)
(0.896036 -0.318686 0)
(0.923409 -0.33899 0)
(0.934646 -0.345107 0)
(0.93264 -0.324498 0)
(0.914752 -0.292375 0)
(0.886938 -0.249656 0)
(0.849904 -0.181157 0)
(0.803148 -0.105512 0)
(0.753361 -0.0487666 0)
(0.709567 -0.00743909 0)
(0.681223 0.0313918 0)
(0.669382 0.0681187 0)
(0.666339 0.0934651 0)
(0.664302 0.101514 0)
(0.659481 0.0943457 0)
(0.65142 0.0783901 0)
(0.641581 0.0599473 0)
(0.631852 0.0430578 0)
(0.623563 0.0294412 0)
(0.617236 0.01931 0)
(0.612795 0.0121793 0)
(0.609876 0.00736938 0)
(0.608057 0.00424295 0)
(0.606971 0.00228209 0)
(0.606346 0.00109921 0)
(0.605997 0.000415994 0)
(0.605805 4.49054e-05 0)
(0.605703 -0.000133183 0)
(0.605654 -0.00020263 0)
(0.605634 -0.000208116 0)
(0.605628 -0.000192674 0)
(0.605629 -0.000153269 0)
(0.60563 -0.000131056 0)
(0.605635 -7.97046e-05 0)
)
;

boundaryField
{
    inlet
    {
        type            fixedValue;
        value           uniform (1 0 0);
    }
    outlet
    {
        type            zeroGradient;
    }
    upperWall
    {
        type            noSlip;
    }
    lowerWall
    {
        type            noSlip;
    }
    frontAndBack
    {
        type            empty;
    }
}


// ************************************************************************* //
