/*--------------------------------*- C++ -*----------------------------------*\
  =========                 |
  \\      /  F ield         | OpenFOAM: The Open Source CFD Toolbox
   \\    /   O peration     | Website:  https://openfoam.org
    \\  /    A nd           | Version:  10
     \\/     M anipulation  |
\*---------------------------------------------------------------------------*/
FoamFile
{
    format      ascii;
    class       volScalarField;
    location    "6.025";
    object      p;
}
// * * * * * * * * * * * * * * * * * * * * * * * * * * * * * * * * * * * * * //

dimensions      [0 2 -2 0 0 0 0];

internalField   nonuniform List<scalar> 
8000
(
4.89751e-06
1.5269e-06
4.56086e-05
0.000125267
0.000246445
0.000410578
0.000619054
0.00087276
0.00117191
0.00151502
0.00189827
0.00231472
0.00275346
0.00319916
0.00363138
0.0040261
0.00435728
0.00459993
0.00474797
0.00475956
9.66345e-06
4.81402e-06
5.02797e-05
0.000129276
0.000248539
0.000409767
0.000614644
0.000864465
0.00115961
0.00149892
0.00187898
0.00229323
0.00273082
0.00317684
0.00361172
0.00401071
0.004347
0.00459452
0.00474812
0.00475712
-4.64041e-05
-5.49068e-05
-1.11649e-05
6.49398e-05
0.000180776
0.000338194
0.000539303
0.000786029
0.00107951
0.00141952
0.00180364
0.00222634
0.00267821
0.00314445
0.00360399
0.00403042
0.00439345
0.0046621
0.00482963
0.00483384
-0.000150979
-0.000162173
-0.000120896
-4.89254e-05
6.18125e-05
0.000213509
0.000408951
0.000651043
0.000942152
0.00128354
0.00167452
0.0021113
0.0025856
0.00308342
0.00358398
0.00405731
0.00446747
0.00477449
0.00496768
0.004969
-0.000309856
-0.000323864
-0.000286146
-0.000219834
-0.000116071
2.77702e-05
0.000215321
0.000450707
0.00073795
0.00108041
0.00147986
0.00193523
0.00244067
0.00298362
0.00354306
0.00408543
0.00456705
0.00493464
0.00516956
0.00516925
-0.00052377
-0.000541056
-0.000508099
-0.000449307
-0.000355025
-0.000222178
-4.62099e-05
0.000178386
0.000457599
0.000797452
0.00120312
0.00167749
0.00221898
0.00281784
0.00345262
0.00408974
0.00467449
0.00513416
0.00543474
0.00543612
-0.00079277
-0.000814011
-0.00078718
-0.000738198
-0.000656682
-0.000539224
-0.000380411
-0.000173346
9.00764e-05
0.000418945
0.000822647
0.00130942
0.00188372
0.00254225
0.00326876
0.00402755
0.00475484
0.00535262
0.00575673
0.00577111
-0.00111662
-0.0011426
-0.00112336
-0.00108683
-0.00102208
-0.000925654
-0.000791577
-0.00061182
-0.000376319
-7.28602e-05
0.000312653
0.000795218
0.00138815
0.00209813
0.00292242
0.00382355
0.00473919
0.00554194
0.00611228
0.00617536
-0.00149484
-0.00152634
-0.00151601
-0.00149461
-0.00145098
-0.00138213
-0.00128214
-0.00114249
-0.000951819
-0.000695389
-0.000354652
9.271e-05
0.000671607
0.0014051
0.00230033
0.00334192
0.00449247
0.00559143
0.00643107
0.00663979
-0.001927
-0.00196464
-0.00196391
-0.00195973
-0.00194124
-0.00190667
-0.00185107
-0.00176657
-0.001642
-0.0014618
-0.0012049
-0.00084348
-0.00034231
0.000340391
0.00124611
0.00240227
0.00375168
0.00524918
0.00652338
0.00711124
-0.0024133
-0.00245728
-0.00246544
-0.00247906
-0.0024883
-0.00249359
-0.00249222
-0.00247854
-0.00244367
-0.00237443
-0.00225185
-0.00204845
-0.0017251
-0.00122809
-0.000485921
0.000592392
0.00209035
0.00395705
0.00590994
0.00737442
-0.00295599
-0.00300541
-0.00301914
-0.0030482
-0.0030847
-0.00313256
-0.00319262
-0.00326327
-0.0033407
-0.00341818
-0.00348534
-0.00352572
-0.00351414
-0.00340927
-0.00314291
-0.00258713
-0.00147087
0.000590492
0.0033511
0.00668471
-0.00356246
-0.00361423
-0.00362569
-0.00366296
-0.00372086
-0.00380859
-0.00393173
-0.00409425
-0.00430027
-0.00455444
-0.00486325
-0.00523494
-0.00568124
-0.0062116
-0.00682092
-0.00738754
-0.00744818
-0.00551318
-0.00107524
0.00514868
-0.00424687
-0.00428906
-0.00428031
-0.00431002
-0.00437737
-0.00449672
-0.0046772
-0.00492924
-0.00526646
-0.00570787
-0.0062833
-0.00703704
-0.0080428
-0.00938898
-0.0111572
-0.0130912
-0.0143538
-0.0116251
-0.00508549
0.00342479
-0.00504786
-0.00507607
-0.00503041
-0.00503569
-0.00508724
-0.00521036
-0.00542168
-0.0057391
-0.00618629
-0.00679659
-0.00762483
-0.00874496
-0.0103006
-0.0124161
-0.0152723
-0.0182882
-0.0209038
-0.0181893
-0.0115519
0.000331384
-0.00613029
-0.00593239
-0.00575992
-0.00565462
-0.00565914
-0.00578193
-0.00602814
-0.00640828
-0.00694783
-0.00768585
-0.00870138
-0.0100819
-0.0120464
-0.0147184
-0.0184414
-0.0224452
-0.0277517
-0.0273015
-0.0217504
-0.00329801
-0.00707252
-0.00718514
-0.00687801
-0.00675315
-0.00664538
-0.00665756
-0.0068107
-0.00712952
-0.00764773
-0.00840305
-0.00948329
-0.0109717
-0.013144
-0.0160503
-0.0204112
-0.0250713
-0.033383
-0.0335024
-0.0272384
0.000559033
-0.0109631
-0.00814265
-0.00751125
-0.00682633
-0.00659142
-0.00660359
-0.00682564
-0.00722047
-0.00781128
-0.00861126
-0.00973947
-0.0112341
-0.0134073
-0.016224
-0.0204343
-0.0247678
-0.0316453
-0.029738
-0.0202931
0.0208855
-0.0106325
-0.0115315
-0.0100791
-0.00959471
-0.0088702
-0.00841217
-0.00820314
-0.00824786
-0.00857819
-0.00917841
-0.0101512
-0.0114863
-0.0135296
-0.0160712
-0.019978
-0.0232805
-0.0278928
-0.0196172
-0.000633507
0.0659979
-0.0352238
-0.00983172
-0.00821444
-0.00676665
-0.006022
-0.00591669
-0.00618561
-0.00661176
-0.00727459
-0.00808351
-0.00931291
-0.0107448
-0.0129047
-0.015072
-0.0177654
-0.0175208
-0.0136395
0.0109962
0.0588608
0.168301
1.03904e-05
-4.3688e-06
3.75078e-05
0.000116168
0.000237512
0.000402359
0.000611937
0.000867439
0.00116893
0.00151503
0.00190208
0.0023232
0.00276749
0.00321921
0.00365802
0.00405914
0.00439515
0.00463886
0.00478443
0.0047799
2.44603e-05
9.50969e-06
5.45588e-05
0.000132921
0.000252035
0.000413236
0.000618143
0.000868135
0.00116365
0.00150368
0.00188495
0.00230105
0.00274111
0.00319098
0.00362991
0.00403305
0.0043724
0.00462015
0.00477222
0.00476355
-2.80361e-05
-4.84535e-05
-4.92648e-06
7.05688e-05
0.000186201
0.000343474
0.000544447
0.000791134
0.00108479
0.00142534
0.00181056
0.0022351
0.0026899
0.00316008
0.00362442
0.00405596
0.00442294
0.00469208
0.00485787
0.00484038
-0.000129695
-0.000153938
-0.000112746
-4.13969e-05
6.91244e-05
0.000220647
0.000415917
0.000657892
0.00094909
0.00129098
0.00168311
0.0021219
0.00259925
0.00310254
0.00360925
0.00408929
0.00450476
0.00481263
0.00500376
0.00497906
-0.000286666
-0.000314596
-0.000276885
-0.000211157
-0.000107544
3.62105e-05
0.000223718
0.000459174
0.000746749
0.00109005
0.00149119
0.00194932
0.00245811
0.00300911
0.00357711
0.00412897
0.00461845
0.00498811
0.00522052
0.00518852
-0.000498996
-0.000531032
-0.000498005
-0.000439711
-0.000345454
-0.000212528
-3.63726e-05
0.000188632
0.000468648
0.000809993
0.0012183
0.00169709
0.00224619
0.00285231
0.0035004
0.00415171
0.00474899
0.00521375
0.00551192
0.00547394
-0.00076634
-0.00080324
-0.000776243
-0.000727665
-0.000646033
-0.000528305
-0.000369033
-0.00016115
0.000103676
0.000434895
0.000842461
0.00133543
0.001919
0.00258953
0.00333582
0.00411742
0.00486652
0.00547662
0.0058813
0.00584769
-0.00108833
-0.00113109
-0.00111158
-0.00107538
-0.00101038
-0.000913493
-0.000778684
-0.000597692
-0.000360146
-5.33583e-05
0.000337515
0.00082859
0.00143401
0.00215685
0.00301424
0.00395567
0.00491162
0.00574463
0.00632684
0.0063389
-0.00146441
-0.00151413
-0.00150344
-0.00148232
-0.00143835
-0.00136891
-0.00126796
-0.00112671
-0.000933413
-0.000672699
-0.000324983
0.000133845
0.00073215
0.0015016
0.00243063
0.00354061
0.00476233
0.00593553
0.0068272
0.00702132
-0.00189402
-0.00195173
-0.00195059
-0.00194674
-0.00192794
-0.00189276
-0.0018361
-0.00174977
-0.00162213
-0.00143681
-0.00117134
-0.00079561
-0.00027025
0.000452479
0.00141953
0.0026586
0.00416695
0.00583467
0.00729748
0.00805391
-0.0023771
-0.00244356
-0.00245133
-0.00246549
-0.00247462
-0.00247951
-0.00247719
-0.00246167
-0.00242359
-0.00234883
-0.00221661
-0.00199666
-0.00164517
-0.00110052
-0.000281441
0.000907888
0.00258359
0.0048607
0.0073146
0.00941392
-0.00291523
-0.00299041
-0.00300374
-0.00303379
-0.00307072
-0.00311873
-0.00317831
-0.00324745
-0.00332187
-0.003394
-0.00345138
-0.00347503
-0.00343658
-0.00329263
-0.00297925
-0.00236896
-0.00108864
0.00130026
0.00485785
0.00956843
-0.0035148
-0.00359782
-0.00360945
-0.00364874
-0.00370782
-0.00379619
-0.00391929
-0.00408095
-0.00428463
-0.00453455
-0.00483563
-0.00519519
-0.00562771
-0.00616427
-0.00686884
-0.00773604
-0.00828328
-0.00637446
-0.00175146
0.00639797
-0.0041842
-0.00426346
-0.00425373
-0.00428659
-0.00435778
-0.00448079
-0.00466396
-0.00491692
-0.00525312
-0.00569152
-0.00626173
-0.00701162
-0.00802997
-0.00946985
-0.0115994
-0.0144651
-0.0174302
-0.0163427
-0.0109611
0.000192324
-0.00496224
-0.00505092
-0.00500585
-0.00501946
-0.00507581
-0.00520233
-0.00541544
-0.00573313
-0.00617854
-0.00678504
-0.00760825
-0.00873236
-0.0103237
-0.0126227
-0.0160823
-0.0206613
-0.0262978
-0.0267437
-0.0225704
-0.0080391
-0.00597405
-0.00584418
-0.00568053
-0.00558774
-0.00560824
-0.00574527
-0.00600213
-0.00638881
-0.00692988
-0.00766463
-0.00866797
-0.010044
-0.0120412
-0.0148855
-0.0193125
-0.0250691
-0.0338571
-0.0367344
-0.0352109
-0.0139804
-0.00673173
-0.00707013
-0.00677106
-0.00670407
-0.00661767
-0.00664554
-0.00680665
-0.00712794
-0.0076426
-0.00838126
-0.00943187
-0.010874
-0.0130501
-0.0159879
-0.0209529
-0.026894
-0.0374036
-0.0405519
-0.0393885
-0.00649859
-0.0104376
-0.00779022
-0.00719478
-0.00655845
-0.00641352
-0.00649362
-0.00676327
-0.00718347
-0.00778436
-0.00856126
-0.00965496
-0.0110122
-0.0131303
-0.0159375
-0.0204205
-0.0255576
-0.0334055
-0.0342584
-0.0272845
0.0210634
-0.00792437
-0.010522
-0.00946238
-0.00935199
-0.00881161
-0.00846216
-0.00830673
-0.00836231
-0.00868219
-0.00924219
-0.0101067
-0.0113081
-0.0132251
-0.0156941
-0.0199104
-0.0239188
-0.0295088
-0.0224597
-0.00136206
0.0744753
-0.0329549
-0.00794562
-0.0066132
-0.00572746
-0.00534282
-0.00541103
-0.00581093
-0.00631005
-0.00702588
-0.00782901
-0.00903342
-0.0103893
-0.0124946
-0.0147025
-0.0174868
-0.0176434
-0.0134285
0.0129913
0.0728255
0.199682
2.04204e-05
6.81447e-07
4.14299e-05
0.000119441
0.000240995
0.000406664
0.000617628
0.000875037
0.00117919
0.00152888
0.00192057
0.00234748
0.0027987
0.0032584
0.00370549
0.00411431
0.0044561
0.00470193
0.00484627
0.004832
4.04956e-05
2.01344e-05
6.47461e-05
0.000142512
0.000261531
0.000422983
0.000628517
0.000879621
0.00117689
0.00151948
0.00190429
0.00232504
0.00277103
0.00322765
0.00367393
0.00408418
0.00442901
0.00467894
0.00483051
0.00481254
-8.47943e-06
-3.52115e-05
7.97299e-06
8.27669e-05
0.000198172
0.000355525
0.000556946
0.000804598
0.00109993
0.00144309
0.00183208
0.00226178
0.00272331
0.00320148
0.00367472
0.00411514
0.00448926
0.00476153
0.004927
0.00489792
-0.000106709
-0.000137882
-9.69384e-05
-2.63277e-05
8.39015e-05
0.000235414
0.000431051
0.000673982
0.000966964
0.00131176
0.00170825
0.00215318
0.00263891
0.00315231
0.00367073
0.00416287
0.00458838
0.00490108
0.00509236
0.00505321
-0.000260705
-0.000296127
-0.000258584
-0.000193584
-9.02236e-05
5.35916e-05
0.000241601
0.000478259
0.000768054
0.00111498
0.00152162
0.0019877
0.00250811
0.00307202
0.00365628
0.00422562
0.00473041
0.00510823
0.00534177
0.00529079
-0.000470078
-0.000510202
-0.000477245
-0.000419625
-0.000325515
-0.000192362
-1.54351e-05
0.000211198
0.000494102
0.000840112
0.0012555
0.00174436
0.00230591
0.00293317
0.00360513
0.00428277
0.00490435
0.00538367
0.00568512
0.00562054
-0.000734133
-0.000779813
-0.000752772
-0.000704805
-0.000623208
-0.000505073
-0.000344724
-0.000134716
0.000133798
0.000470972
0.000887732
0.00139432
0.00199767
0.00269533
0.00347535
0.00429707
0.00508575
0.00572305
0.00613646
0.00606327
-0.00105225
-0.00110461
-0.00108496
-0.00104934
-0.00098433
-0.000886939
-0.000750824
-0.000567263
-0.000325242
-1.11384e-05
0.000391255
0.00090008
0.00153267
0.00229836
0.00319783
0.00419955
0.00522047
0.00610541
0.00671103
0.00666288
-0.00142362
-0.0014839
-0.001473
-0.00145255
-0.00140868
-0.00133883
-0.00123656
-0.00109252
-0.000894204
-0.000625106
-0.000263955
0.00021582
0.000844969
0.00165406
0.00265868
0.00386043
0.00518703
0.00646037
0.00741032
0.00752178
-0.0018473
-0.00191673
-0.00191538
-0.00191247
-0.00189412
-0.00185891
-0.00180128
-0.00171241
-0.00157975
-0.00138566
-0.00110562
-0.000706355
-0.000143629
0.000635424
0.00168027
0.00304113
0.00470845
0.00656479
0.00815517
0.0088046
-0.00232265
-0.00240225
-0.00240992
-0.00242553
-0.00243581
-0.0024415
-0.00243909
-0.00242193
-0.00237975
-0.00229714
-0.0021514
-0.00190909
-0.0015213
-0.000920201
-1.89048e-05
0.00126516
0.00312815
0.00570498
0.00840095
0.0102968
-0.0028502
-0.00294021
-0.00295359
-0.00298595
-0.00302526
-0.00307552
-0.00313661
-0.0032059
-0.0032783
-0.00334519
-0.00339297
-0.00340119
-0.00334023
-0.00316916
-0.00283931
-0.00224643
-0.00104161
0.00163891
0.0055486
0.0101508
-0.00343485
-0.0035353
-0.00354773
-0.00359086
-0.00365401
-0.00374651
-0.00387322
-0.0040376
-0.00424261
-0.00449202
-0.00479116
-0.0051498
-0.00559032
-0.00617345
-0.00703702
-0.00824093
-0.00914822
-0.00721996
-0.0022594
0.00571762
-0.00408027
-0.00417929
-0.0041707
-0.00420946
-0.00428788
-0.00441858
-0.00460909
-0.00486856
-0.0052104
-0.00565399
-0.00623124
-0.00699854
-0.00806536
-0.0096468
-0.0121495
-0.0157343
-0.0196708
-0.0191071
-0.0138848
-0.00268012
-0.0048242
-0.0049397
-0.00489657
-0.00492073
-0.00498801
-0.00512582
-0.00534961
-0.00567729
-0.00613219
-0.00674874
-0.00758472
-0.00873702
-0.0103986
-0.0128889
-0.0168228
-0.0222753
-0.0292681
-0.0307643
-0.0268618
-0.0122363
-0.00577528
-0.00567586
-0.00551721
-0.00543867
-0.00547716
-0.00563291
-0.00590755
-0.00631016
-0.00686486
-0.00761261
-0.00862694
-0.0100241
-0.0120652
-0.0150614
-0.0198961
-0.0262538
-0.0355982
-0.0387678
-0.0364483
-0.0164413
-0.00640282
-0.00680259
-0.0065193
-0.00648954
-0.00643164
-0.00648752
-0.00667308
-0.0070156
-0.00754483
-0.00829778
-0.00935121
-0.0107968
-0.0129572
-0.0159467
-0.0211092
-0.0272863
-0.0366902
-0.0394459
-0.0357928
-0.00620963
-0.0100722
-0.0074584
-0.00682756
-0.00620423
-0.00610125
-0.00623252
-0.0065481
-0.00700538
-0.0076212
-0.00842038
-0.00949989
-0.0108824
-0.0129282
-0.0157292
-0.020159
-0.0252234
-0.0316086
-0.0312828
-0.0216441
0.0233229
-0.00684247
-0.00970835
-0.0087699
-0.00877815
-0.00832348
-0.00805369
-0.00795998
-0.00807125
-0.00841883
-0.0089741
-0.0098698
-0.0110736
-0.0129508
-0.0154625
-0.0196749
-0.0237623
-0.0283335
-0.019887
0.00390309
0.0789277
-0.0322512
-0.00714003
-0.00579625
-0.00503091
-0.00476532
-0.00491515
-0.00537157
-0.00592637
-0.00666514
-0.00749728
-0.00869049
-0.0100564
-0.012113
-0.0143567
-0.0170345
-0.0170319
-0.0115963
0.0166753
0.0810938
0.209919
3.15587e-05
9.03129e-06
4.90859e-05
0.000126717
0.000248593
0.000415177
0.00062767
0.000887328
0.00119459
0.00154839
0.00194532
0.00237867
0.00283748
0.00330567
0.00376161
0.00417875
0.00452711
0.00477635
0.0049212
0.00490166
5.50001e-05
3.17379e-05
7.60142e-05
0.000153445
0.000272645
0.00043472
0.000641388
0.000894264
0.0011941
0.00154023
0.00192973
0.00235639
0.00280961
0.00327446
0.00372949
0.00414814
0.00449976
0.00475341
0.00490599
0.00488278
8.55372e-06
-2.15358e-05
2.13678e-05
9.57869e-05
0.000211321
0.000369234
0.000571735
0.000821146
0.00111911
0.00146602
0.00186011
0.00229644
0.00276626
0.00325411
0.00373793
0.0041888
0.00457167
0.00484893
0.00501595
0.0049802
-8.6933e-05
-0.000121795
-8.10741e-05
-1.08524e-05
9.94945e-05
0.000251565
0.000448319
0.000693131
0.000989013
0.00133804
0.00174042
0.00219323
0.00268919
0.00321488
0.00374718
0.00425351
0.00469125
0.00501136
0.00520534
0.00515751
-0.000238331
-0.000277736
-0.000240366
-0.000175739
-7.22056e-05
7.22693e-05
0.000261583
0.000500449
0.000793687
0.00114572
0.00155962
0.00203563
0.00256924
0.00314943
0.00375277
0.00434241
0.00486561
0.00525529
0.00549374
0.00543065
-0.000445008
-0.000489414
-0.000456575
-0.00039929
-0.000304914
-0.000170942
7.56388e-06
0.00023686
0.000523945
0.000876218
0.00130064
0.00180208
0.00238061
0.00303031
0.0037293
0.00443687
0.00508706
0.00558633
0.00589704
0.00581417
-0.000706034
-0.000756333
-0.000729357
-0.000681697
-0.000599756
-0.000480654
-0.000318456
-0.00010531
0.000168187
0.000512942
0.00094086
0.00146318
0.00208636
0.00281657
0.0036349
0.00450113
0.00533507
0.00600721
0.00643875
0.00633606
-0.00102058
-0.00107796
-0.00105834
-0.00102306
-0.000957705
-0.000859296
-0.000721171
-0.000534119
-0.000286437
3.64819e-05
0.000452262
0.000981078
0.00164388
0.00244666
0.00339844
0.00446537
0.00555781
0.00650466
0.00714775
0.00705037
-0.00138759
-0.00145338
-0.00144254
-0.00142256
-0.00137849
-0.00130775
-0.00120355
-0.00105597
-0.000851707
-0.000573083
-0.000197134
0.000305095
0.000967213
0.00182033
0.00289749
0.00419134
0.00562812
0.00701249
0.00803996
0.00807537
-0.00180577
-0.00188131
-0.00188012
-0.00187797
-0.00185978
-0.00182413
-0.00176502
-0.00167306
-0.00153488
-0.00133156
-0.00103673
-0.000614127
-1.49934e-05
0.000820424
0.00194032
0.00341217
0.00523364
0.00728216
0.00901834
0.00956105
-0.00227394
-0.00236039
-0.00236844
-0.00238534
-0.00239645
-0.00240249
-0.00239956
-0.00238046
-0.00233417
-0.00224422
-0.00208634
-0.00182464
-0.00140634
-0.000758859
0.000203855
0.00157642
0.00359695
0.00644802
0.00940532
0.0112139
-0.0027917
-0.00288946
-0.00290355
-0.00293802
-0.00297923
-0.00303115
-0.00309327
-0.00316254
-0.0032334
-0.00329669
-0.00333828
-0.00333761
-0.003266
-0.00308753
-0.00277175
-0.00223849
-0.00108062
0.00184601
0.00614451
0.0108483
-0.00336257
-0.00347222
-0.00348611
-0.00353265
-0.00359919
-0.00369503
-0.00382478
-0.00399173
-0.00419882
-0.00445018
-0.00475261
-0.00511993
-0.00558507
-0.00623769
-0.00728881
-0.00889138
-0.0102143
-0.00832742
-0.00313663
0.00523997
-0.00398706
-0.00409682
-0.00409037
-0.00413423
-0.00421829
-0.00435498
-0.00455142
-0.00481664
-0.00516448
-0.00561575
-0.00620606
-0.00700131
-0.00813327
-0.00986586
-0.0127345
-0.0170086
-0.0220016
-0.0219893
-0.0169173
-0.00498849
-0.00470145
-0.00483157
-0.00479192
-0.0048248
-0.00490065
-0.00504723
-0.00527952
-0.00561556
-0.00607927
-0.00670683
-0.00756041
-0.00874925
-0.0104916
-0.0131678
-0.0175364
-0.0237651
-0.0319742
-0.0341287
-0.0307846
-0.0154195
-0.00560386
-0.00552208
-0.00536943
-0.00530241
-0.00535339
-0.00552246
-0.00581025
-0.0062252
-0.00679118
-0.00754995
-0.00857731
-0.0100005
-0.0120991
-0.0152282
-0.0204027
-0.0272498
-0.0371016
-0.0402566
-0.0389607
-0.0182593
-0.0061496
-0.00658985
-0.00631229
-0.0063083
-0.0062695
-0.00634401
-0.00654592
-0.00690264
-0.00744272
-0.00820196
-0.00925616
-0.0107062
-0.0128808
-0.0159214
-0.0212053
-0.0275742
-0.0364696
-0.0389026
-0.036207
-0.00558335
-0.00974144
-0.00716587
-0.0065332
-0.0059307
-0.00585099
-0.00600992
-0.00635242
-0.00683375
-0.00746882
-0.00827353
-0.00934307
-0.0107128
-0.0127404
-0.0155325
-0.0199342
-0.0249023
-0.0306971
-0.0298446
-0.0210177
0.0259074
-0.00625713
-0.00928697
-0.00836346
-0.00843384
-0.0080121
-0.00777579
-0.00770994
-0.00784603
-0.00821077
-0.00878765
-0.00966209
-0.0108342
-0.0127042
-0.015221
-0.0194804
-0.023577
-0.0278477
-0.0187469
0.00497685
0.0830212
-0.0316815
-0.00656614
-0.00522475
-0.00451593
-0.00431305
-0.00451712
-0.00501675
-0.00561071
-0.00637465
-0.00722644
-0.00842168
-0.00977971
-0.011822
-0.0140507
-0.0166747
-0.0164927
-0.0106247
0.0188843
0.0842615
0.216845
4.31626e-05
1.9684e-05
5.9566e-05
0.000137215
0.000259606
0.000427221
0.000641344
0.000903357
0.00121384
0.00157189
0.00197421
0.00241416
0.0028807
0.0033575
0.00382238
0.00424802
0.00460338
0.00485699
0.00500367
0.0049817
6.80453e-05
4.36805e-05
8.78866e-05
0.000165341
0.000285012
0.000448026
0.000656199
0.000911286
0.0012142
0.00156444
0.00195923
0.00239243
0.00285349
0.00332715
0.00379149
0.0042191
0.00457821
0.00483666
0.00499148
0.00496603
2.32432e-05
-8.12361e-06
3.47366e-05
0.000109168
0.000225169
0.000384027
0.00058807
0.000839788
0.00114103
0.00149239
0.00189232
0.00233608
0.00281494
0.00331318
0.00380824
0.00427023
0.00466265
0.00494619
0.00511618
0.00507737
-7.0211e-05
-0.000106479
-6.57667e-05
4.47479e-06
0.000115316
0.000268386
0.000466796
0.000714129
0.00101366
0.00136776
0.00177695
0.00223861
0.00274569
0.00328455
0.00383153
0.00435282
0.00480379
0.00513287
0.00533128
0.00527897
-0.000219445
-0.000260375
-0.000222979
-0.000158306
-5.42114e-05
9.13859e-05
0.000282573
0.00052433
0.000821816
0.00117987
0.00160204
0.00208907
0.00263686
0.00323434
0.00385766
0.00446845
0.00501117
0.00541454
0.00566004
0.00558961
-0.000423737
-0.000469785
-0.000436888
-0.000379526
-0.000284504
-0.000149256
3.13926e-05
0.000264035
0.000556112
0.000915588
0.00135011
0.00186531
0.0024621
0.00313492
0.00386162
0.00459977
0.00527957
0.00580068
0.00612323
0.00602721
-0.000682027
-0.000734101
-0.000707048
-0.0006593
-0.000576656
-0.000456156
-0.000291575
-7.46454e-05
0.000204597
0.000557814
0.000997879
0.00153728
0.00218422
0.00294436
0.00380081
0.00471141
0.00559081
0.00629908
0.00675151
0.00662382
-0.000993333
-0.00105265
-0.00103296
-0.000997643
-0.000931609
-0.000831785
-0.000691171
-0.000500065
-0.000246081
8.63334e-05
0.000516106
0.00106501
0.00175529
0.00259753
0.0036008
0.00473099
0.00589302
0.00690082
0.00758313
0.00743698
-0.00135638
-0.0014243
-0.00141346
-0.00139359
-0.00134901
-0.00127703
-0.00117049
-0.00101894
-0.000808282
-0.000519761
-0.000128844
0.000395584
0.00108992
0.00198912
0.00313081
0.00451016
0.00605049
0.00753933
0.0086419
0.00858691
-0.00176957
-0.00184746
-0.00184644
-0.0018447
-0.00182637
-0.00178992
-0.00172901
-0.00163369
-0.00148982
-0.00127739
-0.00096839
-0.000524086
0.000107843
0.000991079
0.00218122
0.00375362
0.00571439
0.00793762
0.00980906
0.0101997
-0.00223122
-0.00232033
-0.00232882
-0.00234662
-0.00235821
-0.00236425
-0.00236052
-0.00233935
-0.00228913
-0.00219255
-0.00202415
-0.00174628
-0.00130335
-0.00061927
0.000394188
0.00184105
0.00399509
0.00708657
0.0102731
0.0119221
-0.00274025
-0.00284103
-0.00285594
-0.00289201
-0.00293463
-0.00298775
-0.00305056
-0.00311979
-0.00318959
-0.00325059
-0.00328868
-0.00328389
-0.00320936
-0.00303461
-0.00274473
-0.00227533
-0.00118539
0.00194813
0.00662204
0.011295
-0.00329912
-0.00341237
-0.00342774
-0.00347691
-0.00354609
-0.0036446
-0.00377695
-0.00394641
-0.0041562
-0.00441124
-0.00472034
-0.00510206
-0.00560011
-0.00632886
-0.00756165
-0.00950052
-0.0113196
-0.00934797
-0.00377116
0.00492482
-0.00390652
-0.00402053
-0.00401622
-0.00406394
-0.00415217
-0.00429342
-0.0044947
-0.00476522
-0.00511957
-0.00558037
-0.00618741
-0.00701636
-0.00822045
-0.0101072
-0.0133305
-0.0182598
-0.0242351
-0.0243577
-0.0189105
-0.00632583
-0.00459809
-0.00473385
-0.00469716
-0.00473606
-0.00481799
-0.00497106
-0.00521013
-0.00555361
-0.0060264
-0.00666689
-0.00754235
-0.00877312
-0.010605
-0.013467
-0.0182603
-0.0251945
-0.0344029
-0.0365971
-0.0327508
-0.0169856
-0.00546582
-0.0053913
-0.00524331
-0.00518421
-0.00524312
-0.00542087
-0.00571776
-0.00614219
-0.0067185
-0.00748997
-0.00853604
-0.00999176
-0.012163
-0.0154294
-0.0209215
-0.028213
-0.0385242
-0.0410797
-0.0389674
-0.0187254
-0.00597173
-0.0064264
-0.00614862
-0.00615812
-0.00612946
-0.0062146
-0.00642636
-0.00679232
-0.00734119
-0.00810893
-0.00917308
-0.0106375
-0.0128549
-0.0159811
-0.0213226
-0.0278803
-0.0364347
-0.0381506
-0.034249
-0.00475348
-0.00949519
-0.00694432
-0.0063178
-0.00573007
-0.0056598
-0.00583097
-0.00618601
-0.00667923
-0.00732439
-0.00813482
-0.00920819
-0.0105784
-0.0126072
-0.0154038
-0.019792
-0.0246622
-0.0300211
-0.0284055
-0.0184312
0.0277021
-0.00599733
-0.00906255
-0.0081202
-0.00820699
-0.0077906
-0.00756422
-0.00750796
-0.00765271
-0.00802659
-0.00861017
-0.0094856
-0.0106571
-0.0125298
-0.0150494
-0.0193483
-0.0234051
-0.0273537
-0.0174355
0.00730515
0.0855526
-0.0313831
-0.00626556
-0.00491413
-0.00421281
-0.00402812
-0.00425245
-0.00477058
-0.00538111
-0.00615811
-0.00701913
-0.00822015
-0.00957657
-0.0116188
-0.0138395
-0.0164218
-0.0161025
-0.00981017
0.0204563
0.0869364
0.220257
5.41487e-05
3.03946e-05
7.03357e-05
0.00014824
0.000271291
0.000440037
0.000655865
0.000920284
0.00123401
0.00159627
0.00200389
0.00245025
0.00292426
0.00340931
0.00388279
0.00431663
0.00467891
0.00493723
0.00508632
0.00506317
7.96411e-05
5.49329e-05
9.92314e-05
0.000176951
0.000297281
0.00046141
0.000671263
0.000928731
0.00123488
0.00158934
0.00198949
0.00242922
0.00289802
0.00338029
0.00385368
0.00429005
0.00465663
0.00492022
0.00507777
0.00505135
3.59413e-05
4.1824e-06
4.71546e-05
0.000121863
0.000238547
0.000398563
0.000604367
0.00085861
0.00116332
0.00151929
0.00192517
0.00237635
0.0028641
0.00337248
0.00387844
0.00435121
0.00475303
0.00504313
0.00521664
0.0051763
-5.60175e-05
-9.27163e-05
-5.18661e-05
1.86762e-05
0.00013025
0.000284564
0.000484886
0.000734997
0.00103841
0.00139777
0.00181387
0.00228434
0.00280232
0.00335391
0.003915
0.00445063
0.00491444
0.00525267
0.00545605
0.00540112
-0.000203519
-0.000244911
-0.000207352
-0.000142344
-3.74422e-05
0.00010953
0.000302851
0.000547752
0.00084971
0.00121394
0.00164441
0.00214227
0.0027038
0.00331785
0.00396012
0.00459088
0.00515216
0.00556904
0.00582202
0.00574663
-0.000405812
-0.000452353
-0.000419273
-0.000361543
-0.000265638
-0.000128874
5.41586e-05
0.000290368
0.000587601
0.00095434
0.00139884
0.00192742
0.00254165
0.00323625
0.00398879
0.0047553
0.00546262
0.00600453
0.006339
0.00623298
-0.000661768
-0.000714372
-0.000687134
-0.000639012
-0.000555442
-0.000433324
-0.000266155
-4.52836e-05
0.000239771
0.00060135
0.0010532
0.00160889
0.00227789
0.00306594
0.00395728
0.0049082
0.00582891
0.00657031
0.0070427
0.0068943
-0.000970292
-0.00103018
-0.00101035
-0.000974706
-0.000907782
-0.000806346
-0.000663082
-0.000467841
-0.000207624
0.00013396
0.000576971
0.00114458
0.00186041
0.00273826
0.00378758
0.00497409
0.00619797
0.00725978
0.00797772
0.00778857
-0.00132994
-0.0013985
-0.0013876
-0.00136755
-0.00132224
-0.00124884
-0.00113984
-0.0009843
-0.000767476
-0.00046964
-6.49218e-05
0.000479649
0.00120293
0.00214308
0.00334105
0.00479486
0.00642549
0.00800452
0.00917261
0.00903256
-0.00173887
-0.00181749
-0.00181657
-0.00181492
-0.0017962
-0.00175876
-0.00169591
-0.00159728
-0.00144808
-0.00122737
-0.000905803
-0.000442649
0.000217306
0.00114139
0.00239127
0.0040503
0.00613127
0.00850397
0.0104915
0.0107323
-0.00219503
-0.00228498
-0.00229384
-0.00231213
-0.00232388
-0.00232965
-0.00232494
-0.00230176
-0.00224802
-0.00214579
-0.00196873
-0.00167787
-0.00121547
-0.000502361
0.00055308
0.00206253
0.00433383
0.00763716
0.0110101
0.0125116
-0.00269684
-0.00279859
-0.00281422
-0.00285136
-0.00289491
-0.00294877
-0.00301197
-0.00308109
-0.00315017
-0.00320984
-0.00324623
-0.00324013
-0.0031664
-0.00299887
-0.00273458
-0.00231845
-0.00126404
0.00208576
0.00709079
0.0117021
-0.00324609
-0.00336054
-0.00337714
-0.00342816
-0.00349922
-0.0035997
-0.00373407
-0.00390575
-0.00411835
-0.00437772
-0.00469474
-0.00509239
-0.00562343
-0.00642242
-0.00781528
-0.0100541
-0.0122496
-0.0101196
-0.0041478
0.00479799
-0.00384049
-0.00395591
-0.00395338
-0.00400381
-0.00409499
-0.00423956
-0.00444458
-0.00471964
-0.0050802
-0.00555078
-0.00617525
-0.00703822
-0.00831104
-0.0103385
-0.0138765
-0.0193791
-0.0261756
-0.0262549
-0.0203519
-0.00720427
-0.00451581
-0.0046535
-0.00461905
-0.00466188
-0.00474789
-0.00490549
-0.00514967
-0.0054993
-0.00598041
-0.0066338
-0.00753169
-0.00880502
-0.010725
-0.0137611
-0.018947
-0.0265223
-0.0366243
-0.0387171
-0.0343496
-0.0181043
-0.00535966
-0.00528781
-0.00514329
-0.00508938
-0.00515335
-0.00533675
-0.0056399
-0.00607149
-0.00665671
-0.00744064
-0.00850684
-0.00999784
-0.0122458
-0.0156512
-0.0214681
-0.0292036
-0.040207
-0.0421456
-0.0396181
-0.0191026
-0.00584824
-0.00630773
-0.0060284
-0.00604435
-0.00602061
-0.0061115
-0.00632911
-0.00670109
-0.0072569
-0.00803324
-0.0091101
-0.010593
-0.0128546
-0.0160533
-0.0215692
-0.0283243
-0.0368346
-0.0380953
-0.0338281
-0.00412489
-0.00931995
-0.0067839
-0.00616541
-0.00558765
-0.00552195
-0.00569806
-0.00605861
-0.00655759
-0.00720898
-0.00802539
-0.00910503
-0.0104812
-0.0125229
-0.0153372
-0.0197684
-0.0245928
-0.029796
-0.0276722
-0.0174396
0.02906
-0.00586683
-0.0089371
-0.00797321
-0.00806386
-0.00764471
-0.00741806
-0.0073632
-0.00750893
-0.00788672
-0.0084722
-0.00935236
-0.0105266
-0.0124171
-0.0149411
-0.0192944
-0.0233123
-0.0270924
-0.0165788
0.00868762
0.0873805
-0.0311992
-0.00608738
-0.00472891
-0.00402589
-0.00384619
-0.00407646
-0.00460224
-0.0052178
-0.0060024
-0.00686649
-0.00807704
-0.00943392
-0.0114922
-0.0137077
-0.0162826
-0.0158419
-0.00931225
0.0215565
0.0886473
0.222442
6.38316e-05
4.00857e-05
8.02096e-05
0.000158492
0.000282253
0.000452117
0.000669574
0.000936246
0.00125297
0.00161909
0.00203152
0.00248367
0.00296438
0.00345681
0.00393795
0.00437915
0.00474774
0.00501052
0.00516207
0.00513836
8.95839e-05
6.48266e-05
0.000109312
0.000187419
0.000308472
0.000473733
0.000685232
0.000944979
0.00125416
0.00161257
0.00201764
0.00246333
0.0029391
0.00342911
0.00391062
0.00435485
0.00472822
0.00499667
0.00515696
0.00513016
4.66297e-05
1.4816e-05
5.79893e-05
0.000133104
0.000250547
0.000411753
0.000619298
0.000875972
0.00118396
0.00154423
0.00195557
0.0024135
0.00290926
0.00342671
0.00394238
0.00442476
0.00483503
0.00513123
0.00530817
0.00526706
-4.42444e-05
-8.10016e-05
-3.99308e-05
3.10485e-05
0.000143437
0.000299034
0.00050125
0.000754039
0.00106112
0.00142537
0.00184781
0.00232624
0.00285397
0.00341688
0.0039904
0.00453866
0.00501383
0.00536035
0.00556844
0.00551194
-0.000190402
-0.000231853
-0.000194054
-0.000128572
-2.27859e-05
0.000125591
0.000321009
0.00056892
0.000875067
0.00124499
0.00168299
0.00219056
0.00276427
0.00339286
0.00405162
0.00469969
0.00527705
0.00570584
0.00596564
0.00588688
-0.000391091
-0.000437691
-0.000404356
-0.000346124
-0.000249268
-0.000110976
7.43673e-05
0.000313944
0.000615951
0.000989299
0.00144275
0.00198318
0.00261266
0.00332611
0.00410078
0.00489143
0.00562209
0.00618178
0.00652666
0.00641333
-0.000645148
-0.000697812
-0.000670323
-0.000621695
-0.000537142
-0.000413419
-0.000243777
-1.92371e-05
0.000271118
0.000640196
0.00110246
0.00167235
0.00236026
0.00317216
0.00409289
0.00507746
0.00603241
0.00680118
0.00729027