/*--------------------------------*- C++ -*----------------------------------*\
  =========                 |
  \\      /  F ield         | OpenFOAM: The Open Source CFD Toolbox
   \\    /   O peration     | Website:  https://openfoam.org
    \\  /    A nd           | Version:  10
     \\/     M anipulation  |
\*---------------------------------------------------------------------------*/
FoamFile
{
    format      ascii;
    class       volVectorField;
    location    "6.8";
    object      U;
}
// * * * * * * * * * * * * * * * * * * * * * * * * * * * * * * * * * * * * * //

dimensions      [0 1 -1 0 0 0 0];

internalField   nonuniform List<vector> 
8000
(
(-6.45019e-05 8.4318e-05 -2.79826e-05)
(-0.000470794 0.000185209 8.85141e-06)
(-0.00114504 0.000217176 2.51618e-05)
(-0.00183222 0.000229063 3.27099e-05)
(-0.00254665 0.000237327 3.30264e-05)
(-0.00326509 0.000246254 2.88812e-05)
(-0.00397661 0.000254722 2.11117e-05)
(-0.00466784 0.000259903 9.06113e-06)
(-0.00531821 0.000258961 -7.37519e-06)
(-0.00589831 0.000248496 -2.88636e-05)
(-0.00636976 0.000224857 -5.61676e-05)
(-0.00668544 0.000184814 -8.97757e-05)
(-0.00679201 0.000126814 -0.000129457)
(-0.00663433 4.99446e-05 -0.000173842)
(-0.00616343 -4.49221e-05 -0.00021951)
(-0.00535177 -0.00014861 -0.00026183)
(-0.00421295 -0.000245423 -0.000291111)
(-0.00284937 -0.000309906 -0.000294072)
(-0.00130502 -0.000304643 -0.000260694)
(-0.000238803 -0.000137198 -0.000132679)
(-0.000160621 0.000570107 -9.68712e-05)
(-0.00088652 0.00100992 -7.3215e-05)
(-0.00200439 0.00115082 -5.96527e-05)
(-0.00313902 0.00119482 -4.94274e-05)
(-0.0043055 0.00120955 -4.51729e-05)
(-0.00546473 0.00121369 -4.47813e-05)
(-0.00659526 0.00120593 -4.738e-05)
(-0.00767289 0.00117819 -5.3494e-05)
(-0.00866461 0.0011205 -6.40122e-05)
(-0.00952666 0.00102129 -8.0098e-05)
(-0.0102032 0.000868458 -0.000103005)
(-0.0106265 0.000650991 -0.00013374)
(-0.0107224 0.000361141 -0.000172487)
(-0.0104173 4.52897e-07 -0.000220099)
(-0.00964246 -0.000415477 -0.000269529)
(-0.00835887 -0.000852679 -0.000315405)
(-0.00659037 -0.00125007 -0.000345207)
(-0.00448437 -0.00150878 -0.000342563)
(-0.00211065 -0.0014815 -0.000294354)
(-0.000422166 -0.000819197 -0.000119683)
(-0.000190729 0.00138108 -0.00013386)
(-0.00103284 0.00230627 -0.00011706)
(-0.00231524 0.00259838 -0.000104808)
(-0.00360843 0.00267813 -9.29056e-05)
(-0.00493314 0.00268648 -8.60334e-05)
(-0.00624631 0.00266273 -8.24946e-05)
(-0.00752542 0.00260722 -8.16112e-05)
(-0.00874527 0.00250702 -8.41192e-05)
(-0.00987134 0.00234385 -9.1313e-05)
(-0.0108575 0.00209639 -0.000104843)
(-0.0116444 0.00174216 -0.000126486)
(-0.0121592 0.00126069 -0.000157849)
(-0.0123158 0.000638421 -0.000200292)
(-0.01202 -0.000120952 -0.000253177)
(-0.0111847 -0.000990466 -0.000311514)
(-0.00975258 -0.00190125 -0.000367465)
(-0.00773168 -0.00273159 -0.000405119)
(-0.00528452 -0.00327864 -0.000403465)
(-0.00248595 -0.00323477 -0.000345542)
(-0.000491232 -0.00189866 -0.000133342)
(-0.000194572 0.00223413 -0.00016052)
(-0.00107448 0.00367506 -0.000149967)
(-0.00241889 0.00412064 -0.00013911)
(-0.0037714 0.00423283 -0.000126381)
(-0.0051604 0.00423349 -0.000118087)
(-0.00654355 0.00418389 -0.00011289)
(-0.00790192 0.00408628 -0.000110316)
(-0.00921393 0.00392304 -0.000111325)
(-0.0104482 0.00366791 -0.000117588)
(-0.0115607 0.00328901 -0.000131316)
(-0.012491 0.00275147 -0.000155016)
(-0.0131598 0.00202204 -0.000191165)
(-0.0134678 0.0010776 -0.000242135)
(-0.013303 -8.47674e-05 -0.000310024)
(-0.0125412 -0.00142977 -0.000385853)
(-0.0110776 -0.00286536 -0.000461637)
(-0.00888291 -0.00420293 -0.000515978)
(-0.00612294 -0.00511511 -0.000519788)
(-0.00287602 -0.00509353 -0.000449817)
(-0.000554494 -0.00301952 -0.000181915)
(-0.000188419 0.00313721 -0.000180703)
(-0.0010787 0.00513081 -0.000175827)
(-0.00245292 0.00574048 -0.000166328)
(-0.00383691 0.00588997 -0.000153407)
(-0.00526653 0.00588913 -0.000144815)
(-0.00670226 0.00582371 -0.000139527)
(-0.00813136 0.00569919 -0.000137348)
(-0.00953898 0.00549419 -0.000139567)
(-0.0109005 0.00517477 -0.000148306)
(-0.0121772 0.00469759 -0.000166463)
(-0.0133108 0.00401231 -0.0001976)
(-0.0142168 0.00306675 -0.000245533)
(-0.0147803 0.00181643 -0.000313765)
(-0.0148528 0.000241067 -0.000403921)
(-0.014265 -0.0016252 -0.000514186)
(-0.0128459 -0.00367655 -0.000626882)
(-0.0104851 -0.0056524 -0.00071437)
(-0.00733198 -0.00706743 -0.000734062)
(-0.00345859 -0.00714115 -0.000647462)
(-0.00065523 -0.00424149 -0.000285775)
(-0.000178414 0.004068 -0.000199117)
(-0.00107035 0.00664564 -0.000199884)
(-0.00246582 0.0074313 -0.000191885)
(-0.00387449 0.00762622 -0.000179244)
(-0.00533954 0.00763543 -0.000171109)
(-0.00682543 0.00757252 -0.000166797)
(-0.0083277 0.00744831 -0.000166468)
(-0.00984121 0.00723927 -0.000171889)
(-0.011352 0.00690484 -0.000185812)
(-0.0128316 0.00638994 -0.000212067)
(-0.0142287 0.00562579 -0.000255683)
(-0.0154584 0.00453403 -0.000322671)
(-0.0163907 0.00303745 -0.000418983)
(-0.0168397 0.00108048 -0.000548448)
(-0.0165719 -0.00133834 -0.000715505)
(-0.015312 -0.00411025 -0.000894426)
(-0.0128179 -0.00691033 -0.00104682)
(-0.00916728 -0.00905478 -0.0011068)
(-0.00439502 -0.00937116 -0.00100278)
(-0.00083884 -0.0055783 -0.000483523)
(-0.000165845 0.00502206 -0.00021909)
(-0.00105572 0.00821573 -0.000226135)
(-0.00246931 0.00919022 -0.000219853)
(-0.00389818 0.00943929 -0.000207624)
(-0.00539309 0.00947152 -0.000200133)
(-0.00692325 0.00943289 -0.000197144)
(-0.00849444 0.00934281 -0.000199301)
(-0.0101143 0.00917856 -0.000209024)
(-0.0117843 0.00889564 -0.000229978)
(-0.0134933 0.00842895 -0.000267396)
(-0.0152061 0.00769054 -0.000328545)
(-0.0168472 0.00656965 -0.000422955)
(-0.0182802 0.00494058 -0.000561186)
(-0.0192868 0.00268475 -0.000752116)
(-0.0195583 -0.000265442 -0.00101311)
(-0.018677 -0.00382645 -0.00131166)
(-0.0161915 -0.00767312 -0.00159395)
(-0.0119871 -0.01089 -0.00175652)
(-0.00597508 -0.0117352 -0.00165549)
(-0.00120824 -0.00707686 -0.000874586)
(-0.000150686 0.00600088 -0.000242514)
(-0.00103577 0.00984581 -0.000256984)
(-0.0024644 0.011021 -0.000252522)
(-0.0039056 0.01133 -0.00024038)
(-0.00541818 0.0113953 -0.00023308)
(-0.00697635 0.0114012 -0.000231024)
(-0.00859775 0.0113804 -0.000235494)
(-0.0103059 0.011316 -0.000249754)
(-0.0121226 0.0111652 -0.000278716)
(-0.0140624 0.0108584 -0.000329636)
(-0.0161195 0.010293 -0.000413193)
(-0.0182477 0.00932675 -0.000544649)
(-0.0203271 0.00777555 -0.000743917)
(-0.0221229 0.00542916 -0.00103346)
(-0.0232369 0.00210296 -0.00143012)
(-0.023121 -0.00225112 -0.00195055)
(-0.0210287 -0.00731252 -0.0024947)
(-0.0164007 -0.0120684 -0.00291384)
(-0.00882839 -0.0139811 -0.00290763)
(-0.00203126 -0.0087992 -0.00171477)
(-0.000133578 0.00700917 -0.000270959)
(-0.00101299 0.0115442 -0.000294482)
(-0.00245356 0.0129279 -0.000291737)
(-0.00389473 0.0132952 -0.00027877)
(-0.00540422 0.0133956 -0.00027044)
(-0.00696074 0.0134588 -0.000268017)
(-0.00859444 0.0135371 -0.000273624)
(-0.0103467 0.0136264 -0.000291576)
(-0.012264 0.0136949 -0.000328338)
(-0.0143943 0.0136803 -0.000393794)
(-0.0167761 0.0134787 -0.000503355)
(-0.0194173 0.0129292 -0.000680803)
(-0.0222542 0.0117978 -0.000960843)
(-0.0250869 0.00977109 -0.00138782)
(-0.0275045 0.00648881 -0.00200702)
(-0.0287709 0.0016577 -0.00287102)
(-0.0278428 -0.00463342 -0.0039472)
(-0.0234255 -0.0113652 -0.00496753)
(-0.0142812 -0.0153632 -0.00536572)
(-0.00396079 -0.0108139 -0.0036763)
(-0.000117052 0.00805777 -0.000306492)
(-0.000995452 0.0133258 -0.000341207)
(-0.0024476 0.014917 -0.000339759)
(-0.00387285 0.0153278 -0.000324269)
(-0.00534975 0.0154507 -0.000312682)
(-0.00686043 0.0155693 -0.000307427)
(-0.00844683 0.0157622 -0.000311689)
(-0.0101676 0.0160468 -0.000330971)
(-0.0120944 0.0164143 -0.000373518)
(-0.0143133 0.0168281 -0.000452367)
(-0.0169192 0.0172098 -0.000588921)
(-0.0200005 0.0174155 -0.000818542)
(-0.0236016 0.0172005 -0.00119721)
(-0.0276505 0.0161809 -0.00180572)
(-0.0318376 0.0138164 -0.00274035)
(-0.0354562 0.00946125 -0.00409185)
(-0.0371026 0.0025477 -0.00599281)
(-0.0344325 -0.00657001 -0.00822698)
(-0.0246493 -0.0144682 -0.00968554)
(-0.00829619 -0.0133022 -0.00780523)
(-0.000107149 0.00917022 -0.000352584)
(-0.00100141 0.0152183 -0.000401184)
(-0.00247235 0.0170008 -0.000400112)
(-0.00386439 0.0174192 -0.000379274)
(-0.00527142 0.0175291 -0.000360841)
(-0.00667787 0.0176772 -0.00034877)
(-0.00813536 0.0179744 -0.00034753)
(-0.00971596 0.0184679 -0.00036383)
(-0.0115108 0.0191852 -0.00040761)
(-0.0136375 0.0201379 -0.000494892)
(-0.0162454 0.0213096 -0.000653254)
(-0.0195172 0.0226315 -0.000930317)
(-0.0236548 0.0239371 -0.00140328)
(-0.0288297 0.0248909 -0.00218811)
(-0.0350876 0.0248815 -0.00343463)
(-0.0421123 0.0228136 -0.00531517)
(-0.0485016 0.0168879 -0.00799184)
(-0.0502343 0.00500553 -0.0113146)
(-0.0418099 -0.0108505 -0.0140638)
(-0.01639 -0.0188291 -0.0134624)
(-0.000116563 0.0103957 -0.000415688)
(-0.00106633 0.0172755 -0.000481775)
(-0.00257715 0.0192078 -0.000479726)
(-0.00391989 0.019567 -0.000449058)
(-0.00521364 0.0195951 -0.000418008)
(-0.00644546 0.0197122 -0.000392987)
(-0.00767438 0.0200652 -0.000379983)
(-0.00897756 0.020735 -0.000386709)
(-0.0104517 0.0217967 -0.000424415)
(-0.012227 0.023332 -0.000510991)
(-0.0144834 0.0254274 -0.000677545)
(-0.0174726 0.0281588 -0.000976685)
(-0.0215471 0.0315568 -0.00148466)
(-0.0271885 0.0354917 -0.0022856)
(-0.0350506 0.0393802 -0.00342039)
(-0.0457439 0.0412883 -0.00484662)
(-0.0585339 0.0367147 -0.00657219)
(-0.0681518 0.0177167 -0.00826458)
(-0.0649965 -0.0155342 -0.0097621)
(-0.0278659 -0.0386566 -0.0130494)
(-0.000170589 0.0118166 -0.000506959)
(-0.00125427 0.0195642 -0.000591717)
(-0.00284612 0.0215514 -0.000583037)
(-0.00412624 0.0217376 -0.00053424)
(-0.00525905 0.0215812 -0.000482829)
(-0.00623714 0.0215742 -0.000437972)
(-0.00712721 0.0218897 -0.000406268)
(-0.00799988 0.0226401 -0.000395063)
(-0.00893354 0.0239488 -0.00041617)
(-0.0100342 0.0259746 -0.000486339)
(-0.0114602 0.0289304 -0.000631984)
(-0.0134595 0.0330784 -0.00088959)
(-0.0164611 0.0387192 -0.00127416)
(-0.0212388 0.0459277 -0.00166039)
(-0.0293339 0.0538949 -0.00159466)
(-0.0430488 0.0586 -0.000153512)
(-0.0651482 0.0511295 0.00316991)
(-0.0894071 0.015624 0.0079598)
(-0.09193 -0.0473434 0.0118689)
(-0.0371522 -0.0871555 -0.00145482)
(-0.000331793 0.0136412 -0.000660969)
(-0.00170445 0.0223575 -0.000781496)
(-0.00343059 0.0243048 -0.000769383)
(-0.00461388 0.0241787 -0.000691634)
(-0.00551814 0.0236625 -0.000599607)
(-0.00616106 0.0233423 -0.000512476)
(-0.00661326 0.0234274 -0.000442214)
(-0.00692006 0.0240562 -0.000398908)
(-0.00711835 0.0253884 -0.000391552)
(-0.00724679 0.0276407 -0.00043121)
(-0.00737848 0.0311383 -0.000529361)
(-0.00765541 0.0362879 -0.000671863)
(-0.00850982 0.0436248 -0.000731645)
(-0.0110084 0.0531553 -0.000157149)
(-0.0183149 0.0637401 0.00238298)
(-0.0361757 0.0683991 0.0090189)
(-0.0737325 0.0529406 0.020971)
(-0.114799 -0.0152723 0.0348607)
(-0.115449 -0.126517 0.0354407)
(-0.0423808 -0.169482 0.00484394)
(-0.000647462 0.0163283 -0.000893111)
(-0.00246963 0.025449 -0.000993811)
(-0.0044219 0.0268356 -0.00094533)
(-0.00554405 0.0259734 -0.000806949)
(-0.00622386 0.0249325 -0.000666584)
(-0.00647246 0.0242621 -0.00053849)
(-0.00638889 0.0240974 -0.000433368)
(-0.00600419 0.0245172 -0.00035851)
(-0.00530403 0.025664 -0.000322007)
(-0.00422373 0.0277574 -0.00032645)
(-0.00271217 0.0311757 -0.000363867)
(-0.000704468 0.0364054 -0.000350687)
(0.00135415 0.0441455 6.98066e-06)
(0.00243382 0.0542848 0.00175208)
(-0.00285246 0.0656615 0.00698311)
(-0.0236393 0.0683683 0.019127)
(-0.0753054 0.0377274 0.0378888)
(-0.123286 -0.0793849 0.0490705)
(-0.1272 -0.221054 0.0305633)
(-0.049074 -0.2615 -0.00826433)
(-0.00199318 0.0190615 -0.00142348)
(-0.00510056 0.0305274 -0.00163822)
(-0.00677545 0.0315147 -0.00152387)
(-0.00738714 0.0301097 -0.00128443)
(-0.0073685 0.0281345 -0.00100917)
(-0.00696859 0.0265056 -0.000752058)
(-0.00626437 0.0254276 -0.000537778)
(-0.00520198 0.0249936 -0.00037808)
(-0.00366618 0.0253308 -0.000282963)
(-0.00145381 0.0265761 -0.000246375)
(0.00166774 0.0291095 -0.000242454)
(0.00607716 0.0332892 -0.000162792)
(0.0114143 0.0399032 0.000417053)
(0.0172035 0.0487412 0.0026192)
(0.0172198 0.0596265 0.00941782)
(0.00437397 0.0599701 0.0235977)
(-0.045356 0.0157628 0.0421745)
(-0.0896165 -0.128603 0.0410643)
(-0.123411 -0.270319 0.0142293)
(-0.0499229 -0.339915 -0.0281777)
(-0.00131482 0.030621 -0.00245594)
(-0.00506984 0.0344102 -0.00231339)
(-0.00879288 0.0328635 -0.00203336)
(-0.00958243 0.0290206 -0.00148785)
(-0.0096683 0.0262634 -0.00105621)
(-0.00871291 0.024343 -0.000676084)
(-0.0071613 0.0231137 -0.000373567)
(-0.00505525 0.0224046 -0.000156981)
(-0.00236808 0.0222745 -4.62364e-05)
(0.00119438 0.0227169 -2.60859e-05)
(0.00589759 0.0240977 -9.93058e-05)
(0.0124501 0.026455 -0.000158974)
(0.0205746 0.0305027 0.000244905)
(0.0314406 0.0356815 0.00189598)
(0.0384553 0.0426963 0.00756934)
(0.0449113 0.041743 0.0193267)
(0.00979752 -0.0014842 0.0329926)
(-0.026657 -0.132919 0.030495)
(-0.0997343 -0.283608 0.00845045)
(-0.0375527 -0.39076 -0.0456571)
(-0.0126476 0.0281926 -0.00324182)
(-0.0213925 0.0493584 -0.00399356)
(-0.0156505 0.0451481 -0.00372878)
(-0.01428 0.0402577 -0.00301246)
(-0.0105209 0.0344465 -0.00206473)
(-0.00649391 0.0296995 -0.00123016)
(-0.00228914 0.0260196 -0.000577758)
(0.00215505 0.0232195 -0.000122875)
(0.00683199 0.0212773 0.000114679)
(0.0122802 0.0199268 0.000135636)
(0.0184036 0.01937 -4.08608e-05)
(0.0264831 0.0192737 -0.000414789)
(0.0354445 0.0202816 -0.000556829)
(0.0485358 0.0211915 5.60436e-05)
(0.0571258 0.0230816 0.00300192)
(0.0747296 0.019935 0.0104164)
(0.0566528 -0.00847917 0.0189983)
(0.0511892 -0.110498 0.0223561)
(-0.0520481 -0.268756 0.00199904)
(-0.0149438 -0.403134 -0.0574517)
(-0.0465227 0.0880307 -0.0124696)
(-0.0298152 0.0403919 -0.00872173)
(-0.0205966 0.0341028 -0.00644893)
(-0.00167551 0.0270443 -0.00431607)
(0.0141736 0.0206818 -0.00285831)
(0.0298577 0.0164324 -0.00173633)
(0.0433931 0.0137285 -0.000895637)
(0.0559719 0.0116793 -0.000313106)
(0.0665594 0.0103875 5.16337e-05)
(0.0775505 0.00920159 0.000161798)
(0.0862587 0.00883595 2.85342e-05)
(0.0980279 0.00815855 -0.000386953)
(0.105639 0.0083685 -0.000868102)
(0.122806 0.0071218 -0.00122893)
(0.125556 0.00481302 -0.000765422)
(0.154686 -0.00453557 0.00263658)
(0.13243 -0.0293464 0.00702025)
(0.160552 -0.101107 0.0119027)
(0.034207 -0.238399 -0.00216241)
(0.0342326 -0.368482 -0.0667521)
(0.117588 0.112209 -0.01122)
(0.144206 0.0598264 -0.0118377)
(0.216169 0.0394738 -0.0116348)
(0.260858 0.0262144 -0.0104046)
(0.293394 0.0173813 -0.00893217)
(0.320778 0.0114216 -0.00764906)
(0.341169 0.00771352 -0.0065086)
(0.36052 0.00516744 -0.00556862)
(0.372956 0.00372328 -0.00470751)
(0.389123 0.00254195 -0.00409999)
(0.39557 0.00207132 -0.00356645)
(0.412695 0.00153519 -0.00324152)
(0.412515 0.00142908 -0.00312121)
(0.434875 0.00100179 -0.00283546)
(0.422845 -1.19703e-05 -0.0028298)
(0.451255 -0.00331063 -0.00196406)
(0.407596 -0.0118553 -0.0013878)
(0.421334 -0.0325257 -0.00112245)
(0.251434 -0.073033 -0.00894581)
(0.165899 -0.138681 -0.0770794)
(-0.000111351 0.000128743 -8.84406e-05)
(-0.000808422 0.000338334 -4.43129e-05)
(-0.00196453 0.000408624 -1.82382e-05)
(-0.00312897 0.000427547 -4.20691e-06)
(-0.00431441 0.000432456 -4.00915e-06)
(-0.00548409 0.000434612 -1.3843e-05)
(-0.00662016 0.000433634 -3.23661e-05)
(-0.0076997 0.000425888 -6.0585e-05)
(-0.00868968 0.000406381 -9.97968e-05)
(-0.00954628 0.000369784 -0.000151794)
(-0.0102135 0.000310643 -0.000218263)
(-0.0106243 0.00022425 -0.00030011)
(-0.010704 0.00010832 -0.0003966)
(-0.0103767 -3.98354e-05 -0.000503923)
(-0.00957801 -0.000213484 -0.000613938)
(-0.00827234 -0.00039713 -0.000714188)
(-0.00648007 -0.000561774 -0.000784073)
(-0.00434913 -0.00065747 -0.000797214)
(-0.0019619 -0.000603495 -0.00073018)
(-0.000347095 -0.000238486 -0.000441897)
(-0.00033434 0.000907235 -0.000225606)
(-0.00173266 0.00179826 -0.000213531)
(-0.00384109 0.00209493 -0.000191175)
(-0.00596001 0.00216197 -0.000170171)
(-0.00809185 0.00215047 -0.000161559)
(-0.0101646 0.00210655 -0.000163089)
(-0.0121366 0.0020326 -0.00017391)
(-0.0139628 0.00191758 -0.000195574)
(-0.0155863 0.00174577 -0.000230533)
(-0.016936 0.00149983 -0.000281651)
(-0.0179257 0.00116233 -0.000351645)
(-0.0184554 0.000718337 -0.000442347)
(-0.0184212 0.000158773 -0.000553588)
(-0.0177175 -0.000509867 -0.00068253)
(-0.0162544 -0.00125708 -0.000815605)
(-0.0139905 -0.00202058 -0.000937191)
(-0.0109715 -0.00268733 -0.00101926)
(-0.0074234 -0.00306474 -0.00102709)
(-0.00348465 -0.00284406 -0.000925853)
(-0.000703448 -0.00141461 -0.00051432)
(-0.000422111 0.00222647 -0.000303475)
(-0.00211722 0.00408265 -0.000311535)
(-0.00462946 0.00468795 -0.000292062)
(-0.0071367 0.00480442 -0.000266794)
(-0.00964569 0.00474314 -0.000252191)
(-0.0120737 0.0045985 -0.000247091)
(-0.0143735 0.00437932 -0.00025128)
(-0.0164959 0.0040676 -0.000267063)
(-0.0183788 0.00363623 -0.000297898)
(-0.0199455 0.00305409 -0.000347836)
(-0.0211028 0.0022896 -0.000420904)
(-0.0217421 0.00131601 -0.000520365)
(-0.0217401 0.000119031 -0.000648021)
(-0.0209657 -0.00128686 -0.000798918)
(-0.0193052 -0.00284525 -0.000961511)
(-0.0166903 -0.00443161 -0.00111485)
(-0.0131497 -0.00581898 -0.00122273)
(-0.00893516 -0.00661369 -0.0012388)
(-0.0042031 -0.00618272 -0.00111632)
(-0.000846909 -0.00329464 -0.000607715)
(-0.000448878 0.0036168 -0.000364118)
(-0.00226563 0.00649772 -0.000390732)
(-0.00495597 0.00741641 -0.000374699)
(-0.0076326 0.00757434 -0.000347172)
(-0.0103128 0.00745712 -0.000329049)
(-0.0129134 0.00721003 -0.000320152)
(-0.0153913 0.00684874 -0.000320984)
(-0.0177013 0.00634875 -0.000334719)
(-0.0197849 0.00567113 -0.000365978)
(-0.0215673 0.00476931 -0.000420395)
(-0.0229523 0.00359394 -0.000503959)
(-0.0238208 0.00210087 -0.00062224)
(-0.0240306 0.000264617 -0.000779363)
(-0.0234172 -0.00190562 -0.000976108)
(-0.0218105 -0.00433931 -0.00119333)
(-0.0190765 -0.00685434 -0.00140718)
(-0.0151865 -0.00909727 -0.00156753)
(-0.0103982 -0.0104313 -0.00160736)
(-0.00488577 -0.00981843 -0.00145906)
(-0.000964544 -0.00529354 -0.000800382)
(-0.000454604 0.00508455 -0.000414659)
(-0.00233449 0.00905908 -0.000458793)
(-0.00513343 0.0103096 -0.000446378)
(-0.00791892 0.0105147 -0.000418087)
(-0.0107195 0.0103483 -0.000398888)
(-0.0134558 0.010011 -0.000389579)
(-0.0160938 0.00952691 -0.000391525)
(-0.018598 0.00886576 -0.000409011)
(-0.0209192 0.00797635 -0.000448173)
(-0.0229893 0.00679405 -0.000516807)
(-0.0247129 0.00524575 -0.000623938)
(-0.0259601 0.00325883 -0.000778605)
(-0.0265597 0.000777761 -0.000987822)
(-0.0262988 -0.00220829 -0.00125828)
(-0.0249271 -0.00563324 -0.0015743)
(-0.0221992 -0.00926729 -0.00189798)
(-0.0179726 -0.0126108 -0.00216024)
(-0.0124724 -0.0147114 -0.00225639)
(-0.00588377 -0.0139839 -0.0020712)
(-0.00114279 -0.0075573 -0.001153)
(-0.000455617 0.0066017 -0.000463772)
(-0.00238762 0.0117323 -0.000525908)
(-0.00528516 0.0133361 -0.000517513)
(-0.00817356 0.0135994 -0.000489443)
(-0.0110925 0.0133991 -0.00047074)
(-0.0139689 0.0129966 -0.000463299)
(-0.0167817 0.0124272 -0.00046957)
(-0.0195102 0.0116565 -0.000495298)
(-0.0221205 0.0106212 -0.000548669)
(-0.0245587 0.0092363 -0.000640508)
(-0.0267373 0.00739789 -0.000784345)
(-0.0285214 0.00499102 -0.000995506)
(-0.0297117 0.0019086 -0.00128945)
(-0.0300375 -0.00191425 -0.00167778)
(-0.0291382 -0.00645575 -0.00215636)
(-0.0265977 -0.0114636 -0.00267347)
(-0.0220731 -0.0162809 -0.00312971)
(-0.0156634 -0.0195425 -0.00335349)
(-0.00751584 -0.0188748 -0.00312601)
(-0.0014675 -0.0102276 -0.00175987)
(-0.000456199 0.00816827 -0.000518239)
(-0.00244405 0.0145208 -0.000600648)
(-0.00544752 0.0165014 -0.000596724)
(-0.00844449 0.0168352 -0.000568965)
(-0.0114866 0.0166188 -0.000550929)
(-0.0145088 0.0161817 -0.000545889)
(-0.0175066 0.0155749 -0.000557706)
(-0.0204799 0.0147633 -0.000594049)
(-0.0234184 0.0136737 -0.000665922)
(-0.0262934 0.0122004 -0.000788515)
(-0.0290397 0.0102031 -0.000982194)
(-0.0315321 0.00750978 -0.00127282)
(-0.0335549 0.00393096 -0.00169008)
(-0.0347873 -0.000701373 -0.00225957)
(-0.0347391 -0.00644524 -0.00300171)
(-0.0327553 -0.0131167 -0.0038587)
(-0.0281677 -0.0199332 -0.00468995)
(-0.0207422 -0.0250233 -0.00521035)
(-0.0104081 -0.0248402 -0.00497464)
(-0.00214181 -0.0136644 -0.00283246)
(-0.000456978 0.00979256 -0.000582684)
(-0.00250829 0.017441 -0.000689117)
(-0.00562819 0.0198213 -0.000689799)
(-0.00873682 0.0202339 -0.00066127)
(-0.011899 0.0200156 -0.000642461)
(-0.015059 0.0195738 -0.000638418)
(-0.0182328 0.0189816 -0.000654806)
(-0.0214467 0.0182095 -0.000701723)
(-0.0247241 0.0171807 -0.000793855)
(-0.0280763 0.0157733 -0.000952387)
(-0.0314832 0.0138115 -0.00120762)
(-0.0348611 0.0110571 -0.00160156)
(-0.0380157 0.00721007 -0.00218679)
(-0.0405804 0.00194221 -0.00301852)
(-0.0419693 -0.00498694 -0.00417231)
(-0.0412836 -0.0135806 -0.00562911)
(-0.0373565 -0.0230597 -0.00718174)
(-0.0292231 -0.0310841 -0.0083809)
(-0.016094 -0.0324572 -0.00830261)
(-0.00373949 -0.0187944 -0.00486747)
(-0.000459116 0.0114859 -0.000661487)
(-0.00258489 0.0205129 -0.000797154)
(-0.00583246 0.0233105 -0.000802021)
(-0.00904954 0.0238 -0.000770178)
(-0.012316 0.0235837 -0.000747206)
(-0.0155859 0.0231588 -0.000740407)
(-0.0188982 0.0226294 -0.000757662)
(-0.0223117 0.0219813 -0.000811954)
(-0.0258932 0.0211457 -0.000922397)
(-0.0297114 0.0199977 -0.00111774)
(-0.0338195 0.0183377 -0.00144175)
(-0.0382213 0.0158663 -0.00196031)
(-0.04281 0.012162 -0.00276744)
(-0.0472751 0.00668691 -0.00398687)
(-0.0510253 -0.00112391 -0.00574021)
(-0.0529897 -0.0115872 -0.00812947)
(-0.0514534 -0.0243747 -0.0109959)
(-0.0440524 -0.0370985 -0.0135569)
(-0.0280771 -0.0427742 -0.0140555)
(-0.00773216 -0.0279141 -0.00895171)
(-0.000466392 0.0132667 -0.000760423)
(-0.0026857 0.0237638 -0.000932173)
(-0.00607595 0.0269843 -0.000939963)
(-0.00939211 0.0275305 -0.000900344)
(-0.0127326 0.027301 -0.000867347)
(-0.0160607 0.0268969 -0.00085109)
(-0.0194401 0.0264638 -0.000862049)
(-0.0229646 0.0260153 -0.000916279)
(-0.0267512 0.0255081 -0.00103767)
(-0.0309417 0.0248384 -0.00126357)
(-0.0356942 0.0238136 -0.00165404)
(-0.0411592 0.0221082 -0.00230582)
(-0.0474246 0.0192085 -0.00336892)
(-0.0544139 0.0143677 -0.00505173)
(-0.0617455 0.00663161 -0.00759681)
(-0.0686083 -0.00500571 -0.0112326)
(-0.0728388 -0.0213513 -0.0157795)
(-0.069463 -0.0416803 -0.0200086)
(-0.0515044 -0.058239 -0.0211619)
(-0.0163142 -0.0468764 -0.0157883)
(-0.000487466 0.0151682 -0.000888528)
(-0.00283638 0.0272348 -0.00110511)
(-0.00639446 0.0308618 -0.00111323)
(-0.00979624 0.0314151 -0.00105874)
(-0.0131659 0.0311272 -0.00100666)
(-0.0164754 0.0307181 -0.000970583)
(-0.0198125 0.0303852 -0.000963838)
(-0.0233044 0.0301838 -0.00100528)
(-0.0271171 0.0301174 -0.00112289)
(-0.0314687 0.0301369 -0.00136156)
(-0.0366417 0.0301088 -0.00179659)
(-0.042989 0.0297587 -0.0025551)
(-0.0509226 0.0285926 -0.00384181)
(-0.0608734 0.0258013 -0.0059451)
(-0.0732097 0.0201102 -0.00914768)
(-0.0877535 0.00928888 -0.0134082)
(-0.101674 -0.0108048 -0.0177557)
(-0.105494 -0.0452462 -0.019676)
(-0.0856694 -0.0871299 -0.0190056)
(-0.028371 -0.0893071 -0.0203865)
(-0.000540247 0.0172549 -0.00106126)
(-0.00308658 0.0310033 -0.0013347)
(-0.00685624 0.0349879 -0.00133961)
(-0.0103281 0.0354566 -0.00125956)
(-0.0136682 0.0350188 -0.00117439)
(-0.016858 0.0345317 -0.00110296)
(-0.0200073 0.0342536 -0.00106187)
(-0.0232686 0.0342931 -0.00107196)
(-0.0268431 0.034722 -0.00116336)
(-0.0310104 0.0355871 -0.00138437)
(-0.0361672 0.0368861 -0.00181664)
(-0.0428753 0.0385151 -0.00259505)
(-0.0519265 0.0401901 -0.00391146)
(-0.0644264 0.0412631 -0.00591056)
(-0.0817869 0.0400172 -0.00828514)
(-0.104589 0.0314059 -0.0093495)
(-0.127978 0.00345657 -0.00530839)
(-0.137233 -0.0599021 0.00540635)
(-0.114828 -0.144866 0.00931543)
(-0.0357356 -0.167251 -0.0120465)
(-0.000656086 0.0196134 -0.0013028)
(-0.00351499 0.0351108 -0.00164028)
(-0.00757056 0.0393082 -0.0016283)
(-0.0111032 0.0395318 -0.00150469)
(-0.0143472 0.03882 -0.00136954)
(-0.017295 0.0381565 -0.00124627)
(-0.020079 0.037844 -0.00115264)
(-0.0228638 0.0380438 -0.0011085)
(-0.0258545 0.038911 -0.00114295)
(-0.0293437 0.0406183 -0.00129833)
(-0.033778 0.0433602 -0.00163905)
(-0.039842 0.0473198 -0.00224399)
(-0.0485867 0.0525768 -0.00310517)
(-0.0616103 0.0585782 -0.00367106)
(-0.0809439 0.0621544 -0.00175201)
(-0.107232 0.0526199 0.00767907)
(-0.136075 0.00930553 0.0299402)
(-0.149499 -0.0899187 0.0556702)
(-0.126173 -0.214905 0.0486072)
(-0.0345481 -0.256511 0.00166417)
(-0.000929879 0.0225281 -0.00168082)
(-0.00434658 0.0400604 -0.00212747)
(-0.00876972 0.0443944 -0.00210262)
(-0.0122896 0.0441954 -0.00191205)
(-0.0153143 0.042939 -0.00168449)
(-0.0178821 0.0418069 -0.00146248)
(-0.0201344 0.0411808 -0.00127348)
(-0.0222088 0.0412822 -0.00114049)
(-0.0242708 0.0423422 -0.00108467)
(-0.0265567 0.044658 -0.00113019)
(-0.0294465 0.0486388 -0.00129373)
(-0.033553 0.0547609 -0.00150374)
(-0.0398983 0.0634122 -0.00131322)
(-0.0501229 0.0735986 0.0010655)
(-0.0668013 0.0799761 0.0103236)
(-0.09133 0.0666142 0.0340303)
(-0.124057 0.0090998 0.0729133)
(-0.141553 -0.118541 0.0957565)
(-0.121824 -0.269309 0.0572677)
(-0.0296225 -0.336029 0.000250836)
(-0.00132255 0.0263651 -0.00221429)
(-0.00537175 0.0449266 -0.00267958)
(-0.0104296 0.0485854 -0.00258555)
(-0.0140947 0.0473764 -0.00227353)
(-0.0169723 0.0454899 -0.00194089)
(-0.0190594 0.0439936 -0.00161943)
(-0.0205742 0.043155 -0.00133557)
(-0.021658 0.0431348 -0.00110686)
(-0.0224139 0.0441756 -0.000947862)
(-0.0229404 0.0466484 -0.000857443)
(-0.0234317 0.0511277 -0.000788819)
(-0.0241977 0.0582757 -0.000474741)
(-0.0260277 0.0686933 0.000992398)
(-0.030202 0.0807601 0.00652895)
(-0.0401765 0.0885583 0.022243)
(-0.0583005 0.0730397 0.0553152)
(-0.0926005 0.00912707 0.0963266)
(-0.106575 -0.13889 0.0979634)
(-0.104138 -0.301914 0.0386033)
(-0.0196551 -0.407381 -0.0143673)
(-0.00341063 0.0299569 -0.00324606)
(-0.00966233 0.0533632 -0.00396593)
(-0.0142261 0.0568271 -0.00377083)
(-0.0171466 0.0549481 -0.0032926)
(-0.019019 0.0515823 -0.00271338)
(-0.0202508 0.0486146 -0.00214294)
(-0.0209315 0.0464456 -0.00163394)
(-0.0210443 0.0452744 -0.00121385)
(-0.0205134 0.0453258 -0.00089687)
(-0.0192063 0.0469191 -0.000659171)
(-0.0170329 0.0506608 -0.000407447)
(-0.0137725 0.0571782 0.000228793)
(-0.00994044 0.0672935 0.00237369)
(-0.00546775 0.079113 0.00904896)
(-0.00500319 0.0882924 0.0265392)
(-0.0072575 0.0745349 0.0588586)
(-0.0337041 0.0134611 0.0916494)
(-0.0388505 -0.134937 0.0778679)
(-0.0742889 -0.30675 0.025726)
(0.000316545 -0.45747 -0.0316634)
(-0.00147039 0.0446931 -0.00520065)
(-0.00820259 0.057084 -0.0055495)
(-0.0172961 0.0570462 -0.00497986)
(-0.0206401 0.0521477 -0.00396132)
(-0.0230658 0.0485214 -0.00310932)
(-0.0237162 0.0458035 -0.00230367)
(-0.0233101 0.0438781 -0.00160243)
(-0.021926 0.0426317 -0.00102834)
(-0.0195578 0.0422317 -0.00061556)
(-0.0159549 0.0428525 -0.00032936)
(-0.0108735 0.0451437 -0.00012125)
(-0.00349147 0.0493851 0.000379346)
(0.00587255 0.0565866 0.00218228)
(0.0194348 0.0651383 0.0072655)
(0.0307622 0.0725057 0.0206769)
(0.0496297 0.0636864 0.0448769)
(0.0352422 0.0142712 0.0661508)
(0.0399417 -0.106405 0.056533)
(-0.0293382 -0.292296 0.0196782)
(0.0303939 -0.476464 -0.0459745)
(-0.0123591 0.0355911 -0.00618842)
(-0.0242383 0.0787388 -0.00789649)
(-0.0224909 0.0765438 -0.00775964)
(-0.0271731 0.0705593 -0.00661666)
(-0.0271123 0.0626555 -0.00498122)
(-0.0253626 0.0559122 -0.00343716)
(-0.0219619 0.0504133 -0.00215434)
(-0.0172874 0.0460409 -0.00117432)
(-0.0115622 0.0428368 -0.000537898)
(-0.00441779 0.0405482 -0.000214028)
(0.00383836 0.0396006 -0.000198873)
(0.014665 0.0398414 -0.000320093)
(0.0269409 0.0422766 0.000170107)
(0.0447558 0.0453603 0.00260638)
(0.0591923 0.0491147 0.00925771)
(0.0884156 0.0438764 0.0237102)
(0.0842586 0.014277 0.0342634)
(0.116359 -0.0673546 0.0334234)
(0.0409243 -0.259578 0.0106216)
(0.076936 -0.466701 -0.0574054)
(-0.0762441 0.0998467 -0.0195817)
(-0.0613746 0.0608623 -0.0152713)
(-0.0608298 0.0597796 -0.0118754)
(-0.0384634 0.0517654 -0.00885017)
(-0.0195212 0.0437693 -0.00669637)
(0.00148099 0.037873 -0.00486439)
(0.0209298 0.0336337 -0.00340328)
(0.0402862 0.0300316 -0.00226674)
(0.057525 0.0274743 -0.00144206)
(0.075838 0.0250247 -0.000972912)
(0.0909103 0.0237849 -0.000875805)
(0.110098 0.0224628 -0.00119347)
(0.122859 0.0224194 -0.00169271)
(0.148879 0.0220685 -0.0014802)
(0.15568 0.0193335 -0.000829592)
(0.199875 0.0129971 0.0046708)
(0.186734 -0.016732 0.0107593)
(0.236236 -0.074404 0.00995538)
(0.159068 -0.237605 0.00311314)
(0.150671 -0.416062 -0.0682413)
(0.119153 0.14017 -0.0169465)
(0.151477 0.0856247 -0.0185501)
(0.228822 0.0632099 -0.0185742)
(0.283498 0.0477274 -0.0171661)
(0.324548 0.036809 -0.0153632)
(0.362424 0.0287211 -0.0137009)
(0.390834 0.023075 -0.0121416)
(0.421398 0.0188086 -0.0108823)
(0.44063 0.0157695 -0.00953491)
(0.468463 0.0133729 -0.00873558)
(0.479791 0.0115353 -0.00764748)
(0.508876 0.010349 -0.00742667)
(0.511818 0.00903738 -0.00646108)
(0.545719 0.00857131 -0.00697781)
(0.53738 0.00671766 -0.00522083)
(0.575214 0.00370033 -0.00656685)
(0.542926 -0.00503598 -0.0027669)
(0.559105 -0.0251589 -0.00883415)
(0.427528 -0.0672154 -0.0100599)
(0.302731 -0.144695 -0.0810883)
(-0.000122485 0.000125388 -0.000132502)
(-0.000919934 0.000374688 -0.000136676)
(-0.00224867 0.000459885 -0.000123277)
(-0.00357883 0.000480628 -0.000112836)
(-0.00492343 0.000482854 -0.000114015)
(-0.00623962 0.000480915 -0.000126136)
(-0.00750768 0.000474567 -0.000148949)
(-0.00870307 0.000459529 -0.000183593)
(-0.00979012 0.00043054 -0.000232325)
(-0.0107213 0.000381789 -0.000297375)
(-0.0114363 0.00030729 -0.000380546)
(-0.0118634 0.000201804 -0.000482535)
(-0.0119226 6.25352e-05 -0.000602074)
(-0.0115318 -0.000112671 -0.00073399)
(-0.0106212 -0.00031589 -0.000868749)
(-0.00915121 -0.00052942 -0.000991096)
(-0.00714337 -0.000718261 -0.00108013)
(-0.00476247 -0.000821438 -0.001111)