/*--------------------------------*- C++ -*----------------------------------*\
  =========                 |
  \\      /  F ield         | OpenFOAM: The Open Source CFD Toolbox
   \\    /   O peration     | Website:  https://openfoam.org
    \\  /    A nd           | Version:  10
     \\/     M anipulation  |
\*---------------------------------------------------------------------------*/
FoamFile
{
    format      ascii;
    class       volVectorField;
    location    "0.475";
    object      U;
}
// * * * * * * * * * * * * * * * * * * * * * * * * * * * * * * * * * * * * * //

dimensions      [0 1 -1 0 0 0 0];

internalField   nonuniform List<vector> 
400
(
(-0.000199286 0.000197083 0)
(-0.000615394 0.000211506 0)
(-0.00103748 0.000201431 0)
(-0.00143174 0.000185633 0)
(-0.00178891 0.000165229 0)
(-0.00210042 0.00014086 0)
(-0.00235893 0.000113218 0)
(-0.00255852 8.30155e-05 0)
(-0.00269476 5.09686e-05 0)
(-0.00276465 1.77826e-05 0)
(-0.0027666 -1.5845e-05 0)
(-0.00270041 -4.9214e-05 0)
(-0.00256734 -8.16116e-05 0)
(-0.00237006 -0.000112302 0)
(-0.00211279 -0.000140528 0)
(-0.00180129 -0.000165519 0)
(-0.00144288 -0.000186523 0)
(-0.00104626 -0.000202837 0)
(-0.000620936 -0.000213273 0)
(-0.00020116 -0.000198906 0)
(-0.0002241 0.000621868 0)
(-0.000691132 0.000666292 0)
(-0.00116391 0.000634452 0)
(-0.00160526 0.000584536 0)
(-0.00200485 0.000520109 0)
(-0.00235308 0.000443241 0)
(-0.00264184 0.000356134 0)
(-0.00286465 0.000261048 0)
(-0.00301667 0.000160229 0)
(-0.00309463 5.58744e-05 0)
(-0.0030968 -4.98487e-05 0)
(-0.003023 -0.000154773 0)
(-0.00287453 -0.000256686 0)
(-0.00265433 -0.000353296 0)
(-0.00236696 -0.000442225 0)
(-0.00201876 -0.000521043 0)
(-0.0016178 -0.000587354 0)
(-0.0011738 -0.000638887 0)
(-0.000697378 -0.000671858 0)
(-0.000226212 -0.000627607 0)
(-0.000235834 0.00108625 0)
(-0.000727262 0.00116242 0)
(-0.0012244 0.00110649 0)
(-0.0016879 0.00101897 0)
(-0.00210692 0.000906168 0)
(-0.00247154 0.000771817 0)
(-0.00277347 0.000619833 0)
(-0.00300618 0.000454178 0)
(-0.00316488 0.000278738 0)
(-0.00324636 9.72777e-05 0)
(-0.00324891 -8.65232e-05 0)
(-0.00317231 -0.000268993 0)
(-0.00301779 -0.000446373 0)
(-0.00278817 -0.000614738 0)
(-0.00248792 -0.00076997 0)
(-0.00212337 -0.000907808 0)
(-0.00170276 -0.00102399 0)
(-0.00123614 -0.00111443 0)
(-0.000734693 -0.0011724 0)
(-0.000238347 -0.00109655 0)
(-0.000253326 0.00157703 0)
(-0.000780986 0.00168653 0)
(-0.00131414 0.00160449 0)
(-0.00181025 0.00147649 0)
(-0.00225769 0.00131196 0)
(-0.00264608 0.00111654 0)
(-0.00296694 0.000896039 0)
(-0.00321382 0.000656259 0)
(-0.00338204 0.00040276 0)
(-0.00346856 0.00014084 0)
(-0.00347174 -0.000124385 0)
(-0.00339129 -0.00038783 0)
(-0.00322829 -0.000644267 0)
(-0.00298531 -0.000888166 0)
(-0.00266662 -0.00111362 0)
(-0.00227839 -0.0013144 0)
(-0.00182902 -0.00148416 0)
(-0.00132901 -0.00161668 0)
(-0.000790413 -0.0017019 0)
(-0.000256514 -0.00159291 0)
(-0.000277857 0.00210973 0)
(-0.000856201 0.00225488 0)
(-0.00143948 0.00214342 0)
(-0.00198065 0.00197028 0)
(-0.00246702 0.00174858 0)
(-0.00288763 0.00148632 0)
(-0.00323392 0.00119156 0)
(-0.00349966 0.000872106 0)
(-0.00368051 0.000535236 0)
(-0.00377371 0.000187718 0)
(-0.00377779 -0.000164042 0)
(-0.00369239 -0.000513717 0)
(-0.00351832 -0.000854751 0)
(-0.0032577 -0.00118008 0)
(-0.00291432 -0.00148195 0)
(-0.00249405 -0.00175196 0)
(-0.00200527 -0.00198127 0)
(-0.00145906 -0.00216106 0)
(-0.000868649 -0.00227723 0)
(-0.000282067 -0.00213288 0)
(-0.000310482 0.00269951 0)
(-0.000956051 0.00288317 0)
(-0.00160535 0.00273742 0)
(-0.00220524 0.00251237 0)
(-0.00274166 0.00222578 0)
(-0.0032031 0.00188871 0)
(-0.00358116 0.00151193 0)
(-0.00387015 0.0011055 0)
(-0.00406644 0.000678453 0)
(-0.00416785 0.000238866 0)
(-0.00417318 -0.000205821 0)
(-0.004082 -0.000648344 0)
(-0.00389466 -0.00108109 0)
(-0.00361252 -0.0014956 0)
(-0.0032385 -0.00188227 0)
(-0.00277772 -0.00223022 0)
(-0.00223829 -0.00252763 0)
(-0.00163178 -0.00276223 0)
(-0.000972918 -0.00291482 0)
(-0.000316192 -0.00273239 0)
(-0.000352744 0.00336392 0)
(-0.00108507 0.00358942 0)
(-0.00181872 0.00340226 0)
(-0.00249249 0.00311568 0)
(-0.00309069 0.00275356 0)
(-0.00360148 0.002331 0)
(-0.00401713 0.00186219 0)
(-0.00433314 0.00135973 0)
(-0.00454714 0.000834351 0)
(-0.00465799 0.000295162 0)
(-0.004665 -0.00024982 0)
(-0.00456766 -0.000792902 0)
(-0.00436558 -0.00132588 0)
(-0.00405888 -0.00183923 0)
(-0.00364894 -0.00232152 0)
(-0.00313941 -0.00275912 0)
(-0.0025375 -0.00313645 0)
(-0.00185499 -0.00343665 0)
(-0.00110833 -0.00363372 0)
(-0.000360635 -0.00341013 0)
(-0.000406921 0.00412424 0)
(-0.00124987 0.00439502 0)
(-0.00208957 0.00415598 0)
(-0.00285419 0.00379425 0)
(-0.00352635 0.003342 0)
(-0.00409446 0.00281993 0)
(-0.00455243 0.00224652 0)
(-0.00489799 0.00163721 0)
(-0.00513101 0.00100428 0)
(-0.00525202 0.000357326 0)
(-0.00526124 -0.000295795 0)
(-0.00515806 -0.000947794 0)
(-0.00494098 -0.00159065 0)
(-0.00460816 -0.00221435 0)
(-0.00415839 -0.00280588 0)
(-0.00359265 -0.00334856 0)
(-0.00291609 -0.00382206 0)
(-0.00213995 -0.00420326 0)
(-0.00128243 -0.00445673 0)
(-0.000417999 -0.00418902 0)
(-0.000476444 0.00500721 0)
(-0.00146029 0.00532617 0)
(-0.0024323 0.00501959 0)
(-0.00330678 0.00456316 0)
(-0.00406501 0.00400077 0)
(-0.00469696 0.00336089 0)
(-0.00519985 0.00266739 0)
(-0.00557538 0.00193882 0)
(-0.00582703 0.00118855 0)
(-0.00595806 0.000425766 0)
(-0.00597012 -0.000342993 0)
(-0.00586251 -0.00111215 0)
(-0.00563214 -0.00187508 0)
(-0.00527412 -0.00262233 0)
(-0.00478314 -0.00333984 0)
(-0.00415559 -0.00400773 0)
(-0.00339254 -0.0045998 0)
(-0.00250305 -0.00508419 0)
(-0.00150652 -0.00541212 0)
(-0.000492253 -0.00509823 0)
(-0.000566669 0.00604784 0)
(-0.0017313 0.00641593 0)
(-0.00286807 0.00601773 0)
(-0.00387338 0.00543819 0)
(-0.00472863 0.00473807 0)
(-0.00542785 0.00395658 0)
(-0.0059745 0.0031243 0)
(-0.00637684 0.00226283 0)
(-0.00664406 0.00138572 0)
(-0.00678356 0.000500327 0)
(-0.00679915 -0.000389945 0)
(-0.00669014 -0.00128311 0)
(-0.00645116 -0.00217589 0)
(-0.00607292 -0.00306103 0)
(-0.00554379 -0.00392463 0)
(-0.00485261 -0.00474384 0)
(-0.00399297 -0.00548541 0)
(-0.0029686 -0.00610548 0)
(-0.00179801 -0.00653588 0)
(-0.000589674 -0.00617661 0)
(-0.00068635 0.0072943 0)
(-0.00208653 0.00770713 0)
(-0.00342867 0.00717935 0)
(-0.00458687 0.00643474 0)
(-0.00554663 0.00555863 0)
(-0.00631074 0.0046048 0)
(-0.00689361 0.00361167 0)
(-0.00731395 0.0026033 0)
(-0.00758953 0.00159168 0)
(-0.00773374 0.000579924 0)
(-0.00775356 -0.000434238 0)
(-0.00764846 -0.00145503 0)
(-0.00741006 -0.00248524 0)
(-0.00702286 -0.00352258 0)
(-0.00646596 -0.00455562 0)
(-0.00571639 -0.00555969 0)
(-0.00475468 -0.00649362 0)
(-0.00357335 -0.00729759 0)
(-0.0021848 -0.00787507 0)
(-0.000720721 -0.00747853 0)
(-0.000850754 0.00881669 0)
(-0.00256489 0.00925628 0)
(-0.00416282 0.00853778 0)
(-0.00549461 0.00756531 0)
(-0.00655858 0.00646008 0)
(-0.00737482 0.00529471 0)
(-0.00797601 0.00411605 0)
(-0.00839683 0.00294834 0)
(-0.00866744 0.00179857 0)
(-0.00880948 0.000662151 0)
(-0.00883411 -0.000472247 0)
(-0.00874115 -0.00161848 0)
(-0.00851872 -0.00278901 0)
(-0.0081433 -0.00399047 0)
(-0.00758089 -0.00521815 0)
(-0.00679062 -0.00644912 0)
(-0.00573149 -0.00763469 0)
(-0.00437415 -0.00869496 0)
(-0.00271356 -0.0094919 0)
(-0.000904096 -0.00908502 0)
(-0.00108891 0.0107242 0)
(-0.00323359 0.0111376 0)
(-0.00514646 0.0101291 0)
(-0.00666519 0.00883413 0)
(-0.00781726 0.00742643 0)
(-0.00865478 0.00600186 0)
(-0.00924 0.00461269 0)
(-0.00963144 0.00327767 0)
(-0.00987572 0.00199336 0)
(-0.0100046 0.000742729 0)
(-0.0100342 -0.000498836 0)
(-0.00996523 -0.00175897 0)
(-0.00978205 -0.00306432 0)
(-0.00945199 -0.00443581 0)
(-0.0089246 -0.005882 0)
(-0.00813294 -0.00738924 0)
(-0.00700129 -0.00890728 0)
(-0.00545999 -0.0103332 0)
(-0.00346661 -0.0114676 0)
(-0.00117666 -0.0111252 0)
(-0.00146135 0.0131962 0)
(-0.00421513 0.0134468 0)
(-0.00649855 0.0119866 0)
(-0.00819809 0.0102257 0)
(-0.00939089 0.00841839 0)
(-0.0101886 0.00668101 0)
(-0.0107002 0.00506029 0)
(-0.0110162 0.0035593 0)
(-0.0112024 0.00215602 0)
(-0.0113017 0.000814731 0)
(-0.0113358 -0.000507262 0)
(-0.0113066 -0.00185573 0)
(-0.0111956 -0.00327657 0)
(-0.010961 -0.00481188 0)
(-0.0105343 -0.00649322 0)
(-0.00981589 -0.00832908 0)
(-0.00867637 -0.0102833 0)
(-0.00697079 -0.01224 0)
(-0.00459668 -0.0139052 0)
(-0.0016171 -0.0138169 0)
(-0.00209727 0.0165704 0)
(-0.00574021 0.0163028 0)
(-0.00840662 0.0141226 0)
(-0.0102344 0.0116839 0)
(-0.011362 0.00935791 0)
(-0.0120129 0.00725505 0)
(-0.0123617 0.00539458 0)
(-0.0125357 0.00374647 0)
(-0.0126203 0.00225811 0)
(-0.0126678 0.00086791 0)
(-0.0127047 -0.000489432 0)
(-0.0127345 -0.00188132 0)
(-0.0127382 -0.0033774 0)
(-0.0126686 -0.00504845 0)
(-0.0124418 -0.00696228 0)
(-0.011923 -0.00917091 0)
(-0.0109133 -0.0116823 0)
(-0.00912779 -0.0144076 0)
(-0.00639714 -0.0169185 0)
(-0.00239763 -0.0175512 0)
(-0.00330517 0.0211264 0)
(-0.00828873 0.0197663 0)
(-0.0111647 0.0164783 0)
(-0.0129641 0.0130771 0)
(-0.0138198 0.0101024 0)
(-0.0141519 0.00760122 0)
(-0.0142087 0.00552278 0)
(-0.0141525 0.00377623 0)
(-0.0140808 0.00226323 0)
(-0.0140491 0.000888779 0)
(-0.0140849 -0.000437036 0)
(-0.0141945 -0.00180336 0)
(-0.0143626 -0.00330501 0)
(-0.0145457 -0.00504777 0)
(-0.0146566 -0.00715099 0)
(-0.0145357 -0.00974099 0)
(-0.013914 -0.012927 0)
(-0.0122668 -0.016739 0)
(-0.00945466 -0.0205772 0)
(-0.00391267 -0.0229678 0)
(-0.00545851 0.0299395 0)
(-0.012478 0.0242383 0)
(-0.0151504 0.0189759 0)
(-0.0166095 0.0141689 0)
(-0.016834 0.0104175 0)
(-0.0165879 0.00753809 0)
(-0.0161817 0.00532198 0)
(-0.0157899 0.00357313 0)
(-0.0155021 0.00212976 0)
(-0.0153622 0.000861041 0)
(-0.0153906 -0.000343715 0)
(-0.0155961 -0.00158959 0)
(-0.0159759 -0.00299204 0)
(-0.0165075 -0.00469024 0)
(-0.0171274 -0.00686737 0)
(-0.0176903 -0.00976732 0)
(-0.0179018 -0.0137084 0)
(-0.0168494 -0.0190984 0)
(-0.0148364 -0.0251359 0)
(-0.00696034 -0.0324666 0)
(-0.0117499 0.0352574 0)
(-0.0221158 0.0271313 0)
(-0.0211603 0.0203342 0)
(-0.0213599 0.0142076 0)
(-0.0202571 0.00986656 0)
(-0.0190355 0.00682412 0)
(-0.0179492 0.00466286 0)
(-0.0171113 0.00306939 0)
(-0.0165525 0.00182462 0)
(-0.0162762 0.000773394 0)
(-0.0162837 -0.000204453 0)
(-0.016585 -0.0012145 0)
(-0.0171984 -0.00237522 0)
(-0.0181468 -0.00384049 0)
(-0.0194456 -0.00583425 0)
(-0.0210665 -0.0086982 0)
(-0.0228967 -0.0129133 0)
(-0.0234084 -0.0195004 0)
(-0.0252564 -0.0264867 0)
(-0.0134537 -0.0418282 0)
(-0.01845 0.0768545 0)
(-0.0279101 0.0324257 0)
(-0.022797 0.0214809 0)
(-0.0206374 0.0127585 0)
(-0.0172047 0.0078418 0)
(-0.0144716 0.00504411 0)
(-0.0124332 0.00329412 0)
(-0.011005 0.00211543 0)
(-0.0100879 0.00125394 0)
(-0.00961002 0.000558898 0)
(-0.009531 -7.15846e-05 0)
(-0.00984854 -0.000725222 0)
(-0.0105961 -0.00149727 0)
(-0.011838 -0.00254288 0)
(-0.0136621 -0.00414718 0)
(-0.0161007 -0.00689985 0)
(-0.0193949 -0.0118867 0)
(-0.0198938 -0.0220927 0)
(-0.0277845 -0.0365049 0)
(-0.0100833 -0.0855702 0)
(0.0866677 0.0627798 0)
(0.0804221 0.0227981 0)
(0.120787 0.0129189 0)
(0.130101 0.00684544 0)
(0.13751 0.00369563 0)
(0.142303 0.00216467 0)
(0.145265 0.00133622 0)
(0.147155 0.000838288 0)
(0.148331 0.000505352 0)
(0.148974 0.000254693 0)
(0.149169 4.00471e-05 0)
(0.148939 -0.00017683 0)
(0.148234 -0.000430745 0)
(0.146908 -0.000787527 0)
(0.144628 -0.00138581 0)
(0.140929 -0.00256602 0)
(0.133234 -0.00497244 0)
(0.128359 -0.0110857 0)
(0.0830165 -0.0198229 0)
(0.0930431 -0.0600338 0)
)
;

boundaryField
{
    movingWall
    {
        type            fixedValue;
        value           uniform (1 0 0);
    }
    fixedWalls
    {
        type            noSlip;
    }
    frontAndBack
    {
        type            empty;
    }
}


// ************************************************************************* //
