/*--------------------------------*- C++ -*----------------------------------*\
  =========                 |
  \\      /  F ield         | OpenFOAM: The Open Source CFD Toolbox
   \\    /   O peration     | Website:  https://openfoam.org
    \\  /    A nd           | Version:  10
     \\/     M anipulation  |
\*---------------------------------------------------------------------------*/
FoamFile
{
    format      ascii;
    class       volScalarField;
    location    "6.075";
    object      p;
}
// * * * * * * * * * * * * * * * * * * * * * * * * * * * * * * * * * * * * * //

dimensions      [0 2 -2 0 0 0 0];

internalField   nonuniform List<scalar> 
400
(
1.13524e-08
-2.03267e-05
2.41135e-05
0.000110312
0.000244576
0.000428354
0.0006636
0.000952403
0.00129605
0.00169424
0.00214405
0.00263873
0.00316645
0.00370909
0.00424148
0.00473208
0.00514467
0.00544287
0.00561771
0.0056032
2.15364e-05
5.18235e-07
4.91731e-05
0.000135378
0.00026701
0.000446282
0.000675651
0.000957587
0.00129374
0.00168428
0.00212684
0.00261528
0.00313823
0.00367902
0.00421267
0.00470746
0.00512602
0.00543098
0.00561504
0.00559672
-2.87786e-05
-5.65126e-05
-9.52465e-06
7.32685e-05
0.00020057
0.000374881
0.000599221
0.000876902
0.00121067
0.00160197
0.00204995
0.00255016
0.00309359
0.00366317
0.00423322
0.00476905
0.00522772
0.0055635
0.0057665
0.00573452
-0.000131881
-0.000164507
-0.000120318
-4.25656e-05
7.83802e-05
0.000245482
0.00046263
0.000734405
0.00106525
0.00145874
0.00191653
0.00243681
0.00301256
0.00362952
0.00426107
0.00486819
0.00539803
0.00578979
0.00602813
0.0059814
-0.000293581
-0.000330819
-0.000290888
-0.00022009
-0.000107809
4.95062e-05
0.000256853
0.000520439
0.000846944
0.00124292
0.00171366
0.00226146
0.00288312
0.00356782
0.0042891
0.00500298
0.00564386
0.00612675
0.00642375
0.00635572
-0.000513162
-0.000555503
-0.000521407
-0.000459913
-0.000359445
-0.000215828
-2.28395e-05
0.000227589
0.000544806
0.000939095
0.00142077
0.00199809
0.00267374
0.00344446
0.00428629
0.00515163
0.00595819
0.00658548
0.00697876
0.00687673
-0.000788772
-0.000837161
-0.00081068
-0.000761461
-0.000677054
-0.000552777
-0.000381261
-0.000152553
0.000145581
0.000527728
0.00101045
0.00161072
0.00234273
0.00320761
0.00419864
0.00526817
0.00631611
0.00717273
0.00772935
0.0075749
-0.0011182
-0.00117386
-0.00115698
-0.00112356
-0.0010605
-0.000962947
-0.00082275
-0.000628433
-0.000365107
-1.3848e-05
0.000448713
0.00105012
0.00181892
0.00277648
0.00393273
0.00525962
0.0066499
0.00787385
0.00872295
0.00850126
-0.00149861
-0.0015629
-0.00155754
-0.00154366
-0.00150786
-0.00144574
-0.00134916
-0.00120604
-0.000999839
-0.000708319
-0.000301975
0.000257446
0.00101685
0.00202709
0.00332283
0.00493438
0.0067854
0.00860492
0.00998997
0.00975976
-0.00192646
-0.00200074
-0.00200825
-0.0020172
-0.00201444
-0.0019969
-0.00195764
-0.00188559
-0.00176478
-0.0015723
-0.00127557
-0.000829202
-0.000170864
0.000776899
0.00209254
0.00391615
0.00628036
0.00902242
0.0113803
0.0114228
-0.00239782
-0.00248322
-0.00250354
-0.00253711
-0.00257181
-0.00260697
-0.00263846
-0.00265833
-0.00265438
-0.00260812
-0.00249189
-0.00226377
-0.00185991
-0.00118745
-0.000124138
0.00139006
0.00399949
0.00785314
0.0118648
0.013136
-0.00290931
-0.0030063
-0.00303643
-0.00309339
-0.0031668
-0.00325967
-0.0033723
-0.00350237
-0.00364536
-0.00379367
-0.00393545
-0.00405339
-0.00412323
-0.00411776
-0.00402683
-0.00371357
-0.0026602
0.00135636
0.0075267
0.0120285
-0.00346008
-0.00356845
-0.00360156
-0.00367613
-0.00378368
-0.00393271
-0.00412987
-0.00438051
-0.00469192
-0.00507509
-0.00554821
-0.00614483
-0.00693403
-0.00807996
-0.00999196
-0.0129781
-0.0159053
-0.0132797
-0.00575422
0.00385243
-0.00404934
-0.00416016
-0.0041767
-0.00425423
-0.00438641
-0.00458568
-0.00486254
-0.00523115
-0.00571227
-0.00633919
-0.00717017
-0.00831422
-0.00998931
-0.0126061
-0.0171617
-0.0243062
-0.0336299
-0.0336518
-0.0257626
-0.0105782
-0.00470995
-0.00483462
-0.00481915
-0.00488785
-0.00501799
-0.00523603
-0.00556101
-0.00601615
-0.00663449
-0.00746888
-0.00861145
-0.0102261
-0.0126739
-0.0165111
-0.023183
-0.033064
-0.0466548
-0.049389
-0.0423831
-0.0236749
-0.00552194
-0.00545146
-0.00532547
-0.00530337
-0.00541135
-0.00565535
-0.00604018
-0.00657988
-0.00730646
-0.00827681
-0.00959585
-0.0114341
-0.0142483
-0.0184929
-0.0259633
-0.0359828
-0.049358
-0.0522344
-0.0465038
-0.0241616
-0.00601624
-0.00645113
-0.00617703
-0.00620612
-0.00622185
-0.00636978
-0.00666713
-0.00714534
-0.00784021
-0.00879926
-0.010121
-0.0119081
-0.0146448
-0.018606
-0.0251934
-0.0334249
-0.0432438
-0.0445179
-0.0374526
-0.00678488
-0.00938607
-0.0068782
-0.00627847
-0.00573926
-0.00570728
-0.00593306
-0.00636124
-0.00695685
-0.00773574
-0.00872014
-0.0100255
-0.0116622
-0.0141053
-0.0174238
-0.0224159
-0.0277499
-0.0333465
-0.0306919
-0.017849
0.0291797
-0.00612651
-0.00912685
-0.00810847
-0.00816898
-0.00777094
-0.00758606
-0.00759148
-0.00782631
-0.00832046
-0.00906409
-0.0101541
-0.0115946
-0.0138344
-0.0167266
-0.0215025
-0.0258269
-0.0295182
-0.0175835
0.0105557
0.0900039
-0.0312734
-0.00627132
-0.00483563
-0.00413094
-0.0039773
-0.00424729
-0.00482954
-0.00554156
-0.00644356
-0.00747318
-0.00889099
-0.0105302
-0.0128911
-0.0154574
-0.018226
-0.017798
-0.0107371
0.0215502
0.0914664
0.226104
)
;

boundaryField
{
    movingWall
    {
        type            zeroGradient;
    }
    fixedWalls
    {
        type            zeroGradient;
    }
    frontAndBack
    {
        type            empty;
    }
}


// ************************************************************************* //
