/*--------------------------------*- C++ -*----------------------------------*\
  =========                 |
  \\      /  F ield         | OpenFOAM: The Open Source CFD Toolbox
   \\    /   O peration     | Website:  https://openfoam.org
    \\  /    A nd           | Version:  10
     \\/     M anipulation  |
\*---------------------------------------------------------------------------*/
FoamFile
{
    format      ascii;
    class       volScalarField;
    location    "3.725";
    object      p;
}
// * * * * * * * * * * * * * * * * * * * * * * * * * * * * * * * * * * * * * //

dimensions      [0 2 -2 0 0 0 0];

internalField   nonuniform List<scalar> 
400
(
1.16606e-09
-3.16287e-05
-1.20085e-05
3.28755e-05
0.000108968
0.000216807
0.000356627
0.000528376
0.000731163
0.000962835
0.00121959
0.00149557
0.00178257
0.00206984
0.00234433
0.00259122
0.00279461
0.00293947
0.00302386
0.00300301
3.17271e-05
-1.05761e-06
1.95023e-05
6.20895e-05
0.000134029
0.000236448
0.000369977
0.000534931
0.00073078
0.000955754
0.00120643
0.00147706
0.0017602
0.00204518
0.00231893
0.00256646
0.00277142
0.00291866
0.00300728
0.0029851
8.59186e-06
-2.90806e-05
-1.01787e-05
2.97565e-05
9.88026e-05
0.000198313
0.000329307
0.000492607
0.000688253
0.000915054
0.00117014
0.00144887
0.00174336
0.0020429
0.00233379
0.00259971
0.00282219
0.00298328
0.00308127
0.00305482
-4.49091e-05
-8.68536e-05
-7.02216e-05
-3.37639e-05
3.15201e-05
0.000127376
0.000255447
0.000417336
0.000613981
0.000845161
0.00110896
0.00140128
0.00171544
0.00204043
0.00236139
0.00265963
0.00291316
0.00309935
0.00321458
0.00318621
-0.000134543
-0.000181244
-0.000167576
-0.000135421
-7.46801e-05
1.69234e-05
0.000141852
0.000302755
0.000501802
0.000740149
0.0010173
0.00133037
0.00167362
0.00203626
0.00240235
0.00275024
0.00305253
0.00327897
0.00342218
0.00339374
-0.000260604
-0.000313118
-0.000303289
-0.000276679
-0.000221901
-0.000136021
-1.55576e-05
0.000143464
0.000344818
0.000591528
0.00088512
0.00122463
0.00160627
0.00202003
0.00244908
0.00286817
0.00324272
0.00353075
0.00371779
0.0036925
-0.000423363
-0.000483023
-0.000478171
-0.000458927
-0.000412396
-0.000334895
-0.000221736
-6.73258e-05
0.000134126
0.000388105
0.000699032
0.00106901
0.0014966
0.00197523
0.00248782
0.0030054
0.00348439
0.00386559
0.004121
0.00410667
-0.000623472
-0.000691856
-0.000693424
-0.000684002
-0.000648973
-0.000583872
-0.00048266
-0.000337886
-0.000141349
0.000115491
0.000440815
0.000841788
0.00131989
0.00187665
0.00249576
0.0031458
0.00377335
0.00429602
0.00465926
0.00467536
-0.000861723
-0.000940608
-0.000950283
-0.000953755
-0.000934502
-0.000887326
-0.000804775
-0.000677386
-0.000494276
-0.000243395
8.79862e-05
0.000512176
0.00104119
0.00168636
0.00243514
0.00325799
0.00409351
0.00483231
0.00536854
0.00546355
-0.00113903
-0.00123033
-0.00124985
-0.00126976
-0.00127151
-0.00124931
-0.00119437
-0.0010952
-0.000938152
-0.000707407
-0.00038523
4.71161e-05
0.000611063
0.00134873
0.0022446
0.00328273
0.00440259
0.00547001
0.00629227
0.00658441
-0.00145661
-0.00156225
-0.00159299
-0.00163302
-0.00166167
-0.00167287
-0.00165664
-0.00159971
-0.00148585
-0.00129543
-0.00100542
-0.000592303
-4.77816e-05
0.000787543
0.00182793
0.0031117
0.00460358
0.00616213
0.00747423
0.00823754
-0.00181657
-0.00193813
-0.00198029
-0.00204361
-0.00210521
-0.00215913
-0.00219452
-0.00219676
-0.00214769
-0.00202436
-0.00179647
-0.00142044
-0.000821435
-6.57612e-05
0.00104263
0.00255148
0.00448384
0.00674366
0.00887339
0.0108133
-0.00222328
-0.00236105
-0.00241213
-0.00250028
-0.00260012
-0.00270623
-0.0028071
-0.00288745
-0.00292883
-0.00290823
-0.00279543
-0.00254866
-0.0021115
-0.0014293
-0.000372583
0.00124163
0.00357754
0.00672271
0.010204
0.0145594
-0.00268583
-0.00283498
-0.00288536
-0.00299671
-0.00313963
-0.00330791
-0.00348831
-0.00366542
-0.0038227
-0.00394074
-0.00399523
-0.00395337
-0.0037662
-0.00335405
-0.0025732
-0.00123181
0.00107332
0.00487595
0.00996523
0.0184047
-0.00322619
-0.00339494
-0.0034342
-0.00356845
-0.00374592
-0.0039699
-0.00423143
-0.00451649
-0.00481014
-0.00509873
-0.00537147
-0.00561904
-0.00582961
-0.00597933
-0.00602539
-0.00589894
-0.00516775
-0.00220481
0.00285663
0.0165607
-0.00392583
-0.00389317
-0.00386784
-0.00397169
-0.00420522
-0.00453575
-0.00493441
-0.00537398
-0.00583723
-0.00631723
-0.00682312
-0.00738343
-0.00805767
-0.00894757
-0.0102808
-0.0123117
-0.0154787
-0.01596
-0.0127112
0.00697528
-0.00440939
-0.00489237
-0.00476377
-0.00498977
-0.00522362
-0.00555632
-0.00597822
-0.00647299
-0.00702955
-0.00764576
-0.00834463
-0.00919406
-0.010351
-0.0120785
-0.0150943
-0.0196738
-0.0293364
-0.0351067
-0.0319793
-0.00257646
-0.00756945
-0.00507899
-0.00472895
-0.00454174
-0.00486651
-0.0054273
-0.00613661
-0.00690962
-0.00772261
-0.00855429
-0.00945181
-0.0104737
-0.0119113
-0.0139546
-0.0181006
-0.0235228
-0.036229
-0.0439768
-0.0386423
0.0119453
-0.0044302
-0.00733324
-0.00665875
-0.0071439
-0.00727347
-0.00759799
-0.00808431
-0.00868004
-0.00935918
-0.0101026
-0.0108739
-0.0117895
-0.0131644
-0.0150241
-0.0196189
-0.0253064
-0.0360768
-0.0374988
-0.0160089
0.0680932
-0.0287412
-0.00397503
-0.00312321
-0.00293755
-0.00335719
-0.00422771
-0.00537522
-0.00650337
-0.00769323
-0.00874959
-0.00994674
-0.011064
-0.0127736
-0.0147346
-0.0176535
-0.0194673
-0.0174626
0.0049845
0.0676669
0.204835
)
;

boundaryField
{
    movingWall
    {
        type            zeroGradient;
    }
    fixedWalls
    {
        type            zeroGradient;
    }
    frontAndBack
    {
        type            empty;
    }
}


// ************************************************************************* //
