/*--------------------------------*- C++ -*----------------------------------*\
  =========                 |
  \\      /  F ield         | OpenFOAM: The Open Source CFD Toolbox
   \\    /   O peration     | Website:  https://openfoam.org
    \\  /    A nd           | Version:  10
     \\/     M anipulation  |
\*---------------------------------------------------------------------------*/
FoamFile
{
    format      ascii;
    class       surfaceScalarField;
    location    "8.55";
    object      phi;
}
// * * * * * * * * * * * * * * * * * * * * * * * * * * * * * * * * * * * * * //

dimensions      [0 3 -1 0 0 0 0];

internalField   nonuniform List<scalar> 
760
(
-1.28385e-05
1.28378e-05
-4.13786e-05
2.85401e-05
-7.57339e-05
3.43552e-05
-0.000111996
3.62623e-05
-0.000148958
3.69613e-05
-0.000186285
3.73274e-05
-0.000223643
3.73583e-05
-0.000260355
3.67117e-05
-0.000295238
3.48834e-05
-0.000326477
3.12386e-05
-0.000351523
2.50463e-05
-0.000367076
1.55526e-05
-0.000369232
2.15653e-06
-0.000353845
-1.53876e-05
-0.000317682
-3.61631e-05
-0.000259921
-5.77606e-05
-0.000184373
-7.55478e-05
-0.0001016
-8.27736e-05
-2.99741e-05
-7.16255e-05
-2.99741e-05
-3.07794e-05
4.36172e-05
-8.68095e-05
8.45703e-05
-0.000152297
9.98425e-05
-0.000220765
0.000104731
-0.000289738
0.000105934
-0.000358064
0.000105654
-0.00042467
0.000103964
-0.000488044
0.000100086
-0.000545984
9.2823e-05
-0.000595414
8.06689e-05
-0.000632285
6.19171e-05
-0.000651491
3.47582e-05
-0.000647792
-1.54209e-06
-0.000614982
-4.81981e-05
-0.000548867
-0.000102277
-0.000448765
-0.000157863
-0.00032079
-0.000203523
-0.000181458
-0.000222105
-5.9187e-05
-0.000193897
-8.91611e-05
-3.90265e-05
8.26438e-05
-0.000107987
0.00015353
-0.000187722
0.000179578
-0.000270482
0.00018749
-0.000353332
0.000188784
-0.000434886
0.000187208
-0.000513895
0.000182973
-0.000588687
0.000174878
-0.000656888
0.000161024
-0.000715194
0.000138975
-0.000759189
0.000105912
-0.000783422
5.89908e-05
-0.000781032
-3.93228e-06
-0.000744615
-8.46144e-05
-0.0006679
-0.000178993
-0.000548358
-0.000277405
-0.000391991
-0.00035989
-0.00021941
-0.000394686
-6.90398e-05
-0.000344267
-0.000158201
-4.2198e-05
0.000124842
-0.000116787
0.000228119
-0.000202773
0.000265564
-0.000291868
0.000276585
-0.00038113
0.000278047
-0.000469335
0.000275413
-0.000555468
0.000269106
-0.000638154
0.000257564
-0.000715337
0.000238207
-0.000783971
0.00020761
-0.000839651
0.000161591
-0.000876242
9.5582e-05
-0.00088603
5.85631e-06
-0.000858438
-0.000112207
-0.000782912
-0.000254519
-0.000651775
-0.000408543
-0.000467601
-0.000544063
-0.000255812
-0.000606475
-7.31749e-05
-0.000526904
-0.000231376
-4.30152e-05
0.000167857
-0.000119891
0.000304995
-0.00020873
0.000354402
-0.000301046
0.000368901
-0.000394106
0.000371106
-0.000487081
0.000368388
-0.000579489
0.000361514
-0.000670596
0.000348671
-0.00075906
0.000326671
-0.000842505
0.000291055
-0.000916925
0.000236011
-0.00097586
0.000154517
-0.00100947
3.94669e-05
-0.0010044
-0.000117282
-0.000942423
-0.000316491
-0.000805911
-0.000545055
-0.000587416
-0.000762558
-0.000313477
-0.000880413
-7.76584e-05
-0.000762723
-0.000309034
-4.28342e-05
0.000210691
-0.000120573
0.000382735
-0.000210897
0.000444726
-0.000305245
0.00046325
-0.000401187
0.000467048
-0.000498457
0.000465658
-0.00059733
0.000460387
-0.000698045
0.000449387
-0.000800423
0.000429049
-0.000903353
0.000393985
-0.00100397
0.000336629
-0.00109638
0.000246923
-0.00116971
0.000112798
-0.00120735
-7.96346e-05
-0.00118179
-0.000342054
-0.00105746
-0.000669384
-0.000800841
-0.00101918
-0.00042514
-0.00125611
-9.15692e-05
-0.00109629
-0.000400603
-4.21619e-05
0.000252853
-0.000120078
0.000460651
-0.000211181
0.000535829
-0.000306844
0.000558913
-0.000404972
0.000565176
-0.000505953
0.000566638
-0.000611029
0.000565463
-0.000721748
0.000560105
-0.000839649
0.000546951
-0.000965771
0.000520106
-0.00109975
0.000470605
-0.00123828
0.000385451
-0.00137244
0.00024696
-0.00148652
3.44507e-05
-0.00154264
-0.000285932
-0.00147537
-0.000736657
-0.00119126
-0.0013033
-0.000659905
-0.00178746
-0.000145941
-0.00161026
-0.000546545
-4.11326e-05
0.000293986
-0.000118745
0.000538263
-0.000209999
0.000627083
-0.000306119
0.000655033
-0.000405316
0.000664373
-0.000508661
0.000669984
-0.000618484
0.000675286
-0.000737953
0.000679575
-0.000870957
0.000679954
-0.00102186
0.000671008
-0.00119493
0.000643678
-0.00139314
0.000583661
-0.00161601
0.000469829
-0.00185195
0.000270392
-0.00206659
-7.12904e-05
-0.00213145
-0.000671803
-0.00184513
-0.00158961
-0.0011193
-0.00251329
-0.000320952
-0.00240861
-0.000867497
-3.98177e-05
0.000333803
-0.000116715
0.00061516
-0.000207395
0.000717763
-0.000302775
0.000750414
-0.000401272
0.000762869
-0.00050458
0.000773292
-0.000616093
0.000786799
-0.000740681
0.000804162
-0.000884957
0.00082423
-0.00105772
0.000843776
-0.00127043
0.00085638
-0.00153754
0.000850771
-0.00187591
0.0008082
-0.00229109
0.00068557
-0.00272289
0.00036051
-0.00297425
-0.000420437
-0.00270957
-0.00185429
-0.00185105
-0.00337182
-0.00073703
-0.00352263
-0.00160453
-3.84037e-05
0.000372207
-0.000114344
0.0006911
-0.000203675
0.000807095
-0.000296793
0.000843531
-0.000392151
0.000858227
-0.000491894
0.000873035
-0.000600256
0.000895161
-0.000723551
0.000927457
-0.000870939
0.000971617
-0.00105582
0.00102866
-0.00129814
0.0010987
-0.00162714
0.00117977
-0.00207872
0.00125978
-0.00266714
0.00127399
-0.0032889
0.000982278
-0.00364946
-5.98787e-05
-0.00346677
-0.00203698
-0.00269969
-0.00413889
-0.00139387
-0.00482845
-0.0029984
-3.73126e-05
0.00040952
-0.000112467
0.000766254
-0.0001998
0.000894428
-0.000288964
0.000932695
-0.000378237
0.0009475
-0.000469929
0.000964728
-0.000568626
0.000993858
-0.000681295
0.00104013
-0.000818468
0.00110879
-0.000996458
0.00120665
-0.00124093
0.00134317
-0.00158972
0.00152856
-0.00208192
0.00175198
-0.00270933
0.00190139
-0.00333112
0.00160407
-0.00368277
0.000291779
-0.00362006
-0.0020997
-0.00311581
-0.00464314
-0.0018977
-0.00604657
-0.0048961
-3.74136e-05
0.000446933
-0.000112771
0.000841612
-0.000197777
0.000979434
-0.000281247
0.00101616
-0.00036126
0.00102751
-0.000439977
0.00104345
-0.000521606
0.00107549
-0.00061239
0.00113091
-0.000721732
0.00121813
-0.000864045
0.00134896
-0.00106108
0.00154021
-0.00134117
0.00180865
-0.00172419
0.002135
-0.00217602
0.00235322
-0.00259018
0.00201823
-0.00283211
0.00053371
-0.00289305
-0.00203875
-0.00270174
-0.00483446
-0.00182938
-0.00691892
-0.00672548
-3.98181e-05
0.000486751
-0.000117456
0.000919249
-0.000200597
0.00106258
-0.000277216
0.00109278
-0.0003451
0.0010954
-0.000406064
0.00110441
-0.000463383
0.0011328
-0.000521026
0.00118855
-0.000584395
0.0012815
-0.000660805
0.00142537
-0.000759495
0.0016389
-0.000887261
0.00193641
-0.00104332
0.00229106
-0.00119767
0.00250756
-0.00133513
0.0021557
-0.00144098
0.000639555
-0.00159583
-0.0018839
-0.00175424
-0.00467606
-0.00137949
-0.00729367
-0.00810496
-4.83764e-05
0.000535128
-0.00013267
0.00100354
-0.000213884
0.00114379
-0.000281043
0.00115994
-0.000333752
0.00114811
-0.000373797
0.00114446
-0.00040252
0.00116153
-0.000421068
0.0012071
-0.000429898
0.00129033
-0.000427848
0.00142332
-0.00041079
0.00162184
-0.000366183
0.00189181
-0.000281461
0.00220634
-0.000159253
0.00238536
-5.84802e-05
0.00205492
-8.81103e-05
0.000669185
-0.00034711
-0.0016249
-0.000852604
-0.00417056
-0.000927182
-0.00721909
-0.00903214
-5.95724e-05
0.0005947
-0.000154533
0.0010985
-0.000238797
0.00122805
-0.000301723
0.00122287
-0.000340614
0.001187
-0.000358138
0.00116198
-0.000355785
0.00115917
-0.000332928
0.00118424
-0.000286248
0.00124365
-0.000208217
0.00134529
-8.52176e-05
0.00149884
0.000102044
0.00170455
0.000370402
0.00193798
0.000701393
0.00205437
0.000976503
0.00177981
0.000979906
0.000665782
0.000589661
-0.00123465
-0.00018012
-0.00340078
-0.000569871
-0.00682934
-0.00960201
-0.000127273
0.000721973
-0.000236598
0.00120783
-0.000304999
0.00129646
-0.000340665
0.00125853
-0.000353109
0.00119944
-0.000345548
0.00115442
-0.000316104
0.00112973
-0.000259955
0.0011281
-0.000169994
0.00115369
-3.52741e-05
0.00121057
0.000158475
0.00130509
0.00042959
0.00143343
0.000792421
0.00157515
0.00121662
0.00163016
0.00157139
0.00142505
0.00160686
0.000630307
0.00116771
-0.000795505
0.000285399
-0.00251847
-0.000277559
-0.00626639
-0.00987957
-8.21353e-05
0.000804109
-0.000257148
0.00138284
-0.000365161
0.00140447
-0.000413539
0.00130691
-0.000419164
0.00120507
-0.000392348
0.0011276
-0.000335445
0.00107283
-0.000245481
0.00103813
-0.000116372
0.00102458
6.3481e-05
0.00103072
0.000305099
0.00106347
0.000623464
0.00111507
0.00102062
0.00117799
0.00146529
0.0011855
0.00183773
0.0010526
0.00189147
0.000576567
0.00146778
-0.000371815
0.000652302
-0.00170298
9.61203e-05
-0.0057102
-0.00978345
-0.000378112
0.00118222
-0.000432971
0.0014377
-0.00047739
0.00144889
-0.000509908
0.00133943
-0.00049483
0.00118999
-0.000438246
0.00107102
-0.00034356
0.000978141
-0.000208749
0.00090332
-3.4096e-05
0.000849929
0.000187114
0.000809509
0.000459332
0.000791254
0.000791631
0.000782768
0.00117666
0.000792964
0.00157793
0.000784231
0.00192993
0.000700595
0.00205127
0.000455228
0.00191554
-0.000236078
0.00152306
-0.0013105
0.000853643
-0.00504079
-0.00892981
-0.00136284
0.00254506
-0.00132476
0.00139962
-0.00106366
0.00118779
-0.000690151
0.000965918
-0.000296453
0.00079629
0.000101381
0.000673184
0.000492497
0.000587025
0.000876356
0.000519461
0.00125499
0.000471297
0.00163405
0.000430447
0.00202074
0.000404566
0.00242053
0.000382978
0.00284748
0.000366009
0.0032895
0.000342219
0.00372445
0.000265637
0.00404732
0.000132367
0.00413109
-0.000319854
0.00397065
-0.00115006
0.0025169
-0.00358704
-0.00641291
0.00254506
0.00394468
0.00513247
0.00609839
0.00689468
0.00756786
0.00815489
0.00867435
0.00914565
0.00957609
0.00998066
0.0103636
0.0107296
0.0110719
0.0113375
0.0114699
0.01115
0.00999995
0.00641291
)
;

boundaryField
{
    movingWall
    {
        type            calculated;
        value           uniform 0;
    }
    fixedWalls
    {
        type            calculated;
        value           uniform 0;
    }
    frontAndBack
    {
        type            empty;
        value           nonuniform List<scalar> 0();
    }
}


// ************************************************************************* //
