/*--------------------------------*- C++ -*----------------------------------*\
  =========                 |
  \\      /  F ield         | OpenFOAM: The Open Source CFD Toolbox
   \\    /   O peration     | Website:  https://openfoam.org
    \\  /    A nd           | Version:  10
     \\/     M anipulation  |
\*---------------------------------------------------------------------------*/
FoamFile
{
    format      ascii;
    class       surfaceScalarField;
    location    "0.35";
    object      phi;
}
// * * * * * * * * * * * * * * * * * * * * * * * * * * * * * * * * * * * * * //

dimensions      [0 3 -1 0 0 0 0];

internalField   nonuniform List<scalar> 
928
(
0.0967584
0.00324161
0.103301
-0.00654239
0.107045
-0.003744
-0.00892768
0.115972
0.0953751
0.00786653
0.105987
-0.0171544
0.103517
-0.00127419
-0.018277
0.112867
0.0959345
0.011932
0.108724
-0.0299438
0.104412
0.00303731
-0.0386558
0.124791
0.101934
0.0099979
0.0934091
-0.0214188
0.0972054
-0.000759006
0.146236
-0.0876859
0.110764
0.00520891
-0.0157323
0.126496
0.109377
0.00869889
-0.0398711
0.133515
0.127308
0.0061824
-0.0448364
0.132273
0.152418
0.107582
0.125111
0.00138502
0.124393
0.000717727
0.124327
6.57913e-05
-0.000340816
0.124668
0.133953
0.000947451
0.132556
0.00211503
0.132016
0.000605633
-7.51467e-05
0.13175
0.134106
-0.000885743
0.133182
0.00303944
0.132828
0.000959444
0.00188092
0.130872
0.114724
-0.00802851
0.10405
0.0137137
0.104056
0.000953214
0.096119
0.00981826
0.124915
-0.000246639
0.124779
0.000135569
0.124164
0.000614882
0.122705
0.0014594
0.121199
0.0015062
0.119626
0.00157275
0.117762
0.00186394
0.115525
0.00223732
0.113088
0.00243703
0.110683
0.00240496
0.108456
0.00222694
0.106393
0.00206295
0.104358
0.00203468
0.102362
0.00199631
0.100427
0.00193478
0.0986993
0.00172778
0.0971401
0.00155918
0.0957247
0.00141544
0.0943775
0.00134719
0.0930302
0.0013473
0.0917618
0.00126837
0.0906083
0.00115346
0.089675
0.000933338
0.0890144
0.000660564
0.0886014
0.000413052
0.0883887
0.000212709
0.0882848
0.000103885
0.08826
2.47823e-05
0.088275
-1.4957e-05
0.088308
-3.29902e-05
0.0883741
-6.61611e-05
0.0884778
-0.000103646
0.0886205
-0.000142764
0.0887928
-0.000172324
0.0889779
-0.000185086
0.0891537
-0.000175818
0.0893184
-0.00016466
0.0894498
-0.000131446
0.089567
-0.000117114
-6.90075e-05
0.131612
-0.000108121
0.131393
0.000354558
0.130971
0.00103688
0.130694
0.00173577
0.129523
0.00267719
0.127699
0.00339727
0.125639
0.00392332
0.123547
0.00432947
0.121592
0.00439268
0.119778
0.00421898
0.117996
0.0040081
0.116238
0.00382165
0.114564
0.00370836
0.112992
0.00356842
0.111564
0.00336244
0.110279
0.00301288
0.109196
0.00264213
0.108215
0.00239617
0.107293
0.00227014
0.106469
0.00217131
0.105766
0.00197126
0.105185
0.00173395
0.104646
0.00147228
0.104104
0.00120278
0.103536
0.000980655
0.102948
0.000800814
0.102371
0.000681661
0.10182
0.000575733
0.101359
0.000445127
0.101029
0.000297537
0.100843
0.000119489
0.100782
-4.27896e-05
0.100837
-0.000197567
0.100973
-0.000307823
0.101166
-0.000378532
0.101371
-0.000380752
0.10158
-0.000373796
0.101748
-0.000299236
0.101901
-0.000270518
-0.000174248
0.130205
0.000559072
0.130543
1.57877e-05
0.131204
0.000376821
0.13175
0.0011895
0.131907
0.00251964
0.131251
0.00405326
0.129911
0.005264
0.128488
0.00575232
0.127359
0.00552133
0.126182
0.00539618
0.124905
0.005285
0.123549
0.00517758
0.122196
0.00506187
0.120809
0.00495504
0.119337
0.00483448
0.117785
0.00456475
0.116252
0.00417554
0.114792
0.00385605
0.113423
0.00363938
0.112149
0.0034446
0.110922
0.00319841
0.109687
0.00296869
0.108353
0.00280713
0.106899
0.00265588
0.105405
0.00247499
0.103982
0.00222358
0.102757
0.00190737
0.101795
0.00153737
0.101124
0.00111625
0.100725
0.000696872
0.100538
0.00030591
0.100565
-7.00469e-05
0.100724
-0.00035617
0.100946
-0.000529749
0.1012
-0.000632759
0.101445
-0.000625531
0.10168
-0.000609212
0.101879
-0.000497885
0.102065
-0.000456934
-0.000283746
0.0992648
-0.00258666
0.0986619
0.000618681
0.0982501
0.000788553
0.0983963
0.00104332
0.0990908
0.00182519
0.100322
0.00282184
0.101793
0.00379356
0.103306
0.00423925
0.104509
0.00431847
0.105668
0.00423631
0.106828
0.00412512
0.10799
0.00401611
0.109183
0.00386831
0.110341
0.00379766
0.111469
0.00370665
0.112476
0.00355754
0.113341
0.00331064
0.114097
0.00309972
0.11472
0.00301648
0.115212
0.00295201
0.115553
0.00285784
0.115802
0.00271942
0.116022
0.00258736
0.11623
0.00244822
0.116437
0.00226813
0.116605
0.00205475
0.116688
0.00182451
0.11662
0.00160612
0.116323
0.00141286
0.115769
0.0012507
0.11494
0.00113539
0.113829
0.00104097
0.11249
0.000981982
0.111052
0.000908202
0.109577
0.000842341
0.108223
0.000729065
0.106962
0.000651827
0.105954
0.000509805
0.105039
0.000457668
0.000289351
0.109982
1.54544e-05
0.0885434
2.022e-05
0.0877269
5.74982e-05
4.09583e-05
0.110009
-0.00999357
0.0885507
0.0214786
0.0878105
0.000797629
0.0878515
-0.00771024
-0.000318269
0.0072588
-0.00125538
0.00763385
0.000578158
0.000959207
0.0164929
-0.00812583
0.00780756
0.00520213
-0.0145833
0.00630226
-0.000521976
0.0169278
-0.00966635
0.0140282
-0.000121968
0.0146908
-4.38993e-05
0.0154786
7.82933e-07
0.0165124
9.4414e-06
0.0183236
1.40436e-05
0.0211328
1.26154e-05
0.0249185
7.88942e-06
0.0291534
4.29743e-06
0.0334703
1.6576e-06
0.037706
5.42036e-07
0.0418318
-6.31931e-07
0.0458492
-1.31905e-06
0.0497189
-1.39444e-06
0.0535167
-1.45177e-07
0.0572207
2.6139e-06
0.0607726
5.69229e-06
0.0640753
7.98067e-06
0.0671672
7.77908e-06
0.0701775
6.20374e-06
0.0731263
3.13823e-06
0.0759846
-4.03863e-07
0.0787075
-3.44913e-06
0.0813007
-5.90093e-06
0.0837561
-7.1022e-06
0.0860317
-7.47807e-06
0.0880927
-6.32717e-06
0.089922
-4.71337e-06
0.0915313
-3.22851e-06
0.0929466
-2.44526e-06
0.0942
-2.72487e-06
0.0953383
-2.89913e-06
0.0963813
-1.99537e-06
0.097363
2.54144e-07
0.098269
2.2286e-06
0.0991077
3.58782e-06
0.0998332
3.62135e-06
0.100481
3.77287e-06
0.100988
3.13312e-06
0.101442
3.26381e-06
2.62669e-06
0.0142143
0.00259152
0.0147486
-0.000578153
0.0154867
-0.000737336
0.0165
-0.00100379
0.0183139
-0.00179988
0.0211311
-0.0028046
0.0249208
-0.00378183
0.0291577
-0.00423264
0.0334749
-0.00431553
0.0377102
-0.00423473
0.0418338
-0.00412421
0.0458486
-0.00401616
0.0497169
-0.00386971
0.0535153
-0.00379848
0.0572214
-0.0037035
0.0607767
-0.00354964
0.064084
-0.00329926
0.0671815
-0.00308979
0.0701978
-0.00301005
0.0731518
-0.00295085
0.0760132
-0.00286185
0.0787377
-0.00272792
0.0813311
-0.0025993
0.0837851
-0.00246116
0.0860575
-0.00227988
0.0881137
-0.00206245
0.0899367
-0.00182775
0.0915393
-0.00160586
0.0929486
-0.00141172
0.0941974
-0.00125156
0.0953323
-0.00113779
0.0963727
-0.0010424
0.0973532
-0.000980158
0.0982587
-0.000903345
0.0990979
-0.000835606
0.0998242
-0.000722701
0.100474
-0.000645658
0.100982
-0.000504754
0.101437
-0.00045245
-0.000285286
0.10196
-0.0119539
0.0934071
0.0300319
0.0972686
-0.0030639
0.0387664
0.146354
0.0959317
-0.00788564
0.108758
0.0172054
0.10444
0.00125416
0.0183166
0.12489
0.0953657
-0.00325133
0.106006
0.00656476
0.10352
0.00374062
0.00894333
0.112893
0.0967487
0.103313
0.107054
0.115997
0.152587
-0.00623355
0.044841
0.107746
0.127382
-0.00872578
0.0398473
0.132376
0.109383
-0.0052157
0.0157161
0.133514
0.110782
0.126498
0.115014
0.000539566
0.103564
-0.00313264
0.103824
-0.00078234
-0.00185635
0.0960139
0.133922
-0.0010067
0.133009
-0.00221949
0.132845
-0.000618745
0.000128008
0.130861
0.133945
-0.0014378
0.132479
-0.000753265
0.131929
-6.88652e-05
0.00036839
0.131689
0.12506
0.124307
0.124238
0.124606
0.0991205
-0.000515057
0.0985297
1.25999e-05
0.0981541
-0.000361676
0.0983255
-0.0011752
0.0990371
-0.00251151
0.100282
-0.00404954
0.101766
-0.00526536
0.103289
-0.0057562
0.104501
-0.00552696
0.105668
-0.00540184
0.106831
-0.0052873
0.107991
-0.00517613
0.109179
-0.00505776
0.11033
-0.00494944
0.111453
-0.00482633
0.112458
-0.00455553
0.113326
-0.00416724
0.114088
-0.00385152
0.114717
-0.00363909
0.115215
-0.0034487
0.11556
-0.0032069
0.115813
-0.00298111
0.116036
-0.00282245
0.116247
-0.00267172
0.116456
-0.00248856
0.116625
-0.00223178
0.116706
-0.00190886
0.116634
-0.00153355
0.116333
-0.0011113
0.115775
-0.00069293
0.114939
-0.000302334
0.113821
7.56088e-05
0.112478
0.00036338
0.111037
0.000537894
0.10956
0.000640623
0.108206
0.00063181
0.106946
0.000614075
0.10594
0.000501284
0.105028
0.000459802
0.000285839
0.130181
0.00016512
0.13052
-0.0003266
0.131187
-0.00102887
0.131743
-0.00173093
0.131904
-0.00267217
0.131248
-0.003394
0.129905
-0.00392241
0.128479
-0.00433029
0.127347
-0.00439499
0.126167
-0.00422172
0.124889
-0.00400895
0.123533
-0.00381995
0.122179
-0.00370422
0.120792
-0.00356269
0.119322
-0.00335615
0.117775
-0.00300833
0.116247
-0.00263936
0.114791
-0.00239559
0.113423
-0.00227081
0.112147
-0.00217316
0.110915
-0.0019741
0.109672
-0.0017383
0.108328
-0.00147874
0.106868
-0.00121152
0.105369
-0.000989264
0.103943
-0.000805809
0.102716
-0.000682443
0.101757
-0.000574178
0.10109
-0.000444314
0.100695
-0.000297879
0.100512
-0.000119398
0.100543
4.43603e-05
0.100705
0.000201156
0.100931
0.000312396
0.101188
0.000383272
0.101435
0.000384711
0.101672
0.000376969
0.101872
0.000301436
0.10206
0.000272327
0.000175591
0.131577
0.000276992
0.13137
-0.000119266
0.130952
-0.000610693
0.13068
-0.00145918
0.129513
-0.00150504
0.12769
-0.00157141
0.125631
-0.00186304
0.123538
-0.00223749
0.121581
-0.00243824
0.119766
-0.0024061
0.117984
-0.00222739
0.116226
-0.00206237
0.114555
-0.00203273
0.112985
-0.00199305
0.11156
-0.00193092
0.110277
-0.00172501
0.109195
-0.00155813
0.108216
-0.00141628
0.107294
-0.0013491
0.106471
-0.00135004
0.105768
-0.00127116
0.105186
-0.00115633
0.104644
-0.000936618
0.104098
-0.000665276
0.103526
-0.000417312
0.102933
-0.000213183
0.102353
-0.000102182
0.101802
-2.24622e-05
0.101342
1.54042e-05
0.101011
3.3269e-05
0.100824
6.7056e-05
0.100763
0.000105118
0.10082
0.000144701
0.100958
0.00017435
0.101154
0.000187124
0.101361
0.000177575
0.101572
0.000166118
0.101741
0.000132466
0.101896
0.000117889
6.94602e-05
0.124883
0.124764
0.124153
0.122694
0.121189
0.119618
0.117755
0.115517
0.113079
0.110673
0.108445
0.106383
0.10435
0.102357
0.100426
0.0987013
0.0971431
0.0957268
0.0943777
0.0930277
0.0917565
0.0906002
0.0896636
0.0889983
0.088581
0.0883678
0.0882656
0.0882432
0.0882586
0.0882919
0.0883589
0.088464
0.0886087
0.0887831
0.0889702
0.0891478
0.0893139
0.0894464
0.0895643
)
;

boundaryField
{
    inlet
    {
        type            calculated;
        value           nonuniform List<scalar> 10(-0.1 -0.1 -0.1 -0.1 -0.1 -0.1 -0.1 -0.1 -0.1 -0.1);
    }
    outlet
    {
        type            calculated;
        value           nonuniform List<scalar> 10(0.089636 0.102007 0.102175 0.104466 0.101729 0.101725 0.104457 0.10217 0.102002 0.0896337);
    }
    obstacle
    {
        type            calculated;
        value           uniform 0;
    }
    upperWall
    {
        type            calculated;
        value           uniform 0;
    }
    lowerWall
    {
        type            calculated;
        value           uniform 0;
    }
    frontAndBack
    {
        type            empty;
        value           nonuniform List<scalar> 0();
    }
}


// ************************************************************************* //
