/*--------------------------------*- C++ -*----------------------------------*\
  =========                 |
  \\      /  F ield         | OpenFOAM: The Open Source CFD Toolbox
   \\    /   O peration     | Website:  https://openfoam.org
    \\  /    A nd           | Version:  10
     \\/     M anipulation  |
\*---------------------------------------------------------------------------*/
FoamFile
{
    format      ascii;
    class       volVectorField;
    location    "2.375";
    object      U;
}
// * * * * * * * * * * * * * * * * * * * * * * * * * * * * * * * * * * * * * //

dimensions      [0 1 -1 0 0 0 0];

internalField   nonuniform List<vector> 
475
(
(0.973915 0.0144633 0)
(0.981868 0.00603757 0)
(0.94698 0.033534 0)
(0.967912 -0.00267749 0)
(0.906392 0.03522 0)
(0.99846 0.00743589 0)
(1.01732 0.0105545 0)
(1.01907 0.0213272 0)
(1.04567 0.00483973 0)
(1.05621 0.00450357 0)
(1.00129 -0.00126179 0)
(1.00779 -0.00659064 0)
(1.02178 0.00140967 0)
(1.0454 -0.0103282 0)
(1.05468 -0.0189693 0)
(1.00097 -0.0094005 0)
(1.00818 -0.020877 0)
(1.02093 -0.023612 0)
(1.03671 -0.0223757 0)
(1.04459 -0.0247754 0)
(0.980736 -0.010214 0)
(0.969022 -0.0181616 0)
(0.953719 -0.0222341 0)
(0.929888 -0.0234218 0)
(0.907366 -0.0220487 0)
(0.942045 -0.0193824 0)
(0.910366 -0.0192413 0)
(0.920826 -0.0235092 0)
(0.971162 -0.0427045 0)
(1.04998 -0.096802 0)
(1.10225 -0.188931 0)
(1.1071 -0.301644 0)
(1.10095 -0.386228 0)
(1.04078 -0.430519 0)
(0.927303 -0.415625 0)
(0.808645 -0.314204 0)
(0.677135 -0.197036 0)
(0.567511 -0.122857 0)
(0.518068 -0.0693434 0)
(0.517072 -0.0178117 0)
(0.536424 0.0229717 0)
(0.55616 0.044398 0)
(0.568078 0.0479866 0)
(0.572585 0.0417063 0)
(0.573149 0.0323839 0)
(0.572361 0.0236896 0)
(0.571448 0.016857 0)
(0.570789 0.0118836 0)
(0.570409 0.00837259 0)
(0.57023 0.0059123 0)
(0.57017 0.00418376 0)
(0.570174 0.00296311 0)
(0.570206 0.00209768 0)
(0.57025 0.00148289 0)
(0.570292 0.00104603 0)
(0.57033 0.000735864 0)
(0.57036 0.000516022 0)
(0.570386 0.000360521 0)
(0.570402 0.000250812 0)
(0.570417 0.00017371 0)
(0.570426 0.000119677 0)
(0.570433 8.20134e-05 0)
(0.570439 5.6012e-05 0)
(0.570441 3.78332e-05 0)
(0.570445 2.58945e-05 0)
(0.570446 1.71922e-05 0)
(0.570447 1.21763e-05 0)
(0.570449 8.06343e-06 0)
(0.570449 6.50746e-06 0)
(0.57045 4.74642e-06 0)
(1.06978 -0.0115138 0)
(1.09088 -0.0147032 0)
(1.09893 -0.0140256 0)
(1.11085 -0.0424515 0)
(1.14989 -0.0978136 0)
(1.16258 -0.163105 0)
(1.12135 -0.249419 0)
(1.05988 -0.328782 0)
(0.952442 -0.34344 0)
(0.805976 -0.278462 0)
(0.693683 -0.158241 0)
(0.61507 -0.0555318 0)
(0.549477 -0.0261089 0)
(0.501239 -0.0374113 0)
(0.480144 -0.0370774 0)
(0.485137 -0.0183028 0)
(0.502364 0.00283794 0)
(0.520632 0.015942 0)
(0.535817 0.0203463 0)
(0.546758 0.0193702 0)
(0.554134 0.0161572 0)
(0.559031 0.0125569 0)
(0.562304 0.00938299 0)
(0.564523 0.0068629 0)
(0.566049 0.00496273 0)
(0.56711 0.00356596 0)
(0.567852 0.00255147 0)
(0.568369 0.0018188 0)
(0.56873 0.00129135 0)
(0.56898 0.000912776 0)
(0.569156 0.000642215 0)
(0.569277 0.000449821 0)
(0.569364 0.000313565 0)
(0.569421 0.000217546 0)
(0.569465 0.000150103 0)
(0.569493 0.000102992 0)
(0.569513 7.02771e-05 0)
(0.569528 4.76911e-05 0)
(0.569537 3.20817e-05 0)
(0.569545 2.18501e-05 0)
(0.569549 1.43413e-05 0)
(0.569552 1.02188e-05 0)
(0.569556 6.71186e-06 0)
(0.569557 5.3982e-06 0)
(0.569558 4.03652e-06 0)
(1.06669 -0.0271617 0)
(1.08261 -0.0383547 0)
(1.08408 -0.0487923 0)
(1.0864 -0.0851235 0)
(1.09471 -0.12693 0)
(1.08689 -0.169165 0)
(1.04781 -0.23364 0)
(0.992193 -0.264548 0)
(0.91954 -0.235785 0)
(0.824682 -0.197919 0)
(0.760636 -0.148631 0)
(0.755716 -0.0781458 0)
(0.760297 -0.0282505 0)
(0.727082 -0.0130015 0)
(0.666763 -0.00857952 0)
(0.612131 0.000360779 0)
(0.578166 0.0107672 0)
(0.560855 0.0173167 0)
(0.553625 0.0185986 0)
(0.551963 0.016518 0)
(0.552772 0.0132397 0)
(0.55434 0.0100226 0)
(0.555937 0.00735348 0)
(0.557317 0.00530796 0)
(0.558429 0.00380026 0)
(0.559297 0.00270845 0)
(0.559963 0.00192356 0)
(0.560467 0.00136122 0)
(0.560848 0.000959634 0)
(0.561131 0.000673772 0)
(0.561343 0.000470918 0)
(0.561496 0.000327358 0)
(0.56161 0.000226168 0)
(0.561688 0.000155403 0)
(0.561747 0.000105893 0)
(0.561787 7.17735e-05 0)
(0.561815 4.82513e-05 0)
(0.561836 3.20993e-05 0)
(0.561848 2.1367e-05 0)
(0.561859 1.4201e-05 0)
(0.561865 9.04967e-06 0)
(0.561869 6.56409e-06 0)
(0.561873 4.10363e-06 0)
(0.561875 3.31366e-06 0)
(0.561877 2.6975e-06 0)
(1.04659 -0.0358302 0)
(1.04792 -0.0430218 0)
(1.04572 -0.0469759 0)
(1.03293 -0.0656521 0)
(1.01361 -0.0901934 0)
(0.982197 -0.115454 0)
(0.915635 -0.149452 0)
(0.831353 -0.172003 0)
(0.740688 -0.158206 0)
(0.631797 -0.120548 0)
(0.534259 -0.0789896 0)
(0.477328 -0.0309705 0)
(0.451236 0.0190506 0)
(0.437385 0.0562129 0)
(0.431288 0.0691711 0)
(0.434187 0.063232 0)
(0.44384 0.0495665 0)
(0.456676 0.0359024 0)
(0.469641 0.0251825 0)
(0.480848 0.0174327 0)
(0.489638 0.0119813 0)
(0.49615 0.00820509 0)
(0.500827 0.00561388 0)
(0.504134 0.00384252 0)
(0.506456 0.00263209 0)
(0.508081 0.00180409 0)
(0.509217 0.00123681 0)
(0.510009 0.000847445 0)
(0.510561 0.000580109 0)
(0.510943 0.000396348 0)
(0.511208 0.000270062 0)
(0.51139 0.000183112 0)
(0.511518 0.000123306 0)
(0.511603 8.26731e-05 0)
(0.511665 5.4544e-05 0)
(0.511704 3.59918e-05 0)
(0.511733 2.32949e-05 0)
(0.511752 1.46608e-05 0)
(0.511764 9.6565e-06 0)
(0.511774 5.83109e-06 0)
(0.511778 3.42922e-06 0)
(0.511783 2.72201e-06 0)
(0.511786 1.36018e-06 0)
(0.511787 1.15536e-06 0)
(0.511789 1.23809e-06 0)
(0.87772 -0.0277755 0)
(0.839129 -0.0279133 0)
(0.806032 -0.0300272 0)
(0.757821 -0.0448418 0)
(0.696449 -0.0472642 0)
(0.625744 -0.0636222 0)
(0.503686 -0.0990278 0)
(0.357207 -0.0822205 0)
(0.246489 -0.0256676 0)
(0.174671 0.00904256 0)
(0.130006 0.014048 0)
(0.109309 0.0102865 0)
(0.112669 0.00743881 0)
(0.135161 0.00398446 0)
(0.16636 7.44135e-05 0)
(0.19722 -0.00244821 0)
(0.222388 -0.00287628 0)
(0.241041 -0.00210174 0)
(0.254404 -0.00114585 0)
(0.263896 -0.000447321 0)
(0.27061 -3.70518e-05 0)
(0.275341 0.000169705 0)
(0.278664 0.000252162 0)
(0.280997 0.000264456 0)
(0.282633 0.000240835 0)
(0.283779 0.00020196 0)
(0.28458 0.000159712 0)
(0.285138 0.000120414 0)
(0.285524 8.71374e-05 0)
(0.285789 6.07318e-05 0)
(0.285971 4.10565e-05 0)
(0.286094 2.69145e-05 0)
(0.286178 1.70864e-05 0)
(0.286232 1.0444e-05 0)
(0.286269 5.89768e-06 0)
(0.286292 3.26182e-06 0)
(0.286308 1.34451e-06 0)
(0.286316 4.45834e-07 0)
(0.286322 7.37884e-08 0)
(0.286326 -4.95436e-07 0)
(0.286327 -2.62355e-07 0)
(0.286329 -2.20019e-07 0)
(0.286329 -5.27381e-07 0)
(0.28633 -1.31212e-07 0)
(0.286331 1.27697e-07 0)
(-0.0183514 -0.0111367 0)
(-0.0698421 0.0101553 0)
(-0.164684 0.0442806 0)
(-0.295762 0.0637038 0)
(-0.41041 0.0524967 0)
(-0.469782 0.0270703 0)
(-0.464731 -0.00754858 0)
(-0.396431 -0.0405668 0)
(-0.274238 -0.0650273 0)
(-0.121896 -0.0723344 0)
(0.0325661 -0.0635086 0)
(0.161783 -0.0448061 0)
(0.253197 -0.0244137 0)
(0.30751 -0.00798014 0)
(0.333121 0.0023204 0)
(0.339768 0.0069377 0)
(0.336096 0.00796784 0)
(0.328054 0.00726693 0)
(0.319079 0.00585381 0)
(0.310894 0.00436491 0)
(0.304174 0.00310272 0)
(0.298999 0.0021407 0)
(0.295177 0.00145048 0)
(0.292434 0.000972688 0)
(0.290504 0.000648071 0)
(0.289163 0.000429361 0)
(0.288241 0.000282738 0)
(0.28761 0.000185234 0)
(0.287182 0.000120652 0)
(0.286891 7.79643e-05 0)
(0.286696 4.96884e-05 0)
(0.286565 3.11317e-05 0)
(0.286479 1.90182e-05 0)
(0.286421 1.12022e-05 0)
(0.286385 6.44188e-06 0)
(0.28636 3.28233e-06 0)
(0.286346 1.67117e-06 0)
(0.286336 5.77197e-07 0)
(0.28633 -1.76933e-07 0)
(0.286327 -1.24834e-07 0)
(0.286324 -5.56722e-07 0)
(0.286324 -5.33748e-07 0)
(0.286323 -1.43112e-07 0)
(0.286323 -1.48922e-07 0)
(0.286322 3.22708e-08 0)
(-0.0222419 0.109767 0)
(-0.0950711 0.140415 0)
(-0.203348 0.177323 0)
(-0.306931 0.17446 0)
(-0.379449 0.123896 0)
(-0.39226 0.0417274 0)
(-0.360393 -0.0608416 0)
(-0.274813 -0.160883 0)
(-0.14576 -0.229353 0)
(0.00840577 -0.250655 0)
(0.165563 -0.227595 0)
(0.302188 -0.174738 0)
(0.402854 -0.116051 0)
(0.466711 -0.0664867 0)
(0.50325 -0.0307139 0)
(0.522415 -0.00796328 0)
(0.531469 0.00472763 0)
(0.534211 0.0102822 0)
(0.533164 0.0115804 0)
(0.530293 0.0106902 0)
(0.526858 0.00888919 0)
(0.523547 0.00692235 0)
(0.520683 0.0051597 0)
(0.518363 0.00373301 0)
(0.516564 0.00264685 0)
(0.515212 0.00185155 0)
(0.514218 0.00128351 0)
(0.513499 0.000883843 0)
(0.512985 0.000605119 0)
(0.51262 0.000412267 0)
(0.512363 0.000279388 0)
(0.512182 0.000188332 0)
(0.512058 0.000126286 0)
(0.51197 8.3861e-05 0)
(0.511912 5.56449e-05 0)
(0.51187 3.62302e-05 0)
(0.511842 2.346e-05 0)
(0.511823 1.53236e-05 0)
(0.51181 9.15193e-06 0)
(0.511802 6.06189e-06 0)
(0.511796 3.73206e-06 0)
(0.511792 2.06123e-06 0)
(0.511789 1.52795e-06 0)
(0.511788 1.40349e-06 0)
(0.511786 1.18942e-06 0)
(0.0118161 0.0930316 0)
(-0.0233944 0.157851 0)
(-0.0711 0.216861 0)
(-0.0998256 0.209596 0)
(-0.105305 0.137287 0)
(-0.0802273 0.0183271 0)
(-0.0303167 -0.126271 0)
(0.0539224 -0.267734 0)
(0.165656 -0.369659 0)
(0.276531 -0.404081 0)
(0.375441 -0.37033 0)
(0.465736 -0.283002 0)
(0.534585 -0.181637 0)
(0.570762 -0.10171 0)
(0.581715 -0.0512953 0)
(0.581677 -0.0217122 0)
(0.579238 -0.00455221 0)
(0.577108 0.00471028 0)
(0.575511 0.00884549 0)
(0.573833 0.00987101 0)
(0.571946 0.00921418 0)
(0.570043 0.00782009 0)
(0.5683 0.0062565 0)
(0.566813 0.00481338 0)
(0.565603 0.00360414 0)
(0.564651 0.00264714 0)
(0.563919 0.00191694 0)
(0.563364 0.00137273 0)
(0.562952 0.000973666 0)
(0.562646 0.000685002 0)
(0.562425 0.0004784 0)
(0.562263 0.000331904 0)
(0.56215 0.000228893 0)
(0.562067 0.000156743 0)
(0.56201 0.000106886 0)
(0.561969 7.22374e-05 0)
(0.56194 4.84817e-05 0)
(0.561921 3.25766e-05 0)
(0.561905 2.12006e-05 0)
(0.561897 1.42434e-05 0)
(0.56189 9.27291e-06 0)
(0.561886 6.17209e-06 0)
(0.561882 4.13736e-06 0)
(0.56188 3.47917e-06 0)
(0.561878 2.67447e-06 0)
(0.0381174 0.153167 0)
(0.0785299 0.234444 0)
(0.131236 0.275875 0)
(0.189915 0.237518 0)
(0.253852 0.136022 0)
(0.332895 -0.0104386 0)
(0.420366 -0.173474 0)
(0.49899 -0.329038 0)
(0.568295 -0.444992 0)
(0.621438 -0.480908 0)
(0.643769 -0.441707 0)
(0.652084 -0.349749 0)
(0.667286 -0.223481 0)
(0.676441 -0.10689 0)
(0.665728 -0.0340256 0)
(0.64239 -0.0011706 0)
(0.618855 0.0105835 0)
(0.601239 0.0145436 0)
(0.589943 0.0154845 0)
(0.583177 0.0147592 0)
(0.579074 0.0130195 0)
(0.57643 0.0108113 0)
(0.574608 0.00857008 0)
(0.573288 0.00656106 0)
(0.572305 0.00489543 0)
(0.571568 0.00358466 0)
(0.571018 0.00258925 0)
(0.570611 0.00185185 0)
(0.570314 0.00131469 0)
(0.570097 0.000927807 0)
(0.569942 0.000651386 0)
(0.569829 0.000455147 0)
(0.569751 0.000316621 0)
(0.569693 0.000219163 0)
(0.569654 0.000151088 0)
(0.569624 0.000103558 0)
(0.569604 7.05322e-05 0)
(0.569591 4.79982e-05 0)
(0.569579 3.20967e-05 0)
(0.569574 2.18166e-05 0)
(0.569568 1.44775e-05 0)
(0.569565 1.00694e-05 0)
(0.569563 6.67484e-06 0)
(0.569562 5.48342e-06 0)
(0.56956 4.04556e-06 0)
(0.0960823 -0.046014 0)
(0.130181 0.0471195 0)
(0.303049 0.0864936 0)
(0.446061 0.0733517 0)
(0.578893 -0.00574517 0)
(0.694623 -0.128561 0)
(0.78992 -0.262436 0)
(0.857728 -0.385576 0)
(0.871146 -0.486258 0)
(0.848504 -0.500747 0)
(0.802981 -0.417619 0)
(0.729945 -0.313168 0)
(0.673564 -0.209153 0)
(0.654408 -0.10411 0)
(0.650003 -0.0220624 0)
(0.64178 0.0211017 0)
(0.626516 0.0336009 0)
(0.609134 0.0315857 0)
(0.594427 0.0256064 0)
(0.584185 0.0198598 0)
(0.577921 0.0152564 0)
(0.574426 0.0116914 0)
(0.572597 0.00891467 0)
(0.571673 0.00673986 0)
(0.571207 0.00504355 0)
(0.570962 0.00373438 0)
(0.570821 0.00273704 0)
(0.570728 0.00198736 0)
(0.570661 0.00143085 0)
(0.570608 0.00102237 0)
(0.570569 0.0007255 0)
(0.570536 0.00051165 0)
(0.570514 0.00035878 0)
(0.570495 0.000250146 0)
(0.570483 0.00017351 0)
(0.570473 0.000119646 0)
(0.570466 8.20012e-05 0)
(0.570462 5.60605e-05 0)
(0.570456 3.78243e-05 0)
(0.570456 2.5869e-05 0)
(0.570453 1.72327e-05 0)
(0.570452 1.21363e-05 0)
(0.570452 8.04641e-06 0)
(0.570451 6.53707e-06 0)
(0.57045 4.75531e-06 0)
)
;

boundaryField
{
    inlet
    {
        type            fixedValue;
        value           uniform (1 0 0);
    }
    outlet
    {
        type            zeroGradient;
    }
    upperWall
    {
        type            noSlip;
    }
    lowerWall
    {
        type            noSlip;
    }
    frontAndBack
    {
        type            empty;
    }
}


// ************************************************************************* //
