/*--------------------------------*- C++ -*----------------------------------*\
  =========                 |
  \\      /  F ield         | OpenFOAM: The Open Source CFD Toolbox
   \\    /   O peration     | Website:  https://openfoam.org
    \\  /    A nd           | Version:  10
     \\/     M anipulation  |
\*---------------------------------------------------------------------------*/
FoamFile
{
    format      ascii;
    class       volVectorField;
    location    "7.375";
    object      U;
}
// * * * * * * * * * * * * * * * * * * * * * * * * * * * * * * * * * * * * * //

dimensions      [0 1 -1 0 0 0 0];

internalField   nonuniform List<vector> 
400
(
(-0.000134576 0.000121792 0)
(-0.00102853 0.000386392 0)
(-0.00254077 0.000481842 0)
(-0.00407819 0.000509735 0)
(-0.00565104 0.000520231 0)
(-0.00721963 0.000528729 0)
(-0.00876553 0.000534424 0)
(-0.0102643 0.000531263 0)
(-0.0116756 0.000511332 0)
(-0.0129404 0.000465378 0)
(-0.0139783 0.000383132 0)
(-0.0146865 0.000254568 0)
(-0.0149432 7.25527e-05 0)
(-0.0146151 -0.000169557 0)
(-0.0135797 -0.000461346 0)
(-0.0117588 -0.000775062 0)
(-0.00917492 -0.00105382 0)
(-0.00606757 -0.00120556 0)
(-0.00260441 -0.00109493 0)
(-0.000387976 -0.000464578 0)
(-0.00043566 0.00104449 0)
(-0.00229594 0.00218705 0)
(-0.00514218 0.00259904 0)
(-0.00802608 0.00270877 0)
(-0.0109387 0.00271447 0)
(-0.0137957 0.00267938 0)
(-0.016546 0.00260548 0)
(-0.0191345 0.00247346 0)
(-0.0214862 0.00225596 0)
(-0.0235018 0.00192091 0)
(-0.0250547 0.00143379 0)
(-0.0259895 0.000761424 0)
(-0.0261346 -0.000121386 0)
(-0.0253037 -0.00121126 0)
(-0.0233274 -0.00245963 0)
(-0.0201107 -0.00375052 0)
(-0.0157125 -0.00486448 0)
(-0.0104979 -0.00544712 0)
(-0.00474563 -0.00498776 0)
(-0.00086614 -0.00249888 0)
(-0.000565366 0.00269037 0)
(-0.00286522 0.0050995 0)
(-0.00631454 0.0059514 0)
(-0.00978239 0.00615524 0)
(-0.0132625 0.00611721 0)
(-0.0166559 0.00596776 0)
(-0.0199032 0.00571666 0)
(-0.0229433 0.00533126 0)
(-0.0256946 0.00476191 0)
(-0.0280507 0.00394913 0)
(-0.0298756 0.00282884 0)
(-0.0310029 0.00134063 0)
(-0.0312293 -0.000557696 0)
(-0.0303255 -0.00286112 0)
(-0.0280751 -0.00547639 0)
(-0.0243248 -0.00817267 0)
(-0.0190951 -0.0105056 0)
(-0.012798 -0.0117349 0)
(-0.00575227 -0.0108067 0)
(-0.00101933 -0.00568613 0)
(-0.000606688 0.00443847 0)
(-0.00309088 0.00820034 0)
(-0.0068106 0.00950051 0)
(-0.0105364 0.00978644 0)
(-0.0142757 0.00969458 0)
(-0.0179305 0.00942674 0)
(-0.0214483 0.00900124 0)
(-0.0247766 0.0083728 0)
(-0.0278427 0.00746955 0)
(-0.0305468 0.00620201 0)
(-0.0327534 0.00446985 0)
(-0.0342837 0.00217555 0)
(-0.0349098 -0.000753375 0)
(-0.0343401 -0.004344 0)
(-0.0322489 -0.00848108 0)
(-0.0283461 -0.0128309 0)
(-0.0225176 -0.0166916 0)
(-0.0151873 -0.0188191 0)
(-0.00669985 -0.0174214 0)
(-0.00107803 -0.00914161 0)
(-0.000613185 0.0062663 0)
(-0.0031811 0.011462 0)
(-0.0070476 0.0132343 0)
(-0.0109218 0.0136113 0)
(-0.0148268 0.0134781 0)
(-0.0186731 0.0131138 0)
(-0.0224243 0.0125477 0)
(-0.0260463 0.0117236 0)
(-0.0294865 0.0105468 0)
(-0.032663 0.00889389 0)
(-0.0354494 0.00661692 0)
(-0.0376576 0.00355624 0)
(-0.0390295 -0.000432487 0)
(-0.0391857 -0.00541963 0)
(-0.0376379 -0.0113451 0)
(-0.0338661 -0.0177958 0)
(-0.0274806 -0.0237655 0)
(-0.018803 -0.0273074 0)
(-0.00811493 -0.0254944 0)
(-0.00111369 -0.013131 0)
(-0.000608927 0.0081254 0)
(-0.00323012 0.0148216 0)
(-0.00720918 0.0170936 0)
(-0.0112056 0.0175797 0)
(-0.015258 0.0174315 0)
(-0.0192899 0.0170133 0)
(-0.0232874 0.0163702 0)
(-0.0272442 0.0154379 0)
(-0.0311392 0.0141006 0)
(-0.0349247 0.0121976 0)
(-0.0385033 0.00952163 0)
(-0.0416983 0.00582353 0)
(-0.0442085 0.000842001 0)
(-0.0455857 -0.00562249 0)
(-0.0451518 -0.0136496 0)
(-0.0420123 -0.0228398 0)
(-0.0352834 -0.0318795 0)
(-0.0248732 -0.0378547 0)
(-0.0106216 -0.0359043 0)
(-0.00116362 -0.0179511 0)
(-0.000600896 0.0100005 0)
(-0.00326892 0.0182601 0)
(-0.00735519 0.0210616 0)
(-0.0114681 0.021678 0)
(-0.0156621 0.0215468 0)
(-0.0198766 0.0211282 0)
(-0.0241262 0.0204902 0)
(-0.0284415 0.0195673 0)
(-0.0328483 0.0182279 0)
(-0.0373544 0.0162758 0)
(-0.0419233 0.0134381 0)
(-0.0464273 0.00935428 0)
(-0.050582 0.00358879 0)
(-0.053903 -0.00431816 0)
(-0.055531 -0.0146876 0)
(-0.0541243 -0.0273762 0)
(-0.0479728 -0.0409591 0)
(-0.0357659 -0.0514091 0)
(-0.0157852 -0.0502552 0)
(-0.0014278 -0.024367 0)
(-0.000589975 0.0118882 0)
(-0.0033042 0.0217769 0)
(-0.0074975 0.0251364 0)
(-0.0117182 0.0259005 0)
(-0.0160366 0.0258153 0)
(-0.0204095 0.0254501 0)
(-0.0248845 0.0249069 0)
(-0.029539 0.0241313 0)
(-0.0344615 0.0229892 0)
(-0.0397432 0.0212617 0)
(-0.0454539 0.0186169 0)
(-0.0515911 0.0145746 0)
(-0.0579998 0.00847632 0)
(-0.0642711 -0.00047862 0)
(-0.0695569 -0.0130536 0)
(-0.0721804 -0.0298513 0)
(-0.0691157 -0.0500369 0)
(-0.0558886 -0.0690078 0)
(-0.0272373 -0.0715031 0)
(-0.00270466 -0.0343667 0)
(-0.000576834 0.0137865 0)
(-0.00333945 0.0253732 0)
(-0.00763902 0.0293123 0)
(-0.0119486 0.030229 0)
(-0.0163548 0.030206 0)
(-0.0208306 0.0299375 0)
(-0.0254587 0.0295738 0)
(-0.0303691 0.0290892 0)
(-0.035728 0.0283717 0)
(-0.0417393 0.027211 0)
(-0.0486351 0.0252529 0)
(-0.0566439 0.0219305 0)
(-0.0659103 0.0163881 0)
(-0.0763953 0.00744531 0)
(-0.0878389 -0.00640272 0)
(-0.0985486 -0.0269775 0)
(-0.103056 -0.0564432 0)
(-0.0898397 -0.0914609 0)
(-0.0497919 -0.104912 0)
(-0.00695656 -0.0526123 0)
(-0.00056492 0.0156967 0)
(-0.00338574 0.0290521 0)
(-0.00779317 0.0335772 0)
(-0.0121627 0.0346294 0)
(-0.0165983 0.0346603 0)
(-0.0210862 0.0345075 0)
(-0.0257417 0.0343859 0)
(-0.0307462 0.0343209 0)
(-0.0363463 0.0342564 0)
(-0.0428758 0.0340438 0)
(-0.0507799 0.0333881 0)
(-0.0606346 0.0317611 0)
(-0.0731595 0.0282969 0)
(-0.0892422 0.021646 0)
(-0.109601 0.00941388 0)
(-0.132834 -0.0135689 0)
(-0.148214 -0.0566014 0)
(-0.133111 -0.12031 0)
(-0.08352 -0.156728 0)
(-0.0178342 -0.0873941 0)
(-0.000562986 0.017632 0)
(-0.00346978 0.0328264 0)
(-0.00799706 0.0379157 0)
(-0.0123909 0.0390506 0)
(-0.0167779 0.0390889 0)
(-0.0211523 0.0390298 0)
(-0.0256536 0.0391674 0)
(-0.0305033 0.039601 0)
(-0.0360122 0.0403694 0)
(-0.0426284 0.0414544 0)
(-0.0510066 0.0427427 0)
(-0.0621124 0.0439659 0)
(-0.0773767 0.0446139 0)
(-0.0989346 0.0435472 0)
(-0.128978 0.0367341 0)
(-0.16416 0.0115395 0)
(-0.185174 -0.0535812 0)
(-0.165299 -0.158803 0)
(-0.119442 -0.223853 0)
(-0.0369269 -0.148958 0)
(-0.00058969 0.0196321 0)
(-0.00364597 0.0367408 0)
(-0.00832689 0.0423391 0)
(-0.0127064 0.0434574 0)
(-0.0169512 0.0434002 0)
(-0.0210584 0.0433489 0)
(-0.0251797 0.0436887 0)
(-0.0295505 0.0446083 0)
(-0.0345047 0.0462785 0)
(-0.0405424 0.0488871 0)
(-0.0484358 0.0526499 0)
(-0.0593906 0.057818 0)
(-0.0752408 0.0645348 0)
(-0.0986788 0.0715202 0)
(-0.131811 0.0709995 0)
(-0.168328 0.0397731 0)
(-0.185171 -0.0517543 0)
(-0.164595 -0.195474 0)
(-0.138333 -0.291576 0)
(-0.0507202 -0.246955 0)
(-0.000675615 0.0217514 0)
(-0.00399311 0.040782 0)
(-0.00889758 0.0467146 0)
(-0.0132387 0.047638 0)
(-0.0172481 0.0473464 0)
(-0.0209182 0.0471808 0)
(-0.0244053 0.0475917 0)
(-0.0279236 0.0488557 0)
(-0.0317548 0.0512798 0)
(-0.0363238 0.0552801 0)
(-0.0422974 0.0614562 0)
(-0.0507152 0.0706287 0)
(-0.0630621 0.0834445 0)
(-0.0809355 0.0974353 0)
(-0.105565 0.100168 0)
(-0.130168 0.0611226 0)
(-0.140054 -0.0475375 0)
(-0.12734 -0.212889 0)
(-0.125738 -0.344938 0)
(-0.0458734 -0.354152 0)
(-0.000914995 0.0242862 0)
(-0.00475678 0.0455108 0)
(-0.00997239 0.0517156 0)
(-0.0141715 0.0522611 0)
(-0.0177956 0.0514188 0)
(-0.0208681 0.0507776 0)
(-0.0235147 0.050887 0)
(-0.025874 0.0520999 0)
(-0.0281101 0.0548197 0)
(-0.0304437 0.0596197 0)
(-0.0332022 0.067352 0)
(-0.0367727 0.0790748 0)
(-0.0416939 0.0954947 0)
(-0.047814 0.112672 0)
(-0.0564915 0.115913 0)
(-0.062835 0.0726205 0)
(-0.0669814 -0.0394458 0)
(-0.0636871 -0.208376 0)
(-0.0886287 -0.368969 0)
(-0.030549 -0.430057 0)
(-0.00127204 0.0273863 0)
(-0.00566114 0.0495998 0)
(-0.0114834 0.0551428 0)
(-0.0157494 0.0546751 0)
(-0.0191094 0.0532374 0)
(-0.0214924 0.0522814 0)
(-0.023089 0.0522073 0)
(-0.0240056 0.0532728 0)
(-0.0242726 0.0558636 0)
(-0.0238485 0.060573 0)
(-0.0226759 0.068289 0)
(-0.0203238 0.0798948 0)
(-0.0166129 0.0958707 0)
(-0.0096881 0.111885 0)
(-0.002497 0.114527 0)
(0.00902138 0.0726953 0)
(0.00499801 -0.0335188 0)
(-0.000752057 -0.184688 0)
(-0.053666 -0.362575 0)
(-0.0149197 -0.476628 0)
(-0.00334926 0.0301033 0)
(-0.0100831 0.057457 0)
(-0.0152732 0.0629275 0)
(-0.0185741 0.0619053 0)
(-0.0207023 0.0588894 0)
(-0.0220221 0.0563154 0)
(-0.02256 0.0547148 0)
(-0.0222118 0.054372 0)
(-0.0207597 0.0555994 0)
(-0.0178483 0.0588422 0)
(-0.0131191 0.0648221 0)
(-0.0055284 0.0740161 0)
(0.00527794 0.0867699 0)
(0.0220268 0.099039 0)
(0.0393674 0.100865 0)
(0.0601343 0.0666411 0)
(0.0581431 -0.0240403 0)
(0.0497987 -0.148502 0)
(-0.0276994 -0.339614 0)
(0.00202812 -0.502213 0)
(-0.00104585 0.04382 0)
(-0.00818473 0.0594716 0)
(-0.0183808 0.0609548 0)
(-0.021884 0.0567329 0)
(-0.0245626 0.0535908 0)
(-0.0252565 0.0514773 0)
(-0.0246909 0.0502427 0)
(-0.0227979 0.0497951 0)
(-0.0194053 0.0503105 0)
(-0.0140439 0.0520354 0)
(-0.00631524 0.055563 0)
(0.00527361 0.0611021 0)
(0.0206819 0.068811 0)
(0.0430048 0.0757096 0)
(0.0645912 0.0750519 0)
(0.0918315 0.0503052 0)
(0.0885589 -0.0161511 0)
(0.0790267 -0.109454 0)
(-0.00295506 -0.310854 0)
(0.0230034 -0.508868 0)
(-0.0125257 0.0324152 0)
(-0.0237615 0.0800317 0)
(-0.0225527 0.0795293 0)
(-0.0279221 0.0744542 0)
(-0.0289443 0.067102 0)
(-0.028176 0.0609913 0)
(-0.0254002 0.0560395 0)
(-0.0208568 0.0521898 0)
(-0.0146012 0.049453 0)
(-0.00625029 0.0476633 0)
(0.00416067 0.0471635 0)
(0.0180706 0.0479411 0)
(0.0345956 0.0504722 0)
(0.0573734 0.0524832 0)
(0.0762406 0.0524443 0)
(0.104904 0.0389859 0)
(0.101242 -0.000651835 0)
(0.11186 -0.0696243 0)
(0.0444752 -0.278993 0)
(0.0587807 -0.494736 0)
(-0.0775342 0.0962061 0)
(-0.0632345 0.0589689 0)
(-0.0655926 0.0598921 0)
(-0.0436664 0.0532288 0)
(-0.0263385 0.0462931 0)
(-0.00618865 0.0411445 0)
(0.0128285 0.0373868 0)
(0.0321457 0.0341861 0)
(0.0500091 0.0318674 0)
(0.0693133 0.0296956 0)
(0.086139 0.0284749 0)
(0.107489 0.0275418 0)
(0.122935 0.027218 0)
(0.152463 0.02712 0)
(0.163063 0.022742 0)
(0.2042 0.0146501 0)
(0.19593 -0.0195662 0)
(0.228362 -0.0767287 0)
(0.15706 -0.254206 0)
(0.126209 -0.436098 0)
(0.119507 0.140819 0)
(0.152242 0.0861819 0)
(0.228784 0.0635838 0)
(0.284241 0.0481076 0)
(0.325571 0.0374313 0)
(0.363822 0.0296467 0)
(0.392493 0.0242101 0)
(0.423676 0.0201511 0)
(0.443473 0.0172213 0)
(0.472132 0.0150083 0)
(0.484708 0.013206 0)
(0.514333 0.0120798 0)
(0.519638 0.0109328 0)
(0.552795 0.00999839 0)
(0.54802 0.00828581 0)
(0.581968 0.00383981 0)
(0.551757 -0.00548333 0)
(0.557901 -0.0275056 0)
(0.422759 -0.0734616 0)
(0.275812 -0.152054 0)
)
;

boundaryField
{
    movingWall
    {
        type            fixedValue;
        value           uniform (1 0 0);
    }
    fixedWalls
    {
        type            noSlip;
    }
    frontAndBack
    {
        type            empty;
    }
}


// ************************************************************************* //
