/*--------------------------------*- C++ -*----------------------------------*\
  =========                 |
  \\      /  F ield         | OpenFOAM: The Open Source CFD Toolbox
   \\    /   O peration     | Website:  https://openfoam.org
    \\  /    A nd           | Version:  10
     \\/     M anipulation  |
\*---------------------------------------------------------------------------*/
FoamFile
{
    format      ascii;
    class       surfaceScalarField;
    location    "8.175";
    object      phi;
}
// * * * * * * * * * * * * * * * * * * * * * * * * * * * * * * * * * * * * * //

dimensions      [0 3 -1 0 0 0 0];

internalField   nonuniform List<scalar> 
760
(
-1.23147e-05
1.23147e-05
-3.96934e-05
2.73787e-05
-7.26091e-05
3.29157e-05
-0.00010725
3.46404e-05
-0.00014241
3.516e-05
-0.000177726
3.53165e-05
-0.000212839
3.51126e-05
-0.000247076
3.42372e-05
-0.000279316
3.22404e-05
-0.000307885
2.85688e-05
-0.000330482
2.25969e-05
-0.000344173
1.36913e-05
-0.000345532
1.35852e-06
-0.000330944
-1.45881e-05
-0.000297582
-3.3361e-05
-0.000244639
-5.29434e-05
-0.000175204
-6.9435e-05
-9.82572e-05
-7.6947e-05
-3.01513e-05
-6.81059e-05
-3.01513e-05
-2.939e-05
4.17047e-05
-8.29249e-05
8.09137e-05
-0.000145377
9.53679e-05
-0.000210439
9.97026e-05
-0.000275676
0.000100396
-0.000339932
9.95729e-05
-0.000402146
9.73264e-05
-0.000460874
9.29654e-05
-0.000514073
8.54387e-05
-0.000558951
7.34472e-05
-0.000591895
5.55407e-05
-0.000608414
3.02107e-05
-0.000603921
-3.13415e-06
-0.000573053
-4.54563e-05
-0.000512153
-9.42613e-05
-0.000420518
-0.000144578
-0.000303173
-0.00018678
-0.000174131
-0.000205988
-5.84792e-05
-0.000183758
-8.86305e-05
-3.71578e-05
7.88624e-05
-0.000102876
0.000146632
-0.000178708
0.0001712
-0.000257129
0.000178124
-0.000335271
0.000178538
-0.000411758
0.00017606
-0.000485363
0.000170932
-0.000554497
0.0001621
-0.000616962
0.000147903
-0.000669759
0.000126244
-0.000708955
9.47367e-05
-0.000729766
5.1022e-05
-0.000726201
-6.69943e-06
-0.000691863
-7.97947e-05
-0.000621373
-0.000164752
-0.000512502
-0.000253448
-0.000370106
-0.000329176
-0.000211319
-0.000364776
-6.91538e-05
-0.000325924
-0.000157784
-4.01328e-05
0.000118995
-0.00011116
0.000217659
-0.000192873
0.000252913
-0.000277235
0.000262486
-0.000361368
0.000262671
-0.00044404
0.000258733
-0.000524233
0.000251124
-0.000600607
0.000238474
-0.000671229
0.000218525
-0.000733299
0.000188315
-0.00078284
0.000144278
-0.000814405
8.25868e-05
-0.000821523
4.18829e-07
-0.000794648
-0.00010667
-0.0007251
-0.000234299
-0.000606381
-0.000372168
-0.000440513
-0.000495044
-0.000248148
-0.00055714
-7.57807e-05
-0.000498291
-0.000233565
-4.09844e-05
0.00015998
-0.000114324
0.000290999
-0.000198892
0.000337481
-0.000286445
0.000350039
-0.000374289
0.000350514
-0.000461547
0.000345991
-0.000547661
0.000337239
-0.000631845
0.000322657
-0.000712756
0.000299435
-0.000788131
0.00026369
-0.000854282
0.00021043
-0.000905428
0.000133732
-0.000932795
2.77864e-05
-0.00092507
-0.000114396
-0.000866733
-0.000292636
-0.000743372
-0.000495529
-0.000549229
-0.000689188
-0.000305369
-0.000801
-8.42486e-05
-0.000719411
-0.000317814
-4.10073e-05
0.000200987
-0.000115493
0.000365484
-0.000201816
0.000423804
-0.000291629
0.000439852
-0.000382505
0.00044139
-0.000474066
0.000437552
-0.000566422
0.000429595
-0.000659619
0.000415855
-0.000753291
0.000393107
-0.000846196
0.000356595
-0.000935507
0.000299741
-0.00101571
0.000213931
-0.00107698
8.90631e-05
-0.00110476
-8.66168e-05
-0.00107567
-0.000321731
-0.000961378
-0.000609818
-0.0007367
-0.000913866
-0.000410635
-0.00112706
-0.000102354
-0.00102769
-0.000420168
-4.06626e-05
0.000241649
-0.000115803
0.000440625
-0.000203387
0.000511388
-0.000294954
0.000531419
-0.00038838
0.000534816
-0.000483881
0.000533053
-0.000582423
0.000528136
-0.000685188
0.00051862
-0.000793274
0.000501193
-0.000907211
0.000470532
-0.00102612
0.000418648
-0.00114628
0.00033409
-0.00125871
0.000201495
-0.00134981
4.4849e-06
-0.00138561
-0.000285929
-0.00131736
-0.000678074
-0.0010749
-0.00115633
-0.000623154
-0.00157881
-0.000154992
-0.00149585
-0.00057516
-4.00616e-05
0.000281711
-0.00011554
0.000516104
-0.000203942
0.000599789
-0.000296617
0.000624094
-0.000391724
0.000629924
-0.000490115
0.000631444
-0.000593745
0.000631766
-0.000705239
0.000630114
-0.000827717
0.000623672
-0.000964509
0.000607324
-0.00111851
0.000572645
-0.00129086
0.000506443
-0.0014788
0.000389434
-0.0016693
0.000194986
-0.00183579
-0.000119436
-0.00188618
-0.000627687
-0.00166009
-0.00138241
-0.00103847
-0.00220043
-0.000304695
-0.00222963
-0.000879855
-3.92617e-05
0.000320973
-0.000114813
0.000591655
-0.000203486
0.000688463
-0.000296295
0.000716903
-0.000391609
0.000725238
-0.000490887
0.000730722
-0.00059709
0.000737968
-0.000714412
0.000747435
-0.000848428
0.000757688
-0.00100629
0.000765186
-0.00119675
0.000763108
-0.00143003
0.000739715
-0.00171716
0.000676568
-0.0020625
0.000540332
-0.00243249
0.000250547
-0.00268009
-0.000380082
-0.00249808
-0.00156442
-0.00170969
-0.00298882
-0.000651833
-0.00328749
-0.00153169
-3.84307e-05
0.000359404
-0.000113936
0.00066716
-0.00020227
0.000776797
-0.000293912
0.000808545
-0.000387317
0.000818643
-0.000484425
0.00082783
-0.000589058
0.000842602
-0.00070684
0.000865218
-0.000845774
0.000896621
-0.00101725
0.000936666
-0.00123768
0.000983534
-0.00153066
0.0010327
-0.00192729
0.00107319
-0.00245023
0.00106327
-0.00303973
0.00084005
-0.00344942
2.96128e-05
-0.00332354
-0.0016903
-0.00252167
-0.00379069
-0.00124836
-0.0045608
-0.00278005
-3.79622e-05
0.000397366
-0.000113676
0.000742874
-0.000201148
0.000864269
-0.000290121
0.000897519
-0.000378964
0.000907485
-0.000469887
0.000918753
-0.000567197
0.000939912
-0.000677356
0.000975377
-0.000809997
0.00102926
-0.000979798
0.00110647
-0.00120967
0.0012134
-0.00153452
0.00135755
-0.00199736
0.00153603
-0.00261388
0.0016798
-0.00327872
0.00150488
-0.00371078
0.000461679
-0.00365646
-0.00174462
-0.00307912
-0.00436804
-0.00184301
-0.00579691
-0.00462306
-3.8671e-05
0.000436037
-0.000115596
0.000819799
-0.000201944
0.000950616
-0.000286646
0.000982221
-0.000367975
0.000988813
-0.000448156
0.000998934
-0.000531386
0.00102314
-0.00062387
0.00106786
-0.000734963
0.00114036
-0.000879152
0.00125066
-0.00107896
0.00141321
-0.00136652
0.00164511
-0.00177399
0.0019435
-0.00228748
0.00219329
-0.00279659
0.00201399
-0.00311079
0.000775876
-0.0031526
-0.00170281
-0.00288071
-0.00463992
-0.00190826
-0.00676935
-0.00653132
-4.16512e-05
0.000477688
-0.000121814
0.000899962
-0.00020745
0.00103625
-0.000286706
0.00106148
-0.00035768
0.00105979
-0.000422429
0.00106368
-0.000484522
0.00108523
-0.000548396
0.00113174
-0.000620345
0.0012123
-0.000709524
0.00133983
-0.000828925
0.00153261
-0.00099239
0.00180858
-0.00120847
0.00215958
-0.00144992
0.00243474
-0.00167347
0.00223754
-0.00181753
0.000919931
-0.00193781
-0.00158253
-0.0020038
-0.00457393
-0.00150461
-0.00726854
-0.00803593
-5.06049e-05
0.000528293
-0.000138175
0.000987532
-0.000222919
0.001121
-0.000294061
0.00113262
-0.00035153
0.00111726
-0.000397445
0.0011096
-0.000433585
0.00112137
-0.000461839
0.00115999
-0.000483956
0.00123442
-0.000501175
0.00135705
-0.000513747
0.00154519
-0.000514731
0.00180956
-0.000494634
0.00213948
-0.000438475
0.00237858
-0.000383211
0.00218227
-0.00039674
0.00093346
-0.000589325
-0.00138995
-0.00101018
-0.00415307
-0.00100718
-0.00727154
-0.00904312
-6.21021e-05
0.000590395
-0.000160946
0.00108638
-0.000249516
0.00120957
-0.000317416
0.00120052
-0.0003623
0.00116214
-0.000387168
0.00113447
-0.000393932
0.00112814
-0.000382643
0.0011487
-0.000351078
0.00120286
-0.000293465
0.00129944
-0.000199458
0.00145118
-4.96721e-05
0.00165978
0.000174606
0.00191521
0.000463914
0.00208927
0.000737143
0.00190904
0.000788485
0.000882119
0.000478489
-0.00107995
-0.000247021
-0.00342756
-0.000609619
-0.00690894
-0.00965274
-0.000129736
0.000720131
-0.000243052
0.00119969
-0.000316264
0.00128278
-0.000357642
0.0012419
-0.000377103
0.0011816
-0.000378005
0.00113537
-0.000358705
0.00110884
-0.000314721
0.00110472
-0.000239422
0.00112756
-0.000122531
0.00118255
5.14272e-05
0.00127722
0.000297859
0.00141334
0.000637962
0.0015751
0.00105455
0.00167268
0.00143428
0.00152931
0.00153432
0.000782078
0.00116652
-0.000712151
0.000302873
-0.00256391
-0.000271669
-0.0063344
-0.0099244
-8.38356e-05
0.000803967
-0.000262474
0.00137833
-0.000375698
0.001396
-0.000431036
0.00129724
-0.000444729
0.00119529
-0.000426982
0.00111762
-0.000380268
0.00106212
-0.000301814
0.00102626
-0.000185526
0.00101127
-1.95613e-05
0.00101659
0.000208105
0.00104956
0.00051473
0.00110672
0.000907873
0.00118196
0.00136641
0.00121414
0.00178056
0.00111516
0.00190307
0.000659573
0.00152639
-0.000335474
0.000703743
-0.00174127
0.000113021
-0.00574368
-0.00981138
-0.000379513
0.00118348
-0.000438264
0.00143708
-0.000488327
0.00144606
-0.000527213
0.00133612
-0.000518856
0.00118694
-0.000469241
0.00106801
-0.000382061
0.000974945
-0.000255529
0.00089973
-9.00227e-05
0.000845762
0.000121993
0.00080457
0.000385599
0.00078595
0.000712843
0.000779475
0.00110045
0.000794352
0.00151888
0.000795717
0.00190761
0.00072643
0.00207793
0.000489256
0.00196652
-0.000224064
0.00155414
-0.00132889
0.000865608
-0.00505515
-0.00894578
-0.00136262
0.0025461
-0.00132591
0.00140037
-0.00106756
0.00118771
-0.000697099
0.000965661
-0.000306154
0.000795993
8.90822e-05
0.00067277
0.000477412
0.000586615
0.000858041
0.000519102
0.00123322
0.000470583
0.00160798
0.000429804
0.00199026
0.000403674
0.00238689
0.000382844
0.00281419
0.000367058
0.00326331
0.000346589
0.00371742
0.000272324
0.00406637
0.000140302
0.0041582
-0.000315893
0.00398746
-0.00115815
0.00252538
-0.00359307
-0.00642039
0.0025461
0.00394647
0.00513418
0.00609985
0.00689584
0.00756861
0.00815522
0.00867432
0.00914491
0.00957471
0.00997839
0.0103612
0.0107283
0.0110749
0.0113472
0.0114875
0.0111716
0.0100135
0.00642039
)
;

boundaryField
{
    movingWall
    {
        type            calculated;
        value           uniform 0;
    }
    fixedWalls
    {
        type            calculated;
        value           uniform 0;
    }
    frontAndBack
    {
        type            empty;
        value           nonuniform List<scalar> 0();
    }
}


// ************************************************************************* //
