/*--------------------------------*- C++ -*----------------------------------*\
  =========                 |
  \\      /  F ield         | OpenFOAM: The Open Source CFD Toolbox
   \\    /   O peration     | Website:  https://openfoam.org
    \\  /    A nd           | Version:  10
     \\/     M anipulation  |
\*---------------------------------------------------------------------------*/
FoamFile
{
    format      ascii;
    class       volScalarField;
    location    "2.225";
    object      p;
}
// * * * * * * * * * * * * * * * * * * * * * * * * * * * * * * * * * * * * * //

dimensions      [0 2 -2 0 0 0 0];

internalField   nonuniform List<scalar> 
475
(
-0.0196402
-0.0444279
-0.0762858
-0.0973474
-0.122145
-0.046674
-0.0578555
-0.074697
-0.0964793
-0.112858
-0.0436494
-0.0527086
-0.0677333
-0.0860026
-0.101867
-0.0428538
-0.0534672
-0.0677031
-0.0832423
-0.0965817
-0.0127709
-0.0396965
-0.0628729
-0.0797181
-0.0917272
-0.139656
-0.131753
-0.168393
-0.238611
-0.287781
-0.293084
-0.254661
-0.179173
-0.0956978
-0.0316291
0.0060383
0.022772
0.0293055
0.0361847
0.0453094
0.0530317
0.0572066
0.0588116
0.0588253
0.0578813
0.0563628
0.0545046
0.0524466
0.0502703
0.048023
0.045733
0.0434175
0.0410872
0.0387485
0.036405
0.0340587
0.0317107
0.0293619
0.0270127
0.0246633
0.0223141
0.0199649
0.0176158
0.0152669
0.0129178
0.0105691
0.00822024
0.00587141
0.00352287
0.00117433
-0.132343
-0.148032
-0.163208
-0.188906
-0.208628
-0.203004
-0.171711
-0.122477
-0.0684373
-0.0267377
0.000188529
0.0171366
0.0265633
0.0341557
0.0426629
0.0490842
0.0532351
0.0555678
0.0563447
0.0560699
0.0550974
0.0536517
0.0518895
0.0499183
0.0478098
0.0456115
0.043355
0.0410613
0.038744
0.0364119
0.0340708
0.0317245
0.0293753
0.0270248
0.0246738
0.0223228
0.019972
0.0176215
0.0152713
0.0129212
0.0105716
0.00822204
0.00587263
0.00352357
0.00117456
-0.11612
-0.125633
-0.131445
-0.141584
-0.147891
-0.139184
-0.121982
-0.101368
-0.0724546
-0.0437344
-0.0267243
-0.0164189
-0.000842948
0.0210508
0.0383392
0.0478683
0.0524341
0.0546194
0.0555584
0.0555165
0.0547331
0.0534298
0.0517683
0.049863
0.0477949
0.0456195
0.0433746
0.0410854
0.0387688
0.0364354
0.034092
0.031743
0.029391
0.0270379
0.0246845
0.0223314
0.0199788
0.0176268
0.0152754
0.0129243
0.0105739
0.00822367
0.00587375
0.0035242
0.00117475
-0.106671
-0.113312
-0.115224
-0.116088
-0.113767
-0.100522
-0.0878583
-0.0813584
-0.0706927
-0.056411
-0.0447048
-0.0304748
-0.0104793
0.00968706
0.0260178
0.0377725
0.0457375
0.0506704
0.0532583
0.0541683
0.0539445
0.0529725
0.0515094
0.0497244
0.0477291
0.0455971
0.043377
0.0411007
0.0387894
0.0364568
0.0341119
0.0317605
0.0294058
0.0270501
0.0246942
0.0223391
0.0199848
0.0176314
0.0152788
0.0129269
0.0105757
0.00822502
0.00587469
0.0035247
0.00117489
-0.100339
-0.104585
-0.104136
-0.101459
-0.0934897
-0.0782662
-0.0680804
-0.0679784
-0.066632
-0.0600825
-0.0512786
-0.0369268
-0.0145707
0.00881722
0.0278508
0.0405326
0.0481478
0.0523585
0.0543522
0.0548747
0.0544106
0.0532877
0.0517273
0.0498781
0.0478392
0.0456769
0.0434354
0.041144
0.0388219
0.0364815
0.0341309
0.0317751
0.029417
0.0270586
0.0247008
0.0223441
0.0199885
0.0176342
0.0152809
0.0129285
0.0105768
0.00822582
0.00587526
0.003525
0.00117497
-0.185951
-0.193142
-0.212639
-0.246139
-0.272984
-0.264933
-0.211112
-0.116381
-0.0100577
0.076801
0.125812
0.1418
0.137856
0.125683
0.111803
0.0990043
0.0881993
0.079325
0.0721472
0.0663572
0.0616355
0.057699
0.0543175
0.0513147
0.0485632
0.0459743
0.0434884
0.0410663
0.0386829
0.036322
0.0339738
0.0316319
0.0292927
0.0269542
0.0246151
0.0222751
0.0199339
0.0175915
0.0152481
0.0129038
0.0105586
0.00821279
0.00586656
0.00352003
0.00117334
-0.18046
-0.186871
-0.216822
-0.266296
-0.308051
-0.307482
-0.260288
-0.162206
-0.0432803
0.0563607
0.115288
0.135239
0.132157
0.120304
0.107213
0.0955963
0.0857983
0.0776703
0.0711031
0.0657562
0.0613237
0.057562
0.0542778
0.0513241
0.0485938
0.0460113
0.0435246
0.0410985
0.03871
0.0363443
0.0339916
0.031646
0.0293037
0.0269627
0.0246216
0.0222801
0.0199377
0.0175944
0.0152503
0.0129053
0.0105597
0.00821358
0.00586703
0.00352033
0.00117346
-0.188234
-0.194212
-0.23861
-0.306673
-0.367464
-0.387524
-0.340755
-0.230348
-0.0932207
0.0209798
0.0918242
0.118539
0.118402
0.108197
0.0969432
0.0874296
0.0798077
0.0738597
0.068731
0.0642993
0.0604549
0.0570642
0.0540079
0.0511905
0.048539
0.0460002
0.043536
0.0411201
0.038735
0.0363687
0.0340136
0.0316648
0.0293193
0.0269752
0.0246316
0.0222879
0.0199437
0.017599
0.0152538
0.0129079
0.0105617
0.00821493
0.00586788
0.00352084
0.00117364
-0.179797
-0.18439
-0.234419
-0.309898
-0.377088
-0.401387
-0.364028
-0.260854
-0.127227
-0.0136075
0.0568831
0.0849768
0.0898819
0.0870979
0.0828496
0.0782023
0.0737463
0.0695458
0.0658062
0.0624012
0.0592667
0.056349
0.0535963
0.050967
0.0484279
0.0459536
0.043525
0.0411277
0.0387513
0.036388
0.0340329
0.0316824
0.0293346
0.0269882
0.0246422
0.0222965
0.0199506
0.0176044
0.015258
0.012911
0.0105639
0.00821657
0.00586895
0.00352146
0.00117386
-0.189189
-0.160989
-0.211931
-0.286213
-0.34855
-0.367049
-0.331637
-0.239972
-0.126616
-0.0324185
0.0230521
0.0443382
0.0502496
0.054256
0.0594541
0.0631636
0.0644102
0.0637563
0.062097
0.059988
0.057701
0.0553442
0.0529625
0.0505773
0.0481972
0.0458249
0.04346
0.0411012
0.0387467
0.036395
0.0340451
0.0316964
0.0293482
0.0270004
0.0246527
0.0223053
0.0199577
0.0176101
0.0152624
0.0129144
0.0105665
0.00821838
0.00587015
0.00352215
0.00117409
)
;

boundaryField
{
    inlet
    {
        type            zeroGradient;
    }
    outlet
    {
        type            fixedValue;
        value           uniform 0;
    }
    upperWall
    {
        type            zeroGradient;
    }
    lowerWall
    {
        type            zeroGradient;
    }
    frontAndBack
    {
        type            empty;
    }
}


// ************************************************************************* //
