/*--------------------------------*- C++ -*----------------------------------*\
  =========                 |
  \\      /  F ield         | OpenFOAM: The Open Source CFD Toolbox
   \\    /   O peration     | Website:  https://openfoam.org
    \\  /    A nd           | Version:  10
     \\/     M anipulation  |
\*---------------------------------------------------------------------------*/
FoamFile
{
    format      ascii;
    class       surfaceScalarField;
    location    "2.225";
    object      phi;
}
// * * * * * * * * * * * * * * * * * * * * * * * * * * * * * * * * * * * * * //

dimensions      [0 3 -1 0 0 0 0];

internalField   nonuniform List<scalar> 
890
(
0.00988903
0.000110974
0.0097311
0.00015793
0.00944886
0.000282231
0.00943384
1.50219e-05
0.000230778
0.00920306
0.0101049
6.05208e-06
0.0101937
6.91202e-05
0.0103842
9.17406e-05
0.0104777
-7.84537e-05
-3.91897e-05
0.0107477
0.0100543
-4.82952e-05
0.010218
-9.45057e-05
0.0104031
-9.33869e-05
0.0104977
-0.000173018
-0.000216579
0.0106751
0.0100774
-0.000125715
0.0102109
-0.000227937
0.0103535
-0.000236057
0.0104068
-0.000226284
-0.000273016
0.0104632
0.00987428
0.00964635
0.00941029
0.00918401
0.00891099
0.00899072
-0.000101481
0.000313828
0.00934898
-0.000118363
-0.000239896
0.00985251
-0.000130264
-0.000373274
0.0104125
-0.000503177
-5.68484e-05
0.0107907
-0.00128383
0.000905694
0.0109445
-0.00230645
0.00215262
0.0108583
-0.00329815
0.00338432
0.0103241
-0.00390709
0.00444131
0.00930438
-0.00389577
0.00491549
0.00805185
-0.00303901
0.00429154
0.00674071
-0.00185336
0.00316451
0.00571689
-0.0011439
0.00216772
0.00527959
-0.00084352
0.00128082
0.00530865
-0.000530509
0.00050145
0.00549398
-0.000154895
-3.04333e-05
0.00565019
0.000128682
-0.000284896
0.00572075
0.00026656
-0.000337118
0.00573301
0.000284891
-0.000297145
0.00571955
0.000246833
-0.000233374
0.00570144
0.000193499
-0.000175395
0.005687
0.000144409
-0.000129971
0.00567763
0.000105439
-9.60622e-05
0.00567227
7.6364e-05
-7.10048e-05
0.00566953
5.51862e-05
-5.24486e-05
0.00566833
3.98641e-05
-3.8662e-05
0.00566796
2.87757e-05
-2.84109e-05
0.00566803
2.0738e-05
-2.08023e-05
0.00566829
1.49097e-05
-1.51685e-05
0.0056686
1.06894e-05
-1.10065e-05
0.00566891
7.64073e-06
-7.94394e-06
0.00566917
5.4451e-06
-5.70378e-06
0.00566937
3.86843e-06
-4.0757e-06
0.00566953
2.7391e-06
-2.89901e-06
0.00566965
1.93271e-06
-2.05274e-06
0.00566974
1.35842e-06
-1.44751e-06
0.00566981
9.50784e-07
-1.01568e-06
0.00566985
6.63015e-07
-7.09902e-07
0.00566989
4.60496e-07
-4.94616e-07
0.00566991
3.17931e-07
-3.41556e-07
0.00566993
2.21893e-07
-2.38966e-07
0.00566994
1.50157e-07
-1.62432e-07
0.00566995
1.0894e-07
-1.16995e-07
0.00566996
7.23768e-08
-7.84627e-08
0.00566996
5.83475e-08
-6.34301e-08
4.00304e-08
-4.30338e-08
0.0108262
-0.000180036
0.0109995
-0.000291636
0.011292
-0.000422743
0.0115563
-0.000767483
0.0115005
-0.00122806
0.0111062
-0.00191217
0.0104624
-0.00265434
0.00942546
-0.00287013
0.00808244
-0.00255274
0.00691238
-0.00186895
0.0060641
-0.00100508
0.00540275
-0.000482558
0.00495372
-0.000394489
0.00481879
-0.000395578
0.00491522
-0.000251321
0.0050859
-4.20034e-05
0.00525781
9.46529e-05
0.00538977
0.000152931
0.00548051
0.000156096
0.00554017
0.000133837
0.00557905
0.000105524
0.00560478
7.97132e-05
0.0056222
5.89449e-05
0.00563423
4.31536e-05
0.00564265
3.14447e-05
0.00564858
2.28503e-05
0.00565275
1.65662e-05
0.00565568
1.19777e-05
0.00565774
8.62985e-06
0.00565919
6.19109e-06
0.00566021
4.42143e-06
0.00566094
3.14229e-06
0.00566146
2.22204e-06
0.00566182
1.56412e-06
0.00566209
1.09451e-06
0.00566228
7.62962e-07
0.00566241
5.28808e-07
0.00566251
3.64593e-07
0.00566257
2.51269e-07
0.00566262
1.73383e-07
0.00566265
1.16501e-07
0.00566268
8.55433e-08
0.0056627
5.52185e-08
0.00566271
4.4798e-08
3.16967e-08
0.0107758
-0.000280769
0.0108381
-0.00035398
0.0109478
-0.000532446
0.0110032
-0.000822815
0.0108613
-0.00108617
0.0105066
-0.00155752
0.00993554
-0.00208325
0.00917808
-0.00211267
0.008411
-0.00178566
0.0079543
-0.00141225
0.0078659
-0.000916683
0.00774749
-0.000364145
0.00732705
2.59535e-05
0.0067111
0.000220374
0.00616626
0.000293518
0.00582049
0.000303763
0.00563784
0.000277306
0.0055595
0.000231273
0.00553495
0.000180639
0.00553397
0.000134822
0.00554163
9.78567e-05
0.00555135
6.99959e-05
0.00556055
4.97499e-05
0.00556842
3.52855e-05
0.00557485
2.50134e-05
0.00557998
1.77215e-05
0.005584
1.2537e-05
0.00558714
8.84685e-06
0.00558954
6.2237e-06
0.00559137
4.36581e-06
0.00559273
3.05874e-06
0.00559373
2.13754e-06
0.00559447
1.48882e-06
0.005595
1.03375e-06
0.00559538
7.11974e-07
0.00559565
4.90753e-07
0.00559585
3.34071e-07
0.00559599
2.2652e-07
0.00559608
1.55829e-07
0.00559615
1.03495e-07
0.0055962
6.93897e-08
0.00559623
5.19351e-08
0.00559626
3.0614e-08
0.00559627
2.5955e-08
1.97998e-08
0.0105113
-0.000328867
0.0104899
-0.000332547
0.0104093
-0.000451828
0.010206
-0.000619543
0.00984911
-0.000729282
0.00932072
-0.00102913
0.0085603
-0.00132283
0.00760977
-0.00116215
0.00659597
-0.000771868
0.0056869
-0.00050318
0.00506398
-0.00029376
0.00472824
-2.84038e-05
0.00455271
0.00020148
0.00447046
0.000302622
0.00447653
0.000287447
0.00455284
0.000227457
0.00466357
0.000166572
0.00477568
0.000119163
0.00487141
8.49101e-05
0.00494584
6.0395e-05
0.00500079
4.29084e-05
0.00504028
3.04984e-05
0.00506833
2.17052e-05
0.00508815
1.54611e-05
0.00510215
1.10127e-05
0.00511204
7.83476e-06
0.00511902
5.56038e-06
0.00512393
3.93135e-06
0.00512739
2.76716e-06
0.00512982
1.93689e-06
0.00513153
1.34923e-06
0.00513273
9.33549e-07
0.00513358
6.418e-07
0.00513417
4.38644e-07
0.00513459
2.95163e-07
0.00513488
2.00181e-07
0.00513508
1.31234e-07
0.00513522
8.69775e-08
0.00513532
5.92297e-08
0.00513539
3.5606e-08
0.00513543
2.52166e-08
0.00513547
1.84325e-08
0.00513549
8.11292e-09
0.00513551
9.00737e-09
7.7271e-09
0.00858212
0.00824958
0.00779775
0.00717821
0.00644892
0.00541979
0.00409697
0.00293482
0.00216295
0.00165977
0.00136601
0.00133761
0.00153909
0.00184171
0.00212916
0.00235662
0.00252319
0.00264235
0.00272726
0.00278766
0.00283057
0.00286106
0.00288277
0.00289823
0.00290924
0.00291708
0.00292264
0.00292657
0.00292934
0.00293127
0.00293262
0.00293356
0.0029342
0.00293464
0.00293493
0.00293513
0.00293526
0.00293535
0.00293541
0.00293544
0.00293547
0.00293549
0.0029355
0.00293551
-0.00052949
0.00052949
-0.00130815
0.000778665
-0.00240201
0.00109386
-0.00354462
0.00114261
-0.00433265
0.000788028
-0.00448975
0.0001571
-0.00395543
-0.000534312
-0.00281157
-0.00114387
-0.00131998
-0.00149159
0.000218239
-0.00153822
0.00150928
-0.00129104
0.00242042
-0.000911142
0.00297203
-0.000551609
0.00324949
-0.000277454
0.0033482
-9.87125e-05
0.00334359
4.60647e-06
0.00329127
5.23227e-05
0.00322254
6.87289e-05
0.00315566
6.68863e-05
0.00309868
5.69726e-05
0.00305365
4.50347e-05
0.00301967
3.39764e-05
0.0029948
2.48702e-05
0.00297695
1.78494e-05
0.00296431
1.26462e-05
0.00295542
8.88294e-06
0.00294922
6.20287e-06
0.00294491
4.314e-06
0.00294192
2.98902e-06
0.00293985
2.0637e-06
0.00293844
1.41799e-06
0.00293747
9.70286e-07
0.0029368
6.60357e-07
0.00293636
4.46342e-07
0.00293606
3.02293e-07
0.00293586
2.00477e-07
0.00293572
1.35227e-07
0.00293563
8.94309e-08
0.00293558
5.57913e-08
0.00293554
4.00843e-08
0.00293551
2.28692e-08
0.0029355
1.45141e-08
0.00293549
1.23413e-08
0.00293548
8.89949e-09
6.79954e-09
-0.00063117
0.00116066
-0.00154073
0.00168822
-0.00258679
0.00213992
-0.00341352
0.00196933
-0.00381824
0.00119275
-0.00362707
-3.40647e-05
-0.00290707
-0.00125431
-0.00165022
-0.00240071
-7.74065e-05
-0.00306441
0.0015153
-0.00313092
0.00288672
-0.00266247
0.00387629
-0.00190071
0.00450985
-0.00118517
0.00488954
-0.000657141
0.005109
-0.000318168
0.00522773
-0.000114124
0.00528128
-1.22674e-06
0.00529052
5.94858e-05
0.00527789
7.9512e-05
0.00525597
7.88952e-05
0.00523218
6.88203e-05
0.00521034
5.58205e-05
0.00519196
4.32483e-05
0.00517731
3.25021e-05
0.00516604
2.39178e-05
0.00515758
1.73377e-05
0.00515135
1.24333e-05
0.00514681
8.85501e-06
0.00514353
6.27003e-06
0.00514118
4.41822e-06
0.0051395
3.09845e-06
0.0051383
2.16401e-06
0.00513746
1.50505e-06
0.00513686
1.04127e-06
0.00513645
7.19878e-07
0.00513615
4.92246e-07
0.00513595
3.37467e-07
0.00513581
2.30639e-07
0.00513571
1.52177e-07
0.00513565
1.06956e-07
0.0051356
6.96225e-08
0.00513557
4.6724e-08
0.00513555
3.36622e-08
0.00513553
2.70082e-08
1.89606e-08
-8.96063e-05
0.00125027
-0.000576476
0.00217509
-0.000995535
0.00255898
-0.00113808
0.00211187
-0.000989016
0.00104368
-0.000576885
-0.000446196
0.000221307
-0.00205251
0.00127075
-0.00345015
0.00245333
-0.00424699
0.00359667
-0.00427426
0.00455352
-0.00361932
0.00520418
-0.00255136
0.00551816
-0.00149916
0.00562543
-0.00076441
0.00565849
-0.000351229
0.00567368
-0.000129316
0.00567853
-6.07532e-06
0.00568229
5.5727e-05
0.00567851
8.32893e-05
0.00566928
8.81286e-05
0.00565768
8.04208e-05
0.005646
6.74955e-05
0.00563548
5.37721e-05
0.00562658
4.14014e-05
0.00561935
3.11509e-05
0.00561362
2.30695e-05
0.00560916
1.68894e-05
0.00560576
1.22561e-05
0.0056032
8.82825e-06
0.0056013
6.31931e-06
0.0055999
4.49805e-06
0.00559888
3.18606e-06
0.00559814
2.24663e-06
0.0055976
1.57664e-06
0.00559722
1.10318e-06
0.00559694
7.66839e-07
0.00559675
5.31569e-07
0.00559661
3.67889e-07
0.00559651
2.49922e-07
0.00559645
1.74576e-07
0.0055964
1.17517e-07
0.00559636
8.23765e-08
0.00559634
5.63431e-08
0.00559632
4.58583e-08
3.14176e-08
0.000521627
0.00072864
0.00101568
0.00168104
0.00159232
0.00198234
0.00226152
0.00144268
0.00302246
0.000282743
0.00378925
-0.00121299
0.00452598
-0.00278924
0.00527523
-0.0041994
0.00595501
-0.00492678
0.00635231
-0.00467155
0.00655134
-0.00381835
0.00668624
-0.00268627
0.00668481
-0.00149773
0.00651504
-0.000594639
0.00627439
-0.000110577
0.00605845
8.66276e-05
0.00590967
0.000142701
0.00581878
0.000146616
0.00576646
0.000135609
0.00573561
0.000118983
0.00571601
0.000100014
0.00570245
8.10558e-05
0.00569247
6.37528e-05
0.00568491
4.89626e-05
0.00567916
3.69084e-05
0.00567481
2.74186e-05
0.00567156
2.01371e-05
0.00566916
1.46578e-05
0.00566739
1.05934e-05
0.0056661
7.61054e-06
0.00566516
5.4396e-06
0.00566447
3.87059e-06
0.00566398
2.74285e-06
0.00566362
1.93555e-06
0.00566336
1.36123e-06
0.00566318
9.52541e-07
0.00566304
6.64121e-07
0.00566295
4.6204e-07
0.00566288
3.17653e-07
0.00566283
2.22029e-07
0.0056628
1.50791e-07
0.00566277
1.07677e-07
0.00566276
7.25502e-08
0.00566275
5.89146e-08
4.00332e-08
0.00104247
0.00248361
0.00409268
0.00547851
0.00666694
0.00760658
0.00820167
0.00844358
0.00843229
0.00805228
0.00739843
0.00687988
0.00666298
0.00656979
0.00642878
0.00623051
0.00603609
0.00588556
0.0057878
0.00573139
0.00570143
0.00568642
0.00567917
0.00567569
0.00567393
0.00567294
0.00567227
0.00567176
0.00567135
0.00567102
0.00567075
0.00567055
0.00567039
0.00567027
0.00567019
0.00567012
0.00567008
0.00567005
0.00567002
0.00567001
0.00566999
0.00566998
0.00566998
0.00566997
)
;

boundaryField
{
    inlet
    {
        type            calculated;
        value           nonuniform List<scalar> 5(-0.01 -0.01 -0.01 -0.01 -0.01);
    }
    outlet
    {
        type            calculated;
        value           nonuniform List<scalar> 10(0.00566996 0.00566272 0.00559629 0.00513552 0.00293551 0.00293547 0.00513552 0.00559631 0.00566274 0.00566997);
    }
    upperWall
    {
        type            calculated;
        value           uniform 0;
    }
    lowerWall
    {
        type            calculated;
        value           uniform 0;
    }
    frontAndBack
    {
        type            empty;
        value           nonuniform List<scalar> 0();
    }
}


// ************************************************************************* //
