/*--------------------------------*- C++ -*----------------------------------*\
  =========                 |
  \\      /  F ield         | OpenFOAM: The Open Source CFD Toolbox
   \\    /   O peration     | Website:  https://openfoam.org
    \\  /    A nd           | Version:  10
     \\/     M anipulation  |
\*---------------------------------------------------------------------------*/
FoamFile
{
    format      ascii;
    class       volScalarField;
    location    "7.65";
    object      p;
}
// * * * * * * * * * * * * * * * * * * * * * * * * * * * * * * * * * * * * * //

dimensions      [0 2 -2 0 0 0 0];

internalField   nonuniform List<scalar> 
400
(
-7.36541e-09
-2.28138e-05
3.18567e-05
0.000137017
0.000299954
0.000523107
0.000810026
0.00116499
0.00159177
0.00209247
0.00266608
0.00330642
0.00399963
0.00472162
0.00543572
0.00609328
0.00663712
0.00701304
0.00721486
0.00715977
2.48367e-05
1.48981e-06
6.23653e-05
0.000168977
0.00033014
0.000549116
0.000829941
0.00117715
0.00159478
0.00208533
0.00264851
0.00327909
0.00396358
0.00468101
0.0053948
0.00605609
0.00660523
0.00698535
0.00719392
0.00712599
-3.92687e-05
-7.06861e-05
-1.16409e-05
9.07061e-05
0.00024596
0.000457656
0.000730447
0.00106984
0.00148129
0.00196922
0.00253568
0.00317818
0.00388777
0.00464363
0.00540837
0.00612738
0.00672906
0.0071406
0.00735927
0.00724951
-0.000171967
-0.00020909
-0.00015369
-5.82311e-05
8.77733e-05
0.000288304
0.000548939
0.00087664
0.00127899
0.0017635
0.00233622
0.00299926
0.00374711
0.00456519
0.00541492
0.00623395
0.00693115
0.00740081
0.00763862
0.00745872
-0.000380479
-0.000422562
-0.000373127
-0.000287674
-0.000154823
2.99649e-05
0.000273387
0.0005842
0.000972689
0.00145037
0.00202896
0.0027178
0.00351982
0.0044227
0.00539545
0.00636577
0.00721474
0.00778212
0.00804945
0.00774216
-0.00066351
-0.000710685
-0.000669592
-0.000597668
-0.000482816
-0.000320014
-0.000101476
0.000183378
0.000547749
0.00100767
0.00158167
0.0022891
0.00314465
0.00414951
0.0052825
0.00646834
0.00755319
0.00828583
0.00859767
0.00805779
-0.00101714
-0.00107011
-0.00103987
-0.000985619
-0.000894818
-0.000762311
-0.000579662
-0.000334931
-1.2435e-05
0.000408176
0.000952638
0.00165207
0.00253862
0.00363307
0.00494863
0.00641884
0.0078609
0.00888707
0.00926309
0.00833114
-0.00143624
-0.001496
-0.00147922
-0.00144722
-0.00138749
-0.00129537
-0.00116276
-0.000977661
-0.000723367
-0.000376883
9.31983e-05
0.000729217
0.00158553
0.00272092
0.00416484
0.00593916
0.0078786
0.00945272
0.00992418
0.00848894
-0.00191424
-0.00198189
-0.00198085
-0.00197553
-0.00195406
-0.00191328
-0.00184687
-0.0017449
-0.00159304
-0.00137022
-0.00104547
-0.000573998
0.000108077
0.00108519
0.00245617
0.00433236
0.0068011
0.00937607
0.010085
0.00850831
-0.00244319
-0.00251969
-0.00253561
-0.00256013
-0.00258292
-0.00260353
-0.00261936
-0.00262541
-0.00261412
-0.00257404
-0.00248804
-0.00233014
-0.00206376
-0.00164273
-0.000981002
0.000191981
0.00260928
0.0065083
0.00833008
0.00834598
-0.00301415
-0.00310015
-0.00313211
-0.00318697
-0.0032568
-0.00334529
-0.00345569
-0.00359125
-0.00375684
-0.00396041
-0.00421633
-0.00455296
-0.00504124
-0.00586002
-0.00721286
-0.00875426
-0.00810959
-0.00306028
0.00218903
0.00653589
-0.00361835
-0.00371357
-0.0037565
-0.00383748
-0.00395141
-0.00410756
-0.00431638
-0.00459181
-0.00495595
-0.00544578
-0.0061274
-0.00712547
-0.00869374
-0.0113986
-0.0159901
-0.0221913
-0.0251904
-0.0195756
-0.0102445
-0.000693898
-0.0042504
-0.00435443
-0.00439914
-0.00449634
-0.00464328
-0.00485638
-0.00515414
-0.00556137
-0.00611877
-0.00689559
-0.00801641
-0.00971451
-0.0124557
-0.0171281
-0.0249443
-0.035405
-0.0425297
-0.0376232
-0.026602
-0.0130484
-0.00490436
-0.00500759
-0.00502981
-0.00512188
-0.00528336
-0.00553511
-0.00589888
-0.00640779
-0.00711437
-0.00810741
-0.00954753
-0.0117148
-0.0152021
-0.0209076
-0.0301823
-0.0419354
-0.0506861
-0.0464526
-0.0370349
-0.0227094
-0.00560904
-0.00572022
-0.00569934
-0.00576761
-0.00590863
-0.00615657
-0.00653786
-0.00708856
-0.0078635
-0.00895101
-0.0105176
-0.0128035
-0.0164531
-0.0220149
-0.0308849
-0.0411184
-0.0486355
-0.0445893
-0.0380598
-0.0238404
-0.00644648
-0.00636236
-0.0062176
-0.00617534
-0.00627001
-0.00651112
-0.00690778
-0.00748031
-0.00827252
-0.00935468
-0.0108792
-0.012985
-0.0162351
-0.0208975
-0.0277385
-0.0348837
-0.0398872
-0.0357975
-0.0318739
-0.0152843
-0.00692476
-0.0073419
-0.00702856
-0.00701799
-0.00699074
-0.00710345
-0.00737035
-0.00782423
-0.00850529
-0.00945789
-0.0108058
-0.0126488
-0.0153337
-0.0188859
-0.0238364
-0.0282853
-0.0311788
-0.026334
-0.0215908
0.00399467
-0.0103047
-0.00777477
-0.00711494
-0.00650147
-0.0064057
-0.00656707
-0.00692871
-0.00745352
-0.00816268
-0.00907043
-0.0103012
-0.0119141
-0.014147
-0.0169013
-0.0204386
-0.0229057
-0.0236967
-0.0169914
-0.00592431
0.0372112
-0.00696874
-0.00995633
-0.00885252
-0.00883858
-0.00835835
-0.00810185
-0.00803269
-0.00817937
-0.00858393
-0.00923947
-0.0102621
-0.0116325
-0.0137389
-0.0162676
-0.0197845
-0.0217729
-0.0214898
-0.00767116
0.0186789
0.0954398
-0.0321974
-0.00713135
-0.00557108
-0.00480307
-0.00458996
-0.0047906
-0.00529556
-0.00590568
-0.00671462
-0.00764559
-0.00894349
-0.0104695
-0.012526
-0.0144945
-0.0161309
-0.0137749
-0.00418727
0.0297234
0.0969344
0.228027
)
;

boundaryField
{
    movingWall
    {
        type            zeroGradient;
    }
    fixedWalls
    {
        type            zeroGradient;
    }
    frontAndBack
    {
        type            empty;
    }
}


// ************************************************************************* //
