/*--------------------------------*- C++ -*----------------------------------*\
  =========                 |
  \\      /  F ield         | OpenFOAM: The Open Source CFD Toolbox
   \\    /   O peration     | Website:  https://openfoam.org
    \\  /    A nd           | Version:  10
     \\/     M anipulation  |
\*---------------------------------------------------------------------------*/
FoamFile
{
    format      ascii;
    class       volScalarField;
    location    "0.35";
    object      p;
}
// * * * * * * * * * * * * * * * * * * * * * * * * * * * * * * * * * * * * * //

dimensions      [0 2 -2 0 0 0 0];

internalField   nonuniform List<scalar> 
475
(
-0.000311289
-0.0350969
-0.104806
-0.119344
-0.202369
-0.0119645
-0.0468434
-0.0707261
-0.0832807
-0.0678067
-0.00295137
-0.0234065
-0.0541151
-0.0538853
-0.039182
0.00740806
-0.0181496
-0.0410299
-0.0345652
-0.0158942
0.0388883
-0.000465127
-0.0288712
-0.0218365
-0.00457912
-0.266088
-0.140102
0.0128006
0.117235
0.147089
0.145828
0.139643
0.134453
0.130301
0.126653
0.123173
0.119723
0.116262
0.112781
0.10928
0.105762
0.102227
0.0986796
0.0951216
0.0915557
0.0879838
0.0844069
0.0808259
0.0772416
0.0736547
0.0700662
0.0664766
0.062886
0.0592947
0.0557026
0.0521099
0.0485167
0.0449233
0.0413298
0.0377363
0.0341427
0.0305491
0.0269552
0.0233614
0.0197671
0.0161733
0.0125792
0.00898385
0.00539042
0.00179766
-0.0636961
-0.0309307
0.0234705
0.0649801
0.0935534
0.111571
0.120994
0.124465
0.124561
0.123022
0.120694
0.117948
0.114955
0.111804
0.108544
0.105205
0.101805
0.0983598
0.0948791
0.091372
0.0878447
0.0843017
0.0807464
0.0771815
0.0736094
0.0700321
0.0664509
0.0628668
0.0592803
0.0556918
0.0521017
0.0485106
0.0449187
0.0413263
0.0377337
0.0341408
0.0305477
0.0269542
0.0233606
0.0197665
0.0161728
0.0125789
0.00898366
0.0053904
0.00179769
-0.0448811
-0.0220676
0.0350164
0.0804617
0.103571
0.113498
0.118415
0.120686
0.121074
0.120214
0.118544
0.116331
0.113745
0.110899
0.107865
0.104694
0.101421
0.0980696
0.0946604
0.0912071
0.0877203
0.0842077
0.0806754
0.077128
0.0735692
0.070002
0.0664284
0.0628499
0.0592675
0.0556821
0.0520944
0.0485051
0.0449146
0.0413234
0.0377315
0.0341392
0.0305465
0.0269533
0.0233599
0.019766
0.0161725
0.0125787
0.00898355
0.0053904
0.0017977
0.00388851
0.0246249
0.0486353
0.073916
0.0925264
0.104508
0.111847
0.115899
0.117586
0.117662
0.116668
0.114947
0.112721
0.110138
0.107299
0.104271
0.101104
0.0978326
0.0944827
0.0910737
0.08762
0.0841323
0.0806188
0.0770855
0.0735375
0.0699783
0.0664106
0.0628365
0.0592574
0.0556745
0.0520887
0.0485009
0.0449115
0.0413211
0.0377298
0.0341379
0.0305455
0.0269525
0.0233594
0.0197656
0.0161722
0.0125785
0.00898345
0.00539037
0.00179767
0.00731899
0.0218852
0.0452446
0.0695736
0.0880727
0.100368
0.108156
0.112805
0.115142
0.115802
0.115277
0.113915
0.111959
0.109575
0.106883
0.103963
0.100875
0.0976625
0.0943562
0.0909795
0.0875499
0.0840801
0.0805798
0.0770565
0.0735159
0.0699621
0.0663986
0.0628275
0.0592507
0.0556695
0.0520851
0.0484982
0.0449095
0.0413196
0.0377287
0.034137
0.0305448
0.026952
0.023359
0.0197654
0.016172
0.0125783
0.00898354
0.00539029
0.00179751
0.0312566
0.0769238
0.0994942
0.123025
0.137979
0.144661
0.145753
0.143583
0.139733
0.135148
0.13034
0.125561
0.120917
0.11644
0.112128
0.107961
0.103917
0.0999729
0.0961082
0.0923057
0.0885521
0.0848369
0.081151
0.0774874
0.0738403
0.0702058
0.0665812
0.0629642
0.0593532
0.0557466
0.0521431
0.0485419
0.0449422
0.0413439
0.0377467
0.0341503
0.0305546
0.0269593
0.0233644
0.0197695
0.016175
0.0125805
0.0089848
0.00539059
0.00179743
0.0496923
0.0644672
0.0895077
0.118303
0.135659
0.143061
0.144333
0.14224
0.138498
0.134064
0.129428
0.124817
0.120324
0.115975
0.111767
0.107684
0.103706
0.0998132
0.0959872
0.0922144
0.0884837
0.0847858
0.0811128
0.0774587
0.0738186
0.0701895
0.0665691
0.0629554
0.0593468
0.0557419
0.0521396
0.0485391
0.0449401
0.0413423
0.0377454
0.0341494
0.030554
0.0269589
0.0233641
0.0197692
0.0161748
0.0125803
0.00898456
0.0053906
0.00179761
-0.0722022
0.00942092
0.0626712
0.110699
0.133709
0.142095
0.143243
0.140939
0.137135
0.132778
0.128297
0.123867
0.11955
0.115358
0.111283
0.107308
0.103417
0.0995909
0.0958175
0.0920854
0.0883861
0.0847121
0.0810572
0.0774167
0.0737869
0.0701657
0.0665513
0.0629421
0.0593369
0.0557345
0.052134
0.0485349
0.0449369
0.0413399
0.0377437
0.0341481
0.0305531
0.0269582
0.0233636
0.0197688
0.0161746
0.0125801
0.00898442
0.00539058
0.00179764
-0.0775677
-0.0350298
0.0342354
0.101542
0.132288
0.141507
0.142115
0.139381
0.135449
0.131183
0.126898
0.122697
0.118599
0.1146
0.110688
0.106845
0.103059
0.0993157
0.0956069
0.0919251
0.0882644
0.0846199
0.0809873
0.0773637
0.0737469
0.0701356
0.0665287
0.0629253
0.0593243
0.0557249
0.0521267
0.0485294
0.0449328
0.0413368
0.0377415
0.0341465
0.0305519
0.0269573
0.023363
0.0197683
0.0161742
0.0125799
0.00898424
0.00539055
0.00179766
-0.429944
-0.146037
-0.0284397
0.0823577
0.129156
0.1398
0.139812
0.13686
0.133067
0.129106
0.125171
0.121299
0.117488
0.113728
0.110009
0.10632
0.102654
0.0990054
0.0953697
0.0917444
0.0881271
0.0845157
0.0809083
0.0773038
0.0737016
0.0701015
0.0665032
0.0629061
0.0593099
0.0557141
0.0521185
0.0485231
0.0449281
0.0413334
0.0377389
0.0341447
0.0305506
0.0269563
0.0233622
0.0197677
0.0161737
0.0125795
0.00898402
0.00539051
0.0017977
)
;

boundaryField
{
    inlet
    {
        type            zeroGradient;
    }
    outlet
    {
        type            fixedValue;
        value           uniform 0;
    }
    upperWall
    {
        type            zeroGradient;
    }
    lowerWall
    {
        type            zeroGradient;
    }
    frontAndBack
    {
        type            empty;
    }
}


// ************************************************************************* //
