/*--------------------------------*- C++ -*----------------------------------*\
  =========                 |
  \\      /  F ield         | OpenFOAM: The Open Source CFD Toolbox
   \\    /   O peration     | Website:  https://openfoam.org
    \\  /    A nd           | Version:  10
     \\/     M anipulation  |
\*---------------------------------------------------------------------------*/
FoamFile
{
    format      ascii;
    class       volVectorField;
    location    "9.75";
    object      U;
}
// * * * * * * * * * * * * * * * * * * * * * * * * * * * * * * * * * * * * * //

dimensions      [0 1 -1 0 0 0 0];

internalField   nonuniform List<vector> 
400
(
(-0.000173785 0.000147199 0)
(-0.00132422 0.000484517 0)
(-0.00327924 0.000607112 0)
(-0.00529661 0.000650615 0)
(-0.00740703 0.00067884 0)
(-0.00957536 0.000712281 0)
(-0.0117951 0.000750256 0)
(-0.0140475 0.000783726 0)
(-0.0162825 0.000798754 0)
(-0.0184087 0.000775629 0)
(-0.0202827 0.000688653 0)
(-0.0216986 0.000509082 0)
(-0.0223898 0.000212349 0)
(-0.0220427 -0.000224636 0)
(-0.0203629 -0.00077434 0)
(-0.0171947 -0.00134811 0)
(-0.0127173 -0.00177411 0)
(-0.00760336 -0.00183531 0)
(-0.00255041 -0.00136205 0)
(-5.00563e-05 -0.000281476 0)
(-0.00058624 0.00135699 0)
(-0.00305038 0.00284179 0)
(-0.00683575 0.00340844 0)
(-0.0107501 0.00362157 0)
(-0.014806 0.00372831 0)
(-0.0189143 0.00380873 0)
(-0.0230274 0.00386119 0)
(-0.0270812 0.00384833 0)
(-0.0309646 0.00371178 0)
(-0.0345049 0.00337359 0)
(-0.0374535 0.00273979 0)
(-0.039477 0.00171066 0)
(-0.0401816 0.000200769 0)
(-0.039117 -0.0018059 0)
(-0.0358662 -0.00417182 0)
(-0.030236 -0.00653463 0)
(-0.0225238 -0.00824481 0)
(-0.0137637 -0.00847714 0)
(-0.0051333 -0.00659198 0)
(-0.000494803 -0.00227505 0)
(-0.000777961 0.00357263 0)
(-0.00388081 0.0067481 0)
(-0.00854983 0.0079631 0)
(-0.0133465 0.00841241 0)
(-0.0182858 0.00859974 0)
(-0.0232577 0.00868747 0)
(-0.0282027 0.00867547 0)
(-0.0330465 0.00849103 0)
(-0.0376667 0.00801875 0)
(-0.0418753 0.0071065 0)
(-0.045402 0.00557304 0)
(-0.0478856 0.00323002 0)
(-0.0488631 -7.37472e-05 0)
(-0.0477715 -0.00434908 0)
(-0.0440423 -0.00935487 0)
(-0.037297 -0.0143714 0)
(-0.0277283 -0.0180615 0)
(-0.0166074 -0.0185773 0)
(-0.00574648 -0.0144889 0)
(-0.000344872 -0.00541882 0)
(-0.000843681 0.00596698 0)
(-0.00421677 0.0109675 0)
(-0.00927872 0.0128533 0)
(-0.014461 0.0135283 0)
(-0.0197953 0.0137854 0)
(-0.0251753 0.0138772 0)
(-0.0305563 0.0138087 0)
(-0.0358847 0.0134763 0)
(-0.0410646 0.0127113 0)
(-0.0459365 0.0112866 0)
(-0.0502489 0.00892175 0)
(-0.0536302 0.00531006 0)
(-0.0555576 0.000190836 0)
(-0.0553294 -0.00653357 0)
(-0.052069 -0.0146183 0)
(-0.0449179 -0.0230235 0)
(-0.033582 -0.0295232 0)
(-0.0194382 -0.0305762 0)
(-0.00557388 -0.0232868 0)
(0.000273004 -0.00813429 0)
(-0.000844157 0.00846532 0)
(-0.00429284 0.0153914 0)
(-0.00949896 0.0179824 0)
(-0.0148352 0.0189009 0)
(-0.0203535 0.0192536 0)
(-0.0259671 0.0193955 0)
(-0.0316654 0.0193454 0)
(-0.0374404 0.0189765 0)
(-0.0432537 0.0180732 0)
(-0.0490124 0.0163329 0)
(-0.0545282 0.0133597 0)
(-0.0594557 0.00867951 0)
(-0.0632237 0.00181353 0)
(-0.0649775 -0.00757594 0)
(-0.0634135 -0.0194531 0)
(-0.0568059 -0.0326361 0)
(-0.043631 -0.0437987 0)
(-0.0247805 -0.0463681 0)
(-0.00547729 -0.0341194 0)
(0.00132933 -0.0103211 0)
(-0.000811972 0.0109553 0)
(-0.00423461 0.0198618 0)
(-0.00945687 0.0231917 0)
(-0.0148332 0.0243846 0)
(-0.0204338 0.0248818 0)
(-0.0262005 0.0251562 0)
(-0.0321709 0.0252556 0)
(-0.038403 0.0250461 0)
(-0.0449461 0.0242794 0)
(-0.0518183 0.0225857 0)
(-0.0589599 0.0194465 0)
(-0.0661469 0.0141782 0)
(-0.0728858 0.00596064 0)
(-0.0783084 -0.00603703 0)
(-0.0806429 -0.0223285 0)
(-0.0766778 -0.042351 0)
(-0.0622323 -0.0617716 0)
(-0.0366159 -0.0686411 0)
(-0.00766593 -0.0490258 0)
(0.00266694 -0.0119902 0)
(-0.000760345 0.013373 0)
(-0.00409702 0.0242852 0)
(-0.0092576 0.0283855 0)
(-0.014598 0.0298882 0)
(-0.0202027 0.0305879 0)
(-0.0260449 0.0310946 0)
(-0.0322174 0.0315057 0)
(-0.0388613 0.0317067 0)
(-0.0461442 0.0314485 0)
(-0.0542508 0.0303272 0)
(-0.0633507 0.0277307 0)
(-0.0735319 0.0227813 0)
(-0.0846832 0.0142725 0)
(-0.096183 0.000579724 0)
(-0.105924 -0.0203295 0)
(-0.108113 -0.0500648 0)
(-0.0937945 -0.0839549 0)
(-0.0608575 -0.100931 0)
(-0.0187527 -0.0727587 0)
(0.00307744 -0.0153283 0)
(-0.000693441 0.0156787 0)
(-0.00390005 0.0286027 0)
(-0.00893709 0.0334976 0)
(-0.0141675 0.0353372 0)
(-0.019683 0.0362876 0)
(-0.0254846 0.0371188 0)
(-0.0317191 0.0380043 0)
(-0.0386155 0.0388849 0)
(-0.0464819 0.0395642 0)
(-0.055724 0.0396835 0)
(-0.0668561 0.0386511 0)
(-0.0805203 0.0355518 0)
(-0.0974592 0.0289179 0)
(-0.11786 0.0158639 0)
(-0.138723 -0.00926296 0)
(-0.149646 -0.0528673 0)
(-0.136982 -0.109484 0)
(-0.101065 -0.143614 0)
(-0.0488932 -0.112387 0)
(-0.00090038 -0.0278323 0)
(-0.000614157 0.0178397 0)
(-0.00365583 0.0327648 0)
(-0.00851317 0.0384626 0)
(-0.01355 0.0406423 0)
(-0.0188555 0.0418605 0)
(-0.0244475 0.0430716 0)
(-0.0305145 0.0445555 0)
(-0.0373611 0.0463522 0)
(-0.0454265 0.0483899 0)
(-0.0553491 0.0504808 0)
(-0.0680537 0.0522652 0)
(-0.0848948 0.0530751 0)
(-0.107779 0.0512814 0)
(-0.137715 0.0416561 0)
(-0.169298 0.01217 0)
(-0.186878 -0.0507656 0)
(-0.178187 -0.135297 0)
(-0.148627 -0.190166 0)
(-0.0958146 -0.171659 0)
(-0.014807 -0.0620528 0)
(-0.000529006 0.0198325 0)
(-0.00338659 0.0367317 0)
(-0.00801871 0.0432136 0)
(-0.0127727 0.0456981 0)
(-0.017724 0.0471482 0)
(-0.0228892 0.0487268 0)
(-0.0284728 0.0508475 0)
(-0.0348173 0.0536929 0)
(-0.042438 0.0573959 0)
(-0.0521272 0.0620879 0)
(-0.0651006 0.0678837 0)
(-0.0831553 0.0745515 0)
(-0.108825 0.0798318 0)
(-0.142858 0.074487 0)
(-0.177566 0.0388245 0)
(-0.195356 -0.0438497 0)
(-0.19153 -0.153021 0)
(-0.17326 -0.232657 0)
(-0.130529 -0.246124 0)
(-0.0377669 -0.133293 0)
(-0.00045098 0.0216518 0)
(-0.00313502 0.0404779 0)
(-0.00752113 0.0476793 0)
(-0.0119104 0.0503743 0)
(-0.0163568 0.0519468 0)
(-0.0208519 0.0537829 0)
(-0.0255797 0.0564394 0)
(-0.0308551 0.0602591 0)
(-0.037152 0.0656192 0)
(-0.0452053 0.0730432 0)
(-0.0561435 0.0831909 0)
(-0.0714386 0.0960749 0)
(-0.0928043 0.107889 0)
(-0.120155 0.104838 0)
(-0.146229 0.0625657 0)
(-0.158566 -0.033794 0)
(-0.159301 -0.157641 0)
(-0.151718 -0.260795 0)
(-0.129876 -0.315138 0)
(-0.0502938 -0.237593 0)
(-0.000406588 0.0233391 0)
(-0.00298522 0.0440512 0)
(-0.00714986 0.051874 0)
(-0.011111 0.0546256 0)
(-0.0149149 0.0561225 0)
(-0.0185118 0.0579831 0)
(-0.0220331 0.060896 0)
(-0.0256947 0.0653324 0)
(-0.0297949 0.0718579 0)
(-0.0347483 0.081265 0)
(-0.0411135 0.094487 0)
(-0.049391 0.111365 0)
(-0.060086 0.126625 0)
(-0.0730808 0.123644 0)
(-0.0850641 0.0774441 0)
(-0.0902461 -0.0245424 0)
(-0.0956427 -0.149724 0)
(-0.0998827 -0.26326 0)
(-0.103942 -0.351747 0)
(-0.0417377 -0.327145 0)
(-0.000427412 0.0249493 0)
(-0.00302798 0.0474009 0)
(-0.00706293 0.0555786 0)
(-0.010593 0.0581155 0)
(-0.0136764 0.0592847 0)
(-0.016212 0.0608851 0)
(-0.0182779 0.0636669 0)
(-0.019964 0.0681492 0)
(-0.0213357 0.0749397 0)
(-0.0223999 0.084838 0)
(-0.0230564 0.0986953 0)
(-0.0228332 0.116032 0)
(-0.0215024 0.131445 0)
(-0.0192634 0.128223 0)
(-0.0185506 0.0828635 0)
(-0.0195104 -0.0171158 0)
(-0.0330609 -0.134663 0)
(-0.0489709 -0.248465 0)
(-0.0752436 -0.363275 0)
(-0.0288933 -0.387635 0)
(-0.000627209 0.0268289 0)
(-0.00358345 0.0512056 0)
(-0.00763635 0.0596503 0)
(-0.0106566 0.0617396 0)
(-0.0128943 0.0621564 0)
(-0.0142706 0.0629659 0)
(-0.0148057 0.0649918 0)
(-0.0144604 0.0687445 0)
(-0.0131078 0.0747507 0)
(-0.0104186 0.0836096 0)
(-0.00587523 0.0958677 0)
(0.00167347 0.110885 0)
(0.012503 0.124045 0)
(0.0264012 0.120956 0)
(0.035221 0.0809412 0)
(0.0383208 -0.0085644 0)
(0.0171854 -0.113964 0)
(-0.00637893 -0.220754 0)
(-0.0531667 -0.358313 0)
(-0.0193133 -0.433017 0)
(-0.000966533 0.0291824 0)
(-0.00432057 0.0541426 0)
(-0.00876442 0.0617606 0)
(-0.0115854 0.0626026 0)
(-0.0132241 0.062126 0)
(-0.0135038 0.0622159 0)
(-0.0125237 0.063503 0)
(-0.0102279 0.0663057 0)
(-0.0064288 0.0709726 0)
(-0.00066042 0.0778097 0)
(0.00776736 0.0871113 0)
(0.0200867 0.0980535 0)
(0.0361681 0.107081 0)
(0.056382 0.103834 0)
(0.0699067 0.072106 0)
(0.0766983 0.000743437 0)
(0.0509266 -0.0875804 0)
(0.0257905 -0.181851 0)
(-0.037678 -0.34024 0)
(-0.00887073 -0.464662 0)
(-0.00305563 0.0309823 0)
(-0.00877672 0.0606161 0)
(-0.012486 0.0680528 0)
(-0.0141632 0.068201 0)
(-0.0142839 0.0658052 0)
(-0.0131784 0.0638316 0)
(-0.0108223 0.0630241 0)
(-0.00702113 0.0636755 0)
(-0.00150438 0.0659792 0)
(0.00633557 0.069997 0)
(0.0170406 0.0757804 0)
(0.0315395 0.0823622 0)
(0.0492293 0.0872483 0)
(0.0712598 0.0836494 0)
(0.0857222 0.0611389 0)
(0.0953226 0.00992144 0)
(0.068182 -0.0578112 0)
(0.0448189 -0.139178 0)
(-0.0282342 -0.32075 0)
(0.00168118 -0.488802 0)
(-0.000897119 0.0441405 0)
(-0.00722584 0.0615656 0)
(-0.0159913 0.0646043 0)
(-0.0175391 0.0610264 0)
(-0.0178361 0.0580331 0)
(-0.0158262 0.0560536 0)
(-0.012264 0.0551269 0)
(-0.00700342 0.0551412 0)
(0.000106193 0.0561417 0)
(0.00959812 0.0581051 0)
(0.0217882 0.0610495 0)
(0.0372794 0.064211 0)
(0.0548241 0.0661466 0)
(0.0764899 0.0626056 0)
(0.089909 0.0477313 0)
(0.101268 0.0147181 0)
(0.0753017 -0.0332491 0)
(0.0602739 -0.100388 0)
(-0.0108877 -0.298641 0)
(0.020201 -0.498584 0)
(-0.0125847 0.0321406 0)
(-0.0228425 0.0807599 0)
(-0.0200702 0.0812187 0)
(-0.0234736 0.076373 0)
(-0.0223834 0.068943 0)
(-0.0194666 0.0628174 0)
(-0.0144322 0.057991 0)
(-0.00743742 0.054347 0)
(0.00146504 0.051881 0)
(0.0126559 0.0503232 0)
(0.0259745 0.049765 0)
(0.0420202 0.0494228 0)
(0.0585918 0.0494667 0)
(0.0790102 0.0469201 0)
(0.0901239 0.0402073 0)
(0.104965 0.0236613 0)
(0.086597 -0.00636563 0)
(0.0961322 -0.0622224 0)
(0.0384617 -0.272296 0)
(0.0565697 -0.487981 0)
(-0.0777112 0.0956761 0)
(-0.0631997 0.0587109 0)
(-0.0648542 0.0600942 0)
(-0.0418786 0.0535142 0)
(-0.0236669 0.0465173 0)
(-0.00262025 0.0413388 0)
(0.0172467 0.0375768 0)
(0.0375465 0.0344073 0)
(0.0564163 0.0321328 0)
(0.077014 0.0300623 0)
(0.0949034 0.0289181 0)
(0.117712 0.0276873 0)
(0.133413 0.0267648 0)
(0.161468 0.0251791 0)
(0.170232 0.01944 0)
(0.202178 0.0104158 0)
(0.18825 -0.0216419 0)
(0.220675 -0.0731723 0)
(0.153485 -0.251257 0)
(0.124308 -0.432281 0)
(0.119312 0.140682 0)
(0.151769 0.0859326 0)
(0.228164 0.0633879 0)
(0.283659 0.0479704 0)
(0.325167 0.0373837 0)
(0.363548 0.0296464 0)
(0.392369 0.0242655 0)
(0.423652 0.0202051 0)
(0.44374 0.0173403 0)
(0.472376 0.0150094 0)
(0.485349 0.0133449 0)
(0.514706 0.0119207 0)
(0.520214 0.0108025 0)
(0.552151 0.00940778 0)
(0.546734 0.00738085 0)
(0.578145 0.00290468 0)
(0.545921 -0.00580474 0)
(0.551605 -0.0267469 0)
(0.418914 -0.072898 0)
(0.274581 -0.15155 0)
)
;

boundaryField
{
    movingWall
    {
        type            fixedValue;
        value           uniform (1 0 0);
    }
    fixedWalls
    {
        type            noSlip;
    }
    frontAndBack
    {
        type            empty;
    }
}


// ************************************************************************* //
