/*--------------------------------*- C++ -*----------------------------------*\
  =========                 |
  \\      /  F ield         | OpenFOAM: The Open Source CFD Toolbox
   \\    /   O peration     | Website:  https://openfoam.org
    \\  /    A nd           | Version:  10
     \\/     M anipulation  |
\*---------------------------------------------------------------------------*/
FoamFile
{
    format      ascii;
    class       volVectorField;
    location    "9.775";
    object      U;
}
// * * * * * * * * * * * * * * * * * * * * * * * * * * * * * * * * * * * * * //

dimensions      [0 1 -1 0 0 0 0];

internalField   nonuniform List<vector> 
475
(
(0.974622 0.0160492 0)
(0.975457 0.00651545 0)
(0.950589 0.0314278 0)
(0.953862 0.00144539 0)
(0.920084 0.0303662 0)
(0.998594 0.00871446 0)
(1.01393 0.0148268 0)
(1.02552 0.0153267 0)
(1.04359 0.00877399 0)
(1.05592 0.00251614 0)
(0.999972 0.00028817 0)
(1.00959 -0.0029568 0)
(1.02448 -0.00454302 0)
(1.04099 -0.00927003 0)
(1.05681 -0.0140613 0)
(0.999888 -0.0100371 0)
(1.01019 -0.0194545 0)
(1.02285 -0.021999 0)
(1.03541 -0.0229604 0)
(1.04484 -0.025456 0)
(0.980732 -0.00969749 0)
(0.969164 -0.0190482 0)
(0.953723 -0.0218839 0)
(0.933471 -0.0222058 0)
(0.907868 -0.0229244 0)
(0.9242 -0.0155363 0)
(0.931353 -0.0352058 0)
(0.936708 -0.0483856 0)
(0.942939 -0.0579115 0)
(0.951691 -0.0669875 0)
(0.963427 -0.0762747 0)
(0.978315 -0.0879066 0)
(0.9954 -0.101273 0)
(1.01376 -0.11779 0)
(1.03218 -0.136099 0)
(1.04936 -0.156279 0)
(1.06395 -0.176232 0)
(1.07448 -0.194948 0)
(1.07986 -0.210336 0)
(1.07931 -0.221043 0)
(1.07226 -0.225949 0)
(1.05854 -0.224742 0)
(1.03822 -0.218761 0)
(1.01217 -0.209172 0)
(0.983068 -0.196094 0)
(0.95357 -0.179614 0)
(0.925566 -0.160033 0)
(0.897934 -0.138114 0)
(0.873225 -0.114398 0)
(0.848214 -0.0904948 0)
(0.829363 -0.0666517 0)
(0.811032 -0.0444186 0)
(0.80291 -0.0224992 0)
(0.793942 -0.00211648 0)
(0.795251 0.0178955 0)
(0.793525 0.035645 0)
(0.801113 0.0524954 0)
(0.804174 0.0668072 0)
(0.814087 0.0780053 0)
(0.817965 0.086872 0)
(0.827595 0.0909956 0)
(0.829096 0.0926068 0)
(0.83727 0.0905965 0)
(0.834341 0.0852201 0)
(0.840379 0.0790483 0)
(0.833141 0.0688809 0)
(0.836736 0.0610208 0)
(0.826241 0.050807 0)
(0.82762 0.0451492 0)
(0.815543 0.0373071 0)
(1.06836 -0.00809003 0)
(1.0782 -0.0200809 0)
(1.08241 -0.0320529 0)
(1.08463 -0.0426842 0)
(1.08428 -0.0538884 0)
(1.08514 -0.0653011 0)
(1.0845 -0.0790691 0)
(1.08454 -0.0942305 0)
(1.08228 -0.112322 0)
(1.07903 -0.131356 0)
(1.07234 -0.151779 0)
(1.06252 -0.170888 0)
(1.04804 -0.187761 0)
(1.02863 -0.199069 0)
(1.00363 -0.203746 0)
(0.972789 -0.200518 0)
(0.935804 -0.192902 0)
(0.892521 -0.183631 0)
(0.844288 -0.172124 0)
(0.794733 -0.156339 0)
(0.747348 -0.137565 0)
(0.702272 -0.117428 0)
(0.661311 -0.097801 0)
(0.624875 -0.0794051 0)
(0.591755 -0.0623679 0)
(0.564899 -0.0459038 0)
(0.542772 -0.0303405 0)
(0.532373 -0.0147418 0)
(0.524975 -0.000341951 0)
(0.52843 0.0147735 0)
(0.53167 0.0286275 0)
(0.545911 0.0430302 0)
(0.556758 0.0546514 0)
(0.575824 0.065497 0)
(0.590665 0.0730532 0)
(0.610304 0.078044 0)
(0.625209 0.0803634 0)
(0.642654 0.0793628 0)
(0.653956 0.0761208 0)
(0.667872 0.0712414 0)
(0.674546 0.0638455 0)
(0.684072 0.0577646 0)
(0.686517 0.0495387 0)
(0.691121 0.0449292 0)
(0.691625 0.039256 0)
(1.0683 -0.0220251 0)
(1.07733 -0.0320929 0)
(1.08059 -0.0432982 0)
(1.0823 -0.053844 0)
(1.07885 -0.0642875 0)
(1.07569 -0.074636 0)
(1.06767 -0.0863833 0)
(1.06014 -0.0990253 0)
(1.04723 -0.113691 0)
(1.03357 -0.129157 0)
(1.01414 -0.14562 0)
(0.991845 -0.161017 0)
(0.96459 -0.173094 0)
(0.932036 -0.17925 0)
(0.893502 -0.173909 0)
(0.846237 -0.158976 0)
(0.788601 -0.142893 0)
(0.722562 -0.133202 0)
(0.654278 -0.126086 0)
(0.587733 -0.115177 0)
(0.519989 -0.0973142 0)
(0.455285 -0.0751502 0)
(0.39794 -0.0527179 0)
(0.350316 -0.0344638 0)
(0.31181 -0.021881 0)
(0.282657 -0.0134013 0)
(0.262153 -0.00754345 0)
(0.251538 -0.00207211 0)
(0.247328 0.00433425 0)
(0.251341 0.0128705 0)
(0.257798 0.021554 0)
(0.272424 0.0309405 0)
(0.286805 0.0392805 0)
(0.308651 0.0476939 0)
(0.32845 0.0534564 0)
(0.352772 0.0588048 0)
(0.375507 0.0601787 0)
(0.397754 0.0610789 0)
(0.420488 0.058798 0)
(0.438526 0.0561967 0)
(0.459074 0.0517273 0)
(0.471601 0.0476933 0)
(0.489565 0.0423662 0)
(0.495632 0.0399992 0)
(0.514235 0.0357509 0)
(1.05038 -0.0297546 0)
(1.05211 -0.0356412 0)
(1.04874 -0.0419066 0)
(1.04199 -0.048363 0)
(1.02909 -0.0545201 0)
(1.01392 -0.0610846 0)
(0.991399 -0.0682091 0)
(0.967424 -0.0762981 0)
(0.93384 -0.0856954 0)
(0.898593 -0.0958127 0)
(0.851698 -0.107091 0)
(0.802096 -0.117084 0)
(0.742229 -0.125617 0)
(0.67555 -0.128046 0)
(0.61065 -0.116548 0)
(0.534449 -0.0956163 0)
(0.43976 -0.0704423 0)
(0.323889 -0.0446738 0)
(0.215434 -0.0174738 0)
(0.134952 -0.000395668 0)
(0.0806649 0.00197823 0)
(0.0503358 -0.00056454 0)
(0.0340643 -0.00114677 0)
(0.0250034 -0.00106865 0)
(0.0200847 -0.00138232 0)
(0.0176468 -0.00190526 0)
(0.0167573 -0.00222863 0)
(0.0175945 -0.0015661 0)
(0.0203395 0.000277542 0)
(0.0264183 0.00358418 0)
(0.0352346 0.00785971 0)
(0.048712 0.0131889 0)
(0.0644966 0.0183411 0)
(0.0852944 0.0235691 0)
(0.107087 0.027719 0)
(0.132946 0.0311495 0)
(0.158891 0.0327187 0)
(0.185945 0.0340618 0)
(0.21386 0.0331646 0)
(0.23751 0.0324002 0)
(0.265646 0.029516 0)
(0.283015 0.0273957 0)
(0.310822 0.0241517 0)
(0.320212 0.022441 0)
(0.350903 0.019423 0)
(0.880383 -0.0240436 0)
(0.849384 -0.0261128 0)
(0.816302 -0.0278671 0)
(0.778563 -0.0302449 0)
(0.737239 -0.0319203 0)
(0.690841 -0.0345743 0)
(0.639669 -0.0367409 0)
(0.583902 -0.040446 0)
(0.520644 -0.0439174 0)
(0.453453 -0.0485905 0)
(0.373658 -0.0536543 0)
(0.292835 -0.0565478 0)
(0.193825 -0.0643994 0)
(0.0918627 -0.0440348 0)
(0.018598 0.000527501 0)
(-0.025673 0.0372987 0)
(-0.0391734 0.0609553 0)
(-0.033561 0.0625341 0)
(-0.0187576 0.042145 0)
(-0.00648698 0.0106236 0)
(-0.00659133 -0.0137998 0)
(-0.0180024 -0.0226039 0)
(-0.0314819 -0.0210876 0)
(-0.0423958 -0.0160017 0)
(-0.0505812 -0.0114518 0)
(-0.0569087 -0.0083176 0)
(-0.0621309 -0.00646536 0)
(-0.0663857 -0.00520425 0)
(-0.0693215 -0.00401933 0)
(-0.0701471 -0.0025871 0)
(-0.0684259 -0.000982763 0)
(-0.0633963 0.000864817 0)
(-0.0551648 0.00259229 0)
(-0.0432022 0.00438296 0)
(-0.028519 0.00581494 0)
(-0.0109546 0.00697542 0)
(0.00823715 0.00763874 0)
(0.028762 0.00794104 0)
(0.0492454 0.00771528 0)
(0.0688407 0.00715458 0)
(0.0882432 0.00630655 0)
(0.104143 0.00554478 0)
(0.12168 0.00455836 0)
(0.13143 0.00420313 0)
(0.151771 0.00362851 0)
(0.00205418 -0.0222595 0)
(0.00103316 -0.0215947 0)
(-0.00706601 -0.0154562 0)
(-0.0207888 -0.0033922 0)
(-0.0459458 0.00973435 0)
(-0.0805598 0.0186724 0)
(-0.119529 0.0230504 0)
(-0.159311 0.0243165 0)
(-0.196518 0.0233341 0)
(-0.227916 0.0205515 0)
(-0.250594 0.0163775 0)
(-0.262744 0.0112587 0)
(-0.263923 0.00528181 0)
(-0.254123 -0.00116896 0)
(-0.233608 -0.00735802 0)
(-0.203377 -0.0127894 0)
(-0.164914 -0.0171426 0)
(-0.120515 -0.0198235 0)
(-0.0724946 -0.0212472 0)
(-0.0224803 -0.0214056 0)
(0.027533 -0.0207143 0)
(0.0758129 -0.0192029 0)
(0.120416 -0.0168181 0)
(0.159952 -0.0137267 0)
(0.192987 -0.0102178 0)
(0.218855 -0.00649649 0)
(0.237095 -0.00260203 0)
(0.247265 0.00105331 0)
(0.24969 0.00449338 0)
(0.244931 0.00791797 0)
(0.233651 0.0104162 0)
(0.217309 0.0112538 0)
(0.197609 0.0106346 0)
(0.176643 0.00932591 0)
(0.155854 0.00783516 0)
(0.136655 0.00627439 0)
(0.119468 0.00460682 0)
(0.105009 0.00297752 0)
(0.0930234 0.00165284 0)
(0.0840532 0.000605005 0)
(0.0776169 -7.5068e-05 0)
(0.073947 -0.000748703 0)
(0.0724259 -0.00112586 0)
(0.0720137 -0.00143315 0)
(0.0743224 -0.00133473 0)
(-0.000255627 0.0202335 0)
(-0.0155221 0.0328259 0)
(-0.053766 0.0392484 0)
(-0.0867025 0.0457776 0)
(-0.118212 0.0525546 0)
(-0.14406 0.0557392 0)
(-0.164775 0.055194 0)
(-0.17987 0.0508549 0)
(-0.188809 0.0429994 0)
(-0.190577 0.032064 0)
(-0.183639 0.0180849 0)
(-0.167908 0.00250534 0)
(-0.143078 -0.0138733 0)
(-0.109739 -0.0304106 0)
(-0.0678601 -0.045858 0)
(-0.0190871 -0.0591027 0)
(0.0358256 -0.0692069 0)
(0.0948138 -0.0759027 0)
(0.155033 -0.0792397 0)
(0.215373 -0.0795477 0)
(0.273596 -0.0772241 0)
(0.329114 -0.072559 0)
(0.380085 -0.0655207 0)
(0.425908 -0.056659 0)
(0.465115 -0.0462727 0)
(0.497296 -0.0350752 0)
(0.522224 -0.0236247 0)
(0.539721 -0.0119981 0)
(0.549564 -0.000929853 0)
(0.552783 0.00939978 0)
(0.548692 0.0188426 0)
(0.538435 0.0264993 0)
(0.52215 0.0317195 0)
(0.501494 0.0339439 0)
(0.477368 0.0336296 0)
(0.451708 0.0311298 0)
(0.425413 0.0277242 0)
(0.40097 0.0234965 0)
(0.378251 0.0190858 0)
(0.35929 0.0144462 0)
(0.342787 0.00982491 0)
(0.331133 0.00557961 0)
(0.321988 0.00245566 0)
(0.316696 -6.64593e-05 0)
(0.312609 -0.0018798 0)
(-0.0345784 -0.0119218 0)
(-0.0678383 0.0268949 0)
(-0.0786889 0.0446165 0)
(-0.0831748 0.0541614 0)
(-0.0796762 0.0585965 0)
(-0.069592 0.058093 0)
(-0.0543586 0.0537805 0)
(-0.0341535 0.0453848 0)
(-0.00935442 0.0325202 0)
(0.0197696 0.0155956 0)
(0.0546369 -0.00481791 0)
(0.0953805 -0.0277649 0)
(0.141968 -0.0521528 0)
(0.192992 -0.0758735 0)
(0.247553 -0.0974524 0)
(0.304715 -0.115672 0)
(0.362361 -0.128783 0)
(0.419826 -0.137203 0)
(0.475239 -0.140734 0)
(0.528243 -0.139941 0)
(0.577186 -0.135032 0)
(0.62267 -0.126335 0)
(0.662824 -0.11399 0)
(0.698224 -0.0989651 0)
(0.727333 -0.0819278 0)
(0.751052 -0.0636423 0)
(0.768467 -0.044992 0)
(0.780881 -0.0264069 0)
(0.78723 -0.00829509 0)
(0.789237 0.00830672 0)
(0.785308 0.0234271 0)
(0.777194 0.0363404 0)
(0.763297 0.0464849 0)
(0.746827 0.0531081 0)
(0.725898 0.0564125 0)
(0.704947 0.0569276 0)
(0.680393 0.0542601 0)
(0.658365 0.049251 0)
(0.633957 0.0429028 0)
(0.614826 0.0353454 0)
(0.593765 0.0279854 0)
(0.579901 0.0195589 0)
(0.562467 0.01244 0)
(0.555087 0.00777475 0)
(0.539188 0.00277136 0)
(-0.0299629 0.141625 0)
(-0.0269421 0.0902457 0)
(-0.0175097 0.0710519 0)
(0.00700014 0.0581053 0)
(0.0391426 0.0476639 0)
(0.0788278 0.0379716 0)
(0.123719 0.0263239 0)
(0.172277 0.0118312 0)
(0.224119 -0.00640081 0)
(0.278404 -0.0288997 0)
(0.335442 -0.0546179 0)
(0.394051 -0.081684 0)
(0.453199 -0.1087 0)
(0.512282 -0.134257 0)
(0.569745 -0.156534 0)
(0.624718 -0.174045 0)
(0.675642 -0.18578 0)
(0.722247 -0.19169 0)
(0.763443 -0.192233 0)
(0.800251 -0.187924 0)
(0.83158 -0.178732 0)
(0.859485 -0.164941 0)
(0.881837 -0.146935 0)
(0.901075 -0.126111 0)
(0.914732 -0.103404 0)
(0.926137 -0.0797658 0)
(0.932491 -0.0561257 0)
(0.937757 -0.032606 0)
(0.938273 -0.0102496 0)
(0.938421 0.0111054 0)
(0.933348 0.0299795 0)
(0.92805 0.0463254 0)
(0.916789 0.0596494 0)
(0.906278 0.0693179 0)
(0.889877 0.0756489 0)
(0.875829 0.0775656 0)
(0.85572 0.0768099 0)
(0.840454 0.0720341 0)
(0.818466 0.0652055 0)
(0.804823 0.0567792 0)
(0.782622 0.0464793 0)
(0.772821 0.0378194 0)
(0.750765 0.0278088 0)
(0.745407 0.0220976 0)
(0.722645 0.0148423 0)
(0.0807745 0.00510981 0)
(0.120035 -0.00357083 0)
(0.202617 -0.00705566 0)
(0.267233 -0.0136723 0)
(0.327299 -0.0224386 0)
(0.386779 -0.0329756 0)
(0.446971 -0.0459844 0)
(0.506251 -0.0611234 0)
(0.566261 -0.0796089 0)
(0.625227 -0.100739 0)
(0.683298 -0.124407 0)
(0.739013 -0.148805 0)
(0.791043 -0.172448 0)
(0.838246 -0.193668 0)
(0.879388 -0.210728 0)
(0.91373 -0.222374 0)
(0.940529 -0.227835 0)
(0.960051 -0.227451 0)
(0.972564 -0.222377 0)
(0.980175 -0.213126 0)
(0.983071 -0.199604 0)
(0.984099 -0.181644 0)
(0.981043 -0.159868 0)
(0.977956 -0.135365 0)
(0.971133 -0.109691 0)
(0.966892 -0.0836387 0)
(0.959641 -0.0585184 0)
(0.95711 -0.0335602 0)
(0.951443 -0.0101942 0)
(0.950844 0.0125789 0)
(0.945918 0.0326752 0)
(0.945522 0.050617 0)
(0.939963 0.0657658 0)
(0.938531 0.0770334 0)
(0.930428 0.0854152 0)
(0.927374 0.0887528 0)
(0.915637 0.0893801 0)
(0.91136 0.0861096 0)
(0.896052 0.0795954 0)
(0.891723 0.0720792 0)
(0.873921 0.0611568 0)
(0.870279 0.0522096 0)
(0.850801 0.0412899 0)
(0.84872 0.0350813 0)
(0.827078 0.0270243 0)
)
;

boundaryField
{
    inlet
    {
        type            fixedValue;
        value           uniform (1 0 0);
    }
    outlet
    {
        type            zeroGradient;
    }
    upperWall
    {
        type            noSlip;
    }
    lowerWall
    {
        type            noSlip;
    }
    frontAndBack
    {
        type            empty;
    }
}


// ************************************************************************* //
