/*--------------------------------*- C++ -*----------------------------------*\
  =========                 |
  \\      /  F ield         | OpenFOAM: The Open Source CFD Toolbox
   \\    /   O peration     | Website:  https://openfoam.org
    \\  /    A nd           | Version:  10
     \\/     M anipulation  |
\*---------------------------------------------------------------------------*/
FoamFile
{
    format      ascii;
    class       volVectorField;
    location    "5.75";
    object      U;
}
// * * * * * * * * * * * * * * * * * * * * * * * * * * * * * * * * * * * * * //

dimensions      [0 1 -1 0 0 0 0];

internalField   nonuniform List<vector> 
8000
(
(-5.13755e-05 6.77486e-05 -2.28134e-05)
(-0.000422691 0.000163849 1.40468e-05)
(-0.00104707 0.000192922 2.80684e-05)
(-0.00167278 0.000201845 3.45604e-05)
(-0.00231507 0.000206409 3.44867e-05)
(-0.00295032 0.00021044 3.03942e-05)
(-0.00356662 0.000213041 2.34377e-05)
(-0.0041502 0.000211968 1.34016e-05)
(-0.00468272 0.000204664 -3.57031e-07)
(-0.00514009 0.000188867 -1.76587e-05)
(-0.00549206 0.000162217 -3.86269e-05)
(-0.00570362 0.000123055 -6.32272e-05)
(-0.00573663 7.0421e-05 -9.10306e-05)
(-0.00555274 3.50933e-06 -0.00012122)
(-0.00512122 -7.54686e-05 -0.000152306)
(-0.00442696 -0.000159759 -0.000180516)
(-0.00348179 -0.000238139 -0.000199472)
(-0.00236222 -0.000291795 -0.00019998)
(-0.00108947 -0.000287972 -0.000175259)
(-0.000202219 -0.000140897 -8.1371e-05)
(-0.00014281 0.000500559 -8.45806e-05)
(-0.000818506 0.000913356 -5.70259e-05)
(-0.00186029 0.00103536 -4.32479e-05)
(-0.00289835 0.00106131 -3.3093e-05)
(-0.00395031 0.00105697 -2.84405e-05)
(-0.0049769 0.0010391 -2.7197e-05)
(-0.00595601 0.00100679 -2.83448e-05)
(-0.00686442 0.000954038 -3.20785e-05)
(-0.0076731 0.000873417 -3.89979e-05)
(-0.0083463 0.000757441 -4.96757e-05)
(-0.00884084 0.000598679 -6.46832e-05)
(-0.00910784 0.000390734 -8.44987e-05)
(-0.00909664 0.00013056 -0.000109338)
(-0.00875637 -0.000177881 -0.000137957)
(-0.00804439 -0.000521605 -0.000167667)
(-0.00694101 -0.000875213 -0.000194586)
(-0.00546757 -0.00119561 -0.000210962)
(-0.00373418 -0.00140959 -0.000206279)
(-0.00177694 -0.00138853 -0.000172706)
(-0.000364619 -0.000802392 -5.28704e-05)
(-0.000171328 0.00123126 -0.000115994)
(-0.000955473 0.00209117 -9.28369e-05)
(-0.00214851 0.0023378 -7.9203e-05)
(-0.00332979 0.00237651 -6.70355e-05)
(-0.00452271 0.00234396 -5.97689e-05)
(-0.00568412 0.00227515 -5.55227e-05)
(-0.00679059 0.00217069 -5.34046e-05)
(-0.00781762 0.00202137 -5.37665e-05)
(-0.0087345 0.00181474 -5.74064e-05)
(-0.00950327 0.00153715 -6.52461e-05)
(-0.0100783 0.00117516 -7.82022e-05)
(-0.0104062 0.0007176 -9.70298e-05)
(-0.0104262 0.000159725 -0.000122456)
(-0.0100751 -0.000491004 -0.00015274)
(-0.00929927 -0.00120962 -0.000185977)
(-0.00806656 -0.0019456 -0.000217183)
(-0.00638908 -0.0026127 -0.000236859)
(-0.00438718 -0.0030614 -0.000231965)
(-0.00209676 -0.00302734 -0.000193104)
(-0.000431395 -0.00184445 -5.27032e-05)
(-0.000175804 0.00199451 -0.000139145)
(-0.000998937 0.00332655 -0.000120292)
(-0.00225488 0.00369863 -0.000107194)
(-0.00349566 0.00374735 -9.38502e-05)
(-0.00475193 0.00368582 -8.50125e-05)
(-0.00598046 0.00356799 -7.89744e-05)
(-0.00716013 0.00339593 -7.50317e-05)
(-0.00826864 0.00315705 -7.37245e-05)
(-0.0092768 0.00283341 -7.59808e-05)
(-0.0101469 0.00240436 -8.30313e-05)
(-0.0108313 0.00184877 -9.61767e-05)
(-0.0112709 0.00114886 -0.0001167)
(-0.0113965 0.00029546 -0.000145856)
(-0.0111288 -0.000705676 -0.000183114)
(-0.0103885 -0.00182423 -0.000224641)
(-0.00911464 -0.00298595 -0.000265035)
(-0.00729476 -0.00405806 -0.000292238)
(-0.0050536 -0.00480112 -0.000289635)
(-0.0024266 -0.0047855 -0.000244904)
(-0.000497607 -0.00295531 -7.52741e-05)
(-0.000173097 0.00280821 -0.000157762)
(-0.00101735 0.00464801 -0.000142635)
(-0.00231701 0.00515453 -0.000130161)
(-0.00360182 0.00521654 -0.000116311)
(-0.00490968 0.00512984 -0.000106903)
(-0.0061987 0.0049692 -0.000100377)
(-0.00745199 0.00473881 -9.61756e-05)
(-0.0086515 0.00442293 -9.50774e-05)
(-0.00977177 0.00399787 -9.82885e-05)
(-0.0107774 0.00343477 -0.000107376)
(-0.0116198 0.00270206 -0.000124156)
(-0.0122339 0.00176982 -0.00015042)
(-0.0125362 0.000617149 -0.000187601)
(-0.0124264 -0.0007572 -0.00023773)
(-0.0117892 -0.00232403 -0.000294852)
(-0.010517 -0.00398965 -0.0003528)
(-0.00855096 -0.00556955 -0.000395635)
(-0.00600608 -0.00671132 -0.000399794)
(-0.00291428 -0.00676892 -0.000346943)
(-0.000601867 -0.00421442 -0.000130155)
(-0.000168603 0.00365845 -0.000176135)
(-0.00103276 0.00604041 -0.00016464)
(-0.00237773 0.0066924 -0.000152933)
(-0.00370925 0.00677379 -0.000138973)
(-0.00507283 0.00667006 -0.00012957)
(-0.00642878 0.00647935 -0.000123337)
(-0.0077661 0.00620917 -0.000119899)
(-0.00907312 0.00584115 -0.000120293)
(-0.0103308 0.00534572 -0.00012612)
(-0.0115089 0.00468452 -0.00013944)
(-0.0125609 0.00381215 -0.000162781)
(-0.0134173 0.00268061 -0.000198756)
(-0.0139806 0.00124764 -0.000249346)
(-0.0141239 -0.000509078 -0.000321794)
(-0.0136818 -0.00257012 -0.000405693)
(-0.0124752 -0.00484024 -0.00049517)
(-0.010366 -0.00707784 -0.000568104)
(-0.00742818 -0.00878644 -0.000589126)
(-0.00367695 -0.00902199 -0.00052649)
(-0.000779724 -0.00566953 -0.000235551)
(-0.000163156 0.00454771 -0.000197257)
(-0.00104974 0.00751009 -0.000190029)
(-0.00244572 0.00832003 -0.000179265)
(-0.00382822 0.0084275 -0.000165259)
(-0.00525143 0.00831622 -0.00015593)
(-0.00667852 0.00811111 -0.000150163)
(-0.00810622 0.00782495 -0.00014786)
(-0.00953188 0.00743819 -0.00015041)
(-0.0109464 0.00691606 -0.000159928)
(-0.0123298 0.00621025 -0.000179264)
(-0.0136431 0.00525885 -0.000212106)
(-0.0148182 0.00398889 -0.000262915)
(-0.0157463 0.00232468 -0.00033721)
(-0.0162682 0.000205372 -0.000439062)
(-0.0161638 -0.00237977 -0.000570373)
(-0.0151549 -0.00536421 -0.000716602)
(-0.0129648 -0.00845892 -0.000848453)
(-0.00956001 -0.0109946 -0.000911235)
(-0.00490256 -0.0116004 -0.000842637)
(-0.00110019 -0.00741523 -0.000438612)
(-0.0001566 0.00548344 -0.000222966)
(-0.00106873 0.0090705 -0.000221214)
(-0.00252128 0.0100509 -0.000211499)
(-0.00395615 0.0101891 -0.000197145)
(-0.00543777 0.010078 -0.000187474)
(-0.00693272 0.00987402 -0.000181793)
(-0.0084474 0.0095981 -0.000180422)
(-0.00999113 0.0092323 -0.000185251)
(-0.0115693 0.0087392 -0.000199102)
(-0.0131785 0.0080623 -0.000225952)
(-0.0147965 0.007123 -0.000271322)
(-0.016368 0.00581911 -0.000342581)
(-0.0177838 0.00402892 -0.000448829)
(-0.0188559 0.00162865 -0.000598457)
(-0.0193103 -0.00147165 -0.000808665)
(-0.0187407 -0.00525182 -0.0010558)
(-0.0166577 -0.00944052 -0.00130401)
(-0.0127893 -0.0131858 -0.00146864)
(-0.00696454 -0.0145123 -0.00142412)
(-0.00172511 -0.0096014 -0.000855395)
(-0.000149423 0.00647603 -0.00025497)
(-0.00109163 0.0107385 -0.000260455)
(-0.00260609 0.0118992 -0.000251767)
(-0.00409085 0.0120675 -0.000236301)
(-0.00562268 0.0119591 -0.000225281)
(-0.00717194 0.0117676 -0.000218631)
(-0.00875641 0.0115267 -0.00021728)
(-0.0104003 0.0112244 -0.0002238)
(-0.012128 0.0108258 -0.000241971)
(-0.0139602 0.0102713 -0.000277348)
(-0.0159038 0.00947038 -0.000338171)
(-0.017934 0.00829276 -0.000436413)
(-0.0199649 0.00656322 -0.000587792)
(-0.0218112 0.00406783 -0.000811236)
(-0.0231375 0.000591349 -0.0011368)
(-0.0234101 -0.0039715 -0.001566)
(-0.0218711 -0.00946222 -0.00204238)
(-0.0177689 -0.0149164 -0.00244744)
(-0.0106358 -0.0175974 -0.00254187)
(-0.00303151 -0.012438 -0.00178379)
(-0.000143765 0.00754165 -0.000295571)
(-0.00112504 0.0125371 -0.000310631)
(-0.0027085 0.0138815 -0.000302701)
(-0.00423701 0.0140691 -0.000284679)
(-0.00580298 0.0139552 -0.000270463)
(-0.00738075 0.0137784 -0.00026085)
(-0.00900056 0.01359 -0.000257595)
(-0.0107034 0.0133901 -0.000264147)
(-0.0125363 0.013154 -0.000285509)
(-0.0145513 0.0128305 -0.000329291)
(-0.0167975 0.0123296 -0.000407466)
(-0.0193049 0.0115063 -0.000538893)
(-0.0220505 0.0101405 -0.000751777)
(-0.0248971 0.00792008 -0.00108384)
(-0.0275076 0.00445663 -0.00157521)
(-0.0292679 -0.000625505 -0.0022953)
(-0.0291211 -0.00739913 -0.0031959)
(-0.0255577 -0.0150629 -0.00413704)
(-0.017429 -0.0202028 -0.00472179)
(-0.00583659 -0.0162203 -0.00399078)
(-0.000144913 0.00870823 -0.000348505)
(-0.00118427 0.0145011 -0.000376121)
(-0.00284912 0.01602 -0.000368181)
(-0.0044124 0.0161988 -0.000345078)
(-0.0059881 0.0160543 -0.000324534)
(-0.00755498 0.0158779 -0.000308602)
(-0.00915614 0.0157441 -0.000300102)
(-0.0108491 0.0156714 -0.00030344)
(-0.0127033 0.015656 -0.00032501)
(-0.0148046 0.0156704 -0.000374851)
(-0.0172545 0.0156496 -0.000469469)
(-0.0201607 0.0154666 -0.000636242)
(-0.0236102 0.0148941 -0.000919405)
(-0.027609 0.0135539 -0.00138398)
(-0.0319657 0.0108755 -0.00211246)
(-0.0361001 0.00611271 -0.00320367)
(-0.0388104 -0.00142612 -0.00479572)
(-0.037608 -0.0114802 -0.00672385)
(-0.0298514 -0.0207214 -0.00846136)
(-0.0116978 -0.0215561 -0.00856146)
(-0.00016433 0.0100268 -0.000420425)
(-0.00130007 0.0166869 -0.000464309)
(-0.00306857 0.0183483 -0.000454736)
(-0.0046556 0.0184631 -0.000422118)
(-0.00620784 0.0182362 -0.00038995)
(-0.00771017 0.0180208 -0.000362255)
(-0.00921865 0.0179185 -0.000343245)
(-0.0108042 0.0179714 -0.000338147)
(-0.0125528 0.0182065 -0.000354598)
(-0.0145774 0.0186395 -0.000404989)
(-0.0170281 0.0192643 -0.000510327)
(-0.0201014 0.0200256 -0.000706645)
(-0.024039 0.020772 -0.00105471)
(-0.0290936 0.0211699 -0.00164748)
(-0.035446 0.0205893 -0.0026029)
(-0.0430042 0.017895 -0.00404779)
(-0.0505966 0.0112982 -0.00615407)
(-0.0545034 -0.00111335 -0.0088989)
(-0.0499239 -0.0183808 -0.0117782)
(-0.022208 -0.0319599 -0.0139773)
(-0.000226211 0.0115837 -0.000523329)
(-0.00153104 0.0191702 -0.000585709)
(-0.00344003 0.0208947 -0.000569639)
(-0.00503704 0.0208498 -0.000519283)
(-0.00652198 0.0204594 -0.000467497)
(-0.00789113 0.0201392 -0.000420695)
(-0.00921475 0.0200123 -0.000384071)
(-0.0105702 0.020146 -0.000362998)
(-0.0120454 0.0206056 -0.000365929)
(-0.0137592 0.021466 -0.000406236)
(-0.0158851 0.0228126 -0.000506881)
(-0.0186802 0.0247238 -0.000705918)
(-0.022529 0.0272357 -0.00106256)
(-0.0279849 0.0302205 -0.00164299)
(-0.0358498 0.0331553 -0.00246523)
(-0.0470424 0.0343529 -0.00344959)
(-0.0613685 0.029979 -0.00446772)
(-0.0742102 0.0119196 -0.00482947)
(-0.0767594 -0.0230781 -0.00470373)
(-0.0361759 -0.0605719 -0.0109072)
(-0.000389052 0.0135753 -0.000689325)
(-0.00200331 0.0221955 -0.000784014)
(-0.00409443 0.0238949 -0.000760374)
(-0.00566391 0.0235658 -0.000678736)
(-0.00701485 0.0228602 -0.000586484)
(-0.00817105 0.0222806 -0.000498844)
(-0.00921316 0.0219855 -0.000425914)
(-0.010209 0.0220696 -0.000375292)
(-0.0112286 0.0226361 -0.000353609)
(-0.0123637 0.023823 -0.00037209)
(-0.0137601 0.025831 -0.000450359)
(-0.0156622 0.0289164 -0.000613237)
(-0.0185198 0.0334038 -0.000873703)
(-0.0231383 0.0394383 -0.00113221)
(-0.0311421 0.0465436 -0.000948304)
(-0.0450449 0.0515272 0.000702773)
(-0.0684153 0.0468014 0.00499777)
(-0.0961217 0.0138174 0.01266)
(-0.107597 -0.0559945 0.0188322)
(-0.0469943 -0.125874 0.00149677)
(-0.000703694 0.0164303 -0.000940343)
(-0.00277696 0.0255388 -0.0010118)
(-0.00512444 0.0267301 -0.000948278)
(-0.00668586 0.0257359 -0.000802327)
(-0.00789096 0.024585 -0.000658733)
(-0.00875875 0.0237445 -0.00052792)
(-0.00940139 0.0233023 -0.000418075)
(-0.00988518 0.0233077 -0.000334365)
(-0.0102454 0.0238619 -0.000282024)
(-0.0105017 0.0251386 -0.000266755)
(-0.0107032 0.0274485 -0.000294142)
(-0.0109558 0.0312053 -0.000347652)
(-0.0116612 0.0370437 -0.000331671)
(-0.0137905 0.0452079 0.000196032)
(-0.0203549 0.0553841 0.00250892)
(-0.0365352 0.0620546 0.00910096)
(-0.0730646 0.0523638 0.0220943)
(-0.118107 -0.0128236 0.0374031)
(-0.132433 -0.140216 0.0374598)
(-0.0496067 -0.22566 -0.000320663)
(-0.00203463 0.0194278 -0.00148082)
(-0.00535027 0.0309876 -0.00166388)
(-0.00740425 0.0318088 -0.00151979)
(-0.00850488 0.0303121 -0.00125996)
(-0.00909599 0.0283003 -0.000971041)
(-0.00941753 0.026594 -0.000703955)
(-0.00955627 0.0253649 -0.000478111)
(-0.00949835 0.0246927 -0.000303061)
(-0.00918323 0.0246831 -0.000182505)
(-0.00849295 0.0254819 -0.000114686)
(-0.00732247 0.0274331 -9.6799e-05)
(-0.00551418 0.0309503 -4.99691e-05)
(-0.0034014 0.0369669 0.000250428)
(-0.00159672 0.0456551 0.00163384)
(-0.00460372 0.0575997 0.00612883)
(-0.0188809 0.0635514 0.0173502)
(-0.0638458 0.0440676 0.035981)
(-0.114551 -0.0676262 0.0475861)
(-0.13552 -0.233619 0.0281994)
(-0.0506699 -0.316961 -0.0224369)
(-0.00133828 0.0310242 -0.00252178)
(-0.0052634 0.034917 -0.00230344)
(-0.00936763 0.0333621 -0.00197829)
(-0.0106759 0.029594 -0.00139858)
(-0.011415 0.0269139 -0.000929449)
(-0.0112335 0.0250248 -0.000518068)
(-0.0105706 0.0237701 -0.000185665)
(-0.00951555 0.0230037 6.09507e-05)
(-0.00806779 0.0227652 0.000213769)
(-0.00603869 0.0230763 0.000278967)
(-0.00324385 0.0243267 0.00027262)
(0.000910343 0.0267169 0.000310001)
(0.00620231 0.03129 0.00065334)
(0.0134905 0.0380153 0.00221214)
(0.0168435 0.0483534 0.00738041)
(0.0174998 0.052903 0.0191138)
(-0.0191928 0.0249138 0.0369047)
(-0.0614844 -0.105006 0.0398443)
(-0.114399 -0.272805 0.0122127)
(-0.0454786 -0.380775 -0.0437621)
(-0.0124777 0.0288161 -0.00335518)
(-0.021395 0.0502802 -0.00401178)
(-0.0160397 0.0460899 -0.00361777)
(-0.0152528 0.0412435 -0.00276645)
(-0.0121942 0.0355295 -0.00172731)
(-0.00897419 0.030858 -0.000832273)
(-0.0056669 0.0272249 -0.000127534)
(-0.00227461 0.0244761 0.000360662)
(0.00119501 0.0225626 0.00064746)
(0.00519956 0.0212514 0.000761635)
(0.00972181 0.0207583 0.000697874)
(0.0158954 0.0209545 0.000479696)
(0.0230399 0.0226948 0.00044305)
(0.034101 0.0254541 0.00112429)
(0.0424001 0.0310082 0.00438594)
(0.0586738 0.0339181 0.0128841)
(0.0424125 0.0130963 0.0249829)
(0.0338314 -0.099708 0.0287677)
(-0.0621029 -0.267987 0.00464516)
(-0.0196387 -0.406108 -0.05801)
(-0.0464328 0.0884563 -0.0122967)
(-0.029874 0.0411706 -0.00835459)
(-0.0207546 0.0349036 -0.00593803)
(-0.00234383 0.0278572 -0.00365441)
(0.0129986 0.0215485 -0.00206091)
(0.0279653 0.0173841 -0.00083488)
(0.0407755 0.0147636 0.000109648)
(0.0523654 0.0128112 0.00075197)
(0.0620329 0.0115686 0.00118021)
(0.0716104 0.0105023 0.00135781)
(0.0792056 0.0101928 0.00130486)
(0.0891779 0.009716 0.000994354)
(0.0959438 0.0102334 0.000525748)
(0.11123 0.00969746 6.58474e-05)
(0.115656 0.00873848 0.000437023)
(0.146141 0.00124468 0.0039917)
(0.128425 -0.0204141 0.00844851)
(0.16239 -0.0962904 0.0148234)
(0.0346138 -0.239358 -0.000176509)
(0.0327103 -0.370615 -0.0678357)
(0.11763 0.112047 -0.0112318)
(0.144207 0.0596901 -0.0117905)
(0.216315 0.0394 -0.0114713)
(0.260833 0.0262064 -0.010164)
(0.293361 0.0173904 -0.00860349)
(0.320426 0.0114768 -0.00727621)
(0.340849 0.00778616 -0.00603628)
(0.359691 0.00533146 -0.0049737)
(0.372134 0.00389428 -0.00408743)
(0.387582 0.00279282 -0.00324576)
(0.393869 0.00237442 -0.00271479)
(0.410136 0.00188806 -0.00217872)
(0.409602 0.00198981 -0.00193555)
(0.431481 0.00165115 -0.0016498)
(0.419273 0.00103568 -0.00151573)
(0.449364 -0.00198298 -0.0007486)
(0.406888 -0.0103833 -0.000114895)
(0.424554 -0.0325759 3.54457e-05)
(0.253936 -0.0747589 -0.0085006)
(0.16484 -0.139935 -0.0777522)
(-9.75612e-05 0.000110461 -6.8359e-05)
(-0.000748987 0.000309594 -2.10034e-05)
(-0.00182684 0.000372072 2.62378e-06)
(-0.00288974 0.000384012 1.53489e-05)
(-0.00395675 0.000382064 1.61965e-05)
(-0.00499073 0.000375988 8.83748e-06)
(-0.00597266 0.000365234 -5.03305e-06)
(-0.00688095 0.000346941 -2.56568e-05)
(-0.00768639 0.00031789 -5.39378e-05)
(-0.00835286 0.000274287 -9.03905e-05)
(-0.00883766 0.000212744 -0.000135564)
(-0.00909229 0.000130905 -0.000189503)
(-0.00906549 2.73926e-05 -0.000251367)
(-0.00870745 -9.73413e-05 -0.000318374)
(-0.00797859 -0.000237565 -0.000386354)
(-0.00686 -0.00038261 -0.000447297)
(-0.00537048 -0.000512863 -0.000488557)
(-0.00361847 -0.000592389 -0.00049321)
(-0.00164408 -0.000551167 -0.000447542)
(-0.000294458 -0.000235661 -0.000257786)
(-0.000308836 0.000820336 -0.000184473)
(-0.00161758 0.00165298 -0.000158037)
(-0.00357347 0.00190409 -0.000133884)
(-0.00549833 0.00193452 -0.000112808)
(-0.00740517 0.00189037 -0.000102521)
(-0.00922543 0.00181177 -0.00010025)
(-0.0109185 0.00170076 -0.000104585)
(-0.0124434 0.00154979 -0.000116102)
(-0.0137518 0.00134918 -0.000136078)
(-0.0147873 0.00108825 -0.0001659)
(-0.0154861 0.00075729 -0.000206756)
(-0.0157788 0.000348901 -0.000259334)
(-0.0155955 -0.000138819 -0.000323819)
(-0.0148686 -0.000695191 -0.000396119)
(-0.013547 -0.00129653 -0.0004703)
(-0.0116124 -0.00189929 -0.00053682)
(-0.00910498 -0.00242707 -0.000579312)
(-0.00618925 -0.00274028 -0.000577131)
(-0.00293702 -0.00257278 -0.000512701)
(-0.000605917 -0.00133885 -0.000261418)
(-0.000388047 0.00202349 -0.000247301)
(-0.00196116 0.00373779 -0.000233922)
(-0.00427078 0.00423708 -0.000210234)
(-0.00652954 0.00427414 -0.000184623)
(-0.00875641 0.00414584 -0.000168718)
(-0.0108736 0.00393373 -0.000160311)
(-0.0128357 0.00364577 -0.000158345)
(-0.0145977 0.00327076 -0.000163871)
(-0.0161072 0.0027925 -0.000178729)
(-0.0173034 0.0021933 -0.000204995)
(-0.0181178 0.00145676 -0.000244601)
(-0.0184741 0.000571048 -0.000298948)
(-0.0182879 -0.000464861 -0.00036852)
(-0.0174768 -0.00163277 -0.000449244)
(-0.015976 -0.00288558 -0.000535588)
(-0.0137504 -0.00413586 -0.000615744)
(-0.0108307 -0.00522999 -0.000669367)
(-0.00739891 -0.0058847 -0.000670225)
(-0.00353171 -0.00556248 -0.000596209)
(-0.000735174 -0.00308409 -0.000298549)
(-0.000412869 0.00327807 -0.000297356)
(-0.00209805 0.00592085 -0.00029674)
(-0.00457008 0.00667049 -0.000274443)
(-0.00698111 0.00670744 -0.000246138)
(-0.00936057 0.00649067 -0.000226702)
(-0.0116293 0.00614448 -0.000214448)
(-0.0137443 0.00568244 -0.000208767)
(-0.0156626 0.00508945 -0.000211245)
(-0.017333 0.00434219 -0.000224313)
(-0.0186947 0.00341408 -0.000250858)
(-0.0196752 0.00227913 -0.000293749)
(-0.0201896 0.000917922 -0.00035562)
(-0.0201408 -0.000674109 -0.000438657)
(-0.0194201 -0.00248023 -0.000539536)
(-0.0179251 -0.00443624 -0.000650513)
(-0.0155818 -0.00641285 -0.000757715)
(-0.0123861 -0.0081713 -0.000834782)
(-0.00852675 -0.00925787 -0.00084692)
(-0.00408499 -0.00880862 -0.000763213)
(-0.000846783 -0.00495822 -0.000396054)
(-0.000423417 0.00460925 -0.000341185)
(-0.00218401 0.00824539 -0.000352697)
(-0.00477806 0.00926054 -0.000332079)
(-0.0073082 0.0093003 -0.000302324)
(-0.00981471 0.00899794 -0.000281229)
(-0.0122199 0.00852361 -0.000267607)
(-0.0144865 0.00789734 -0.00026132)
(-0.0165772 0.00710015 -0.000264595)
(-0.0184455 0.00610059 -0.000280677)
(-0.0200325 0.00486063 -0.00031353)
(-0.021263 0.00333986 -0.000367471)
(-0.022041 0.00150281 -0.000446681)
(-0.0222492 -0.000669301 -0.000554335)
(-0.021743 -0.00317014 -0.000690952)
(-0.0203644 -0.00592811 -0.000846234)
(-0.0179715 -0.00877622 -0.00100344)
(-0.0144914 -0.0113762 -0.00112675)
(-0.010098 -0.0130563 -0.00116474)
(-0.0048792 -0.0125303 -0.00106833)
(-0.00101469 -0.0071095 -0.000585101)
(-0.000433713 0.00600265 -0.000386467)
(-0.00227376 0.0106977 -0.000410647)
(-0.00499964 0.0119972 -0.000392028)
(-0.00766073 0.0120468 -0.000361479)
(-0.0103088 0.0116678 -0.000339737)
(-0.0128691 0.0110803 -0.000326197)
(-0.0153129 0.0103123 -0.000321309)
(-0.0176117 0.00934122 -0.000328091)
(-0.0197277 0.00812669 -0.000350873)
(-0.0216083 0.00661616 -0.000395107)
(-0.0231789 0.0047486 -0.000467204)
(-0.0243341 0.00246172 -0.000574003)
(-0.0249366 -0.000295504 -0.000721701)
(-0.0247944 -0.00353752 -0.000916874)
(-0.0236693 -0.00721609 -0.00114621)
(-0.0213155 -0.0111371 -0.00139073)
(-0.0175376 -0.0148477 -0.00160021)
(-0.0124454 -0.017391 -0.00169465)
(-0.0061222 -0.0169003 -0.00158551)
(-0.00130008 -0.00966841 -0.000914193)
(-0.000446926 0.00746818 -0.000439128)
(-0.00238151 0.0132965 -0.0004781)
(-0.0052617 0.0149016 -0.000461789)
(-0.0080738 0.0149685 -0.000430339)
(-0.0108828 0.0145231 -0.000407852)
(-0.0136182 0.0138413 -0.000394509)
(-0.0162626 0.0129612 -0.000391575)
(-0.018801 0.0118581 -0.000403131)
(-0.0212098 0.0104827 -0.000434987)
(-0.0234501 0.00876573 -0.00049478)
(-0.0254563 0.00661919 -0.000592127)
(-0.027123 0.00394128 -0.000738172)
(-0.0282866 0.000629689 -0.000944113)
(-0.0287126 -0.00338257 -0.00122757)
(-0.0280701 -0.00810572 -0.00158082)
(-0.0259484 -0.0133552 -0.00197711)
(-0.021949 -0.0185664 -0.00234865)
(-0.0160065 -0.0224175 -0.0025682)
(-0.00815328 -0.0222047 -0.00246111)
(-0.00182194 -0.012903 -0.00149042)
(-0.00046357 0.00902227 -0.00050348)
(-0.00251077 0.0160705 -0.000560737)
(-0.00557005 0.0180029 -0.000546797)
(-0.00855111 0.0180911 -0.000513444)
(-0.0115347 0.017587 -0.000488921)
(-0.0144558 0.0168293 -0.000474511)
(-0.0173121 0.0158705 -0.000472611)
(-0.0201072 0.0146868 -0.000488715)
(-0.0228391 0.0132223 -0.000530635)
(-0.025493 0.0113912 -0.000609109)
(-0.028027 0.0090747 -0.000738649)
(-0.0303503 0.00612038 -0.000937851)
(-0.0322932 0.00235171 -0.00122996)
(-0.0335853 -0.00240494 -0.00164029)
(-0.033792 -0.00826668 -0.00219126)
(-0.0322921 -0.0151354 -0.00284809)
(-0.0283678 -0.0223836 -0.00352592)
(-0.0215638 -0.0282592 -0.00402377)
(-0.0117199 -0.0288571 -0.00399)
(-0.00287828 -0.0173564 -0.00255491)
(-0.000484859 0.0106842 -0.000583973)
(-0.00266602 0.0190521 -0.000664407)
(-0.00593024 0.0213297 -0.000652468)
(-0.00909347 0.0214355 -0.000615031)
(-0.0122558 0.0208727 -0.000585677)
(-0.0153591 0.0200529 -0.00056721)
(-0.0184196 0.0190485 -0.000563547)
(-0.0214651 0.0178424 -0.000581986)
(-0.0245244 0.0163776 -0.000632912)
(-0.0276203 0.0145565 -0.000731243)
(-0.0307544 0.0122311 -0.000898559)
(-0.0338796 0.00919179 -0.00116546)
(-0.0368583 0.00516105 -0.00157276)
(-0.039418 -0.000191601 -0.00216748)
(-0.0410482 -0.00716194 -0.00301265)
(-0.0409027 -0.0158909 -0.00411344)
(-0.0378285 -0.0258305 -0.00536397)
(-0.0306326 -0.0348339 -0.00647092)
(-0.0185861 -0.0374566 -0.00675762)
(-0.00525549 -0.0242896 -0.00468845)
(-0.000514343 0.0124799 -0.000686613)
(-0.00285822 0.02228 -0.000796698)
(-0.00635673 0.0249119 -0.000785625)
(-0.00971038 0.0250168 -0.000740232)
(-0.0130441 0.0243816 -0.000701145)
(-0.0163076 0.0235021 -0.000673254)
(-0.0195393 0.0224784 -0.000662433)
(-0.0227966 0.0213081 -0.000678127)
(-0.0261474 0.0199433 -0.000733754)
(-0.0296669 0.0182869 -0.000849324)
(-0.0334262 0.0161743 -0.00105554)
(-0.0374661 0.0133463 -0.00139939)
(-0.0417473 0.00941789 -0.00194881)
(-0.0460589 0.00386186 -0.00279525)
(-0.0499412 -0.0039308 -0.00406295)
(-0.0524497 -0.0144783 -0.00585463)
(-0.0519539 -0.0276838 -0.00810759)
(-0.0460763 -0.0413662 -0.010437)
(-0.0325807 -0.0487438 -0.011673)
(-0.0108583 -0.0366331 -0.00917595)
(-0.000559978 0.0144491 -0.000820666)
(-0.00311034 0.0258065 -0.000968736)
(-0.00688077 0.0287832 -0.000956055)
(-0.0104286 0.028845 -0.00089626)
(-0.013913 0.028101 -0.000839486)
(-0.0172931 0.0271445 -0.000793474)
(-0.0206326 0.026111 -0.00076654)
(-0.0240211 0.0250232 -0.000770378)
(-0.0275705 0.0238564 -0.000821507)
(-0.0314199 0.0225351 -0.000945378)
(-0.0357348 0.0209067 -0.00118306)
(-0.040694 0.0186966 -0.00160145)
(-0.0464502 0.0154436 -0.00230671)
(-0.0530443 0.0104264 -0.00345262)
(-0.0602696 0.00264357 -0.00522991)
(-0.0674722 -0.00901799 -0.00790788)
(-0.0727943 -0.0254524 -0.0115534)
(-0.0719363 -0.0457558 -0.0155678)
(-0.0590529 -0.0637995 -0.0182549)
(-0.0223004 -0.0614397 -0.0166821)
(-0.000638077 0.0166582 -0.0010015)
(-0.00346615 0.0297107 -0.00119832)
(-0.00756074 0.0329923 -0.0011796)
(-0.0113021 0.0329316 -0.00109484)
(-0.0149013 0.0320068 -0.00100755)
(-0.0183304 0.0309233 -0.000929778)
(-0.0216801 0.02986 -0.000872986)
(-0.0250719 0.0288738 -0.000850811)
(-0.0286593 0.0279804 -0.000882186)
(-0.0326457 0.0271551 -0.000996909)
(-0.0373038 0.0263053 -0.0012449)
(-0.0429956 0.0252144 -0.00171126)
(-0.0501791 0.0234487 -0.00253759)
(-0.0593709 0.0202298 -0.00393386)
(-0.0710626 0.0143013 -0.00614005)
(-0.0854096 0.00364338 -0.00926741)
(-0.100345 -0.0150207 -0.0130648)
(-0.108072 -0.0459146 -0.0160397)
(-0.0963805 -0.0879008 -0.0171639)
(-0.0363063 -0.113998 -0.020642)
(-0.000779433 0.0192027 -0.00125432)
(-0.00400064 0.0340588 -0.00150835)
(-0.00849522 0.0375266 -0.00147169)
(-0.0124269 0.0372082 -0.00134402)
(-0.0160888 0.0360035 -0.0012085)
(-0.0194718 0.034724 -0.00108158)
(-0.0226981 0.0335821 -0.000976968)
(-0.0259157 0.0326724 -0.000908975)
(-0.0293041 0.0320687 -0.000897574)
(-0.0331101 0.0318289 -0.000972951)
(-0.0376941 0.0319794 -0.00118562)
(-0.0435948 0.0324664 -0.00161957)
(-0.0516115 0.0330657 -0.00240147)
(-0.0628846 0.0332002 -0.00364523)
(-0.0789611 0.0315148 -0.00520791)
(-0.100968 0.0242897 -0.00612456)
(-0.125328 0.0023663 -0.00386568)
(-0.138791 -0.0505637 0.00439386)
(-0.126109 -0.135836 0.0109618)
(-0.0400515 -0.20325 -0.00941229)
(-0.00107014 0.0223372 -0.00164036)
(-0.00491021 0.0392819 -0.00198798)
(-0.00987917 0.0428536 -0.0019293)
(-0.0139397 0.0421142 -0.00173073)
(-0.01756 0.0403969 -0.00150392)
(-0.0207778 0.038687 -0.0012825)
(-0.0237371 0.0372659 -0.00108971)
(-0.0265844 0.0362791 -0.000943269)
(-0.0294958 0.0358623 -0.000859183)
(-0.0327196 0.0361775 -0.000860719)
(-0.0366401 0.0374327 -0.000983819)
(-0.0418797 0.0398535 -0.00126875)
(-0.0494518 0.0436211 -0.00170054)
(-0.0608934 0.0484589 -0.00190606)
(-0.0783557 0.0524111 -0.000344276)
(-0.103048 0.047777 0.00680766)
(-0.131289 0.0173905 0.0248707)
(-0.146785 -0.0661645 0.0509489)
(-0.135515 -0.197005 0.0545785)
(-0.0318853 -0.297573 0.00180353)
(-0.00147948 0.0264177 -0.00219121)
(-0.00602681 0.0444997 -0.00254127)
(-0.0117267 0.0474575 -0.00240444)
(-0.0160399 0.0457923 -0.00207739)
(-0.0196588 0.0435262 -0.00174045)
(-0.0225931 0.0415312 -0.00141671)
(-0.025073 0.0399828 -0.00112792)
(-0.0272711 0.0389785 -0.000887766)
(-0.0293346 0.0386779 -0.000707503)
(-0.0314319 0.039336 -0.000595426)
(-0.0338414 0.0413629 -0.000546541)
(-0.0370483 0.0453063 -0.000483865)
(-0.0419761 0.0518037 -7.77402e-05)
(-0.0501016 0.0605984 0.00194378)
(-0.0639788 0.0687825 0.00916807)
(-0.0847743 0.0643466 0.0283056)
(-0.113812 0.0259339 0.0630958)
(-0.131842 -0.0835017 0.0923397)
(-0.126764 -0.251387 0.0675716)
(-0.0208834 -0.377914 -0.00860631)
(-0.00355716 0.030358 -0.00321932)
(-0.0102623 0.0534151 -0.00381681)
(-0.015502 0.056133 -0.00355186)
(-0.0192178 0.053808 -0.00303298)
(-0.0220302 0.050165 -0.00242801)
(-0.0243276 0.0468351 -0.00184049)
(-0.0262158 0.0441367 -0.00131477)
(-0.0277308 0.0422197 -0.000873775)
(-0.0288726 0.0412506 -0.000524092)
(-0.0296282 0.0414878 -0.000255229)
(-0.0300329 0.0434569 -2.71367e-05)
(-0.0301822 0.0478605 0.000392523)
(-0.0306594 0.0557612 0.0016726)
(-0.0321059 0.0666776 0.00591792)
(-0.0374569 0.0780044 0.01792)
(-0.0470416 0.0733362 0.0444646)
(-0.071886 0.0336876 0.083336)
(-0.0851142 -0.0960788 0.0981178)
(-0.0967455 -0.286313 0.0469279)
(-0.00528367 -0.444235 -0.0283957)
(-0.00161672 0.0451596 -0.00514344)
(-0.00878576 0.0572029 -0.00526826)
(-0.018593 0.0567175 -0.00461859)
(-0.0228412 0.0516891 -0.00354403)
(-0.0263165 0.047961 -0.00263099)
(-0.0281347 0.0450249 -0.00177349)
(-0.0290236 0.0427442 -0.00102358)
(-0.0291408 0.0410006 -0.000399309)
(-0.0285507 0.0399379 8.41041e-05)
(-0.0271247 0.0397441 0.000444185)
(-0.0247043 0.0410353 0.000729812)
(-0.0207799 0.0442666 0.00126773)
(-0.0155165 0.0508813 0.00278168)
(-0.0073104 0.0601681 0.00740223)
(-0.00128603 0.071244 0.0194593)
(0.0107359 0.0692115 0.0438666)
(-0.00220511 0.0340368 0.0754067)
(-0.00215871 -0.0895585 0.0782955)
(-0.0466772 -0.287722 0.0280471)
(0.0231916 -0.477395 -0.0464408)
(-0.0122399 0.0363518 -0.00625745)
(-0.0248423 0.0794402 -0.00772753)
(-0.023947 0.0768347 -0.00731524)
(-0.0294799 0.0707208 -0.00593486)
(-0.0303074 0.0627781 -0.00414169)
(-0.0295001 0.0559141 -0.00249374)
(-0.0271675 0.0502287 -0.00111809)
(-0.0237595 0.045609 -6.00035e-05)
(-0.0195155 0.0420907 0.000694666)
(-0.0141852 0.0394381 0.00117477)
(-0.0080969 0.0380787 0.00136239)
(5.55475e-05 0.0380167 0.00148453)
(0.00933223 0.0406084 0.00213064)
(0.0238509 0.045081 0.00462687)
(0.0372469 0.0525469 0.011838)
(0.0646424 0.0538121 0.0278362)
(0.0661361 0.0329381 0.0448851)
(0.100047 -0.0587348 0.0496888)
(0.0329842 -0.262617 0.0166682)
(0.0737527 -0.471601 -0.0602226)
(-0.0760398 0.100509 -0.0189419)
(-0.0614161 0.0617378 -0.0142016)
(-0.0609421 0.0602831 -0.0106106)
(-0.0391311 0.052176 -0.00734087)
(-0.0205419 0.0441379 -0.0049866)
(-0.000100583 0.0381964 -0.0029991)
(0.0187903 0.0339141 -0.0013607)
(0.0373193 0.0302482 -7.65412e-05)
(0.0537062 0.0276138 0.000928148)
(0.0707733 0.0250776 0.00160093)
(0.0846541 0.023713 0.00188713)
(0.101977 0.0223031 0.00172707)
(0.113462 0.0223188 0.00137727)
(0.13661 0.0223689 0.00132188)
(0.144103 0.0211265 0.00177025)
(0.188001 0.0168781 0.0084703)
(0.179903 -0.0112976 0.0133797)
(0.236999 -0.070646 0.0149976)
(0.16168 -0.239511 0.00558567)
(0.151021 -0.420026 -0.0708127)
(0.119274 0.14008 -0.0167315)
(0.15147 0.0856397 -0.0181575)
(0.229147 0.0632751 -0.0179973)
(0.283626 0.0478467 -0.0164921)
(0.324783 0.0369105 -0.0145847)
(0.362474 0.0288303 -0.0128342)
(0.39093 0.0232021 -0.011186)
(0.42146 0.0189043 -0.00967701)
(0.440531 0.0158834 -0.00831712)
(0.468197 0.0134876 -0.00714327)
(0.479415 0.0116685 -0.005937)
(0.50785 0.0105246 -0.00539473)
(0.510877 0.00921543 -0.00421437)
(0.544022 0.00901575 -0.0044228)
(0.535887 0.00721312 -0.00272219)
(0.574516 0.00493893 -0.00376945)
(0.543555 -0.00363111 -0.000156481)
(0.562548 -0.024507 -0.00642438)
(0.431506 -0.0688153 -0.00843937)
(0.303767 -0.146403 -0.0833974)
(-0.000108732 0.000110171 -9.88101e-05)
(-0.000850233 0.000344859 -9.30996e-05)
(-0.00207875 0.000418896 -7.8702e-05)
(-0.00328285 0.000431443 -6.76973e-05)
(-0.00448312 0.000426404 -6.57815e-05)
(-0.00563775 0.000415926 -7.18133e-05)
(-0.00672604 0.000399683 -8.51722e-05)
(-0.0077245 0.000374468 -0.000106163)
(-0.00860202 0.000336652 -0.0001355)
(-0.00932017 0.000282461 -0.00017435)
(-0.00983339 0.000208424 -0.000223439)
(-0.0100904 0.000112112 -0.000282811)
(-0.0100364 -8.34481e-06 -0.000351486)
(-0.00961883 -0.0001518 -0.000425821)
(-0.00879612 -0.000311997 -0.000500508)