/*--------------------------------*- C++ -*----------------------------------*\
  =========                 |
  \\      /  F ield         | OpenFOAM: The Open Source CFD Toolbox
   \\    /   O peration     | Website:  https://openfoam.org
    \\  /    A nd           | Version:  10
     \\/     M anipulation  |
\*---------------------------------------------------------------------------*/
FoamFile
{
    format      ascii;
    class       volVectorField;
    location    "1.3";
    object      U;
}
// * * * * * * * * * * * * * * * * * * * * * * * * * * * * * * * * * * * * * //

dimensions      [0 1 -1 0 0 0 0];

internalField   nonuniform List<vector> 
400
(
(-0.000318829 0.000314317 0)
(-0.00110327 0.000400795 0)
(-0.00199425 0.000390403 0)
(-0.00281495 0.000362981 0)
(-0.00356564 0.00032631 0)
(-0.00422736 0.000281717 0)
(-0.00478384 0.000230281 0)
(-0.00522163 0.000173142 0)
(-0.0055298 0.000111495 0)
(-0.0057001 4.65806e-05 0)
(-0.00572703 -2.02744e-05 0)
(-0.00560795 -8.77457e-05 0)
(-0.00534333 -0.000154265 0)
(-0.00493708 -0.000218171 0)
(-0.00439678 -0.000277654 0)
(-0.00373402 -0.0003308 0)
(-0.00296488 -0.000375646 0)
(-0.00211014 -0.000409912 0)
(-0.00117309 -0.000424555 0)
(-0.000340933 -0.000335852 0)
(-0.000421581 0.00110798 0)
(-0.00143612 0.00138935 0)
(-0.00257254 0.00135188 0)
(-0.00362055 0.00125611 0)
(-0.00457805 0.00112801 0)
(-0.00542075 0.000972485 0)
(-0.0061281 0.000793487 0)
(-0.00668326 0.000595106 0)
(-0.00707277 0.000381548 0)
(-0.00728654 0.000157104 0)
(-0.00731803 -7.38553e-05 0)
(-0.00716417 -0.00030641 0)
(-0.00682567 -0.000535488 0)
(-0.00630756 -0.000755472 0)
(-0.00561939 -0.00096022 0)
(-0.00477571 -0.00114318 0)
(-0.00379677 -0.00129757 0)
(-0.00270888 -0.00141537 0)
(-0.00151838 -0.00146643 0)
(-0.000447663 -0.00117784 0)
(-0.000448346 0.00206831 0)
(-0.00152735 0.00256919 0)
(-0.00273504 0.0024978 0)
(-0.00384731 0.00231966 0)
(-0.00486268 0.00208167 0)
(-0.00575568 0.00179326 0)
(-0.006505 0.00146197 0)
(-0.00709336 0.00109549 0)
(-0.00750702 0.000701592 0)
(-0.00773575 0.000288114 0)
(-0.00777243 -0.000136978 0)
(-0.00761356 -0.000565053 0)
(-0.00725961 -0.000986918 0)
(-0.00671491 -0.00139242 0)
(-0.00598858 -0.00177037 0)
(-0.00509504 -0.00210867 0)
(-0.00405499 -0.00239464 0)
(-0.00289606 -0.00261314 0)
(-0.00162457 -0.0027095 0)
(-0.000479138 -0.00219563 0)
(-0.000478985 0.00306135 0)
(-0.00163242 0.0037921 0)
(-0.0029231 0.00368437 0)
(-0.00411011 0.00341989 0)
(-0.00519245 0.00306749 0)
(-0.00614346 0.00264144 0)
(-0.00694126 0.00215312 0)
(-0.0075684 0.00161396 0)
(-0.00801108 0.00103523 0)
(-0.00825892 0.00042816 0)
(-0.00830453 -0.000195882 0)
(-0.00814368 -0.000825131 0)
(-0.00777567 -0.00144639 0)
(-0.00720369 -0.0020451 0)
(-0.00643562 -0.00260493 0)
(-0.00548503 -0.00310788 0)
(-0.00437257 -0.00353468 0)
(-0.00312726 -0.00386211 0)
(-0.00175594 -0.004009 0)
(-0.000518055 -0.00325843 0)
(-0.000521827 0.00413153 0)
(-0.00177853 0.00511043 0)
(-0.0031837 0.00496195 0)
(-0.00447343 0.00460277 0)
(-0.00564722 0.00412591 0)
(-0.0066769 0.0035513 0)
(-0.0075401 0.00289477 0)
(-0.00821944 0.00217174 0)
(-0.00870134 0.00139706 0)
(-0.00897551 0.000585062 0)
(-0.00903428 -0.000250024 0)
(-0.00887232 -0.00109344 0)
(-0.00848734 -0.00192857 0)
(-0.00788054 -0.00273667 0)
(-0.00705762 -0.00349608 0)
(-0.00603037 -0.00418222 0)
(-0.00481886 -0.00476798 0)
(-0.0034536 -0.00522008 0)
(-0.00194235 -0.00542689 0)
(-0.00057361 -0.00441961 0)
(-0.000578865 0.00530855 0)
(-0.00197245 0.00655976 0)
(-0.00352846 0.00636388 0)
(-0.00495242 0.0058978 0)
(-0.00624453 0.00528206 0)
(-0.00737498 0.00454359 0)
(-0.00832124 0.0037035 0)
(-0.00906656 0.00278167 0)
(-0.00959822 0.00179649 0)
(-0.00990646 0.000765016 0)
(-0.00998348 -0.000296299 0)
(-0.00982265 -0.00137063 0)
(-0.00941929 -0.00243865 0)
(-0.00877157 -0.00347788 0)
(-0.00788152 -0.00446131 0)
(-0.00675761 -0.00535694 0)
(-0.00541801 -0.006128 0)
(-0.00389444 -0.00672824 0)
(-0.00219561 -0.00700948 0)
(-0.000649459 -0.00571914 0)
(-0.000652422 0.00662437 0)
(-0.0022218 0.00817845 0)
(-0.00396998 0.00792523 0)
(-0.00556285 0.00733508 0)
(-0.00700181 0.0065607 0)
(-0.0082555 0.005638 0)
(-0.00930206 0.00459466 0)
(-0.0101265 0.00345558 0)
(-0.010718 0.00224257 0)
(-0.0110683 0.00097479 0)
(-0.0111699 -0.000330192 0)
(-0.0110147 -0.00165489 0)
(-0.0105946 -0.00297863 0)
(-0.00990322 -0.00427614 0)
(-0.00893673 -0.0055154 0)
(-0.00769763 -0.00665615 0)
(-0.00619974 -0.00764961 0)
(-0.00447463 -0.00843216 0)
(-0.00253155 -0.00881011 0)
(-0.000750673 -0.00720366 0)
(-0.000745927 0.0081171 0)
(-0.00253749 0.0100116 0)
(-0.0045259 0.00968611 0)
(-0.00632628 0.00894771 0)
(-0.00794207 0.00798776 0)
(-0.00934106 0.00685412 0)
(-0.0105037 0.00558283 0)
(-0.0114187 0.00420449 0)
(-0.012079 0.00274413 0)
(-0.0124792 0.00122187 0)
(-0.0126132 -0.000345261 0)
(-0.0124711 -0.0019413 0)
(-0.0120405 -0.00354649 0)
(-0.0113083 -0.00513474 0)
(-0.0102616 -0.00667 0)
(-0.00889254 -0.0081033 0)
(-0.00720617 -0.00937097 0)
(-0.00523067 -0.0103858 0)
(-0.00297419 -0.010895 0)
(-0.000885206 -0.00893276 0)
(-0.000864582 0.00983327 0)
(-0.00293563 0.0121133 0)
(-0.00522143 0.0116927 0)
(-0.00727246 0.0107716 0)
(-0.00909595 0.00958931 0)
(-0.0106605 0.0082099 0)
(-0.0119517 0.00668016 0)
(-0.0129652 0.00503725 0)
(-0.0137007 0.00330876 0)
(-0.0141577 0.00151415 0)
(-0.0143331 -0.000332619 0)
(-0.0142159 -0.00222032 0)
(-0.0137881 -0.00413375 0)
(-0.0130267 -0.00604956 0)
(-0.0119053 -0.00793012 0)
(-0.0103995 -0.00971822 0)
(-0.00849746 -0.0113323 0)
(-0.00621701 -0.0126531 0)
(-0.0035611 -0.0133485 0)
(-0.00106602 -0.0109856 0)
(-0.00101657 0.0118321 0)
(-0.00344048 0.0145498 0)
(-0.00609308 0.0139987 0)
(-0.00844298 0.0128453 0)
(-0.0105044 0.0113901 0)
(-0.0122503 0.0097195 0)
(-0.0136764 0.00789411 0)
(-0.0147901 0.00595838 0)
(-0.0156022 0.00394137 0)
(-0.0161207 0.00185929 0)
(-0.0163477 -0.000280554 0)
(-0.0162723 -0.00247622 0)
(-0.0158698 -0.00472238 0)
(-0.0151047 -0.00700443 0)
(-0.0139303 -0.00928857 0)
(-0.0122959 -0.011512 0)
(-0.0101602 -0.0135732 0)
(-0.00751635 -0.0153106 0)
(-0.00435297 -0.0162805 0)
(-0.0013153 -0.0134727 0)
(-0.00121541 0.0141923 0)
(-0.00408983 0.0174052 0)
(-0.00719483 0.0166678 0)
(-0.0098967 0.0152093 0)
(-0.0122226 0.0134109 0)
(-0.0141566 0.0113896 0)
(-0.0157129 0.00922351 0)
(-0.0169181 0.00696468 0)
(-0.0177999 0.00464163 0)
(-0.0183797 0.00226341 0)
(-0.0186687 -0.000174347 0)
(-0.0186578 -0.00268512 0)
(-0.0183163 -0.00528093 0)
(-0.0175929 -0.00796482 0)
(-0.0164129 -0.0107169 0)
(-0.0146856 -0.0134771 0)
(-0.01232 -0.0161257 0)
(-0.00925704 -0.0184476 0)
(-0.00545211 -0.0198384 0)
(-0.00167351 -0.0165582 0)
(-0.00148466 0.0170246 0)
(-0.00494472 0.0207889 0)
(-0.00860813 0.0197754 0)
(-0.0117181 0.017903 0)
(-0.014325 0.0156632 0)
(-0.0164379 0.0132132 0)
(-0.0181015 0.0106526 0)
(-0.0193721 0.00804034 0)
(-0.0203036 0.00540036 0)
(-0.0209367 0.00272876 0)
(-0.0212963 1.90229e-06 0)
(-0.0213789 -0.00281341 0)
(-0.0211496 -0.00575965 0)
(-0.0205407 -0.00886948 0)
(-0.0194427 -0.0121525 0)
(-0.0177065 -0.0155702 0)
(-0.0151608 -0.0189982 0)
(-0.0116424 -0.0221636 0)
(-0.00703932 -0.0242213 0)
(-0.00221946 -0.0205001 0)
(-0.00186796 0.0204947 0)
(-0.00610768 0.0248468 0)
(-0.0104581 0.0234103 0)
(-0.01403 0.0209592 0)
(-0.0169135 0.0181398 0)
(-0.0191675 0.01516 0)
(-0.020886 0.0121434 0)
(-0.0221704 0.00915095 0)
(-0.0231116 0.00619501 0)
(-0.0237783 0.00325143 0)
(-0.0242109 0.000269307 0)
(-0.0244195 -0.00281528 0)
(-0.0243725 -0.00608493 0)
(-0.0239858 -0.0096189 0)
(-0.0231138 -0.0134802 0)
(-0.0215337 -0.0176842 0)
(-0.0189521 -0.0221411 0)
(-0.0150008 -0.0265533 0)
(-0.0094491 -0.0296936 0)
(-0.00311612 -0.0257336 0)
(-0.00245168 0.024832 0)
(-0.00776 0.0297608 0)
(-0.0129408 0.0276701 0)
(-0.0170129 0.0243903 0)
(-0.0201255 0.0207999 0)
(-0.0224347 0.0171641 0)
(-0.0241108 0.0136256 0)
(-0.0253207 0.0102356 0)
(-0.0262032 0.00698339 0)
(-0.0268626 0.00381495 0)
(-0.0273631 0.000644929 0)
(-0.0277333 -0.00263529 0)
(-0.0279533 -0.00615588 0)
(-0.0279361 -0.0100626 0)
(-0.027508 -0.014505 0)
(-0.0263704 -0.0196054 0)
(-0.02408 -0.0253824 0)
(-0.0198682 -0.0316448 0)
(-0.0133289 -0.0365379 0)
(-0.0047246 -0.033104 0)
(-0.00338768 0.0307377 0)
(-0.010195 0.035876 0)
(-0.0163512 0.0326807 0)
(-0.0209285 0.028166 0)
(-0.0241414 0.0235456 0)
(-0.0263423 0.0191036 0)
(-0.0278146 0.0149812 0)
(-0.0288125 0.0111962 0)
(-0.0295321 0.00769579 0)
(-0.0301165 0.00438376 0)
(-0.0306608 0.00113277 0)
(-0.0312199 -0.002214 0)
(-0.0317993 -0.00584594 0)
(-0.0323343 -0.00998993 0)
(-0.0326556 -0.0149166 0)
(-0.0324139 -0.0209319 0)
(-0.0310534 -0.0282787 0)
(-0.027065 -0.0372041 0)
(-0.020045 -0.0448495 0)
(-0.00798317 -0.0441818 0)
(-0.00528614 0.0368997 0)
(-0.0143537 0.0428394 0)
(-0.0212598 0.0383119 0)
(-0.0261807 0.0321249 0)
(-0.0291878 0.0261719 0)
(-0.0309964 0.0207673 0)
(-0.0320133 0.0160238 0)
(-0.0325991 0.0118846 0)
(-0.0330068 0.00822792 0)
(-0.033415 0.00489938 0)
(-0.0339486 0.00172324 0)
(-0.0346977 -0.00149873 0)
(-0.0357126 -0.00501662 0)
(-0.0369869 -0.0091298 0)
(-0.0384249 -0.0142473 0)
(-0.0397043 -0.0209884 0)
(-0.0403734 -0.0299247 0)
(-0.0376661 -0.0427379 0)
(-0.0321517 -0.054497 0)
(-0.0148861 -0.0622211 0)
(-0.00698057 0.0536192 0)
(-0.0190036 0.0528579 0)
(-0.027745 0.0452497 0)
(-0.0330964 0.0360714 0)
(-0.035444 0.0282955 0)
(-0.0363957 0.0217891 0)
(-0.0365668 0.0164553 0)
(-0.036447 0.0120765 0)
(-0.0363287 0.00841871 0)
(-0.0364076 0.00525195 0)
(-0.0368209 0.00234645 0)
(-0.0376955 -0.000538427 0)
(-0.0391346 -0.00365525 0)
(-0.0412249 -0.00741469 0)
(-0.0441019 -0.0124021 0)
(-0.0475575 -0.0198152 0)
(-0.0520604 -0.0304654 0)
(-0.0522199 -0.0487331 0)
(-0.052598 -0.0672526 0)
(-0.0268352 -0.0935397 0)
(-0.0177565 0.0559163 0)
(-0.0370609 0.0646663 0)
(-0.0383964 0.0526904 0)
(-0.0423884 0.0404833 0)
(-0.0419552 0.0302992 0)
(-0.0407299 0.0222914 0)
(-0.0391495 0.0162687 0)
(-0.0376933 0.0117306 0)
(-0.0365972 0.00822751 0)
(-0.0360079 0.00542537 0)
(-0.0360367 0.00304562 0)
(-0.0367722 0.000863785 0)
(-0.0384081 -0.00130099 0)
(-0.0412108 -0.00385371 0)
(-0.0457798 -0.00664296 0)
(-0.0516972 -0.0124698 0)
(-0.0612237 -0.0186615 0)
(-0.0636499 -0.0427123 0)
(-0.0731406 -0.0646471 0)
(-0.0287302 -0.140688 0)
(-0.0528652 0.124381 0)
(-0.0485375 0.0630962 0)
(-0.0423091 0.0494946 0)
(-0.0333041 0.0345277 0)
(-0.0234831 0.0236575 0)
(-0.0154766 0.0167417 0)
(-0.00902299 0.0120428 0)
(-0.00415291 0.00865803 0)
(-0.000641642 0.00616307 0)
(0.00171626 0.00427386 0)
(0.00306295 0.00278435 0)
(0.00352578 0.00152855 0)
(0.00296403 0.000347631 0)
(0.0020891 -0.00116685 0)
(-0.00119503 -0.00334598 0)
(-0.00130053 -0.00913005 0)
(-0.0125879 -0.0201471 0)
(-0.00100204 -0.0534686 0)
(-0.0365167 -0.110676 0)
(0.0190925 -0.225218 0)
(0.131993 0.128535 0)
(0.154289 0.0663693 0)
(0.226791 0.041629 0)
(0.261703 0.0265662 0)
(0.283298 0.0163086 0)
(0.298684 0.0101718 0)
(0.309451 0.00667547 0)
(0.316929 0.004566 0)
(0.322238 0.00320683 0)
(0.326017 0.00228272 0)
(0.328606 0.00163435 0)
(0.330341 0.00114057 0)
(0.330906 0.00076537 0)
(0.331602 0.000349548 0)
(0.32773 -0.000461201 0)
(0.330264 -0.00165238 0)
(0.305994 -0.00670954 0)
(0.315158 -0.0156776 0)
(0.206532 -0.0432188 0)
(0.192315 -0.115248 0)
)
;

boundaryField
{
    movingWall
    {
        type            fixedValue;
        value           uniform (1 0 0);
    }
    fixedWalls
    {
        type            noSlip;
    }
    frontAndBack
    {
        type            empty;
    }
}


// ************************************************************************* //
