/*--------------------------------*- C++ -*----------------------------------*\
  =========                 |
  \\      /  F ield         | OpenFOAM: The Open Source CFD Toolbox
   \\    /   O peration     | Website:  https://openfoam.org
    \\  /    A nd           | Version:  10
     \\/     M anipulation  |
\*---------------------------------------------------------------------------*/
FoamFile
{
    format      ascii;
    class       volScalarField;
    location    "5.1";
    object      p;
}
// * * * * * * * * * * * * * * * * * * * * * * * * * * * * * * * * * * * * * //

dimensions      [0 2 -2 0 0 0 0];

internalField   nonuniform List<scalar> 
400
(
-9.6632e-10
-2.36409e-05
9.44083e-06
7.62974e-05
0.000183123
0.000330856
0.000520684
0.000753732
0.00103034
0.00134937
0.00170749
0.00209834
0.00251155
0.00293276
0.00334278
0.00371836
0.00403332
0.00426158
0.00439696
0.00438501
2.44219e-05
-1.76189e-08
3.60349e-05
0.000101989
0.000205601
0.000348506
0.000532359
0.000758677
0.00102817
0.00134015
0.00169182
0.00207716
0.00248633
0.00290592
0.00331674
0.00369534
0.00401477
0.00424847
0.00439156
0.00437789
-1.31652e-05
-4.35426e-05
-9.10681e-06
5.38057e-05
0.000153764
0.000292668
0.000472659
0.000695955
0.000964115
0.00127742
0.00163406
0.00202945
0.00245528
0.00289718
0.00333548
0.0037447
0.00409415
0.00435177
0.00451076
0.00449006
-9.25916e-05
-0.000127482
-9.5506e-05
-3.68521e-05
5.7982e-05
0.000191319
0.000366068
0.00058552
0.000852572
0.00116911
0.00153515
0.00194784
0.00240008
0.00287933
0.0033647
0.00382725
0.00422966
0.00453048
0.00471877
0.00469419
-0.000219513
-0.000258923
-0.000230467
-0.000177429
-8.92865e-05
3.683e-05
0.000204814
0.000419354
0.000685171
0.0010064
0.00138567
0.0018228
0.00231364
0.00284694
0.00340141
0.00394424
0.00442942
0.00479987
0.00503608
0.00501005
-0.000393572
-0.000438203
-0.000414451
-0.000368797
-0.000289645
-0.000173519
-1.53844e-05
0.00019111
0.000452949
0.000777235
0.00117024
0.00163595
0.00217426
0.00277829
0.00342719
0.0040842
0.00469202
0.0051709
0.00548356
0.00546102
-0.000613927
-0.000664832
-0.000647173
-0.000611243
-0.000544351
-0.000442452
-0.000299324
-0.000106784
0.000144782
0.00046614
0.000868461
0.00136166
0.00195174
0.00264028
0.00341017
0.00422281
0.00500794
0.00565519
0.00609092
0.00608644
-0.000879771
-0.000938248
-0.000928283
-0.000904969
-0.000854583
-0.000772702
-0.000652058
-0.000482679
-0.000252171
5.43899e-05
0.000454142
0.000964757
0.00160012
0.00238179
0.00329666
0.00431249
0.00534867
0.00625769
0.00689733
0.00695302
-0.00119008
-0.00125756
-0.00125691
-0.00124943
-0.00122056
-0.0011659
-0.00107756
-0.000944166
-0.000750824
-0.000478401
-0.000102954
0.000404471
0.00107721
0.00192892
0.00299654
0.00426077
0.00564191
0.00695662
0.00794886
0.0081785
-0.00154359
-0.00162148
-0.0016314
-0.00164282
-0.00164072
-0.0016214
-0.00157712
-0.00149601
-0.00136167
-0.00115184
-0.00083683
-0.000378054
0.000271143
0.00115759
0.00236145
0.00389182
0.0057164
0.0076526
0.00928062
0.0099795
-0.00193904
-0.00202859
-0.00204922
-0.00208165
-0.00211095
-0.002135
-0.00214739
-0.00213721
-0.00208856
-0.00197851
-0.00177438
-0.00143009
-0.000881153
-3.98379e-05
0.00115547
0.00286867
0.00516562
0.0079997
0.0107905
0.0125126
-0.00237602
-0.00247786
-0.00250707
-0.00256044
-0.00262378
-0.00269769
-0.00277843
-0.00285794
-0.00292358
-0.00295617
-0.00292694
-0.00279253
-0.00248663
-0.00190892
-0.000929959
0.000581602
0.00305955
0.0068708
0.0115102
0.01523
-0.00285666
-0.00297039
-0.0030021
-0.00307247
-0.00316833
-0.00329454
-0.0034518
-0.00363672
-0.00384326
-0.00406174
-0.00427671
-0.004464
-0.00458617
-0.00458977
-0.0044128
-0.00393609
-0.00269543
0.000910173
0.00718394
0.0143611
-0.00338483
-0.00350177
-0.00351931
-0.00359587
-0.00371972
-0.00389858
-0.00413597
-0.00443496
-0.00479922
-0.00523378
-0.00574686
-0.00635372
-0.00708729
-0.00803178
-0.00942346
-0.0115872
-0.0142925
-0.0132333
-0.00664226
0.00518451
-0.00399443
-0.00412706
-0.00411759
-0.00419229
-0.00432254
-0.00452913
-0.00482492
-0.00522258
-0.00573793
-0.00639465
-0.00723312
-0.00832377
-0.00981407
-0.0119809
-0.0155114
-0.0213393
-0.030304
-0.033534
-0.0277731
-0.0102945
-0.00476432
-0.0046972
-0.00458452
-0.00457948
-0.004703
-0.00495664
-0.00533845
-0.00585343
-0.00652034
-0.00737422
-0.00848297
-0.00997098
-0.0121064
-0.0152863
-0.0207162
-0.0290186
-0.0430157
-0.0497296
-0.0460491
-0.0215719
-0.00524891
-0.00568358
-0.00543551
-0.00549344
-0.00554769
-0.00573193
-0.00606169
-0.00656138
-0.00725807
-0.00818659
-0.00942315
-0.0110835
-0.0135294
-0.0170771
-0.0234958
-0.0316701
-0.0466512
-0.0527728
-0.0496832
-0.0133599
-0.00858379
-0.00606887
-0.00551134
-0.00503007
-0.00505514
-0.00534616
-0.00584563
-0.00650898
-0.00735157
-0.00838559
-0.00970462
-0.0113564
-0.0137601
-0.0170989
-0.0226952
-0.0300597
-0.0407209
-0.0433932
-0.0322809
0.0200277
-0.00536786
-0.00832033
-0.00735629
-0.0074695
-0.00715316
-0.00706246
-0.00717262
-0.00751534
-0.00812801
-0.00896352
-0.010116
-0.0115749
-0.0137709
-0.0167452
-0.0217923
-0.0275941
-0.034941
-0.0274279
0.00014674
0.0838921
-0.0303632
-0.0053817
-0.00405561
-0.00340488
-0.00331435
-0.00367631
-0.00438932
-0.00520628
-0.00624241
-0.00738913
-0.0088593
-0.0106238
-0.0130301
-0.015846
-0.0193013
-0.0204059
-0.0162386
0.0134688
0.083895
0.222209
)
;

boundaryField
{
    movingWall
    {
        type            zeroGradient;
    }
    fixedWalls
    {
        type            zeroGradient;
    }
    frontAndBack
    {
        type            empty;
    }
}


// ************************************************************************* //
