/*--------------------------------*- C++ -*----------------------------------*\
  =========                 |
  \\      /  F ield         | OpenFOAM: The Open Source CFD Toolbox
   \\    /   O peration     | Website:  https://openfoam.org
    \\  /    A nd           | Version:  10
     \\/     M anipulation  |
\*---------------------------------------------------------------------------*/
FoamFile
{
    format      ascii;
    class       surfaceScalarField;
    location    "5.225";
    object      phi;
}
// * * * * * * * * * * * * * * * * * * * * * * * * * * * * * * * * * * * * * //

dimensions      [0 3 -1 0 0 0 0];

internalField   nonuniform List<scalar> 
22800
(
-2.17297e-06
2.5743e-06
-3.97443e-07
-7.23818e-06
5.0378e-06
2.74091e-08
-1.31751e-05
5.72001e-06
2.16875e-07
-1.93182e-05
5.83349e-06
3.09694e-07
-2.54083e-05
5.77721e-06
3.1283e-07
-3.13106e-05
5.64456e-06
2.57729e-07
-3.68974e-05
5.42773e-06
1.59109e-07
-4.20041e-05
5.0936e-06
1.31101e-08
-4.64451e-05
4.59979e-06
-1.58809e-07
-4.99732e-05
3.91091e-06
-3.82761e-07
-5.23068e-05
2.99214e-06
-6.58572e-07
-5.3135e-05
1.81883e-06
-9.90629e-07
-5.2149e-05
3.88035e-07
-1.37404e-06
-4.90659e-05
-1.30782e-06
-1.77532e-06
-4.37229e-05
-3.16452e-06
-2.17849e-06
-3.61252e-05
-5.06043e-06
-2.53723e-06
-2.65747e-05
-6.7765e-06
-2.77399e-06
-1.58615e-05
-7.93466e-06
-2.77856e-06
-5.58981e-06
-7.79948e-06
-2.47221e-06
-4.37408e-06
-1.21573e-06
-4.55293e-06
8.39446e-06
-1.26723e-06
-1.32681e-05
1.4673e-05
-9.19982e-07
-2.31808e-05
1.63628e-05
-7.30125e-07
-3.33042e-05
1.65316e-05
-5.7466e-07
-4.32171e-05
1.61893e-05
-4.99187e-07
-5.26748e-05
1.55771e-05
-4.74759e-07
-6.14547e-05
1.46955e-05
-4.8797e-07
-6.93041e-05
1.34835e-05
-5.40447e-07
-7.59279e-05
1.18627e-05
-6.39125e-07
-8.09791e-05
9.75245e-06
-7.90368e-07
-8.40575e-05
7.07027e-06
-9.99713e-07
-8.47534e-05
3.78545e-06
-1.27067e-06
-8.26829e-05
-7.00029e-08
-1.61253e-06
-7.74317e-05
-4.57304e-06
-1.98598e-06
-6.88033e-05
-9.41886e-06
-2.37407e-06
-5.68401e-05
-1.43033e-05
-2.7203e-06
-4.20005e-05
-1.86901e-05
-2.92603e-06
-2.54335e-05
-2.16411e-05
-2.86053e-06
-9.45385e-06
-2.13376e-05
-2.44156e-06
-1.29046e-05
-9.23318e-07
-5.33686e-06
1.54321e-05
-1.70075e-06
-1.53404e-05
2.6094e-05
-1.41757e-06
-2.66251e-05
2.88731e-05
-1.22549e-06
-3.80947e-05
2.90387e-05
-1.03755e-06
-4.92955e-05
2.83115e-05
-9.21508e-07
-5.99661e-05
2.71e-05
-8.52299e-07
-6.98703e-05
2.54173e-05
-8.17661e-07
-7.87404e-05
2.31775e-05
-8.23858e-07
-8.62612e-05
2.02639e-05
-8.80338e-07
-9.20612e-05
1.65493e-05
-9.96822e-07
-9.57225e-05
1.19142e-05
-1.18265e-06
-9.67691e-05
6.27703e-06
-1.445e-06
-9.46801e-05
-3.74631e-07
-1.78437e-06
-8.902e-05
-8.0467e-06
-2.18638e-06
-7.94691e-05
-1.63501e-05
-2.61972e-06
-6.59881e-05
-2.47636e-05
-3.0207e-06
-4.90187e-05
-3.23911e-05
-3.26841e-06
-2.98387e-05
-3.76186e-05
-3.20248e-06
-1.11528e-05
-3.72973e-05
-2.72621e-06
-2.30811e-05
-9.76239e-07
-5.57739e-06
2.3051e-05
-2.04158e-06
-1.61187e-05
3.84588e-05
-1.82342e-06
-2.80003e-05
4.23905e-05
-1.63577e-06
-4.00864e-05
4.25534e-05
-1.42862e-06
-5.19271e-05
4.14405e-05
-1.28819e-06
-6.32753e-05
3.96403e-05
-1.1921e-06
-7.39092e-05
3.71817e-05
-1.13045e-06
-8.3574e-05
3.39518e-05
-1.10958e-06
-9.19584e-05
2.9791e-05
-1.14282e-06
-9.86785e-05
2.45165e-05
-1.24711e-06
-0.000103272
1.79427e-05
-1.43521e-06
-0.000105196
9.92138e-06
-1.72038e-06
-0.000103884
4.39003e-07
-2.12498e-06
-9.8633e-05
-1.06986e-05
-2.59955e-06
-8.89532e-05
-2.28959e-05
-3.13388e-06
-7.45998e-05
-3.54694e-05
-3.64754e-06
-5.59071e-05
-4.70933e-05
-3.99051e-06
-3.42702e-05
-5.52969e-05
-3.95865e-06
-1.28527e-05
-5.52927e-05
-3.42209e-06
-3.46039e-05
-1.32993e-06
-5.69822e-06
3.10875e-05
-2.3382e-06
-1.66447e-05
5.15822e-05
-2.17689e-06
-2.9015e-05
5.67562e-05
-1.99549e-06
-4.16397e-05
5.6955e-05
-1.77686e-06
-5.40808e-05
5.55058e-05
-1.62428e-06
-6.61185e-05
5.31952e-05
-1.51722e-06
-7.75621e-05
5.00732e-05
-1.44802e-06
-8.81847e-05
4.60012e-05
-1.42671e-06
-9.76943e-05
4.07697e-05
-1.46917e-06
-0.000105706
3.4124e-05
-1.59615e-06
-0.000111719
2.57861e-05
-1.82952e-06
-0.000115107
1.54971e-05
-2.18866e-06
-0.000115091
3.10966e-06
-2.68597e-06
-0.000110833
-1.1623e-05
-3.33406e-06
-0.000101442
-2.82186e-05
-4.06783e-06
-8.63315e-05
-4.57789e-05
-4.80138e-06
-6.55772e-05
-6.25069e-05
-5.34068e-06
-4.06393e-05
-7.48333e-05
-5.40151e-06
-1.53744e-05
-7.57758e-05
-4.78185e-06
-4.78642e-05
-2.11411e-06
-5.82306e-06
3.95586e-05
-2.64813e-06
-1.72197e-05
6.5522e-05
-2.54317e-06
-3.01447e-05
7.20511e-05
-2.36996e-06
-4.33855e-05
7.23397e-05
-2.14396e-06
-5.65194e-05
7.06255e-05
-1.98572e-06
-6.93654e-05
6.7918e-05
-1.87678e-06
-8.17788e-05
6.42989e-05
-1.81224e-06
-9.35799e-05
5.96084e-05
-1.80607e-06
-0.000104516
5.35854e-05
-1.8795e-06
-0.000114223
4.58895e-05
-2.05906e-06
-0.000122177
3.61156e-05
-2.37544e-06
-0.000127656
2.38366e-05
-2.86018e-06
-0.000129702
8.6936e-06
-3.53768e-06
-0.000127161
-9.70404e-06
-4.46051e-06
-0.000118632
-3.12193e-05
-5.52816e-06
-0.000102951
-5.48097e-05
-6.64977e-06
-7.96873e-05
-7.82099e-05
-7.56091e-06
-5.02063e-05
-9.64733e-05
-7.841e-06
-1.93319e-05
-9.9517e-05
-7.13317e-06
-6.36536e-05
-3.54242e-06
-5.97373e-06
4.85462e-05
-3.01387e-06
-1.7901e-05
8.04242e-05
-2.97502e-06
-3.14696e-05
8.84317e-05
-2.81193e-06
-4.54106e-05
8.88585e-05
-2.57777e-06
-5.93213e-05
8.69493e-05
-2.41319e-06
-7.30719e-05
8.39716e-05
-2.30294e-06
-8.6583e-05
8.00562e-05
-2.24622e-06
-9.97474e-05
7.5035e-05
-2.26226e-06
-0.000112385
6.86025e-05
-2.37935e-06
-0.00012419
6.03285e-05
-2.63417e-06
-0.000134659
4.96567e-05
-3.07197e-06
-0.000143004
3.59249e-05
-3.74312e-06
-0.000148071
1.84487e-05
-4.6884e-06
-0.000148355
-3.37741e-06
-6.04283e-06
-0.000141736
-3.01722e-05
-7.666e-06
-0.00012614
-6.09365e-05
-9.46908e-06
-0.00010017
-9.30919e-05
-1.10882e-05
-6.46871e-05
-0.000120077
-1.18788e-05
-2.57104e-05
-0.000127359
-1.11348e-05
-8.32414e-05
-6.12251e-06
-6.15113e-06
5.81629e-05
-3.46549e-06
-1.86928e-05
9.64765e-05
-3.5106e-06
-3.29808e-05
0.000106078
-3.35818e-06
-4.76738e-05
0.000106661
-3.10953e-06
-6.23941e-05
0.0001046
-2.93065e-06
-7.7078e-05
0.000101467
-2.81148e-06
-9.17339e-05
9.74693e-05
-2.75721e-06
-0.00010636
9.24552e-05
-2.79441e-06
-0.000120893
8.60971e-05
-2.96111e-06
-0.000135148
7.78918e-05
-3.30883e-06
-0.000148716
6.71309e-05
-3.90604e-06
-0.000160836
5.28827e-05
-4.83817e-06
-0.000170196
3.40242e-05
-6.21527e-06
-0.000174875
9.44749e-06
-8.14617e-06
-0.000172014
-2.23316e-05
-1.07006e-05
-0.000158061
-6.11983e-05
-1.36917e-05
-0.000129912
-0.00010458
-1.6661e-05
-8.70347e-05
-0.000144339
-1.86158e-05
-3.6506e-05
-0.000159783
-1.8105e-05
-0.000108702
-1.1045e-05
-6.3659e-06
6.85632e-05
-4.03444e-06
-1.9614e-05
0.000113914
-4.1895e-06
-3.46795e-05
0.000125189
-4.04572e-06
-5.0131e-05
0.000125881
-3.76876e-06
-6.56219e-05
0.000123649
-3.5582e-06
-8.11704e-05
0.000120427
-3.412e-06
-9.68967e-05
0.00011654
-3.34402e-06
-0.00011294
0.000111889
-3.39052e-06
-0.00012941
0.00010617
-3.60256e-06
-0.000146323
9.8857e-05
-4.05218e-06
-0.000163485
8.91338e-05
-4.84147e-06
-0.000180308
7.58162e-05
-6.11032e-06
-0.000195528
5.72852e-05
-8.04134e-06
-0.000206757
3.15298e-05
-1.08532e-05
-0.000210658
-3.5268e-06
-1.49035e-05
-0.000201482
-5.04586e-05
-1.99156e-05
-0.000173358
-0.000107266
-2.54376e-05
-0.000122625
-0.000165082
-2.99894e-05
-5.60168e-05
-0.000195667
-3.07242e-05
-0.000143331
-2.13885e-05
-6.65665e-06
7.99836e-05
-4.76373e-06
-2.07344e-05
0.000133056
-5.06371e-06
-3.66259e-05
0.000146002
-4.92168e-06
-5.27919e-05
0.000146638
-4.59116e-06
-6.8926e-05
0.000144101
-4.31764e-06
-8.51452e-05
0.000140758
-4.11119e-06
-0.000101703
0.000137095
-3.99772e-06
-0.00011891
0.000133122
-4.02566e-06
-0.000137106
0.000128628
-4.26226e-06
-0.000156601
0.000123158
-4.8061e-06
-0.00017757
0.000115909
-5.80628e-06
-0.000199837
0.00010557
-7.48684e-06
-0.000222508
9.01183e-05
-1.01622e-05
-0.000243372
6.6625e-05
-1.42313e-05
-0.000257994
3.13627e-05
-2.02673e-05
-0.000259466
-2.02499e-05
-2.87364e-05
-0.000237144
-9.06253e-05
-3.89633e-05
-0.000181334
-0.000171793
-4.90995e-05
-9.36431e-05
-0.000229153
-5.42048e-05
-0.000193036
-4.39374e-05
-7.11553e-06
9.28194e-05
-5.72029e-06
-2.22196e-05
0.00015437
-6.2099e-06
-3.89911e-05
0.000168828
-6.05371e-06
-5.57736e-05
0.000169047
-5.62598e-06
-7.23209e-05
0.000165885
-5.23694e-06
-8.88677e-05
0.000162219
-4.91443e-06
-0.000105813
0.000158741
-4.70069e-06
-0.000123654
0.000155621
-4.65816e-06
-0.000142988
0.000152835
-4.87209e-06
-0.000164502
0.000150144
-5.47108e-06
-0.000188908
0.000146974
-6.65994e-06
-0.000216753
0.000142183
-8.76801e-06
-0.000248029
0.000133702
-1.23067e-05
-0.000281406
0.000118002
-1.80008e-05
-0.000312897
8.96246e-05
-2.67707e-05
-0.000334273
4.12628e-05
-4.01363e-05
-0.000330344
-3.63542e-05
-5.82004e-05
-0.000280083
-0.000143373
-7.86808e-05
-0.000168382
-0.000245921
-9.49327e-05
-0.000269144
-9.22742e-05
-7.93542e-06
0.000107771
-7.01653e-06
-2.44009e-05
0.000178587
-7.75207e-06
-4.21292e-05
0.000194104
-7.54862e-06
-5.93717e-05
0.000193238
-6.94839e-06
-7.59842e-05
0.000188854
-6.35611e-06
-9.23492e-05
0.000184412
-5.82755e-06
-0.000109013
0.000180831
-5.42668e-06
-0.000126638
0.000178475
-5.22919e-06
-0.000146056
0.00017759
-5.33666e-06
-0.000168339
0.000178333
-5.90579e-06
-0.000194847
0.000180681
-7.19835e-06
-0.000227188
0.000184185
-9.6611e-06
-0.000266939
0.000187492
-1.40401e-05
-0.000314863
0.0001874
-2.14731e-05
-0.000369515
0.000177699
-3.34226e-05
-0.000423952
0.000146995
-5.1295e-05
-0.000459771
7.69536e-05
-7.74888e-05
-0.00043866
-5.54166e-05
-0.000109068
-0.000303958
-0.000241434
-0.000139188
-0.000411566
-0.000161537
-9.5061e-06
0.000126124
-8.8465e-06
-2.78993e-05
0.000206843
-9.86293e-06
-4.66921e-05
0.000222425
-9.52814e-06
-6.41521e-05
0.000219321
-8.62273e-06
-8.03366e-05
0.000212735
-7.69623e-06
-9.58324e-05
0.000206745
-6.83741e-06
-0.000111326
0.000202453
-6.12879e-06
-0.000127566
0.000200366
-5.65101e-06
-0.000145501
0.000201043
-5.51879e-06
-0.000166449
0.000205182
-5.90068e-06
-0.000192307
0.000213622
-7.0831e-06
-0.000225772
0.000227213
-9.56335e-06
-0.000270562
0.000246454
-1.41714e-05
-0.000331263
0.000270172
-2.20713e-05
-0.000412503
0.000293276
-3.43372e-05
-0.000513954
0.00029943
-5.09841e-05
-0.000618023
0.000250283
-6.92602e-05
-0.000655172
6.09412e-05
-7.92092e-05
-0.000509886
-0.000303004
-8.37161e-05
-0.000758228
-0.000163223
-1.27026e-05
0.000150496
-1.16691e-05
-3.39283e-05
0.000241266
-1.31973e-05
-5.37736e-05
0.000254967
-1.26961e-05
-7.09439e-05
0.000247747
-1.12562e-05
-8.60176e-05
0.000237467
-9.65864e-06
-9.9857e-05
0.000228709
-8.12518e-06
-0.00011317
0.000222581
-6.81481e-06
-0.000126661
0.000219694
-5.83675e-06
-0.000141202
0.000220862
-5.27806e-06
-0.000158048
0.000227306
-5.27787e-06
-0.000179243
0.000240895
-6.07761e-06
-0.000208122
0.000264147
-8.05489e-06
-0.000250434
0.000300417
-1.16506e-05
-0.000315133
0.000351447
-1.65761e-05
-0.000416645
0.000414098
-1.93103e-05
-0.000568027
0.000459196
-8.38416e-06
-0.000767123
0.000414513
3.48658e-05
-0.000911403
7.65624e-05
0.000128659
-0.000750785
-0.000662437
0.000198815
-0.00147496
-3.40529e-05
-1.81131e-05
0.000184446
-1.58369e-05
-4.33264e-05
0.000283447
-1.69674e-05
-6.44742e-05
0.000291934
-1.58195e-05
-8.14728e-05
0.000278115
-1.33692e-05
-9.49364e-05
0.000261897
-1.09661e-05
-0.000106093
0.000248593
-8.7264e-06
-0.000115874
0.000239142
-6.78009e-06
-0.000124907
0.000233933
-5.20604e-06
-0.000133698
0.000233734
-4.08047e-06
-0.000142873
0.000239948
-3.46666e-06
-0.000153829
0.000255238
-3.38771e-06
-0.000169196
0.000283224
-3.7111e-06
-0.000195921
0.000330627
-3.48561e-06
-0.000247079
0.000400747
1.85868e-06
-0.000355714
0.000495601
2.71331e-05
-0.000565299
0.000563516
0.000105264
-0.000905581
0.000482495
0.0002723
-0.00116911
-0.000147099
0.000487195
-0.000949253
-0.00139879
0.000516491
-0.00242462
4.0676e-07
-3.86874e-05
0.000247057
-2.39238e-05
-6.68669e-05
0.000338665
-2.70382e-05
-8.52881e-05
0.000334987
-2.46317e-05
-9.67271e-05
0.000310047
-2.04932e-05
-0.000105126
0.00028611
-1.58144e-05
-0.00011193
0.000266822
-1.14251e-05
-0.000117564
0.000252397
-7.62157e-06
-0.000121751
0.000242674
-4.55376e-06
-0.000124082
0.00023831
-2.24462e-06
-0.00012374
0.000240227
-6.21732e-07
-0.000120629
0.000251631
4.97341e-07
-0.000115381
0.000275928
2.04721e-06
-0.00011505
0.000323143
7.15265e-06
-0.000134417
0.000393403
2.67117e-05
-0.000230981
0.00050476
8.74044e-05
-0.000478023
0.000571001
0.000239557
-0.000934927
0.000434421
0.000504978
-0.00126192
-0.000544271
0.000724168
-0.00102046
-0.00216945
0.000529194
-0.0032691
-0.000175978
-3.24717e-05
0.000318807
-3.92781e-05
-7.79611e-05
0.000420777
-3.66232e-05
-0.000104567
0.000392992
-3.13987e-05
-0.00012042
0.000348278
-2.23785e-05
-0.000126844
0.000307803
-1.52682e-05
-0.000127547
0.000276407
-8.88288e-06
-0.000124649
0.000253058
-3.5585e-06
-0.000118737
0.000236093
6.67646e-07
-0.000109585
0.000225206
3.95159e-06
-9.49858e-05
0.000219503
6.12548e-06
-7.28794e-05
0.00022199
7.53468e-06
-4.01464e-05
0.000233334
9.86062e-06
1.90555e-06
0.000263656
1.74358e-05
3.52427e-05
0.000313803
4.62622e-05
1.90854e-05
0.000399693
0.000121225
-0.000164556
0.000457329
0.000297314
-0.000582853
0.000283199
0.000569519
-0.000983396
-0.000835388
0.00069166
-0.000924774
-0.00255654
0.000328472
-0.00379336
-0.000400523
-0.000178648
0.000547878
-5.04227e-05
-0.000181901
0.000483523
-5.94934e-05
-0.000163601
0.000428556
-5.38636e-05
-0.000144452
0.000370404
-4.12748e-05
-0.000118922
0.000308294
-2.60211e-05
-9.18763e-05
0.000261911
-1.255e-05
-6.51009e-05
0.000228328
-2.04568e-06
-3.76931e-05
0.000202888
5.79688e-06
-8.80193e-06
0.000185181
1.11336e-05
2.47544e-05
0.000171795
1.41514e-05
6.5844e-05
0.000165949
1.49511e-05
0.000120545
0.000163798
1.4836e-05
0.000191072
0.000174829
1.82997e-05
0.000279829
0.000190693
3.43537e-05
0.000362865
0.000226664
8.99926e-05
0.000374783
0.000223924
0.000221488
0.000210332
4.69999e-05
0.000400649
-0.000251997
-0.000864976
0.000491917
-0.000541851
-0.0024253
0.000158617
-0.0037662
-0.000569005
-0.000370866
0.00108037
-0.000161623
-0.000263802
0.000487769
-0.000111309
-0.000115143
0.000358531
-7.86341e-05
4.46154e-05
0.000257768
-4.71227e-05
0.00019349
0.000185195
-2.57754e-05
0.000326747
0.000137992
-9.33712e-06
0.000442404
0.000108941
3.72996e-06
0.000542253
8.90283e-05
1.4011e-05
0.000629001
7.68664e-05
2.15676e-05
0.000707619
6.74616e-05
2.57149e-05
0.000782477
6.41333e-05
2.6958e-05
0.00086164
6.07606e-05
2.38742e-05
0.000952598
6.43528e-05
1.95178e-05
0.00106584
6.20634e-05
1.5386e-05
0.00121287
5.72452e-05
2.23867e-05
0.00134368
1.28943e-05
8.02238e-05
0.00140323
-0.000139874
0.000127325
0.00101265
-0.000680708
0.000206309
0.00025116
-0.00170746
4.36502e-05
-0.00278362
-0.00073142
0.00122735
-0.000146984
0.00187041
-0.000155287
0.00237989
-0.000150949
0.00277204
-0.000134383
0.00307204
-0.000114812
0.00330799
-9.79573e-05
0.00349862
-8.1686e-05
0.0036553
-6.76481e-05
0.003787
-5.48371e-05
0.00389771
-4.32517e-05
0.00399642
-3.4577e-05
0.00408346
-2.62814e-05
0.00416801
-2.01938e-05
0.00424759
-1.75135e-05
0.00431278
-7.94309e-06
0.00433377
-8.10274e-06
0.00417916
1.47418e-05
0.00351864
-2.01946e-05
0.00190556
-9.43723e-05
-0.000878066
-3.99529e-06
4.33368e-06
-7.35827e-07
-1.28018e-05
9.288e-06
-4.54126e-07
-2.29898e-05
1.06753e-05
-2.7043e-07
-3.32938e-05
1.07687e-05
-1.54984e-07
-4.32942e-05
1.04487e-05
-1.35461e-07
-5.27845e-05
9.93626e-06
-1.88181e-07
-6.1563e-05
9.23742e-06
-2.9985e-07
-6.93906e-05
8.31077e-06
-4.70034e-07
-7.59584e-05
7.1107e-06
-7.01721e-07
-8.09243e-05
5.58392e-06
-1.00074e-06
-8.38995e-05
3.6865e-06
-1.36992e-06
-8.44733e-05
1.39135e-06
-1.80811e-06
-8.224e-05
-1.29979e-06
-2.30764e-06
-7.6849e-05
-4.32515e-06
-2.84112e-06
-6.80989e-05
-7.55688e-06
-3.37176e-06
-5.60218e-05
-1.0775e-05
-3.83931e-06
-4.10437e-05
-1.35995e-05
-4.15254e-06
-2.43105e-05
-1.53155e-05
-4.19624e-06
-8.50092e-06
-1.44075e-05
-3.87428e-06
-7.2886e-06
-2.42805e-06
-9.19938e-06
1.3942e-05
-1.67616e-06
-2.56038e-05
2.6359e-05
-1.58653e-06
-4.39961e-05
2.97229e-05
-1.38549e-06
-6.23812e-05
2.9768e-05
-1.1888e-06
-8.00089e-05
2.86598e-05
-1.08267e-06
-9.6449e-05
2.6952e-05
-1.05043e-06
-0.00011131
2.46925e-05
-1.08193e-06
-0.000124171
2.1812e-05
-1.18086e-06
-0.000134561
1.82174e-05
-1.35565e-06
-0.000141963
1.38109e-05
-1.61593e-06
-0.000145807
8.4999e-06
-1.96831e-06
-0.000145552
2.27856e-06
-2.41282e-06
-0.000140645
-4.86523e-06
-2.95428e-06
-0.000130635
-1.27778e-05
-3.54393e-06
-0.000115309
-2.11156e-05
-4.1413e-06
-9.48046e-05
-2.93303e-05
-4.66915e-06
-6.98334e-05
-3.64902e-05
-5.00657e-06
-4.2167e-05
-4.08341e-05
-5.00838e-06
-1.57828e-05
-3.8684e-05
-4.54933e-06
-2.1358e-05
-2.63667e-06
-1.11451e-05
2.55815e-05
-2.19511e-06
-3.05021e-05
4.65293e-05
-2.23087e-06
-5.2005e-05
5.20294e-05
-2.02905e-06
-7.33857e-05
5.1901e-05
-1.78974e-06
-9.38082e-05
4.97944e-05
-1.63362e-06
-0.000112794
4.66337e-05
-1.54858e-06
-0.000129909
4.25173e-05
-1.5274e-06
-0.000144694
3.73514e-05
-1.57794e-06
-0.000156642
3.09985e-05
-1.71326e-06
-0.000165191
2.33113e-05
-1.94777e-06
-0.000169743
1.41623e-05
-2.29372e-06
-0.000169644
3.49339e-06
-2.75906e-06
-0.00016422
-8.73773e-06
-3.33576e-06
-0.000152939
-2.22496e-05
-3.99555e-06
-0.000135461
-3.65256e-05
-4.68777e-06
-0.000111829
-5.06617e-05
-5.32133e-06
-8.27524e-05
-6.3088e-05
-5.74684e-06
-5.02268e-05
-7.07801e-05
-5.782e-06
-1.89348e-05
-6.74319e-05
-5.2704e-06
-3.82323e-05
-3.03672e-06
-1.19043e-05
3.80885e-05
-2.64432e-06
-3.26155e-05
6.82202e-05
-2.80307e-06
-5.55762e-05
7.59635e-05
-2.60922e-06
-7.84004e-05
7.56391e-05
-2.34252e-06
-0.000100243
7.2501e-05
-2.15253e-06
-0.000120636
6.78666e-05
-2.03157e-06
-0.000139161
6.18878e-05
-1.97597e-06
-0.000155367
5.44454e-05
-1.99803e-06
-0.000168743
4.53485e-05
-2.11647e-06
-0.000178707
3.43802e-05
-2.35224e-06
-0.000184591
2.13358e-05
-2.72415e-06
-0.000185665
6.09372e-06
-3.24744e-06
-0.000181093
-1.14945e-05
-3.93934e-06
-0.000170062
-3.11319e-05
-4.74882e-06
-0.000151949
-5.21432e-05
-5.62949e-06
-0.000126518
-7.32702e-05
-6.46978e-06
-9.43371e-05
-9.21777e-05
-7.08155e-06
-5.75872e-05
-0.000104266
-7.22295e-06
-2.17556e-05
-0.000100013
-6.6729e-06
-5.73649e-05
-3.95294e-06
-1.24305e-05
5.1254e-05
-3.0732e-06
-3.42284e-05
9.11954e-05
-3.35426e-06
-5.8419e-05
0.00010133
-3.17109e-06
-8.2516e-05
0.000100844
-2.88514e-06
-0.000105682
9.67167e-05
-2.67381e-06
-0.000127486
9.06869e-05
-2.53388e-06
-0.000147546
8.29659e-05
-2.46581e-06
-0.000165447
7.34066e-05
-2.48732e-06
-0.000180696
6.17528e-05
-2.62392e-06
-0.000192697
4.76902e-05
-2.90556e-06
-0.000200715
3.08866e-05
-3.3625e-06
-0.000203857
1.10703e-05
-4.02309e-06
-0.000201083
-1.20482e-05
-4.90597e-06
-0.000191199
-3.83621e-05
-5.98842e-06
-0.000173093
-6.71074e-05
-7.20913e-06
-0.000146014
-9.67188e-05
-8.43193e-06
-0.00011016
-0.000123968
-9.40353e-06
-6.78615e-05
-0.000142195
-9.77153e-06
-2.57995e-05
-0.00013767
-9.18617e-06
-7.96259e-05
-5.65257e-06
-1.30274e-05
6.51742e-05
-3.54098e-06
-3.60619e-05
0.000115642
-3.95578e-06
-6.16694e-05
0.000128353
-3.78536e-06
-8.72432e-05
0.000127757
-3.4826e-06
-0.00011196
0.000122703
-3.25474e-06
-0.000135441
0.000115395
-3.10385e-06
-0.000157368
0.000106116
-3.03567e-06
-0.000177386
9.46929e-05
-3.07484e-06
-0.000195051
8.07946e-05
-3.25588e-06
-0.000209779
6.39804e-05
-3.62089e-06
-0.000220783
4.37318e-05
-4.21658e-06
-0.000227013
1.95319e-05
-5.09173e-06
-0.000227164
-9.14838e-06
-6.28701e-06
-0.000219494
-4.26853e-05
-7.80683e-06
-0.000202177
-8.03674e-05
-9.58572e-06
-0.000173592
-0.000120492
-1.1462e-05
-0.000133185
-0.000158849
-1.30866e-05
-8.32258e-05
-0.000186078
-1.39166e-05
-3.21072e-05
-0.000182584
-1.33383e-05
-0.000106768
-8.50802e-06
-1.3766e-05
8.00251e-05
-4.09872e-06
-3.8291e-05
0.000141866
-4.67329e-06
-6.55863e-05
0.000157353
-4.51665e-06
-9.2896e-05
0.000156681
-4.19231e-06
-0.000119418
0.000150754
-3.94274e-06
-0.000144845
0.000142296
-3.77714e-06
-0.000168952
0.000131686
-3.70854e-06
-0.000191486
0.000118735
-3.77084e-06
-0.000212101
0.000103041
-4.01091e-06
-0.00023028
8.40136e-05
-4.48815e-06
-0.000245239
6.08927e-05
-5.27387e-06
-0.000255793
3.27922e-05
-6.44993e-06
-0.000260401
-1.12541e-06
-8.10339e-06
-0.0002566
-4.22456e-05
-1.02828e-05
-0.000241579
-9.01032e-05
-1.29513e-05
-0.000212313
-0.0001433
-1.5927e-05
-0.00016678
-0.000196738
-1.87318e-05
-0.000106582
-0.000237644
-2.05114e-05
-4.2318e-05
-0.000237888
-2.00953e-05
-0.000141945
-1.32627e-05
-1.46648e-05
9.6015e-05
-4.79055e-06
-4.09619e-05
0.000170217
-5.56436e-06
-7.02181e-05
0.00018867
-5.41961e-06
-9.94938e-05
0.000187907
-5.06004e-06
-0.000128016
0.000181118
-4.77204e-06
-0.000155577
0.00017162
-4.57481e-06
-0.000182082
0.000159924
-4.49143e-06
-0.000207432
0.00014586
-4.56805e-06
-0.000231452
0.000128967
-4.86797e-06
-0.000253787
0.000108515
-5.47468e-06
-0.000273771
8.34659e-05
-6.49542e-06
-0.000290226
5.24687e-05
-8.05967e-06
-0.000301264
1.39915e-05
-1.0294e-05
-0.000303964
-3.42101e-05
-1.3481e-05
-0.000294049
-9.31802e-05
-1.75386e-05
-0.000266391
-0.000162313
-2.23373e-05
-0.000216293
-0.00023623
-2.72675e-05
-0.000143302
-0.000298249
-3.10016e-05
-5.99897e-05
-0.000308079
-3.12261e-05
-0.000191564
-2.14158e-05
-1.57531e-05
0.000113401
-5.66687e-06
-4.41316e-05
0.0002011
-6.69427e-06
-7.56105e-05
0.000222658
-6.55428e-06
-0.000107028
0.000221689
-6.13354e-06
-0.000137652
0.000213959
-5.775e-06
-0.000167402
0.000203471
-5.51188e-06
-0.000196361
0.000190921
-5.38082e-06
-0.000224652
0.000176203
-5.44344e-06
-0.00025236
0.000158857
-5.78377e-06
-0.000279431
0.00013805
-6.51703e-06
-0.000305498
0.000112492
-7.8014e-06
-0.000329614
8.03191e-05
-9.84469e-06
-0.000349791
3.90497e-05
-1.29221e-05
-0.000362845
-1.46097e-05
-1.74e-05
-0.000362916
-8.4467e-05
-2.35452e-05
-0.000341997
-0.000171856
-3.12915e-05
-0.000290918
-0.000272747
-3.99997e-05
-0.000204378
-0.000367063
-4.77141e-05
-9.36368e-05
-0.000399529
-5.0016e-05
-0.000270407
-3.6183e-05
-1.71008e-05
0.000132534
-6.7967e-06
-4.79297e-05
0.000235015
-8.14993e-06
-8.18902e-05
0.000259695
-7.99843e-06
-0.000115556
0.000258236
-7.47229e-06
-0.000148258
0.000249331
-6.98889e-06
-0.000180077
0.00023778
-6.60119e-06
-0.00021132
0.000224529
-6.36357e-06
-0.000242398
0.000209611
-6.35604e-06
-0.000273767
0.00019265
-6.68672e-06
-0.000305841
0.000172827
-7.50921e-06
-0.000338818
0.000148711
-9.04813e-06
-0.000372362
0.000118007
-1.16304e-05
-0.000405008
7.72459e-05
-1.57131e-05
-0.000433698
2.16888e-05
-2.18397e-05
-0.000451732
-5.58102e-05
-3.08897e-05
-0.000447995
-0.000161146
-4.31844e-05
-0.00040682
-0.000294534
-5.83511e-05
-0.000312872
-0.000436257
-7.38529e-05
-0.00016465
-0.000519917
-8.20383e-05
-0.000414664
-6.43299e-05
-1.88532e-05
0.000153951
-8.28385e-06
-5.26201e-05
0.000272629
-1.0057e-05
-8.93359e-05
0.000300219
-9.86194e-06
-0.000125281
0.000297714
-9.15799e-06
-0.00015988
0.000287156
-8.46263e-06
-0.000193422
0.000274264
-7.85655e-06
-0.000226475
0.000260299
-7.41699e-06
-0.000259795
0.000245516
-7.24373e-06
-0.000294299
0.000229751
-7.4686e-06
-0.000331046
0.000212387
-8.28309e-06
-0.000371133
0.000192119
-9.98143e-06
-0.000415424
0.000166553
-1.30226e-05
-0.000463964
0.000131576
-1.80962e-05
-0.00051467
8.05933e-05
-2.61996e-05
-0.000563193
4.83921e-06
-3.88972e-05
-0.000595891
-0.000111312
-5.72718e-05
-0.000589944
-0.00027667
-8.20116e-05
-0.000510085
-0.000484633
-0.000110164
-0.000314964
-0.000679773
-0.000130199
-0.000708207
-0.000113695
-2.129e-05
0.000178517
-1.02927e-05
-5.86918e-05
0.000314887
-1.26079e-05
-9.84719e-05
0.000344762
-1.23118e-05
-0.00013663
0.000340236
-1.13127e-05
-0.00017276
0.000327197
-1.0267e-05
-0.000207408
0.000312382
-9.29706e-06
-0.000241442
0.000297416
-8.51006e-06
-0.000275971
0.00028284
-8.024e-06
-0.00031241
0.000268841
-7.98785e-06
-0.00035258
0.000255271
-8.6198e-06
-0.000398799
0.00024141
-1.02698e-05
-0.000453852
0.000225462
-1.35186e-05
-0.000520643
0.000203644
-1.93166e-05
-0.000601169
0.00016871
-2.90644e-05
-0.000693981
0.000108658
-4.44296e-05
-0.000792628
4.40913e-06
-6.83695e-05
-0.000863397
-0.000182707
-0.000100682
-0.00082947
-0.000490997
-0.000136632
-0.000569391
-0.000916037
-0.000163003
-0.00127442
-0.000164713
-2.49185e-05
0.000207676
-1.30862e-05
-6.69874e-05
0.000363164
-1.60712e-05
-0.000110204
0.000394002
-1.5552e-05
-0.000150395
0.000385871
-1.40653e-05
-0.000187451
0.000369025
-1.24687e-05
-0.000222276
0.000351303
-1.09329e-05
-0.000256055
0.000334662
-9.59551e-06
-0.000290204
0.000319924
-8.58646e-06
-0.000326531
0.000307707
-8.05878e-06
-0.000367544
0.000298608
-8.22449e-06
-0.000416843
0.00029305
-9.42384e-06
-0.00047959
0.000290879
-1.22329e-05
-0.000562976
0.000290453
-1.75947e-05
-0.000676135
0.000286579
-2.6781e-05
-0.000827619
0.000266493
-4.06868e-05
-0.00101245
0.000196133
-5.78783e-05
-0.0011827
-9.82815e-06
-7.18875e-05
-0.00118969
-0.000495613
-6.76068e-05
-0.00082792
-0.0013028
-5.87215e-05
-0.00213419
-0.000131377
-3.10508e-05
0.000244257
-1.72001e-05
-7.9327e-05
0.000419424
-2.11813e-05
-0.000126052
0.000448358
-2.03263e-05
-0.000167544
0.000434152
-1.8046e-05
-0.000204558
0.000411864
-1.54845e-05
-0.000238438
0.000390015
-1.29585e-05
-0.000270519
0.000370618
-1.06893e-05
-0.000302308
0.000354709
-8.83173e-06
-0.000335797
0.000343425
-7.5069e-06
-0.000373854
0.000338247
-6.8606e-06
-0.00042099
0.000341215
-7.10596e-06
-0.000484412
0.00035478
-8.53452e-06
-0.000575568
0.000381355
-1.13961e-05
-0.000710089
0.000419395
-1.48705e-05
-0.000903187
0.000453813
-1.35336e-05
-0.00114505
0.000420539
9.06801e-06
-0.00136969
0.000167544
8.21419e-05
-0.00138074
-0.000569422
0.000213514
-0.000914398
-0.00182729
0.000256968
-0.00305649
-2.61519e-05
-3.8815e-05
0.000290272
-2.30362e-05
-9.52989e-05
0.000486425
-2.74842e-05
-0.000146992
0.000510023
-2.57919e-05
-0.000190762
0.000486687
-2.21334e-05
-0.000227191
0.000455638
-1.83104e-05
-0.000258455
0.000427141
-1.45875e-05
-0.000286505
0.000403076
-1.1189e-05
-0.000313013
0.000384253
-8.24168e-06
-0.000339706
0.000371855
-5.81692e-06
-0.000368896
0.000367903
-3.93307e-06
-0.000404739
0.000376131
-2.46149e-06
-0.000454335
0.000401555
-8.88932e-07
-0.000530584
0.000451561
2.55702e-06
-0.000650654
0.000526918
1.44045e-05
-0.00083295
0.000609317
5.39254e-05
-0.00106685
0.000597685
0.000162021
-0.00131069
0.000301733
0.000381953
-0.00133817
-0.000674882
0.000620129
-0.000847828
-0.00231848
0.000517334
-0.00384144
-6.24717e-05
-7.17054e-05
0.000370876
-3.28229e-05
-0.000134664
0.000562084
-3.97391e-05
-0.000182808
0.00057028
-3.67452e-05
-0.000219494
0.000534016
-3.11359e-05
-0.000250186
0.000495214
-2.46986e-05
-0.000276796
0.000460701
-1.83757e-05
-0.000300201
0.000431463
-1.26035e-05
-0.00032074
0.000407834
-7.59664e-06
-0.00033894
0.000391179
-3.36874e-06
-0.000355398
0.000383519
2.2095e-07
-0.00037215
0.000389686
3.69494e-06
-0.000392819
0.000415502
8.76931e-06
-0.000427391
0.000473042
2.02435e-05
-0.000486754
0.000561308
5.16859e-05
-0.000597311
0.00067215
0.000135128
-0.000754549
0.000669384
0.000325097
-0.000971301
0.00038318
0.000640283
-0.00103967
-0.000722826
0.000840482
-0.000656751
-0.00261404
0.000441838
-0.0044227
-0.000251464
-5.18147e-05
0.000433245
-4.9832e-05
-0.000145798
0.000673936
-5.44908e-05
-0.000214879
0.000655944
-4.79818e-05
-0.000262054
0.000596066
-3.72534e-05
-0.000293055
0.000538461
-2.75139e-05
-0.000312862
0.000489881
-1.82556e-05
-0.00032488
0.000449915
-9.99328e-06
-0.000330713
0.000417185
-2.85022e-06
-0.000330806
0.000392222
3.00183e-06
-0.00032388
0.000374808
7.91033e-06
-0.000309219
0.000369753
1.28067e-05
-0.000283377
0.000379405
2.01155e-05
-0.000248193
0.000419052
3.62416e-05
-0.000201361
0.00048319
7.75484e-05
-0.000168228
0.000583738
0.000176504
-0.000183007
0.000602422
0.000379054
-0.000282294
0.000376535
0.000675451
-0.000419684
-0.000645442
0.000751666
-0.000258554
-0.00266488
0.000218187
-0.00466573
-0.000416043
-0.000196914
0.000640048
-6.03111e-05
-0.000242799
0.000735815
-7.54887e-05
-0.000281281
0.00071153
-7.09668e-05
-0.000311647
0.000642174
-5.7017e-05
-0.00031819
0.000559014
-4.00307e-05
-0.000307813
0.000491011
-2.40572e-05
-0.00028636
0.000436713
-1.02962e-05
-0.000255518
0.000391247
8.92958e-07
-0.000217941
0.000356474
9.30519e-06
-0.000171293
0.000326666
1.56443e-05
-0.000115982
0.000309073
2.03196e-05
-4.48748e-05
0.000297614
2.55202e-05
4.87529e-05
0.00030767
3.60543e-05
0.000170351
0.000331231
6.47144e-05
0.00033446
0.000377511
0.00013211
0.000500587
0.000382233
0.00027555
0.000667111
0.000171295
0.000439364
0.000580207
-0.000561334
0.000494713
0.000401886
-0.00240595
7.80053e-05
-0.00432721
-0.000505642
-0.000665229
0.00129201
-0.00014836
-0.000627662
0.000715479
-0.000128539
-0.00049279
0.000597117
-9.90939e-05
-0.000305205
0.000478902
-7.14364e-05
-0.000108862
0.000386869
-4.99741e-05
8.37904e-05
0.000319826
-3.08042e-05
0.000265767
0.000272547
-1.40809e-05
0.000435756
0.000234965
3.03824e-07
0.000594226
0.00020832
1.12517e-05
0.000742635
0.000184356
1.96163e-05
0.00088412
0.000169586
2.49599e-05
0.00102247
0.000156491
2.66516e-05
0.00117069
0.000151148
2.78195e-05
0.0013357
0.000150938
3.06641e-05
0.00155902
0.000137313
3.92603e-05
0.00181155
0.00010788
0.000102055
0.00205803
-7.49134e-05
0.000127049
0.00206462
-0.000511504
0.000149895
0.00139879
-0.00170115
4.67857e-06
-0.00311078
-0.000549062
0.0012709
-0.000125867
0.00197411
-0.000143025
0.00256481
-0.000144531
0.00304572
-0.000136387
0.00344177
-0.000123989
0.0037749
-0.000111268
0.00406385
-9.80834e-05
0.00431589
-8.47256e-05
0.00454176
-7.23884e-05
0.00474253
-5.9664e-05
0.00492614
-4.86059e-05
0.00509572
-3.93664e-05
0.00525488
-2.82058e-05
0.00541429
-2.59827e-05
0.00555515
-1.14933e-05
0.00567228
-1.73541e-05
0.00560444
7.67389e-06
0.00511623
-4.34905e-05
0.0034076
-8.68984e-05
-0.000581247
-4.51549e-06
4.6682e-06
-8.88541e-07
-1.4484e-05
1.04239e-05
-9.09468e-07
-2.59884e-05
1.20415e-05
-8.07569e-07
-3.75466e-05
1.21181e-05
-7.14809e-07
-4.8688e-05
1.16931e-05
-6.8721e-07
-5.91909e-05
1.10353e-05
-7.20533e-07
-6.88373e-05
1.01577e-05
-8.11168e-07
-7.73633e-05
9.01761e-06