/*--------------------------------*- C++ -*----------------------------------*\
  =========                 |
  \\      /  F ield         | OpenFOAM: The Open Source CFD Toolbox
   \\    /   O peration     | Website:  https://openfoam.org
    \\  /    A nd           | Version:  10
     \\/     M anipulation  |
\*---------------------------------------------------------------------------*/
FoamFile
{
    format      ascii;
    class       volVectorField;
    location    "0.6";
    object      U;
}
// * * * * * * * * * * * * * * * * * * * * * * * * * * * * * * * * * * * * * //

dimensions      [0 1 -1 0 0 0 0];

internalField   nonuniform List<vector> 
475
(
(0.941986 0.0437139 0)
(1.01953 -0.0633107 0)
(0.932283 0.083162 0)
(1.01519 -0.0746697 0)
(1.00315 0.0181777 0)
(1.01932 -0.00546939 0)
(0.999668 0.00980076 0)
(1.02657 0.0233562 0)
(1.07116 -0.0681036 0)
(1.02805 -0.0574036 0)
(1.00888 0.00625799 0)
(0.99047 -0.0220084 0)
(1.02416 -0.0271425 0)
(1.05621 -0.0354788 0)
(1.02997 -0.0767374 0)
(1.006 -0.0132916 0)
(1.00214 -0.0269155 0)
(1.01833 -0.0263289 0)
(1.03587 -0.054424 0)
(1.02051 -0.065808 0)
(0.985062 -0.00948008 0)
(0.958956 -0.0201171 0)
(0.951549 -0.0265109 0)
(0.926353 -0.0306593 0)
(0.860885 -0.0364742 0)
(1.04487 -0.153692 0)
(1.1345 -0.319174 0)
(1.15323 -0.410433 0)
(1.10686 -0.373878 0)
(0.962649 -0.277967 0)
(0.802189 -0.191576 0)
(0.686641 -0.133814 0)
(0.614652 -0.0974233 0)
(0.57295 -0.0725891 0)
(0.55015 -0.0541295 0)
(0.538023 -0.0400143 0)
(0.531522 -0.0293035 0)
(0.527907 -0.0213079 0)
(0.525791 -0.0154205 0)
(0.524491 -0.0111254 0)
(0.523659 -0.00800996 0)
(0.523113 -0.00575841 0)
(0.522747 -0.00413517 0)
(0.522498 -0.00296702 0)
(0.522326 -0.0021275 0)
(0.522207 -0.00152465 0)
(0.522123 -0.00109195 0)
(0.522064 -0.000781491 0)
(0.522023 -0.000558924 0)
(0.521994 -0.00039956 0)
(0.521973 -0.000285601 0)
(0.521959 -0.000204168 0)
(0.521948 -0.000145947 0)
(0.52194 -0.000104257 0)
(0.521934 -7.43696e-05 0)
(0.521931 -5.29587e-05 0)
(0.521928 -3.7662e-05 0)
(0.521927 -2.6768e-05 0)
(0.521925 -1.90471e-05 0)
(0.521924 -1.35796e-05 0)
(0.521923 -9.7031e-06 0)
(0.521923 -6.95162e-06 0)
(0.521921 -4.99561e-06 0)
(0.521924 -3.62557e-06 0)
(0.521918 -2.64781e-06 0)
(0.521927 -2.00916e-06 0)
(0.521916 -1.64386e-06 0)
(0.521926 -1.26702e-06 0)
(0.521924 -1.42631e-06 0)
(0.521922 -1.55053e-06 0)
(1.08052 -0.107729 0)
(1.01946 -0.309596 0)
(0.776444 -0.399076 0)
(0.608307 -0.293892 0)
(0.561174 -0.160331 0)
(0.555267 -0.0886923 0)
(0.557573 -0.0650928 0)
(0.558341 -0.0569787 0)
(0.555249 -0.0494298 0)
(0.549645 -0.040468 0)
(0.543468 -0.0315872 0)
(0.537956 -0.0239072 0)
(0.533564 -0.0177576 0)
(0.53027 -0.0130386 0)
(0.527876 -0.00950408 0)
(0.526159 -0.00689427 0)
(0.524936 -0.00498412 0)
(0.524068 -0.00359404 0)
(0.523451 -0.00258655 0)
(0.523012 -0.0018587 0)
(0.522698 -0.00133415 0)
(0.522474 -0.000956751 0)
(0.522313 -0.000685486 0)
(0.522199 -0.000490648 0)
(0.522119 -0.000350845 0)
(0.522061 -0.000250684 0)
(0.522019 -0.000179057 0)
(0.521989 -0.000127918 0)
(0.521967 -9.14242e-05 0)
(0.521952 -6.53379e-05 0)
(0.521941 -4.66296e-05 0)
(0.521934 -3.31778e-05 0)
(0.521929 -2.35204e-05 0)
(0.521925 -1.66203e-05 0)
(0.521922 -1.17401e-05 0)
(0.521919 -8.32862e-06 0)
(0.521918 -5.96461e-06 0)
(0.521916 -4.32653e-06 0)
(0.521918 -3.19102e-06 0)
(0.521912 -2.36551e-06 0)
(0.521921 -1.81847e-06 0)
(0.521909 -1.46573e-06 0)
(0.52192 -1.15406e-06 0)
(0.521917 -1.29144e-06 0)
(0.521914 -1.54372e-06 0)
(1.02674 -0.132321 0)
(1.02498 -0.113379 0)
(0.94104 -0.101694 0)
(0.810013 -0.142422 0)
(0.716362 -0.161384 0)
(0.668881 -0.136811 0)
(0.636172 -0.0987831 0)
(0.607819 -0.0676849 0)
(0.584611 -0.0467792 0)
(0.56697 -0.0332226 0)
(0.554117 -0.0241121 0)
(0.544932 -0.0176841 0)
(0.53838 -0.0129968 0)
(0.533684 -0.00953099 0)
(0.530306 -0.00696361 0)
(0.527875 -0.00506798 0)
(0.526127 -0.00367497 0)
(0.52487 -0.00265646 0)
(0.523968 -0.00191548 0)
(0.523321 -0.00137868 0)
(0.522855 -0.000990874 0)
(0.522521 -0.000711076 0)
(0.522282 -0.000509384 0)
(0.522111 -0.000364263 0)
(0.521989 -0.000260199 0)
(0.521901 -0.000185868 0)
(0.521838 -0.000132895 0)
(0.521792 -9.50976e-05 0)
(0.52176 -6.79998e-05 0)
(0.521737 -4.84669e-05 0)
(0.521721 -3.4369e-05 0)
(0.521709 -2.42636e-05 0)
(0.521701 -1.71214e-05 0)
(0.521695 -1.21405e-05 0)
(0.521691 -8.68615e-06 0)
(0.521687 -6.27813e-06 0)
(0.521685 -4.54664e-06 0)
(0.521682 -3.28506e-06 0)
(0.521684 -2.31977e-06 0)
(0.521678 -1.65558e-06 0)
(0.521686 -1.21917e-06 0)
(0.521675 -9.95993e-07 0)
(0.521685 -8.48149e-07 0)
(0.521682 -1.09073e-06 0)
(0.521679 -1.36888e-06 0)
(0.97567 -0.0692976 0)
(0.922526 -0.11557 0)
(0.869672 -0.140984 0)
(0.803928 -0.114833 0)
(0.732532 -0.0714157 0)
(0.672733 -0.0435023 0)
(0.629191 -0.0304223 0)
(0.598735 -0.0237006 0)
(0.577233 -0.0190859 0)
(0.561489 -0.0152091 0)
(0.549643 -0.0118319 0)
(0.540704 -0.00901181 0)
(0.534021 -0.00676113 0)
(0.529074 -0.00501819 0)
(0.525439 -0.003694 0)
(0.522784 -0.00270118 0)
(0.520854 -0.00196439 0)
(0.519457 -0.00142231 0)
(0.518447 -0.00102629 0)
(0.517719 -0.000738509 0)
(0.517195 -0.000530106 0)
(0.516819 -0.000379574 0)
(0.516548 -0.000271161 0)
(0.516355 -0.000193387 0)
(0.516216 -0.00013782 0)
(0.516117 -9.82197e-05 0)
(0.516046 -6.99874e-05 0)
(0.515995 -4.98022e-05 0)
(0.515958 -3.53286e-05 0)
(0.515932 -2.49608e-05 0)
(0.515914 -1.75892e-05 0)
(0.515901 -1.24071e-05 0)
(0.515892 -8.78667e-06 0)
(0.515885 -6.25287e-06 0)
(0.51588 -4.45237e-06 0)
(0.515876 -3.17606e-06 0)
(0.515874 -2.19328e-06 0)
(0.515871 -1.58279e-06 0)
(0.515872 -9.8941e-07 0)
(0.515866 -8.41422e-07 0)
(0.515875 -6.2062e-07 0)
(0.515863 -4.24071e-07 0)
(0.515873 -6.96608e-07 0)
(0.51587 -7.2809e-07 0)
(0.515867 -9.73688e-07 0)
(0.801718 -0.0395477 0)
(0.752789 -0.027893 0)
(0.685001 -0.0168693 0)
(0.610947 -0.0151354 0)
(0.554836 -0.0151725 0)
(0.518244 -0.013632 0)
(0.493238 -0.0106915 0)
(0.474557 -0.00766031 0)
(0.460431 -0.00539063 0)
(0.44982 -0.00386433 0)
(0.441789 -0.00282978 0)
(0.43571 -0.00209692 0)
(0.431146 -0.00155795 0)
(0.427749 -0.00115406 0)
(0.42524 -0.000849939 0)
(0.423399 -0.000621742 0)
(0.422057 -0.000451801 0)
(0.421084 -0.000326358 0)
(0.420381 -0.00023455 0)
(0.419876 -0.000167842 0)
(0.419513 -0.000119644 0)
(0.419253 -8.49764e-05 0)
(0.419068 -6.01488e-05 0)
(0.418937 -4.24511e-05 0)
(0.418843 -2.9896e-05 0)
(0.418777 -2.10238e-05 0)
(0.418729 -1.47641e-05 0)
(0.418696 -1.03441e-05 0)
(0.418672 -7.21835e-06 0)
(0.418655 -5.01045e-06 0)
(0.418644 -3.46088e-06 0)
(0.418636 -2.385e-06 0)
(0.41863 -1.64288e-06 0)
(0.418626 -1.14497e-06 0)
(0.418623 -8.06508e-07 0)
(0.418621 -5.75436e-07 0)
(0.418619 -3.63118e-07 0)
(0.418617 -2.89978e-07 0)
(0.418619 -1.09452e-07 0)
(0.418615 -1.85182e-07 0)
(0.418621 -8.09907e-08 0)
(0.418612 2.70962e-08 0)
(0.41862 -2.72688e-07 0)
(0.418618 -2.3847e-07 0)
(0.418615 -4.26287e-07 0)
(-0.0359036 -0.012037 0)
(-0.0407907 -0.0204505 0)
(0.0150167 -0.0265003 0)
(0.0778083 -0.0343507 0)
(0.15467 -0.033793 0)
(0.223145 -0.0286636 0)
(0.278483 -0.0221786 0)
(0.320191 -0.0161868 0)
(0.350253 -0.0113957 0)
(0.371348 -0.00785824 0)
(0.385947 -0.00536312 0)
(0.395993 -0.00364761 0)
(0.402903 -0.0024828 0)
(0.407668 -0.00169482 0)
(0.410966 -0.00116112 0)
(0.413256 -0.000798753 0)
(0.414851 -0.000551973 0)
(0.415967 -0.000383019 0)
(0.41675 -0.000266445 0)
(0.417301 -0.000185477 0)
(0.41769 -0.000129168 0)
(0.417963 -9.01428e-05 0)
(0.418154 -6.31397e-05 0)
(0.41829 -4.43343e-05 0)
(0.418386 -3.10721e-05 0)
(0.418455 -2.1635e-05 0)
(0.418503 -1.49461e-05 0)
(0.418537 -1.02946e-05 0)
(0.418561 -7.14417e-06 0)
(0.418577 -5.02895e-06 0)
(0.418588 -3.5675e-06 0)
(0.418596 -2.51989e-06 0)
(0.418602 -1.74161e-06 0)
(0.418607 -1.14966e-06 0)
(0.41861 -7.3873e-07 0)
(0.418612 -4.77714e-07 0)
(0.418614 -3.77101e-07 0)
(0.418614 -2.55603e-07 0)
(0.418616 -3.09755e-07 0)
(0.418613 -1.45716e-07 0)
(0.418619 -1.66083e-07 0)
(0.418612 -2.05928e-07 0)
(0.41862 1.02631e-07 0)
(0.41862 5.85892e-08 0)
(0.418617 8.15832e-08 0)
(-0.0307957 0.101736 0)
(-0.0469148 -0.0232408 0)
(0.0223143 -0.0789771 0)
(0.100025 -0.114998 0)
(0.198545 -0.114916 0)
(0.28317 -0.0975783 0)
(0.349394 -0.0757421 0)
(0.398251 -0.0557565 0)
(0.433162 -0.0397957 0)
(0.457733 -0.0279268 0)
(0.474937 -0.0194396 0)
(0.486981 -0.0134967 0)
(0.495431 -0.00937612 0)
(0.501379 -0.00652748 0)
(0.505578 -0.00455694 0)
(0.508549 -0.00319114 0)
(0.510655 -0.00224183 0)
(0.512151 -0.00157925 0)
(0.513217 -0.00111449 0)
(0.513977 -0.000787273 0)
(0.51452 -0.000556662 0)
(0.514905 -0.000394247 0)
(0.51518 -0.00027976 0)
(0.515376 -0.000198693 0)
(0.515517 -0.000140944 0)
(0.515618 -9.9697e-05 0)
(0.515691 -7.03615e-05 0)
(0.515742 -4.96989e-05 0)
(0.515778 -3.5274e-05 0)
(0.515803 -2.51924e-05 0)
(0.515821 -1.80366e-05 0)
(0.515835 -1.28545e-05 0)
(0.515844 -9.04417e-06 0)
(0.515851 -6.23378e-06 0)
(0.515857 -4.23276e-06 0)
(0.51586 -2.86594e-06 0)
(0.515863 -2.04888e-06 0)
(0.515863 -1.44779e-06 0)
(0.515867 -1.23774e-06 0)
(0.515863 -8.39866e-07 0)
(0.515872 -7.15224e-07 0)
(0.515862 -6.91731e-07 0)
(0.515872 -2.18876e-07 0)
(0.515871 -2.71913e-07 0)
(0.515869 -3.08279e-07 0)
(-0.119971 0.0388059 0)
(-0.133979 -0.0940732 0)
(-0.0018924 -0.180164 0)
(0.0979923 -0.22553 0)
(0.217428 -0.215899 0)
(0.311354 -0.176408 0)
(0.378372 -0.132924 0)
(0.423674 -0.0960316 0)
(0.453881 -0.067914 0)
(0.474218 -0.0475657 0)
(0.488148 -0.0332131 0)
(0.497842 -0.0232053 0)
(0.504669 -0.0162501 0)
(0.509516 -0.0114118 0)
(0.512972 -0.00803736 0)
(0.515442 -0.00567648 0)
(0.517209 -0.00401892 0)
(0.518475 -0.00285063 0)
(0.519384 -0.0020244 0)
(0.520037 -0.00143895 0)
(0.520504 -0.00102388 0)
(0.520837 -0.000729422 0)
(0.521076 -0.00052007 0)
(0.521247 -0.000370724 0)
(0.52137 -0.000263944 0)
(0.521459 -0.00018769 0)
(0.521523 -0.000133484 0)
(0.521568 -9.51351e-05 0)
(0.521599 -6.80107e-05 0)
(0.521622 -4.8702e-05 0)
(0.521638 -3.48111e-05 0)
(0.52165 -2.47247e-05 0)
(0.521659 -1.74003e-05 0)
(0.521665 -1.21603e-05 0)
(0.52167 -8.51248e-06 0)
(0.521672 -6.02687e-06 0)
(0.521675 -4.36187e-06 0)
(0.521675 -3.19012e-06 0)
(0.521679 -2.40192e-06 0)
(0.521674 -1.74803e-06 0)
(0.521684 -1.32236e-06 0)
(0.521673 -1.04507e-06 0)
(0.521684 -7.04968e-07 0)
(0.521683 -7.51245e-07 0)
(0.52168 -8.89716e-07 0)
(-0.0188467 0.40646 0)
(0.0159368 -0.120388 0)
(0.138229 -0.298195 0)
(0.21485 -0.352883 0)
(0.304745 -0.327603 0)
(0.381383 -0.256642 0)
(0.432987 -0.184314 0)
(0.464472 -0.128053 0)
(0.483299 -0.0883452 0)
(0.494961 -0.0611171 0)
(0.502623 -0.0425137 0)
(0.50793 -0.0297423 0)
(0.511733 -0.0209106 0)
(0.514501 -0.0147596 0)
(0.516524 -0.0104504 0)
(0.518003 -0.00741767 0)
(0.519082 -0.00527506 0)
(0.519868 -0.00375626 0)
(0.52044 -0.00267688 0)
(0.520853 -0.00190869 0)
(0.521152 -0.00136173 0)
(0.521366 -0.000972139 0)
(0.52152 -0.000694306 0)
(0.521631 -0.000495795 0)
(0.521712 -0.000353759 0)
(0.52177 -0.000252171 0)
(0.521812 -0.00017969 0)
(0.521841 -0.000128151 0)
(0.521861 -9.15715e-05 0)
(0.521876 -6.55527e-05 0)
(0.521887 -4.69127e-05 0)
(0.521895 -3.34321e-05 0)
(0.521901 -2.36494e-05 0)
(0.521905 -1.65978e-05 0)
(0.521908 -1.16148e-05 0)
(0.521909 -8.17781e-06 0)
(0.521911 -5.86571e-06 0)
(0.521911 -4.29293e-06 0)
(0.521914 -3.24563e-06 0)
(0.52191 -2.44892e-06 0)
(0.521919 -1.89949e-06 0)
(0.521908 -1.50336e-06 0)
(0.521919 -1.09435e-06 0)
(0.521917 -1.06024e-06 0)
(0.521915 -1.19105e-06 0)
(0.361654 -0.0498064 0)
(0.339449 -0.266323 0)
(0.53922 -0.412743 0)
(0.574157 -0.444029 0)
(0.552807 -0.398231 0)
(0.540584 -0.311987 0)
(0.532609 -0.221038 0)
(0.526366 -0.148916 0)
(0.522446 -0.0994384 0)
(0.520457 -0.0672429 0)
(0.51967 -0.0462863 0)
(0.519556 -0.0323327 0)
(0.519778 -0.0228084 0)
(0.520125 -0.0161857 0)
(0.520484 -0.0115259 0)
(0.520805 -0.00822411 0)
(0.521072 -0.00587473 0)
(0.521286 -0.00419896 0)
(0.521452 -0.00300212 0)
(0.521578 -0.0021468 0)
(0.52167 -0.00153533 0)
(0.521738 -0.00109798 0)
(0.521788 -0.000784985 0)
(0.521825 -0.000560929 0)
(0.521853 -0.000400617 0)
(0.521873 -0.000286065 0)
(0.521887 -0.000204328 0)
(0.521897 -0.000146029 0)
(0.521903 -0.000104392 0)
(0.521908 -7.45777e-05 0)
(0.521911 -5.31724e-05 0)
(0.521915 -3.77958e-05 0)
(0.521917 -2.67844e-05 0)
(0.521919 -1.89671e-05 0)
(0.52192 -1.34556e-05 0)
(0.52192 -9.58591e-06 0)
(0.521921 -6.87793e-06 0)
(0.521919 -4.97349e-06 0)
(0.521922 -3.64486e-06 0)
(0.521917 -2.67699e-06 0)
(0.521927 -2.01857e-06 0)
(0.521916 -1.62185e-06 0)
(0.521926 -1.22503e-06 0)
(0.521924 -1.3239e-06 0)
(0.521922 -1.44114e-06 0)
)
;

boundaryField
{
    inlet
    {
        type            fixedValue;
        value           uniform (1 0 0);
    }
    outlet
    {
        type            zeroGradient;
    }
    upperWall
    {
        type            noSlip;
    }
    lowerWall
    {
        type            noSlip;
    }
    frontAndBack
    {
        type            empty;
    }
}


// ************************************************************************* //
