/*--------------------------------*- C++ -*----------------------------------*\
  =========                 |
  \\      /  F ield         | OpenFOAM: The Open Source CFD Toolbox
   \\    /   O peration     | Website:  https://openfoam.org
    \\  /    A nd           | Version:  10
     \\/     M anipulation  |
\*---------------------------------------------------------------------------*/
FoamFile
{
    format      ascii;
    class       surfaceScalarField;
    location    "5.075";
    object      phi;
}
// * * * * * * * * * * * * * * * * * * * * * * * * * * * * * * * * * * * * * //

dimensions      [0 3 -1 0 0 0 0];

internalField   nonuniform List<scalar> 
928
(
0.0953823
0.0046177
0.103943
-0.00856084
0.106464
-0.00252049
-0.0101495
0.116613
0.0945435
0.0100742
0.105802
-0.0198197
0.102177
0.00110531
-0.0200039
0.112031
0.0960717
0.0140025
0.107407
-0.0311554
0.103319
0.0051938
-0.0401854
0.1235
0.103803
0.010199
0.0943681
-0.0217199
0.100048
-0.000486542
0.147482
-0.0876188
0.111548
0.00506545
-0.016146
0.127694
0.108274
0.00882291
-0.0413568
0.133484
0.124116
0.00820686
-0.0453484
0.128108
0.155689
0.11034
0.127441
0.00025228
0.127578
-0.00013628
0.128758
-0.00117995
-0.00093974
0.129697
0.133673
6.33706e-05
0.133166
0.000370916
0.134478
-0.00249188
-0.00132895
0.134867
0.13155
-0.00337866
0.134682
-0.002761
0.133403
-0.0012131
0.000703684
0.131371
0.10635
0.000611402
0.116268
-0.0126793
0.111656
0.00339953
0.100907
0.0114522
0.130785
-0.00108795
0.130435
0.000350774
0.129796
0.000638586
0.128814
0.000982026
0.128731
8.29278e-05
0.12923
-0.000498586
0.129174
5.52371e-05
0.129112
6.27813e-05
0.128054
0.00105726
0.126927
0.00112776
0.124539
0.00238801
0.121852
0.00268622
0.118543
0.00330885
0.11566
0.00288345
0.114026
0.00163363
0.113184
0.000842696
0.11434
-0.00115599
0.116065
-0.0017253
0.119582
-0.00351734
0.122772
-0.00318959
0.12578
-0.0030077
0.1277
-0.00192013
0.127925
-0.000225155
0.126826
0.00109904
0.123425
0.00340137
0.119515
0.00390965
0.114242
0.00527299
0.109782
0.00446003
0.105651
0.004131
0.102713
0.00293811
0.101282
0.00143092
0.100309
0.00097324
0.101981
-0.00167234
0.103488
-0.00150725
0.105753
-0.00226466
0.107073
-0.0013205
0.107183
-0.000109598
0.106889
0.000294078
0.105615
0.00127339
0.00092734
0.134959
-0.00118024
0.134331
0.000979457
0.133943
0.0010261
0.134264
0.000661621
0.134934
-0.000587889
0.135134
-0.000697971
0.1356
-0.000410684
0.136175
-0.00051249
0.136106
0.00112611
0.135316
0.00191843
0.133268
0.00443535
0.130937
0.00501743
0.128084
0.00616142
0.125236
0.00573215
0.122855
0.00401479
0.122031
0.00166605
0.122666
-0.00179085
0.124889
-0.00394861
0.128224
-0.00685149
0.131578
-0.00654426
0.13477
-0.00619936
0.137679
-0.00482918
0.139223
-0.00176884
0.139347
0.000974792
0.137202
0.00554582
0.134748
0.00636435
0.131382
0.00863834
0.128399
0.00744327
0.125063
0.00746766
0.120916
0.00708468
0.117398
0.00494848
0.114733
0.0036388
0.114372
-0.00131181
0.114983
-0.00211747
0.117135
-0.00441752
0.119131
-0.00331643
0.120457
-0.00143538
0.121452
-0.000700804
0.121105
0.00162024
0.000656095
0.131354
-0.00116325
0.13111
0.00122258
0.131242
0.000894426
0.132452
-0.000548161
0.131754
0.000110183
0.131568
-0.000512248
0.132748
-0.00159018
0.134081
-0.00184602
0.135576
-0.000368394
0.135606
0.00188848
0.135084
0.00495669
0.132451
0.00765116
0.129108
0.00950402
0.125935
0.00890468
0.123361
0.00658919
0.121353
0.00367383
0.119705
-0.000142456
0.120152
-0.00439622
0.120749
-0.00744755
0.122848
-0.00864359
0.125711
-0.00906223
0.129169
-0.00828791
0.132693
-0.00529224
0.136204
-0.00253641
0.138199
0.00355104
0.137402
0.00716084
0.134083
0.011958
0.128771
0.012755
0.122301
0.0139375
0.116169
0.0132171
0.112111
0.00900606
0.110096
0.00565379
0.10988
-0.00109529
0.110975
-0.00321324
0.112454
-0.00589588
0.113398
-0.00426073
0.114063
-0.0021006
0.115006
-0.00164392
0.115842
0.00078448
0.000621921
0.112722
-0.0129777
0.10264
0.0113048
0.0982582
0.00527591
0.100469
-0.00275908
0.0943271
0.00625218
0.0941462
-0.000331315
0.0947895
-0.00223353
0.0961428
-0.0031993
0.0997885
-0.00401411
0.103216
-0.0015394
0.108574
-0.000401253
0.113392
0.00283367
0.115577
0.00731927
0.114028
0.0104535
0.109331
0.0112855
0.101518
0.0114873
0.0932602
0.00811534
0.0862052
0.00265877
0.0809899
-0.00223226
0.080497
-0.00815061
0.0829626
-0.0115279
0.0885038
-0.0138291
0.0951098
-0.0118983
0.101795
-0.00922119
0.109592
-0.0042462
0.114958
0.00179486
0.122263
0.00465254
0.128568
0.00645006
0.134018
0.00848791
0.138952
0.00828306
0.141652
0.00630557
0.140381
0.00692504
0.134342
0.0049439
0.128016
0.00311261
0.119775
0.00234489
0.112788
0.00272672
0.107539
0.00314799
0.101681
0.00421432
0.0953094
0.007156
0.0041121
0.110096
0.000102768
0.088432
-5.57445e-05
0.0878885
5.70207e-05
0.00026973
0.110016
-0.0099133
0.0883393
0.0216211
0.0877778
0.000618516
0.0880475
-0.00188478
0.00249617
0.0176809
-0.032245
0.0153834
0.00569707
0.046811
-0.0199755
-0.00489046
0.00738663
-0.0183562
-0.0187792
-0.0172318
0.00457262
0.0222767
0.00730251
-0.0127246
-0.0202286
-0.00885708
0.00743723
-0.00934143
0.00576026
0.00214539
-0.0142459
0.00110114
0.00729643
-0.000954504
0.00172433
0.00835403
-0.0115421
0.0151131
-0.00995833
0.0189109
-0.00781193
0.0230089
-0.00563739
0.0260862
-0.00347855
0.0286054
0.000314434
0.0302554
0.00566931
0.0304908
0.010218
0.0287397
0.0130366
0.0270726
0.0131543
0.027056
0.00813198
0.0281504
0.00156439
0.0297888
-0.00387066
0.0315916
-0.00995338
0.0345884
-0.0145247
0.0382677
-0.0175084
0.0425224
-0.0161529
0.0454844
-0.0121832
0.0493928
-0.00815459
0.0526895
-0.00150176
0.052347
0.00499495
0.051546
0.00725107
0.049148
0.0108859
0.0446736
0.0127575
0.0414792
0.00949996
0.0400564
0.00834782
0.0393084
0.0056919
0.0399779
0.00244314
0.0416192
0.000703608
0.0423988
0.00194708
0.0438146
0.00173218
0.0444522
0.00357674
0.0435335
0.00807466
0.00382627
2.82456e-05
0.00201985
0.0060075
0.00145797
0.0142963
-0.00252859
0.00406139
-0.00401096
0.0076442
0.00371363
0.0128748
-0.00350622
0.00951242
-0.00817971
0.00586584
-0.00631175
0.0055642
-0.00751029
0.00879337
-0.00886657
0.0115414
-0.00622657
0.013538
-0.00168219
0.0168276
0.00237969
0.0203029
0.00674275
0.024738
0.0086016
0.0303495
0.00754272
0.0344503
0.00403119
0.0361381
-0.000123404
0.0359958
-0.00372836
0.0335872
-0.0075448
0.0296817
-0.0106192
0.0250807
-0.0129075
0.0213957
-0.0124679
0.0193186
-0.0101061
0.018002
-0.00683807
0.01928
-0.00277973
0.0208288
0.00344616
0.0215366
0.0065432
0.0243653
0.00805729
0.027282
0.00984076
0.029407
0.00737502
0.0325639
0.00519087
0.0367366
0.00151924
0.0390785
0.000101221
0.0413065
-0.00152437
0.0446107
-0.00135721
0.0467792
-0.000436279
0.0497862
0.000569768
0.0543844
0.00347644
0.00136912
0.103649
-0.0135621
0.094059
0.0312109
0.0994391
-0.0047616
0.039683
0.147804
0.0955581
-0.0091202
0.10833
0.0184392
0.103399
0.000168945
0.0189136
0.124169
0.0947409
-0.0038611
0.105802
0.00737834
0.102444
0.00352672
0.00916175
0.112196
0.0961389
0.103517
0.107044
0.116206
0.154523
-0.00671955
0.0451914
0.109332
0.125778
-0.00832868
0.0404004
0.130569
0.108837
-0.00496992
0.0158465
0.133391
0.111236
0.127082
0.114308
0.00241027
0.0970019
-0.00147307
0.0921164
0.00945815
0.00194173
0.0974772
0.132341
0.00063805
0.131727
-0.000859363
0.138822
0.0023631
0.00413812
0.136626
0.134585
-0.000556309
0.133347
0.000379279
0.134446
0.00126344
0.00246306
0.136121
0.126526
0.126905
0.128169
0.130632
0.0998179
-0.00032091
0.100451
0.000824442
0.099092
-0.00116906
0.0981899
-0.00310894
0.104025
-0.0021219
0.103619
-0.0030995
0.100026
-0.00458662
0.0981202
-0.00440635
0.0942289
-0.00361892
0.0878846
-0.0025223
0.082371
-0.000712927
0.0788504
0.00183838
0.0778023
0.00342779
0.0805079
0.00403713
0.0854475
0.00366195
0.0913556
0.00163466
0.0981265
-0.00273974
0.103528
-0.00552504
0.106675
-0.00687534
0.10513
-0.00599986
0.0986727
-0.0041617
0.0880321
-0.00226693
0.0759752
-0.000410969
0.0658816
-1.25046e-05
0.0573285
0.00171509
0.0541057
0.000443094
0.0548992
0.00265267
0.0586273
0.0028151
0.0636594
0.00302519
0.0699925
0.00350765
0.0776833
-0.000315794
0.0831377
-0.000263519
0.0896746
-0.00501767
0.093801
-0.00402516
0.0969142
-0.00463765
0.098993
-0.00343594
0.100141
-0.00158404
0.102395
-0.00168399
0.104637
0.00123379
-0.00125776
0.13485
0.00145515
0.134593
0.00108127
0.134456
-0.00103149
0.133745
-0.00239862
0.134922
-0.00329838
0.134937
-0.00311459
0.132703
-0.00235308
0.13107
-0.0027735
0.129143
-0.00169122
0.128501
-0.00188035
0.127359
0.000429322
0.127472
0.0017246
0.128251
0.00264923
0.129806
0.002482
0.132594
0.000874156
0.134725
-0.000496471
0.136037
-0.00405192
0.135291
-0.0047786
0.134821
-0.0064057
0.134274
-0.00545283
0.134128
-0.0040156
0.13404
-0.00217943
0.132622
0.00100715
0.13149
0.00111973
0.129002
0.0042034
0.126433
0.00301145
0.124474
0.00461199
0.123325
0.0039645
0.123774
0.00257577
0.125351
0.00193047
0.127127
-0.00209179
0.129295
-0.00243093
0.130033
-0.00575594
0.130904
-0.00489628
0.131993
-0.00572642
0.132618
-0.00406072
0.133504
-0.00247043
0.134037
-0.00221742
0.135386
-0.000114919
-0.00172531
0.136372
0.00120499
0.137124
0.000328935
0.136829
-0.000737128
0.135831
-0.00140025
0.134274
-0.00174107
0.133262
-0.00210288
0.132409
-0.0015001
0.131037
-0.00140126
0.129924
-0.000578423
0.129064
-0.00102011
0.129507
-1.40391e-05
0.130629
0.000602998
0.132148
0.00112955
0.133766
0.000864456
0.134786
-0.000145371
0.135003
-0.000713461
0.133504
-0.00255378
0.131567
-0.00284155
0.128639
-0.00347718
0.125988
-0.00280196
0.12407
-0.00209772
0.123056
-0.0011653
0.123488
0.000575189
0.124037
0.000570416
0.126181
0.00205984
0.127523
0.00166934
0.129795
0.00233955
0.131813
0.00194655
0.133034
0.00135479
0.13463
0.000334501
0.134017
-0.00147807
0.133839
-0.00225386
0.131792
-0.00370872
0.130016
-0.00311978
0.127634
-0.00334423
0.125663
-0.0020904
0.124378
-0.00118523
0.122963
-0.000802322
0.122959
-0.000110508
-0.00099219
0.131837
0.132166
0.131429
0.130028
0.128287
0.126184
0.124684
0.123283
0.122705
0.121684
0.12167
0.122273
0.123403
0.124267
0.124122
0.123409
0.120855
0.118013
0.114536
0.111734
0.109636
0.108471
0.109046
0.109617
0.111677
0.113346
0.115685
0.117632
0.118987
0.119321
0.117843
0.115589
0.111881
0.108761
0.105417
0.103326
0.102141
0.101339
0.101228
)
;

boundaryField
{
    inlet
    {
        type            calculated;
        value           nonuniform List<scalar> 10(-0.1 -0.1 -0.1 -0.1 -0.1 -0.1 -0.1 -0.1 -0.1 -0.1);
    }
    outlet
    {
        type            calculated;
        value           nonuniform List<scalar> 10(0.104688 0.121376 0.115876 0.0918192 0.0438194 0.0568415 0.107264 0.135854 0.122225 0.100236);
    }
    obstacle
    {
        type            calculated;
        value           uniform 0;
    }
    upperWall
    {
        type            calculated;
        value           uniform 0;
    }
    lowerWall
    {
        type            calculated;
        value           uniform 0;
    }
    frontAndBack
    {
        type            empty;
        value           nonuniform List<scalar> 0();
    }
}


// ************************************************************************* //
