/*--------------------------------*- C++ -*----------------------------------*\
  =========                 |
  \\      /  F ield         | OpenFOAM: The Open Source CFD Toolbox
   \\    /   O peration     | Website:  https://openfoam.org
    \\  /    A nd           | Version:  10
     \\/     M anipulation  |
\*---------------------------------------------------------------------------*/
FoamFile
{
    format      ascii;
    class       surfaceScalarField;
    location    "1.8";
    object      phi;
}
// * * * * * * * * * * * * * * * * * * * * * * * * * * * * * * * * * * * * * //

dimensions      [0 3 -1 0 0 0 0];

internalField   nonuniform List<scalar> 
928
(
0.0963778
0.00362218
0.103414
-0.00703607
0.106776
-0.00336223
-0.00953973
0.116316
0.0950636
0.00855863
0.105955
-0.0179273
0.103473
-0.000880013
-0.0194199
0.113353
0.0953621
0.0131965
0.11036
-0.032925
0.104037
0.00544239
-0.0418275
0.126445
0.102526
0.0106709
0.0917158
-0.0221152
0.0970119
0.000146356
0.144602
-0.089418
0.110973
0.00534274
-0.0167003
0.127673
0.109823
0.00887205
-0.0416677
0.134791
0.127792
0.00752454
-0.048894
0.135019
0.152127
0.103233
0.127338
0.000334969
0.127754
-0.000415828
0.129164
-0.00140972
-0.00169323
0.130857
0.13607
-0.000944341
0.136132
-0.000477355
0.13597
-0.00124814
-0.00353291
0.13781
0.136363
-0.00228862
0.138494
-0.00260864
0.14195
-0.00470365
-0.00153654
0.139953
0.11011
-0.00916558
0.082953
0.0245483
0.0821116
-0.00386231
0.0808621
-0.000286977
0.132466
-0.00160834
0.134071
-0.00160534
0.134856
-0.00078553
0.135094
-0.000237685
0.134524
0.000570306
0.133871
0.00065305
0.133243
0.00062822
0.131721
0.00152119
0.129773
0.00194853
0.126986
0.00278685
0.124569
0.00241672
0.122442
0.00212683
0.120886
0.00155632
0.119979
0.000906897
0.119277
0.000702464
0.119251
2.57461e-05
0.119032
0.000218542
0.118908
0.000124212
0.117989
0.000919692
0.116636
0.00135281
0.114905
0.0017304
0.112745
0.00215987
0.110946
0.00179988
0.108834
0.00211156
0.10743
0.00140398
0.105898
0.00153186
0.104918
0.000979884
0.104138
0.000780683
0.103482
0.000655643
0.103388
9.39772e-05
0.102943
0.00044509
0.103353
-0.000410002
0.103288
6.45447e-05
0.104128
-0.000839812
0.104935
-0.000806662
0.106021
-0.00108647
0.107471
-0.00144924
0.108167
-0.000696874
0.109229
-0.00106126
0.000283335
0.140305
-0.00410362
0.141263
-0.00256315
0.141716
-0.00123837
0.142894
-0.00141603
0.144254
-0.000789449
0.144563
0.000343556
0.143647
0.00154503
0.141965
0.00320295
0.140125
0.00378857
0.137751
0.0051604
0.135798
0.00436988
0.133812
0.00411251
0.132278
0.00309034
0.131438
0.00174689
0.131048
0.00109303
0.13156
-0.000486077
0.131823
-4.52969e-05
0.132346
-0.000397954
0.131773
0.00149216
0.130715
0.00241064
0.129381
0.00306483
0.127756
0.00378527
0.126373
0.00318198
0.124653
0.0038316
0.123574
0.00248301
0.122317
0.00278877
0.121484
0.00181348
0.121055
0.00120909
0.120443
0.00126776
0.120747
-0.000209769
0.120404
0.00078826
0.120804
-0.000810497
0.121129
-0.000259735
0.121728
-0.00143871
0.122811
-0.00189058
0.12368
-0.00195454
0.125245
-0.0030152
0.126004
-0.00145554
0.127625
-0.00268206
-0.000343666
0.137107
-0.00125748
0.136071
-0.0015265
0.138331
-0.00349844
0.140399
-0.00348438
0.14088
-0.00126993
0.14214
-0.000916789
0.141761
0.00192376
0.141944
0.0030196
0.141205
0.00452852
0.1405
0.00586502
0.139341
0.00552876
0.138261
0.00519295
0.137171
0.00418013
0.136245
0.00267267
0.135795
0.00154347
0.1354
-9.1011e-05
0.135937
-0.000583073
0.136507
-0.000967551
0.137298
0.000700738
0.138063
0.0016459
0.138349
0.00277881
0.138469
0.00366549
0.137828
0.00382299
0.137414
0.00424517
0.136334
0.00356326
0.135456
0.00366716
0.134454
0.00281499
0.133424
0.0022391
0.132565
0.00212721
0.131382
0.000972623
0.130695
0.00147569
0.129543
0.000341726
0.128504
0.000778603
0.127314
-0.000248282
0.126321
-0.000897914
0.125306
-0.0009389
0.125114
-0.00282366
0.124972
-0.00131328
0.125882
-0.00359253
-0.00155489
0.0770292
0.00257537
0.0750554
0.000447326
0.0771219
-0.00556497
0.0770287
-0.00339111
0.0752404
0.000518374
0.0756085
-0.0012849
0.0791878
-0.00165552
0.0829512
-0.000743843
0.0842243
0.0032554
0.0855154
0.00457392
0.0860232
0.00502099
0.0853067
0.00590947
0.0837502
0.00573664
0.0820164
0.00440644
0.0817203
0.00183956
0.0823149
-0.000685591
0.0842662
-0.00253436
0.0871844
-0.00388573
0.0920082
-0.00412308
0.0968322
-0.00317817
0.101587
-0.0019764
0.105603
-0.000349554
0.108665
0.000760329
0.111219
0.00169113
0.11209
0.00269244
0.112392
0.00336565
0.111546
0.00366067
0.109358
0.00442655
0.106288
0.00519731
0.101756
0.00550463
0.0968348
0.00639717
0.0908294
0.00634709
0.0855135
0.00609454
0.0803569
0.00490837
0.0767267
0.00273224
0.0747871
0.0010007
0.0743019
-0.00233848
0.0759556
-0.00296699
0.0793851
-0.00702199
-0.00545317
0.111605
-0.000933934
0.0888295
0.000660097
0.0906577
-0.00168185
0.0012397
0.108918
-0.00985211
0.0881046
0.0214737
0.0858173
0.000605498
0.087057
0.000469716
-0.00963529
-0.0179019
0.04292
-0.0171012
-0.00466308
-0.0313006
0.0139125
-0.00462954
-0.00500575
0.020918
0.0173724
0.0164614
-0.000206451
-0.00389435
-0.0109449
-0.00256886
0.0190567
-0.0075667
0.00544517
-0.00545372
-0.00767795
0.00382848
-0.0126733
-0.0145394
0.0188862
-0.0118941
-0.0039302
0.00182352
-0.0153731
-0.00452713
0.0056068
0.000664258
-0.00193598
0.00387765
0.00136052
0.00544435
0.00345429
0.00718054
0.00417328
0.00906967
0.0038475
0.0117115
0.00176462
0.0141048
-0.000553718
0.0165758
-0.00315665
0.019929
-0.00588749
0.023749
-0.00770581
0.0264135
-0.00678757
0.0288427
-0.00560733
0.0309587
-0.00409245
0.0320579
-0.0014487
0.0324813
0.000336933
0.032524
0.00164844
0.0323961
0.00282035
0.0317508
0.00401096
0.0311711
0.00424037
0.0309942
0.00460345
0.0310557
0.00513577
0.0308332
0.0057271
0.030633
0.00659744
0.0311828
0.00579721
0.0319033
0.00537404
0.0326891
0.00412264
0.0343549
0.00106638
0.0361079
-0.0007523
0.0372228
-0.00345338
0.0393389
-0.00508305
0.0421111
-0.00979425
-0.00761448
0.00251215
0.0126502
0.00611629
0.00184103
0.000454391
-0.00201605
-0.0101828
-0.0020361
-0.000704233
0.00940764
0.00459909
-0.00923352
-0.00289653
-0.0078775
0.000158881
0.00255139
0.00451487
-0.00629197
0.00903035
-0.00315496
0.0123131
0.000171553
0.0159715
0.000514883
0.0195856
0.000233438
0.0232176
-0.00186743
0.025594
-0.00293007
0.0267859
-0.00434861
0.0270217
-0.0061233
0.0263757
-0.00705975
0.0257138
-0.00612572
0.0252811
-0.00517461
0.0248679
-0.00367926
0.0249887
-0.00156948
0.0255126
-0.000186996
0.0256315
0.00152957
0.0263712
0.00208061
0.0278519
0.00253033
0.029401
0.00269123
0.0319028
0.00210165
0.0345506
0.00248795
0.0378503
0.00242742
0.0417199
0.00272789
0.0455899
0.00192719
0.0494402
0.00152372
0.0529558
0.000607038
0.0555381
-0.00151589
0.0569888
-0.00220301
0.0574489
-0.00391351
0.0564462
-0.00408038
0.0522901
-0.00563811
-0.00450903
0.10284
-0.0126918
0.0942539
0.0300595
0.0990534
-0.00419409
0.0401297
0.145981
0.0959678
-0.00865952
0.107617
0.01841
0.103781
-0.000358056
0.0199591
0.123952
0.0950497
-0.00370925
0.106143
0.00731632
0.102747
0.00303841
0.00997026
0.112736
0.0962908
0.103607
0.106645
0.116616
0.155244
-0.00926351
0.045368
0.109876
0.124321
-0.00963292
0.0423139
0.127375
0.108494
-0.00539134
0.0165736
0.134235
0.111224
0.127798
0.103039
0.00183186
0.112964
0.00744704
0.110813
0.00194486
-0.000123197
0.099991
0.13015
-0.000943295
0.137079
0.000518868
0.134769
0.00425434
0.00264846
0.131997
0.133419
-0.000127268
0.133335
0.00060191
0.135635
0.00195459
0.00167019
0.136614
0.127671
0.128273
0.130227
0.131897
0.107969
0.00467216
0.10691
0.00290018
0.103676
0.00121822
0.102212
-0.000572213
0.109906
0.00171387
0.102738
-0.00206614
0.0987707
-0.00391011
0.102762
-0.00143974
0.0985652
-0.00209529
0.0969087
-0.00149844
0.0983533
-0.00127312
0.100055
-0.00118671
0.102682
-0.00239372
0.10481
-0.00399578
0.107295
-0.00541498
0.109253
-0.00630655
0.108888
-0.00575832
0.106671
-0.00484264
0.103244
-0.00269858
0.0994323
-0.00136283
0.0953353
0.000417726
0.0921404
0.0016254
0.089779
0.00217443
0.0886606
0.00264794
0.0886932
0.00204802
0.0896097
0.00161384
0.0917256
0.000575377
0.0940147
-0.000187538
0.0968236
-0.000320931
0.100497
-0.00124561
0.103711
-0.00048633
0.108419
-0.00278102
0.112195
-0.00225172
0.117354
-0.00455243
0.120927
-0.00508917
0.125169
-0.00644424
0.129591
-0.00833645
0.132964
-0.00745273
0.137698
-0.0103723
-0.00464754
0.133675
0.00299446
0.134986
0.00158896
0.135079
0.00112565
0.135151
-0.000644456
0.137869
-0.00100411
0.136688
-0.000884785
0.134341
-0.0015633
0.134304
-0.00140232
0.134057
-0.00184853
0.133782
-0.00122407
0.134529
-0.00201962
0.135151
-0.00180852
0.135422
-0.00266535
0.134743
-0.00331615
0.133394
-0.004066
0.131938
-0.00485035
0.130366
-0.00418687
0.129613
-0.00408966
0.128813
-0.00189841
0.128044
-0.000593983
0.127663
0.000799057
0.127472
0.00181572
0.127896
0.00175117
0.128252
0.00229113
0.129073
0.00122746
0.129666
0.00102116
0.130577
-0.000336087
0.131363
-0.000973139
0.132152
-0.0011106
0.133127
-0.00221992
0.133988
-0.00134715
0.134556
-0.00334954
0.134585
-0.00228099
0.134042
-0.00400918
0.13208
-0.00312732
0.129177
-0.00354098
0.124789
-0.00394804
0.120002
-0.00266627
0.114737
-0.00510724
-0.00171832
0.138185
0.00142323
0.138982
0.000791731
0.13961
0.00049805
0.13937
-0.000404793
0.13916
-0.000794288
0.139288
-0.00101272
0.138635
-0.000909906
0.137688
-0.000455968
0.136874
-0.00103448
0.136479
-0.000828863
0.13581
-0.00135032
0.13522
-0.00121854
0.134235
-0.0016804
0.132874
-0.00195565
0.131095
-0.00228677
0.129057
-0.00281273
0.127072
-0.00220191
0.125044
-0.00206143
0.124122
-0.000975767
0.124065
-0.000537233
0.124604
0.000259444
0.125641
0.000778933
0.1267
0.00069261
0.127943
0.00104822
0.128934
0.000235788
0.129795
0.000160674
0.12997
-0.000511498
0.129754
-0.000756524
0.129503
-0.00086013
0.128623
-0.00133954
0.128229
-0.000953542
0.126739
-0.00185902
0.125761
-0.00130297
0.124165
-0.00241346
0.12285
-0.00181225
0.121692
-0.00238278
0.119784
-0.00204055
0.118554
-0.00143651
0.115153
-0.00170575
2.95073e-05
0.133321
0.134112
0.13461
0.134206
0.133411
0.132399
0.131489
0.131033
0.129998
0.129169
0.127819
0.126601
0.12492
0.122964
0.120678
0.117865
0.115663
0.113602
0.112626
0.112089
0.112348
0.113127
0.11382
0.114868
0.115104
0.115264
0.114753
0.113996
0.113136
0.111797
0.110843
0.108984
0.107681
0.105268
0.103455
0.101073
0.0990321
0.0975956
0.0958898
)
;

boundaryField
{
    inlet
    {
        type            calculated;
        value           nonuniform List<scalar> 10(-0.1 -0.1 -0.1 -0.1 -0.1 -0.1 -0.1 -0.1 -0.1 -0.1);
    }
    outlet
    {
        type            calculated;
        value           nonuniform List<scalar> 10(0.108945 0.128252 0.127093 0.0832834 0.0442724 0.0491846 0.137837 0.111808 0.113405 0.0959193);
    }
    obstacle
    {
        type            calculated;
        value           uniform 0;
    }
    upperWall
    {
        type            calculated;
        value           uniform 0;
    }
    lowerWall
    {
        type            calculated;
        value           uniform 0;
    }
    frontAndBack
    {
        type            empty;
        value           nonuniform List<scalar> 0();
    }
}


// ************************************************************************* //
