/*--------------------------------*- C++ -*----------------------------------*\
  =========                 |
  \\      /  F ield         | OpenFOAM: The Open Source CFD Toolbox
   \\    /   O peration     | Website:  https://openfoam.org
    \\  /    A nd           | Version:  10
     \\/     M anipulation  |
\*---------------------------------------------------------------------------*/
FoamFile
{
    format      ascii;
    class       volScalarField;
    location    "2.725";
    object      p;
}
// * * * * * * * * * * * * * * * * * * * * * * * * * * * * * * * * * * * * * //

dimensions      [0 2 -2 0 0 0 0];

internalField   nonuniform List<scalar> 
400
(
8.85147e-12
-2.77772e-05
2.9753e-06
6.47251e-05
0.000161705
0.000293618
0.000459146
0.000656349
0.000882284
0.00113278
0.00140223
0.00168349
0.00196783
0.00224504
0.00250375
0.00273196
0.00291756
0.0030497
0.00312714
0.00311032
2.69527e-05
-2.26341e-06
2.82247e-05
8.73164e-05
0.000180342
0.000307489
0.000467766
0.00065955
0.000880194
0.00112581
0.001391
0.00166877
0.00195071
0.00222658
0.00248491
0.00271352
0.0029
0.00303336
0.00311317
0.00309506
-6.68918e-06
-3.97731e-05
-1.03616e-05
4.73812e-05
0.000139365
0.000266024
0.000426672
0.000620032
0.000843801
0.00109438
0.00136666
0.00165407
0.00194761
0.00223677
0.00250945
0.00275244
0.00295195
0.00309539
0.00318183
0.00316103
-7.58452e-05
-0.000112739
-8.45725e-05
-2.81832e-05
6.30932e-05
0.000190112
0.000352674
0.000550035
0.000780423
0.00104071
0.00132615
0.00163029
0.00194431
0.00225697
0.00255492
0.00282327
0.00304593
0.00320757
0.0033061
0.0032841
-0.000185734
-0.000227172
-0.000200478
-0.000145445
-5.4451e-05
7.39351e-05
0.000240175
0.000444249
0.000685113
0.000960331
0.00126571
0.00159504
0.00193954
0.0022873
0.00262349
0.00293062
0.00318918
0.00337943
0.00349719
0.00347501
-0.000337962
-0.000385176
-0.000360428
-0.000307187
-0.0002166
-8.64867e-05
8.44897e-05
0.000297265
0.000551779
0.000846549
0.00117823
0.00154123
0.00192702
0.00232303
0.00271263
0.00307507
0.0033859
0.00361881
0.00376577
0.00374491
-0.000534317
-0.000588862
-0.000566907
-0.000516515
-0.000427257
-0.00029599
-0.000120247
0.000102149
0.000372433
0.000690438
0.00105409
0.00145888
0.00189723
0.00235611
0.00281711
0.00325563
0.00364052
0.0039358
0.00412661
0.00411027
-0.000777198
-0.000841011
-0.000823183
-0.000777484
-0.000691475
-0.000560805
-0.000381571
-0.000150026
0.000136718
0.000480215
0.000880203
0.00133403
0.00183633
0.00237408
0.00292766
0.00346853
0.00395712
0.00434347
0.00460046
0.00459583
-0.00106941
-0.00114489
-0.00113312
-0.00109493
-0.00101533
-0.000888465
-0.000708641
-0.000470184
-0.000168189
0.000201021
0.000639488
0.0011474
0.00172449
0.00235782
0.00302811
0.00370407
0.00433693
0.00485726
0.00521554
0.00523928
-0.00141409
-0.00150418
-0.00150108
-0.00147439
-0.00140587
-0.00128778
-0.00111224
-0.00087125
-0.00055756
-0.000165077
0.000310608
0.000872584
0.00153419
0.00227859
0.00309112
0.00394146
0.00477302
0.00549279
0.00600899
0.00610019
-0.00181472
-0.001923
-0.00193193
-0.00192208
-0.00187109
-0.00176882
-0.00160469
-0.00136803
-0.00104888
-0.000638429
-0.000130726
0.000469554
0.00122973
0.00209467
0.00307176
0.00413987
0.00524022
0.00625893
0.0070265
0.0072779
-0.00227537
-0.00240601
-0.00243101
-0.00244491
-0.00241995
-0.00234286
-0.00219979
-0.00197701
-0.00166156
-0.00124061
-0.00069888
-9.90906e-06
0.000778145
0.00174734
0.00289801
0.00422318
0.00567576
0.007137
0.00831702
0.00894336
-0.0028016
-0.00295855
-0.00300407
-0.00305039
-0.00306232
-0.00302233
-0.00291255
-0.00271604
-0.00241769
-0.0020035
-0.00145852
-0.000765815
8.48904e-05
0.00114743
0.00245968
0.00405772
0.00594275
0.0080351
0.0098883
0.0113944
-0.0034034
-0.00358876
-0.00365746
-0.00374675
-0.00380925
-0.00382104
-0.00375892
-0.00360251
-0.00333565
-0.00294534
-0.0024187
-0.00173783
-0.00087559
0.000211059
0.00160565
0.00341769
0.00575181
0.00866913
0.0115972
0.015173
-0.00408033
-0.00430726
-0.00440168
-0.00454842
-0.004677
-0.00475583
-0.00475594
-0.00465302
-0.00443045
-0.00407912
-0.00359453
-0.00297205
-0.00220018
-0.00125487
6.40902e-05
0.0018632
0.0044507
0.00835834
0.0127705
0.020181
-0.0049651
-0.00504755
-0.00516039
-0.0053646
-0.00560313
-0.00580156
-0.00590618
-0.00588074
-0.0057118
-0.00540227
-0.00496507
-0.00441102
-0.00374224
-0.00291505
-0.00193391
-0.000506877
0.00147032
0.00544311
0.0100739
0.0234044
-0.00565583
-0.00633227
-0.006392
-0.00678699
-0.00708659
-0.00731246
-0.00742474
-0.00740151
-0.00723822
-0.0069448
-0.00655702
-0.00611976
-0.00570733
-0.00540212
-0.00531728
-0.00559332
-0.00641555
-0.0038207
-0.000549409
0.0225111
-0.00865404
-0.00645917
-0.00660717
-0.00687986
-0.00747059
-0.00803034
-0.00845561
-0.00866085
-0.00863815
-0.00840348
-0.00804325
-0.00762847
-0.00734987
-0.00738772
-0.00821296
-0.00992969
-0.0146892
-0.014473
-0.0113784
0.0257508
-0.00612035
-0.00948683
-0.00940482
-0.0105111
-0.0110472
-0.0114132
-0.0115313
-0.0113973
-0.0110622
-0.0105361
-0.00995699
-0.00942095
-0.00915829
-0.00956454
-0.0113835
-0.0144412
-0.0231236
-0.0227381
-0.0114757
0.0531532
-0.0292407
-0.00557967
-0.00580051
-0.00660499
-0.00764571
-0.00869325
-0.00954619
-0.0100182
-0.0101772
-0.00992727
-0.00965957
-0.0091552
-0.00917404
-0.00924899
-0.0104504
-0.0108125
-0.00940054
0.0077519
0.0581929
0.17463
)
;

boundaryField
{
    movingWall
    {
        type            zeroGradient;
    }
    fixedWalls
    {
        type            zeroGradient;
    }
    frontAndBack
    {
        type            empty;
    }
}


// ************************************************************************* //
