/*--------------------------------*- C++ -*----------------------------------*\
  =========                 |
  \\      /  F ield         | OpenFOAM: The Open Source CFD Toolbox
   \\    /   O peration     | Website:  https://openfoam.org
    \\  /    A nd           | Version:  10
     \\/     M anipulation  |
\*---------------------------------------------------------------------------*/
FoamFile
{
    format      ascii;
    class       surfaceScalarField;
    location    "5.025";
    object      phi;
}
// * * * * * * * * * * * * * * * * * * * * * * * * * * * * * * * * * * * * * //

dimensions      [0 3 -1 0 0 0 0];

internalField   nonuniform List<scalar> 
760
(
-8.52359e-06
8.52358e-06
-2.82905e-05
1.97669e-05
-5.12601e-05
2.29696e-05
-7.44034e-05
2.31433e-05
-9.67743e-05
2.23709e-05
-0.000117929
2.11548e-05
-0.000137436
1.95071e-05
-0.000154769
1.73328e-05
-0.000169289
1.45196e-05
-0.000180244
1.09559e-05
-0.000186789
6.54473e-06
-0.000188024
1.23441e-06
-0.000183008
-5.01586e-06
-0.000170979
-1.20285e-05
-0.000151456
-1.95232e-05
-0.000124463
-2.69927e-05
-9.09123e-05
-3.35509e-05
-5.33824e-05
-3.75299e-05
-1.81296e-05
-3.52529e-05
-1.81296e-05
-2.06527e-05
2.91762e-05
-5.83479e-05
5.74621e-05
-0.000100573
6.51943e-05
-0.000142592
6.51629e-05
-0.000182677
6.24559e-05
-0.00021987
5.83474e-05
-0.00025331
5.2947e-05
-0.000282077
4.60997e-05
-0.000305153
3.75958e-05
-0.000321418
2.72213e-05
-0.000329624
1.47506e-05
-0.000328697
3.07255e-07
-0.000317258
-1.6455e-05
-0.000294411
-3.48755e-05
-0.000259653
-5.42808e-05
-0.000213246
-7.33997e-05
-0.000156738
-9.00594e-05
-9.41461e-05
-0.000100122
-3.46853e-05
-9.47137e-05
-5.28149e-05
-2.52725e-05
5.44488e-05
-6.99933e-05
0.000102183
-0.000119577
0.000114778
-0.000168645
0.000114231
-0.000215268
0.000109079
-0.000258374
0.000101453
-0.000297006
9.15798e-05
-0.000330162
7.92549e-05
-0.00035674
6.41747e-05
-0.000375535
4.60157e-05
-0.000385288
2.45031e-05
-0.000384503
-4.77385e-07
-0.000371785
-2.91734e-05
-0.000345924
-6.0736e-05
-0.000306151
-9.40539e-05
-0.000252503
-0.000127047
-0.000186516
-0.000156047
-0.000112708
-0.00017393
-4.19166e-05
-0.000165505
-9.47315e-05
-2.70598e-05
8.15086e-05
-7.50182e-05
0.000150141
-0.000128071
0.000167831
-0.00018055
0.00016671
-0.000230505
0.000159034
-0.000276892
0.00014784
-0.000318785
0.000133473
-0.000355203
0.000115672
-0.000385044
9.40157e-05
-0.000407053
6.80246e-05
-0.000419795
3.72449e-05
-0.000421776
1.50409e-06
-0.00041096
-3.9989e-05
-0.000385662
-8.60344e-05
-0.000344412
-0.000135304
-0.000286591
-0.000184868
-0.000213405
-0.000229233
-0.000129761
-0.000257573
-4.8398e-05
-0.000246868
-0.00014313
-2.83161e-05
0.000109825
-7.88947e-05
0.00020072
-0.000134897
0.000223833
-0.000190405
0.000222218
-0.000243492
0.000212121
-0.000293192
0.00019754
-0.00033867
0.000178951
-0.000379019
0.000156022
-0.000413187
0.000128184
-0.000439894
9.47312e-05
-0.00045757
5.49211e-05
-0.000464256
8.19031e-06
-0.000457664
-4.6581e-05
-0.000435073
-0.000108626
-0.000393905
-0.000176472
-0.00033229
-0.000246484
-0.000250507
-0.000311016
-0.000153832
-0.000354248
-5.78046e-05
-0.000342895
-0.000200934
-2.97509e-05
0.000139576
-8.3325e-05
0.000254294
-0.00014274
0.000283248
-0.000201784
0.000281263
-0.000258565
0.000268901
-0.000312236
0.000251211
-0.000362102
0.000228817
-0.000407399
0.00020132
-0.000447187
0.000167972
-0.000480225
0.00012777
-0.000504833
7.95287e-05
-0.000518726
2.2083e-05
-0.000519002
-4.6305e-05
-0.000501693
-0.000125934
-0.000462533
-0.000215633
-0.000397547
-0.000311469
-0.0003051
-0.000403463
-0.00019029
-0.000469058
-7.26852e-05
-0.000460501
-0.000273619
-3.15225e-05
0.000171098
-8.87059e-05
0.000311477
-0.000152192
0.000346733
-0.000215409
0.00034448
-0.000276513
0.000330006
-0.000334825
0.000309523
-0.000389857
0.000283849
-0.000441081
0.000252544
-0.000487783
0.000214673
-0.000528893
0.00016888
-0.000562761
0.000113397
-0.00058686
4.61817e-05
-0.000597715
-3.54497e-05
-0.000589782
-0.000133868
-0.000556412
-0.000249002
-0.000490244
-0.000377637
-0.000385907
-0.000507799
-0.000246648
-0.000608318
-9.72242e-05
-0.000609924
-0.000370843
-3.36614e-05
0.00020476
-9.51202e-05
0.000372936
-0.000163334
0.000414947
-0.000231293
0.000412439
-0.000297224
0.000395937
-0.000360671
0.000372969
-0.000421446
0.000344624
-0.000479375
0.000310473
-0.000534141
0.000269438
-0.000585069
0.000219808
-0.000630809
0.000159138
-0.000668846
8.42182e-05
-0.000695448
-8.84744e-06
-0.000703362
-0.000125954
-0.000682909
-0.000269456
-0.000621592
-0.000438954
-0.000507241
-0.00062215
-0.000337275
-0.000778284
-0.000140722
-0.000806477
-0.000511565
-3.62119e-05
0.000240971
-0.000102654
0.000439378
-0.000176212
0.000488505
-0.000249354
0.000485581
-0.000320405
0.000466988
-0.000389199
0.000441764
-0.000455949
0.000411373
-0.000520987
0.000375511
-0.000584614
0.000333066
-0.000646873
0.000282067
-0.000707173
0.000219438
-0.00076366
0.000140706
-0.000812497
3.99888e-05
-0.000846199
-9.22517e-05
-0.000851252
-0.000264402
-0.000808445
-0.000481761
-0.000694306
-0.000736289
-0.000492498
-0.000980092
-0.000225709
-0.00107327
-0.000737275
-3.92924e-05
0.000280264
-0.000111525
0.000511611
-0.000191014
0.000567994
-0.000269618
0.000564185
-0.000345801
0.000543171
-0.000419763
0.000515726
-0.00049222
0.000483831
-0.00056417
0.000447461
-0.000636786
0.000405681
-0.000711241
0.000356522
-0.000788357
0.000296554
-0.00086789
0.000220238
-0.000947021
0.00011912
-0.00102023
-1.90404e-05
-0.00107175
-0.000212881
-0.00107573
-0.000477783
-0.000992587
-0.000819434
-0.000776356
-0.00119632
-0.000406319
-0.0014433
-0.00114359
-4.31607e-05
0.000323425
-0.000122198
0.000590648
-0.000208199
0.000653996
-0.000292351
0.000648336
-0.000373328
0.000624149
-0.000451781
0.000594178
-0.000529012
0.000561062
-0.000606798
0.000525248
-0.000687397
0.00048628
-0.000773527
0.000442653
-0.00086821
0.000391236
-0.000974258
0.000326287
-0.00109299
0.000237852
-0.00122211
0.000110078
-0.00135263
-8.23637e-05
-0.00145636
-0.000374053
-0.0014746
-0.00080119
-0.00129759
-0.00137333
-0.000780401
-0.00196049
-0.00192399
-4.83241e-05
0.000371749
-0.000135559
0.000677883
-0.000228673
0.00074711
-0.000318221
0.000737883
-0.000403236
0.000709164
-0.000484913
0.000675855
-0.000565189
0.000641338
-0.000646637
0.000606695
-0.000732661
0.000572304
-0.000827813
0.000537805
-0.00093812
0.000501543
-0.00107122
0.000459389
-0.00123589
0.000402517
-0.00143977
0.000313965
-0.00168813
0.000165994
-0.00196958
-9.26038e-05
-0.00219807
-0.000572699
-0.00212108
-0.00145033
-0.00135674
-0.00272482
-0.00328074
-5.57345e-05
0.000427483
-0.000153175
0.000775323
-0.000254026
0.000847961
-0.000348519
0.000832376
-0.000436297
0.000796942
-0.000519262
0.00075882
-0.000599998
0.000722074
-0.00068168
0.000688378
-0.000768591
0.000659215
-0.000866872
0.000636086
-0.000985603
0.000620274
-0.00113831
0.000612094
-0.00134487
0.000609077
-0.00163306
0.000602159
-0.00203363
0.000566565
-0.00254408
0.000417845
-0.0030181
-9.8684e-05
-0.00296821
-0.00150021
-0.00184949
-0.00384354
-0.00513023
-6.77037e-05
0.000495187
-0.000178338
0.000885958
-0.000286892
0.000956515
-0.000384767
0.000930251
-0.000473367
0.000885542
-0.000555352
0.000840804
-0.000633468
0.00080019
-0.000711058
0.000765968
-0.00079272
0.000740876
-0.000885338
0.000728705
-0.000999984
0.000734919
-0.00115497
0.000767081
-0.00138065
0.000834759
-0.00172092
0.000942427
-0.00222129
0.00106693
-0.00285154
0.0010481
-0.00336857
0.000418342
-0.00320315
-0.00166564
-0.00193908
-0.00510761
-0.00706931
-8.24228e-05
0.00057761
-0.000209831
0.00101337
-0.00032886
0.00107554
-0.000432336
0.00103373
-0.000520654
0.00097386
-0.000598077
0.000918228
-0.000668586
0.000870698
-0.00073571
0.000833092
-0.000803142
0.000808308
-0.000876048
0.000801612
-0.000964008
0.000822879
-0.001084
0.000887069
-0.00126756
0.00101832
-0.00155627
0.00123115
-0.00198819
0.00149885
-0.0024836
0.0015435
-0.00285931
0.000794056
-0.00268046
-0.00184449
-0.00173563
-0.00605244
-0.00880494
-0.000147681
0.000725291
-0.000288383
0.00115407
-0.000398601
0.00118576
-0.000487112
0.00112224
-0.000564354
0.0010511
-0.000633776
0.00098765
-0.000696479
0.000933402
-0.000752619
0.000889231
-0.000802682
0.000858371
-0.000847248
0.000846177
-0.00088896
0.000864591
-0.000933314
0.000931423
-0.000995948
0.00108095
-0.0010861
0.00132129
-0.00123169
0.00164445
-0.00136972
0.00168153
-0.00150938
0.000933721
-0.00155465
-0.00179922
-0.00119919
-0.00640789
-0.0100041
-9.81204e-05
0.000823411
-0.000302731
0.00135868
-0.000457687
0.00134072
-0.000570288
0.00123484
-0.000650863
0.00113168
-0.00070901
0.0010458
-0.000750369
0.00097476
-0.00077723
0.000916093
-0.000789393
0.000870534
-0.000782232
0.000839016
-0.000749755
0.000832114
-0.000678213
0.000859881
-0.000557312
0.000960054
-0.000362616
0.0011266
-9.64475e-05
0.00137828
0.000141707
0.00144338
0.000253686
0.000821742
-8.33999e-05
-0.00146214
-0.000236398
-0.0062549
-0.0102405
-0.00038931
0.00121272
-0.000484688
0.00145406
-0.000578298
0.00143433
-0.000664492
0.00132103
-0.00070707
0.00117425
-0.000713941
0.00105267
-0.000693329
0.000954148
-0.000647564
0.000870327
-0.000581428
0.000804399
-0.000488543
0.000746131
-0.000365849
0.00070942
-0.000193634
0.000687666
5.66509e-05
0.000709768
0.000408667
0.000774581
0.000906386
0.000880557
0.00145196
0.000897804
0.00194303
0.000330671
0.00176468
-0.00128379
0.000944882
-0.0054351
-0.00929565
-0.0013441
0.00255682
-0.00130372
0.00141368
-0.00106031
0.00119092
-0.000709625
0.000970348
-0.000336714
0.000801344
3.71861e-05
0.000678768
0.000399298
0.000592037
0.000745002
0.000524623
0.00107523
0.000474167
0.001392
0.00042937
0.00170199
0.000399429
0.00201458
0.000375076
0.00236038
0.000363962
0.00276361
0.000371352
0.00330696
0.000337208
0.00393728
0.000267489
0.00443578
-0.00016783
0.00435381
-0.00120182
0.00268954
-0.00377082
-0.00660611
0.00255682
0.0039705
0.00516142
0.00613176
0.00693311
0.00761188
0.00820391
0.00872854
0.0092027
0.00963207
0.0100315
0.0104066
0.0107705
0.0111419
0.0114791
0.0117466
0.0115788
0.0103769
0.00660611
)
;

boundaryField
{
    movingWall
    {
        type            calculated;
        value           uniform 0;
    }
    fixedWalls
    {
        type            calculated;
        value           uniform 0;
    }
    frontAndBack
    {
        type            empty;
        value           nonuniform List<scalar> 0();
    }
}


// ************************************************************************* //
