/*--------------------------------*- C++ -*----------------------------------*\
  =========                 |
  \\      /  F ield         | OpenFOAM: The Open Source CFD Toolbox
   \\    /   O peration     | Website:  https://openfoam.org
    \\  /    A nd           | Version:  10
     \\/     M anipulation  |
\*---------------------------------------------------------------------------*/
FoamFile
{
    format      ascii;
    class       surfaceScalarField;
    location    "3.525";
    object      phi;
}
// * * * * * * * * * * * * * * * * * * * * * * * * * * * * * * * * * * * * * //

dimensions      [0 3 -1 0 0 0 0];

internalField   nonuniform List<scalar> 
760
(
-1.0141e-05
1.0141e-05
-3.0224e-05
2.0083e-05
-5.20468e-05
2.18228e-05
-7.32523e-05
2.12055e-05
-9.31113e-05
1.9859e-05
-0.000111169
1.80582e-05
-0.000126989
1.582e-05
-0.000140117
1.31273e-05
-0.000150083
9.9665e-06
-0.000156418
6.33463e-06
-0.000158663
2.24483e-06
-0.000156396
-2.26698e-06
-0.000149283
-7.11267e-06
-0.00013713
-1.21533e-05
-0.000119939
-1.71909e-05
-9.79809e-05
-2.1958e-05
-7.19102e-05
-2.60707e-05
-4.31249e-05
-2.87852e-05
-1.53448e-05
-2.77801e-05
-1.53448e-05
-2.07618e-05
3.09028e-05
-5.53908e-05
5.4712e-05
-9.21756e-05
5.86075e-05
-0.000127662
5.66917e-05
-0.00016061
5.28073e-05
-0.000190207
4.76548e-05
-0.000215713
4.13265e-05
-0.000236415
3.38295e-05
-0.000251621
2.51718e-05
-0.000260664
1.53781e-05
-0.000262928
4.50888e-06
-0.000257911
-7.28451e-06
-0.000245182
-1.98413e-05
-0.000224568
-3.27669e-05
-0.000196181
-4.55779e-05
-0.000160521
-5.76184e-05
-0.000118637
-6.79548e-05
-7.26535e-05
-7.47686e-05
-2.78306e-05
-7.2603e-05
-4.31754e-05
-2.39856e-05
5.48884e-05
-6.32866e-05
9.4013e-05
-0.000104806
0.000100127
-0.000144755
9.66405e-05
-0.00018179
8.98421e-05
-0.000215025
8.08898e-05
-0.000243658
6.99592e-05
-0.000266917
5.70888e-05
-0.000284057
4.23119e-05
-0.000294367
2.56879e-05
-0.000297198
7.34023e-06
-0.000291858
-1.26246e-05
-0.000277907
-3.37928e-05
-0.00025508
-5.55939e-05
-0.000223403
-7.72545e-05
-0.000183334
-9.76873e-05
-0.000135963
-0.000115326
-8.36305e-05
-0.000127101
-3.22799e-05
-0.000123954
-7.54553e-05
-2.55022e-05
8.03906e-05
-6.73927e-05
0.000135903
-0.000111607
0.000144342
-0.000154167
0.0001392
-0.0001937
0.000129375
-0.000229312
0.000116501
-0.000260189
0.000100836
-0.000285543
8.24436e-05
-0.000304599
6.13675e-05
-0.000316588
3.76769e-05
-0.000320771
1.1523e-05
-0.000316376
-1.70197e-05
-0.000302705
-4.74631e-05
-0.000279278
-7.90215e-05
-0.000245903
-0.00011063
-0.000202854
-0.000140735
-0.000151147
-0.000167033
-9.33129e-05
-0.000184935
-3.60791e-05
-0.000181188
-0.000111534
-2.7104e-05
0.000107495
-7.18203e-05
0.00018062
-0.000119039
0.000191561
-0.000164559
0.000184721
-0.000206984
0.0001718
-0.000245421
0.000154938
-0.000279062
0.000134478
-0.000307116
0.000110498
-0.000328779
8.30306e-05
-0.00034322
5.21171e-05
-0.000349569
1.78719e-05
-0.000346897
-1.96911e-05
-0.000334221
-6.01398e-05
-0.0003107
-0.000102542
-0.000275732
-0.000145598
-0.000229215
-0.000187252
-0.000171972
-0.000224277
-0.000106757
-0.000250149
-4.14393e-05
-0.000246505
-0.000152974
-2.91637e-05
0.000136658
-7.74627e-05
0.000228919
-0.000128489
0.000242587
-0.000177759
0.00023399
-0.000223842
0.000217883
-0.000265862
0.000196959
-0.000303035
0.000171651
-0.000334582
0.000142045
-0.000359689
0.000108137
-0.000377466
6.9894e-05
-0.000386916
2.73219e-05
-0.000386912
-1.96954e-05
-0.000376062
-7.09891e-05
-0.000353032
-0.000125573
-0.000316581
-0.000182048
-0.000265941
-0.000237893
-0.000201478
-0.00028874
-0.000126109
-0.000325519
-4.93268e-05
-0.000323288
-0.000202301
-3.1759e-05
0.000168417
-8.45211e-05
0.000281681
-0.000140259
0.000298325
-0.000194133
0.000287864
-0.000244686
0.000268436
-0.000291076
0.000243349
-0.00033257
0.000213146
-0.00036844
0.000177914
-0.000397897
0.000137595
-0.000420027
9.20242e-05
-0.000433717
4.1012e-05
-0.00043765
-1.57627e-05
-0.000429921
-7.87177e-05
-0.000408523
-0.000146971
-0.000371262
-0.00021931
-0.000316235
-0.00029292
-0.000242828
-0.000362146
-0.000153838
-0.000414509
-6.09808e-05
-0.000416145
-0.000263281
-3.4934e-05
0.000203351
-9.31114e-05
0.000339858
-0.000154504
0.000359718
-0.000213844
0.000347204
-0.000269654
0.000324246
-0.000321161
0.000294855
-0.000367728
0.000259713
-0.000408736
0.000218922
-0.000443488
0.000172347
-0.000471115
0.000119651
-0.000490445
6.03415e-05
-0.000500017
-6.1902e-06
-0.000497377
-8.13584e-05
-0.000479653
-0.000164694
-0.000443292
-0.000255671
-0.000384545
-0.000351667
-0.000300822
-0.000445868
-0.000194008
-0.000521323
-7.86919e-05
-0.000531461
-0.000341973
-3.87593e-05
0.000242111
-0.000103398
0.000404496
-0.00017143
0.00042775
-0.000237084
0.000412857
-0.000298881
0.000386044
-0.000356165
0.000352139
-0.000408462
0.00031201
-0.000455341
0.000265801
-0.000496305
0.000213311
-0.000530648
0.000153994
-0.000557267
8.696e-05
-0.000574669
1.12125e-05
-0.000579972
-7.60555e-05
-0.000569294
-0.000175372
-0.000537269
-0.000287697
-0.000477308
-0.000411627
-0.000383152
-0.000540024
-0.00025383
-0.000650645
-0.000107112
-0.000678179
-0.000449085
-4.33644e-05
0.000285475
-0.000115652
0.000476784
-0.000191364
0.000503463
-0.000264144
0.000485636
-0.000332558
0.000454458
-0.00039613
0.000415711
-0.000454635
0.000370515
-0.000507943
0.000319109
-0.000555894
0.000261262
-0.00059814
0.00019624
-0.00063392
0.00012274
-0.000661618
3.891e-05
-0.000678832
-5.88408e-05
-0.000680426
-0.000173778
-0.000658939
-0.000309184
-0.000603754
-0.000466813
-0.000502317
-0.00064146
-0.000346835
-0.000806127
-0.000156445
-0.00086857
-0.00060553
-4.89851e-05
0.00033446
-0.000130333
0.000558132
-0.000214831
0.000587961
-0.000295485
0.00056629
-0.000370982
0.000529955
-0.000441121
0.000485849
-0.000506028
0.000435422
-0.000565999
0.00037908
-0.000621376
0.00031664
-0.000672399
0.000247263
-0.00071895
0.000169291
-0.000760098
8.00581e-05
-0.000794066
-2.48729e-05
-0.000815414
-0.00015243
-0.000814826
-0.000309772
-0.000776738
-0.000504901
-0.000678795
-0.000739403
-0.000499879
-0.000985043
-0.000250921
-0.00111753
-0.000856451
-5.60552e-05
0.000390515
-0.000148217
0.000650294
-0.000242677
0.00068242
-0.00033183
0.000655444
-0.000414632
0.000612757
-0.000491281
0.000562498
-0.000562372
0.000506513
-0.000628749
0.000445457
-0.000691427
0.000379318
-0.000751505
0.000307341
-0.000809988
0.000227775
-0.000867348
0.000137418
-0.00092328
3.10589e-05
-0.000974252
-0.000101459
-0.00101072
-0.000273302
-0.00101298
-0.00050264
-0.00094598
-0.000806405
-0.000765506
-0.00116552
-0.000448062
-0.00143497
-0.00130451
-6.54112e-05
0.000455926
-0.000170629
0.000755512
-0.000276237
0.000788028
-0.000374288
0.000753495
-0.000464258
0.000702727
-0.000546911
0.000645151
-0.00062342
0.000583022
-0.000695268
0.000517305
-0.000764254
0.000448303
-0.000832544
0.000375631
-0.000902721
0.000297952
-0.000977632
0.000212328
-0.00105995
0.000113373
-0.00115215
-9.25012e-06
-0.00124774
-0.000177721
-0.00132983
-0.000420544
-0.00135192
-0.000784321
-0.00122784
-0.00128959
-0.000842062
-0.00182075
-0.00214658
-7.87492e-05
0.000534676
-0.000200071
0.000876834
-0.000317663
0.00090562
-0.000424453
0.000860285
-0.000520937
0.000799211
-0.000608559
0.000732773
-0.000689091
0.000663555
-0.000764675
0.000592889
-0.000837898
0.000521526
-0.000912065
0.000449798
-0.000991693
0.00037758
-0.00108298
0.00030362
-0.00119389
0.000224281
-0.00133353
0.000130384
-0.00151146
2.15534e-07
-0.00172731
-0.000204698
-0.00193019
-0.000581434
-0.00195004
-0.00126975
-0.00147013
-0.00230066
-0.0036167
-9.60543e-05
0.00063073
-0.000237575
0.00101835
-0.000369143
0.00103719
-0.000485267
0.000976408
-0.000587118
0.000901063
-0.00067757
0.000823225
-0.000759653
0.000745637
-0.000836157
0.000669392
-0.000910033
0.000595402
-0.000984967
0.000524732
-0.00106659
0.000459199
-0.00116416
0.000401197
-0.00129349
0.000353607
-0.00147864
0.000315531
-0.0017528
0.000274384
-0.00213422
0.000176716
-0.00257981
-0.000135841
-0.00272243
-0.00112713
-0.00200173
-0.00302137
-0.00561843
-0.000154547
0.000785277
-0.000309499
0.00117331
-0.000441384
0.00116907
-0.000555152
0.00109018
-0.000657042
0.00100295
-0.000748687
0.000914869
-0.000831558
0.000828509
-0.000907224
0.000745058
-0.000978266
0.000666444
-0.00104824
0.000594702
-0.00112356
0.000534524
-0.00121433
0.000491963
-0.00134015
0.00047943
-0.00153341
0.000508788
-0.00184455
0.000585527
-0.00228552
0.000617684
-0.00279909
0.000377736
-0.00291141
-0.00101481
-0.00193256
-0.00400022
-0.00755099
-0.000113632
0.000898909
-0.000336988
0.00139666
-0.000514972
0.00134706
-0.000654431
0.00122964
-0.000762646
0.00111117
-0.000847352
0.000999576
-0.000915526
0.000896682
-0.000971918
0.00080145
-0.00102043
0.000714957
-0.00106275
0.000637022
-0.00110254
0.000574311
-0.00114468
0.000534108
-0.00120287
0.000537613
-0.00129867
0.000604596
-0.0014835
0.000770354
-0.00174311
0.000877291
-0.0021032
0.000737824
-0.00215372
-0.000964281
-0.00132084
-0.0048331
-0.00887183
-0.000395538
0.00129445
-0.000528263
0.00152939
-0.00064641
0.0014652
-0.000751939
0.00133517
-0.000814065
0.00117329
-0.000843892
0.0010294
-0.000852121
0.000904912
-0.000844396
0.000793726
-0.000827831
0.000698393
-0.000802087
0.000611277
-0.000772479
0.000544703
-0.000733217
0.000494845
-0.000685403
0.000489798
-0.000609107
0.000528301
-0.000497958
0.000659206
-0.000345049
0.000724381
-9.47848e-05
0.00048756
-0.000109986
-0.00094908
4.67748e-05
-0.00498986
-0.00882506
-0.00129893
0.00259337
-0.00123023
0.00146069
-0.000986347
0.00122132
-0.000647483
0.000996301
-0.000294324
0.000820134
4.82218e-05
0.000686857
0.000365725
0.000587409
0.000656064
0.000503387
0.000917938
0.000436518
0.0011524
0.000376814
0.00137147
0.000325634
0.00157226
0.000294051
0.0017998
0.000262259
0.00206058
0.000267527
0.00246638
0.000253404
0.0029935
0.00019726
0.00355474
-7.36799e-05
0.00364498
-0.00103932
0.00232817
-0.00367305
-0.00649688
0.00259337
0.00405407
0.00527539
0.00627169
0.00709182
0.00777868
0.00836609
0.00886947
0.00930599
0.00968281
0.0100084
0.0103025
0.0105647
0.0108323
0.0110857
0.0112829
0.0112093
0.0101699
0.00649688
)
;

boundaryField
{
    movingWall
    {
        type            calculated;
        value           uniform 0;
    }
    fixedWalls
    {
        type            calculated;
        value           uniform 0;
    }
    frontAndBack
    {
        type            empty;
        value           nonuniform List<scalar> 0();
    }
}


// ************************************************************************* //
