/*--------------------------------*- C++ -*----------------------------------*\
  =========                 |
  \\      /  F ield         | OpenFOAM: The Open Source CFD Toolbox
   \\    /   O peration     | Website:  https://openfoam.org
    \\  /    A nd           | Version:  10
     \\/     M anipulation  |
\*---------------------------------------------------------------------------*/
FoamFile
{
    format      ascii;
    class       volVectorField;
    location    "3.525";
    object      U;
}
// * * * * * * * * * * * * * * * * * * * * * * * * * * * * * * * * * * * * * //

dimensions      [0 1 -1 0 0 0 0];

internalField   nonuniform List<vector> 
400
(
(-0.00014654 0.000143732 0)
(-0.000911305 0.000354675 0)
(-0.00207269 0.000394858 0)
(-0.00314631 0.00038683 0)
(-0.0041763 0.000365909 0)
(-0.0051289 0.000337433 0)
(-0.00597987 0.00030113 0)
(-0.00670738 0.000256045 0)
(-0.00728839 0.000201363 0)
(-0.00769931 0.000136571 0)
(-0.00791684 6.16348e-05 0)
(-0.00791872 -2.28205e-05 0)
(-0.00768566 -0.000115902 0)
(-0.00720412 -0.000214672 0)
(-0.00646887 -0.000314988 0)
(-0.00548542 -0.000411245 0)
(-0.00427745 -0.000495288 0)
(-0.00290687 -0.000551453 0)
(-0.00134762 -0.000528794 0)
(-0.000251346 -0.000261107 0)
(-0.000370668 0.000914981 0)
(-0.00176841 0.00171642 0)
(-0.00371488 0.00185361 0)
(-0.00552294 0.001798 0)
(-0.00724078 0.00168007 0)
(-0.0088128 0.00152268 0)
(-0.0101974 0.00132797 0)
(-0.011359 0.00109526 0)
(-0.0122625 0.000824069 0)
(-0.0128737 0.000514693 0)
(-0.0131606 0.000168572 0)
(-0.0130948 -0.000211386 0)
(-0.0126524 -0.000616716 0)
(-0.0118179 -0.001036 0)
(-0.0105891 -0.00145314 0)
(-0.00897941 -0.00184629 0)
(-0.00702917 -0.00218426 0)
(-0.00482878 -0.00240658 0)
(-0.00235628 -0.00232801 0)
(-0.000515045 -0.00133227 0)
(-0.000435556 0.00213785 0)
(-0.00203327 0.00370202 0)
(-0.00423261 0.00395156 0)
(-0.00627062 0.00381737 0)
(-0.0082032 0.00355103 0)
(-0.00996934 0.00319897 0)
(-0.0115238 0.00276799 0)
(-0.0128281 0.00225936 0)
(-0.0138443 0.00167426 0)
(-0.014536 0.00101504 0)
(-0.0148694 0.000286137 0)
(-0.0148103 -0.000504887 0)
(-0.0143297 -0.00134295 0)
(-0.0134098 -0.00220522 0)
(-0.0120437 -0.00305935 0)
(-0.0102411 -0.00386196 0)
(-0.00804223 -0.00455147 0)
(-0.00554582 -0.00500768 0)
(-0.00272471 -0.00487268 0)
(-0.000603898 -0.00294243 0)
(-0.000461435 0.00336798 0)
(-0.0021636 0.0057229 0)
(-0.0045081 0.00608519 0)
(-0.00667797 0.0058704 0)
(-0.00873854 0.00545615 0)
(-0.0106268 0.00491187 0)
(-0.012297 0.00424835 0)
(-0.01371 0.00346813 0)
(-0.0148268 0.0025732 0)
(-0.0156089 0.00156679 0)
(-0.016019 0.000455182 0)
(-0.0160186 -0.000749847 0)
(-0.0155704 -0.00203048 0)
(-0.0146443 -0.00335455 0)
(-0.0132224 -0.00467473 0)
(-0.0113039 -0.00592496 0)
(-0.00892145 -0.00700896 0)
(-0.00617969 -0.00773854 0)
(-0.00304567 -0.00756372 0)
(-0.000675407 -0.0046356 0)
(-0.000487895 0.00467785 0)
(-0.00230223 0.00787882 0)
(-0.00480715 0.00836122 0)
(-0.00712537 0.00806305 0)
(-0.00933244 0.00749638 0)
(-0.0113637 0.006755 0)
(-0.0131737 0.00585374 0)
(-0.0147234 0.00479607 0)
(-0.0159732 0.00358393 0)
(-0.0168826 0.00221997 0)
(-0.0174092 0.000709823 0)
(-0.0175081 -0.000934575 0)
(-0.0171305 -0.00269286 0)
(-0.0162301 -0.00452676 0)
(-0.0147696 -0.0063762 0)
(-0.0127271 -0.00815111 0)
(-0.0101191 -0.00971291 0)
(-0.00705511 -0.0107879 0)
(-0.00349608 -0.0105981 0)
(-0.000778206 -0.00655466 0)
(-0.000522559 0.00607969 0)
(-0.00247966 0.0101958 0)
(-0.00518769 0.0108087 0)
(-0.00769399 0.0104247 0)
(-0.0100864 0.00970165 0)
(-0.0122988 0.0087595 0)
(-0.0142865 0.00761742 0)
(-0.0160117 0.00627932 0)
(-0.0174352 0.00474597 0)
(-0.0185148 0.00301739 0)
(-0.0192038 0.00109549 0)
(-0.0194494 -0.001012 0)
(-0.0191879 -0.00328844 0)
(-0.0183504 -0.00569376 0)
(-0.0168708 -0.00815847 0)
(-0.0146934 -0.0105685 0)
(-0.0118029 -0.0127342 0)
(-0.00830604 -0.0142699 0)
(-0.00415356 -0.0141122 0)
(-0.000933501 -0.00879741 0)
(-0.000566735 0.00759699 0)
(-0.00270257 0.0127126 0)
(-0.00566278 0.0134681 0)
(-0.0084009 0.0129945 0)
(-0.0110204 0.0121097 0)
(-0.0134535 0.0109627 0)
(-0.015658 0.0095773 0)
(-0.017599 0.00795773 0)
(-0.0192392 0.00610225 0)
(-0.0205368 0.00400573 0)
(-0.021442 0.00166235 0)
(-0.021895 -0.00092989 0)
(-0.021815 -0.00376589 0)
(-0.0211033 -0.00681356 0)
(-0.0196536 -0.0100029 0)
(-0.0173561 -0.0132 0)
(-0.0141374 -0.0161561 0)
(-0.01008 -0.0183363 0)
(-0.00511424 -0.0182989 0)
(-0.00117088 -0.011514 0)
(-0.000621068 0.0092578 0)
(-0.00297485 0.0154753 0)
(-0.00623987 0.016386 0)
(-0.00925445 0.015816 0)
(-0.0121421 0.0147613 0)
(-0.014834 0.0134035 0)
(-0.0172923 0.0117727 0)
(-0.0194875 0.00987308 0)
(-0.0213878 0.0076996 0)
(-0.0229552 0.00523935 0)
(-0.0241397 0.00247403 0)
(-0.0248778 -0.000616011 0)
(-0.0250719 -0.0040469 0)
(-0.0245889 -0.00781129 0)
(-0.0232678 -0.0118558 0)
(-0.0209177 -0.016041 0)
(-0.0173624 -0.0200574 0)
(-0.0126097 -0.0231765 0)
(-0.00654826 -0.0234249 0)
(-0.00155003 -0.0149363 0)
(-0.000686917 0.0110926 0)
(-0.00330237 0.0185338 0)
(-0.00692907 0.0196108 0)
(-0.0102652 0.0189322 0)
(-0.0134601 0.0176948 0)
(-0.0164449 0.016118 0)
(-0.0191891 0.0142394 0)
(-0.0216725 0.0120648 0)
(-0.0238733 0.00958521 0)
(-0.0257627 0.00677779 0)
(-0.0272975 0.00360633 0)
(-0.0284159 2.35589e-05 0)
(-0.0290104 -0.00401505 0)
(-0.028914 -0.0085579 0)
(-0.0278978 -0.0135981 0)
(-0.0256562 -0.0190236 0)
(-0.0218436 -0.0244823 0)
(-0.0162848 -0.0290115 0)
(-0.00878458 -0.0298603 0)
(-0.00220214 -0.0194506 0)
(-0.000767187 0.0131364 0)
(-0.00369543 0.0219432 0)
(-0.00774673 0.023193 0)
(-0.0114496 0.022385 0)
(-0.0149872 0.0209449 0)
(-0.0182925 0.0191359 0)
(-0.0213462 0.0170068 0)
(-0.0241423 0.0145662 0)
(-0.0266755 0.0118026 0)
(-0.0289346 0.00868255 0)
(-0.0308944 0.00514895 0)
(-0.0324993 0.00111994 0)
(-0.0336539 -0.00350237 0)
(-0.0341746 -0.00884647 0)
(-0.0337546 -0.0150037 0)
(-0.0319424 -0.021958 0)
(-0.0281385 -0.0293792 0)
(-0.0217794 -0.036057 0)
(-0.0125056 -0.0381233 0)
(-0.00343365 -0.0257611 0)
(-0.000867769 0.015433 0)
(-0.00417221 0.0257677 0)
(-0.00871963 0.0271862 0)
(-0.0128337 0.0262138 0)
(-0.0167435 0.0245396 0)
(-0.0203865 0.0224783 0)
(-0.0237599 0.0200929 0)
(-0.0268777 0.0173985 0)
(-0.029758 0.0143837 0)
(-0.0324173 0.0110073 0)
(-0.0348611 0.0071919 0)
(-0.0370682 0.00281658 0)
(-0.0389784 -0.00229326 0)
(-0.0404206 -0.00836876 0)
(-0.041043 -0.0156803 0)
(-0.0402431 -0.0244278 0)
(-0.0370811 -0.0344631 0)
(-0.030299 -0.0443943 0)
(-0.0192059 -0.048873 0)
(-0.00599292 -0.0352792 0)
(-0.0010006 0.0180427 0)
(-0.0047649 0.0300852 0)
(-0.00989159 0.0316476 0)
(-0.0144588 0.0304541 0)
(-0.0187603 0.0284976 0)
(-0.0227432 0.0261519 0)
(-0.0264274 0.0234984 0)
(-0.0298529 0.0205627 0)
(-0.0330682 0.0173387 0)
(-0.036128 0.013784 0)
(-0.039087 0.00980913 0)
(-0.0419871 0.00525882 0)
(-0.0448434 -0.00011638 0)
(-0.0475738 -0.00667859 0)
(-0.0498754 -0.0149835 0)
(-0.0510741 -0.0256127 0)
(-0.0498721 -0.0389148 0)
(-0.0439809 -0.0535721 0)
(-0.0321152 -0.0626911 0)
(-0.0117549 -0.0511434 0)
(-0.00119133 0.021056 0)
(-0.00553246 0.0349984 0)
(-0.0113337 0.0366361 0)
(-0.0163886 0.0351307 0)
(-0.0210858 0.0328217 0)
(-0.0253899 0.0301447 0)
(-0.0293508 0.027201 0)
(-0.0330392 0.0240313 0)
(-0.0365386 0.0206419 0)
(-0.0399488 0.0170009 0)
(-0.0433887 0.0130236 0)
(-0.0469974 0.0085406 0)
(-0.0509232 0.00324833 0)
(-0.0553141 -0.00335407 0)
(-0.0601031 -0.0120641 0)
(-0.06481 -0.0240877 0)
(-0.0679947 -0.0408247 0)
(-0.0661885 -0.061772 0)
(-0.0570785 -0.0796245 0)
(-0.0244832 -0.0794117 0)
(-0.00149152 0.0245714 0)
(-0.00659408 0.040642 0)
(-0.0131703 0.0422548 0)
(-0.0187186 0.0403134 0)
(-0.0237879 0.0375304 0)
(-0.0283683 0.0344314 0)
(-0.0325426 0.0311491 0)
(-0.0364135 0.0277378 0)
(-0.0400996 0.0242186 0)
(-0.0437469 0.0205853 0)
(-0.0475481 0.0167979 0)
(-0.0517648 0.0127479 0)
(-0.0567469 0.00818039 0)
(-0.0629314 0.00253544 0)
(-0.0708488 -0.00523419 0)
(-0.0809705 -0.0170895 0)
(-0.0922358 -0.035992 0)
(-0.0997042 -0.0648179 0)
(-0.0977112 -0.0990278 0)
(-0.0436906 -0.131907 0)
(-0.00192157 0.0291579 0)
(-0.00793703 0.0467775 0)
(-0.0155043 0.0479797 0)
(-0.0215853 0.0453118 0)
(-0.0270069 0.0420646 0)
(-0.031774 0.0386429 0)
(-0.0360434 0.0351167 0)
(-0.0399646 0.0315241 0)
(-0.0436789 0.0279132 0)
(-0.0473461 0.0243328 0)
(-0.0511857 0.0208285 0)
(-0.0555514 0.0174087 0)
(-0.0610448 0.0139993 0)
(-0.0686296 0.0102498 0)
(-0.0797918 0.00518644 0)
(-0.0964788 -0.00361101 0)
(-0.118939 -0.0212295 0)
(-0.137385 -0.0595599 0)
(-0.14045 -0.126489 0)
(-0.0501998 -0.224105 0)
(-0.00377478 0.0332905 0)
(-0.0116703 0.0560828 0)
(-0.0190666 0.05675 0)
(-0.025182 0.0534967 0)
(-0.0305164 0.0490878 0)
(-0.035325 0.0445326 0)
(-0.0396394 0.0400819 0)
(-0.0435496 0.0358407 0)
(-0.0471597 0.0318789 0)
(-0.0506189 0.0282664 0)
(-0.0541594 0.0251502 0)
(-0.0581557 0.0227436 0)
(-0.0632889 0.021397 0)
(-0.0707918 0.0213898 0)
(-0.0828536 0.0224506 0)
(-0.102109 0.0213609 0)
(-0.12963 0.00838717 0)
(-0.148485 -0.0513333 0)
(-0.152136 -0.176358 0)
(-0.0284929 -0.340989 0)
(-0.00168332 0.0473986 0)
(-0.0102207 0.0593984 0)
(-0.0226347 0.0583058 0)
(-0.0294746 0.053334 0)
(-0.0358022 0.0492072 0)
(-0.040522 0.0452427 0)
(-0.0442519 0.0413793 0)
(-0.0472958 0.0375722 0)
(-0.0498592 0.0339128 0)
(-0.0520633 0.0304994 0)
(-0.0540271 0.0276587 0)
(-0.0559065 0.0257611 0)
(-0.0581224 0.0257256 0)
(-0.0614482 0.0283549 0)
(-0.0678407 0.0345342 0)
(-0.0779597 0.0380618 0)
(-0.1017 0.0265001 0)
(-0.108597 -0.0559096 0)
(-0.117005 -0.234397 0)
(-0.00189458 -0.432799 0)
(-0.0111209 0.0382553 0)
(-0.0263742 0.0833141 0)
(-0.0279894 0.0793622 0)
(-0.0360814 0.0731636 0)
(-0.0397478 0.0651127 0)
(-0.0419422 0.0574737 0)
(-0.0426822 0.0505726 0)
(-0.0425506 0.0444102 0)
(-0.0418645 0.0390302 0)
(-0.0406868 0.0343421 0)
(-0.0393045 0.0306389 0)
(-0.0374043 0.0283775 0)
(-0.0353922 0.0286167 0)
(-0.0318826 0.0326927 0)
(-0.0295279 0.042971 0)
(-0.0177848 0.0504954 0)
(-0.0198581 0.0462572 0)
(0.00921289 -0.044104 0)
(-0.0236305 -0.264026 0)
(0.0315768 -0.472848 0)
(-0.0748461 0.101278 0)
(-0.0593387 0.0643712 0)
(-0.0601331 0.0621235 0)
(-0.0402747 0.0548078 0)
(-0.0236954 0.0472198 0)
(-0.0058717 0.0411135 0)
(0.0106079 0.0362108 0)
(0.0260212 0.0318249 0)
(0.0395542 0.0281755 0)
(0.052437 0.0245452 0)
(0.0632098 0.0220034 0)
(0.0745025 0.0195376 0)
(0.083613 0.019115 0)
(0.0987072 0.0190184 0)
(0.105286 0.02095 0)
(0.146456 0.0188687 0)
(0.142899 -0.00169311 0)
(0.203448 -0.0584632 0)
(0.142463 -0.254304 0)
(0.118699 -0.439224 0)
(0.120843 0.140518 0)
(0.155552 0.0872221 0)
(0.23546 0.0650537 0)
(0.291386 0.0498783 0)
(0.335331 0.0392189 0)
(0.373176 0.0313473 0)
(0.403887 0.0257007 0)
(0.433038 0.0211788 0)
(0.45343 0.0176992 0)
(0.478362 0.0150365 0)
(0.489157 0.0120989 0)
(0.513919 0.0112273 0)
(0.51488 0.00818578 0)
(0.544508 0.00883191 0)
(0.533511 0.00621895 0)
(0.571106 0.0033559 0)
(0.53914 -0.00301886 0)
(0.560528 -0.0313037 0)
(0.428968 -0.0774099 0)
(0.277286 -0.152569 0)
)
;

boundaryField
{
    movingWall
    {
        type            fixedValue;
        value           uniform (1 0 0);
    }
    fixedWalls
    {
        type            noSlip;
    }
    frontAndBack
    {
        type            empty;
    }
}


// ************************************************************************* //
