/*--------------------------------*- C++ -*----------------------------------*\
  =========                 |
  \\      /  F ield         | OpenFOAM: The Open Source CFD Toolbox
   \\    /   O peration     | Website:  https://openfoam.org
    \\  /    A nd           | Version:  10
     \\/     M anipulation  |
\*---------------------------------------------------------------------------*/
FoamFile
{
    format      ascii;
    class       volVectorField;
    location    "9.025";
    object      U;
}
// * * * * * * * * * * * * * * * * * * * * * * * * * * * * * * * * * * * * * //

dimensions      [0 1 -1 0 0 0 0];

internalField   nonuniform List<vector> 
496
(
(9.95183 0.0618648 0)
(9.97172 -0.151411 0)
(10.2054 -0.121165 0)
(10.7996 -0.216996 0)
(10.0477 0.476058 0)
(9.81904 -1.2307 0)
(10.2318 -0.326279 0)
(10.8479 -1.1284 0)
(10.8348 1.35873 0)
(9.07698 -2.96602 0)
(11.2618 -0.178708 0)
(10.738 -4.11767 0)
(11.9676 1.61496 0)
(8.28317 -2.7389 0)
(12.6968 0.910925 0)
(10.3732 -6.71196 0)
(11.4429 -0.211443 3.05941e-18)
(12.1832 -0.19538 -4.78916e-19)
(11.641 -0.408317 -7.10762e-19)
(12.49 0.200923 1.93212e-18)
(13.1075 -2.12159 -2.35232e-18)
(13.1497 -0.436451 -1.45276e-18)
(13.0338 -5.27604 -3.63338e-17)
(15.8363 -4.5631 6.56785e-17)
(12.7045 -0.173938 0)
(13.0032 -0.172444 0)
(13.1475 -0.0761083 0)
(13.1566 0.0308722 0)
(13.0694 0.174504 0)
(13.4561 -0.192941 0)
(13.7353 -0.575063 0)
(13.8049 -0.723721 0)
(12.7111 0.827845 0)
(12.6664 1.18061 0)
(12.9919 0.866681 0)
(13.2848 0.386461 0)
(10.7622 -2.52517 0)
(10.1547 -1.77771 0)
(8.19098 -1.8784 0)
(8.26832 -0.561848 0)
(13.2164 0.139385 0)
(13.1903 0.237307 0)
(13.2575 0.327481 0)
(13.209 0.399498 0)
(13.2064 0.401583 0)
(13.0555 0.428561 0)
(12.9608 0.406347 0)
(12.7418 0.391065 0)
(12.6092 0.38653 0)
(12.4147 0.355645 0)
(12.258 0.332453 0)
(12.0624 0.279557 0)
(11.9868 0.26867 0)
(11.9219 0.192235 0)
(12.0042 0.15498 0)
(12.0377 0.116045 0)
(12.1736 0.128421 0)
(12.0729 0.181686 0)
(11.9999 0.214852 0)
(11.658 0.273855 0)
(11.3704 0.307506 0)
(10.8926 0.364591 0)
(10.5829 0.38402 0)
(10.2719 0.315518 0)
(10.2463 0.241951 0)
(10.2032 0.0837004 0)
(10.5504 0.0382509 0)
(10.727 -0.012615 0)
(11.3146 -0.0156537 0)
(11.4184 0.0625759 0)
(11.8507 0.0877297 0)
(11.6534 0.264493 0)
(11.6425 0.267623 0)
(11.1712 0.448899 0)
(10.6328 0.42489 0)
(10.2654 0.565849 0)
(9.63819 0.438174 0)
(9.75625 0.332302 0)
(9.44376 0.166212 0)
(9.93214 -0.0484297 0)
(13.8754 -0.719322 0)
(13.8839 -0.525506 0)
(13.937 -0.40034 0)
(13.8608 -0.21835 0)
(13.8313 -0.167204 0)
(13.7244 -0.0513524 0)
(13.6167 -0.0462751 0)
(13.4834 -0.0222118 0)
(13.3652 0.0161334 0)
(13.2147 -0.0112717 0)
(13.0696 -0.0189743 0)
(12.9353 -0.10604 0)
(12.8509 -0.0688244 0)
(12.8002 -0.177703 0)
(12.8972 -0.231298 0)
(13.0021 -0.23917 0)
(13.2248 -0.194238 0)
(13.2313 0.0301499 0)
(13.2488 0.189685 0)
(12.9909 0.429921 0)
(12.8308 0.411215 0)
(12.4068 0.304329 0)
(12.158 0.159087 0)
(11.7359 -0.0922759 0)
(11.7137 -0.141045 0)
(11.5964 -0.463285 0)
(11.9243 -0.501571 0)
(12.0721 -0.643462 0)
(12.5357 -0.656835 0)
(12.7684 -0.51941 0)
(13.1548 -0.446756 0)
(13.3004 0.0386597 0)
(13.3196 0.225681 0)
(13.213 0.592657 0)
(12.8256 0.442909 0)
(12.5945 0.250786 0)
(11.9615 -0.00713579 0)
(11.8856 -0.273845 0)
(11.5277 -0.283835 0)
(11.8939 -0.398698 0)
(13.6001 0.223799 0)
(13.8523 0.277815 0)
(13.8649 0.258299 0)
(13.7291 0.263043 0)
(13.7895 0.340942 0)
(13.5922 0.471101 0)
(13.6402 0.508895 0)
(13.4014 0.574296 0)
(13.5421 0.648734 0)
(13.231 0.635207 0)
(13.2526 0.64578 0)
(13.0179 0.522403 0)
(12.99 0.330837 0)
(12.7338 0.000217755 0)
(12.7592 -0.166448 0)
(12.8282 -0.269947 0)
(12.9914 -0.224501 0)
(13.2079 0.00664196 0)
(13.4372 0.371492 0)
(13.4851 0.806254 0)
(13.3968 1.1926 0)
(13.0341 1.38522 0)
(12.8657 1.34585 0)
(12.5946 0.815784 0)
(12.4949 0.252734 0)
(12.1657 -0.405252 0)
(11.9267 -0.619355 0)
(11.8721 -0.704466 0)
(11.6068 -0.786632 0)
(12.0475 -0.588974 0)
(12.0383 -0.649123 0)
(12.8953 -0.0213639 0)
(13.1326 0.280097 0)
(13.6617 1.04833 0)
(13.4907 1.42215 0)
(13.2418 1.75124 0)
(13.1586 1.39836 0)
(12.8931 0.759743 0)
(13.2006 -0.127216 0)
(12.869 -0.595384 0)
(8.77826 0.0134653 0)
(9.65321 -0.0112639 0)
(9.6619 -0.446084 0)
(8.82825 -0.236719 0)
(9.92572 -0.0135576 0)
(9.60664 -0.295431 0)
(9.48212 -0.0468533 0)
(9.82104 0.107986 0)
(9.93892 0.206058 0)
(10.1802 0.203821 0)
(10.0924 0.282984 0)
(9.88703 0.301923 0)
(9.24702 0.239992 0)
(8.72603 0.227918 0)
(8.67252 0.102259 0)
(8.22026 -0.155931 0)
(8.68528 -0.353841 0)
(8.89912 -0.423848 0)
(9.67814 -0.292528 0)
(10.2385 -0.0428471 0)
(10.8948 0.291456 0)
(11.4685 0.470331 0)
(11.221 0.512583 0)
(10.8646 0.532786 0)
(9.58725 0.550218 0)
(8.4665 0.638368 0)
(7.43574 0.426504 0)
(6.80624 0.0189302 0)
(6.61031 -0.54015 0)
(7.20152 -0.933054 0)
(7.42569 -1.1625 0)
(9.08227 -1.05585 0)
(9.20337 -0.74621 0)
(11.1361 -0.110892 0)
(11.2334 0.24099 0)
(12.4594 0.352763 0)
(11.8887 0.2381 0)
(11.3288 -0.0172218 0)
(9.77206 0.380143 0)
(7.82906 0.298598 0)
(12.3336 0.552396 -1.07645e-17)
(7.8465 -0.807894 -1.80654e-17)
(11.6905 -0.103839 3.16732e-17)
(4.76924 -4.66192 -8.50928e-17)
(11.8992 -0.645701 1.08212e-17)
(8.36543 0.863305 1.82534e-17)
(11.0221 -0.0934436 -3.19328e-17)
(5.36369 4.62359 8.59677e-17)
(-9.09235 2.04232 0)
(11.2397 5.41117 0)
(-10.6332 0.162644 0)
(5.39137 -3.44753 0)
(3.67836 -4.22386 3.24876e-17)
(-3.74895 1.86939 0)
(7.43087 -0.934057 0)
(-2.10658 -2.33946 0)
(-0.465489 0.152284 0)
(0.464783 1.47963 0)
(-0.576063 -1.32142 0)
(0.663285 -0.100201 0)
(1.42882 1.349 0)
(-1.30695 0.186142 0)
(-0.0214958 -0.109387 0)
(1.54044 0.283326 0)
(1.21577 0.600518 0)
(1.05124 1.07907 0)
(0.962189 0.903886 0)
(0.806517 0.73541 0)
(1.08702 0.684869 0)
(1.55958 0.543008 0)
(1.52793 0.0737817 0)
(1.83132 -0.556843 0)
(2.27849 -0.787625 0)
(3.00803 -0.700388 0)
(3.10202 -0.712767 0)
(3.86368 -0.229296 0)
(4.34787 0.484107 0)
(4.27962 0.942085 0)
(4.17596 1.29405 0)
(4.00667 1.59698 0)
(3.75437 1.55995 0)
(3.66075 1.0097 0)
(3.63455 0.322406 0)
(3.72993 -0.502697 0)
(3.93871 -1.30187 0)
(4.31258 -1.7188 0)
(4.56963 -2.04272 0)
(5.09736 -1.94672 0)
(5.4165 -1.54385 0)
(6.47187 -0.605133 0)
(6.0505 0.13121 0)
(6.57049 0.96593 0)
(5.86144 1.60115 0)
(5.21985 1.93186 0)
(4.75594 1.87537 0)
(4.28457 0.644574 0)
(-2.83751 2.37928 0)
(2.3486 -1.04831 0)
(-1.88071 -0.414922 0)
(-0.197769 -0.677462 0)
(-1.18924 0.462277 0)
(0.972335 -0.0118985 0)
(0.136132 -1.54716 0)
(0.565358 -0.712968 0)
(-0.392429 0.309819 0)
(1.16081 0.171009 0)
(1.59893 0.129615 0)
(2.0195 0.12372 0)
(2.01971 0.0176711 0)
(2.47466 -0.207024 0)
(2.88961 -0.571286 0)
(2.96307 -0.963422 0)
(2.71131 -1.33549 0)
(3.0454 -1.43456 0)
(2.61115 -1.11159 0)
(2.61784 -0.611523 0)
(3.17195 0.0165311 0)
(3.28822 0.730962 0)
(3.618 1.25912 0)
(4.27739 1.47134 0)
(4.86288 1.36926 0)
(5.58653 0.995747 0)
(5.9776 0.407428 0)
(6.4096 -0.150762 0)
(6.45444 -0.776811 0)
(6.17271 -1.36314 0)
(5.69168 -1.79996 0)
(5.02048 -1.80781 0)
(4.64396 -1.39636 0)
(4.52443 -0.580341 0)
(4.74504 0.507666 0)
(4.44051 1.40444 0)
(5.0902 1.93486 0)
(5.0417 2.04801 0)
(5.54301 2.18262 0)
(6.13767 1.02435 0)
(12.5191 -1.52506 0)
(7.62029 2.54651 0)
(13.5307 -0.739031 0)
(9.50864 6.46079 0)
(10.9863 -1.37534 0)
(8.85706 2.9071 0)
(11.3409 0.0369919 0)
(10.4578 4.10367 0)
(10.1064 -0.500038 0)
(9.76319 1.27947 0)
(10.3131 0.319174 0)
(10.7572 1.17064 0)
(9.96911 -0.0928572 0)
(9.92979 0.211345 0)
(10.2111 0.112555 0)
(10.7618 0.220576 0)
(13.9409 5.33633 3.24325e-17)
(14.8503 4.42948 -6.26377e-17)
(12.972 1.92766 0)
(12.7458 0.565593 0)
(11.6761 0.448954 0)
(12.3973 -0.12064 0)
(11.453 0.222027 0)
(12.1601 0.164566 0)
(12.2796 2.68162 0)
(10.4498 2.16028 0)
(8.60935 0.786896 0)
(11.4423 1.17619 0)
(12.3764 -1.05293 0)
(12.4102 -0.810996 0)
(12.8462 -0.466117 0)
(13.2624 -0.402294 0)
(13.0056 -0.0633621 0)
(13.399 0.26605 0)
(13.6502 0.574574 0)
(13.7734 0.62782 0)
(12.7028 0.189008 0)
(13.015 0.114935 0)
(13.1919 0.0814865 0)
(13.2355 -0.0181441 0)
(9.57929 0.579106 0)
(10.5717 0.275261 0)
(10.2601 0.553143 0)
(10.4678 0.245589 0)
(10.0618 0.206741 0)
(9.73365 -0.0623173 0)
(9.98876 -0.176286 0)
(10.0955 -0.15096 0)
(9.88101 0.0543333 0)
(9.55572 0.167758 0)
(9.70001 0.211716 0)
(10.2342 0.196834 0)
(10.3002 0.188169 0)
(10.9935 0.0792183 0)
(11.0036 -0.129253 0)
(11.646 -0.30742 0)
(11.3216 -0.366083 0)
(11.0686 -0.404759 0)
(10.2302 -0.387723 0)
(9.40231 -0.304792 0)
(8.83546 -0.0960455 0)
(8.44067 0.235397 0)
(8.48403 0.621818 0)
(8.79318 0.716376 0)
(9.57472 0.60388 0)
(10.1298 0.247177 0)
(11.3135 -0.204948 0)
(11.5151 -0.5596 0)
(12.7132 -0.906527 0)
(12.4297 -0.77358 0)
(12.8435 -0.73579 0)
(10.9859 -0.555738 0)
(9.85076 -0.735762 0)
(7.99988 -0.352258 0)
(7.1368 0.00223255 0)
(7.05424 0.733918 0)
(6.71417 1.23728 0)
(7.92273 1.15396 0)
(7.93055 1.33072 0)
(9.31374 0.327618 0)
(13.5443 -0.325237 0)
(13.6184 -0.377813 0)
(13.7475 -0.46491 0)
(13.5138 -0.520779 0)
(13.4924 -0.560904 0)
(13.3366 -0.454893 0)
(13.253 -0.463706 0)
(13.2504 -0.398291 0)
(13.2162 -0.363705 0)
(13.2285 -0.248203 0)
(13.1126 -0.142241 0)
(13.3695 -0.313752 0)
(13.3488 -0.43275 0)
(13.4075 -0.80096 0)
(13.0772 -0.983565 0)
(12.8564 -1.22967 0)
(12.499 -1.18416 0)
(12.3195 -0.884167 0)
(12.1373 -0.416779 0)
(12.0027 0.113239 0)
(11.8962 0.452662 0)
(12.1178 0.519458 0)
(12.2134 0.567768 0)
(12.6645 0.233581 0)
(12.8744 0.0162654 0)
(13.3461 -0.5098 0)
(13.3898 -0.970783 0)
(13.1493 -1.38975 0)
(12.8094 -1.81401 0)
(11.9749 -1.49782 0)
(12.0515 -1.21531 0)
(11.1131 0.0696868 0)
(11.5081 0.528456 0)
(10.5128 1.10466 0)
(10.9463 1.05592 0)
(10.5204 0.996437 0)
(10.9331 1.01334 0)
(11.3097 0.655528 0)
(11.6751 0.542542 0)
(12.4028 -0.240863 0)
(13.8965 0.572455 0)
(13.8919 0.473509 0)
(13.913 0.29776 0)
(13.7943 0.262672 0)
(13.7274 0.196673 0)
(13.5591 0.235129 0)
(13.4897 0.211512 0)
(13.3603 0.269119 0)
(13.4388 0.226594 0)
(13.4113 0.196063 0)
(13.4706 0.239876 0)
(13.422 0.156184 0)
(13.4207 0.0843819 0)
(13.2306 -0.0704139 0)
(13.0709 -0.0729068 0)
(12.8087 -0.0302381 0)
(12.5814 0.0446159 0)
(12.2836 0.214025 0)
(12.141 0.271091 0)
(12.148 0.424054 0)
(12.2686 0.501121 0)
(12.5447 0.512265 0)
(12.7418 0.451518 0)
(13.0856 0.190636 0)
(13.1109 0.0292859 0)
(13.1455 -0.318166 0)
(12.7827 -0.40715 0)
(12.5295 -0.462937 0)
(12.0868 -0.283039 0)
(11.6172 -0.0377999 0)
(11.4059 0.102649 0)
(10.9682 0.497764 0)
(11.3106 0.575148 0)
(11.2281 0.925289 0)
(11.8954 0.844699 0)
(12.0546 0.9633 0)
(12.7418 0.735304 0)
(12.8882 0.565567 0)
(13.4514 0.283878 0)
(13.4405 -0.228372 0)
(13.2967 -0.132295 0)
(13.2882 -0.221055 0)
(13.3043 -0.338659 0)
(13.2145 -0.36197 0)
(13.139 -0.430683 0)
(12.9689 -0.402756 0)
(12.911 -0.421597 0)
(12.734 -0.355731 0)
(12.7474 -0.348033 0)
(12.6598 -0.375526 0)
(12.7213 -0.345371 0)
(12.5586 -0.401523 0)
(12.5457 -0.391956 0)
(12.27 -0.468251 0)
(12.086 -0.451093 0)
(11.679 -0.513634 0)
(11.5139 -0.536275 0)
(11.2194 -0.474736 0)
(11.1794 -0.394317 0)
(11.088 -0.268071 0)
(11.3211 -0.217506 0)
(11.4505 -0.171649 0)
(11.7539 -0.16414 0)
(11.8153 -0.238591 0)
(11.8717 -0.264871 0)
(11.6303 -0.402976 0)
(11.212 -0.41721 0)
(10.7606 -0.553132 0)
(10.154 -0.581522 0)
(9.90954 -0.509332 0)
(9.56333 -0.452443 0)
(9.62581 -0.141922 0)
(9.81278 -0.105366 0)
(10.1026 0.130862 0)
(10.8276 0.0899533 0)
(11.0501 0.118324 0)
(11.9721 0.0363549 0)
(11.8301 -0.0850078 0)
(12.4757 -0.186279 0)
(11.9228 -0.36515 0)
)
;

boundaryField
{
    inlet
    {
        type            fixedValue;
        value           uniform (10 0 0);
    }
    outlet
    {
        type            zeroGradient;
    }
    obstacle
    {
        type            noSlip;
    }
    upperWall
    {
        type            noSlip;
    }
    lowerWall
    {
        type            noSlip;
    }
    frontAndBack
    {
        type            empty;
    }
}


// ************************************************************************* //
