/*--------------------------------*- C++ -*----------------------------------*\
  =========                 |
  \\      /  F ield         | OpenFOAM: The Open Source CFD Toolbox
   \\    /   O peration     | Website:  https://openfoam.org
    \\  /    A nd           | Version:  10
     \\/     M anipulation  |
\*---------------------------------------------------------------------------*/
FoamFile
{
    format      ascii;
    class       surfaceScalarField;
    location    "6.075";
    object      phi;
}
// * * * * * * * * * * * * * * * * * * * * * * * * * * * * * * * * * * * * * //

dimensions      [0 3 -1 0 0 0 0];

internalField   nonuniform List<scalar> 
22800
(
-2.33964e-06
2.82374e-06
-4.84146e-07
-7.62697e-06
5.35118e-06
-6.38456e-08
-1.38871e-05
6.12036e-06
1.3975e-07
-2.04566e-05
6.32276e-06
2.46793e-07
-2.70673e-05
6.35986e-06
2.50813e-07
-3.35902e-05
6.33639e-06
1.86476e-07
-3.98989e-05
6.24247e-06
6.63046e-08
-4.58321e-05
6.03236e-06
-9.92568e-08
-5.11667e-05
5.65382e-06
-3.19165e-07
-5.56082e-05
5.05131e-06
-6.09844e-07
-5.87997e-05
4.16821e-06
-9.76713e-07
-6.0333e-05
2.95653e-06
-1.42325e-06
-5.97751e-05
1.39368e-06
-1.95153e-06
-5.67145e-05
-5.21075e-07
-2.53957e-06
-5.08785e-05
-2.70061e-06
-3.13531e-06
-4.22236e-05
-4.98079e-06
-3.67412e-06
-3.11166e-05
-7.06423e-06
-4.04281e-06
-1.85768e-05
-8.4551e-06
-4.08467e-06
-6.57016e-06
-8.32707e-06
-3.67959e-06
-4.58976e-06
-1.9804e-06
-4.75025e-06
9.0407e-06
-1.46671e-06
-1.37907e-05
1.55611e-05
-1.16949e-06
-2.42133e-05
1.75228e-05
-9.7988e-07
-3.50156e-05
1.79453e-05
-8.20192e-07
-4.57606e-05
1.7852e-05
-7.47102e-07
-5.62045e-05
1.75146e-05
-7.34364e-07
-6.61232e-05
1.69314e-05
-7.70201e-07
-7.52469e-05
1.60165e-05
-8.60408e-07
-8.32343e-05
1.46572e-05
-1.01603e-06
-8.96616e-05
1.27283e-05
-1.24968e-06
-9.40197e-05
1.00996e-05
-1.57332e-06
-9.57369e-05
6.66933e-06
-1.99558e-06
-9.42496e-05
2.42301e-06
-2.5166e-06
-8.90067e-05
-2.64239e-06
-3.1216e-06
-7.96098e-05
-8.35026e-06
-3.74732e-06
-6.60389e-05
-1.42323e-05
-4.31934e-06
-4.88477e-05
-1.95658e-05
-4.68967e-06
-2.95225e-05
-2.31191e-05
-4.66119e-06
-1.09315e-05
-2.28236e-05
-4.09445e-06
-1.35967e-05
-1.92459e-06
-5.57194e-06
1.65962e-05
-1.98354e-06
-1.59854e-05
2.77587e-05
-1.78409e-06
-2.78929e-05
3.10327e-05
-1.60238e-06
-4.01719e-05
3.16305e-05
-1.40618e-06
-5.23474e-05
3.13167e-05
-1.28925e-06
-6.41598e-05
3.05546e-05
-1.2276e-06
-7.53731e-05
2.93571e-05
-1.21245e-06
-8.57036e-05
2.76005e-05
-1.25339e-06
-9.47912e-05
2.51111e-05
-1.36629e-06
-0.000102184
2.16906e-05
-1.56966e-06
-0.000107337
1.71348e-05
-1.88159e-06
-0.000109621
1.12692e-05
-2.31637e-06
-0.000108322
4.009e-06
-2.88484e-06
-0.000102746
-4.66086e-06
-3.55743e-06
-9.23768e-05
-1.44313e-05
-4.2883e-06
-7.70542e-05
-2.45754e-05
-4.97948e-06
-5.72995e-05
-3.38735e-05
-5.44706e-06
-3.47774e-05
-4.02009e-05
-5.44035e-06
-1.28996e-05
-3.99214e-05
-4.77997e-06
-2.43081e-05
-2.18812e-06
-5.79902e-06
2.4776e-05
-2.38086e-06
-1.67382e-05
4.09741e-05
-2.27621e-06
-2.92364e-05
4.56401e-05
-2.10914e-06
-4.2133e-05
4.64233e-05
-1.89616e-06
-5.49617e-05
4.58992e-05
-1.75384e-06
-6.74852e-05
4.47413e-05
-1.66316e-06
-7.94938e-05
4.29829e-05
-1.61718e-06
-9.07272e-05
4.04659e-05
-1.63199e-06
-0.000100841
3.69544e-05
-1.72974e-06
-0.00010938
3.21644e-05
-1.935e-06
-0.000115761
2.57897e-05
-2.27375e-06
-0.000119266
1.75451e-05
-2.77028e-06
-0.000119064
7.25004e-06
-3.44382e-06
-0.000114243
-5.18328e-06
-4.29837e-06
-0.000103937
-1.94942e-05
-5.24316e-06
-8.76939e-05
-3.46473e-05
-6.17081e-06
-6.58498e-05
-4.88781e-05
-6.83952e-06
-4.02266e-05
-5.8907e-05
-6.91713e-06
-1.49167e-05
-5.90789e-05
-6.15236e-06
-3.6295e-05
-2.9298e-06
-5.84525e-06
3.33332e-05
-2.71193e-06
-1.7082e-05
5.49017e-05
-2.69084e-06
-2.99622e-05
6.106e-05
-2.53977e-06
-4.33025e-05
6.20821e-05
-2.31846e-06
-5.66577e-05
6.14211e-05
-2.16675e-06
-6.98313e-05
5.99842e-05
-2.06942e-06
-8.26611e-05
5.7836e-05
-2.02334e-06
-9.49357e-05
5.47883e-05
-2.04769e-06
-0.000106352
5.05423e-05
-2.1722e-06
-0.000116472
4.47161e-05
-2.43129e-06
-0.000124686
3.68666e-05
-2.86327e-06
-0.000130173
2.65374e-05
-3.50483e-06
-0.000131896
1.33493e-05
-4.37612e-06
-0.000128644
-2.88463e-06
-5.55046e-06
-0.000119067
-2.21883e-05
-6.8834e-06
-0.000102176
-4.32881e-05
-8.25e-06
-7.79058e-05
-6.38275e-05
-9.32081e-06
-4.81342e-05
-7.90756e-05
-9.60292e-06
-1.79487e-05
-8.05765e-05
-8.68793e-06
-4.98376e-05
-4.40613e-06
-5.85077e-06
4.22257e-05
-3.04168e-06
-1.73589e-05
6.95134e-05
-3.10357e-06
-3.06133e-05
7.72858e-05
-2.97138e-06
-4.44035e-05
7.86201e-05
-2.74787e-06
-5.83107e-05
7.79247e-05
-2.59645e-06
-7.21935e-05
7.63728e-05
-2.50574e-06
-8.5958e-05
7.40783e-05
-2.47777e-06
-9.94679e-05
7.08356e-05
-2.53746e-06
-0.000112493
6.62891e-05
-2.72209e-06
-0.000124651
5.99538e-05
-3.07945e-06
-0.000135339
5.12215e-05
-3.667e-06
-0.000143649
3.93969e-05
-4.54894e-06
-0.000148295
2.37943e-05
-5.79915e-06
-0.000147706
3.96804e-06
-7.44151e-06
-0.000139815
-2.06469e-05
-9.4326e-06
-0.000122751
-4.87779e-05
-1.15747e-05
-9.56557e-05
-7.75156e-05
-1.34069e-05
-6.01984e-05
-0.000100371
-1.41622e-05
-2.28264e-05
-0.000104882
-1.30667e-05
-6.56208e-05
-7.04317e-06
-5.8448e-06
5.14885e-05
-3.41803e-06
-1.76436e-05
8.48862e-05
-3.57397e-06
-3.12952e-05
9.44014e-05
-3.46405e-06
-4.55498e-05
9.6114e-05
-3.23922e-06
-6.00202e-05
9.54843e-05
-3.08912e-06
-7.46344e-05
9.3995e-05
-3.00799e-06
-8.93899e-05
9.18385e-05
-3.00462e-06
-0.000104259
8.88171e-05
-3.11254e-06
-0.00011913
8.454e-05
-3.38028e-06
-0.000133734
7.84323e-05
-3.87375e-06
-0.000147548
6.97137e-05
-4.67859e-06
-0.000159649
5.73966e-05
-5.89885e-06
-0.000168555
4.03539e-05
-7.6536e-06
-0.000172087
1.75268e-05
-1.00263e-05
-0.000167538
-1.20337e-05
-1.31626e-05
-0.000151548
-4.80862e-05
-1.66814e-05
-0.000121753
-8.73323e-05
-1.99786e-05
-7.88972e-05
-0.000121356
-2.18704e-05
-3.10129e-05
-0.000132018
-2.07485e-05
-8.47849e-05
-1.18488e-05
-5.82943e-06
6.11904e-05
-3.87245e-06
-1.79423e-05
0.000101142
-4.14339e-06
-3.19971e-05
0.000112513
-4.05668e-06
-4.66882e-05
0.00011463
-3.82493e-06
-6.16633e-05
0.000114127
-3.66759e-06
-7.69337e-05
0.000112854
-3.58814e-06
-9.26127e-05
0.000111122
-3.60436e-06
-0.000108819
0.000108785
-3.76135e-06
-0.000125619
0.000105464
-4.12411e-06
-0.00014294
0.000100539
-4.78458e-06
-0.000160449
9.30931e-05
-5.87135e-06
-0.00017734
8.18461e-05
-7.5582e-06
-0.000192063
6.51295e-05
-1.0053e-05
-0.000202013
4.10208e-05
-1.35433e-05
-0.000203502
7.93629e-06
-1.8481e-05
-0.000191232
-3.59751e-05
-2.43811e-05
-0.000160209
-8.7847e-05
-3.05087e-05
-0.000108718
-0.000137826
-3.50204e-05
-4.56847e-05
-0.000160373
-3.46782e-05
-0.000109114
-2.1356e-05
-5.81722e-06
7.14427e-05
-4.43514e-06
-1.82753e-05
0.000118452
-4.85202e-06
-3.27175e-05
0.000131741
-4.78612e-06
-4.77601e-05
0.000134205
-4.53238e-06
-6.30878e-05
0.000133802
-4.34763e-06
-7.8806e-05
0.00013282
-4.2485e-06
-9.51651e-05
0.000131746
-4.26492e-06
-0.000112467
0.000130543
-4.45647e-06
-0.000131016
0.000128922
-4.90946e-06
-0.000151043
0.000126317
-5.75151e-06
-0.000172564
0.000121787
-7.17246e-06
-0.000195136
0.000113869
-9.45034e-06
-0.000217464
0.000100424
-1.29663e-05
-0.000236778
7.8545e-05
-1.82107e-05
-0.00024807
4.48333e-05
-2.56049e-05
-0.000244902
-3.40872e-06
-3.57347e-05
-0.000217179
-6.83625e-05
-4.72074e-05
-0.000158075
-0.000139344
-5.75854e-05
-7.38525e-05
-0.000184027
-6.05688e-05
-0.000141071
-4.18949e-05
-5.8533e-06
8.24426e-05
-5.14658e-06
-1.87248e-05
0.000137075
-5.75073e-06
-3.35292e-05
0.000152244
-5.69805e-06
-4.87808e-05
0.000154851
-5.39445e-06
-6.42022e-05
0.00015437
-5.14648e-06
-8.00013e-05
0.000153607
-4.98806e-06
-9.65753e-05
0.000153285
-4.96497e-06
-0.000114429
0.000153552
-5.15425e-06
-0.000134154
0.000154314
-5.66769e-06
-0.000156382
0.000155221
-6.67574e-06
-0.000181671
0.000155523
-8.44753e-06
-0.000210256
0.000153861
-1.14071e-05
-0.000241572
0.000147937
-1.61964e-05
-0.000273475
0.000134138
-2.36905e-05
-0.000301032
0.000107289
-3.48976e-05
-0.000314612
6.1137e-05
-5.09656e-05
-0.000301287
-9.56842e-06
-7.21191e-05
-0.000241762
-0.000104892
-9.39777e-05
-0.000130309
-0.000189088
-0.000106392
-0.00018598
-8.54e-05
-6.04351e-06
9.4557e-05
-6.07083e-06
-1.94856e-05
0.000157432
-6.91497e-06
-3.46422e-05
0.000174259
-6.85908e-06
-4.99085e-05
0.000176576
-6.45927e-06
-6.50528e-05
0.000175605
-6.09033e-06
-8.03937e-05
0.000174757
-5.80864e-06
-9.6469e-05
0.00017504
-5.67936e-06
-0.000113972
0.000176853
-5.79791e-06
-0.000133771
0.000180416
-6.3029e-06
-0.000156937
0.000185795
-7.40928e-06
-0.000184722
0.000192783
-9.47378e-06
-0.000218399
0.000200629
-1.30915e-05
-0.00025883
0.000207589
-1.92214e-05
-0.000305675
0.000210265
-2.92824e-05
-0.000355979
0.000202644
-4.50517e-05
-0.000400931
0.000174451
-6.83631e-05
-0.000419857
0.000109744
-0.000100387
-0.00037967
-8.52715e-06
-0.000136552
-0.000239012
-0.000168801
-0.000160944
-0.000271507
-0.000153485
-6.60335e-06
0.000108479
-7.31849e-06
-2.09402e-05
0.000180239
-8.47055e-06
-3.64846e-05
0.000198187
-8.38363e-06
-5.15282e-05
0.000199432
-7.8121e-06
-6.59125e-05
0.000197218
-7.22913e-06
-8.0087e-05
0.000195656
-6.72471e-06
-9.47058e-05
0.000196046
-6.38779e-06
-0.000110587
0.000199062
-6.32877e-06
-0.000128788
0.000205327
-6.70942e-06
-0.000150725
0.000215515
-7.78289e-06
-0.000178305
0.000230332
-9.96922e-06
-0.000214
0.000250327
-1.40029e-05
-0.000260827
0.000275504
-2.1088e-05
-0.00032185
0.000304217
-3.29283e-05
-0.000398954
0.000330952
-5.12042e-05
-0.000488055
0.000339652
-7.60999e-05
-0.000567678
0.000292782
-0.000103415
-0.000572633
0.00011577
-0.000119342
-0.000409534
-0.000204281
-0.00012762
-0.000502932
-0.000178109
-7.95096e-06
0.000125505
-9.075e-06
-2.37839e-05
0.000206642
-1.057e-05
-3.98195e-05
0.000224586
-1.03633e-05
-5.43466e-05
0.000223447
-9.48808e-06
-6.7381e-05
0.000218818
-8.56567e-06
-7.95302e-05
0.000215525
-7.72004e-06
-9.15409e-05
0.000215109
-7.05213e-06
-0.000104219
0.000218412
-6.67144e-06
-0.000118603
0.00022646
-6.74908e-06
-0.000136154
0.000240619
-7.55248e-06
-0.000159094
0.000262753
-9.48054e-06
-0.000190743
0.000295182
-1.32056e-05
-0.000236242
0.000340633
-1.96297e-05
-0.000303076
0.000400049
-2.89983e-05
-0.000401913
0.000467891
-3.81018e-05
-0.000539835
0.00051256
-3.49861e-05
-0.00070571
0.000458018
6.39681e-07
-0.000806386
0.000132467
8.39784e-05
-0.000622071
-0.000515847
0.000127251
-0.00105564
-6.93589e-05
-1.10406e-05
0.000148397
-1.18516e-05
-2.93729e-05
0.000238925
-1.39502e-05
-4.59142e-05
0.00025476
-1.36324e-05
-5.93685e-05
0.000249158
-1.22563e-05
-7.02951e-05
0.000240411
-1.06663e-05
-7.95516e-05
0.000233909
-9.1274e-06
-8.78027e-05
0.000231176
-7.81638e-06
-9.5676e-05
0.00023316
-6.87451e-06
-0.000103912
0.000241128
-6.43274e-06
-0.000113535
0.00025695
-6.7084e-06
-0.000126387
0.000283561
-7.95549e-06
-0.000145588
0.00032474
-1.03586e-05
-0.000177693
0.000386075
-1.33374e-05
-0.000234639
0.000469148
-1.21522e-05
-0.000344566
0.000568559
9.25865e-06
-0.000545445
0.000627327
8.61124e-05
-0.000854753
0.000512414
0.000254912
-0.00107859
-0.000106491
0.0004628
-0.000817976
-0.00123672
0.000460252
-0.00190445
3.08332e-05
-1.63814e-05
0.000180653
-1.58742e-05
-3.84669e-05
0.000278728
-1.77179e-05
-5.58777e-05
0.000288994
-1.68232e-05
-6.84978e-05
0.000276275
-1.44973e-05
-7.69196e-05
0.000260964
-1.21309e-05
-8.23169e-05
0.000249199
-9.893e-06
-8.54835e-05
0.000242284
-7.94046e-06
-8.67994e-05
0.00024085
-6.37425e-06
-8.63982e-05
0.000246017
-5.28978e-06
-8.42699e-05
0.000259587
-4.76475e-06
-8.10281e-05
0.000285117
-4.79816e-06
-7.83184e-05
0.000326487
-4.45643e-06
-8.39203e-05
0.000392274
-5.97445e-07
-0.000116448
0.000482709
1.89667e-05
-0.000232879
0.000599058
8.59333e-05
-0.000514757
0.00065425
0.000254954
-0.000988802
0.000445788
0.000540671
-0.00126004
-0.000583478
0.000748223
-0.000943435
-0.00207325
0.000519928
-0.00278579
-6.20988e-05
-3.73283e-05
0.000241993
-2.4012e-05
-6.26969e-05
0.000331932
-2.78358e-05
-7.70237e-05
0.000329191
-2.58696e-05
-8.33025e-05
0.000304528
-2.19742e-05
-8.55945e-05
0.000280707
-1.74511e-05
-8.5409e-05
0.000262187
-1.3173e-05
-8.29911e-05
0.000249313
-9.44782e-06
-7.76838e-05
0.000241968
-6.42565e-06
-6.85138e-05
0.000241017
-4.17009e-06
-5.37348e-05
0.000247419
-2.61102e-06
-3.19417e-05
0.000264825
-1.50128e-06
-2.63918e-06
0.000295952
1.23224e-06
2.81043e-05
0.000350841
1.06899e-05
3.59526e-05
0.000429146
4.57148e-05
-4.98042e-05
0.000540409
0.000144406
-0.000339765
0.000581768
0.000362444
-0.000846727
0.000285697
0.000667053
-0.00116943
-0.00100526
0.000744488
-0.000970301
-0.00260424
0.000331862
-0.00350608
-0.000250007
-3.12743e-05
0.000312838
-3.95706e-05
-7.39165e-05
0.000412811
-3.82369e-05
-9.62127e-05
0.000385054
-3.35676e-05
-0.00010645
0.000339914
-2.51478e-05
-0.000106241
0.000298913
-1.84148e-05
-9.92734e-05
0.00026747
-1.2251e-05
-8.75514e-05
0.000244615
-7.02331e-06
-7.12415e-05
0.000228516
-2.85744e-06
-4.94943e-05
0.000219192
7.71522e-08
-1.95631e-05
0.000215384
2.10357e-06
2.20172e-05
0.000220172
3.07283e-06
7.86787e-05
0.000233507
5.78412e-06
0.000150312
0.000263655
1.55527e-05
0.00022522
0.000306917
4.73205e-05
0.000248683
0.000374586
0.00014236
0.000100731
0.000395624
0.000334096
-0.000299364
0.000111472
0.00057432
-0.000756844
-0.00112025
0.00057247
-0.000832999
-0.00272352
0.000195439
-0.00390858
-0.000430502
-0.000179619
0.000542137
-4.96801e-05
-0.000179984
0.000473704
-6.05274e-05
-0.000156737
0.000418713
-5.6906e-05
-0.000131219
0.000360438
-4.60421e-05
-9.82155e-05
0.000297621
-3.1712e-05
-6.26884e-05
0.000250578
-1.86349e-05
-2.64318e-05
0.000216701
-8.3433e-06
1.19465e-05
0.000191017
-8.79125e-07
5.32369e-05
0.000173632
4.26964e-06
0.00010137
0.000160381
6.86963e-06
0.000159409
0.000155273
6.86008e-06
0.000235116
0.00015251
5.29083e-06
0.000329396
0.000161645
7.72888e-06
0.000444469
0.000168898
2.29473e-05
0.000557117
0.00018581
7.61275e-05
0.00060004
0.00015271
0.000199991
0.000451273
-7.73045e-05
0.000337543
-6.53749e-05
-0.00097623
0.000372623
-0.000438571
-0.00246168
0.000111353
-0.00377026
-0.000576891
-0.000370576
0.00107938
-0.000166662
-0.000262218
0.000484618
-0.000119272
-0.0001102
0.000354784
-8.80883e-05
5.50205e-05
0.000253446
-5.82289e-05
0.000210756
0.000180336
-3.84506e-05
0.000351924
0.0001323
-2.28899e-05
0.000476592
0.000102698
-1.06645e-05
0.000587329
8.19836e-05
-1.7042e-06
0.000685937
6.97018e-05
5.32259e-06
0.000777699
5.9304e-05
9.31533e-06
0.00086676
5.63042e-05
9.90791e-06
0.000961254
5.14997e-05
6.51567e-06
0.00106656
5.42273e-05
2.11073e-06
0.00118676
4.84091e-05
2.92392e-07
0.00133133
3.64753e-05
4.75987e-06
0.00144796
-2.06739e-05
5.67521e-05
0.00145606
-0.000196301
0.000110905
0.00105832
-0.000721528
0.000143035
0.000280913
-0.00170776
2.34914e-05
-0.00277194
-0.000717405
0.00122737
-0.000147998
0.00186958
-0.000157587
0.00237924
-0.000154876
0.00277198
-0.000139297
0.00307323
-0.000120912
0.00331052
-0.000104994
0.0035036
-9.03797e-05
0.00366321
-7.76254e-05
0.00379918
-6.62647e-05
0.00391602
-5.75351e-05
0.00402107
-4.87464e-05
0.00411762
-4.50537e-05
0.00421018
-3.83294e-05
0.00429699
-3.8407e-05
0.00436242
-2.8952e-05
0.00437039
-2.86435e-05
0.00418211
-8.01724e-06
0.00350097
-4.03932e-05
0.00189703
-0.000103825
-0.00087491
-4.14467e-06
4.59205e-06
-9.31526e-07
-1.32666e-05
9.74602e-06
-6.87898e-07
-2.39994e-05
1.13633e-05
-4.90818e-07
-3.50218e-05
1.16363e-05
-3.67061e-07
-4.58844e-05
1.14708e-05
-3.57374e-07
-5.63841e-05
1.11239e-05
-4.37658e-07
-6.63243e-05
1.06029e-05
-5.964e-07
-7.54373e-05
9.85094e-06
-8.37167e-07
-8.3378e-05
8.79245e-06
-1.1709e-06
-8.97235e-05
7.34462e-06
-1.60898e-06
-9.39688e-05
5.4292e-06
-2.1606e-06
-9.55485e-05
2.98447e-06
-2.8281e-06
-9.38817e-05
-1.6091e-08
-3.60224e-06
-8.84424e-05
-3.52993e-06
-4.44894e-06
-7.88665e-05
-7.40437e-06
-5.30677e-06
-6.512e-05
-1.1342e-05
-6.07867e-06
-4.77328e-05
-1.48099e-05
-6.62015e-06
-2.82156e-05
-1.68517e-05
-6.75009e-06
-9.86584e-06
-1.5733e-05
-6.29633e-06
-7.74969e-06
-4.09655e-06
-9.53791e-06
1.47315e-05
-2.06821e-06
-2.66809e-05
2.78262e-05
-2.10666e-06
-4.62341e-05
3.1852e-05
-1.91544e-06
-6.60847e-05
3.23777e-05
-1.71097e-06
-8.54077e-05
3.16604e-05
-1.61369e-06
-0.000103751
3.0345e-05
-1.61229e-06
-0.000120703
2.8485e-05
-1.70056e-06
-0.000135793
2.59704e-05
-1.88917e-06
-0.000148467
2.26455e-05
-2.19579e-06
-0.00015807
1.83377e-05
-2.6396e-06
-0.000163856
1.28785e-05
-3.23635e-06
-0.000165019
6.14524e-06
-3.99354e-06
-0.000160802
-1.84001e-06
-4.90959e-06
-0.000150448
-1.10771e-05
-5.92886e-06
-0.000133531
-2.10928e-05
-6.97529e-06
-0.000110112
-3.11589e-05
-7.92197e-06
-8.10758e-05
-3.99637e-05
-8.57176e-06
-4.876e-05
-4.51437e-05
-8.68506e-06
-1.81344e-05
-4.24468e-05
-8.00625e-06
-2.28994e-05
-4.90928e-06
-1.16832e-05
2.71501e-05
-2.71902e-06
-3.21365e-05
4.94376e-05
-2.94217e-06
-5.52337e-05
5.61119e-05
-2.76502e-06
-7.85365e-05
5.67891e-05
-2.51471e-06
-0.000101116
5.53112e-05
-2.36055e-06
-0.000122463
5.27639e-05
-2.29951e-06
-0.000142119
4.92592e-05
-2.33053e-06
-0.000159573
4.46414e-05
-2.47071e-06
-0.000174223
3.86743e-05
-2.74519e-06
-0.000185362
3.10894e-05
-3.18182e-06
-0.000192182
2.16231e-05
-3.80601e-06
-0.000193794
1.00763e-05
-4.63528e-06
-0.000189209
-3.64003e-06
-5.67063e-06
-0.000177545
-1.94384e-05
-6.85985e-06
-0.000158179
-3.6625e-05
-8.12224e-06
-0.000131012
-5.40024e-05
-9.30275e-06
-9.69154e-05
-6.93556e-05
-1.01517e-05
-5.85479e-05
-7.85989e-05
-1.03526e-05
-2.18749e-05
-7.43318e-05
-9.56791e-06
-4.11502e-05
-5.81223e-06
-1.2491e-05
4.05254e-05
-3.26515e-06
-3.44008e-05
7.27345e-05
-3.66334e-06
-5.90853e-05
8.21964e-05
-3.50916e-06
-8.39729e-05
8.30127e-05
-3.23213e-06
-0.000108128
8.0754e-05
-3.04177e-06
-0.000131063
7.69785e-05
-2.94292e-06
-0.000152345
7.18646e-05
-2.94061e-06
-0.000171486
6.5211e-05
-3.05982e-06
-0.0001879
5.66937e-05
-3.3351e-06
-0.000200866
4.59259e-05
-3.806e-06
-0.000209509
3.25041e-05
-4.5117e-06
-0.000212803
1.60874e-05
-5.48708e-06
-0.000209611
-3.51907e-06
-6.75699e-06
-0.000198623
-2.64544e-05
-8.27072e-06
-0.000178794
-5.17629e-05
-9.9339e-06
-0.000149584
-7.78275e-05
-1.15557e-05
-0.00011161
-0.000101369
-1.28e-05
-6.78039e-05
-0.000116097
-1.32251e-05
-2.5323e-05
-0.000110623
-1.23424e-05
-6.18249e-05
-7.57813e-06
-1.29253e-05
5.45048e-05
-3.76598e-06
-3.58136e-05
9.7269e-05
-4.33702e-06
-6.16391e-05
0.000109692
-4.20944e-06
-8.77366e-05
0.000110709
-3.91759e-06
-0.000113192
0.000107752
-3.70951e-06
-0.000137575
0.00010289
-3.59812e-06
-0.000160519
9.63803e-05
-3.59558e-06
-0.000181599
8.79796e-05
-3.73614e-06
-0.000200277
7.72664e-05
-4.06683e-06
-0.000215844
6.37055e-05
-4.644e-06
-0.000227364
4.66894e-05
-5.5287e-06
-0.000233621
2.56209e-05
-6.78135e-06
-0.000233238
1.79036e-07
-8.45709e-06
-0.0002243
-3.04298e-05
-1.05126e-05
-0.000205099
-6.49776e-05
-1.28696e-05
-0.00017428
-0.000101616
-1.52811e-05
-0.000131854
-0.000135838
-1.72779e-05
-8.08993e-05
-0.000158479
-1.81756e-05
-3.03468e-05
-0.000152688
-1.71749e-05
-8.5874e-05
-1.07039e-05
-1.33427e-05
6.9097e-05
-4.29121e-06
-3.72261e-05
0.000123097
-5.04821e-06
-6.42464e-05
0.000138692
-4.95125e-06
-9.16358e-05
0.000140001
-4.65046e-06
-0.000118513
0.000136468
-4.43433e-06
-0.00014453
0.000130726
-4.32519e-06
-0.000169417
0.000123134
-4.34415e-06
-0.000192859
0.000113421
-4.5373e-06
-0.000214411
0.000101064
-4.96803e-06
-0.000233426
8.53569e-05
-5.71578e-06
-0.000248954
6.54241e-05
-6.87368e-06
-0.000259637
4.02954e-05
-8.53977e-06
-0.000263588
9.11871e-06
-1.07885e-05
-0.000258468
-2.92291e-05
-1.37615e-05
-0.000241326
-7.42918e-05
-1.72604e-05
-0.0002095
-0.000123993
-2.10239e-05
-0.000161769
-0.000172585
-2.43911e-05
-0.00010096
-0.000207189
-2.62613e-05
-3.84577e-05
-0.000203078
-2.51785e-05
-0.000115489
-1.58856e-05
-1.38369e-05
8.44155e-05
-4.89967e-06
-3.88686e-05
0.000150428
-5.87343e-06
-6.72507e-05
0.00016942
-5.81055e-06
-9.60887e-05
0.000171098
-5.49806e-06
-0.000124543
0.000167104
-5.27094e-06
-0.000152371
0.000160709
-5.16343e-06
-0.000179444
0.000152411
-5.20848e-06
-0.000205605
0.000141938
-5.46775e-06
-0.000230582
0.000128687
-6.02669e-06
-0.000253875
0.000111774
-6.99765e-06
-0.000274616
9.0009e-05
-8.52256e-06
-0.000291369
6.19158e-05
-1.07654e-05
-0.000301888
2.58837e-05
-1.38997e-05
-0.000303105
-1.98782e-05
-1.81609e-05
-0.000290593
-7.64821e-05
-2.3484e-05
-0.000259583
-0.000142147
-2.95369e-05
-0.000206467
-0.000210267
-3.54128e-05
-0.000132693
-0.000263508
-3.93256e-05
-5.24021e-05
-0.000265685
-3.8433e-05
-0.000155233
-2.45072e-05
-1.4428e-05
0.00010061
-5.63892e-06
-4.07927e-05
0.000179526
-6.87637e-06
-7.0703e-05
0.000202122
-6.84768e-06
-0.000101105
0.000204185
-6.50981e-06
-0.000131206
0.000199792
-6.25397e-06
-0.000160899
0.000192943
-6.13e-06
-0.000190239
0.000184334
-6.18621e-06
-0.000219301
0.000173742
-6.50412e-06
-0.000248079
0.000160539
-7.19805e-06
-0.000276363
0.000143699
-8.42553e-06
-0.000303542
0.000121717
-1.04002e-05
-0.000328314
9.25291e-05
-1.34001e-05
-0.000348212
5.35049e-05
-1.77765e-05
-0.000359732
2.00692e-06
-2.3908e-05
-0.000356417
-6.6288e-05
-3.19903e-05
-0.00033067
-0.000150439
-4.18358e-05
-0.000274621
-0.000244536
-5.22888e-05
-0.000185664
-0.000326987
-6.04992e-05
-7.87538e-05
-0.000346433
-6.08395e-05
-0.000215903
-3.94397e-05
-1.5143e-05
0.000117878
-6.56023e-06
-4.30492e-05
0.000210706
-8.12556e-06
-7.46313e-05
0.000237043
-8.1255e-06
-0.000106634
0.000239389
-7.73417e-06
-0.00013832
0.000234543
-7.41324e-06
-0.000169742
0.00022735
-7.2327e-06
-0.000201191
0.000218777
-7.26007e-06
-0.000233042
0.000208738
-7.60069e-06
-0.00026568
0.000196671
-8.40383e-06
-0.000299368
0.000181519
-9.884e-06
-0.000334037
0.000161564
-1.23506e-05
-0.000368917
0.0001342
-1.62408e-05
-0.000401959
9.57037e-05
-2.21231e-05
-0.000428855
4.13036e-05
-3.06118e-05
-0.000442729
-3.50866e-05
-4.29319e-05
-0.000431948
-0.000137991
-5.8964e-05
-0.000381976
-0.000264194
-7.75218e-05
-0.000280556
-0.000391597
-9.43951e-05
-0.00013394
-0.000454754
-9.88646e-05
-0.00032503
-6.67077e-05
-1.60535e-05
0.000136518
-7.73274e-06
-4.57699e-05
0.000244382
-9.71051e-06
-7.91562e-05
0.000274456
-9.72436e-06
-0.000112708
0.000276778
-9.23161e-06
-0.000145754
0.000271227
-8.78416e-06
-0.000178534
0.00026362
-8.47779e-06
-0.000211606
0.000255288
-8.403e-06
-0.000245717
0.000246386
-8.69112e-06
-0.000281757
0.000236573
-9.5293e-06
-0.00032068
0.000224963
-1.11963e-05
-0.000363326
0.000209881
-1.41182e-05
-0.000410048
0.00018846
-1.8946e-05
-0.000460009
0.000156103
-2.66346e-05
-0.000509873
0.000105992
-3.85154e-05
-0.000553318
2.94903e-05
-5.60289e-05
-0.000576135
-8.53718e-05
-8.07679e-05
-0.00055514
-0.000245411
-0.000111897
-0.00045702
-0.000440826
-0.000142868
-0.000254814
-0.00060796
-0.000155393
-0.000552051
-0.000113193
-1.73154e-05
0.000157023
-9.26086e-06
-4.92409e-05
0.000281153
-1.17606e-05
-8.45815e-05
0.000314696
-1.17587e-05
-0.000119543
0.000316369
-1.1088e-05
-0.00015354
0.000309552
-1.04184e-05
-0.000187024
0.000301174
-9.87862e-06
-0.000220845
0.000293014
-9.58536e-06
-0.000256141
0.000285579
-9.69439e-06
-0.000294373
0.000278928
-1.0426e-05
-0.000337356
0.000272654
-1.21171e-05
-0.000387236
0.000265594
-1.53067e-05
-0.000446282
0.000255283
-2.08693e-05
-0.000516333
0.000237118
-3.01849e-05
-0.000597795
0.00020339
-4.52188e-05
-0.000687232
0.00014219
-6.83145e-05
-0.000774475
3.52984e-05
-0.00010179
-0.000822611
-0.000154145
-0.000143517
-0.000756059
-0.000463005
-0.000180925
-0.000474138
-0.000858495
-0.00019233
-0.00101674
-0.000162934
-1.92337e-05
0.000180251
-1.13125e-05
-5.40041e-05
0.000321932
-1.44796e-05
-9.14998e-05
0.000358222
-1.44136e-05
-0.00012764
0.000358143
-1.34466e-05
-0.000161978
0.000349068
-1.2407e-05
-0.000195219
0.000339162
-1.14718e-05
-0.000228489
0.000330685
-1.07888e-05
-0.000263283
0.000324575
-1.05317e-05
-0.000301589
0.000321463
-1.09381e-05
-0.000346114
0.000321771
-1.23746e-05
-0.000400537
0.000325489
-1.54414e-05
-0.000469774
0.000331662
-2.11439e-05
-0.00056013
0.000337481
-3.1095e-05
-0.000678825
0.000336578
-4.74207e-05
-0.000831051
0.000314618
-7.14066e-05
-0.00100662
0.000233944
-9.91811e-05
-0.0011492
6.52324e-07
-0.000115629
-0.0011172
-0.000513904
-0.000100437
-0.000729142
-0.00129513
-7.90469e-05
-0.00178132
-0.000142669
-2.23338e-05
0.000207659
-1.41491e-05
-6.09643e-05
0.000368114
-1.81211e-05
-0.000100928
0.000405684
-1.78616e-05
-0.00013795
0.000402083
-1.64066e-05
-0.000171821
0.000389176
-1.48029e-05
-0.000203556
0.000376451
-1.32739e-05
-0.000234547
0.000366612
-1.1988e-05
-0.000266513
0.000360987
-1.11183e-05
-0.000301718
0.000360811
-1.08923e-05
-0.000343477
0.000367617
-1.16393e-05
-0.00039677
0.000383175
-1.38745e-05
-0.000469127
0.000409205
-1.83911e-05
-0.000571743
0.000446583
-2.61162e-05
-0.000719107
0.000491444
-3.65003e-05
-0.000922897
0.000522514
-4.22074e-05
-0.00116593
0.000461907
-1.99166e-05
-0.00137375
0.000138828
7.0281e-05
-0.00135096
-0.000676988
0.000224273
-0.000861804
-0.00190204
0.000245002
-0.0026751
-3.73824e-05
-2.8094e-05
0.000242268
-1.83664e-05
-7.22102e-05
0.000421846
-2.35655e-05
-0.000114639
0.000457541
-2.30607e-05
-0.000151603
0.000447631
-2.08406e-05
-0.000183808
0.000428969
-1.82534e-05
-0.000212684
0.00041188
-1.56805e-05
-0.000239623
0.00039911
-1.33748e-05
-0.000266215
0.000392234
-1.15294e-05
-0.000294638
0.000393109
-1.03087e-05
-0.000328146
0.000404325
-9.90737e-06
-0.000372041
0.000429648
-1.05332e-05
-0.000434791
0.000473716
-1.21207e-05
-0.000529807
0.00054135
-1.30878e-05
-0.000673132
0.000628225
-5.60785e-06
-0.000878845
0.000700887
3.65994e-05
-0.00113337
0.000636696
0.000165844
-0.00137859
0.000214419
0.000424548
-0.00137932
-0.00088844
0.000674976
-0.000852528
-0.00246472
0.000496148
-0.00347924
-1.75534e-05
-3.53373e-05
0.000285982
-2.42517e-05
-8.68793e-05
0.000485816
-3.01465e-05
-0.000133426
0.000516169
-2.89051e-05
-0.000171603
0.000496676
-2.53651e-05
-0.000201775
0.000468556
-2.15453e-05
-0.000226101
0.000444084
-1.77715e-05
-0.000246446
0.000425813
-1.4298e-05
-0.000264327
0.000415012
-1.12713e-05
-0.000281239
0.000413504
-8.77262e-06
-0.000299179
0.000424271
-6.77013e-06
-0.000322038
0.000452619
-4.91037e-06
-0.000356075
0.000504871
-1.57433e-06
-0.000413666
0.000589717
8.62574e-06
-0.000510119
0.000699949
4.36953e-05
-0.000670879
0.000799905
0.000147675
-0.000899531
0.000731753
0.00038855
-0.00117448
0.000270815
0.000759228
-0.00120148
-0.00102855
0.000915327
-0.000745087
-0.00279994
0.000398751
-0.00413853
-0.000147897
-6.86382e-05
0.000364937
-3.43287e-05
-0.000126852
0.000559075
-4.28815e-05
-0.000168852
0.000572872
-4.05714e-05
-0.000198184
0.000539305
-3.52706e-05
-0.000220569
0.000502479
-2.89896e-05
-0.000238068
0.000471098
-2.26888e-05
-0.000251319
0.000446468
-1.68508e-05
-0.000260154
0.000429142
-1.17202e-05
-0.000264396
0.000420907
-7.33113e-06
-0.000263528
0.000424216
-3.42481e-06
-0.000258236
0.000445031
7.95297e-07
-0.000249696
0.000489041
8.52191e-06
-0.000246042
0.000568716
2.80371e-05
-0.000255636
0.000671962
8.32963e-05
-0.000318945
0.000784733
0.000222887
-0.000454094
0.000727333
0.000502013
-0.000667717
0.000303018
0.000848473
-0.000759826
-0.00101467
0.00082272
-0.000510083
-0.00288796
0.00017014
-0.00459346
-0.000305164
-4.85267e-05
0.000425889
-5.1995e-05
-0.000137319
0.000668916
-5.92848e-05
-0.000199532
0.00065505
-5.35329e-05
-0.000238436
0.000596316
-4.32546e-05
-0.000260282
0.000539761
-3.38517e-05
-0.000270045
0.000493358
-2.47474e-05
-0.000270772
0.000456668
-1.64975e-05
-0.000263339
0.000428147
-9.29599e-06
-0.000247649
0.000408552
-3.25751e-06
-0.000220797
0.000397638
1.83004e-06
-0.000180552
0.000400992
6.86509e-06
-0.000120786
0.000419286
1.5774e-05
-3.91214e-05
0.000466848
3.57559e-05
5.70448e-05
0.000534545
8.85711e-05
0.000161024
0.000612882
0.000210231
0.000191873
0.000587899
0.000442681
0.00011564
0.000269906
0.000683665
-0.00011345
-0.000810141
0.000597032
-9.86416e-05
-0.00277861
7.12803e-05
-0.00469947
-0.00042313
-0.000194704
0.000632202
-6.12896e-05
-0.000233355
0.000726749
-7.97102e-05
-0.000264469
0.000706956
-7.76969e-05
-0.000287718
0.000638973
-6.54502e-05
-0.0002867
0.000556423
-4.93925e-05
-0.000267729
0.00048955
-3.37967e-05
-0.00023619
0.000436983
-2.01973e-05
-0.000193271
0.000393437
-9.08737e-06
-0.000141041
0.000361044
-4.52035e-07
-7.62499e-05
0.000334208
5.508e-06
2.64878e-06
0.000319661
9.29257e-06
0.000100365
0.000312367
1.44932e-05
0.000226581
0.000323873
2.44879e-05
0.000386716
0.000343594
5.37639e-05
0.000584274
0.000370731
0.00012072
0.000765232
0.00034634
0.000260591
0.000916304
8.36683e-05
0.000372709
0.000776527
-0.000636285
0.000338544
0.00048836
-0.00241532
3.62339e-05
-0.00430496
-0.000483039
-0.000667006
0.00128932
-0.000156772
-0.000629127
0.000711047
-0.00014145
-0.000491692
0.000594335
-0.000112903
-0.000300067
0.000476226
-8.71074e-05
-9.93645e-05
0.000384457
-6.71873e-05
9.90782e-05
0.000317403
-4.9186e-05
0.000288206
0.000270843
-3.36525e-05
0.000466897
0.000233558
-2.05165e-05
0.000635781
0.000207188
-9.70529e-06
0.000796464
0.00018421
-1.36981e-06
0.000953005
0.000169855
3.17326e-06
0.00110889
0.000158405
4.59393e-06
0.00127718
0.000152959
4.7293e-06
0.00145933
0.000151105
1.06303e-05
0.00168809
0.000130608
1.61267e-05
0.00192864
9.0079e-05
7.24679e-05
0.00211847
-0.000104496
0.000109233
0.00209354
-0.000547818
7.95044e-05
0.00141624
-0.00169302
-2.15165e-05
-0.00308657
-0.000519559
0.00127023
-0.000128904
0.00197153
-0.000147842
0.00256167
-0.000150686
0.00304185
-0.000143244
0.00343751
-0.000132118
0.00377008
-0.000120162
0.00405891
-0.000108372
0.0043118
-9.69515e-05
0.00453865
-8.5926e-05
0.00474233
-7.70106e-05
0.00492985
-6.6412e-05
0.00510481
-6.1609e-05
0.00527115
-5.17104e-05
0.00543614
-5.22871e-05
0.00557671
-3.89158e-05
0.00568677
-4.86231e-05
0.00559748
-2.32228e-05
0.005089
-7.97346e-05
0.00339333
-0.000101172
-0.000568148
-4.69865e-06
4.91491e-06
-1.14779e-06
-1.51171e-05
1.09827e-05
-1.2521e-06
-2.73541e-05
1.29034e-05
-1.15717e-06
-3.98357e-05
1.3183e-05
-1.06851e-06
-5.20432e-05
1.29135e-05
-1.06341e-06
-6.37543e-05
1.24146e-05
-1.14114e-06
-7.4751e-05
1.17018e-05
-1.30147e-06
-8.47476e-05
1.07118e-05
-1.55238e-06
-9.33764e-05