/*--------------------------------*- C++ -*----------------------------------*\
  =========                 |
  \\      /  F ield         | OpenFOAM: The Open Source CFD Toolbox
   \\    /   O peration     | Website:  https://openfoam.org
    \\  /    A nd           | Version:  10
     \\/     M anipulation  |
\*---------------------------------------------------------------------------*/
FoamFile
{
    format      ascii;
    class       volScalarField;
    location    "4.075";
    object      p;
}
// * * * * * * * * * * * * * * * * * * * * * * * * * * * * * * * * * * * * * //

dimensions      [0 2 -2 0 0 0 0];

internalField   nonuniform List<scalar> 
400
(
7.87053e-09
-2.99479e-05
-8.48685e-06
3.93426e-05
0.000119694
0.000233182
0.000380327
0.000561428
0.000775967
0.00102212
0.0012963
0.00159266
0.00190269
0.00221491
0.00251504
0.00278659
0.00301156
0.00317266
0.00326708
0.00324829
3.0282e-05
-7.14637e-07
2.22188e-05
6.80892e-05
0.000144498
0.000252677
0.000393563
0.000567832
0.000775335
0.00101465
0.0012826
0.00157344
0.00187958
0.00218962
0.00248931
0.002762
0.00298918
0.00315339
0.00325292
0.00323282
5.12421e-06
-3.1032e-05
-9.76373e-06
3.33149e-05
0.000106584
0.000211511
0.000349443
0.000521608
0.000728501
0.00096937
0.00124169
0.00154101
0.0018594
0.00218548
0.00250438
0.00279799
0.00304531
0.00322556
0.00333598
0.00331115
-5.21252e-05
-9.25967e-05
-7.36622e-05
-3.4314e-05
3.47619e-05
0.000135436
0.000269708
0.000439663
0.000646804
0.00089151
0.0011724
0.00148571
0.00182502
0.00217885
0.00253126
0.00286151
0.00314448
0.00335375
0.00348421
0.00345739
-0.000147249
-0.000192393
-0.000176569
-0.000141912
-7.80234e-05
1.74962e-05
0.000147511
0.000315245
0.000523585
0.000774517
0.00106838
0.00140292
0.00177293
0.0021675
0.00256982
0.00295606
0.00329498
0.00355088
0.00371396
0.0036875
-0.000280317
-0.000331089
-0.000319312
-0.000290715
-0.000233663
-0.000145131
-2.12016e-05
0.000142781
0.000351499
0.000609106
0.000918422
0.00127967
0.00168934
0.00213869
0.00261027
0.00307662
0.00349853
0.00382613
0.0040406
0.00401872
-0.000451303
-0.000508946
-0.000502385
-0.000481777
-0.000434091
-0.000355624
-0.00024126
-8.46462e-05
0.000121121
0.000383016
0.000707235
0.00109825
0.00155441
0.00207241
0.00263514
0.00321192
0.00375386
0.00419081
0.00448619
0.00447934
-0.000660502
-0.000726481
-0.000726566
-0.000716466
-0.000681628
-0.000617709
-0.000518324
-0.000375244
-0.000178987
8.0852e-05
0.000414894
0.000832407
0.00133985
0.0019384
0.0026155
0.00333984
0.00405241
0.00465682
0.00508122
0.00511592
-0.000908283
-0.00098422
-0.000992532
-0.000995962
-0.00097838
-0.000934963
-0.00085813
-0.000737756
-0.000561598
-0.000315327
1.71067e-05
0.000452267
0.00100607
0.00169084
0.00250324
0.00341769
0.00436843
0.00522989
0.00586471
0.00600789
-0.00119508
-0.00128266
-0.00130067
-0.00132091
-0.00132571
-0.00131012
-0.0012656
-0.00118037
-0.00103956
-0.000824768
-0.000513732
-8.08762e-05
0.000499785
0.00126322
0.00222016
0.00336521
0.00463869
0.0058909
0.0068822
0.00729612
-0.00152162
-0.00162243
-0.00165097
-0.00169106
-0.00172365
-0.00174415
-0.0017436
-0.00170912
-0.00162389
-0.00146611
-0.00120759
-0.000812134
-0.000233993
0.000562404
0.00164172
0.00303545
0.00472172
0.00655619
0.00816639
0.00922369
-0.00188961
-0.00200473
-0.00204304
-0.00210493
-0.00217016
-0.00223521
-0.00229137
-0.0023256
-0.00232051
-0.00225292
-0.0020915
-0.00179315
-0.00129925
-0.000534361
0.000589916
0.00217376
0.00431105
0.00695312
0.00960793
0.0122245
-0.0023032
-0.00243233
-0.00247638
-0.00255948
-0.00266029
-0.00277731
-0.00290269
-0.00302422
-0.00312592
-0.00318664
-0.00317725
-0.00305579
-0.00276015
-0.00219986
-0.0012483
0.00026628
0.00268826
0.00623561
0.0105684
0.0160349
-0.00277088
-0.00290739
-0.00294491
-0.00304425
-0.00318235
-0.0033584
-0.00356445
-0.00378991
-0.00402278
-0.00424815
-0.00444601
-0.00458795
-0.00463
-0.00449754
-0.00407344
-0.00315678
-0.00132793
0.00235145
0.00802632
0.0177472
-0.00332004
-0.00347422
-0.00349406
-0.00360665
-0.00376813
-0.00398927
-0.00426915
-0.0046022
-0.00498142
-0.00540098
-0.00585868
-0.00635668
-0.00690428
-0.0075224
-0.00828084
-0.00925478
-0.0102408
-0.00880037
-0.00364271
0.0110957
-0.00402864
-0.00397842
-0.00391658
-0.00397761
-0.00417191
-0.00448037
-0.00488423
-0.00536678
-0.00592082
-0.00654897
-0.00727077
-0.00813167
-0.00922894
-0.0107332
-0.013113
-0.0169614
-0.0231606
-0.0261296
-0.0228408
-0.00204216
-0.00450072
-0.00495503
-0.00477855
-0.00493798
-0.00510884
-0.00539698
-0.00580421
-0.00632887
-0.0069703
-0.00773704
-0.00866288
-0.00982746
-0.0114333
-0.0137525
-0.0178664
-0.0241209
-0.0359522
-0.0447292
-0.0415512
-0.00895415
-0.00772582
-0.00521017
-0.0047698
-0.00446259
-0.00467293
-0.00514401
-0.00580078
-0.00657333
-0.00744984
-0.00842075
-0.00954284
-0.0108628
-0.0127329
-0.0152103
-0.0201469
-0.027309
-0.0399453
-0.0479568
-0.0413841
0.0116836
-0.00454803
-0.0074319
-0.00663179
-0.006955
-0.00691646
-0.00709793
-0.00747462
-0.00804079
-0.00876585
-0.0096376
-0.0106566
-0.0118344
-0.013641
-0.0158861
-0.0208783
-0.027355
-0.0371144
-0.0367466
-0.0126341
0.0733518
-0.0291216
-0.00423304
-0.0031835
-0.00278612
-0.00299683
-0.00368456
-0.00470193
-0.00577442
-0.00698724
-0.00816342
-0.00959202
-0.0110277
-0.0131078
-0.0155794
-0.0188321
-0.0209079
-0.01849
0.00646339
0.0721297
0.21109
)
;

boundaryField
{
    movingWall
    {
        type            zeroGradient;
    }
    fixedWalls
    {
        type            zeroGradient;
    }
    frontAndBack
    {
        type            empty;
    }
}


// ************************************************************************* //
