/*--------------------------------*- C++ -*----------------------------------*\
  =========                 |
  \\      /  F ield         | OpenFOAM: The Open Source CFD Toolbox
   \\    /   O peration     | Website:  https://openfoam.org
    \\  /    A nd           | Version:  10
     \\/     M anipulation  |
\*---------------------------------------------------------------------------*/
FoamFile
{
    format      ascii;
    class       volScalarField;
    location    "5.825";
    object      p;
}
// * * * * * * * * * * * * * * * * * * * * * * * * * * * * * * * * * * * * * //

dimensions      [0 2 -2 0 0 0 0];

internalField   nonuniform List<scalar> 
496
(
26.0293
26.3197
23.1217
16.6292
26.7156
27.4076
23.3135
16.9397
31.7725
29.5106
20.8611
10.4086
39.9282
36.7818
32.7371
16.8868
7.88468
-1.52173
7.86713
-1.28819
-4.85664
-10.0377
-35.4649
-60.2078
-8.8225
-13.4991
-15.988
-17.0286
-8.94788
-14.7561
-18.2928
-19.8346
-3.69381
-4.83085
-9.9348
-16.3483
-30.4914
-15.4224
-8.92202
-12.2548
-17.6485
-18.0384
-18.1972
-18.0168
-17.5151
-17.1235
-16.6347
-16.2783
-15.6087
-14.7147
-13.6612
-12.6444
-11.9486
-11.1577
-10.723
-10.1801
-9.53881
-8.52993
-7.37124
-6.44992
-5.6829
-5.2709
-4.60838
-4.00163
-3.32575
-2.97061
-3.04712
-3.47276
-4.02609
-4.10046
-4.01195
-3.69998
-3.51808
-3.40629
-3.05663
-2.60888
-1.86996
-1.13285
-0.554724
-0.120569
-20.391
-20.2698
-19.5057
-18.4179
-17.4456
-16.8871
-16.4235
-16.1606
-15.3258
-14.4133
-13.4743
-12.7165
-12.0175
-11.1804
-10.6972
-10.0468
-9.47174
-8.5161
-7.47925
-6.56146
-5.64719
-5.02162
-4.2198
-3.76902
-3.19823
-2.89662
-3.04966
-3.38381
-4.01954
-4.13
-4.08555
-3.80779
-3.65046
-3.5464
-3.23741
-2.76134
-1.97104
-1.12687
-0.498631
-0.0207532
-20.8306
-22.4073
-21.2503
-19.5816
-18.5053
-17.8094
-17.315
-16.3454
-15.3592
-14.6204
-13.774
-12.9216
-11.7881
-11.2226
-10.8346
-10.5025
-9.97361
-8.9068
-7.83863
-6.34114
-5.36016
-4.2109
-3.6411
-3.40092
-2.75823
-2.97121
-3.27596
-4.08837
-4.60955
-5.04565
-5.0063
-4.5912
-4.1096
-3.35388
-2.82933
-2.0682
-1.44892
-1.02984
-0.423572
-0.200912
-19.5428
-21.7859
-18.1539
-18.148
-18.7081
-18.4775
-17.7156
-16.0699
-15.6881
-14.8755
-13.8534
-12.65
-11.1419
-11.1308
-10.6196
-10.9349
-10.2773
-9.53525
-8.59527
-6.80733
-5.32374
-3.16935
-2.51063
-1.27885
-1.34537
-2.06202
-2.73913
-3.87669
-4.59935
-5.76499
-5.70386
-5.82065
-5.30419
-4.38371
-3.32425
-1.71672
-0.735447
0.270417
0.426285
0.180551
44.8146
46.1724
60.5474
72.6087
44.978
46.9859
61.0042
73.6265
-31.4262
-32.0879
-24.7451
-32.304
-29.597
-36.1486
-27.6566
-17.5633
-24.1134
-18.8773
-19.7171
-23.5179
-18.5488
-18.542
-18.981
-15.9561
-15.8667
-14.9219
-13.3605
-13.0054
-12.1086
-11.1157
-10.4307
-9.96551
-9.4667
-8.70868
-7.67754
-6.5518
-5.33188
-4.6744
-3.81893
-2.88666
-3.30965
-3.21256
-3.16453
-3.62584
-4.01248
-4.45033
-4.6095
-4.64741
-4.60639
-3.83165
-2.89115
-2.314
-1.44712
-0.790168
-0.550647
-0.181888
-27.1967
-22.2435
-20.1007
-19.1101
-20.1562
-21.268
-17.9721
-15.6709
-16.4385
-16.3151
-15.0447
-13.9642
-12.8734
-11.469
-10.2097
-9.10366
-7.91346
-6.72963
-6.22738
-5.73173
-5.36391
-5.64979
-5.76475
-5.28114
-5.1826
-4.8908
-4.18185
-3.58455
-3.02014
-2.5591
-2.18256
-2.49192
-2.56127
-2.4425
-2.64901
-2.398
-1.99233
-1.72578
-1.00792
-0.309678
40.6161
37.7709
34.5862
19.4271
33.5239
30.9451
22.7996
12.1697
28.5334
28.7216
24.4487
17.9698
27.666
27.6513
24.0747
17.9631
-29.6921
-55.9874
-2.94321
-7.95823
8.91345
-0.206605
9.22359
-0.228924
-25.67
-10.795
-16.3651
-18.9605
-2.69303
-4.70952
-11.8534
-16.8474
-8.31004
-14.141
-17.8724
-19.8374
-7.69552
-12.7124
-15.3489
-16.7877
-18.443
-17.6498
-18.0905
-18.1849
-16.4884
-17.7723
-18.5384
-17.7869
-16.2832
-15.4591
-14.9382
-14.1643
-13.2951
-11.6068
-10.2154
-8.04677
-6.62775
-5.51672
-4.74259
-5.267
-5.28503
-6.04426
-6.13596
-6.33362
-5.94806
-5.47017
-4.57345
-3.02229
-1.67187
-0.323603
-0.288069
-0.275238
-1.24604
-1.93797
-2.39605
-2.82784
-2.49185
-2.22956
-1.52985
-0.498169
-19.7747
-20.4556
-19.7156
-18.7419
-17.6908
-17.5053
-17.4629
-17.26
-16.4159
-15.3743
-14.6329
-13.7313
-12.7093
-11.3106
-10.1318
-8.75658
-7.59937
-6.7253
-6.19231
-6.26564
-6.09647
-6.1242
-6.0106
-5.87078
-5.46663
-4.78134
-4.01704
-3.10304
-2.37958
-2.1206
-1.87066
-1.66954
-1.8761
-2.13969
-2.39565
-2.36182
-2.10866
-1.64948
-1.05467
-0.31993
-20.3083
-20.1936
-19.3296
-18.2213
-17.1896
-16.5884
-16.4618
-16.2882
-16.0502
-15.2576
-14.3667
-13.4163
-12.3901
-11.3172
-10.103
-9.04239
-7.73373
-6.84584
-6.23722
-5.86226
-5.67552
-5.47193
-5.45187
-5.27873
-5.16247
-4.68645
-4.02022
-3.37322
-2.81552
-2.49151
-2.08624
-1.72248
-1.3872
-1.34218
-1.34054
-1.52404
-1.41702
-1.02271
-0.585925
-0.177451
-17.5197
-17.9526
-17.9956
-17.7692
-17.3345
-16.7729
-16.4672
-16.118
-15.8864
-15.2543
-14.3777
-13.3931
-12.3049
-11.2925
-10.059
-9.12344
-8.09026
-7.29268
-6.68564
-6.25168
-5.99236
-5.52607
-5.40482
-5.34344
-5.27379
-4.78995
-4.00755
-3.38818
-2.99721
-2.71867
-2.32741
-1.85549
-1.43507
-1.2311
-1.2868
-1.33997
-1.2562
-0.937785
-0.554047
-0.211353
)
;

boundaryField
{
    inlet
    {
        type            zeroGradient;
    }
    outlet
    {
        type            fixedValue;
        value           uniform 0;
    }
    obstacle
    {
        type            zeroGradient;
    }
    upperWall
    {
        type            zeroGradient;
    }
    lowerWall
    {
        type            zeroGradient;
    }
    frontAndBack
    {
        type            empty;
    }
}


// ************************************************************************* //
