/*--------------------------------*- C++ -*----------------------------------*\
  =========                 |
  \\      /  F ield         | OpenFOAM: The Open Source CFD Toolbox
   \\    /   O peration     | Website:  https://openfoam.org
    \\  /    A nd           | Version:  10
     \\/     M anipulation  |
\*---------------------------------------------------------------------------*/
FoamFile
{
    format      ascii;
    class       volScalarField;
    location    "1.1";
    object      p;
}
// * * * * * * * * * * * * * * * * * * * * * * * * * * * * * * * * * * * * * //

dimensions      [0 2 -2 0 0 0 0];

internalField   nonuniform List<scalar> 
400
(
-9.61267e-10
3.12293e-05
0.0001487
0.000336619
0.000591501
0.000907443
0.00127695
0.00169117
0.00214007
0.00261254
0.00309664
0.00357975
0.00404888
0.00449094
0.00489311
0.00524324
0.0055303
0.00574501
0.00588113
0.0059206
-3.15778e-05
-5.62686e-07
0.000118036
0.000307459
0.000564446
0.000883135
0.00125602
0.00167424
0.0021277
0.00260526
0.00309484
0.00358378
0.0040589
0.00450693
0.00491483
0.00527019
0.00556173
0.00577995
0.0059186
0.00595842
-0.000151075
-0.000119669
3.12292e-06
0.000199358
0.000465718
0.000796171
0.001183
0.00161712
0.00208816
0.00258467
0.00309433
0.0036039
0.0040998
0.00456819
0.00499537
0.00536819
0.00567456
0.00590421
0.00605032
0.00609194
-0.000350106
-0.000317373
-0.000187486
2.02187e-05
0.000302287
0.000652382
0.00106243
0.00152291
0.00202305
0.00255088
0.0030935
0.0036371
0.00416729
0.0046693
0.00512836
0.00553011
0.00586114
0.00610987
0.00626845
0.00631379
-0.000633506
-0.000598704
-0.000458658
-0.000234582
6.98475e-05
0.000447838
0.000890777
0.00138858
0.00192982
0.00250189
0.00309114
0.00368294
0.00426181
0.00481176
0.00531651
0.00575995
0.00612673
0.0064033
0.00658021
0.00663124
-0.00100847
-0.000970899
-0.000817392
-0.00057168
-0.000237765
0.000176924
0.000663046
0.00120975
0.00180483
0.00243486
0.00308529
0.00374052
0.00438377
0.00499749
0.00556348
0.00606326
0.00647878
0.00679364
0.00699597
0.00705513
-0.0014843
-0.00144326
-0.00127267
-0.000999564
-0.000628412
-0.000167509
0.000372848
0.000980844
0.00164333
0.00234592
0.00307313
0.00380829
0.00453316
0.00522841
0.00587345
0.00644681
0.00692677
0.00729286
0.00752961
0.00760013
-0.00207294
-0.00202773
-0.00183596
-0.00152901
-0.00111201
-0.000594436
1.21785e-05
0.00069482
0.00143923
0.00223004
0.00305074
0.00388372
0.00470929
0.00550615
0.00625101
0.00691866
0.00748257
0.00791653
0.0081996
0.00828599
-0.00278943
-0.00273928
-0.00252157
-0.00217337
-0.00170074
-0.00111478
-0.000428654
0.00034313
0.00118506
0.00208074
0.0030128
0.0039629
0.00491015
0.0058314
0.00670045
0.00748771
0.00816041
0.0086843
0.0090301
0.00913913
-0.00365251
-0.00359655
-0.00334719
-0.00294891
-0.00240923
-0.0017415
-0.000961069
-8.42963e-05
0.000871873
0.00189006
0.00295228
0.00403997
0.00513165
0.00620291
0.0072248
0.00816288
0.00897661
0.00962064
0.0100526
0.0101952
-0.00468577
-0.00462275
-0.00433459
-0.00387537
-0.00325488
-0.00248971
-0.00159814
-0.000598935
0.000489323
0.00164839
0.00286009
0.00410655
0.00536664
0.00661598
0.00782403
0.0089515
0.00994872
0.0107554
0.0113083
0.0115032
-0.00591926
-0.00584701
-0.0055108
-0.0049766
-0.00425815
-0.00337661
-0.00235435
-0.00121326
2.60847e-05
0.00134475
0.00272501
0.00415102
0.00560362
0.0070606
0.00849219
0.00985627
0.0110931
0.0121237
0.0128506
0.0131333
-0.00739263
-0.00730649
-0.00690978
-0.00628159
-0.00544292
-0.00442129
-0.00324482
-0.00193976
-0.000529218
0.000967491
0.00253377
0.00415817
0.00582525
0.00751872
0.00921366
0.0108696
0.0124201
0.0137647
0.0147487
0.0151888
-0.00916193
-0.00905016
-0.00857531
-0.00782589
-0.00683685
-0.00564391
-0.00428387
-0.00278932
-0.00118636
0.000505917
0.00227533
0.00410932
0.00600691
0.00796073
0.00995712
0.0119656
0.0139222
0.0157169
0.0170913
0.017827
-0.0112919
-0.0111384
-0.0105644
-0.00965379
-0.00847146
-0.00706441
-0.00548345
-0.00376929
-0.00195174
-4.96166e-05
0.00192833
0.00398101
0.00611578
0.00834207
0.0106675
0.0130864
0.0155555
0.018001
0.0199667
0.0213292
-0.0140361
-0.0137038
-0.0129717
-0.0118234
-0.0103822
-0.00870072
-0.00684951
-0.00487929
-0.00282349
-0.000699611
0.00148895
0.00375212
0.00611304
0.0086014
0.0112566
0.0141169
0.0171853
0.0205428
0.0233628
0.0261345
-0.0168407
-0.0166684
-0.0158411
-0.0143914
-0.0126033
-0.0105626
-0.00837612
-0.00610556
-0.00378696
-0.0014345
0.000956264
0.00340431
0.00595737
0.00865649
0.011576
0.0148292
0.0184554
0.0231046
0.0269443
0.0329659
-0.0232061
-0.0206173
-0.0195584
-0.0174768
-0.0151601
-0.01263
-0.0100201
-0.00739879
-0.00479668
-0.00221644
0.000359482
0.00296673
0.00566669
0.00853068
0.011699
0.0154729
0.0198295
0.0263747
0.0321182
0.0430313
-0.0266045
-0.026653
-0.0246924
-0.0218692
-0.0185919
-0.0151737
-0.0118945
-0.00879882
-0.00586144
-0.00304759
-0.00031904
0.0023661
0.00503984
0.00778429
0.0105148
0.0140628
0.0162445
0.0251412
0.0270483
0.0521508
-0.0517121
-0.0279416
-0.0266129
-0.0231825
-0.0193294
-0.0157852
-0.0124584
-0.00928435
-0.00626973
-0.0033964
-0.000628169
0.00208217
0.00476756
0.00760434
0.0106125
0.0149551
0.0200715
0.0333107
0.0508887
0.103144
)
;

boundaryField
{
    movingWall
    {
        type            zeroGradient;
    }
    fixedWalls
    {
        type            zeroGradient;
    }
    frontAndBack
    {
        type            empty;
    }
}


// ************************************************************************* //
