/*--------------------------------*- C++ -*----------------------------------*\
  =========                 |
  \\      /  F ield         | OpenFOAM: The Open Source CFD Toolbox
   \\    /   O peration     | Website:  https://openfoam.org
    \\  /    A nd           | Version:  10
     \\/     M anipulation  |
\*---------------------------------------------------------------------------*/
FoamFile
{
    format      ascii;
    class       surfaceScalarField;
    location    "7.4";
    object      phi;
}
// * * * * * * * * * * * * * * * * * * * * * * * * * * * * * * * * * * * * * //

dimensions      [0 3 -1 0 0 0 0];

internalField   nonuniform List<scalar> 
928
(
0.0958129
0.00418707
0.103471
-0.00765806
0.106855
-0.00338404
-0.0095212
0.116376
0.0948429
0.00934421
0.10608
-0.018895
0.10294
-0.000244081
-0.019603
0.113022
0.0958916
0.0134526
0.109334
-0.0323375
0.104162
0.00492838
-0.0411836
0.125742
0.102942
0.010511
0.0928426
-0.0222385
0.0982346
-0.000463614
0.146731
-0.0896801
0.111478
0.00489852
-0.0162014
0.127679
0.109541
0.00837885
-0.041628
0.134968
0.127383
0.0067378
-0.0476833
0.133439
0.153469
0.105786
0.127724
-4.4431e-05
0.127712
1.16242e-05
0.129272
-0.00156018
-0.00166723
0.130939
0.135917
-0.000994112
0.135483
0.000446341
0.135773
-0.00185008
-0.00288874
0.136994
0.135317
-0.00287232
0.137296
-0.00153278
0.141172
-0.00572615
-0.00180439
0.140088
0.111721
-0.00880773
0.0911966
0.0189917
0.0912097
-0.0057393
0.0981014
-0.00869605
0.132018
-0.0010787
0.132395
-0.000377023
0.131482
0.000912856
0.130732
0.000749855
0.129544
0.00118802
0.128946
0.000597898
0.127954
0.000992349
0.127527
0.000426955
0.127029
0.000498026
0.126019
0.00100971
0.124659
0.00136077
0.121855
0.00280363
0.119025
0.00283025
0.11511
0.00391518
0.112489
0.00262008
0.11035
0.00213989
0.1096
0.00074942
0.110185
-0.000584648
0.111326
-0.00114173
0.113976
-0.00264917
0.11532
-0.00134437
0.116749
-0.00142858
0.116373
0.000375368
0.114744
0.00162948
0.111668
0.00307626
0.107102
0.00456558
0.10354
0.00356144
0.0995506
0.00398994
0.0983548
0.00119578
0.0975198
0.000834936
0.0982635
-0.000743687
0.100146
-0.00188208
0.101833
-0.00168725
0.105702
-0.0038695
0.108443
-0.00274038
0.11265
-0.00420705
0.115059
-0.0024096
0.116456
-0.00139654
0.116036
0.00042021
0.00341542
0.137522
-0.0016066
0.137542
-0.000397208
0.136934
0.00152115
0.137084
0.000599365
0.136361
0.0019112
0.135923
0.00103595
0.135658
0.00125721
0.136354
-0.000269024
0.136181
0.000671834
0.135277
0.001913
0.133987
0.00265113
0.131884
0.00490694
0.129703
0.00501085
0.126716
0.0069019
0.12405
0.00528665
0.12161
0.00457933
0.120453
0.00190644
0.121175
-0.00130602
0.122569
-0.00253649
0.125167
-0.00524639
0.127067
-0.00324459
0.129348
-0.00370988
0.130217
-0.000493888
0.129743
0.00210352
0.128023
0.00479705
0.124621
0.007967
0.121681
0.00650164
0.117461
0.00821012
0.115102
0.00355457
0.114423
0.00151347
0.114365
-0.000685708
0.116098
-0.00361467
0.117083
-0.0026724
0.120297
-0.00708376
0.121701
-0.00414415
0.125201
-0.00770696
0.127748
-0.00495657
0.129855
-0.00350299
0.132468
-0.00219311
0.00418183
0.137248
0.00123291
0.134627
0.00222386
0.136231
-8.21998e-05
0.135938
0.000891483
0.13507
0.00277956
0.135333
0.000772878
0.136727
-0.000136834
0.13598
0.000478159
0.135307
0.00134461
0.136069
0.00115107
0.136551
0.00216892
0.136813
0.00464541
0.134496
0.00732787
0.132241
0.00915721
0.128877
0.0086501
0.126817
0.00663903
0.125005
0.00371923
0.123448
0.000250854
0.123394
-0.00248224
0.123247
-0.00510031
0.125126
-0.00512344
0.12743
-0.00601312
0.1307
-0.00376403
0.133602
-0.000798531
0.134228
0.00417067
0.133485
0.00871022
0.130162
0.00982496
0.129443
0.00892897
0.128919
0.00407824
0.128382
0.00205082
0.127256
0.000439991
0.123733
-9.15415e-05
0.119281
0.00177921
0.113569
-0.00137154
0.11014
-0.000714905
0.108863
-0.00643041
0.110377
-0.00647071
0.11364
-0.00676588
0.119181
-0.00773413
0.000779468
0.096042
0.0032923
0.0910893
0.00717649
0.0982914
-0.00728426
0.0953631
0.00381977
0.0885262
0.00961651
0.0919861
-0.00268708
0.0922591
-0.000409849
0.0888909
0.00384642
0.090878
-0.000642514
0.0945058
-0.00247677
0.0986846
-0.00200985
0.103585
-0.000254889
0.108668
0.00224478
0.110968
0.00685756
0.109172
0.0104461
0.104668
0.0111423
0.0976456
0.010742
0.0898557
0.00804069
0.0839335
0.00344004
0.0807476
-0.00191444
0.0820452
-0.00642105
0.0861174
-0.0100854
0.0925972
-0.0102438
0.0998086
-0.00800999
0.108347
-0.00436774
0.115365
0.00169202
0.118747
0.00644357
0.116577
0.0110985
0.105955
0.0147003
0.0900833
0.0179226
0.0729089
0.0176143
0.0602051
0.0126122
0.054261
0.00772334
0.0521468
0.000742689
0.0560723
-0.00464044
0.0595093
-0.00986741
0.0663679
-0.0133293
0.0732973
-0.0136953
0.0813009
-0.0157377
-0.00727917
0.110931
-0.00041995
0.0886787
1.37243e-05
0.0893304
-0.00111531
-0.000349784
0.109759
-0.010179
0.0880958
0.021677
0.0869609
1.95662e-05
0.0866111
-0.00308414
-0.00572359
-0.025228
0.0411356
-0.0182933
-0.012674
-0.041278
0.0142887
-0.00656557
0.000841983
0.0185464
0.0160236
0.0194742
-0.0136019
-0.0176536
-0.00415021
-0.00149999
0.019081
-0.00246171
0.00813822
0.00127851
-0.0110245
0.00560535
-0.000507069
-0.00446481
0.0196867
-0.00553697
-0.00161493
0.00292682
-0.00887364
0.00878694
-0.0020137
0.0100662
-0.00192182
0.012793
-0.00520358
0.0181231
-0.00733989
0.022123
-0.0042548
0.0244493
-8.15756e-05
0.0264238
0.00488311
0.0277408
0.00912908
0.0269798
0.0119033
0.026536
0.0111859
0.0275409
0.00703573
0.0296144
0.00136654
0.0321211
-0.00442111
0.03506
-0.00936
0.0393048
-0.0143301
0.0441507
-0.0150897
0.0495933
-0.0134526
0.0539814
-0.00875585
0.0562784
-0.00060499
0.056319
0.00640294
0.0532624
0.0141551
0.0487355
0.0192272
0.0449028
0.0217553
0.0426669
0.0198502
0.0424963
0.0127828
0.0443186
0.0059011
0.0468773
-0.00181609
0.0496426
-0.00740565
0.0514871
-0.011712
0.0517685
-0.0136107
0.0529718
-0.0148985
0.0552608
-0.0180268
-0.00900887
-0.00792397
0.00935135
0.00547957
-0.00526533
-0.00704825
0.00150335
-0.00933478
0.00177947
0.00624467
0.00410722
0.0084384
-0.00380866
0.00291496
-0.0033502
0.00526177
-0.00436051
0.00863036
-0.00529041
0.0117719
-0.00834513
0.0134519
-0.00901987
0.0149954
-0.00579832
0.0167358
-0.001822
0.0208133
0.000805666
0.0261688
0.00377354
0.0317598
0.00631236
0.0370202
0.00592548
0.0417998
0.0022561
0.0450674
-0.00190109
0.0467729
-0.00612654
0.0462672
-0.00885438
0.0431429
-0.0112058
0.0407374
-0.0126843
0.0394522
-0.0121673
0.0390956
-0.00839925
0.0398731
-0.00138246
0.0423419
0.00393413
0.0455994
0.0108976
0.0498826
0.014944
0.0563376
0.0153003
0.0636034
0.0125844
0.0701323
0.00625395
0.0760814
-4.79689e-05
0.0810376
-0.00677227
0.0821881
-0.00855622
0.0796987
-0.00922248
0.0749643
-0.00887641
0.0661823
-0.00611649
0.0571086
-0.00895304
-0.00565428
0.102925
-0.0131038
0.094383
0.0302188
0.0990868
-0.00468424
0.0399303
0.145768
0.0955175
-0.00862129
0.107419
0.0183177
0.103255
-0.000520424
0.0199379
0.123247
0.0950135
-0.00363482
0.105975
0.00735626
0.102562
0.00289225
0.00996352
0.112537
0.0963652
0.103721
0.106614
0.116577
0.155073
-0.00930525
0.0455529
0.10952
0.123784
-0.00984218
0.0421872
0.12715
0.108223
-0.00552848
0.016743
0.133667
0.111049
0.127792
0.107009
0.00335251
0.114632
0.00840072
0.101599
-0.000568303
0.000637953
0.0968106
0.130978
-0.000475627
0.137555
0.00182389
0.133862
0.00312451
0.00242584
0.132074
0.133394
-0.000202632
0.134209
0.00100903
0.135888
0.00144556
0.00166724
0.136647
0.127589
0.128598
0.130044
0.131711
0.103819
0.00234325
0.0974289
0.00112442
0.0976735
0.0012588
0.0983378
0.00111514
0.101726
0.000719511
0.1009
-0.00298335
0.102217
-0.00466677
0.103862
-0.00600597
0.104778
-0.00620583
0.101539
-0.00510626
0.0964024
-0.0038835
0.0923152
-0.00171106
0.0906753
-0.000182113
0.0886033
0.00287765
0.0898669
0.0025099
0.0936466
0.00253266
0.0999568
-0.000384653
0.10627
-0.00405747
0.112224
-0.00785447
0.116914
-0.0108166
0.118385
-0.0103253
0.116189
-0.0090095
0.108225
-0.00472057
0.0977947
-0.00173721
0.0868273
0.00256819
0.0789001
0.00654472
0.0753453
0.00748894
0.0762465
0.00999631
0.0819557
0.00923474
0.0886569
0.00859918
0.097142
0.00409927
0.105444
-0.00204849
0.111656
-0.00625942
0.117442
-0.0125585
0.121743
-0.0128567
0.128965
-0.0164446
0.135022
-0.0149335
0.142383
-0.0134774
0.142529
-0.00909886
0.00144746
0.133053
0.00136395
0.133362
0.000816108
0.13388
0.000740319
0.135612
-0.000616815
0.136801
-0.000469047
0.136051
-0.00223322
0.134203
-0.0028191
0.132649
-0.00445199
0.130804
-0.00436085
0.129507
-0.00380914
0.128579
-0.0029562
0.127124
-0.000255773
0.12697
-2.82806e-05
0.127819
0.00202909
0.129451
0.000877888
0.131332
0.00065182
0.133223
-0.00227558
0.133597
-0.00443185
0.13137
-0.00562765
0.128528
-0.00797404
0.124503
-0.00630099
0.122088
-0.00659377
0.119207
-0.00183957
0.11641
0.0010591
0.114845
0.00413374
0.114005
0.00738412
0.114763
0.00673081
0.116519
0.00824052
0.12039
0.0053642
0.124643
0.00434589
0.129282
-0.000539544
0.13258
-0.0053466
0.133679
-0.0073581
0.131543
-0.0104232
0.125382
-0.00669499
0.117898
-0.00896113
0.108661
-0.00569669
0.102969
-0.00778506
0.0988014
-0.00493117
0.00356974
0.136898
0.0011125
0.137325
0.000389168
0.137952
0.000112902
0.138393
-0.00105781
0.138455
-0.000530985
0.1376
-0.00137785
0.136105
-0.00132365
0.134041
-0.00238813
0.131929
-0.00224875
0.130075
-0.00195531
0.128701
-0.00158192
0.12852
-7.51179e-05
0.128762
-0.000270624
0.129862
0.000929436
0.130924
-0.000183961
0.13168
-0.00010422
0.130966
-0.00156224
0.129273
-0.00273836
0.126884
-0.00323895
0.123319
-0.00440919
0.119907
-0.00288826
0.116554
-0.00324071
0.115154
-0.000439899
0.115378
0.000834519
0.117125
0.00238748
0.120451
0.00405835
0.123726
0.00345576
0.127628
0.00433817
0.130802
0.00219024
0.133702
0.00144588
0.134329
-0.00116714
0.132527
-0.00354395
0.129987
-0.00481844
0.126431
-0.00686681
0.124209
-0.00447282
0.120355
-0.00510735
0.116571
-0.0019127
0.110779
-0.00199316
0.106301
-0.000452719
0.00317171
0.132823
0.133213
0.133325
0.132268
0.131737
0.130359
0.129035
0.126647
0.124398
0.122443
0.120861
0.120786
0.120515
0.121445
0.121261
0.121157
0.119594
0.116856
0.113617
0.109208
0.10632
0.103079
0.102639
0.103474
0.105861
0.109919
0.113375
0.117713
0.119904
0.121349
0.120182
0.116638
0.11182
0.104953
0.10048
0.0953729
0.0934602
0.0914671
0.0910143
)
;

boundaryField
{
    inlet
    {
        type            calculated;
        value           nonuniform List<scalar> 10(-0.1 -0.1 -0.1 -0.1 -0.1 -0.1 -0.1 -0.1 -0.1 -0.1);
    }
    outlet
    {
        type            calculated;
        value           nonuniform List<scalar> 10(0.11262 0.131701 0.122584 0.0893595 0.0569905 0.053754 0.135427 0.0966791 0.106699 0.0941861);
    }
    obstacle
    {
        type            calculated;
        value           uniform 0;
    }
    upperWall
    {
        type            calculated;
        value           uniform 0;
    }
    lowerWall
    {
        type            calculated;
        value           uniform 0;
    }
    frontAndBack
    {
        type            empty;
        value           nonuniform List<scalar> 0();
    }
}


// ************************************************************************* //
