/*--------------------------------*- C++ -*----------------------------------*\
  =========                 |
  \\      /  F ield         | OpenFOAM: The Open Source CFD Toolbox
   \\    /   O peration     | Website:  https://openfoam.org
    \\  /    A nd           | Version:  10
     \\/     M anipulation  |
\*---------------------------------------------------------------------------*/
FoamFile
{
    format      ascii;
    class       volVectorField;
    location    "6.275";
    object      U;
}
// * * * * * * * * * * * * * * * * * * * * * * * * * * * * * * * * * * * * * //

dimensions      [0 1 -1 0 0 0 0];

internalField   nonuniform List<vector> 
496
(
(9.99189 0.0640626 0)
(10.0021 -0.181433 0)
(10.2306 -0.159238 0)
(10.7336 -0.258387 0)
(10.1851 0.316 0)
(9.82322 -0.974831 0)
(10.3103 -0.624294 0)
(10.8805 -1.08872 0)
(11.0451 1.13094 0)
(8.95088 -2.41155 0)
(11.1604 -0.481482 0)
(10.8033 -3.40217 0)
(12.5842 1.21139 0)
(7.81721 -2.22015 0)
(13.1364 0.144115 0)
(10.076 -5.84985 0)
(11.5259 -0.212657 2.7918e-18)
(12.2636 -0.19238 -2.75374e-20)
(11.7384 -0.731153 5.64218e-20)
(12.6143 -0.136262 1.96745e-18)
(12.8589 -2.32056 -2.85156e-18)
(13.4217 -0.282436 -1.94004e-18)
(12.9977 -6.03448 -3.27392e-17)
(15.6503 -3.8561 5.721e-17)
(12.8999 -0.201793 0)
(13.2107 -0.143188 0)
(13.5436 -0.0585316 0)
(13.5341 0.0946835 0)
(13.2794 -0.129481 0)
(13.6746 -0.379336 0)
(14.0676 -0.424529 0)
(14.1527 -0.41878 0)
(12.9496 0.295612 0)
(13.1916 0.442084 0)
(13.5698 0.638719 0)
(13.8565 0.888327 0)
(10.4903 -4.26807 0)
(9.24322 -1.51773 0)
(10.5299 -0.498207 0)
(11.1602 -0.673511 0)
(13.5458 0.237408 0)
(13.2863 0.394178 0)
(13.0871 0.448625 0)
(12.785 0.572371 0)
(12.6747 0.603654 0)
(12.4044 0.652773 0)
(12.0946 0.604769 0)
(11.7952 0.546794 0)
(11.8009 0.494475 0)
(11.9735 0.365177 0)
(12.085 0.286248 0)
(12.0873 0.166528 0)
(12.1303 0.164619 0)
(12.262 0.134048 0)
(12.5011 0.14097 0)
(12.5993 0.13063 0)
(12.6996 0.112088 0)
(12.5613 0.16018 0)
(12.5656 0.161354 0)
(12.3764 0.243496 0)
(12.3691 0.240151 0)
(12.1867 0.297167 0)
(12.1192 0.303653 0)
(11.9656 0.312433 0)
(11.8326 0.345989 0)
(11.75 0.326319 0)
(11.5949 0.386412 0)
(11.5392 0.360821 0)
(11.4023 0.429181 0)
(11.2867 0.410244 0)
(11.1833 0.435754 0)
(10.9072 0.432633 0)
(10.8473 0.414716 0)
(10.4781 0.424951 0)
(10.5012 0.370299 0)
(10.2174 0.363239 0)
(10.2561 0.275506 0)
(10.1821 0.234805 0)
(10.1914 0.164169 0)
(10.3279 0.1286 0)
(14.1375 -0.386488 0)
(13.856 -0.318402 0)
(13.6151 -0.326247 0)
(13.3686 -0.173944 0)
(13.1914 -0.203822 0)
(12.9553 -0.220608 0)
(12.6065 -0.3298 0)
(12.366 -0.361245 0)
(12.3424 -0.279947 0)
(12.4799 -0.344359 0)
(12.6492 -0.378358 0)
(12.7053 -0.519442 0)
(12.8753 -0.394774 0)
(13.0145 -0.355575 0)
(13.297 -0.231825 0)
(13.4199 -0.20455 0)
(13.5826 -0.189735 0)
(13.5752 -0.103922 0)
(13.6067 -0.107489 0)
(13.5622 0.0251226 0)
(13.5186 -0.0300552 0)
(13.489 0.0502819 0)
(13.3829 -0.0277922 0)
(13.3562 -0.0375737 0)
(13.2466 -0.0610563 0)
(13.2256 -0.125722 0)
(13.1612 -0.0815476 0)
(13.1054 -0.147754 0)
(13.0934 -0.054485 0)
(12.9396 -0.107155 0)
(12.9393 -0.0239917 0)
(12.6861 -0.0378086 0)
(12.6521 -0.0317256 0)
(12.3937 -0.0296498 0)
(12.3309 -0.143084 0)
(12.1805 -0.100594 0)
(12.0734 -0.243173 0)
(12.11 -0.187545 0)
(12.0253 -0.281079 0)
(12.2194 -0.263941 0)
(13.7665 0.882133 0)
(13.6352 0.968822 0)
(13.4036 1.07214 0)
(13.3071 1.27058 0)
(12.8967 1.17284 0)
(12.6303 1.12058 0)
(12.3151 0.89022 0)
(12.1446 0.739141 0)
(12.2519 0.469221 0)
(12.1067 0.0820556 0)
(12.2872 -0.147367 0)
(12.2 -0.426605 0)
(12.4831 -0.349123 0)
(12.506 -0.383587 0)
(12.6773 -0.226586 0)
(12.8008 -0.174125 0)
(12.8062 -0.100243 0)
(13.0054 0.0843434 0)
(12.9199 0.103356 0)
(13.1103 0.334275 0)
(13.0371 0.270395 0)
(13.1252 0.399553 0)
(13.1307 0.332782 0)
(13.0902 0.316776 0)
(13.2554 0.387295 0)
(13.0671 0.20679 0)
(13.3742 0.444709 0)
(13.1819 0.251232 0)
(13.4534 0.486337 0)
(13.3501 0.410288 0)
(13.4873 0.549877 0)
(13.4725 0.662527 0)
(13.3422 0.624692 0)
(13.3739 0.832883 0)
(13.0779 0.585958 0)
(13.1779 0.693666 0)
(12.8968 0.321337 0)
(12.9181 0.225754 0)
(12.7399 -0.0564611 0)
(12.6383 -0.178307 0)
(11.0397 -0.626582 0)
(10.871 -0.492818 0)
(11.0734 0.380088 0)
(11.9687 -0.0587092 0)
(11.0819 0.0623228 0)
(11.6283 0.323908 0)
(11.2275 0.288762 0)
(11.6227 0.258769 0)
(10.7827 0.0778732 0)
(10.8549 -0.0360315 0)
(10.1551 -0.154743 0)
(9.8632 -0.244765 0)
(9.54363 -0.384616 0)
(9.11535 -0.47302 0)
(9.10474 -0.521438 0)
(8.64893 -0.521667 0)
(8.94591 -0.455505 0)
(8.67157 -0.350031 0)
(8.78839 -0.191864 0)
(8.91919 -0.0501085 0)
(8.68079 0.0173482 0)
(8.9492 0.0600596 0)
(8.56037 0.0950885 0)
(9.01805 0.0470174 0)
(8.64377 -0.0262446 0)
(8.73809 -0.0368919 0)
(9.22122 -0.0450247 0)
(8.80714 -0.16418 0)
(9.58096 -0.118524 0)
(9.37777 -0.151194 0)
(10.024 -0.0762343 0)
(10.1666 -0.0362983 0)
(10.3439 0.0146674 0)
(10.7504 0.127875 0)
(10.2969 0.0948426 0)
(10.7296 0.21654 0)
(9.70179 0.142518 0)
(9.81279 0.166465 0)
(8.99028 0.198674 0)
(8.76211 0.017777 0)
(11.8304 0.724922 -1.06389e-17)
(8.10146 -1.09939 -1.77913e-17)
(11.2995 0.394099 3.12389e-17)
(4.58222 -5.05432 -8.4044e-17)
(13.2591 -0.625196 1.04438e-17)
(6.82905 1.01432 1.71949e-17)
(12.7511 -0.149069 -3.03969e-17)
(3.86364 4.92346 8.2253e-17)
(-7.93837 0.449443 0)
(4.49418 -1.06659 0)
(1.87059 2.8265 0)
(-3.09768 1.91747 0)
(-1.38569 -2.93847 2.77279e-17)
(-3.13827 -3.06825 0)
(-6.27273 4.0446 0)
(4.02675 -2.81623 0)
(1.09149 -0.757375 0)
(-2.1911 -0.0660329 0)
(4.41263 1.8972 0)
(0.191027 1.26498 0)
(-1.20149 -0.526254 0)
(3.7923 0.523063 0)
(0.594524 0.861261 0)
(1.84547 0.881948 0)
(1.08889 0.56294 0)
(1.59464 0.374301 0)
(1.32896 0.259324 0)
(1.32012 0.299059 0)
(1.07707 0.44693 0)
(1.04833 0.220997 0)
(0.835934 0.0503619 0)
(0.953361 0.162124 0)
(1.1518 0.135451 0)
(0.910139 0.0927028 0)
(1.26732 0.281357 0)
(1.86406 0.471474 0)
(1.02628 0.159334 0)
(1.7388 0.170261 0)
(2.15284 0.562848 0)
(1.88747 0.195893 0)
(1.86063 -0.0282417 0)
(2.72797 0.23936 0)
(2.48295 0.0945485 0)
(2.61536 -0.175102 0)
(3.0494 -0.00936406 0)
(3.29894 -0.021039 0)
(3.45148 -0.0130705 0)
(3.73584 0.253989 0)
(3.85902 0.304386 0)
(3.93802 0.49451 0)
(4.09791 0.717322 0)
(4.05873 0.82166 0)
(3.93267 0.71807 0)
(4.11179 0.78317 0)
(3.89809 0.391411 0)
(4.26715 -0.0950261 0)
(-3.28567 -0.465594 0)
(0.0382497 -1.69554 0)
(-2.19056 0.413448 0)
(-0.335199 1.83054 0)
(1.00195 -1.6042 0)
(0.274929 -0.228325 0)
(-0.409826 1.16966 0)
(2.11138 0.0783196 0)
(1.83406 0.115482 0)
(1.8142 0.250127 0)
(1.81066 0.259267 0)
(1.79482 0.0582281 0)
(1.83878 -0.188744 0)
(2.40228 -0.521371 0)
(1.93968 -0.583468 0)
(1.76601 -0.586975 0)
(2.17651 -0.664231 0)
(1.56832 -0.492675 0)
(2.03589 -0.696941 0)
(2.12933 -0.422821 0)
(2.16306 -0.142765 0)
(2.25367 -0.337088 0)
(2.55645 -0.338092 0)
(3.21969 -0.238966 0)
(2.39659 -0.237435 0)
(3.20062 -0.48329 0)
(3.35386 -0.543039 0)
(3.02004 -0.531938 0)
(3.24427 -0.540579 0)
(3.48664 -0.61882 0)
(3.18146 -0.485413 0)
(3.55852 -0.302679 0)
(3.57096 -0.190665 0)
(3.70333 0.11613 0)
(3.99684 0.266753 0)
(4.42618 0.326346 0)
(4.6049 0.342422 0)
(4.79204 0.414666 0)
(5.48551 0.105638 0)
(5.41333 -0.284948 0)
(10.6992 -1.45344 0)
(9.30255 2.70814 0)
(11.0266 -0.53133 0)
(11.37 6.43599 0)
(9.91887 -1.02632 0)
(10.1545 2.58582 0)
(10.6601 0.594018 0)
(11.7435 3.64255 0)
(9.76879 -0.328925 0)
(10.2992 0.92274 0)
(10.1011 0.555922 0)
(11.1566 1.0234 0)
(9.96109 -0.0313574 0)
(10.0566 0.125132 0)
(10.1834 0.151798 0)
(10.6751 0.221644 0)
(11.3949 5.78522 4.10742e-17)
(16.9377 3.9859 -6.66258e-17)
(13.0529 2.19149 0)
(14.1963 0.193787 0)
(11.6699 0.578598 0)
(12.8273 -0.126185 0)
(11.3988 0.217032 0)
(12.1952 0.159304 0)
(7.61841 3.30178 0)
(11.4623 1.75549 0)
(6.23631 0.717101 0)
(9.33276 0.0526813 0)
(13.2201 -0.601458 0)
(13.6627 -1.06375 0)
(13.6507 -0.310253 0)
(14.0784 -0.394603 0)
(13.3653 -0.0313187 0)
(13.765 0.220704 0)
(13.92 0.50406 0)
(14.0206 0.542367 0)
(12.7274 0.207595 0)
(13.008 0.148517 0)
(13.2255 0.0825192 0)
(13.2759 0.102429 0)
(8.84085 0.613442 0)
(8.98821 0.352445 0)
(9.1681 0.050799 0)
(7.99466 0.0817754 0)
(9.10771 -0.336667 0)
(9.43738 -0.0283671 0)
(9.18584 0.117398 0)
(9.49199 0.0133764 0)
(10.163 0.0147557 0)
(10.5812 0.108678 0)
(10.7411 0.193267 0)
(11.2079 0.24953 0)
(11.1882 0.264603 0)
(11.6625 0.221679 0)
(11.6194 0.227541 0)
(11.6607 0.241561 0)
(11.5437 0.242446 0)
(11.1215 0.260707 0)
(11.0944 0.196331 0)
(10.5517 0.198517 0)
(10.6944 0.0857856 0)
(10.2097 0.0849662 0)
(10.5135 -0.00264077 0)
(10.4573 -0.0404391 0)
(10.3211 -0.0363465 0)
(10.7474 -0.0997662 0)
(10.3305 -0.0733531 0)
(10.8843 -0.132409 0)
(10.1968 -0.0499321 0)
(10.5206 -0.093124 0)
(10.0478 -0.0212263 0)
(9.85806 0.0389126 0)
(9.92049 0.0170897 0)
(9.43612 0.172473 0)
(9.87635 0.160202 0)
(9.57575 0.259224 0)
(10.2196 0.197409 0)
(10.2959 0.208649 0)
(10.7423 0.0441481 0)
(11.3224 -0.139415 0)
(14.429 -0.573194 0)
(14.3099 -0.660528 0)
(14.2997 -0.802958 0)
(13.8845 -0.551605 0)
(13.7566 -0.679216 0)
(13.5658 -0.608013 0)
(13.4482 -0.538206 0)
(13.4235 -0.424294 0)
(13.4066 -0.374858 0)
(13.5611 -0.416688 0)
(13.4546 -0.335206 0)
(13.5312 -0.481176 0)
(13.3761 -0.442337 0)
(13.3704 -0.555869 0)
(13.3321 -0.507139 0)
(13.2228 -0.432734 0)
(13.2981 -0.389046 0)
(13.0633 -0.192979 0)
(13.2311 -0.287345 0)
(12.9623 -0.122637 0)
(13.1261 -0.305322 0)
(12.9407 -0.250146 0)
(12.9877 -0.382777 0)
(12.9544 -0.502641 0)
(12.8197 -0.468862 0)
(12.8982 -0.686792 0)
(12.6129 -0.514157 0)
(12.7347 -0.715032 0)
(12.4312 -0.464299 0)
(12.5424 -0.501071 0)
(12.3797 -0.316367 0)
(12.3461 -0.141615 0)
(12.366 -0.172856 0)
(12.2586 0.095565 0)
(12.4686 -0.176119 0)
(12.3966 0.0690112 0)
(12.7193 -0.308505 0)
(12.6276 -0.287605 0)
(12.8805 -0.538468 0)
(12.6546 -0.784417 0)
(14.2276 0.378468 0)
(14.2392 0.235606 0)
(14.0632 0.111602 0)
(13.7272 0.113098 0)
(13.5039 0.0771731 0)
(13.3049 0.139702 0)
(13.2313 0.160321 0)
(13.1861 0.183069 0)
(13.2446 0.201592 0)
(13.2533 0.161672 0)
(13.193 0.206758 0)
(13.1034 0.113982 0)
(13.0094 0.168743 0)
(12.9874 0.145463 0)
(12.9688 0.263612 0)
(12.9727 0.331797 0)
(12.9667 0.382832 0)
(12.9448 0.452565 0)
(12.9881 0.379653 0)
(12.9761 0.422279 0)
(13.0773 0.299362 0)
(13.0372 0.312188 0)
(13.0922 0.224312 0)
(12.9869 0.200786 0)
(12.9507 0.189765 0)
(12.8307 0.132114 0)
(12.7203 0.207847 0)
(12.6392 0.140055 0)
(12.4805 0.254336 0)
(12.4847 0.201667 0)
(12.3495 0.262762 0)
(12.4289 0.254282 0)
(12.37 0.241488 0)
(12.4648 0.253045 0)
(12.5359 0.176383 0)
(12.5371 0.168835 0)
(12.6776 0.0249855 0)
(12.4697 -0.00565382 0)
(12.5727 -0.149792 0)
(12.2678 -0.0870216 0)
(13.3434 -0.0190106 0)
(13.3579 -0.141178 0)
(13.2607 -0.27103 0)
(12.9866 -0.286393 0)
(12.78 -0.328931 0)
(12.5757 -0.306582 0)
(12.5087 -0.301102 0)
(12.3902 -0.292464 0)
(12.4474 -0.282068 0)
(12.3527 -0.336618 0)
(12.3122 -0.317372 0)
(12.0874 -0.393166 0)
(12.031 -0.37892 0)
(11.9202 -0.423367 0)
(11.9074 -0.394398 0)
(11.8374 -0.390246 0)
(11.7959 -0.40473 0)
(11.7966 -0.366518 0)
(11.801 -0.408776 0)
(11.8445 -0.350144 0)
(11.8571 -0.411349 0)
(11.8356 -0.396856 0)
(11.8186 -0.44281 0)
(11.6524 -0.472305 0)
(11.6211 -0.470511 0)
(11.3561 -0.517365 0)
(11.3361 -0.464688 0)
(11.0697 -0.50161 0)
(11.0545 -0.419269 0)
(10.9174 -0.413464 0)
(10.8932 -0.336288 0)
(10.8952 -0.282877 0)
(10.8156 -0.268564 0)
(10.9172 -0.209142 0)
(10.8514 -0.273154 0)
(10.8959 -0.227214 0)
(10.8321 -0.324793 0)
(10.635 -0.309751 0)
(10.597 -0.359256 0)
(10.1193 -0.383241 0)
)
;

boundaryField
{
    inlet
    {
        type            fixedValue;
        value           uniform (10 0 0);
    }
    outlet
    {
        type            zeroGradient;
    }
    obstacle
    {
        type            noSlip;
    }
    upperWall
    {
        type            noSlip;
    }
    lowerWall
    {
        type            noSlip;
    }
    frontAndBack
    {
        type            empty;
    }
}


// ************************************************************************* //
