/*--------------------------------*- C++ -*----------------------------------*\
  =========                 |
  \\      /  F ield         | OpenFOAM: The Open Source CFD Toolbox
   \\    /   O peration     | Website:  https://openfoam.org
    \\  /    A nd           | Version:  10
     \\/     M anipulation  |
\*---------------------------------------------------------------------------*/
FoamFile
{
    format      ascii;
    class       volScalarField;
    location    "4.8";
    object      p;
}
// * * * * * * * * * * * * * * * * * * * * * * * * * * * * * * * * * * * * * //

dimensions      [0 2 -2 0 0 0 0];

internalField   nonuniform List<scalar> 
475
(
-0.0524915
-0.0777377
-0.107177
-0.130841
-0.152979
-0.078164
-0.0915582
-0.108061
-0.127168
-0.143998
-0.0763577
-0.0857355
-0.100778
-0.118083
-0.134771
-0.0756613
-0.0866395
-0.101431
-0.116857
-0.130708
-0.0459359
-0.0728666
-0.0964841
-0.114195
-0.126957
-0.171941
-0.183651
-0.188859
-0.196142
-0.207165
-0.221498
-0.233969
-0.238988
-0.235369
-0.223631
-0.204671
-0.181232
-0.157489
-0.135576
-0.114672
-0.097119
-0.0855827
-0.0765622
-0.0679546
-0.0594631
-0.0474913
-0.0299297
-0.0137631
-0.0028882
0.00337109
0.00796909
0.0128172
0.0176948
0.021508
0.0236051
0.0240767
0.0233942
0.022047
0.0203824
0.0185965
0.0167807
0.0149693
0.0131724
0.0113884
0.0096155
0.00785004
0.00609579
0.00434904
0.00260712
0.000868298
-0.161158
-0.173568
-0.180962
-0.185839
-0.190328
-0.194772
-0.198049
-0.198098
-0.193059
-0.184021
-0.172224
-0.159196
-0.147203
-0.136784
-0.125687
-0.115493
-0.108222
-0.100232
-0.0896357
-0.076841
-0.0593756
-0.0401806
-0.0219567
-0.00859273
0.000442259
0.00728474
0.0133305
0.0186267
0.0225896
0.024823
0.0254235
0.0247968
0.0233978
0.0215868
0.0196001
0.0175697
0.0155577
0.0135903
0.011673
0.00980268
0.00796907
0.00616598
0.00438612
0.00262301
0.000870928
-0.148421
-0.158501
-0.16494
-0.168103
-0.169386
-0.168494
-0.166395
-0.162444
-0.156668
-0.151051
-0.146464
-0.14551
-0.143982
-0.139053
-0.135151
-0.133126
-0.128673
-0.118761
-0.104263
-0.0867227
-0.0649202
-0.0418791
-0.0221949
-0.00818524
0.00146707
0.00867882
0.014644
0.0196177
0.0233117
0.0254863
0.0261825
0.0256752
0.0243281
0.0224785
0.0203801
0.0182036
0.0160423
0.0139396
0.011912
0.00995564
0.00806268
0.00621919
0.00441259
0.00263322
0.000871663
-0.141426
-0.149433
-0.154039
-0.155705
-0.154475
-0.149889
-0.143672
-0.134891
-0.127016
-0.121062
-0.122472
-0.137087
-0.145358
-0.137948
-0.128516
-0.127887
-0.130054
-0.12535
-0.112088
-0.0914268
-0.0661152
-0.041328
-0.0211952
-0.00703717
0.0026622
0.00978182
0.0155087
0.0202181
0.0237547
0.0259084
0.0266687
0.0262368
0.0249203
0.0230413
0.0208643
0.0185908
0.0163297
0.0141416
0.0120454
0.010039
0.00811059
0.00624355
0.00442239
0.00263464
0.000869396
-0.136602
-0.143436
-0.147297
-0.14826
-0.145359
-0.139481
-0.130659
-0.120127
-0.110509
-0.103576
-0.108616
-0.126275
-0.141238
-0.145917
-0.142012
-0.13541
-0.12804
-0.117403
-0.102342
-0.0826817
-0.0600454
-0.0372055
-0.0192312
-0.00596084
0.00354981
0.0106613
0.0163016
0.0208199
0.0241592
0.0261778
0.0268692
0.0263987
0.0250585
0.023161
0.0209723
0.0186732
0.0163954
0.0141914
0.0120816
0.0100638
0.00812611
0.00625215
0.00442656
0.00263569
0.000869061
-0.201621
-0.203522
-0.206166
-0.211286
-0.22318
-0.24144
-0.25949
-0.269846
-0.267431
-0.25111
-0.221468
-0.180788
-0.133513
-0.0854385
-0.0412407
-0.00397332
0.0245416
0.0440209
0.0556697
0.0605602
0.0604703
0.0574842
0.0526632
0.0473687
0.0398788
0.0311783
0.0232398
0.0175383
0.0143616
0.0131654
0.0131555
0.0136299
0.0140641
0.0142418
0.0140685
0.0135455
0.0127185
0.0116454
0.0103813
0.00897414
0.00746229
0.00587611
0.00423742
0.00256274
0.000863719
-0.193214
-0.196777
-0.201971
-0.212227
-0.22916
-0.251181
-0.27076
-0.282053
-0.280764
-0.265974
-0.237334
-0.19669
-0.148287
-0.0989276
-0.0538921
-0.0158657
0.0134258
0.0334931
0.0461186
0.0528468
0.054624
0.0531794
0.0500592
0.0443177
0.0371923
0.0295624
0.0228849
0.0180874
0.0152658
0.014056
0.0138905
0.0141855
0.0145174
0.0145948
0.0143202
0.0137195
0.0128358
0.0117218
0.010429
0.00900253
0.00747824
0.00588404
0.00424077
0.0025632
0.00086316
-0.202453
-0.200904
-0.203856
-0.214667
-0.234836
-0.259486
-0.280518
-0.292977
-0.292102
-0.276435
-0.247696
-0.208081
-0.16083
-0.113072
-0.0701955
-0.0335592
-0.00484632
0.014694
0.0273231
0.0348856
0.0381688
0.0386695
0.0374836
0.0345055
0.030493
0.0259502
0.0219571
0.0189841
0.0170886
0.0161506
0.0158501
0.015809
0.0157359
0.015459
0.0149319
0.0141396
0.0131169
0.011905
0.0105431
0.00906974
0.00751501
0.00590146
0.00424652
0.00256264
0.000860375
-0.190055
-0.192315
-0.195929
-0.20735
-0.226517
-0.249645
-0.269021
-0.28095
-0.282427
-0.270121
-0.24453
-0.209432
-0.167489
-0.12469
-0.0869384
-0.0548922
-0.0294659
-0.0120971
-0.00015533
0.00825493
0.0132676
0.016384
0.0190036
0.0204819
0.0199745
0.0189821
0.0185307
0.0187077
0.0190572
0.0191831
0.0190064
0.0185778
0.0179391
0.0171109
0.0161104
0.0149531
0.0136595
0.0122563
0.0107677
0.0092098
0.00759867
0.00594749
0.0042685
0.00257045
0.000860366
-0.222392
-0.200682
-0.198333
-0.205066
-0.220488
-0.241292
-0.258912
-0.267899
-0.267013
-0.255107
-0.232133
-0.201952
-0.167689
-0.133148
-0.102697
-0.0780115
-0.0592294
-0.0455058
-0.0351251
-0.0254998
-0.0156676
-0.00647613
0.00104636
0.00617649
0.00891526
0.0111517
0.0141861
0.0175854
0.020255
0.0216239
0.0218107
0.021193
0.0201139
0.0187952
0.0173535
0.0158408
0.0142788
0.0126787
0.0110474
0.00938946
0.00771053
0.0060126
0.00430258
0.00258487
0.000862488
)
;

boundaryField
{
    inlet
    {
        type            zeroGradient;
    }
    outlet
    {
        type            fixedValue;
        value           uniform 0;
    }
    upperWall
    {
        type            zeroGradient;
    }
    lowerWall
    {
        type            zeroGradient;
    }
    frontAndBack
    {
        type            empty;
    }
}


// ************************************************************************* //
