/*--------------------------------*- C++ -*----------------------------------*\
  =========                 |
  \\      /  F ield         | OpenFOAM: The Open Source CFD Toolbox
   \\    /   O peration     | Website:  https://openfoam.org
    \\  /    A nd           | Version:  10
     \\/     M anipulation  |
\*---------------------------------------------------------------------------*/
FoamFile
{
    format      ascii;
    class       surfaceScalarField;
    location    "1.325";
    object      phi;
}
// * * * * * * * * * * * * * * * * * * * * * * * * * * * * * * * * * * * * * //

dimensions      [0 3 -1 0 0 0 0];

internalField   nonuniform List<scalar> 
890
(
0.00984789
0.000152109
0.00967042
0.000177472
0.00935706
0.000313357
0.00923475
0.000122311
5.07791e-05
0.00918397
0.0101335
1.86013e-05
0.0101849
0.000126043
0.0105079
-9.58933e-06
0.0106191
1.11292e-05
-0.000176555
0.0108464
0.0100593
-4.0713e-05
0.0102383
-5.29539e-05
0.0104046
-0.000175884
0.0105995
-0.00018377
-0.000258313
0.0106813
0.0100981
-0.000138765
0.010242
-0.00019693
0.0103087
-0.000242569
0.0104181
-0.000293136
-0.000325587
0.0104854
0.00986124
0.00966431
0.00942174
0.0091286
0.00880301
0.00998955
6.80684e-05
-0.00087365
0.010557
-0.000533119
-3.42896e-05
0.0108945
-0.00163146
0.00129391
0.0110835
-0.00306659
0.00287758
0.0107479
-0.00387912
0.00421476
0.00958649
-0.00365276
0.00481415
0.00821887
-0.00310891
0.00447654
0.00735419
-0.00245714
0.00332183
0.00695973
-0.00160282
0.00199728
0.00667751
-0.000800687
0.00108291
0.0063673
-0.000308191
0.000618397
0.00607002
-0.000102966
0.000400249
0.00583853
-4.52513e-05
0.000276743
0.00567987
-3.42772e-05
0.000192935
0.00557965
-3.10524e-05
0.000131275
0.0055195
-2.63373e-05
8.64863e-05
0.00548456
-2.02163e-05
5.5152e-05
0.00546475
-1.41856e-05
3.40013e-05
0.00545374
-9.14383e-06
2.01539e-05
0.00544773
-5.34036e-06
1.1349e-05
0.00544447
-2.67703e-06
5.93219e-06
0.00544271
-9.60096e-07
2.72562e-06
0.00544177
3.85813e-08
8.9502e-07
0.0054412
6.72978e-07
-1.04698e-07
0.00544089
9.55812e-07
-6.42266e-07
0.00544072
1.03382e-06
-8.63688e-07
0.00544063
9.94295e-07
-9.05412e-07
0.00544059
8.95806e-07
-8.51959e-07
0.00544057
7.73871e-07
-7.54605e-07
0.00544056
6.49482e-07
-6.43205e-07
0.00544056
5.33631e-07
-5.3417e-07
0.00544057
4.31533e-07
-4.35335e-07
0.00544057
3.44571e-07
-3.49671e-07
0.00544058
2.72048e-07
-2.77636e-07
0.00544058
2.12669e-07
-2.17947e-07
0.00544059
1.64787e-07
-1.69503e-07
0.00544059
1.2638e-07
-1.30468e-07
0.0054406
9.62469e-08
-9.9457e-08
0.0054406
7.28397e-08
-7.55871e-08
0.0054406
5.36557e-08
-5.55751e-08
0.0054406
4.02006e-08
-4.14841e-08
0.0054406
2.85949e-08
-2.98939e-08
0.0054406
1.72552e-08
-1.80648e-08
0.0054406
1.33407e-08
-1.38208e-08
1.12679e-09
-1.89102e-09
0.0113339
-0.000419446
0.0114495
-0.000648747
0.0109967
-0.00117866
0.0100987
-0.00216859
0.00875256
-0.00253294
0.00702878
-0.00192898
0.00546272
-0.00154285
0.00461498
-0.00160941
0.00452321
-0.00151105
0.00479974
-0.00107721
0.00510027
-0.000608726
0.00529873
-0.000301428
0.00539974
-0.000146258
0.00544256
-7.70951e-05
0.00545702
-4.55096e-05
0.00545925
-2.85689e-05
0.00545684
-1.78074e-05
0.00545311
-1.04547e-05
0.00544943
-5.46775e-06
0.00544633
-2.23526e-06
0.00544388
-2.34025e-07
0.00544216
7.60041e-07
0.00544096
1.24077e-06
0.0054402
1.43703e-06
0.00543972
1.42848e-06
0.00543945
1.31088e-06
0.0054393
1.14628e-06
0.00543922
9.70221e-07
0.00543919
8.02438e-07
0.00543919
6.52435e-07
0.0054392
5.23608e-07
0.00543922
4.15657e-07
0.00543923
3.26828e-07
0.00543925
2.54336e-07
0.00543927
1.96397e-07
0.00543928
1.5036e-07
0.00543929
1.14401e-07
0.0054393
8.69566e-08
0.00543931
6.51775e-08
0.00543932
4.86363e-08
0.00543932
3.62744e-08
0.00543932
2.50665e-08
0.00543932
1.54426e-08
0.00543933
1.15819e-08
5.98406e-11
0.0107541
-0.000492285
0.0108419
-0.000736553
0.0107213
-0.00105809
0.0100917
-0.00153892
0.00939474
-0.001836
0.0091528
-0.00168704
0.00887209
-0.00126213
0.00819493
-0.000932254
0.00732261
-0.000638727
0.00660299
-0.000357585
0.00614454
-0.000150278
0.00588101
-3.78983e-05
0.0057257
9.0561e-06
0.00562205
2.65505e-05
0.00555177
2.47719e-05
0.00550414
1.90654e-05
0.00547245
1.38742e-05
0.00545191
1.00905e-05
0.00543892
7.51685e-06
0.00543092
5.76941e-06
0.00542614
4.54181e-06
0.00542329
3.61585e-06
0.00542161
2.921e-06
0.00542067
2.37861e-06
0.00542016
1.93787e-06
0.0054199
1.56923e-06
0.00541979
1.25817e-06
0.00541976
9.99395e-07
0.00541977
7.87498e-07
0.00541981
6.16256e-07
0.00541985
4.79394e-07
0.0054199
3.70444e-07
0.00541994
2.84728e-07
0.00541998
2.16678e-07
0.00542001
1.64861e-07
0.00542004
1.2389e-07
0.00542006
9.34342e-08
0.00542007
7.08785e-08
0.00542009
5.14625e-08
0.0054201
4.01409e-08
0.0054201
2.87374e-08
0.00542011
1.8377e-08
0.00542011
1.33961e-08
0.00542011
8.62778e-09
-1.37186e-09
0.0103816
-0.000388557
0.0102049
-0.000559847
0.00993469
-0.000787864
0.00930874
-0.00091297
0.00839989
-0.000927154
0.00758025
-0.000867407
0.00700844
-0.000690318
0.00647243
-0.000396249
0.00594385
-0.000110148
0.00554911
3.71581e-05
0.005334
6.48269e-05
0.00523887
5.72358e-05
0.00520362
4.43014e-05
0.00519722
3.29559e-05
0.00519783
2.41654e-05
0.00519915
1.77433e-05
0.00519979
1.3236e-05
0.0051998
1.00796e-05
0.0051995
7.80943e-06
0.00519916
6.11437e-06
0.00519889
4.8066e-06
0.00519874
3.76893e-06
0.00519872
2.93845e-06
0.00519883
2.27412e-06
0.00519901
1.75143e-06
0.00519924
1.34338e-06
0.00519947
1.026e-06
0.00519969
7.80738e-07
0.00519989
5.9252e-07
0.00520005
4.48651e-07
0.00520019
3.39047e-07
0.00520031
2.55012e-07
0.0052004
1.91444e-07
0.00520048
1.41968e-07
0.00520054
1.06274e-07
0.00520058
7.7742e-08
0.00520062
5.83271e-08
0.00520064
4.43705e-08
0.00520066
3.03649e-08
0.00520068
2.65009e-08
0.00520069
1.67691e-08
0.0052007
9.63196e-09
0.0052007
1.02065e-08
0.00520071
4.21771e-09
-2.60383e-09
0.00841446
0.00785461
0.00706674
0.00615377
0.00522662
0.00435921
0.00366889
0.00327265
0.0031625
0.00319966
0.00326448
0.00332172
0.00336602
0.00339898
0.00342314
0.00344089
0.00345412
0.0034642
0.00347201
0.00347812
0.00348293
0.0034867
0.00348964
0.00349191
0.00349366
0.00349501
0.00349603
0.00349681
0.00349741
0.00349786
0.00349819
0.00349845
0.00349864
0.00349878
0.00349889
0.00349897
0.00349903
0.00349907
0.0034991
0.00349913
0.00349914
0.00349915
0.00349916
0.00349917
-0.000877931
0.000877931
-0.00173067
0.000852744
-0.0023109
0.000580226
-0.00233226
2.13614e-05
-0.00171853
-0.000613737
-0.000699304
-0.00101922
0.00042196
-0.00112126
0.00142068
-0.000998715
0.00219737
-0.000776694
0.00274323
-0.000545863
0.00309631
-0.00035308
0.00330838
-0.000212068
0.00342698
-0.000118599
0.0034883
-6.13175e-05
0.0035167
-2.83993e-05
0.0035273
-1.05998e-05
0.00352899
-1.6905e-06
0.00352655
2.43443e-06
0.00352256
3.99466e-06
0.00351835
4.20836e-06
0.0035145
3.84676e-06
0.00351122
3.28489e-06
0.00350853
2.69049e-06
0.00350638
2.15007e-06
0.00350469
1.69048e-06
0.00350337
1.31496e-06
0.00350236
1.0156e-06
0.00350158
7.79906e-07
0.00350098
5.9501e-07
0.00350053
4.50504e-07
0.00350019
3.38423e-07
0.00349994
2.53306e-07
0.00349975
1.8887e-07
0.00349961
1.42175e-07
0.0034995
1.06024e-07
0.00349942
8.07574e-08
0.00349936
5.98294e-08
0.00349932
4.3219e-08
0.00349928
3.40048e-08
0.00349926
2.0398e-08
0.00349925
1.6448e-08
0.00349923
1.40519e-08
0.00349923
4.66383e-09
0.00349922
6.55374e-09
5.16417e-09
-0.000669645
0.00154758
-0.00183475
0.00201785
-0.00242759
0.00117307
-0.00224632
-0.000159915
-0.00143487
-0.00142519
-0.000180056
-0.00227403
0.00115161
-0.00245293
0.00232731
-0.00217441
0.00325189
-0.00170127
0.0039264
-0.00122038
0.00439139
-0.000818068
0.0046982
-0.00051888
0.0048943
-0.000314691
0.00501694
-0.000183966
0.00509242
-0.000103875
0.00513826
-5.64357e-05
0.0051657
-2.91336e-05
0.00518196
-1.38223e-05
0.00519146
-5.50993e-06
0.00519687
-1.19933e-06
0.00519984
8.75073e-07
0.00520136
1.76117e-06
0.00520207
1.98557e-06
0.0052023
1.91613e-06
0.00520228
1.71037e-06
0.00520214
1.45844e-06
0.00520195
1.20737e-06
0.00520175
9.78397e-07
0.00520156
7.79519e-07
0.0052014
6.12314e-07
0.00520127
4.7568e-07
0.00520115
3.67129e-07
0.00520106
2.81824e-07
0.00520098
2.16611e-07
0.00520092
1.6514e-07
0.00520088
1.26457e-07
0.00520084
9.52666e-08
0.00520082
7.03417e-08
0.0052008
5.36978e-08
0.00520078
3.64833e-08
0.00520077
2.72316e-08
0.00520076
2.16421e-08
0.00520076
1.09072e-08
0.00520075
9.8094e-09
4.88461e-09
-0.000971433
0.00251901
-0.0017023
0.00274871
-0.00172528
0.00119605
-0.00120545
-0.000679751
-0.000157394
-0.00247324
0.00108466
-0.00351609
0.00230867
-0.00367693
0.00325582
-0.00312156
0.00393774
-0.00238319
0.0044245
-0.00170714
0.00476512
-0.00115869
0.0049951
-0.000748856
0.00514593
-0.000465523
0.00524363
-0.000281666
0.00530686
-0.000167108
0.00534783
-9.74059e-05
0.00537435
-5.56489e-05
0.0053915
-3.09698e-05
0.00540254
-1.65583e-05
0.00540959
-8.2465e-06
0.00541402
-3.55261e-06
0.00541678
-9.96136e-07
0.00541848
2.78862e-07
0.00541948
9.21634e-07
0.00542003
1.15607e-06
0.00542032
1.17038e-06
0.00542045
1.07667e-06
0.00542049
9.37551e-07
0.00542048
7.87262e-07
0.00542045
6.44547e-07
0.00542041
5.18267e-07
0.00542036
4.11682e-07
0.00542032
3.24042e-07
0.00542028
2.53656e-07
0.00542025
1.96791e-07
0.00542023
1.51968e-07
0.00542021
1.15885e-07
0.00542019
8.70958e-08
0.00542018
6.58953e-08
0.00542017
4.73087e-08
0.00542016
3.49056e-08
0.00542016
2.62339e-08
0.00542015
1.53441e-08
0.00542015
1.22758e-08
3.66564e-09
-0.000363008
0.00288202
0.000320706
0.002065
0.00122126
0.000295497
0.00217812
-0.00163661
0.00317212
-0.00346724
0.00419805
-0.00454201
0.00500098
-0.00447986
0.00538607
-0.00350666
0.00543935
-0.00243647
0.00538827
-0.00165606
0.00535644
-0.00112686
0.00535556
-0.000747978
0.00536851
-0.000478474
0.0053839
-0.000297054
0.00539757
-0.000180778
0.00540872
-0.000108559
0.00541751
-6.4436e-05
0.00542421
-3.76767e-05
0.00542916
-2.15064e-05
0.0054327
-1.17816e-05
0.00543515
-6.00439e-06
0.00543681
-2.65315e-06
0.00543786
-7.7886e-07
0.00543857
2.12903e-07
0.005439
7.25818e-07
0.00543925
9.20234e-07
0.00543939
9.38479e-07
0.00543946
8.69385e-07
0.00543949
7.61457e-07
0.00543949
6.42785e-07
0.00543948
5.29573e-07
0.00543946
4.28932e-07
0.00543944
3.42949e-07
0.00543942
2.71625e-07
0.00543941
2.12957e-07
0.00543939
1.65554e-07
0.00543938
1.27136e-07
0.00543937
9.63863e-08
0.00543936
7.29673e-08
0.00543936
5.3223e-08
0.00543935
3.94608e-08
0.00543935
2.89903e-08
0.00543935
1.75151e-08
0.00543935
1.36889e-08
2.78631e-09
0.00200837
0.00403908
0.00562848
0.00686945
0.00761697
0.0078891
0.00788578
0.00770094
0.00726174
0.0066886
0.00618014
0.00583241
0.00563068
0.00552656
0.00547705
0.00545498
0.0054457
0.00544202
0.00544067
0.00544024
0.00544016
0.00544024
0.00544035
0.00544046
0.00544054
0.0054406
0.00544063
0.00544065
0.00544066
0.00544066
0.00544065
0.00544065
0.00544064
0.00544063
0.00544063
0.00544063
0.00544062
0.00544062
0.00544062
0.00544061
0.00544061
0.00544061
0.00544061
0.00544061
)
;

boundaryField
{
    inlet
    {
        type            calculated;
        value           nonuniform List<scalar> 5(-0.01 -0.01 -0.01 -0.01 -0.01);
    }
    outlet
    {
        type            calculated;
        value           nonuniform List<scalar> 10(0.0054406 0.00543933 0.00542012 0.00520071 0.00349916 0.00349922 0.00520075 0.00542015 0.00543935 0.00544061);
    }
    upperWall
    {
        type            calculated;
        value           uniform 0;
    }
    lowerWall
    {
        type            calculated;
        value           uniform 0;
    }
    frontAndBack
    {
        type            empty;
        value           nonuniform List<scalar> 0();
    }
}


// ************************************************************************* //
