/*--------------------------------*- C++ -*----------------------------------*\
  =========                 |
  \\      /  F ield         | OpenFOAM: The Open Source CFD Toolbox
   \\    /   O peration     | Website:  https://openfoam.org
    \\  /    A nd           | Version:  10
     \\/     M anipulation  |
\*---------------------------------------------------------------------------*/
FoamFile
{
    format      ascii;
    class       surfaceScalarField;
    location    "4.175";
    object      phi;
}
// * * * * * * * * * * * * * * * * * * * * * * * * * * * * * * * * * * * * * //

dimensions      [0 3 -1 0 0 0 0];

internalField   nonuniform List<scalar> 
760
(
-8.94188e-06
8.94187e-06
-2.84927e-05
1.95509e-05
-5.04722e-05
2.19794e-05
-7.21816e-05
2.17095e-05
-9.27985e-05
2.06169e-05
-0.000111875
1.90765e-05
-0.000128975
1.71005e-05
-0.000143615
1.46396e-05
-0.000155256
1.16412e-05
-0.000163317
8.06126e-06
-0.00016719
3.87256e-06
-0.000166267
-9.22805e-07
-0.000160001
-6.26615e-06
-0.000147988
-1.20126e-05
-0.000130062
-1.79262e-05
-0.000106409
-2.36534e-05
-7.77749e-05
-2.8634e-05
-4.59958e-05
-3.17791e-05
-1.58154e-05
-3.01804e-05
-1.58154e-05
-2.02973e-05
2.92391e-05
-5.60231e-05
5.52767e-05
-9.49683e-05
6.09246e-05
-0.000133054
5.97952e-05
-0.000168826
5.63893e-05
-0.000201409
5.16589e-05
-0.000230007
4.56988e-05
-0.000253819
3.84515e-05
-0.00027202
2.98422e-05
-0.000283768
1.98094e-05
-0.0002882
8.30459e-06
-0.000284601
-4.52218e-06
-0.000272215
-1.8652e-05
-0.000250607
-3.36209e-05
-0.000219685
-4.88483e-05
-0.00017988
-6.34576e-05
-0.000132434
-7.60808e-05
-8.01799e-05
-8.40329e-05
-2.99679e-05
-8.03923e-05
-4.57833e-05
-2.41409e-05
5.338e-05
-6.55729e-05
9.67088e-05
-0.000110388
0.000105739
-0.000154041
0.000103449
-0.000194938
9.72859e-05
-0.000232111
8.88316e-05
-0.000264687
7.82755e-05
-0.000291796
6.556e-05
-0.000312546
5.05919e-05
-0.000326029
3.32926e-05
-0.00033137
1.3646e-05
-0.000327572
-8.32019e-06
-0.00031385
-3.23745e-05
-0.000289618
-5.78521e-05
-0.000254641
-8.38253e-05
-0.000209249
-0.00010885
-0.000154712
-0.000130618
-9.41824e-05
-0.000144562
-3.55374e-05
-0.000139037
-8.13208e-05
-2.57394e-05
7.91194e-05
-7.00078e-05
0.000140977
-0.000117819
0.000153551
-0.000164398
0.000150027
-0.000208124
0.000141012
-0.000248035
0.000128743
-0.000283263
0.000113504
-0.00031293
9.52265e-05
-0.00033612
7.37823e-05
-0.00035187
4.90425e-05
-0.000359174
2.09501e-05
-0.000356973
-1.05214e-05
-0.000344099
-4.52489e-05
-0.000319637
-8.23143e-05
-0.00028297
-0.000120492
-0.000234106
-0.000157714
-0.00017416
-0.000190565
-0.000106545
-0.000212178
-4.03081e-05
-0.000205274
-0.000121629
-2.7168e-05
0.000106287
-7.4169e-05
0.000187978
-0.000124964
0.000204346
-0.00017454
0.000199603
-0.000221268
0.000187741
-0.00026422
0.000171695
-0.000302559
0.000151842
-0.000335428
0.000128096
-0.000361904
0.000100259
-0.000380963
6.81012e-05
-0.000391451
3.14388e-05
-0.000392098
-9.87511e-06
-0.000381335
-5.60118e-05
-0.000357717
-0.000105932
-0.000319967
-0.000158241
-0.000267416
-0.000210265
-0.000200777
-0.000257204
-0.000123749
-0.000289206
-4.70898e-05
-0.000281932
-0.000168719
-2.8944e-05
0.000135231
-7.92951e-05
0.000238329
-0.000133761
0.000258812
-0.000187031
0.000252872
-0.00023747
0.00023818
-0.000284202
0.000218427
-0.000326457
0.000194097
-0.000363431
0.00016507
-0.000394226
0.000131053
-0.000417778
9.16535e-05
-0.000432795
4.64557e-05
-0.000437776
-4.89416e-06
-0.000430597
-6.31908e-05
-0.000409073
-0.000127456
-0.000370923
-0.000196391
-0.000314332
-0.000266856
-0.0002391
-0.000332436
-0.000149047
-0.000379259
-5.73834e-05
-0.000373596
-0.000226102
-3.11716e-05
0.000166403
-8.56518e-05
0.000292809
-0.000144606
0.000317766
-0.000202353
0.000310619
-0.00025726
0.000293087
-0.000308537
0.000269704
-0.00035552
0.00024108
-0.000397518
0.000207068
-0.000433721
0.000167256
-0.000463091
0.000121023
-0.000484233
6.75974e-05
-0.000495463
6.33613e-06
-0.000494011
-6.46432e-05
-0.000476716
-0.000144751
-0.000439826
-0.000233281
-0.000379632
-0.000327051
-0.000294069
-0.000417999
-0.000186449
-0.000486879
-7.33129e-05
-0.000486732
-0.000299415
-3.38843e-05
0.000200287
-9.3329e-05
0.000352254
-0.000157604
0.000382041
-0.000220583
0.000373599
-0.000280653
0.000353157
-0.000337151
0.000326201
-0.000389584
0.000293513
-0.000437455
0.000254939
-0.000480147
0.000209948
-0.00051678
0.000157657
-0.000546026
9.6843e-05
-0.000565782
2.60918e-05
-0.000573254
-5.71712e-05
-0.000563756
-0.000154248
-0.000531556
-0.000265481
-0.000469969
-0.000388637
-0.000373398
-0.00051457
-0.000242924
-0.000617353
-9.91176e-05
-0.000630538
-0.000398533
-3.71374e-05
0.000237425
-0.000102448
0.000417564
-0.00017288
0.000452473
-0.000241784
0.000442503
-0.000307592
0.000418965
-0.000369828
0.000388437
-0.000428252
0.000351937
-0.000482669
0.000309356
-0.000532798
0.000260077
-0.000578097
0.000202956
-0.000617504
0.000136249
-0.00064903
5.76186e-05
-0.000669723
-3.64783e-05
-0.000673575
-0.000150397
-0.000652389
-0.000286667
-0.000595085
-0.000445941
-0.000489815
-0.00061984
-0.000331733
-0.000775435
-0.00014417
-0.000818101
-0.000542703
-4.105e-05
0.000278475
-0.000113242
0.000489756
-0.000190677
0.000529909
-0.000266107
0.000517933
-0.000338054
0.000490913
-0.000406307
0.00045669
-0.000470973
0.000416603
-0.000532289
0.000370672
-0.000590496
0.000318283
-0.000645654
0.000258115
-0.000697345
0.000187941
-0.000744104
0.000104378
-0.000783768
3.18507e-06
-0.000809138
-0.000125026
-0.000809862
-0.000285942
-0.000769054
-0.00048675
-0.000664804
-0.00072409
-0.000479834
-0.000960404
-0.000230711
-0.00106723
-0.000773413
-4.58588e-05
0.000324333
-0.000126151
0.000570048
-0.000211459
0.000615217
-0.000293885
0.000600359
-0.00037213
0.000569157
-0.00044634
0.0005309
-0.000517076
0.000487339
-0.000585139
0.000438735
-0.000651485
0.00038463
-0.000717112
0.000323742
-0.000782816
0.000253644
-0.000848698
0.00017026
-0.000912855
6.73429e-05
-0.000971422
-6.64594e-05
-0.00101171
-0.000245657
-0.00101141
-0.000487048
-0.000935088
-0.000800412
-0.000742295
-0.0011532
-0.000414328
-0.00139519
-0.00118774
-5.20178e-05
0.000376351
-0.000141968
0.000659998
-0.000236044
0.000709293
-0.000325747
0.000690062
-0.000410115
0.000653526
-0.000489782
0.000610567
-0.000565854
0.000563412
-0.000639792
0.000512673
-0.000713428
0.000458265
-0.000788994
0.000399308
-0.00086908
0.000333729
-0.000956299
0.000257479
-0.00105213
0.00016317
-0.00115675
3.81667e-05
-0.00126196
-0.000140452
-0.0013453
-0.000403699
-0.00135745
-0.00078827
-0.00121365
-0.00129699
-0.000789376
-0.00181947
-0.00197712
-6.04042e-05
0.000436755
-0.000162088
0.000761682
-0.000265806
0.000813011
-0.000362767
0.000787023
-0.000452635
0.000743394
-0.000536707
0.000694639
-0.000616706
0.000643411
-0.000694745
0.000590711
-0.000773517
0.000537038
-0.000856587
0.000482378
-0.000948758
0.0004259
-0.00105639
0.000365111
-0.00118745
0.000294233
-0.00135015
0.000200868
-0.00155268
6.20692e-05
-0.00178342
-0.000172951
-0.00198421
-0.00058748
-0.00197036
-0.00131084
-0.00140097
-0.00238886
-0.00337809
-7.29306e-05
0.000509686
-0.000189267
0.000878019
-0.000303003
0.000926746
-0.000406403
0.000890424
-0.00050055
0.00083754
-0.000587483
0.000781572
-0.000669396
0.000725323
-0.000748872
0.000670188
-0.000829294
0.000617459
-0.000915363
0.000568448
-0.00101407
0.000524612
-0.00113626
0.000487296
-0.00129864
0.000456609
-0.00152513
0.00042736
-0.00184337
0.000380314
-0.0022667
0.000250372
-0.00271686
-0.000137314
-0.00281578
-0.00121193
-0.00195806
-0.00324657
-0.00533615
-8.88381e-05
0.000598524
-0.000223612
0.00101279
-0.000349535
0.00105267
-0.000460615
0.0010015
-0.000557774
0.0009347
-0.000644648
0.000868445
-0.000724842
0.000805518
-0.000801537
0.000746883
-0.000878022
0.000693943
-0.000958672
0.000649097
-0.00105097
0.000616906
-0.00116838
0.000604715
-0.00133544
0.00062366
-0.00159182
0.000683746
-0.0019905
0.000778993
-0.00254276
0.000802632
-0.00311014
0.000430065
-0.00314257
-0.00117949
-0.00200008
-0.00438907
-0.00733623
-0.000151104
0.000749628
-0.000298273
0.00115996
-0.00041929
0.00117369
-0.000521661
0.00110387
-0.000613839
0.00102688
-0.000698317
0.000952924
-0.000776468
0.000883669
-0.000849279
0.000819694
-0.00091849
0.000763154
-0.0009867
0.000717307
-0.0010596
0.00068981
-0.00114779
0.000692903
-0.00127465
0.00075052
-0.00147283
0.000881919
-0.00179662
0.00110279
-0.00220882
0.00121483
-0.00261915
0.000840397
-0.00258299
-0.00121566
-0.00162322
-0.00534884
-0.00895945
-0.000103717
0.000853345
-0.000316528
0.00137277
-0.000483609
0.00134077
-0.000611647
0.00123191
-0.00070918
0.00112441
-0.000785035
0.00102878
-0.000845836
0.000944469
-0.00089511
0.000868968
-0.000934912
0.000802957
-0.000964734
0.000747129
-0.000984021
0.000709097
-0.000991131
0.000700014
-0.000992057
0.000751446
-0.000984832
0.000874694
-0.00100875
0.0011267
-0.00105288
0.00125897
-0.00116095
0.000948461
-0.00125027
-0.00112634
-0.000884939
-0.00571416
-0.00984439
-0.000390149
0.00124349
-0.000502389
0.00148501
-0.000608296
0.00144667
-0.000705564
0.00132918
-0.000760219
0.00117907
-0.000781607
0.00105017
-0.000779448
0.00094231
-0.00075792
0.000847441
-0.00072307
0.000768107
-0.000672051
0.00069611
-0.000606131
0.000643177
-0.00051123
0.000605112
-0.000376166
0.000616382
-0.000168684
0.000667212
0.000153095
0.000804926
0.000536997
0.000875063
0.00100754
0.000477916
0.00097664
-0.00109544
0.00057771
-0.00531523
-0.00926668
-0.00132365
0.00256715
-0.00127044
0.0014318
-0.00102667
0.0012029
-0.000680476
0.00098299
-0.000314848
0.000813437
4.73686e-05
0.000687951
0.000391493
0.000598185
0.000712834
0.0005261
0.00101364
0.000467305
0.00129042
0.000419328
0.00155697
0.000376627
0.00181497
0.000347113
0.00210143
0.00032992
0.00244157
0.000327068
0.00293019
0.000316311
0.00355854
0.000246713
0.00416754
-0.000131083
0.00418359
-0.00111149
0.00265805
-0.00378969
-0.00660863
0.00256715
0.00399895
0.00520185
0.00618484
0.00699827
0.00768622
0.00828441
0.00881051
0.00927781
0.00969714
0.0100738
0.0104209
0.0107508
0.0110779
0.0113942
0.0116409
0.0115098
0.0103983
0.00660863
)
;

boundaryField
{
    movingWall
    {
        type            calculated;
        value           uniform 0;
    }
    fixedWalls
    {
        type            calculated;
        value           uniform 0;
    }
    frontAndBack
    {
        type            empty;
        value           nonuniform List<scalar> 0();
    }
}


// ************************************************************************* //
