/*--------------------------------*- C++ -*----------------------------------*\
  =========                 |
  \\      /  F ield         | OpenFOAM: The Open Source CFD Toolbox
   \\    /   O peration     | Website:  https://openfoam.org
    \\  /    A nd           | Version:  10
     \\/     M anipulation  |
\*---------------------------------------------------------------------------*/
FoamFile
{
    format      ascii;
    class       surfaceScalarField;
    location    "5.4";
    object      phi;
}
// * * * * * * * * * * * * * * * * * * * * * * * * * * * * * * * * * * * * * //

dimensions      [0 3 -1 0 0 0 0];

internalField   nonuniform List<scalar> 
760
(
-8.68673e-06
8.68673e-06
-2.8907e-05
2.02203e-05
-5.26338e-05
2.37268e-05
-7.6724e-05
2.40902e-05
-0.000100181
2.34566e-05
-0.000122561
2.238e-05
-0.000143434
2.08735e-05
-0.000162254
1.88202e-05
-0.000178332
1.60777e-05
-0.000190831
1.2499e-05
-0.000198779
7.94811e-06
-0.000201104
2.32487e-06
-0.000196693
-4.41081e-06
-0.000184567
-1.2126e-05
-0.000164065
-2.05021e-05
-0.000135123
-2.89424e-05
-9.8747e-05
-3.63757e-05
-5.79223e-05
-4.08246e-05
-1.96698e-05
-3.82525e-05
-1.96698e-05
-2.11848e-05
2.98716e-05
-6.00864e-05
5.91218e-05
-0.000104063
6.77031e-05
-0.00014814
6.8168e-05
-0.000190475
6.57914e-05
-0.000230074
6.19788e-05
-0.000266048
5.6847e-05
-0.00029742
5.01924e-05
-0.000323078
4.1736e-05
-0.00034176
3.11814e-05
-0.00035203
1.82178e-05
-0.000352519
2.81397e-06
-0.000341666
-1.52636e-05
-0.000318227
-3.55658e-05
-0.000281464
-5.72646e-05
-0.000231539
-7.88679e-05
-0.000170168
-9.77463e-05
-0.000102006
-0.000108987
-3.74619e-05
-0.000102797
-5.71317e-05
-2.61397e-05
5.60113e-05
-7.26381e-05
0.00010562
-0.000124631
0.000119696
-0.000176424
0.000119961
-0.000225944
0.000115311
-0.000272072
0.000108107
-0.000313817
9.85924e-05
-0.000350114
8.64889e-05
-0.00037976
7.13819e-05
-0.000401393
5.28144e-05
-0.000413535
3.03598e-05
-0.000414488
3.76657e-06
-0.000402435
-2.73162e-05
-0.00037586
-6.21406e-05
-0.000333665
-9.94598e-05
-0.000275712
-0.000136821
-0.000203673
-0.000169785
-0.000122808
-0.000189852
-4.54829e-05
-0.000180122
-0.000102615
-2.80327e-05
8.40439e-05
-7.79704e-05
0.000155558
-0.000133668
0.000175394
-0.000189113
0.000175406
-0.000242216
0.000168413
-0.000291895
0.000157786
-0.000337205
0.000143902
-0.000377118
0.000126402
-0.000410449
0.000104713
-0.000435801
7.81662e-05
-0.000451533
4.60917e-05
-0.00045579
8.02432e-06
-0.000446286
-3.68203e-05
-0.000420758
-8.76686e-05
-0.000377262
-0.000142956
-0.000314795
-0.000199288
-0.000234583
-0.000249997
-0.000142362
-0.000282073
-5.28333e-05
-0.000269651
-0.000155448
-2.92277e-05
0.000113272
-8.17426e-05
0.000208073
-0.000140376
0.000234027
-0.000198867
0.000233897
-0.000255161
0.000224708
-0.000308283
0.000210909
-0.000357405
0.000193024
-0.00040161
0.000170607
-0.000439791
0.000142894
-0.000470554
0.000108929
-0.000492115
6.76532e-05
-0.000502214
1.81225e-05
-0.000498083
-4.09507e-05
-0.000476339
-0.000109413
-0.000433639
-0.000185656
-0.00036738
-0.000265547
-0.000277532
-0.000339845
-0.000170215
-0.00038939
-6.36078e-05
-0.000376258
-0.000219056
-3.05152e-05
0.000143787
-8.58535e-05
0.000263411
-0.000147762
0.000295936
-0.000209696
0.000295831
-0.000269657
0.000284669
-0.000326822
0.000268073
-0.000380544
0.000246746
-0.0004301
0.000220162
-0.000474548
0.000187343
-0.000512585
0.000146966
-0.000542357
9.74255e-05
-0.000561258
3.70237e-05
-0.000565857
-3.63525e-05
-0.000551264
-0.000124005
-0.000512061
-0.000224859
-0.000442962
-0.000334646
-0.000341386
-0.000441421
-0.000212996
-0.00051778
-8.09463e-05
-0.000508308
-0.000300002
-3.20822e-05
0.000175869
-9.07703e-05
0.000322099
-0.000156525
0.000361691
-0.000222456
0.000361762
-0.000286637
0.000348849
-0.000348451
0.000329887
-0.000407517
0.000305813
-0.000463411
0.000276056
-0.000515503
0.000239434
-0.000562754
0.000194218
-0.000603434
0.000138105
-0.000634725
6.83139e-05
-0.000652608
-1.8469e-05
-0.000650439
-0.000126175
-0.000619871
-0.000255427
-0.000551334
-0.000403182
-0.000437331
-0.000555424
-0.000280599
-0.000674511
-0.000110359
-0.000678548
-0.000410361
-3.39606e-05
0.00020983
-9.658e-05
0.000384719
-0.000166746
0.000431857
-0.000237144
0.000432159
-0.000305942
0.000417648
-0.000372793
0.000396738
-0.000437679
0.000370699
-0.000500622
0.000338999
-0.000561507
0.000300319
-0.000619835
0.000252546
-0.000674349
0.00019262
-0.000722427
0.000116392
-0.00075987
1.89739e-05
-0.000778347
-0.000107698
-0.000765907
-0.000267867
-0.000706697
-0.000462392
-0.000584335
-0.000677786
-0.000392963
-0.000865883
-0.00016471
-0.000906801
-0.000575071
-3.61908e-05
0.00024602
-0.000103358
0.000451886
-0.000178445
0.000506945
-0.000253623
0.000507337
-0.00032718
0.000491205
-0.000399108
0.000468665
-0.000469859
0.00044145
-0.00054007
0.000409211
-0.000610402
0.000370651
-0.000681299
0.000323443
-0.000752568
0.000263889
-0.000822647
0.000186471
-0.000887165
8.34916e-05
-0.000938704
-5.61583e-05
-0.000961145
-0.000245426
-0.000930839
-0.000492698
-0.0008171
-0.000791526
-0.000593464
-0.00108952
-0.000275722
-0.00122454
-0.000850794
-3.88923e-05
0.000284913
-0.000111319
0.000524312
-0.000191792
0.000587418
-0.000271873
0.000587417
-0.000350004
0.000569337
-0.000426581
0.000545242
-0.000502631
0.0005175
-0.000579567
0.000486147
-0.000659099
0.000450184
-0.000743084
0.000407427
-0.000833158
0.000353963
-0.000929976
0.000283288
-0.00103164
0.000185157
-0.00113279
4.499e-05
-0.00121751
-0.000160702
-0.00125611
-0.000454104
-0.00119771
-0.000849927
-0.000969171
-0.00131806
-0.000513608
-0.00168011
-0.0013644
-4.23339e-05
0.000327247
-0.000120948
0.000602926
-0.000207262
0.000673732
-0.000292153
0.000672309
-0.000374281
0.000651465
-0.000454512
0.000625473
-0.00053451
0.000597498
-0.000616556
0.000568193
-0.000703617
0.000537245
-0.00079942
0.00050323
-0.000908382
0.000462925
-0.00103518
0.000410088
-0.0011836
0.000333578
-0.00135347
0.000214854
-0.00154261
2.84399e-05
-0.00172025
-0.000276465
-0.00180979
-0.000760381
-0.00163277
-0.00149508
-0.000962727
-0.00235015
-0.00232713
-4.70488e-05
0.000374295
-0.000133183
0.00068906
-0.00022582
0.000766369
-0.000315185
0.000761674
-0.000400283
0.000736563
-0.000482528
0.000707718
-0.000564231
0.000679201
-0.000648499
0.00065246
-0.000739542
0.000628288
-0.00084315
0.000606839
-0.000967286
0.00058706
-0.00112266
0.000565461
-0.00132297
0.000533894
-0.00158419
0.00047607
-0.00191791
0.000362163
-0.00231811
0.000123732
-0.0026518
-0.000426696
-0.00253113
-0.00161574
-0.00152565
-0.00335563
-0.00385278
-5.40167e-05
0.000428312
-0.000149664
0.000784708
-0.000249172
0.000865877
-0.000342412
0.000854914
-0.000428938
0.000823089
-0.000510851
0.000789631
-0.000591085
0.000759434
-0.000673276
0.000734652
-0.000762441
0.000717453
-0.00086597
0.000710368
-0.000995098
0.000716188
-0.00116716
0.000737521
-0.00140871
0.000775444
-0.00175789
0.000825255
-0.00225425
0.000858524
-0.00286955
0.000739024
-0.00336163
6.53845e-05
-0.00317086
-0.00180651
-0.00187495
-0.00465154
-0.00572773
-6.57284e-05
0.000494041
-0.000173962
0.000892941
-0.000280183
0.000972098
-0.000375462
0.000950193
-0.00046119
0.000908817
-0.000540208
0.000868649
-0.000615415
0.000834641
-0.000690427
0.000809663
-0.000770294
0.00079732
-0.000862734
0.000802808
-0.000980425
0.00083388
-0.00114461
0.000901701
-0.00139026
0.0010211
-0.00176347
0.00119847
-0.00229891
0.00139396
-0.00292142
0.00136154
-0.00334838
0.000492346
-0.00306318
-0.00209172
-0.00188691
-0.00582781
-0.00761464
-8.00093e-05
0.00057405
-0.000204355
0.00101729
-0.000320322
0.00108806
-0.000420227
0.0010501
-0.000504188
0.000992779
-0.000576563
0.000941024
-0.000641334
0.000899412
-0.000702002
0.000870331
-0.00076219
0.000857508
-0.000827017
0.000867635
-0.000906005
0.000912867
-0.00101524
0.00101093
-0.00118389
0.00118975
-0.00144349
0.00145807
-0.00181491
0.00176539
-0.00219311
0.00173973
-0.00244665
0.000745885
-0.00230985
-0.00222851
-0.00161613
-0.00652153
-0.00923077
-0.000146017
0.000720067
-0.000284137
0.00115541
-0.000390147
0.00119407
-0.000472975
0.00113293
-0.00054352
0.00106332
-0.000605476
0.00100298
-0.000659712
0.000953648
-0.000705831
0.00091645
-0.000743517
0.000895194
-0.000771985
0.000896103
-0.000791656
0.000932538
-0.000803996
0.00102327
-0.000817145
0.0012029
-0.00082732
0.00146824
-0.000850102
0.00178817
-0.000860976
0.0017506
-0.0009113
0.00079621
-0.00108834
-0.00205147
-0.000966899
-0.00664297
-0.0101977
-9.63884e-05
0.000816455
-0.000298193
0.00135721
-0.000448264
0.00134415
-0.000554212
0.00123887
-0.000627094
0.00113621
-0.000676661
0.00105255
-0.000708061
0.000985048
-0.00072284
0.00093123
-0.000719827
0.000892181
-0.000692562
0.000868838
-0.000632474
0.00087245
-0.000521853
0.000912653
-0.000342304
0.00102335
-7.13241e-05
0.00119726
0.000297174
0.00141967
0.00064426
0.00140352
0.000771207
0.000669262
0.00030767
-0.00158793
-4.27477e-05
-0.00629256
-0.0102404
-0.000388833
0.00120529
-0.000478754
0.00144713
-0.000567498
0.00143289
-0.000648794
0.00132017
-0.000685892
0.0011733
-0.000686144
0.0010528
-0.000657239
0.000956143
-0.000600649
0.00087464
-0.000520384
0.000811915
-0.000409398
0.000757853
-0.00026223
0.000725281
-5.94191e-05
0.000709842
0.000228239
0.000735687
0.000627574
0.00079793
0.00116421
0.000883035
0.00171004
0.000857687
0.00214702
0.000232281
0.00188578
-0.00132669
0.000983956
-0.00539073
-0.00925646
-0.00134975
0.00255504
-0.00131255
0.00140994
-0.00106863
0.00118897
-0.000716229
0.000967767
-0.000341281
0.000798355
3.59045e-05
0.000675614
0.000402377
0.000589671
0.000755093
0.000521924
0.00109404
0.000472969
0.00142225
0.000429646
0.00174714
0.000400392
0.00207692
0.000380057
0.00244427
0.000368333
0.002867
0.000375204
0.00341587
0.000334165
0.00402377
0.00024979
0.00444373
-0.000187681
0.00432979
-0.00121275
0.00268611
-0.00374705
-0.00657035
0.00255504
0.00396497
0.00515394
0.00612171
0.00692006
0.00759568
0.00818535
0.00870727
0.00918024
0.00960989
0.0100103
0.0103903
0.0107587
0.0111339
0.011468
0.0117178
0.0115301
0.0103174
0.00657035
)
;

boundaryField
{
    movingWall
    {
        type            calculated;
        value           uniform 0;
    }
    fixedWalls
    {
        type            calculated;
        value           uniform 0;
    }
    frontAndBack
    {
        type            empty;
        value           nonuniform List<scalar> 0();
    }
}


// ************************************************************************* //
