/*--------------------------------*- C++ -*----------------------------------*\
  =========                 |
  \\      /  F ield         | OpenFOAM: The Open Source CFD Toolbox
   \\    /   O peration     | Website:  https://openfoam.org
    \\  /    A nd           | Version:  10
     \\/     M anipulation  |
\*---------------------------------------------------------------------------*/
FoamFile
{
    format      ascii;
    class       volVectorField;
    location    "5.4";
    object      U;
}
// * * * * * * * * * * * * * * * * * * * * * * * * * * * * * * * * * * * * * //

dimensions      [0 1 -1 0 0 0 0];

internalField   nonuniform List<vector> 
400
(
(-9.25299e-05 8.58726e-05 0)
(-0.000815726 0.000312703 0)
(-0.00204107 0.000385141 0)
(-0.00324043 0.000397309 0)
(-0.00443498 0.000393663 0)
(-0.00558619 0.000385119 0)
(-0.00667224 0.000370937 0)
(-0.00766984 0.00034772 0)
(-0.0085484 0.000311647 0)
(-0.00926985 0.000258797 0)
(-0.00978877 0.000185614 0)
(-0.0100539 8.98824e-05 0)
(-0.0100098 -3.14945e-05 0)
(-0.00960256 -0.000176642 0)
(-0.00878974 -0.000339379 0)
(-0.00754886 -0.000507651 0)
(-0.00589939 -0.000658959 0)
(-0.00395653 -0.000752154 0)
(-0.00176007 -0.000700825 0)
(-0.000292331 -0.000317825 0)
(-0.000339511 0.000824049 0)
(-0.00184163 0.00177303 0)
(-0.00411047 0.00205929 0)
(-0.00632388 0.00208459 0)
(-0.00849653 0.00202304 0)
(-0.0105559 0.00192034 0)
(-0.0124549 0.00177872 0)
(-0.0141486 0.00158974 0)
(-0.0155852 0.00134275 0)
(-0.016705 0.00102671 0)
(-0.0174406 0.000631397 0)
(-0.0177216 0.000148529 0)
(-0.0174731 -0.000422757 0)
(-0.0166229 -0.00107011 0)
(-0.0151191 -0.00176694 0)
(-0.0129408 -0.00246414 0)
(-0.0101322 -0.00307477 0)
(-0.00686739 -0.00343783 0)
(-0.00322244 -0.00322906 0)
(-0.000644761 -0.00172402 0)
(-0.000434542 0.0021314 0)
(-0.00225288 0.00408738 0)
(-0.00494334 0.00465195 0)
(-0.00755138 0.00467194 0)
(-0.0100987 0.00449789 0)
(-0.0125029 0.00422347 0)
(-0.014711 0.00385783 0)
(-0.0166733 0.00338909 0)
(-0.0183337 0.00280018 0)
(-0.0196283 0.00207274 0)
(-0.020486 0.00118981 0)
(-0.0208271 0.000138779 0)
(-0.0205623 -0.00107956 0)
(-0.0196061 -0.00244357 0)
(-0.0178906 -0.00389992 0)
(-0.0153766 -0.00534954 0)
(-0.0120976 -0.00661736 0)
(-0.00824548 -0.00737592 0)
(-0.00390051 -0.0069742 0)
(-0.000792589 -0.00393965 0)
(-0.000464026 0.00348707 0)
(-0.00241786 0.00650124 0)
(-0.00530532 0.00734558 0)
(-0.00809627 0.00735236 0)
(-0.0108249 0.00706125 0)
(-0.0134076 0.00661483 0)
(-0.0157936 0.00602849 0)
(-0.0179356 0.00528626 0)
(-0.0197788 0.00436357 0)
(-0.021259 0.00323261 0)
(-0.022301 0.00186642 0)
(-0.0228177 0.000245447 0)
(-0.0227041 -0.00163484 0)
(-0.0218445 -0.00375392 0)
(-0.0201305 -0.00603885 0)
(-0.0174776 -0.00834323 0)
(-0.013881 -0.0103939 0)
(-0.00953914 -0.0116615 0)
(-0.00453442 -0.0111014 0)
(-0.000919679 -0.0063703 0)
(-0.000477892 0.00491735 0)
(-0.00252729 0.00905879 0)
(-0.00556827 0.0101988 0)
(-0.00850737 0.0101952 0)
(-0.0113918 0.00979008 0)
(-0.0141398 0.00917794 0)
(-0.0167065 0.00838092 0)
(-0.0190507 0.00737866 0)
(-0.0211227 0.0061377 0)
(-0.0228603 0.00461757 0)
(-0.0241853 0.00277536 0)
(-0.0249976 0.000573548 0)
(-0.0251718 -0.00200761 0)
(-0.0245523 -0.00495975 0)
(-0.0229671 -0.00820303 0)
(-0.0202539 -0.0115485 0)
(-0.0163256 -0.0146079 0)
(-0.0113634 -0.0165902 0)
(-0.00545562 -0.0159347 0)
(-0.00111296 -0.00923578 0)
(-0.000492418 0.00640857 0)
(-0.00264546 0.01175 0)
(-0.00585609 0.0132067 0)
(-0.00896168 0.0132001 0)
(-0.0120234 0.0126906 0)
(-0.014963 0.0119285 0)
(-0.0177445 0.0109441 0)
(-0.0203365 0.00971256 0)
(-0.0226986 0.00819001 0)
(-0.0247754 0.00631948 0)
(-0.0264896 0.00403451 0)
(-0.0277317 0.00126736 0)
(-0.0283536 -0.0020372 0)
(-0.0281467 -0.00590561 0)
(-0.0268503 -0.0102761 0)
(-0.0241805 -0.0149314 0)
(-0.0199041 -0.0193508 0)
(-0.014123 -0.0224 0)
(-0.00691421 -0.0217916 0)
(-0.00144352 -0.0127674 0)
(-0.000510997 0.00796977 0)
(-0.00278816 0.0145936 0)
(-0.006199 0.0163908 0)
(-0.00949887 0.0163897 0)
(-0.0127652 0.0157875 0)
(-0.0159247 0.0148963 0)
(-0.0189538 0.0137562 0)
(-0.0218357 0.0123391 0)
(-0.0245458 0.0105902 0)
(-0.0270439 0.00843244 0)
(-0.0292625 0.00576776 0)
(-0.031091 0.00248285 0)
(-0.0323647 -0.00153752 0)
(-0.0328203 -0.00638893 0)
(-0.0320832 -0.012077 0)
(-0.0296897 -0.0183992 0)
(-0.0251607 -0.0247054 0)
(-0.0183759 -0.029416 0)
(-0.00933078 -0.0291732 0)
(-0.00205049 -0.0173874 0)
(-0.000533905 0.00961659 0)
(-0.00295845 0.0176186 0)
(-0.00660222 0.0197812 0)
(-0.0101216 0.0197915 0)
(-0.0136138 0.0191065 0)
(-0.0170119 0.0181078 0)
(-0.0203088 0.0168494 0)
(-0.0235086 0.0153025 0)
(-0.0266109 0.0134031 0)
(-0.0296028 0.0110533 0)
(-0.0324433 0.00811717 0)
(-0.0350406 0.00441857 0)
(-0.0372312 -0.000251581 0)
(-0.0387123 -0.00609132 0)
(-0.038987 -0.0132691 0)
(-0.0373518 -0.0216892 0)
(-0.0329453 -0.030634 0)
(-0.0251493 -0.0379918 0)
(-0.0136516 -0.0388456 0)
(-0.0032833 -0.0239002 0)
(-0.000561953 0.0113655 0)
(-0.00315972 0.0208551 0)
(-0.00706943 0.0234054 0)
(-0.0108279 0.0234258 0)
(-0.0145567 0.022662 0)
(-0.0181969 0.0215749 0)
(-0.0217622 0.0202379 0)
(-0.0252841 0.0186275 0)
(-0.028797 0.0166757 0)
(-0.0323317 0.0142683 0)
(-0.0358991 0.0112317 0)
(-0.0394624 0.00731773 0)
(-0.0428833 0.00219753 0)
(-0.0458838 -0.00451464 0)
(-0.0478984 -0.0132433 0)
(-0.0479506 -0.0241758 0)
(-0.0446639 -0.036731 0)
(-0.0364857 -0.0483247 0)
(-0.0221336 -0.0519838 0)
(-0.0060463 -0.0340256 0)
(-0.000598133 0.0132365 0)
(-0.00340128 0.0243358 0)
(-0.00761218 0.0272875 0)
(-0.0116229 0.0273036 0)
(-0.0155859 0.0264534 0)
(-0.0194518 0.0252885 0)
(-0.0232591 0.0239098 0)
(-0.0270727 0.0223073 0)
(-0.0309721 0.0204207 0)
(-0.0350493 0.018132 0)
(-0.0393973 0.015243 0)
(-0.0440818 0.0114418 0)
(-0.0490869 0.00626338 0)
(-0.0542538 -0.000942825 0)
(-0.0590795 -0.010929 0)
(-0.0624931 -0.0245059 0)
(-0.0626055 -0.0416284 0)
(-0.0562827 -0.0598356 0)
(-0.0395319 -0.0702414 0)
(-0.0123652 -0.0513796 0)
(-0.000649518 0.0152587 0)
(-0.00370356 0.0281009 0)
(-0.00825733 0.0314506 0)
(-0.0125268 0.0314265 0)
(-0.0167063 0.0304626 0)
(-0.0207575 0.0292145 0)
(-0.0247465 0.0278188 0)
(-0.0287754 0.0262904 0)
(-0.0329749 0.0245926 0)
(-0.0375128 0.0226284 0)
(-0.0425954 0.0202077 0)
(-0.0484583 0.0169913 0)
(-0.0553262 0.012405 0)
(-0.0633163 0.00554838 0)
(-0.0724181 -0.00480348 0)
(-0.0819756 -0.0201148 0)
(-0.0898039 -0.0420052 0)
(-0.0899312 -0.0701322 0)
(-0.0714334 -0.0958854 0)
(-0.0240866 -0.0840071 0)
(-0.000730854 0.0174805 0)
(-0.00410635 0.0322072 0)
(-0.00905685 0.035921 0)
(-0.013584 0.0357873 0)
(-0.0179445 0.0346521 0)
(-0.0221135 0.0332888 0)
(-0.0261866 0.0318776 0)
(-0.0303014 0.0304688 0)
(-0.0346372 0.0290698 0)
(-0.039439 0.0276406 0)
(-0.045045 0.0260588 0)
(-0.0519197 0.0240513 0)
(-0.0606731 0.0210785 0)
(-0.0720394 0.0161796 0)
(-0.0868295 0.0077941 0)
(-0.1059 -0.00659567 0)
(-0.12689 -0.0319433 0)
(-0.136956 -0.0757736 0)
(-0.113054 -0.134167 0)
(-0.0368469 -0.144251 0)
(-0.000871193 0.019974 0)
(-0.00468065 0.0367001 0)
(-0.0101007 0.0406707 0)
(-0.0148761 0.0403094 0)
(-0.0193616 0.0389244 0)
(-0.0235504 0.037398 0)
(-0.0275701 0.035945 0)
(-0.0315858 0.0346604 0)
(-0.0358058 0.0336173 0)
(-0.0405273 0.0328716 0)
(-0.0461948 0.0324437 0)
(-0.0534909 0.0322666 0)
(-0.0634607 0.0320886 0)
(-0.077681 0.0313056 0)
(-0.0985222 0.0285069 0)
(-0.128196 0.0191617 0)
(-0.161749 -0.00949965 0)
(-0.174784 -0.0831907 0)
(-0.139094 -0.197135 0)
(-0.0425121 -0.236236 0)
(-0.00114434 0.0229637 0)
(-0.00560227 0.0419669 0)
(-0.0115632 0.0461261 0)
(-0.0165152 0.0453978 0)
(-0.0210205 0.0435489 0)
(-0.0251107 0.0416451 0)
(-0.028927 0.0399779 0)
(-0.0326312 0.0387003 0)
(-0.0364287 0.037959 0)
(-0.0406174 0.03794 0)
(-0.0456676 0.0388958 0)
(-0.0523589 0.0411432 0)
(-0.0619836 0.0450419 0)
(-0.076564 0.050658 0)
(-0.0991768 0.0564441 0)
(-0.131562 0.053239 0)
(-0.166431 0.0153257 0)
(-0.171325 -0.100763 0)
(-0.135059 -0.271864 0)
(-0.0447178 -0.339578 0)
(-0.00152972 0.026653 0)
(-0.00668813 0.0469037 0)
(-0.0134446 0.0505385 0)
(-0.0186946 0.0489767 0)
(-0.0232662 0.0467123 0)
(-0.0271292 0.0446755 0)
(-0.0305106 0.0430306 0)
(-0.033597 0.041879 0)
(-0.0365508 0.0414046 0)
(-0.0395636 0.0419175 0)
(-0.0429528 0.0439359 0)
(-0.0472816 0.048256 0)
(-0.0536127 0.0559669 0)
(-0.0634843 0.0675348 0)
(-0.0792507 0.0805377 0)
(-0.100826 0.0793054 0)
(-0.125801 0.0307713 0)
(-0.122652 -0.115558 0)
(-0.11173 -0.322562 0)
(-0.0391191 -0.434808 0)
(-0.00357959 0.030079 0)
(-0.0109584 0.0557316 0)
(-0.0171758 0.059248 0)
(-0.0217822 0.0572209 0)
(-0.0255533 0.0536788 0)
(-0.0288455 0.050384 0)
(-0.0317267 0.0476701 0)
(-0.0342091 0.0457063 0)
(-0.0362713 0.0446891 0)
(-0.0378754 0.0449523 0)
(-0.0389839 0.0471505 0)
(-0.0395841 0.052344 0)
(-0.0400423 0.0621761 0)
(-0.0401153 0.0769059 0)
(-0.0415421 0.0938256 0)
(-0.04125 0.0920372 0)
(-0.0503587 0.0411445 0)
(-0.043155 -0.112687 0)
(-0.0705244 -0.341153 0)
(-0.0159969 -0.503851 0)
(-0.00123598 0.0441378 0)
(-0.00890325 0.0583197 0)
(-0.0201112 0.0585339 0)
(-0.0252247 0.053975 0)
(-0.0298625 0.0506792 0)
(-0.0328109 0.0481717 0)
(-0.0347958 0.0462338 0)
(-0.0359349 0.0447425 0)
(-0.0362354 0.0438585 0)
(-0.0355103 0.0438484 0)
(-0.0334159 0.0454042 0)
(-0.029166 0.0493381 0)
(-0.0224749 0.057438 0)
(-0.010536 0.0694426 0)
(0.00315368 0.0839736 0)
(0.0276802 0.0829294 0)
(0.0323801 0.0383737 0)
(0.0426131 -0.0932413 0)
(-0.0153016 -0.32883 0)
(0.0136677 -0.524171 0)
(-0.0122545 0.0333172 0)
(-0.0246341 0.0800267 0)
(-0.024647 0.0785382 0)
(-0.0314225 0.0733107 0)
(-0.0339697 0.0660572 0)
(-0.034835 0.0598045 0)
(-0.0339662 0.0545485 0)
(-0.0317371 0.0502532 0)
(-0.0283054 0.0469028 0)
(-0.0234702 0.0443347 0)
(-0.017303 0.042983 0)
(-0.00843119 0.0430812 0)
(0.0026828 0.0462891 0)
(0.0208723 0.0520273 0)
(0.0411762 0.0610437 0)
(0.0765931 0.0614887 0)
(0.0881193 0.0328008 0)
(0.121602 -0.0599657 0)
(0.0565164 -0.293803 0)
(0.0564537 -0.509365 0)
(-0.0769063 0.097165 0)
(-0.0626048 0.0599258 0)
(-0.0648463 0.0600598 0)
(-0.0438244 0.0533952 0)
(-0.0268475 0.0465094 0)
(-0.00737189 0.0413385 0)
(0.011007 0.03759 0)
(0.0292977 0.0343102 0)
(0.0460638 0.0318671 0)
(0.0636234 0.029438 0)
(0.0785915 0.0279178 0)
(0.0971843 0.0266525 0)
(0.110465 0.0264013 0)
(0.136337 0.0272693 0)
(0.147705 0.0254241 0)
(0.19568 0.0210273 0)
(0.194667 -0.0126197 0)
(0.243573 -0.0809163 0)
(0.170677 -0.26719 0)
(0.127643 -0.446972 0)
(0.11992 0.14057 0)
(0.152517 0.0860962 0)
(0.22986 0.0635803 0)
(0.2851 0.0482208 0)
(0.326583 0.0375585 0)
(0.364905 0.0298502 0)
(0.393679 0.0244255 0)
(0.425315 0.0204615 0)
(0.444841 0.01763 0)
(0.474186 0.0154133 0)
(0.486318 0.0137182 0)
(0.516312 0.0126783 0)
(0.521748 0.0115134 0)
(0.555243 0.0113624 0)
(0.55143 0.00984208 0)
(0.588503 0.00667563 0)
(0.561827 -0.00230621 0)
(0.573191 -0.0265536 0)
(0.434765 -0.0727802 0)
(0.278395 -0.15265 0)
)
;

boundaryField
{
    movingWall
    {
        type            fixedValue;
        value           uniform (1 0 0);
    }
    fixedWalls
    {
        type            noSlip;
    }
    frontAndBack
    {
        type            empty;
    }
}


// ************************************************************************* //
