/*--------------------------------*- C++ -*----------------------------------*\
  =========                 |
  \\      /  F ield         | OpenFOAM: The Open Source CFD Toolbox
   \\    /   O peration     | Website:  https://openfoam.org
    \\  /    A nd           | Version:  10
     \\/     M anipulation  |
\*---------------------------------------------------------------------------*/
FoamFile
{
    format      ascii;
    class       surfaceScalarField;
    location    "3.725";
    object      phi;
}
// * * * * * * * * * * * * * * * * * * * * * * * * * * * * * * * * * * * * * //

dimensions      [0 3 -1 0 0 0 0];

internalField   nonuniform List<scalar> 
890
(
0.00983612
0.00016388
0.0097248
0.000111316
0.00947034
0.000254466
0.00944759
2.27489e-05
0.00013286
0.00931473
0.010124
3.98949e-05
0.0101925
4.27568e-05
0.010414
3.30596e-05
0.010458
-2.12537e-05
-8.03436e-05
0.0106712
0.0100721
-3.2195e-05
0.0102161
-0.000101222
0.0103824
-0.000133253
0.010517
-0.000155861
-0.000199507
0.0106362
0.0100923
-0.000124511
0.0102171
-0.000226035
0.0103258
-0.000241936
0.0104124
-0.000242481
-0.00025403
0.010467
0.00987549
0.00964945
0.00940752
0.00916504
0.00891101
0.00928425
-0.000160151
0.000190628
0.00932231
-0.000306723
0.000268661
0.00946021
-0.000369183
0.000231283
0.00969334
-0.000475917
0.000242791
0.00996947
-0.000656157
0.000380028
0.0102659
-0.000919911
0.000623447
0.0105562
-0.00134781
0.00105757
0.0107608
-0.00178174
0.00157714
0.0108427
-0.00225206
0.00217018
0.0108506
-0.00279503
0.00278707
0.010717
-0.00313758
0.00327123
0.0103881
-0.00328437
0.00361323
0.00990587
-0.00317829
0.00366052
0.00928925
-0.00279696
0.00341358
0.00859948
-0.00230562
0.00299538
0.00784292
-0.0015338
0.00229036
0.0069822
-0.000519445
0.00138016
0.00611474
0.000220537
0.000646923
0.00547033
0.000485405
0.000159006
0.00517431
0.0005131
-0.00021708
0.00517997
0.000559471
-0.000565129
0.0053464
0.0006492
-0.000815628
0.00554768
0.000709352
-0.000910631
0.00571561
0.000698137
-0.000866074
0.00583075
0.000622033
-0.000737171
0.00589973
0.000509969
-0.000578949
0.00593716
0.000390537
-0.000427969
0.00595622
0.000282669
-0.000301728
0.00596579
0.000195091
-0.000204661
0.00597087
0.000129219
-0.000134296
0.00597389
8.24744e-05
-8.54945e-05
0.00597591
5.07993e-05
-5.28197e-05
0.00597735
3.01353e-05
-3.15785e-05
0.0059784
1.70971e-05
-1.81402e-05
0.00597913
9.12186e-06
-9.8588e-06
0.00597963
4.41148e-06
-4.90964e-06
0.00597996
1.72636e-06
-2.05876e-06
0.0059802
2.70571e-07
-5.04374e-07
0.00598033
-4.21677e-07
2.90985e-07
0.00598039
-7.05855e-07
6.48642e-07
0.00598041
-7.54236e-07
7.2848e-07
0.00598042
-7.09024e-07
7.01247e-07
0.00598042
-5.64629e-07
5.65583e-07
0.00598041
-4.80746e-07
4.86127e-07
-2.68957e-07
2.71016e-07
0.0107194
-0.000208428
0.0107565
-0.000343805
0.0108172
-0.000429887
0.0109312
-0.000589928
0.0110489
-0.000773796
0.0111016
-0.000972594
0.0111015
-0.00134779
0.0109995
-0.00167973
0.010782
-0.00203451
0.0104767
-0.00248979
0.0100334
-0.00269424
0.00943034
-0.00268133
0.00872163
-0.00246957
0.00789187
-0.00196721
0.00697254
-0.00138629
0.00612294
-0.0006842
0.00542158
0.000181908
0.00485803
0.000784091
0.00448474
0.000858693
0.00433563
0.000662209
0.00439967
0.000495434
0.00460864
0.000440228
0.00487621
0.000441784
0.00513809
0.000436254
0.00536132
0.000398805
0.00553631
0.000334982
0.00566609
0.000260752
0.00575868
0.00019008
0.00582287
0.000130901
0.00586641
8.56817e-05
0.00589542
5.34598e-05
0.00591447
3.17506e-05
0.0059268
1.78025e-05
0.00593468
9.219e-06
0.00593964
4.16641e-06
0.00594269
1.35961e-06
0.0059445
-8.20783e-08
0.00594558
-8.09201e-07
0.0059462
-1.04075e-06
0.00594653
-1.04137e-06
0.0059467
-9.17036e-07
0.00594676
-7.75304e-07
0.00594678
-5.8325e-07
0.00594677
-4.74438e-07
-2.62726e-07
0.0107088
-0.000281063
0.0107471
-0.000382156
0.0107784
-0.000461174
0.0107985
-0.000610005
0.0107779
-0.000753215
0.0106997
-0.000894367
0.0105304
-0.00117853
0.0103025
-0.00145177
0.0100342
-0.0017662
0.00962649
-0.00208211
0.00905164
-0.00211939
0.00834776
-0.00197745
0.00754803
-0.00166984
0.00669735
-0.00111653
0.00586874
-0.000557673
0.00523694
-5.24035e-05
0.00495171
0.00046714
0.00493612
0.000799686
0.00498442
0.000810387
0.00498735
0.000659281
0.0049696
0.000513185
0.00498678
0.000423046
0.00505871
0.000369858
0.0051705
0.000324458
0.00529606
0.000273243
0.00541433
0.000216714
0.00551384
0.00016124
0.00559113
0.000112792
0.00564762
7.44131e-05
0.00568695
4.63501e-05
0.00571326
2.71503e-05
0.00573026
1.47491e-05
0.00574091
7.15489e-06
0.00574738
2.7487e-06
0.00575121
3.40477e-07
0.00575335
-7.86947e-07
0.00575451
-1.24252e-06
0.00575504
-1.33377e-06
0.00575524
-1.23679e-06
0.00575526
-1.06137e-06
0.00575519
-8.55178e-07
0.0057551
-6.78611e-07
0.005755
-4.90902e-07
0.00575491
-3.85094e-07
-2.11815e-07
0.0104851
-0.000299198
0.0104516
-0.000348637
0.0103804
-0.000390024
0.0102498
-0.000479404
0.0100324
-0.000535805
0.00977316
-0.000635113
0.00937465
-0.000780021
0.00883649
-0.000913603
0.00827793
-0.00120765
0.00758004
-0.00138423
0.0066054
-0.00114475
0.00538464
-0.000756685
0.00411713
-0.000402327
0.00314471
-0.000144117
0.00255782
2.92168e-05
0.00232655
0.000178871
0.00245417
0.000339521
0.00281545
0.000438399
0.00319258
0.00043326
0.00349042
0.00036144
0.0037203
0.000283308
0.00392062
0.000222721
0.00411306
0.000177419
0.00429722
0.000140299
0.00446309
0.00010737
0.00460177
7.80416e-05
0.00470972
5.32899e-05
0.00478857
3.39356e-05
0.00484304
1.9942e-05
0.00487884
1.05519e-05
0.00490131
4.68734e-06
0.00491475
1.30051e-06
0.0049224
-4.91432e-07
0.00492647
-1.32017e-06
0.00492838
-1.56829e-06
0.00492911
-1.51588e-06
0.0049292
-1.33299e-06
0.00492897
-1.10965e-06
0.00492863
-8.89397e-07
0.00492826
-6.91138e-07
0.00492792
-5.20341e-07
0.00492763
-3.88662e-07
0.00492741
-2.71371e-07
0.00492723
-2.02719e-07
-1.07196e-07
0.00861181
0.00826317
0.00787315
0.00739374
0.00685794
0.00622283
0.0054428
0.0045292
0.00332155
0.00193733
0.000792576
3.58917e-05
-0.000366435
-0.000510552
-0.000481335
-0.000302465
3.70558e-05
0.000475455
0.000908714
0.00127015
0.00155346
0.00177618
0.0019536
0.0020939
0.00220127
0.00227931
0.0023326
0.00236654
0.00238648
0.00239703
0.00240172
0.00240302
0.00240253
0.00240121
0.00239964
0.00239812
0.00239679
0.00239568
0.00239479
0.0023941
0.00239358
0.00239319
0.00239292
0.00239272
-8.42299e-05
8.42299e-05
-0.000363852
0.000279623
-0.00105629
0.000692434
-0.00207238
0.0010161
-0.00313703
0.00106465
-0.00402521
0.000888179
-0.00463243
0.000607219
-0.00488613
0.000253697
-0.00476383
-0.000122293
-0.0042895
-0.000474329
-0.00349261
-0.000796895
-0.00244351
-0.0010491
-0.00121922
-0.00122428
8.40674e-05
-0.00130329
0.00135642
-0.00127236
0.00246675
-0.00111033
0.00329418
-0.000827426
0.00376548
-0.000471307
0.00387979
-0.000114308
0.00373397
0.000145822
0.00345316
0.000280808
0.00315047
0.000302694
0.0028913
0.000259171
0.00269701
0.000194289
0.00256419
0.000132818
0.0024797
8.44879e-05
0.00242923
5.04687e-05
0.002401
2.82347e-05
0.00238651
1.4488e-05
0.00238012
6.39306e-06
0.00237824
1.87831e-06
0.00237871
-4.69797e-07
0.00238029
-1.5769e-06
0.00238222
-1.93688e-06
0.00238414
-1.91467e-06
0.00238585
-1.70834e-06
0.00238729
-1.43857e-06
0.00238845
-1.16768e-06
0.00238937
-9.19498e-07
0.00239008
-7.07639e-07
0.00239061
-5.30005e-07
0.002391
-3.93525e-07
0.00239128
-2.73902e-07
0.00239148
-2.03839e-07
-1.07311e-07
-0.000471899
0.000556129
-0.0011481
0.000955827
-0.00184112
0.00138545
-0.00243338
0.00160836
-0.00290903
0.0015403
-0.00322155
0.0012007
-0.00333134
0.000717013
-0.00320149
0.000123842
-0.00284769
-0.000476096
-0.00222782
-0.0010942
-0.00136351
-0.0016612
-0.000319288
-0.00209332
0.000805982
-0.00234955
0.00199556
-0.00249287
0.00315642
-0.00243321
0.00418047
-0.00213438
0.00503272
-0.00167968
0.00568352
-0.00112211
0.00607878
-0.00050956
0.00619463
2.99657e-05
0.00609756
0.000377875
0.0058929
0.000507358
0.00566487
0.000487198
0.00546038
0.000398779
0.00529666
0.000296541
0.00517427
0.000206876
0.00508686
0.000137877
0.00502656
8.85429e-05
0.0049862
5.48455e-05
0.00496002
3.25715e-05
0.00494362
1.82741e-05
0.00493379
9.36626e-06
0.00492819
4.01951e-06
0.00492528
9.77849e-07
0.00492398
-6.17605e-07
0.00492359
-1.31776e-06
0.00492369
-1.53721e-06
0.00492402
-1.4977e-06
0.00492442
-1.32533e-06
0.00492482
-1.10827e-06
0.00492518
-8.8305e-07
0.00492548
-6.93135e-07
0.0049257
-4.97954e-07
0.00492589
-3.89364e-07
-2.13096e-07
-0.000377466
0.000933595
-0.000395786
0.000974147
-0.00034542
0.00133508
-0.00025605
0.00151899
-9.64823e-05
0.00138073
0.000107758
0.000996456
0.000379029
0.000445742
0.000736397
-0.000233527
0.00124092
-0.000980622
0.00186405
-0.00171732
0.00260199
-0.00239915
0.00340072
-0.00289205
0.00416802
-0.00311686
0.00488897
-0.00321382
0.0055542
-0.00309843
0.00606479
-0.00264497
0.00641315
-0.00202804
0.00669437
-0.00140333
0.00692093
-0.000736128
0.0070306
-7.9697e-05
0.00696942
0.000439049
0.0067942
0.00068258
0.00657752
0.000703879
0.00637264
0.000603658
0.00620286
0.000466324
0.00607177
0.000337963
0.00597441
0.000235239
0.0059038
0.000159149
0.00585358
0.000105063
0.00581858
6.75753e-05
0.00579473
4.21221e-05
0.00577888
2.52204e-05
0.00576862
1.42816e-05
0.00576216
7.43192e-06
0.00575823
3.3122e-06
0.00575594
9.715e-07
0.00575467
-2.65378e-07
0.00575405
-8.73187e-07
0.00575378
-1.06177e-06
0.00575372
-1.04433e-06
0.00575375
-9.17538e-07
0.00575384
-7.74123e-07
0.00575392
-5.80963e-07
0.005754
-4.73564e-07
-2.62294e-07
6.74972e-05
0.000866098
0.00056432
0.000477325
0.00118087
0.000718527
0.00188619
0.000813681
0.00261813
0.000648782
0.00327838
0.000336206
0.00390866
-0.000184533
0.00452165
-0.000846518
0.00510863
-0.0015676
0.00566274
-0.00227143
0.0061763
-0.00291271
0.0067044
-0.00342015
0.0071856
-0.00359806
0.00750824
-0.00353646
0.00771012
-0.00330032
0.00777983
-0.00271467
0.00766437
-0.00191258
0.00746296
-0.00120192
0.00732387
-0.000597033
0.00726103
-1.68622e-05
0.00718753
0.000512552
0.00705024
0.000819871
0.00685784
0.000896276
0.0066505
0.000811001
0.00646257
0.000654249
0.00631035
0.000490186
0.00619582
0.000349772
0.00611372
0.000241249
0.00605674
0.000162039
0.00601808
0.000106234
0.00599229
6.79146e-05
0.00597532
4.21924e-05
0.00596429
2.5309e-05
0.00595722
1.45023e-05
0.00595276
7.77342e-06
0.00595
3.7271e-06
0.00594835
1.38664e-06
0.00594738
1.02445e-07
0.00594682
-5.01938e-07
0.00594652
-7.46745e-07
0.00594638
-7.76163e-07
0.00594632
-7.19557e-07
0.00594631
-5.69208e-07
0.00594632
-4.83427e-07
-2.69983e-07
0.00105673
0.00180271
0.00275252
0.00380899
0.0048378
0.00579746
0.0066705
0.00740112
0.0080037
0.00851934
0.00887787
0.00907095
0.0091334
0.00901052
0.00870559
0.00828128
0.00774887
0.00719387
0.00675584
0.0065219
0.00646932
0.00647356
0.00645921
0.00640414
0.00632121
0.00623245
0.00615426
0.00609378
0.00605115
0.00602309
0.00600551
0.00599488
0.00598862
0.00598498
0.00598289
0.00598171
0.00598104
0.00598064
0.00598042
0.00598033
0.00598028
0.00598026
0.00598026
0.00598026
)
;

boundaryField
{
    inlet
    {
        type            calculated;
        value           nonuniform List<scalar> 5(-0.01 -0.01 -0.01 -0.01 -0.01);
    }
    outlet
    {
        type            calculated;
        value           nonuniform List<scalar> 10(0.00598041 0.00594677 0.00575486 0.00492712 0.00239261 0.00239159 0.00492599 0.00575405 0.00594633 0.00598026);
    }
    upperWall
    {
        type            calculated;
        value           uniform 0;
    }
    lowerWall
    {
        type            calculated;
        value           uniform 0;
    }
    frontAndBack
    {
        type            empty;
        value           nonuniform List<scalar> 0();
    }
}


// ************************************************************************* //
