/*--------------------------------*- C++ -*----------------------------------*\
  =========                 |
  \\      /  F ield         | OpenFOAM: The Open Source CFD Toolbox
   \\    /   O peration     | Website:  https://openfoam.org
    \\  /    A nd           | Version:  10
     \\/     M anipulation  |
\*---------------------------------------------------------------------------*/
FoamFile
{
    format      ascii;
    class       volVectorField;
    location    "6.925";
    object      U;
}
// * * * * * * * * * * * * * * * * * * * * * * * * * * * * * * * * * * * * * //

dimensions      [0 1 -1 0 0 0 0];

internalField   nonuniform List<vector> 
400
(
(-0.000123838 0.000112772 0)
(-0.000970424 0.00036598 0)
(-0.00240504 0.000456328 0)
(-0.0038553 0.000480858 0)
(-0.00533115 0.000488072 0)
(-0.00679286 0.000492452 0)
(-0.00822088 0.0004932 0)
(-0.00959073 0.000484867 0)
(-0.0108643 0.000460553 0)
(-0.0119878 0.000412436 0)
(-0.0128899 0.000332123 0)
(-0.0134817 0.000211751 0)
(-0.0136598 4.57948e-05 0)
(-0.0133132 -0.000170001 0)
(-0.0123422 -0.000426574 0)
(-0.0106837 -0.000701069 0)
(-0.00835633 -0.0009472 0)
(-0.00556043 -0.0010876 0)
(-0.00242673 -0.000999251 0)
(-0.00038301 -0.000441175 0)
(-0.000408813 0.000984239 0)
(-0.00217059 0.00207352 0)
(-0.00486384 0.00245735 0)
(-0.00757529 0.00254774 0)
(-0.0102977 0.00253676 0)
(-0.0129489 0.00248424 0)
(-0.0154783 0.0023924 0)
(-0.0178331 0.0022447 0)
(-0.019944 0.00201818 0)
(-0.0217224 0.00168665 0)
(-0.0230573 0.00122252 0)
(-0.0238168 0.000600092 0)
(-0.0238564 -0.000198767 0)
(-0.0230228 -0.00116741 0)
(-0.02118 -0.00226419 0)
(-0.0182529 -0.003394 0)
(-0.0142922 -0.00437818 0)
(-0.00960309 -0.00491779 0)
(-0.00440545 -0.00454845 0)
(-0.000836524 -0.00234524 0)
(-0.000529673 0.00253742 0)
(-0.002701 0.00482682 0)
(-0.00595375 0.0056137 0)
(-0.00920303 0.00577403 0)
(-0.0124452 0.00570092 0)
(-0.0155844 0.00551771 0)
(-0.0185626 0.00523459 0)
(-0.0213211 0.00482442 0)
(-0.0237848 0.00424637 0)
(-0.0258584 0.00345258 0)
(-0.0274235 0.00239258 0)
(-0.0283378 0.00102036 0)
(-0.0284302 -0.000693455 0)
(-0.0275122 -0.00273891 0)
(-0.0254111 -0.00503451 0)
(-0.022006 -0.00739074 0)
(-0.0173173 -0.00944598 0)
(-0.0116852 -0.0105806 0)
(-0.00535753 -0.00984188 0)
(-0.00100522 -0.00533103 0)
(-0.000567789 0.00418085 0)
(-0.0029111 0.00774829 0)
(-0.00641597 0.00894454 0)
(-0.00990431 0.00916331 0)
(-0.0133859 0.00901889 0)
(-0.0167653 0.00870153 0)
(-0.0199902 0.00822967 0)
(-0.0230088 0.00756589 0)
(-0.0257526 0.00665113 0)
(-0.0281306 0.0054132 0)
(-0.0300235 0.00377302 0)
(-0.0312772 0.00165595 0)
(-0.0316989 -0.000989363 0)
(-0.0310472 -0.00417421 0)
(-0.02906 -0.00779739 0)
(-0.0255089 -0.0115835 0)
(-0.0203104 -0.0149639 0)
(-0.0138119 -0.01691 0)
(-0.00627867 -0.0158269 0)
(-0.00111702 -0.00860703 0)
(-0.00057578 0.00590183 0)
(-0.00300531 0.0108256 0)
(-0.0066585 0.0124533 0)
(-0.0102952 0.012738 0)
(-0.0139402 0.0125324 0)
(-0.0175049 0.0120989 0)
(-0.0209503 0.0114661 0)
(-0.0242396 0.010587 0)
(-0.0273198 0.00938353 0)
(-0.0301133 0.00775528 0)
(-0.0325052 0.00558447 0)
(-0.0343307 0.0027486 0)
(-0.0353663 -0.000858303 0)
(-0.0352978 -0.00528804 0)
(-0.0337318 -0.0104657 0)
(-0.0302566 -0.0160477 0)
(-0.0245773 -0.0212228 0)
(-0.0169666 -0.0244061 0)
(-0.00765593 -0.0230633 0)
(-0.00126286 -0.012451 0)
(-0.00057607 0.00766112 0)
(-0.00307163 0.0140097 0)
(-0.00685244 0.0160951 0)
(-0.0106236 0.0164614 0)
(-0.0144248 0.0162171 0)
(-0.0181783 0.0157035 0)
(-0.0218637 0.0149627 0)
(-0.0254671 0.0139407 0)
(-0.0289606 0.0125405 0)
(-0.0322919 0.0106296 0)
(-0.035365 0.00804029 0)
(-0.0380181 0.00457672 0)
(-0.0399979 3.9284e-05 0)
(-0.040914 -0.00571453 0)
(-0.0402029 -0.0127174 0)
(-0.0371659 -0.0206196 0)
(-0.0311338 -0.0283511 0)
(-0.0220955 -0.0335679 0)
(-0.0100114 -0.0322537 0)
(-0.00151391 -0.0171823 0)
(-0.000574712 0.00945008 0)
(-0.00313721 0.0172919 0)
(-0.00705023 0.019864 0)
(-0.0109595 0.0203303 0)
(-0.0149207 0.0200744 0)
(-0.0188691 0.0195261 0)
(-0.0228087 0.0187469 0)
(-0.0267566 0.0176801 0)
(-0.0307228 0.0162133 0)
(-0.0346986 0.0141815 0)
(-0.0386336 0.0113593 0)
(-0.0423981 0.00745556 0)
(-0.0457288 0.00213228 0)
(-0.0481936 -0.00494157 0)
(-0.0490612 -0.0140224 0)
(-0.0472463 -0.0248955 0)
(-0.0414644 -0.0363384 0)
(-0.0309288 -0.0450903 0)
(-0.0145565 -0.0446482 0)
(-0.00208157 -0.0235113 0)
(-0.000572322 0.0112705 0)
(-0.00320746 0.0206799 0)
(-0.00726129 0.0237669 0)
(-0.0113091 0.024348 0)
(-0.0154236 0.0241053 0)
(-0.0195547 0.0235687 0)
(-0.0237358 0.0228281 0)
(-0.0280237 0.0218338 0)
(-0.032481 0.0204672 0)
(-0.037166 0.0185387 0)
(-0.04211 0.0157669 0)
(-0.0472696 0.0117531 0)
(-0.0524562 0.005965 0)
(-0.057288 -0.00223408 0)
(-0.0609414 -0.0133927 0)
(-0.0619702 -0.0278226 0)
(-0.0582121 -0.0445506 0)
(-0.0469728 -0.0596584 0)
(-0.0242775 -0.0624196 0)
(-0.00365046 -0.0331449 0)
(-0.000569506 0.0131249 0)
(-0.00328544 0.0241822 0)
(-0.00748799 0.0278067 0)
(-0.0116654 0.0285066 0)
(-0.0159088 0.0282911 0)
(-0.0201831 0.0278046 0)
(-0.0245537 0.0271775 0)
(-0.0291245 0.0263813 0)
(-0.0340248 0.0253104 0)
(-0.039407 0.0237729 0)
(-0.0454327 0.0214538 0)
(-0.0522372 0.0178608 0)
(-0.0598506 0.0122649 0)
(-0.0680541 0.00368621 0)
(-0.0763501 -0.00898605 0)
(-0.0833213 -0.0269269 0)
(-0.0854451 -0.0507718 0)
(-0.0755487 -0.0774271 0)
(-0.0441749 -0.0894822 0)
(-0.00778014 -0.0500081 0)
(-0.000569517 0.0150195 0)
(-0.00338147 0.0278094 0)
(-0.00774257 0.0319807 0)
(-0.0120309 0.0327835 0)
(-0.016359 0.0325883 0)
(-0.020705 0.0321709 0)
(-0.0251661 0.0317161 0)
(-0.0298948 0.0312358 0)
(-0.0350941 0.0306646 0)
(-0.0410312 0.02985 0)
(-0.048046 0.0285022 0)
(-0.0565457 0.0261156 0)
(-0.0669696 0.0218655 0)
(-0.0797485 0.0145159 0)
(-0.0952137 0.00224934 0)
(-0.112609 -0.0178594 0)
(-0.125797 -0.0509079 0)
(-0.118152 -0.0983758 0)
(-0.0758492 -0.13221 0)
(-0.0165793 -0.0818143 0)
(-0.000580638 0.0169711 0)
(-0.00352046 0.031581 0)
(-0.00805891 0.0362827 0)
(-0.0124323 0.0371409 0)
(-0.0167813 0.036926 0)
(-0.0210942 0.0365628 0)
(-0.0254955 0.0363043 0)
(-0.0301798 0.0362227 0)
(-0.0354155 0.036327 0)
(-0.0415811 0.0365603 0)
(-0.049212 0.0367546 0)
(-0.0590683 0.0365526 0)
(-0.0722183 0.0353061 0)
(-0.0901726 0.0319112 0)
(-0.114797 0.0239021 0)
(-0.145502 0.0040734 0)
(-0.16966 -0.0427956 0)
(-0.159437 -0.126152 0)
(-0.110245 -0.19481 0)
(-0.0322003 -0.136853 0)
(-0.00062047 0.0190208 0)
(-0.00375281 0.0355434 0)
(-0.00850641 0.0407261 0)
(-0.0129338 0.041548 0)
(-0.0172226 0.0412233 0)
(-0.0213681 0.0408453 0)
(-0.0255134 0.0407473 0)
(-0.0298768 0.0410774 0)
(-0.0347638 0.0419542 0)
(-0.0406246 0.0434852 0)
(-0.0481423 0.0457526 0)
(-0.0583702 0.0487857 0)
(-0.0729154 0.0524933 0)
(-0.094236 0.0561457 0)
(-0.125251 0.0555967 0)
(-0.16337 0.03499 0)
(-0.188537 -0.0340327 0)
(-0.171793 -0.162848 0)
(-0.132824 -0.266874 0)
(-0.0487253 -0.224005 0)
(-0.000719494 0.0212258 0)
(-0.00415582 0.0396949 0)
(-0.00919391 0.0452001 0)
(-0.0136525 0.0458228 0)
(-0.0177932 0.0452665 0)
(-0.0216142 0.0447744 0)
(-0.0252716 0.0447386 0)
(-0.0289793 0.0453881 0)
(-0.0330192 0.046966 0)
(-0.0378169 0.0497854 0)
(-0.0440458 0.0542756 0)
(-0.0527873 0.0610271 0)
(-0.0656982 0.0706583 0)
(-0.0848989 0.0821863 0)
(-0.112819 0.0879016 0)
(-0.144534 0.0624949 0)
(-0.161969 -0.0276694 0)
(-0.145481 -0.189381 0)
(-0.132517 -0.326463 0)
(-0.0504569 -0.331813 0)
(-0.000967639 0.0238712 0)
(-0.00495956 0.0445674 0)
(-0.0103632 0.0503347 0)
(-0.0147523 0.0505859 0)
(-0.0186005 0.0495048 0)
(-0.0219401 0.0485717 0)
(-0.0249069 0.0482761 0)
(-0.0276571 0.0489264 0)
(-0.030385 0.0508716 0)
(-0.033367 0.0546061 0)
(-0.0370324 0.06087 0)
(-0.0420214 0.0706745 0)
(-0.0493169 0.0850389 0)
(-0.0593908 0.101863 0)
(-0.0739578 0.110177 0)
(-0.0881815 0.0797207 0)
(-0.0967331 -0.0201012 0)
(-0.0877129 -0.19393 0)
(-0.103455 -0.361789 0)
(-0.0354752 -0.422027 0)
(-0.00133056 0.0271064 0)
(-0.00590259 0.0488547 0)
(-0.0119572 0.0539898 0)
(-0.016467 0.0532699 0)
(-0.020125 0.0516409 0)
(-0.0228744 0.0504505 0)
(-0.0249192 0.0500454 0)
(-0.0263915 0.0506538 0)
(-0.0273628 0.0526303 0)
(-0.0278686 0.0565401 0)
(-0.0279642 0.0632581 0)
(-0.0275296 0.0738368 0)
(-0.0267605 0.0892872 0)
(-0.0243034 0.106487 0)
(-0.0223934 0.114796 0)
(-0.0162056 0.0836522 0)
(-0.0196701 -0.0150171 0)
(-0.0188371 -0.177946 0)
(-0.0631718 -0.365493 0)
(-0.0181987 -0.477239 0)
(-0.00340556 0.0299908 0)
(-0.0103092 0.0569515 0)
(-0.0157521 0.0620194 0)
(-0.0193522 0.0607696 0)
(-0.0218591 0.0576334 0)
(-0.0236391 0.0549135 0)
(-0.024731 0.0530958 0)
(-0.0250565 0.0524465 0)
(-0.0244373 0.0532685 0)
(-0.0225874 0.0560222 0)
(-0.0191804 0.0614854 0)
(-0.0133207 0.0704421 0)
(-0.0050476 0.0836562 0)
(0.00871318 0.0980995 0)
(0.0236879 0.105227 0)
(0.043754 0.0785279 0)
(0.0448129 -0.00840682 0)
(0.0417145 -0.146043 0)
(-0.0309167 -0.34517 0)
(-0.000317577 -0.506084 0)
(-0.00108386 0.0438028 0)
(-0.00835765 0.0591344 0)
(-0.0188003 0.0603287 0)
(-0.0226734 0.0560072 0)
(-0.0258047 0.0528362 0)
(-0.027019 0.0506651 0)
(-0.0270418 0.0493177 0)
(-0.0258389 0.0487 0)
(-0.023267 0.0489931 0)
(-0.018906 0.0504783 0)
(-0.0122771 0.0538307 0)
(-0.00201408 0.0593791 0)
(0.0119506 0.0677524 0)
(0.0331763 0.0767781 0)
(0.05499 0.0798327 0)
(0.0842278 0.0596789 0)
(0.0857606 -0.00621881 0)
(0.0809831 -0.109259 0)
(-0.00125523 -0.314918 0)
(0.0234276 -0.513057 0)
(-0.0125022 0.0325212 0)
(-0.0239499 0.0799459 0)
(-0.023026 0.079247 0)
(-0.0287414 0.0741396 0)
(-0.0301367 0.0668124 0)
(-0.0297553 0.0606887 0)
(-0.0274088 0.0556906 0)
(-0.0233661 0.0517778 0)
(-0.0176946 0.0489483 0)
(-0.0100292 0.0470416 0)
(-0.000441722 0.0464512 0)
(0.012636 0.0471898 0)
(0.0285236 0.0500483 0)
(0.0509891 0.0531091 0)
(0.0710029 0.0549232 0)
(0.102491 0.0433839 0)
(0.102659 0.00403435 0)
(0.11735 -0.0700308 0)
(0.0482174 -0.281761 0)
(0.0589656 -0.497085 0)
(-0.077465 0.0963554 0)
(-0.0631849 0.0590812 0)
(-0.0656084 0.0598861 0)
(-0.0438779 0.0532153 0)
(-0.0266678 0.0462933 0)
(-0.00666578 0.0411455 0)
(0.0122097 0.0373874 0)
(0.0313376 0.0341954 0)
(0.0489979 0.0318594 0)
(0.0680054 0.0296479 0)
(0.0845225 0.0283937 0)
(0.105416 0.0274421 0)
(0.120631 0.0272115 0)
(0.149858 0.0274087 0)
(0.160664 0.023447 0)
(0.204324 0.0158877 0)
(0.196818 -0.018442 0)
(0.231025 -0.0775728 0)
(0.159318 -0.256405 0)
(0.126112 -0.437899 0)
(0.119573 0.140815 0)
(0.152321 0.0861955 0)
(0.228945 0.0635957 0)
(0.2844 0.0481167 0)
(0.325668 0.0374361 0)
(0.363959 0.0296517 0)
(0.392599 0.0241931 0)
(0.423743 0.0201508 0)
(0.443607 0.0172389 0)
(0.472218 0.0150087 0)
(0.484741 0.0132336 0)
(0.514528 0.0121531 0)
(0.519641 0.01094 0)
(0.553212 0.0102788 0)
(0.548449 0.00857699 0)
(0.583188 0.00418631 0)
(0.553488 -0.00502181 0)
(0.560331 -0.027648 0)
(0.424634 -0.0730885 0)
(0.276113 -0.151969 0)
)
;

boundaryField
{
    movingWall
    {
        type            fixedValue;
        value           uniform (1 0 0);
    }
    fixedWalls
    {
        type            noSlip;
    }
    frontAndBack
    {
        type            empty;
    }
}


// ************************************************************************* //
