/*--------------------------------*- C++ -*----------------------------------*\
  =========                 |
  \\      /  F ield         | OpenFOAM: The Open Source CFD Toolbox
   \\    /   O peration     | Website:  https://openfoam.org
    \\  /    A nd           | Version:  10
     \\/     M anipulation  |
\*---------------------------------------------------------------------------*/
FoamFile
{
    format      ascii;
    class       surfaceScalarField;
    location    "1.25";
    object      phi;
}
// * * * * * * * * * * * * * * * * * * * * * * * * * * * * * * * * * * * * * //

dimensions      [0 3 -1 0 0 0 0];

internalField   nonuniform List<scalar> 
760
(
-1.36592e-05
1.36592e-05
-3.07432e-05
1.7084e-05
-4.73438e-05
1.66006e-05
-6.27602e-05
1.54164e-05
-7.6598e-05
1.38378e-05
-8.85213e-05
1.19233e-05
-9.82425e-05
9.72119e-06
-0.000105525
7.28217e-06
-0.000110183
4.65819e-06
-0.000112085
1.90243e-06
-0.000111155
-9.29969e-07
-0.000107375
-3.78071e-06
-0.000100788
-6.58633e-06
-9.15102e-05
-9.27804e-06
-7.97291e-05
-1.17811e-05
-6.5713e-05
-1.40161e-05
-4.98114e-05
-1.59016e-05
-3.24681e-05
-1.73433e-05
-1.44814e-05
-1.79867e-05
-1.44814e-05
-1.77391e-05
3.13983e-05
-3.94216e-05
3.87665e-05
-6.04624e-05
3.76414e-05
-7.99867e-05
3.49407e-05
-9.74898e-05
3.13409e-05
-0.000112547
2.69807e-05
-0.0001248
2.19741e-05
-0.000133956
1.64382e-05
-0.00013979
1.04918e-05
-0.000142141
4.25412e-06
-0.000140924
-2.1477e-06
-0.000136114
-8.59083e-06
-0.000127771
-1.49287e-05
-0.000116039
-2.10102e-05
-0.000101152
-2.66681e-05
-8.34447e-05
-3.17234e-05
-6.33555e-05
-3.59908e-05
-4.14462e-05
-3.92526e-05
-1.87062e-05
-4.07267e-05
-3.31876e-05
-1.88485e-05
5.02468e-05
-4.1879e-05
6.1797e-05
-6.42011e-05
5.99634e-05
-8.48945e-05
5.56342e-05
-0.00010343
4.98766e-05
-0.000119367
4.29169e-05
-0.000132334
3.49413e-05
-0.000142033
2.61376e-05
-0.000148235
1.66935e-05
-0.000150778
6.79699e-06
-0.000149556
-3.36937e-06
-0.00014455
-1.3597e-05
-0.000135806
-2.36729e-05
-0.000123456
-3.33599e-05
-0.00010773
-4.23939e-05
-8.89653e-05
-5.04883e-05
-6.76149e-05
-5.73412e-05
-4.42719e-05
-6.25956e-05
-1.99917e-05
-6.50069e-05
-5.31793e-05
-2.01483e-05
7.03951e-05
-4.4774e-05
8.64228e-05
-6.86159e-05
8.38054e-05
-9.06904e-05
7.77086e-05
-0.00011044
6.96258e-05
-0.000127406
5.98837e-05
-0.000141214
4.87494e-05
-0.000151564
3.64869e-05
-0.000158224
2.33535e-05
-0.000161028
9.60131e-06
-0.000159867
-4.53084e-06
-0.000154697
-1.87669e-05
-0.000145546
-3.28232e-05
-0.000132525
-4.63816e-05
-0.000115841
-5.90778e-05
-9.58227e-05
-7.05063e-05
-7.29349e-05
-8.0229e-05
-4.78098e-05
-8.77208e-05
-2.1601e-05
-9.12157e-05
-7.47803e-05
-2.19611e-05
9.23562e-05
-4.87958e-05
0.000113257
-7.47347e-05
0.000109744
-9.87034e-05
0.000101677
-0.000120106
9.10279e-05
-0.000138467
7.82449e-05
-0.000153408
6.36905e-05
-0.000164633
4.77119e-05
-0.000171916
3.06363e-05
-0.000175089
1.27743e-05
-0.000174031
-5.58795e-06
-0.000168674
-2.41243e-05
-0.000159013
-4.24844e-05
-0.000145116
-6.02781e-05
-0.000127156
-7.70382e-05
-0.000105436
-9.22259e-05
-8.04276e-05
-0.000105238
-5.28128e-05
-0.000115336
-2.38881e-05
-0.00012014
-9.86684e-05
-2.43698e-05
0.000116726
-5.41244e-05
0.000143012
-8.28159e-05
0.000138436
-0.000109248
0.000128109
-0.000132778
0.000114558
-0.000152916
9.83833e-05
-0.000169291
8.0065e-05
-0.000181621
6.00428e-05
-0.000189698
3.87128e-05
-0.000193358
1.64345e-05
-0.000192471
-6.47461e-06
-0.00018693
-2.96657e-05
-0.000176682
-5.27326e-05
-0.000161731
-7.52293e-05
-0.000142181
-9.65879e-05
-0.000118287
-0.00011612
-9.05065e-05
-0.000133018
-5.95796e-05
-0.000146262
-2.69962e-05
-0.000152724
-0.000125665
-2.74708e-05
0.000144197
-6.09631e-05
0.000176504
-9.31422e-05
0.000170615
-0.000122654
0.000157621
-0.000148804
0.000140708
-0.000171101
0.00012068
-0.000189197
9.81611e-05
-0.000202852
7.36976e-05
-0.00021189
4.77508e-05
-0.000216168
2.07126e-05
-0.00021555
-7.09246e-06
-0.000209878
-3.53381e-05
-0.000199028
-6.35826e-05
-0.000182903
-9.13539e-05
-0.000161495
-0.000117996
-0.000134956
-0.000142658
-0.000103697
-0.000164278
-6.85035e-05
-0.000181456
-3.11201e-05
-0.000190107
-0.000156785
-3.1404e-05
0.000175601
-6.96001e-05
0.0002147
-0.000106105
0.00020712
-0.000139366
0.000190882
-0.000168639
0.000169981
-0.000193454
0.000145495
-0.000213527
0.000118234
-0.000228692
8.88635e-05
-0.000238844
5.79026e-05
-0.000243881
2.57489e-05
-0.000243672
-7.30129e-06
-0.000237995
-4.10145e-05
-0.000226626
-7.49522e-05
-0.000209315
-0.000108665
-0.000185867
-0.000141444
-0.000156254
-0.000172272
-0.000120755
-0.000199777
-8.01693e-05
-0.000222041
-3.65592e-05
-0.000233717
-0.000193344
-3.63777e-05
0.000211979
-8.04522e-05
0.000258775
-0.000122255
0.000248923
-0.000159986
0.000228614
-0.000192873
0.000202868
-0.000220514
0.000173135
-0.000242748
0.000140468
-0.000259549
0.000105665
-0.00027093
6.92828e-05
-0.000276866
3.16852e-05
-0.000277257
-6.90974e-06
-0.000271808
-4.64636e-05
-0.000260152
-8.66087e-05
-0.000241817
-0.000127
-0.000216318
-0.000166943
-0.000183303
-0.000205287
-0.000142783
-0.000240297
-9.54634e-05
-0.00026936
-4.37869e-05
-0.000285394
-0.000237131
-4.27099e-05
0.000254688
-9.41328e-05
0.000310198
-0.000142374
0.000297164
-0.00018534
0.00027158
-0.000222276
0.000239804
-0.000252941
0.0002038
-0.000277396
0.000164923
-0.000295844
0.000124113
-0.000308493
8.19318e-05
-0.000315455
3.86469e-05
-0.000316696
-5.66862e-06
-0.000311845
-5.13144e-05
-0.000300359
-9.8095e-05
-0.000281446
-0.000145913
-0.000254179
-0.000194209
-0.000217674
-0.000241793
-0.000171407
-0.000286564
-0.000115762
-0.000325005
-5.35834e-05
-0.000347572
-0.000290714
-5.09057e-05
0.000305594
-0.000111567
0.000370859
-0.000167596
0.000353193
-0.000216566
0.00032055
-0.000257857
0.000281095
-0.000291542
0.000237484
-0.000318058
0.00019144
-0.000337974
0.000144029
-0.000351802
9.57597e-05
-0.000359866
4.67107e-05
-0.000362264
-3.27028e-06
-0.000358559
-5.50198e-05
-0.000348013
-0.000108641
-0.000329412
-0.000164513
-0.000301172
-0.00022245
-0.000261555
-0.000281409
-0.000209067
-0.000339052
-0.000143264
-0.000390809
-6.73044e-05
-0.000423532
-0.000358019
-6.18021e-05
0.000367396
-0.000134187
0.000443244
-0.00019959
0.000418595
-0.000255253
0.000376213
-0.000300938
0.00032678
-0.00033729
0.000273836
-0.000365355
0.000219506
-0.000386257
0.00016493
-0.000400961
0.000110464
-0.000410099
5.58489e-05
-0.000414018
6.48455e-07
-0.000412205
-5.68322e-05
-0.000403779
-0.000117068
-0.000387022
-0.00018127
-0.000359457
-0.000250014
-0.000318002
-0.000322865
-0.000259483
-0.000397571
-0.000181597
-0.000468695
-8.74563e-05
-0.000517672
-0.000445475
-7.68581e-05
0.000444254
-0.000164271
0.000530657
-0.000240859
0.000495183
-0.000303639
0.000438993
-0.000353258
0.000376399
-0.000391342
0.000311921
-0.000419886
0.00024805
-0.000440835
0.000185879
-0.000455799
0.000125427
-0.000465876
6.59256e-05
-0.000471531
6.30325e-06
-0.000472637
-5.57256e-05
-0.000468026
-0.000121679
-0.000455508
-0.000193788
-0.000431567
-0.000273955
-0.000391222
-0.00036321
-0.000328394
-0.000460399
-0.000236949
-0.000560141
-0.000119043
-0.000635577
-0.000564518
-9.87843e-05
0.000543039
-0.000205566
0.000637439
-0.000295213
0.00058483
-0.000364886
0.000508666
-0.000417067
0.00042858
-0.000454996
0.000349849
-0.000482135
0.000275189
-0.000501557
0.000205301
-0.000515681
0.000139552
-0.000526201
7.64451e-05
-0.000533924
1.40267e-05
-0.000539064
-5.05861e-05
-0.000540485
-0.000120258
-0.000535691
-0.000198582
-0.000520162
-0.000289483
-0.00048666
-0.000396712
-0.000424724
-0.000522335
-0.000320244
-0.000664621
-0.000173565
-0.000782256
-0.000738083
-0.000132196
0.000675234
-0.000263943
0.000769186
-0.000368363
0.00068925
-0.000443396
0.000583699
-0.000495146
0.000480329
-0.00052959
0.000384294
-0.000552317
0.000297916
-0.000567803
0.000220787
-0.000579392
0.000151142
-0.000589431
8.64843e-05
-0.000599278
2.38734e-05
-0.000609584
-4.02803e-05
-0.000619668
-0.000110174
-0.000627238
-0.000191012
-0.000627343
-0.000289378
-0.000610611
-0.000413444
-0.000561476
-0.00057147
-0.000450505
-0.000775592
-0.000271846
-0.000960915
-0.00100993
-0.000195344
0.000870579
-0.000352816
0.000926658
-0.000470091
0.000806525
-0.000545201
0.000658809
-0.000590701
0.000525829
-0.00061621
0.000409803
-0.000630005
0.00031171
-0.000638115
0.000228897
-0.000644779
0.000157805
-0.000652911
9.46166e-05
-0.000664405
3.53677e-05
-0.00068063
-2.40562e-05
-0.000701838
-8.89654e-05
-0.000727002
-0.000165847
-0.000752315
-0.000264066
-0.000767232
-0.000398527
-0.000754463
-0.000584239
-0.000654684
-0.000875371
-0.000459731
-0.00115587
-0.00146966
-0.000256429
0.00112701
-0.000465893
0.00113612
-0.000605555
0.000946188
-0.000675834
0.000729088
-0.000705524
0.000555519
-0.000713341
0.000417621
-0.000711501
0.00030987
-0.000707464
0.00022486
-0.000705867
0.000156208
-0.000709757
9.85071e-05
-0.000721365
4.69754e-05
-0.000743039
-2.38184e-06
-0.000776181
-5.58244e-05
-0.000822372
-0.000119656
-0.000883138
-0.0002033
-0.000946876
-0.00033479
-0.00101425
-0.000516866
-0.000967078
-0.000922541
-0.000790127
-0.00133282
-0.00225979
-0.000570645
0.00169765
-0.000729961
0.00129544
-0.000808897
0.00102512
-0.000830298
0.000750488
-0.00081272
0.000537941
-0.000781792
0.000386693
-0.000750248
0.000278326
-0.000724321
0.000198933
-0.000707359
0.000139246
-0.000701488
9.26369e-05
-0.000708803
5.42898e-05
-0.000730968
1.97831e-05
-0.00077347
-1.33223e-05
-0.00084149
-5.16354e-05
-0.000945923
-9.88667e-05
-0.0010746
-0.00020611
-0.00123409
-0.000357384
-0.0012752
-0.000881428
-0.0010561
-0.00155191
-0.00331589
-0.000970773
0.00266843
-0.000905948
0.00123061
-0.000750747
0.000869922
-0.000568821
0.000568563
-0.000396021
0.000365142
-0.000253897
0.000244568
-0.000145582
0.000170012
-6.65961e-05
0.000119947
-1.20315e-05
8.46813e-05
2.1728e-05
5.88774e-05
3.70977e-05
3.89201e-05
3.48736e-05
2.20072e-05
1.51488e-05
6.40253e-06
-2.23053e-05
-1.41813e-05
-7.36899e-05
-4.74821e-05
-0.000156155
-0.000123644
-0.000213582
-0.000299957
-0.000356394
-0.000738616
-0.000275247
-0.00163306
-0.00359114
0.00266843
0.00389904
0.00476896
0.00533752
0.00570266
0.00594723
0.00611724
0.00623719
0.00632187
0.00638075
0.00641967
0.00644168
0.00644808
0.0064339
0.00638642
0.00626277
0.00596282
0.0052242
0.00359114
)
;

boundaryField
{
    movingWall
    {
        type            calculated;
        value           uniform 0;
    }
    fixedWalls
    {
        type            calculated;
        value           uniform 0;
    }
    frontAndBack
    {
        type            empty;
        value           nonuniform List<scalar> 0();
    }
}


// ************************************************************************* //
