/*--------------------------------*- C++ -*----------------------------------*\
  =========                 |
  \\      /  F ield         | OpenFOAM: The Open Source CFD Toolbox
   \\    /   O peration     | Website:  https://openfoam.org
    \\  /    A nd           | Version:  10
     \\/     M anipulation  |
\*---------------------------------------------------------------------------*/
FoamFile
{
    format      ascii;
    class       volVectorField;
    location    "2.325";
    object      U;
}
// * * * * * * * * * * * * * * * * * * * * * * * * * * * * * * * * * * * * * //

dimensions      [0 1 -1 0 0 0 0];

internalField   nonuniform List<vector> 
475
(
(0.975826 0.0137642 0)
(0.981025 0.00688373 0)
(0.947712 0.0335516 0)
(0.96584 -0.00216288 0)
(0.906637 0.0363768 0)
(0.999624 0.00637958 0)
(1.01619 0.0124252 0)
(1.01832 0.0220568 0)
(1.04704 0.00410108 0)
(1.05665 0.00601535 0)
(1.00126 -0.00200999 0)
(1.00708 -0.00448323 0)
(1.02333 0.00187987 0)
(1.04542 -0.0124657 0)
(1.05345 -0.019105 0)
(1.00072 -0.00941322 0)
(1.00775 -0.0213647 0)
(1.02214 -0.0228659 0)
(1.03724 -0.0213556 0)
(1.04366 -0.0259877 0)
(0.980731 -0.0100663 0)
(0.969165 -0.0180643 0)
(0.953338 -0.022723 0)
(0.930299 -0.023026 0)
(0.908261 -0.0222378 0)
(0.941128 -0.0180126 0)
(0.909673 -0.0187931 0)
(0.922309 -0.0219933 0)
(0.979082 -0.0430206 0)
(1.05895 -0.10521 0)
(1.10127 -0.206344 0)
(1.10733 -0.31637 0)
(1.10061 -0.39395 0)
(1.02562 -0.435408 0)
(0.907275 -0.406462 0)
(0.784207 -0.294174 0)
(0.650531 -0.184009 0)
(0.552544 -0.116142 0)
(0.517155 -0.0614914 0)
(0.523622 -0.00964365 0)
(0.544054 0.0280321 0)
(0.561472 0.045001 0)
(0.570447 0.0455577 0)
(0.572983 0.0381637 0)
(0.572563 0.0289976 0)
(0.571385 0.0209806 0)
(0.570353 0.0148782 0)
(0.569672 0.0105026 0)
(0.569293 0.00742834 0)
(0.569116 0.00527163 0)
(0.569055 0.00375007 0)
(0.569056 0.00266992 0)
(0.569085 0.00189995 0)
(0.569125 0.00135009 0)
(0.569163 0.000957347 0)
(0.569199 0.000677073 0)
(0.569226 0.00047738 0)
(0.56925 0.000335386 0)
(0.569265 0.000234683 0)
(0.569279 0.000163533 0)
(0.569287 0.000113391 0)
(0.569293 7.82588e-05 0)
(0.569299 5.38344e-05 0)
(0.5693 3.66706e-05 0)
(0.569305 2.53095e-05 0)
(0.569305 1.6951e-05 0)
(0.569306 1.20986e-05 0)
(0.569308 8.04619e-06 0)
(0.569308 6.49596e-06 0)
(0.569309 4.62385e-06 0)
(1.07211 -0.0103077 0)
(1.09268 -0.0140417 0)
(1.09784 -0.0148168 0)
(1.11612 -0.0449568 0)
(1.15782 -0.100291 0)
(1.15953 -0.171383 0)
(1.11297 -0.265153 0)
(1.0479 -0.33841 0)
(0.92784 -0.337618 0)
(0.781139 -0.257554 0)
(0.676224 -0.134951 0)
(0.599565 -0.0489731 0)
(0.535973 -0.0346725 0)
(0.49296 -0.0453148 0)
(0.47928 -0.0378048 0)
(0.489168 -0.0153936 0)
(0.507474 0.00520435 0)
(0.525082 0.0165015 0)
(0.538956 0.0195423 0)
(0.548633 0.0179824 0)
(0.55505 0.0147259 0)
(0.559285 0.011336 0)
(0.562118 0.0084394 0)
(0.564046 0.00617318 0)
(0.565378 0.00447446 0)
(0.566308 0.00322664 0)
(0.566959 0.00231834 0)
(0.567415 0.00165989 0)
(0.567734 0.0011838 0)
(0.567955 0.000840579 0)
(0.568112 0.000594269 0)
(0.568219 0.000418365 0)
(0.568297 0.000293225 0)
(0.568349 0.000204622 0)
(0.568389 0.000142067 0)
(0.568414 9.8141e-05 0)
(0.568433 6.74644e-05 0)
(0.568447 4.61421e-05 0)
(0.568455 3.13345e-05 0)
(0.568463 2.15252e-05 0)
(0.568466 1.42776e-05 0)
(0.56847 1.02608e-05 0)
(0.568473 6.75937e-06 0)
(0.568473 5.44219e-06 0)
(0.568475 3.95886e-06 0)
(1.06911 -0.0259975 0)
(1.08399 -0.0365664 0)
(1.08279 -0.0515238 0)
(1.0875 -0.0906634 0)
(1.09751 -0.128612 0)
(1.08594 -0.175118 0)
(1.04294 -0.240756 0)
(0.984998 -0.2605 0)
(0.906465 -0.228762 0)
(0.81347 -0.192374 0)
(0.764066 -0.137888 0)
(0.768155 -0.0692055 0)
(0.766026 -0.0285624 0)
(0.721488 -0.0176838 0)
(0.657128 -0.011067 0)
(0.605099 0.000282519 0)
(0.574676 0.0111812 0)
(0.559634 0.0169823 0)
(0.553585 0.0175505 0)
(0.552332 0.0152183 0)
(0.553116 0.0120331 0)
(0.554496 0.00905166 0)
(0.555884 0.00663227 0)
(0.557082 0.00479637 0)
(0.558054 0.00344668 0)
(0.558818 0.00246763 0)
(0.559408 0.00176106 0)
(0.55986 0.00125244 0)
(0.560203 0.000887459 0)
(0.56046 0.000626351 0)
(0.560653 0.000440108 0)
(0.560793 0.000307651 0)
(0.560898 0.000213859 0)
(0.56097 0.000147926 0)
(0.561025 0.000101539 0)
(0.561061 6.94042e-05 0)
(0.561088 4.7071e-05 0)
(0.561108 3.16532e-05 0)
(0.561119 2.1333e-05 0)
(0.56113 1.43221e-05 0)
(0.561135 9.29747e-06 0)
(0.56114 6.79722e-06 0)
(0.561143 4.25685e-06 0)
(0.561145 3.45436e-06 0)
(0.561147 2.69625e-06 0)
(1.04668 -0.0366911 0)
(1.04942 -0.0411925 0)
(1.04627 -0.0474443 0)
(1.03231 -0.0687105 0)
(1.01347 -0.0917219 0)
(0.979105 -0.117659 0)
(0.909186 -0.153389 0)
(0.825071 -0.171448 0)
(0.731859 -0.152497 0)
(0.622316 -0.116059 0)
(0.531184 -0.0755499 0)
(0.480634 -0.0254519 0)
(0.455959 0.025647 0)
(0.44159 0.0601622 0)
(0.435574 0.0688905 0)
(0.439049 0.0603859 0)
(0.449064 0.0461566 0)
(0.461727 0.0330034 0)
(0.474056 0.0230074 0)
(0.484431 0.015879 0)
(0.492431 0.0109032 0)
(0.4983 0.00747257 0)
(0.502496 0.00512339 0)
(0.50546 0.00351752 0)
(0.507545 0.00241868 0)
(0.509008 0.00166525 0)
(0.510034 0.00114749 0)
(0.510752 0.000790794 0)
(0.511254 0.000544829 0)
(0.511602 0.000374851 0)
(0.511846 0.00025732 0)
(0.512014 0.000175858 0)
(0.512133 0.000119492 0)
(0.512213 8.08962e-05 0)
(0.512271 5.39681e-05 0)
(0.512308 3.61016e-05 0)
(0.512336 2.36691e-05 0)
(0.512354 1.52264e-05 0)
(0.512365 1.02329e-05 0)
(0.512375 6.29598e-06 0)
(0.51238 3.9155e-06 0)
(0.512384 3.08396e-06 0)
(0.512387 1.57456e-06 0)
(0.512388 1.35724e-06 0)
(0.512391 1.3009e-06 0)
(0.87675 -0.0280552 0)
(0.839437 -0.026977 0)
(0.806935 -0.0314693 0)
(0.756107 -0.0459233 0)
(0.695041 -0.0470353 0)
(0.62103 -0.0675261 0)
(0.493592 -0.10007 0)
(0.350133 -0.0757103 0)
(0.245608 -0.0196143 0)
(0.177512 0.0104859 0)
(0.134884 0.0130522 0)
(0.116252 0.0089828 0)
(0.122076 0.00592329 0)
(0.146061 0.00223191 0)
(0.177139 -0.00141124 0)
(0.206604 -0.00320409 0)
(0.229975 -0.00305099 0)
(0.247087 -0.00202934 0)
(0.259301 -0.00103 0)
(0.267971 -0.000352537 0)
(0.274109 3.02737e-05 0)
(0.278443 0.000216 0)
(0.2815 0.000283929 0)
(0.283656 0.000286396 0)
(0.285176 0.000256098 0)
(0.286246 0.000212643 0)
(0.286998 0.000167253 0)
(0.287525 0.000125838 0)
(0.287893 9.11753e-05 0)
(0.288147 6.38969e-05 0)
(0.288323 4.3658e-05 0)
(0.288443 2.90727e-05 0)
(0.288524 1.88849e-05 0)
(0.288579 1.19158e-05 0)
(0.288616 7.1119e-06 0)
(0.288639 4.24321e-06 0)
(0.288655 2.11626e-06 0)
(0.288664 1.08771e-06 0)
(0.288671 5.43131e-07 0)
(0.288675 -1.2905e-07 0)
(0.288677 4.67163e-08 0)
(0.288679 -4.18222e-08 0)
(0.28868 -3.9579e-07 0)
(0.28868 -1.46757e-08 0)
(0.288681 1.60334e-07 0)
(-0.0194487 -0.0100581 0)
(-0.0735625 0.0118432 0)
(-0.170851 0.0450604 0)
(-0.30185 0.0631791 0)
(-0.412766 0.0502563 0)
(-0.46607 0.0236755 0)
(-0.454209 -0.0114722 0)
(-0.378966 -0.0440601 0)
(-0.251748 -0.0665294 0)
(-0.0980047 -0.0713553 0)
(0.0531465 -0.0607917 0)
(0.175815 -0.0414653 0)
(0.260725 -0.0217274 0)
(0.310174 -0.00647589 0)
(0.332953 0.00273692 0)
(0.338457 0.00668664 0)
(0.334726 0.00746018 0)
(0.327178 0.00672464 0)
(0.318865 0.00538619 0)
(0.311331 0.00401233 0)
(0.305165 0.00285992 0)
(0.300421 0.00198426 0)
(0.296915 0.00135505 0)
(0.294393 0.000917215 0)
(0.292611 0.000617346 0)
(0.291367 0.000413355 0)
(0.290507 0.000275255 0)
(0.289915 0.000182513 0)
(0.28951 0.00012044 0)
(0.289233 7.89666e-05 0)
(0.289046 5.11878e-05 0)
(0.288919 3.27495e-05 0)
(0.288834 2.05457e-05 0)
(0.288778 1.25715e-05 0)
(0.288741 7.60193e-06 0)
(0.288716 4.24546e-06 0)
(0.288701 2.46761e-06 0)
(0.28869 1.17894e-06 0)
(0.288684 3.21807e-07 0)
(0.28868 2.52476e-07 0)
(0.288677 -3.08058e-07 0)
(0.288677 -3.07742e-07 0)
(0.288675 8.1828e-09 0)
(0.288675 -7.43641e-08 0)
(0.288674 6.64285e-08 0)
(-0.0217186 0.113319 0)
(-0.0962662 0.143301 0)
(-0.207584 0.178638 0)
(-0.311473 0.172875 0)
(-0.381934 0.118625 0)
(-0.390011 0.0323997 0)
(-0.352374 -0.0718386 0)
(-0.260588 -0.171077 0)
(-0.126569 -0.233982 0)
(0.0296013 -0.248109 0)
(0.185174 -0.219271 0)
(0.316263 -0.164557 0)
(0.410075 -0.107467 0)
(0.468984 -0.0607149 0)
(0.502955 -0.0275987 0)
(0.52112 -0.00681237 0)
(0.529854 0.00471219 0)
(0.532575 0.00964705 0)
(0.531698 0.0107203 0)
(0.529123 0.00982795 0)
(0.526027 0.00813886 0)
(0.523043 0.00632635 0)
(0.520461 0.00471563 0)
(0.51837 0.0034173 0)
(0.516747 0.00243029 0)
(0.515525 0.00170714 0)
(0.514624 0.0011894 0)
(0.513971 0.000823748 0)
(0.513502 0.000567563 0)
(0.513167 0.000389376 0)
(0.512931 0.000265858 0)
(0.512763 0.0001807 0)
(0.512648 0.000122244 0)
(0.512565 8.20071e-05 0)
(0.51251 5.50405e-05 0)
(0.51247 3.62775e-05 0)
(0.512444 2.3916e-05 0)
(0.512426 1.58446e-05 0)
(0.512413 9.70614e-06 0)
(0.512405 6.63141e-06 0)
(0.512399 4.13143e-06 0)
(0.512395 2.40641e-06 0)
(0.512392 1.82655e-06 0)
(0.512391 1.57623e-06 0)
(0.512389 1.23199e-06 0)
(0.0136192 0.0951663 0)
(-0.0254309 0.162501 0)
(-0.0773464 0.220358 0)
(-0.106691 0.208251 0)
(-0.110969 0.130064 0)
(-0.0828222 0.00540777 0)
(-0.0292187 -0.143402 0)
(0.0601229 -0.284379 0)
(0.175425 -0.378823 0)
(0.285855 -0.402446 0)
(0.384869 -0.35744 0)
(0.474017 -0.264398 0)
(0.537147 -0.166333 0)
(0.567351 -0.0934015 0)
(0.575864 -0.0480067 0)
(0.576279 -0.020785 0)
(0.575108 -0.0046947 0)
(0.573973 0.00404967 0)
(0.572982 0.0079483 0)
(0.571666 0.00892301 0)
(0.570058 0.0083366 0)
(0.568399 0.00707767 0)
(0.566869 0.00566835 0)
(0.565559 0.00436934 0)
(0.564491 0.00328059 0)
(0.563647 0.00241761 0)
(0.562995 0.00175743 0)
(0.562499 0.0012637 0)
(0.562128 0.000900312 0)
(0.561852 0.00063644 0)
(0.561652 0.000446794 0)
(0.561505 0.00031174 0)
(0.561401 0.000216309 0)
(0.561324 0.00014914 0)
(0.561273 0.000102476 0)
(0.561234 6.98138e-05 0)
(0.561207 4.7334e-05 0)
(0.561189 3.21062e-05 0)
(0.561175 2.11465e-05 0)
(0.561167 1.44214e-05 0)
(0.56116 9.47508e-06 0)
(0.561156 6.39116e-06 0)
(0.561153 4.34379e-06 0)
(0.561151 3.60221e-06 0)
(0.561148 2.66095e-06 0)
(0.0397695 0.156277 0)
(0.0768143 0.244669 0)
(0.128395 0.280624 0)
(0.187121 0.234697 0)
(0.253165 0.125478 0)
(0.334864 -0.0265986 0)
(0.422885 -0.194233 0)
(0.501636 -0.350477 0)
(0.571818 -0.457581 0)
(0.622047 -0.480776 0)
(0.640322 -0.432047 0)
(0.651526 -0.329805 0)
(0.668624 -0.20002 0)
(0.673343 -0.0913331 0)
(0.657787 -0.0290237 0)
(0.633146 -0.00205538 0)
(0.610952 0.00815215 0)
(0.595406 0.0122852 0)
(0.585805 0.0136385 0)
(0.58016 0.013233 0)
(0.576736 0.0117412 0)
(0.5745 0.00975931 0)
(0.572934 0.00773455 0)
(0.571783 0.00592209 0)
(0.570918 0.0044229 0)
(0.570268 0.00324484 0)
(0.569781 0.00235042 0)
(0.56942 0.00168714 0)
(0.569156 0.00120282 0)
(0.568963 0.000852829 0)
(0.568825 0.000601756 0)
(0.568723 0.000422729 0)
(0.568653 0.000295743 0)
(0.568599 0.000205957 0)
(0.568564 0.000142914 0)
(0.568537 9.86226e-05 0)
(0.568519 6.77005e-05 0)
(0.568506 4.6431e-05 0)
(0.568495 3.13263e-05 0)
(0.568491 2.15136e-05 0)
(0.568485 1.44007e-05 0)
(0.568482 1.0096e-05 0)
(0.56848 6.74549e-06 0)
(0.568479 5.52378e-06 0)
(0.568477 3.96182e-06 0)
(0.0919161 -0.0429923 0)
(0.135602 0.0555327 0)
(0.309268 0.0925662 0)
(0.453771 0.0713673 0)
(0.5867 -0.0165624 0)
(0.702363 -0.143581 0)
(0.799332 -0.277639 0)
(0.861449 -0.404831 0)
(0.866729 -0.500109 0)
(0.842719 -0.494148 0)
(0.79038 -0.403262 0)
(0.716446 -0.300073 0)
(0.66986 -0.192847 0)
(0.656797 -0.0879586 0)
(0.651469 -0.0129503 0)
(0.639902 0.0222241 0)
(0.622199 0.0304465 0)
(0.604231 0.0274292 0)
(0.590185 0.0220116 0)
(0.580928 0.0171585 0)
(0.575492 0.0133171 0)
(0.572555 0.0103086 0)
(0.571058 0.00792465 0)
(0.570317 0.00602958 0)
(0.569948 0.00453545 0)
(0.569753 0.00337329 0)
(0.569638 0.00248259 0)
(0.56956 0.00180979 0)
(0.569501 0.00130823 0)
(0.569454 0.000938657 0)
(0.569418 0.000669048 0)
(0.569388 0.000474075 0)
(0.569368 0.000334115 0)
(0.56935 0.000234219 0)
(0.56934 0.00016342 0)
(0.56933 0.000113391 0)
(0.569324 7.8264e-05 0)
(0.56932 5.38885e-05 0)
(0.569315 3.6659e-05 0)
(0.569315 2.5293e-05 0)
(0.569312 1.69902e-05 0)
(0.569311 1.20537e-05 0)
(0.569311 8.03666e-06 0)
(0.56931 6.52527e-06 0)
(0.569309 4.6308e-06 0)
)
;

boundaryField
{
    inlet
    {
        type            fixedValue;
        value           uniform (1 0 0);
    }
    outlet
    {
        type            zeroGradient;
    }
    upperWall
    {
        type            noSlip;
    }
    lowerWall
    {
        type            noSlip;
    }
    frontAndBack
    {
        type            empty;
    }
}


// ************************************************************************* //
