/*--------------------------------*- C++ -*----------------------------------*\
  =========                 |
  \\      /  F ield         | OpenFOAM: The Open Source CFD Toolbox
   \\    /   O peration     | Website:  https://openfoam.org
    \\  /    A nd           | Version:  10
     \\/     M anipulation  |
\*---------------------------------------------------------------------------*/
FoamFile
{
    format      ascii;
    class       surfaceScalarField;
    location    "0.05";
    object      phi;
}
// * * * * * * * * * * * * * * * * * * * * * * * * * * * * * * * * * * * * * //

dimensions      [0 3 -1 0 0 0 0];

internalField   nonuniform List<scalar> 
760
(
-1.06594e-06
1.06595e-06
-2.11598e-06
1.05003e-06
-3.11136e-06
9.95388e-07
-4.02697e-06
9.15601e-07
-4.84032e-06
8.13354e-07
-5.53212e-06
6.91799e-07
-6.0865e-06
5.54387e-07
-6.4912e-06
4.04693e-07
-6.73749e-06
2.46293e-07
-6.8202e-06
8.27072e-08
-6.73759e-06
-8.2604e-08
-6.49139e-06
-2.46201e-07
-6.08677e-06
-4.04619e-07
-5.53243e-06
-5.54338e-07
-4.84065e-06
-6.91781e-07
-4.02728e-06
-8.13369e-07
-3.11164e-06
-9.15646e-07
-2.11618e-06
-9.95461e-07
-1.06605e-06
-1.05013e-06
-1.06605e-06
-1.10531e-06
2.17125e-06
-2.19379e-06
2.13851e-06
-3.22513e-06
2.02673e-06
-4.17319e-06
1.86366e-06
-5.01474e-06
1.65491e-06
-5.72997e-06
1.40702e-06
-6.30271e-06
1.12713e-06
-6.72054e-06
8.22527e-07
-6.97472e-06
5.00472e-07
-7.06006e-06
1.68045e-07
-6.97483e-06
-1.67827e-07
-6.72076e-06
-5.00276e-07
-6.30301e-06
-8.2237e-07
-5.73032e-06
-1.12702e-06
-5.01512e-06
-1.40698e-06
-4.17355e-06
-1.65494e-06
-3.22543e-06
-1.86376e-06
-2.19401e-06
-2.02689e-06
-1.10542e-06
-2.13871e-06
-2.17148e-06
-1.16197e-06
3.33322e-06
-2.30564e-06
3.28218e-06
-3.38818e-06
3.10928e-06
-4.38194e-06
2.85742e-06
-5.26266e-06
2.53562e-06
-6.00993e-06
2.15429e-06
-6.6074e-06
1.7246e-06
-7.04272e-06
1.25784e-06
-7.30729e-06
7.65041e-07
-7.39607e-06
2.56833e-07
-7.30742e-06
-2.56481e-07
-7.04297e-06
-7.64722e-07
-6.60775e-06
-1.25759e-06
-6.01034e-06
-1.72444e-06
-5.2631e-06
-2.15423e-06
-4.38237e-06
-2.53567e-06
-3.38855e-06
-2.85758e-06
-2.3059e-06
-3.10953e-06
-1.16211e-06
-3.28251e-06
-3.33358e-06
-1.24962e-06
4.58285e-06
-2.47851e-06
4.51107e-06
-3.6398e-06
4.27057e-06
-4.70347e-06
3.92108e-06
-5.6437e-06
3.47585e-06
-6.43934e-06
2.94994e-06
-7.07391e-06
2.35917e-06
-7.53528e-06
1.71922e-06
-7.81527e-06
1.04503e-06
-7.90917e-06
3.5073e-07
-7.81544e-06
-3.50213e-07
-7.5356e-06
-1.04456e-06
-7.07435e-06
-1.71884e-06
-6.43986e-06
-2.35892e-06
-5.64425e-06
-2.94984e-06
-4.704e-06
-3.47592e-06
-3.64026e-06
-3.92132e-06
-2.47884e-06
-4.27095e-06
-1.2498e-06
-4.51155e-06
-4.58339e-06
-1.37172e-06
5.95457e-06
-2.71893e-06
5.85827e-06
-3.98892e-06
5.54056e-06
-5.14829e-06
5.08045e-06
-6.1692e-06
4.49677e-06
-7.02972e-06
3.81046e-06
-7.71352e-06
3.04297e-06
-8.20916e-06
2.21486e-06
-8.50929e-06
1.34516e-06
-8.60984e-06
4.51279e-07
-8.50951e-06
-4.50547e-07
-8.20957e-06
-1.3445e-06
-7.71409e-06
-2.21432e-06
-7.0304e-06
-3.04261e-06
-6.16992e-06
-3.81032e-06
-5.14898e-06
-4.49686e-06
-3.98952e-06
-5.08078e-06
-2.71937e-06
-5.5411e-06
-1.37195e-06
-5.85896e-06
-5.95534e-06
-1.53335e-06
7.48792e-06
-3.03649e-06
7.36141e-06
-4.44849e-06
6.95256e-06
-5.73139e-06
6.36335e-06
-6.85495e-06
5.62032e-06
-7.79671e-06
4.75222e-06
-8.54119e-06
3.78745e-06
-9.07849e-06
2.75216e-06
-9.40285e-06
1.66952e-06
-9.51135e-06
5.59784e-07
-9.40313e-06
-5.58772e-07
-9.07903e-06
-1.66859e-06
-8.54194e-06
-2.75141e-06
-7.79761e-06
-3.78694e-06
-6.85591e-06
-4.75202e-06
-5.73232e-06
-5.62045e-06
-4.4493e-06
-6.36381e-06
-3.03708e-06
-6.95331e-06
-1.53366e-06
-7.36238e-06
-7.48901e-06
-1.74195e-06
9.22987e-06
-3.44504e-06
9.0645e-06
-5.03691e-06
8.54442e-06
-6.4736e-06
7.80004e-06
-7.7223e-06
6.86902e-06
-8.76085e-06
5.79077e-06
-9.57595e-06
4.60255e-06
-1.01607e-05
3.33693e-06
-1.05122e-05
2.02103e-06
-1.06296e-05
6.77133e-07
-1.05126e-05
-6.75752e-07
-1.01614e-05
-2.01976e-06
-9.57695e-06
-3.33589e-06
-8.76205e-06
-4.60184e-06
-7.72359e-06
-5.79047e-06
-6.47486e-06
-6.86918e-06
-5.03801e-06
-7.80066e-06
-3.44586e-06
-8.54546e-06
-1.74238e-06
-9.06586e-06
-9.23139e-06
-2.00839e-06
1.12383e-05
-3.96456e-06
1.10207e-05
-5.78014e-06
1.036e-05
-7.40347e-06
9.42338e-06
-8.79955e-06
8.26509e-06
-9.94828e-06
6.93951e-06
-1.0841e-05
5.49525e-06
-1.14762e-05
3.97213e-06
-1.18558e-05
2.40064e-06
-1.19822e-05
8.03505e-07
-1.18563e-05
-8.01639e-07
-1.14771e-05
-2.39892e-06
-1.08423e-05
-3.97071e-06
-9.94988e-06
-5.49426e-06
-8.80129e-06
-6.93906e-06
-7.4052e-06
-8.26527e-06
-5.78165e-06
-9.4242e-06
-3.96569e-06
-1.03614e-05
-2.009e-06
-1.10226e-05
-1.12404e-05
-2.34882e-06
1.35871e-05
-4.62417e-06
1.3296e-05
-6.715e-06
1.24508e-05
-8.56012e-06
1.12685e-05
-1.01238e-05
9.82879e-06
-1.13916e-05
8.20727e-06
-1.23635e-05
6.46715e-06
-1.30473e-05
4.65593e-06
-1.34527e-05
2.80603e-06
-1.35871e-05
9.37935e-07
-1.34533e-05
-9.35432e-07
-1.30485e-05
-2.80372e-06
-1.23652e-05
-4.65399e-06
-1.13937e-05
-6.46577e-06
-1.01262e-05
-8.20661e-06
-8.56248e-06
-9.82897e-06
-6.71711e-06
-1.12696e-05
-4.62576e-06
-1.24528e-05
-2.34968e-06
-1.32986e-05
-1.35901e-05
-2.78796e-06
1.6375e-05
-5.46737e-06
1.59754e-05
-7.89459e-06
1.4878e-05
-9.99747e-06
1.33714e-05
-1.17436e-05
1.15749e-05
-1.31306e-05
9.59426e-06
-1.41741e-05
7.51064e-06
-1.48969e-05
5.37872e-06
-1.53206e-05
3.2298e-06
-1.54604e-05
1.07769e-06
-1.53215e-05
-1.07437e-06
-1.48985e-05
-3.2267e-06
-1.41764e-05
-5.37608e-06
-1.31335e-05
-7.5087e-06
-1.17468e-05
-9.59325e-06
-1.00007e-05
-1.1575e-05
-7.89755e-06
-1.33728e-05
-5.46964e-06
-1.48807e-05
-2.78919e-06
-1.59791e-05
-1.63793e-05
-3.36504e-06
1.97401e-05
-6.56098e-06
1.91714e-05
-9.39687e-06
1.77139e-05
-1.17905e-05
1.5765e-05
-1.37221e-05
1.35064e-05
-1.5213e-05
1.10852e-05
-1.63055e-05
8.60312e-06
-1.70457e-05
6.11893e-06
-1.74728e-05
3.65695e-06
-1.76126e-05
1.21747e-06
-1.74739e-05
-1.2131e-06
-1.70478e-05
-3.65284e-06
-1.63085e-05
-6.11536e-06
-1.52168e-05
-8.60038e-06
-1.37264e-05
-1.10836e-05
-1.17951e-05
-1.35064e-05
-9.40107e-06
-1.57668e-05
-6.56427e-06
-1.77175e-05
-3.36686e-06
-1.91765e-05
-1.97461e-05
-4.14541e-06
2.38855e-05
-8.01106e-06
2.3037e-05
-1.13386e-05
2.10415e-05
-1.40443e-05
1.84708e-05
-1.61407e-05
1.56028e-05
-1.7694e-05
1.26385e-05
-1.87894e-05
9.69853e-06
-1.95078e-05
6.83739e-06
-1.99127e-05
4.06186e-06
-2.00437e-05
1.34841e-06
-1.9914e-05
-1.34274e-06
-1.95104e-05
-4.05646e-06
-1.87932e-05
-6.83256e-06
-1.76989e-05
-9.69466e-06
-1.61465e-05
-1.26361e-05
-1.40506e-05
-1.56023e-05
-1.13446e-05
-1.84727e-05
-8.01592e-06
-2.10462e-05
-4.14817e-06
-2.30442e-05
-2.38943e-05
-5.24407e-06
2.91296e-05
-9.99182e-06
2.77848e-05
-1.38976e-05
2.49473e-05
-1.69057e-05
2.14788e-05
-1.91022e-05
1.77992e-05
-2.06329e-05
1.41693e-05
-2.16505e-05
1.07161e-05
-2.2284e-05
7.47085e-06
-2.26271e-05
4.40501e-06
-2.27359e-05
1.45716e-06
-2.26287e-05
-1.44991e-06
-2.22872e-05
-4.39801e-06
-2.16553e-05
-7.4644e-06
-2.06393e-05
-1.07107e-05
-1.91099e-05
-1.41655e-05
-1.69144e-05
-1.77979e-05
-1.39063e-05
-2.14808e-05
-9.99918e-06
-2.49533e-05
-5.24843e-06
-2.7795e-05
-2.91427e-05
-6.87708e-06
3.60066e-05
-1.2799e-05
3.37067e-05
-1.73474e-05
2.94956e-05
-2.05773e-05
2.47088e-05
-2.2729e-05
1.99509e-05
-2.40854e-05
1.55257e-05
-2.48964e-05
1.15272e-05
-2.53512e-05
7.92562e-06
-2.55767e-05
4.63051e-06
-2.56448e-05
1.52522e-06
-2.55785e-05
-1.51615e-06
-2.5355e-05
-4.6216e-06
-2.49022e-05
-7.9171e-06
-2.40934e-05
-1.15195e-05
-2.27392e-05
-1.55197e-05
-2.05893e-05
-1.99477e-05
-1.73601e-05
-2.471e-05
-1.28105e-05
-2.9503e-05
-6.88434e-06
-3.37211e-05
-3.60271e-05
-9.47977e-06
4.54864e-05
-1.69485e-05
4.11755e-05
-2.21068e-05
3.46539e-05
-2.53253e-05
2.79273e-05
-2.7151e-05
2.17766e-05
-2.80845e-05
1.64592e-05
-2.85001e-05
1.19428e-05
-2.86491e-05
8.07458e-06
-2.8685e-05
4.66639e-06
-2.86891e-05
1.52938e-06
-2.86869e-05
-1.51835e-06
-2.86532e-05
-4.65531e-06
-2.85068e-05
-8.06354e-06
-2.80941e-05
-1.19322e-05
-2.7164e-05
-1.64498e-05
-2.53417e-05
-2.177e-05
-2.21255e-05
-2.79262e-05
-1.69668e-05
-3.46616e-05
-9.49267e-06
-4.11953e-05
-4.55197e-05
-1.39894e-05
5.94758e-05
-2.33549e-05
5.0541e-05
-2.87975e-05
4.00965e-05
-3.14648e-05
3.05946e-05
-3.24684e-05
2.27801e-05
-3.26048e-05
1.65956e-05
-3.23733e-05
1.17113e-05
-3.20621e-05
7.76346e-06
-3.18268e-05
4.43105e-06
-3.17417e-05
1.44425e-06
-3.18287e-05
-1.43129e-06
-3.20663e-05
-4.41773e-06
-3.23803e-05
-7.74953e-06
-3.26157e-05
-1.16968e-05
-3.24842e-05
-1.65812e-05
-3.14866e-05
-2.27677e-05
-2.88249e-05
-3.05879e-05
-2.33849e-05
-4.01016e-05
-1.40141e-05
-5.05661e-05
-5.95338e-05
-2.25401e-05
8.20159e-05
-3.36327e-05
6.16336e-05
-3.82551e-05
4.47189e-05
-3.9278e-05
3.16175e-05
-3.86637e-05
2.21658e-05
-3.75007e-05
1.54326e-05
-3.63315e-05
1.05421e-05
-3.54037e-05
6.83566e-06
-3.48216e-05
3.84898e-06
-3.46248e-05
1.24743e-06
-3.48232e-05
-1.23289e-06
-3.54073e-05
-3.83365e-06
-3.6338e-05
-6.81879e-06
-3.75118e-05
-1.05231e-05
-3.86816e-05
-1.54114e-05
-3.93054e-05
-2.21438e-05
-3.82943e-05
-3.1599e-05
-3.36825e-05
-4.47135e-05
-2.25916e-05
-6.1657e-05
-8.21254e-05
-4.0394e-05
0.00012241
-5.03952e-05
7.16348e-05
-5.1345e-05
4.56687e-05
-4.87632e-05
2.90357e-05
-4.54269e-05
1.88295e-05
-4.24132e-05
1.24189e-05
-4.00511e-05
8.18001e-06
-3.83968e-05
5.18141e-06
-3.74259e-05
2.87804e-06
-3.71067e-05
9.282e-07
-3.74267e-05
-9.12891e-07
-3.83988e-05
-2.86146e-06
-4.00555e-05
-5.16217e-06
-4.2422e-05
-8.15655e-06
-4.54438e-05
-1.23897e-05
-4.87938e-05
-1.87938e-05
-5.13966e-05
-2.89962e-05
-5.04703e-05
-4.56398e-05
-4.04898e-05
-7.16375e-05
-0.000122615
-7.24709e-05
0.000194881
-7.42582e-05
7.34221e-05
-6.60084e-05
3.74189e-05
-5.70156e-05
2.00428e-05
-4.98231e-05
1.16371e-05
-4.45782e-05
7.1739e-06
-4.09407e-05
4.54259e-06
-3.85734e-05
2.81402e-06
-3.72402e-05
1.54489e-06
-3.68087e-05
4.96669e-07
-3.72364e-05
-4.85188e-07
-3.85656e-05
-1.53224e-06
-4.09289e-05
-2.79885e-06
-4.45622e-05
-4.52329e-06
-4.9803e-05
-7.14879e-06
-5.6991e-05
-1.16058e-05
-6.59775e-05
-2.00097e-05
-7.41868e-05
-3.74305e-05
-7.23465e-05
-7.34778e-05
-0.000194962
0.000194881
0.000268303
0.000305722
0.000325765
0.000337402
0.000344576
0.000349118
0.000351932
0.000353477
0.000353974
0.000353489
0.000351956
0.000349158
0.000344634
0.000337486
0.00032588
0.00030587
0.000268439
0.000194962
)
;

boundaryField
{
    movingWall
    {
        type            calculated;
        value           uniform 0;
    }
    fixedWalls
    {
        type            calculated;
        value           uniform 0;
    }
    frontAndBack
    {
        type            empty;
        value           nonuniform List<scalar> 0();
    }
}


// ************************************************************************* //
