/*--------------------------------*- C++ -*----------------------------------*\
  =========                 |
  \\      /  F ield         | OpenFOAM: The Open Source CFD Toolbox
   \\    /   O peration     | Website:  https://openfoam.org
    \\  /    A nd           | Version:  10
     \\/     M anipulation  |
\*---------------------------------------------------------------------------*/
FoamFile
{
    format      ascii;
    class       volVectorField;
    location    "0.05";
    object      U;
}
// * * * * * * * * * * * * * * * * * * * * * * * * * * * * * * * * * * * * * //

dimensions      [0 1 -1 0 0 0 0];

internalField   nonuniform List<vector> 
400
(
(-2.66604e-05 2.66435e-05 0)
(-7.95742e-05 2.62447e-05 0)
(-0.00013072 2.48793e-05 0)
(-0.000178507 2.28855e-05 0)
(-0.000221742 2.03302e-05 0)
(-0.00025938 1.72921e-05 0)
(-0.000290542 1.38576e-05 0)
(-0.000314524 1.01159e-05 0)
(-0.000330802 6.15649e-06 0)
(-0.000339028 2.06739e-06 0)
(-0.000339031 -2.06489e-06 0)
(-0.000330809 -6.15428e-06 0)
(-0.000314535 -1.01141e-05 0)
(-0.000290556 -1.38564e-05 0)
(-0.000259396 -1.72916e-05 0)
(-0.000221758 -2.03304e-05 0)
(-0.000178522 -2.28865e-05 0)
(-0.000130731 -2.48811e-05 0)
(-7.95818e-05 -2.62471e-05 0)
(-2.66629e-05 -2.66463e-05 0)
(-2.76456e-05 8.09091e-05 0)
(-8.25073e-05 7.96903e-05 0)
(-0.000135515 7.55318e-05 0)
(-0.000185015 6.94631e-05 0)
(-0.000229768 6.16911e-05 0)
(-0.000268698 5.24583e-05 0)
(-0.000300905 4.20286e-05 0)
(-0.000325675 3.06741e-05 0)
(-0.000342479 1.86654e-05 0)
(-0.000350969 6.26753e-06 0)
(-0.000350972 -6.2596e-06 0)
(-0.000342488 -1.86582e-05 0)
(-0.000325688 -3.06684e-05 0)
(-0.000300921 -4.20249e-05 0)
(-0.000268716 -5.24569e-05 0)
(-0.000229786 -6.16922e-05 0)
(-0.000185032 -6.94667e-05 0)
(-0.000135528 -7.55376e-05 0)
(-8.25156e-05 -7.96978e-05 0)
(-2.76485e-05 -8.09173e-05 0)
(-2.90629e-05 0.000137572 0)
(-8.67223e-05 0.000135474 0)
(-0.000142391 0.000128361 0)
(-0.000194315 0.000117993 0)
(-0.000241189 0.000104734 0)
(-0.000281899 8.90098e-05 0)
(-0.000315526 7.12758e-05 0)
(-0.000341351 5.19971e-05 0)
(-0.000358852 3.16307e-05 0)
(-0.000367687 1.06196e-05 0)
(-0.000367691 -1.06054e-05 0)
(-0.000358862 -3.16179e-05 0)
(-0.000341367 -5.19868e-05 0)
(-0.000315545 -7.12691e-05 0)
(-0.000281921 -8.90073e-05 0)
(-0.000241211 -0.000104736 0)
(-0.000194334 -0.000117999 0)
(-0.000142407 -0.000128371 0)
(-8.67324e-05 -0.000135487 0)
(-2.90664e-05 -0.000137587 0)
(-3.12557e-05 0.000197844 0)
(-9.32392e-05 0.000194769 0)
(-0.000153009 0.00018444 0)
(-0.00020865 0.000169414 0)
(-0.000258761 0.000150246 0)
(-0.000302168 0.000127574 0)
(-0.000337931 0.000102071 0)
(-0.000365334 7.44102e-05 0)
(-0.000383871 4.52424e-05 0)
(-0.00039322 1.51861e-05 0)
(-0.000393224 -1.51641e-05 0)
(-0.000383883 -4.52225e-05 0)
(-0.000365353 -7.43942e-05 0)
(-0.000337955 -0.00010206 0)
(-0.000302195 -0.00012757 0)
(-0.000258788 -0.000150249 0)
(-0.000208675 -0.000169423 0)
(-0.000153029 -0.000184455 0)
(-9.3252e-05 -0.000194789 0)
(-3.12603e-05 -0.000197866 0)
(-3.43104e-05 0.000263357 0)
(-0.000102308 0.000259149 0)
(-0.000167755 0.000245202 0)
(-0.000228508 0.000224974 0)
(-0.000283029 0.000199263 0)
(-0.000330075 0.000168969 0)
(-0.00036869 0.000135024 0)
(-0.000398179 9.83321e-05 0)
(-0.000418076 5.97435e-05 0)
(-0.000428094 2.00466e-05 0)
(-0.000428099 -2.00151e-05 0)
(-0.000418092 -5.97148e-05 0)
(-0.000398204 -9.83089e-05 0)
(-0.000368721 -0.000135008 0)
(-0.00033011 -0.000168963 0)
(-0.000283065 -0.000199267 0)
(-0.000228541 -0.000224988 0)
(-0.000167781 -0.000245225 0)
(-0.000102325 -0.000259178 0)
(-3.43162e-05 -0.000263389 0)
(-3.83544e-05 0.000335958 0)
(-0.000114296 0.000330382 0)
(-0.000187196 0.00031223 0)
(-0.000254589 0.000286013 0)
(-0.000314765 0.000252863 0)
(-0.000366407 0.000214019 0)
(-0.000408568 0.000170726 0)
(-0.000440614 0.000124153 0)
(-0.000462157 7.53543e-05 0)
(-0.000472979 2.52725e-05 0)
(-0.000472986 -2.52288e-05 0)
(-0.000462177 -7.53145e-05 0)
(-0.000440647 -0.000124121 0)
(-0.000408609 -0.000170704 0)
(-0.000366453 -0.00021401 0)
(-0.000314812 -0.000252868 0)
(-0.000254633 -0.000286033 0)
(-0.000187231 -0.000312262 0)
(-0.000114319 -0.000330423 0)
(-3.83621e-05 -0.000336004 0)
(-4.35742e-05 0.000417809 0)
(-0.000129738 0.000410506 0)
(-0.000212139 0.000387302 0)
(-0.000287876 0.000353985 0)
(-0.000355024 0.000312158 0)
(-0.000412212 0.00026352 0)
(-0.000458555 0.000209712 0)
(-0.000493551 0.000152203 0)
(-0.000516956 9.22507e-05 0)
(-0.000528677 3.09188e-05 0)
(-0.000528686 -3.08589e-05 0)
(-0.000516984 -9.21959e-05 0)
(-0.000493594 -0.000152159 0)
(-0.00045861 -0.000209682 0)
(-0.000412274 -0.000263507 0)
(-0.000355088 -0.000312164 0)
(-0.000287935 -0.000354012 0)
(-0.000212186 -0.000387346 0)
(-0.000129769 -0.000410564 0)
(-4.35849e-05 -0.000417873 0)
(-5.02427e-05 0.000511525 0)
(-0.000149407 0.000501947 0)
(-0.000243735 0.000472458 0)
(-0.000329733 0.000430467 0)
(-0.00040523 0.000378267 0)
(-0.000468852 0.000318199 0)
(-0.000519884 0.000252408 0)
(-0.000558076 0.000182704 0)
(-0.000583441 0.00011053 0)
(-0.000596088 3.70124e-05 0)
(-0.0005961 -3.6931e-05 0)
(-0.000583477 -0.000110455 0)
(-0.000558133 -0.000182642 0)
(-0.000519957 -0.000252365 0)
(-0.000468936 -0.000318179 0)
(-0.000405317 -0.000378275 0)
(-0.000329814 -0.000430502 0)
(-0.000243801 -0.000472518 0)
(-0.00014945 -0.000502027 0)
(-5.02577e-05 -0.000511615 0)
(-5.87657e-05 0.000620396 0)
(-0.000174441 0.000607681 0)
(-0.000283641 0.000570081 0)
(-0.000382067 0.000517159 0)
(-0.000467292 0.000452255 0)
(-0.000538071 0.000378612 0)
(-0.00059405 0.000299027 0)
(-0.000635429 0.000215684 0)
(-0.000662648 0.000130158 0)
(-0.000676138 4.35337e-05 0)
(-0.000676154 -4.34241e-05 0)
(-0.000662695 -0.000130057 0)
(-0.000635503 -0.000215599 0)
(-0.000594147 -0.000298967 0)
(-0.000538184 -0.000378584 0)
(-0.000467411 -0.000452263 0)
(-0.000382179 -0.000517206 0)
(-0.000283733 -0.000570165 0)
(-0.000174502 -0.000607792 0)
(-5.8787e-05 -0.000620523 0)
(-6.97653e-05 0.000748729 0)
(-0.000206556 0.000731475 0)
(-0.000334284 0.000682989 0)
(-0.00044756 0.000615842 0)
(-0.000543777 0.000535001 0)
(-0.00062208 0.000444989 0)
(-0.000682813 0.000349421 0)
(-0.000726945 0.000250856 0)
(-0.000755591 0.000150892 0)
(-0.00076967 5.039e-05 0)
(-0.000769691 -5.02438e-05 0)
(-0.000755652 -0.000150756 0)
(-0.000727043 -0.000250741 0)
(-0.000682942 -0.000349337 0)
(-0.000622232 -0.000444947 0)
(-0.000543939 -0.000535008 0)
(-0.000447716 -0.000615903 0)
(-0.000334415 -0.000683102 0)
(-0.000206643 -0.000731631 0)
(-6.97961e-05 -0.000748907 0)
(-8.42327e-05 0.000902417 0)
(-0.000248427 0.000878253 0)
(-0.000399307 0.000814515 0)
(-0.000530055 0.000728246 0)
(-0.000638145 0.000626953 0)
(-0.000723651 0.000516954 0)
(-0.000788182 0.000402835 0)
(-0.000833958 0.000287442 0)
(-0.000863114 0.000172172 0)
(-0.000877274 5.73809e-05 0)
(-0.0008773 -5.71881e-05 0)
(-0.000863192 -0.000171992 0)
(-0.000834084 -0.000287286 0)
(-0.000788352 -0.000402717 0)
(-0.000723854 -0.000516889 0)
(-0.000638367 -0.000626954 0)
(-0.000530273 -0.000728322 0)
(-0.000399495 -0.000814668 0)
(-0.000248555 -0.000878471 0)
(-8.42783e-05 -0.00090267 0)
(-0.000103826 0.00108994 0)
(-0.000304394 0.00105464 0)
(-0.00048433 0.000968546 0)
(-0.000635122 0.000855737 0)
(-0.000755069 0.000727677 0)
(-0.000846198 0.000593085 0)
(-0.000912325 0.000457556 0)
(-0.000957607 0.00032393 0)
(-0.000985653 0.000192989 0)
(-0.000999031 6.41543e-05 0)
(-0.000999063 -6.3903e-05 0)
(-0.00098575 -0.000192751 0)
(-0.000957768 -0.00032372 0)
(-0.000912545 -0.00045739 0)
(-0.000846469 -0.000592985 0)
(-0.000755372 -0.000727663 0)
(-0.00063543 -0.000855827 0)
(-0.000484603 -0.000968749 0)
(-0.000304585 -0.00105494 0)
(-0.000103896 -0.00109031 0)
(-0.000131491 0.00132424 0)
(-0.000381822 0.00126973 0)
(-0.000598253 0.00114934 0)
(-0.000770924 0.000998618 0)
(-0.000900797 0.000835039 0)
(-0.000993772 0.000670235 0)
(-0.00105734 0.000510435 0)
(-0.00109852 0.000357777 0)
(-0.00112289 0.000211723 0)
(-0.00113417 7.01577e-05 0)
(-0.00113421 -6.98348e-05 0)
(-0.00112301 -0.000211413 0)
(-0.00109872 -0.000357495 0)
(-0.00105762 -0.000510201 0)
(-0.000994127 -0.000670078 0)
(-0.000901209 -0.000834991 0)
(-0.00077136 -0.000998714 0)
(-0.000598657 -0.0011496 0)
(-0.000382117 -0.00127016 0)
(-0.000131601 -0.00132478 0)
(-0.000172845 0.00162635 0)
(-0.000493866 0.00153613 0)
(-0.000755502 0.0013607 0)
(-0.000949419 0.00115465 0)
(-0.00108345 0.000943838 0)
(-0.0011708 0.000742545 0)
(-0.00122478 0.000556277 0)
(-0.00125632 0.000385082 0)
(-0.00127327 0.000226 0)
(-0.00128059 7.4598e-05 0)
(-0.00128063 -7.41909e-05 0)
(-0.00127341 -0.000225603 0)
(-0.00125656 -0.000384708 0)
(-0.00122513 -0.000555949 0)
(-0.00117126 -0.000742298 0)
(-0.00108401 -0.000943722 0)
(-0.000950039 -0.00115472 0)
(-0.00075611 -0.00136103 0)
(-0.00049434 -0.00153673 0)
(-0.00017303 -0.00162716 0)
(-0.000239516 0.00203309 0)
(-0.000665349 0.00187049 0)
(-0.000979809 0.0016035 0)
(-0.00118779 0.00131604 0)
(-0.0013129 0.00104357 0)
(-0.00138133 0.000800108 0)
(-0.0014148 0.000587201 0)
(-0.0014288 0.000400351 0)
(-0.00143337 0.000232634 0)
(-0.00143436 7.64354e-05 0)
(-0.00143441 -7.59341e-05 0)
(-0.00143353 -0.000232135 0)
(-0.00142907 -0.000399863 0)
(-0.00141521 -0.000586744 0)
(-0.0013819 -0.000799723 0)
(-0.00131363 -0.00104333 0)
(-0.00118867 -0.00131604 0)
(-0.000980741 -0.00160387 0)
(-0.000666147 -0.00187132 0)
(-0.000239852 -0.00203439 0)
(-0.000357689 0.00261412 0)
(-0.000945788 0.00229122 0)
(-0.00131003 0.00186888 0)
(-0.00150935 0.00146395 0)
(-0.00159939 0.00111515 0)
(-0.00162718 0.000827526 0)
(-0.00162454 0.000592252 0)
(-0.00161089 0.000396564 0)
(-0.00159719 0.000227786 0)
(-0.00158916 7.44533e-05 0)
(-0.0015892 -7.38552e-05 0)
(-0.00159734 -0.000227178 0)
(-0.00161117 -0.000395942 0)
(-0.00162499 -0.000591627 0)
(-0.00162784 -0.000826934 0)
(-0.00160033 -0.00111468 0)
(-0.00151058 -0.00146375 0)
(-0.00131148 -0.00186919 0)
(-0.000947204 -0.00229231 0)
(-0.000358354 -0.00261629 0)
(-0.000590948 0.00351572 0)
(-0.00143925 0.00280325 0)
(-0.00180719 0.00212272 0)
(-0.00194151 0.00155895 0)
(-0.00194932 0.00112691 0)
(-0.00190423 0.000803071 0)
(-0.00184576 0.000557886 0)
(-0.00179327 0.00036592 0)
(-0.00175548 0.000207501 0)
(-0.001736 6.74477e-05 0)
(-0.00173604 -6.67622e-05 0)
(-0.00175561 -0.000206787 0)
(-0.00179352 -0.000365154 0)
(-0.0018462 -0.000557054 0)
(-0.00190495 -0.000802188 0)
(-0.00195045 -0.00112606 0)
(-0.00194318 -0.00155832 0)
(-0.00180941 -0.0021227 0)
(-0.00144193 -0.00280435 0)
(-0.000592428 -0.00351908 0)
(-0.001108 0.00486302 0)
(-0.00237691 0.0033326 0)
(-0.00255408 0.00227114 0)
(-0.00250474 0.00152737 0)
(-0.00235484 0.00103201 0)
(-0.00219577 0.000700363 0)
(-0.00206126 0.000470298 0)
(-0.00196084 0.000301636 0)
(-0.00189523 0.000168771 0)
(-0.00186299 5.45703e-05 0)
(-0.00186301 -5.38232e-05 0)
(-0.0018953 -0.000167972 0)
(-0.001961 -0.000300732 0)
(-0.00206159 -0.000469235 0)
(-0.00219641 -0.000699098 0)
(-0.00235602 -0.00103055 0)
(-0.00250677 -0.00152587 0)
(-0.0025572 -0.00227015 0)
(-0.0023815 -0.00333295 0)
(-0.00111099 -0.00487282 0)
(-0.0020833 0.00907861 0)
(-0.0039839 0.00395281 0)
(-0.00350763 0.00218391 0)
(-0.00307427 0.00126307 0)
(-0.00266931 0.000774887 0)
(-0.00235859 0.000495147 0)
(-0.00213693 0.000320415 0)
(-0.0019871 0.000200982 0)
(-0.00189476 0.000111064 0)
(-0.00185072 3.57525e-05 0)
(-0.00185062 -3.51183e-05 0)
(-0.00189447 -0.000110374 0)
(-0.00198663 -0.000200175 0)
(-0.00213626 -0.000319423 0)
(-0.00235774 -0.00049392 0)
(-0.00266831 -0.000773479 0)
(-0.00307315 -0.0012619 0)
(-0.0035056 -0.0021852 0)
(-0.0039834 -0.00395894 0)
(-0.00206513 -0.00908926 0)
(0.0131867 0.00625592 0)
(0.0103958 0.00216683 0)
(0.0144766 0.00103531 0)
(0.0157977 0.000530147 0)
(0.0165822 0.000299893 0)
(0.0170507 0.000182451 0)
(0.017343 0.000114807 0)
(0.0175267 7.09161e-05 0)
(0.0176355 3.88975e-05 0)
(0.0176865 1.25371e-05 0)
(0.0176868 -1.21249e-05 0)
(0.0176364 -3.84384e-05 0)
(0.0175282 -7.03519e-05 0)
(0.0173454 -0.000114054 0)
(0.0170541 -0.000181384 0)
(0.0165868 -0.00029832 0)
(0.0158028 -0.000527768 0)
(0.0144871 -0.00103262 0)
(0.0103971 -0.0021609 0)
(0.0131993 -0.00624985 0)
)
;

boundaryField
{
    movingWall
    {
        type            fixedValue;
        value           uniform (1 0 0);
    }
    fixedWalls
    {
        type            noSlip;
    }
    frontAndBack
    {
        type            empty;
    }
}


// ************************************************************************* //
