/*--------------------------------*- C++ -*----------------------------------*\
  =========                 |
  \\      /  F ield         | OpenFOAM: The Open Source CFD Toolbox
   \\    /   O peration     | Website:  https://openfoam.org
    \\  /    A nd           | Version:  10
     \\/     M anipulation  |
\*---------------------------------------------------------------------------*/
FoamFile
{
    format      ascii;
    class       volVectorField;
    location    "7.8";
    object      U;
}
// * * * * * * * * * * * * * * * * * * * * * * * * * * * * * * * * * * * * * //

dimensions      [0 1 -1 0 0 0 0];

internalField   nonuniform List<vector> 
400
(
(-0.000144146 0.000129508 0)
(-0.00108467 0.000405966 0)
(-0.00267402 0.000506273 0)
(-0.00429664 0.000537256 0)
(-0.0059644 0.000550919 0)
(-0.00763786 0.000563515 0)
(-0.00929993 0.000574231 0)
(-0.0109265 0.000576448 0)
(-0.012475 0.000561255 0)
(-0.0138813 0.000517897 0)
(-0.0150559 0.0004341 0)
(-0.0158815 0.000297494 0)
(-0.0162166 9.90039e-05 0)
(-0.0159041 -0.000170474 0)
(-0.0147971 -0.000498984 0)
(-0.0128023 -0.000852966 0)
(-0.00994977 -0.00116327 0)
(-0.00652502 -0.00132171 0)
(-0.00273999 -0.00118126 0)
(-0.000376005 -0.000474624 0)
(-0.000462207 0.00110295 0)
(-0.0024221 0.00230026 0)
(-0.00542233 0.00273913 0)
(-0.00847777 0.00286727 0)
(-0.0115798 0.00288954 0)
(-0.0146425 0.00287225 0)
(-0.0176144 0.002817 0)
(-0.0204384 0.00270172 0)
(-0.0230338 0.00249448 0)
(-0.0252908 0.00215697 0)
(-0.0270656 0.00164714 0)
(-0.0281788 0.000923526 0)
(-0.0284291 -4.68636e-05 0)
(-0.027595 -0.00126392 0)
(-0.0254717 -0.00267116 0)
(-0.0219441 -0.00412804 0)
(-0.0170846 -0.00536818 0)
(-0.0113287 -0.0059764 0)
(-0.00502626 -0.0053982 0)
(-0.000870761 -0.00260705 0)
(-0.000600989 0.00284241 0)
(-0.0030306 0.00537353 0)
(-0.00667722 0.0062877 0)
(-0.0103626 0.00653357 0)
(-0.0140802 0.00653104 0)
(-0.0177281 0.00641673 0)
(-0.0212464 0.00619967 0)
(-0.0245713 0.00584147 0)
(-0.0276152 0.00528324 0)
(-0.0302598 0.00445307 0)
(-0.032351 0.00327199 0)
(-0.0336961 0.00166378 0)
(-0.0340577 -0.00042756 0)
(-0.0331623 -0.00300332 0)
(-0.0307467 -0.00595505 0)
(-0.0266229 -0.00900373 0)
(-0.020816 -0.0116098 0)
(-0.013824 -0.0128985 0)
(-0.0060594 -0.0117162 0)
(-0.000996157 -0.00594584 0)
(-0.000645657 0.00469562 0)
(-0.0032721 0.00865463 0)
(-0.00720742 0.0100546 0)
(-0.0111697 0.0104059 0)
(-0.0151665 0.0103678 0)
(-0.0190973 0.0101521 0)
(-0.0229103 0.00977651 0)
(-0.0265522 0.00918748 0)
(-0.0299465 0.0082997 0)
(-0.0329845 0.00700522 0)
(-0.0355139 0.00518045 0)
(-0.0373291 0.00270159 0)
(-0.0381662 -0.000529125 0)
(-0.037678 -0.00454448 0)
(-0.0354683 -0.00922493 0)
(-0.0311796 -0.0141651 0)
(-0.0246661 -0.0185074 0)
(-0.016443 -0.0207611 0)
(-0.00697942 -0.0189222 0)
(-0.000976377 -0.00950182 0)
(-0.000650809 0.00663119 0)
(-0.00335873 0.012102 0)
(-0.00743944 0.0140133 0)
(-0.0115502 0.0144805 0)
(-0.0157149 0.0144215 0)
(-0.0198435 0.0141302 0)
(-0.0239026 0.0136362 0)
(-0.0278613 0.012873 0)
(-0.0316679 0.0117291 0)
(-0.0352375 0.0100566 0)
(-0.0384329 0.00767517 0)
(-0.0410438 0.00438467 0)
(-0.0427631 -4.73237e-07 0)
(-0.0431515 -0.00558236 0)
(-0.0416248 -0.0123065 0)
(-0.0375268 -0.0196804 0)
(-0.0303603 -0.0264719 0)
(-0.0204919 -0.0303072 0)
(-0.00834374 -0.0277816 0)
(-0.000857284 -0.0135111 0)
(-0.000642033 0.00859118 0)
(-0.00339043 0.0156385 0)
(-0.00756836 0.0180898 0)
(-0.0117886 0.0186933 0)
(-0.0160912 0.0186435 0)
(-0.0204013 0.0183258 0)
(-0.0247121 0.0177872 0)
(-0.0290255 0.0169531 0)
(-0.0333287 0.0156883 0)
(-0.0375798 0.0138027 0)
(-0.0416818 0.0110471 0)
(-0.0454425 0.00711555 0)
(-0.0485244 0.00167926 0)
(-0.0504094 -0.00553876 0)
(-0.0502871 -0.0146663 0)
(-0.0470539 -0.0252455 0)
(-0.0395589 -0.035691 0)
(-0.0275343 -0.0424031 0)
(-0.0108825 -0.0393458 0)
(-0.000639604 -0.018219 0)
(-0.000627258 0.0105533 0)
(-0.00340199 0.0192342 0)
(-0.00766138 0.022256 0)
(-0.0119755 0.0230195 0)
(-0.0164 0.0230157 0)
(-0.0208787 0.0227327 0)
(-0.0254374 0.0222444 0)
(-0.0301215 0.0214768 0)
(-0.0349742 0.0202792 0)
(-0.0400226 0.0184234 0)
(-0.0452485 0.0155865 0)
(-0.0505322 0.0113324 0)
(-0.0555761 0.00511639 0)
(-0.0598588 -0.00365006 0)
(-0.0623878 -0.0153839 0)
(-0.0615274 -0.0300427 0)
(-0.0550004 -0.0460236 0)
(-0.0406112 -0.0583596 0)
(-0.0165254 -0.0556263 0)
(-0.00053873 -0.0244378 0)
(-0.000607711 0.012509 0)
(-0.00340167 0.0228803 0)
(-0.00773324 0.0265009 0)
(-0.012123 0.0274439 0)
(-0.0166413 0.027519 0)
(-0.0212516 0.0273316 0)
(-0.0260165 0.0269955 0)
(-0.0310349 0.0264529 0)
(-0.036424 0.0255555 0)
(-0.0423124 0.0240564 0)
(-0.0488165 0.0215735 0)
(-0.0559891 0.0175426 0)
(-0.0637276 0.0111748 0)
(-0.0716353 0.00148276 0)
(-0.0788815 -0.0125613 0)
(-0.083464 -0.0319075 0)
(-0.0810279 -0.0562183 0)
(-0.0645887 -0.0797688 0)
(-0.0294888 -0.0804556 0)
(-0.00158443 -0.0344807 0)
(-0.000584205 0.0144513 0)
(-0.00339362 0.02657 0)
(-0.00778791 0.0308095 0)
(-0.0122244 0.0319378 0)
(-0.0167872 0.0321094 0)
(-0.0214572 0.032065 0)
(-0.0263343 0.0319747 0)
(-0.0315752 0.0318179 0)
(-0.0373849 0.0314794 0)
(-0.0440241 0.0307352 0)
(-0.0518065 0.0291991 0)
(-0.0610768 0.0262421 0)
(-0.0721567 0.0209051 0)
(-0.0852828 0.0118166 0)
(-0.10034 -0.00304598 0)
(-0.11503 -0.0268428 0)
(-0.120821 -0.0636865 0)
(-0.101851 -0.108325 0)
(-0.0547908 -0.119997 0)
(-0.00659708 -0.0538197 0)
(-0.000560462 0.0163772 0)
(-0.00338996 0.0302994 0)
(-0.00784054 0.0351611 0)
(-0.0122846 0.0364554 0)
(-0.0168196 0.0367131 0)
(-0.0214389 0.0368293 0)
(-0.0262748 0.037049 0)
(-0.031537 0.0374149 0)
(-0.0375161 0.0378851 0)
(-0.0446158 0.0383249 0)
(-0.0533951 0.038451 0)
(-0.0646214 0.0377469 0)
(-0.0793464 0.0353626 0)
(-0.0989778 0.029819 0)
(-0.12451 0.0175482 0)
(-0.152383 -0.0102579 0)
(-0.166179 -0.0669988 0)
(-0.142862 -0.145865 0)
(-0.0925207 -0.17758 0)
(-0.0204492 -0.0918754 0)
(-0.00054576 0.0182964 0)
(-0.00341941 0.0340745 0)
(-0.0079319 0.0395307 0)
(-0.012339 0.0409329 0)
(-0.0167547 0.0412225 0)
(-0.0211771 0.041468 0)
(-0.025759 0.0420045 0)
(-0.0307451 0.0429627 0)
(-0.0364859 0.0444181 0)
(-0.0434963 0.0464059 0)
(-0.0525493 0.0488977 0)
(-0.0648126 0.0517651 0)
(-0.0820646 0.0546496 0)
(-0.106951 0.0560096 0)
(-0.14106 0.0488342 0)
(-0.177076 0.0143793 0)
(-0.191542 -0.0708427 0)
(-0.167463 -0.188691 0)
(-0.129463 -0.244802 0)
(-0.0409173 -0.162585 0)
(-0.00055987 0.0202475 0)
(-0.00354056 0.0379391 0)
(-0.00814551 0.0439286 0)
(-0.0124705 0.0453313 0)
(-0.0166624 0.0455365 0)
(-0.0207172 0.0458065 0)
(-0.0247916 0.046578 0)
(-0.0291324 0.0480827 0)
(-0.034093 0.0505496 0)
(-0.0402083 0.0542602 0)
(-0.0483132 0.0595899 0)
(-0.0597084 0.0670242 0)
(-0.0762867 0.0767542 0)
(-0.100625 0.0861247 0)
(-0.133188 0.0825453 0)
(-0.164841 0.0377951 0)
(-0.174319 -0.072309 0)
(-0.156866 -0.219164 0)
(-0.138919 -0.310541 0)
(-0.0502389 -0.269284 0)
(-0.000633445 0.0222832 0)
(-0.00383377 0.0418704 0)
(-0.0086025 0.0482027 0)
(-0.0128215 0.0494124 0)
(-0.0166932 0.0493764 0)
(-0.0202013 0.0495246 0)
(-0.0234975 0.0503633 0)
(-0.0267892 0.0522157 0)
(-0.0303455 0.0554515 0)
(-0.0345666 0.0605869 0)
(-0.0400685 0.0683792 0)
(-0.0477491 0.0797881 0)
(-0.0587243 0.0951405 0)
(-0.0740933 0.109793 0)
(-0.093834 0.1068 0)
(-0.111134 0.0537543 0)
(-0.116224 -0.0675895 0)
(-0.109174 -0.228604 0)
(-0.114433 -0.357079 0)
(-0.0420017 -0.368591 0)
(-0.000864648 0.0247094 0)
(-0.00455896 0.0464533 0)
(-0.00958666 0.0530632 0)
(-0.0135956 0.0538868 0)
(-0.0169952 0.0532718 0)
(-0.019797 0.0529038 0)
(-0.0221134 0.0533875 0)
(-0.0240608 0.0551146 0)
(-0.0257645 0.0585327 0)
(-0.0273724 0.0642732 0)
(-0.0290865 0.073257 0)
(-0.0310038 0.0864674 0)
(-0.0332288 0.104092 0)
(-0.035281 0.119972 0)
(-0.0383458 0.116888 0)
(-0.0389053 0.0613731 0)
(-0.0419145 -0.058466 0)
(-0.0444042 -0.216352 0)
(-0.0771684 -0.3696 0)
(-0.0270664 -0.432982 0)
(-0.00121675 0.0276799 0)
(-0.00542858 0.0503489 0)
(-0.0110216 0.056269 0)
(-0.0150471 0.0560387 0)
(-0.0181154 0.0547801 0)
(-0.0201399 0.0540359 0)
(-0.0212965 0.0542539 0)
(-0.021665 0.055715 0)
(-0.0212338 0.0588215 0)
(-0.0198778 0.0641675 0)
(-0.01743 0.0726099 0)
(-0.0131336 0.0847754 0)
(-0.00672684 0.100657 0)
(0.00410655 0.114427 0)
(0.0152197 0.110996 0)
(0.0281485 0.0597977 0)
(0.0223908 -0.0492769 0)
(0.0113616 -0.187837 0)
(-0.0483516 -0.358352 0)
(-0.0123274 -0.475172 0)
(-0.00329566 0.0302359 0)
(-0.00986033 0.0579717 0)
(-0.0148019 0.0638087 0)
(-0.0178174 0.0629993 0)
(-0.0195862 0.0600968 0)
(-0.0204691 0.0576504 0)
(-0.020481 0.0562346 0)
(-0.0194961 0.0561452 0)
(-0.0172668 0.0576909 0)
(-0.0133762 0.061279 0)
(-0.00746619 0.0675349 0)
(0.00172902 0.076702 0)
(0.0145248 0.0885168 0)
(0.0332913 0.0983122 0)
(0.0518413 0.0948397 0)
(0.07191 0.0544103 0)
(0.0656551 -0.0353891 0)
(0.0526976 -0.149013 0)
(-0.0261354 -0.334856 0)
(0.00286563 -0.498451 0)
(-0.00101324 0.0438583 0)
(-0.00801762 0.059814 0)
(-0.0179717 0.0615702 0)
(-0.0211244 0.0574504 0)
(-0.023374 0.0543343 0)
(-0.0235763 0.0522627 0)
(-0.0224574 0.0511157 0)
(-0.0199253 0.0508013 0)
(-0.0157918 0.0514831 0)
(-0.00955897 0.053368 0)
(-0.000829196 0.0569484 0)
(0.011823 0.0623422 0)
(0.0281733 0.0691418 0)
(0.0510396 0.0740401 0)
(0.0718624 0.0701259 0)
(0.0965789 0.0420602 0)
(0.0881893 -0.022917 0)
(0.075323 -0.10862 0)
(-0.00530846 -0.307628 0)
(0.0225492 -0.50606 0)
(-0.0125405 0.03234 0)
(-0.0235886 0.0801344 0)
(-0.0221068 0.0798093 0)
(-0.0271383 0.0747663 0)
(-0.027798 0.0673934 0)
(-0.0266569 0.0612871 0)
(-0.0234752 0.0563706 0)
(-0.018471 0.0525745 0)
(-0.0116898 0.0499104 0)
(-0.00274219 0.0482114 0)
(0.00837064 0.0477783 0)
(0.0229185 0.0484617 0)
(0.0397974 0.0506323 0)
(0.0625548 0.0517169 0)
(0.0801791 0.0500591 0)
(0.10607 0.0353525 0)
(0.0988569 -0.0034244 0)
(0.107425 -0.0685036 0)
(0.0419865 -0.277077 0)
(0.0588182 -0.492889 0)
(-0.0775813 0.0960866 0)
(-0.0632571 0.0588909 0)
(-0.0655241 0.059909 0)
(-0.0434137 0.0532548 0)
(-0.02596 0.046308 0)
(-0.00566379 0.0411536 0)
(0.0134904 0.037397 0)
(0.0329781 0.0341971 0)
(0.0510308 0.0318826 0)
(0.0705885 0.0297442 0)
(0.0876624 0.0285571 0)
(0.109391 0.0275938 0)
(0.124975 0.0271862 0)
(0.154511 0.0267892 0)
(0.164967 0.022086 0)
(0.203857 0.0136359 0)
(0.194748 -0.0202742 0)
(0.226328 -0.0758028 0)
(0.155752 -0.253016 0)
(0.125782 -0.43478 0)
(0.119459 0.140808 0)
(0.152161 0.0861557 0)
(0.228655 0.0635616 0)
(0.284107 0.0480911 0)
(0.32548 0.0374314 0)
(0.363744 0.0296446 0)
(0.392406 0.0242147 0)
(0.423626 0.020173 0)
(0.443451 0.0172245 0)
(0.472061 0.0149984 0)
(0.484757 0.0132369 0)
(0.51427 0.0120014 0)
(0.519636 0.0109171 0)
(0.552514 0.00985297 0)
(0.547708 0.00799598 0)
(0.580947 0.00361295 0)
(0.550362 -0.00575928 0)
(0.556124 -0.0273759 0)
(0.421591 -0.0735086 0)
(0.275545 -0.15223 0)
)
;

boundaryField
{
    movingWall
    {
        type            fixedValue;
        value           uniform (1 0 0);
    }
    fixedWalls
    {
        type            noSlip;
    }
    frontAndBack
    {
        type            empty;
    }
}


// ************************************************************************* //
