/*--------------------------------*- C++ -*----------------------------------*\
  =========                 |
  \\      /  F ield         | OpenFOAM: The Open Source CFD Toolbox
   \\    /   O peration     | Website:  https://openfoam.org
    \\  /    A nd           | Version:  10
     \\/     M anipulation  |
\*---------------------------------------------------------------------------*/
FoamFile
{
    format      ascii;
    class       surfaceScalarField;
    location    "1.725";
    object      phi;
}
// * * * * * * * * * * * * * * * * * * * * * * * * * * * * * * * * * * * * * //

dimensions      [0 3 -1 0 0 0 0];

internalField   nonuniform List<scalar> 
928
(
0.0966626
0.00333737
0.103054
-0.00639161
0.106931
-0.00387639
-0.00909947
0.11603
0.0953334
0.00800397
0.106066
-0.0171244
0.104166
-0.00197625
-0.0185246
0.113591
0.0959991
0.0120049
0.111049
-0.032174
0.105051
0.00402186
-0.0401426
0.126669
0.101599
0.0104061
0.0909711
-0.0215463
0.0951252
-0.000132259
0.144201
-0.0892186
0.110977
0.00505314
-0.0166639
0.127641
0.111116
0.00752822
-0.0415325
0.135985
0.130243
0.00395422
-0.0488839
0.137594
0.148155
0.0992715
0.127541
9.97799e-05
0.128012
-0.000470857
0.129925
-0.00191291
-0.00227594
0.132201
0.137952
-0.00186711
0.136592
0.000889019
0.13817
-0.00349104
-0.00547435
0.141368
0.138491
-0.00276425
0.13928
9.99388e-05
0.145532
-0.00974296
-0.00297968
0.143037
0.104198
-0.00769059
0.073109
0.0311887
0.0799921
-0.016626
0.0787815
-0.00176917
0.13422
-0.0020194
0.13501
-0.000790155
0.1349
0.000110319
0.133261
0.00163871
0.131789
0.00147197
0.130931
0.000858692
0.129929
0.00100174
0.128993
0.000935693
0.127714
0.00127974
0.126863
0.00085099
0.125466
0.00139685
0.123884
0.00158159
0.121694
0.00218966
0.119221
0.00247376
0.116946
0.00227437
0.114384
0.00256209
0.112637
0.00174709
0.110967
0.00166966
0.1102
0.000767665
0.109555
0.000644829
0.109324
0.000231473
0.109468
-0.000144278
0.109444
2.34312e-05
0.109789
-0.000344574
0.109629
0.000159646
0.109949
-0.000320179
0.110048
-9.81133e-05
0.110571
-0.000523668
0.111258
-0.000687077
0.111885
-0.000626212
0.112705
-0.00082071
0.11286
-0.000154847
0.112972
-0.000112229
0.111958
0.00101416
0.110508
0.00145053
0.108025
0.00248306
0.105089
0.00293546
0.102303
0.00278588
0.0994968
0.00280646
0.00128757
0.142877
-0.00352777
0.142369
-0.000282975
0.141571
0.000908456
0.141772
0.00143785
0.141755
0.0014886
0.140637
0.0019774
0.139159
0.00247972
0.138241
0.00185377
0.137346
0.00217432
0.136888
0.00130942
0.135618
0.00266676
0.134269
0.00293062
0.132653
0.00380498
0.130961
0.00416615
0.12914
0.00409586
0.127105
0.00459713
0.125709
0.00314262
0.124097
0.00328163
0.123539
0.00132598
0.123266
0.000917113
0.123459
3.93169e-05
0.124136
-0.000821455
0.124382
-0.000222287
0.125053
-0.00101619
0.125158
5.51151e-05
0.125476
-0.000638062
0.125816
-0.000438158
0.126368
-0.00107593
0.127353
-0.00167218
0.127913
-0.00118658
0.129189
-0.00209607
0.129765
-0.000730949
0.130613
-0.000960385
0.130452
0.00117466
0.12964
0.00226323
0.128362
0.00376077
0.126098
0.00519947
0.124491
0.00439301
0.121841
0.0054562
0.00319676
0.139926
-0.000416733
0.13982
-0.000176909
0.141651
-0.000922647
0.142833
0.000255963
0.141318
0.00300391
0.141119
0.0021766
0.139474
0.00412477
0.138597
0.00273078
0.139002
0.00176863
0.138582
0.00172965
0.138521
0.00272817
0.138828
0.00262353
0.138907
0.00372549
0.138528
0.00454513
0.137585
0.00503951
0.13701
0.00517187
0.135932
0.00422029
0.135407
0.00380727
0.134534
0.00219898
0.134062
0.00138887
0.133658
0.000443554
0.133065
-0.000229109
0.132586
0.000256991
0.131899
-0.000328776
0.131167
0.00078709
0.130486
4.30408e-05
0.129641
0.000406132
0.129153
-0.000587112
0.128639
-0.0011587
0.128706
-0.0012534
0.129284
-0.00267456
0.130161
-0.0016072
0.131835
-0.00263439
0.133919
-0.000909419
0.135532
0.000649414
0.136453
0.00284059
0.136144
0.00550822
0.134819
0.00571772
0.132531
0.0077443
0.00496788
0.0778623
0.000502514
0.0809603
-0.00327489
0.0877015
-0.0076639
0.0846863
0.0032712
0.0814067
0.00628348
0.0852098
-0.00162643
0.0810256
0.00830897
0.0826386
0.00111772
0.084193
0.000214281
0.084738
0.0011846
0.0889153
-0.00144912
0.0932131
-0.00167428
0.0975269
-0.00058831
0.100901
0.00117143
0.103958
0.00198178
0.105943
0.00318702
0.106157
0.00400627
0.105605
0.00435939
0.104124
0.00368011
0.102122
0.00339126
0.0992614
0.00330374
0.0962029
0.00282941
0.0933155
0.00314436
0.0899394
0.00304737
0.0869589
0.00376761
0.0838924
0.00310953
0.0816996
0.00259889
0.0796729
0.00143957
0.0787793
-0.000265118
0.0791858
-0.00165982
0.0807048
-0.00419357
0.0844631
-0.00536549
0.0887902
-0.00696155
0.0946973
-0.00681649
0.100769
-0.00542227
0.107239
-0.00362984
0.113171
-0.000423074
0.11693
0.00195834
0.120398
0.00427624
0.0037293
0.110996
-0.000590089
0.0888066
0.00064332
0.0901053
-0.00143096
0.000886751
0.109101
-0.00969123
0.0887407
0.0210038
0.0856936
0.00161611
0.0865804
0.00144784
-0.00913843
-0.0126319
0.0452685
-0.00412992
-0.025128
-0.0181637
0.0122646
-0.0103365
0.00119811
0.0227428
0.0121891
0.00469318
-0.00707836
-0.0107833
-0.00268723
-0.00725523
0.0200224
-0.00882829
-0.00170183
-0.00574549
-0.0107467
0.00272497
-0.00519926
-0.016301
0.0253094
-0.0145261
-0.00340133
-0.000197905
-0.00601923
-0.0039193
0.00483912
0.00182407
-0.00552909
0.00780857
-0.00479989
0.0106573
-0.00429788
0.0143564
-0.00537339
0.0180724
-0.00430432
0.0214999
-0.002256
0.0235552
-7.35916e-05
0.0247373
0.00200499
0.0257096
0.00303396
0.0253217
0.00474726
0.024136
0.00486576
0.0234713
0.00405597
0.0228438
0.00393132
0.0218339
0.00383926
0.0215428
0.00343551
0.0214346
0.00315557
0.02165
0.00355218
0.0223787
0.00238078
0.0239808
0.000996785
0.025625
-0.000204569
0.0270649
-0.00170502
0.0294751
-0.00407007
0.0321185
-0.00683695
0.0349226
-0.0081696
0.0382759
-0.0103149
0.0427968
-0.0113374
0.0469768
-0.00960218
0.0502325
-0.00688561
0.053031
-0.00322153
0.0541732
0.00081615
0.0532894
0.00516002
0.00402779
0.000417236
0.00882183
0.000262247
-0.00154684
-0.00989092
-0.000593537
-0.011792
-0.00329815
0.00310496
0.0104125
0.0043344
-0.00463077
0.00534109
-0.00702593
0.00981605
0.000364161
0.00886835
-0.0045814
0.011675
-0.00760657
0.0132409
-0.00586377
0.0141216
-0.0062541
0.0156997
-0.0058824
0.0177888
-0.00434512
0.0193601
-0.00164484
0.0209252
0.00043992
0.0225033
0.00145586
0.02429
0.00296051
0.0259206
0.00323514
0.0272273
0.0027493
0.0285356
0.00262304
0.0303944
0.00198042
0.0319676
0.00186228
0.0337809
0.00134231
0.0366015
0.000731578
0.0391103
-0.000128035
0.0412068
-0.00109971
0.043276
-0.00227373
0.0447313
-0.00316032
0.0449187
-0.00425749
0.043585
-0.00550325
0.0416004
-0.00618507
0.0388864
-0.00760077
0.0361065
-0.00855755
0.0348459
-0.00834155
0.0346037
-0.00664343
0.0344838
-0.00310161
0.0354469
-0.00014694
0.0371147
0.00349217
0.00254291
0.10149
-0.0111808
0.0941727
0.0283206
0.0978297
-0.00204087
0.0383884
0.146022
0.0961995
-0.00738033
0.107262
0.017258
0.104345
0.000876307
0.0191248
0.123609
0.0957046
-0.00308496
0.106331
0.00663145
0.103718
0.00348965
0.00940854
0.113434
0.096915
0.103546
0.107036
0.116445
0.153505
-0.00748353
0.044268
0.109237
0.125036
-0.00891119
0.0417608
0.127543
0.109437
-0.00491427
0.0164781
0.13472
0.11153
0.128008
0.106137
0.00429839
0.111717
0.00660882
0.104742
-0.000102766
0.00265176
0.0994027
0.132275
-0.000432685
0.138021
0.000862763
0.134971
0.00294689
0.00315083
0.134472
0.134262
2.52869e-05
0.134387
0.000737636
0.135807
0.00152735
0.00181745
0.13714
0.128034
0.128771
0.130299
0.132116
0.104852
0.00337298
0.100377
0.00292772
0.0984346
0.00134884
0.0943979
0.000738515
0.102178
0.00263242
0.099054
-0.00150685
0.0969398
-0.00491167
0.101824
-0.00451999
0.102634
-0.00539155
0.101207
-0.00617901
0.10055
-0.0052069
0.0983446
-0.00404912
0.0949132
-0.00245097
0.091892
-0.00132392
0.0906906
-0.000443462
0.0903596
0.000770995
0.0907344
0.00108101
0.0920922
0.00160273
0.094736
0.000591335
0.0972328
0.00025251
0.10078
-0.000923745
0.103724
-0.000963701
0.106951
-0.00136515
0.110405
-0.00211169
0.113604
-0.00246778
0.117597
-0.00412016
0.120886
-0.00438921
0.124614
-0.00600126
0.128133
-0.00667966
0.131744
-0.00786806
0.134585
-0.0083451
0.135175
-0.0067742
0.132016
-0.00444237
0.123473
-1.46131e-05
0.112106
0.00302584
0.0997383
0.00572411
0.0899414
0.00669531
0.0845147
0.0052797
0.0825412
0.00546574
0.00206031
0.13513
0.0027147
0.135853
0.0022053
0.136185
0.00101664
0.136858
6.55516e-05
0.140295
-0.000804689
0.139591
-0.000803129
0.137265
-0.00258568
0.136878
-0.00413294
0.135741
-0.00425445
0.134627
-0.00506493
0.133284
-0.00386374
0.132649
-0.00341427
0.131731
-0.00153341
0.131076
-0.000669024
0.130686
-5.30679e-05
0.130726
0.000730872
0.131392
0.000415262
0.131987
0.00100808
0.133089
-0.000510977
0.133751
-0.000410045
0.13437
-0.00154217
0.134853
-0.00144714
0.134901
-0.00141277
0.135086
-0.00229715
0.134516
-0.00189755
0.133581
-0.00318485
0.131813
-0.00262136
0.129178
-0.00336587
0.12587
-0.00337198
0.121534
-0.00353197
0.117451
-0.00426275
0.113713
-0.00303591
0.111586
-0.00231566
0.110608
0.000963486
0.110697
0.00293748
0.111462
0.00495877
0.11248
0.00567694
0.113629
0.0041309
0.115101
0.00399386
0.000695227
0.138461
0.00139403
0.139467
0.00119862
0.140002
0.000482022
0.14032
-0.000252114
0.140655
-0.00114059
0.14067
-0.000817474
0.139314
-0.00123021
0.137448
-0.00226634
0.135433
-0.00223956
0.13312
-0.00275239
0.131265
-0.00200878
0.12967
-0.00181862
0.129051
-0.000914705
0.128854
-0.000472166
0.129096
-0.000294641
0.129657
0.000169064
0.130273
-0.00020054
0.131122
0.000159199
0.131159
-0.00054829
0.131257
-0.00050756
0.130617
-0.000902298
0.130079
-0.000908965
0.129517
-0.000851084
0.128526
-0.00130614
0.127694
-0.00106571
0.126247
-0.00173719
0.125136
-0.00151103
0.123749
-0.00197873
0.122338
-0.00196074
0.120678
-0.00187154
0.118355
-0.00193974
0.116221
-0.000902059
0.114538
-0.000632699
0.114323
0.00117822
0.11537
0.00189069
0.117561
0.00276719
0.120421
0.00281748
0.122682
0.00186982
0.125297
0.0013788
-0.00047986
0.13351
0.134709
0.135191
0.134939
0.133798
0.132981
0.13175
0.129484
0.127245
0.124492
0.122483
0.120665
0.11975
0.119278
0.118983
0.119152
0.118952
0.119111
0.118563
0.118055
0.117153
0.116244
0.115393
0.114087
0.113021
0.111284
0.109773
0.107794
0.105833
0.103962
0.102022
0.10112
0.100487
0.101665
0.103556
0.106323
0.109141
0.111011
0.112389
)
;

boundaryField
{
    inlet
    {
        type            calculated;
        value           nonuniform List<scalar> 10(-0.1 -0.1 -0.1 -0.1 -0.1 -0.1 -0.1 -0.1 -0.1 -0.1);
    }
    outlet
    {
        type            calculated;
        value           nonuniform List<scalar> 10(0.0982092 0.119932 0.13076 0.121637 0.0529909 0.0385996 0.0830238 0.116466 0.126472 0.11191);
    }
    obstacle
    {
        type            calculated;
        value           uniform 0;
    }
    upperWall
    {
        type            calculated;
        value           uniform 0;
    }
    lowerWall
    {
        type            calculated;
        value           uniform 0;
    }
    frontAndBack
    {
        type            empty;
        value           nonuniform List<scalar> 0();
    }
}


// ************************************************************************* //
