/*--------------------------------*- C++ -*----------------------------------*\
  =========                 |
  \\      /  F ield         | OpenFOAM: The Open Source CFD Toolbox
   \\    /   O peration     | Website:  https://openfoam.org
    \\  /    A nd           | Version:  10
     \\/     M anipulation  |
\*---------------------------------------------------------------------------*/
FoamFile
{
    format      ascii;
    class       volScalarField;
    location    "8.875";
    object      p;
}
// * * * * * * * * * * * * * * * * * * * * * * * * * * * * * * * * * * * * * //

dimensions      [0 2 -2 0 0 0 0];

internalField   nonuniform List<scalar> 
496
(
28.6806
28.9834
25.3688
19.0064
29.3121
29.9315
25.6769
19.2476
34.2046
31.8218
23.2222
12.557
42.277
38.9332
35.3974
19.1896
10.4609
1.137
10.4067
1.35859
-2.82041
-7.64534
-32.227
-57.9251
-6.15686
-10.7418
-12.755
-13.6537
-6.19179
-11.8606
-15.1988
-16.5456
-1.12369
-1.82311
-6.40241
-12.6887
-27.9142
-13.7096
-6.80459
-6.62344
-14.1292
-14.6547
-14.8886
-14.9353
-15.2105
-15.4222
-14.8054
-13.2255
-11.3781
-9.32065
-7.71296
-6.50928
-5.53059
-4.79696
-4.37609
-4.34967
-4.01073
-4.14031
-4.53272
-4.90611
-4.67612
-3.71953
-2.85246
-2.04615
-1.65405
-1.24509
-0.819675
-0.437229
-0.141163
-0.227999
-0.525849
-1.1115
-1.49844
-1.58025
-1.54881
-1.42987
-1.39291
-1.19867
-0.869481
-0.365816
-16.9098
-16.6452
-15.8983
-15.4569
-15.7005
-15.4855
-14.5509
-13.1159
-11.3051
-9.38808
-7.83398
-6.23445
-4.77395
-4.10226
-4.03605
-4.25865
-4.27137
-4.44148
-4.55752
-4.77741
-4.63114
-3.95274
-3.11893
-2.11717
-1.38212
-0.921426
-0.378684
0.0412928
0.0537616
-0.3063
-0.794891
-1.55552
-1.98605
-2.06409
-1.92694
-1.63243
-1.5138
-1.304
-1.05384
-0.545987
-17.04
-18.3155
-18.0453
-18.3164
-17.7424
-16.3194
-15.2277
-14.0727
-11.89
-9.57676
-7.56014
-5.53531
-4.00937
-3.22023
-3.87315
-4.57611
-5.15413
-5.54155
-5.88623
-5.92458
-4.92744
-3.7842
-2.42405
-1.83898
-1.53146
-1.00456
-0.682689
0.0547762
0.0594463
-0.0132032
-0.816635
-1.90911
-2.76675
-3.12021
-3.13429
-2.67058
-1.83679
-1.1431
-0.546926
-0.0719199
-11.2402
-14.72
-16.8817
-18.8225
-18.9063
-16.8216
-16.725
-16.2641
-13.7535
-10.7905
-6.35764
-2.791
-1.10198
-1.55398
-2.74325
-3.82113
-5.42714
-6.01838
-7.0908
-7.45455
-6.53046
-5.10029
-2.31976
0.0758224
2.08645
2.30446
1.41865
0.289335
-0.527117
-0.459852
-1.4166
-2.28565
-3.2226
-4.1687
-4.06122
-3.58637
-2.47987
-1.7256
-0.492594
0.635784
47.1564
48.6265
62.9701
75.1122
47.2317
49.2822
63.5534
75.7295
-26.8166
-27.799
-25.9866
-28.6233
-26.0023
-30.4213
-26.0274
-17.9642
-14.9518
-16.3893
-17.7525
-17.4023
-15.6265
-15.8823
-18.3458
-15.9601
-12.6341
-10.9896
-8.46191
-6.25002
-4.7101
-3.96472
-3.73245
-3.75232
-3.88682
-4.29039
-5.07322
-5.34277
-4.65897
-4.35651
-3.91439
-3.18233
-2.67712
-2.79157
-3.4279
-3.65647
-3.2639
-2.5541
-2.3969
-2.37505
-2.67176
-2.96962
-2.5585
-1.82412
-1.43824
-0.864849
0.107942
0.366358
-23.2271
-21.5422
-16.8531
-19.3771
-18.5989
-15.0602
-14.6372
-13.2396
-11.4614
-11.3933
-10.6583
-9.8678
-9.24827
-7.76964
-5.7237
-3.87687
-2.02304
-0.571245
-0.25572
0.00405589
-0.514728
-1.71638
-2.8872
-4.12079
-5.84446
-7.11024
-8.06434
-8.17947
-6.53786
-4.42483
-3.19903
-2.48919
-1.83547
-1.24873
0.29166
1.88356
1.50085
1.01505
0.396518
-0.064072
42.7703
39.9427
36.6636
21.5096
35.5305
33.1087
24.5627
14.1274
30.5833
31.0273
26.5329
20.1339
29.6685
29.9969
26.5627
20.0137
-27.8745
-53.8588
-0.885807
-5.8507
11.2898
2.24996
11.4428
2.20728
-23.8437
-9.31258
-14.7742
-17.3429
-0.466864
-2.5836
-8.83177
-13.7561
-5.68895
-11.7347
-15.5942
-17.5529
-5.17575
-10.2236
-12.9523
-14.1548
-15.146
-17.7282
-16.6951
-15.2396
-14.2809
-13.5956
-12.8448
-10.5506
-9.6614
-10.6696
-11.97
-11.8489
-10.8269
-8.99303
-6.27647
-3.07317
0.253558
2.70799
3.94506
3.21233
1.68757
-0.0894917
-2.48281
-4.60705
-7.0969
-8.38283
-8.15302
-7.75033
-6.04563
-4.39961
-3.4201
-4.24822
-4.52499
-2.11465
1.76969
4.79232
4.79681
2.73794
0.368487
-0.761654
-16.6905
-17.3913
-16.4096
-15.5628
-14.3955
-13.1586
-13.0387
-12.723
-11.6175
-11.0588
-11.2519
-10.8587
-9.32552
-7.30079
-5.13038
-3.19636
-1.38506
-0.388111
0.61589
0.867986
-0.112051
-1.3911
-3.11575
-4.58984
-6.10434
-6.92435
-7.00495
-6.48303
-5.01344
-3.69469
-2.84228
-3.14485
-3.47173
-3.14561
-0.821969
0.973926
1.21852
0.465116
-0.385505
-0.473457
-17.9712
-17.4637
-16.3784
-15.2715
-14.1674
-12.9594
-12.221
-11.9531
-11.445
-10.7007
-9.95901
-9.19386
-8.02712
-6.80603
-5.52834
-4.0554
-2.37883
-0.733498
0.167873
0.378334
-0.390432
-1.55374
-2.65939
-3.5739
-4.17355
-4.8725
-5.10565
-5.04832
-4.54525
-3.88393
-3.4816
-3.24657
-2.86885
-1.476
-0.11398
1.12223
1.55388
1.22201
0.678029
0.12421
-14.7672
-15.0108
-15.0265
-14.502
-13.843
-13.1209
-12.3378
-11.81
-11.3562
-10.8767
-10.0354
-9.12024
-7.99119
-6.62718
-5.36323
-4.12132
-2.80787
-1.08374
-0.14096
0.0308204
-0.71029
-1.83828
-2.65236
-3.21276
-3.56074
-4.23348
-4.7921
-4.83144
-4.33945
-3.57036
-3.15768
-2.80342
-2.43219
-1.55689
-0.320366
0.747945
1.25156
1.02122
0.529377
0.151939
)
;

boundaryField
{
    inlet
    {
        type            zeroGradient;
    }
    outlet
    {
        type            fixedValue;
        value           uniform 0;
    }
    obstacle
    {
        type            zeroGradient;
    }
    upperWall
    {
        type            zeroGradient;
    }
    lowerWall
    {
        type            zeroGradient;
    }
    frontAndBack
    {
        type            empty;
    }
}


// ************************************************************************* //
