/*--------------------------------*- C++ -*----------------------------------*\
  =========                 |
  \\      /  F ield         | OpenFOAM: The Open Source CFD Toolbox
   \\    /   O peration     | Website:  https://openfoam.org
    \\  /    A nd           | Version:  10
     \\/     M anipulation  |
\*---------------------------------------------------------------------------*/
FoamFile
{
    format      ascii;
    class       surfaceScalarField;
    location    "8.875";
    object      phi;
}
// * * * * * * * * * * * * * * * * * * * * * * * * * * * * * * * * * * * * * //

dimensions      [0 3 -1 0 0 0 0];

internalField   nonuniform List<scalar> 
928
(
0.0958921
0.00410794
0.103779
-0.00788671
0.106752
-0.00297336
-0.00993629
0.116688
0.0946741
0.00943386
0.105776
-0.0189888
0.102735
6.79454e-05
-0.0198643
0.112663
0.095798
0.0136358
0.109192
-0.0323827
0.104134
0.0051257
-0.041007
0.125277
0.103389
0.0102473
0.0931636
-0.0221577
0.0985088
-0.000219517
0.146859
-0.0893576
0.111311
0.0053776
-0.0165808
0.127892
0.109193
0.0088473
-0.0414078
0.13402
0.127063
0.00706153
-0.0469333
0.132588
0.153921
0.106988
0.12715
0.000741414
0.127548
-0.000397496
0.128851
-0.0013029
-0.00165579
0.130506
0.134987
-0.000225163
0.134676
-8.64373e-05
0.134842
-0.00146882
-0.00315164
0.136338
0.13489
-0.00252677
0.136181
-0.00137726
0.14044
-0.00572876
-0.000278159
0.137567
0.113819
-0.00935846
0.0944612
0.0179809
0.0909576
-0.00222515
0.0932789
-0.00259944
0.131983
-0.00147715
0.132401
-0.000417904
0.132985
-0.000584081
0.132538
0.000447667
0.131686
0.000851684
0.129768
0.00191822
0.128272
0.00149545
0.12638
0.00189269
0.124409
0.00197095
0.122788
0.00162111
0.120818
0.00197011
0.120106
0.000711648
0.119766
0.000339513
0.121002
-0.00123569
0.121686
-0.000683998
0.12195
-0.000264196
0.121223
0.00072772
0.119187
0.00203588
0.116787
0.00239983
0.113286
0.00350104
0.110337
0.00294839
0.107303
0.00303453
0.105593
0.00170984
0.104881
0.000712513
0.105173
-0.000292817
0.10684
-0.00166626
0.108674
-0.00183393
0.111597
-0.00292356
0.114079
-0.00248212
0.116675
-0.00259558
0.11861
-0.00193549
0.119385
-0.000774503
0.118981
0.000403992
0.116661
0.00231978
0.11351
0.00315137
0.109027
0.00448284
0.104992
0.00403476
0.101349
0.00364333
0.0986856
0.00266304
0.000751774
0.136951
-0.00209086
0.137932
-0.00139871
0.13898
-0.00163191
0.139405
2.21869e-05
0.138946
0.00131088
0.137988
0.00287603
0.137342
0.00214143
0.135806
0.00342867
0.133894
0.00388285
0.131635
0.00388093
0.129639
0.00396568
0.129473
0.000877476
0.129957
-0.000144039
0.131325
-0.00260345
0.132571
-0.00193054
0.133893
-0.00158631
0.134031
0.000589847
0.132899
0.00316756
0.131216
0.00408363
0.128288
0.00642837
0.125792
0.00544452
0.12301
0.00581653
0.12107
0.00364985
0.120564
0.00121829
0.120652
-0.000380991
0.121953
-0.00296672
0.123459
-0.00334028
0.126056
-0.00552078
0.128088
-0.00451357
0.130491
-0.00499878
0.132828
-0.00427268
0.134273
-0.00221895
0.135536
-0.000859262
0.134813
0.00304249
0.133533
0.00443215
0.130837
0.00717816
0.127694
0.00717844
0.124961
0.00637609
0.121578
0.00604608
0.00235738
0.135657
-0.000180689
0.136858
-0.0026004
0.137004
-0.00177695
0.137172
-0.000146558
0.13748
0.00100306
0.140082
0.000273844
0.139613
0.00261022
0.137475
0.00556707
0.134921
0.00643647
0.133096
0.00570622
0.132534
0.00452764
0.131183
0.00222892
0.13046
0.000578917
0.130264
-0.0024075
0.131476
-0.00314278
0.133276
-0.00338579
0.135693
-0.00182773
0.137995
0.000865635
0.138131
0.00394757
0.137618
0.00694128
0.135676
0.00738646
0.134911
0.00658147
0.134249
0.00431254
0.133133
0.00233359
0.131774
0.000977891
0.12947
-0.000662742
0.126706
-0.000575539
0.123563
-0.00237847
0.121064
-0.00201424
0.12052
-0.00445509
0.121157
-0.00490956
0.123262
-0.00432341
0.126838
-0.00443567
0.130409
-0.000528728
0.133266
0.00157527
0.134838
0.00560606
0.135248
0.00676881
0.134778
0.0068463
0.134006
0.00681737
0.00319399
0.0934257
-0.000327518
0.0919282
-0.00110284
0.092192
-0.00204074
0.0920763
-3.08507e-05
0.0897966
0.00328275
0.0966745
-0.00660412
0.098856
0.000428727
0.0950997
0.00932337
0.0949911
0.00654506
0.0925989
0.00809848
0.0881272
0.00899931
0.0830533
0.00730283
0.0794793
0.00415293
0.0783593
-0.00128748
0.0805016
-0.00528516
0.0843434
-0.00722756
0.0905923
-0.00807664
0.0976154
-0.00615747
0.104001
-0.00243773
0.109435
0.00150654
0.112467
0.00435523
0.110695
0.00835273
0.10329
0.0117179
0.0914023
0.0142214
0.077917
0.0144632
0.0660609
0.0111934
0.0581744
0.00731092
0.053846
0.00194993
0.0548517
-0.00301998
0.0582741
-0.00787744
0.0638129
-0.0104484
0.0708538
-0.0113644
0.0785529
-0.0121348
0.087345
-0.00932079
0.0954443
-0.00652401
0.104225
-0.00317505
0.1106
0.00039465
0.113933
0.00351244
0.116459
0.00429166
0.00245451
0.110608
-0.000360334
0.0884057
4.42126e-05
0.0890764
-0.000890209
-0.000281253
0.109645
-0.0100055
0.0882383
0.021451
0.0871281
0.000219946
0.0868469
-0.00555925
-0.00379921
-0.0268938
0.0393154
-0.0204171
-0.00870187
-0.0421342
0.0191177
-0.00541682
0.00161761
0.0174623
0.0164363
0.016388
-0.00762763
-0.014211
-0.0115352
-0.0039488
0.022739
0.000917015
-0.00596865
0.0101159
-0.0112397
0.00113989
0.00894521
-0.0021145
0.00653713
0.00142577
-0.0101444
0.00699773
-0.00514324
0.00913043
0.00719066
0.00526329
0.0104122
0.00592142
0.00744035
0.00881636
0.00610436
0.0119416
0.00417755
0.0149991
0.00109546
0.0181609
-0.00444929
0.0219728
-0.00909699
0.0260073
-0.0112621
0.030012
-0.0120813
0.0337814
-0.00992682
0.0365611
-0.00521751
0.0380173
5.03502e-05
0.0372015
0.00517109
0.0340367
0.0115175
0.0306926
0.015062
0.0269596
0.0179544
0.0243992
0.0170236
0.0238111
0.0117815
0.024212
0.00691005
0.0252664
0.000895489
0.0272764
-0.00502997
0.0293196
-0.00992063
0.0308595
-0.0119883
0.0333424
-0.0138472
0.0360179
-0.0148102
0.0398176
-0.0131205
0.0440788
-0.0107852
0.047834
-0.0069303
0.0496414
-0.00141272
0.0498035
0.00335035
0.0497088
0.00438633
0.00214172
-0.00576842
0.0142964
-0.00300071
-0.00873636
-0.0109772
-0.00326314
-0.00642109
0.00438906
0.00449618
-0.00438014
-0.000377629
-0.00527059
-0.00326071
-0.00226016
0.0037941
0.000135859
0.0116584
0.00254791
0.0174859
0.00161287
0.0216879
0.00190231
0.0248194
0.00104606
0.0283016
-0.00238676
0.0301006
-0.0062482
0.0299727
-0.00896914
0.0293812
-0.0106706
0.028051
-0.0107512
0.0264723
-0.0083481
0.0268255
-0.00557066
0.0278722
-0.000996351
0.0284942
0.00454905
0.031291
0.00872066
0.0346868
0.0116662
0.0399343
0.0127069
0.0459328
0.011025
0.0508446
0.00686974
0.0550631
0.00269156
0.0594032
-0.00344458
0.0605098
-0.00613657
0.0579984
-0.00740926
0.0545044
-0.00849435
0.0490036
-0.00834641
0.0422859
-0.00809249
0.037823
-0.0086576
0.0360184
-0.0089806
0.0350953
-0.00600725
0.035299
-0.00161637
0.0374745
0.00117484
0.0382911
0.00356971
0.00147344
0.103295
-0.0133006
0.0943219
0.0304242
0.0994209
-0.00487906
0.0399947
0.146273
0.0960699
-0.00937052
0.1077
0.0187942
0.103195
-0.000374378
0.0195753
0.123615
0.0948761
-0.00424664
0.105987
0.00768349
0.102507
0.00310594
0.00971151
0.11237
0.0957534
0.103437
0.106543
0.116254
0.154946
-0.00867332
0.0460335
0.108913
0.123771
-0.00882997
0.0419096
0.127895
0.108493
-0.00495285
0.0165484
0.133854
0.111301
0.12785
0.106826
0.00370453
0.116005
0.00725698
0.108659
-0.000281414
-0.00145186
0.0985759
0.131331
0.000268484
0.137422
0.00116637
0.133677
0.00346356
0.0012291
0.130996
0.133887
0.000235465
0.1345
0.000553877
0.136363
0.00159995
0.00119568
0.136397
0.128085
0.128639
0.130239
0.131435
0.110796
0.00207627
0.101496
0.000563158
0.0985625
-0.000329157
0.102471
0.000480687
0.0990368
-0.000946134
0.0945075
-0.000741201
0.0932796
-0.00103233
0.0933228
9.27041e-05
0.0945453
0.00132543
0.0958482
0.000309949
0.0997532
-0.00200268
0.105494
-0.00469513
0.110373
-0.00726554
0.113374
-0.00924926
0.113403
-0.00899836
0.109853
-0.00711988
0.103552
-0.00445025
0.0965845
-0.00138083
0.0888137
0.00220016
0.0825289
0.00528843
0.0803619
0.00671614
0.0803893
0.00869324
0.0843856
0.00766985
0.0901467
0.00694583
0.0973296
0.00384212
0.105354
-0.00115434
0.112816
-0.0047711
0.119105
-0.00973349
0.125061
-0.0120924
0.13249
-0.0148384
0.138728
-0.0147324
0.14442
-0.0140384
0.145931
-0.00960293
0.1398
-0.00252706
0.126995
0.00382407
0.111589
0.00939946
0.0996506
0.0103218
0.0919823
0.00884305
0.0889406
0.00661142
0.00171926
0.132316
0.000756445
0.132762
0.000116526
0.133046
-0.000612459
0.133876
-0.000349597
0.133973
-0.00104295
0.132999
0.000232605
0.132675
-0.000708769
0.133105
-0.000337165
0.134985
-0.000554122
0.135935
-0.000639936
0.136007
-0.00207485
0.135821
-0.00450955
0.133863
-0.00530746
0.131424
-0.00680945
0.128295
-0.00587018
0.126336
-0.00516008
0.12414
-0.00225435
0.122047
0.000711867
0.121582
0.00266519
0.121149
0.00572143
0.122549
0.0053165
0.124619
0.00662235
0.127406
0.00488316
0.130804
0.00354775
0.134317
0.000329447
0.137087
-0.00392432
0.138044
-0.00572845
0.13658
-0.00826941
0.131858
-0.00737045
0.125064
-0.00804413
0.117576
-0.00724483
0.110738
-0.00720012
0.106983
-0.00584777
0.105123
-0.00066669
0.106069
0.00287782
0.107871
0.00759716
0.110199
0.00799423
0.112327
0.00671489
0.114193
0.00474569
0.000190297
0.136391
0.000762589
0.136531
-2.34252e-05
0.136567
-0.000649095
0.13648
-0.000262104
0.136439
-0.00100251
0.136743
-7.06014e-05
0.13628
-0.00024649
0.136172
-0.000228477
0.136449
-0.000831256
0.136674
-0.0008647
0.135674
-0.00107541
0.133584
-0.00241941
0.13116
-0.00288352
0.128254
-0.0039035
0.125405
-0.00302092
0.12281
-0.00256524
0.121508
-0.000952026
0.121635
0.000584554
0.123025
0.00127528
0.125757
0.00298948
0.128497
0.00257603
0.131838
0.00328176
0.134656
0.00206502
0.137033
0.00117101
0.137715
-0.000352829
0.136226
-0.002435
0.13403
-0.0035322
0.130813
-0.00505306
0.128047
-0.00460412
0.124651
-0.00464804
0.120914
-0.00350804
0.116211
-0.00249673
0.112035
-0.00167238
0.110331
0.00103726
0.110847
0.00236209
0.113958
0.00448667
0.117947
0.00400447
0.121629
0.00303332
0.124878
0.00149633
-0.00098147
0.132197
0.132174
0.131525
0.131263
0.13026
0.13019
0.129943
0.129715
0.128884
0.128019
0.126943
0.124524
0.12164
0.117737
0.114716
0.112151
0.111199
0.111783
0.113059
0.116048
0.118624
0.121906
0.123971
0.125142
0.124789
0.122354
0.118822
0.113769
0.109165
0.104517
0.101009
0.0985119
0.0968395
0.0978768
0.100239
0.104726
0.10873
0.111763
0.11326
)
;

boundaryField
{
    inlet
    {
        type            calculated;
        value           nonuniform List<scalar> 10(-0.1 -0.1 -0.1 -0.1 -0.1 -0.1 -0.1 -0.1 -0.1 -0.1);
    }
    outlet
    {
        type            calculated;
        value           nonuniform List<scalar> 10(0.0979339 0.119972 0.13317 0.117199 0.0500216 0.0389594 0.0886948 0.115722 0.12605 0.112278);
    }
    obstacle
    {
        type            calculated;
        value           uniform 0;
    }
    upperWall
    {
        type            calculated;
        value           uniform 0;
    }
    lowerWall
    {
        type            calculated;
        value           uniform 0;
    }
    frontAndBack
    {
        type            empty;
        value           nonuniform List<scalar> 0();
    }
}


// ************************************************************************* //
