/*--------------------------------*- C++ -*----------------------------------*\
  =========                 |
  \\      /  F ield         | OpenFOAM: The Open Source CFD Toolbox
   \\    /   O peration     | Website:  https://openfoam.org
    \\  /    A nd           | Version:  10
     \\/     M anipulation  |
\*---------------------------------------------------------------------------*/
FoamFile
{
    format      ascii;
    class       surfaceScalarField;
    location    "3.4";
    object      phi;
}
// * * * * * * * * * * * * * * * * * * * * * * * * * * * * * * * * * * * * * //

dimensions      [0 3 -1 0 0 0 0];

internalField   nonuniform List<scalar> 
760
(
-1.04541e-05
1.04541e-05
-3.06811e-05
2.02271e-05
-5.25067e-05
2.18256e-05
-7.36493e-05
2.11426e-05
-9.33969e-05
1.97476e-05
-0.000111294
1.78973e-05
-0.000126904
1.56098e-05
-0.000139778
1.28744e-05
-0.000149462
9.68391e-06
-0.000155505
6.04235e-06
-0.000157474
1.96934e-06
-0.000154979
-2.49448e-06
-0.000147722
-7.25703e-06
-0.000135541
-1.21813e-05
-0.000118465
-1.70763e-05
-9.67761e-05
-2.16888e-05
-7.11139e-05
-2.56621e-05
-4.28034e-05
-2.83105e-05
-1.53762e-05
-2.74273e-05
-1.53762e-05
-2.08971e-05
3.13512e-05
-5.53052e-05
5.46351e-05
-9.16622e-05
5.81826e-05
-0.000126646
5.61264e-05
-0.000159058
5.21596e-05
-0.000188097
4.69365e-05
-0.000213037
4.05499e-05
-0.000233182
3.30188e-05
-0.000247862
2.43647e-05
-0.000256446
1.4626e-05
-0.000258359
3.88185e-06
-0.000253132
-7.72162e-06
-0.000240388
-2.00007e-05
-0.000219994
-3.25751e-05
-0.000192091
-4.49795e-05
-0.000157185
-5.65945e-05
-0.000116293
-6.65543e-05
-7.14187e-05
-7.31847e-05
-2.7533e-05
-7.13131e-05
-4.29091e-05
-2.39995e-05
5.53507e-05
-6.28795e-05
9.35151e-05
-0.000103755
9.90585e-05
-0.000142993
9.5364e-05
-0.000179297
8.84634e-05
-0.000211797
7.94368e-05
-0.000239706
6.84591e-05
-0.000262274
5.5586e-05
-0.00027878
4.08715e-05
-0.000288551
2.4397e-05
-0.000290977
6.30717e-06
-0.000285416
-1.32819e-05
-0.000271484
-3.3933e-05
-0.000248964
-5.50949e-05
-0.000217921
-7.60228e-05
-0.000178826
-9.56895e-05
-0.000132736
-0.000112644
-8.18553e-05
-0.000124066
-3.17813e-05
-0.000121387
-7.46904e-05
-2.55071e-05
8.08578e-05
-6.69346e-05
0.000134943
-0.000110453
0.000142576
-0.000152245
0.000137156
-0.000190987
0.000127205
-0.000225797
0.000114247
-0.000255876
9.8538e-05
-0.000280454
8.01647e-05
-0.000298783
5.92005e-05
-0.000310132
3.57451e-05
-0.000313806
9.98167e-06
-0.000309085
-1.80026e-05
-0.000295347
-4.76713e-05
-0.000272177
-7.82647e-05
-0.000239447
-0.000108753
-0.000197464
-0.000137672
-0.000147221
-0.000162887
-9.11027e-05
-0.000180184
-3.54268e-05
-0.000177063
-0.000110117
-2.71459e-05
0.000108004
-7.14153e-05
0.000179212
-0.000117937
0.000189098
-0.000162679
0.000181898
-0.000204286
0.000168812
-0.000241876
0.000151837
-0.000274651
0.000131313
-0.000301834
0.000107348
-0.000322648
8.00144e-05
-0.000336298
4.93954e-05
-0.000341968
1.56513e-05
-0.000338789
-2.11811e-05
-0.000325871
-6.05897e-05
-0.00030247
-0.000101665
-0.000268084
-0.000143139
-0.00022269
-0.000183067
-0.000167113
-0.000218464
-0.000103949
-0.000243348
-4.05683e-05
-0.000240444
-0.000150685
-2.92623e-05
0.000137266
-7.71524e-05
0.000227102
-0.000127499
0.000239445
-0.00017599
0.000230389
-0.000221235
0.000214057
-0.000262361
0.000192963
-0.000298586
0.000167539
-0.000329143
0.000137905
-0.00035324
0.000104111
-0.000370025
6.61796e-05
-0.000378555
2.4182e-05
-0.000377773
-2.19631e-05
-0.00036641
-7.19527e-05
-0.000343264
-0.000124811
-0.000307253
-0.00017915
-0.000257759
-0.000232562
-0.000195211
-0.000281012
-0.000122368
-0.000316191
-4.80913e-05
-0.00031472
-0.000198777
-3.1931e-05
0.000169197
-8.43392e-05
0.00027951
-0.000139427
0.000294533
-0.000192532
0.000283494
-0.000242231
0.000263755
-0.000287677
0.000238409
-0.000328132
0.000207994
-0.00036287
0.000172643
-0.000391119
0.00013236
-0.000411996
8.70568e-05
-0.000424447
3.66324e-05
-0.000427223
-1.91861e-05
-0.000418577
-8.05996e-05
-0.000396678
-0.00014671
-0.000359575
-0.000216253
-0.000305629
-0.000286507
-0.000234416
-0.000352225
-0.000148608
-0.000401999
-5.91146e-05
-0.000404214
-0.000257891
-3.51992e-05
0.000204396
-9.30994e-05
0.00033741
-0.000153891
0.000355325
-0.000212487
0.00034209
-0.000267439
0.000318707
-0.000317957
0.000288927
-0.000363391
0.000253427
-0.000403109
0.000212362
-0.000436419
0.000165671
-0.000462472
0.000113109
-0.000480149
5.43094e-05
-0.000488063
-1.12722e-05
-0.000483914
-8.47486e-05
-0.000465077
-0.000165547
-0.000428346
-0.000252983
-0.000370414
-0.00034444
-0.000289109
-0.00043353
-0.000186343
-0.000504765
-7.56767e-05
-0.00051488
-0.000333568
-3.91419e-05
0.000243538
-0.000103608
0.000401876
-0.000171115
0.000422831
-0.000236074
0.00040705
-0.000297031
0.000379664
-0.000353299
0.000345195
-0.000404375
0.000304503
-0.000449803
0.00025779
-0.000489069
0.000204936
-0.00052146
0.0001455
-0.000545881
7.87307e-05
-0.000561046
3.89309e-06
-0.000563971
-8.18233e-05
-0.000551223
-0.000178296
-0.000517886
-0.00028632
-0.000458054
-0.000404272
-0.000366272
-0.000525312
-0.000242007
-0.00062903
-0.000101849
-0.000655038
-0.000435417
-4.38927e-05
0.000287431
-0.000116149
0.000474132
-0.000191446
0.000498129
-0.000263619
0.000479223
-0.000331244
0.000447288
-0.000393802
0.000407753
-0.000451023
0.000361725
-0.000502734
0.000309501
-0.000548731
0.000250933
-0.00058863
0.000185399
-0.000621656
0.000111756
-0.000646197
2.84341e-05
-0.000659942
-6.80783e-05
-0.000658041
-0.000180196
-0.000633622
-0.000310738
-0.000577056
-0.000460839
-0.000477194
-0.000625174
-0.000327498
-0.000778725
-0.000146404
-0.000836132
-0.000581821
-4.96908e-05
0.000337122
-0.000131191
0.000555633
-0.000215434
0.000582371
-0.000295617
0.000559406
-0.000370425
0.000522096
-0.000439598
0.000476926
-0.000503203
0.00042533
-0.000561472
0.000367769
-0.000614673
0.000304134
-0.00066296
0.000233686
-0.000706127
0.000154923
-0.00074314
6.54468e-05
-0.000772199
-3.90194e-05
-0.000787995
-0.0001644
-0.000781809
-0.000316925
-0.000739285
-0.000503364
-0.000640248
-0.00072421
-0.000466121
-0.000952852
-0.00022977
-0.00107248
-0.000811591
-5.69711e-05
0.000394093
-0.000149519
0.000648181
-0.000243944
0.000676796
-0.000332827
0.000648289
-0.000415103
0.000604372
-0.000490898
0.000552722
-0.000560735
0.000495167
-0.000625376
0.000432411
-0.000685734
0.000364492
-0.000742764
0.000290717
-0.00079727
0.000209429
-0.000849436
0.000117613
-0.000898939
1.04834e-05
-0.000941571
-0.000121768
-0.000968285
-0.000290211
-0.000960308
-0.00051134
-0.0008853
-0.000799219
-0.000703733
-0.00113442
-0.000401871
-0.00137435
-0.00121346
-6.65686e-05
0.000460661
-0.000172458
0.00075407
-0.000278326
0.000782664
-0.000376391
0.000746355
-0.00046608
0.000694061
-0.00054807
0.000634711
-0.000623457
0.000570554
-0.000693644
0.000502597
-0.00076031
0.000431158
-0.000825434
0.000355841
-0.000891299
0.000275294
-0.000960288
0.000186602
-0.00103448
8.46791e-05
-0.00111494
-4.13099e-05
-0.00119506
-0.000210088
-0.00125699
-0.000449411
-0.00125645
-0.000799767
-0.00111728
-0.00127358
-0.000749901
-0.00174173
-0.00196336
-8.01589e-05
0.00054082
-0.000202487
0.000876398
-0.000320746
0.000900923
-0.000427959
0.000853568
-0.000524505
0.000790608
-0.000611728
0.000721934
-0.000691356
0.000650182
-0.000765476
0.000576717
-0.000836567
0.000502249
-0.000907738
0.000427011
-0.00098314
0.000350696
-0.00106827
0.000271733
-0.00116956
0.000185972
-0.00129454
8.36702e-05
-0.00145107
-5.35651e-05
-0.00163354
-0.000266936
-0.00179321
-0.000640102
-0.00178292
-0.00128387
-0.0013414
-0.00218324
-0.00330477
-9.78254e-05
0.000638646
-0.000240783
0.00101936
-0.000373455
0.0010336
-0.000490343
0.000970456
-0.000592663
0.000892927
-0.000683136
0.000812407
-0.000764696
0.000731742
-0.000840103
0.000652125
-0.000912298
0.000574444
-0.000984894
0.000499607
-0.00106321
0.000429012
-0.00115576
0.000364279
-0.00127681
0.000307026
-0.00144783
0.000254691
-0.00169532
0.000193925
-0.002038
7.57413e-05
-0.00243633
-0.00024177
-0.00257078
-0.00114941
-0.00193205
-0.00282198
-0.00523682
-0.000155512
0.000794158
-0.000312458
0.0011763
-0.000446728
0.00116787
-0.000562587
0.00108631
-0.000665827
0.000996167
-0.000757963
0.000904543
-0.000840531
0.000814309
-0.000915285
0.000726879
-0.000985035
0.000644195
-0.00105356
0.000568131
-0.00112737
0.000502827
-0.00121626
0.000453162
-0.00133866
0.000429432
-0.00152491
0.000440941
-0.00182164
0.000490655
-0.00224503
0.000499127
-0.00274866
0.000261858
-0.00288741
-0.00101066
-0.0019734
-0.00373598
-0.00721022
-0.00011672
0.000910877
-0.000342708
0.00140229
-0.000522874
0.00134803
-0.000664207
0.00122765
-0.000773802
0.00110576
-0.000859169
0.00098991
-0.000927379
0.000882519
-0.000983559
0.000783059
-0.00103195
0.000692583
-0.00107466
0.000610838
-0.00111603
0.000544202
-0.00116163
0.000498758
-0.00122608
0.000493881
-0.00133332
0.000548188
-0.00153495
0.000692283
-0.00182417
0.000788348
-0.00222509
0.000662773
-0.00228611
-0.000949637
-0.00140367
-0.00461842
-0.00861389
-0.000397982
0.00130886
-0.000535634
0.00153994
-0.000656443
0.00146884
-0.000763292
0.0013345
-0.000826305
0.00116878
-0.000856997
0.0010206
-0.00086625
0.000891773
-0.000860108
0.000776917
-0.0008458
0.000678275
-0.000823554
0.000588593
-0.000799579
0.000520227
-0.000769366
0.000468545
-0.000736417
0.000460932
-0.000684584
0.000496355
-0.000612746
0.000620445
-0.000505339
0.000680941
-0.000312006
0.000469439
-0.000319381
-0.000942261
-6.19565e-05
-0.00487585
-0.00867585
-0.0012931
0.00260195
-0.00122104
0.00146788
-0.000977419
0.00122522
-0.000640865
0.000997942
-0.00029146
0.000819371
4.56214e-05
0.00068352
0.000356381
0.000581013
0.000638974
0.000494324
0.000891719
0.00042553
0.0011169
0.000363414
0.00132492
0.000312202
0.0015141
0.000279366
0.00172815
0.000246887
0.00197044
0.000254061
0.00235439
0.0002365
0.00284678
0.000188548
0.00338518
-6.89617e-05
0.00347558
-0.00103266
0.00222316
-0.00362342
-0.00645269
0.00260195
0.00406984
0.00529506
0.006293
0.00711237
0.00779589
0.00837691
0.00887123
0.00929676
0.00966017
0.00997238
0.0102517
0.0104986
0.0107527
0.0109892
0.0111777
0.0111088
0.0100761
0.00645269
)
;

boundaryField
{
    movingWall
    {
        type            calculated;
        value           uniform 0;
    }
    fixedWalls
    {
        type            calculated;
        value           uniform 0;
    }
    frontAndBack
    {
        type            empty;
        value           nonuniform List<scalar> 0();
    }
}


// ************************************************************************* //
