/*--------------------------------*- C++ -*----------------------------------*\
  =========                 |
  \\      /  F ield         | OpenFOAM: The Open Source CFD Toolbox
   \\    /   O peration     | Website:  https://openfoam.org
    \\  /    A nd           | Version:  10
     \\/     M anipulation  |
\*---------------------------------------------------------------------------*/
FoamFile
{
    format      ascii;
    class       volVectorField;
    location    "7.775";
    object      U;
}
// * * * * * * * * * * * * * * * * * * * * * * * * * * * * * * * * * * * * * //

dimensions      [0 1 -1 0 0 0 0];

internalField   nonuniform List<vector> 
400
(
(-0.000143612 0.00012909 0)
(-0.00108138 0.000404826 0)
(-0.00266613 0.000504846 0)
(-0.0042837 0.00053565 0)
(-0.00594583 0.000549126 0)
(-0.00761305 0.000561476 0)
(-0.0092682 0.000571887 0)
(-0.0108871 0.000573773 0)
(-0.0124274 0.000558284 0)
(-0.0138252 0.000514755 0)
(-0.0149916 0.000431037 0)
(-0.01581 0.000294907 0)
(-0.0161405 9.74116e-05 0)
(-0.0158271 -0.000170379 0)
(-0.0147247 -0.000496631 0)
(-0.0127406 -0.000848161 0)
(-0.00990468 -0.0011566 0)
(-0.00649919 -0.0013148 0)
(-0.00273318 -0.0011764 0)
(-0.000377231 -0.000474435 0)
(-0.000460631 0.00109952 0)
(-0.00241453 0.0022935 0)
(-0.00540548 0.00273078 0)
(-0.00845063 0.00285784 0)
(-0.0115413 0.00287911 0)
(-0.0145916 0.00286073 0)
(-0.0175502 0.00280434 0)
(-0.02036 0.00268802 0)
(-0.0229407 0.00248013 0)
(-0.025183 0.00214274 0)
(-0.0269444 0.00163426 0)
(-0.0280467 0.000913767 0)
(-0.0282908 -5.12447e-05 0)
(-0.027457 -0.00126046 0)
(-0.0253431 -0.00265793 0)
(-0.0218349 -0.00410468 0)
(-0.0170038 -0.00533737 0)
(-0.011281 -0.00594465 0)
(-0.00501132 -0.00537457 0)
(-0.000871231 -0.00260197 0)
(-0.000598857 0.00283334 0)
(-0.00302064 0.00535706 0)
(-0.00665537 0.00626754 0)
(-0.0103277 0.00651092 0)
(-0.014031 0.00650624 0)
(-0.0176636 0.00638977 0)
(-0.0211655 0.00617061 0)
(-0.0244732 0.0058107 0)
(-0.0274993 0.00525174 0)
(-0.0301264 0.00442257 0)
(-0.0322014 0.00324517 0)
(-0.0335333 0.00164429 0)
(-0.0338868 -0.000435181 0)
(-0.0329911 -0.0029941 0)
(-0.030586 -0.00592507 0)
(-0.0264855 -0.0089522 0)
(-0.0207145 -0.011542 0)
(-0.0137652 -0.0128283 0)
(-0.00604373 -0.0116635 0)
(-0.000998622 -0.00593322 0)
(-0.000643319 0.00468023 0)
(-0.00326117 0.0086273 0)
(-0.00718349 0.0100213 0)
(-0.0111316 0.0103688 0)
(-0.0151129 0.0103274 0)
(-0.019027 0.0101085 0)
(-0.0228222 0.00972978 0)
(-0.0264451 0.00913827 0)
(-0.0298195 0.00824946 0)
(-0.0328372 0.00695653 0)
(-0.0353469 0.00513738 0)
(-0.0371448 0.00266983 0)
(-0.037969 -0.000542294 0)
(-0.037476 -0.00453139 0)
(-0.0352739 -0.00917822 0)
(-0.0310095 -0.0140821 0)
(-0.024539 -0.0183954 0)
(-0.0163716 -0.0206434 0)
(-0.00696711 -0.0188355 0)
(-0.000984233 -0.00948549 0)
(-0.000648547 0.0066093 0)
(-0.00334801 0.0120635 0)
(-0.0074158 0.0139665 0)
(-0.0115123 0.0144283 0)
(-0.0156614 0.0143648 0)
(-0.019773 0.014069 0)
(-0.0238135 0.0135705 0)
(-0.0277518 0.0128035 0)
(-0.0315362 0.0116574 0)
(-0.0350819 0.00998605 0)
(-0.0382522 0.00761087 0)
(-0.0408385 0.00433444 0)
(-0.0425364 -2.624e-05 0)
(-0.0429105 -0.00557136 0)
(-0.0413826 -0.0122459 0)
(-0.0373052 -0.0195626 0)
(-0.0301881 -0.026304 0)
(-0.0203956 -0.0301239 0)
(-0.00833714 -0.0276497 0)
(-0.000875443 -0.0134971 0)
(-0.000640042 0.0085632 0)
(-0.00338074 0.0155892 0)
(-0.00754669 0.01803 0)
(-0.0117535 0.0186264 0)
(-0.016041 0.0185706 0)
(-0.0203344 0.0182468 0)
(-0.0246263 0.0177017 0)
(-0.0289181 0.0168614 0)
(-0.0331965 0.015592 0)
(-0.0374193 0.0137052 0)
(-0.0414893 0.0109542 0)
(-0.0452151 0.00703672 0)
(-0.0482616 0.0016283 0)
(-0.0501148 -0.00554323 0)
(-0.0499724 -0.0146023 0)
(-0.0467445 -0.0250948 0)
(-0.0392979 -0.0354527 0)
(-0.0273791 -0.0421215 0)
(-0.0108774 -0.0391475 0)
(-0.000674955 -0.0182174 0)
(-0.000625676 0.0105201 0)
(-0.00339396 0.0191755 0)
(-0.00764293 0.0221842 0)
(-0.011945 0.022939 0)
(-0.0163557 0.0229274 0)
(-0.0208185 0.0226361 0)
(-0.0253586 0.0221385 0)
(-0.0300205 0.0213613 0)
(-0.0348461 0.0201547 0)
(-0.0398616 0.0182927 0)
(-0.0450473 0.0154553 0)
(-0.0502828 0.0112112 0)
(-0.0552713 0.00502229 0)
(-0.0594928 -0.0036917 0)
(-0.061963 -0.0153415 0)
(-0.0610654 -0.0298764 0)
(-0.0545626 -0.0457042 0)
(-0.0403234 -0.0579218 0)
(-0.0164951 -0.055314 0)
(-0.000595947 -0.0244555 0)
(-0.00060665 0.0124716 0)
(-0.0033958 0.0228138 0)
(-0.00771908 0.0264189 0)
(-0.0120987 0.0273513 0)
(-0.0166051 0.0274166 0)
(-0.0212012 0.0272183 0)
(-0.0259488 0.0268695 0)
(-0.0309453 0.0263125 0)
(-0.0363063 0.0253999 0)
(-0.0421579 0.0238862 0)
(-0.0486135 0.0213926 0)
(-0.0557222 0.0173598 0)
(-0.0633774 0.011007 0)
(-0.0711805 0.00135824 0)
(-0.0782982 -0.0125968 0)
(-0.0827534 -0.0317804 0)
(-0.0802894 -0.0558194 0)
(-0.0640835 -0.0790788 0)
(-0.0293681 -0.0799285 0)
(-0.00164989 -0.0345025 0)
(-0.00058377 0.0144113 0)
(-0.00339038 0.0264979 0)
(-0.00777903 0.0307196 0)
(-0.012208 0.0318353 0)
(-0.0167615 0.0319952 0)
(-0.02142 0.0319371 0)
(-0.0262823 0.03183 0)
(-0.0315036 0.0316531 0)
(-0.0372863 0.031291 0)
(-0.0438878 0.0305206 0)
(-0.0516163 0.0289574 0)
(-0.060809 0.0259757 0)
(-0.0717751 0.0206216 0)
(-0.0847326 0.0115353 0)
(-0.0995589 -0.00326766 0)
(-0.114012 -0.0268462 0)
(-0.119779 -0.0631883 0)
(-0.101204 -0.107238 0)
(-0.0544762 -0.119124 0)
(-0.00659559 -0.0537747 0)
(-0.000560736 0.0163363 0)
(-0.00338973 0.0302243 0)
(-0.00783779 0.0350661 0)
(-0.0122775 0.036346 0)
(-0.0168068 0.03659 0)
(-0.0214184 0.0366899 0)
(-0.0262438 0.0368888 0)
(-0.031491 0.0372284 0)
(-0.0374479 0.0376656 0)
(-0.0445138 0.0380647 0)
(-0.0532408 0.0381413 0)
(-0.0643843 0.0373768 0)
(-0.0789747 0.0349192 0)
(-0.0983873 0.0293009 0)
(-0.123612 0.0170495 0)
(-0.151265 -0.0103935 0)
(-0.165259 -0.0662206 0)
(-0.142368 -0.144296 0)
(-0.0919125 -0.176465 0)
(-0.0202647 -0.091599 0)
(-0.000546795 0.0182565 0)
(-0.00342246 0.0339994 0)
(-0.00793594 0.039434 0)
(-0.0123424 0.0408203 0)
(-0.0167566 0.0410948 0)
(-0.0211765 0.0413219 0)
(-0.025754 0.0418344 0)
(-0.0307327 0.0427607 0)
(-0.0364606 0.0441741 0)
(-0.0434488 0.0461062 0)
(-0.0524634 0.0485224 0)
(-0.06466 0.0512849 0)
(-0.0817972 0.0540277 0)
(-0.106497 0.0552495 0)
(-0.140415 0.0481594 0)
(-0.176483 0.0143642 0)
(-0.191379 -0.0696786 0)
(-0.167363 -0.187069 0)
(-0.1289 -0.243702 0)
(-0.0407084 -0.161697 0)
(-0.000561649 0.0202105 0)
(-0.00354689 0.0378671 0)
(-0.0081565 0.0438335 0)
(-0.0124849 0.0452194 0)
(-0.0166803 0.045409 0)
(-0.0207386 0.0456597 0)
(-0.0248164 0.0464054 0)
(-0.02916 0.047875 0)
(-0.0341219 0.0502939 0)
(-0.0402352 0.0539376 0)
(-0.0483322 0.0591713 0)
(-0.0597097 0.0664674 0)
(-0.0762629 0.076022 0)
(-0.100584 0.085287 0)
(-0.133252 0.0819777 0)
(-0.165257 0.0380812 0)
(-0.175112 -0.0710664 0)
(-0.157357 -0.217962 0)
(-0.139054 -0.309486 0)
(-0.0502935 -0.268013 0)
(-0.000635946 0.0222512 0)
(-0.0038433 0.041805 0)
(-0.00862026 0.0481139 0)
(-0.0128468 0.0493066 0)
(-0.0167269 0.0492555 0)
(-0.020245 0.0493852 0)
(-0.0235532 0.0501986 0)
(-0.0268595 0.0520163 0)
(-0.0304341 0.0552043 0)
(-0.0346792 0.0602728 0)
(-0.0402151 0.0679705 0)
(-0.0479508 0.0792524 0)
(-0.0590286 0.0944746 0)
(-0.0745715 0.10914 0)
(-0.0946321 0.10655 0)
(-0.112358 0.0543257 0)
(-0.117653 -0.0664315 0)
(-0.110261 -0.227838 0)
(-0.115149 -0.35653 0)
(-0.0422058 -0.367926 0)
(-0.000867622 0.0246839 0)
(-0.00457075 0.0463967 0)
(-0.00960976 0.0529829 0)
(-0.0136302 0.0537902 0)
(-0.0170433 0.0531619 0)
(-0.0198615 0.0527779 0)
(-0.022198 0.0532398 0)
(-0.0241707 0.0549372 0)
(-0.0259073 0.0583153 0)
(-0.0275605 0.0640025 0)
(-0.0293402 0.0729168 0)
(-0.0313616 0.08605 0)
(-0.0337526 0.103625 0)
(-0.0360467 0.119622 0)
(-0.0394375 0.116955 0)
(-0.0402962 0.0621431 0)
(-0.0432718 -0.0573824 0)
(-0.0453999 -0.215993 0)
(-0.0777337 -0.369669 0)
(-0.0272637 -0.432872 0)
(-0.00122 0.027662 0)
(-0.00544236 0.0503039 0)
(-0.0110491 0.056202 0)
(-0.015089 0.0559577 0)
(-0.0181747 0.0546886 0)
(-0.0202206 0.0539322 0)
(-0.0214034 0.0541337 0)
(-0.0218048 0.0555725 0)
(-0.0214154 0.0586504 0)
(-0.0201153 0.0639621 0)
(-0.0177434 0.0723671 0)
(-0.0135632 0.0845109 0)
(-0.00731147 0.100414 0)
(0.0033191 0.11434 0)
(0.0142339 0.11128 0)
(0.0271157 0.060605 0)
(0.0215263 -0.0484015 0)
(0.0107987 -0.187712 0)
(-0.048619 -0.358605 0)
(-0.0124592 -0.475274 0)
(-0.00329881 0.0302277 0)
(-0.00987361 0.0579407 0)
(-0.0148301 0.0637564 0)
(-0.0178624 0.0629346 0)
(-0.0196524 0.0600254 0)
(-0.020561 0.0575718 0)
(-0.0206038 0.0561457 0)
(-0.0196563 0.0560423 0)
(-0.0174725 0.057571 0)
(-0.0136389 0.0611417 0)
(-0.00779512 0.0673869 0)
(0.00130928 0.0765621 0)
(0.0139972 0.0884437 0)
(0.032666 0.098394 0)
(0.0511695 0.0952201 0)
(0.0713006 0.0551259 0)
(0.0653274 -0.0347959 0)
(0.0526257 -0.14904 0)
(-0.0261962 -0.335123 0)
(0.00284663 -0.498666 0)
(-0.00101507 0.0438556 0)
(-0.00802752 0.0597933 0)
(-0.017996 0.0615335 0)
(-0.0211693 0.0574075 0)
(-0.0234442 0.0542899 0)
(-0.0236753 0.0522161 0)
(-0.0225889 0.0510645 0)
(-0.020094 0.050743 0)
(-0.0160033 0.0514162 0)
(-0.00981964 0.0532938 0)
(-0.00114626 0.0568734 0)
(0.0114485 0.0622788 0)
(0.0277524 0.0691369 0)
(0.050599 0.0741522 0)
(0.0714783 0.0704189 0)
(0.0963535 0.0425247 0)
(0.0882685 -0.0225815 0)
(0.0755668 -0.108688 0)
(-0.00516263 -0.307796 0)
(0.0225671 -0.506199 0)
(-0.0125397 0.032344 0)
(-0.0235987 0.0801279 0)
(-0.022133 0.0797926 0)
(-0.0271846 0.0747476 0)
(-0.0278658 0.0673758 0)
(-0.0267468 0.0612695 0)
(-0.023589 0.0563512 0)
(-0.0186115 0.0525521 0)
(-0.0118602 0.0498841 0)
(-0.00294721 0.0481806 0)
(0.00812699 0.0477441 0)
(0.022642 0.0484352 0)
(0.0395053 0.0506287 0)
(0.0622713 0.0517658 0)
(0.0799716 0.0501984 0)
(0.106022 0.035554 0)
(0.0990141 -0.00329822 0)
(0.107663 -0.0685831 0)
(0.0420988 -0.277177 0)
(0.0588291 -0.492993 0)
(-0.0775789 0.0960931 0)
(-0.0632563 0.0588949 0)
(-0.0655292 0.0599077 0)
(-0.0434297 0.053253 0)
(-0.0259837 0.0463068 0)
(-0.00569625 0.0411528 0)
(0.0134497 0.0373963 0)
(0.0329275 0.0341961 0)
(0.0509693 0.0318815 0)
(0.0705126 0.0297411 0)
(0.0875732 0.0285526 0)
(0.109281 0.0275914 0)
(0.124858 0.0271891 0)
(0.1544 0.0268096 0)
(0.164865 0.0221238 0)
(0.20388 0.0136917 0)
(0.194825 -0.0202369 0)
(0.226439 -0.0758584 0)
(0.155811 -0.25307 0)
(0.125816 -0.434842 0)
(0.119461 0.140809 0)
(0.152166 0.0861576 0)
(0.228662 0.0635632 0)
(0.284114 0.0480923 0)
(0.325486 0.0374314 0)
(0.363748 0.0296444 0)
(0.39241 0.0242147 0)
(0.42363 0.0201718 0)
(0.443451 0.0172235 0)
(0.472064 0.0149996 0)
(0.484754 0.0132345 0)
(0.514271 0.0120047 0)
(0.519635 0.0109195 0)
(0.55253 0.00985954 0)
(0.547724 0.00801129 0)
(0.581003 0.00362538 0)
(0.550439 -0.0057481 0)
(0.556219 -0.027382 0)
(0.421649 -0.0735141 0)
(0.275556 -0.152224 0)
)
;

boundaryField
{
    movingWall
    {
        type            fixedValue;
        value           uniform (1 0 0);
    }
    fixedWalls
    {
        type            noSlip;
    }
    frontAndBack
    {
        type            empty;
    }
}


// ************************************************************************* //
