/*--------------------------------*- C++ -*----------------------------------*\
  =========                 |
  \\      /  F ield         | OpenFOAM: The Open Source CFD Toolbox
   \\    /   O peration     | Website:  https://openfoam.org
    \\  /    A nd           | Version:  10
     \\/     M anipulation  |
\*---------------------------------------------------------------------------*/
FoamFile
{
    format      ascii;
    class       volVectorField;
    location    "7.05";
    object      U;
}
// * * * * * * * * * * * * * * * * * * * * * * * * * * * * * * * * * * * * * //

dimensions      [0 1 -1 0 0 0 0];

internalField   nonuniform List<vector> 
400
(
(-0.00012684 0.000115302 0)
(-0.00098626 0.000371546 0)
(-0.00244188 0.00046331 0)
(-0.00391591 0.000488784 0)
(-0.00541821 0.000496902 0)
(-0.00690906 0.000502405 0)
(-0.00836917 0.000504492 0)
(-0.00977407 0.000497545 0)
(-0.011085 0.00047439 0)
(-0.0122468 0.000426822 0)
(-0.0131856 0.000345949 0)
(-0.0138089 0.000223338 0)
(-0.0140082 5.30586e-05 0)
(-0.0136669 -0.000169773 0)
(-0.012679 -0.000435754 0)
(-0.0109775 -0.000720777 0)
(-0.00858168 -0.000975827 0)
(-0.00570195 -0.00111968 0)
(-0.00247852 -0.00102592 0)
(-0.000385916 -0.000448703 0)
(-0.000416082 0.00100062 0)
(-0.00220438 0.0021042 0)
(-0.00493897 0.00249582 0)
(-0.00769726 0.00259158 0)
(-0.0104713 0.00258514 0)
(-0.0131783 0.00253732 0)
(-0.0157676 0.00245028 0)
(-0.0181855 0.00230675 0)
(-0.0203615 0.00208256 0)
(-0.0222038 0.00174997 0)
(-0.0235974 0.00127957 0)
(-0.0244042 0.000643701 0)
(-0.0244723 -0.000177625 0)
(-0.0236398 -0.00117859 0)
(-0.0217619 -0.0023158 0)
(-0.0187581 -0.00348879 0)
(-0.0146809 -0.00450838 0)
(-0.00985076 -0.00506108 0)
(-0.00450277 -0.0046697 0)
(-0.000846862 -0.0023909 0)
(-0.000539326 0.00257878 0)
(-0.00274534 0.00490044 0)
(-0.00605133 0.00570532 0)
(-0.00936003 0.00587763 0)
(-0.0126668 0.00581401 0)
(-0.015875 0.00563982 0)
(-0.018926 0.00536521 0)
(-0.0217606 0.00496152 0)
(-0.0243018 0.00438559 0)
(-0.0264514 0.00358647 0)
(-0.0280863 0.00251013 0)
(-0.0290579 0.00110681 0)
(-0.0291863 -0.000656236 0)
(-0.0282726 -0.00277046 0)
(-0.0261323 -0.00515123 0)
(-0.0226359 -0.00759844 0)
(-0.0178036 -0.00972921 0)
(-0.0119938 -0.0108923 0)
(-0.00547217 -0.0101075 0)
(-0.00101262 -0.00543571 0)
(-0.0005783 0.0042505 0)
(-0.00295965 0.00787046 0)
(-0.00652273 0.00909544 0)
(-0.0100756 0.00933265 0)
(-0.0136272 0.00920238 0)
(-0.0170813 0.0088982 0)
(-0.0203854 0.00843858 0)
(-0.0234877 0.00778398 0)
(-0.0263183 0.00687194 0)
(-0.0287841 0.00562566 0)
(-0.0307611 0.00396048 0)
(-0.0320889 0.00179576 0)
(-0.0325654 -0.000925197 0)
(-0.0319359 -0.00421808 0)
(-0.0299215 -0.00797783 0)
(-0.0262778 -0.0119142 0)
(-0.0209132 -0.0154244 0)
(-0.0141943 -0.0174242 0)
(-0.00640527 -0.0162658 0)
(-0.00111265 -0.00876765 0)
(-0.000585869 0.00600032 0)
(-0.00305274 0.0109976 0)
(-0.00676371 0.0126653 0)
(-0.010465 0.0129753 0)
(-0.0141806 0.0127892 0)
(-0.0178217 0.0123741 0)
(-0.0213498 0.0117588 0)
(-0.024729 0.010894 0)
(-0.0279063 0.0096972 0)
(-0.0308028 0.00806173 0)
(-0.0333005 0.00586188 0)
(-0.0352282 0.00296547 0)
(-0.0363532 -0.00074363 0)
(-0.0363443 -0.00532147 0)
(-0.0347831 -0.0106974 0)
(-0.03123 -0.0165099 0)
(-0.0253657 -0.0218977 0)
(-0.0174756 -0.0251834 0)
(-0.00780082 -0.0237318 0)
(-0.00123361 -0.0126631 0)
(-0.00058492 0.00778653 0)
(-0.00311436 0.0142292 0)
(-0.00694889 0.0163661 0)
(-0.0107813 0.0167653 0)
(-0.0146509 0.0165468 0)
(-0.0184799 0.0160586 0)
(-0.0222499 0.0153437 0)
(-0.0259489 0.0143452 0)
(-0.0295508 0.0129611 0)
(-0.0330042 0.0110513 0)
(-0.0362127 0.00843776 0)
(-0.0390103 0.00491047 0)
(-0.0411305 0.000253571 0)
(-0.0421676 -0.00568979 0)
(-0.041528 -0.0129634 0)
(-0.0384623 -0.0212055 0)
(-0.0322472 -0.0292829 0)
(-0.0228553 -0.0347067 0)
(-0.0102084 -0.0332551 0)
(-0.00143872 -0.0174381 0)
(-0.000581755 0.00959869 0)
(-0.00317271 0.0175537 0)
(-0.00713275 0.0201891 0)
(-0.0110975 0.0206966 0)
(-0.0151222 0.0204743 0)
(-0.019143 0.0199606 0)
(-0.0231668 0.0192188 0)
(-0.0272143 0.01819 0)
(-0.0312996 0.0167563 0)
(-0.0354182 0.0147445 0)
(-0.0395231 0.0119164 0)
(-0.0434846 0.00796258 0)
(-0.047033 0.00251998 0)
(-0.0497202 -0.00477696 0)
(-0.0507812 -0.0141997 0)
(-0.0490647 -0.0255523 0)
(-0.0431805 -0.0375539 0)
(-0.0322279 -0.046748 0)
(-0.0149337 -0.0461779 0)
(-0.00193581 -0.0238196 0)
(-0.000577056 0.0114372 0)
(-0.00323353 0.0209765 0)
(-0.00732532 0.0241389 0)
(-0.0114204 0.0247702 0)
(-0.0155907 0.02457 0)
(-0.0197879 0.0240792 0)
(-0.0240492 0.0233913 0)
(-0.0284369 0.0224549 0)
(-0.0330203 0.0211472 0)
(-0.0378664 0.0192706 0)
(-0.043016 0.0165298 0)
(-0.0484353 0.0125044 0)
(-0.0539436 0.00662805 0)
(-0.0591482 -0.00177946 0)
(-0.0632159 -0.0133223 0)
(-0.0646397 -0.0283782 0)
(-0.0610561 -0.0459893 0)
(-0.0493712 -0.0620681 0)
(-0.0251526 -0.0648705 0)
(-0.00343292 -0.0335906 0)
(-0.00057144 0.0133035 0)
(-0.00329996 0.0245043 0)
(-0.00752906 0.028216 0)
(-0.0117429 0.0289754 0)
(-0.0160311 0.0288119 0)
(-0.0203608 0.028384 0)
(-0.0248022 0.0278273 0)
(-0.0294661 0.0271141 0)
(-0.0344917 0.0261366 0)
(-0.0400448 0.0246976 0)
(-0.0463052 0.0224707 0)
(-0.0534319 0.0189427 0)
(-0.0614817 0.0133486 0)
(-0.0702755 0.00465491 0)
(-0.0793711 -0.00834906 0)
(-0.0872977 -0.026974 0)
(-0.0901141 -0.052203 0)
(-0.0795736 -0.0809523 0)
(-0.0458385 -0.093624 0)
(-0.00755721 -0.0508807 0)
(-0.000568204 0.0152022 0)
(-0.00338251 0.0281457 0)
(-0.00775648 0.0324151 0)
(-0.0120675 0.0332864 0)
(-0.0164257 0.0331525 0)
(-0.0208112 0.0328065 0)
(-0.0253265 0.0324414 0)
(-0.0301319 0.0320722 0)
(-0.0354421 0.0316358 0)
(-0.0415421 0.0309797 0)
(-0.0487993 0.0298113 0)
(-0.057664 0.027616 0)
(-0.0686443 0.0235525 0)
(-0.0822855 0.0163502 0)
(-0.0990321 0.00407105 0)
(-0.118055 -0.0166994 0)
(-0.132164 -0.0520943 0)
(-0.122826 -0.103809 0)
(-0.0779664 -0.139033 0)
(-0.0167784 -0.0835584 0)
(-0.000575754 0.0171493 0)
(-0.00350655 0.0319181 0)
(-0.00804231 0.0367276 0)
(-0.012422 0.0376619 0)
(-0.0167823 0.0375159 0)
(-0.0211132 0.0372352 0)
(-0.0255436 0.0370839 0)
(-0.0302756 0.0371412 0)
(-0.0355895 0.0374235 0)
(-0.0418828 0.0378831 0)
(-0.0497232 0.0383639 0)
(-0.0599263 0.0385272 0)
(-0.0736582 0.0377557 0)
(-0.0926013 0.0349525 0)
(-0.118778 0.0273459 0)
(-0.15103 0.00642916 0)
(-0.174839 -0.0449704 0)
(-0.161698 -0.134855 0)
(-0.112534 -0.203583 0)
(-0.0334891 -0.140121 0)
(-0.000611972 0.0191854 0)
(-0.00372355 0.0358676 0)
(-0.00845774 0.0411661 0)
(-0.0128728 0.0420697 0)
(-0.0171506 0.0418182 0)
(-0.0212871 0.0415293 0)
(-0.0254282 0.0415507 0)
(-0.0297973 0.0420412 0)
(-0.0347085 0.0431328 0)
(-0.0406267 0.0449536 0)
(-0.0482616 0.0476188 0)
(-0.0587123 0.0512145 0)
(-0.0736603 0.0557213 0)
(-0.0956641 0.0603306 0)
(-0.127526 0.0600755 0)
(-0.165639 0.0370035 0)
(-0.188607 -0.038306 0)
(-0.169949 -0.172536 0)
(-0.134568 -0.274512 0)
(-0.0496416 -0.23013 0)
(-0.000707374 0.0213668 0)
(-0.00411123 0.0399891 0)
(-0.00911325 0.0456136 0)
(-0.0135404 0.0463195 0)
(-0.0176462 0.0458359 0)
(-0.0214274 0.0454337 0)
(-0.0250407 0.045521 0)
(-0.0287007 0.0463397 0)
(-0.0326908 0.0481503 0)
(-0.0374385 0.0512937 0)
(-0.0436198 0.0562458 0)
(-0.0523155 0.0636659 0)
(-0.0651596 0.074212 0)
(-0.0841465 0.0865722 0)
(-0.111402 0.0918034 0)
(-0.141318 0.0628457 0)
(-0.156419 -0.0329131 0)
(-0.140495 -0.196645 0)
(-0.131365 -0.332115 0)
(-0.0492709 -0.338608 0)
(-0.000953098 0.023982 0)
(-0.00490397 0.0448229 0)
(-0.0102566 0.0507128 0)
(-0.0145941 0.0510456 0)
(-0.0183816 0.0500305 0)
(-0.021649 0.0491785 0)
(-0.0245301 0.0489959 0)
(-0.0271766 0.0498036 0)
(-0.0297757 0.0519665 0)
(-0.0325904 0.0560022 0)
(-0.0360251 0.0626854 0)
(-0.0406563 0.0730525 0)
(-0.0473594 0.0880724 0)
(-0.0564008 0.105179 0)
(-0.069384 0.112288 0)
(-0.0813238 0.0782507 0)
(-0.0882544 -0.0254129 0)
(-0.0807285 -0.198556 0)
(-0.0993537 -0.364592 0)
(-0.0338764 -0.424996 0)
(-0.00131434 0.0271799 0)
(-0.0058361 0.0490557 0)
(-0.0118273 0.0543052 0)
(-0.0162707 0.0536554 0)
(-0.0198471 0.0520795 0)
(-0.0224963 0.0509551 0)
(-0.0244188 0.0506439 0)
(-0.0257397 0.0513827 0)
(-0.0265196 0.053536 0)
(-0.0267739 0.0576794 0)
(-0.0265269 0.0646958 0)
(-0.0255672 0.075598 0)
(-0.0239832 0.0912833 0)
(-0.0202829 0.108288 0)
(-0.01688 0.115135 0)
(-0.00891207 0.0809763 0)
(-0.0120655 -0.0202574 0)
(-0.0130992 -0.180286 0)
(-0.06008 -0.36504 0)
(-0.0172093 -0.477239 0)
(-0.00339003 0.0300181 0)
(-0.0102476 0.057087 0)
(-0.0156215 0.0622685 0)
(-0.0191389 0.0610821 0)
(-0.0215409 0.0579793 0)
(-0.0231936 0.0553009 0)
(-0.0241324 0.0535456 0)
(-0.0242715 0.0529851 0)
(-0.0234211 0.0539263 0)
(-0.021276 0.0568275 0)
(-0.0175007 0.0624542 0)
(-0.0111344 0.0715165 0)
(-0.00211745 0.0846569 0)
(0.0125336 0.0985544 0)
(0.0282769 0.104269 0)
(0.0486996 0.075446 0)
(0.0492054 -0.0129352 0)
(0.0446227 -0.147 0)
(-0.0298211 -0.343593 0)
(0.000500394 -0.505068 0)
(-0.00107296 0.0438044 0)
(-0.00831018 0.0592249 0)
(-0.0186854 0.0604995 0)
(-0.0224561 0.0562046 0)
(-0.025462 0.0530418 0)
(-0.0265321 0.0508883 0)
(-0.0263916 0.0495744 0)
(-0.0249963 0.0490072 0)
(-0.0221942 0.0493671 0)
(-0.017551 0.0509267 0)
(-0.0106013 0.0543433 0)
(5.99309e-05 0.0599152 0)
(0.0144623 0.0681184 0)
(0.0360467 0.0765678 0)
(0.057866 0.0785768 0)
(0.0866271 0.0570526 0)
(0.0869691 -0.0092178 0)
(0.0807729 -0.109503 0)
(-0.00160494 -0.313724 0)
(0.023405 -0.511782 0)
(-0.0125098 0.0324882 0)
(-0.0238971 0.0799668 0)
(-0.0228945 0.0793236 0)
(-0.0285153 0.074225 0)
(-0.0298082 0.0668907 0)
(-0.0293204 0.0607717 0)
(-0.0268548 0.0557872 0)
(-0.0226718 0.0518932 0)
(-0.0168356 0.0490922 0)
(-0.00897316 0.0472211 0)
(0.00085514 0.0466633 0)
(0.0141837 0.0474192 0)
(0.0302745 0.0501886 0)
(0.0528619 0.0529575 0)
(0.0725812 0.0542452 0)
(0.103329 0.0421051 0)
(0.102413 0.00255709 0)
(0.115773 -0.0700235 0)
(0.0471135 -0.280905 0)
(0.0588094 -0.496359 0)
(-0.0774868 0.096311 0)
(-0.063202 0.0590462 0)
(-0.0656113 0.0598863 0)
(-0.0438261 0.0532173 0)
(-0.026585 0.0462914 0)
(-0.00654296 0.0411442 0)
(0.012372 0.0373856 0)
(0.0315536 0.034191 0)
(0.0492713 0.0318624 0)
(0.0683663 0.029662 0)
(0.0849746 0.0284184 0)
(0.106003 0.027475 0)
(0.121293 0.0272155 0)
(0.150634 0.0273374 0)
(0.161372 0.0232501 0)
(0.20433 0.015522 0)
(0.196615 -0.0188195 0)
(0.230215 -0.0773421 0)
(0.1586 -0.255681 0)
(0.126179 -0.437389 0)
(0.119553 0.140818 0)
(0.1523 0.0861933 0)
(0.228897 0.0635938 0)
(0.284354 0.0481147 0)
(0.325639 0.0374338 0)
(0.363914 0.029651 0)
(0.392571 0.0241979 0)
(0.423717 0.0201469 0)
(0.443558 0.0172341 0)
(0.472198 0.0150073 0)
(0.484715 0.01322 0)
(0.514469 0.0121379 0)
(0.519641 0.010929 0)
(0.553073 0.01019 0)
(0.548327 0.00850348 0)
(0.582837 0.00406606 0)
(0.552969 -0.00516535 0)
(0.559584 -0.0276169 0)
(0.424037 -0.0732101 0)
(0.276052 -0.151963 0)
)
;

boundaryField
{
    movingWall
    {
        type            fixedValue;
        value           uniform (1 0 0);
    }
    fixedWalls
    {
        type            noSlip;
    }
    frontAndBack
    {
        type            empty;
    }
}


// ************************************************************************* //
