/*--------------------------------*- C++ -*----------------------------------*\
  =========                 |
  \\      /  F ield         | OpenFOAM: The Open Source CFD Toolbox
   \\    /   O peration     | Website:  https://openfoam.org
    \\  /    A nd           | Version:  10
     \\/     M anipulation  |
\*---------------------------------------------------------------------------*/
FoamFile
{
    format      ascii;
    class       volScalarField;
    location    "9";
    object      p;
}
// * * * * * * * * * * * * * * * * * * * * * * * * * * * * * * * * * * * * * //

dimensions      [0 2 -2 0 0 0 0];

internalField   nonuniform List<scalar> 
400
(
-1.87253e-10
-2.88621e-05
2.92668e-05
0.000141907
0.000317481
0.000559136
0.000871851
0.00126204
0.00173621
0.00229935
0.00295293
0.003692
0.00450084
0.00534817
0.00618376
0.00693812
0.00752976
0.00789467
0.00804133
0.0079193
3.20559e-05
2.74366e-06
6.90669e-05
0.000184665
0.000359493
0.000597527
0.000904139
0.00128578
0.00174891
0.00229882
0.00293781
0.00366227
0.00445738
0.00529587
0.00612855
0.00688449
0.0074766
0.00783562
0.00797535
0.0078335
-3.97367e-05
-7.84254e-05
-1.39206e-05
9.67467e-05
0.00026425
0.000492747
0.000788168
0.00115795
0.00161015
0.00215258
0.00279085
0.00352537
0.00434751
0.00523498
0.00613307
0.00696034
0.00760636
0.00797458
0.00808116
0.00787127
-0.000193264
-0.000238445
-0.000178313
-7.62733e-05
7.91399e-05
0.000292408
0.000570289
0.000921669
0.00135699
0.00188786
0.00252568
0.00327813
0.00414408
0.00510461
0.00610973
0.0070609
0.00780853
0.00819576
0.00823375
0.00790559
-0.000438057
-0.000488553
-0.000436059
-0.000347069
-0.000209375
-1.8101e-05
0.000234447
0.000558824
0.000968315
0.00147917
0.00211011
0.00287969
0.00379907
0.00485977
0.00601876
0.007161
0.00807732
0.00849859
0.00840935
0.00788329
-0.000772409
-0.000828013
-0.000786423
-0.000715271
-0.000601916
-0.000441348
-0.000225257
5.82528e-05
0.000425002
0.000895776
0.00149713
0.00226084
0.0032166
0.00437554
0.00572455
0.00714247
0.00833749
0.00882579
0.00852252
0.00766417
-0.00119028
-0.00125141
-0.001224
-0.00117602
-0.00109489
-0.000976037
-0.000811552
-0.000589523
-0.000293181
0.000100885
0.000625237
0.00132388
0.00225063
0.00345546
0.00495901
0.00670319
0.00832956
0.00896865
0.00837163
0.00703449
-0.00168331
-0.00175068
-0.00174061
-0.00172135
-0.00168109
-0.0016167
-0.00152225
-0.00138842
-0.0012015
-0.000940814
-0.000575579
-6.19349e-05
0.000661253
0.00167322
0.00306227
0.0050045
0.00719262
0.00825407
0.00754843
0.00593328
-0.00224092
-0.00231526
-0.00232497
-0.00233921
-0.00234789
-0.00235071
-0.00234599
-0.00233047
-0.00229929
-0.00224506
-0.0021565
-0.00201918
-0.00182671
-0.00155793
-0.0010182
0.000277771
0.0027288
0.00502046
0.00554434
0.00500815
-0.0028505
-0.00293222
-0.00296244
-0.00301269
-0.00307564
-0.00315541
-0.00325719
-0.00338808
-0.00355949
-0.00379068
-0.00411605
-0.00460619
-0.00543412
-0.00687864
-0.00886262
-0.00994939
-0.0080452
-0.00329207
0.00131306
0.00448055
-0.00349822
-0.00358734
-0.00363583
-0.0037206
-0.00383763
-0.00399725
-0.00421364
-0.00450801
-0.0049152
-0.00549554
-0.00635935
-0.00771565
-0.0100054
-0.0140502
-0.0199048
-0.0248945
-0.0246659
-0.0171958
-0.00780064
0.000262083
-0.00417037
-0.00426565
-0.00432476
-0.00443604
-0.00459874
-0.00483033
-0.00515433
-0.00560661
-0.00624711
-0.00718063
-0.00860194
-0.0108768
-0.0146948
-0.0212519
-0.0307102
-0.0400702
-0.0410078
-0.0324332
-0.0208761
-0.00915971
-0.00485793
-0.00495839
-0.00501579
-0.00513862
-0.00532833
-0.00561
-0.00601463
-0.00658809
-0.00740678
-0.00860137
-0.0104114
-0.0132666
-0.0179439
-0.0255137
-0.0362565
-0.0461047
-0.0481348
-0.0400793
-0.0301521
-0.018044
-0.00555171
-0.00564697
-0.00567424
-0.00578098
-0.00597081
-0.00627269
-0.00671793
-0.00735521
-0.0082628
-0.00956873
-0.0115133
-0.0144794
-0.0192147
-0.0263238
-0.0362295
-0.0442395
-0.0465151
-0.0393535
-0.0326431
-0.0215011
-0.00627801
-0.0063748
-0.00634689
-0.00641299
-0.00656189
-0.00683433
-0.00726207
-0.00789008
-0.0087881
-0.0100574
-0.011899
-0.0146094
-0.0187053
-0.0244509
-0.031938
-0.0376116
-0.039206
-0.0330618
-0.0296367
-0.0187111
-0.00712218
-0.00702079
-0.00685589
-0.00679226
-0.00687189
-0.00710809
-0.00751277
-0.00810987
-0.00895061
-0.0100954
-0.0117203
-0.01398
-0.0171784
-0.0213057
-0.0264066
-0.029815
-0.0305712
-0.0250856
-0.0237532
-0.00935761
-0.00757536
-0.00796809
-0.0076152
-0.00756419
-0.00749921
-0.00758515
-0.00783417
-0.00827956
-0.00896803
-0.00992423
-0.0112973
-0.0131436
-0.0156293
-0.0185955
-0.0220706
-0.0239448
-0.0239109
-0.0185252
-0.0159126
0.00880589
-0.0109497
-0.00838818
-0.00767667
-0.00699859
-0.0068511
-0.00696677
-0.00729
-0.00778287
-0.00847131
-0.00936934
-0.0105949
-0.0121648
-0.0142241
-0.0164973
-0.018953
-0.0197748
-0.0188181
-0.0118372
-0.00252345
0.0406398
-0.00755722
-0.0105034
-0.00931528
-0.00922943
-0.00868814
-0.00838813
-0.00828325
-0.00839744
-0.00878474
-0.00943172
-0.0104553
-0.0118138
-0.0137788
-0.015958
-0.0185544
-0.0191185
-0.0172989
-0.00348662
0.0213448
0.0978265
-0.032802
-0.0076674
-0.00602241
-0.00519302
-0.00493334
-0.00509351
-0.00555656
-0.00613328
-0.00691486
-0.00782543
-0.00909784
-0.0105672
-0.0124395
-0.0139864
-0.0148927
-0.0114638
-0.000833087
0.0331679
0.0988786
0.229187
)
;

boundaryField
{
    movingWall
    {
        type            zeroGradient;
    }
    fixedWalls
    {
        type            zeroGradient;
    }
    frontAndBack
    {
        type            empty;
    }
}


// ************************************************************************* //
