/*--------------------------------*- C++ -*----------------------------------*\
  =========                 |
  \\      /  F ield         | OpenFOAM: The Open Source CFD Toolbox
   \\    /   O peration     | Website:  https://openfoam.org
    \\  /    A nd           | Version:  10
     \\/     M anipulation  |
\*---------------------------------------------------------------------------*/
FoamFile
{
    format      ascii;
    class       volVectorField;
    location    "9";
    object      U;
}
// * * * * * * * * * * * * * * * * * * * * * * * * * * * * * * * * * * * * * //

dimensions      [0 1 -1 0 0 0 0];

internalField   nonuniform List<vector> 
400
(
(-0.000165318 0.000144034 0)
(-0.00123745 0.000457365 0)
(-0.00305218 0.000571487 0)
(-0.00491934 0.000610556 0)
(-0.00686064 0.000633252 0)
(-0.00883858 0.000658329 0)
(-0.0108416 0.000685008 0)
(-0.0128481 0.000705139 0)
(-0.0148104 0.00070682 0)
(-0.0166484 0.000674244 0)
(-0.0182422 0.000587938 0)
(-0.019425 0.000426946 0)
(-0.0199871 0.000174422 0)
(-0.0196853 -0.000188912 0)
(-0.0182891 -0.000641919 0)
(-0.0156625 -0.00112508 0)
(-0.0118953 -0.00151763 0)
(-0.00746687 -0.00165169 0)
(-0.00281714 -0.0013525 0)
(-0.000229049 -0.000408086 0)
(-0.000538791 0.00126387 0)
(-0.00280253 0.00263309 0)
(-0.00627415 0.00314983 0)
(-0.00984727 0.00333026 0)
(-0.013523 0.00340301 0)
(-0.0172124 0.00344273 0)
(-0.0208654 0.00344935 0)
(-0.0244201 0.00339193 0)
(-0.027778 0.00322351 0)
(-0.0307937 0.00288385 0)
(-0.0332653 0.00230303 0)
(-0.0349279 0.00140827 0)
(-0.0354777 0.000138057 0)
(-0.0345648 -0.00151694 0)
(-0.0318617 -0.00346405 0)
(-0.0272004 -0.00545462 0)
(-0.020746 -0.00702785 0)
(-0.0132306 -0.00754271 0)
(-0.0053848 -0.00633948 0)
(-0.000719359 -0.00259337 0)
(-0.000707759 0.00328929 0)
(-0.00353845 0.0062036 0)
(-0.00779386 0.00729986 0)
(-0.012143 0.00766891 0)
(-0.0165887 0.00777806 0)
(-0.0210229 0.00778003 0)
(-0.0253852 0.00767937 0)
(-0.0296052 0.0074184 0)
(-0.0335754 0.0069067 0)
(-0.0371386 0.00602828 0)
(-0.0400765 0.00464906 0)
(-0.0421042 0.00263265 0)
(-0.0428597 -0.000130434 0)
(-0.0419124 -0.00364742 0)
(-0.0388313 -0.0077522 0)
(-0.0333138 -0.0119508 0)
(-0.0254458 -0.015304 0)
(-0.0160934 -0.0164176 0)
(-0.00628122 -0.0138563 0)
(-0.000698087 -0.00601739 0)
(-0.000764086 0.00546508 0)
(-0.00383302 0.0100422 0)
(-0.00843644 0.0117353 0)
(-0.0131243 0.0122812 0)
(-0.0179149 0.0124153 0)
(-0.0227028 0.0123753 0)
(-0.0274398 0.012173 0)
(-0.0320717 0.011727 0)
(-0.0365108 0.0109057 0)
(-0.0406195 0.00953577 0)
(-0.0441897 0.00740858 0)
(-0.046925 0.00430199 0)
(-0.048419 2.97208e-05 0)
(-0.0481313 -0.00547966 0)
(-0.0454095 -0.0120536 0)
(-0.0396302 -0.018978 0)
(-0.0305533 -0.0247258 0)
(-0.019065 -0.0267754 0)
(-0.00671629 -0.022384 0)
(-0.000329771 -0.00934014 0)
(-0.000766006 0.00773441 0)
(-0.00391159 0.0140675 0)
(-0.00865811 0.0163882 0)
(-0.0134963 0.0171257 0)
(-0.0184629 0.017306 0)
(-0.0234686 0.0172617 0)
(-0.0284921 0.017018 0)
(-0.033515 0.0164748 0)
(-0.0384919 0.0154624 0)
(-0.0433314 0.0137475 0)
(-0.0478654 0.0110321 0)
(-0.0518051 0.00696711 0)
(-0.0546926 0.00121041 0)
(-0.0558622 -0.00646669 0)
(-0.0543518 -0.0160222 0)
(-0.0489743 -0.0266263 0)
(-0.038738 -0.036054 0)
(-0.0240833 -0.0399679 0)
(-0.0073502 -0.0329398 0)
(0.000381656 -0.0126147 0)
(-0.000743374 0.0100081 0)
(-0.00388987 0.0181558 0)
(-0.00868547 0.0211358 0)
(-0.0135922 0.0220916 0)
(-0.0186643 0.0223597 0)
(-0.0238357 0.02238 0)
(-0.0291239 0.0222019 0)
(-0.0345614 0.021717 0)
(-0.0401683 0.0207262 0)
(-0.0459322 0.0189388 0)
(-0.0517696 0.0159566 0)
(-0.0574573 0.0112656 0)
(-0.0625485 0.00427048 0)
(-0.0663131 -0.00559659 0)
(-0.0674678 -0.0186261 0)
(-0.0639727 -0.0342644 0)
(-0.0532328 -0.0497519 0)
(-0.0339829 -0.0578771 0)
(-0.00942472 -0.0471103 0)
(0.00144154 -0.0158184 0)
(-0.000707179 0.0122404 0)
(-0.00381452 0.022241 0)
(-0.00860823 0.0259116 0)
(-0.0135339 0.0271169 0)
(-0.0186607 0.0275224 0)
(-0.0239489 0.0276914 0)
(-0.029462 0.0277131 0)
(-0.0352982 0.027489 0)
(-0.0415669 0.0268097 0)
(-0.0483762 0.0253445 0)
(-0.055797 0.0226034 0)
(-0.0637914 0.0178949 0)
(-0.0721114 0.0103057 0)
(-0.0801554 -0.00123799 0)
(-0.0865292 -0.0177824 0)
(-0.087986 -0.0401115 0)
(-0.0786172 -0.0658586 0)
(-0.0534043 -0.0834626 0)
(-0.0167881 -0.0683745 0)
(0.0022457 -0.0202039 0)
(-0.00066016 0.0144049 0)
(-0.0037 0.0262858 0)
(-0.00845249 0.0306733 0)
(-0.013347 0.0321527 0)
(-0.0184637 0.0327387 0)
(-0.0237876 0.0331369 0)
(-0.0294298 0.0334968 0)
(-0.0355627 0.0337562 0)
(-0.042408 0.0337325 0)
(-0.0502397 0.0331031 0)
(-0.0593722 0.0313436 0)
(-0.0701285 0.0276481 0)
(-0.08277 0.020845 0)
(-0.0973116 0.00919434 0)
(-0.112708 -0.0101217 0)
(-0.123415 -0.0409191 0)
(-0.117463 -0.0837374 0)
(-0.0861178 -0.119614 0)
(-0.0376677 -0.102703 0)
(0.000167076 -0.0304129 0)
(-0.000604092 0.0164797 0)
(-0.00355432 0.0302588 0)
(-0.00822878 0.035377 0)
(-0.0130315 0.0371359 0)
(-0.0180474 0.0379214 0)
(-0.0232801 0.0386039 0)
(-0.0288821 0.0394168 0)
(-0.0350962 0.0403683 0)
(-0.0422596 0.0413549 0)
(-0.0508404 0.0421477 0)
(-0.0614818 0.0423269 0)
(-0.0750618 0.0411958 0)
(-0.0928026 0.037598 0)
(-0.115963 0.0289843 0)
(-0.143072 0.00894101 0)
(-0.164331 -0.0335933 0)
(-0.16166 -0.102722 0)
(-0.129002 -0.164652 0)
(-0.0782372 -0.154159 0)
(-0.0100769 -0.0561756 0)
(-0.000544064 0.0184492 0)
(-0.00339458 0.0341343 0)
(-0.00796094 0.0399746 0)
(-0.0126025 0.0419852 0)
(-0.0174026 0.0429475 0)
(-0.0223713 0.0439185 0)
(-0.0276871 0.0452405 0)
(-0.0336421 0.0470288 0)
(-0.0406627 0.049323 0)
(-0.0493825 0.0521023 0)
(-0.0607507 0.0552604 0)
(-0.076189 0.0585189 0)
(-0.0978649 0.0609211 0)
(-0.1281 0.0583612 0)
(-0.164203 0.0378015 0)
(-0.190825 -0.0210327 0)
(-0.189951 -0.120972 0)
(-0.165633 -0.209129 0)
(-0.12279 -0.219609 0)
(-0.0305119 -0.112802 0)
(-0.00049135 0.0203135 0)
(-0.00325704 0.0378992 0)
(-0.00770401 0.0444129 0)
(-0.012116 0.0465975 0)
(-0.0165715 0.0476526 0)
(-0.0210704 0.0488404 0)
(-0.0257913 0.0506263 0)
(-0.0310326 0.0532573 0)
(-0.0372376 0.056968 0)
(-0.0450895 0.0620516 0)
(-0.0556619 0.0689021 0)
(-0.0705573 0.0778342 0)
(-0.0919511 0.0876937 0)
(-0.121969 0.0912393 0)
(-0.156067 0.0680548 0)
(-0.178717 -0.00628415 0)
(-0.178955 -0.129459 0)
(-0.165646 -0.242504 0)
(-0.1376 -0.292859 0)
(-0.0481824 -0.211447 0)
(-0.000469527 0.0221113 0)
(-0.00321467 0.041598 0)
(-0.00756696 0.0487031 0)
(-0.0116904 0.0509277 0)
(-0.0156725 0.0519134 0)
(-0.0194896 0.0531433 0)
(-0.0232932 0.0552075 0)
(-0.0273295 0.0584797 0)
(-0.03195 0.0633894 0)
(-0.037679 0.0705444 0)
(-0.0453097 0.0807979 0)
(-0.0558916 0.0948079 0)
(-0.0703825 0.110562 0)
(-0.0899446 0.117282 0)
(-0.110367 0.0906069 0)
(-0.123486 0.00573657 0)
(-0.126106 -0.126412 0)
(-0.123047 -0.25648 0)
(-0.118289 -0.346207 0)
(-0.0465922 -0.314038 0)
(-0.000509648 0.0238946 0)
(-0.00335353 0.0451874 0)
(-0.00769198 0.0526475 0)
(-0.0115115 0.0546719 0)
(-0.0149277 0.0553745 0)
(-0.0178806 0.0564187 0)
(-0.0204867 0.0584652 0)
(-0.0228969 0.0619646 0)
(-0.0252801 0.0674501 0)
(-0.0278407 0.075668 0)
(-0.0308192 0.0876063 0)
(-0.0343489 0.103789 0)
(-0.0381864 0.121624 0)
(-0.0428363 0.128551 0)
(-0.0476597 0.100842 0)
(-0.0502157 0.0126771 0)
(-0.0563701 -0.115168 0)
(-0.0642629 -0.246832 0)
(-0.0860537 -0.364237 0)
(-0.0325569 -0.384431 0)
(-0.000719984 0.0259939 0)
(-0.00397173 0.0493112 0)
(-0.0084204 0.0570483 0)
(-0.0118423 0.0586529 0)
(-0.0145505 0.0586777 0)
(-0.0165073 0.0590525 0)
(-0.0177733 0.0605245 0)
(-0.0183782 0.0635718 0)
(-0.0183024 0.0687162 0)
(-0.0174156 0.0766335 0)
(-0.0154748 0.0881665 0)
(-0.0117365 0.103444 0)
(-0.00554403 0.120069 0)
(0.00373004 0.126159 0)
(0.0112631 0.100216 0)
(0.0166834 0.0174962 0)
(0.00371665 -0.0999223 0)
(-0.01497 -0.222683 0)
(-0.0594536 -0.363186 0)
(-0.0204946 -0.434456 0)
(-0.00106211 0.0285893 0)
(-0.0047541 0.0526308 0)
(-0.00965726 0.0595956 0)
(-0.0129593 0.0600283 0)
(-0.0151631 0.0592601 0)
(-0.0161293 0.0590567 0)
(-0.0159873 0.059986 0)
(-0.0147352 0.0623652 0)
(-0.0122448 0.0665849 0)
(-0.00815019 0.0731192 0)
(-0.00201429 0.0824956 0)
(0.00744074 0.0945776 0)
(0.0208117 0.107243 0)
(0.0389096 0.111319 0)
(0.0537338 0.0894176 0)
(0.0646189 0.0207574 0)
(0.0465983 -0.0796303 0)
(0.0245428 -0.186751 0)
(-0.0394655 -0.346525 0)
(-0.00955834 -0.468264 0)
(-0.00314632 0.0306825 0)
(-0.00920198 0.0595586 0)
(-0.0134007 0.0663882 0)
(-0.0155983 0.0661705 0)
(-0.0163518 0.063583 0)
(-0.0160052 0.0614489 0)
(-0.0145455 0.0604524 0)
(-0.0118017 0.0608982 0)
(-0.00748487 0.0630392 0)
(-0.00108741 0.0670838 0)
(0.00793467 0.0732946 0)
(0.0207866 0.0812961 0)
(0.0373957 0.0892071 0)
(0.0591115 0.0905709 0)
(0.076456 0.0743068 0)
(0.0910044 0.0239785 0)
(0.0706502 -0.0537457 0)
(0.0490182 -0.143594 0)
(-0.0271595 -0.324455 0)
(0.00251912 -0.491223 0)
(-0.000936434 0.0440239 0)
(-0.00753366 0.0608665 0)
(-0.0167686 0.0634041 0)
(-0.0189322 0.0596052 0)
(-0.0199745 0.0565623 0)
(-0.0188044 0.0545632 0)
(-0.0161583 0.0535834 0)
(-0.0119022 0.0535239 0)
(-0.00586256 0.0544882 0)
(0.00249743 0.0564997 0)
(0.0135932 0.0598827 0)
(0.0283321 0.064112 0)
(0.0459405 0.0679886 0)
(0.0685933 0.0673844 0)
(0.0852751 0.056007 0)
(0.101757 0.0231426 0)
(0.0807296 -0.0320077 0)
(0.0645291 -0.104071 0)
(-0.00989523 -0.301781 0)
(0.0211415 -0.501111 0)
(-0.0125683 0.0322022 0)
(-0.023122 0.0804982 0)
(-0.0208529 0.0806563 0)
(-0.0248936 0.0757212 0)
(-0.0244885 0.0683048 0)
(-0.0222644 0.0621936 0)
(-0.0179376 0.0573412 0)
(-0.0116807 0.053653 0)
(-0.00357224 0.0511399 0)
(0.00685971 0.0495791 0)
(0.0195402 0.0491635 0)
(0.0352242 0.0492932 0)
(0.0522305 0.0502182 0)
(0.0738513 0.0489197 0)
(0.0875054 0.0436895 0)
(0.106274 0.027256 0)
(0.0910353 -0.00623294 0)
(0.0992108 -0.0642517 0)
(0.0395637 -0.273386 0)
(0.0571935 -0.489144 0)
(-0.0776696 0.0958185 0)
(-0.0632412 0.0587576 0)
(-0.0651586 0.0600066 0)
(-0.042522 0.0533888 0)
(-0.024632 0.04641 0)
(-0.00389657 0.041241 0)
(0.015681 0.0374772 0)
(0.035657 0.0342913 0)
(0.0542123 0.0319908 0)
(0.0744287 0.0299321 0)
(0.0920554 0.0287842 0)
(0.11456 0.0276777 0)
(0.130345 0.0269824 0)
(0.159079 0.0257779 0)
(0.168723 0.0203557 0)
(0.202719 0.0114399 0)
(0.190626 -0.0214579 0)
(0.22226 -0.0738561 0)
(0.153925 -0.251667 0)
(0.124797 -0.433092 0)
(0.119362 0.14074 0)
(0.151921 0.0860325 0)
(0.228342 0.0634672 0)
(0.283816 0.0480221 0)
(0.325262 0.0374034 0)
(0.363592 0.0296554 0)
(0.392343 0.0242439 0)
(0.423574 0.0201845 0)
(0.44356 0.0173022 0)
(0.47215 0.0149938 0)
(0.485043 0.0132978 0)
(0.514399 0.0119533 0)
(0.519945 0.0108321 0)
(0.552114 0.00955884 0)
(0.547042 0.00754804 0)
(0.578962 0.00308604 0)
(0.547284 -0.00583208 0)
(0.552889 -0.0269682 0)
(0.419587 -0.0730778 0)
(0.275018 -0.151754 0)
)
;

boundaryField
{
    movingWall
    {
        type            fixedValue;
        value           uniform (1 0 0);
    }
    fixedWalls
    {
        type            noSlip;
    }
    frontAndBack
    {
        type            empty;
    }
}


// ************************************************************************* //
