/*--------------------------------*- C++ -*----------------------------------*\
  =========                 |
  \\      /  F ield         | OpenFOAM: The Open Source CFD Toolbox
   \\    /   O peration     | Website:  https://openfoam.org
    \\  /    A nd           | Version:  10
     \\/     M anipulation  |
\*---------------------------------------------------------------------------*/
FoamFile
{
    format      ascii;
    class       volVectorField;
    location    "9.5";
    object      U;
}
// * * * * * * * * * * * * * * * * * * * * * * * * * * * * * * * * * * * * * //

dimensions      [0 1 -1 0 0 0 0];

internalField   nonuniform List<vector> 
475
(
(0.974577 0.0160646 0)
(0.975499 0.00649255 0)
(0.950563 0.0314331 0)
(0.953913 0.00141328 0)
(0.920141 0.0303199 0)
(0.998505 0.00870708 0)
(1.01404 0.0148311 0)
(1.02542 0.0152921 0)
(1.0437 0.00876977 0)
(1.05583 0.00241652 0)
(0.999842 0.000278288 0)
(1.00975 -0.00295122 0)
(1.02431 -0.00457476 0)
(1.04116 -0.00928393 0)
(1.05663 -0.0141245 0)
(0.999789 -0.0100383 0)
(1.01031 -0.0194689 0)
(1.02269 -0.02201 0)
(1.03556 -0.0229831 0)
(1.04463 -0.0254993 0)
(0.980728 -0.00968325 0)
(0.969181 -0.0190758 0)
(0.953683 -0.0218662 0)
(0.933489 -0.0222353 0)
(0.907762 -0.0229177 0)
(0.924262 -0.0156142 0)
(0.931633 -0.0354217 0)
(0.93685 -0.0484998 0)
(0.943252 -0.0580641 0)
(0.951928 -0.0670392 0)
(0.963986 -0.0764807 0)
(0.979122 -0.0883592 0)
(0.996628 -0.102159 0)
(1.01527 -0.119313 0)
(1.03393 -0.138189 0)
(1.0512 -0.159078 0)
(1.06566 -0.179461 0)
(1.07584 -0.198649 0)
(1.08065 -0.214107 0)
(1.07929 -0.224791 0)
(1.0713 -0.229265 0)
(1.05648 -0.227569 0)
(1.03496 -0.221123 0)
(1.00788 -0.210925 0)
(0.978214 -0.197068 0)
(0.948705 -0.179553 0)
(0.920536 -0.158933 0)
(0.893369 -0.135878 0)
(0.868606 -0.111079 0)
(0.844816 -0.086129 0)
(0.826486 -0.0614745 0)
(0.810273 -0.0383235 0)
(0.802937 -0.0154211 0)
(0.795265 0.00551561 0)
(0.797228 0.0258773 0)
(0.795907 0.0432954 0)
(0.804126 0.05979 0)
(0.80609 0.0722615 0)
(0.816043 0.0823558 0)
(0.818379 0.0886398 0)
(0.827181 0.0907294 0)
(0.827456 0.0906186 0)
(0.833684 0.0859665 0)
(0.829751 0.0798569 0)
(0.833729 0.0714185 0)
(0.8252 0.0614623 0)
(0.827572 0.0537951 0)
(0.815591 0.044109 0)
(0.816817 0.039046 0)
(0.802847 0.0328932 0)
(1.06844 -0.00816782 0)
(1.07816 -0.0203093 0)
(1.08245 -0.0322477 0)
(1.08461 -0.0429801 0)
(1.08429 -0.0542187 0)
(1.08525 -0.0658184 0)
(1.08462 -0.0798329 0)
(1.08487 -0.0953863 0)
(1.08245 -0.11407 0)
(1.07928 -0.133587 0)
(1.0721 -0.154713 0)
(1.06199 -0.174049 0)
(1.0467 -0.191272 0)
(1.02653 -0.202271 0)
(1.00043 -0.20659 0)
(0.968472 -0.202653 0)
(0.930174 -0.194933 0)
(0.885377 -0.185484 0)
(0.836009 -0.173284 0)
(0.786165 -0.156487 0)
(0.738574 -0.137011 0)
(0.693613 -0.11632 0)
(0.653311 -0.096264 0)
(0.617484 -0.0773732 0)
(0.585724 -0.0595931 0)
(0.5601 -0.0423625 0)
(0.540988 -0.0258275 0)
(0.532272 -0.00940107 0)
(0.526726 0.00587007 0)
(0.531257 0.0217176 0)
(0.536029 0.035773 0)
(0.551032 0.0498899 0)
(0.561862 0.0602651 0)
(0.581486 0.0701033 0)
(0.595052 0.0753693 0)
(0.614299 0.0791275 0)
(0.627542 0.0792388 0)
(0.643114 0.0765839 0)
(0.653078 0.0722365 0)
(0.6643 0.0655754 0)
(0.669501 0.0583575 0)
(0.676445 0.0517254 0)
(0.676968 0.0443303 0)
(0.679693 0.0408762 0)
(0.677763 0.036556 0)
(1.06843 -0.0221088 0)
(1.07715 -0.0322184 0)
(1.08063 -0.0434646 0)
(1.08208 -0.0540634 0)
(1.07875 -0.0646244 0)
(1.07546 -0.075112 0)
(1.06733 -0.0871084 0)
(1.05987 -0.100013 0)
(1.04651 -0.115183 0)
(1.03302 -0.130984 0)
(1.01261 -0.148093 0)
(0.990436 -0.163495 0)
(0.961868 -0.175919 0)
(0.928964 -0.181176 0)
(0.888885 -0.174941 0)
(0.840158 -0.158911 0)
(0.780466 -0.143891 0)
(0.71246 -0.134986 0)
(0.643863 -0.127694 0)
(0.576079 -0.11546 0)
(0.507007 -0.0960136 0)
(0.442379 -0.0727686 0)
(0.386282 -0.0504616 0)
(0.340351 -0.0330797 0)
(0.303791 -0.021039 0)
(0.276656 -0.0125702 0)
(0.258628 -0.00596769 0)
(0.250079 0.00103357 0)
(0.247842 0.00927074 0)
(0.253178 0.0186904 0)
(0.261544 0.027642 0)
(0.277327 0.0369464 0)
(0.293037 0.0446765 0)
(0.315604 0.052208 0)
(0.335435 0.0566309 0)
(0.35992 0.0605921 0)
(0.381503 0.0603247 0)
(0.402988 0.0601973 0)
(0.424391 0.0565796 0)
(0.440491 0.0534477 0)
(0.459803 0.0485911 0)
(0.469968 0.0444036 0)
(0.486805 0.0398714 0)
(0.491615 0.0375622 0)
(0.50943 0.033691 0)
(1.05051 -0.0298228 0)
(1.05181 -0.0357384 0)
(1.04878 -0.0420341 0)
(1.04156 -0.0485717 0)
(1.02895 -0.0547822 0)
(1.01325 -0.0614894 0)
(0.990825 -0.0687022 0)
(0.966389 -0.0770877 0)
(0.932385 -0.086709 0)
(0.896848 -0.0971943 0)
(0.84856 -0.10881 0)
(0.799047 -0.118961 0)
(0.736733 -0.12776 0)
(0.670317 -0.129286 0)
(0.603544 -0.116185 0)
(0.525299 -0.0942646 0)
(0.425142 -0.0686678 0)
(0.305561 -0.0416073 0)
(0.198816 -0.0139283 0)
(0.121728 0.00066135 0)
(0.0714281 0.000882763 0)
(0.04382 -0.00202604 0)
(0.0288303 -0.00259614 0)
(0.020396 -0.00243423 0)
(0.0157624 -0.0023394 0)
(0.0135553 -0.00216073 0)
(0.013135 -0.00149527 0)
(0.0149494 0.000249454 0)
(0.0193702 0.00304504 0)
(0.027491 0.00716917 0)
(0.038828 0.0118914 0)
(0.054581 0.0172771 0)
(0.0727584 0.0221296 0)
(0.0953506 0.0268406 0)
(0.118699 0.0301505 0)
(0.145594 0.0326623 0)
(0.17189 0.0334755 0)
(0.198994 0.0339052 0)
(0.22605 0.0322213 0)
(0.248949 0.0308085 0)
(0.275733 0.0274253 0)
(0.291759 0.0252742 0)
(0.3184 0.0220121 0)
(0.326818 0.0203056 0)
(0.356023 0.0177709 0)
(0.880376 -0.0240759 0)
(0.849148 -0.0261422 0)
(0.816213 -0.0279142 0)
(0.778081 -0.0303409 0)
(0.736928 -0.031983 0)
(0.689916 -0.0348004 0)
(0.638873 -0.0368854 0)
(0.582191 -0.0409333 0)
(0.518777 -0.0442234 0)
(0.450324 -0.0495325 0)
(0.369517 -0.0542016 0)
(0.287462 -0.0579958 0)
(0.184882 -0.0656172 0)
(0.0834609 -0.0406622 0)
(0.0123081 0.0060085 0)
(-0.0279048 0.0421467 0)
(-0.0388924 0.0646507 0)
(-0.0312284 0.0614602 0)
(-0.0160645 0.0370584 0)
(-0.00585709 0.00469541 0)
(-0.00943115 -0.0174043 0)
(-0.0229517 -0.0237466 0)
(-0.0372705 -0.0209317 0)
(-0.0487567 -0.0156849 0)
(-0.0574156 -0.0113109 0)
(-0.0640055 -0.00830913 0)
(-0.0690512 -0.0063969 0)
(-0.0724848 -0.00482996 0)
(-0.0738661 -0.00329146 0)
(-0.072638 -0.00148725 0)
(-0.0685087 0.000292419 0)
(-0.0608975 0.00217671 0)
(-0.0500766 0.00383656 0)
(-0.0358373 0.00544162 0)
(-0.0192838 0.00660334 0)
(-0.000261599 0.00742312 0)
(0.0197514 0.00780293 0)
(0.0403245 0.00775785 0)
(0.0603606 0.00724461 0)
(0.0791812 0.00646556 0)
(0.0972372 0.00555242 0)
(0.111889 0.00474158 0)
(0.127822 0.00381658 0)
(0.136527 0.00356234 0)
(0.154964 0.00313475 0)
(0.00220189 -0.0226785 0)
(0.00146839 -0.0221326 0)
(-0.00658497 -0.0155783 0)
(-0.0210703 -0.00261303 0)
(-0.0480188 0.0112009 0)
(-0.0846425 0.0200828 0)
(-0.125284 0.0240348 0)
(-0.166208 0.0249616 0)
(-0.203877 0.0236131 0)
(-0.235109 0.02051 0)
(-0.257024 0.0160472 0)
(-0.267987 0.0106678 0)
(-0.26775 0.00442587 0)
(-0.25622 -0.00217923 0)
(-0.23377 -0.00847427 0)
(-0.201534 -0.0138897 0)
(-0.161213 -0.0180466 0)
(-0.11513 -0.0206494 0)
(-0.0656455 -0.0218737 0)
(-0.0144178 -0.0218162 0)
(0.0364747 -0.0209687 0)
(0.0851387 -0.0192138 0)
(0.129674 -0.0165587 0)
(0.168617 -0.013222 0)
(0.200551 -0.00951009 0)
(0.224941 -0.00558481 0)
(0.241251 -0.00157138 0)
(0.249147 0.00210112 0)
(0.249353 0.00567198 0)
(0.242371 0.00886248 0)
(0.229238 0.0107448 0)
(0.211698 0.0109542 0)
(0.191594 0.0101228 0)
(0.170902 0.00897183 0)
(0.15086 0.00764242 0)
(0.132659 0.00602443 0)
(0.116615 0.00415974 0)
(0.103469 0.0024102 0)
(0.0930576 0.000950416 0)
(0.0859828 -0.000213652 0)
(0.0816552 -0.000995548 0)
(0.0800688 -0.00171145 0)
(0.0803849 -0.00193925 0)
(0.0813476 -0.00212267 0)
(0.0851817 -0.00173842 0)
(-0.000443422 0.0201704 0)
(-0.0163153 0.0329956 0)
(-0.0552332 0.0402502 0)
(-0.0887242 0.0476341 0)
(-0.120822 0.0547986 0)
(-0.146997 0.0577502 0)
(-0.1678 0.056612 0)
(-0.182806 0.0515911 0)
(-0.191499 0.0430012 0)
(-0.192639 0.0312402 0)
(-0.1848 0.0167021 0)
(-0.167993 0.000495309 0)
(-0.141896 -0.0163958 0)
(-0.107101 -0.0332616 0)
(-0.063658 -0.048895 0)
(-0.0132421 -0.062059 0)
(0.043318 -0.071944 0)
(0.103521 -0.078272 0)
(0.164913 -0.0811471 0)
(0.226017 -0.0809103 0)
(0.284751 -0.0780482 0)
(0.340385 -0.072695 0)
(0.391139 -0.0649442 0)
(0.436308 -0.0553516 0)
(0.474341 -0.0442581 0)
(0.505066 -0.0325634 0)
(0.528235 -0.0205597 0)
(0.5435 -0.00864307 0)
(0.551175 0.00239642 0)
(0.551987 0.0126777 0)
(0.545573 0.0216542 0)
(0.533094 0.0283582 0)
(0.514952 0.0322604 0)
(0.493268 0.0331783 0)
(0.468913 0.0318557 0)
(0.444004 0.0288767 0)
(0.419597 0.0253107 0)
(0.397524 0.0208512 0)
(0.377422 0.0162452 0)
(0.361183 0.0111631 0)
(0.34772 0.0064977 0)
(0.339018 0.00265542 0)
(0.332354 8.10156e-07 0)
(0.329164 -0.0021172 0)
(0.327502 -0.00318302 0)
(-0.0346338 -0.0115565 0)
(-0.0677224 0.0276511 0)
(-0.078102 0.0457246 0)
(-0.0820455 0.0558466 0)
(-0.077953 0.0606261 0)
(-0.0672839 0.0599157 0)
(-0.0516392 0.0550419 0)
(-0.0309929 0.0458069 0)
(-0.00608588 0.0320509 0)
(0.0233889 0.0142559 0)
(0.0588294 -0.00696317 0)
(0.100199 -0.0306677 0)
(0.147637 -0.0557491 0)
(0.199356 -0.0798939 0)
(0.254843 -0.101748 0)
(0.31271 -0.119823 0)
(0.3711 -0.13268 0)
(0.429042 -0.140609 0)
(0.484922 -0.143474 0)
(0.538062 -0.141903 0)
(0.587163 -0.136079 0)
(0.632355 -0.12629 0)
(0.672113 -0.112824 0)
(0.706751 -0.0967109 0)
(0.734893 -0.0785623 0)
(0.757274 -0.0594088 0)
(0.773271 -0.0399765 0)
(0.78394 -0.0208319 0)
(0.788555 -0.00278272 0)
(0.788531 0.0136942 0)
(0.782529 0.0284145 0)
(0.772219 0.0401974 0)
(0.756498 0.0486946 0)
(0.738742 0.0536835 0)
(0.717263 0.0555971 0)
(0.696153 0.0543269 0)
(0.672045 0.0500567 0)
(0.651462 0.0443322 0)
(0.628731 0.03724 0)
(0.612025 0.0291409 0)
(0.592913 0.0211256 0)
(0.581042 0.012769 0)
(0.566067 0.00758296 0)
(0.560165 0.00315851 0)
(0.547203 -0.000436983 0)
(-0.0299537 0.141622 0)
(-0.0265651 0.0899781 0)
(-0.0165262 0.0711403 0)
(0.00866903 0.0588026 0)
(0.0416732 0.0488034 0)
(0.0821972 0.0391863 0)
(0.127869 0.0272302 0)
(0.177166 0.0122149 0)
(0.229391 -0.00691811 0)
(0.284127 -0.0303743 0)
(0.341621 -0.0570756 0)
(0.400541 -0.0849058 0)
(0.460024 -0.112642 0)
(0.519327 -0.138736 0)
(0.576992 -0.161197 0)
(0.632019 -0.178569 0)
(0.682951 -0.189936 0)
(0.729343 -0.195342 0)
(0.77041 -0.1952 0)
(0.806793 -0.189961 0)
(0.838049 -0.179608 0)
(0.865424 -0.16442 0)
(0.887482 -0.145082 0)
(0.905949 -0.122994 0)
(0.919156 -0.0989492 0)
(0.929617 -0.0743254 0)
(0.93533 -0.0495887 0)
(0.939477 -0.0254553 0)
(0.939042 -0.00255664 0)
(0.937807 0.0185245 0)
(0.931246 0.0366022 0)
(0.924347 0.0519581 0)
(0.911406 0.0634203 0)
(0.899679 0.071427 0)
(0.882137 0.0754155 0)
(0.867663 0.0755667 0)
(0.847163 0.0727294 0)
(0.831979 0.0659565 0)
(0.810799 0.0584169 0)
(0.797852 0.0483508 0)
(0.776925 0.0387065 0)
(0.767647 0.0299008 0)
(0.746656 0.0208575 0)
(0.742498 0.0160654 0)
(0.721115 0.0103032 0)
(0.0809591 0.00504897 0)
(0.120014 -0.00377133 0)
(0.202709 -0.00721378 0)
(0.267558 -0.0137155 0)
(0.3278 -0.0223586 0)
(0.388215 -0.0330673 0)
(0.44895 -0.0462765 0)
(0.509094 -0.0619162 0)
(0.569759 -0.0810643 0)
(0.629222 -0.102906 0)
(0.687843 -0.127403 0)
(0.743813 -0.152438 0)
(0.795975 -0.176636 0)
(0.843029 -0.198203 0)
(0.883818 -0.215322 0)
(0.917682 -0.226716 0)
(0.94387 -0.231669 0)
(0.962619 -0.230722 0)
(0.974541 -0.224974 0)
(0.981439 -0.214885 0)
(0.984164 -0.200158 0)
(0.984601 -0.180843 0)
(0.981638 -0.157668 0)
(0.977974 -0.131831 0)
(0.971564 -0.104841 0)
(0.967048 -0.077871 0)
(0.960393 -0.0515543 0)
(0.957856 -0.0258278 0)
(0.952212 -0.00181402 0)
(0.951077 0.0209094 0)
(0.945364 0.0403205 0)
(0.944601 0.0575445 0)
(0.937701 0.070596 0)
(0.935448 0.0803711 0)
(0.926111 0.0862061 0)
(0.921964 0.0874615 0)
(0.909511 0.0861647 0)
(0.904053 0.0802831 0)
(0.888619 0.073091 0)
(0.883662 0.0634763 0)
(0.86561 0.0526408 0)
(0.862007 0.04383 0)
(0.841886 0.0338559 0)
(0.839841 0.0284327 0)
(0.817886 0.022188 0)
)
;

boundaryField
{
    inlet
    {
        type            fixedValue;
        value           uniform (1 0 0);
    }
    outlet
    {
        type            zeroGradient;
    }
    upperWall
    {
        type            noSlip;
    }
    lowerWall
    {
        type            noSlip;
    }
    frontAndBack
    {
        type            empty;
    }
}


// ************************************************************************* //
