/*--------------------------------*- C++ -*----------------------------------*\
  =========                 |
  \\      /  F ield         | OpenFOAM: The Open Source CFD Toolbox
   \\    /   O peration     | Website:  https://openfoam.org
    \\  /    A nd           | Version:  10
     \\/     M anipulation  |
\*---------------------------------------------------------------------------*/
FoamFile
{
    format      ascii;
    class       volVectorField;
    location    "5.425";
    object      U;
}
// * * * * * * * * * * * * * * * * * * * * * * * * * * * * * * * * * * * * * //

dimensions      [0 1 -1 0 0 0 0];

internalField   nonuniform List<vector> 
8000
(
(-4.84324e-05 6.35649e-05 -2.15818e-05)
(-0.000413442 0.000159596 1.5302e-05)
(-0.00102813 0.000187841 2.866e-05)
(-0.00163946 0.0001957 3.47757e-05)
(-0.00226394 0.000198993 3.45826e-05)
(-0.00287776 0.00020138 3.05256e-05)
(-0.00346874 0.000202022 2.37844e-05)
(-0.00402291 0.00019892 1.43664e-05)
(-0.00452259 0.000189562 1.31967e-06)
(-0.00494533 0.000172082 -1.4834e-05)
(-0.00526311 0.000144491 -3.40849e-05)
(-0.00544418 0.000105607 -5.62894e-05)
(-0.00545474 5.44864e-05 -8.12077e-05)
(-0.00526127 -9.71767e-06 -0.000107998)
(-0.00483774 -8.40928e-05 -0.00013534)
(-0.00417241 -0.000162599 -0.000159964)
(-0.00327748 -0.000235261 -0.000176292)
(-0.00222316 -0.000285203 -0.00017616)
(-0.00102413 -0.000280949 -0.000153625)
(-0.000188924 -0.000138431 -6.80901e-05)
(-0.000139766 0.000485069 -8.11432e-05)
(-0.000807263 0.000893816 -5.25364e-05)
(-0.00183406 0.00100983 -3.88703e-05)
(-0.00284945 0.00102976 -2.89057e-05)
(-0.00387296 0.00101929 -2.42463e-05)
(-0.00486536 0.000994438 -2.2846e-05)
(-0.00580436 0.000954415 -2.36718e-05)
(-0.00666697 0.000893939 -2.68302e-05)
(-0.00742535 0.000806283 -3.28578e-05)
(-0.008046 0.000685219 -4.21831e-05)
(-0.00848925 0.000524628 -5.52174e-05)
(-0.00871141 0.00031934 -7.23037e-05)
(-0.00866843 6.75491e-05 -9.38689e-05)
(-0.0083154 -0.000225993 -0.000117861)
(-0.0076164 -0.000548951 -0.000142785)
(-0.00655736 -0.000878263 -0.000165249)
(-0.00516 -0.00117555 -0.000178496)
(-0.00352508 -0.00137486 -0.000173224)
(-0.00167916 -0.00135326 -0.000143063)
(-0.000345016 -0.000786113 -3.62511e-05)
(-0.000167915 0.00119846 -0.000110788)
(-0.000941613 0.00204539 -8.59988e-05)
(-0.00211563 0.00227745 -7.22097e-05)
(-0.00326957 0.00230298 -6.0143e-05)
(-0.00442882 0.00225773 -5.2899e-05)
(-0.00555036 0.00217509 -4.85816e-05)
(-0.0066105 0.00205574 -4.62632e-05)
(-0.00758494 0.00189169 -4.61861e-05)
(-0.00844411 0.00167225 -4.90227e-05)
(-0.00915234 0.00138594 -5.55188e-05)
(-0.00966789 0.0010219 -6.63912e-05)
(-0.00994267 0.000571428 -8.22229e-05)
(-0.00992256 3.22066e-05 -0.00010348)
(-0.00955305 -0.000587078 -0.000128559)
(-0.00878931 -0.00126233 -0.00015594)
(-0.00760601 -0.00194764 -0.000181461)
(-0.00601731 -0.00256612 -0.00019699)
(-0.00413337 -0.00298334 -0.000191202)
(-0.00197956 -0.00294839 -0.000156617)
(-0.000409189 -0.00180578 -3.2851e-05)
(-0.000172675 0.00194088 -0.000132837)
(-0.000985871 0.00324934 -0.000111792)
(-0.00222318 0.003598 -9.83316e-05)
(-0.00343675 0.00362668 -8.50569e-05)
(-0.00465912 0.00354617 -7.62546e-05)
(-0.00584697 0.00340775 -7.015e-05)
(-0.00697849 0.00321345 -6.59672e-05)
(-0.00803114 0.00295227 -6.41687e-05)
(-0.00897645 0.00260887 -6.55536e-05)
(-0.00977869 0.00216589 -7.10844e-05)
(-0.0103936 0.00160605 -8.17813e-05)
(-0.010768 0.000915805 -9.86891e-05)
(-0.0108404 8.94991e-05 -0.000123006)
(-0.010541 -0.000864847 -0.000153048)
(-0.00980186 -0.00191676 -0.000186637)
(-0.0085738 -0.0029984 -0.000219065)
(-0.00685032 -0.00399132 -0.00024022)
(-0.00474646 -0.00468053 -0.000235935)
(-0.00228582 -0.00466088 -0.000196483)
(-0.000472425 -0.00289562 -4.89047e-05)
(-0.000171149 0.0027341 -0.000150923)
(-0.001009 0.00453937 -0.000133016)
(-0.00229446 0.00501309 -0.00011998)
(-0.00355596 0.00504765 -0.000106123)
(-0.00483322 0.00493492 -9.66942e-05)
(-0.00608384 0.00474573 -9.00199e-05)
(-0.00728964 0.004484 -8.54397e-05)
(-0.00843157 0.00413582 -8.35916e-05)
(-0.00948407 0.00368073 -8.55465e-05)
(-0.0104129 0.00309428 -9.2565e-05)
(-0.0111725 0.00235028 -0.000106054)
(-0.0117034 0.00142492 -0.000127424)
(-0.0119306 0.000303324 -0.000157772)
(-0.0117653 -0.00101093 -0.000197978)
(-0.0111086 -0.00248702 -0.000243801)
(-0.00987038 -0.00403846 -0.000289959)
(-0.00800482 -0.00550005 -0.000323075)
(-0.00562014 -0.00655544 -0.00032344)
(-0.00273638 -0.00659995 -0.000277194)
(-0.000571102 -0.00413771 -9.15349e-05)
(-0.00016847 0.00356665 -0.00016915)
(-0.001032 0.00590397 -0.000154231)
(-0.0023702 0.00651339 -0.000141746)
(-0.00368505 0.0065592 -0.000127658)
(-0.00502401 0.00642128 -0.000118115)
(-0.00634627 0.00619231 -0.000111569)
(-0.0076388 0.00587901 -0.000107504)
(-0.00888799 0.00546493 -0.000106757)
(-0.0100734 0.00492411 -0.000110686)
(-0.0111648 0.00422347 -0.000121006)
(-0.0121172 0.00332477 -0.000139702)
(-0.0128664 0.00218881 -0.000168891)
(-0.0133239 0.000783374 -0.000210348)
(-0.0133759 -0.000904753 -0.000267712)
(-0.012879 -0.00285787 -0.000334729)
(-0.0116813 -0.00497637 -0.00040548)
(-0.00966911 -0.00704452 -0.000461655)
(-0.00691837 -0.008617 -0.000474127)
(-0.00343526 -0.00881786 -0.000419297)
(-0.000736813 -0.00558346 -0.000174389)
(-0.000165364 0.00444294 -0.000190386)
(-0.00105898 0.00735224 -0.000178994)
(-0.00245823 0.00810954 -0.000167212)
(-0.00383329 0.00817256 -0.000152926)
(-0.00524056 0.00801768 -0.000143314)
(-0.00664148 0.00776259 -0.000137034)
(-0.00802989 0.00741838 -0.000133797)
(-0.00940003 0.00696708 -0.00013473)
(-0.0107399 0.00637758 -0.000141588)
(-0.0120272 0.00560731 -0.000156696)
(-0.0132224 0.00460274 -0.000182976)
(-0.0142601 0.00330243 -0.000223712)
(-0.0150397 0.00164499 -0.000282338)
(-0.0154245 -0.000416598 -0.000368242)
(-0.0152129 -0.00288144 -0.000470312)
(-0.014161 -0.00567637 -0.00058485)
(-0.0120449 -0.00853812 -0.000686031)
(-0.00885126 -0.0108626 -0.000729061)
(-0.00454367 -0.0113879 -0.000667437)
(-0.00102836 -0.00733115 -0.000333294)
(-0.000161674 0.00537208 -0.000216444)
(-0.00109034 0.0089001 -0.000209663)
(-0.00255881 0.00981766 -0.00019867)
(-0.00399828 0.00990204 -0.000183886)
(-0.0054759 0.009737 -0.000173804)
(-0.00695594 0.00946944 -0.000167424)
(-0.00844103 0.00911741 -0.000164816)
(-0.00993605 0.00866359 -0.000167528)
(-0.0114416 0.0080735 -0.000177892)
(-0.0129492 0.00729596 -0.000199143)
(-0.014433 0.00626114 -0.000235678)
(-0.0158365 0.00488006 -0.000293156)
(-0.0170572 0.00304974 -0.000378873)
(-0.017922 0.000670486 -0.000498597)
(-0.0181818 -0.00231347 -0.000665042)
(-0.017484 -0.00589027 -0.00085888)
(-0.0154117 -0.00978012 -0.00104866)
(-0.0117549 -0.0132074 -0.00116611)
(-0.00637423 -0.0143609 -0.00111656)
(-0.00157939 -0.00953786 -0.00065515)
(-0.000157845 0.00636612 -0.000249086)
(-0.00112787 0.0105669 -0.000248564)
(-0.00267361 0.0116549 -0.000238307)
(-0.00417813 0.01176 -0.000222282)
(-0.00572181 0.0115868 -0.000210763)
(-0.00727223 0.0113173 -0.000203294)
(-0.00884268 0.0109799 -0.000200473)
(-0.0104517 0.0105617 -0.000204434)
(-0.0121168 0.0100288 -0.000218305)
(-0.0138507 0.00932532 -0.000246616)
(-0.0156517 0.00836781 -0.000295976)
(-0.0174877 0.00703915 -0.000375766)
(-0.0192694 0.0051858 -0.000498208)
(-0.0208172 0.00262797 -0.000676485)
(-0.0218399 -0.000810055 -0.000942947)
(-0.021846 -0.00518704 -0.00127303)
(-0.0201615 -0.0103427 -0.00163454)
(-0.0161906 -0.0153524 -0.00192655)
(-0.00956614 -0.0176824 -0.00196567)
(-0.00269877 -0.0124402 -0.00135787)
(-0.000155869 0.00744283 -0.000290713)
(-0.00117778 0.0123782 -0.000298745)
(-0.00281048 0.013641 -0.000288904)
(-0.0043772 0.0137566 -0.000270222)
(-0.00597525 0.0135682 -0.000255462)
(-0.00757598 0.0132991 -0.000245)
(-0.0092049 0.0129932 -0.00024019)
(-0.0108965 0.0126469 -0.000243921)
(-0.0126892 0.0122338 -0.000260342)
(-0.0146241 0.0117017 -0.000295685)
(-0.0167365 0.0109634 -0.000359639)
(-0.0190406 0.00988195 -0.000467144)
(-0.0214982 0.00825577 -0.000639649)
(-0.023965 0.0058063 -0.000905965)
(-0.0261056 0.00219856 -0.00130137)
(-0.0273652 -0.00285124 -0.00187387)
(-0.0267888 -0.00935253 -0.00255847)
(-0.0230821 -0.0164993 -0.00324286)
(-0.0153943 -0.0209583 -0.00361648)
(-0.00506785 -0.016394 -0.00302089)
(-0.000160782 0.00863147 -0.000345172)
(-0.00125454 0.0143706 -0.000364738)
(-0.00298863 0.0158008 -0.000354511)
(-0.0046117 0.0159011 -0.00033066)
(-0.00624427 0.0156747 -0.000309576)
(-0.00786225 0.0153941 -0.000292851)
(-0.00950438 0.0151237 -0.000282881)
(-0.0112217 0.0148752 -0.000283443)
(-0.0130748 0.0146384 -0.000299866)
(-0.0151371 0.0143787 -0.00034042)
(-0.017492 0.0140246 -0.000418589)
(-0.0202231 0.013445 -0.00055656)
(-0.0233867 0.0124153 -0.000789723)
(-0.0269507 0.0105759 -0.00116851)
(-0.0306879 0.00740677 -0.00175351)
(-0.033997 0.00225363 -0.00264723)
(-0.0357686 -0.00536342 -0.00390641)
(-0.0338119 -0.0149328 -0.00535073)
(-0.026141 -0.0229725 -0.00662614)
(-0.0100866 -0.0220075 -0.00674843)
(-0.000183673 0.00998361 -0.00041922)
(-0.00138747 0.0166016 -0.000453966)
(-0.00324626 0.01817 -0.000441627)
(-0.00491707 0.0182032 -0.000408164)
(-0.00655517 0.0178916 -0.000375544)
(-0.00814311 0.0175655 -0.000347235)
(-0.00973362 0.0173132 -0.000327002)
(-0.0113924 0.0171664 -0.000319485)
(-0.0131984 0.0171407 -0.000331172)
(-0.0152535 0.017237 -0.000372341)
(-0.0176909 0.0174293 -0.000460507)
(-0.0206805 0.0176383 -0.000625918)
(-0.0244206 0.0176847 -0.00091959)
(-0.0290935 0.0172112 -0.0014201)
(-0.0347669 0.015584 -0.00222669)
(-0.0411901 0.0117653 -0.00344235)
(-0.0471535 0.00431282 -0.00526683)
(-0.0494913 -0.00762539 -0.00770515)
(-0.0444829 -0.0219193 -0.0103524)
(-0.0197065 -0.0312371 -0.0123997)
(-0.000248342 0.0115873 -0.000525135)
(-0.00163328 0.0191504 -0.000577471)
(-0.00365283 0.0207824 -0.000558279)
(-0.00535873 0.0206582 -0.000507028)
(-0.00696151 0.0201864 -0.000454794)
(-0.00845619 0.019756 -0.000407367)
(-0.0099112 0.0194749 -0.00036967)
(-0.0114015 0.0193972 -0.000346679)
(-0.0130123 0.0195722 -0.00034586)
(-0.014858 0.020052 -0.000378577)
(-0.017103 0.0208885 -0.000464475)
(-0.0199869 0.0221126 -0.000637529)
(-0.0238575 0.023692 -0.000953682)
(-0.0291906 0.0254175 -0.00148853)
(-0.0366144 0.0267188 -0.00231028)
(-0.0467644 0.0261506 -0.00345667)
(-0.059083 0.0208133 -0.0049681)
(-0.0692072 0.00519041 -0.00639558)
(-0.0704768 -0.022706 -0.00761395)
(-0.0338066 -0.0541394 -0.0129535)
(-0.000411678 0.0136326 -0.000693963)
(-0.0021135 0.0222483 -0.000775985)
(-0.00433305 0.0238566 -0.000747482)
(-0.00603741 0.0234546 -0.000664109)
(-0.00754068 0.0226787 -0.000571567)
(-0.00886552 0.0220011 -0.000484051)
(-0.0100928 0.0215635 -0.000411142)
(-0.0112926 0.0214459 -0.00035967)
(-0.0125387 0.021732 -0.000335623)
(-0.0139297 0.0225331 -0.00034908)
(-0.0156193 0.0240076 -0.000417721)
(-0.0178611 0.0263529 -0.000568274)
(-0.0210999 0.0298006 -0.000830211)
(-0.0260844 0.0344235 -0.00117661)
(-0.0341757 0.0397951 -0.00137163)
(-0.0473412 0.0434811 -0.000773251)
(-0.0676713 0.0395328 0.00143619)
(-0.090436 0.0133136 0.00643)
(-0.101532 -0.0430003 0.0116191)
(-0.0471946 -0.109905 -0.00184133)
(-0.000726224 0.016543 -0.000951096)
(-0.00289253 0.0256772 -0.00100884)
(-0.00538171 0.0267965 -0.000939121)
(-0.00709879 0.0257521 -0.000790088)
(-0.00848609 0.0245538 -0.000645107)
(-0.00956279 0.0236379 -0.000513774)
(-0.0104428 0.0230766 -0.000403634)
(-0.0111998 0.0229068 -0.000319132)
(-0.0118801 0.0232136 -0.000264672)
(-0.0125219 0.0241475 -0.000245834)
(-0.0131988 0.0259802 -0.000269637)
(-0.0140595 0.0290831 -0.000330901)
(-0.0155214 0.0340083 -0.000373454)
(-0.0185102 0.0410421 -9.44547e-05)
(-0.0255226 0.0499631 0.00144824)
(-0.0408137 0.0564836 0.00626913)
(-0.0726158 0.050283 0.0164472)
(-0.112615 -0.000374364 0.0303096)
(-0.130635 -0.109787 0.03464)
(-0.0516394 -0.207029 0.00179008)
(-0.00204956 0.0196281 -0.00149333)
(-0.00544055 0.0312437 -0.00166208)
(-0.00763553 0.0319965 -0.00150651)
(-0.0089184 0.0304601 -0.001239)
(-0.00972992 0.0284227 -0.000943849)
(-0.0103048 0.0266675 -0.00067381)
(-0.0107321 0.025355 -0.000447003)
(-0.0110081 0.0245579 -0.00027121)
(-0.0110881 0.0243715 -0.000148691)
(-0.0108845 0.0249278 -7.70635e-05)
(-0.0103236 0.0265476 -5.48824e-05)
(-0.00932439 0.0296539 -2.32163e-05)
(-0.00821732 0.035126 0.000200725)
(-0.00770744 0.04321 0.00128635)
(-0.0116229 0.0546488 0.00497403)
(-0.0258436 0.0616704 0.0146695)
(-0.0672325 0.0483611 0.03187)
(-0.1171 -0.0455694 0.0460336)
(-0.139834 -0.207631 0.0329757)
(-0.05036 -0.305816 -0.0185048)
(-0.00135015 0.0312194 -0.00253489)
(-0.00534586 0.0351681 -0.00228124)
(-0.00959754 0.0336125 -0.0019399)
(-0.011099 0.0298683 -0.00134846)
(-0.0120773 0.0272038 -0.000868698)
(-0.0121761 0.0253024 -0.000450924)
(-0.01183 0.0240071 -0.000115235)
(-0.0111425 0.0231767 0.000133372)
(-0.0101291 0.0228433 0.000287617)
(-0.00863155 0.0230245 0.000365111)
(-0.006468 0.0241161 0.000378829)
(-0.00315031 0.0263289 0.000418974)
(0.00105457 0.0307579 0.000728046)
(0.00689161 0.0374383 0.00225198)
(0.00903909 0.0480825 0.00685274)
(0.00690392 0.0536844 0.0183291)
(-0.0297342 0.0311917 0.0365203)
(-0.0736012 -0.0904805 0.0427368)
(-0.120423 -0.264029 0.0158369)
(-0.0460014 -0.373975 -0.0425703)
(-0.012402 0.0290906 -0.00339335)
(-0.0213951 0.0506788 -0.00400697)
(-0.0161925 0.0464862 -0.00356035)
(-0.0156332 0.0416428 -0.00266049)
(-0.0128465 0.0359534 -0.00159313)
(-0.00993935 0.0312927 -0.000683853)
(-0.00697745 0.0276507 2.65586e-05)
(-0.00398152 0.0248961 0.0005126)
(-0.000964918 0.0229473 0.000801216)
(0.00250907 0.0216025 0.000933743)
(0.00643574 0.0210664 0.000891834)
(0.0118536 0.0212596 0.000734041)
(0.0181511 0.0230929 0.000742068)
(0.0281174 0.0262721 0.00145617)
(0.0356066 0.0328011 0.00479534)
(0.0499982 0.0368863 0.013578)
(0.033369 0.0191627 0.0266871)
(0.0226967 -0.0937407 0.0314183)
(-0.0670547 -0.265512 0.00551707)
(-0.0222061 -0.40462 -0.0576311)
(-0.0463993 0.0886297 -0.0121963)
(-0.0299185 0.0415028 -0.00817598)
(-0.0208426 0.0352411 -0.00570783)
(-0.00264868 0.0282034 -0.00336641)
(0.012472 0.0219224 -0.0017219)
(0.0271281 0.0177967 -0.00046078)
(0.0396289 0.0152034 0.000506081)
(0.0508047 0.0132776 0.0011394)
(0.0600711 0.0120429 0.00157175)
(0.0690864 0.0110013 0.00175452)
(0.0762698 0.0106724 0.00172621)
(0.0855002 0.0102427 0.00141997)
(0.0919135 0.0108029 0.000975753)
(0.106374 0.0105339 0.000487744)
(0.11123 0.010045 0.000928571)
(0.141267 0.0033523 0.00460197)
(0.124966 -0.016641 0.00913684)
(0.159948 -0.0931191 0.0165077)
(0.0330676 -0.23865 0.000235073)
(0.0316037 -0.371346 -0.0678614)
(0.117637 0.111965 -0.0112328)
(0.1442 0.0596321 -0.0117637)
(0.216373 0.0393781 -0.0113952)
(0.260833 0.0262185 -0.0100524)
(0.293365 0.0174206 -0.00845381)
(0.320316 0.0115392 -0.00709457)
(0.340761 0.00786879 -0.00579623)
(0.35937 0.00544849 -0.00471255)
(0.371849 0.00401164 -0.00376453)
(0.386885 0.00297109 -0.00286438)
(0.393175 0.00253251 -0.00234241)
(0.408894 0.00211406 -0.00164849)
(0.408248 0.00222064 -0.00148335)
(0.429659 0.00190876 -0.00110354)
(0.417348 0.00143529 -0.000954254)
(0.447766 -0.00156498 -0.000274054)
(0.40554 -0.00988642 0.000527905)
(0.424613 -0.0323959 0.000375312)
(0.254776 -0.0750829 -0.00839432)
(0.164953 -0.139907 -0.0776043)
(-9.56665e-05 0.000107242 -6.31808e-05)
(-0.00074022 0.000304883 -1.51441e-05)
(-0.00180237 0.000364592 7.50822e-06)
(-0.00284088 0.000374113 1.96429e-05)
(-0.00387805 0.000369908 2.0562e-05)
(-0.00487682 0.000361171 1.38277e-05)
(-0.00581775 0.000347342 1.15723e-06)
(-0.00667965 0.000325777 -1.74634e-05)
(-0.00743443 0.000293838 -4.29454e-05)
(-0.00804809 0.000248139 -7.54558e-05)
(-0.00848174 0.000185881 -0.000115299)
(-0.00869208 0.000105406 -0.000162354)
(-0.00863405 5.47356e-06 -0.000215904)
(-0.00826462 -0.000112645 -0.000273351)
(-0.00755104 -0.00024359 -0.00033121)
(-0.00647916 -0.000377824 -0.000382695)
(-0.00506808 -0.000498115 -0.000417001)
(-0.00341661 -0.00057232 -0.000419493)
(-0.0015529 -0.000533867 -0.000378727)
(-0.000277369 -0.000231163 -0.000212047)
(-0.000305183 0.000804023 -0.000172995)
(-0.00159654 0.00162326 -0.000142907)
(-0.00351601 0.00185899 -0.000118798)
(-0.00539014 0.00187766 -9.81703e-05)
(-0.00723689 0.00182361 -8.77816e-05)
(-0.00898909 0.00173466 -8.48045e-05)
(-0.0106065 0.00161278 -8.77395e-05)
(-0.0120493 0.00145145 -9.69482e-05)
(-0.0132715 0.00124276 -0.00011345)
(-0.014221 0.000977841 -0.000138305)
(-0.0148399 0.000649088 -0.000172372)
(-0.0150672 0.00025101 -0.000216067)
(-0.0148419 -0.000216144 -0.000269926)
(-0.0141064 -0.000741116 -0.000329234)
(-0.0128197 -0.00130194 -0.000389892)
(-0.01097 -0.00185975 -0.000443841)
(-0.0085968 -0.00234752 -0.000477251)
(-0.00584968 -0.00264038 -0.000472571)
(-0.00278224 -0.00248591 -0.000416053)
(-0.000576059 -0.00130517 -0.000200785)
(-0.000381842 0.00198177 -0.000231234)
(-0.00192709 0.00365929 -0.000212333)
(-0.00418393 0.00412356 -0.000188153)
(-0.0063747 0.00413596 -0.000163028)
(-0.0085238 0.00398814 -0.000147248)
(-0.0105553 0.00375687 -0.000138414)
(-0.0124243 0.00344976 -0.000135315)
(-0.0140873 0.00305759 -0.000138714)
(-0.0154942 0.00256721 -0.000150082)
(-0.0165891 0.00196463 -0.000171055)
(-0.0173099 0.00123746 -0.000203115)
(-0.0175888 0.000377658 -0.000247311)
(-0.017352 -0.000612425 -0.000303737)
(-0.0165299 -0.00171326 -0.000368931)
(-0.0150699 -0.00288081 -0.000438333)
(-0.0129463 -0.00403685 -0.000502218)
(-0.0101909 -0.00504672 -0.000543612)
(-0.00696914 -0.00565794 -0.000540645)
(-0.0033366 -0.00536321 -0.000476441)
(-0.000698621 -0.00299875 -0.000224874)
(-0.000406209 0.00320421 -0.000278058)
(-0.00206068 0.00578302 -0.000270256)
(-0.00447512 0.00647736 -0.000246963)
(-0.00681298 0.00647732 -0.000219119)
(-0.00910906 0.00623218 -0.000199898)
(-0.0112858 0.0058585 -0.0001873)
(-0.0133003 0.00536911 -0.000180481)
(-0.0151104 0.00475171 -0.000180685)
(-0.0166669 0.00398734 -0.000189879)
(-0.017913 0.00305493 -0.000210324)
(-0.0187828 0.00193467 -0.000244215)
(-0.0192007 0.000613494 -0.000293566)
(-0.0190809 -0.000908361 -0.000360354)
(-0.0183298 -0.00261069 -0.000440326)
(-0.0168632 -0.00443261 -0.000528125)
(-0.0146219 -0.00625798 -0.000612197)
(-0.0116096 -0.00787739 -0.00067108)
(-0.0079984 -0.00888753 -0.000676333)
(-0.00384553 -0.00847868 -0.000604609)
(-0.000803619 -0.00481592 -0.000299034)
(-0.000418427 0.0045034 -0.000319698)
(-0.00215223 0.00804701 -0.000322408)
(-0.00469271 0.00898551 -0.000300276)
(-0.00715263 0.00897513 -0.000270829)
(-0.00957752 0.00863435 -0.000249835)
(-0.0118906 0.00812235 -0.00023568)
(-0.0140538 0.00745781 -0.000227895)
(-0.0160294 0.00662522 -0.000228238)
(-0.0177718 0.00559884 -0.000239355)
(-0.0192251 0.00434801 -0.000264381)
(-0.02032 0.00284109 -0.000306627)
(-0.02097 0.00105202 -0.000369289)
(-0.0210706 -0.00102945 -0.000454596)
(-0.0204966 -0.00338899 -0.000562071)
(-0.0191154 -0.00595802 -0.000683801)
(-0.0168099 -0.00858484 -0.000805998)
(-0.0135257 -0.0109724 -0.000899772)
(-0.00942591 -0.0125249 -0.00092404)
(-0.00457151 -0.0120468 -0.000842645)
(-0.000960232 -0.00690296 -0.000447385)
(-0.000431668 0.00586883 -0.000363443)
(-0.00225312 0.0104435 -0.000377132)
(-0.00493494 0.011644 -0.000356425)
(-0.00753355 0.0116289 -0.000325908)
(-0.0101061 0.0111994 -0.000303984)
(-0.0125779 0.0105611 -0.000289488)
(-0.0149177 0.00973951 -0.000282427)
(-0.0170956 0.00871607 -0.000285192)
(-0.0190725 0.00745718 -0.00030128)
(-0.0207973 0.00591967 -0.00033503)
(-0.0221995 0.0040544 -0.000391387)
(-0.0231832 0.0018134 -0.000475575)
(-0.0236233 -0.00083833 -0.00059212)
(-0.0233528 -0.00390993 -0.000744683)
(-0.0221696 -0.00734135 -0.000923367)
(-0.0198662 -0.0109541 -0.00111208)
(-0.0162857 -0.0143498 -0.00127084)
(-0.0115426 -0.0166822 -0.00133682)
(-0.00569419 -0.016232 -0.00124594)
(-0.00122134 -0.00938256 -0.000707284)
(-0.000448765 0.00731307 -0.000414925)
(-0.00237612 0.0129952 -0.000441534)
(-0.00522595 0.0144779 -0.000422481)
(-0.00798719 0.0144639 -0.000390714)
(-0.0107306 0.0139536 -0.00036768)
(-0.0133846 0.0132041 -0.000352845)
(-0.0159279 0.0122497 -0.000346892)
(-0.0183417 0.0110696 -0.000353078)
(-0.0205989 0.00962196 -0.00037607)
(-0.0226587 0.00784855 -0.000421922)
(-0.0244564 0.00567638 -0.000498091)
(-0.0258918 0.00302337 -0.000613201)
(-0.0268226 -0.000189614 -0.000776229)
(-0.0270357 -0.00401055 -0.000999886)
(-0.0262381 -0.00842823 -0.00127083)
(-0.0240883 -0.013265 -0.00157452)
(-0.0202562 -0.0180189 -0.00185499)
(-0.0147166 -0.0215201 -0.00201326)
(-0.0074915 -0.0213019 -0.00192351)
(-0.00168403 -0.012496 -0.0011614)
(-0.000470222 0.00885474 -0.00047835)
(-0.0025246 0.0157341 -0.000521103)
(-0.00557135 0.0175198 -0.000503704)
(-0.00851733 0.0175096 -0.000469677)
(-0.0114499 0.0169238 -0.000444265)
(-0.0143017 0.0160777 -0.000427853)
(-0.0170648 0.0150181 -0.000422082)
(-0.0197365 0.0137241 -0.000431388)
(-0.0223082 0.0121472 -0.000462047)
(-0.024759 0.0102131 -0.000522555)
(-0.0270424 0.00782064 -0.000624134)
(-0.0290687 0.00484188 -0.000780576)
(-0.0306804 0.00113214 -0.00100761)
(-0.0316301 -0.00343502 -0.00133041)
(-0.0315316 -0.00895033 -0.00175674)
(-0.0298508 -0.0152944 -0.00225948)
(-0.0259832 -0.0218952 -0.00276892)
(-0.0195859 -0.0271911 -0.00313081)
(-0.0105521 -0.027638 -0.00309114)
(-0.00258322 -0.0167053 -0.00199268)
(-0.000497306 0.0105153 -0.000558183)
(-0.00270319 0.0186958 -0.000621663)
(-0.0059771 0.0208021 -0.000605484)
(-0.00912587 0.0207909 -0.000567077)
(-0.0122575 0.0201281 -0.00053661)
(-0.0153102 0.0191963 -0.000515797)
(-0.0182931 0.0180592 -0.000507604)
(-0.0212252 0.0167009 -0.000517993)
(-0.0241247 0.01507 -0.000555349)
(-0.0270026 0.0130796 -0.000631513)
(-0.0298481 0.0105997 -0.00076329)
(-0.0326047 0.00744907 -0.00097391)
(-0.0351317 0.00339474 -0.00129467)
(-0.0371771 -0.00183247 -0.00176097)
(-0.0382695 -0.00847034 -0.00242202)
(-0.0376518 -0.0165881 -0.00325648)
(-0.0343332 -0.0256595 -0.00419151)
(-0.0273564 -0.0337204 -0.00499694)
(-0.0162385 -0.0357819 -0.00518092)
(-0.00452684 -0.0230286 -0.00363438)
(-0.000533552 0.012323 -0.000660501)
(-0.00292272 0.0219226 -0.000750861)
(-0.00645761 0.0243588 -0.000734702)
(-0.00982283 0.0243281 -0.000688143)
(-0.0131529 0.0235744 -0.000647914)
(-0.0163931 0.0225578 -0.000617631)
(-0.0195737 0.021366 -0.000602036)
(-0.0227406 0.0199946 -0.000608953)
(-0.0259473 0.0183977 -0.000649302)
(-0.0292506 0.0164848 -0.000739097)
(-0.0326989 0.0141056 -0.000902538)
(-0.0363067 0.0110285 -0.00117593)
(-0.0400103 0.00691692 -0.00161029)
(-0.0435936 0.00131886 -0.00226942)
(-0.0465878 -0.00626081 -0.00326043)
(-0.0480982 -0.016259 -0.00464528)
(-0.0466691 -0.0284386 -0.00634199)
(-0.0403376 -0.0406454 -0.00806824)
(-0.0276356 -0.0464094 -0.00897313)
(-0.00906314 -0.0338388 -0.00712635)
(-0.000586741 0.0143193 -0.000794639)
(-0.00320553 0.0254696 -0.000919848)
(-0.00704319 0.0282277 -0.000901158)
(-0.0106342 0.028137 -0.000840109)
(-0.0141496 0.0272576 -0.000782403)
(-0.0175439 0.0261398 -0.000734339)
(-0.0208718 0.0249025 -0.000702978)
(-0.0242105 0.0235614 -0.000698202)
(-0.0276545 0.0220882 -0.000733605)
(-0.0313187 0.0204062 -0.000829747)
(-0.0353346 0.018367 -0.00101934)
(-0.0398351 0.0157121 -0.00135504)
(-0.0449126 0.012017 -0.00191929)
(-0.0505302 0.00663397 -0.00283308)
(-0.0564217 -0.00131061 -0.00424381)
(-0.0618002 -0.0127505 -0.00635942)
(-0.0648945 -0.0282657 -0.00925533)
(-0.0622943 -0.0462957 -0.0125066)
(-0.0500712 -0.0601983 -0.0149312)
(-0.0190656 -0.0545858 -0.0138337)
(-0.000672736 0.0165713 -0.000975953)
(-0.00359387 0.029417 -0.00114615)
(-0.00778982 0.0324593 -0.00112021)
(-0.0116113 0.0322326 -0.00103413)
(-0.0152839 0.0311602 -0.000946422)
(-0.0187754 0.0298963 -0.000867447)
(-0.0221682 0.0285978 -0.000807306)
(-0.0255718 0.0273092 -0.00077781)
(-0.0291216 0.0260345 -0.000794809)
(-0.0329947 0.0247359 -0.000882718)
(-0.0374225 0.0233076 -0.00108215)
(-0.0427032 0.0215235 -0.00146226)
(-0.0491928 0.018951 -0.00213819)
(-0.0572453 0.0148302 -0.0032831)
(-0.0670944 0.00796369 -0.00511092)
(-0.0786674 -0.00334937 -0.00783459)
(-0.090178 -0.0213482 -0.0115414)
(-0.0956838 -0.0475611 -0.015502)
(-0.0859051 -0.0791112 -0.0183799)
(-0.0342008 -0.097692 -0.0205385)
(-0.000822132 0.0191782 -0.00122993)
(-0.0041614 0.0338403 -0.00145359)
(-0.00879268 0.0370559 -0.00140884)
(-0.0128448 0.0365647 -0.00127984)
(-0.0166287 0.0352059 -0.00114416)
(-0.0201324 0.0337327 -0.00101658)
(-0.023472 0.0323321 -0.000909834)
(-0.0267857 0.0310819 -0.000836772)
(-0.0302393 0.030035 -0.00081458)
(-0.0340566 0.0292217 -0.000868652)
(-0.0385595 0.0286314 -0.00104158)
(-0.0442187 0.028162 -0.00140633)
(-0.0517175 0.0275244 -0.00208104)
(-0.0620004 0.0260706 -0.0032138)
(-0.0763129 0.0225109 -0.00486629)
(-0.0956714 0.0140197 -0.00672239)
(-0.117444 -0.00559242 -0.00755208)
(-0.13067 -0.047596 -0.00504717)
(-0.121303 -0.115537 -0.00169637)
(-0.0421841 -0.17895 -0.0144671)
(-0.00111751 0.02238 -0.00161534)
(-0.00509485 0.0391379 -0.00192486)
(-0.010236 0.0424398 -0.00185455)
(-0.0144639 0.0415247 -0.00165334)
(-0.0182637 0.0396595 -0.00142705)
(-0.0216693 0.0377614 -0.00120692)
(-0.0248222 0.0360821 -0.00101496)
(-0.0278665 0.0347451 -0.000867197)
(-0.0309737 0.0338575 -0.000777716)
(-0.0343823 0.0335403 -0.000766969)
(-0.0384563 0.0339406 -0.000867904)
(-0.0437798 0.0351997 -0.00112708)
(-0.0513006 0.0373844 -0.00157896)
(-0.0624596 0.0401872 -0.00207425)
(-0.0793006 0.0421256 -0.00176664)
(-0.1033 0.0376181 0.0017801)
(-0.130759 0.0129378 0.0126855)
(-0.145982 -0.0564871 0.0321042)
(-0.137028 -0.171725 0.0407232)
(-0.0348121 -0.277923 5.78387e-05)
(-0.00153348 0.0265412 -0.00216973)
(-0.00624571 0.0444712 -0.00247551)
(-0.0121494 0.04718 -0.00232396)
(-0.0166644 0.0453641 -0.0019919)
(-0.0205101 0.0429705 -0.00165393)
(-0.0236973 0.0408009 -0.00133103)
(-0.0264557 0.039004 -0.00104362)
(-0.0289633 0.0376581 -0.000804237)
(-0.0313748 0.036895 -0.000622927)
(-0.0338695 0.0369266 -0.000508379)
(-0.0367353 0.0380931 -0.000460674)
(-0.0404769 0.0408564 -0.000436161)
(-0.0460307 0.0457684 -0.000226618)
(-0.0549127 0.052759 0.00103355)
(-0.0695815 0.0597274 0.00597091)
(-0.091426 0.0570751 0.0200702)
(-0.119656 0.0253227 0.048319)
(-0.136044 -0.0701855 0.0786188)
(-0.133139 -0.226807 0.0691197)
(-0.0220058 -0.363407 -0.00485692)
(-0.003604 0.030591 -0.00319227)
(-0.0104507 0.0535246 -0.00374182)
(-0.0159104 0.0559638 -0.00345183)
(-0.0198889 0.0534857 -0.00291924)
(-0.023004 0.0497422 -0.00230568)
(-0.0256354 0.0462733 -0.0017154)
(-0.0278894 0.0433734 -0.00119023)
(-0.0298166 0.0411764 -0.000750989)
(-0.0314393 0.039824 -0.000402577)
(-0.0327801 0.0395489 -0.000137043)
(-0.0339162 0.0408189 7.97505e-05)
(-0.0350233 0.0442974 0.000427126)
(-0.0367319 0.0510219 0.00144593)
(-0.0398737 0.0609048 0.00483535)
(-0.0469797 0.0717217 0.0147145)
(-0.0588412 0.0697078 0.037729)
(-0.0830929 0.0357693 0.074811)
(-0.0967321 -0.0813469 0.0974868)
(-0.107171 -0.270018 0.0576439)
(-0.00609895 -0.434539 -0.0261236)
(-0.00167145 0.0453916 -0.00509936)
(-0.00898958 0.0573107 -0.00513176)
(-0.0190366 0.0566765 -0.00445641)
(-0.0235826 0.051608 -0.00336438)
(-0.0273953 0.0478277 -0.00243542)
(-0.0295836 0.0447873 -0.00156893)
(-0.0308752 0.0423492 -0.000815554)
(-0.0314572 0.0403927 -0.000190582)
(-0.0314126 0.0390532 0.000296682)
(-0.0306564 0.0385074 0.000661989)
(-0.0290775 0.0393348 0.000958329)
(-0.0262845 0.0420231 0.00146109)
(-0.0224127 0.0480293 0.00284556)
(-0.0164305 0.0568844 0.00714086)
(-0.0120789 0.068253 0.0181651)
(-0.00383435 0.0678635 0.0416259)
(-0.0170498 0.0369802 0.0751696)
(-0.0184483 -0.0817001 0.0844955)
(-0.0559507 -0.28284 0.03484)
(0.021214 -0.475139 -0.0456222)
(-0.012177 0.0366964 -0.00626966)
(-0.025069 0.0797546 -0.00764262)
(-0.0244619 0.0769767 -0.00712544)
(-0.0302624 0.0707991 -0.00566292)
(-0.0313678 0.062825 -0.00382497)
(-0.0308669 0.0558927 -0.0021569)
(-0.0288895 0.0501086 -0.000772538)
(-0.0259073 0.0453642 0.000286919)
(-0.0221643 0.0416948 0.00105252)
(-0.0174616 0.038876 0.00155138)
(-0.0121161 0.0373195 0.00177316)
(-0.00494116 0.0370546 0.0019537)
(0.00309054 0.0395422 0.00265551)
(0.0160915 0.0441523 0.00513679)
(0.0283587 0.0528036 0.0124193)
(0.0538663 0.0552527 0.0286796)
(0.0562737 0.037605 0.0478668)
(0.0896738 -0.0551725 0.0560006)
(0.0280388 -0.261642 0.0188766)
(0.0713857 -0.471944 -0.0605015)
(-0.075921 0.100786 -0.0186483)
(-0.0613719 0.062101 -0.0137548)
(-0.0608769 0.0604728 -0.0101003)
(-0.039261 0.0523297 -0.00674087)
(-0.0207937 0.0442725 -0.00431634)
(-0.000573103 0.0383109 -0.00228039)
(0.0180959 0.0339914 -0.000600108)
(0.036263 0.0302933 0.000707472)
(0.0523446 0.0276226 0.00175572)
(0.0689089 0.0250246 0.00243798)
(0.0823345 0.0236052 0.0027498)
(0.0989418 0.0220998 0.00258956)
(0.109804 0.0220975 0.00228527)
(0.13198 0.0222827 0.00209211)
(0.139458 0.021569 0.00268787)
(0.182524 0.0179229 0.00970547)
(0.176298 -0.0094304 0.013947)
(0.234747 -0.0679422 0.0181779)
(0.16107 -0.239082 0.00642462)
(0.150232 -0.420613 -0.0720905)
(0.11932 0.140025 -0.0166458)
(0.15148 0.0856481 -0.0180032)
(0.229322 0.0633176 -0.0177714)
(0.283734 0.0479145 -0.0162261)
(0.324989 0.0369809 -0.0142638)
(0.362583 0.0289279 -0.0124699)
(0.391206 0.0232688 -0.0107524)
(0.421591 0.0189876 -0.00917334)
(0.440693 0.0159898 -0.00775671)
(0.468326 0.013562 -0.00642068)
(0.479301 0.0117735 -0.0052327)
(0.5077 0.0105821 -0.00447124)
(0.510455 0.00929004 -0.00328647)
(0.543258 0.00908696 -0.00338067)
(0.535213 0.00727446 -0.00165234)
(0.573592 0.00530446 -0.00261238)
(0.543325 -0.00341717 0.000940569)
(0.562792 -0.0243272 -0.00517039)
(0.432766 -0.0695811 -0.00789001)
(0.303941 -0.147519 -0.0837862)
(-0.000106978 0.000108002 -8.98809e-05)
(-0.000838568 0.000339694 -8.18761e-05)
(-0.00204448 0.000409891 -6.763e-05)
(-0.00321651 0.00041968 -5.67621e-05)
(-0.00437908 0.000412321 -5.4242e-05)
(-0.00549082 0.00039916 -5.88563e-05)
(-0.00653073 0.000379864 -6.99216e-05)
(-0.00747563 0.000351574 -8.76322e-05)
(-0.00829575 0.000311142 -0.000112266)
(-0.00895527 0.000255378 -0.000144851)
(-0.00941265 0.000181488 -0.000185889)
(-0.00962219 8.78505e-05 -0.000235318)
(-0.00953595 -2.74328e-05 -0.000292149)