/*--------------------------------*- C++ -*----------------------------------*\
  =========                 |
  \\      /  F ield         | OpenFOAM: The Open Source CFD Toolbox
   \\    /   O peration     | Website:  https://openfoam.org
    \\  /    A nd           | Version:  10
     \\/     M anipulation  |
\*---------------------------------------------------------------------------*/
FoamFile
{
    format      ascii;
    class       surfaceScalarField;
    location    "0.8";
    object      phi;
}
// * * * * * * * * * * * * * * * * * * * * * * * * * * * * * * * * * * * * * //

dimensions      [0 3 -1 0 0 0 0];

internalField   nonuniform List<scalar> 
760
(
-1.12699e-05
1.12699e-05
-2.41688e-05
1.28989e-05
-3.65369e-05
1.23681e-05
-4.79634e-05
1.14265e-05
-5.81619e-05
1.01986e-05
-6.68866e-05
8.72462e-06
-7.39319e-05
7.04535e-06
-7.91348e-05
5.20284e-06
-8.23742e-05
3.23944e-06
-8.35714e-05
1.19725e-06
-8.26898e-05
-8.81681e-07
-7.97356e-05
-2.95421e-06
-7.47598e-05
-4.97572e-06
-6.78607e-05
-6.89918e-06
-5.91856e-05
-8.67502e-06
-4.89336e-05
-1.0252e-05
-3.73544e-05
-1.15792e-05
-2.47492e-05
-1.26052e-05
-1.15569e-05
-1.31923e-05
-1.15569e-05
-1.34625e-05
2.47325e-05
-2.87165e-05
2.81529e-05
-4.33356e-05
2.69871e-05
-5.6834e-05
2.49249e-05
-6.88721e-05
2.22367e-05
-7.91612e-05
1.90136e-05
-8.74619e-05
1.53461e-05
-9.3586e-05
1.13269e-05
-9.73945e-05
7.04798e-06
-9.87977e-05
2.6005e-06
-9.77537e-05
-1.92573e-06
-9.42701e-05
-6.43782e-06
-8.84054e-05
-1.08404e-05
-8.02723e-05
-1.50323e-05
-7.00413e-05
-1.89061e-05
-5.79434e-05
-2.23499e-05
-4.42714e-05
-2.52511e-05
-2.93816e-05
-2.7495e-05
-1.37917e-05
-2.87822e-05
-2.53486e-05
-1.42069e-05
3.89394e-05
-3.03022e-05
4.42482e-05
-4.57102e-05
4.23951e-05
-5.99201e-05
3.91348e-05
-7.25769e-05
3.48935e-05
-8.33822e-05
2.9819e-05
-9.20926e-05
2.40565e-05
-9.85182e-05
1.77525e-05
-0.00010252
1.10502e-05
-0.000104009
4.08922e-06
-0.00010294
-2.99463e-06
-9.9319e-05
-1.0059e-05
-9.31989e-05
-1.69605e-05
-8.4688e-05
-2.35432e-05
-7.39541e-05
-2.964e-05
-6.12303e-05
-3.50738e-05
-4.68179e-05
-3.96634e-05
-3.10908e-05
-4.32222e-05
-1.45975e-05
-4.52755e-05
-3.99461e-05
-1.52311e-05
5.41705e-05
-3.248e-05
6.14971e-05
-4.89685e-05
5.88835e-05
-6.41463e-05
5.43126e-05
-7.76379e-05
4.8385e-05
-8.91346e-05
4.13157e-05
-9.83905e-05
3.33124e-05
-0.000105218
2.45797e-05
-0.000109481
1.53132e-05
-0.000111091
5.69953e-06
-0.000110003
-4.0831e-06
-0.000106214
-1.38472e-05
-9.97706e-05
-2.34043e-05
-9.07685e-05
-3.25453e-05
-7.93671e-05
-4.10413e-05
-6.57972e-05
-4.86437e-05
-5.0369e-05
-5.50917e-05
-3.34797e-05
-6.01115e-05
-1.57271e-05
-6.30281e-05
-5.56732e-05
-1.66678e-05
7.08382e-05
-3.55264e-05
8.03558e-05
-5.35147e-05
7.68718e-05
-7.00262e-05
7.08241e-05
-8.4658e-05
6.30168e-05
-9.70908e-05
5.37485e-05
-0.00010708
4.33013e-05
-0.000114444
3.19441e-05
-0.000119057
1.99259e-05
-0.000120834
7.47675e-06
-0.000119728
-5.18944e-06
-0.000115728
-1.78471e-05
-0.000108863
-3.02695e-05
-9.921e-05
-4.2198e-05
-8.69112e-05
-5.33401e-05
-7.21878e-05
-6.33671e-05
-5.53568e-05
-7.19226e-05
-3.68462e-05
-7.86221e-05
-1.73242e-05
-8.25502e-05
-7.29973e-05
-1.85782e-05
8.94165e-05
-3.95669e-05
0.000101344
-5.95233e-05
9.68283e-05
-7.77655e-05
8.90663e-05
-9.38582e-05
7.91095e-05
-0.000107475
6.73653e-05
-0.000118381
5.4207e-05
-0.000126413
3.99759e-05
-0.000131461
2.4974e-05
-0.000133452
9.4683e-06
-0.000132338
-6.30321e-06
-0.000128096
-2.20896e-05
-0.000120728
-3.76375e-05
-0.000110279
-5.26468e-05
-9.68575e-05
-6.67617e-05
-8.06609e-05
-7.95636e-05
-6.20057e-05
-9.05778e-05
-4.13545e-05
-9.92734e-05
-1.94702e-05
-0.000104434
-9.24676e-05
-2.10473e-05
0.000110464
-4.4771e-05
0.000125068
-6.72244e-05
0.000119282
-8.76278e-05
0.00010947
-0.000105512
9.69934e-05
-0.000120553
8.24069e-05
-0.000132544
6.61978e-05
-0.000141358
4.87893e-05
-0.000146917
3.05335e-05
-0.000149171
1.17223e-05
-0.000148074
-7.40068e-06
-0.000143582
-2.65812e-05
-0.000135661
-4.55586e-05
-0.000124301
-6.40066e-05
-0.000109551
-8.15117e-05
-9.15595e-05
-9.75553e-05
-7.06224e-05
-0.000111515
-4.72347e-05
-0.000122661
-2.22826e-05
-0.000129387
-0.00011475
-2.41997e-05
0.000134664
-5.13829e-05
0.000152251
-7.69415e-05
0.00014484
-9.99729e-05
0.000132501
-0.000119979
0.000117
-0.000136663
9.90913e-05
-0.000149875
7.94091e-05
-0.000159553
5.84674e-05
-0.00016568
3.66606e-05
-0.000168242
1.42847e-05
-0.000167204
-8.43945e-06
-0.000162494
-3.12911e-05
-0.000154021
-5.40312e-05
-0.000141691
-7.63366e-05
-0.000125452
-9.7751e-05
-0.000105357
-0.00011765
-8.16448e-05
-0.000135227
-5.48253e-05
-0.000149481
-2.59375e-05
-0.000158274
-0.000140688
-2.82217e-05
0.000162885
-5.97582e-05
0.000183788
-8.91318e-05
0.000174214
-0.000115291
0.000158661
-0.000137731
0.00013944
-0.000156226
0.000117585
-0.000170731
9.39142e-05
-0.000181301
6.90378e-05
-0.000188016
4.33751e-05
-0.000190924
1.71931e-05
-0.000190011
-9.35215e-06
-0.000185171
-3.61311e-05
-0.000176231
-6.29713e-05
-0.000162967
-8.96009e-05
-0.000145164
-0.000115554
-0.000122707
-0.000140107
-9.57023e-05
-0.000162232
-6.46301e-05
-0.000180553
-3.07062e-05
-0.000192198
-0.000171394
-3.33999e-05
0.000196285
-7.04251e-05
0.000220813
-0.00010445
0.000208238
-0.000134256
0.000188467
-0.000159384
0.000164568
-0.000179756
0.000137957
-0.000195519
0.000109678
-0.000206916
8.0434e-05
-0.000214176
5.06353e-05
-0.000217449
2.04662e-05
-0.00021676
-1.00405e-05
-0.000211963
-4.0929e-05
-0.000202767
-7.21672e-05
-0.00018876
-0.000103607
-0.000169477
-0.000134838
-0.000144512
-0.000165071
-0.000113711
-0.000193033
-7.74169e-05
-0.000216847
-3.70218e-05
-0.000232593
-0.000208416
-4.01939e-05
0.000236479
-8.41875e-05
0.000264807
-0.000123847
0.000247898
-0.000157798
0.000222419
-0.000185738
0.000192507
-0.000207878
0.000160096
-0.000224684
0.000126484
-0.000236689
9.2439e-05
-0.000244354
5.82998e-05
-0.000247975
2.40878e-05
-0.000247645
-1.03707e-05
-0.000243176
-4.53985e-05
-0.000234128
-8.12145e-05
-0.000219821
-0.000117914
-0.000199411
-0.000155248
-0.000172028
-0.000192454
-0.000137027
-0.000228035
-9.43874e-05
-0.000259486
-4.56096e-05
-0.000281371
-0.000254025
-4.93768e-05
0.000285856
-0.000102304
0.000317734
-0.000148735
0.000294329
-0.000187216
0.0002609
-0.000217837
0.000223129
-0.000241332
0.000183591
-0.000258677
0.000143829
-0.000270841
0.000104603
-0.000278618
6.60765e-05
-0.000282515
2.79854e-05
-0.000282716
-1.01698e-05
-0.000279006
-4.91087e-05
-0.000270775
-8.94458e-05
-0.000256997
-0.000131692
-0.000236271
-0.000175973
-0.000207003
-0.000221722
-0.000167687
-0.000267351
-0.000117481
-0.000309693
-5.77644e-05
-0.000341088
-0.00031179
-6.23334e-05
0.000348189
-0.000126804
0.000382204
-0.000181239
0.000348764
-0.000224329
0.00030399
-0.00025703
0.000255831
-0.00028096
0.000207521
-0.000297894
0.000160763
-0.000309439
0.000116148
-0.000316826
7.34638e-05
-0.000320838
3.19969e-05
-0.000321778
-9.23007e-06
-0.000319433
-5.1453e-05
-0.000313024
-9.58549e-05
-0.000301133
-0.000143583
-0.000281655
-0.000195451
-0.00025186
-0.000251518
-0.000208796
-0.000310414
-0.000149929
-0.000368561
-7.60421e-05
-0.000414974
-0.000387832
-8.17717e-05
0.000429961
-0.000161066
0.000461498
-0.000224598
0.000412296
-0.000271686
0.000351078
-0.000304989
0.000289133
-0.000327617
0.000230149
-0.000342577
0.000175724
-0.000352293
0.000125864
-0.000358514
7.96844e-05
-0.00036234
3.58229e-05
-0.00036424
-7.33013e-06
-0.000364052
-5.16407e-05
-0.00036088
-9.90264e-05
-0.000352939
-0.000151525
-0.000337332
-0.000211058
-0.000309858
-0.000278992
-0.000265093
-0.000355178
-0.000197232
-0.000436422
-0.000105614
-0.000506592
-0.000493446
-0.000112841
0.000542802
-0.000210726
0.000559382
-0.000283736
0.000485306
-0.000332739
0.000400082
-0.00036363
0.000320023
-0.000382063
0.000248582
-0.000392658
0.000186319
-0.000398786
0.000131991
-0.000402728
8.36265e-05
-0.000405891
3.89862e-05
-0.000408936
-4.28519e-06
-0.000411836
-4.87405e-05
-0.000413733
-9.713e-05
-0.000412653
-0.000152604
-0.000405024
-0.000218687
-0.000384991
-0.000299025
-0.000343709
-0.000396461
-0.000268816
-0.000511315
-0.000156224
-0.000619183
-0.00064967
-0.000168239
0.000711041
-0.000286308
0.000677452
-0.000366216
0.000565214
-0.000411839
0.000445705
-0.00043494
0.000343124
-0.000444628
0.00025827
-0.000447437
0.000189128
-0.000447628
0.000132182
-0.000447868
8.38666e-05
-0.000449712
4.08298e-05
-0.00045396
-3.74435e-08
-0.000460844
-4.18566e-05
-0.000469866
-8.81071e-05
-0.000479366
-0.000143104
-0.00048563
-0.000212423
-0.000481479
-0.000303176
-0.000454294
-0.000423647
-0.00038002
-0.000585588
-0.000249894
-0.000749309
-0.000899564
-0.000245481
0.000956522
-0.00039363
0.000825601
-0.000479953
0.000651537
-0.000513499
0.00047925
-0.000519866
0.000349492
-0.000514073
0.000252477
-0.000504594
0.00017965
-0.00049607
0.000123658
-0.00049095
7.87466e-05
-0.000490578
4.04573e-05
-0.000495845
5.23009e-06
-0.000507248
-3.0454e-05
-0.000525132
-7.02232e-05
-0.000549003
-0.000119233
-0.000576565
-0.000184861
-0.000600852
-0.000278889
-0.000608648
-0.000415851
-0.000551607
-0.00064263
-0.000424614
-0.000876302
-0.00132418
-0.000506641
0.00146316
-0.000611522
0.000930482
-0.000645411
0.000685426
-0.000635676
0.000469515
-0.000605526
0.000319342
-0.000572905
0.000219856
-0.000544792
0.000151536
-0.000523818
0.000102684
-0.000511031
6.59595e-05
-0.000506925
3.6352e-05
-0.000511746
1.00503e-05
-0.00052696
-1.52392e-05
-0.000553903
-4.32809e-05
-0.000594572
-7.85641e-05
-0.000651335
-0.000128098
-0.00072179
-0.000208433
-0.000799491
-0.00033815
-0.000811114
-0.000631007
-0.000704049
-0.000983367
-0.00202823
-0.000729845
0.00219301
-0.000702472
0.000903109
-0.000610647
0.0005936
-0.000495666
0.000354534
-0.000387664
0.000211341
-0.000303097
0.000135289
-0.000241265
8.97042e-05
-0.000198298
5.97167e-05
-0.000171088
3.87496e-05
-0.00015762
2.28839e-05
-0.000157095
9.52535e-06
-0.000169142
-3.19238e-06
-0.000195314
-1.71086e-05
-0.000237033
-3.68448e-05
-0.000296154
-6.89775e-05
-0.000370371
-0.000134216
-0.00045151
-0.000257011
-0.000523852
-0.000558665
-0.000474893
-0.00103233
-0.00250312
0.00219301
0.00309612
0.00368972
0.00404425
0.00425559
0.00439088
0.00448059
0.0045403
0.00457905
0.00460194
0.00461146
0.00460827
0.00459116
0.00455432
0.00448534
0.00435112
0.00409411
0.00353545
0.00250312
)
;

boundaryField
{
    movingWall
    {
        type            calculated;
        value           uniform 0;
    }
    fixedWalls
    {
        type            calculated;
        value           uniform 0;
    }
    frontAndBack
    {
        type            empty;
        value           nonuniform List<scalar> 0();
    }
}


// ************************************************************************* //
