/*--------------------------------*- C++ -*----------------------------------*\
  =========                 |
  \\      /  F ield         | OpenFOAM: The Open Source CFD Toolbox
   \\    /   O peration     | Website:  https://openfoam.org
    \\  /    A nd           | Version:  10
     \\/     M anipulation  |
\*---------------------------------------------------------------------------*/
FoamFile
{
    format      ascii;
    class       surfaceScalarField;
    location    "1.05";
    object      phi;
}
// * * * * * * * * * * * * * * * * * * * * * * * * * * * * * * * * * * * * * //

dimensions      [0 3 -1 0 0 0 0];

internalField   nonuniform List<scalar> 
760
(
-1.28553e-05
1.28553e-05
-2.83126e-05
1.54572e-05
-4.32363e-05
1.49238e-05
-5.70609e-05
1.38245e-05
-6.94362e-05
1.23753e-05
-8.00626e-05
1.06264e-05
-8.86865e-05
8.6239e-06
-9.51025e-05
6.41605e-06
-9.91543e-05
4.05178e-06
-0.000100735
1.58045e-06
-9.9787e-05
-9.47737e-07
-9.63067e-05
-3.48039e-06
-9.03446e-05
-5.96208e-06
-8.20112e-05
-8.33341e-06
-7.14804e-05
-1.05308e-05
-5.8993e-05
-1.24874e-05
-4.4857e-05
-1.4136e-05
-2.94533e-05
-1.54037e-05
-1.3408e-05
-1.60453e-05
-1.3408e-05
-1.60848e-05
2.89401e-05
-3.51064e-05
3.44788e-05
-5.34559e-05
3.32733e-05
-7.04428e-05
3.08114e-05
-8.56338e-05
2.75663e-05
-9.8662e-05
2.36546e-05
-0.00010922
1.91824e-05
-0.000117063
1.42584e-05
-0.000122003
8.99202e-06
-0.000123915
3.4923e-06
-0.000122733
-2.12976e-06
-0.000118452
-7.76124e-06
-0.000111135
-1.32793e-05
-0.000100914
-1.85542e-05
-8.79991e-05
-2.34457e-05
-7.26811e-05
-2.78054e-05
-5.53355e-05
-3.14816e-05
-3.64307e-05
-3.43085e-05
-1.67275e-05
-3.57486e-05
-3.01354e-05
-1.70315e-05
4.59716e-05
-3.71696e-05
5.46169e-05
-5.65736e-05
5.26773e-05
-7.45176e-05
4.87555e-05
-9.05482e-05
4.35969e-05
-0.000104285
3.73914e-05
-0.000115413
3.03108e-05
-0.000123683
2.25284e-05
-0.000128907
1.42157e-05
-0.000130957
5.54208e-06
-0.000129758
-3.32834e-06
-0.000125306
-1.22132e-05
-0.000117654
-2.09317e-05
-0.000106927
-2.92816e-05
-9.33296e-05
-3.70427e-05
-7.71565e-05
-4.39785e-05
-5.87947e-05
-4.98434e-05
-3.87373e-05
-5.43659e-05
-1.77926e-05
-5.66932e-05
-4.79281e-05
-1.82302e-05
6.42019e-05
-3.97848e-05
7.61714e-05
-6.05275e-05
7.34201e-05
-7.96799e-05
6.79079e-05
-9.6763e-05
6.06799e-05
-0.000111383
5.20116e-05
-0.000123221
4.21489e-05
-0.000132028
3.13349e-05
-0.000137616
1.98042e-05
-0.000139858
7.78372e-06
-0.000138675
-4.51159e-06
-0.000134048
-1.68399e-05
-0.000126017
-2.89631e-05
-0.000114689
-4.06093e-05
-0.000100256
-5.14755e-05
-8.30062e-05
-6.12283e-05
-6.33368e-05
-6.95128e-05
-4.1773e-05
-7.59297e-05
-1.91971e-05
-7.92691e-05
-6.71252e-05
-1.99083e-05
8.41102e-05
-4.34334e-05
9.96965e-05
-6.60304e-05
9.60171e-05
-8.68453e-05
8.87228e-05
-0.000105365
7.91997e-05
-0.000121182
6.78284e-05
-0.000133976
5.49427e-05
-0.000143503
4.08624e-05
-0.000149585
2.58859e-05
-0.000152094
1.0293e-05
-0.000150947
-5.65874e-06
-0.000146107
-2.16795e-05
-0.00013759
-3.74805e-05
-0.000125473
-5.27259e-05
-0.000109921
-6.70279e-05
-9.12049e-05
-7.99443e-05
-6.97296e-05
-9.09881e-05
-4.60615e-05
-9.95979e-05
-2.11895e-05
-0.000104141
-8.83147e-05
-2.21393e-05
0.000106249
-4.8271e-05
0.000125828
-7.33021e-05
0.000121048
-9.62774e-05
0.000111698
-0.000116643
9.95653e-05
-0.00013398
8.51653e-05
-0.000147977
6.89397e-05
-0.000158408
5.1294e-05
-0.000165113
3.25901e-05
-0.000167972
1.31523e-05
-0.000166897
-6.7338e-06
-0.000161827
-2.67496e-05
-0.000152739
-4.65679e-05
-0.000139664
-6.58014e-05
-0.000122714
-8.39781e-05
-0.000102124
-0.000100534
-7.82936e-05
-0.000114818
-5.18355e-05
-0.000126056
-2.3883e-05
-0.000132094
-0.000112198
-2.50171e-05
0.000131267
-5.44908e-05
0.000155302
-8.26085e-05
0.000149166
-0.000108284
0.000137373
-0.000130918
0.0001222
-0.000150094
0.000104341
-0.000165527
8.43726e-05
-0.000177031
6.27979e-05
-0.00018448
4.00389e-05
-0.000187777
1.64499e-05
-0.000186833
-7.67805e-06
-0.000181552
-3.20309e-05
-0.000171857
-5.6263e-05
-0.000157698
-7.99596e-05
-0.000139104
-0.000102573
-0.000116233
-0.000123405
-8.94503e-05
-0.000141601
-5.94111e-05
-0.000156095
-2.74362e-05
-0.000164068
-0.000139634
-2.86792e-05
0.000159946
-6.23695e-05
0.000188992
-9.43209e-05
0.000181117
-0.000123282
0.000166334
-0.000148614
0.000147532
-0.000169924
0.000125651
-0.000186991
0.000101439
-0.000199703
7.55098e-05
-0.000208
4.83357e-05
-0.000211827
2.0277e-05
-0.000211102
-8.40263e-06
-0.000205685
-3.7448e-05
-0.000195419
-6.65287e-05
-0.000180136
-9.52434e-05
-0.000159716
-0.000122993
-0.000134181
-0.00014894
-0.000103805
-0.000171977
-6.92557e-05
-0.000190644
-3.20899e-05
-0.000201234
-0.000171724
-3.33306e-05
0.000193276
-7.23081e-05
0.00022797
-0.000108963
0.000217772
-0.00014184
0.000199211
-0.000170282
0.000175974
-0.000193968
0.000149338
-0.000212799
0.00012027
-0.000226792
8.95034e-05
-0.000236001
5.75448e-05
-0.000240445
2.47208e-05
-0.000240067
-8.7808e-06
-0.000234672
-4.28431e-05
-0.00022399
-7.72109e-05
-0.000207673
-0.000111559
-0.000185376
-0.000145291
-0.000156871
-0.000177444
-0.000122233
-0.000206615
-8.20717e-05
-0.000230805
-3.82203e-05
-0.000245086
-0.000209944
-3.92854e-05
0.000232562
-8.48997e-05
0.000273584
-0.000127281
0.000260153
-0.000164736
0.000236666
-0.000196641
0.00020788
-0.000222837
0.000175533
-0.000243438
0.000140871
-0.00025868
0.000104745
-0.000268795
6.766e-05
-0.000273924
2.98495e-05
-0.000274063
-8.64157e-06
-0.000268962
-4.79446e-05
-0.000258196
-8.79764e-05
-0.000241162
-0.000128594
-0.000217161
-0.000169292
-0.000185554
-0.000209051
-0.000146018
-0.000246151
-9.89399e-05
-0.000277884
-4.64376e-05
-0.000297588
-0.000256382
-4.70442e-05
0.000279606
-0.000101042
0.000327582
-0.000150358
0.000309469
-0.000193046
0.000279354
-0.000228633
0.000243467
-0.000257274
0.000204174
-0.000279446
0.000163043
-0.000295725
0.000121025
-0.000306622
7.85564e-05
-0.000312461
3.56889e-05
-0.000313335
-7.76722e-06
-0.000308948
-5.23321e-05
-0.000298691
-9.82331e-05
-0.000281605
-0.00014568
-0.000256466
-0.00019443
-0.000221974
-0.000243543
-0.000177074
-0.000291051
-0.00012157
-0.000333388
-5.77835e-05
-0.000361374
-0.000314165
-5.74413e-05
0.000337047
-0.000122131
0.000392272
-0.000179796
0.000367134
-0.00022827
0.000327828
-0.000267486
0.000282683
-0.000298169
0.000234857
-0.000321379
0.000186253
-0.000338207
0.000137852
-0.000349571
8.99207e-05
-0.00035607
4.21874e-05
-0.000357939
-5.89764e-06
-0.000354868
-5.54029e-05
-0.000346056
-0.000107046
-0.000330108
-0.000161628
-0.000305059
-0.000219479
-0.000268562
-0.00028004
-0.000218297
-0.000341316
-0.000152749
-0.000398936
-7.41466e-05
-0.000439977
-0.000388312
-7.19407e-05
0.000408988
-0.0001504
0.000470731
-0.000218001
0.000434735
-0.000272521
0.000382348
-0.000314808
0.00032497
-0.000346564
0.000266613
-0.000369755
0.000209444
-0.000386234
0.000154331
-0.000397477
0.000101164
-0.000404454
4.9164e-05
-0.0004076
-2.75094e-06
-0.000406655
-5.63484e-05
-0.000400656
-0.000113045
-0.000387746
-0.000174538
-0.000365055
-0.00024217
-0.000328683
-0.000316412
-0.000274134
-0.000395865
-0.000197182
-0.000475888
-9.92508e-05
-0.000537908
-0.000487563
-9.32937e-05
0.000502282
-0.000189535
0.000566973
-0.000268643
0.000513842
-0.000328774
0.000442479
-0.000372643
0.000368839
-0.000403572
0.000297542
-0.000424947
0.000230819
-0.000439632
0.000169016
-0.000449787
0.000111319
-0.000456842
5.62193e-05
-0.000461526
1.9333e-06
-0.000463699
-5.41754e-05
-0.000462381
-0.000114363
-0.000455334
-0.000181585
-0.000438739
-0.000258765
-0.000406779
-0.000348372
-0.000351446
-0.000451198
-0.000263053
-0.00056428
-0.000141362
-0.0006596
-0.000628924
-0.000126618
0.0006289
-0.000245554
0.000685909
-0.000337296
0.000605584
-0.00040114
0.000506323
-0.00044343
0.000411129
-0.000470279
0.000324391
-0.000487026
0.000247566
-0.000497756
0.000179746
-0.000505384
0.000118947
-0.000511841
6.26763e-05
-0.000518115
8.20713e-06
-0.000524519
-4.77715e-05
-0.000530203
-0.000108679
-0.000532898
-0.000178889
-0.000528135
-0.000263528
-0.000508133
-0.000368374
-0.000460428
-0.000498903
-0.000364516
-0.000660192
-0.00021545
-0.000808666
-0.000844374
-0.000187834
0.000816734
-0.000330902
0.000828976
-0.000433011
0.000707693
-0.000495026
0.000568338
-0.000529863
0.000445966
-0.000547408
0.000341936
-0.000555393
0.000255551
-0.00055917
0.000183522
-0.000562313
0.00012209
-0.000567111
6.74746e-05
-0.000574859
1.59544e-05
-0.00058635
-3.62801e-05
-0.000601434
-9.35951e-05
-0.000618564
-0.000161759
-0.000633559
-0.000248533
-0.000637405
-0.000364528
-0.000614144
-0.000522164
-0.000522908
-0.000751428
-0.000355573
-0.000976002
-0.00119995
-0.000258606
0.00107534
-0.00044523
0.0010156
-0.000562699
0.000825162
-0.000615738
0.000621377
-0.000633367
0.000463595
-0.000633565
0.000342134
-0.000627
0.000248987
-0.00061996
0.000176482
-0.000616103
0.000118233
-0.000617659
6.90307e-05
-0.000626176
2.44716e-05
-0.000642832
-1.96245e-05
-0.000668848
-6.75785e-05
-0.000704462
-0.000126146
-0.00074824
-0.000204755
-0.000791864
-0.000320905
-0.000825579
-0.000488449
-0.000768287
-0.000808719
-0.000613051
-0.00113124
-0.001813
-0.000558302
0.00163364
-0.00069621
0.00115351
-0.000754988
0.000883939
-0.000759564
0.000625954
-0.000733465
0.000437496
-0.000699657
0.000308326
-0.000668309
0.000217639
-0.000643864
0.000152038
-0.000628473
0.000102842
-0.000623416
6.39736e-05
-0.000629861
3.09171e-05
-0.000648806
-6.79545e-07
-0.000684835
-3.15494e-05
-0.000741078
-6.99032e-05
-0.000823051
-0.000122782
-0.00092589
-0.000218066
-0.0010474
-0.000366939
-0.00107457
-0.000781551
-0.000911332
-0.00129447
-0.00272433
-0.00087761
0.00251125
-0.000826189
0.00110209
-0.000698279
0.000756029
-0.000545936
0.00047361
-0.000400662
0.000292222
-0.000284561
0.000192224
-0.000198141
0.00013122
-0.000136533
9.04293e-05
-9.54965e-05
6.18051e-05
-7.21682e-05
4.06453e-05
-6.5015e-05
2.37638e-05
-7.41615e-05
8.46701e-06
-9.91356e-05
-6.57531e-06
-0.000141106
-2.79327e-05
-0.000202929
-6.09599e-05
-0.00028326
-0.000137734
-0.000362059
-0.00028814
-0.000469938
-0.000673671
-0.00040127
-0.00136314
-0.0031256
0.00251125
0.00361334
0.00436937
0.00484298
0.0051352
0.00532743
0.00545865
0.00554908
0.00561088
0.00565153
0.00567529
0.00568376
0.00567718
0.00564925
0.00558829
0.00545055
0.00516241
0.00448874
0.0031256
)
;

boundaryField
{
    movingWall
    {
        type            calculated;
        value           uniform 0;
    }
    fixedWalls
    {
        type            calculated;
        value           uniform 0;
    }
    frontAndBack
    {
        type            empty;
        value           nonuniform List<scalar> 0();
    }
}


// ************************************************************************* //
