/*--------------------------------*- C++ -*----------------------------------*\
  =========                 |
  \\      /  F ield         | OpenFOAM: The Open Source CFD Toolbox
   \\    /   O peration     | Website:  https://openfoam.org
    \\  /    A nd           | Version:  10
     \\/     M anipulation  |
\*---------------------------------------------------------------------------*/
FoamFile
{
    format      ascii;
    class       volVectorField;
    location    "1.775";
    object      U;
}
// * * * * * * * * * * * * * * * * * * * * * * * * * * * * * * * * * * * * * //

dimensions      [0 1 -1 0 0 0 0];

internalField   nonuniform List<vector> 
496
(
(9.92427 0.0642832 0)
(9.99144 -0.139758 0)
(10.1968 -0.128165 0)
(10.7994 -0.206038 0)
(9.81725 0.461169 0)
(10.0775 -1.17902 0)
(10.1466 -0.334412 0)
(11.0122 -1.05939 0)
(10.2593 1.23802 0)
(9.68554 -2.91349 0)
(10.9512 -0.378123 0)
(11.2359 -4.06193 0)
(11.1464 1.73465 0)
(8.80863 -2.95807 0)
(11.7256 1.1459 0)
(10.7588 -7.03423 0)
(11.4348 -0.255756 3.12584e-18)
(12.1606 -0.200102 -5.45159e-19)
(11.6522 -0.434073 -5.82415e-19)
(12.6325 0.218474 1.91514e-18)
(13.065 -2.29421 -2.54735e-18)
(13.5895 -0.471094 -1.3694e-18)
(12.2312 -5.01025 -3.62434e-17)
(16.0553 -4.83404 6.45355e-17)
(12.7442 -0.219046 0)
(13.0494 -0.214961 0)
(13.2476 -0.146313 0)
(13.2804 -0.0469624 0)
(13.2449 0.163829 0)
(13.6562 -0.151814 0)
(14.0012 -0.504899 0)
(14.0912 -0.672447 0)
(13.0338 0.428334 0)
(13.0779 0.989829 0)
(13.5422 0.655894 0)
(13.5038 0.199759 0)
(9.24228 -2.14395 0)
(9.86364 -1.72084 0)
(7.29775 -1.36647 0)
(6.13117 -0.406524 0)
(13.3515 0.0412014 0)
(13.3971 0.108734 0)
(13.5179 0.233919 0)
(13.5786 0.309213 0)
(13.625 0.39915 0)
(13.4961 0.406298 0)
(13.3406 0.430648 0)
(13.0506 0.440158 0)
(12.8706 0.454267 0)
(12.597 0.478923 0)
(12.4844 0.449695 0)
(12.2661 0.449416 0)
(12.2705 0.410065 0)
(12.1699 0.422752 0)
(12.2121 0.413836 0)
(12.0748 0.416348 0)
(11.9707 0.449279 0)
(11.7543 0.457842 0)
(11.6161 0.517154 0)
(11.4213 0.497788 0)
(11.2645 0.527543 0)
(11.0229 0.490395 0)
(10.9107 0.472996 0)
(10.675 0.419912 0)
(10.6885 0.360448 0)
(10.5236 0.330877 0)
(10.6491 0.256936 0)
(10.5268 0.244597 0)
(10.6011 0.187712 0)
(10.5032 0.170793 0)
(10.5388 0.147976 0)
(10.5754 0.110413 0)
(10.6551 0.117985 0)
(10.7369 0.0696095 0)
(10.87 0.109575 0)
(10.8639 0.106357 0)
(11.0876 0.144436 0)
(10.8822 0.222502 0)
(11.0992 0.238994 0)
(10.6585 0.336539 0)
(14.1722 -0.705977 0)
(14.2921 -0.613563 0)
(14.4384 -0.440864 0)
(14.5081 -0.338938 0)
(14.5066 -0.204708 0)
(14.3859 -0.163949 0)
(14.2644 -0.106011 0)
(14.0396 -0.0754628 0)
(13.8948 -0.0775955 0)
(13.6463 -0.0631214 0)
(13.5244 -0.179557 0)
(13.3473 -0.190982 0)
(13.3579 -0.283861 0)
(13.3135 -0.23309 0)
(13.3531 -0.263115 0)
(13.2942 -0.212722 0)
(13.2312 -0.135714 0)
(13.0886 -0.0891327 0)
(12.9702 0.00707665 0)
(12.8064 -0.0686513 0)
(12.6916 -0.0734415 0)
(12.4967 -0.172957 0)
(12.4008 -0.198963 0)
(12.2363 -0.22076 0)
(12.227 -0.255856 0)
(12.1637 -0.185651 0)
(12.2137 -0.239308 0)
(12.2095 -0.150581 0)
(12.2278 -0.208577 0)
(12.2124 -0.160149 0)
(12.251 -0.177727 0)
(12.2628 -0.214988 0)
(12.4046 -0.203766 0)
(12.4015 -0.311891 0)
(12.6441 -0.236119 0)
(12.5772 -0.32202 0)
(12.8853 -0.152721 0)
(12.7763 -0.145927 0)
(12.9914 0.0301078 0)
(12.78 0.134969 0)
(14.0219 0.12567 0)
(14.0894 0.16153 0)
(14.3663 0.23692 0)
(14.1945 0.249958 0)
(14.3615 0.403553 0)
(14.2283 0.528567 0)
(14.2413 0.692117 0)
(14.2037 0.782143 0)
(14.062 0.843067 0)
(13.9809 0.852184 0)
(13.7651 0.651054 0)
(13.7264 0.579126 0)
(13.679 0.372567 0)
(13.6232 0.323868 0)
(13.7099 0.28161 0)
(13.6248 0.281774 0)
(13.858 0.454145 0)
(13.7 0.500568 0)
(13.9411 0.771946 0)
(13.706 0.747737 0)
(13.8457 0.846204 0)
(13.6425 0.750913 0)
(13.6292 0.643926 0)
(13.5287 0.592195 0)
(13.4016 0.382495 0)
(13.4201 0.4186 0)
(13.2403 0.22092 0)
(13.2622 0.254033 0)
(13.1103 0.120404 0)
(13.0008 0.0390374 0)
(12.9871 0.0486214 0)
(12.6971 -0.18267 0)
(12.841 -0.0498541 0)
(12.4781 -0.29814 0)
(12.7007 -0.116903 0)
(12.4791 -0.217747 0)
(12.746 -0.101461 0)
(12.7647 0.0769079 0)
(12.9928 0.117646 0)
(13.2554 0.550183 0)
(8.0751 -0.320302 0)
(7.75029 -0.531013 0)
(8.02929 -0.687043 0)
(7.14372 -0.595298 0)
(8.36712 -0.466249 0)
(7.76263 -0.399478 0)
(8.42147 0.162615 0)
(8.27717 0.0248846 0)
(8.63847 0.34565 0)
(8.37311 0.347888 0)
(8.27405 0.302034 0)
(8.26292 0.233759 0)
(8.01468 0.129719 0)
(8.40838 -0.00895517 0)
(8.2881 -0.154637 0)
(8.837 -0.221359 0)
(9.10687 -0.234395 0)
(9.57861 -0.103567 0)
(10.2401 0.0023765 0)
(10.3131 0.0543724 0)
(10.9937 0.0927702 0)
(10.808 0.0156208 0)
(11.1899 0.00435306 0)
(10.9385 -0.060882 0)
(10.8461 -0.0318871 0)
(10.7376 -0.0140111 0)
(10.1957 0.010221 0)
(10.1244 0.0905697 0)
(9.32617 0.0794637 0)
(9.12086 0.170335 0)
(8.47682 0.171781 0)
(8.00688 0.187133 0)
(7.90432 0.163709 0)
(7.40931 0.00180975 0)
(7.60925 -0.0609765 0)
(7.60624 -0.258178 0)
(7.86111 -0.343482 0)
(8.52233 -0.387771 0)
(8.66222 -0.466625 0)
(9.79922 -0.18805 0)
(12.989 0.408074 -1.07329e-17)
(7.41037 -0.580386 -1.79427e-17)
(12.1838 -0.288914 3.15105e-17)
(4.67951 -4.33058 -8.49763e-17)
(11.8427 -0.619035 1.08523e-17)
(8.254 0.834382 1.83042e-17)
(11.0563 -0.0339232 -3.20221e-17)
(4.97271 4.63184 8.58323e-17)
(-5.87221 1.34939 0)
(8.09587 5.77502 0)
(-8.87483 -0.912521 0)
(4.43467 -0.950777 0)
(-1.1497 -3.95705 3.52027e-17)
(-0.983597 3.46634 0)
(6.07125 -0.520816 0)
(-2.1678 -3.11139 0)
(-1.26672 0.659287 0)
(0.0811876 0.201816 0)
(-2.42558 -1.15771 0)
(1.19719 -0.166181 0)
(-0.212953 0.748493 0)
(-3.64877 0.0754365 0)
(1.63389 0.378487 0)
(-1.08141 0.479254 0)
(-0.359304 0.524974 0)
(0.621197 0.866032 0)
(0.110071 0.51498 0)
(0.745745 0.268078 0)
(0.832686 0.0348613 0)
(1.32059 -0.131755 0)
(1.57788 -0.369431 0)
(1.8523 -0.5063 0)
(2.19509 -0.434103 0)
(2.79309 -0.280192 0)
(2.79731 -0.0636383 0)
(2.93022 0.0897571 0)
(3.13159 0.245773 0)
(2.9866 0.433063 0)
(3.05097 0.542232 0)
(2.83575 0.602931 0)
(2.91799 0.710402 0)
(2.75754 0.76313 0)
(2.63703 0.73039 0)
(2.82197 0.801021 0)
(2.67886 0.79007 0)
(2.77177 0.728215 0)
(2.78307 0.63419 0)
(3.02831 0.375876 0)
(3.03678 0.192577 0)
(3.24984 -0.157921 0)
(3.46941 -0.411053 0)
(3.74139 -0.583578 0)
(3.76775 -0.766408 0)
(4.13907 -0.847228 0)
(4.51875 -0.951626 0)
(4.959 -0.333408 0)
(1.1417 2.08163 0)
(-0.25671 -0.483452 0)
(1.05651 -1.00113 0)
(-1.29088 -1.50262 0)
(-1.89373 2.12693 0)
(1.56591 -1.12614 0)
(-0.544786 -1.96558 0)
(0.122364 0.778603 0)
(0.320988 -0.44079 0)
(1.41172 -0.363409 0)
(1.10228 0.00151158 0)
(1.68842 -0.135514 0)
(1.85646 -0.412311 0)
(2.33168 -0.702544 0)
(2.27692 -0.795164 0)
(2.21618 -0.742129 0)
(2.26372 -0.739575 0)
(2.31718 -0.594372 0)
(2.1651 -0.243454 0)
(2.41359 -0.0822008 0)
(2.3473 0.123837 0)
(2.43385 0.238821 0)
(2.65327 0.280196 0)
(2.63836 0.286948 0)
(2.76335 0.214701 0)
(3.1129 0.236738 0)
(3.09286 0.214748 0)
(3.66132 0.190086 0)
(3.78348 0.196623 0)
(4.21497 0.190485 0)
(4.59074 0.0894839 0)
(4.95718 -0.0724223 0)
(5.05106 -0.167003 0)
(5.48902 -0.378039 0)
(5.34877 -0.572774 0)
(5.36259 -0.718525 0)
(4.98873 -0.85996 0)
(4.81651 -1.04651 0)
(4.34126 -1.1832 0)
(4.09222 -0.676384 0)
(12.5893 -1.40129 0)
(7.631 2.46137 0)
(13.5217 -0.609966 0)
(9.55669 6.42529 0)
(11.1581 -1.36162 0)
(8.7671 2.89128 0)
(11.4316 0.0431481 0)
(10.4706 4.06895 0)
(10.1515 -0.455508 0)
(9.71758 1.25231 0)
(10.3381 0.369687 0)
(10.7995 1.18814 0)
(9.97618 -0.0800011 0)
(9.94274 0.195102 0)
(10.2383 0.118876 0)
(10.8132 0.235358 0)
(13.8028 5.42587 3.31566e-17)
(14.9542 4.39496 -6.29448e-17)
(13.0286 1.96756 0)
(12.8175 0.51814 0)
(11.7074 0.501194 0)
(12.4336 -0.0326627 0)
(11.5096 0.200963 0)
(12.2003 0.208365 0)
(12.0654 2.79195 0)
(10.5928 1.94998 0)
(8.6014 0.557377 0)
(11.9052 0.915635 0)
(12.4532 -1.07332 0)
(12.5305 -0.792538 0)
(12.9612 -0.462083 0)
(13.5148 -0.480387 0)
(13.0898 -0.0345813 0)
(13.4643 0.370401 0)
(13.7957 0.616761 0)
(13.9003 0.642228 0)
(12.7728 0.166299 0)
(13.0784 0.14013 0)
(13.3014 0.0551183 0)
(13.3454 -0.0677963 0)
(9.79855 0.97527 0)
(11.0716 0.65965 0)
(10.076 0.593561 0)
(11.2435 0.39545 0)
(9.98757 0.614587 0)
(9.69238 0.0732311 0)
(10.2962 0.128869 0)
(9.85265 0.184482 0)
(9.60235 0.0351189 0)
(9.99792 0.0167779 0)
(10.0368 -0.00952539 0)
(10.2912 -0.0955083 0)
(10.5724 -0.208882 0)
(10.6563 -0.334118 0)
(10.7783 -0.37832 0)
(10.4364 -0.379909 0)
(10.1737 -0.277447 0)
(9.80057 -0.157785 0)
(9.34114 -0.0809416 0)
(9.25236 0.00314615 0)
(8.80843 0.0835731 0)
(9.0715 0.164122 0)
(8.8222 0.221303 0)
(9.23682 0.242481 0)
(9.25947 0.250212 0)
(9.58898 0.211175 0)
(9.88581 0.185598 0)
(10.1641 0.170755 0)
(10.6178 0.158142 0)
(10.9214 0.145554 0)
(11.3628 0.0854315 0)
(11.8416 -0.0286877 0)
(12.1396 -0.0735346 0)
(12.6387 -0.205762 0)
(12.9769 -0.241334 0)
(13.3962 -0.269446 0)
(13.9195 -0.25207 0)
(13.7191 -0.0675027 0)
(13.9742 -0.0639622 0)
(12.118 -0.00136248 0)
(13.5258 -0.365778 0)
(13.7554 -0.42836 0)
(13.6794 -0.415813 0)
(13.7706 -0.568578 0)
(13.6939 -0.411169 0)
(13.5809 -0.411505 0)
(13.6297 -0.429593 0)
(13.5376 -0.433475 0)
(13.6539 -0.459154 0)
(13.5607 -0.489547 0)
(13.6998 -0.623799 0)
(13.5453 -0.659301 0)
(13.5518 -0.849257 0)
(13.2957 -0.833051 0)
(13.163 -0.86729 0)
(13.0145 -0.68657 0)
(12.954 -0.467925 0)
(12.956 -0.248391 0)
(12.7851 0.048914 0)
(12.8607 0.097031 0)
(12.7881 0.227825 0)
(12.9702 0.10228 0)
(12.9919 0.100418 0)
(13.1161 -0.00161048 0)
(13.1646 -0.122344 0)
(13.2212 -0.180215 0)
(13.3286 -0.363053 0)
(13.3995 -0.359434 0)
(13.4763 -0.504867 0)
(13.5131 -0.544064 0)
(13.4445 -0.65068 0)
(13.4237 -0.838075 0)
(13.1314 -0.840264 0)
(12.9441 -1.12412 0)
(12.3785 -0.998776 0)
(11.9922 -1.33715 0)
(11.4069 -1.02417 0)
(11.1319 -0.868538 0)
(10.9417 -0.224393 0)
(10.9054 0.526029 0)
(13.9972 0.631969 0)
(13.9808 0.531454 0)
(14.0404 0.480492 0)
(13.9971 0.372904 0)
(14.0292 0.363399 0)
(13.9447 0.289383 0)
(13.9154 0.31825 0)
(13.8358 0.272708 0)
(13.8294 0.20622 0)
(13.7341 0.124848 0)
(13.6829 -0.00335105 0)
(13.496 -0.0263038 0)
(13.3637 -0.0997754 0)
(13.0739 -0.0227076 0)
(12.9035 -0.00348227 0)
(12.6351 0.0944542 0)
(12.583 0.15002 0)
(12.4861 0.171023 0)
(12.582 0.26681 0)
(12.5871 0.248765 0)
(12.7379 0.289827 0)
(12.8332 0.213363 0)
(13.0074 0.194013 0)
(13.0331 0.154511 0)
(13.0823 0.0791712 0)
(12.9905 0.0833122 0)
(13.0217 0.00334376 0)
(12.912 0.0678583 0)
(12.9184 0.0273922 0)
(12.7116 0.0721482 0)
(12.6387 0.0589916 0)
(12.4503 0.0529945 0)
(12.3419 0.147253 0)
(12.2494 0.137783 0)
(11.9928 0.31866 0)
(11.9567 0.224409 0)
(11.4746 0.363026 0)
(11.5046 0.257301 0)
(11.0377 0.403349 0)
(11.333 0.490321 0)
(13.442 -0.161549 0)
(13.4102 -0.266812 0)
(13.4819 -0.317237 0)
(13.423 -0.392305 0)
(13.4583 -0.402213 0)
(13.3788 -0.447297 0)
(13.3572 -0.405929 0)
(13.189 -0.396836 0)
(13.106 -0.415075 0)
(12.9402 -0.423789 0)
(12.8394 -0.485858 0)
(12.6365 -0.461628 0)
(12.4391 -0.498422 0)
(12.0889 -0.451765 0)
(11.8388 -0.47745 0)
(11.5518 -0.441284 0)
(11.5334 -0.391233 0)
(11.3976 -0.32211 0)
(11.4892 -0.226276 0)
(11.38 -0.217566 0)
(11.5627 -0.156562 0)
(11.5577 -0.174155 0)
(11.7368 -0.152076 0)
(11.6335 -0.180219 0)
(11.6321 -0.224566 0)
(11.4613 -0.253933 0)
(11.4718 -0.319639 0)
(11.3193 -0.318132 0)
(11.3137 -0.376047 0)
(11.0103 -0.383759 0)
(10.9789 -0.42874 0)
(10.6173 -0.476247 0)
(10.618 -0.485999 0)
(10.2326 -0.576333 0)
(10.1431 -0.53745 0)
(9.8832 -0.584413 0)
(9.69992 -0.458151 0)
(9.78378 -0.371553 0)
(9.57762 -0.227582 0)
(10.0574 -0.0629544 0)
)
;

boundaryField
{
    inlet
    {
        type            fixedValue;
        value           uniform (10 0 0);
    }
    outlet
    {
        type            zeroGradient;
    }
    obstacle
    {
        type            noSlip;
    }
    upperWall
    {
        type            noSlip;
    }
    lowerWall
    {
        type            noSlip;
    }
    frontAndBack
    {
        type            empty;
    }
}


// ************************************************************************* //
