/*--------------------------------*- C++ -*----------------------------------*\
  =========                 |
  \\      /  F ield         | OpenFOAM: The Open Source CFD Toolbox
   \\    /   O peration     | Website:  https://openfoam.org
    \\  /    A nd           | Version:  10
     \\/     M anipulation  |
\*---------------------------------------------------------------------------*/
FoamFile
{
    format      ascii;
    class       volScalarField;
    location    "2.125";
    object      p;
}
// * * * * * * * * * * * * * * * * * * * * * * * * * * * * * * * * * * * * * //

dimensions      [0 2 -2 0 0 0 0];

internalField   nonuniform List<scalar> 
400
(
3.38272e-09
-1.46374e-05
3.90708e-05
0.000134936
0.000275364
0.00045847
0.000681158
0.000939408
0.00122807
0.00154076
0.00186986
0.00220648
0.0025405
0.00286091
0.00315611
0.0034144
0.00362451
0.00377661
0.0038682
0.00386517
1.33003e-05
-2.71715e-06
5.05918e-05
0.000144491
0.000282217
0.000462257
0.000681764
0.00093695
0.00122287
0.00153331
0.00186067
0.00219647
0.0025304
0.00285142
0.00314778
0.00340761
0.00361933
0.00377297
0.00386654
0.00386258
-4.26911e-05
-6.15245e-05
-8.11169e-06
8.64314e-05
0.000225752
0.000408532
0.000632114
0.000892905
0.00118611
0.00150562
0.00184402
0.00219248
0.00254044
0.00287639
0.00318795
0.00346232
0.00368683
0.0038503
0.00395026
0.00394508
-0.000146523
-0.00016817
-0.000114083
-1.77018e-05
0.000125175
0.000313544
0.00054504
0.00081635
0.00112291
0.00145872
0.00181624
0.00218678
0.00255916
0.0029211
0.00325907
0.00355877
0.00380569
0.00398657
0.00409793
0.00409296
-0.000302792
-0.000327845
-0.00027256
-0.000173149
-2.4688e-05
0.000172253
0.000415705
0.000702733
0.00102909
0.00138899
0.00177493
0.00217767
0.00258588
0.00298623
0.00336353
0.00370129
0.0039822
0.0041898
0.00431881
0.0043152
-0.000514667
-0.000544135
-0.000487334
-0.000384008
-0.000228287
-2.01501e-05
0.000238969
0.000546647
0.000899073
0.00129081
0.00171463
0.00216036
0.00261695
0.0030697
0.00350137
0.00389251
0.00422187
0.00446819
0.00462317
0.00462245
-0.000785873
-0.000821105
-0.000762792
-0.000655139
-0.000491018
-0.000269622
8.34128e-06
0.000341132
0.000725533
0.00115656
0.00162714
0.00212781
0.00264652
0.00316753
0.00367134
0.00413474
0.00453116
0.00483232
0.00502486
0.00502963
-0.00112116
-0.00116395
-0.00110458
-0.000992809
-0.000819861
-0.000583869
-0.000284584
7.71586e-05
0.000498942
0.000976475
0.00150325
0.00207054
0.00266604
0.00327314
0.00387017
0.00442952
0.00491761
0.00529611
0.00554303
0.00555819
-0.00152619
-0.00157895
-0.00151958
-0.00140474
-0.00122346
-0.000972468
-0.000650275
-0.00025657
0.000207272
0.000737959
0.00133
0.0019754
0.00266289
0.00337574
0.00409075
0.0047759
0.00538875
0.00587696
0.00620363
0.00623889
-0.00200755
-0.00207351
-0.00201601
-0.00190023
-0.0017123
-0.00144708
-0.00110149
-0.000673851
-0.000164332
0.000425019
0.00109012
0.00182443
0.00261893
0.0034583
0.00431949
0.00516739
0.0059498
0.0065955
0.00704123
0.00711714
-0.00257275
-0.0026563
-0.00260361
-0.00249045
-0.00229903
-0.00202172
-0.00165347
-0.00119112
-0.000633584
1.83744e-05
0.000762386
0.00159425
0.00250883
0.00349468
0.00453228
0.0055869
0.00659863
0.00747361
0.00810084
0.00826261
-0.00323042
-0.00333751
-0.00329402
-0.00318886
-0.00299894
-0.0027132
-0.00232424
-0.00182744
-0.00122082
-0.000504197
0.000321739
0.00125575
0.00229858
0.00344624
0.00468848
0.00599836
0.00731506
0.00852778
0.00943769
0.00978755
-0.00399093
-0.00412919
-0.00410128
-0.00401193
-0.0038307
-0.00354172
-0.00313482
-0.00260433
-0.00194833
-0.00116674
-0.000259492
0.000774612
0.00194516
0.00325869
0.00472313
0.00633288
0.00804237
0.00974901
0.0111127
0.0118773
-0.00487017
-0.00504827
-0.00504368
-0.00498059
-0.00481775
-0.00453193
-0.00410966
-0.00354531
-0.00283895
-0.00199283
-0.00100769
0.000121104
0.00139886
0.00285935
0.00453544
0.00646319
0.00864695
0.0110554
0.0131449
0.0148753
-0.0058585
-0.00610502
-0.00614078
-0.00612139
-0.00599026
-0.00571432
-0.00527714
-0.00467514
-0.0039139
-0.00300218
-0.00194673
-0.000749171
0.000598524
0.002154
0.00397361
0.00616632
0.00885144
0.0122098
0.0154232
0.019285
-0.00716248
-0.00733958
-0.00742295
-0.00745692
-0.00737943
-0.00712643
-0.00667213
-0.00602008
-0.00518952
-0.00420229
-0.00307461
-0.00180781
-0.000385357
0.00122904
0.00307409
0.00535817
0.00829207
0.0125958
0.0170321
0.0249149
-0.00821383
-0.00897628
-0.00906287
-0.00924522
-0.00920603
-0.008911
-0.00837217
-0.00761721
-0.00668119
-0.00560038
-0.00441345
-0.00315391
-0.0018564
-0.000553842
0.000789938
0.00259931
0.00486021
0.0100874
0.0152509
0.0304378
-0.011515
-0.00965713
-0.0100936
-0.0103234
-0.0105273
-0.0104311
-0.00999809
-0.00924955
-0.00824533
-0.00705618
-0.00575957
-0.00440608
-0.00307899
-0.0017951
-0.000634398
0.000422127
0.00105059
0.00568802
0.0107328
0.0367489
-0.0102845
-0.0140822
-0.0141492
-0.0150116
-0.0149761
-0.0143384
-0.0132607
-0.0119301
-0.0104575
-0.00891302
-0.00740062
-0.0059697
-0.00479562
-0.00401272
-0.00407928
-0.00478431
-0.00866673
-0.00407992
0.000640342
0.0501682
-0.0326979
-0.0103289
-0.0112454
-0.0121949
-0.0126563
-0.0126748
-0.0122626
-0.0114227
-0.010261
-0.00887168
-0.00749216
-0.00602202
-0.00498637
-0.00384681
-0.00378844
-0.00260911
-0.000537752
0.0159416
0.0548585
0.148064
)
;

boundaryField
{
    movingWall
    {
        type            zeroGradient;
    }
    fixedWalls
    {
        type            zeroGradient;
    }
    frontAndBack
    {
        type            empty;
    }
}


// ************************************************************************* //
