/*--------------------------------*- C++ -*----------------------------------*\
  =========                 |
  \\      /  F ield         | OpenFOAM: The Open Source CFD Toolbox
   \\    /   O peration     | Website:  https://openfoam.org
    \\  /    A nd           | Version:  10
     \\/     M anipulation  |
\*---------------------------------------------------------------------------*/
FoamFile
{
    format      ascii;
    class       surfaceScalarField;
    location    "2.125";
    object      phi;
}
// * * * * * * * * * * * * * * * * * * * * * * * * * * * * * * * * * * * * * //

dimensions      [0 3 -1 0 0 0 0];

internalField   nonuniform List<scalar> 
760
(
-1.38954e-05
1.38954e-05
-3.45959e-05
2.07005e-05
-5.54474e-05
2.08515e-05
-7.50857e-05
1.96383e-05
-9.29679e-05
1.78822e-05
-0.000108661
1.56931e-05
-0.000121773
1.31123e-05
-0.000131953
1.01799e-05
-0.000138894
6.94126e-06
-0.000142342
3.44774e-06
-0.0001421
-2.41823e-07
-0.00013804
-4.06044e-06
-0.000130126
-7.91434e-06
-0.000118426
-1.16994e-05
-0.000103133
-1.52932e-05
-8.45768e-05
-1.85562e-05
-6.32473e-05
-2.13295e-05
-3.98821e-05
-2.33652e-05
-1.62403e-05
-2.36418e-05
-1.62403e-05
-2.13621e-05
3.52575e-05
-5.12187e-05
5.05571e-05
-8.111e-05
5.07428e-05
-0.0001092
4.7728e-05
-0.000134693
4.3376e-05
-0.000156965
3.79642e-05
-0.000175461
3.16089e-05
-0.000189701
2.44202e-05
-0.000199277
1.65164e-05
-0.00020385
8.02143e-06
-0.000203206
-8.86487e-07
-0.000197159
-1.0107e-05
-0.000185701
-1.93725e-05
-0.000168949
-2.84511e-05
-0.000147186
-3.70567e-05
-0.000120881
-4.48606e-05
-9.07245e-05
-5.14863e-05
-5.77464e-05
-5.63433e-05
-2.42739e-05
-5.71143e-05
-4.05142e-05
-2.32354e-05
5.84928e-05
-5.55942e-05
8.2916e-05
-8.79311e-05
8.30797e-05
-0.000118291
7.80879e-05
-0.000145834
7.09187e-05
-0.000169896
6.20263e-05
-0.000189895
5.16085e-05
-0.000205326
3.98512e-05
-0.00021576
2.69495e-05
-0.000220853
1.31149e-05
-0.000220325
-1.41477e-06
-0.000213985
-1.64471e-05
-0.000201801
-3.15563e-05
-0.000183862
-4.63899e-05
-0.000160431
-6.0488e-05
-0.000131978
-7.33134e-05
-9.9222e-05
-8.42422e-05
-6.32693e-05
-9.2296e-05
-2.66532e-05
-9.37304e-05
-6.71674e-05
-2.47151e-05
8.32079e-05
-5.91945e-05
0.000117395
-9.36299e-05
0.000117515
-0.000125956
0.000110414
-0.000155298
0.00010026
-0.000180969
8.76981e-05
-0.000202374
7.30134e-05
-0.000218993
5.64696e-05
-0.000230378
3.83354e-05
-0.000236159
1.88952e-05
-0.000236047
-1.52647e-06
-0.000229762
-2.27318e-05
-0.000217219
-4.41e-05
-0.000198443
-6.51651e-05
-0.000173635
-8.52962e-05
-0.000143223
-0.000103725
-0.000107931
-0.000119535
-6.89448e-05
-0.000131282
-2.90628e-05
-0.000133612
-9.62303e-05
-2.66836e-05
0.000109891
-6.39606e-05
0.000154672
-0.000101171
0.000154725
-0.000136095
0.000145338
-0.00016781
0.000131976
-0.000195608
0.000115496
-0.000218879
9.62839e-05
-0.000237092
7.46828e-05
-0.000249787
5.10303e-05
-0.000256563
2.56708e-05
-0.000257094
-9.94698e-07
-0.000251012
-2.88139e-05
-0.000238136
-5.69764e-05
-0.000218381
-8.49195e-05
-0.000191838
-0.000111839
-0.00015885
-0.000136714
-0.000120118
-0.000158267
-7.69369e-05
-0.000174463
-3.24864e-05
-0.000178063
-0.000128717
-2.92848e-05
0.000139176
-7.0233e-05
0.000195621
-0.000111069
0.000195561
-0.000149367
0.000183637
-0.000184149
0.000166757
-0.000214681
0.000146028
-0.000240348
0.000121951
-0.000260621
9.49553e-05
-0.00027503
6.54399e-05
-0.000283146
3.37862e-05
-0.000284626
4.85891e-07
-0.000278945
-3.44948e-05
-0.000265817
-7.01051e-05
-0.000244979
-0.000105757
-0.00021634
-0.000140479
-0.000180081
-0.000172972
-0.000136828
-0.000201519
-8.79824e-05
-0.000223309
-3.72584e-05
-0.000228787
-0.000165975
-3.25992e-05
0.000171775
-7.82028e-05
0.000241224
-0.000123602
0.00024096
-0.000166113
0.000226147
-0.000204687
0.000205331
-0.000238577
0.000179919
-0.000267181
0.000150555
-0.000289992
0.000117766
-0.000306558
8.20058e-05
-0.000316445
4.36733e-05
-0.000319193
3.23394e-06
-0.000314275
-3.94128e-05
-0.000301141
-8.32391e-05
-0.000279286
-0.000127612
-0.000248325
-0.00017144
-0.000208154
-0.000213144
-0.000159203
-0.00025047
-0.000102938
-0.000279574
-4.37899e-05
-0.000287935
-0.000209765
-3.67326e-05
0.000208508
-8.81129e-05
0.000292605
-0.000139117
0.000291965
-0.000186735
0.000273765
-0.000229849
0.000248446
-0.000267718
0.000217788
-0.000299784
0.000182621
-0.000325603
0.000143585
-0.000344776
0.000101179
-0.000356888
5.57847e-05
-0.000361433
7.77958e-06
-0.000357782
-4.30637e-05
-0.000345126
-9.5895e-05
-0.000322601
-0.000150137
-0.000289357
-0.000204684
-0.000244792
-0.000257708
-0.000188916
-0.000306347
-0.000123114
-0.000345376
-5.27454e-05
-0.000358304
-0.00026251
-4.18407e-05
0.000250349
-0.000100309
0.000351073
-0.000158091
0.000349746
-0.000211775
0.000327449
-0.000260182
0.000296854
-0.000302615
0.000260221
-0.000338617
0.000218622
-0.000367869
0.000172837
-0.000390091
0.000123401
-0.00040494
7.06337e-05
-0.000411915
1.47547e-05
-0.000410283
-4.46957e-05
-0.000398936
-0.000107242
-0.000376528
-0.000172545
-0.000341513
-0.000239698
-0.00029244
-0.000306781
-0.000228486
-0.000370301
-0.000150589
-0.000423273
-6.52593e-05
-0.000443634
-0.00032777
-4.81606e-05
0.000298509
-0.000115295
0.000418208
-0.000181196
0.000415646
-0.000241965
0.000388218
-0.000296392
0.00035128
-0.000343888
0.000307717
-0.000384187
0.000258922
-0.000417195
0.000205845
-0.000442844
0.00014905
-0.000460959
8.87487e-05
-0.000471115
2.49104e-05
-0.000472538
-4.32723e-05
-0.000463801
-0.00011598
-0.000442966
-0.00019338
-0.0004075
-0.000275164
-0.000354563
-0.000359719
-0.000281763
-0.000443101
-0.000188765
-0.000516271
-8.33791e-05
-0.00054902
-0.000411149
-5.60661e-05
0.000354576
-0.000133824
0.000495966
-0.000209396
0.000491219
-0.000278314
0.000457135
-0.000339402
0.000412369
-0.000392295
0.000360609
-0.000437049
0.000303676
-0.000473934
0.00024273
-0.000503239
0.000178355
-0.000525089
0.000110599
-0.000539264
3.90852e-05
-0.000545084
-3.74528e-05
-0.000540856
-0.000120207
-0.000524002
-0.000210234
-0.000490711
-0.000308455
-0.000436041
-0.000414389
-0.00035472
-0.000524422
-0.000243424
-0.000627566
-0.00011105
-0.000681394
-0.000522199
-6.61717e-05
0.000420747
-0.000157047
0.000586841
-0.000244104
0.000578275
-0.000322231
0.000535263
-0.000390444
0.000480581
-0.000448775
0.000418941
-0.0004978
0.000352701
-0.000538344
0.000283274
-0.000571241
0.000211252
-0.000597109
0.000136467
-0.000616129
5.81055e-05
-0.000627945
-2.56364e-05
-0.000630814
-0.000117339
-0.000621633
-0.000219414
-0.000595154
-0.000334934
-0.00054356
-0.000465983
-0.00045675
-0.000611232
-0.000324806
-0.00075951
-0.000156455
-0.000849746
-0.000678653
-7.95464e-05
0.000500294
-0.000186772
0.000694067
-0.000287406
0.000678909
-0.000375703
0.00062356
-0.000451169
0.000556047
-0.000514508
0.00048228
-0.000567082
0.000405276
-0.00061053
0.000326722
-0.000646471
0.000247193
-0.000676253
0.000166249
-0.000700724
8.25766e-05
-0.000720223
-6.13809e-06
-0.000733401
-0.000104161
-0.000737131
-0.000215684
-0.000725007
-0.000347058
-0.000685868
-0.000505122
-0.000602531
-0.000694569
-0.000451806
-0.000910235
-0.000238405
-0.00106315
-0.000917058
-9.81999e-05
0.000598494
-0.000226041
0.000821908
-0.000342485
0.000795353
-0.000441559
0.000722634
-0.000523815
0.000638302
-0.000590985
0.000549451
-0.000645594
0.000459885
-0.000690402
0.000371529
-0.000728088
0.000284879
-0.00076102
0.000199181
-0.000791041
0.000112597
-0.00081939
2.22104e-05
-0.000846401
-7.71493e-05
-0.000869748
-0.000192337
-0.000883266
-0.00033354
-0.00087319
-0.000515198
-0.00081412
-0.000753639
-0.00065901
-0.00106535
-0.000397009
-0.00132515
-0.00131407
-0.000123776
0.000722269
-0.00027819
0.000976322
-0.000413489
0.000930652
-0.000523637
0.000832783
-0.000611343
0.000726008
-0.00068007
0.000618178
-0.00073408
0.000513895
-0.000777614
0.000415063
-0.000814664
0.00032193
-0.000848859
0.000233377
-0.000883284
0.000147022
-0.000920812
5.97382e-05
-0.000964467
-3.34937e-05
-0.00101432
-0.00014248
-0.00106823
-0.00027963
-0.00111268
-0.000470756
-0.00111941
-0.000746906
-0.000997276
-0.00118748
-0.000701598
-0.00162083
-0.00201567
-0.000179892
0.000902161
-0.000360064
0.00115649
-0.00051024
0.00108083
-0.000627742
0.000950285
-0.000717448
0.000815713
-0.000783794
0.000684524
-0.000832928
0.000563029
-0.000870941
0.000453075
-0.000903464
0.000354453
-0.000935567
0.00026548
-0.000972307
0.000183762
-0.00101816
0.00010559
-0.00107666
2.50047e-05
-0.00115652
-6.26143e-05
-0.00126407
-0.000172083
-0.00139167
-0.000343162
-0.00152342
-0.000615153
-0.00150542
-0.00120548
-0.00119623
-0.00193001
-0.0032119
-0.00018879
0.00109095
-0.000439304
0.00140701
-0.000628286
0.00126981
-0.000760064
0.00108206
-0.000847509
0.000903157
-0.000901956
0.000738972
-0.00093603
0.000597103
-0.000959256
0.000476302
-0.000978805
0.000374001
-0.00100006
0.000286736
-0.00102805
0.000211749
-0.00106864
0.000146178
-0.00113345
8.98131e-05
-0.00123414
3.80783e-05
-0.00139754
-8.67941e-06
-0.00162114
-0.000119562
-0.00192551
-0.000310781
-0.00202377
-0.00110722
-0.00161927
-0.00233451
-0.00483116
-0.00048513
0.00157608
-0.000675507
0.00159739
-0.000811226
0.00140553
-0.00090165
0.00117249
-0.000939466
0.000940974
-0.000945076
0.000744582
-0.000934302
0.000586328
-0.000917346
0.000459346
-0.000901748
0.000358404
-0.000893447
0.000278435
-0.000899374
0.000217676
-0.00092442
0.000171224
-0.000980438
0.000145831
-0.00107253
0.000130169
-0.00122755
0.000146347
-0.00142839
8.12769e-05
-0.00165932
-7.98532e-05
-0.00174131
-0.00102523
-0.00118378
-0.00289205
-0.00601494
-0.00119375
0.00276983
-0.00109881
0.00150245
-0.000874322
0.00118104
-0.000598633
0.000896799
-0.000326468
0.000668808
-8.13581e-05
0.000499472
0.000127575
0.000377395
0.00029868
0.000288241
0.000434703
0.00022238
0.000541099
0.00017204
0.000621949
0.000136826
0.000684872
0.0001083
0.000737928
9.27757e-05
0.00078379
8.43072e-05
0.000864112
6.60241e-05
0.000907624
3.77656e-05
0.00104762
-0.000219854
0.00092429
-0.000901898
0.000722957
-0.00269071
-0.00529199
0.00276983
0.00427228
0.00545332
0.00635012
0.00701892
0.0075184
0.00789579
0.00818403
0.00840641
0.00857845
0.00871528
0.00882358
0.00891635
0.00900066
0.00906669
0.00910445
0.0088846
0.0079827
0.00529199
)
;

boundaryField
{
    movingWall
    {
        type            calculated;
        value           uniform 0;
    }
    fixedWalls
    {
        type            calculated;
        value           uniform 0;
    }
    frontAndBack
    {
        type            empty;
        value           nonuniform List<scalar> 0();
    }
}


// ************************************************************************* //
