/*--------------------------------*- C++ -*----------------------------------*\
  =========                 |
  \\      /  F ield         | OpenFOAM: The Open Source CFD Toolbox
   \\    /   O peration     | Website:  https://openfoam.org
    \\  /    A nd           | Version:  10
     \\/     M anipulation  |
\*---------------------------------------------------------------------------*/
FoamFile
{
    format      ascii;
    class       surfaceScalarField;
    location    "2.75";
    object      phi;
}
// * * * * * * * * * * * * * * * * * * * * * * * * * * * * * * * * * * * * * //

dimensions      [0 3 -1 0 0 0 0];

internalField   nonuniform List<scalar> 
890
(
0.00983613
0.000163874
0.00973148
0.000104646
0.00948721
0.000244268
0.00950902
-2.18056e-05
0.000125867
0.00938315
0.0101148
4.90304e-05
0.0101892
3.02899e-05
0.0104161
1.73688e-05
0.0104464
-5.21144e-05
-9.26328e-05
0.0106649
0.0100788
-2.9744e-05
0.0102187
-0.000109659
0.0103745
-0.000138397
0.0104895
-0.00016716
-0.00023794
0.0106348
0.0100963
-0.000125997
0.0102194
-0.00023277
0.0103144
-0.000233411
0.0103936
-0.00024635
-0.000284319
0.0104399
0.009874
0.00964123
0.00940782
0.00916147
0.00887715
0.00913476
-0.000211257
0.00045965
0.00921151
-0.000225901
0.00014915
0.00948318
-0.000231804
-3.98692e-05
0.00986451
-0.00029774
-8.35843e-05
0.010302
-0.000670091
0.000232619
0.0107355
-0.00133917
0.000905662
0.0109906
-0.00207142
0.00181628
0.0109278
-0.00284276
0.00290558
0.0106106
-0.00351426
0.00383148
0.00999521
-0.00376415
0.00437951
0.00907661
-0.0035755
0.00449411
0.00804197
-0.00278554
0.00382018
0.006927
-0.00153016
0.00264513
0.00587532
-0.000596453
0.00164813
0.00520891
-0.000256627
0.000923037
0.00503868
-0.000130697
0.000300933
0.0051826
5.34928e-05
-0.000197413
0.00541197
0.000259584
-0.000488955
0.00559383
0.000396442
-0.000578307
0.00570232
0.000427469
-0.00053595
0.00575415
0.000386395
-0.000438226
0.00577412
0.000313785
-0.00033376
0.00577998
0.00023815
-0.00024401
0.00578108
0.000173214
-0.000174313
0.00578125
0.000122726
-0.0001229
0.00578162
8.55918e-05
-8.59625e-05
0.00578229
5.91155e-05
-5.97845e-05
0.00578311
4.05569e-05
-4.13703e-05
0.00578392
2.76698e-05
-2.84819e-05
0.00578465
1.87728e-05
-1.94989e-05
0.00578525
1.26583e-05
-1.32648e-05
0.00578573
8.4759e-06
-8.95888e-06
0.00578611
5.63013e-06
-6.00188e-06
0.00578638
3.70577e-06
-3.98346e-06
0.00578659
2.41313e-06
-2.61556e-06
0.00578673
1.55175e-06
-1.69724e-06
0.00578683
9.81861e-07
-1.08366e-06
0.0057869
6.1275e-07
-6.8363e-07
0.00578695
3.70704e-07
-4.19291e-07
0.00578699
2.24179e-07
-2.5632e-07
0.00578701
1.27288e-07
-1.49174e-07
0.00578702
7.74668e-08
-9.24502e-08
0.00578703
4.56913e-08
-5.49559e-08
0.00578704
3.55419e-08
-4.30645e-08
3.80673e-08
-4.34184e-08
0.0106627
-0.000209024
0.0107583
-0.000321541
0.0109852
-0.000458717
0.0112199
-0.000532391
0.011349
-0.000799207
0.0113492
-0.00133934
0.0111468
-0.00186902
0.0107321
-0.00242812
0.0101061
-0.00288826
0.00916851
-0.00282653
0.00797813
-0.00238511
0.00691504
-0.00172245
0.00614664
-0.000761759
0.00555826
-8.07372e-06
0.00506624
0.000235392
0.00480144
0.000134099
0.00478243
7.25094e-05
0.0049211
0.000120908
0.00511566
0.000201888
0.00529724
0.000245884
0.00544118
0.000242452
0.00554575
0.000209224
0.00561834
0.000165552
0.00566781
0.000123749
0.00570137
8.91689e-05
0.00572418
6.27745e-05
0.00573976
4.35427e-05
0.00575041
2.99024e-05
0.0057577
2.03793e-05
0.00576268
1.37939e-05
0.00576607
9.26938e-06
0.00576837
6.17911e-06
0.00576992
4.07869e-06
0.00577096
2.66226e-06
0.00577166
1.71309e-06
0.00577213
1.08302e-06
0.00577244
6.70685e-07
0.00577265
4.04709e-07
0.00577279
2.33606e-07
0.00577288
1.34113e-07
0.00577293
6.77224e-08
0.00577297
3.77366e-08
0.005773
2.04052e-08
0.00577302
1.5803e-08
2.41514e-08
0.0106894
-0.000263589
0.010729
-0.00036111
0.0108032
-0.000532919
0.0108865
-0.000615753
0.0108965
-0.000809158
0.010722
-0.00116488
0.0104174
-0.00156444
0.00999448
-0.00200515
0.00936219
-0.00225597
0.00860593
-0.00207027
0.00778946
-0.00156865
0.00711979
-0.00105279
0.00684378
-0.000485744
0.00677743
5.82773e-05
0.00664778
0.000365042
0.00632346
0.00045842
0.00595362
0.000442344
0.00567662
0.000397916
0.00552928
0.000349218
0.00548042
0.000294752
0.00548645
0.000236422
0.00551531
0.000180359
0.00554886
0.000132
0.00557895
9.36624e-05
0.00560309
6.50257e-05
0.0056214
4.44724e-05
0.00563485
3.00938e-05
0.00564456
2.01898e-05
0.0056515
1.3435e-05
0.00565644
8.8599e-06
0.00565993
5.78012e-06
0.00566238
3.72362e-06
0.0056641
2.36056e-06
0.00566529
1.47269e-06
0.0056661
8.96552e-07
0.00566666
5.28251e-07
0.00566703
2.99596e-07
0.00566728
1.55737e-07
0.00566744
7.15672e-08
0.00566755
2.79483e-08
0.00566762
-8.33489e-10
0.00566766
-6.9447e-09
0.00566769
-8.33471e-09
0.00566771
-6.45124e-09
7.60744e-09
0.0104631
-0.000286705
0.0104541
-0.000352171
0.0103489
-0.000427676
0.0102227
-0.00048956
0.0100288
-0.000615242
0.00962197
-0.00075807
0.00910225
-0.00104473
0.00844649
-0.00134939
0.00747709
-0.00128658
0.00634091
-0.000934085
0.00530077
-0.000528516
0.00447767
-0.00022968
0.00399998
-8.06189e-06
0.00388312
0.000175143
0.00393149
0.000316673
0.00402537
0.000364534
0.00413478
0.000332939
0.00426573
0.000266964
0.0044144
0.000200547
0.00456272
0.00014643
0.00469411
0.00010503
0.00480045
7.40221e-05
0.00488115
5.13041e-05
0.00493976
3.50552e-05
0.00498111
2.36712e-05
0.00500976
1.58224e-05
0.00502938
1.04755e-05
0.0050427
6.86332e-06
0.0050517
4.44144e-06
0.00505773
2.82951e-06
0.00506174
1.76673e-06
0.00506439
1.0749e-06
0.00506612
6.27863e-07
0.00506725
3.48228e-07
0.00506797
1.73415e-07
0.00506843
7.02675e-08
0.00506872
1.36122e-08
0.00506889
-1.94078e-08
0.00506899
-3.10906e-08
0.00506905
-3.3848e-08
0.00506909
-3.40878e-08
0.00506911
-2.5371e-08
0.00506912
-2.01625e-08
0.00506913
-1.46013e-08
-1.98475e-09
0.00859045
0.00823828
0.0078106
0.00732104
0.0067058
0.00594773
0.00490301
0.00355362
0.00226704
0.00133295
0.000804438
0.000574759
0.000566697
0.00074184
0.00105851
0.00142305
0.00175599
0.00202295
0.0022235
0.00236993
0.00247496
0.00254898
0.00260028
0.00263534
0.00265901
0.00267483
0.00268531
0.00269217
0.00269661
0.00269944
0.00270121
0.00270228
0.00270291
0.00270326
0.00270343
0.0027035
0.00270352
0.0027035
0.00270347
0.00270343
0.0027034
0.00270337
0.00270335
0.00270334
-0.000304246
0.000304246
-0.000859248
0.000555003
-0.00182559
0.000966345
-0.00302714
0.00120154
-0.00412223
0.00109509
-0.00484746
0.000725234
-0.00500019
0.000152731
-0.0045619
-0.000438291
-0.00357684
-0.000985067
-0.0021687
-0.00140814
-0.000565335
-0.00160336
0.000968565
-0.0015339
0.00219397
-0.00122541
0.00299754
-0.000803568
0.00340672
-0.000409174
0.00352644
-0.000119727
0.00347687
4.95681e-05
0.00335126
0.000125618
0.00320697
0.000144286
0.00307482
0.00013215
0.00296675
0.000108072
0.00288442
8.23288e-05
0.00282476
5.96605e-05
0.00278308
4.16828e-05
0.00275474
2.83392e-05
0.00273587
1.88667e-05
0.00272352
1.23486e-05
0.00271556
7.96563e-06
0.00271049
5.06618e-06
0.00270732
3.17192e-06
0.00270537
1.94763e-06
0.00270421
1.16433e-06
0.00270353
6.72731e-07
0.00270317
3.65846e-07
0.00270299
1.82371e-07
0.00270291
7.45431e-08
0.0027029
1.23503e-08
0.00270291
-1.55148e-08
0.00270295
-3.27105e-08
0.00270298
-3.55663e-08
0.00270301
-3.17167e-08
0.00270304
-2.84182e-08
0.00270306
-2.09822e-08
0.00270308
-1.28455e-08
-1.62578e-09
-0.000582085
0.000886331
-0.00133911
0.00131203
-0.00221669
0.00184393
-0.00301287
0.00199772
-0.00358618
0.0016684
-0.00384809
0.000987142
-0.00366464
-3.0724e-05
-0.00305528
-0.00104765
-0.00200989
-0.00203046
-0.000613597
-0.00280443
0.000934131
-0.00315109
0.00244153
-0.0030413
0.00372424
-0.00250812
0.00464295
-0.00172228
0.00517715
-0.00094337
0.00542585
-0.000368429
0.00551037
-3.4958e-05
0.00550562
0.000130375
0.00545975
0.000190155
0.00539674
0.000195158
0.00533058
0.000174231
0.0052697
0.000143207
0.00521816
0.000111198
0.00517701
8.28327e-05
0.00514556
5.97946e-05
0.0051223
4.21215e-05
0.00510556
2.90925e-05
0.00509375
1.97753e-05
0.00508555
1.32626e-05
0.00507994
8.78305e-06
0.00507615
5.74428e-06
0.00507361
3.70492e-06
0.00507192
2.35494e-06
0.00507082
1.4668e-06
0.00507011
8.93222e-07
0.00506966
5.28244e-07
0.00506938
2.94488e-07
0.0050692
1.57719e-07
0.0050691
7.10765e-08
0.00506904
2.36265e-08
0.00506901
1.66544e-09
0.00506899
-8.39735e-09
0.00506898
-1.1091e-08
0.00506897
-4.82338e-09
8.41503e-09
-0.000132788
0.00101912
-0.000276554
0.00145579
-0.000469272
0.00203665
-0.000573158
0.00210161
-0.000541688
0.00163693
-0.000334163
0.000779617
5.47191e-05
-0.000419606
0.00071708
-0.00171001
0.00155921
-0.00287259
0.00253515
-0.00378037
0.00358353
-0.00419947
0.00450916
-0.00396693
0.00527178
-0.00327075
0.00585219
-0.00230269
0.00617574
-0.00126692
0.00625104
-0.000443728
0.00618461
3.14753e-05
0.00608602
0.00022896
0.00599843
0.000277751
0.00592931
0.000264271
0.00587445
0.000229093
0.00582924
0.000188419
0.00579156
0.00014888
0.0057607
0.000113693
0.00573617
8.43255e-05
0.00571725
6.10346e-05
0.00570305
4.32998e-05
0.0056926
3.02211e-05
0.00568505
2.08094e-05
0.00567967
1.41612e-05
0.00567589
9.53322e-06
0.00567324
6.3485e-06
0.00567141
4.18203e-06
0.00567016
2.71996e-06
0.00566931
1.74414e-06
0.00566874
1.10126e-06
0.00566835
6.77355e-07
0.0056681
4.09964e-07
0.00566794
2.36517e-07
0.00566783
1.32175e-07
0.00566776
6.9405e-08
0.00566771
3.76893e-08
0.00566769
1.84463e-08
0.00566766
1.66396e-08
2.49529e-08
0.000453652
0.000565467
0.00109358
0.000815861
0.00173359
0.00139664
0.00241451
0.00142069
0.00305952
0.000991916
0.00369162
0.000147516
0.0043283
-0.00105628
0.00498564
-0.00236735
0.00560599
-0.00349293
0.00615517
-0.00432956
0.00663686
-0.00468115
0.00688722
-0.00421729
0.00689808
-0.00328161
0.00688185
-0.00228646
0.00689658
-0.00128165
0.00684785
-0.000394996
0.00668637
0.00019295
0.00646683
0.000448502
0.00626278
0.000481806
0.00610668
0.000420362
0.00599933
0.000336445
0.00592852
0.000259228
0.00588168
0.000195721
0.00584991
0.000145466
0.00582774
0.000106498
0.00581194
7.68326e-05
0.00580057
5.46676e-05
0.00579239
3.84047e-05
0.00578653
2.66691e-05
0.00578237
1.83231e-05
0.00577944
1.24627e-05
0.00577739
8.39312e-06
0.00577598
5.59708e-06
0.005775
3.69293e-06
0.00577434
2.40814e-06
0.00577389
1.55108e-06
0.00577359
9.81174e-07
0.00577338
6.13064e-07
0.00577325
3.71511e-07
0.00577316
2.22959e-07
0.0057731
1.27581e-07
0.00577306
7.76181e-08
0.00577303
4.47462e-08
0.00577301
3.57783e-08
3.85032e-08
0.00102512
0.00199013
0.0033469
0.00468401
0.00590854
0.00696172
0.00772173
0.00825996
0.00859851
0.00864846
0.00846141
0.00806431
0.00742783
0.0067895
0.00643089
0.00633682
0.00633236
0.00629191
0.00619541
0.00607982
0.00597804
0.00590351
0.00585522
0.00582637
0.00580997
0.00580084
0.00579572
0.00579275
0.00579094
0.00578977
0.00578896
0.0057884
0.00578799
0.0057877
0.0057875
0.00578735
0.00578725
0.00578718
0.00578713
0.0057871
0.00578707
0.00578706
0.00578705
0.00578704
)
;

boundaryField
{
    inlet
    {
        type            calculated;
        value           nonuniform List<scalar> 5(-0.01 -0.01 -0.01 -0.01 -0.01);
    }
    outlet
    {
        type            calculated;
        value           nonuniform List<scalar> 10(0.00578704 0.00577303 0.00566773 0.00506914 0.00270334 0.00270308 0.00506896 0.00566765 0.005773 0.00578704);
    }
    upperWall
    {
        type            calculated;
        value           uniform 0;
    }
    lowerWall
    {
        type            calculated;
        value           uniform 0;
    }
    frontAndBack
    {
        type            empty;
        value           nonuniform List<scalar> 0();
    }
}


// ************************************************************************* //
