/*--------------------------------*- C++ -*----------------------------------*\
  =========                 |
  \\      /  F ield         | OpenFOAM: The Open Source CFD Toolbox
   \\    /   O peration     | Website:  https://openfoam.org
    \\  /    A nd           | Version:  10
     \\/     M anipulation  |
\*---------------------------------------------------------------------------*/
FoamFile
{
    format      ascii;
    class       volVectorField;
    location    "2.75";
    object      U;
}
// * * * * * * * * * * * * * * * * * * * * * * * * * * * * * * * * * * * * * //

dimensions      [0 1 -1 0 0 0 0];

internalField   nonuniform List<vector> 
475
(
(0.967445 0.0164965 0)
(0.984967 0.00420243 0)
(0.93836 0.03362 0)
(0.974751 -0.00574156 0)
(0.909138 0.0299185 0)
(0.996418 0.0102685 0)
(1.01517 0.0125374 0)
(1.02401 0.0135503 0)
(1.04326 0.00221743 0)
(1.05504 -0.00104527 0)
(0.998734 0.00204058 0)
(1.01173 -0.00452536 0)
(1.02488 -0.00904528 0)
(1.03748 -0.0113223 0)
(1.0559 -0.0181828 0)
(0.999474 -0.010015 0)
(1.01125 -0.0207105 0)
(1.0234 -0.0216039 0)
(1.03219 -0.0243872 0)
(1.04069 -0.0309107 0)
(0.981429 -0.00945698 0)
(0.968351 -0.0202584 0)
(0.95267 -0.0215715 0)
(0.932891 -0.0229107 0)
(0.902933 -0.024234 0)
(0.946643 -0.0289916 0)
(0.923322 -0.0269153 0)
(0.917991 -0.028852 0)
(0.94932 -0.0358194 0)
(0.993268 -0.0711025 0)
(1.04797 -0.132207 0)
(1.10453 -0.201018 0)
(1.11641 -0.285948 0)
(1.09554 -0.367245 0)
(1.0499 -0.40732 0)
(0.954922 -0.403834 0)
(0.85046 -0.334272 0)
(0.746223 -0.214591 0)
(0.629431 -0.119078 0)
(0.539683 -0.0640991 0)
(0.503073 -0.022608 0)
(0.50719 0.0167611 0)
(0.529206 0.0460109 0)
(0.551301 0.0587796 0)
(0.565896 0.0577779 0)
(0.573453 0.0491077 0)
(0.576648 0.0380979 0)
(0.577731 0.027908 0)
(0.578005 0.0197542 0)
(0.57806 0.0137187 0)
(0.578101 0.00943369 0)
(0.578171 0.00645408 0)
(0.578257 0.00440133 0)
(0.578347 0.00299242 0)
(0.578427 0.00202722 0)
(0.578496 0.00136719 0)
(0.57855 0.000917016 0)
(0.578594 0.00061107 0)
(0.578626 0.000404024 0)
(0.57865 0.000264653 0)
(0.578668 0.000171517 0)
(0.578679 0.000109527 0)
(0.578688 6.91298e-05 0)
(0.578693 4.24395e-05 0)
(0.578697 2.60293e-05 0)
(0.5787 1.51678e-05 0)
(0.578701 9.41244e-06 0)
(0.578703 5.62908e-06 0)
(0.578704 4.37055e-06 0)
(0.578704 4.34899e-06 0)
(1.06872 -0.018238 0)
(1.07196 -0.0244444 0)
(1.08412 -0.0258802 0)
(1.10455 -0.0306343 0)
(1.11881 -0.0584037 0)
(1.13525 -0.122286 0)
(1.14251 -0.194988 0)
(1.10779 -0.262014 0)
(1.05315 -0.315607 0)
(0.980127 -0.327512 0)
(0.85663 -0.294708 0)
(0.731763 -0.207593 0)
(0.64637 -0.0786632 0)
(0.580257 0.00930946 0)
(0.524992 0.0188884 0)
(0.487082 6.56135e-05 0)
(0.474042 -0.00438456 0)
(0.482342 0.0069487 0)
(0.500968 0.0198404 0)
(0.520892 0.0266571 0)
(0.537532 0.0271352 0)
(0.549929 0.0237956 0)
(0.558657 0.0190493 0)
(0.564631 0.0143819 0)
(0.568682 0.0104545 0)
(0.57143 0.0074173 0)
(0.573303 0.00518084 0)
(0.574582 0.00358077 0)
(0.575458 0.00245531 0)
(0.576055 0.00167184 0)
(0.576464 0.00113021 0)
(0.576739 0.000758083 0)
(0.576927 0.000503969 0)
(0.577053 0.000331755 0)
(0.577137 0.000215885 0)
(0.577194 0.000138573 0)
(0.577231 8.74471e-05 0)
(0.577257 5.42627e-05 0)
(0.577273 3.25124e-05 0)
(0.577284 1.94753e-05 0)
(0.577292 1.08013e-05 0)
(0.577296 6.45418e-06 0)
(0.5773 3.75936e-06 0)
(0.577301 2.91354e-06 0)
(0.577303 3.33274e-06 0)
(1.0675 -0.0224018 0)
(1.07231 -0.0338195 0)
(1.07728 -0.057212 0)
(1.08085 -0.0672923 0)
(1.08475 -0.0931852 0)
(1.08566 -0.141427 0)
(1.0706 -0.184157 0)
(1.027 -0.235588 0)
(0.969042 -0.277982 0)
(0.907512 -0.255357 0)
(0.822254 -0.198558 0)
(0.730914 -0.14985 0)
(0.686343 -0.0830166 0)
(0.683308 -0.0118678 0)
(0.679717 0.0224046 0)
(0.652443 0.0237609 0)
(0.610617 0.0183492 0)
(0.576248 0.018898 0)
(0.556331 0.0226999 0)
(0.548061 0.0244309 0)
(0.547032 0.0228154 0)
(0.549494 0.0191 0)
(0.553004 0.0148109 0)
(0.556363 0.0109071 0)
(0.559143 0.00776703 0)
(0.561283 0.00541436 0)
(0.562869 0.0037231 0)
(0.564018 0.00253575 0)
(0.564841 0.00171361 0)
(0.565426 0.00114933 0)
(0.565841 0.000764665 0)
(0.566131 0.000504243 0)
(0.566337 0.000328713 0)
(0.566479 0.000211435 0)
(0.566577 0.000133526 0)
(0.566644 8.23793e-05 0)
(0.566688 4.94931e-05 0)
(0.566719 2.84981e-05 0)
(0.566738 1.53727e-05 0)
(0.566751 8.06532e-06 0)
(0.566759 3.15379e-06 0)
(0.566764 1.36049e-06 0)
(0.566769 4.79613e-07 0)
(0.56677 3.55133e-07 0)
(0.566773 1.5411e-06 0)
(1.0469 -0.0317451 0)
(1.04663 -0.0385769 0)
(1.04075 -0.0518823 0)
(1.03106 -0.0606318 0)
(1.01273 -0.0737509 0)
(0.990202 -0.0974377 0)
(0.950332 -0.130414 0)
(0.877231 -0.160544 0)
(0.793172 -0.174587 0)
(0.696694 -0.163362 0)
(0.58144 -0.117416 0)
(0.477493 -0.0617008 0)
(0.415356 -0.0144885 0)
(0.392339 0.0251321 0)
(0.390712 0.0544622 0)
(0.396441 0.0677738 0)
(0.405827 0.0667042 0)
(0.418225 0.0565455 0)
(0.432839 0.0436256 0)
(0.448315 0.0319668 0)
(0.462784 0.0227454 0)
(0.474931 0.0158458 0)
(0.484364 0.0108575 0)
(0.491315 0.00734554 0)
(0.496265 0.00492093 0)
(0.499712 0.00327028 0)
(0.50208 0.00215775 0)
(0.503692 0.00141303 0)
(0.504783 0.00091744 0)
(0.505515 0.000589469 0)
(0.506005 0.000373868 0)
(0.506328 0.000233459 0)
(0.506541 0.000142333 0)
(0.506679 8.44085e-05 0)
(0.506768 4.761e-05 0)
(0.506825 2.48978e-05 0)
(0.50686 1.16652e-05 0)
(0.506883 3.53593e-06 0)
(0.506895 -4.63754e-07 0)
(0.506904 -2.09453e-06 0)
(0.506908 -3.2832e-06 0)
(0.50691 -2.70368e-06 0)
(0.506912 -2.11422e-06 0)
(0.506912 -1.63566e-06 0)
(0.506914 -4.78808e-08 0)
(0.874745 -0.0234952 0)
(0.842726 -0.0300468 0)
(0.802225 -0.0309607 0)
(0.761645 -0.0338698 0)
(0.704594 -0.04695 0)
(0.642042 -0.0495997 0)
(0.560515 -0.0731886 0)
(0.423139 -0.105088 0)
(0.275679 -0.075216 0)
(0.167879 -0.0161488 0)
(0.100111 0.014702 0)
(0.0635941 0.0175583 0)
(0.0530102 0.0133939 0)
(0.0630867 0.0127346 0)
(0.089411 0.0113836 0)
(0.124053 0.00765285 0)
(0.159149 0.00303691 0)
(0.189372 1.91506e-05 0)
(0.212804 -0.000948247 0)
(0.230109 -0.000838936 0)
(0.242603 -0.000487429 0)
(0.251475 -0.000209417 0)
(0.257672 -4.7875e-05 0)
(0.261933 2.79785e-05 0)
(0.264826 5.34383e-05 0)
(0.26677 5.3431e-05 0)
(0.268062 4.26722e-05 0)
(0.268912 2.88332e-05 0)
(0.269466 1.58249e-05 0)
(0.269822 5.22117e-06 0)
(0.270046 -2.43104e-06 0)
(0.270184 -7.31805e-06 0)
(0.270266 -9.98306e-06 0)
(0.270313 -1.07547e-05 0)
(0.270338 -1.06708e-05 0)
(0.270349 -9.67198e-06 0)
(0.270353 -8.4821e-06 0)
(0.270352 -7.26089e-06 0)
(0.270349 -5.64149e-06 0)
(0.270346 -4.62881e-06 0)
(0.270341 -3.56993e-06 0)
(0.270339 -2.40262e-06 0)
(0.270337 -1.91259e-06 0)
(0.270334 -1.28896e-06 0)
(0.270334 -3.47798e-07 0)
(-0.0120153 -0.0194187 0)
(-0.0458533 -0.00143735 0)
(-0.122499 0.0364892 0)
(-0.247394 0.0638033 0)
(-0.375858 0.0629358 0)
(-0.468536 0.0457938 0)
(-0.504512 0.0173781 0)
(-0.48424 -0.0133234 0)
(-0.408717 -0.0438899 0)
(-0.286549 -0.0657859 0)
(-0.134159 -0.0741747 0)
(0.023803 -0.0665706 0)
(0.162705 -0.0488199 0)
(0.264654 -0.026978 0)
(0.325211 -0.0075285 0)
(0.35084 0.0053946 0)
(0.353028 0.0111856 0)
(0.342859 0.0120743 0)
(0.328391 0.0104649 0)
(0.314086 0.00802383 0)
(0.301887 0.00568272 0)
(0.29233 0.00380804 0)
(0.285254 0.00245037 0)
(0.280228 0.00152912 0)
(0.276767 0.000930934 0)
(0.27444 0.000553786 0)
(0.272906 0.000320696 0)
(0.271909 0.000179304 0)
(0.271271 9.52536e-05 0)
(0.270869 4.62954e-05 0)
(0.27062 1.83421e-05 0)
(0.270469 2.93099e-06 0)
(0.27038 -4.9308e-06 0)
(0.27033 -8.57035e-06 0)
(0.270305 -9.46916e-06 0)
(0.270293 -9.24264e-06 0)
(0.270289 -8.27532e-06 0)
(0.27029 -6.88906e-06 0)
(0.270292 -5.89077e-06 0)
(0.270296 -4.50306e-06 0)
(0.270299 -3.47985e-06 0)
(0.270303 -2.80434e-06 0)
(0.270305 -1.8163e-06 0)
(0.270307 -1.11459e-06 0)
(0.270308 -3.67154e-07 0)
(-0.0239687 0.0868036 0)
(-0.0870433 0.119638 0)
(-0.178439 0.164322 0)
(-0.2731 0.176755 0)
(-0.348542 0.148112 0)
(-0.388559 0.0907421 0)
(-0.386057 0.00964394 0)
(-0.340391 -0.0833367 0)
(-0.2546 -0.166444 0)
(-0.131096 -0.229471 0)
(0.0167105 -0.25459 0)
(0.169294 -0.239659 0)
(0.308709 -0.191447 0)
(0.420785 -0.12907 0)
(0.495116 -0.0713513 0)
(0.534357 -0.0280989 0)
(0.549978 -0.000629359 0)
(0.552834 0.0136176 0)
(0.549575 0.0187345 0)
(0.543593 0.0187043 0)
(0.536764 0.0162362 0)
(0.530176 0.0129436 0)
(0.524414 0.00972779 0)
(0.519707 0.00700517 0)
(0.516048 0.00488748 0)
(0.513309 0.00332957 0)
(0.511318 0.00222683 0)
(0.509903 0.00146727 0)
(0.508917 0.00095363 0)
(0.508238 0.00061127 0)
(0.507778 0.000385952 0)
(0.507467 0.000239158 0)
(0.507263 0.000145101 0)
(0.507127 8.50626e-05 0)
(0.50704 4.78272e-05 0)
(0.506984 2.51379e-05 0)
(0.506948 1.11258e-05 0)
(0.506927 3.8698e-06 0)
(0.506913 -5.68779e-07 0)
(0.506906 -2.59628e-06 0)
(0.506901 -2.90466e-06 0)
(0.506899 -2.91212e-06 0)
(0.506898 -2.40525e-06 0)
(0.506898 -1.44618e-06 0)
(0.506896 4.51939e-08 0)
(-0.0031954 0.0774557 0)
(-0.0189136 0.130643 0)
(-0.0389762 0.188148 0)
(-0.0594324 0.20307 0)
(-0.0638215 0.165165 0)
(-0.0525013 0.0894506 0)
(-0.0209814 -0.0199175 0)
(0.034029 -0.144913 0)
(0.115673 -0.263795 0)
(0.21224 -0.354772 0)
(0.312606 -0.394321 0)
(0.403812 -0.377537 0)
(0.483616 -0.310939 0)
(0.553047 -0.212984 0)
(0.603233 -0.115512 0)
(0.625177 -0.0455548 0)
(0.624605 -0.00655927 0)
(0.614442 0.0116365 0)
(0.604114 0.0184906 0)
(0.596244 0.0197228 0)
(0.590189 0.0182128 0)
(0.585218 0.0154725 0)
(0.581045 0.0123951 0)
(0.577584 0.00950038 0)
(0.574794 0.0070381 0)
(0.572613 0.00507803 0)
(0.57096 0.00358892 0)
(0.569734 0.00249503 0)
(0.568843 0.00171034 0)
(0.568204 0.00115756 0)
(0.567754 0.000773953 0)
(0.567437 0.000510942 0)
(0.567219 0.000332988 0)
(0.567068 0.00021358 0)
(0.566966 0.000134595 0)
(0.566898 8.31192e-05 0)
(0.56685 4.94793e-05 0)
(0.566821 2.87845e-05 0)
(0.5668 1.54913e-05 0)
(0.566787 7.71241e-06 0)
(0.566778 3.37537e-06 0)
(0.566773 1.28874e-06 0)
(0.566769 2.23851e-07 0)
(0.566768 4.7651e-07 0)
(0.566765 1.62744e-06 0)
(0.0220999 0.143499 0)
(0.0766483 0.168184 0)
(0.137635 0.231465 0)
(0.200609 0.23135 0)
(0.265984 0.176119 0)
(0.326474 0.0761717 0)
(0.400247 -0.0545937 0)
(0.47458 -0.188706 0)
(0.543964 -0.311928 0)
(0.604692 -0.412173 0)
(0.64876 -0.459329 0)
(0.677409 -0.429013 0)
(0.682292 -0.355335 0)
(0.678483 -0.257642 0)
(0.685272 -0.14429 0)
(0.690025 -0.0460534 0)
(0.679742 0.0122815 0)
(0.658258 0.0345056 0)
(0.635407 0.0374379 0)
(0.617114 0.0333491 0)
(0.604278 0.0277397 0)
(0.595746 0.0223401 0)
(0.590125 0.0175306 0)
(0.586351 0.0133975 0)
(0.583742 0.00997723 0)
(0.581892 0.00725794 0)
(0.580562 0.00517449 0)
(0.579601 0.00362754 0)
(0.578911 0.00250788 0)
(0.578418 0.00171356 0)
(0.578071 0.00115877 0)
(0.577826 0.000775962 0)
(0.577658 0.0005147 0)
(0.577541 0.000337853 0)
(0.577462 0.000219216 0)
(0.577408 0.000140519 0)
(0.57737 8.83113e-05 0)
(0.577347 5.47801e-05 0)
(0.57733 3.28448e-05 0)
(0.577319 1.9393e-05 0)
(0.577312 1.08997e-05 0)
(0.577307 6.49501e-06 0)
(0.577304 3.62915e-06 0)
(0.577303 2.95526e-06 0)
(0.5773 3.39143e-06 0)
(0.120468 -0.0479268 0)
(0.108098 -8.8225e-07 0)
(0.267872 0.0400566 0)
(0.39357 0.0559207 0)
(0.520336 0.0275457 0)
(0.637705 -0.044635 0)
(0.74401 -0.151137 0)
(0.815497 -0.275908 0)
(0.864404 -0.375816 0)
(0.885359 -0.445902 0)
(0.861463 -0.478886 0)
(0.824651 -0.423457 0)
(0.770874 -0.31267 0)
(0.698876 -0.210942 0)
(0.649926 -0.120778 0)
(0.63537 -0.037503 0)
(0.634658 0.0227666 0)
(0.632391 0.0514639 0)
(0.624592 0.0563369 0)
(0.613191 0.049125 0)
(0.60197 0.0385576 0)
(0.593205 0.0288298 0)
(0.58729 0.0211152 0)
(0.583665 0.0153198 0)
(0.581577 0.0110418 0)
(0.58041 0.00790344 0)
(0.579761 0.00561298 0)
(0.57939 0.00395262 0)
(0.579168 0.00275899 0)
(0.579025 0.00190859 0)
(0.578931 0.00130829 0)
(0.578864 0.0008884 0)
(0.578817 0.000597507 0)
(0.578783 0.000397737 0)
(0.578758 0.000261798 0)
(0.578742 0.000170304 0)
(0.578728 0.000108957 0)
(0.578721 6.88851e-05 0)
(0.578714 4.23584e-05 0)
(0.578711 2.59148e-05 0)
(0.578708 1.51473e-05 0)
(0.578706 9.41122e-06 0)
(0.578705 5.57816e-06 0)
(0.578705 4.3764e-06 0)
(0.578704 4.37077e-06 0)
)
;

boundaryField
{
    inlet
    {
        type            fixedValue;
        value           uniform (1 0 0);
    }
    outlet
    {
        type            zeroGradient;
    }
    upperWall
    {
        type            noSlip;
    }
    lowerWall
    {
        type            noSlip;
    }
    frontAndBack
    {
        type            empty;
    }
}


// ************************************************************************* //
