/*--------------------------------*- C++ -*----------------------------------*\
  =========                 |
  \\      /  F ield         | OpenFOAM: The Open Source CFD Toolbox
   \\    /   O peration     | Website:  https://openfoam.org
    \\  /    A nd           | Version:  10
     \\/     M anipulation  |
\*---------------------------------------------------------------------------*/
FoamFile
{
    format      ascii;
    class       volScalarField;
    location    "1.5";
    object      p;
}
// * * * * * * * * * * * * * * * * * * * * * * * * * * * * * * * * * * * * * //

dimensions      [0 2 -2 0 0 0 0];

internalField   nonuniform List<scalar> 
400
(
4.71105e-09
9.76881e-06
9.93011e-05
0.000247532
0.000453579
0.00071324
0.00102087
0.00136962
0.00175144
0.00215712
0.00257641
0.00299818
0.00341055
0.00380127
0.00415801
0.00446887
0.00472281
0.00491046
0.00502706
0.00504737
-1.09582e-05
-2.06379e-06
8.77044e-05
0.000235728
0.000441609
0.000701326
0.00100935
0.00135891
0.00174204
0.00214956
0.00257119
0.00299587
0.00341157
0.0038059
0.00416634
0.00448077
0.00473787
0.00492808
0.00504681
0.00506689
-0.000102276
-9.44965e-05
-2.4637e-06
0.000149533
0.000361274
0.000628738
0.000946373
0.00130737
0.00170366
0.00212592
0.0025638
0.00300573
0.0034393
0.00385161
0.00422947
0.00455994
0.00483082
0.00503163
0.00515724
0.0051779
-0.000259986
-0.000252924
-0.000156774
2.33614e-06
0.000224404
0.000505391
0.000839679
0.00122035
0.00163915
0.00208653
0.0025517
0.00302277
0.00348655
0.00392925
0.00433659
0.0046943
0.00498865
0.00520763
0.00534509
0.00536799
-0.000488337
-0.000481969
-0.00037982
-0.000210381
2.66195e-05
0.000327106
0.000685347
0.00109426
0.00154533
0.00202867
0.00253303
0.00304591
0.0035532
0.00403988
0.00449012
0.00488773
0.00521674
0.00546276
0.00561797
0.00564472
-0.00079279
-0.000787327
-0.000677294
-0.000494282
-0.000237658
8.84492e-05
0.000478161
0.000924174
0.00141769
0.00194839
0.00250448
0.00307283
0.00363817
0.00418399
0.00469245
0.00514477
0.00552185
0.00580581
0.00598622
0.00601884
-0.00118017
-0.00117604
-0.00105626
-0.000856428
-0.000575421
-0.000217433
0.000211479
0.000703761
0.00125028
0.0018403
0.00246142
0.00309992
0.0037393
0.00436136
0.00494584
0.00547064
0.00591242
0.00624824
0.00646362
0.006505
-0.00165917
-0.00165709
-0.00152574
-0.00130585
-0.000995605
-0.000599297
-0.00012319
0.000424867
0.0010354
0.00169727
0.00239754
0.00312195
0.00385295
0.0045707
0.00525216
0.00587121
0.00639885
0.00680502
0.00706879
0.00712335
-0.00224052
-0.00224162
-0.00209696
-0.00185375
-0.0015093
-0.00106798
-0.000536362
7.73527e-05
0.000763327
0.00151013
0.00230455
0.00313142
0.0039732
0.00480863
0.00561191
0.00635218
0.00699329
0.00749513
0.00782647
0.00790151
-0.00293729
-0.00294329
-0.00278369
-0.00251389
-0.00213003
-0.00163666
-0.00104076
-0.000351076
0.00042212
0.00126716
0.00217095
0.00311769
0.00409079
0.00506835
0.00602257
0.00691769
0.00770879
0.00834206
0.00876934
0.0088779
-0.00376535
-0.00377877
-0.00360278
-0.00330306
-0.00287422
-0.00232112
-0.00165149
-0.000874917
-2.36747e-06
0.000954239
0.00198209
0.00306649
0.00419198
0.00533783
0.00647612
0.00756759
0.00855734
0.00937383
0.0099403
0.0101074
-0.0047442
-0.00476862
-0.0045751
-0.00424188
-0.00376177
-0.00314017
-0.00238614
-0.0015108
-0.00052626
0.000555099
0.00172099
0.00295943
0.0042571
0.00559732
0.00695552
0.00829257
0.00954544
0.0106216
0.0113946
0.0116719
-0.00589847
-0.00593855
-0.00572693
-0.00535608
-0.004817
-0.00411604
-0.00326473
-0.00227692
-0.00116688
5.22319e-05
0.00136904
0.00277411
0.00425927
0.00581613
0.00742925
0.0090667
0.0106641
0.0121146
0.0132012
0.0136993
-0.00726331
-0.00732289
-0.00709275
-0.00667862
-0.00607019
-0.00527491
-0.00430918
-0.00319189
-0.00194127
-0.000572148
0.000905212
0.00248465
0.00416374
0.00594929
0.0078437
0.00983507
0.0118713
0.0138686
0.0154417
0.0163931
-0.00885878
-0.00895642
-0.00871535
-0.00825253
-0.00755974
-0.00664733
-0.00554221
-0.00427257
-0.0028633
-0.00133235
0.000311255
0.00206636
0.00392964
0.00593609
0.00811563
0.0104969
0.0130643
0.0158483
0.0181519
0.020131
-0.0109511
-0.0109437
-0.0106787
-0.010144
-0.00933786
-0.00826924
-0.00698628
-0.00553189
-0.00394062
-0.00223531
-0.000423876
0.00151223
0.00351422
0.00570111
0.00812399
0.010879
0.0140034
0.0178565
0.0211303
0.0254101
-0.0128421
-0.0132848
-0.0130351
-0.0124408
-0.0114735
-0.0101805
-0.00865863
-0.0069725
-0.0051683
-0.00327721
-0.001319
0.000688534
0.00283604
0.00511939
0.00760095
0.0105465
0.0137835
0.0192384
0.023469
0.0328387
-0.0175941
-0.015789
-0.0157832
-0.0149383
-0.0137994
-0.012281
-0.0105026
-0.00854971
-0.00649662
-0.00439428
-0.00226295
-9.00808e-05
0.00217485
0.00461271
0.0071979
0.0102964
0.0139788
0.0205584
0.0264145
0.0423214
-0.0189304
-0.0216563
-0.0208956
-0.0199015
-0.0180174
-0.0155882
-0.0130414
-0.0105061
-0.00803838
-0.00564833
-0.0033459
-0.001133
0.000950429
0.00294406
0.00430108
0.00713047
0.00685629
0.0166286
0.0142157
0.0536124
-0.0419422
-0.0199659
-0.020434
-0.0194545
-0.0175767
-0.015433
-0.0131613
-0.0107717
-0.00834953
-0.00596677
-0.00366489
-0.0014175
0.000672695
0.00288873
0.00476169
0.00817662
0.0121229
0.0267525
0.0514864
0.119298
)
;

boundaryField
{
    movingWall
    {
        type            zeroGradient;
    }
    fixedWalls
    {
        type            zeroGradient;
    }
    frontAndBack
    {
        type            empty;
    }
}


// ************************************************************************* //
