/*--------------------------------*- C++ -*----------------------------------*\
  =========                 |
  \\      /  F ield         | OpenFOAM: The Open Source CFD Toolbox
   \\    /   O peration     | Website:  https://openfoam.org
    \\  /    A nd           | Version:  10
     \\/     M anipulation  |
\*---------------------------------------------------------------------------*/
FoamFile
{
    format      ascii;
    class       volScalarField;
    location    "8.25";
    object      p;
}
// * * * * * * * * * * * * * * * * * * * * * * * * * * * * * * * * * * * * * //

dimensions      [0 2 -2 0 0 0 0];

internalField   nonuniform List<scalar> 
475
(
-0.0501032
-0.0754646
-0.104814
-0.128406
-0.151056
-0.0758783
-0.0891928
-0.105461
-0.124518
-0.141476
-0.0740117
-0.0833494
-0.0982968
-0.115767
-0.132143
-0.0733815
-0.0841184
-0.098986
-0.114434
-0.128009
-0.0435075
-0.0704287
-0.094057
-0.111701
-0.124483
-0.169357
-0.180214
-0.184187
-0.185664
-0.187388
-0.189975
-0.193161
-0.195759
-0.196491
-0.194417
-0.189034
-0.180294
-0.168702
-0.155292
-0.14114
-0.127057
-0.113276
-0.100826
-0.0921655
-0.0884794
-0.0890979
-0.091857
-0.0945256
-0.0958918
-0.0956179
-0.0935212
-0.0896307
-0.0843281
-0.0776609
-0.0699382
-0.0615373
-0.0529012
-0.0446512
-0.0370824
-0.0304085
-0.0245024
-0.0193921
-0.0150002
-0.0112269
-0.00812433
-0.00556405
-0.00373314
-0.0023783
-0.0013255
-0.000538888
-0.158105
-0.169665
-0.175433
-0.177032
-0.177006
-0.176596
-0.175902
-0.174616
-0.172277
-0.168635
-0.16362
-0.15731
-0.150007
-0.142126
-0.133757
-0.125023
-0.11537
-0.106648
-0.101188
-0.0999291
-0.102306
-0.106534
-0.110007
-0.111501
-0.110679
-0.107355
-0.101917
-0.094711
-0.0862997
-0.0768015
-0.0666081
-0.0562423
-0.0463548
-0.0372324
-0.0292
-0.0222034
-0.01638
-0.0115828
-0.00770877
-0.00479598
-0.00260508
-0.00145653
-0.000744435
-0.000471391
-0.000293429
-0.145524
-0.155033
-0.160601
-0.16272
-0.162447
-0.160583
-0.157674
-0.15395
-0.149669
-0.145058
-0.140846
-0.137959
-0.136842
-0.136726
-0.133349
-0.124736
-0.115374
-0.110584
-0.109206
-0.108731
-0.109848
-0.112089
-0.11397
-0.114447
-0.113122
-0.109609
-0.103879
-0.0964714
-0.0876326
-0.0776958
-0.0670923
-0.05631
-0.0459268
-0.0363072
-0.0278198
-0.0205027
-0.0144912
-0.00956864
-0.00572242
-0.00291855
-0.00100796
-0.000145674
0.00033378
0.000269032
0.000213132
-0.138805
-0.146605
-0.151402
-0.15322
-0.152397
-0.149296
-0.144543
-0.138421
-0.131753
-0.125125
-0.120691
-0.119935
-0.125652
-0.137895
-0.140675
-0.127458
-0.10772
-0.0986426
-0.101287
-0.108075
-0.113456
-0.116697
-0.117654
-0.116656
-0.113963
-0.109491
-0.10314
-0.0952301
-0.0861226
-0.0761221
-0.065594
-0.0549706
-0.0447239
-0.0352018
-0.0267205
-0.0193859
-0.0133222
-0.00839997
-0.00464861
-0.00193587
-0.000201382
0.000638766
0.00101217
0.000777794
0.000524762
-0.134115
-0.141231
-0.145715
-0.147391
-0.146191
-0.142471
-0.136657
-0.129511
-0.12171
-0.114538
-0.109745
-0.109616
-0.117889
-0.132307
-0.139439
-0.134069
-0.122691
-0.112611
-0.108067
-0.108516
-0.111086
-0.113218
-0.114148
-0.113475
-0.11099
-0.106589
-0.100499
-0.0928877
-0.0840322
-0.0742594
-0.0639616
-0.0535806
-0.0435422
-0.0342087
-0.0258742
-0.0186607
-0.012658
-0.00781682
-0.00414482
-0.00150204
0.000153113
0.00103105
0.00131095
0.00108441
0.000727001
-0.194349
-0.194843
-0.195501
-0.196478
-0.197966
-0.200733
-0.204906
-0.20944
-0.212798
-0.212962
-0.20831
-0.197966
-0.18194
-0.160734
-0.135652
-0.108711
-0.0822529
-0.0582534
-0.0380943
-0.0222164
-0.0117455
-0.00598053
-0.00421841
-0.00545988
-0.00862876
-0.0127934
-0.0172946
-0.0216432
-0.0254884
-0.0287186
-0.0312891
-0.0332025
-0.0345774
-0.0354735
-0.0356123
-0.0345482
-0.0322287
-0.0289384
-0.025077
-0.0208711
-0.0165344
-0.0122315
-0.00817123
-0.00455621
-0.00133434
-0.188844
-0.19085
-0.191909
-0.193964
-0.196984
-0.201374
-0.206809
-0.212416
-0.21667
-0.217657
-0.213809
-0.204339
-0.188716
-0.167538
-0.142187
-0.114627
-0.0876231
-0.0631369
-0.0425711
-0.0266048
-0.0156706
-0.00950297
-0.00735505
-0.00820574
-0.0110095
-0.0148401
-0.0190875
-0.0232459
-0.0268524
-0.0296803
-0.0317585
-0.0332485
-0.0344424
-0.0353891
-0.0356493
-0.0346216
-0.0322361
-0.0288703
-0.0249066
-0.0206616
-0.0161452
-0.0117638
-0.00771736
-0.00424391
-0.00135904
-0.197826
-0.196467
-0.195977
-0.196347
-0.198799
-0.203453
-0.20958
-0.215749
-0.220665
-0.221962
-0.218197
-0.20862
-0.193112
-0.172256
-0.147452
-0.120704
-0.0945793
-0.0710429
-0.0513624
-0.0362139
-0.0259489
-0.0202865
-0.0184097
-0.0192106
-0.0216324
-0.0247958
-0.028053
-0.0309994
-0.0333923
-0.0348796
-0.0355818
-0.035769
-0.0357701
-0.035633
-0.0349471
-0.0332033
-0.0304211
-0.026969
-0.0232019
-0.0193444
-0.0153478
-0.0112468
-0.00744547
-0.00398494
-0.00120727
-0.185238
-0.187796
-0.18907
-0.191279
-0.194892
-0.200105
-0.206483
-0.212784
-0.217569
-0.21907
-0.215695
-0.206761
-0.192092
-0.17263
-0.14992
-0.125791
-0.102431
-0.0816709
-0.0646788
-0.0521311
-0.0441871
-0.0402559
-0.0393283
-0.0402474
-0.0420307
-0.0438924
-0.0452427
-0.0458512
-0.0457359
-0.0446832
-0.0428223
-0.0404928
-0.0381107
-0.0357695
-0.0332589
-0.0303587
-0.0271348
-0.0237461
-0.0202645
-0.016639
-0.0128867
-0.00916605
-0.00590441
-0.00309825
-0.000929303
-0.221511
-0.201421
-0.197587
-0.195329
-0.196089
-0.199764
-0.204884
-0.209633
-0.212681
-0.212556
-0.208143
-0.199023
-0.185264
-0.167918
-0.148498
-0.128518
-0.109442
-0.0928398
-0.0801729
-0.0721448
-0.0683335
-0.0674698
-0.0681211
-0.0692342
-0.0701175
-0.0701189
-0.0689256
-0.0664377
-0.0626826
-0.0579245
-0.0525294
-0.0468715
-0.0414232
-0.0364005
-0.0317968
-0.0274331
-0.0232556
-0.0193001
-0.0156012
-0.0121994
-0.00916928
-0.00650247
-0.0042967
-0.00236712
-0.000800406
)
;

boundaryField
{
    inlet
    {
        type            zeroGradient;
    }
    outlet
    {
        type            fixedValue;
        value           uniform 0;
    }
    upperWall
    {
        type            zeroGradient;
    }
    lowerWall
    {
        type            zeroGradient;
    }
    frontAndBack
    {
        type            empty;
    }
}


// ************************************************************************* //
