/*--------------------------------*- C++ -*----------------------------------*\
  =========                 |
  \\      /  F ield         | OpenFOAM: The Open Source CFD Toolbox
   \\    /   O peration     | Website:  https://openfoam.org
    \\  /    A nd           | Version:  10
     \\/     M anipulation  |
\*---------------------------------------------------------------------------*/
FoamFile
{
    format      ascii;
    class       volScalarField;
    location    "8.2";
    object      p;
}
// * * * * * * * * * * * * * * * * * * * * * * * * * * * * * * * * * * * * * //

dimensions      [0 2 -2 0 0 0 0];

internalField   nonuniform List<scalar> 
400
(
-1.58496e-08
-2.50721e-05
3.13574e-05
0.00014019
0.000309171
0.000541053
0.000839969
0.00121105
0.00165914
0.00218741
0.00279578
0.00347849
0.00422094
0.00499667
0.00576397
0.00646676
0.00703891
0.00742091
0.00761111
0.00753075
2.74982e-05
1.94521e-06
6.53516e-05
0.000176213
0.000343797
0.000571685
0.000864469
0.00122746
0.00166566
0.00218264
0.00277907
0.00345027
0.00418198
0.00495164
0.00571752
0.0064232
0.00699912
0.0073822
0.00757506
0.00747814
-3.99715e-05
-7.41052e-05
-1.25461e-05
9.37657e-05
0.000254863
0.000474572
0.000758087
0.00111172
0.00154196
0.00205458
0.002653
0.00333595
0.00409482
0.00490556
0.00572739
0.00649616
0.0071265
0.00753515
0.00772518
0.0075746
-0.000181296
-0.000221441
-0.000163825
-6.50956e-05
8.56303e-05
0.000292586
0.000561868
0.00090125
0.00131947
0.00182567
0.00242793
0.00313039
0.00392952
0.00480707
0.0057225
0.00660096
0.00733166
0.00778872
0.00797145
0.00772678
-0.000404521
-0.000449758
-0.000398759
-0.000311223
-0.000175426
1.33722e-05
0.000262334
0.000581006
0.000980927
0.0014755
0.00207912
0.00280441
0.00365651
0.0046269
0.0056776
0.00672295
0.00761547
0.00815672
0.00831862
0.0079089
-0.000708172
-0.000758496
-0.000716823
-0.000644475
-0.000529122
-0.000365663
-0.000145988
0.000141123
0.000510041
0.000978796
0.00156916
0.00230541
0.00320833
0.0042835
0.00550479
0.00678789
0.00793715
0.00862873
0.00874065
0.00804183
-0.00108752
-0.00114351
-0.00111396
-0.0010614
-0.00097323
-0.000844437
-0.000666624
-0.000427623
-0.000111073
0.000304917
0.000849119
0.00155825
0.00247299
0.00362699
0.00502708
0.00661782
0.00816157
0.00913926
0.00915395
0.00799245
-0.00153619
-0.00159876
-0.00158415
-0.00155632
-0.00150298
-0.00141995
-0.00129975
-0.00113108
-0.000897831
-0.000576993
-0.000136246
0.000469354
0.00129999
0.00242362
0.00389972
0.0057818
0.00786203
0.00939782
0.00930023
0.00765211
-0.00204613
-0.00211622
-0.00211891
-0.00212038
-0.00210944
-0.00208384
-0.00203878
-0.00196644
-0.0018553
-0.00168814
-0.00143864
-0.00106699
-0.000517271
0.000291066
0.00148967
0.00324912
0.00575997
0.00827682
0.00847741
0.0071105
-0.0026076
-0.00268596
-0.00270701
-0.00274075
-0.00277799
-0.00281986
-0.00286642
-0.00291671
-0.0029693
-0.00302228
-0.00307368
-0.00312418
-0.00319145
-0.00333044
-0.00350354
-0.00315105
-0.00111469
0.00292149
0.00540197
0.00655589
-0.00320976
-0.00329682
-0.00333483
-0.00340061
-0.00348778
-0.00360239
-0.00375154
-0.00394475
-0.00419707
-0.00453375
-0.00499954
-0.00567948
-0.00676255
-0.00867146
-0.0116967
-0.0151172
-0.0148312
-0.00912674
-0.00226127
0.00382713
-0.00384191
-0.00393701
-0.00398596
-0.00407816
-0.00421032
-0.0043947
-0.00464657
-0.00498791
-0.00545456
-0.00610802
-0.00706035
-0.00852243
-0.0109172
-0.0151567
-0.0219032
-0.0301978
-0.0332075
-0.0264395
-0.0154764
-0.00451708
-0.00449717
-0.00459971
-0.00464923
-0.00475607
-0.00491929
-0.0051586
-0.0054974
-0.00596868
-0.00662723
-0.007567
-0.0089595
-0.0111185
-0.0146456
-0.0207006
-0.0300863
-0.0412808
-0.0468544
-0.0404584
-0.0294873
-0.0161414
-0.00516817
-0.00526823
-0.00529238
-0.00539001
-0.00556242
-0.00583362
-0.00622927
-0.00678888
-0.00757543
-0.00869459
-0.0103422
-0.012845
-0.0168396
-0.0233534
-0.0332666
-0.0443117
-0.050371
-0.0443407
-0.0356068
-0.022705
-0.00588258
-0.00598807
-0.0059644
-0.0060317
-0.00617566
-0.00643303
-0.00683245
-0.00741375
-0.00823795
-0.00939988
-0.0110879
-0.0135787
-0.01737
-0.0232678
-0.031803
-0.040275
-0.0449103
-0.0394781
-0.0342549
-0.0216831
-0.00672362
-0.0066328
-0.00648
-0.00642912
-0.0065175
-0.00675607
-0.00715499
-0.00773623
-0.00854651
-0.00965299
-0.0112051
-0.0134016
-0.0166299
-0.0211609
-0.0273081
-0.0328426
-0.0357589
-0.0306548
-0.027953
-0.0124782
-0.00719229
-0.00759998
-0.0072709
-0.00724405
-0.00720111
-0.00730183
-0.00755956
-0.00800767
-0.00868835
-0.00964524
-0.0109767
-0.0128345
-0.0154402
-0.0187772
-0.0231024
-0.0263908
-0.0277841
-0.0224091
-0.0186634
0.00634821
-0.010571
-0.00802884
-0.0073478
-0.00670773
-0.00659022
-0.00673139
-0.00707464
-0.00758329
-0.00828049
-0.00917207
-0.0103936
-0.011987
-0.0141469
-0.0167112
-0.0197745
-0.0214878
-0.0214104
-0.0143562
-0.00421547
0.0388237
-0.00721124
-0.0101837
-0.00904637
-0.00900275
-0.00849718
-0.00822117
-0.0081323
-0.00826153
-0.00865433
-0.00929529
-0.0103103
-0.011672
-0.0137188
-0.0161172
-0.0192246
-0.0205806
-0.0195537
-0.0056411
0.0200452
0.096608
-0.03245
-0.00735695
-0.0057608
-0.00496715
-0.00473489
-0.004917
-0.00539955
-0.00599186
-0.00678407
-0.00769702
-0.00897715
-0.0104767
-0.0124488
-0.0142359
-0.0155549
-0.0127064
-0.00261941
0.0314033
0.0978905
0.228536
)
;

boundaryField
{
    movingWall
    {
        type            zeroGradient;
    }
    fixedWalls
    {
        type            zeroGradient;
    }
    frontAndBack
    {
        type            empty;
    }
}


// ************************************************************************* //
