/*--------------------------------*- C++ -*----------------------------------*\
  =========                 |
  \\      /  F ield         | OpenFOAM: The Open Source CFD Toolbox
   \\    /   O peration     | Website:  https://openfoam.org
    \\  /    A nd           | Version:  10
     \\/     M anipulation  |
\*---------------------------------------------------------------------------*/
FoamFile
{
    format      ascii;
    class       surfaceScalarField;
    location    "9.925";
    object      phi;
}
// * * * * * * * * * * * * * * * * * * * * * * * * * * * * * * * * * * * * * //

dimensions      [0 3 -1 0 0 0 0];

internalField   nonuniform List<scalar> 
760
(
-1.45528e-05
1.45527e-05
-4.72878e-05
3.2735e-05
-8.68733e-05
3.95855e-05
-0.000129024
4.21503e-05
-0.000172567
4.35431e-05
-0.000217333
4.47665e-05
-0.000263127
4.57933e-05
-0.00030928
4.61532e-05
-0.000354387
4.51075e-05
-0.000396034
4.16468e-05
-0.000430551
3.45174e-05
-0.000452917
2.2366e-05
-0.000456978
4.06098e-06
-0.000436087
-2.08917e-05
-0.000385435
-5.06521e-05
-0.000305007
-8.04275e-05
-0.000203515
-0.000101492
-0.000100467
-0.000103048
-2.3013e-05
-7.74537e-05
-2.3013e-05
-3.60391e-05
5.05918e-05
-0.00010173
9.84255e-05
-0.000178943
0.000116799
-0.000260562
0.00012377
-0.000344041
0.000127022
-0.000428308
0.000129033
-0.000512285
0.00012977
-0.000594194
0.000128062
-0.000671144
0.000122058
-0.00073878
0.000109283
-0.000791023
8.67608e-05
-0.000819897
5.12397e-05
-0.000816915
1.07859e-06
-0.000772252
-6.55545e-05
-0.000679535
-0.000143369
-0.00053939
-0.000220572
-0.000365368
-0.000275514
-0.000188495
-0.000279921
-5.21875e-05
-0.000213761
-7.52005e-05
-4.63487e-05
9.69405e-05
-0.000128132
0.000180209
-0.00022325
0.000211917
-0.000323111
0.000223631
-0.00042463
0.00022854
-0.000526444
0.000230848
-0.000627241
0.000230566
-0.000725005
0.000225827
-0.000816573
0.000213626
-0.000897224
0.000189933
-0.00096029
0.000149827
-0.000997146
8.80957e-05
-0.000997
9.31946e-07
-0.000947284
-0.00011527
-0.000837908
-0.000252746
-0.000666045
-0.000392435
-0.000446128
-0.000495431
-0.000221025
-0.000505024
-5.53534e-05
-0.000379433
-0.000130554
-5.0409e-05
0.00014735
-0.000139232
0.000269032
-0.00024222
0.000314905
-0.000350155
0.000331565
-0.000459952
0.000338338
-0.00057048
0.000341376
-0.000680784
0.00034087
-0.00078934
0.000334383
-0.000893566
0.000317853
-0.000989303
0.00028567
-0.00107014
0.000230668
-0.00112666
0.000144614
-0.001146
2.02706e-05
-0.0011111
-0.000150175
-0.00100271
-0.000361133
-0.000807278
-0.000587865
-0.000533675
-0.000769034
-0.000242983
-0.000795716
-4.52885e-05
-0.000577128
-0.000175842
-5.11505e-05
0.0001985
-0.000142245
0.000360126
-0.000248164
0.000420825
-0.000359522
0.000442923
-0.00047354
0.000452355
-0.000589668
0.000457505
-0.000707783
0.000458984
-0.000827449
0.000454049
-0.000947403
0.000437807
-0.00106488
0.000403152
-0.00117463
0.000340416
-0.00126741
0.00023739
-0.00132791
8.0773e-05
-0.00133359
-0.000144497
-0.00125034
-0.000444379
-0.00104083
-0.000797376
-0.000693278
-0.00111659
-0.000291923
-0.00119707
-3.18005e-05
-0.00083725
-0.000207643
-5.01565e-05
0.000248657
-0.000140989
0.000450959
-0.000247309
0.000527144
-0.000359772
0.000555387
-0.000476039
0.000568623
-0.000596379
0.000577844
-0.000721865
0.000584471
-0.000853686
0.000585869
-0.000992693
0.000576814
-0.00113869
0.000549147
-0.00128924
0.000490965
-0.00143772
0.000385871
-0.00156961
0.000212666
-0.00165917
-5.49378e-05
-0.00164821
-0.000455341
-0.0014532
-0.000992381
-0.00101356
-0.00155623
-0.000437301
-0.00177333
-4.13706e-05
-0.00123318
-0.000249014
-4.81203e-05
0.000296777
-0.000137145
0.000539984
-0.000242231
0.00063223
-0.000354129
0.000667285
-0.000470959
0.000685453
-0.000593898
0.000700783
-0.000725458
0.00071603
-0.000868962
0.000729374
-0.00102829
0.00073614
-0.00120749
0.000728354
-0.00140997
0.000693442
-0.00163674
0.000612643
-0.0018815
0.000457419
-0.00211518
0.000178748
-0.00225139
-0.000319129
-0.0021216
-0.00112218
-0.00159933
-0.0020785
-0.000816529
-0.00255613
-0.000158569
-0.00189114
-0.000407582
-4.52948e-05
0.000342072
-0.000131323
0.000626012
-0.000233734
0.000734641
-0.000343279
0.00077683
-0.000458442
0.000800616
-0.000581252
0.000823592
-0.000715688
0.000850467
-0.000867444
0.000881129
-0.00104423
0.000912931
-0.00125626
0.000940382
-0.00151657
0.000953754
-0.00184074
0.000936811
-0.00223852
0.000855198
-0.00267409
0.000614319
-0.00301344
2.02216e-05
-0.00299336
-0.00114226
-0.00246982
-0.00260204
-0.00156365
-0.0034623
-0.000518252
-0.00293654
-0.000925835
-4.18401e-05
0.000383912
-0.000123865
0.000708037
-0.000222133
0.000832909
-0.000327191
0.000881888
-0.000437642
0.000911068
-0.000556128
0.000942078
-0.000687838
0.000982177
-0.000840608
0.0010339
-0.00102597
0.00109829
-0.00126105
0.00117546
-0.00157103
0.00126373
-0.00198778
0.00135356
-0.00253227
0.00139968
-0.00315075
0.0012328
-0.00363916
0.000508626
-0.00374708
-0.00103433
-0.00337419
-0.00297493
-0.00252316
-0.00431333
-0.00113909
-0.00432061
-0.00206492
-3.80524e-05
0.000421964
-0.000115373
0.000785357
-0.000208091
0.000925627
-0.000306266
0.000980063
-0.000408267
0.00101307
-0.000516901
0.00105071
-0.000637897
0.00110317
-0.000780238
0.00117624
-0.000957793
0.00127584
-0.00119221
0.00140988
-0.00151608
0.00158761
-0.0019675
0.00180498
-0.00255579
0.00198798
-0.00319736
0.00187437
-0.00369323
0.0010045
-0.00385993
-0.000867631
-0.00369111
-0.00314375
-0.00307625
-0.00492819
-0.00173862
-0.00565824
-0.00380354
-3.44929e-05
0.000456457
-0.000107017
0.000857882
-0.000193104
0.00101171
-0.000282006
0.00106896
-0.000371489
0.00110255
-0.000463904
0.00114313
-0.000564388
0.00120366
-0.000681026
0.00129288
-0.000826283
0.0014211
-0.00101909
0.00160269
-0.00128556
0.00185408
-0.00164952
0.00216894
-0.00210018
0.00243864
-0.00255406
0.00232825
-0.00289748
0.00134793
-0.00305793
-0.000707183
-0.00307562
-0.00312606
-0.00279699
-0.00520683
-0.00183605
-0.00661917
-0.0056396
-3.22759e-05
0.000488733
-0.000101049
0.000926655
-0.000180063
0.00109073
-0.000257615
0.00114652
-0.000330816
0.00117575
-0.000401078
0.00121339
-0.00047181
0.00127439
-0.000547997
0.00136907
-0.000636541
0.00150964
-0.000746255
0.0017124
-0.000886337
0.00199416
-0.00105851
0.00234111
-0.00125065
0.00263078
-0.00142726
0.00250485
-0.00157868
0.00149935
-0.0017201
-0.000565763
-0.00190117
-0.00294499
-0.00198563
-0.00512236
-0.00147751
-0.0071273
-0.00711711
-3.25995e-05
0.000521333
-0.000100037
0.000994093
-0.000172816
0.00116351
-0.000238271
0.00121197
-0.000292803
0.00123029
-0.000336842
0.00125743
-0.000371846
0.00130939
-0.000398926
0.00139615
-0.000418256
0.00152897
-0.000427194
0.00172134
-0.000419155
0.00198612
-0.000379097
0.00230106
-0.000308515
0.00256019
-0.000240899
0.00243724
-0.00024846
0.00150691
-0.000423998
-0.000390225
-0.000787982
-0.00258101
-0.00117969
-0.00473065
-0.00107353
-0.00723346
-0.00819064
-3.98147e-05
0.000561147
-0.000111188
0.00106547
-0.000178333
0.00123065
-0.000229623
0.00126326
-0.000263315
0.00126398
-0.000279658
0.00127377
-0.000278007
0.00130774
-0.000256173
0.00137431
-0.000209075
0.00148188
-0.000125803
0.00163807
1.16219e-05
0.0018487
0.000214059
0.00209862
0.000483747
0.00229051
0.000741525
0.00217946
0.000837409
0.00141102
0.000627107
-0.000179923
0.000130647
-0.00208455
-0.000542532
-0.00405747
-0.000761215
-0.00701477
-0.00895186
-5.011e-05
0.000611257
-0.000130121
0.00114548
-0.000197659
0.00129819
-0.000241412
0.00130701
-0.000257457
0.00128002
-0.000247119
0.00126343
-0.000210295
0.00127092
-0.000143927
0.00130794
-4.11053e-05
0.00137905
0.000109632
0.00148733
0.000324608
0.00163372
0.000624712
0.00179851
0.000999498
0.00191572
0.00136311
0.00181585
0.00153322
0.00124091
0.00131993
3.33664e-05
0.00073102
-0.00149564
-0.000100963
-0.00322549
-0.000508093
-0.00660764
-0.00945995
-0.000118042
0.0007293
-0.00021203
0.00123946
-0.000262208
0.00134837
-0.00027677
0.00132158
-0.000263619
0.00126687
-0.000225484
0.0012253
-0.000159909
0.00120534
-6.13553e-05
0.00120939
7.80811e-05
0.00123962
0.000269267
0.00129614
0.000525937
0.00137705
0.000860364
0.00146409
0.0012569
0.00151918
0.00164082
0.00143194
0.00183716
0.00104457
0.00166088
0.000209638
0.00106598
-0.000900734
0.000183808
-0.00234331
-0.000314608
-0.00610923
-0.00977456
-7.59441e-05
0.000805244
-0.000237078
0.0014006
-0.000325711
0.001437
-0.000348708
0.00134457
-0.000325199
0.00124336
-0.000265966
0.00116607
-0.000173509
0.00111289
-4.47303e-05
0.00108061
0.000125701
0.00106919
0.000346898
0.00107495
0.000625422
0.00109853
0.000965759
0.00112375
0.00134822
0.00113672
0.00171366
0.00106649
0.00191931
0.00083892
0.00178041
0.000348543
0.00128953
-0.000409852
0.000540876
-0.00159466
6.21458e-05
-0.0056305
-0.00971241
-0.000373157
0.0011784
-0.000413741
0.00144118
-0.000436952
0.00146021
-0.000445551
0.00135317
-0.000405231
0.00120304
-0.000322862
0.0010837
-0.000201382
0.000991405
-3.85192e-05
0.000917749
0.00016473
0.000865937
0.000413771
0.000825905
0.000706375
0.000805925
0.00104259
0.000787532
0.00140156
0.000777758
0.00173047
0.00073757
0.00195294
0.000616454
0.00194018
0.000361306
0.00177741
-0.000247082
0.00144297
-0.00126022
0.000822138
-0.00500967
-0.00889027
-0.00136295
0.00254135
-0.0013188
0.00139704
-0.00104676
0.00118817
-0.00066101
0.000967422
-0.000256017
0.000798048
0.000152626
0.000675054
0.000554609
0.000589422
0.000950458
0.000521901
0.00134189
0.00047451
0.00173445
0.000433344
0.00213265
0.00040772
0.00253784
0.000382342
0.00295438
0.000361221
0.00336415
0.000327794
0.0037349
0.000245706
0.00398536
0.000110845
0.00406227
-0.000323989
0.00393269
-0.00113065
0.00249819
-0.00357516
-0.00639208
0.00254135
0.00393839
0.00512656
0.00609398
0.00689202
0.00756708
0.0081565
0.0086784
0.00915291
0.00958626
0.00999398
0.0103763
0.0107375
0.0110653
0.011311
0.0114219
0.0110979
0.00996725
0.00639208
)
;

boundaryField
{
    movingWall
    {
        type            calculated;
        value           uniform 0;
    }
    fixedWalls
    {
        type            calculated;
        value           uniform 0;
    }
    frontAndBack
    {
        type            empty;
        value           nonuniform List<scalar> 0();
    }
}


// ************************************************************************* //
