/*--------------------------------*- C++ -*----------------------------------*\
  =========                 |
  \\      /  F ield         | OpenFOAM: The Open Source CFD Toolbox
   \\    /   O peration     | Website:  https://openfoam.org
    \\  /    A nd           | Version:  10
     \\/     M anipulation  |
\*---------------------------------------------------------------------------*/
FoamFile
{
    format      ascii;
    class       surfaceScalarField;
    location    "4.725";
    object      phi;
}
// * * * * * * * * * * * * * * * * * * * * * * * * * * * * * * * * * * * * * //

dimensions      [0 3 -1 0 0 0 0];

internalField   nonuniform List<scalar> 
760
(
-8.53172e-06
8.53175e-06
-2.8089e-05
1.95573e-05
-5.05911e-05
2.2502e-05
-7.31125e-05
2.25214e-05
-9.47501e-05
2.16376e-05
-0.000115059
2.03093e-05
-0.000133608
1.85482e-05
-0.000149884
1.6276e-05
-0.000163286
1.34028e-05
-0.000173129
9.84252e-06
-0.000178654
5.52514e-06
-0.000179072
4.17414e-07
-0.000173599
-5.47281e-06
-0.000161611
-1.19879e-05
-0.00014275
-1.88611e-05
-0.000117104
-2.56456e-05
-8.55203e-05
-3.1584e-05
-5.02893e-05
-3.5231e-05
-1.71037e-05
-3.31855e-05
-1.71037e-05
-2.03877e-05
2.89194e-05
-5.72752e-05
5.64448e-05
-9.82422e-05
6.3469e-05
-0.000138766
6.30451e-05
-0.000177212
6.00841e-05
-0.000212652
5.57493e-05
-0.000244249
5.01447e-05
-0.000271124
4.31517e-05
-0.000292333
3.46118e-05
-0.000306861
2.43705e-05
-0.000313607
1.22705e-05
-0.000311624
-1.56559e-06
-0.000299798
-1.72987e-05
-0.000277402
-3.43835e-05
-0.000244101
-5.21624e-05
-0.000200226
-6.95206e-05
-0.000147206
-8.46037e-05
-8.86056e-05
-9.38315e-05
-3.27563e-05
-8.90348e-05
-4.986e-05
-2.47374e-05
5.36568e-05
-6.81895e-05
9.98969e-05
-0.00011599
0.000111269
-0.000163035
0.000110091
-0.000207513
0.000104562
-0.000248388
9.66243e-05
-0.000284734
8.64909e-05
-0.000315594
7.40117e-05
-0.000339946
5.89638e-05
-0.000356695
4.11194e-05
-0.00036473
2.03058e-05
-0.000362756
-3.53987e-06
-0.000349597
-3.04579e-05
-0.000324303
-5.96771e-05
-0.00028632
-9.01454e-05
-0.000235805
-0.000120036
-0.000174192
-0.000146216
-0.000105475
-0.000162549
-3.93769e-05
-0.000155133
-8.92369e-05
-2.64489e-05
8.01058e-05
-7.29875e-05
0.000146435
-0.00012408
0.000162362
-0.000174354
0.000160365
-0.000221976
0.000152184
-0.000265931
0.000140578
-0.00030531
0.00012587
-0.000339168
0.00010787
-0.000366472
8.62672e-05
-0.000386073
6.07209e-05
-0.000396706
3.09389e-05
-0.000397034
-3.21283e-06
-0.000385364
-4.21273e-05
-0.000360309
-8.47318e-05
-0.000320746
-0.000129709
-0.000266314
-0.000174468
-0.000198194
-0.000214336
-0.000120714
-0.000240029
-4.5203e-05
-0.000230644
-0.00013444
-2.77599e-05
0.000107866
-7.69557e-05
0.000195631
-0.000131009
0.000216415
-0.000184301
0.000213657
-0.000235008
0.000202891
-0.000282177
0.000187747
-0.000324967
0.000168661
-0.000362487
0.00014539
-0.000393726
0.000117505
-0.000417489
8.44844e-05
-0.000432344
4.57943e-05
-0.000436747
1.19002e-06
-0.00042843
-5.04447e-05
-0.000405327
-0.000107834
-0.000365365
-0.000169672
-0.000307156
-0.000232677
-0.000231175
-0.000290317
-0.00014209
-0.000329114
-5.35906e-05
-0.000319143
-0.000188031
-2.93128e-05
0.000137178
-8.16345e-05
0.000247953
-0.0001392
0.000273981
-0.000196092
0.000270549
-0.000250507
0.000257306
-0.000301584
0.000238824
-0.000348596
0.000215672
-0.000390757
0.000187551
-0.000427133
0.000153882
-0.000456545
0.000113896
-0.000477457
6.67068e-05
-0.000487816
1.1549e-05
-0.000485119
-5.31422e-05
-0.000466029
-0.000126924
-0.000427084
-0.000208617
-0.000365192
-0.000294569
-0.000279322
-0.000376186
-0.000174123
-0.000434313
-6.66702e-05
-0.000426596
-0.000254701
-3.12448e-05
0.000168423
-8.73694e-05
0.000304077
-0.000149168
0.000335779
-0.000210355
0.000331737
-0.000269159
0.00031611
-0.000324856
0.000294521
-0.000376886
0.000267703
-0.000424652
0.000235317
-0.000467391
0.000196621
-0.000504033
0.000150538
-0.000533015
9.56882e-05
-0.000552014
3.05483e-05
-0.000557982
-4.71738e-05
-0.000546203
-0.000138703
-0.000511181
-0.000243639
-0.000447038
-0.000358712
-0.000349788
-0.000473436
-0.000222837
-0.000561264
-8.77597e-05
-0.000561674
-0.00034246
-3.35865e-05
0.00020201
-9.42429e-05
0.000364734
-0.000160997
0.000402533
-0.000227121
0.00039786
-0.000290893
0.000379882
-0.000351777
0.000355405
-0.000409466
0.000325391
-0.000463652
0.000289503
-0.000513887
0.000246855
-0.000559393
0.000196044
-0.000598793
0.000135089
-0.000629726
6.14809e-05
-0.000648717
-2.81824e-05
-0.00064955
-0.00013787
-0.000624034
-0.000269155
-0.000562016
-0.000420731
-0.000454058
-0.000581394
-0.000299333
-0.000715989
-0.000123951
-0.000737056
-0.000466412
-3.63856e-05
0.000238395
-0.000102352
0.0004307
-0.00017476
0.000474941
-0.000246355
0.000469456
-0.000315497
0.000449024
-0.000381903
0.000421812
-0.00044561
0.000389098
-0.000506739
0.000350631
-0.000565347
0.000305464
-0.000621219
0.000251916
-0.000673521
0.000187391
-0.000720226
0.000108186
-0.000758252
9.84346e-06
-0.000779747
-0.000116375
-0.000773697
-0.000275205
-0.000723958
-0.00047047
-0.000611802
-0.000693549
-0.000426242
-0.000901549
-0.000191974
-0.000971323
-0.000658386
-3.97601e-05
0.000278155
-0.000111917
0.000502857
-0.000190659
0.000553684
-0.000268123
0.00054692
-0.000342795
0.000523695
-0.000414722
0.000493739
-0.000484389
0.000458765
-0.000552495
0.000418737
-0.000619834
0.000372804
-0.000687122
0.000319203
-0.00075466
0.000254929
-0.000821718
0.000175244
-0.00088508
7.32055e-05
-0.000939089
-6.23657e-05
-0.000969394
-0.0002449
-0.000953143
-0.000486721
-0.00085789
-0.000788801
-0.000651498
-0.00110794
-0.000332761
-0.00129006
-0.000991147
-4.39593e-05
0.000322115
-0.000123391
0.000582288
-0.000209148
0.000639441
-0.000292706
0.000630477
-0.000372753
0.000603742
-0.00044976
0.000570746
-0.000524754
0.00053376
-0.000599137
0.00049312
-0.000674651
0.000448318
-0.000753318
0.000397871
-0.000837223
0.000338833
-0.000927949
0.000265971
-0.00102524
0.000170493
-0.00112674
3.9136e-05
-0.00121953
-0.000152107
-0.00127734
-0.000428913
-0.00125117
-0.000814972
-0.00106608
-0.00129303
-0.000634997
-0.00172115
-0.00162614
-4.94708e-05
0.000371586
-0.000137621
0.000670438
-0.000231092
0.000732913
-0.000320742
0.000720127
-0.000405618
0.000688618
-0.000486724
0.000651852
-0.000565699
0.000612734
-0.000644697
0.000572118
-0.000726522
0.000530143
-0.000814818
0.000486166
-0.000914235
0.000438251
-0.00103035
0.000382089
-0.00116886
0.000309002
-0.00133278
0.00020305
-0.00152386
3.8975e-05
-0.00172147
-0.000231304
-0.00186142
-0.000675023
-0.00177323
-0.00138122
-0.0011682
-0.00232617
-0.00279435
-5.7221e-05
0.000428807
-0.000156113
0.00076933
-0.000257997
0.000834797
-0.000353424
0.000815554
-0.000442078
0.000777271
-0.000525671
0.000735445
-0.000606485
0.000693548
-0.000687315
0.000652948
-0.000771854
0.000614682
-0.000865272
0.000579584
-0.000975005
0.000547984
-0.00111177
0.000518857
-0.00129063
0.000487861
-0.00153126
0.000443677
-0.00185394
0.000361658
-0.00226371
0.000178468
-0.00266058
-0.000278154
-0.0026724
-0.0013694
-0.00176458
-0.00323399
-0.00455892
-6.93771e-05
0.000498184
-0.000181952
0.000881905
-0.000292338
0.000945183
-0.000392223
0.000915439
-0.000482959
0.000868007
-0.000567018
0.000819504
-0.000646983
0.000773514
-0.000725936
0.000731901
-0.000808054
0.0006968
-0.000899466
0.000670996
-0.0010098
0.000658317
-0.0011547
0.000663761
-0.00135979
0.000692951
-0.00166317
0.000747053
-0.00210953
0.000808019
-0.0026954
0.000764339
-0.00323809
0.000264529
-0.0031973
-0.00141019
-0.00199067
-0.00444062
-0.00654959
-8.44729e-05
0.000582656
-0.000214369
0.0010118
-0.000335807
0.00106662
-0.000442039
0.00102167
-0.000533671
0.000959638
-0.000614805
0.000900639
-0.000689351
0.00084806
-0.000760776
0.000803325
-0.000832692
0.000768716
-0.000910083
0.000748387
-0.00100199
0.000750227
-0.00112479
0.000786558
-0.00130905
0.000877207
-0.00159943
0.00103744
-0.0020451
0.00125369
-0.00260394
0.00132317
-0.00307653
0.000737121
-0.00293445
-0.00155227
-0.00181999
-0.00555508
-0.00836959
-0.000148907
0.000731564
-0.000291691
0.00115459
-0.000405432
0.00118036
-0.000498651
0.00111489
-0.000581235
0.00104222
-0.000656351
0.000975756
-0.000725241
0.000916949
-0.000788418
0.000866503
-0.000846896
0.000827195
-0.000902154
0.000803644
-0.000958281
0.000806354
-0.00102333
0.000851612
-0.00111739
0.00097126
-0.00125997
0.00118002
-0.0014883
0.00148203
-0.00174011
0.00157498
-0.00196723
0.000964242
-0.00194329
-0.00157621
-0.00137032
-0.00612805
-0.00973991
-9.96838e-05
0.000831248
-0.000306762
0.00136166
-0.000465771
0.00133937
-0.000583753
0.00123287
-0.000670427
0.0011289
-0.000735192
0.00104052
-0.000784083
0.00096584
-0.000819904
0.000902323
-0.000843201
0.000850492
-0.000850916
0.000811359
-0.00083904
0.000794478
-0.000797907
0.000810479
-0.000723674
0.000897027
-0.000597165
0.00105351
-0.000433369
0.00131823
-0.00027924
0.00142085
-0.000224774
0.000909776
-0.000445739
-0.00135524
-0.000449412
-0.00612438
-0.0101893
-0.000389508
0.00122076
-0.000489941
0.0014621
-0.000587588
0.00143702
-0.000677657
0.00132294
-0.000724578
0.00117582
-0.000736702
0.00105264
-0.000722751
0.00095189
-0.000685785
0.000865357
-0.000631002
0.000795709
-0.000553103
0.000733461
-0.000450849
0.000692223
-0.000305125
0.000664755
-9.29574e-05
0.000684859
0.000214225
0.000746327
0.000664598
0.000867859
0.00117876
0.000906694
0.00169165
0.00039688
0.00157082
-0.00123441
0.000877856
-0.00543141
-0.00931146
-0.00133822
0.00255898
-0.00129428
0.00141816
-0.00105095
0.00119368
-0.000701626
0.00097362
-0.000330716
0.000804905
4.00262e-05
0.000681902
0.00039746
0.000594456
0.000736031
0.000526787
0.00105793
0.000473807
0.00136294
0.000428454
0.00165924
0.00039592
0.00195563
0.000368362
0.00228236
0.000358132
0.00266715
0.00036154
0.0031989
0.000336102
0.00383525
0.000270346
0.00439073
-0.000158602
0.00433584
-0.00117952
0.00269151
-0.00378708
-0.00661995
0.00255898
0.00397714
0.00517082
0.00614444
0.00694934
0.00763125
0.0082257
0.00875249
0.0092263
0.00965475
0.0100507
0.010419
0.0107772
0.0111387
0.0114748
0.0117452
0.0115866
0.010407
0.00661995
)
;

boundaryField
{
    movingWall
    {
        type            calculated;
        value           uniform 0;
    }
    fixedWalls
    {
        type            calculated;
        value           uniform 0;
    }
    frontAndBack
    {
        type            empty;
        value           nonuniform List<scalar> 0();
    }
}


// ************************************************************************* //
