/*--------------------------------*- C++ -*----------------------------------*\
  =========                 |
  \\      /  F ield         | OpenFOAM: The Open Source CFD Toolbox
   \\    /   O peration     | Website:  https://openfoam.org
    \\  /    A nd           | Version:  10
     \\/     M anipulation  |
\*---------------------------------------------------------------------------*/
FoamFile
{
    format      ascii;
    class       volVectorField;
    location    "4.725";
    object      U;
}
// * * * * * * * * * * * * * * * * * * * * * * * * * * * * * * * * * * * * * //

dimensions      [0 1 -1 0 0 0 0];

internalField   nonuniform List<vector> 
400
(
(-9.29192e-05 8.77775e-05 0)
(-0.000799331 0.000309228 0)
(-0.00197503 0.000372187 0)
(-0.00310191 0.000377975 0)
(-0.00421086 0.000369032 0)
(-0.00526462 0.000354362 0)
(-0.00624055 0.000333295 0)
(-0.00711589 0.000303326 0)
(-0.00786302 0.000261796 0)
(-0.00844969 0.000206158 0)
(-0.00883962 0.000134343 0)
(-0.00899388 4.57002e-05 0)
(-0.00887249 -6.17173e-05 0)
(-0.00843932 -0.000184907 0)
(-0.00766879 -0.000318541 0)
(-0.00655117 -0.000453501 0)
(-0.00510816 -0.000573869 0)
(-0.00343156 -0.000649569 0)
(-0.00153055 -0.000607337 0)
(-0.000253926 -0.000272888 0)
(-0.000331078 0.000805828 0)
(-0.00176871 0.00170825 0)
(-0.00390323 0.00194629 0)
(-0.00594799 0.0019425 0)
(-0.00793254 0.00186038 0)
(-0.00978988 0.00173785 0)
(-0.0114746 0.00157692 0)
(-0.012945 0.00137223 0)
(-0.0141559 0.00111731 0)
(-0.015058 0.000806013 0)
(-0.0155983 0.000433339 0)
(-0.0157253 -4.13975e-06 0)
(-0.0153862 -0.000502082 0)
(-0.0145338 -0.0010482 0)
(-0.0131401 -0.00162011 0)
(-0.0112002 -0.0021811 0)
(-0.00875835 -0.00266967 0)
(-0.00595221 -0.00296799 0)
(-0.00281138 -0.00280338 0)
(-0.000569115 -0.00150366 0)
(-0.000415555 0.00205305 0)
(-0.0021288 0.00388438 0)
(-0.00462493 0.00434293 0)
(-0.00700427 0.00430422 0)
(-0.0093044 0.0040931 0)
(-0.01145 0.00378696 0)
(-0.0133905 0.00339388 0)
(-0.0150803 0.0029073 0)
(-0.0164702 0.00231796 0)
(-0.0175073 0.00161669 0)
(-0.0181366 0.000796408 0)
(-0.0182972 -0.000146022 0)
(-0.0179264 -0.00120299 0)
(-0.0169696 -0.00235012 0)
(-0.0153876 -0.0035426 0)
(-0.0131647 -0.00470623 0)
(-0.0103398 -0.00571799 0)
(-0.00706447 -0.00633997 0)
(-0.00336683 -0.00603142 0)
(-0.000694591 -0.00343709 0)
(-0.000442506 0.00333 0)
(-0.00227786 0.00613125 0)
(-0.00494998 0.00681092 0)
(-0.00749134 0.00673173 0)
(-0.00995124 0.00638943 0)
(-0.0122527 0.00590102 0)
(-0.0143462 0.00527977 0)
(-0.0161869 0.00451719 0)
(-0.0177259 0.0036001 0)
(-0.0189087 0.00251446 0)
(-0.0196756 0.00124884 0)
(-0.0199612 -0.000200337 0)
(-0.0196886 -0.00183006 0)
(-0.0187794 -0.00360831 0)
(-0.0171687 -0.00547269 0)
(-0.0148121 -0.00731253 0)
(-0.0117257 -0.00893546 0)
(-0.00806851 -0.00996128 0)
(-0.00386509 -0.00953683 0)
(-0.000798513 -0.00552948 0)
(-0.000459816 0.00468237 0)
(-0.00239575 0.00851834 0)
(-0.00522396 0.00943219 0)
(-0.00791359 0.00931334 0)
(-0.0105262 0.0088401 0)
(-0.012985 0.00817131 0)
(-0.0152438 0.00732562 0)
(-0.0172614 0.00629216 0)
(-0.0189906 0.00505244 0)
(-0.0203767 0.003585 0)
(-0.0213548 0.00186913 0)
(-0.0218513 -0.000109631 0)
(-0.0217698 -0.00234837 0)
(-0.0210006 -0.00482357 0)
(-0.0194378 -0.0074607 0)
(-0.0169851 -0.0101139 0)
(-0.013609 -0.0125086 0)
(-0.00946474 -0.0140813 0)
(-0.0045763 -0.0135868 0)
(-0.000953081 -0.00796675 0)
(-0.000480696 0.00610586 0)
(-0.00253484 0.0110497 0)
(-0.00554715 0.0122155 0)
(-0.00841335 0.012061 0)
(-0.0112087 0.0114613 0)
(-0.0138574 0.0106204 0)
(-0.0163188 0.00956286 0)
(-0.0185575 0.00827506 0)
(-0.0205312 0.0067316 0)
(-0.0221877 0.00490021 0)
(-0.0234605 0.00274518 0)
(-0.0242612 0.00023363 0)
(-0.0244762 -0.00264898 0)
(-0.0239586 -0.00589905 0)
(-0.0225361 -0.00944368 0)
(-0.0200329 -0.0131077 0)
(-0.0163246 -0.0165207 0)
(-0.0115312 -0.0188793 0)
(-0.00566911 -0.0184114 0)
(-0.00120678 -0.0109187 0)
(-0.000507578 0.00761529 0)
(-0.00270675 0.0137526 0)
(-0.00594188 0.015191 0)
(-0.00901969 0.015005 0)
(-0.0120319 0.0142843 0)
(-0.0149049 0.0132824 0)
(-0.017606 0.0120311 0)
(-0.0201093 0.0105141 0)
(-0.0223816 0.00869784 0)
(-0.0243783 0.00653589 0)
(-0.026035 0.003971 0)
(-0.0272572 0.00094189 0)
(-0.0279132 -0.00260651 0)
(-0.0278095 -0.00670795 0)
(-0.0266899 -0.0113207 0)
(-0.0242571 -0.0162629 0)
(-0.0202299 -0.0210624 0)
(-0.0146146 -0.0246042 0)
(-0.00739384 -0.024362 0)
(-0.00164415 -0.0146806 0)
(-0.000540776 0.00923102 0)
(-0.00291437 0.0166632 0)
(-0.00641318 0.018396 0)
(-0.00973605 0.0181802 0)
(-0.0129954 0.0173421 0)
(-0.0161206 0.0161908 0)
(-0.0190907 0.0147676 0)
(-0.0218937 0.013055 0)
(-0.0245121 0.0110113 0)
(-0.0269169 0.00857356 0)
(-0.0290563 0.00565659 0)
(-0.03084 0.00215662 0)
(-0.0321281 -0.00203975 0)
(-0.0326825 -0.00704611 0)
(-0.0321465 -0.0128964 0)
(-0.0300516 -0.0194553 0)
(-0.0258632 -0.0261729 0)
(-0.019308 -0.0315463 0)
(-0.0102615 -0.0319496 0)
(-0.00246176 -0.0197722 0)
(-0.000581246 0.0109746 0)
(-0.00316163 0.0198192 0)
(-0.00696633 0.0218663 0)
(-0.0105641 0.0216164 0)
(-0.0140934 0.0206599 0)
(-0.0174884 0.0193689 0)
(-0.0207436 0.0177984 0)
(-0.0238668 0.0159323 0)
(-0.0268641 0.0137236 0)
(-0.0297339 0.0110931 0)
(-0.0324527 0.00792363 0)
(-0.0349542 0.00405526 0)
(-0.0371181 -0.000715038 0)
(-0.0386812 -0.00659704 0)
(-0.0391854 -0.0138086 0)
(-0.0379536 -0.0223626 0)
(-0.0340747 -0.0317252 0)
(-0.0267118 -0.0399653 0)
(-0.0154269 -0.0419253 0)
(-0.00415012 -0.0272073 0)
(-0.000631874 0.0128712 0)
(-0.00345776 0.0232615 0)
(-0.00761358 0.0256365 0)
(-0.0115117 0.0253374 0)
(-0.0153242 0.0242522 0)
(-0.0189918 0.0228259 0)
(-0.0225291 0.0211319 0)
(-0.0259698 0.0191614 0)
(-0.0293527 0.0168676 0)
(-0.0327183 0.0141611 0)
(-0.0360957 0.0108969 0)
(-0.039481 0.00685626 0)
(-0.0427863 0.00173084 0)
(-0.0458056 -0.00486036 0)
(-0.048063 -0.0134168 0)
(-0.0486598 -0.0242768 0)
(-0.0462167 -0.0371596 0)
(-0.0389508 -0.0498278 0)
(-0.0255466 -0.0552982 0)
(-0.00794665 -0.0391688 0)
(-0.000699198 0.0149547 0)
(-0.0038217 0.0270386 0)
(-0.00838016 0.0297404 0)
(-0.0125988 0.0293592 0)
(-0.0166952 0.0281201 0)
(-0.0206192 0.0265515 0)
(-0.0244102 0.024752 0)
(-0.0281327 0.0227271 0)
(-0.0318664 0.0204404 0)
(-0.0357069 0.017806 0)
(-0.0397607 0.0146673 0)
(-0.0441259 0.0107609 0)
(-0.0488506 0.00567014 0)
(-0.0538956 -0.0012314 0)
(-0.0589056 -0.0107347 0)
(-0.0629742 -0.0238222 0)
(-0.0643419 -0.0408878 0)
(-0.0598629 -0.0600146 0)
(-0.0459226 -0.0731001 0)
(-0.0165571 -0.0603279 0)
(-0.000796824 0.0172768 0)
(-0.00428957 0.031213 0)
(-0.0093128 0.0342138 0)
(-0.0138651 0.0336888 0)
(-0.0182301 0.032247 0)
(-0.0223709 0.0305113 0)
(-0.0263561 0.0286104 0)
(-0.0302835 0.0265723 0)
(-0.0342763 0.0243847 0)
(-0.0384948 0.0219886 0)
(-0.0431465 0.0192518 0)
(-0.0484912 0.0159167 0)
(-0.0548196 0.0115137 0)
(-0.0623738 0.00523995 0)
(-0.0713343 -0.00410988 0)
(-0.0813793 -0.0182459 0)
(-0.090752 -0.0391703 0)
(-0.0942624 -0.0672269 0)
(-0.0822054 -0.0966653 0)
(-0.0318569 -0.100437 0)
(-0.00095264 0.0199168 0)
(-0.00492784 0.0358528 0)
(-0.0104926 0.0390642 0)
(-0.0153805 0.0382928 0)
(-0.0199776 0.0365795 0)
(-0.0242671 0.0346375 0)
(-0.0283518 0.0326214 0)
(-0.0323607 0.0305884 0)
(-0.0364524 0.0285673 0)
(-0.0408425 0.0265554 0)
(-0.0458373 0.024496 0)
(-0.0518799 0.0222253 0)
(-0.0596029 0.0193657 0)
(-0.0698656 0.0151371 0)
(-0.0837872 0.00811458 0)
(-0.102627 -0.0041619 0)
(-0.124946 -0.0264894 0)
(-0.140336 -0.0674141 0)
(-0.126771 -0.130705 0)
(-0.0443064 -0.173373 0)
(-0.00123149 0.0230566 0)
(-0.00588844 0.0412518 0)
(-0.0120697 0.044594 0)
(-0.017244 0.0434472 0)
(-0.0219947 0.0412841 0)
(-0.0263399 0.0389714 0)
(-0.0304073 0.036725 0)
(-0.0343391 0.0346412 0)
(-0.0383106 0.0327949 0)
(-0.0425674 0.0312664 0)
(-0.0474808 0.0301495 0)
(-0.0536452 0.0295171 0)
(-0.0620353 0.0293387 0)
(-0.0741902 0.029272 0)
(-0.092489 0.0282053 0)
(-0.119544 0.0222017 0)
(-0.152861 -0.000431667 0)
(-0.172726 -0.0675301 0)
(-0.149491 -0.189691 0)
(-0.0411983 -0.27893 0)
(-0.0016273 0.0269757 0)
(-0.00704542 0.0465142 0)
(-0.0140812 0.0493891 0)
(-0.0196279 0.0474671 0)
(-0.0245532 0.0449242 0)
(-0.0288301 0.0424796 0)
(-0.032678 0.040235 0)
(-0.0362824 0.0382426 0)
(-0.0398087 0.036609 0)
(-0.043452 0.0355157 0)
(-0.0475253 0.0352619 0)
(-0.0525975 0.0362936 0)
(-0.0597218 0.0392119 0)
(-0.0706886 0.0444174 0)
(-0.0885309 0.0512085 0)
(-0.115907 0.0522656 0)
(-0.149883 0.0251942 0)
(-0.161791 -0.0776562 0)
(-0.136329 -0.26066 0)
(-0.0350156 -0.383644 0)
(-0.0036387 0.0306358 0)
(-0.0111723 0.0556106 0)
(-0.0177251 0.0582802 0)
(-0.022807 0.0559012 0)
(-0.0271414 0.052159 0)
(-0.0310657 0.0485396 0)
(-0.0346386 0.0453244 0)
(-0.037906 0.0426379 0)
(-0.0409007 0.0406102 0)
(-0.0436741 0.0394675 0)
(-0.0463289 0.0396693 0)
(-0.0491018 0.0420199 0)
(-0.0526476 0.0478768 0)
(-0.0578178 0.0581855 0)
(-0.066707 0.0723373 0)
(-0.079811 0.0769167 0)
(-0.100364 0.0451331 0)
(-0.101327 -0.0836049 0)
(-0.0993547 -0.306887 0)
(-0.0258079 -0.469838 0)
(-0.00131386 0.0447249 0)
(-0.00915699 0.0582927 0)
(-0.0207113 0.0580806 0)
(-0.0263855 0.053471 0)
(-0.0316815 0.0500707 0)
(-0.0353668 0.0472803 0)
(-0.0381541 0.0448965 0)
(-0.0402369 0.0427983 0)
(-0.0416924 0.0411115 0)
(-0.0424532 0.040042 0)
(-0.0423436 0.0401815 0)
(-0.040957 0.0423046 0)
(-0.0382069 0.048263 0)
(-0.0326386 0.0584941 0)
(-0.0265874 0.0737504 0)
(-0.0145066 0.0787269 0)
(-0.016586 0.0482 0)
(-0.00784157 -0.0790684 0)
(-0.0415938 -0.319233 0)
(0.00543653 -0.519803 0)
(-0.0119521 0.0341953 0)
(-0.0249877 0.080553 0)
(-0.0254407 0.0785548 0)
(-0.0326458 0.0732211 0)
(-0.0356488 0.0659437 0)
(-0.037052 0.0594972 0)
(-0.0368413 0.0539627 0)
(-0.035464 0.0493036 0)
(-0.0331302 0.0454642 0)
(-0.0297318 0.0423536 0)
(-0.0254072 0.0403349 0)
(-0.0190528 0.0397387 0)
(-0.0112773 0.0424578 0)
(0.00265298 0.0483132 0)
(0.0186461 0.0602918 0)
(0.0494956 0.0657365 0)
(0.0629204 0.0465886 0)
(0.100755 -0.0523255 0)
(0.046226 -0.29512 0)
(0.0558739 -0.511359 0)
(-0.0763689 0.0978576 0)
(-0.0619117 0.0608257 0)
(-0.063782 0.0604169 0)
(-0.0430845 0.0537403 0)
(-0.0261686 0.0468364 0)
(-0.00700103 0.0415881 0)
(0.011035 0.0377039 0)
(0.028676 0.0342643 0)
(0.0448255 0.0316154 0)
(0.0611453 0.0288917 0)
(0.0751905 0.0271538 0)
(0.0918643 0.0254202 0)
(0.103527 0.0251281 0)
(0.127411 0.0260595 0)
(0.137252 0.0253456 0)
(0.184627 0.0225414 0)
(0.187727 -0.00990308 0)
(0.241898 -0.0779154 0)
(0.172808 -0.26734 0)
(0.126799 -0.447166 0)
(0.120098 0.140323 0)
(0.152759 0.0860985 0)
(0.230769 0.0637353 0)
(0.285954 0.0484964 0)
(0.327979 0.0379352 0)
(0.366343 0.0302787 0)
(0.395777 0.0248365 0)
(0.427205 0.0210533 0)
(0.447346 0.0180109 0)
(0.476454 0.0159018 0)
(0.488195 0.0140966 0)
(0.518821 0.0127718 0)
(0.522191 0.0118293 0)
(0.556892 0.0110929 0)
(0.551452 0.0100314 0)
(0.588952 0.00728886 0)
(0.56415 -0.00247409 0)
(0.575426 -0.0261541 0)
(0.440356 -0.0763685 0)
(0.278622 -0.157473 0)
)
;

boundaryField
{
    movingWall
    {
        type            fixedValue;
        value           uniform (1 0 0);
    }
    fixedWalls
    {
        type            noSlip;
    }
    frontAndBack
    {
        type            empty;
    }
}


// ************************************************************************* //
