/*--------------------------------*- C++ -*----------------------------------*\
  =========                 |
  \\      /  F ield         | OpenFOAM: The Open Source CFD Toolbox
   \\    /   O peration     | Website:  https://openfoam.org
    \\  /    A nd           | Version:  10
     \\/     M anipulation  |
\*---------------------------------------------------------------------------*/
FoamFile
{
    format      ascii;
    class       surfaceScalarField;
    location    "4.325";
    object      phi;
}
// * * * * * * * * * * * * * * * * * * * * * * * * * * * * * * * * * * * * * //

dimensions      [0 3 -1 0 0 0 0];

internalField   nonuniform List<scalar> 
890
(
0.00984272
0.000157277
0.00971768
0.000125046
0.00947051
0.000247172
0.00942073
4.97773e-05
0.000150434
0.00927029
0.010122
3.52461e-05
0.0101979
4.91843e-05
0.0104133
3.17762e-05
0.0104617
1.36147e-06
-6.39014e-05
0.010676
0.0100721
-3.68536e-05
0.0102166
-9.52992e-05
0.0103772
-0.000128811
0.0105205
-0.000141938
-0.00018924
0.0106458
0.01009
-0.00012682
0.0102161
-0.000221388
0.0103264
-0.000239182
0.010417
-0.000232477
-0.000258385
0.0104861
0.00987318
0.00965179
0.00941261
0.00918013
0.00892175
0.00928241
-0.000121682
0.000109563
0.00929633
-0.000252027
0.00023811
0.00942009
-0.000369945
0.000246188
0.00964814
-0.000484764
0.000256707
0.00989767
-0.000613666
0.000364138
0.0101737
-0.000914972
0.000638982
0.0104382
-0.00124138
0.000976838
0.0106483
-0.00160378
0.00139371
0.0107963
-0.00205508
0.00190702
0.0108674
-0.0024431
0.002372
0.0108492
-0.00278838
0.00280655
0.0107281
-0.00301313
0.00313425
0.0104692
-0.00298927
0.00324816
0.0100938
-0.00289901
0.00327442
0.00965196
-0.00266075
0.00310263
0.00912714
-0.00215783
0.00268265
0.00854521
-0.00164631
0.00222824
0.00794476
-0.00109769
0.00169814
0.00728698
-0.000370909
0.00102869
0.00659691
0.000279264
0.000410812
0.00598473
0.000619809
-7.63596e-06
0.00558212
0.000689352
-0.000286739
0.00542613
0.000700285
-0.000544296
0.00546232
0.000756969
-0.000793159
0.00559896
0.000828375
-0.000965019
0.00575616
0.000850643
-0.00100783
0.00588734
0.000798903
-0.00093009
0.00597771
0.000688507
-0.000778871
0.00603156
0.000550312
-0.000604169
0.00606005
0.000411902
-0.000440386
0.00607371
0.00029066
-0.000304324
0.00607989
0.000194067
-0.000200241
0.00608273
0.000122629
-0.000125476
0.00608424
7.30354e-05
-7.4538e-05
0.00608519
4.05045e-05
-4.14629e-05
0.00608588
2.03018e-05
-2.09896e-05
0.0060864
8.4473e-06
-8.97062e-06
0.00608683
1.9273e-06
-2.35048e-06
0.00608706
-1.23332e-06
1.00433e-06
0.00608713
-2.56137e-06
2.48993e-06
0.00608713
-2.80947e-06
2.80607e-06
0.00608709
-2.65998e-06
2.70307e-06
0.00608703
-2.13325e-06
2.19152e-06
0.00608697
-1.82749e-06
1.89215e-06
-1.13075e-06
1.17062e-06
0.0107481
-0.000193781
0.0107797
-0.000283558
0.0108378
-0.000428067
0.0109339
-0.000580828
0.0110347
-0.000714548
0.011075
-0.000955238
0.0110586
-0.00122499
0.0110022
-0.00154736
0.0108256
-0.00187843
0.0105797
-0.00219721
0.0102739
-0.00248266
0.00985995
-0.00259913
0.00935512
-0.00248445
0.00874243
-0.00228632
0.00806061
-0.00197893
0.00735694
-0.00145416
0.00661073
-0.000900106
0.00586185
-0.000348801
0.00518442
0.000306521
0.00463912
0.000824561
0.00429661
0.000962324
0.00416218
0.000823784
0.00420963
0.000652827
0.00439459
0.000572013
0.0046596
0.000563362
0.00494687
0.000563373
0.00521415
0.000531624
0.00543951
0.000463148
0.0056171
0.000372723
0.00575037
0.000278631
0.00584664
0.000194388
0.00591398
0.000126729
0.00595972
7.68929e-05
0.00598993
4.28291e-05
0.00600933
2.11039e-05
0.00602141
8.21836e-06
0.00602862
1.23293e-06
0.00603283
-2.28119e-06
0.00603518
-3.58295e-06
0.00603639
-3.77244e-06
0.00603695
-3.36651e-06
0.00603714
-2.85059e-06
0.00603716
-2.14984e-06
0.00603708
-1.75069e-06
-1.04915e-06
0.0107242
-0.000272168
0.0107819
-0.000341225
0.0108108
-0.000456967
0.010807
-0.00057708
0.0108075
-0.000715022
0.0107208
-0.000868509
0.0105827
-0.00108698
0.0103905
-0.0013551
0.0101026
-0.00159054
0.00980571
-0.00190033
0.00937929
-0.00205623
0.00876752
-0.00198737
0.00812285
-0.00183978
0.00737191
-0.00153538
0.00650823
-0.00111525
0.00570388
-0.000649809
0.0049941
-0.000190329
0.00441813
0.00022717
0.00408968
0.000634965
0.00402502
0.000889221
0.00411043
0.000876912
0.00422475
0.000709464
0.00433593
0.00054165
0.00446652
0.000441423
0.00463557
0.000394314
0.00483528
0.000363664
0.0050423
0.000324606
0.00523395
0.000271492
0.0053961
0.000210575
0.00552363
0.000151105
0.00561793
0.000100089
0.00568394
6.07116e-05
0.00572783
3.30092e-05
0.00575554
1.51159e-05
0.00577214
4.50749e-06
0.00578148
-1.12883e-06
0.00578634
-3.62566e-06
0.00578846
-4.39775e-06
0.00578911
-4.22983e-06
0.005789
-3.66519e-06
0.00578857
-2.94187e-06
0.00578803
-2.31184e-06
0.00578755
-1.66494e-06
0.0057871
-1.29913e-06
-7.61067e-07
0.0104987
-0.000284807
0.0104943
-0.000336755
0.0104239
-0.000386614
0.0102876
-0.000440741
0.0101103
-0.000537699
0.00983464
-0.000592888
0.00948538
-0.00073771
0.00900213
-0.000871853
0.00841248
-0.00100089
0.00779721
-0.00128506
0.00704213
-0.00130115
0.00600901
-0.000954247
0.00475804
-0.000588803
0.00351549
-0.000292834
0.002511
-0.00011076
0.00187609
-1.49006e-05
0.00159172
9.40426e-05
0.00158545
0.000233443
0.00184192
0.000378487
0.0022795
0.000451644
0.00272844
0.000427969
0.00309316
0.000344752
0.003372
0.000262801
0.00360581
0.000207619
0.00382614
0.00017398
0.00404111
0.000148694
0.00424255
0.000123171
0.00441843
9.56064e-05
0.00456073
6.82784e-05
0.00466756
4.42702e-05
0.00474223
2.54234e-05
0.00479087
1.20684e-05
0.00482028
3.59674e-06
0.00483651
-1.10488e-06
0.00484426
-3.25121e-06
0.00484709
-3.94982e-06
0.00484728
-3.82388e-06
0.00484622
-3.33367e-06
0.00484471
-2.7223e-06
0.00484317
-2.12697e-06
0.00484182
-1.59191e-06
0.00484069
-1.17613e-06
0.00483984
-8.15382e-07
0.00483914
-6.03802e-07
-3.38065e-07
0.00863694
0.00830019
0.00791357
0.00747283
0.00693513
0.00634224
0.00560453
0.00473268
0.00373179
0.00244673
0.00114558
0.000191333
-0.00039747
-0.000690304
-0.000801064
-0.000815964
-0.000721922
-0.000488479
-0.000109991
0.000341653
0.000769622
0.00111437
0.00137717
0.00158479
0.00175877
0.00190747
0.00203064
0.00212625
0.00219452
0.00223879
0.00226422
0.00227629
0.00227988
0.00227878
0.00227553
0.00227158
0.00226775
0.00226442
0.0022617
0.00225957
0.00225798
0.0022568
0.00225599
0.00225538
-1.81142e-05
1.81142e-05
-0.000208192
0.000190078
-0.000773488
0.000565296
-0.0016806
0.000907111
-0.00266916
0.000988566
-0.0035195
0.000850333
-0.00413728
0.000617784
-0.00448562
0.000348339
-0.00453314
4.75218e-05
-0.00431099
-0.000222152
-0.00383497
-0.000476018
-0.00313557
-0.000699407
-0.00226797
-0.000867597
-0.00128888
-0.000979094
-0.000259964
-0.00102891
0.000774723
-0.00103469
0.00176012
-0.000985395
0.00262129
-0.000861169
0.00328484
-0.000663558
0.00369674
-0.000411896
0.00382058
-0.000123835
0.00368778
0.0001328
0.00338895
0.000298823
0.00304142
0.000347536
0.00273404
0.00030738
0.00250502
0.000229018
0.00235506
0.000149958
0.00226785
8.7209e-05
0.00222372
4.41333e-05
0.00220601
1.77095e-05
0.00220293
3.07749e-06
0.00220703
-4.10197e-06
0.00221401
-6.97459e-06
0.00222155
-7.54508e-06
0.00222853
-6.97987e-06
0.00223452
-5.98512e-06
0.00223942
-4.89838e-06
0.00224329
-3.87822e-06
0.00224628
-2.98159e-06
0.00224852
-2.24403e-06
0.00225016
-1.64213e-06
0.00225136
-1.19633e-06
0.00225218
-8.22022e-07
0.00225279
-6.05676e-07
-3.38967e-07
-0.000393309
0.000411423
-0.00103992
0.000836691
-0.001686
0.00121137
-0.00221453
0.00143564
-0.00263965
0.00141369
-0.00292136
0.00113205
-0.00303443
0.000730849
-0.00296278
0.000276694
-0.00271549
-0.000199773
-0.00227703
-0.000660609
-0.00164564
-0.00110741
-0.000851472
-0.00149357
6.01561e-05
-0.00177922
0.00101761
-0.00193655
0.00198324
-0.00199454
0.00292839
-0.00197984
0.00381781
-0.00187482
0.00458753
-0.00163088
0.0052133
-0.00128933
0.00572071
-0.0009193
0.00611037
-0.0005135
0.00631713
-7.39548e-05
0.00629565
0.000320302
0.00609452
0.000548662
0.00580684
0.000595059
0.00551956
0.000516301
0.00528189
0.00038763
0.00510754
0.000261552
0.00498983
0.000161852
0.00491507
9.24632e-05
0.00487001
4.81441e-05
0.00484437
2.15316e-05
0.00483099
6.40828e-06
0.00482505
-1.60526e-06
0.00482329
-5.22449e-06
0.00482383
-6.52387e-06
0.00482547
-6.53642e-06
0.00482749
-5.89247e-06
0.00482947
-4.964e-06
0.00483124
-4.01551e-06
0.0048327
-3.10496e-06
0.00483389
-2.38651e-06
0.00483477
-1.69714e-06
0.00483548
-1.31376e-06
-7.66878e-07
-0.000435728
0.000847152
-0.000508478
0.00090944
-0.000440865
0.00114376
-0.000316618
0.00131139
-0.000137019
0.00123409
9.10069e-05
0.000904023
0.000361242
0.000460614
0.000687905
-4.99687e-05
0.00114063
-0.0006525
0.00170105
-0.00122103
0.00234676
-0.00175312
0.00304207
-0.00218889
0.00375878
-0.00249594
0.00449497
-0.00267274
0.00517776
-0.00267733
0.00575784
-0.00255992
0.00625365
-0.00237062
0.00663978
-0.00201701
0.00687055
-0.0015201
0.00699604
-0.0010448
0.00710961
-0.000627066
0.00722346
-0.000187802
0.0072598
0.000283958
0.00716658
0.000641882
0.00696434
0.0007973
0.00671296
0.000767683
0.00646828
0.000632303
0.00626264
0.0004672
0.00610534
0.000319151
0.00599229
0.000205514
0.00591445
0.000125982
0.00586255
7.34273e-05
0.00582894
4.00217e-05
0.00580784
1.94978e-05
0.00579521
7.40055e-06
0.00578797
7.19512e-07
0.00578427
-2.83663e-06
0.00578264
-4.26412e-06
0.00578217
-4.4921e-06
0.00578232
-4.16273e-06
0.00578273
-3.51442e-06
0.00578323
-2.89572e-06
0.00578369
-2.15561e-06
0.00578412
-1.7439e-06
-1.04448e-06
-5.10104e-05
0.000898162
0.000341321
0.000517109
0.000876582
0.000608496
0.00150392
0.00068406
0.00216875
0.000569258
0.00281988
0.00025289
0.00343929
-0.000158796
0.00405773
-0.000668408
0.0046563
-0.00125107
0.00524264
-0.00180737
0.00583012
-0.0023406
0.00639906
-0.00275783
0.00690237
-0.00299925
0.00736796
-0.00313833
0.00776828
-0.00307765
0.00802464
-0.00281628
0.00815546
-0.00250144
0.00820056
-0.00206211
0.00813361
-0.00145315
0.00795024
-0.000861432
0.00773918
-0.000416003
0.00759382
-4.24461e-05
0.00750826
0.000369522
0.00742204
0.000728103
0.00728174
0.000937594
0.00708515
0.000964273
0.00686373
0.000853726
0.00665205
0.000678883
0.00647233
0.000498871
0.00633235
0.000345495
0.00623009
0.000228243
0.00615897
0.000144542
0.00611143
8.75594e-05
0.00608071
5.02165e-05
0.00606148
2.66309e-05
0.00604988
1.23207e-05
0.006043
4.05126e-06
0.00603912
-3.84781e-07
0.00603701
-2.38292e-06
0.00603598
-3.1311e-06
0.00603554
-3.07981e-06
0.00603543
-2.78493e-06
0.00603546
-2.18911e-06
0.00603557
-1.85295e-06
-1.13979e-06
0.00100772
0.00176294
0.00261763
0.00355839
0.00449179
0.00538366
0.0062017
0.00692701
0.00758295
0.00814759
0.00861354
0.00898996
0.00923888
0.00937498
0.00939996
0.00926633
0.00899312
0.00862915
0.00820468
0.00775406
0.00733042
0.00700124
0.00682647
0.00676141
0.00673398
0.00669042
0.00661406
0.00651407
0.00640877
0.00631388
0.0062378
0.0061821
0.00614418
0.00611986
0.00610503
0.00609636
0.00609144
0.00608871
0.00608733
0.00608669
0.00608641
0.00608633
0.00608633
0.00608637
)
;

boundaryField
{
    inlet
    {
        type            calculated;
        value           nonuniform List<scalar> 5(-0.01 -0.01 -0.01 -0.01 -0.01);
    }
    outlet
    {
        type            calculated;
        value           nonuniform List<scalar> 10(0.00608693 0.006037 0.00578681 0.00483872 0.00225504 0.00225312 0.0048359 0.0057844 0.00603567 0.0060864);
    }
    upperWall
    {
        type            calculated;
        value           uniform 0;
    }
    lowerWall
    {
        type            calculated;
        value           uniform 0;
    }
    frontAndBack
    {
        type            empty;
        value           nonuniform List<scalar> 0();
    }
}


// ************************************************************************* //
