/*--------------------------------*- C++ -*----------------------------------*\
  =========                 |
  \\      /  F ield         | OpenFOAM: The Open Source CFD Toolbox
   \\    /   O peration     | Website:  https://openfoam.org
    \\  /    A nd           | Version:  10
     \\/     M anipulation  |
\*---------------------------------------------------------------------------*/
FoamFile
{
    format      ascii;
    class       volVectorField;
    location    "6.5";
    object      U;
}
// * * * * * * * * * * * * * * * * * * * * * * * * * * * * * * * * * * * * * //

dimensions      [0 1 -1 0 0 0 0];

internalField   nonuniform List<vector> 
8000
(
(-6.06367e-05 7.95097e-05 -2.63202e-05)
(-0.000455622 0.000178421 1.04476e-05)
(-0.00111371 0.000209507 2.61043e-05)
(-0.00178187 0.000220602 3.33929e-05)
(-0.00247427 0.000227848 3.36249e-05)
(-0.00316764 0.000235426 2.956e-05)
(-0.00385041 0.000242346 2.22878e-05)
(-0.00450933 0.000245626 1.06191e-05)
(-0.00512476 0.000242798 -5.06386e-06)
(-0.00566849 0.000230734 -2.52889e-05)
(-0.00610461 0.000206153 -5.06433e-05)
(-0.00638973 0.000166293 -8.14438e-05)
(-0.0064753 0.000109888 -0.000117329)
(-0.00631071 3.60525e-05 -0.000156969)
(-0.00585269 -5.43403e-05 -0.000198135)
(-0.0050779 -0.000152491 -0.00023607)
(-0.00399861 -0.00024417 -0.000262155)
(-0.00270884 -0.000305949 -0.000264395)
(-0.00124561 -0.000301726 -0.000233805)
(-0.000230271 -0.000140847 -0.000116792)
(-0.000154859 0.000548468 -9.30866e-05)
(-0.000863794 0.000978585 -6.82733e-05)
(-0.00195661 0.00111405 -5.45584e-05)
(-0.00306095 0.00115303 -4.42735e-05)
(-0.00419206 0.00116234 -3.98383e-05)
(-0.00531075 0.00116019 -3.91283e-05)
(-0.00639533 0.00114544 -4.121e-05)
(-0.00742189 0.00111025 -4.65818e-05)
(-0.00835865 0.00104571 -5.59652e-05)
(-0.00916415 0.000941392 -7.03337e-05)
(-0.00978642 0.000786572 -9.07187e-05)
(-0.0101633 0.000571665 -0.000117924)
(-0.0102282 0.000290354 -0.000151872)
(-0.00991407 -5.48032e-05 -0.000193662)
(-0.0091602 -0.000449715 -0.000236791)
(-0.00793346 -0.000862619 -0.000276596)
(-0.00625639 -0.0012381 -0.000302114)
(-0.00426426 -0.00148509 -0.000298854)
(-0.00201647 -0.00146141 -0.000255458)
(-0.000408011 -0.000822788 -9.86607e-05)
(-0.000184434 0.00133361 -0.000128472)
(-0.00100722 0.0022367 -0.000109727)
(-0.00226068 0.00251581 -9.69557e-05)
(-0.00351911 0.00258395 -8.48959e-05)
(-0.00480341 0.0025805 -7.78265e-05)
(-0.00607041 0.00254364 -7.39947e-05)
(-0.00729731 0.00247378 -7.26521e-05)
(-0.00845911 0.00235897 -7.44252e-05)
(-0.0095224 0.00218268 -8.0441e-05)
(-0.0104435 0.00192586 -9.21137e-05)
(-0.011167 0.00156874 -0.000110937)
(-0.0116263 0.0010937 -0.00013825)
(-0.0117428 0.000489847 -0.000175397)
(-0.0114319 -0.00023802 -0.000220718)
(-0.0106168 -0.00106306 -0.000270803)
(-0.00924771 -0.0019228 -0.000318693)
(-0.00733344 -0.00270645 -0.000350552)
(-0.00502257 -0.00322711 -0.000347932)
(-0.00237775 -0.00318908 -0.000296424)
(-0.000477731 -0.00189978 -0.000107896)
(-0.000188439 0.00215838 -0.00015411)
(-0.00104933 0.00356327 -0.000141012)
(-0.00236502 0.00398782 -0.000129362)
(-0.00368281 0.00408191 -0.000116341)
(-0.00503112 0.00406448 -0.000107797)
(-0.0063673 0.00399486 -0.000102275)
(-0.00767179 0.00387525 -9.92159e-05)
(-0.00892275 0.00368938 -9.94125e-05)
(-0.0100894 0.0034134 -0.000104317)
(-0.0111295 0.00301874 -0.00011583)
(-0.0119865 0.00247466 -0.000136053)
(-0.0125872 0.0017526 -0.000166968)
(-0.0128417 0.000834056 -0.000210158)
(-0.0126474 -0.000280445 -0.000268398)
(-0.0118943 -0.00156069 -0.000333185)
(-0.0104917 -0.00291692 -0.000397337)
(-0.00841398 -0.00417856 -0.000442755)
(-0.00581318 -0.00504501 -0.00044458)
(-0.00275444 -0.00502986 -0.000383369)
(-0.000544519 -0.00303023 -0.000148374)
(-0.000183238 0.00303318 -0.000173855)
(-0.00105752 0.00497646 -0.000165872)
(-0.00240699 0.00555661 -0.000155356)
(-0.0037599 0.0056811 -0.000142051)
(-0.00515207 0.00565521 -0.000133118)
(-0.00654324 0.00556176 -0.000127373)
(-0.0079195 0.00540584 -0.000124503)
(-0.00926501 0.00516759 -0.000125594)
(-0.0105548 0.00481595 -0.000132471)
(-0.0117511 0.00431175 -0.000147622)
(-0.0127981 0.00361022 -0.000174046)
(-0.0136173 0.00266589 -0.000214898)
(-0.0141024 0.0014415 -0.000273425)
(-0.0141233 -7.72335e-05 -0.000351246)
(-0.013525 -0.00185687 -0.000442481)
(-0.0121531 -0.00379719 -0.000536538)
(-0.00991621 -0.00565978 -0.000609012)
(-0.00695055 -0.00700003 -0.00062372)
(-0.00331619 -0.00707568 -0.00054899)
(-0.000650956 -0.00428171 -0.000236925)
(-0.000174765 0.00393822 -0.000192322)
(-0.00105592 0.00645217 -0.000189462)
(-0.00243361 0.00719965 -0.00018023)
(-0.00381765 0.0073621 -0.0001671)
(-0.0052513 0.00733837 -0.000158477)
(-0.00669775 0.00723788 -0.000153476)
(-0.00815071 0.0070704 -0.000152095)
(-0.00960308 0.0068137 -0.000155843)
(-0.0110393 0.00643021 -0.00016708)
(-0.0124303 0.00586951 -0.00018907)
(-0.0137257 0.00506957 -0.000226025)
(-0.0148452 0.003961 -0.000282859)
(-0.0156688 0.00247697 -0.000364436)
(-0.0160269 0.000571709 -0.00047384)
(-0.0157094 -0.00174302 -0.000613363)
(-0.0144706 -0.00437518 -0.000761426)
(-0.0120981 -0.00701525 -0.000886448)
(-0.00866778 -0.00903872 -0.000933431)
(-0.00421155 -0.00933911 -0.000844169)
(-0.000840541 -0.00568194 -0.000405419)
(-0.000164175 0.00487115 -0.000212741)
(-0.00105029 0.00798964 -0.000215701)
(-0.00245568 0.00891728 -0.000207976)
(-0.00386897 0.00912592 -0.000195122)
(-0.00534134 0.00911643 -0.00018696)
(-0.00684025 0.00902902 -0.000182995)
(-0.00836895 0.008881 -0.000183646)
(-0.00993211 0.00865024 -0.000190995)
(-0.011528 0.00829466 -0.000208192)
(-0.0131425 0.00775358 -0.000239678)
(-0.0147392 0.00694627 -0.000291528)
(-0.0162442 0.00577279 -0.000371546)
(-0.0175286 0.00412243 -0.000488419)
(-0.0183888 0.00189459 -0.000649232)
(-0.0185526 -0.000965291 -0.000868464)
(-0.017639 -0.00436984 -0.0011114)
(-0.0152436 -0.00800352 -0.0013406)
(-0.0112847 -0.0110294 -0.00146815)
(-0.00569817 -0.0118108 -0.00137931)
(-0.0012069 -0.00729748 -0.000735751)
(-0.000151415 0.00583526 -0.000236976)
(-0.00104143 0.00959621 -0.000246945)
(-0.00247391 0.0107162 -0.000240859)
(-0.00391124 0.0109766 -0.000227974)
(-0.00541335 0.010991 -0.00021985)
(-0.00695233 0.0109357 -0.000216546)
(-0.00854275 0.01084 -0.000219046)
(-0.0102041 0.010686 -0.00023018)
(-0.0119534 0.0104318 -0.00025418)
(-0.0137996 0.0100107 -0.000297214)
(-0.0157319 0.00932612 -0.000368227)
(-0.0177001 0.0082464 -0.000479745)
(-0.0195865 0.0066052 -0.000647486)
(-0.0211727 0.00421766 -0.000888719)
(-0.0220917 0.000927253 -0.00121936)
(-0.0218317 -0.00327853 -0.00164525)
(-0.0197374 -0.00812207 -0.00208647)
(-0.0153375 -0.0125949 -0.00241391)
(-0.00832155 -0.014334 -0.00239495)
(-0.00198452 -0.00922203 -0.00143701)
(-0.000137082 0.00683692 -0.000266623)
(-0.0010316 0.0112828 -0.000285279)
(-0.00249041 0.0126037 -0.000280776)
(-0.0039422 0.0129147 -0.000267018)
(-0.00545686 0.0129552 -0.000257801)
(-0.00701094 0.0129448 -0.000253962)
(-0.00863137 0.0129302 -0.000257243)
(-0.0103549 0.0129042 -0.000271404)
(-0.0122217 0.012833 -0.00030204)
(-0.014272 0.0126534 -0.000357629)
(-0.0165344 0.0122635 -0.000451225)
(-0.0190064 0.0115085 -0.000602608)
(-0.0216154 0.0101687 -0.000840113)
(-0.0241608 0.00795679 -0.00119907)
(-0.0262472 0.0045575 -0.00171254)
(-0.02722 -0.000267088 -0.00243817)
(-0.0260895 -0.00637398 -0.0032942)
(-0.021728 -0.0127864 -0.00409657)
(-0.013227 -0.0163624 -0.00439386)
(-0.00373585 -0.011567 -0.00306504)
(-0.000123579 0.00788853 -0.000303809)
(-0.00102842 0.0130667 -0.00033337)
(-0.00251517 0.0145889 -0.000330092)
(-0.0039682 0.014937 -0.000313862)
(-0.00546963 0.0149927 -0.000301461)
(-0.00699979 0.0150269 -0.000294791)
(-0.00859791 0.0151101 -0.000296575)
(-0.0103182 0.0152538 -0.000311651)
(-0.012226 0.0154432 -0.000347223)
(-0.0143979 0.0156351 -0.000414644)
(-0.0169161 0.0157447 -0.000532431)
(-0.0198512 0.0156225 -0.000730643)
(-0.0232261 0.0150233 -0.00105626)
(-0.0269441 0.0135745 -0.0015756)
(-0.0306736 0.0107686 -0.0023698)
(-0.0337004 0.00603447 -0.00350968)
(-0.034781 -0.000988996 -0.00509574)
(-0.031796 -0.0096859 -0.0068843)
(-0.0225129 -0.0166254 -0.00810301)
(-0.00762395 -0.0145097 -0.00668313)
(-0.000116715 0.00901486 -0.000352067)
(-0.00104922 0.0149776 -0.000395351)
(-0.00257241 0.0166871 -0.000392442)
(-0.00401146 0.017039 -0.000371019)
(-0.00546576 0.0170775 -0.00035199)
(-0.00691878 0.0171343 -0.000338709)
(-0.00842065 0.0173097 -0.00033512)
(-0.0100404 0.0176414 -0.000347183)
(-0.0118645 0.0181464 -0.00038369)
(-0.0140028 0.0188223 -0.0004589)
(-0.016593 0.0196346 -0.000597472)
(-0.0197988 0.0204902 -0.000840899)
(-0.0237887 0.0211936 -0.00125684)
(-0.0286803 0.0213799 -0.00194753)
(-0.0344362 0.0204342 -0.00304554)
(-0.0406329 0.0173798 -0.00469857)
(-0.0458538 0.0108435 -0.00709318)
(-0.0466473 -0.000272904 -0.0101839)
(-0.0384847 -0.0136321 -0.0128129)
(-0.015184 -0.0195962 -0.0124248)
(-0.000128818 0.0102655 -0.00041789)
(-0.00112806 0.01707 -0.000478584)
(-0.00270882 0.0189282 -0.000474619)
(-0.00411885 0.0192202 -0.000443525)
(-0.005485 0.019178 -0.000412235)
(-0.00679462 0.0192037 -0.000386396)
(-0.00810711 0.0194309 -0.000371466)
(-0.00949969 0.0199287 -0.000374369)
(-0.0110684 0.0207572 -0.000405212)
(-0.0129415 0.0219766 -0.000480354)
(-0.0152948 0.0236423 -0.00062901)
(-0.0183704 0.025785 -0.000899997)
(-0.0224948 0.0283706 -0.00136951)
(-0.0280856 0.0311971 -0.00213797)
(-0.0356467 0.0336881 -0.00329894)
(-0.0455617 0.0342935 -0.00491389)
(-0.0569068 0.029657 -0.00704617)
(-0.0647046 0.0135459 -0.00928387)
(-0.0610973 -0.0142952 -0.0113741)
(-0.0266941 -0.0360291 -0.014135)
(-0.000184884 0.0117239 -0.00051266)
(-0.00132755 0.0194127 -0.000592305)
(-0.0030055 0.021329 -0.00058189)
(-0.0043725 0.0214529 -0.000532833)
(-0.00560308 0.0212337 -0.000481449)
(-0.00669208 0.0211433 -0.000436036)
(-0.00770863 0.0213406 -0.00040274)
(-0.00872754 0.021925 -0.000388299)
(-0.00983313 0.023003 -0.000403578)
(-0.0111397 0.0247088 -0.000464602)
(-0.0128171 0.027217 -0.000598653)
(-0.0151269 0.0307352 -0.00084658)
(-0.0184978 0.0354929 -0.0012482)
(-0.0236407 0.0415388 -0.00176295)
(-0.0318315 0.0482414 -0.00211526)
(-0.0447976 0.0525213 -0.00165889)
(-0.0643227 0.0470291 0.00014434)
(-0.0848431 0.0178732 0.00351586)
(-0.0884488 -0.0367712 0.00647932)
(-0.0378635 -0.079257 -0.00399239)
(-0.0003465 0.0135957 -0.000670432)
(-0.00178341 0.0222726 -0.000785456)
(-0.00360795 0.0241546 -0.00077067)
(-0.00489596 0.0239753 -0.000692053)
(-0.00592263 0.0234103 -0.000600013)
(-0.00670874 0.0230242 -0.000512525)
(-0.00732912 0.0230124 -0.000441033)
(-0.00783766 0.023502 -0.000394963)
(-0.00828371 0.0246378 -0.000382745)
(-0.00872568 0.0266173 -0.000416167)
(-0.00926405 0.0297352 -0.000511432)
(-0.0100747 0.0343585 -0.00067116)
(-0.0115905 0.0409994 -0.000825184)
(-0.0147947 0.049769 -0.000587496)
(-0.0222693 0.0597637 0.00114353)
(-0.038617 0.0652587 0.00622309)
(-0.0714897 0.0541455 0.0161374)
(-0.109892 -0.00205552 0.0288111)
(-0.11501 -0.104279 0.0324064)
(-0.0433949 -0.159065 0.00489935)
(-0.0006616 0.01633 -0.000907849)
(-0.0025496 0.0254342 -0.00100219)
(-0.00460726 0.0267698 -0.000950114)
(-0.00584735 0.0258745 -0.00080992)
(-0.00666943 0.024808 -0.000668646)
(-0.00708772 0.0240987 -0.000539405)
(-0.00720606 0.0238697 -0.0004322)
(-0.007067 0.024193 -0.000353716)
(-0.00667141 0.0252011 -0.00031123)
(-0.00598016 0.0271064 -0.000309244)
(-0.00498012 0.0302899 -0.000345977)
(-0.00364284 0.0351895 -0.000355345)
(-0.00238054 0.0425686 -0.000122374)
(-0.00225617 0.0524137 0.00120879)
(-0.00785093 0.0638915 0.00559268)
(-0.0270642 0.0683606 0.0162958)
(-0.074962 0.044892 0.0339933)
(-0.12435 -0.0585413 0.047717)
(-0.129323 -0.20385 0.0343407)
(-0.0485453 -0.253786 -0.00635822)
(-0.0020039 0.0191359 -0.00144158)
(-0.00516635 0.030617 -0.00164907)
(-0.00694032 0.0315633 -0.00152743)
(-0.00767984 0.0301368 -0.00128336)
(-0.00782314 0.028157 -0.00100468)
(-0.00761655 0.0265163 -0.000743953)
(-0.00714025 0.0254107 -0.000524877)
(-0.00635326 0.024931 -0.000358734)
(-0.00515517 0.0251996 -0.000253318)
(-0.0033523 0.0263693 -0.000204716)
(-0.000791554 0.0288009 -0.000208272)
(0.00289357 0.0328977 -0.000120597)
(0.00736465 0.0395189 0.000370438)
(0.0120953 0.048554 0.00237052)
(0.0112525 0.0601406 0.00851721)
(-0.00236511 0.0624465 0.0223102)
(-0.0516388 0.0250336 0.0414782)
(-0.0980849 -0.114722 0.044147)
(-0.126255 -0.265174 0.0171898)
(-0.0511825 -0.334698 -0.0271433)
(-0.00131888 0.0307122 -0.00247725)
(-0.00511581 0.0345215 -0.00231857)
(-0.00893717 0.0329715 -0.00202667)
(-0.00986177 0.0291495 -0.00147121)
(-0.0101189 0.0264179 -0.00102841)
(-0.00936734 0.0245151 -0.000638019)
(-0.00805068 0.0232905 -0.000324384)
(-0.00622542 0.0225852 -9.57203e-05)
(-0.00386256 0.0224483 3.25604e-05)
(-0.000711086 0.0228915 6.37567e-05)
(0.00347504 0.0242759 1.20582e-05)
(0.00941951 0.0267436 -1.33507e-05)
(0.016846 0.031063 0.000391967)
(0.026894 0.0368946 0.00198927)
(0.0331702 0.0451393 0.0076049)
(0.0383891 0.0460295 0.0196001)
(0.00261221 0.0065061 0.0345366)
(-0.0347771 -0.127604 0.0327514)
(-0.103616 -0.281774 0.00899181)
(-0.0398332 -0.389845 -0.0452933)
(-0.0126068 0.0283408 -0.00327276)
(-0.0213921 0.0495801 -0.00400289)
(-0.0157476 0.0453781 -0.00370612)
(-0.0145253 0.0405046 -0.00295441)
(-0.0109448 0.0347231 -0.00198076)
(-0.00712359 0.030001 -0.00112724)
(-0.0031443 0.0263404 -0.000454892)
(0.0010306 0.0235624 1.37003e-05)
(0.00539892 0.0216406 0.000272965)
(0.0104803 0.0203148 0.00032415)
(0.0161996 0.0198081 0.000182142)
(0.0238178 0.0198339 -0.00017072)
(0.0323918 0.0210816 -0.000283359)
(0.0451329 0.0225623 0.000333194)
(0.0539959 0.0254788 0.00334624)
(0.0717504 0.0240516 0.011062)
(0.0546671 -0.00245606 0.0207186)
(0.0491174 -0.108389 0.0237435)
(-0.053956 -0.269729 0.00304664)
(-0.0154617 -0.40449 -0.0578462)
(-0.0464993 0.0881366 -0.0124376)
(-0.0298211 0.040582 -0.00864094)
(-0.0206282 0.0343003 -0.0063301)
(-0.00182961 0.0272442 -0.00415917)
(0.0138979 0.0208936 -0.00266633)
(0.0294105 0.0166628 -0.0015175)
(0.0427734 0.0139792 -0.000644898)
(0.055111 0.0119561 -3.3443e-05)
(0.0654806 0.0106819 0.000357566)
(0.0761396 0.00952664 0.000492085)
(0.0845643 0.00919 0.000377023)
(0.0958983 0.00856876 -1.69918e-05)
(0.103307 0.00888139 -0.000498254)
(0.120041 0.00782996 -0.000896406)
(0.123256 0.0058549 -0.000473785)
(0.153101 -0.00311181 0.00294728)
(0.132135 -0.0272764 0.00735271)
(0.162103 -0.100548 0.012413)
(0.0350039 -0.23903 -0.00162003)
(0.0338201 -0.369126 -0.0670273)
(0.117601 0.112176 -0.0112245)
(0.144213 0.0597972 -0.0118277)
(0.216209 0.0394571 -0.0115961)
(0.260855 0.0262112 -0.0103483)
(0.293386 0.0173803 -0.00885427)
(0.32069 0.0114281 -0.0075593)
(0.341078 0.00771859 -0.00640926)
(0.360318 0.00519086 -0.00542509)
(0.372732 0.0037605 -0.00456495)
(0.38876 0.00258489 -0.00391164)
(0.395149 0.00213619 -0.00335154)
(0.412115 0.0015981 -0.00301387)
(0.41185 0.0015477 -0.00284648)
(0.434182 0.00117988 -0.00256129)
(0.422139 0.000276604 -0.00255576)
(0.451098 -0.00292172 -0.00169096)
(0.407709 -0.0113701 -0.00116799)
(0.422445 -0.0325401 -0.000878396)
(0.252045 -0.073403 -0.00879481)
(0.165509 -0.139131 -0.0773875)
(-0.000106849 0.000122884 -8.21385e-05)
(-0.000788286 0.000328665 -3.69644e-05)
(-0.00191865 0.000396816 -1.14681e-05)
(-0.00305143 0.000413831 2.29532e-06)
(-0.00420042 0.000416808 2.76972e-06)
(-0.0053286 0.000416598 -6.22566e-06)
(-0.00641809 0.000412693 -2.31401e-05)
(-0.00744613 0.000401952 -4.91111e-05)
(-0.00838054 0.000379627 -8.49299e-05)
(-0.00918011 0.000340903 -0.000132028)
(-0.00979279 0.000280966 -0.000191729)
(-0.010157 0.00019585 -0.000264647)
(-0.0102055 8.38599e-05 -0.000349957)
(-0.0098704 -5.77545e-05 -0.000444013)
(-0.00909472 -0.000221517 -0.000540526)
(-0.00784782 -0.000393738 -0.000628152)
(-0.00614908 -0.000548419 -0.000688943)
(-0.00413368 -0.000639864 -0.000699562)
(-0.00187121 -0.000590368 -0.000639755)
(-0.000333781 -0.000240645 -0.000383757)
(-0.000325563 0.000878675 -0.000213057)
(-0.00169394 0.00175054 -0.000196492)
(-0.00375389 0.00203456 -0.000173315)
(-0.00581325 0.00209128 -0.000152052)
(-0.00787654 0.00207028 -0.000142732)
(-0.00987262 0.00201613 -0.000142908)
(-0.0117601 0.00193104 -0.000151521)
(-0.0134951 0.0018053 -0.000169848)
(-0.0150232 0.00162468 -0.000199904)
(-0.0162778 0.0013739 -0.000244052)
(-0.0171795 0.00103791 -0.0003045)
(-0.0176375 0.00060413 -0.000382702)
(-0.0175593 6.54607e-05 -0.000478525)
(-0.0168506 -0.000569482 -0.000588728)
(-0.0154324 -0.00127298 -0.000702341)
(-0.0132714 -0.00198859 -0.000805815)
(-0.0104105 -0.00261476 -0.000875007)
(-0.00705581 -0.00297489 -0.000879845)
(-0.00332549 -0.00277207 -0.000791341)
(-0.000677247 -0.00140202 -0.000433261)
(-0.000410788 0.0021603 -0.000286557)
(-0.00206675 0.00397179 -0.000287945)
(-0.00451642 0.00454746 -0.000266858)
(-0.0069486 0.00464123 -0.000241191)
(-0.00937257 0.00456011 -0.000225925)
(-0.0117069 0.00439519 -0.000219544)
(-0.0139049 0.00415509 -0.000221542)
(-0.0159184 0.00382386 -0.000233818)
(-0.0176884 0.00337761 -0.000259286)
(-0.0191429 0.0027893 -0.000301333)
(-0.0201962 0.00203203 -0.000363271)
(-0.02075 0.00108381 -0.000447722)
(-0.0206924 -6.54016e-05 -0.000556082)
(-0.0199078 -0.00140061 -0.000683498)
(-0.0182981 -0.00286747 -0.000820538)
(-0.0158044 -0.00435362 -0.000949479)
(-0.0124555 -0.00565512 -0.00103953)
(-0.00848032 -0.00641156 -0.00105107)
(-0.00401055 -0.0060166 -0.000945815)
(-0.000818312 -0.00325216 -0.000508472)
(-0.000436931 0.00350773 -0.000344119)
(-0.00221175 0.0063148 -0.000362324)
(-0.00483505 0.00718606 -0.000344028)
(-0.00743169 0.00730914 -0.000315923)
(-0.0100215 0.00716218 -0.000297097)
(-0.0125224 0.00688499 -0.00028687)
(-0.014891 0.00649273 -0.000285358)
(-0.0170829 0.00596367 -0.000295189)
(-0.0190419 0.00526354 -0.00032027)
(-0.020697 0.0043518 -0.000365314)
(-0.0219595 0.00318629 -0.000435249)
(-0.0227201 0.0017306 -0.000534626)
(-0.0228526 -3.41397e-05 -0.000666803)
(-0.0222083 -0.00209605 -0.000831025)
(-0.0206369 -0.00438706 -0.00101255)
(-0.0180249 -0.00674165 -0.00119045)
(-0.01435 -0.00884241 -0.00132295)
(-0.00984663 -0.0101082 -0.00135435)
(-0.00466044 -0.00955006 -0.00122982)
(-0.000937742 -0.00522927 -0.000671163)
(-0.000443977 0.00493215 -0.000392771)
(-0.00228542 0.00880254 -0.000426935)
(-0.00502124 0.00998696 -0.000411665)
(-0.00772983 0.0101442 -0.000382575)
(-0.0104421 0.00993707 -0.000362474)
(-0.0130791 0.00955803 -0.000351508)
(-0.0156056 0.00903013 -0.000350534)
(-0.0179857 0.00832635 -0.00036313)
(-0.0201707 0.00740132 -0.000394467)
(-0.0220953 0.0061984 -0.000451059)
(-0.02367 0.00465444 -0.000540323)
(-0.0247755 0.00270822 -0.000669666)
(-0.0252561 0.000315093 -0.000845159)
(-0.024921 -0.00252693 -0.00107111)
(-0.0235492 -0.00575319 -0.00133088)
(-0.0209265 -0.00915323 -0.00159733)
(-0.0169322 -0.0122777 -0.00181232)
(-0.0117731 -0.0142603 -0.00189004)
(-0.00560613 -0.0136016 -0.00173848)
(-0.00111928 -0.00748197 -0.000972607)
(-0.000447661 0.00640966 -0.000440944)
(-0.0023492 0.0114068 -0.000491637)
(-0.0051935 0.0129252 -0.000479789)
(-0.0080135 0.0131266 -0.000450617)
(-0.0108513 0.0128727 -0.000430647)
(-0.0136333 0.012414 -0.000420967)
(-0.016336 0.0117835 -0.00042336)
(-0.0189363 0.0109503 -0.00044265)
(-0.0213989 0.00985756 -0.00048572)
(-0.0236701 0.00842998 -0.000561565)
(-0.025666 0.00657653 -0.000681244)
(-0.0272605 0.00419841 -0.000856862)
(-0.0282717 0.00120635 -0.00109969)
(-0.0284543 -0.00244912 -0.00142292)
(-0.0274867 -0.00673579 -0.00181657)
(-0.0250047 -0.0114215 -0.00223878)
(-0.0207117 -0.0159114 -0.00260937)
(-0.0147088 -0.0189659 -0.00279037)
(-0.00713139 -0.0183607 -0.00260927)
(-0.0014427 -0.0101518 -0.00149273)
(-0.000451929 0.00794331 -0.000495177)
(-0.00242072 0.0141359 -0.000564708)
(-0.0053854 0.0160112 -0.000556717)
(-0.00832688 0.0162678 -0.000527498)
(-0.0112995 0.0159829 -0.000507758)
(-0.0142367 0.0154717 -0.000499773)
(-0.0171301 0.0147813 -0.000506546)
(-0.0199748 0.0138793 -0.000534556)
(-0.0227566 0.0126992 -0.000593055)
(-0.025443 0.0111457 -0.000694653)
(-0.0279684 0.00909411 -0.000855989)
(-0.0302125 0.00639357 -0.00109771)
(-0.0319747 0.00288243 -0.00144355)
(-0.0329591 -0.00157673 -0.00191399)
(-0.0327258 -0.00702857 -0.00252389)
(-0.030695 -0.013285 -0.00321581)
(-0.0262817 -0.0196263 -0.00388416)
(-0.019308 -0.0243475 -0.00430071)
(-0.00976451 -0.0241562 -0.00411943)
(-0.00208569 -0.0135716 -0.00240964)
(-0.000457334 0.0095439 -0.000559997)
(-0.00250409 0.0170099 -0.000652107)
(-0.0056039 0.0192648 -0.000648121)
(-0.0086744 0.0195838 -0.000617818)
(-0.011784 0.0192804 -0.000596938)
(-0.0148741 0.0187434 -0.000589309)
(-0.0179554 0.0180399 -0.000599525)
(-0.0210473 0.0171412 -0.000636173)
(-0.0241656 0.015976 -0.000711645)
(-0.027313 0.0144322 -0.000843589)
(-0.0304619 0.0123502 -0.0010569)
(-0.0335245 0.00951685 -0.00138554)
(-0.0363118 0.00566908 -0.00187194)
(-0.038488 0.000525864 -0.00255971)
(-0.0395078 -0.00610721 -0.00349749)
(-0.0385467 -0.0142165 -0.00467045)
(-0.034582 -0.0230452 -0.00591343)
(-0.0268256 -0.0304059 -0.00686763)
(-0.0147671 -0.0315003 -0.00682675)
(-0.00353427 -0.0185357 -0.00414023)
(-0.000465022 0.0112252 -0.000639801)
(-0.00260373 0.0200526 -0.000759674)
(-0.00585418 0.0227052 -0.000759323)
(-0.00905532 0.0230843 -0.000725531)
(-0.0122919 0.0227654 -0.000700332)
(-0.0155143 0.0222225 -0.000689578)
(-0.0187554 0.02155 -0.00069986)
(-0.0220646 0.0207319 -0.000742307)
(-0.0254974 0.0197017 -0.000833139)
(-0.0291084 0.0183407 -0.000996459)
(-0.0329341 0.0164625 -0.00126845)
(-0.036961 0.013792 -0.00170252)
(-0.0410686 0.00994744 -0.00237256)
(-0.044943 0.00445036 -0.00337301)
(-0.0480259 -0.00318492 -0.00481626)
(-0.0492916 -0.0132031 -0.00676421)
(-0.0471711 -0.025171 -0.00906132)
(-0.0397444 -0.0366846 -0.0111534)
(-0.0251015 -0.0412367 -0.0116651)
(-0.00706509 -0.0270038 -0.00765779)
(-0.000478691 0.0130077 -0.00074043)
(-0.00273114 0.0232946 -0.000894893)
(-0.00615132 0.0263519 -0.000896987)
(-0.00947878 0.0267716 -0.000855449)
(-0.0128187 0.0264229 -0.000820385)
(-0.0161306 0.025878 -0.000800246)
(-0.0194714 0.0252688 -0.000804022)
(-0.0229247 0.0246029 -0.000845635)
(-0.0265932 0.0238339 -0.000945568)
(-0.0305991 0.0228572 -0.00113552)
(-0.0350738 0.0214847 -0.00146587)
(-0.0401325 0.0194046 -0.00201666)
(-0.0458189 0.0161329 -0.0029104)
(-0.0520062 0.0109755 -0.00431522)
(-0.0582468 0.00306425 -0.00642371)
(-0.0636556 -0.00840376 -0.00947145)
(-0.066275 -0.0238409 -0.0133732)
(-0.0621081 -0.041804 -0.0172289)
(-0.0458616 -0.054927 -0.0187595)
(-0.0149826 -0.0438212 -0.0141204)
(-0.000506783 0.0149265 -0.000870982)
(-0.00291113 0.0267804 -0.00106878)
(-0.00652959 0.0302284 -0.00107081)
(-0.00997464 0.0306416 -0.00101465)
(-0.0133798 0.0302208 -0.000961008)
(-0.016714 0.0296516 -0.00092164)
(-0.0200587 0.0291125 -0.000908289)
(-0.0235312 0.0286478 -0.000937542)
(-0.0272827 0.0282506 -0.00103374)
(-0.0315092 0.0278604 -0.00123565)
(-0.0364596 0.0273323 -0.00160802)
(-0.0424345 0.0263819 -0.00225902)
(-0.0497627 0.0245073 -0.00336346)
(-0.0587384 0.0208987 -0.0051755)
(-0.0695159 0.0143627 -0.0079881)
(-0.0817904 0.00312742 -0.0119359)
(-0.0932155 -0.0154699 -0.0166969)
(-0.0961206 -0.044117 -0.020423)
(-0.0790238 -0.0775016 -0.0212421)
(-0.0274306 -0.0806972 -0.0203738)
(-0.000566723 0.0170467 -0.00104688)
(-0.00319149 0.0305877 -0.00129979)
(-0.00705407 0.0343802 -0.00129798)
(-0.010605 0.034699 -0.00121653)
(-0.0140229 0.034121 -0.00113065)
(-0.0172874 0.0334619 -0.00105706)
(-0.0205039 0.0329564 -0.0010108)
(-0.0238178 0.0326968 -0.00101049)
(-0.0274184 0.0327359 -0.00108288)
(-0.0315665 0.0330959 -0.00127087)
(-0.0366261 0.0337407 -0.00164768)
(-0.0431051 0.0345195 -0.00233602)
(-0.051703 0.0350812 -0.00352553)
(-0.0633552 0.0347271 -0.00543086)
(-0.0792301 0.0320042 -0.00805574)
(-0.0999101 0.0232634 -0.010572)
(-0.121475 -0.000117418 -0.0103564)
(-0.130991 -0.0514771 -0.00463981)
(-0.111929 -0.124667 -0.00043406)
(-0.0364483 -0.15346 -0.0150878)
(-0.000689702 0.0194569 -0.00129259)
(-0.00364995 0.0347641 -0.00160833)
(-0.00783103 0.0387638 -0.00158953)
(-0.0114796 0.0388354 -0.0014648)
(-0.0148468 0.0379839 -0.00132954)
(-0.0179258 0.0371465 -0.00120499)
(-0.020848 0.0365991 -0.00110765)
(-0.0237753 0.0364828 -0.00105569)
(-0.0269092 0.0369274 -0.00107577)
(-0.0305344 0.0380698 -0.0012075)
(-0.0350822 0.0400503 -0.00151461)
(-0.0412112 0.0429752 -0.00208815)
(-0.0499272 0.0468387 -0.00299671)
(-0.0627286 0.0511646 -0.00399218)
(-0.0815735 0.0536745 -0.0036968)
(-0.107199 0.0461973 0.00164117)
(-0.134954 0.0110196 0.017353)
(-0.148194 -0.074637 0.0403195)
(-0.127842 -0.192758 0.041525)
(-0.0353319 -0.245302 -0.000471366)
(-0.000968443 0.022435 -0.00167421)
(-0.00450377 0.0397966 -0.00209593)
(-0.00908187 0.0439269 -0.00206203)
(-0.0127566 0.0435779 -0.00186926)
(-0.0159538 0.0421928 -0.00164176)
(-0.0187133 0.040901 -0.00141935)
(-0.0211791 0.0400553 -0.00122828)
(-0.0234939 0.0398554 -0.00109013)
(-0.0258301 0.0405056 -0.00102497)
(-0.0284344 0.0422658 -0.00105855)
(-0.0317001 0.0454909 -0.00121866)
(-0.0362617 0.0505971 -0.00148212)
(-0.0431691 0.0579607 -0.00157517)
(-0.0540228 0.0669409 -0.000211746)
(-0.0712228 0.0733895 0.00637689)
(-0.0958111 0.0637013 0.0250988)
(-0.126724 0.0147524 0.0597001)
(-0.144417 -0.101246 0.087992)
(-0.126464 -0.252335 0.0624587)
(-0.0294882 -0.327532 0.000803787)
(-0.0013652 0.0263404 -0.00221342)
(-0.00555238 0.0447624 -0.00264989)
(-0.0107916 0.0482342 -0.0025444)
(-0.0146415 0.0468995 -0.00222825)
(-0.0177316 0.0449095 -0.00189408)
(-0.0200642 0.0432807 -0.00157108)
(-0.0218624 0.0422541 -0.00128428)
(-0.0232785 0.0419729 -0.00105012)
(-0.0244305 0.0426584 -0.000882381)
(-0.0254413 0.0446544 -0.000784631)
(-0.0265372 0.0485014 -0.000727293)
(-0.0280909 0.054855 -0.000503722)
(-0.0309397 0.0643836 0.000591538)
(-0.0364112 0.0759491 0.00498611)
(-0.0475689 0.0844096 0.0182883)
(-0.0662757 0.0728078 0.0481433)
(-0.099073 0.016263 0.0898379)
(-0.115986 -0.123129 0.101518)
(-0.109633 -0.292974 0.0466316)
(-0.0204045 -0.401122 -0.0132891)
(-0.00345139 0.0300306 -0.00324588)
(-0.00983213 0.0533385 -0.00393527)
(-0.0145856 0.0566091 -0.00372184)
(-0.0177262 0.0546101 -0.0032329)
(-0.0198608 0.0511715 -0.00264635)
(-0.0213939 0.0481125 -0.00206946)
(-0.0224206 0.04581 -0.0015529)
(-0.0229396 0.0444504 -0.00112293)
(-0.0228959 0.044245 -0.000791147)
(-0.0221905 0.0455036 -0.000539043)
(-0.0207702 0.0488197 -0.000304604)
(-0.0184999 0.0548789 0.000288282)
(-0.0159002 0.0646338 0.00217924)
(-0.013168 0.076513 0.00823754)
(-0.0142031 0.0867376 0.0243702)
(-0.0185854 0.0758371 0.056052)
(-0.0446925 0.0204089 0.0918578)
(-0.0520563 -0.12668 0.0852878)
(-0.0789949 -0.303791 0.0286352)
(-0.00195194 -0.455728 -0.0308882)
(-0.00150824 0.044794 -0.00519471)
(-0.0083603 0.0570903 -0.00548981)
(-0.0176497 0.0569298 -0.00489794)
(-0.0212436 0.0519945 -0.00386305)
(-0.0239629 0.0483475 -0.0029925)
(-0.0249413 0.0455825 -0.00216926)
(-0.0249007 0.0435759 -0.0014493)
(-0.0239411 0.0422145 -0.000854486)
(-0.0220739 0.0416595 -0.000412851)
(-0.0190855 0.0420962 -0.000104582)
(-0.0147431 0.0441757 0.000134856)
(-0.00826878 0.0482301 0.000662128)
(-2.04135e-05 0.0554689 0.002384)
(0.0122258 0.0645089 0.00739881)
(0.0225027 0.0733403 0.0206153)
(0.0399568 0.0665181 0.0453429)
(0.0260824 0.0212065 0.0697863)
(0.0306187 -0.103146 0.0623904)
(-0.0331396 -0.292203 0.0212087)
(0.0288915 -0.477641 -0.0465328)
(-0.012334 0.0357677 -0.00621156)
(-0.0243939 0.078903 -0.00786157)
(-0.0228787 0.0766074 -0.00765439)
(-0.0278017 0.0705946 -0.0064476)
(-0.0279925 0.0626875 -0.00476572)
(-0.0265053 0.0559207 -0.00318722)
(-0.0233968 0.0503843 -0.00186936)
(-0.0190665 0.045962 -0.000859596)
(-0.0137406 0.0426888 -0.000179116)
(-0.00708163 0.0403196 0.000197856)
(0.000583322 0.039287 0.00026568)
(0.0107353 0.0394832 0.000217686)
(0.0223208 0.042003 0.000734165)
(0.0394139 0.0456247 0.00319178)
(0.0539618 0.0504591 0.00999043)
(0.0832657 0.0469555 0.0249266)
(0.0807692 0.019861 0.0373191)
(0.114249 -0.0652919 0.0371108)
(0.0397774 -0.261551 0.0124618)
(0.0766734 -0.468613 -0.0580395)
(-0.0762071 0.100008 -0.0194367)
(-0.0614058 0.0610773 -0.0150116)
(-0.0608999 0.0599114 -0.0115615)
(-0.0386807 0.0518733 -0.00847283)
(-0.0198377 0.0438685 -0.00626534)
(0.00102463 0.0379607 -0.00439111)
(0.0203306 0.0337136 -0.0028764)
(0.0394895 0.0301023 -0.0016871)
(0.0565128 0.0275228 -0.000805758)
(0.0745089 0.0250569 -0.000269704)
(0.0892815 0.023789 -0.000111709)
(0.107977 0.0224702 -0.000378312)
(0.120471 0.0224604 -0.000828722)
(0.145751 0.0222377 -0.000663419)
(0.152785 0.0198804 -0.000133085)
(0.197259 0.0140314 0.00569051)
(0.18523 -0.0153658 0.0116762)
(0.23722 -0.0739421 0.0108053)
(0.160366 -0.238453 0.00350956)
(0.150896 -0.417125 -0.0688642)
(0.119181 0.140157 -0.0168934)
(0.151476 0.0856326 -0.01845)
(0.22889 0.0632259 -0.0184266)
(0.283521 0.0477527 -0.0169936)
(0.324569 0.0368327 -0.0151675)
(0.362424 0.0287339 -0.0134794)
(0.390799 0.0230932 -0.0119182)
(0.421354 0.018828 -0.0105863)
(0.440579 0.0157769 -0.00923093)
(0.468298 0.013386 -0.00837351)
(0.479669 0.0115495 -0.00722453)
(0.508565 0.0103837 -0.00694536)
(0.511516 0.00907538 -0.00593946)
(0.545355 0.00870197 -0.00636001)
(0.536975 0.00690846 -0.00463975)
(0.575234 0.00406333 -0.00595366)
(0.543157 -0.00457422 -0.00216942)
(0.560196 -0.0249409 -0.00840295)
(0.428519 -0.0675269 -0.00966901)
(0.302907 -0.144936 -0.081845)
(-0.000117889 0.000120346 -0.000122027)
(-0.000896621 0.000364704 -0.000122953)
(-0.00219332 0.000446837 -0.000109037)
(-0.00348477 0.000465325 -9.8277e-05)
(-0.00478538 0.00046548 -9.83911e-05)
(-0.00605254 0.000461071 -0.000108548)
(-0.00726624 0.000451824 -0.000128429)
(-0.00840222 0.000433776 -0.000158574)
(-0.0094261 0.000402128 -0.000201034)
(-0.010293 0.000351677 -0.000257602)
(-0.0109473 0.000277212 -0.000329691)
(-0.0113233 0.000174349 -0.000417761)
(-0.0113489 4.07223e-05 -0.000520641)
(-0.0109511 -0.000124923 -0.000633604)
(-0.0100688 -0.000315121 -0.000748563)
(-0.00866822 -0.000513976 -0.000852704)
(-0.00676962 -0.000690343 -0.000928309)
(-0.00452282 -0.00078883 -0.000954187)