/*--------------------------------*- C++ -*----------------------------------*\
  =========                 |
  \\      /  F ield         | OpenFOAM: The Open Source CFD Toolbox
   \\    /   O peration     | Website:  https://openfoam.org
    \\  /    A nd           | Version:  10
     \\/     M anipulation  |
\*---------------------------------------------------------------------------*/
FoamFile
{
    format      ascii;
    class       volScalarField;
    location    "4.9";
    object      p;
}
// * * * * * * * * * * * * * * * * * * * * * * * * * * * * * * * * * * * * * //

dimensions      [0 2 -2 0 0 0 0];

internalField   nonuniform List<scalar> 
400
(
-2.24963e-09
-2.47128e-05
5.923e-06
6.86931e-05
0.000169803
0.000310103
0.000490636
0.000712354
0.000975406
0.0012785
0.00161826
0.00198847
0.0023796
0.00277746
0.0031639
0.00351715
0.00381286
0.00402689
0.00415375
0.00414093
2.54174e-05
-1.28723e-07
3.32028e-05
9.48743e-05
0.000192639
0.000328033
0.000502557
0.000717552
0.000973543
0.00126967
0.00160299
0.00196736
0.00235489
0.00275113
0.00313815
0.00349406
0.00379379
0.00401283
0.00414693
0.00413256
-9.5199e-06
-4.08483e-05
-9.13394e-06
4.95556e-05
0.000143784
0.000275347
0.000446222
0.00065842
0.000913281
0.00121086
0.0015492
0.00192393
0.00232661
0.00274368
0.00315634
0.00354077
0.00386843
0.00410977
0.00425882
0.00423807
-8.41543e-05
-0.000119938
-9.06403e-05
-3.60845e-05
5.32284e-05
0.000179513
0.000345496
0.000554226
0.000808318
0.00110934
0.00145687
0.00184714
0.00227618
0.00272863
0.00318542
0.00361956
0.00399647
0.00427808
0.00445466
0.0044308
-0.000204163
-0.000244474
-0.000218585
-0.00016943
-8.64759e-05
3.30334e-05
0.000192789
0.0003972
0.000650644
0.000956879
0.00131828
0.00173505
0.00219841
0.00270144
0.00322303
0.00373218
0.00418614
0.00453261
0.00475415
0.00472996
-0.000369265
-0.000414848
-0.000393491
-0.000351413
-0.000276976
-0.000166819
-1.61282e-05
0.00018113
0.000431511
0.000741565
0.0011169
0.00156064
0.00207139
0.002642
0.00325264
0.00386864
0.0044368
0.004884
0.00517711
0.00515806
-0.000578791
-0.000630728
-0.000615233
-0.000582471
-0.00051966
-0.000422855
-0.000286054
-0.000101417
0.000140169
0.000448753
0.000834516
0.0013061
0.00186832
0.00252042
0.00324577
0.00400773
0.00474097
0.00534407
0.00575175
0.00575291
-0.000832178
-0.000891787
-0.000883698
-0.000863047
-0.000815935
-0.000738
-0.000622155
-0.000458745
-0.000235898
6.05083e-05
0.000446463
0.000938353
0.00154941
0.00229077
0.00315458
0.0041081
0.00507527
0.00592013
0.00651568
0.00657857
-0.00112871
-0.00119744
-0.00119834
-0.00119294
-0.00116639
-0.00111426
-0.00102874
-0.000898671
-0.000709593
-0.000443193
-7.6923e-05
0.000415609
0.001063
0.00188316
0.0028986
0.00408969
0.00537954
0.0065976
0.00751377
0.00774735
-0.00146751
-0.00154681
-0.00155794
-0.00157086
-0.00157005
-0.00155167
-0.00150783
-0.00142665
-0.00129188
-0.00108178
-0.000767746
-0.000313174
0.000325869
0.0011956
0.00234825
0.00380156
0.005512
0.00730094
0.00878891
0.00946291
-0.00184779
-0.00193891
-0.00196051
-0.00199395
-0.00202359
-0.002047
-0.00205729
-0.00204314
-0.00198823
-0.00186947
-0.00165456
-0.00129877
-0.000741215
9.67907e-05
0.00128992
0.00295378
0.00514084
0.00776611
0.0102888
0.0119889
-0.00226962
-0.00237325
-0.00240336
-0.00245753
-0.00252058
-0.00259255
-0.00266886
-0.00274043
-0.00279341
-0.00280728
-0.00275172
-0.00258165
-0.00222928
-0.00159519
-0.000553759
0.00104006
0.00351382
0.00712282
0.0113474
0.015025
-0.00273568
-0.00285134
-0.0028841
-0.00295551
-0.00305112
-0.00317498
-0.00332633
-0.00350008
-0.00368791
-0.00387705
-0.00404778
-0.00416949
-0.00419453
-0.00404977
-0.00363402
-0.00278689
-0.00103666
0.00281144
0.00880522
0.0157411
-0.00325085
-0.00337001
-0.00338944
-0.00346817
-0.0035929
-0.0037702
-0.00400182
-0.00428832
-0.00463005
-0.00502719
-0.00548032
-0.00599183
-0.00657163
-0.007256
-0.00818148
-0.00954252
-0.0110196
-0.00941569
-0.00297769
0.00833857
-0.0038486
-0.00398375
-0.00397739
-0.00405622
-0.00418966
-0.00439702
-0.00468945
-0.00507673
-0.00557052
-0.00618822
-0.00695985
-0.00793721
-0.0092291
-0.0110492
-0.0139585
-0.0187797
-0.0262076
-0.0288267
-0.0230355
-0.00623418
-0.00460736
-0.00454137
-0.0044341
-0.00443641
-0.00456809
-0.00482851
-0.00521358
-0.00572514
-0.00637799
-0.00720095
-0.00825177
-0.00963759
-0.0115851
-0.0144345
-0.0192801
-0.0269943
-0.0402197
-0.0470194
-0.0430999
-0.0191016
-0.00508867
-0.00552361
-0.00528408
-0.00535336
-0.00542242
-0.00562098
-0.00596338
-0.0064713
-0.00716794
-0.00808408
-0.00928923
-0.0108916
-0.0132149
-0.0164764
-0.0224424
-0.0304565
-0.0467621
-0.0538119
-0.0499639
-0.0139189
-0.00841058
-0.00589275
-0.00534842
-0.00488701
-0.00493402
-0.00524916
-0.00577291
-0.00645834
-0.00731848
-0.00836218
-0.0096828
-0.0113337
-0.0137898
-0.016693
-0.0223898
-0.0301084
-0.0419301
-0.0457618
-0.0349174
0.0179003
-0.0052017
-0.00813817
-0.00719192
-0.00732533
-0.00704215
-0.00698746
-0.00713439
-0.00751677
-0.00816251
-0.00902059
-0.0101903
-0.0116299
-0.0137977
-0.0166406
-0.021739
-0.0279371
-0.0359319
-0.0296725
-0.00215369
0.0823791
-0.0301443
-0.00516801
-0.00387553
-0.00324778
-0.00318782
-0.00359067
-0.00434603
-0.00520338
-0.00628439
-0.00744839
-0.0089414
-0.0106975
-0.0130626
-0.015889
-0.0194116
-0.0208753
-0.0172854
0.0117488
0.0818628
0.22065
)
;

boundaryField
{
    movingWall
    {
        type            zeroGradient;
    }
    fixedWalls
    {
        type            zeroGradient;
    }
    frontAndBack
    {
        type            empty;
    }
}


// ************************************************************************* //
