/*--------------------------------*- C++ -*----------------------------------*\
  =========                 |
  \\      /  F ield         | OpenFOAM: The Open Source CFD Toolbox
   \\    /   O peration     | Website:  https://openfoam.org
    \\  /    A nd           | Version:  10
     \\/     M anipulation  |
\*---------------------------------------------------------------------------*/
FoamFile
{
    format      ascii;
    class       volVectorField;
    location    "3.45";
    object      U;
}
// * * * * * * * * * * * * * * * * * * * * * * * * * * * * * * * * * * * * * //

dimensions      [0 1 -1 0 0 0 0];

internalField   nonuniform List<vector> 
8000
(
(-8.73822e-05 9.72353e-05 -1.34933e-05)
(-0.000535765 0.0002043 1.75467e-05)
(-0.0012142 0.00022274 2.60439e-05)
(-0.00184786 0.000219421 2.93998e-05)
(-0.00246492 0.000210054 2.85803e-05)
(-0.00304195 0.000196822 2.52655e-05)
(-0.00356344 0.000179328 2.02994e-05)
(-0.00401503 0.000156882 1.38557e-05)
(-0.00438141 0.000128856 6.03364e-06)
(-0.0046471 9.46876e-05 -3.28816e-06)
(-0.0047964 5.458e-05 -1.34702e-05)
(-0.00481376 8.90037e-06 -2.44894e-05)
(-0.00468589 -4.25344e-05 -3.62456e-05)
(-0.00440324 -9.76665e-05 -4.82523e-05)
(-0.00396181 -0.000154076 -5.97651e-05)
(-0.0033653 -0.000208533 -6.96107e-05)
(-0.00262941 -0.000256593 -7.56544e-05)
(-0.00179641 -0.00029057 -7.44853e-05)
(-0.000850083 -0.000287391 -6.37982e-05)
(-0.000168339 -0.00015809 -1.70037e-05)
(-0.000194312 0.000575038 -5.58257e-05)
(-0.00095039 0.000983621 -2.66991e-05)
(-0.0020133 0.00104669 -1.65242e-05)
(-0.00300831 0.0010194 -9.44387e-06)
(-0.00396797 0.000961693 -6.06887e-06)
(-0.0048569 0.000883308 -4.79876e-06)
(-0.00565076 0.000784523 -4.77658e-06)
(-0.00632793 0.000664352 -5.88577e-06)
(-0.00686648 0.000521937 -8.1685e-06)
(-0.00724453 0.000356801 -1.1703e-05)
(-0.0074407 0.000169573 -1.6551e-05)
(-0.00743613 -3.85458e-05 -2.28121e-05)
(-0.00721366 -0.000263103 -2.98929e-05)
(-0.00676085 -0.00049751 -3.76808e-05)
(-0.00607464 -0.000732459 -4.54499e-05)
(-0.00516215 -0.00095539 -5.19231e-05)
(-0.00404744 -0.00114928 -5.46083e-05)
(-0.00278946 -0.00128445 -4.97728e-05)
(-0.00137229 -0.00127514 -3.56559e-05)
(-0.000304589 -0.000792202 1.72327e-05)
(-0.000221232 0.00131692 -7.30121e-05)
(-0.00106653 0.00211501 -4.45212e-05)
(-0.00224535 0.00222944 -3.36405e-05)
(-0.0033462 0.00216154 -2.50629e-05)
(-0.00440676 0.00202859 -2.00106e-05)
(-0.00538884 0.00185051 -1.68969e-05)
(-0.00626652 0.00162929 -1.49197e-05)
(-0.00701676 0.0013644 -1.40207e-05)
(-0.00761612 0.00105539 -1.43271e-05)
(-0.00804132 0.000702584 -1.5983e-05)
(-0.00826982 0.000307599 -1.90389e-05)
(-0.00827842 -0.000126003 -2.36568e-05)
(-0.0080465 -0.000590199 -2.95499e-05)
(-0.00755999 -0.00107205 -3.64901e-05)
(-0.00681218 -0.00155297 -4.37255e-05)
(-0.00580739 -0.00200798 -4.98432e-05)
(-0.00456894 -0.00240349 -5.20331e-05)
(-0.00316093 -0.00268054 -4.60863e-05)
(-0.00156362 -0.00267172 -3.02814e-05)
(-0.000350335 -0.00173614 2.72005e-05)
(-0.000231297 0.00206871 -8.68222e-05)
(-0.0011245 0.00327145 -5.88526e-05)
(-0.00237291 0.00343755 -4.75241e-05)
(-0.00353783 0.00332866 -3.79475e-05)
(-0.00466268 0.00312143 -3.17948e-05)
(-0.00570798 0.00284574 -2.7489e-05)
(-0.00664768 0.00250488 -2.42518e-05)
(-0.00745841 0.00209841 -2.20768e-05)
(-0.00811601 0.00162574 -2.11516e-05)
(-0.0085957 0.00108717 -2.16898e-05)
(-0.00887249 0.000484993 -2.38785e-05)
(-0.00892109 -0.000174977 -2.80482e-05)
(-0.00871534 -0.000884104 -3.35762e-05)
(-0.0082331 -0.00162381 -4.04563e-05)
(-0.00746104 -0.00236697 -4.7928e-05)
(-0.00639702 -0.00307571 -5.44785e-05)
(-0.00505982 -0.00369748 -5.68607e-05)
(-0.0035177 -0.00413978 -5.01352e-05)
(-0.00174707 -0.00414456 -3.24063e-05)
(-0.000392444 -0.00272887 3.16466e-05)
(-0.000241821 0.0028774 -9.95624e-05)
(-0.00118868 0.00451654 -7.14914e-05)
(-0.00251737 0.00473862 -5.97274e-05)
(-0.00375763 0.00458773 -4.93889e-05)
(-0.00495918 0.00430421 -4.25269e-05)
(-0.00608135 0.00392865 -3.75465e-05)
(-0.00709834 0.00346572 -3.36736e-05)
(-0.00798683 0.00291486 -3.0941e-05)
(-0.00872219 0.00227489 -2.95885e-05)
(-0.00927817 0.00154524 -2.99038e-05)
(-0.00962673 0.000727343 -3.21744e-05)
(-0.00973852 -0.000173074 -3.67497e-05)
(-0.00958032 -0.00114677 -4.29385e-05)
(-0.00911991 -0.00217107 -5.09518e-05)
(-0.00833243 -0.00321181 -5.99371e-05)
(-0.00720336 -0.00421757 -6.81221e-05)
(-0.00574189 -0.00511293 -7.16573e-05)
(-0.00401997 -0.00576285 -6.44571e-05)
(-0.00200982 -0.00580141 -4.40586e-05)
(-0.000454596 -0.00385243 3.06347e-05)
(-0.000255784 0.00374818 -0.000113794)
(-0.00127145 0.00586195 -8.51648e-05)
(-0.00270257 0.0061461 -7.29179e-05)
(-0.00403898 0.00595295 -6.18385e-05)
(-0.00533812 0.00559222 -5.43748e-05)
(-0.00655803 0.00511623 -4.89024e-05)
(-0.00767359 0.00453113 -4.46556e-05)
(-0.00866207 0.00383597 -4.17099e-05)
(-0.00949882 0.00302831 -4.03589e-05)
(-0.0101564 0.00210552 -4.09644e-05)
(-0.0106036 0.0010663 -4.39578e-05)
(-0.0108073 -8.70301e-05 -5.00831e-05)
(-0.0107245 -0.00134426 -5.77065e-05)
(-0.0103082 -0.0026854 -6.80946e-05)
(-0.0095178 -0.00407001 -8.01181e-05)
(-0.00831851 -0.00543286 -9.16311e-05)
(-0.0067012 -0.00667133 -9.78366e-05)
(-0.00473769 -0.00759486 -9.08955e-05)
(-0.00239308 -0.00770229 -6.70872e-05)
(-0.000548323 -0.00515308 2.3538e-05)
(-0.000273476 0.00469596 -0.000131403)
(-0.00137507 0.00733126 -0.000102072)
(-0.00293319 0.00768471 -8.92498e-05)
(-0.00438785 0.00744862 -7.72488e-05)
(-0.00580622 0.00700937 -6.90256e-05)
(-0.00714507 0.00643254 -6.29459e-05)
(-0.00838067 0.00572606 -5.82796e-05)
(-0.00949181 0.00488842 -5.51696e-05)
(-0.0104549 0.00391522 -5.39844e-05)
(-0.0112424 0.00280039 -5.51676e-05)
(-0.0118214 0.0015377 -5.91849e-05)
(-0.0121511 0.000123214 -6.63038e-05)
(-0.0121806 -0.00143729 -7.7991e-05)
(-0.0118477 -0.00313101 -9.26875e-05)
(-0.0110838 -0.00491639 -0.000110076)
(-0.00982406 -0.00671686 -0.000127727)
(-0.00802615 -0.00839863 -0.000139439)
(-0.00575075 -0.00969823 -0.000134674)
(-0.00294872 -0.00993525 -0.000107081)
(-0.000689587 -0.0067056 5.48771e-06)
(-0.000294952 0.00573962 -0.000153906)
(-0.00150085 0.00895377 -0.000123975)
(-0.00321197 0.00938417 -0.000110405)
(-0.004807 0.00910284 -9.70843e-05)
(-0.00636552 0.0085823 -8.76788e-05)
(-0.00784319 0.00790347 -8.06016e-05)
(-0.00921879 0.00707677 -7.52132e-05)
(-0.0104741 0.00610023 -7.17664e-05)
(-0.0115881 0.00496703 -7.07463e-05)
(-0.0125352 0.0036664 -7.27419e-05)
(-0.013282 0.00218481 -7.83471e-05)
(-0.0137835 0.000508953 -8.79829e-05)
(-0.01398 -0.00137023 -0.000104961)
(-0.013789 -0.00345162 -0.000126438)
(-0.013108 -0.00570265 -0.000152865)
(-0.011826 -0.00804347 -0.000181557)
(-0.00984295 -0.010309 -0.000204307)
(-0.00718206 -0.0121433 -0.000206163)
(-0.00376614 -0.0126152 -0.000175271)
(-0.000910351 -0.00861963 -3.18111e-05)
(-0.000320719 0.00690134 -0.000183102)
(-0.00165142 0.0107631 -0.000152926)
(-0.00354353 0.0112773 -0.00013828)
(-0.00530084 0.0109452 -0.000122907)
(-0.00701893 0.0103376 -0.00011151)
(-0.00865274 0.00955381 -0.000102662)
(-0.0101852 0.00860782 -9.59075e-05)
(-0.0116029 0.00749788 -9.1675e-05)
(-0.0128902 0.00621473 -9.06266e-05)
(-0.0140262 0.00474192 -9.35905e-05)
(-0.0149805 0.00305612 -0.000101423)
(-0.0157078 0.00112924 -0.00011498)
(-0.0161429 -0.00106672 -0.000139546)
(-0.0161822 -0.0035598 -0.000171373)
(-0.0156815 -0.00634049 -0.000212689)
(-0.0144642 -0.00934397 -0.000260943)
(-0.0123368 -0.0123838 -0.000305402)
(-0.00922805 -0.0149964 -0.000323999)
(-0.00500644 -0.0158877 -0.000293082)
(-0.00127536 -0.0110625 -0.000108559)
(-0.000352329 0.008209 -0.000221601)
(-0.00183243 0.0127997 -0.000191809)
(-0.00393662 0.0134011 -0.00017543)
(-0.00587782 0.0130068 -0.000156683)
(-0.00777245 0.0123012 -0.000141834)
(-0.00957557 0.0114057 -0.000129823)
(-0.0112763 0.0103399 -0.000120524)
(-0.0128689 0.00910337 -0.000114625)
(-0.0143459 0.00768537 -0.000113038)
(-0.0156959 0.00606385 -0.000116953)
(-0.0168969 0.00420409 -0.000127949)
(-0.0179086 0.00205827 -0.000148722)
(-0.0186714 -0.0004329 -0.000182671)
(-0.0190657 -0.00332709 -0.000229117)
(-0.0189003 -0.00668099 -0.000294372)
(-0.0179151 -0.0104754 -0.00037661)
(-0.0157754 -0.0145349 -0.000462902)
(-0.0122072 -0.0182912 -0.000521183)
(-0.00697534 -0.0199289 -0.000501087)
(-0.00192291 -0.0143043 -0.000272482)
(-0.000393578 0.00970067 -0.000273556)
(-0.00205524 0.0151143 -0.00024502)
(-0.0044075 0.0157992 -0.000225568)
(-0.00655358 0.0153207 -0.000201032)
(-0.00863783 0.0144971 -0.000180135)
(-0.0106171 0.0134764 -0.000162538)
(-0.0124895 0.0122862 -0.000148654)
(-0.0142595 0.0109295 -0.000139522)
(-0.015932 0.00939611 -0.000136331)
(-0.0175099 0.00766033 -0.000140642)
(-0.0189887 0.00567721 -0.000154697)
(-0.0203476 0.00337761 -0.000181798)
(-0.0215314 0.00066429 -0.000224853)
(-0.0224344 -0.00257355 -0.000298441)
(-0.0228412 -0.00648915 -0.000401317)
(-0.0223819 -0.0111709 -0.000540401)
(-0.0205331 -0.0165345 -0.000704695)
(-0.0166403 -0.0219601 -0.000851675)
(-0.0102716 -0.0249133 -0.000878214)
(-0.00315344 -0.0188121 -0.000649905)
(-0.000453155 0.0114334 -0.000346046)
(-0.00234234 0.0177747 -0.000319595)
(-0.0049856 0.0185238 -0.000294304)
(-0.00735601 0.0179217 -0.000259501)
(-0.00963672 0.0169452 -0.000227935)
(-0.0117897 0.0157746 -0.000200591)
(-0.0138253 0.0144476 -0.000178707)
(-0.015761 0.0129733 -0.000163727)
(-0.0176174 0.0113454 -0.000157054)
(-0.0194172 0.00953914 -0.000160553)
(-0.0211823 0.00750524 -0.000177214)
(-0.0229246 0.00515932 -0.00021149)
(-0.0246262 0.00236898 -0.000269132)
(-0.0262246 -0.0010665 -0.000373638)
(-0.0275143 -0.00540478 -0.00052857)
(-0.0280539 -0.0109626 -0.000756114)
(-0.0271029 -0.0178893 -0.00105714)
(-0.0233684 -0.0256709 -0.00138537)
(-0.0160937 -0.0308615 -0.00156923)
(-0.00565574 -0.0255064 -0.00154009)
(-0.000551472 0.0135047 -0.000452143)
(-0.00273876 0.0208809 -0.000427819)
(-0.00572277 0.0216424 -0.000390625)
(-0.00833264 0.0208468 -0.000336868)
(-0.0108065 0.0196594 -0.000286275)
(-0.0131175 0.0182961 -0.000242045)
(-0.0152921 0.0168062 -0.000206547)
(-0.0173628 0.0152071 -0.000181556)
(-0.0193673 0.0135004 -0.000168394)
(-0.0213512 0.0116692 -0.000168861)
(-0.0233698 0.00967028 -0.000186432)
(-0.0254855 0.0074163 -0.000227267)
(-0.0277595 0.00474791 -0.000302767)
(-0.0302137 0.0013927 -0.000432525)
(-0.0327623 -0.00305367 -0.000658989)
(-0.0350123 -0.00919102 -0.000997952)
(-0.0360464 -0.0176951 -0.00150026)
(-0.0336534 -0.0285266 -0.00213671)
(-0.0268076 -0.0374385 -0.00273423)
(-0.0110741 -0.0359832 -0.0035941)
(-0.000735477 0.0160334 -0.000616378)
(-0.00333996 0.0245575 -0.000590459)
(-0.0067146 0.0252406 -0.000530784)
(-0.00956367 0.0241418 -0.000441505)
(-0.0122089 0.0226469 -0.000355483)
(-0.0146436 0.0210154 -0.000280924)
(-0.0169127 0.0193129 -0.000222146)
(-0.0190646 0.0175645 -0.000180663)
(-0.0211525 0.0157813 -0.000156693)
(-0.0232439 0.0139634 -0.00015094)
(-0.0254312 0.0120943 -0.000166837)
(-0.0278427 0.0101215 -0.000212501)
(-0.0306453 0.00791651 -0.000300913)
(-0.0340245 0.00518852 -0.000445571)
(-0.0381277 0.00136255 -0.000671972)
(-0.0429229 -0.00456313 -0.00107247)
(-0.047666 -0.0140709 -0.00175791)
(-0.0490845 -0.0286834 -0.00275342)
(-0.0458828 -0.0435924 -0.00397563)
(-0.0220179 -0.0531413 -0.00705727)
(-0.00106054 0.0195712 -0.000896588)
(-0.00423998 0.0289168 -0.00083337)
(-0.00808329 0.0292103 -0.000718331)
(-0.01117 0.0275599 -0.000555314)
(-0.0139492 0.0256662 -0.000410367)
(-0.0164446 0.0237444 -0.000290172)
(-0.0187319 0.0218231 -0.000197414)
(-0.0208797 0.0199131 -0.000131684)
(-0.0229492 0.0180385 -9.12669e-05)
(-0.0250135 0.0162302 -7.4328e-05)
(-0.0271793 0.0145198 -8.01903e-05)
(-0.0296198 0.012913 -0.000109602)
(-0.0326327 0.0113663 -0.000165772)
(-0.0366882 0.00966686 -0.000257265)
(-0.0424415 0.00724525 -0.00040434)
(-0.0506006 0.00272334 -0.000588824)
(-0.0615458 -0.00624211 -0.000935946)
(-0.0703316 -0.0244043 -0.00143463)
(-0.0751417 -0.0488696 -0.00203279)
(-0.0388552 -0.0848358 -0.00883865)
(-0.00225851 0.0232836 -0.00137997)
(-0.00656169 0.0351216 -0.00138777)
(-0.0103343 0.03493 -0.00113622)
(-0.0133785 0.0327087 -0.000832776)
(-0.0160299 0.0300059 -0.000537425)
(-0.0184534 0.0273025 -0.000295058)
(-0.0206855 0.0247413 -0.000114528)
(-0.0227617 0.0223717 8.11903e-06)
(-0.0247149 0.0202307 8.21102e-05)
(-0.0266057 0.0183554 0.000114391)
(-0.0285511 0.0168294 0.000114645)
(-0.0307502 0.0157557 9.36667e-05)
(-0.0335763 0.0152978 7.91679e-05)
(-0.0377109 0.0155127 0.000132505)
(-0.0444132 0.016113 0.000414741)
(-0.0553304 0.0154009 0.0013128)
(-0.0730677 0.00964212 0.00333213)
(-0.0906196 -0.0160338 0.00666545)
(-0.107973 -0.0633744 0.00990424)
(-0.0522349 -0.149587 -0.00461151)
(-0.00167167 0.0347957 -0.00237021)
(-0.00681448 0.0393284 -0.00174886)
(-0.0128184 0.0375671 -0.00132538)
(-0.0162281 0.033645 -0.000684598)
(-0.0191689 0.0304996 -0.000222614)
(-0.0213578 0.0277385 0.000121109)
(-0.0231085 0.0252722 0.000345077)
(-0.0246013 0.0230062 0.000479042)
(-0.025924 0.0209491 0.000547372)
(-0.0271131 0.0191313 0.000566305)
(-0.0282178 0.0177185 0.000562)
(-0.0293208 0.0168699 0.000569452)
(-0.0307275 0.0170156 0.000686193)
(-0.0331454 0.0184377 0.00113935)
(-0.0384084 0.0214966 0.00252035)
(-0.0486587 0.0233388 0.00608725)
(-0.0736878 0.0192103 0.0135592)
(-0.0987204 -0.0219294 0.0222156)
(-0.130025 -0.108526 0.025092)
(-0.0480804 -0.248169 -0.00671765)
(-0.0115539 0.0335346 -0.00356676)
(-0.0218364 0.0561066 -0.00367294)
(-0.0186482 0.0511739 -0.002675)
(-0.020597 0.0457088 -0.00150309)
(-0.0204186 0.0395458 -0.000414039)
(-0.0202456 0.0341324 0.000358655)
(-0.0200037 0.0295534 0.000855657)
(-0.0197989 0.0257197 0.00113465)
(-0.0196158 0.0225771 0.0012591)
(-0.0193499 0.020008 0.00125805)
(-0.0190516 0.018162 0.00120313)
(-0.0185452 0.0171368 0.00113695)
(-0.0181317 0.0175296 0.00126901)
(-0.0176686 0.0198885 0.00195422)
(-0.0197897 0.0254111 0.00434173)
(-0.0220074 0.0299573 0.00983358)
(-0.0432151 0.0269865 0.021455)
(-0.0567151 -0.0349456 0.0322884)
(-0.10841 -0.163096 0.0246259)
(-0.0237448 -0.330603 -0.0288489)
(-0.0463645 0.0918 -0.0102904)
(-0.0310188 0.0465091 -0.00540047)
(-0.0231616 0.0399955 -0.00272763)
(-0.00768505 0.0327143 -0.000109159)
(0.00464366 0.0263155 0.0015361)
(0.0157745 0.0219659 0.00253954)
(0.024784 0.0189306 0.00308598)
(0.032175 0.0164954 0.00327711)
(0.0380054 0.0146054 0.00325571)
(0.0431012 0.012927 0.00301271)
(0.0471369 0.0118791 0.00268543)
(0.0516012 0.0109419 0.00229994)
(0.0553842 0.0110685 0.00200692)
(0.0620258 0.0110996 0.00200803)
(0.0652122 0.0123675 0.00354259)
(0.0824007 0.00952029 0.00651511)
(0.0701553 -0.00360675 0.0156709)
(0.0928459 -0.0682633 0.0276729)
(-0.00897465 -0.209109 0.00743177)
(0.0245238 -0.348015 -0.0523331)
(0.117842 0.111774 -0.0109504)
(0.14546 0.0601904 -0.0107562)
(0.218211 0.040322 -0.00971482)
(0.262345 0.0275457 -0.00772802)
(0.294533 0.0190039 -0.0055554)
(0.319623 0.0133205 -0.00365226)
(0.338498 0.00974205 -0.00195596)
(0.353374 0.00734595 -0.000704552)
(0.363585 0.00589929 0.000465167)
(0.373079 0.00484361 0.000982253)
(0.377655 0.00418449 0.00151049)
(0.386018 0.0038907 0.00148395)
(0.385886 0.00312919 0.00138718)
(0.398305 0.00372056 0.00163576)
(0.38955 0.00132909 0.000729265)
(0.412842 0.00149189 0.00314577)
(0.376237 -0.00751202 0.00111523)
(0.401315 -0.0239331 0.00504925)
(0.24527 -0.0652642 -0.0033377)
(0.168288 -0.136362 -0.0675187)
(-0.000160333 0.000164886 -3.36755e-05)
(-0.000899627 0.000358159 7.61278e-06)
(-0.00198588 0.000390997 2.12398e-05)
(-0.00298927 0.000381259 2.83684e-05)
(-0.00395091 0.000359182 2.88234e-05)
(-0.00483758 0.000329552 2.49468e-05)
(-0.00562699 0.000292292 1.80168e-05)
(-0.00629845 0.000246821 8.51119e-06)
(-0.00683042 0.00019262 -3.46769e-06)
(-0.00720116 0.000129506 -1.8006e-05)
(-0.00738995 5.74174e-05 -3.46651e-05)
(-0.00737784 -2.27942e-05 -5.32274e-05)
(-0.00714862 -0.000110019 -7.31401e-05)
(-0.00669156 -0.000201426 -9.34094e-05)
(-0.00600374 -0.000293281 -0.000112639)
(-0.00509209 -0.000380683 -0.000128715)
(-0.0039786 -0.000456711 -0.000138104)
(-0.00271969 -0.00050804 -0.000135643)
(-0.00129003 -0.000491365 -0.000118259)
(-0.000257761 -0.000253226 -4.5536e-05)
(-0.000365427 0.000925879 -0.000100757)
(-0.00167195 0.00165248 -6.28715e-05)
(-0.00345232 0.00176435 -4.57105e-05)
(-0.00510496 0.00170607 -3.23036e-05)
(-0.00667551 0.0015909 -2.50729e-05)
(-0.00810998 0.00143872 -2.17594e-05)
(-0.00937105 0.00125172 -2.11039e-05)
(-0.0104258 0.00102992 -2.28662e-05)
(-0.011242 0.000773484 -2.70966e-05)
(-0.0117889 0.00048339 -3.3923e-05)
(-0.012038 0.000161357 -4.34343e-05)
(-0.0119647 -0.000189171 -5.56619e-05)
(-0.0115491 -0.000560109 -6.9544e-05)
(-0.0107789 -0.00094098 -8.45503e-05)
(-0.00965433 -0.00131736 -9.91824e-05)
(-0.00818948 -0.00167021 -0.000111011)
(-0.00642082 -0.0019731 -0.000115796)
(-0.00443046 -0.00217521 -0.000107765)
(-0.00219456 -0.0021184 -8.47104e-05)
(-0.000497065 -0.0012422 -2.6427e-06)
(-0.00042298 0.00208754 -0.000130617)
(-0.00190467 0.00349541 -9.50859e-05)
(-0.00390468 0.00369824 -7.65906e-05)
(-0.00575698 0.00356328 -6.04407e-05)
(-0.0075144 0.00330986 -5.02181e-05)
(-0.00911783 0.00297771 -4.36832e-05)
(-0.0105268 0.0025732 -3.96511e-05)
(-0.011706 0.00209831 -3.80181e-05)
(-0.0126206 0.00155506 -3.89797e-05)
(-0.0132376 0.000946642 -4.27776e-05)
(-0.013527 0.000278158 -4.95012e-05)
(-0.0134592 -0.000442434 -5.92694e-05)
(-0.0130099 -0.00120083 -7.14596e-05)
(-0.012165 -0.00197622 -8.54147e-05)
(-0.0109205 -0.00273995 -9.95529e-05)
(-0.00928769 -0.00345443 -0.000111175)
(-0.00730306 -0.0040676 -0.000115477)
(-0.00505632 -0.00447926 -0.000105916)
(-0.00251842 -0.004384 -8.03821e-05)
(-0.00057624 -0.00269812 8.35861e-06)
(-0.000448271 0.00325937 -0.000156674)
(-0.00202594 0.00537311 -0.000123555)
(-0.00415659 0.00566692 -0.000104186)
(-0.00612781 0.00545358 -8.60054e-05)
(-0.00800077 0.00506206 -7.35663e-05)
(-0.00971407 0.00455166 -6.46678e-05)
(-0.0112267 0.00393241 -5.81893e-05)
(-0.0125026 0.00320775 -5.41487e-05)
(-0.0135059 0.00238086 -5.28698e-05)
(-0.0142018 0.0014562 -5.47214e-05)
(-0.0145568 0.000440976 -6.00069e-05)
(-0.0145378 -0.000652672 -6.91581e-05)
(-0.014113 -0.00180731 -8.11161e-05)
(-0.0132583 -0.00299327 -9.5503e-05)
(-0.0119609 -0.00416854 -0.000110685)
(-0.0102233 -0.00527599 -0.000123708)
(-0.00807596 -0.0062346 -0.00012898)
(-0.00561437 -0.00688811 -0.00011874)
(-0.00280411 -0.0067685 -9.05603e-05)
(-0.000641759 -0.00422019 8.38611e-06)
(-0.000475391 0.00451337 -0.000182197)
(-0.00215953 0.00738488 -0.000150785)
(-0.00443858 0.0077757 -0.000130534)
(-0.00654694 0.00748053 -0.0001106)
(-0.00855494 0.00694553 -9.64483e-05)
(-0.0103991 0.00625085 -8.58927e-05)
(-0.0120384 0.00541036 -7.78616e-05)
(-0.0134368 0.00442871 -7.24836e-05)
(-0.0145577 0.00330956 -7.02145e-05)
(-0.0153642 0.0020574 -7.15841e-05)
(-0.0158185 0.000679511 -7.70901e-05)
(-0.0158815 -0.000811035 -8.72284e-05)
(-0.0155117 -0.00239378 -0.000100942)
(-0.0146713 -0.00403281 -0.000118138)
(-0.0133314 -0.00567421 -0.000136993)
(-0.011478 -0.00723985 -0.00015402)
(-0.00912888 -0.00861346 -0.000162482)
(-0.00638402 -0.00956862 -0.000152626)
(-0.00320351 -0.00944554 -0.000120928)
(-0.000735156 -0.00593523 -4.69297e-06)
(-0.000511003 0.00586266 -0.000211325)
(-0.00233158 0.00955585 -0.000181285)
(-0.00479977 0.0100519 -0.000159992)
(-0.00708292 0.00967127 -0.000138177)
(-0.00926248 0.00898737 -0.000122312)
(-0.0112728 0.00810304 -0.000110229)
(-0.0130734 0.00703625 -0.000100928)
(-0.0146292 0.00579256 -9.4668e-05)
(-0.0159035 0.00437515 -9.20546e-05)
(-0.0168577 0.00278682 -9.38028e-05)
(-0.01745 0.00103236 -0.000100695)
(-0.0176342 -0.000877893 -0.0001138)
(-0.0173558 -0.002925 -0.000131104)
(-0.0165577 -0.0050706 -0.000153773)
(-0.0151876 -0.00725117 -0.000179608)
(-0.0132042 -0.009367 -0.000204386)
(-0.0106004 -0.0112591 -0.000219585)
(-0.00747548 -0.0126099 -0.00021231)
(-0.00378039 -0.0125219 -0.00017655)
(-0.000873886 -0.00791967 -3.38331e-05)
(-0.000556466 0.00733284 -0.000247481)
(-0.00254852 0.0119264 -0.00021909)
(-0.00525246 0.012537 -0.000196449)
(-0.00775174 0.0120653 -0.000172191)
(-0.010142 0.0112251 -0.00015407)
(-0.0123551 0.0101443 -0.00013999)
(-0.0143529 0.00884578 -0.000129094)
(-0.016102 0.00733574 -0.000121831)
(-0.0175676 0.00561583 -0.000119013)
(-0.0187109 0.00368505 -0.000121587)
(-0.019487 0.00154228 -0.000130546)
(-0.0198424 -0.000809464 -0.000146694)
(-0.0197077 -0.00335938 -0.000171649)
(-0.0190011 -0.00607403 -0.000203659)
(-0.0176359 -0.00888688 -0.000241406)
(-0.0155277 -0.0116791 -0.000280012)
(-0.0126239 -0.0142413 -0.000308345)
(-0.00900719 -0.0161354 -0.000308553)
(-0.00461116 -0.0161525 -0.000269337)
(-0.0010814 -0.0102912 -8.85352e-05)
(-0.000612747 0.00895431 -0.000293784)
(-0.00281507 0.0145442 -0.000267854)
(-0.00580539 0.0152784 -0.000243315)
(-0.00856358 0.0147064 -0.000215532)
(-0.0112035 0.0136987 -0.000193992)
(-0.0136551 0.0124122 -0.000176804)
(-0.0158837 0.0108755 -0.000163378)
(-0.0178609 0.00909586 -0.000154451)
(-0.019556 0.00707257 -0.000151138)
(-0.0209331 0.00479849 -0.000154744)
(-0.0219463 0.00226251 -0.000166662)
(-0.0225376 -0.000546113 -0.000188252)
(-0.0226223 -0.00363397 -0.00022364)
(-0.0220879 -0.0069846 -0.000269987)
(-0.020802 -0.0105417 -0.000327159)
(-0.018614 -0.0141771 -0.000389776)
(-0.0153913 -0.0176276 -0.000443126)
(-0.0111621 -0.020298 -0.000461324)
(-0.00582544 -0.0205478 -0.000422022)
(-0.00140177 -0.013226 -0.000187552)
(-0.000681703 0.0107614 -0.000354085)
(-0.00313848 0.0174622 -0.000331998)
(-0.00647088 0.0183268 -0.00030457)
(-0.00953202 0.017639 -0.000271374)
(-0.0124593 0.0164469 -0.000244342)
(-0.0151818 0.0149413 -0.000222024)
(-0.017671 0.0131587 -0.000204298)
(-0.0199068 0.0111081 -0.000192334)
(-0.021867 0.00878599 -0.000187666)
(-0.0235232 0.00617708 -0.000192136)
(-0.0248338 0.00325545 -0.000207777)
(-0.025741 -1.2479e-05 -0.000236665)
(-0.0261487 -0.00365639 -0.00028694)
(-0.0259123 -0.00770231 -0.000354494)
(-0.0248412 -0.0121265 -0.000442474)
(-0.0226896 -0.0168158 -0.000545981)
(-0.0191917 -0.0214629 -0.000646179)
(-0.01424 -0.0252789 -0.00070473)
(-0.00766572 -0.0259971 -0.000675845)
(-0.00192901 -0.0170108 -0.000370914)
(-0.000766984 0.0127956 -0.000433913)
(-0.00353113 0.0207416 -0.000417677)
(-0.00726853 0.0217375 -0.000385535)
(-0.0106778 0.020908 -0.000343686)
(-0.0139276 0.0195059 -0.000307607)
(-0.0169474 0.0177616 -0.000276712)
(-0.0197194 0.0157226 -0.00025165)
(-0.0222361 0.0134015 -0.000234193)
(-0.0244897 0.0107925 -0.000226424)
(-0.0264665 0.00787118 -0.000230901)
(-0.0281388 0.00459316 -0.000250802)
(-0.0294523 0.000894907 -0.000290978)
(-0.0303154 -0.00329586 -0.000359476)
(-0.030563 -0.00806825 -0.000456403)
(-0.0299337 -0.0134734 -0.000591669)
(-0.028057 -0.0194633 -0.000763054)
(-0.0244625 -0.0257297 -0.000949154)
(-0.0187478 -0.0312715 -0.00109524)
(-0.0106175 -0.0329051 -0.0011053)
(-0.00287653 -0.0221598 -0.00072717)
(-0.000875691 0.0151106 -0.000541829)
(-0.00401436 0.0244564 -0.000534058)
(-0.00822993 0.025572 -0.000493792)
(-0.0120333 0.0245587 -0.000437675)
(-0.0156355 0.0229068 -0.00038652)
(-0.0189697 0.0208944 -0.000341315)
(-0.0220341 0.0185835 -0.000303918)
(-0.0248399 0.0159931 -0.000276884)
(-0.0274005 0.0131173 -0.000262892)
(-0.0297259 0.00992357 -0.000265247)
(-0.0318136 0.00634812 -0.000288489)
(-0.0336337 0.00229242 -0.000339371)
(-0.0351161 -0.00237982 -0.000425242)
(-0.0360967 -0.00784549 -0.000567807)
(-0.0362628 -0.0142911 -0.000772475)
(-0.0351013 -0.0218275 -0.00105156)
(-0.0318578 -0.0302581 -0.00138975)
(-0.0255719 -0.0384096 -0.00171738)
(-0.0157213 -0.0418135 -0.00184652)
(-0.0047599 -0.0296767 -0.00146921)
(-0.00102174 0.017781 -0.000691817)
(-0.0046254 0.0286986 -0.00069531)
(-0.00940635 0.0298995 -0.000640491)
(-0.013649 0.0286345 -0.000560273)
(-0.0176245 0.0266723 -0.000483818)
(-0.0212757 0.0243473 -0.000414875)
(-0.0246237 0.0217403 -0.000357136)
(-0.0277053 0.0188803 -0.000314052)
(-0.0305624 0.0157647 -0.000288749)
(-0.033239 0.012357 -0.00028502)
(-0.0357735 0.00857863 -0.000308565)
(-0.0381843 0.00429622 -0.000368192)
(-0.0404582 -0.000697681 -0.000476656)
(-0.042484 -0.00669658 -0.00066815)
(-0.0439576 -0.0141057 -0.000962134)
(-0.0442656 -0.0233345 -0.00139816)
(-0.0423263 -0.0345314 -0.0019879)
(-0.0362791 -0.0465285 -0.00266371)
(-0.0252321 -0.053269 -0.00313063)
(-0.00886075 -0.0418116 -0.0031004)
(-0.00123422 0.0209263 -0.000908172)
(-0.00543073 0.0335969 -0.000924867)
(-0.0108797 0.0347992 -0.000842764)
(-0.0156025 0.0331728 -0.00072065)
(-0.019957 0.0308108 -0.000601398)
(-0.0239062 0.0281083 -0.000493293)
(-0.0275034 0.0251677 -0.000402607)
(-0.0308175 0.0220308 -0.000333619)
(-0.0339254 0.018704 -0.000289307)
(-0.0369133 0.0151543 -0.000273034)
(-0.0398757 0.0112986 -0.000290572)
(-0.0429117 0.00697886 -0.000352158)
(-0.0461117 0.00192552 -0.000476737)
(-0.0495169 -0.00427584 -0.000706728)
(-0.0529707 -0.0122654 -0.00110204)
(-0.0559306 -0.0229688 -0.00171748)
(-0.0570922 -0.0373015 -0.00264979)
(-0.0534046 -0.0546146 -0.00388031)
(-0.0436315 -0.0675087 -0.00514574)
(-0.0181877 -0.0631165 -0.00662637)
(-0.00157595 0.0246549 -0.0012339)
(-0.00656907 0.0393024 -0.00126135)
(-0.0127949 0.0403859 -0.00113087)
(-0.018013 0.0382459 -0.000935151)
(-0.0227226 0.0353402 -0.000740902)
(-0.0269207 0.0321495 -0.000566297)
(-0.0306999 0.0288084 -0.000422045)
(-0.0341663 0.0253723 -0.00031247)
(-0.0374349 0.0218573 -0.000238561)
(-0.040639 0.0182453 -0.000201191)
(-0.0439423 0.0144763 -0.000204295)
(-0.0475493 0.0104197 -0.000258635)
(-0.0517037 0.00581396 -0.000383293)
(-0.0566757 0.000138426 -0.000602861)
(-0.0627466 -0.00754844 -0.000970461)
(-0.0699448 -0.0187849 -0.00163808)
(-0.0771024 -0.0357481 -0.002795)
(-0.0796908 -0.0599248 -0.00452684)
(-0.0756474 -0.0839271 -0.00684838)
(-0.0350323 -0.102824 -0.0120233)
(-0.00206171 0.0296576 -0.00175772)
(-0.00804431 0.0457541 -0.00174055)
(-0.0152816 0.0463114 -0.00150782)
(-0.0210424 0.0433292 -0.00117313)
(-0.0260782 0.0398147 -0.000861836)
(-0.03043 0.0361602 -0.000590583)
(-0.0342667 0.0324557 -0.00036967)
(-0.0377489 0.0287462 -0.000202086)
(-0.0410245 0.0250685 -8.54162e-05)
(-0.0442546 0.0214393 -1.55245e-05)
(-0.047644 0.0178527 1.46356e-05)
(-0.0514912 0.01424 1.09311e-05)
(-0.0562728 0.010431 -2.31697e-05)
(-0.0627119 0.0059721 -9.10486e-05)
(-0.071746 -0.00012855 -0.000211737)
(-0.0844424 -0.00992661 -0.000347998)
(-0.100609 -0.0271465 -0.000605539)
(-0.11213 -0.0589588 -0.000977212)
(-0.115735 -0.103948 -0.00214199)
(-0.0482434 -0.176284 -0.0138678)
(-0.00396561 0.0343689 -0.00261148)
(-0.0118732 0.0551308 -0.00274203)
(-0.0190829 0.0549722 -0.00228016)
(-0.0249587 0.0511552 -0.00170302)
(-0.0299198 0.0463573 -0.00112099)
(-0.0342559 0.0415014 -0.000622047)
(-0.0380528 0.0368339 -0.000229185)
(-0.0414438 0.0324553 5.56252e-05)
(-0.0445694 0.0284117 0.000245674)
(-0.0476058 0.0247241 0.000358444)
(-0.0507991 0.0214578 0.000419971)
(-0.0545066 0.0186789 0.000465081)
(-0.0593233 0.0165065 0.000563486)
(-0.0662421 0.0148689 0.000850909)
(-0.0768558 0.013146 0.00164894)
(-0.0928821 0.0085451 0.00366801)
(-0.115076 -0.00574367 0.00785713)
(-0.129128 -0.0528036 0.0143552)
(-0.139049 -0.137414 0.0181313)
(-0.0349024 -0.280948 -0.0083241)
(-0.00238672 0.0490843 -0.00423292)
(-0.0112369 0.0595429 -0.00346264)
(-0.0231512 0.0576715 -0.00271115)
(-0.029778 0.051933 -0.00159593)
(-0.0354915 0.0470627 -0.000730542)
(-0.039582 0.0424418 -3.23896e-05)
(-0.042683 0.0380743 0.00048143)
(-0.0451543 0.0339279 0.000829144)
(-0.0472543 0.0300647 0.00104471)
(-0.0491544 0.0265287 0.001164)
(-0.0510371 0.0235332 0.00124832)
(-0.053124 0.0212453 0.00138652)
(-0.055912 0.0202165 0.00178629)
(-0.060243 0.0207333 0.0028977)
(-0.0678156 0.0230288 0.00579094)
(-0.079371 0.0222465 0.0124412)
(-0.102305 0.0101137 0.0253633)
(-0.108106 -0.0538546 0.0399488)
(-0.125882 -0.180846 0.0418343)
(-0.000577788 -0.37177 -0.0121354)
(-0.0115463 0.0420839 -0.0059938)
(-0.0278056 0.0837932 -0.00640313)
(-0.0294679 0.0783481 -0.00494842)
(-0.0370238 0.0707947 -0.00306365)
(-0.0396571 0.0616882 -0.00122309)
(-0.040902 0.0532368 0.000170839)
(-0.0408974 0.0458317 0.00116277)
(-0.0402634 0.0394399 0.00179082)
(-0.0393357 0.0340378 0.00214363)
(-0.0382155 0.0294589 0.00227613)
(-0.0372325 0.0259301 0.00231676)
(-0.0361999 0.0236144 0.00237508)
(-0.0356845 0.0233186 0.00284839)
(-0.034839 0.0257832 0.00438438)
(-0.0361276 0.0325571 0.00882685)
(-0.0315417 0.0364803 0.0180808)
(-0.0408229 0.0317312 0.0360368)
(-0.0174873 -0.0410532 0.0543678)
(-0.0536286 -0.209505 0.0452097)
(0.0430963 -0.416797 -0.0353391)
(-0.0743031 0.105292 -0.014721)
(-0.059504 0.0665551 -0.00856537)
(-0.0584754 0.0625516 -0.0048059)
(-0.0386397 0.0534589 -0.00107232)
(-0.0215019 0.0446224 0.00137306)
(-0.00384071 0.0378086 0.00312976)
(0.0121805 0.0325281 0.00428271)
(0.0267511 0.0280141 0.00487615)
(0.0391799 0.0243766 0.00510716)
(0.050658 0.0209625 0.00495116)
(0.0598007 0.0186781 0.00461436)
(0.0692777 0.016448 0.00416248)
(0.0762439 0.0160753 0.00383428)
(0.0878094 0.0155143 0.00398355)
(0.0918081 0.0173084 0.00648939)
(0.123499 0.01446 0.0107927)
(0.114854 -0.000544415 0.022246)
(0.174768 -0.0525512 0.0415417)
(0.110334 -0.224988 0.0230495)
(0.127777 -0.406148 -0.0583724)
(0.12014 0.140466 -0.0155043)
(0.154297 0.0870765 -0.0156994)
(0.234078 0.0647948 -0.0145821)
(0.288826 0.0493032 -0.0121943)
(0.331651 0.0380911 -0.00942114)
(0.367977 0.0297232 -0.00682979)
(0.397412 0.0236806 -0.00428275)
(0.424259 0.0189159 -0.00230506)
(0.443313 0.015445 -0.000287041)
(0.465033 0.0126577 0.000871473)
(0.474803 0.0101845 0.00192713)
(0.495741 0.00914508 0.00250073)
(0.496047 0.00666839 0.00226261)
(0.52152 0.00730968 0.00311528)
(0.509632 0.00437601 0.00212918)
(0.544782 0.00326818 0.00391748)
(0.510345 -0.00317465 0.00441587)
(0.536803 -0.0245978 0.00185569)
(0.413202 -0.0640938 0.000106048)
(0.295097 -0.142047 -0.0740332)
(-0.000172704 0.000172202 -4.26655e-05)
(-0.000974236 0.00038582 -2.96542e-05)
(-0.00215114 0.000422497 -2.06419e-05)
(-0.00323424 0.000411303 -1.35087e-05)
(-0.00426971 0.000386407 -1.04127e-05)
(-0.00522121 0.000353308 -1.05059e-05)