/*--------------------------------*- C++ -*----------------------------------*\
  =========                 |
  \\      /  F ield         | OpenFOAM: The Open Source CFD Toolbox
   \\    /   O peration     | Website:  https://openfoam.org
    \\  /    A nd           | Version:  10
     \\/     M anipulation  |
\*---------------------------------------------------------------------------*/
FoamFile
{
    format      ascii;
    class       volScalarField;
    location    "4.55";
    object      p;
}
// * * * * * * * * * * * * * * * * * * * * * * * * * * * * * * * * * * * * * //

dimensions      [0 2 -2 0 0 0 0];

internalField   nonuniform List<scalar> 
496
(
26.4092
26.5137
23.2926
16.8144
27.1111
27.6662
23.5839
17.2566
32.0108
29.8894
21.3681
10.9513
39.6678
36.8242
32.8767
17.5359
8.40071
-0.633094
8.53434
-0.498853
-3.93619
-8.48277
-34.0758
-59.3982
-7.27543
-11.2419
-13.1223
-13.8492
-7.6675
-12.9654
-15.6749
-16.7195
-1.3101
-1.7847
-4.72812
-11.0323
-30.8738
-13.824
-5.13548
-6.5412
-14.5636
-15.4802
-16.2298
-16.5551
-16.8476
-17.4803
-18.1019
-17.9225
-16.8319
-15.5645
-14.6804
-14.0134
-13.215
-12.1538
-10.6384
-8.8868
-7.17728
-5.90036
-4.93683
-4.29208
-3.7379
-3.4319
-3.24871
-2.94398
-2.97464
-3.07361
-3.44718
-3.46071
-3.23643
-2.78507
-2.24868
-1.84724
-1.17577
-0.701097
0.0789194
0.661041
0.977131
1.09038
0.702249
0.283826
-17.6278
-17.8936
-17.4023
-16.9774
-17.187
-17.6696
-17.879
-17.4064
-16.6606
-16.0359
-15.3646
-14.4885
-13.3659
-12.098
-10.5217
-8.91926
-7.23891
-5.80603
-4.63695
-3.92941
-3.44599
-2.98442
-3.01683
-2.90593
-3.01351
-3.01802
-3.29551
-3.38439
-3.29767
-3.04686
-2.49595
-1.93524
-1.2579
-0.603357
0.250774
0.881984
1.27235
1.28471
0.844308
0.335452
-17.7255
-20.3065
-19.5153
-18.6105
-18.3736
-18.2422
-17.8927
-17.1152
-16.9296
-16.9356
-16.6183
-15.4816
-14.1425
-12.4504
-10.4986
-8.42797
-6.6402
-5.35245
-4.4844
-3.67788
-3.01539
-3.10995
-3.08479
-3.4508
-3.55649
-3.86203
-4.06625
-4.14539
-3.90146
-2.95564
-2.17376
-1.12182
-0.986183
-0.257521
0.199163
0.359607
1.24524
1.05081
1.16689
0.677384
-12.9363
-17.3898
-18.8506
-19.2879
-19.2286
-19.3308
-17.8332
-17.0386
-17.4853
-17.9545
-17.6688
-16.1594
-14.7721
-13.0632
-11.1366
-8.37697
-5.9749
-4.28053
-2.99963
-1.82278
-1.73343
-2.27376
-2.51703
-3.32625
-3.55148
-4.29163
-4.32133
-4.91926
-4.85935
-4.01785
-2.93305
-0.672842
1.09007
3.1773
2.66583
2.0371
1.66119
0.708536
1.12321
0.601083
44.4051
45.9588
60.2509
72.5167
44.5766
46.1349
60.445
72.4279
-29.6844
-25.0042
-11.9121
-34.7828
-31.6753
-19.989
-14.2044
-21.4848
-19.5524
-16.3033
-16.8939
-16.9268
-19.411
-18.9795
-20.1744
-18.1354
-18.1248
-17.4796
-15.8314
-14.7762
-13.6871
-12.325
-10.3192
-8.42276
-7.26432
-6.05677
-4.63506
-4.09184
-3.63287
-3.08339
-2.73495
-2.76582
-2.7924
-3.24426
-3.68599
-3.98647
-3.70671
-3.18877
-3.05133
-2.43807
-1.21245
-0.900871
-0.838353
-0.807811
-1.15858
-0.504279
0.0122912
-0.0719638
-26.5598
-21.3402
-17.9905
-19.4305
-18.0613
-22.2779
-21.9297
-19.1276
-19.0519
-18.2639
-16.3734
-13.9377
-11.7001
-10.3816
-9.22829
-8.16179
-7.77457
-7.95856
-7.39119
-6.2842
-5.40177
-4.32799
-3.10985
-2.11455
-1.51995
-1.09789
-1.07594
-1.11589
-1.1302
-1.31653
-1.56608
-1.91671
-1.83429
-2.57062
-3.2632
-3.4317
-2.91198
-1.73608
-0.905004
-0.0135471
39.6615
36.8346
33.1188
17.8331
32.1137
29.7353
21.2383
10.6487
27.0777
27.7521
23.6356
17.1766
26.4511
26.7578
23.4213
17.1178
-33.8313
-59.5752
-4.3042
-8.8995
8.30212
-0.644892
8.5034
-0.664166
-30.1417
-9.52478
-8.97464
-14.9764
-1.93323
-2.40477
-6.61296
-11.3348
-7.89566
-13.1758
-16.1682
-17.4177
-7.4887
-11.5758
-13.3714
-14.1182
-14.9056
-16.2251
-15.7306
-16.9926
-18.7272
-19.9049
-21.5572
-21.2443
-19.5771
-17.6664
-15.0245
-12.7352
-10.6842
-9.08361
-8.19793
-8.13003
-7.9193
-8.05078
-7.99612
-7.1334
-6.05129
-4.60641
-3.21601
-1.46599
0.0378976
1.17196
1.17163
1.25954
0.454705
-0.310235
-0.698748
-1.77056
-2.27234
-2.95897
-3.10506
-2.73821
-2.45174
-1.02044
-0.151765
-0.267453
-15.3096
-17.3018
-17.4817
-17.9817
-18.8556
-19.3683
-19.7433
-19.5656
-18.2349
-16.4268
-14.4196
-12.7091
-11.4554
-10.5926
-9.86245
-9.14624
-8.61087
-8.11279
-7.52077
-6.38783
-5.20087
-4.03474
-3.20493
-2.37919
-1.67012
-0.835214
-0.28273
-0.190312
-0.449763
-0.883205
-1.1566
-1.68722
-2.18433
-2.43226
-2.52722
-2.34922
-1.72261
-0.786371
0.0140511
0.292026
-17.6802
-17.6029
-17.5569
-17.8176
-18.2915
-18.7108
-18.8007
-18.5442
-17.5549
-16.0816
-14.556
-13.0589
-11.7406
-10.6175
-9.69112
-8.90136
-8.21359
-7.42389
-6.68828
-5.83444
-4.96407
-4.15544
-3.51606
-2.89478
-1.95071
-1.13708
-0.429883
-0.214604
-0.309069
-0.600162
-0.772426
-0.791176
-1.02742
-1.35145
-1.47403
-1.25865
-1.07716
-0.826768
-0.442752
-0.221562
-14.5846
-15.1519
-15.8389
-16.7346
-17.5866
-18.2334
-18.4849
-18.2045
-17.3428
-15.8819
-14.3843
-12.9662
-11.707
-10.61
-9.75898
-9.03711
-8.33398
-7.533
-6.74342
-5.87598
-4.84451
-4.02828
-3.52659
-3.07863
-2.27517
-1.30689
-0.562431
-0.424085
-0.487196
-0.650643
-0.704314
-0.706502
-1.00205
-1.13951
-1.3483
-1.26342
-1.03155
-0.936193
-0.4642
-0.0756356
)
;

boundaryField
{
    inlet
    {
        type            zeroGradient;
    }
    outlet
    {
        type            fixedValue;
        value           uniform 0;
    }
    obstacle
    {
        type            zeroGradient;
    }
    upperWall
    {
        type            zeroGradient;
    }
    lowerWall
    {
        type            zeroGradient;
    }
    frontAndBack
    {
        type            empty;
    }
}


// ************************************************************************* //
