/*--------------------------------*- C++ -*----------------------------------*\
  =========                 |
  \\      /  F ield         | OpenFOAM: The Open Source CFD Toolbox
   \\    /   O peration     | Website:  https://openfoam.org
    \\  /    A nd           | Version:  10
     \\/     M anipulation  |
\*---------------------------------------------------------------------------*/
FoamFile
{
    format      ascii;
    class       surfaceScalarField;
    location    "4.55";
    object      phi;
}
// * * * * * * * * * * * * * * * * * * * * * * * * * * * * * * * * * * * * * //

dimensions      [0 3 -1 0 0 0 0];

internalField   nonuniform List<scalar> 
928
(
0.096083
0.00391702
0.103182
-0.00709892
0.107145
-0.00396269
-0.00865325
0.115798
0.0950378
0.00887925
0.105713
-0.017774
0.102887
-0.00113647
-0.017919
0.112152
0.0957482
0.013131
0.108628
-0.0306539
0.103467
0.00402429
-0.0387446
0.124293
0.102777
0.0103538
0.0940282
-0.0219048
0.0983095
-0.000257062
0.147763
-0.0881982
0.111037
0.00476114
-0.0155036
0.12654
0.109173
0.00774011
-0.0396394
0.133309
0.125601
0.00643185
-0.0438419
0.129804
0.154195
0.110353
0.126023
0.000517205
0.125816
0.00020724
0.127041
-0.00122469
-0.00217951
0.12922
0.134452
-0.000625918
0.132471
0.00218882
0.133006
-0.00175958
-0.00435393
0.13518
0.131743
-0.00256471
0.129375
0.00455683
0.135856
-0.00824127
-0.00332959
0.134832
0.114529
-0.00674115
0.0919715
0.0271147
0.0879401
-0.00420988
0.0924191
-0.00780856
0.131079
-0.00185896
0.132005
-0.000925838
0.132204
-0.000199346
0.132559
-0.000355195
0.13233
0.000229165
0.132089
0.00024128
0.131535
0.000553765
0.131488
4.69488e-05
0.131367
0.000121661
0.130949
0.000417437
0.129335
0.0016136
0.127274
0.00206125
0.12453
0.00274464
0.121816
0.00271364
0.118997
0.00281881
0.116575
0.00242205
0.114745
0.00183048
0.113389
0.00135553
0.112991
0.000398078
0.112393
0.000598219
0.112866
-0.000473524
0.112456
0.000410009
0.112658
-0.000201584
0.111402
0.00125571
0.110221
0.00118167
0.107942
0.00227805
0.105397
0.00254537
0.102892
0.00250516
0.0995908
0.00330117
0.0980276
0.00156321
0.0954335
0.0025941
0.095719
-0.000285528
0.0955386
0.000180348
0.096835
-0.00129636
0.0990096
-0.00217456
0.100483
-0.00147295
0.103614
-0.00313122
0.105332
-0.00171823
0.107937
-0.00260493
-0.0014287
0.135695
-0.00237419
0.13624
-0.00147014
0.136996
-0.000955201
0.137437
-0.000797145
0.137852
-0.000185834
0.138588
-0.000494018
0.138723
0.000418258
0.139527
-0.000756848
0.139577
7.15259e-05
0.13965
0.000344852
0.138509
0.00275462
0.137154
0.00341638
0.135233
0.0046648
0.13331
0.00463753
0.13134
0.00478884
0.129219
0.00454275
0.127845
0.00320413
0.126363
0.00283798
0.126338
0.000422742
0.12592
0.00101641
0.126918
-0.0014713
0.127104
0.000223899
0.12789
-0.000988111
0.127445
0.00170094
0.126484
0.00214284
0.125272
0.00348953
0.122692
0.00512588
0.121297
0.00390057
0.118332
0.00626607
0.116842
0.00305329
0.114739
0.00469619
0.113807
0.000646836
0.113987
3.55796e-07
0.114356
-0.00166567
0.116336
-0.00415435
0.117397
-0.00253388
0.120058
-0.00579196
0.121347
-0.0030069
0.123816
-0.00507394
-0.00343413
0.132388
6.9828e-05
0.132496
-0.00157786
0.132715
-0.00117498
0.133596
-0.00167795
0.133879
-0.000469128
0.134476
-0.00109009
0.135448
-0.000554345
0.135732
-0.00104068
0.135859
-5.51839e-05
0.135837
0.000366563
0.136214
0.00237784
0.136928
0.00270234
0.137042
0.00455101
0.136546
0.00513283
0.135452
0.00588347
0.13458
0.00541393
0.133738
0.00404686
0.133006
0.00356926
0.131671
0.00175847
0.131415
0.00127197
0.131197
-0.00125312
0.13163
-0.000209496
0.132356
-0.00171371
0.13397
8.68222e-05
0.135319
0.000793908
0.136503
0.00230589
0.136882
0.00474637
0.135812
0.00497052
0.134506
0.0075718
0.132077
0.00548309
0.13125
0.00552264
0.129548
0.00234861
0.128235
0.0013137
0.127121
-0.000551383
0.124928
-0.00196192
0.122517
-0.000122975
0.120402
-0.00367658
0.117986
-0.000591158
0.117429
-0.00451693
-0.0043344
0.0942176
-0.0017287
0.0936465
-0.00100671
0.0884908
0.00398072
0.0908835
-0.00407065
0.0874478
0.00296652
0.0825018
0.00385591
0.0823954
-0.00044792
0.0809575
0.000397268
0.0808929
9.36902e-06
0.079961
0.00129848
0.0814539
0.000884884
0.0846745
-0.000518237
0.0884297
0.000795798
0.0893223
0.00424024
0.0895376
0.00566821
0.0894462
0.00550536
0.0869646
0.00652846
0.0834942
0.00703963
0.0814158
0.00383691
0.0816399
0.00104781
0.0812859
-0.000899131
0.0839481
-0.00287167
0.0872811
-0.00504668
0.0925634
-0.00519554
0.0979469
-0.00458952
0.103844
-0.00359124
0.109614
-0.00102396
0.113888
0.000696772
0.117899
0.00356116
0.118503
0.00487833
0.116279
0.00774688
0.108035
0.0105924
0.0984704
0.0108788
0.0863614
0.0115576
0.0755286
0.00887081
0.0692029
0.00620277
0.0653724
0.000153859
0.0657803
-0.000999065
0.0678465
-0.00658309
-0.0085663
0.110679
-0.00032539
0.0886621
0.000112299
0.0886359
-0.000230907
0.000437703
0.109575
-0.00990041
0.0878088
0.0218786
0.0874211
0.000156729
0.0878588
7.99835e-05
-0.00682113
0.000563124
0.0266316
-0.00816956
0.00452281
-0.0480901
0.032112
-0.00142069
-0.00540044
0.0145304
0.0106805
0.0167053
0.00234785
-0.0182996
-0.0130852
0.012286
0.0180973
0.0147222
-0.00344286
0.00523584
0.0134671
0.00100016
0.000165032
0.00148742
0.00247926
-0.00972784
0.0150712
-0.00613961
-0.00403614
-0.00172147
-0.00402087
0.000179204
-0.00189131
0.00202992
-0.000552229
0.00360285
-0.000688038
0.00667119
-0.00358658
0.0105117
-0.00304475
0.0142483
0.000503713
0.0164512
0.0034653
0.0183357
0.00362085
0.020506
0.00435815
0.0223989
0.00514675
0.0245912
0.00164461
0.0267404
-0.00110146
0.0299253
-0.00408397
0.0330933
-0.00603967
0.036721
-0.0086744
0.0402976
-0.00877214
0.0432751
-0.00756705
0.0464889
-0.00680504
0.0487281
-0.00326316
0.0498748
-0.000449909
0.0503359
0.00310008
0.0490707
0.00614348
0.047455
0.00936256
0.0456677
0.0123798
0.0435036
0.0130428
0.0431211
0.0119401
0.043953
0.00803887
0.0453451
0.00481066
0.047462
-0.00196302
0.0500346
-0.00357161
0.0525187
-0.00906717
-0.00965786
-0.0133179
0.0131155
-0.00847749
-0.00828325
-0.000438723
0.00542831
-0.000259416
-1.42708e-05
-0.00189152
0.00411136
0.00851212
0.00466753
0.0082496
-0.00377362
0.00592695
-0.00169822
0.005154
-0.00111835
0.00873729
-0.00413552
0.013371
-0.00532174
0.0156729
-0.00588853
0.0165184
-0.00389023
0.0199576
-0.00293547
0.024835
-0.00141211
0.0280274
0.000428437
0.0313223
0.00106331
0.036372
9.70415e-05
0.0397372
-0.00172064
0.0413188
-0.00268306
0.0422929
-0.00505807
0.0429071
-0.00665389
0.0416165
-0.00738379
0.0402712
-0.00742678
0.0391467
-0.00644262
0.0383239
-0.00598224
0.0381207
-0.00305988
0.0390937
-0.00142295
0.0401943
0.00199947
0.0423103
0.00402751
0.0452057
0.00646722
0.0499012
0.00768423
0.055748
0.00719603
0.0612784
0.00640973
0.06736
0.00195727
0.07224
-6.93177e-05
0.0753834
-0.00510648
0.0774182
-0.00560637
0.0755028
-0.00715173
-0.00639003
0.103751
-0.0136516
0.0943742
0.0312556
0.0991899
-0.00465903
0.0395615
0.147487
0.0958458
-0.00949742
0.108364
0.0187374
0.103857
-0.000152347
0.0191784
0.12424
0.0946374
-0.00413484
0.105814
0.00756073
0.102357
0.00330448
0.00960751
0.111928
0.0958652
0.103426
0.10673
0.116338
0.154887
-0.0074
0.0448512
0.110036
0.125824
-0.00898334
0.0411126
0.129562
0.108358
-0.00541276
0.0161816
0.133289
0.110925
0.127107
0.102919
0.00171672
0.113011
0.000588808
0.113905
0.00145308
0.000309527
0.100511
0.132169
-0.000890258
0.133862
-0.00110373
0.132952
0.00236322
0.00267657
0.130585
0.133377
-0.00097885
0.131908
0.00036564
0.133301
0.000969634
0.00170765
0.13427
0.126128
0.126494
0.127463
0.129171
0.109976
0.00365067
0.101382
0.000310139
0.103169
0.0036413
0.101054
0.00210047
0.103299
0.00186707
0.10627
0.00169665
0.103719
-0.00122246
0.105343
-0.0033224
0.107515
-0.00329064
0.107537
-0.00415782
0.10592
-0.00370454
0.103935
-0.00390314
0.102682
-0.00263714
0.1015
-0.00175404
0.100903
-0.000815006
0.102151
-0.000819837
0.10425
-0.0010353
0.106687
-0.0023399
0.109865
-0.00489899
0.113153
-0.00597054
0.115383
-0.0072884
0.115086
-0.00635677
0.113456
-0.00575346
0.109377
-0.00334809
0.104395
-0.00146097
0.0979366
0.000476372
0.0918203
0.0030564
0.0877857
0.00261168
0.0846899
0.00509525
0.085479
0.00323844
0.0865683
0.00537786
0.0914696
0.00278295
0.0966926
0.0019731
0.103027
7.55618e-05
0.109641
-0.00465729
0.114054
-0.0044822
0.11979
-0.0108426
0.121878
-0.00769375
0.127777
-0.0130508
-0.0107387
0.131614
0.0026217
0.130166
0.00175793
0.132305
0.0015021
0.132978
0.00142781
0.13395
0.000894561
0.135628
1.91365e-05
0.13467
-0.000265143
0.133591
-0.00224318
0.13264
-0.00233977
0.131806
-0.00332322
0.130803
-0.00270172
0.129647
-0.00274681
0.128909
-0.00189933
0.12884
-0.00168489
0.129156
-0.00113146
0.129695
-0.00135914
0.130711
-0.00205137
0.13086
-0.00248836
0.130102
-0.00414073
0.128546
-0.00441508
0.126792
-0.00553397
0.124973
-0.00453776
0.123621
-0.00440195
0.122486
-0.00221336
0.12141
-0.000384656
0.120674
0.00121303
0.120632
0.00309823
0.12067
0.00257363
0.121292
0.00447328
0.122482
0.00204777
0.12424
0.00362069
0.126722
0.000300354
0.128787
-9.13801e-05
0.131655
-0.00279312
0.132307
-0.00530867
0.132239
-0.00441401
0.128768
-0.00737215
0.124344
-0.00326998
0.116044
-0.00475077
-0.00383355
0.135449
0.00144263
0.136157
0.00105034
0.136902
0.000757095
0.137942
0.000387614
0.13847
0.000366397
0.139028
-0.000538962
0.139016
-0.000252606
0.137907
-0.00113402
0.1368
-0.00123282
0.135321
-0.00184418
0.134273
-0.00165382
0.133033
-0.00150683
0.132183
-0.00104974
0.131428
-0.000929355
0.131196
-0.000899266
0.130815
-0.000978318
0.130177
-0.00141333
0.129273
-0.00158509
0.127571
-0.00243868
0.125755
-0.00259911
0.123278
-0.00305681
0.121174
-0.00243322
0.118945
-0.00217355
0.117696
-0.000964548
0.117639
-0.000327316
0.118172
0.000680181
0.119836
0.0014345
0.121139
0.00127081
0.123343
0.0022685
0.12471
0.000680922
0.126789
0.00154201
0.127524
-0.000435016
0.127798
-0.000365516
0.127079
-0.00207343
0.124761
-0.00299126
0.12353
-0.00318319
0.120826
-0.00466766
0.120144
-0.00258815
0.118325
-0.00293188
-0.00126222
0.130613
0.131664
0.132421
0.132808
0.133175
0.132636
0.132383
0.131249
0.130016
0.128172
0.126518
0.125012
0.123962
0.123033
0.122133
0.121155
0.119742
0.118157
0.115718
0.113119
0.110062
0.107629
0.105455
0.104491
0.104163
0.104843
0.106278
0.107549
0.109817
0.110498
0.11204
0.111605
0.11124
0.109166
0.106175
0.102992
0.0983241
0.095736
0.0928041
)
;

boundaryField
{
    inlet
    {
        type            calculated;
        value           nonuniform List<scalar> 10(-0.1 -0.1 -0.1 -0.1 -0.1 -0.1 -0.1 -0.1 -0.1 -0.1);
    }
    outlet
    {
        type            calculated;
        value           nonuniform List<scalar> 10(0.109366 0.125821 0.11833 0.0720784 0.0536102 0.0722349 0.132125 0.109139 0.115754 0.0915419);
    }
    obstacle
    {
        type            calculated;
        value           uniform 0;
    }
    upperWall
    {
        type            calculated;
        value           uniform 0;
    }
    lowerWall
    {
        type            calculated;
        value           uniform 0;
    }
    frontAndBack
    {
        type            empty;
        value           nonuniform List<scalar> 0();
    }
}


// ************************************************************************* //
