/*--------------------------------*- C++ -*----------------------------------*\
  =========                 |
  \\      /  F ield         | OpenFOAM: The Open Source CFD Toolbox
   \\    /   O peration     | Website:  https://openfoam.org
    \\  /    A nd           | Version:  10
     \\/     M anipulation  |
\*---------------------------------------------------------------------------*/
FoamFile
{
    format      ascii;
    class       volScalarField;
    location    "5.825";
    object      p;
}
// * * * * * * * * * * * * * * * * * * * * * * * * * * * * * * * * * * * * * //

dimensions      [0 2 -2 0 0 0 0];

internalField   nonuniform List<scalar> 
475
(
-0.0571169
-0.0825272
-0.111938
-0.135494
-0.158272
-0.0829618
-0.0961865
-0.11241
-0.131505
-0.148444
-0.0810489
-0.090412
-0.105292
-0.122918
-0.139163
-0.0804819
-0.0911193
-0.105928
-0.121533
-0.134952
-0.0505805
-0.0774229
-0.101076
-0.118693
-0.131456
-0.176576
-0.186828
-0.19114
-0.19572
-0.203209
-0.213001
-0.222392
-0.22787
-0.227723
-0.221131
-0.208112
-0.190653
-0.171453
-0.152787
-0.135396
-0.119731
-0.108066
-0.101424
-0.0980522
-0.0958681
-0.0917987
-0.083465
-0.072607
-0.061676
-0.0507122
-0.0387551
-0.0264856
-0.0158472
-0.00833553
-0.00365052
-0.000328708
0.00292844
0.00637577
0.00947221
0.0116004
0.0125291
0.0124196
0.0115915
0.0103407
0.008874
0.00730817
0.00570114
0.00407332
0.00244333
0.000812597
-0.165024
-0.176919
-0.183301
-0.186728
-0.18962
-0.192457
-0.194464
-0.194368
-0.19155
-0.185224
-0.176159
-0.16568
-0.155373
-0.146213
-0.137326
-0.12918
-0.123724
-0.121092
-0.119538
-0.117312
-0.11212
-0.10186
-0.0880721
-0.0734543
-0.0587127
-0.0440817
-0.0301186
-0.018275
-0.00959277
-0.00370291
0.000728488
0.00478577
0.00866158
0.0118928
0.0139755
0.0147557
0.0144209
0.0133067
0.0117369
0.00994962
0.00808819
0.00622747
0.00439448
0.00260683
0.000859684
-0.152622
-0.162423
-0.168119
-0.170854
-0.171405
-0.17052
-0.168081
-0.164332
-0.159412
-0.153873
-0.149583
-0.147286
-0.147238
-0.144601
-0.138177
-0.135676
-0.137177
-0.137405
-0.134752
-0.129575
-0.120572
-0.107039
-0.0914538
-0.0752972
-0.0592052
-0.0435051
-0.029187
-0.0174298
-0.00863575
-0.00226375
0.00267492
0.00694907
0.0107333
0.0137291
0.0155904
0.0162141
0.0157512
0.0144894
0.0127326
0.0107376
0.00866397
0.00661214
0.00462193
0.00271478
0.000879771
-0.145792
-0.153491
-0.158223
-0.159811
-0.158588
-0.155035
-0.148982
-0.1415
-0.133103
-0.126819
-0.124615
-0.131781
-0.146428
-0.1472
-0.13256
-0.12378
-0.127433
-0.135299
-0.138632
-0.135299
-0.12591
-0.110853
-0.0927851
-0.0744468
-0.0569762
-0.0410908
-0.0274293
-0.0163681
-0.00786925
-0.00140063
0.00376253
0.00813937
0.011846
0.014688
0.0164201
0.0169662
0.0164544
0.0151342
0.0132853
0.0111827
0.00899203
0.00682369
0.00474289
0.00276738
0.000881272
-0.140934
-0.147832
-0.152079
-0.153053
-0.151016
-0.145839
-0.138216
-0.128655
-0.119037
-0.111479
-0.110206
-0.121269
-0.13946
-0.147763
-0.145373
-0.139818
-0.136039
-0.134788
-0.133073
-0.127846
-0.117674
-0.103733
-0.0873969
-0.0704038
-0.0540223
-0.0391109
-0.0262231
-0.0156722
-0.00735291
-0.000831391
0.00442616
0.00880851
0.0124156
0.0150986
0.0166818
0.0171187
0.0165344
0.0151723
0.0133133
0.0111752
0.00897783
0.0068121
0.00473361
0.00275602
0.000872364
-0.204318
-0.205619
-0.207615
-0.210324
-0.21708
-0.228483
-0.241465
-0.251297
-0.253668
-0.246508
-0.229259
-0.20273
-0.168867
-0.131025
-0.09308
-0.0586743
-0.0301065
-0.00853551
0.00587852
0.0139916
0.0172333
0.0173193
0.0159163
0.0141808
0.012592
0.0111183
0.00966349
0.00760857
0.00479913
0.00157808
-0.00119824
-0.00290589
-0.00333477
-0.0027091
-0.00128028
0.000474369
0.00219642
0.00358961
0.00448043
0.00482634
0.00466684
0.00409131
0.00319174
0.00205531
0.00075095
-0.19709
-0.199812
-0.20319
-0.209443
-0.219708
-0.234208
-0.24881
-0.259475
-0.262656
-0.256561
-0.24037
-0.21411
-0.179838
-0.141108
-0.101686
-0.066467
-0.0371652
-0.0150525
-0.000237575
0.008452
0.0123226
0.0128848
0.0120462
0.0113339
0.0108892
0.00997624
0.00808909
0.00576802
0.00326605
0.00119376
-0.000284191
-0.00132405
-0.0019607
-0.00183042
-0.000879085
0.000678261
0.00235914
0.0037462
0.00462655
0.00494653
0.00475359
0.00414625
0.00322352
0.00206834
0.00075301
-0.20585
-0.204372
-0.205439
-0.211006
-0.223129
-0.239562
-0.255314
-0.267048
-0.270705
-0.264455
-0.24786
-0.221794
-0.188226
-0.1503
-0.11243
-0.0782767
-0.0498021
-0.0284665
-0.0142769
-0.00578385
-0.00154888
-0.000118982
4.2802e-05
0.000199272
0.000813811
0.00161573
0.00218292
0.00238246
0.0023014
0.00185386
0.00110355
0.000342465
-7.66328e-05
0.000159629
0.00105943
0.00236512
0.00368699
0.0047305
0.00530308
0.00538551
0.00501616
0.00428565
0.00328231
0.00207742
0.000737399
-0.192985
-0.195208
-0.197432
-0.20441
-0.216719
-0.232806
-0.248176
-0.259532
-0.264032
-0.259576
-0.244934
-0.221124
-0.190677
-0.15652
-0.122973
-0.0931373
-0.0681276
-0.049543
-0.0376658
-0.0302802
-0.0256133
-0.0226537
-0.0201693
-0.017337
-0.0140904
-0.0105155
-0.00684852
-0.00375174
-0.00163731
-0.000341657
0.000560156
0.00146864
0.00253482
0.00366299
0.00476243
0.0057477
0.00646801
0.00680326
0.00673726
0.00630839
0.00558614
0.00461474
0.00344956
0.00214107
0.000734972
-0.226948
-0.205347
-0.202407
-0.20456
-0.213931
-0.228253
-0.241963
-0.25107
-0.253506
-0.247999
-0.233791
-0.212364
-0.186505
-0.158549
-0.131516
-0.108237
-0.0899101
-0.0768888
-0.0688515
-0.0637795
-0.0590127
-0.0534397
-0.0469753
-0.0400458
-0.0327465
-0.0249068
-0.0169585
-0.0102821
-0.00572091
-0.00281765
-0.000545969
0.00181845
0.00435211
0.00668469
0.00842907
0.00938891
0.00961634
0.00927916
0.00855451
0.00757077
0.00640463
0.00510955
0.00372331
0.00226703
0.000760081
)
;

boundaryField
{
    inlet
    {
        type            zeroGradient;
    }
    outlet
    {
        type            fixedValue;
        value           uniform 0;
    }
    upperWall
    {
        type            zeroGradient;
    }
    lowerWall
    {
        type            zeroGradient;
    }
    frontAndBack
    {
        type            empty;
    }
}


// ************************************************************************* //
