/*--------------------------------*- C++ -*----------------------------------*\
  =========                 |
  \\      /  F ield         | OpenFOAM: The Open Source CFD Toolbox
   \\    /   O peration     | Website:  https://openfoam.org
    \\  /    A nd           | Version:  10
     \\/     M anipulation  |
\*---------------------------------------------------------------------------*/
FoamFile
{
    format      ascii;
    class       surfaceScalarField;
    location    "9.025";
    object      phi;
}
// * * * * * * * * * * * * * * * * * * * * * * * * * * * * * * * * * * * * * //

dimensions      [0 3 -1 0 0 0 0];

internalField   nonuniform List<scalar> 
760
(
-1.34736e-05
1.34736e-05
-4.34874e-05
3.00138e-05
-7.96722e-05
3.61848e-05
-0.000117994
3.83216e-05
-0.000157248
3.92546e-05
-0.00019715
3.99015e-05
-0.000237402
4.02524e-05
-0.000277326
3.99232e-05
-0.000315661
3.83357e-05
-0.000350402
3.47405e-05
-0.000378655
2.82531e-05
-0.000396599
1.79445e-05
-0.000399656
3.05682e-06
-0.000382906
-1.67502e-05
-0.000342581
-4.03251e-05
-0.00027795
-6.46312e-05
-0.000194046
-8.39039e-05
-0.000103899
-9.0147e-05
-2.87648e-05
-7.51341e-05
-2.87648e-05
-3.25784e-05
4.60521e-05
-9.18732e-05
8.93085e-05
-0.000161324
0.000105635
-0.000234236
0.000111234
-0.000308096
0.000113115
-0.000381767
0.000113572
-0.000454167
0.000112652
-0.000523696
0.000109453
-0.000587934
0.000102573
-0.000643409
9.02158e-05
-0.000685455
7.0299e-05
-0.000708091
4.058e-05
-0.00070516
1.25943e-07
-0.000669225
-5.26851e-05
-0.000595406
-0.000114144
-0.000483191
-0.000176846
-0.000340546
-0.000226549
-0.000187929
-0.000242764
-5.86023e-05
-0.000204461
-8.73671e-05
-4.14813e-05
8.75334e-05
-0.000114719
0.000162546
-0.000199591
0.000190508
-0.00028806
0.000199703
-0.000377123
0.000202177
-0.00046539
0.00020184
-0.000551587
0.000198849
-0.000633932
0.000191798
-0.000709808
0.000178449
-0.000775477
0.000155886
-0.00082584
0.000120661
-0.000854489
6.92292e-05
-0.000853373
-9.89676e-07
-0.00081354
-9.25185e-05
-0.000727506
-0.000200178
-0.000592451
-0.0003119
-0.000416376
-0.000402624
-0.000225625
-0.000433515
-6.67838e-05
-0.000363302
-0.000154151
-4.4927e-05
0.00013246
-0.000124234
0.000241853
-0.000215865
0.000282139
-0.000311212
0.000295051
-0.000407269
0.000298235
-0.000502831
0.000297401
-0.000596896
0.000292914
-0.00068804
0.000282942
-0.000774044
0.000264453
-0.000851519
0.000233361
-0.00091545
0.000184593
-0.000958707
0.000112486
-0.00097192
1.22238e-05
-0.000942788
-0.000121651
-0.000858132
-0.000284834
-0.00070851
-0.000461523
-0.000497657
-0.000613476
-0.000259408
-0.000671765
-6.6746e-05
-0.000555964
-0.000220897
-4.57073e-05
0.000178168
-0.000127279
0.000323425
-0.000221772
0.000376631
-0.00032039
0.000393669
-0.000420367
0.000398212
-0.000520955
0.000397988
-0.000621775
0.000393734
-0.000722182
0.000383349
-0.000820844
0.000363115
-0.000915246
0.000327763
-0.00100096
0.000270309
-0.00107064
0.000182163
-0.00111277
5.43513e-05
-0.00111126
-0.000123155
-0.00104366
-0.000352436
-0.000887048
-0.000618136
-0.00063149
-0.000869035
-0.000315196
-0.000988059
-6.50364e-05
-0.000806123
-0.000285933
-4.52565e-05
0.000223424
-0.000127317
0.000405485
-0.000222933
0.000472247
-0.000323277
0.000494013
-0.000425931
0.000500867
-0.00053079
0.000502847
-0.00063837
0.000501314
-0.000749192
0.000494171
-0.000863365
0.000477288
-0.000980001
0.000444399
-0.00109626
0.000386564
-0.0012058
0.000291709
-0.00129647
0.000145024
-0.0013492
-7.04253e-05
-0.00132909
-0.000372546
-0.00118804
-0.000759194
-0.000879705
-0.00117737
-0.000433701
-0.00143406
-7.38035e-05
-0.00116602
-0.000359737
-4.4142e-05
0.000267566
-0.000125734
0.000487077
-0.000221478
0.00056799
-0.000322534
0.000595069
-0.000426863
0.000605196
-0.000535096
0.00061108
-0.000648868
0.000615087
-0.000770254
0.000615557
-0.000901461
0.000608494
-0.00104434
0.000587278
-0.00119944
0.000541663
-0.00136437
0.000456636
-0.00153071
0.000311372
-0.00168022
7.90803e-05
-0.00176572
-0.00028704
-0.00169218
-0.000832742
-0.0013358
-0.00153374
-0.000700061
-0.0020698
-0.000136996
-0.00172909
-0.000496733
-4.2533e-05
0.000310099
-0.000122951
0.000567496
-0.000217937
0.000662976
-0.000318556
0.000695688
-0.000423097
0.000709737
-0.000532936
0.00072092
-0.000650922
0.000733072
-0.000780991
0.000745627
-0.000928155
0.000755658
-0.00109838
0.0007575
-0.00129817
0.000741459
-0.00153381
0.000692277
-0.00180891
0.000586466
-0.00211092
0.000381093
-0.00238659
-1.13745e-05
-0.00244713
-0.000772201
-0.00206356
-0.00191731
-0.00123359
-0.00289977
-0.000363699
-0.00259898
-0.000860432
-4.05244e-05
0.000350624
-0.000119163
0.000646134
-0.000212426
0.000756239
-0.000311106
0.000794369
-0.000413686
0.000812316
-0.000522174
0.000829408
-0.000640546
0.000851444
-0.000774607
0.000879687
-0.000932462
0.000913512
-0.00112536
0.000950403
-0.00136891
0.000985004
-0.00168402
0.00100739
-0.00209406
0.0009965
-0.00259697
0.000884005
-0.00308338
0.000475032
-0.00330002
-0.000555556
-0.00294937
-0.00226796
-0.00206875
-0.00378039
-0.000873567
-0.00379416
-0.001734
-3.83329e-05
0.000388956
-0.000114793
0.000722594
-0.000205344
0.00084679
-0.000300275
0.000889299
-0.000398027
0.000910068
-0.000500993
0.000932373
-0.000613932
0.000964384
-0.000744069
0.00100982
-0.00090214
0.00107158
-0.00110436
0.00115262
-0.00137554
0.00125619
-0.00175114
0.00138299
-0.00226677
0.00151213
-0.00291203
0.00152927
-0.0035259
0.0010889
-0.00381192
-0.000269545
-0.00360733
-0.00247255
-0.00290921
-0.00447851
-0.00155715
-0.00514623
-0.00329115
-3.64215e-05
0.000425378
-0.000110774
0.000796947
-0.000197809
0.000933825
-0.000287057
0.000978548
-0.000376658
0.000999669
-0.000468999
0.00102471
-0.000568952
0.00106434
-0.000684036
0.00112491
-0.000825775
0.00121332
-0.00101219
0.00133904
-0.00127129
0.00151528
-0.00164098
0.00175268
-0.00214762
0.00201877
-0.00274806
0.00212971
-0.00328469
0.00162553
-0.00353555
-1.86886e-05
-0.00349788
-0.00251022
-0.00307034
-0.00490604
-0.00190934
-0.00630723
-0.00520048
-3.57362e-05
0.000461114
-0.000108969
0.00087018
-0.000192096
0.00101695
-0.000273768
0.00106022
-0.000351785
0.00107769
-0.00042814
0.00110107
-0.000506913
0.00114311
-0.000594174
0.00121217
-0.000698942
0.00131809
-0.000834634
0.00147473
-0.00102009
0.00170074
-0.00127545
0.00200805
-0.00160487
0.00234819
-0.00195748
0.00248232
-0.00225695
0.001925
-0.00244157
0.000165931
-0.00253285
-0.00241894
-0.00243904
-0.00499985
-0.0017101
-0.00703617
-0.00691058
-3.74141e-05
0.000498528
-0.000111694
0.00094446
-0.000191466
0.00109672
-0.000264487
0.00113324
-0.000328107
0.00114131
-0.000383749
0.00115671
-0.000434183
0.00119354
-0.000482578
0.00126056
-0.00053284
0.00136835
-0.000589341
0.00153123
-0.00065589
0.00176729
-0.000729787
0.00208195
-0.000805621
0.00242402
-0.000859063
0.00253576
-0.000918132
0.00198407
-0.00101949
0.000267291
-0.00123893
-0.00219951
-0.00149931
-0.00473947
-0.00124433
-0.00729114
-0.00815491
-4.54862e-05
0.000544014
-0.000125472
0.00102445
-0.000202018
0.00117327
-0.000263907
0.00119513
-0.000310307
0.00118771
-0.000342523
0.00118893
-0.00036127
0.00121229
-0.000366638
0.00126593
-0.000357264
0.00135898
-0.000328653
0.00150262
-0.00027154
0.00171017
-0.000167644
0.00197805
-5.65002e-06
0.00226203
0.000180026
0.00235008
0.000312873
0.00185122
0.000232141
0.000348024
-0.000120575
-0.00184679
-0.000709961
-0.00415009
-0.000852183
-0.00714892
-0.0090071
-5.63331e-05
0.000600348
-0.000146248
0.00111436
-0.00022489
0.00125191
-0.000281346
0.00125159
-0.000312481
0.00121884
-0.000320518
0.00119696
-0.000306396
0.00119817
-0.00026863
0.00122817
-0.000202548
0.0012929
-9.85461e-05
0.00139862
5.95417e-05
0.00155208
0.000288618
0.00174898
0.000604542
0.0019461
0.000965783
0.00198884
0.00121902
0.00159799
0.00115019
0.000416847
0.000674204
-0.0013708
-0.000129245
-0.00334664
-0.000537646
-0.00674052
-0.00954474
-0.000124112
0.000724459
-0.000228246
0.0012185
-0.00029045
0.00131411
-0.000318849
0.00127999
-0.000322417
0.00122241
-0.000304192
0.00117874
-0.00026205
0.00115603
-0.000190832
0.00115695
-8.30986e-05
0.00118516
7.28208e-05
0.0012427
0.000290029
0.00133488
0.000587788
0.00145122
0.000969803
0.00156409
0.00139116
0.00156748
0.00169914
0.00129001
0.00165429
0.0004617
0.00114244
-0.000858957
0.000249028
-0.00245322
-0.000291104
-0.00620039
-0.00983585
-7.99856e-05
0.000804445
-0.000250291
0.0013888
-0.00035165
0.00141547
-0.000391228
0.00131956
-0.000386694
0.00121787
-0.000348516
0.00114056
-0.000279003
0.00108652
-0.000174994
0.00105294
-3.04076e-05
0.00104058
0.00016496
0.00104733
0.000421791
0.00107804
0.000751471
0.00112154
0.00114775
0.0011678
0.0015691
0.00114613
0.00188394
0.000975176
0.00186044
0.000485203
0.00139819
-0.000396706
0.000604512
-0.00165955
8.1039e-05
-0.00567691
-0.00975481
-0.000376362
0.00118081
-0.000426292
0.00143873
-0.000463465
0.00145265
-0.000487808
0.00134391
-0.00046409
0.00119416
-0.000398616
0.00107509
-0.000294544
0.000982443
-0.000149635
0.000908029
3.57259e-05
0.000855216
0.000267615
0.000815444
0.000548625
0.000797034
0.000884642
0.000785521
0.00126314
0.000789303
0.00164067
0.000768603
0.00194655
0.000669294
0.00201413
0.000417622
0.00186148
-0.000244049
0.00149173
-0.0012898
0.000841517
-0.0050267
-0.00891329
-0.00136296
0.00254377
-0.00132294
0.00139871
-0.00105821
0.00118791
-0.000680659
0.000966358
-0.000283261
0.000796757
0.000118093
0.000673735
0.000512776
0.00058776
0.000900729
0.000520075
0.0012838
0.000472141
0.0016678
0.00043145
0.00205923
0.000405604
0.00246192
0.000382827
0.00288661
0.000364616
0.0033183
0.000336914
0.00372952
0.00025807
0.00402337
0.000123778
0.00410192
-0.0003226
0.00395361
-0.00114149
0.00250894
-0.00358203
-0.00640435
0.00254377
0.00394248
0.00513039
0.00609675
0.00689351
0.00756724
0.008155
0.00867508
0.00914722
0.00957867
0.00998427
0.0103671
0.0107317
0.0110686
0.0113267
0.0114505
0.0111279
0.00998639
0.00640435
)
;

boundaryField
{
    movingWall
    {
        type            calculated;
        value           uniform 0;
    }
    fixedWalls
    {
        type            calculated;
        value           uniform 0;
    }
    frontAndBack
    {
        type            empty;
        value           nonuniform List<scalar> 0();
    }
}


// ************************************************************************* //
