/*--------------------------------*- C++ -*----------------------------------*\
  =========                 |
  \\      /  F ield         | OpenFOAM: The Open Source CFD Toolbox
   \\    /   O peration     | Website:  https://openfoam.org
    \\  /    A nd           | Version:  10
     \\/     M anipulation  |
\*---------------------------------------------------------------------------*/
FoamFile
{
    format      ascii;
    class       volVectorField;
    location    "3.975";
    object      U;
}
// * * * * * * * * * * * * * * * * * * * * * * * * * * * * * * * * * * * * * //

dimensions      [0 1 -1 0 0 0 0];

internalField   nonuniform List<vector> 
400
(
(-0.000117061 0.00011345 0)
(-0.000847112 0.000329874 0)
(-0.0020054 0.000379667 0)
(-0.00308919 0.000377215 0)
(-0.00413941 0.000361244 0)
(-0.00512085 0.000338454 0)
(-0.00600973 0.000308369 0)
(-0.00678386 0.000269454 0)
(-0.00741849 0.000220231 0)
(-0.007887 0.000159481 0)
(-0.00816159 8.64669e-05 0)
(-0.00821437 1.50657e-06 0)
(-0.00801931 -9.54219e-05 0)
(-0.00755566 -0.00020133 0)
(-0.00681179 -0.00031163 0)
(-0.00578853 -0.000419593 0)
(-0.00450923 -0.000514662 0)
(-0.00304572 -0.00057645 0)
(-0.00138135 -0.00054555 0)
(-0.000240474 -0.000253662 0)
(-0.000347535 0.000851788 0)
(-0.00175259 0.00169836 0)
(-0.00376789 0.00187576 0)
(-0.00565957 0.00183935 0)
(-0.00747147 0.00173465 0)
(-0.00914349 0.00159018 0)
(-0.0106323 0.00140789 0)
(-0.0118999 0.00118544 0)
(-0.0129076 0.000920306 0)
(-0.0136158 0.000610688 0)
(-0.0139853 0.000256009 0)
(-0.0139801 -0.00014282 0)
(-0.0135672 -0.000578301 0)
(-0.0127211 -0.00103848 0)
(-0.0114317 -0.00150505 0)
(-0.00970742 -0.00195145 0)
(-0.00759051 -0.00233706 0)
(-0.00518727 -0.00258252 0)
(-0.00248943 -0.0024696 0)
(-0.000522543 -0.00136193 0)
(-0.000419967 0.00207384 0)
(-0.00205391 0.00375292 0)
(-0.00436308 0.00408369 0)
(-0.00652357 0.00398332 0)
(-0.00858738 0.00373574 0)
(-0.0104879 0.00339896 0)
(-0.0121777 0.00298002 0)
(-0.0136154 0.00247749 0)
(-0.0147589 0.00188908 0)
(-0.015566 0.00121352 0)
(-0.0159957 0.000451727 0)
(-0.0160048 -0.000391953 0)
(-0.0155535 -0.00130419 0)
(-0.0146126 -0.00226109 0)
(-0.0131656 -0.00322578 0)
(-0.0112149 -0.00414492 0)
(-0.00880145 -0.00493797 0)
(-0.00604191 -0.00544616 0)
(-0.00292328 -0.00524342 0)
(-0.000624343 -0.00306866 0)
(-0.000445611 0.00330892 0)
(-0.00218957 0.00585257 0)
(-0.00465448 0.00633713 0)
(-0.00695713 0.00616971 0)
(-0.00915997 0.00577917 0)
(-0.0111945 0.00525255 0)
(-0.0130131 0.00460118 0)
(-0.0145742 0.00382378 0)
(-0.0158351 0.00291734 0)
(-0.0167515 0.00187965 0)
(-0.0172782 0.000711559 0)
(-0.0173675 -0.000579541 0)
(-0.0169691 -0.00197955 0)
(-0.016038 -0.00345565 0)
(-0.0145418 -0.00495463 0)
(-0.0124673 -0.00639591 0)
(-0.00984372 -0.00765323 0)
(-0.00679439 -0.00847627 0)
(-0.00330054 -0.00820413 0)
(-0.000705777 -0.00488163 0)
(-0.000468068 0.00462174 0)
(-0.00231948 0.00808928 0)
(-0.00494348 0.00873727 0)
(-0.00739472 0.00850143 0)
(-0.00974681 0.00796521 0)
(-0.0119301 0.00724625 0)
(-0.0138981 0.00636026 0)
(-0.0156106 0.00530566 0)
(-0.0170247 0.00407767 0)
(-0.0180944 0.00267128 0)
(-0.0187693 0.0010842 0)
(-0.018994 -0.000678951 0)
(-0.0187043 -0.00260418 0)
(-0.0178337 -0.00465422 0)
(-0.0163236 -0.00676329 0)
(-0.0141305 -0.00882298 0)
(-0.0112581 -0.0106519 0)
(-0.00783311 -0.0118834 0)
(-0.00383158 -0.0115728 0)
(-0.000823901 -0.00695808 0)
(-0.00049701 0.00601819 0)
(-0.00248216 0.0104812 0)
(-0.00530343 0.0113062 0)
(-0.00793966 0.011002 0)
(-0.0104775 0.0103192 0)
(-0.0128464 0.00940857 0)
(-0.0150025 0.00829031 0)
(-0.0169078 0.00696201 0)
(-0.018521 0.00541568 0)
(-0.0197954 0.003641 0)
(-0.0206762 0.00162854 0)
(-0.0211 -0.0006252 0)
(-0.0209841 -0.0031157 0)
(-0.0202329 -0.00580794 0)
(-0.0187495 -0.00862964 0)
(-0.016442 -0.0114458 0)
(-0.0132655 -0.0140098 0)
(-0.0093366 -0.0158018 0)
(-0.00462132 -0.0155141 0)
(-0.0010079 -0.0094167 0)
(-0.000534049 0.00751861 0)
(-0.0026857 0.0130634 0)
(-0.00575002 0.0140811 0)
(-0.00861232 0.0137079 0)
(-0.0113756 0.0128774 0)
(-0.0139687 0.0117764 0)
(-0.0163521 0.0104306 0)
(-0.0184926 0.00883635 0)
(-0.0203529 0.00698098 0)
(-0.0218883 0.00484578 0)
(-0.0230416 0.00240887 0)
(-0.0237436 -0.000350275 0)
(-0.0238918 -0.0034403 0)
(-0.0233534 -0.00684942 0)
(-0.0219789 -0.0105115 0)
(-0.0196011 -0.0142736 0)
(-0.0160874 -0.0178152 0)
(-0.0115086 -0.0204148 0)
(-0.00580749 -0.0202688 0)
(-0.00130196 -0.01245 0)
(-0.000579641 0.00914813 0)
(-0.00293332 0.0158785 0)
(-0.00628927 0.0171056 0)
(-0.00941863 0.0166601 0)
(-0.0124451 0.0156783 0)
(-0.0152979 0.0143878 0)
(-0.0179441 0.0128209 0)
(-0.0203587 0.0109731 0)
(-0.0225127 0.00882636 0)
(-0.0243684 0.00635072 0)
(-0.025873 0.00350599 0)
(-0.0269495 0.000245679 0)
(-0.0274839 -0.00346684 0)
(-0.0273071 -0.00766488 0)
(-0.0261941 -0.012315 0)
(-0.0238688 -0.0172706 0)
(-0.0200495 -0.0221413 0)
(-0.0146788 -0.0259492 0)
(-0.00764605 -0.0261762 0)
(-0.00180035 -0.0163703 0)
(-0.000634931 0.0109336 0)
(-0.00322994 0.0189717 0)
(-0.00692905 0.0204237 0)
(-0.0103653 0.0198973 0)
(-0.0136889 0.0187565 0)
(-0.0168307 0.0172753 0)
(-0.0197677 0.015495 0)
(-0.0224877 0.013412 0)
(-0.0249759 0.0110028 0)
(-0.0272091 0.00822502 0)
(-0.0291469 0.00501557 0)
(-0.0307163 0.00129328 0)
(-0.0318028 -0.00303399 0)
(-0.0322056 -0.00806625 0)
(-0.0316139 -0.0138508 0)
(-0.0296025 -0.0203021 0)
(-0.0256544 -0.0269962 0)
(-0.0194174 -0.0326522 0)
(-0.0106614 -0.0337152 0)
(-0.00272154 -0.0217286 0)
(-0.000702719 0.012906 0)
(-0.00358507 0.022393 0)
(-0.00768346 0.0240802 0)
(-0.0114647 0.0234552 0)
(-0.0151136 0.0221403 0)
(-0.0185643 0.020463 0)
(-0.0218085 0.0184772 0)
(-0.0248517 0.0161827 0)
(-0.0277005 0.0135532 0)
(-0.0303565 0.0105348 0)
(-0.0328054 0.00703989 0)
(-0.0349997 0.0029434 0)
(-0.0368447 -0.00192245 0)
(-0.0381309 -0.00776205 0)
(-0.0384754 -0.0147776 0)
(-0.0372748 -0.0230455 0)
(-0.0336737 -0.0322183 0)
(-0.0267516 -0.0407132 0)
(-0.0160057 -0.0435546 0)
(-0.00459801 -0.029595 0)
(-0.000788988 0.0151049 0)
(-0.00401662 0.0261999 0)
(-0.00857765 0.0281212 0)
(-0.0127391 0.0273652 0)
(-0.0167329 0.025849 0)
(-0.0204992 0.0239625 0)
(-0.0240495 0.0217761 0)
(-0.0274129 0.0192975 0)
(-0.0306251 0.0165023 0)
(-0.0337238 0.0133303 0)
(-0.0367398 0.00967344 0)
(-0.0396807 0.00535957 0)
(-0.0425118 0.0001329 0)
(-0.0450751 -0.00634123 0)
(-0.0469763 -0.0145248 0)
(-0.0474633 -0.0248294 0)
(-0.0452735 -0.0372286 0)
(-0.0385787 -0.0499804 0)
(-0.0262515 -0.0564421 0)
(-0.00876443 -0.042334 0)
(-0.000906091 0.0175861 0)
(-0.00455744 0.0304634 0)
(-0.00965495 0.0325948 0)
(-0.0142271 0.0316516 0)
(-0.0185727 0.029889 0)
(-0.0226431 0.0277677 0)
(-0.0264752 0.0253785 0)
(-0.0301272 0.022742 0)
(-0.0336695 0.0198438 0)
(-0.0371875 0.0166295 0)
(-0.0407791 0.0129871 0)
(-0.0445449 0.00871803 0)
(-0.048555 0.00349312 0)
(-0.0528226 -0.00319834 0)
(-0.0571226 -0.0121339 0)
(-0.0607368 -0.0243295 0)
(-0.0620856 -0.040487 0)
(-0.0581649 -0.0592176 0)
(-0.046606 -0.0729506 0)
(-0.0183527 -0.0647528 0)
(-0.00108031 0.0204352 0)
(-0.00526852 0.0352742 0)
(-0.010988 0.0375427 0)
(-0.0159911 0.0363206 0)
(-0.020677 0.0342457 0)
(-0.0250161 0.0318495 0)
(-0.0290772 0.0292433 0)
(-0.0329495 0.0264656 0)
(-0.0367397 0.0235225 0)
(-0.0405829 0.0203827 0)
(-0.0446542 0.0169588 0)
(-0.0491805 0.0130677 0)
(-0.0544455 0.00835444 0)
(-0.0607749 0.00216095 0)
(-0.0684452 -0.00658373 0)
(-0.0772827 -0.0195519 0)
(-0.0857915 -0.0388695 0)
(-0.0896927 -0.0651645 0)
(-0.0828747 -0.0930839 0)
(-0.0357156 -0.106653 0)
(-0.00136677 0.0237801 0)
(-0.00627837 0.040816 0)
(-0.0127076 0.0431274 0)
(-0.0181242 0.0415035 0)
(-0.0231061 0.0389768 0)
(-0.0276516 0.0361941 0)
(-0.0318611 0.0333076 0)
(-0.0358495 0.0303752 0)
(-0.0397535 0.0274245 0)
(-0.0437518 0.0244657 0)
(-0.0480951 0.0214885 0)
(-0.0531543 0.018422 0)
(-0.0594876 0.0150391 0)
(-0.0678954 0.0107658 0)
(-0.0794689 0.00440647 0)
(-0.0954683 -0.00639372 0)
(-0.115222 -0.0262405 0)
(-0.131284 -0.0626812 0)
(-0.128908 -0.119395 0)
(-0.0496012 -0.183193 0)
(-0.00177894 0.0280557 0)
(-0.00753563 0.0465641 0)
(-0.0148941 0.0484625 0)
(-0.0207742 0.0461121 0)
(-0.0260438 0.0431888 0)
(-0.030688 0.0401944 0)
(-0.0348939 0.0371937 0)
(-0.0388261 0.0342146 0)
(-0.0426338 0.0313112 0)
(-0.0464885 0.0285648 0)
(-0.0506447 0.0260933 0)
(-0.0555454 0.0240317 0)
(-0.0619856 0.0224938 0)
(-0.0713174 0.0213631 0)
(-0.0857674 0.0198511 0)
(-0.108356 0.0147419 0)
(-0.138799 -0.00288403 0)
(-0.160909 -0.0574535 0)
(-0.154724 -0.16766 0)
(-0.0398156 -0.295598 0)
(-0.00370557 0.0319969 0)
(-0.0114247 0.0558627 0)
(-0.018443 0.0573773 0)
(-0.0241392 0.0545265 0)
(-0.0291162 0.0504465 0)
(-0.0336658 0.0463198 0)
(-0.0378247 0.0423956 0)
(-0.0416653 0.0387703 0)
(-0.045263 0.0355253 0)
(-0.0487323 0.0327774 0)
(-0.052269 0.0307712 0)
(-0.0562354 0.0299298 0)
(-0.0613736 0.0309696 0)
(-0.069045 0.0346128 0)
(-0.0818434 0.0409436 0)
(-0.102244 0.0440773 0)
(-0.131159 0.0283823 0)
(-0.145711 -0.0566114 0)
(-0.138611 -0.231876 0)
(-0.0207529 -0.40175 0)
(-0.00146806 0.046068 0)
(-0.00963901 0.0587669 0)
(-0.0216836 0.0580585 0)
(-0.0280531 0.053326 0)
(-0.0340512 0.0496178 0)
(-0.0384689 0.0462459 0)
(-0.0419784 0.0430752 0)
(-0.0448425 0.0400145 0)
(-0.047213 0.0371602 0)
(-0.0491455 0.0346436 0)
(-0.0506518 0.0328859 0)
(-0.0517153 0.0324557 0)
(-0.052561 0.0347025 0)
(-0.0533422 0.0405893 0)
(-0.0562738 0.0515027 0)
(-0.0593987 0.0571361 0)
(-0.0761937 0.0409914 0)
(-0.0775901 -0.0621753 0)
(-0.0858581 -0.278789 0)
(-0.0043553 -0.476622 0)
(-0.0114281 0.0361732 0)
(-0.0256267 0.0819684 0)
(-0.026715 0.0790094 0)
(-0.0344497 0.0733303 0)
(-0.0379165 0.0657566 0)
(-0.0398774 0.0587586 0)
(-0.0403406 0.0525618 0)
(-0.0398399 0.0471049 0)
(-0.0386534 0.0423879 0)
(-0.0367802 0.0383532 0)
(-0.0344343 0.0352469 0)
(-0.0310233 0.033644 0)
(-0.0269421 0.0349439 0)
(-0.0193456 0.039967 0)
(-0.0123002 0.0522303 0)
(0.00857166 0.0600846 0)
(0.0157653 0.0513281 0)
(0.0496028 -0.0453517 0)
(0.0111116 -0.28378 0)
(0.0404173 -0.501408 0)
(-0.0755025 0.0994229 0)
(-0.0605381 0.0626729 0)
(-0.0617829 0.0613065 0)
(-0.0415222 0.0544216 0)
(-0.0247362 0.0472725 0)
(-0.00619577 0.041663 0)
(0.0110754 0.0373119 0)
(0.0275863 0.0333924 0)
(0.042365 0.0302114 0)
(0.0567572 0.0269641 0)
(0.0691415 0.0247074 0)
(0.0825464 0.0224423 0)
(0.0928849 0.0220979 0)
(0.112104 0.0222546 0)
(0.119289 0.0231313 0)
(0.16541 0.0215685 0)
(0.166314 -0.005555 0)
(0.22517 -0.0653936 0)
(0.162781 -0.25848 0)
(0.127682 -0.444591 0)
(0.120389 0.140215 0)
(0.153883 0.0865407 0)
(0.232987 0.0643861 0)
(0.288462 0.0492765 0)
(0.331682 0.0387528 0)
(0.369957 0.0310295 0)
(0.400347 0.0256299 0)
(0.43104 0.0215615 0)
(0.45164 0.0182262 0)
(0.478985 0.016109 0)
(0.490727 0.0133596 0)
(0.518528 0.0124532 0)
(0.520557 0.0103181 0)
(0.553687 0.00972874 0)
(0.543805 0.00890012 0)
(0.58313 0.0043841 0)
(0.553545 -0.00269391 0)
(0.570496 -0.0290383 0)
(0.438671 -0.0827059 0)
(0.27789 -0.15688 0)
)
;

boundaryField
{
    movingWall
    {
        type            fixedValue;
        value           uniform (1 0 0);
    }
    fixedWalls
    {
        type            noSlip;
    }
    frontAndBack
    {
        type            empty;
    }
}


// ************************************************************************* //
