/*--------------------------------*- C++ -*----------------------------------*\
  =========                 |
  \\      /  F ield         | OpenFOAM: The Open Source CFD Toolbox
   \\    /   O peration     | Website:  https://openfoam.org
    \\  /    A nd           | Version:  10
     \\/     M anipulation  |
\*---------------------------------------------------------------------------*/
FoamFile
{
    format      ascii;
    class       surfaceScalarField;
    location    "8.575";
    object      phi;
}
// * * * * * * * * * * * * * * * * * * * * * * * * * * * * * * * * * * * * * //

dimensions      [0 3 -1 0 0 0 0];

internalField   nonuniform List<scalar> 
928
(
0.0945002
0.00549981
0.103117
-0.0086173
0.106294
-0.00317657
-0.00925838
0.115552
0.0939993
0.0115005
0.104873
-0.0194915
0.102457
-0.00075981
-0.0184123
0.111611
0.0968993
0.0146013
0.11071
-0.0333025
0.104762
0.00518859
-0.0389037
0.125253
0.10415
0.0104515
0.0917477
-0.0209005
0.0967373
0.000198987
0.145091
-0.0872574
0.11098
0.00457267
-0.0170777
0.128058
0.110063
0.00612073
-0.0415024
0.134487
0.12976
0.00161392
-0.04959
0.137848
0.146705
0.0971149
0.128763
-0.000705752
0.129859
-0.00109603
0.132071
-0.0022115
-0.0014825
0.133553
0.137911
-0.00412992
0.137924
-0.0011088
0.140081
-0.00436852
-0.00155762
0.140156
0.14247
-0.00875166
0.142591
-0.00123061
0.148221
-0.00999804
0.00374689
0.142916
0.103793
-0.0154302
0.0788824
0.0236805
0.0911325
-0.0222482
0.08505
0.00982938
0.133788
-0.000234624
0.132251
0.00153734
0.130267
0.00198369
0.127806
0.00246108
0.125708
0.00209737
0.123318
0.00239027
0.121704
0.0016144
0.120704
0.00100008
0.120285
0.000418431
0.121268
-0.000982873
0.122344
-0.00107619
0.124087
-0.00174262
0.124875
-0.000788387
0.125632
-0.000756383
0.125566
6.61402e-05
0.125113
0.000452892
0.124019
0.00109333
0.122059
0.00195993
0.120186
0.00187342
0.117427
0.00275895
0.11554
0.00188676
0.113249
0.00229118
0.112118
0.00113145
0.11118
0.000938022
0.110948
0.00023136
0.111109
-0.000160608
0.111113
-4.40437e-06
0.111404
-0.000290763
0.110579
0.000824637
0.109853
0.000726565
0.10748
0.00237283
0.105266
0.00221434
0.102286
0.00297931
0.0999629
0.00232346
0.0988392
0.00112373
0.0980562
0.000782984
0.0996619
-0.00160572
0.101103
-0.00144147
0.104331
-0.00322717
-0.00209175
0.139613
0.000308372
0.138618
0.00253293
0.137844
0.00275696
0.135852
0.00445304
0.134212
0.00373779
0.133036
0.00356663
0.131309
0.00334115
0.130229
0.00207989
0.130233
0.000414273
0.131601
-0.00235103
0.132398
-0.00187291
0.133643
-0.00298707
0.134258
-0.00140336
0.135291
-0.00178963
0.135738
-0.000380706
0.135816
0.000374757
0.1352
0.00170943
0.133624
0.0035354
0.132157
0.00334015
0.129911
0.00500549
0.12859
0.00320786
0.126442
0.00443907
0.125535
0.0020388
0.12457
0.00190246
0.124332
0.000469473
0.125072
-0.000900787
0.125339
-0.000271437
0.126667
-0.00161854
0.126245
0.00124628
0.126373
0.000599349
0.125092
0.00365307
0.12354
0.00376647
0.121724
0.00479507
0.119263
0.00478447
0.117772
0.00261547
0.116145
0.0024098
0.116692
-0.00215324
0.117359
-0.00210784
0.119475
-0.00534382
-0.00462527
0.138828
0.00439644
0.139638
0.0017232
0.140146
0.00224927
0.140161
0.0044379
0.140958
0.00294029
0.139086
0.00543908
0.137453
0.00497372
0.137608
0.00192538
0.137511
0.000510772
0.135852
-0.000691849
0.134741
-0.000761714
0.134094
-0.00233986
0.133919
-0.00122855
0.134241
-0.00211118
0.134078
-0.000217673
0.134059
0.000393705
0.13343
0.00233781
0.132699
0.00426683
0.131712
0.00432688
0.130785
0.00593233
0.129407
0.00458564
0.128314
0.00553268
0.127083
0.00327
0.126579
0.00240598
0.125966
0.00108221
0.126105
-0.00103943
0.126234
-0.000400435
0.127551
-0.00293555
0.128492
0.000304951
0.129867
-0.000775745
0.129859
0.0036619
0.128744
0.0048813
0.126986
0.00655285
0.124569
0.00720109
0.122216
0.00496838
0.120289
0.00433736
0.119494
-0.00135798
0.117996
-0.000609886
0.118413
-0.00576067
-0.00514434
0.0839825
0.00546394
0.0945507
-0.00884499
0.0935598
0.00324019
0.0995183
-0.00152063
0.106625
-0.0041662
0.102901
0.00916322
0.106546
0.00132853
0.110547
-0.00207588
0.10931
0.0017484
0.106503
0.00211474
0.104295
0.00144609
0.100659
0.00129669
0.0980413
0.00138874
0.0955029
0.000427198
0.0953921
-0.000106836
0.0962711
-0.00048535
0.0977363
0.000872641
0.0997153
0.00228787
0.102617
0.00142546
0.10574
0.00280917
0.105734
0.00459136
0.10601
0.00525684
0.104724
0.00455632
0.102904
0.00422572
0.100846
0.00314049
0.0986436
0.00116265
0.0986436
-0.000400443
0.0984964
-0.00278842
0.101747
-0.00294587
0.104317
-0.00334528
0.108866
-0.000886997
0.11269
0.0010565
0.116449
0.00279467
0.117334
0.00631586
0.115063
0.00723934
0.111937
0.00746315
0.104949
0.00563017
0.0989383
0.00540079
0.0940464
-0.000868752
-0.00410481
0.111036
-0.00058409
0.0892302
0.000904882
0.0891868
0.000242359
0.00192943
0.108429
-0.00901279
0.0886977
0.0206359
0.085108
0.00383203
0.0870375
-0.0139243
-0.00150594
-0.0312033
0.0409595
-0.0131519
-0.0402996
-0.00324024
-8.22564e-05
-0.0136436
0.0121376
0.0179498
0.00936611
-0.0112618
-0.011088
-0.011607
-0.00289498
-0.0101869
0.0155686
0.00464674
-0.0236787
0.00468818
0.00319875
0.00644418
-0.00327663
0.0161498
-0.0138718
0.0181159
0.00719715
0.00864208
0.0108023
0.0114668
-0.00490062
0.0137968
-0.000581536
0.0117938
0.00411769
0.00912147
0.00411842
0.00702039
0.00339777
0.00630558
0.00210355
0.00823293
-0.00150015
0.0114725
-0.00334642
0.0147981
-0.00381097
0.0182348
-0.00256398
0.0219572
-0.0014346
0.024044
-0.000661295
0.0259493
0.000903833
0.0273717
0.003169
0.0280742
0.00455431
0.0289099
0.00372059
0.0287266
0.00440905
0.0298027
0.00206441
0.0315882
-0.000622886
0.0332389
-0.00205109
0.0366905
-0.00623999
0.0399489
-0.00620431
0.0424841
-0.00588049
0.0462186
-0.00462147
0.0480552
-0.000780103
0.0480556
0.00279427
0.0485027
0.00586872
0.0472059
0.00853612
0.0458467
0.0088224
0.0455733
0.0059036
0.0463266
0.00464743
0.0485072
-0.00304929
-0.0063711
0.0117897
-0.00782816
-0.00155016
-0.0103388
0.00692485
-0.00527626
0.0121725
-0.00852422
0.00418803
-0.00588741
0.0100469
0.00133824
0.0162937
0.00455558
0.0105216
0.000871526
0.00615769
0.00378233
0.00370706
0.00656831
0.00344904
0.00437644
0.00427053
0.00257629
0.00631646
5.76318e-05
0.00785072
-0.00303442
0.00832644
-0.00382214
0.00889335
-0.00437788
0.0112616
-0.00493222
0.0143256
-0.00449857
0.0163098
-0.00264555
0.0180024
-0.000788711
0.0211909
-1.95504e-05
0.0246204
0.00112482
0.0268282
0.00151282
0.0295769
0.00166035
0.0317876
-0.0001463
0.0334851
-0.00232045
0.0346672
-0.00323315
0.0345265
-0.00609934
0.0341892
-0.00586698
0.0344568
-0.00614812
0.0350689
-0.00523356
0.0363376
-0.0020488
0.0385442
0.000587688
0.0411842
0.00322876
0.0451511
0.00456915
0.048213
0.00576057
0.0512594
0.00285719
0.0549987
0.000908136
0.0549623
-0.00301288
-0.00431403
0.10417
-0.0131827
0.0951133
0.0296925
0.102141
-0.00319614
0.0391884
0.149991
0.0962991
-0.00948181
0.105412
0.0205793
0.102795
-0.000579338
0.0198122
0.122172
0.0945701
-0.00405188
0.106567
0.00858283
0.102784
0.00320348
0.00971909
0.112877
0.0959481
0.104531
0.107734
0.117454
0.155532
-0.00554187
0.04383
0.111702
0.12296
-0.00633073
0.0406412
0.126149
0.110582
-0.004036
0.0165704
0.134653
0.113418
0.129988
0.114412
0.00942777
0.120453
0.00332515
0.114074
-0.00470908
-0.00450377
0.115683
0.134082
0.00149525
0.136828
0.000579284
0.132947
-0.00082801
-0.00186135
0.130304
0.136187
-3.83606e-05
0.136099
0.000666431
0.135536
-0.000264531
-0.000845718
0.13452
0.12995
0.130616
0.130351
0.129506
0.11458
-0.00672529
0.109864
-0.00562216
0.108719
-0.00413136
0.100816
-0.000621644
0.0938017
0.00112702
0.0913147
0.00382527
0.0904508
0.00541949
0.0871869
0.00413542
0.0865329
0.00443632
0.0885376
0.00456359
0.088717
0.00419712
0.0894386
0.0018547
0.089236
0.00026014
0.0889972
-0.00279553
0.0883265
-0.00315144
0.0881741
-0.00422555
0.0869193
-0.00367739
0.0855857
-0.003165
0.085702
-0.00276181
0.0862628
-0.00134957
0.0878515
-0.00160822
0.0898021
-0.000825804
0.0937662
-0.00245121
0.0975186
-0.00209207
0.101507
-0.00413478
0.104382
-0.00519502
0.106519
-0.00537005
0.106122
-0.00570279
0.10372
-0.00346516
0.100643
-0.00307068
0.0956068
-0.000197662
0.0933809
0.000177079
0.091113
0.00285559
0.0914984
0.0028434
0.0944555
0.001612
0.0985003
0.00171585
0.10404
-0.00268228
0.108247
-0.00329946
0.112514
-0.00727937
-0.00516595
0.126729
-0.00315015
0.125016
-0.00390876
0.124976
-0.00409224
0.124635
-0.000280203
0.12445
0.00131243
0.125873
0.00240141
0.12829
0.00300298
0.129046
0.00337979
0.129715
0.00376688
0.131658
0.00262013
0.132954
0.00290194
0.134607
0.00020176
0.135057
-0.000189898
0.135071
-0.00281003
0.134497
-0.00257722
0.13396
-0.00368861
0.133758
-0.00347559
0.133178
-0.00258468
0.133186
-0.00276955
0.132735
-0.000899375
0.133555
-0.00242821
0.133471
-0.00074144
0.134073
-0.0030535
0.134485
-0.00250385
0.134206
-0.00385604
0.133242
-0.00423041
0.13152
-0.00364875
0.130184
-0.0043662
0.128457
-0.00173847
0.127409
-0.00202214
0.126046
0.00116488
0.125248
0.000975606
0.125606
0.00249692
0.126355
0.00209487
0.127348
0.000619162
0.129108
-4.44444e-05
0.129881
-0.00345538
0.129465
-0.00288319
0.127791
-0.00560559
-0.00386304
0.132617
-0.00124713
0.129862
-0.00115356
0.12808
-0.00231015
0.128705
-0.000905074
0.129282
0.000734896
0.130425
0.00125833
0.132355
0.00107316
0.134652
0.00108342
0.136711
0.00170737
0.138053
0.0012782
0.139687
0.00126786
0.140205
-0.00031565
0.140659
-0.000644592
0.139586
-0.00173691
0.138587
-0.00157829
0.136779
-0.00188073
0.135251
-0.0019474
0.13419
-0.00152312
0.132981
-0.00156054
0.132821
-0.000739846
0.131775
-0.0013823
0.131768
-0.000734633
0.130362
-0.00164759
0.129372
-0.00151302
0.127728
-0.00221256
0.125908
-0.00241048
0.124401
-0.00214118
0.122274
-0.00223964
0.12138
-0.0008442
0.120373
-0.00101552
0.120801
0.000736883
0.12133
0.000446676
0.122571
0.00125637
0.123931
0.000734403
0.124498
5.18026e-05
0.125103
-0.000648557
0.123904
-0.00225673
0.12334
-0.00231939
0.120959
-0.00322424
-0.00168216
0.128259
0.127105
0.124795
0.12389
0.124625
0.125883
0.126956
0.12804
0.129747
0.131025
0.132293
0.131977
0.131333
0.129596
0.128018
0.126137
0.12419
0.122666
0.121106
0.120366
0.118984
0.118249
0.116601
0.115088
0.112876
0.110465
0.108324
0.106085
0.10524
0.104225
0.104962
0.105408
0.106665
0.107399
0.107451
0.106802
0.104546
0.102226
0.0990021
)
;

boundaryField
{
    inlet
    {
        type            calculated;
        value           nonuniform List<scalar> 10(-0.1 -0.1 -0.1 -0.1 -0.1 -0.1 -0.1 -0.1 -0.1 -0.1);
    }
    outlet
    {
        type            calculated;
        value           nonuniform List<scalar> 10(0.106422 0.122009 0.118932 0.0930069 0.0507734 0.0529052 0.113366 0.126488 0.118778 0.0973199);
    }
    obstacle
    {
        type            calculated;
        value           uniform 0;
    }
    upperWall
    {
        type            calculated;
        value           uniform 0;
    }
    lowerWall
    {
        type            calculated;
        value           uniform 0;
    }
    frontAndBack
    {
        type            empty;
        value           nonuniform List<scalar> 0();
    }
}


// ************************************************************************* //
