/*--------------------------------*- C++ -*----------------------------------*\
  =========                 |
  \\      /  F ield         | OpenFOAM: The Open Source CFD Toolbox
   \\    /   O peration     | Website:  https://openfoam.org
    \\  /    A nd           | Version:  10
     \\/     M anipulation  |
\*---------------------------------------------------------------------------*/
FoamFile
{
    format      ascii;
    class       volVectorField;
    location    "6.875";
    object      U;
}
// * * * * * * * * * * * * * * * * * * * * * * * * * * * * * * * * * * * * * //

dimensions      [0 1 -1 0 0 0 0];

internalField   nonuniform List<vector> 
8000
(
(-6.53415e-05 8.56165e-05 -2.83101e-05)
(-0.00047451 0.000186985 8.47396e-06)
(-0.00115304 0.000219164 2.49359e-05)
(-0.00184511 0.000231234 3.25312e-05)
(-0.00256518 0.000239748 3.28632e-05)
(-0.00329 0.000249013 2.86966e-05)
(-0.00400881 0.000257872 2.08014e-05)
(-0.00470824 0.000263529 8.63819e-06)
(-0.00536749 0.000263068 -7.9945e-06)
(-0.00595681 0.000253016 -2.9811e-05)
(-0.00643721 0.000229625 -5.7622e-05)
(-0.00676063 0.000189546 -9.1961e-05)
(-0.00687247 0.000131147 -0.000132631)
(-0.00671643 5.35123e-05 -0.000178279)
(-0.00624209 -4.24707e-05 -0.00022515)
(-0.00542083 -0.000147527 -0.000268613)
(-0.00426666 -0.000245591 -0.000298716)
(-0.00288422 -0.000310685 -0.000301849)
(-0.00131933 -0.000305072 -0.000267721)
(-0.000240619 -0.000135915 -0.000136782)
(-0.000162069 0.000575801 -9.78278e-05)
(-0.000892416 0.00101814 -7.4481e-05)
(-0.00201688 0.0011604 -6.09743e-05)
(-0.00315935 0.00120563 -5.07778e-05)
(-0.00433493 0.00122171 -4.65784e-05)
(-0.00550455 0.00122745 -4.6275e-05)
(-0.00664683 0.00122146 -4.90135e-05)
(-0.0077375 0.00119561 -5.53281e-05)
(-0.00874325 0.00113968 -6.61483e-05)
(-0.00961971 0.00104181 -8.26892e-05)
(-0.0103101 0.000889524 -0.000106264)
(-0.0107452 0.000671441 -0.000137942)
(-0.0108489 0.000379437 -0.000177964)
(-0.0105459 1.48409e-05 -0.000227115)
(-0.00976541 -0.000406352 -0.00027821)
(-0.00846694 -0.00084962 -0.000325689)
(-0.00667475 -0.00125243 -0.000356612)
(-0.00453949 -0.00151387 -0.000354112)
(-0.00213363 -0.00148542 -0.000304597)
(-0.00042528 -0.000817036 -0.000125155)
(-0.000192343 0.00139342 -0.000135242)
(-0.00103952 0.00232451 -0.000118943)
(-0.0023295 0.00261988 -0.000106839)
(-0.00363164 0.00270251 -9.49899e-05)
(-0.00496672 0.00271384 -8.818e-05)
(-0.00629171 0.00269342 -8.47279e-05)
(-0.00758417 0.00264157 -8.3975e-05)
(-0.00881885 0.00254512 -8.66848e-05)
(-0.00996094 0.00238535 -9.41966e-05)
(-0.0109637 0.00214036 -0.000108223)
(-0.0117668 0.00178698 -0.00013062)
(-0.0122957 0.00130398 -0.000163068)
(-0.0124624 0.000677077 -0.000206991)
(-0.0121702 -9.06445e-05 -0.000261806)
(-0.0113294 -0.000970899 -0.00032235)
(-0.00988083 -0.00189442 -0.000380459)
(-0.00783226 -0.00273636 -0.000419644)
(-0.00535 -0.0032897 -0.000418211)
(-0.00251214 -0.0032439 -0.000358526)
(-0.000493978 -0.00189583 -0.000139972)
(-0.000196152 0.00225377 -0.000162168)
(-0.00108107 0.00370427 -0.000152273)
(-0.00243299 0.00415514 -0.000141634)
(-0.00379444 0.00427186 -0.000128988)
(-0.00519388 0.0042771 -0.00012077)
(-0.00658904 0.0042326 -0.000115666)
(-0.00796117 0.00414062 -0.000113232)
(-0.00928873 0.00398321 -0.000114468)
(-0.0105402 0.0037335 -0.000121101)
(-0.0116711 0.00335878 -0.000135425)
(-0.0126201 0.00282313 -0.000160054)
(-0.0133063 0.00209209 -0.000197587)
(-0.0136283 0.00114143 -0.000250485)
(-0.0134704 -3.24401e-05 -0.000320662)
(-0.0127055 -0.00139409 -0.000399878)
(-0.0112262 -0.00284968 -0.000478847)
(-0.00900113 -0.0042062 -0.000535567)
(-0.00620011 -0.00512936 -0.000539862)
(-0.00290492 -0.00510547 -0.00046745)
(-0.000555934 -0.00301243 -0.000190641)
(-0.000189767 0.00316418 -0.000182463)
(-0.0010843 0.0051711 -0.000178381)
(-0.00246503 0.00578818 -0.000169157)
(-0.00385704 0.00594396 -0.000156343)
(-0.00529627 0.00594947 -0.000147851)
(-0.00674338 0.0058912 -0.000142694)
(-0.00818594 0.00577471 -0.000140709)
(-0.00960935 0.00557827 -0.000143239)
(-0.0109891 0.00526725 -0.000152484)
(-0.0122863 0.00479722 -0.000171452)
(-0.0134417 0.00411643 -0.000203854)
(-0.0143697 0.00317101 -0.000253694)
(-0.0149528 0.00191467 -0.000324603)
(-0.0150387 0.000325966 -0.000418497)
(-0.0144537 -0.00156207 -0.000533555)
(-0.0130217 -0.00364135 -0.000651244)
(-0.0106285 -0.00564558 -0.000742739)
(-0.00742676 -0.00707878 -0.000763695)
(-0.00349167 -0.00715111 -0.000673756)
(-0.000654489 -0.00422428 -0.000298466)
(-0.000179383 0.00410167 -0.000200857)
(-0.00107426 0.00669613 -0.000202537)
(-0.00247448 0.0074914 -0.000194866)
(-0.00388952 0.00769447 -0.000182362)
(-0.00536263 0.00771202 -0.000174367)
(-0.00685857 0.00765868 -0.000170246)
(-0.00837336 0.00754555 -0.000170208)
(-0.00990233 0.00734877 -0.000176086)
(-0.0114319 0.00702708 -0.000190735)
(-0.012934 0.00652425 -0.00021814)
(-0.0143568 0.00576979 -0.000263551)
(-0.0156144 0.00468303 -0.0003333)
(-0.0165742 0.00318398 -0.000433684)
(-0.0170459 0.00121414 -0.000568689)
(-0.0167908 -0.00122969 -0.000743389)
(-0.0155255 -0.00403533 -0.000930614)
(-0.0129995 -0.00687519 -0.00109036)
(-0.00929159 -0.00904939 -0.00115376)
(-0.00443698 -0.00936896 -0.0010455)
(-0.000835344 -0.00554105 -0.00050383)
(-0.00016632 0.00506125 -0.000220706)
(-0.00105737 0.00827479 -0.000228769)
(-0.00247328 0.00926104 -0.000222864)
(-0.00390623 0.00952025 -0.000210807)
(-0.00540693 0.00956303 -0.000203501)
(-0.00694501 0.00953679 -0.000200781)
(-0.00852691 0.00946149 -0.000203348)
(-0.010161 0.00931432 -0.000213712)
(-0.0118496 0.00905023 -0.000235676)
(-0.0135822 0.00860305 -0.000274686)
(-0.0153242 0.0078831 -0.000338337)
(-0.0169998 0.00677692 -0.000436649)
(-0.0184707 0.00515503 -0.000580846)
(-0.0195143 0.00289432 -0.000780797)
(-0.019812 -7.62601e-05 -0.00105217)
(-0.0189391 -0.00367238 -0.00136648)
(-0.016431 -0.00757374 -0.0016634)
(-0.0121632 -0.0108383 -0.00183548)
(-0.00603918 -0.0116995 -0.00173065)
(-0.00120369 -0.00700413 -0.000910827)
(-0.000150561 0.00604397 -0.000243913)
(-0.00103464 0.00991109 -0.000259494)
(-0.00246256 0.0111001 -0.000255449)
(-0.00390485 0.0114213 -0.000243505)
(-0.00542014 0.0114994 -0.000236428)
(-0.00698313 0.0115208 -0.000234709)
(-0.00861221 0.011519 -0.000239709)
(-0.0103319 0.0114776 -0.000254808)
(-0.0121653 0.0113534 -0.000285099)
(-0.0141281 0.0110765 -0.000338127)
(-0.0162162 0.0105427 -0.000425041)
(-0.0183843 0.00960735 -0.000561854)
(-0.0205118 0.00808194 -0.000769611)
(-0.02236 0.00574975 -0.00107193)
(-0.0235218 0.00241778 -0.00148759)
(-0.0234467 -0.00197198 -0.00203679)
(-0.021359 -0.00707823 -0.00260751)
(-0.0166713 -0.0119055 -0.00305172)
(-0.00895098 -0.0138645 -0.00304805)
(-0.00203634 -0.00866738 -0.00178736)
(-0.000132762 0.00705409 -0.000272039)
(-0.00100862 0.0116128 -0.000296751)
(-0.00244486 0.0130121 -0.000294451)
(-0.00388346 0.0133934 -0.00028169)
(-0.00539168 0.0135089 -0.000273594)
(-0.00694873 0.0135906 -0.000271548)
(-0.0085855 0.0136924 -0.000277776)
(-0.0103445 0.0138111 -0.000296739)
(-0.0122737 0.0139155 -0.000335133)
(-0.0144232 0.0139436 -0.00040322)
(-0.0168338 0.0137915 -0.000517035)
(-0.0195164 0.0132971 -0.000701433)
(-0.02241 0.012223 -0.000992825)
(-0.0253158 0.0102492 -0.00143803)
(-0.0278196 0.00700394 -0.00208589)
(-0.0291556 0.0021769 -0.00298619)
(-0.0282834 -0.00414996 -0.00412784)
(-0.0238634 -0.0109509 -0.00520606)
(-0.014547 -0.0150678 -0.0056286)
(-0.0040104 -0.0105911 -0.00383332)
(-0.000115485 0.00810207 -0.000307139)
(-0.000987503 0.013394 -0.000343099)
(-0.00243122 0.0150023 -0.000342106)
(-0.00384961 0.0154286 -0.000326802)
(-0.00532035 0.0155684 -0.000315425)
(-0.00682596 0.0157081 -0.000310543)
(-0.00840899 0.0159285 -0.000315461)
(-0.0101291 0.0162487 -0.000335859)
(-0.0120595 0.0166616 -0.000380254)
(-0.0142883 0.0171325 -0.000462132)
(-0.0169139 0.0175851 -0.000603653)
(-0.020029 0.0178775 -0.000841522)
(-0.0236842 0.0177664 -0.00123409)
(-0.0278149 0.016867 -0.00186589)
(-0.0321193 0.0146324 -0.0028383)
(-0.0358916 0.0103971 -0.00424991)
(-0.0376786 0.00351932 -0.00622655)
(-0.0351012 -0.0057153 -0.00858029)
(-0.0251947 -0.013888 -0.0100867)
(-0.00845854 -0.0129721 -0.00807701)
(-0.000104837 0.00921116 -0.00035267)
(-0.000989785 0.015282 -0.000402532)
(-0.00244791 0.0170825 -0.000401906)
(-0.00382829 0.0175174 -0.000381207)
(-0.00522347 0.0176449 -0.000362924)
(-0.00661802 0.0178157 -0.000351171)
(-0.00806383 0.0181433 -0.000350551)
(-0.00963352 0.0186773 -0.000367967)
(-0.0114192 0.0194481 -0.000413659)
(-0.0135403 0.0204711 -0.000504109)
(-0.0161486 0.0217352 -0.000667605)
(-0.0194312 0.0231785 -0.000953213)
(-0.0235983 0.0246436 -0.0014403)
(-0.0288353 0.0258043 -0.00224752)
(-0.0352113 0.0260506 -0.00352687)
(-0.0424467 0.0242515 -0.00545051)
(-0.0491445 0.01847 -0.00818166)
(-0.0511205 0.00630669 -0.0115288)
(-0.0426259 -0.010287 -0.0142892)
(-0.0166733 -0.0186833 -0.0136499)
(-0.000113601 0.0104304 -0.000415078)
(-0.0010513 0.0173305 -0.000482418)
(-0.00254495 0.019281 -0.000480821)
(-0.00387102 0.0196567 -0.000450248)
(-0.0051467 0.019702 -0.000419253)
(-0.00635884 0.0198416 -0.000394446)
(-0.00756623 0.0202255 -0.000381955)
(-0.00884577 0.0209378 -0.000389687)
(-0.010294 0.0220573 -0.00042918)
(-0.0120411 0.0236716 -0.000518699)
(-0.0142673 0.0258754 -0.000689719)
(-0.0172262 0.0287569 -0.000995473)
(-0.021276 0.0323641 -0.0015113)
(-0.0269151 0.0365846 -0.00231444)
(-0.0348357 0.0408219 -0.00342675)
(-0.0457117 0.0430198 -0.00477546)
(-0.058884 0.038344 -0.0063599)
(-0.0690271 0.0184617 -0.00791052)
(-0.0659275 -0.0161457 -0.00920832)
(-0.0280632 -0.0394006 -0.012696)
(-0.000167149 0.011842 -0.000505462)
(-0.00123646 0.0196058 -0.000591368)
(-0.00280719 0.0216103 -0.000583083)
(-0.00406588 0.0218117 -0.000534334)
(-0.00517444 0.0216704 -0.000482909)
(-0.00612475 0.0216835 -0.000438199)
(-0.00698273 0.0220276 -0.000406924)
(-0.00781766 0.0228181 -0.000396581)
(-0.00870599 0.0241828 -0.000419203)
(-0.00975108 0.0262866 -0.000491653)
(-0.0111074 0.0293521 -0.000639923)
(-0.0130182 0.0336545 -0.000898617)
(-0.0159122 0.0395126 -0.00127481)
(-0.0205843 0.0470002 -0.00161729)
(-0.0286502 0.0552414 -0.00141845)
(-0.0425903 0.0599654 0.000294517)
(-0.0654371 0.0518893 0.00400876)
(-0.0905967 0.0147001 0.00916069)
(-0.0926367 -0.0503178 0.0132469)
(-0.036907 -0.089078 -0.00084373)
(-0.000328267 0.0136549 -0.0006585)
(-0.00168532 0.0223824 -0.000780217)
(-0.00338742 0.0243454 -0.000768705)
(-0.00454505 0.0242321 -0.000691151)
(-0.00541918 0.0237275 -0.000599131)
(-0.0060266 0.0234227 -0.000512121)
(-0.00643672 0.0235305 -0.000442226)
(-0.00669246 0.0241919 -0.000399685)
(-0.0068272 0.0255701 -0.000393608)
(-0.00687403 0.0278861 -0.000434771)
(-0.00689908 0.0314729 -0.000533267)
(-0.0070338 0.0367413 -0.000669723)
(-0.00771261 0.0442392 -0.000702513)
(-0.0100354 0.0539374 -3.48563e-05)
(-0.0173168 0.064601 0.00272466)
(-0.0355959 0.068973 0.00974914)
(-0.0743312 0.052298 0.0221604)
(-0.115883 -0.0190166 0.0362335)
(-0.115447 -0.131902 0.035912)
(-0.0422519 -0.171806 0.00476534)
(-0.00064412 0.0163302 -0.00088933)
(-0.00245042 0.0254564 -0.000991416)
(-0.00437709 0.0268552 -0.000943743)
(-0.0054705 0.0260008 -0.000805798)
(-0.00611556 0.0249656 -0.00066568)
(-0.00632252 0.0243038 -0.000537926)
(-0.00618918 0.0241534 -0.000433414)
(-0.00574353 0.0245946 -0.000359559)
(-0.00496728 0.0257718 -0.000324628)
(-0.00378812 0.0279044 -0.00033062)
(-0.00214962 0.0313782 -0.000368497)
(3.14204e-05 0.0366743 -0.000346509)
(0.0023021 0.0444822 4.16756e-05)
(0.00359667 0.0546589 0.00188526)
(-0.00163017 0.0659706 0.00734412)
(-0.0227965 0.0681566 0.0198168)
(-0.0752782 0.0356332 0.0387641)
(-0.122702 -0.0845276 0.0491536)
(-0.126703 -0.22453 0.0295141)
(-0.0491944 -0.263244 -0.00867682)
(-0.00199064 0.0190456 -0.00141882)
(-0.00508479 0.0305089 -0.00163521)
(-0.00673581 0.0315058 -0.00152244)
(-0.00731664 0.0301057 -0.00128408)
(-0.00725881 0.028131 -0.00100972)
(-0.006812 0.0265039 -0.00075361)
(-0.00605244 0.0254312 -0.000540688)
(-0.00492312 0.0250062 -0.000382718)
(-0.0033065 0.0253577 -0.000290155)
(-0.000987395 0.0266149 -0.000254897)
(0.00227168 0.0291663 -0.00025385)
(0.00685311 0.0333567 -0.000174816)
(0.0124006 0.0399441 0.00042866)
(0.0184439 0.0486931 0.00267196)
(0.0186573 0.0593798 0.00963796)
(0.00603686 0.0591977 0.0238575)
(-0.043716 0.0133521 0.0422106)
(-0.0875017 -0.131567 0.0402337)
(-0.122713 -0.27131 0.0136493)
(-0.0494832 -0.341022 -0.0283928)
(-0.00131411 0.0306004 -0.00245041)
(-0.00505933 0.0343855 -0.00231137)
(-0.00875885 0.0328397 -0.00203419)
(-0.009516 0.0289915 -0.0014912)
(-0.00956063 0.0262275 -0.00106239)
(-0.0085561 0.0243018 -0.000684959)
(-0.0069479 0.0230706 -0.00038547)
(-0.00477352 0.0223578 -0.000172171)
(-0.00201007 0.0222279 -6.67033e-05)
(0.00165228 0.0226681 -4.77247e-05)
(0.00648137 0.0240358 -0.00012762)
(0.0131759 0.0263602 -0.000199036)
(0.021459 0.0303255 0.000209237)
(0.0325024 0.0353244 0.0018718)
(0.0396561 0.0420057 0.00755901)
(0.0463127 0.0405841 0.0192371)
(0.0114023 -0.00345647 0.0325981)
(-0.0249062 -0.133976 0.0299917)
(-0.0987861 -0.283938 0.00828508)
(-0.0370658 -0.3908 -0.0456857)
(-0.0126571 0.0281584 -0.00323423)
(-0.021393 0.0493069 -0.00399085)
(-0.0156278 0.0450942 -0.00373358)
(-0.0142222 0.0401992 -0.00302575)
(-0.0104205 0.0343804 -0.00208447)
(-0.0063442 0.0296268 -0.0012548)
(-0.00208728 0.0259415 -0.000608118)
(0.00242077 0.0231352 -0.00015599)
(0.00717179 0.0211861 7.52692e-05)
(0.0127052 0.0198308 8.98755e-05)
(0.0189242 0.0192577 -9.5968e-05)
(0.02711 0.0191281 -0.000475191)
(0.0361539 0.0200738 -0.000620333)
(0.0493124 0.0208408 -8.97557e-06)
(0.0578017 0.0224783 0.00292244)
(0.0753319 0.018918 0.0102685)
(0.0569592 -0.0099014 0.018587)
(0.0513586 -0.110944 0.0220368)
(-0.051734 -0.268393 0.00173419)
(-0.0148315 -0.402809 -0.0573379)
(-0.0465284 0.0880059 -0.0124759)
(-0.0298149 0.0403473 -0.00873973)
(-0.0205899 0.0340563 -0.00647616)
(-0.00164045 0.0269971 -0.00435227)
(0.014237 0.0206318 -0.00290289)
(0.0299607 0.0163782 -0.0017873)
(0.0435358 0.0136693 -0.000954141)
(0.05617 0.0116151 -0.000379318)
(0.0668094 0.010318 -2.15175e-05)
(0.0778765 0.00912529 8.0949e-05)
(0.0866506 0.00875229 -5.71628e-05)
(0.0985202 0.00806005 -0.000476808)
(0.106176 0.00824453 -0.00095736)
(0.123436 0.00694927 -0.00130867)
(0.126071 0.00455971 -0.000836823)
(0.154985 -0.00486596 0.00256033)
(0.132439 -0.0298333 0.00690197)
(0.160122 -0.101188 0.0117983)
(0.0339803 -0.238222 -0.00228114)
(0.0343626 -0.368318 -0.0666905)
(0.117584 0.112216 -0.0112188)
(0.144204 0.0598326 -0.0118399)
(0.216159 0.0394772 -0.0116438)
(0.260858 0.0262149 -0.0104176)
(0.293396 0.0173816 -0.00894998)
(0.320798 0.0114202 -0.00767062)
(0.341192 0.00771275 -0.00653075)
(0.360565 0.00516383 -0.00560092)
(0.373009 0.00371594 -0.0047413)
(0.389208 0.00253311 -0.00414153)
(0.395669 0.00205616 -0.00361678)
(0.412827 0.00151981 -0.00329371)
(0.412667 0.00140259 -0.00318175)
(0.435023 0.000959724 -0.00289802)
(0.422998 -8.22377e-05 -0.00288911)
(0.451263 -0.00339964 -0.0020253)
(0.40755 -0.0119565 -0.00143745)
(0.421051 -0.0325135 -0.00117372)
(0.251304 -0.0729563 -0.00898506)
(0.165991 -0.138587 -0.076997)
(-0.000112464 0.000130273 -8.9935e-05)
(-0.000813643 0.000340891 -4.61822e-05)
(-0.00197654 0.000411699 -2.0005e-05)
(-0.00314915 0.00043109 -5.93561e-06)
(-0.00434395 0.000436482 -5.82295e-06)
(-0.00552426 0.000439233 -1.58789e-05)
(-0.00667224 0.000438996 -3.48213e-05)
(-0.00776494 0.000432017 -6.36416e-05)
(-0.00876909 0.000413233 -0.000103749)
(-0.00964025 0.00037719 -0.000157038)
(-0.0103214 0.000318264 -0.000225293)
(-0.010744 0.000231552 -0.000309499)
(-0.0108316 0.000114618 -0.000408935)
(-0.0105061 -3.51762e-05 -0.000519808)
(-0.00970133 -0.000211305 -0.000633418)
(-0.0083803 -0.000397836 -0.000737003)
(-0.00656381 -0.000564965 -0.000809263)
(-0.0044032 -0.000661649 -0.000823014)
(-0.00198415 -0.000606421 -0.000753987)
(-0.000350075 -0.000237481 -0.000457067)
(-0.000336646 0.000914761 -0.000228804)
(-0.00174288 0.00181086 -0.000217926)
(-0.00386399 0.00211066 -0.000195828)
(-0.00599825 0.00218026 -0.000174928)
(-0.00814771 0.00217115 -0.000166525)
(-0.0102402 0.00212984 -0.00016843)
(-0.0122338 0.00205874 -0.00017985)
(-0.0140834 0.00194648 -0.000202414)
(-0.0157314 0.00177698 -0.000238689)
(-0.0171054 0.00153233 -0.000291673)
(-0.0181177 0.00119452 -0.000364223)
(-0.0186658 0.000747957 -0.000458272)
(-0.0186427 0.000183008 -0.000573654)
(-0.01794 -0.000494115 -0.000707621)
(-0.016465 -0.00125242 -0.000845918)
(-0.0141743 -0.00202807 -0.000972349)
(-0.0111143 -0.002705 -0.00105783)
(-0.00751633 -0.00308649 -0.00106637)
(-0.00352419 -0.00286092 -0.000961587)
(-0.000709581 -0.00141625 -0.000535628)
(-0.000425078 0.00224385 -0.000307812)
(-0.00213044 0.00411174 -0.000317616)
(-0.00465886 0.0047244 -0.000298604)
(-0.00718533 0.00484656 -0.000273479)
(-0.00971609 0.00479033 -0.000259085)
(-0.012168 0.00465089 -0.000254353)
(-0.014494 0.00443712 -0.00025915)
(-0.0166443 0.00413048 -0.000275892)
(-0.0185562 0.00370304 -0.000308182)
(-0.0201517 0.00312264 -0.000360251)
(-0.0213357 0.00235648 -0.000436319)
(-0.021997 0.00137659 -0.000539822)
(-0.022009 0.000167599 -0.000672661)
(-0.021237 -0.00125645 -0.000829901)
(-0.0195631 -0.00283814 -0.000999416)
(-0.0169165 -0.00444996 -0.00115935)
(-0.0133262 -0.00585892 -0.00127197)
(-0.00904993 -0.00666279 -0.00128911)
(-0.00425062 -0.00622199 -0.00116178)
(-0.000853367 -0.00330229 -0.00063381)
(-0.000452013 0.00364534 -0.000369247)
(-0.00227971 0.00654548 -0.000398047)
(-0.00498736 0.00747599 -0.000382643)
(-0.00768444 0.00764268 -0.000355306)
(-0.0103878 0.00753307 -0.000337405)
(-0.0130139 0.00729374 -0.000328893)
(-0.0155197 0.00694048 -0.000330383)
(-0.0178599 0.00644811 -0.000345191)
(-0.0199756 0.00577649 -0.000378133)
(-0.0217905 0.0048775 -0.000435091)
(-0.023207 0.00369994 -0.000522346)
(-0.0241031 0.00219767 -0.000645743)
(-0.0243328 0.000343506 -0.000809566)
(-0.0237271 -0.0018543 -0.00101469)
(-0.0221109 -0.0043244 -0.00124208)
(-0.0193449 -0.00688026 -0.00146575)
(-0.015399 -0.00915903 -0.00163358)
(-0.0105371 -0.0105095 -0.00167548)
(-0.00494071 -0.00988168 -0.00152035)
(-0.000969967 -0.00530441 -0.00083427)
(-0.000457413 0.00512437 -0.000420265)
(-0.00234738 0.00912594 -0.000466974)
(-0.00516262 0.010393 -0.000455339)
(-0.00796779 0.0106101 -0.000427296)
(-0.0107909 0.0104542 -0.000408372)
(-0.0135526 0.0101276 -0.000399538)
(-0.0162191 0.00965489 -0.000402298)
(-0.018755 0.00900491 -0.000421124)
(-0.0211111 0.00812498 -0.000462416)
(-0.0232184 0.00694842 -0.000534318)
(-0.0249802 0.00539954 -0.000646299)
(-0.0262637 0.00340275 -0.000807841)
(-0.0268938 0.000899564 -0.00102621)
(-0.0266518 -0.0021227 -0.00130942)
(-0.0252799 -0.00559808 -0.00164044)
(-0.0225244 -0.00929162 -0.0019797)
(-0.0182372 -0.0126905 -0.00225473)
(-0.0126485 -0.01482 -0.00235556)
(-0.00595063 -0.0140736 -0.00216052)
(-0.00114632 -0.00756763 -0.00120012)
(-0.000457751 0.00665188 -0.000469599)
(-0.00239781 0.011817 -0.000534669)
(-0.00530915 0.0134422 -0.000527203)
(-0.00821502 0.0137211 -0.000499461)
(-0.0111546 0.0135345 -0.000481129)
(-0.0140551 0.0131464 -0.000474318)
(-0.016896 0.0125929 -0.000481657)
(-0.0196571 0.0118385 -0.00050914)
(-0.0223052 0.0108185 -0.000565306)
(-0.024786 0.00944519 -0.000661482)
(-0.0270114 0.00761148 -0.000811894)
(-0.0288441 0.00519819 -0.00103284)
(-0.0300803 0.00209337 -0.00134105)
(-0.0304428 -0.00177246 -0.00174717)
(-0.0295611 -0.00637721 -0.00224923)
(-0.0270054 -0.0114664 -0.00279237)
(-0.0224206 -0.0163667 -0.00327201)
(-0.0159053 -0.0196799 -0.00350703)
(-0.00760835 -0.0189948 -0.00326562)
(-0.00146959 -0.0102332 -0.00182939)
(-0.0004574 0.00822709 -0.000524094)
(-0.00245041 0.014621 -0.000609781)
(-0.00546398 0.0166279 -0.000606938)
(-0.0084751 0.0169811 -0.000579597)
(-0.0115348 0.0167822 -0.000562045)
(-0.0145786 0.0163642 -0.000557819)
(-0.017603 0.015779 -0.000571011)
(-0.0206088 0.014991 -0.000609611)
(-0.0235871 0.0139252 -0.000685098)
(-0.02651 0.0124733 -0.000813363)
(-0.0293128 0.0104914 -0.0010158)
(-0.031869 0.00780162 -0.00131971)
(-0.0339598 0.00420766 -0.0017565)
(-0.0352549 -0.000466183 -0.00235349)
(-0.0352534 -0.00628301 -0.00313189)
(-0.0332838 -0.0130592 -0.0040354)
(-0.0286527 -0.0199966 -0.00491187)
(-0.0211107 -0.0251811 -0.00546034)
(-0.0105668 -0.0250004 -0.00520725)
(-0.00214933 -0.013668 -0.00294213)
(-0.000457011 0.00985765 -0.000588401)
(-0.0025098 0.0175532 -0.000698452)
(-0.00563501 0.0199647 -0.000700359)
(-0.00875332 0.0204008 -0.000672324)
(-0.0119288 0.0202042 -0.00065409)
(-0.0151064 0.0197868 -0.000651026)
(-0.0183035 0.0192234 -0.000669083)
(-0.021548 0.0184841 -0.000718767)
(-0.0248654 0.017491 -0.00081538)
(-0.0282694 0.0161198 -0.000981068)
(-0.0317416 0.0141907 -0.00124763)
(-0.0351998 0.0114593 -0.00165931)
(-0.0384478 0.00761625 -0.00227186)
(-0.0411133 0.00232167 -0.00314557)
(-0.0426002 -0.0046806 -0.0043579)
(-0.04199 -0.0133941 -0.00589597)
(-0.0380785 -0.0230361 -0.00753233)
(-0.0298516 -0.031235 -0.00879715)
(-0.0164335 -0.0326879 -0.00870235)
(-0.00378182 -0.0188342 -0.00505466)
(-0.000457751 0.0115543 -0.000666895)
(-0.00258056 0.0206328 -0.000806519)
(-0.00582759 0.0234663 -0.000812739)
(-0.00904865 0.0239835 -0.000781426)
(-0.0123226 0.0237934 -0.000759063)
(-0.0156042 0.0233987 -0.000753333)
(-0.0189342 0.022906 -0.000772462)
(-0.0223734 0.0223017 -0.000829926)
(-0.0259918 0.0215167 -0.000945619)
(-0.0298617 0.0204247 -0.00114954)
(-0.0340406 0.0188231 -0.00148754)
(-0.0385372 0.0164066 -0.00202888)
(-0.0432488 0.0127441 -0.00287292)
(-0.0478676 0.00728202 -0.00414978)
(-0.0517939 -0.000564246 -0.00598927)
(-0.0539464 -0.0111366 -0.00849861)
(-0.0525764 -0.0241255 -0.0115236)
(-0.0451921 -0.0371788 -0.0141987)
(-0.0288464 -0.0431773 -0.0146724)
(-0.00788358 -0.0281232 -0.00927233)
(-0.000463423 0.0133349 -0.000765335)
(-0.00267465 0.0238861 -0.000941376)
(-0.00605749 0.027147 -0.000950624)
(-0.00937069 0.0277248 -0.000911517)
(-0.0127111 0.0275256 -0.000879079)
(-0.0160429 0.0271573 -0.000863866)
(-0.0194313 0.026769 -0.000876744)
(-0.0229728 0.0263763 -0.000934334)
(-0.0267879 0.0259367 -0.00106143)
(-0.0310233 0.025347 -0.00129689)
(-0.0358439 0.0244142 -0.00170337)
(-0.0414098 0.0228099 -0.00238211)
(-0.0478211 0.0200147 -0.00349048)
(-0.0550179 0.0152711 -0.00524779)
(-0.0626433 0.00760527 -0.00790909)
(-0.0698893 -0.00404639 -0.0116922)
(-0.0745417 -0.0206418 -0.0163788)
(-0.0713633 -0.0416677 -0.0206456)
(-0.0529108 -0.0592145 -0.021641)
(-0.0166013 -0.0476521 -0.0161493)
(-0.000482744 0.0152322 -0.000892745)
(-0.00281798 0.0273535 -0.00111394)
(-0.00636094 0.0310247 -0.00112359)
(-0.00975165 0.0316129 -0.00106953)
(-0.0131121 0.0313585 -0.00101788)
(-0.0164148 0.0309899 -0.000982684)
(-0.0197489 0.0307092 -0.000977698)
(-0.0232442 0.0305748 -0.00102237)
(-0.0270701 0.030593 -0.00114562)
(-0.0314502 0.0307182 -0.00139395)
(-0.0366753 0.0308207 -0.00184538)
(-0.0431113 0.0306299 -0.00263181)
(-0.0511915 0.0296565 -0.00396507)
(-0.0613831 0.0270946 -0.00613941)
(-0.0741086 0.0216457 -0.00942568)
(-0.0892355 0.0109279 -0.0137114)
(-0.103768 -0.00967929 -0.0178139)
(-0.107743 -0.0458888 -0.0191021)
(-0.087166 -0.0900115 -0.0180958)
(-0.0285259 -0.0914717 -0.0202646)
(-0.000533749 0.0173106 -0.0010646)
(-0.00306065 0.0311122 -0.00134301)
(-0.00680702 0.0351441 -0.00134959)
(-0.0102588 0.03565 -0.0012699)
(-0.0135789 0.0352473 -0.00118492)
(-0.0167493 0.0348034 -0.00111408)
(-0.0198804 0.0345822 -0.00107437)
(-0.0231265 0.0346971 -0.0010872)
(-0.0266913 0.0352247 -0.00118355)
(-0.0308588 0.0362185 -0.00141308)
(-0.0360332 0.0376858 -0.00185936)
(-0.0427891 0.0395363 -0.00265964)
(-0.0519402 0.041505 -0.00400341)
(-0.0646337 0.042953 -0.00600721)
(-0.082338 0.0420648 -0.00825907)
(-0.105616 0.0333422 -0.00881899)
(-0.129411 0.00394413 -0.00364422)
(-0.138551 -0.0626389 0.00830006)
(-0.115291 -0.15016 0.0117638)
(-0.035562 -0.170372 -0.0112767)
(-0.000647829 0.0196562 -0.00130499)
(-0.00348159 0.0352024 -0.00164767)
(-0.00750575 0.0394482 -0.00163736)
(-0.0110091 0.0397094 -0.00151403)
(-0.0142218 0.0390323 -0.00137891)
(-0.0171359 0.0384119 -0.00125599)
(-0.019884 0.0381576 -0.00116337)
(-0.0226307 0.038436 -0.0011213)
(-0.0255818 0.0394087 -0.00115946)
(-0.0290308 0.0412575 -0.00132071)
(-0.033427 0.044191 -0.00166909)
(-0.0394589 0.0484118 -0.00227833)
(-0.0481852 0.0540183 -0.00311526)
(-0.0612241 0.0604192 -0.00353591)
(-0.0806368 0.0641734 -0.00112754)
(-0.107066 0.0539371 0.00943656)
(-0.136217 0.00841229 0.0332896)
(-0.149664 -0.0940547 0.0592674)
(-0.125592 -0.220033 0.0497113)
(-0.0344301 -0.258929 0.00213494)
(-0.000920392 0.022555 -0.00168196)
(-0.00430768 0.0401307 -0.00213448)
(-0.00869215 0.0445143 -0.00211182)
(-0.0121732 0.0443521 -0.00192179)
(-0.0151545 0.0431274 -0.00169424)
(-0.0176737 0.0420345 -0.00147239)
(-0.0198714 0.0414622 -0.00128403)
(-0.0218835 0.0416373 -0.00115247)
(-0.0238732 0.0427975 -0.00109908)
(-0.0260733 0.0452488 -0.0011474)
(-0.0288595 0.0494138 -0.00131064)
(-0.0328363 0.0557802 -0.00150246)
(-0.0390174 0.0647332 -0.00122827)
(-0.0490565 0.0751702 0.00143459)
(-0.0655877 0.0814315 0.0114007)
(-0.0901354 0.0670426 0.036313)
(-0.123357 0.0073639 0.0759387)
(-0.140619 -0.122922 0.0969195)
(-0.120702 -0.272886 0.0555795)
(-0.0296532 -0.337983 0.000122352)
(-0.00131212 0.026375 -0.00221392)
(-0.00532728 0.044972 -0.00268595)
(-0.01034 0.0486762 -0.00259468)
(-0.0139591 0.047498 -0.00228369)
(-0.0167834 0.0456366 -0.00195149)
(-0.0188089 0.0441722 -0.00163052)
(-0.0202522 0.0433787 -0.00134756)
(-0.0212517 0.0434209 -0.00112041)
(-0.0219064 0.0445465 -0.000963774)
(-0.0223079 0.047132 -0.000875141)
(-0.0226425 0.05176 -0.000803888)
(-0.0232014 0.0590881 -0.000461863)
(-0.024763 0.0696986 0.00110095)
(-0.0286001 0.0818322 0.0069223)
(-0.0382818 0.0894196 0.0232392)
(-0.0562686 0.0728425 0.0569905)
(-0.0908968 0.00713561 0.0975757)
(-0.104016 -0.142557 0.0966553)
(-0.102956 -0.303632 0.0369398)
(-0.0193528 -0.408688 -0.0146563)
(-0.00340062 0.0299423 -0.00324534)
(-0.00962011 0.0533735 -0.00397236)
(-0.0141368 0.0568836 -0.00378159)
(-0.0170032 0.0550338 -0.00330598)
(-0.0188108 0.0516855 -0.00272865)
(-0.0199678 0.0487392 -0.00215999)
(-0.0205622 0.0466015 -0.00165318)
(-0.0205735 0.0454744 -0.00123587)
(-0.0199208 0.0455858 -0.000922773)
(-0.0184619 0.0472559 -0.000687189)
(-0.0161006 0.0510928 -0.000437224)
(-0.0125921 0.0577031 0.000210983)
(-0.00846119 0.0678817 0.00241763)
(-0.00354297 0.0796434 0.00923943)
(-0.00274263 0.0885252 0.0270381)
(-0.00450682 0.0740347 0.0594143)
(-0.030992 0.0116284 0.0913133)
(-0.0357176 -0.136613 0.0759959)
(-0.0731878 -0.307364 0.0252267)
(0.000910544 -0.457677 -0.0318245)
(-0.00146141 0.0446709 -0.00520111)
(-0.00816412 0.0570853 -0.00556235)
(-0.0172094 0.0570774 -0.00499818)
(-0.020492 0.0521881 -0.00398377)
(-0.0228452 0.0485661 -0.00313651)
(-0.0234144 0.0458584 -0.00233554)
(-0.0229177 0.0439511 -0.00163945)
(-0.0214284 0.0427306 -0.00107122)
(-0.0189366 0.0423658 -0.000667042)
(-0.0151823 0.0430285 -0.000385426)
(-0.00992361 0.0453614 -0.000188176)
(-0.00231837 0.0496363 0.00030215)
(0.0073112 0.0568065 0.00211616)
(0.021175 0.0652137 0.00723559)
(0.0327089 0.0721639 0.0206742)
(0.051825 0.0628738 0.044702)
(0.0373152 0.0125131 0.0651913)
(0.0418948 -0.107016 0.0551712)
(-0.0284258 -0.292085 0.0192683)
(0.0307268 -0.476097 -0.0458211)
(-0.0123647 0.0355508 -0.00618229)
(-0.0242013 0.0787012 -0.00790384)
(-0.0223971 0.0765298 -0.00778369)
(-0.0270195 0.0705516 -0.00665623)
(-0.0268961 0.0626478 -0.00503252)
(-0.0250815 0.0559092 -0.00349759)
(-0.0216093 0.0504185 -0.00222465)
(-0.0168507 0.0460566 -0.0012518)
(-0.0110272 0.0428676 -0.000627846)
(-0.00376745 0.0405964 -0.000317668)
(0.00462921 0.0396662 -0.000315668)
(0.0156187 0.0399166 -0.000456939)
(0.0280489 0.0423193 2.88589e-05)
(0.0460199 0.0452618 0.00246422)
(0.0603974 0.048732 0.00907921)
(0.0895635 0.0430881 0.0234108)
(0.0849609 0.0128703 0.0334835)
(0.116589 -0.0678536 0.0325969)
(0.0410554 -0.259017 0.0102117)
(0.0769958 -0.466249 -0.0572772)
(-0.0762514 0.0998093 -0.0196142)
(-0.0613653 0.0608121 -0.0153316)
(-0.0608088 0.0597479 -0.0119493)
(-0.038407 0.0517393 -0.00893915)
(-0.01944 0.043745 -0.00679839)
(0.00159564 0.0378511 -0.00497674)
(0.0210785 0.0336138 -0.00352859)
(0.0404814 0.0300133 -0.00240599)
(0.05777 0.0274607 -0.00159594)
(0.0761577 0.0250139 -0.00114455)
(0.0913008 0.0237816 -0.00106382)
(0.110608 0.0224581 -0.00139426)
(0.123426 0.0224013 -0.00190465)
(0.14961 0.0220175 -0.00168291)
(0.156354 0.0191889 -0.000993941)
(0.20039 0.0127435 0.00443558)
(0.187062 -0.0170869 0.0105305)
(0.236015 -0.0744682 0.00978557)
(0.158734 -0.237391 0.00306265)
(0.15064 -0.415848 -0.068073)
(0.119147 0.140172 -0.0169589)
(0.151477 0.0856221 -0.018574)
(0.228807 0.0632056 -0.0186095)
(0.283492 0.0477217 -0.0172075)
(0.324546 0.0368033 -0.0154094)
(0.362425 0.0287182 -0.0137546)
(0.390844 0.0230725 -0.0121941)
(0.421417 0.0188044 -0.0109502)
(0.440644 0.0157675 -0.00960841)
(0.468507 0.0133713 -0.00881904)
(0.479827 0.0115339 -0.00774551)
(0.50895 0.0103421 -0.00754033)
(0.5119 0.00902892 -0.00657948)
(0.545797 0.00854169 -0.00711842)
(0.53748 0.00667276 -0.00535424)
(0.575192 0.00361511 -0.00669934)
(0.542861 -0.00509255 -0.00290426)
(0.558843 -0.0251968 -0.00892017)
(0.427313 -0.0671468 -0.0101517)
(0.302704 -0.144653 -0.080913)
(-0.000123657 0.0001267 -0.00013517)
(-0.000926024 0.000377319 -0.00014024)
(-0.00226312 0.000463271 -0.000127022)
(-0.00360321 0.000484567 -0.000116689)
(-0.00495908 0.000487311 -0.000118163)
(-0.00628782 0.000485996 -0.00013081)
(-0.00756978 0.000480383 -0.000154406)
(-0.00878038 0.000466119 -0.000190239)
(-0.00988359 0.00043782 -0.000240637)
(-0.0108311 0.00038952 -0.000307944)
(-0.0115617 0.000315029 -0.00039407)
(-0.0120019 0.000208886 -0.000499782)
(-0.0120696 6.81544e-05 -0.000623784)
(-0.0116805 -0.000109477 -0.000760769)
(-0.0107624 -0.000316026 -0.000900806)
(-0.00927428 -0.000533304 -0.001028)
(-0.00723811 -0.000725289 -0.00112057)
(-0.0048227 -0.000829553 -0.00115266)