/*--------------------------------*- C++ -*----------------------------------*\
  =========                 |
  \\      /  F ield         | OpenFOAM: The Open Source CFD Toolbox
   \\    /   O peration     | Website:  https://openfoam.org
    \\  /    A nd           | Version:  10
     \\/     M anipulation  |
\*---------------------------------------------------------------------------*/
FoamFile
{
    format      ascii;
    class       surfaceScalarField;
    location    "9.125";
    object      phi;
}
// * * * * * * * * * * * * * * * * * * * * * * * * * * * * * * * * * * * * * //

dimensions      [0 3 -1 0 0 0 0];

internalField   nonuniform List<scalar> 
22800
(
-3.11321e-06
4.0908e-06
-9.7274e-07
-9.84528e-06
7.35508e-06
-6.23003e-07
-1.78799e-05
8.44713e-06
-4.12527e-07
-2.65141e-05
8.93523e-06
-3.00997e-07
-3.54948e-05
9.30079e-06
-3.20109e-07
-4.47376e-05
9.68222e-06
-4.39385e-07
-5.41524e-05
1.00686e-05
-6.53875e-07
-6.35553e-05
1.03879e-05
-9.84909e-07
-7.26208e-05
1.0534e-05
-1.46853e-06
-8.0845e-05
1.0373e-05
-2.14882e-06
-8.75216e-05
9.74817e-06
-3.07157e-06
-9.17453e-05
8.4969e-06
-4.27321e-06
-9.24725e-05
6.4883e-06
-5.76105e-06
-8.86738e-05
3.68816e-06
-7.48693e-06
-7.96096e-05
2.41523e-07
-9.30569e-06
-6.51871e-05
-3.48902e-06
-1.09335e-05
-4.65164e-05
-6.68916e-06
-1.19815e-05
-2.62024e-05
-8.30632e-06
-1.20078e-05
-8.1864e-06
-7.35723e-06
-1.06587e-05
-2.09764e-06
-6.08876e-06
-6.17675e-06
1.27699e-05
-2.50239e-06
-1.76315e-05
2.13478e-05
-2.53796e-06
-3.10407e-05
2.43148e-05
-2.45849e-06
-4.53558e-05
2.56092e-05
-2.35892e-06
-6.01404e-05
2.64599e-05
-2.37452e-06
-7.5186e-05
2.72243e-05
-2.49637e-06
-9.02837e-05
2.78969e-05
-2.73062e-06
-0.000105102
2.83171e-05
-3.11115e-06
-0.000119115
2.82357e-05
-3.68878e-06
-0.000131549
2.73335e-05
-4.52627e-06
-0.00014135
2.524e-05
-5.69074e-06
-0.000147182
2.15669e-05
-7.23815e-06
-0.000147525
1.60155e-05
-9.18427e-06
-0.000140934
8.57276e-06
-1.14749e-05
-0.000126397
-3.4853e-07
-1.39478e-05
-0.000103676
-1.00768e-05
-1.61329e-05
-7.44136e-05
-1.84611e-05
-1.74903e-05
-4.24692e-05
-2.28862e-05
-1.73646e-05
-1.38929e-05
-2.08228e-05
-1.51107e-05
-8.10425e-06
-7.88626e-06
-7.22736e-06
2.33629e-05
-3.36562e-06
-2.04343e-05
3.821e-05
-3.65531e-06
-3.57888e-05
4.33293e-05
-3.65996e-06
-5.2108e-05
4.54871e-05
-3.5587e-06
-6.89163e-05
4.6818e-05
-3.5498e-06
-8.59938e-05
4.79424e-05
-3.64061e-06
-0.000103127
4.88784e-05
-3.84792e-06
-0.000119981
4.9389e-05
-4.21791e-06
-0.000136018
4.90899e-05
-4.81783e-06
-0.000150425
4.74746e-05
-5.73421e-06
-0.000162062
4.39426e-05
-7.06494e-06
-0.000169452
3.78592e-05
-8.90282e-06
-0.000170824
2.86926e-05
-1.13051e-05
-0.000164266
1.62549e-05
-1.42405e-05
-0.000148234
1.09403e-06
-1.74742e-05
-0.000122191
-1.56545e-05
-2.04651e-05
-8.77522e-05
-3.05102e-05
-2.23899e-05
-4.96322e-05
-3.87589e-05
-2.22473e-05
-1.5624e-05
-3.5732e-05
-1.90991e-05
-1.42087e-05
-9.51963e-06
-7.43669e-06
3.47982e-05
-3.99862e-06
-2.11463e-05
5.64267e-05
-4.50699e-06
-3.70723e-05
6.38392e-05
-4.58396e-06
-5.4008e-05
6.69111e-05
-4.48818e-06
-7.1504e-05
6.87838e-05
-4.46986e-06
-8.9391e-05
7.03807e-05
-4.55121e-06
-0.000107523
7.17707e-05
-4.7606e-06
-0.000125644
7.26694e-05
-5.15907e-06
-0.000143303
7.25839e-05
-5.83558e-06
-0.000159755
7.08369e-05
-6.90986e-06
-0.000173862
6.6579e-05
-8.52967e-06
-0.000184007
5.88568e-05
-1.08521e-05
-0.00018808
4.67703e-05
-1.40046e-05
-0.000183601
2.97887e-05
-1.80128e-05
-0.000168148
8.30081e-06
-2.26603e-05
-0.000140339
-1.62072e-05
-2.7256e-05
-0.000101201
-3.92085e-05
-3.04397e-05
-5.64081e-05
-5.30288e-05
-3.05231e-05
-1.64082e-05
-4.98033e-05
-2.59287e-05
-1.81955e-05
-1.24213e-05
-7.23747e-06
4.64882e-05
-4.45252e-06
-2.08598e-05
7.51997e-05
-5.15073e-06
-3.67556e-05
8.50247e-05
-5.28979e-06
-5.37364e-05
8.91007e-05
-5.2088e-06
-7.14046e-05
9.16571e-05
-5.20504e-06
-8.96757e-05
9.39693e-05
-5.31756e-06
-0.000108518
9.62023e-05
-5.58911e-06
-0.000127819
9.80712e-05
-6.10059e-06
-0.000147288
9.90245e-05
-6.97175e-06
-0.000166336
9.82561e-05
-8.37108e-06
-0.000183918
9.46836e-05
-1.05227e-05
-0.000198336
8.69704e-05
-1.36961e-05
-0.000207092
7.368e-05
-1.81534e-05
-0.000206882
5.36146e-05
-2.40363e-05
-0.000193906
2.65172e-05
-3.11919e-05
-0.000165337
-5.94763e-06
-3.88292e-05
-0.000120753
-3.91302e-05
-4.46623e-05
-6.65722e-05
-6.16089e-05
-4.56002e-05
-1.75155e-05
-6.04081e-05
-3.84518e-05
-1.8173e-05
-1.75381e-05
-6.8168e-06
5.81115e-05
-4.80646e-06
-2.00285e-05
9.40929e-05
-5.68146e-06
-3.55677e-05
0.000106443
-5.87893e-06
-5.22747e-05
0.000111629
-5.82124e-06
-6.98102e-05
0.000115044
-5.85107e-06
-8.81926e-05
0.000118379
-6.02737e-06
-0.000107538
0.000121959
-6.41145e-06
-0.000127928
0.000125572
-7.11047e-06
-0.00014931
0.000128693
-8.28619e-06
-0.00017136
0.000130482
-1.01764e-05
-0.000193266
0.000129709
-1.3119e-05
-0.000213423
0.000124692
-1.75648e-05
-0.000229056
0.000113343
-2.40307e-05
-0.000235995
9.34978e-05
-3.2944e-05
-0.000228756
6.36443e-05
-4.43656e-05
-0.000201553
2.44059e-05
-5.75571e-05
-0.000151655
-2.00501e-05
-6.89775e-05
-8.4316e-05
-5.65017e-05
-7.24466e-05
-2.05384e-05
-6.30912e-05
-6.10944e-05
-1.24601e-05
-2.62513e-05
-6.24012e-06
6.94789e-05
-5.12727e-06
-1.88116e-05
0.000112847
-6.18247e-06
-3.37381e-05
0.000127806
-6.43647e-06
-4.98799e-05
0.000134172
-6.40163e-06
-6.69489e-05
0.00013858
-6.46782e-06
-8.50671e-05
0.000143215
-6.71776e-06
-0.000104515
0.000148643
-7.23648e-06
-0.00012561
0.000154831
-8.16494e-06
-0.000148614
0.000161417
-9.71892e-06
-0.000173602
0.0001677
-1.223e-05
-0.000200212
0.00017252
-1.62014e-05
-0.00022725
0.000174097
-2.23666e-05
-0.000252103
0.000169897
-3.17009e-05
-0.000269995
0.000156659
-4.52691e-05
-0.000273556
0.000130929
-6.37234e-05
-0.000253379
9.01024e-05
-8.58735e-05
-0.000201457
3.51688e-05
-0.000107141
-0.00011826
-2.34137e-05
-0.000116285
-3.04323e-05
-5.13525e-05
-9.95669e-05
-1.42865e-06
-4.14637e-05
-5.53173e-06
8.04652e-05
-5.45458e-06
-1.72666e-05
0.000131286
-6.70409e-06
-3.13238e-05
0.000148871
-7.00839e-06
-4.65584e-05
0.000156389
-6.9818e-06
-6.27108e-05
0.000161799
-7.06631e-06
-7.99889e-05
0.000167865
-7.37216e-06
-9.88251e-05
0.000175491
-8.01182e-06
-0.000119775
0.000184947
-9.16548e-06
-0.000143465
0.00019622
-1.11138e-05
-0.000170486
0.000209024
-1.43031e-05
-0.000201167
0.000222647
-1.94466e-05
-0.000235152
0.000235742
-2.76601e-05
-0.000270711
0.00024602
-4.05645e-05
-0.000303686
0.000249746
-6.01119e-05
-0.000326111
0.000241009
-8.76557e-05
-0.000324926
0.000210496
-0.000121578
-0.000282412
0.000146064
-0.000153409
-0.000185856
4.97148e-05
-0.000169685
-6.07058e-05
-2.56056e-05
-0.000150897
7.34456e-06
-6.9479e-05
-4.73009e-06
9.1013e-05
-5.8177e-06
-1.54727e-05
0.000149313
-7.28467e-06
-2.84032e-05
0.000169428
-7.62622e-06
-4.23316e-05
0.000177894
-7.57702e-06
-5.69867e-05
0.000184093
-7.63889e-06
-7.26245e-05
0.000191456
-7.95243e-06
-8.97815e-05
0.000201307
-8.65876e-06
-0.000109197
0.000214339
-9.97697e-06
-0.000131805
0.00023108
-1.22509e-05
-0.000158716
0.000251976
-1.60409e-05
-0.00019111
0.000277317
-2.22762e-05
-0.000229949
0.000307037
-3.24568e-05
-0.000275397
0.000340214
-4.87461e-05
-0.000325699
0.000373509
-7.34598e-05
-0.000375324
0.000397583
-0.000106949
-0.000411373
0.000390347
-0.000143803
-0.000404318
0.000312279
-0.000173269
-0.000312357
0.000145438
-0.000187685
-0.000136595
-2.30394e-05
-0.000178328
-1.51062e-05
-0.000114145
-3.92392e-06
0.000101186
-6.24916e-06
-1.36124e-05
0.000166971
-7.96912e-06
-2.52e-05
0.000189344
-8.3283e-06
-3.74041e-05
0.000198308
-8.20962e-06
-4.98878e-05
0.000204762
-8.18483e-06
-6.29008e-05
0.000212895
-8.42703e-06
-7.69954e-05
0.000224505
-9.1034e-06
-9.2962e-05
0.000240768
-1.04623e-05
-0.000111869
0.000262875
-1.28884e-05
-0.000135129
0.00029224
-1.70043e-05
-0.000164556
0.000330566
-2.38204e-05
-0.000202435
0.000379739
-3.48235e-05
-0.000251816
0.000441093
-5.14978e-05
-0.000316301
0.000511313
-7.33193e-05
-0.000398322
0.000573549
-9.39435e-05
-0.000490434
0.000582678
-0.000100219
-0.000552956
0.000463206
-8.84042e-05
-0.000499521
0.000172404
-8.0402e-05
-0.000273719
-0.000129966
-0.000118876
-0.000138576
-0.000150249
-3.28462e-06
0.000111269
-6.79792e-06
-1.20385e-05
0.000184547
-8.82224e-06
-2.21745e-05
0.000208649
-9.1694e-06
-3.22675e-05
0.000217319
-8.91831e-06
-4.18855e-05
0.000223101
-8.72078e-06
-5.12081e-05
0.000231005
-8.78679e-06
-6.06821e-05
0.00024328
-9.30052e-06
-7.09437e-05
0.000261546
-1.05165e-05
-8.288e-05
0.00028762
-1.28084e-05
-9.77535e-05
0.000323845
-1.67319e-05
-0.000117454
0.0003733
-2.30342e-05
-0.000145086
0.000439567
-3.21956e-05
-0.000186816
0.00052508
-4.2257e-05
-0.00025459
0.000623322
-4.42352e-05
-0.000365698
0.00070491
-2.02535e-05
-0.000528348
0.000696221
4.91074e-05
-0.000699657
0.000492002
0.000142512
-0.000703229
1.46909e-05
0.000161286
-0.000419603
-0.000464462
5.08712e-05
-0.000457995
-0.000100185
-3.12487e-06
0.000121999
-7.60549e-06
-1.13725e-05
0.000202787
-9.99218e-06
-2.01308e-05
0.000227721
-1.03132e-05
-2.78127e-05
0.000234863
-9.86131e-06
-3.39277e-05
0.000238598
-9.38253e-06
-3.85561e-05
0.000244775
-9.14215e-06
-4.19231e-05
0.000255984
-9.33742e-06
-4.42699e-05
0.000274095
-1.02024e-05
-4.59138e-05
0.000301295
-1.20311e-05
-4.73624e-05
0.000340416
-1.5122e-05
-4.98284e-05
0.000395235
-1.94694e-05
-5.69588e-05
0.000469939
-2.32422e-05
-7.89576e-05
0.000565824
-1.87445e-05
-0.000140916
0.000670986
1.42947e-05
-0.000287142
0.000743935
0.000107201
-0.000553347
0.000686633
0.000275793
-0.000863862
0.000351434
0.000451083
-0.000887945
-0.000418281
0.000457055
-0.000540072
-0.00107273
0.000260393
-0.00101538
1.73091e-05
-3.94232e-06
0.000134772
-8.83042e-06
-1.25328e-05
0.000222938
-1.15604e-05
-2.02424e-05
0.000247172
-1.17412e-05
-2.53836e-05
0.000250966
-1.09628e-05
-2.75283e-05
0.000250843
-1.01007e-05
-2.66976e-05
0.000253412
-9.46756e-06
-2.28731e-05
0.000261406
-9.24651e-06
-1.57192e-05
0.000276551
-9.60982e-06
-4.7379e-06
0.000301053
-1.07396e-05
1.04613e-05
0.000337762
-1.25457e-05
2.93156e-05
0.000390372
-1.39912e-05
4.79464e-05
0.00046217
-1.08616e-05
4.96678e-05
0.000553445
1.06576e-05
-1.02084e-05
0.000649112
8.17506e-05
-0.000208793
0.00070268
0.00023984
-0.000606718
0.000596436
0.000488122
-0.00102552
6.73089e-05
0.000702924
-0.00104438
-0.0010257
0.000626282
-0.000677612
-0.0017713
0.000331805
-0.00174637
5.33774e-05
-6.88319e-06
0.000152713
-1.10585e-05
-1.73082e-05
0.000247822
-1.4459e-05
-2.43849e-05
0.000268887
-1.46387e-05
-2.67398e-05
0.00026677
-1.34482e-05
-2.44937e-05
0.000260554
-1.19569e-05
-1.78102e-05
0.000257369
-1.06399e-05
-6.4329e-06
0.000259781
-9.75178e-06
1.04677e-05
0.000269072
-9.42162e-06
3.39342e-05
0.000287316
-9.72942e-06
6.57726e-05
0.000316271
-1.03476e-05
0.00010667
0.000358985
-9.51021e-06
0.000152629
0.000417332
-1.12097e-06
0.000182945
0.000491176
3.19525e-05
0.000138421
0.000567295
0.000126341
-9.42591e-05
0.000610173
0.000325187
-0.000553341
0.000454089
0.000601429
-0.00100924
-0.000253306
0.000776511
-0.001104
-0.00148908
0.000558138
-0.000803139
-0.0023257
0.000253533
-0.00251383
-3.56757e-05
-1.24255e-05
0.000179546
-1.4407e-05
-2.64804e-05
0.000279619
-1.77422e-05
-3.38022e-05
0.000293713
-1.75036e-05
-3.41335e-05
0.000282647
-1.55463e-05
-2.77654e-05
0.000267629
-1.34428e-05
-1.52323e-05
0.00025641
-1.15747e-05
3.64034e-06
0.000251122
-1.02141e-05
2.96303e-05
0.000252436
-9.35355e-06
6.47905e-05
0.000261394
-9.23874e-06
0.000111689
0.000278695
-9.32153e-06
0.000172136
0.000306275
-7.73669e-06
0.000243943
0.000343703
1.82228e-06
0.000309062
0.000390052
3.60057e-05
0.000315614
0.000433061
0.000127682
0.000151704
0.000452471
0.000321612
-0.000236873
0.000277482
0.000565183
-0.000705355
-0.000449102
0.000664279
-0.000972426
-0.0016332
0.000411189
-0.000820558
-0.00265652
0.000178952
-0.00316961
-0.00016478
-3.41729e-05
0.000235996
-2.22772e-05
-5.26034e-05
0.00032521
-2.7161e-05
-5.69258e-05
0.000324358
-2.63226e-05
-5.03022e-05
0.000299371
-2.33475e-05
-3.6595e-05
0.000273579
-1.96568e-05
-1.71098e-05
0.000253154
-1.62291e-05
8.52652e-06
0.000239068
-1.35822e-05
4.19813e-05
0.000230764
-1.17834e-05
8.57583e-05
0.000228775
-1.11577e-05
0.000143445
0.000232535
-1.15267e-05
0.000217183
0.000243026
-1.04898e-05
0.000307181
0.000257536
-3.83201e-06
0.000400557
0.000274911
2.17657e-05
0.000464693
0.000279778
8.91462e-05
0.000414594
0.000265561
0.00023701
0.000159576
0.000107941
0.00042456
-0.000294469
-0.000478075
0.000483017
-0.000726926
-0.0015252
0.000324462
-0.000757775
-0.00275908
0.000133416
-0.00363345
-0.000293928
-2.97577e-05
0.000303606
-3.78525e-05
-6.64712e-05
0.000400725
-3.88014e-05
-7.88777e-05
0.00037258
-3.58158e-05
-7.55499e-05
0.000325057
-2.90133e-05
-5.88295e-05
0.000280823
-2.3965e-05
-3.24103e-05
0.000246251
-1.95161e-05
2.10617e-06
0.000220795
-1.62436e-05
4.49756e-05
0.000202023
-1.4128e-05
9.80822e-05
0.000189469
-1.38007e-05
0.000164907
0.000180888
-1.5178e-05
0.000247145
0.000177396
-1.66075e-05
0.000346075
0.000173733
-1.51275e-05
0.000450286
0.000171722
-1.02117e-06
0.000541156
0.000152513
3.63949e-05
0.000561351
0.000118538
0.000126827
0.000417953
-5.43794e-06
0.000256776
3.95086e-05
-0.000404079
0.000304449
-0.000466907
-0.00128406
0.000265278
-0.000648564
-0.00266512
8.76956e-05
-0.00386283
-0.000419186
-0.000181854
0.000532123
-4.66635e-05
-0.000176936
0.000456236
-6.04287e-05
-0.000143475
0.000400126
-6.10073e-05
-0.000104218
0.000340528
-5.47282e-05
-5.51131e-05
0.000275484
-4.37655e-05
-1.25109e-06
0.000226249
-3.38601e-05
5.60244e-05
0.000190257
-2.67378e-05
0.000118245
0.000162176
-2.23736e-05
0.000186515
0.000142309
-2.11092e-05
0.000264994
0.000125447
-2.30391e-05
0.000353612
0.00011563
-2.68514e-05
0.000454501
0.000103302
-3.04576e-05
0.000557434
9.64665e-05
-2.76784e-05
0.000647108
7.29342e-05
-1.00951e-05
0.000695402
3.72206e-05
3.30236e-05
0.00063606
-6.71506e-05
0.000121055
0.000411166
-0.000328752
0.000149567
-5.64348e-05
-0.00101021
0.000193749
-0.000379836
-0.00238099
3.92735e-05
-0.00369077
-0.000551894
-0.000372017
0.00107639
-0.000172249
-0.000261971
0.000478306
-0.000132116
-0.000103736
0.000347424
-0.000105533
7.12572e-05
0.000245333
-7.97983e-05
0.000238943
0.000171664
-6.38655e-05
0.000393693
0.000122804
-5.13048e-05
0.000534026
9.24102e-05
-4.24861e-05
0.00066287
7.04463e-05
-3.71145e-05
0.000782771
5.70002e-05
-3.45919e-05
0.00089875
4.5011e-05
-3.55426e-05
0.00101354
3.96317e-05
-3.87911e-05
0.00113043
3.11563e-05
-4.47435e-05
0.00124886
2.70322e-05
-4.89967e-05
0.00135608
1.13502e-05
-4.56329e-05
0.00144174
-1.52893e-05
-3.31556e-05
0.00145915
-9.40275e-05
9.46954e-06
0.0013634
-0.000280742
4.77347e-05
0.000977788
-0.000717616
9.302e-05
0.0002747
-0.00166955
-8.36031e-06
-0.00273197
-0.000684101
0.00122601
-0.000149621
0.00186661
-0.00016229
0.00237695
-0.000162916
0.00277189
-0.000149608
0.00307625
-0.000132703
0.0033175
-0.000118439
0.00351483
-0.000104925
0.00368045
-9.51752e-05
0.00382279
-8.5332e-05
0.003948
-8.01985e-05
0.00406165
-7.40201e-05
0.00416582
-7.30203e-05
0.00426108
-6.82231e-05
0.00434058
-6.81531e-05
0.00438202
-5.67239e-05
0.00434303
-5.50422e-05
0.00409357
-3.1277e-05
0.00343836
-6.24039e-05
0.00189433
-0.000125523
-0.000837639
-5.33648e-06
6.38804e-06
-2.0243e-06
-1.68561e-05
1.30015e-05
-2.10496e-06
-3.06761e-05
1.5373e-05
-1.96549e-06
-4.53244e-05
1.6235e-05
-1.88776e-06
-6.03165e-05
1.66639e-05
-1.9919e-06
-7.54905e-05
1.70063e-05
-2.27167e-06
-9.0674e-05
1.72692e-05
-2.73958e-06
-0.000105549
1.73302e-05
-3.43966e-06
-0.000119589
1.7007e-05
-4.43549e-06
-0.000132011
1.60723e-05
-5.79987e-06
-0.000141746
1.42666e-05
-7.60258e-06
-0.000147459
1.13288e-05
-9.88922e-06
-0.000147635
7.06219e-06
-1.26474e-05
-0.000140798
1.44395e-06
-1.57681e-05
-0.000125869
-5.27049e-06
-1.89642e-05
-0.000102777
-1.22453e-05
-2.17798e-05
-7.31781e-05
-1.79851e-05
-2.35952e-05
-4.1059e-05
-2.03685e-05
-2.37584e-05
-1.29485e-05
-1.71842e-05
-2.1585e-05
-5.39909e-06
-1.36382e-05
-1.22233e-05
2.01825e-05
-4.0736e-06
-3.41055e-05
3.73069e-05
-4.96112e-06
-5.97141e-05
4.355e-05
-5.02683e-06
-8.66626e-05
4.57917e-05
-4.96705e-06
-0.000114005
4.67155e-05
-5.08339e-06
-0.000141266
4.71891e-05
-5.41834e-06
-0.000167979
4.72646e-05
-6.0131e-06
-0.000193485
4.66676e-05
-6.9424e-06
-0.000216829
4.4967e-05
-8.30498e-06
-0.000236693
4.16228e-05
-1.02131e-05
-0.00025137
3.60279e-05
-1.27748e-05
-0.000258796
2.75784e-05
-1.60613e-05
-0.00025671
1.58482e-05
-2.00571e-05
-0.000243138
1.03567e-06
-2.46385e-05
-0.000216472
-1.6527e-05
-2.93568e-05
-0.000176806
-3.45301e-05
-3.35145e-05
-0.000126776
-4.93506e-05
-3.61549e-05
-7.26093e-05
-5.57113e-05
-3.61882e-05
-2.45975e-05
-4.80264e-05
-3.22804e-05
-1.88858e-05
-1.8997e-05
-1.51742e-05
3.72848e-05
-5.29372e-06
-4.16699e-05
6.68292e-05
-6.68184e-06
-7.24021e-05
7.75064e-05
-6.88425e-06
-0.000104546
8.11975e-05
-6.82063e-06
-0.000136999
8.25246e-05
-6.9056e-06
-0.000169203
8.29681e-05
-7.2158e-06
-0.000200625
8.2654e-05
-7.81558e-06
-0.000230538
8.11686e-05
-8.80602e-06
-0.000257902
7.78338e-05
-1.03201e-05
-0.000281281
7.17829e-05
-1.25156e-05
-0.000298786
6.2024e-05
-1.55559e-05
-0.000308099
4.75645e-05
-1.95756e-05
-0.000306589
2.76628e-05
-2.46295e-05
-0.000291527
2.31634e-06
-3.05838e-05
-0.000260751
-2.78614e-05
-3.69158e-05
-0.000213822
-5.92257e-05
-4.26979e-05
-0.00015346
-8.56115e-05
-4.6491e-05
-8.73406e-05
-9.7537e-05
-4.65413e-05
-2.88638e-05
-8.47093e-05
-4.08929e-05
-3.42121e-05
-2.30572e-05
-1.62131e-05
5.57494e-05
-6.25015e-06
-4.45633e-05
9.87251e-05
-8.05256e-06
-7.73742e-05
0.000114106
-8.37262e-06
-0.000111652
0.000119302
-8.31514e-06
-0.000146297
0.000121086
-8.3863e-06
-0.00018081
0.000121624
-8.69359e-06
-0.000214747
0.000121156
-9.3266e-06
-0.000247482
0.000119164
-1.04191e-05
-0.00027808
0.000114746
-1.21508e-05
-0.000305168
0.00010671
-1.47485e-05
-0.000326821
9.36194e-05
-1.84723e-05
-0.000340472
7.39392e-05
-2.35762e-05
-0.000342922
4.63485e-05
-3.02402e-05
-0.00033057
1.03925e-05
-3.84412e-05
-0.000299918
-3.34942e-05
-4.7679e-05
-0.000248921
-8.08918e-05
-5.65868e-05
-0.000179543
-0.000122576
-6.28534e-05
-0.000100948
-0.000143348
-6.33065e-05
-3.13617e-05
-0.000125532
-5.46922e-05
-4.86251e-05
-2.937e-05
-1.63423e-05
7.46552e-05
-7.01598e-06
-4.52629e-05
0.000131687
-9.1917e-06
-7.88307e-05
0.000152005
-9.62071e-06
-0.000114001
0.000158849
-9.58546e-06
-0.000149749
0.000161306
-9.67782e-06
-0.00018572
0.000162317
-1.00384e-05
-0.000221661
0.000162296
-1.07879e-05
-0.000257174
0.00016068
-1.21035e-05
-0.000291565
0.000156398
-1.42318e-05
-0.000323672
0.000147948
-1.75022e-05
-0.000351653
0.000133407
-2.23295e-05
-0.000372737
0.000110511
-2.91842e-05
-0.000383037
7.69902e-05
-3.84946e-05
-0.000377533
3.13011e-05
-5.04485e-05
-0.000350763
-2.67122e-05
-6.47439e-05
-0.000297756
-9.32435e-05
-7.94852e-05
-0.000218093
-0.000156149
-9.07518e-05
-0.000121721
-0.000192855
-9.2466e-05
-3.49426e-05
-0.000172391
-7.83714e-05
-6.16727e-05
-3.94331e-05
-1.60533e-05
9.35833e-05
-7.68132e-06
-4.4946e-05
0.000165116
-1.02176e-05
-7.86752e-05
0.00019061
-1.07548e-05
-0.000114188
0.000199295
-1.0755e-05
-0.000150563
0.000202726
-1.08956e-05
-0.000187644
0.000204724
-1.13548e-05
-0.000225443
0.000205975
-1.22912e-05
-0.000263904
0.000205968
-1.39379e-05
-0.000302721
0.00020356
-1.66309e-05
-0.00034113
0.000197025
-2.08446e-05
-0.000377593
0.000183978
-2.72272e-05
-0.000409375
0.000161336
-3.66078e-05
-0.000432037
0.000125519
-4.98981e-05
-0.000439001
7.31716e-05
-6.78504e-05
-0.000422598
3.15313e-06
-9.06339e-05
-0.000372492
-8.5339e-05
-0.000115567
-0.00028286
-0.000178755
-0.000136004
-0.000160408
-0.000247431
-0.000140322
-4.35566e-05
-0.000233631
-0.000116706
-7.70124e-05
-5.44681e-05
-1.55359e-05
0.000112321
-8.32861e-06
-4.40731e-05
0.000198709
-1.12385e-05
-7.76077e-05
0.000229591
-1.18834e-05
-0.000113078
0.000240281
-1.19172e-05
-0.000149672
0.000244959
-1.21071e-05
-0.000187453
0.000248461
-1.26739e-05
-0.000226765
0.000251872
-1.3821e-05
-0.000267993
0.000254879
-1.58488e-05
-0.000311393
0.000256446
-1.92051e-05
-0.000356868
0.000254828
-2.45577e-05
-0.000403584
0.00024738
-3.28883e-05
-0.000449399
0.000230364
-4.55791e-05
-0.000490085
0.000198889
-6.43844e-05
-0.000518376
0.000147248
-9.10538e-05
-0.000522778
6.99553e-05
-0.000126123
-0.000489208
-3.84524e-05
-0.00016633
-0.000397991
-0.000178676
-0.000198436
-0.000241118
-0.000316766
-0.000203823
-6.92826e-05
-0.000337387
-0.000167646
-0.000112285
-7.54741e-05
-1.48531e-05
0.000130737
-9.01763e-06
-4.27987e-05
0.000232284
-1.23338e-05
-7.58223e-05
0.000268685
-1.30791e-05
-0.000110818
0.000281416
-1.31216e-05
-0.000147061
0.000287464
-1.33274e-05
-0.000184837
0.00029283
-1.39639e-05
-0.000224847
0.000299152
-1.52823e-05
-0.000267991
0.000306513
-1.76555e-05
-0.000315256
0.000314255
-2.16571e-05
-0.000367524
0.000320979
-2.81858e-05
-0.000425205
0.000324263
-3.8648e-05
-0.000487654
0.000320329
-5.51761e-05
-0.000552329
0.000303676
-8.06776e-05
-0.000613557
0.000266352
-0.000117989
-0.000659861
0.000195313
-0.000166709
-0.000670055
6.68956e-05
-0.000216732
-0.000602949
-0.000154329
-0.000244862
-0.000410676
-0.000441317
-0.000237408
-0.000142136
-0.000556504
-0.00020032
-0.000222317
-0.000101583
-1.40583e-05
0.00014878
-9.80246e-06
-4.1236e-05
0.000265753
-1.35763e-05
-7.34226e-05
0.00030765
-1.44039e-05
-0.000107402
0.000322223
-1.44041e-05
-0.000142492
0.000329469
-1.45543e-05
-0.00017917
0.000336725
-1.51704e-05
-0.000218467
0.000346338
-1.65484e-05
-0.000261806
0.000359002
-1.91255e-05
-0.000310974
0.000374761
-2.35887e-05
-0.000368069
0.000393089
-3.10567e-05
-0.000435352
0.000412631
-4.33611e-05
-0.000514936
0.000430787
-6.33314e-05
-0.00060836
0.000442814
-9.44598e-05
-0.000715372
0.00043795
-0.000138045
-0.00082964
0.000387461
-0.000184829
-0.000924354
0.000223961
-0.000206154
-0.000923557
-0.000150808
-0.000177589
-0.000706359
-0.000701838
-0.000144361
-0.000299488
-0.000983296
-0.000158407
-0.000511694
-0.000124256
-1.32655e-05
0.000166548
-1.07515e-05
-3.96173e-05
0.000299193
-1.50571e-05
-7.06668e-05
0.000346309
-1.59382e-05
-0.000103005
0.00036217
-1.58192e-05
-0.000135922
0.000370006
-1.58042e-05
-0.000170021
0.000378655
-1.62578e-05
-0.000206579
0.000391302
-1.75096e-05
-0.000247428
0.000409423
-2.00339e-05
-0.000295048
0.000434067
-2.45751e-05
-0.000352712
0.000466104
-3.23548e-05
-0.000424692
0.000506127
-4.53374e-05
-0.000516587
0.000553968
-6.6109e-05
-0.000636217
0.000606445
-9.54992e-05
-0.000793347
0.000646146
-0.000124385
-0.000990851
0.00061202
-0.000120999
-0.0011938
0.000369483
-4.27954e-05
-0.00127714
-0.000240026
8.41522e-05
-0.00104791
-0.00111333
0.000101858
-0.000523629
-0.00158491
-4.15406e-05
-0.00107277
-0.000112798
-1.27015e-05
0.000184421
-1.197e-05
-3.84028e-05
0.000332978
-1.69056e-05
-6.81275e-05
0.000384659
-1.77944e-05
-9.81813e-05
0.000400758
-1.74523e-05
-0.000127769
0.000408002
-1.71289e-05
-0.000157528
0.000416864
-1.72362e-05
-0.000188815
0.000431405
-1.81165e-05
-0.000223616
0.000453938
-2.02302e-05
-0.000264731
0.000486639
-2.42658e-05
-0.000316119
0.000532033
-3.12715e-05
-0.000383487
0.000593052
-4.25914e-05
-0.000475283
0.000671914
-5.8346e-05
-0.000604881
0.000764521
-7.07337e-05
-0.000791834
0.000839153
-5.02895e-05
-0.00104783
0.000793118
5.46401e-05
-0.00132851
0.000430761
0.000268512
-0.00147622
-0.000416295
0.000466491
-0.00126101
-0.0015636
0.000396357
-0.000706605
-0.00220334
0.000114888
-0.00185251
-2.70561e-05
-1.2819e-05
0.000203287
-1.36521e-05
-3.84594e-05
0.000368009
-1.93831e-05
-6.68756e-05
0.000423013
-2.02512e-05
-9.40456e-05
0.000437635
-1.95687e-05
-0.000119113
0.000442445
-1.87583e-05
-0.000142684
0.00044959
-1.82971e-05
-0.00016599
0.0004639
-1.85273e-05
-0.000190778
0.000488365
-1.98414e-05
-0.000219519
0.000526077
-2.27284e-05
-0.000255784
0.000580856
-2.76808e-05
-0.000305071
0.000657289
-3.44195e-05
-0.000376437
0.000758326
-3.8288e-05
-0.000486502
0.000876505
-2.06641e-05
-0.000663481
0.000963689
6.67387e-05
-0.000934828
0.000887631
0.000284035
-0.00126223
0.000422163
0.000611794
-0.00147267
-0.000576253
0.000821482
-0.00129439
-0.00188389
0.000599058
-0.000764813
-0.00268909
0.000216566
-0.00265073
5.07142e-05
-1.42026e-05
0.000224706
-1.6047e-05
-4.09141e-05
0.000405824
-2.26634e-05
-6.84316e-05
0.000462146
-2.33572e-05
-9.24113e-05
0.000472805
-2.21529e-05
-0.000111964
0.00047259
-2.06928e-05
-0.000127662
0.000475323
-1.95026e-05
-0.0001405
0.000486381
-1.88897e-05
-0.000151648
0.00050903
-1.9126e-05
-0.000162644
0.000546752
-2.04186e-05
-0.00017574
0.000603892
-2.24863e-05
-0.000194999
0.000685617
-2.30591e-05
-0.000228255
0.000794158
-1.34376e-05
-0.000295025
0.000919453
3.44786e-05
-0.000434385
0.00100481
0.000179994
-0.000697905
0.000913077
0.000477913
-0.00105643
0.000408621
0.000860186
-0.0013002
-0.000632456
0.0010029
-0.00117404
-0.00199554
0.000611784
-0.000738541
-0.00298239
0.000189609
-0.00333929
3.39692e-06
-1.87367e-05
0.00025228
-1.98956e-05
-4.87296e-05
0.000449336
-2.79786e-05
-7.56518e-05
0.000503037
-2.86071e-05
-9.55227e-05
0.000505962
-2.6734e-05
-0.000108376
0.000497784
-2.42969e-05
-0.000114982
0.000493295
-2.2006e-05
-0.000115888
0.00049776
-2.02253e-05
-0.000111369
0.000514255
-1.91653e-05
-0.000101748
0.000546175
-1.8774e-05
-8.74642e-05
0.000597389
-1.81278e-05
-7.02558e-05
0.00067265
-1.37517e-05
-5.57853e-05
0.00077317
5.39709e-06
-6.48557e-05
0.000889175
7.13009e-05
-0.000142772
0.000966652
0.000242411
-0.000358481
0.000886862
0.000567112
-0.000685172
0.000410925
0.000925816
-0.000917671
-0.00059177
0.000968325
-0.000915923
-0.00191974
0.000480587
-0.000640817
-0.00310653
0.000102569
-0.00390851
-0.000107268
-2.49399e-05
0.000288153
-2.53405e-05
-6.04047e-05
0.000501503
-3.44442e-05
-8.90163e-05
0.000548764
-3.46195e-05
-0.000107002
0.000540067
-3.16653e-05
-0.000113829
0.000519372
-2.8204e-05
-0.000110816
0.000503597
-2.48902e-05
-9.87701e-05
0.000497612
-2.21124e-05
-7.75138e-05
0.000503626
-1.99812e-05
-4.63095e-05
0.000524182
-1.84497e-05
-3.49989e-06
0.000561505
-1.62472e-05
5.08691e-05
0.000620114
-9.56983e-06
0.000115221
0.000698764
1.18761e-05
0.000175495
0.000788591
7.63157e-05
0.000193232
0.000845457
0.000231139
9.62863e-05
0.000783632
0.000521788
-0.000134949
0.000396231
0.000811113
-0.000360638
-0.000489286
0.000787484
-0.000538983
-0.00168478
0.000354572
-0.00045725
-0.00305474
4.54251e-05
-0.00432078
-0.00020976
-5.85626e-05
0.000359909
-3.54707e-05
-0.000100862
0.000564072
-4.74307e-05
-0.000123361
0.000592051
-4.71098e-05
-0.000129593
0.000565959
-4.30081e-05
-0.000124665
0.000532496
-3.77097e-05
-0.000110368
0.000505521
-3.24493e-05
-8.64011e-05
0.000487972
-2.79092e-05
-5.0922e-05
0.000480693
-2.43289e-05
-1.54719e-06
0.000485497
-2.18478e-05
6.39658e-05
0.000503493
-1.90281e-05
0.000149003
0.00053775
-1.3163e-05
0.000255087
0.000585472
3.37592e-06
0.000373461
0.00064
5.1983e-05
0.000479804
0.000665652
0.000162609
0.000513079
0.00061464
0.000372726
0.000404752
0.00033625
0.000592869
0.000180798
-0.000344665
0.00056235
-0.000151511
-0.00131079
0.000282776
-0.000232476
-0.00286256
2.22078e-05
-0.00455489
-0.000292296
-4.00047e-05
0.000415976
-5.39142e-05
-0.000113312
0.00066501
-6.64319e-05
-0.000154902
0.000661023
-6.31983e-05
-0.000167777
0.000604635
-5.48137e-05
-0.000159928
0.000548119
-4.74358e-05
-0.000136401
0.000502963
-4.04856e-05
-9.94147e-05
0.000469428
-3.46859e-05
-4.82284e-05
0.000445636
-3.02579e-05
1.87668e-05
0.000432356
-2.76549e-05
0.000104805
0.000428151
-2.58744e-05
0.000213153
0.000436072
-2.32769e-05
0.000346701
0.000450856
-1.406e-05
0.000498246
0.000473039
1.43951e-05
0.000650512
0.000471501
7.82802e-05
0.000761436
0.000427608
0.000202936
0.00074489
0.000251898
0.000357674
0.000560044
-0.000203321
0.000347952
0.000213807
-0.000916161
0.000216891
5.27753e-05
-0.00262367
9.8361e-06
-0.00456438
-0.000356914
-0.000189088
0.000619656
-6.12558e-05
-0.000210178
0.000711557
-8.58863e-05
-0.000218638
0.000698648
-9.01718e-05
-0.000218126
0.000632707
-8.33131e-05
-0.000192026
0.000549956
-7.17025e-05
-0.000146491
0.000483551
-5.9983e-05
-8.54083e-05
0.000432094
-5.04853e-05
-8.52884e-06
0.000390159
-4.37758e-05
8.29401e-05
0.000360195
-4.04171e-05
0.00019213
0.000335882
-3.99593e-05
0.000318699
0.000323787
-4.11349e-05
0.000465936
0.000313387
-4.02268e-05
0.000627767
0.000313746
-3.02174e-05
0.000786728
0.000302084
3.6186e-07
0.000927764
0.000263539
5.6057e-05
0.000981916
0.000162485
0.000156316
0.000942321
-0.000161255
0.000147096
0.000770249
-0.000673555
0.000123214
0.000498015
-0.0023079
-4.26225e-06
-0.00420711
-0.000411157
-0.000665538
0.00128333
-0.000170386
-0.000621731
0.000702306
-0.000166672
-0.000474384
0.000588058
-0.00014229
-0.000270721
0.000470655
-0.00012141
-5.82836e-05
0.000379374
-0.000105721
0.000152798
0.000312772
-9.1608e-05
0.000356715
0.000266512
-8.08214e-05
0.000553242
0.000229601
-7.30828e-05
0.000743527
0.00020387
-6.85516e-05
0.000930163
0.000181068
-6.73651e-05
0.00111711
0.000167285
-6.92393e-05
0.0013046
0.000153393
-7.22323e-05
0.00150099
0.000143819
-7.54586e-05
0.00169544
0.000129819
-6.78172e-05
0.00188716
9.31839e-05
-5.45282e-05
0.00203497
3.57828e-05
-1.1633e-05
0.00208496
-0.000179097
1.55884e-05
0.00203
-0.000546972
2.13931e-05
0.00138728
-0.00164213
-3.14205e-05
-0.00304165
-0.000462272
0.00126916
-0.00013545
0.00196873
-0.000159551
0.00255971
-0.00016584
0.00304142
-0.000160666
0.00343909
-0.000150995
0.00377403
-0.000140604
0.00406538
-0.000129769
0.00432143
-0.000121621
0.00455256
-0.00011259
0.00476148
-0.000108057
0.00495619
-0.000101447
0.00513796
-0.000101398
0.00530883
-9.52669e-05
0.00546896
-9.84655e-05
0.00559146
-8.60442e-05
0.00566378
-9.15818e-05
0.00552262
-6.92066e-05
0.00501771
-0.000104471
0.00336386
-0.000113796
-0.000515433
-6.09722e-06
6.68672e-06
-2.6138e-06
-1.94647e-05
1.45464e-05
-3.28378e-06
-3.55193e-05
1.74357e-05
-3.34661e-06
-5.24333e-05
1.84096e-05
-3.38335e-06
-6.96175e-05
1.87825e-05
-3.59019e-06
-8.68856e-05
1.90003e-05
-4.00386e-06
-0.000104045
1.90802e-05
-4.66086e-06
-0.000120742
1.88779e-05
-5.6205e-06
-0.000136395
1.8177e-05
-6.95896e-06
-0.000150144
1.67075e-05
-8.75857e-06
-0.000160815
1.4161e-05