/*--------------------------------*- C++ -*----------------------------------*\
  =========                 |
  \\      /  F ield         | OpenFOAM: The Open Source CFD Toolbox
   \\    /   O peration     | Website:  https://openfoam.org
    \\  /    A nd           | Version:  10
     \\/     M anipulation  |
\*---------------------------------------------------------------------------*/
FoamFile
{
    format      ascii;
    class       volScalarField;
    location    "9.625";
    object      p;
}
// * * * * * * * * * * * * * * * * * * * * * * * * * * * * * * * * * * * * * //

dimensions      [0 2 -2 0 0 0 0];

internalField   nonuniform List<scalar> 
8000
(
2.08544e-06
-3.63089e-06
5.15112e-05
0.000151655
0.000304561
0.00051326
0.000781564
0.00111363
0.00151299
0.00198128
0.00251666
0.00311153
0.00375
0.00440552
0.00503975
0.00560538
0.00605213
0.00634414
0.00648793
0.00644864
7.44609e-06
1.52873e-06
6.00095e-05
0.000160832
0.000312662
0.000518815
0.000783339
0.00111055
0.00150417
0.00196618
0.00249534
0.00308492
0.00371998
0.0043741
0.005009
0.005577
0.00602555
0.00631454
0.00645367
0.00639181
-7.70391e-05
-8.73898e-05
-3.14978e-05
6.42525e-05
0.000209018
0.000406176
0.000660163
0.000976009
0.00135856
0.0018115
0.00233576
0.0029272
0.00357352
0.00425099
0.0049202
0.00552657
0.00600643
0.0063064
0.00643837
0.0063415
-0.000236374
-0.00024989
-0.000198634
-0.000111312
2.17198e-05
0.000203988
0.000440471
0.000737175
0.00110057
0.00153689
0.00205062
0.00264213
0.00330387
0.00401507
0.00473599
0.00540355
0.00593942
0.00626358
0.0063875
0.00623283
-0.000479003
-0.000495631
-0.000451713
-0.000376806
-0.000260907
-0.00010038
0.000110245
0.000377959
0.000711006
0.00111858
0.00160981
0.00219129
0.00286292
0.00361117
0.00440001
0.00515926
0.00578387
0.00615357
0.00627461
0.00603244
-0.000804524
-0.000824505
-0.000790597
-0.000732293
-0.000639534
-0.000508855
-0.000334717
-0.000109608
0.000175994
0.000533849
0.000977674
0.00152168
0.00217638
0.00294104
0.00379045
0.00465687
0.00540691
0.00586744
0.00601529
0.0056595
-0.00120915
-0.0012329
-0.00121157
-0.0011742
-0.00111113
-0.00101965
-0.000894993
-0.0007304
-0.000516599
-0.00024104
0.000112578
0.000564351
0.00113615
0.00184433
0.00268713
0.00362333
0.00453129
0.00516955
0.00544583
0.00497784
-0.00168673
-0.00171469
-0.00170814
-0.00169576
-0.00166891
-0.00162649
-0.00156588
-0.00148295
-0.00137162
-0.00122281
-0.00102297
-0.000752659
-0.000385677
0.000110414
0.000767247
0.00160221
0.00259858
0.00357427
0.00426764
0.00390051
-0.00222915
-0.00226157
-0.00227112
-0.00228663
-0.00230129
-0.00231674
-0.00233422
-0.00235483
-0.00237957
-0.0024089
-0.00244217
-0.0024769
-0.00250605
-0.00250713
-0.00242142
-0.00208717
-0.00119598
0.000339771
0.0020473
0.00240475
-0.00282707
-0.00286373
-0.00288893
-0.00293293
-0.00299134
-0.00306998
-0.00317568
-0.00331752
-0.00350799
-0.00376438
-0.00411064
-0.00457989
-0.00521299
-0.00602296
-0.00692036
-0.0075273
-0.00695716
-0.00451488
-0.0012184
0.000445967
-0.00347082
-0.00351106
-0.00354867
-0.00361805
-0.00371742
-0.00385829
-0.00405434
-0.00432462
-0.00469648
-0.00520974
-0.00592261
-0.00691729
-0.0083029
-0.0101138
-0.012156
-0.0136705
-0.013033
-0.00906009
-0.00437206
-0.00165678
-0.00415308
-0.00419467
-0.00423693
-0.00432287
-0.00445329
-0.00464661
-0.00492316
-0.00531221
-0.00585598
-0.00661593
-0.00768186
-0.00917357
-0.0112298
-0.0138564
-0.0165892
-0.0182539
-0.0170725
-0.011547
-0.0067631
-0.00296635
-0.00487326
-0.00491171
-0.00494571
-0.00503253
-0.00517578
-0.0054014
-0.00573463
-0.00621258
-0.00689015
-0.0078406
-0.00917391
-0.0110351
-0.0135405
-0.0165782
-0.0195355
-0.0211752
-0.0199934
-0.014815
-0.00988006
-0.00403927
-0.00563841
-0.00566035
-0.00566157
-0.00572236
-0.00585203
-0.00608254
-0.00643948
-0.00696754
-0.007721
-0.00877959
-0.0102619
-0.012306
-0.0150169
-0.0182348
-0.0213982
-0.0236304
-0.0243329
-0.0200471
-0.0143411
-0.00542522
-0.00647657
-0.00647664
-0.00642048
-0.00642906
-0.00650888
-0.00670212
-0.00703607
-0.00755846
-0.00832121
-0.00939718
-0.0109038
-0.0129574
-0.015658
-0.0188648
-0.0222423
-0.0250344
-0.0272415
-0.0230986
-0.0173988
-0.0055534
-0.00757472
-0.007342
-0.00713622
-0.00699449
-0.0069825
-0.00711968
-0.00742164
-0.00791697
-0.00865054
-0.00968254
-0.0111133
-0.0130285
-0.0155128
-0.0184165
-0.0215685
-0.0239351
-0.0260296
-0.0214544
-0.0169062
-0.00138371
-0.00843671
-0.00851278
-0.00814251
-0.00795178
-0.00778565
-0.00776526
-0.0079166
-0.00827357
-0.00888426
-0.00978882
-0.0110712
-0.0127747
-0.0149668
-0.0174088
-0.0200676
-0.0215454
-0.0230366
-0.0171064
-0.0125178
0.0101631
-0.0123239
-0.00945807
-0.00873455
-0.00792514
-0.00758861
-0.00751331
-0.00768053
-0.00805024
-0.00865653
-0.00950948
-0.0107016
-0.0122192
-0.0141556
-0.0161512
-0.0182446
-0.0189412
-0.0192029
-0.0110011
-0.00326614
0.0334978
-0.0118218
-0.0126858
-0.011096
-0.0104722
-0.00961886
-0.00906296
-0.00878429
-0.00878472
-0.00911156
-0.00973464
-0.0107606
-0.0121037
-0.0139454
-0.0157913
-0.0178298
-0.0178154
-0.016602
-0.00375846
0.0133736
0.0767562
-0.0366038
-0.0111299
-0.00932212
-0.00771538
-0.00684302
-0.00663379
-0.00682767
-0.00720009
-0.00783985
-0.00865422
-0.0098676
-0.0112184
-0.0129885
-0.0142432
-0.0150831
-0.0117584
-0.00349737
0.0241753
0.0708034
0.176604
1.08072e-05
-9.68946e-06
4.24064e-05
0.000140835
0.000293464
0.000502504
0.000771553
0.00110491
0.00150643
0.00197817
0.00251883
0.00312141
0.00377043
0.00443922
0.00508844
0.00566791
0.00612307
0.0064135
0.00654806
0.00648415
2.89597e-05
9.49868e-06
6.78857e-05
0.000168477
0.000320597
0.000527013
0.000791648
0.00111886
0.00151246
0.00197469
0.00250468
0.00309636
0.00373541
0.00439539
0.00503875
0.00561567
0.00606882
0.00635477
0.00648714
0.0064026
-4.99989e-05
-7.65913e-05
-2.04388e-05
7.52464e-05
0.000220416
0.000417847
0.000671832
0.000987402
0.00136948
0.00182199
0.0023464
0.00293937
0.00358945
0.00427386
0.00495336
0.00557101
0.00605712
0.00635302
0.00647499
0.00634887
-0.00020521
-0.000236537
-0.000184766
-9.73517e-05
3.62566e-05
0.00021895
0.000455545
0.000752022
0.0011149
0.00155063
0.00206437
0.00265752
0.00332382
0.00404355
0.00477699
0.00546183
0.00600798
0.00632744
0.00643508
0.00624102
-0.000445961
-0.00048134
-0.000436858
-0.000361768
-0.000245075
-8.3788e-05
0.000127397
0.000395443
0.000728637
0.00113643
0.00162861
0.00221317
0.00289187
0.00365245
0.00445725
0.0052421
0.00588695
0.00625549
0.00634964
0.00604678
-0.000771066
-0.000810397
-0.000775987
-0.000717436
-0.000623623
-0.000491718
-0.000316324
-8.99436e-05
0.000196989
0.000556489
0.00100297
0.00155218
0.00221741
0.00300139
0.00388084
0.00478171
0.0055706
0.00604737
0.00615725
0.00568073
-0.00117611
-0.00121968
-0.00119799
-0.00116036
-0.00109603
-0.00100285
-0.000876178
-0.000709222
-0.000492663
-0.000213799
0.000144162
0.000602494
0.00118548
0.00191402
0.00279095
0.00378344
0.00477352
0.00551015
0.00575835
0.00505257
-0.00165464
-0.00170297
-0.00169633
-0.00168381
-0.00165561
-0.00161116
-0.00154788
-0.00146162
-0.00134629
-0.00119291
-0.000988164
-0.000713122
-0.000342605
0.00015574
0.000825752
0.00173153
0.00295561
0.00429741
0.00498651
0.004178
-0.00219841
-0.00225195
-0.00226183
-0.00227753
-0.00229099
-0.00230432
-0.00231878
-0.00233544
-0.00235554
-0.00238043
-0.00241181
-0.00245327
-0.00251151
-0.00258466
-0.00260245
-0.00221362
-0.000743566
0.00185277
0.00349167
0.00335982
-0.00279785
-0.00285682
-0.00288293
-0.00292764
-0.00298528
-0.00306204
-0.00316476
-0.00330257
-0.0034887
-0.00374277
-0.00409505
-0.00459531
-0.00532514
-0.00635244
-0.0075736
-0.00822118
-0.00671618
-0.00276932
0.000489206
0.00244218
-0.00344355
-0.00350758
-0.00354683
-0.00361758
-0.00371689
-0.0038564
-0.00404983
-0.00431648
-0.00468513
-0.00520021
-0.0059325
-0.00699591
-0.00857282
-0.0107909
-0.0134686
-0.0154877
-0.0146013
-0.00957839
-0.00424335
0.000468348
-0.00412732
-0.00419473
-0.00423914
-0.00432701
-0.00445828
-0.00465097
-0.00492555
-0.00531142
-0.00585277
-0.00661739
-0.00771412
-0.00930427
-0.0116424
-0.0148393
-0.01862
-0.0216645
-0.0216199
-0.015717
-0.00944528
-0.00271507
-0.00484767
-0.00491654
-0.00495381
-0.00504368
-0.00518852
-0.00541365
-0.00574516
-0.00622019
-0.00689395
-0.00784738
-0.00921118
-0.0111605
-0.0139829
-0.0177254
-0.0221175
-0.0258858
-0.027037
-0.0214634
-0.0153943
-0.00682841
-0.0056056
-0.00566371
-0.00566645
-0.00573064
-0.00586345
-0.006095
-0.00645237
-0.00697545
-0.00772284
-0.00877719
-0.0102804
-0.0123822
-0.0153898
-0.0192941
-0.0240361
-0.028427
-0.0313007
-0.0269321
-0.0214777
-0.0109148
-0.00642992
-0.00648684
-0.00643357
-0.00644929
-0.00653163
-0.00672364
-0.00705556
-0.00756801
-0.00831902
-0.0093707
-0.0108774
-0.0129675
-0.0158783
-0.0196263
-0.0242398
-0.0285186
-0.0324742
-0.0281665
-0.0245917
-0.0119981
-0.00746818
-0.0072984
-0.00710211
-0.00697067
-0.00697108
-0.00711595
-0.00742011
-0.00790694
-0.00861968
-0.00962538
-0.0110355
-0.0129479
-0.0155392
-0.018752
-0.022644
-0.0259293
-0.0290433
-0.0246368
-0.0240709
-0.00707011
-0.00815816
-0.00845451
-0.00808682
-0.00794673
-0.00779086
-0.00777528
-0.00792083
-0.00826149
-0.00884148
-0.00970754
-0.0109517
-0.0126242
-0.0148491
-0.0174471
-0.0205472
-0.0226785
-0.0247469
-0.0200623
-0.0197734
0.007128
-0.0118632
-0.00916408
-0.00847557
-0.00769563
-0.0074358
-0.00742012
-0.00761917
-0.00799196
-0.00857908
-0.00939217
-0.0105419
-0.0120225
-0.013983
-0.0161212
-0.0185645
-0.0197446
-0.0203939
-0.0141202
-0.0082211
0.0345083
-0.00921185
-0.0117616
-0.0105229
-0.0102517
-0.00956196
-0.00910237
-0.00885814
-0.00884533
-0.00913216
-0.00968566
-0.0106424
-0.0119185
-0.0137869
-0.0157927
-0.0183028
-0.0190823
-0.0183786
-0.00639627
0.0135157
0.0850237
-0.0343971
-0.00926699
-0.00770301
-0.00665535
-0.00614444
-0.00610536
-0.00640967
-0.00682982
-0.00749766
-0.00828799
-0.00948509
-0.0108248
-0.0126336
-0.0140717
-0.0151245
-0.0122875
-0.0037663
0.0263588
0.0846043
0.207
3.35076e-05
6.02695e-06
5.70208e-05
0.000155241
0.000308994
0.000520207
0.000792618
0.00113094
0.00153961
0.00202146
0.00257596
0.00319682
0.00386881
0.00456468
0.00524177
0.00584555
0.00631431
0.00660205
0.0067206
0.00662948
6.15424e-05
3.41944e-05
9.29852e-05
0.000193938
0.00034721
0.000555407
0.000822667
0.00115374
0.00155301
0.00202343
0.00256501
0.00317253
0.00383198
0.00451669
0.00518801
0.00578945
0.0062564
0.00653897
0.0066543
0.00654243
-1.04387e-05
-4.67121e-05
1.02551e-05
0.000106401
0.000252702
0.000451773
0.000708178
0.00102742
0.00141509
0.00187607
0.00241303
0.00302399
0.00369869
0.00441489
0.00513068
0.00578216
0.00628838
0.00657915
0.00667365
0.00650773
-0.000159377
-0.000201579
-0.000148676
-6.06923e-05
7.41245e-05
0.000258522
0.000497651
0.000798058
0.00116709
0.00161247
0.00214109
0.00275649
0.00345442
0.00421622
0.00500302
0.00574035
0.00632119
0.00663428
0.0066916
0.00643234
-0.000395604
-0.000442673
-0.000396873
-0.000321098
-0.000202988
-3.96585e-05
0.000174615
0.000447489
0.000788305
0.00120815
0.00171927
0.00233307
0.00305456
0.00387154
0.00476072
0.00563049
0.0063389
0.00670187
0.00669955
0.00628125
-0.000717486
-0.000769109
-0.000733264
-0.000673896
-0.000578377
-0.000443922
-0.000264617
-3.21306e-05
0.000264402
0.00063908
0.00110962
0.00169684
0.00242111
0.00329346
0.0042829
0.00532795
0.0062436
0.0067252
0.00664675
0.00595378
-0.0011201
-0.00117649
-0.00115331
-0.00111479
-0.00104852
-0.000952345
-0.000821016
-0.000646781
-0.000418843
-0.000122099
0.000264219
0.000767828
0.00142294
0.00226181
0.00329258
0.00452557
0.00576124
0.00651979
0.00640929
0.0053477
-0.00159667
-0.00165833
-0.00165028
-0.00163695
-0.00160684
-0.00155926
-0.00149102
-0.00139701
-0.00126974
-0.00109793
-0.000864424
-0.000544281
-0.000103053
0.000510183
0.00137947
0.00258785
0.00417127
0.00553506
0.00567276
0.00451357
-0.00213865
-0.00220609
-0.0022148
-0.00223006
-0.00224201
-0.00225266
-0.00226267
-0.00227239
-0.00228224
-0.00229261
-0.00230439
-0.0023224
-0.00236147
-0.00242581
-0.00239125
-0.00178364
-4.25115e-05
0.00262689
0.00398221
0.00384855
-0.00273614
-0.00280956
-0.00283493
-0.00287989
-0.00293695
-0.00301216
-0.00311196
-0.00324528
-0.00342583
-0.00367535
-0.00403044
-0.00455986
-0.00539754
-0.00667344
-0.00824141
-0.00905078
-0.00738615
-0.00290543
0.000692798
0.00300829
-0.00337889
-0.00345822
-0.00349743
-0.00356946
-0.00366959
-0.00380932
-0.00400226
-0.00426826
-0.00463858
-0.00516468
-0.00593512
-0.00710798
-0.0089694
-0.0117588
-0.0152252
-0.0177279
-0.0164894
-0.0105002
-0.00469226
0.00038362
-0.00405738
-0.00414108
-0.00418605
-0.00427639
-0.00441032
-0.00460548
-0.00488246
-0.00527178
-0.00582166
-0.00661145
-0.00777688
-0.00954922
-0.0123061
-0.0162719
-0.0210883
-0.0247594
-0.0245457
-0.0183656
-0.0116298
-0.00427129
-0.00476884
-0.00485615
-0.00489504
-0.00498892
-0.00513831
-0.00536785
-0.00570391
-0.00618481
-0.00686971
-0.00785389
-0.00929989
-0.0114664
-0.0147297
-0.0192641
-0.024739
-0.0291535
-0.0304535
-0.0251555
-0.0185306
-0.009688
-0.00550876
-0.00558685
-0.00559105
-0.00566065
-0.00580046
-0.00603887
-0.0064027
-0.00693188
-0.00768902
-0.00876989
-0.0103421
-0.0126328
-0.0160168
-0.0205718
-0.026159
-0.0309085
-0.0335082
-0.0290053
-0.0233012
-0.0134959
-0.00630633
-0.006389
-0.00633667
-0.00636074
-0.00645191
-0.00665206
-0.00699019
-0.00750651
-0.00826004
-0.0093335
-0.0108882
-0.0130686
-0.0162524
-0.0204025
-0.0254896
-0.0296614
-0.03265
-0.0280547
-0.0244233
-0.0133542
-0.00728748
-0.00714855
-0.00695243
-0.00683082
-0.00684443
-0.0070018
-0.0073147
-0.00780521
-0.00851984
-0.00952
-0.0109373
-0.0129021
-0.0156261
-0.0190318
-0.0230851
-0.0260509
-0.0281575
-0.0235573
-0.0222814
-0.00740295
-0.00784673
-0.00820282
-0.0078454
-0.00773508
-0.00760028
-0.00760277
-0.00775881
-0.0081028
-0.00867975
-0.00952378
-0.0107525
-0.0124306
-0.01471
-0.0174041
-0.020569
-0.0224726
-0.0236784
-0.0188567
-0.0166196
0.00726832
-0.0115342
-0.00885511
-0.00810885
-0.00732705
-0.00710009
-0.00712067
-0.00734516
-0.00773239
-0.00831568
-0.0091052
-0.0102251
-0.0116897
-0.013654
-0.0158535
-0.0182996
-0.0193589
-0.0192554
-0.0129208
-0.00463876
0.0355753
-0.00814384
-0.0109512
-0.00981208
-0.00965082
-0.00904036
-0.00865096
-0.00844814
-0.0084628
-0.00874717
-0.00928692
-0.0102031
-0.0114681
-0.0133355
-0.0154451
-0.0180451
-0.018863
-0.0179617
-0.00562333
0.016548
0.0878599
-0.0336618
-0.0083906
-0.00680849
-0.00589673
-0.0055073
-0.00553458
-0.00586911
-0.00630886
-0.00696611
-0.00774091
-0.00889552
-0.0102375
-0.0120508
-0.0136122
-0.0147415
-0.0119355
-0.00268518
0.0285397
0.0903548
0.214396
6.03211e-05
2.87382e-05
7.93714e-05
0.000178036
0.000333609
0.000547943
0.000825016
0.00117002
0.00158805
0.00208275
0.00265442
0.00329742
0.00399654
0.00472334
0.00543232
0.00606294
0.00654622
0.00683122
0.00693362
0.00681933
9.42372e-05
6.22733e-05
0.000121546
0.000223287
0.000378374
0.000589382
0.000860732
0.00119765
0.00160514
0.00208698
0.00264411
0.00327209
0.00395687
0.00467226
0.00537511
0.00600378
0.00648528
0.00676378
0.00686098
0.0067269
2.74521e-05
-1.44632e-05
4.32489e-05
0.00014026
0.000288384
0.000490208
0.000750626
0.00107568
0.00147171
0.00194464
0.00249836
0.00313211
0.00383681
0.00458997
0.00534549
0.00603241
0.00655764
0.00684083
0.00690616
0.00670834
-0.000116436
-0.000165013
-0.00011114
-2.21936e-05
0.000114543
0.000301802
0.000545127
0.000851706
0.00122981
0.00168847
0.00223635
0.0028789
0.00361346
0.00442318
0.00526404
0.0060518
0.00666054
0.00695907
0.00696467
0.00665524
-0.000348693
-0.000402675
-0.000355759
-0.000278915
-0.000158689
7.81659e-06
0.000226804
0.000506694
0.000857969
0.0012934
0.00182764
0.00247518
0.00324454
0.00412752
0.00508987
0.00603332
0.0067844
0.00711874
0.0070253
0.00652479
-0.000667515
-0.000726488
-0.000689436
-0.000628893
-0.000531027
-0.000392995
-0.000208325
3.22009e-05
0.000340794
0.000733599
0.00123138
0.00185929
0.00264202
0.00358904
0.00468916
0.00584554
0.00682874
0.00724935
0.00702019
0.00619363
-0.00106769
-0.00113184
-0.00110744
-0.00106772
-0.000998973
-0.000898958
-0.000761823
-0.000578869
-0.000337858
-2.14762e-05
0.0003945
0.000943018
0.00166498
0.00260103
0.00376902
0.00514844
0.00647396
0.00711361
0.00679136
0.00555312
-0.00154217
-0.00161206
-0.00160288
-0.00158851
-0.00155605
-0.00150476
-0.00143085
-0.00132837
-0.00118864
-0.0009985
-0.000738088
-0.000379048
0.000117489
0.000809266
0.0017814
0.0031578
0.00486628
0.00612794
0.00605116
0.00472139
-0.00208212
-0.00215832
-0.00216618
-0.00218081
-0.00219096
-0.00219859
-0.00220394
-0.00220688
-0.00220738
-0.00220558
-0.00220297
-0.00220892
-0.00225164
-0.00233951
-0.00228337
-0.00152987
0.000433307
0.00308821
0.00433052
0.004188
-0.00267716
-0.00275999
-0.00278495
-0.00283
-0.00288624
-0.00295978
-0.00305688
-0.00318667
-0.00336381
-0.00361282
-0.0039774
-0.00454577
-0.00549555
-0.0069689
-0.00868418
-0.0093184
-0.00748386
-0.0031518
0.000736365
0.00345677
-0.00331643
-0.00340595
-0.00344539
-0.00351849
-0.00361916
-0.00375902
-0.00395188
-0.00421859
-0.00459318
-0.00513387
-0.00594452
-0.00721794
-0.00930512
-0.0124347
-0.0162081
-0.0187002
-0.0176689
-0.0120234
-0.00559403
0.000264617
-0.00398913
-0.00408384
-0.00412966
-0.00422218
-0.00435822
-0.00455548
-0.00483493
-0.0052286
-0.00578867
-0.00660383
-0.00782973
-0.00973647
-0.0127673
-0.0171424
-0.0223832
-0.0263017
-0.0265355
-0.0209332
-0.0137623
-0.00559374
-0.00469115
-0.00479094
-0.0048315
-0.00492883
-0.00508182
-0.00531493
-0.00565492
-0.00614151
-0.00683771
-0.00784831
-0.00935376
-0.0116457
-0.015174
-0.0200857
-0.0259963
-0.0306531
-0.0322274
-0.027527
-0.0209308
-0.0116988
-0.00541392
-0.00550588
-0.00551204
-0.00558628
-0.00573131
-0.00597472
-0.00634317
-0.00687721
-0.00764194
-0.00874109
-0.0103532
-0.0127398
-0.0163144
-0.0211133
-0.0269691
-0.0316019
-0.0340381
-0.0299216
-0.0249044
-0.0152169
-0.0061862
-0.00628608
-0.00623581
-0.00626687
-0.00636462
-0.0065704
-0.00691231
-0.00743036
-0.00818416
-0.00926236
-0.0108235
-0.0130634
-0.016334
-0.0205613
-0.0256432
-0.0294076
-0.0319447
-0.0277479
-0.0251881
-0.0143491
-0.00711931
-0.0070014
-0.00680795
-0.00669574
-0.00671861
-0.00688401
-0.00720155
-0.00769199
-0.00840105
-0.00939438
-0.0107959
-0.0127631
-0.0155124
-0.0189131
-0.0228642
-0.0254772
-0.0272092
-0.0230132
-0.0226626
-0.00766653
-0.00759838
-0.00799598
-0.00763985
-0.007551
-0.00743005
-0.00744352
-0.00760426
-0.00794572
-0.00851007
-0.00933656
-0.0105371
-0.012195
-0.014469
-0.0171557
-0.0202624
-0.0219913
-0.023002
-0.0186296
-0.0172501
0.0078074
-0.0112131
-0.00856978
-0.00780929
-0.00704487
-0.00683593
-0.00687604
-0.00711293
-0.00750342
-0.00807736
-0.00884227
-0.00993263
-0.0113685
-0.0133138
-0.0155066
-0.0179332
-0.0189312
-0.0188146
-0.0129903
-0.00532173
0.0369981
-0.00755331
-0.0105238
-0.00940189
-0.0093028
-0.00872241
-0.0083587
-0.00817
-0.00818432
-0.00845546
-0.00896878
-0.00985177
-0.0110911
-0.0129526
-0.0150931
-0.0177757
-0.0187039
-0.0180093
-0.00582724
0.0163007
0.0906817
-0.0330864
-0.00779623
-0.00621456
-0.00536767
-0.00504138
-0.00511435
-0.00547596
-0.00592768
-0.00658134
-0.007338
-0.00846913
-0.00978896
-0.0116068
-0.0131889
-0.0143644
-0.0115236
-0.00220445
0.0294414
0.0919987
0.219919
8.92262e-05
5.61258e-05
0.000107271
0.000207196
0.000365292
0.000583544
0.000866286
0.00121924
0.00164819
0.00215755
0.00274839
0.00341557
0.00414374
0.00490308
0.00564458
0.006302
0.00679932
0.00708153
0.00716863
0.00703487
0.000126002
9.20566e-05
0.000152137
0.000255246
0.000412832
0.000627592
0.00090431
0.00124873
0.00166652
0.00216226
0.00273772
0.00338909
0.00410186
0.0048502
0.00558602
0.00624206
0.00673733
0.00701117
0.00709053
0.00693836
6.26813e-05
1.83e-05
7.69679e-05
0.000175407
0.000326076
0.000531689
0.000797543
0.00113027
0.00153699
0.00202461
0.00259814
0.00325778
0.0039955
0.00478717
0.00558275
0.00630351
0.00684492
0.00711855
0.00715545
0.00693207
-7.74863e-05
-0.000128891
-7.39162e-05
1.65487e-05
0.00015595
0.000347161
0.000596196
0.000910931
0.00130058
0.00177545
0.00234577
0.00301836
0.00379065
0.00464977
0.00554233
0.00637438
0.00700246
0.00728097
0.00723846
0.00689061
-0.000306485
-0.000363564
-0.000315435
-0.000236968
-0.000113893
5.68684e-05
0.000282063
0.000570925
0.000935084
0.00138891
0.00194917
0.00263279
0.00345075
0.00439338
0.00542222
0.00642385
0.00719651
0.0074898
0.00731949
0.00675972
-0.000622541
-0.000684835
-0.000646501
-0.00058425
-0.000483353
-0.000340757
-0.000149368
0.000100945
0.00042371
0.000836931
0.00136388
0.00203291
0.00287192
0.00389068
0.00507209
0.00630173
0.00730421
0.00764394
0.00730581
0.00638942
-0.00102034
-0.00108804
-0.00106236
-0.00102093
-0.000949115
-0.000844426
-0.000700382
-0.000507348
-0.000251762
8.55078e-05
0.000531157
0.00112128
0.00189855
0.0029001
0.00415818
0.00561376
0.00694684
0.00746136
0.00701912
0.0056634
-0.00149267
-0.00156636
-0.00155602
-0.00154013
-0.00150484
-0.00144918
-0.00136881
-0.00125703
-0.00110418
-0.000895886
-0.000611135
-0.000221681
0.000308972
0.00103572
0.002038
0.0034589
0.00515242
0.00629497
0.00616735
0.00475145
-0.0020304
-0.00211071
-0.00211767
-0.00213124
-0.00213916
-0.0021433
-0.00214355
-0.00213945
-0.00213088
-0.00211854
-0.00210657
-0.00211321
-0.00218538
-0.00233869
-0.00234367
-0.00165505
0.000215452
0.00280626
0.00425339
0.00424518
-0.00262275
-0.00271003
-0.00273451
-0.00277918
-0.00283419
-0.00290568
-0.00299991
-0.00312636
-0.00330096
-0.00355176
-0.00393119
-0.00454828
-0.00561798
-0.00729159
-0.00924896
-0.0100504
-0.00839142
-0.00409534
0.000295795
0.00347877
-0.00325822
-0.0033526
-0.0033921
-0.0034657
-0.00356639
-0.00370599
-0.00389864
-0.0041663
-0.00454578
-0.0051018
-0.00595248
-0.00731894
-0.00959386
-0.0130114
-0.0171178
-0.0198427
-0.0191262
-0.0137184
-0.00668302
-0.000207022
-0.00392496
-0.00402492
-0.00407136
-0.00416532
-0.00430268
-0.00450137
-0.00478286
-0.00518064
-0.00575029
-0.00658791
-0.0078641
-0.00987569
-0.013104
-0.0177468
-0.0232848
-0.0273573
-0.0279521
-0.0228013
-0.0153275
-0.00668451
-0.00461776
-0.0047234
-0.00476517
-0.00486488
-0.0050203
-0.00525595
-0.00559898
-0.00609035
-0.00679598
-0.0078269
-0.00937532
-0.0117544
-0.015435
-0.0205173
-0.0265841
-0.0311348
-0.0327498
-0.0283948
-0.0219436
-0.0127426
-0.00532558
-0.00542397
-0.00543175
-0.00550924
-0.00565764
-0.00590423
-0.00627565
-0.00681297
-0.00758291
-0.00869327
-0.0103297
-0.0127671
-0.0164225
-0.0212537
-0.0270817
-0.0312937
-0.0334244
-0.0294747
-0.0249117
-0.0156965
-0.00607705
-0.00618448
-0.00613576
-0.00617133
-0.00627316
-0.00648228
-0.0068261
-0.00734441
-0.0080971
-0.00917485
-0.0107388
-0.0129889
-0.0162724
-0.0204381
-0.0253055
-0.0285413
-0.030527
-0.0265513
-0.0243646
-0.0143117
-0.00697456
-0.00686688
-0.00667603
-0.00657056
-0.00659864
-0.00676803
-0.00708702
-0.00757536
-0.00827787
-0.00926067
-0.0106486
-0.0125998
-0.0153297
-0.0186524
-0.0224256
-0.0246544
-0.0259242
-0.0218563
-0.0215347
-0.0074198
-0.00741468
-0.00782895
-0.00746963
-0.00739202
-0.00727798
-0.00729675
-0.00745849
-0.00779562
-0.0083488
-0.00915902
-0.0103365
-0.0119694
-0.0142188
-0.0168545
-0.0198517
-0.0213727
-0.0220992
-0.0178652
-0.0162537
0.00831381
-0.0109585
-0.00834419
-0.00758417
-0.0068363
-0.00663508
-0.00668301
-0.00692304
-0.00731064
-0.00787336
-0.00861962
-0.00968552
-0.0110939
-0.0130138
-0.0151717
-0.0175296
-0.0184201
-0.0181143
-0.0124606
-0.00451704
0.0378892
-0.00727271
-0.0102859
-0.00915406
-0.00907624
-0.00850214
-0.00814531
-0.00795794
-0.00796698
-0.00822542
-0.00871738
-0.00957632
-0.0107907
-0.0126371
-0.0147637
-0.0174316
-0.0183018
-0.0175056
-0.00539577
0.0170555
0.0922037
-0.0327794
-0.00748902
-0.00590048
-0.00506648
-0.00476041
-0.00485158
-0.00522365
-0.0056763
-0.00632188
-0.00706216
-0.00817242
-0.00947097
-0.0112707
-0.0128373
-0.0139787
-0.0110843
-0.00158046
0.0302862
0.0934637
0.222498
0.000117046
8.3534e-05
0.000135573
0.000237186
0.000398164
0.000620709
0.000909529
0.00127085
0.00171108
0.00223535
0.00284532
0.00353625
0.00429263
0.00508261
0.00585431
0.00653611
0.00704572
0.00732487
0.00739802
0.00724792
0.000155179
0.000120505
0.000181576
0.000286414
0.00044688
0.000665865
0.000948515
0.00130106
0.00172979
0.00223998
0.00283406
0.00350865
0.0042491
0.00502828
0.00579462
0.00647524
0.00698207
0.00725064
0.00731343
0.00714649
9.40824e-05
4.87815e-05
0.000108535
0.000208772
0.000362405
0.000572344
0.000844288
0.00118541
0.00160353
0.00210641
0.00269991
0.00338498
0.00415413
0.00498142
0.00581292
0.00656266
0.00711615
0.00737881
0.00738953
0.00714615
-4.35017e-05
-9.59756e-05
-3.98138e-05
5.25435e-05
0.000195047
0.000390785
0.000646223
0.000969863
0.00137175
0.00186325
0.00245581
0.00315752
0.00396715
0.00486774
0.00580391
0.00667094
0.00731015
0.00756567
0.00748017
0.00710466
-0.000270032
-0.000328291
-0.000278889
-0.000198428
-7.20743e-05
0.000103494
0.000335539
0.000634015
0.00101153
0.00148372
0.00206897
0.00278531
0.00364263
0.00463808
0.00572028
0.00676336
0.0075423
0.00779041
0.00755357
0.00695585
-0.000583841
-0.000647412
-0.000607754
-0.000543438
-0.000439123
-0.000291487
-9.28694e-05
0.000167646
0.000504659
0.000937572
0.00149139
0.00219634
0.00308172
0.0041547
0.0053932
0.00666591
0.0076611
0.00791758
0.00749095
0.00652537
-0.000979619
-0.0010487
-0.00102171
-0.000978253
-0.000903026
-0.00079329
-0.000642004
-0.000438775
-0.000169066
0.000187419
0.000658598
0.00128148
0.00209754
0.00313553
0.00444261
0.00592375
0.0072223
0.0076184
0.00709633
0.00569202
-0.00145005
-0.00152524
-0.00151372
-0.001496
-0.00145758
-0.00139727
-0.00131029
-0.0011894
-0.00102441
-0.00080062
-0.000497544
-8.97545e-05
0.000452416
0.00117646
0.00214423
0.00351568
0.00514192
0.00619951
0.00609078
0.00468233
-0.00198579
-0.00206775
-0.00207379
-0.00208593
-0.00209134
-0.00209174
-0.00208683
-0.00207606
-0.00205969
-0.00203999
-0.00202561
-0.00204642
-0.00217186
-0.00243587
-0.00260578
-0.00207836
-0.000319577
0.00231784
0.00399685
0.0042051
-0.0025757
-0.00266481
-0.00268873
-0.0027326
-0.00278601
-0.00285514
-0.00294638
-0.00306976
-0.00324294
-0.0034983
-0.00389838
-0.00457384
-0.00577855
-0.00768858
-0.00996729
-0.0110525
-0.00957554
-0.00515797
-0.000274604
0.00340193
-0.00320777
-0.00330415
-0.00334357
-0.00341712
-0.0035173
-0.00365613
-0.00384818
-0.00411663
-0.00450122
-0.00507333
-0.00596512
-0.00742426
-0.00988523
-0.0135868
-0.0180595
-0.0211031
-0.0206818
-0.0152853
-0.00772828
-0.00068327
-0.00386937
-0.00397149
-0.00401832
-0.00411299
-0.00425088
-0.00445015
-0.00473283
-0.00513383
-0.00571191
-0.00656981
-0.00789089
-0.00999063
-0.0133931
-0.0182563
-0.0240395
-0.0282137
-0.0290121
-0.024081
-0.0164928
-0.00752958
-0.00455449
-0.00466252
-0.00470513
-0.00480624
-0.00496296
-0.00519995
-0.00554473
-0.00603938
-0.00675221
-0.00779916
-0.00938143
-0.0118269
-0.0156175
-0.0207965
-0.0269214
-0.0312512
-0.0328093
-0.0286673
-0.0224889
-0.0133725
-0.00525072
-0.00535173
-0.00536073
-0.00544025
-0.00559046
-0.00583857
-0.00621124
-0.00674997
-0.00752265
-0.00863963
-0.0102909
-0.0127575
-0.0164508
-0.0212456
-0.0269755
-0.0307246
-0.0325565
-0.0287858
-0.0247832
-0.0158367
-0.00598699
-0.00609752
-0.00604999
-0.0060882
-0.00619208
-0.00640248
-0.00674634
-0.00726318
-0.00801297
-0.00908695
-0.0106474
-0.0128911
-0.016162
-0.0202447
-0.024901
-0.0277438
-0.0292991
-0.0255221
-0.0238038
-0.0140449
-0.00685953
-0.00675667
-0.00656831
-0.00646727
-0.00649806
-0.00666877
-0.00698691
-0.00747143
-0.00816647
-0.0091377
-0.0105095
-0.0124369
-0.0151333
-0.0183718
-0.0219836
-0.0239196
-0.0248761
-0.0209908
-0.0209047
-0.00697826
-0.00728408
-0.00770447
-0.0073419
-0.00726963
-0.00715809
-0.00717823
-0.0073383
-0.00766968
-0.00821238
-0.00900688
-0.0101634
-0.0117677
-0.0139824
-0.0165558
-0.0194454
-0.0208247
-0.0213757
-0.0173226
-0.015847
0.00888156
-0.0107714
-0.00817739
-0.00742437
-0.00668894
-0.0064915
-0.00654152
-0.00678012
-0.00716197
-0.00771413
-0.00844387
-0.00948938
-0.0108707
-0.0127603
-0.0148687
-0.0171528
-0.0179557
-0.0175508
-0.0120737
-0.00419886
0.038667
-0.00712985
-0.0101537
-0.00900689
-0.00893613
-0.00835987
-0.00800157
-0.00780966
-0.00781042
-0.00805737
-0.00853183
-0.00937287
-0.0105623
-0.0123864
-0.0144732
-0.0170926
-0.0178946
-0.0170321
-0.00493079
0.0175454
0.0934109
-0.0325919
-0.00731276
-0.00571929
-0.00488684
-0.00458786
-0.00468489
-0.00506003
-0.00550898
-0.00614763
-0.0068733
-0.00796915
-0.00924396
-0.0110208
-0.0125424
-0.0136253
-0.0106289
-0.00100654
0.0310513
0.0944228
0.224231
0.00014178
0.000108335
0.000161402
0.000264823
0.000428687
0.000655421
0.000950082
0.00131934
0.00177012
0.00230813
0.00293551
0.00364775
0.00442899
0.00524596
0.00604376
0.00674625
0.00726582
0.00754173
0.0076027
0.0074392
0.000180553
0.000145714
0.00020783
0.000314492
0.000477852
0.000701006
0.000989432
0.00134978
0.00178885
0.00231248
0.00292362
0.00361909
0.00438427
0.00519035
0.00598293
0.00668418
0.00720006
0.00746314
0.00751124
0.00733243
0.000120877
7.53407e-05
0.000136203
0.000238332
0.000394953
0.000609188
0.000887087
0.00123628
0.00166518
0.0021822
0.00279388
0.00350169
0.00429836
0.0051562
0.00601792
0.00679125
0.00735332
0.00760466
0.00759208
0.00733334
-1.49551e-05
-6.77154e-05
-1.0374e-05
8.39649e-05
0.000229593
0.000429824
0.000691512
0.00102368
0.00143705
0.0019438
0.00255625
0.00328327
0.00412422
0.00506027
0.00603212
0.00692642
0.00757175
0.00780379
0.0076797
0.0072848
-0.00023969
-0.000298267
-0.00024762
-0.000165085
-3.54547e-05
0.000144843
0.000383504
0.000691072
0.00108092
0.00156966
0.00217676
0.00292131
0.00381334
0.00484983
0.00597349
0.00704721
0.00782597
0.00802984
0.00772956
0.00711028
-0.000551772
-0.00061569
-0.000574753
-0.000508309
-0.000400616
-0.000248088
-4.25997e-05
0.000227382
0.000577253
0.00102741
0.00160407
0.0023383
0.00325872
0.00437426
0.00565576
0.00695814
0.00793861
0.0081154
0.00760207
0.00661555
-0.000945936
-0.00101541
-0.000987164
-0.000941618
-0.000863057
-0.000748489
-0.000590437
-0.000377951
-9.58394e-05
0.000276868
0.000768642
0.00141657
0.0022612
0.00332906
0.00466003
0.00615121
0.0074092
0.00769308
0.00709154
0.00567941
-0.00141481
-0.00149045
-0.00147779
-0.00145818
-0.0014167
-0.00135198
-0.00125893
-0.00112997
-0.000954733