/*--------------------------------*- C++ -*----------------------------------*\
  =========                 |
  \\      /  F ield         | OpenFOAM: The Open Source CFD Toolbox
   \\    /   O peration     | Website:  https://openfoam.org
    \\  /    A nd           | Version:  10
     \\/     M anipulation  |
\*---------------------------------------------------------------------------*/
FoamFile
{
    format      ascii;
    class       volScalarField;
    location    "6.675";
    object      p;
}
// * * * * * * * * * * * * * * * * * * * * * * * * * * * * * * * * * * * * * //

dimensions      [0 2 -2 0 0 0 0];

internalField   nonuniform List<scalar> 
475
(
-0.059423
-0.0847579
-0.114187
-0.137908
-0.160634
-0.0851553
-0.0984635
-0.114717
-0.133755
-0.150619
-0.0832202
-0.0926195
-0.107594
-0.12498
-0.141325
-0.082486
-0.0934269
-0.108199
-0.12358
-0.137111
-0.0527338
-0.0796081
-0.10321
-0.120857
-0.133537
-0.178915
-0.189144
-0.192848
-0.195626
-0.200158
-0.206714
-0.21377
-0.218518
-0.219284
-0.21534
-0.20616
-0.192674
-0.17665
-0.15984
-0.143584
-0.128479
-0.115631
-0.107122
-0.104001
-0.10454
-0.105327
-0.10399
-0.0996332
-0.0923684
-0.083035
-0.0728222
-0.0625785
-0.0527577
-0.0434192
-0.0342918
-0.0255075
-0.0178008
-0.0118699
-0.00788571
-0.00525666
-0.00310794
-0.00093415
0.00121476
0.00298506
0.00408563
0.00442024
0.00409671
0.00326935
0.00211543
0.000750219
-0.167175
-0.178701
-0.184639
-0.186978
-0.188414
-0.189775
-0.190808
-0.19051
-0.188072
-0.183241
-0.176158
-0.167491
-0.158181
-0.149115
-0.140645
-0.131912
-0.124668
-0.120941
-0.121203
-0.123559
-0.12504
-0.123362
-0.117509
-0.107873
-0.096051
-0.0834143
-0.0706845
-0.0584432
-0.0467864
-0.0357655
-0.0256099
-0.0169839
-0.010533
-0.00620648
-0.0032588
-0.000824126
0.00153143
0.00371309
0.00537342
0.00624362
0.00626019
0.00556139
0.00434615
0.00278719
0.00103819
-0.15465
-0.164178
-0.169736
-0.172027
-0.172097
-0.170676
-0.168112
-0.164474
-0.159868
-0.154699
-0.150324
-0.147838
-0.147455
-0.145654
-0.139329
-0.132817
-0.131379
-0.132559
-0.133873
-0.135166
-0.134373
-0.129619
-0.122282
-0.111257
-0.0982447
-0.0845809
-0.0712623
-0.0585256
-0.0463381
-0.0348375
-0.0244777
-0.0158568
-0.00931279
-0.00466215
-0.0012968
0.00141564
0.00380557
0.00582375
0.00722713
0.00781913
0.00756597
0.00659505
0.00508947
0.00323876
0.00118801
-0.147783
-0.155529
-0.160095
-0.161769
-0.160582
-0.157171
-0.151718
-0.144854
-0.137047
-0.130271
-0.126713
-0.129968
-0.142793
-0.150174
-0.140244
-0.122468
-0.117148
-0.124248
-0.133147
-0.138747
-0.139308
-0.135333
-0.125092
-0.112408
-0.0981654
-0.0837117
-0.0696647
-0.0564245
-0.0441516
-0.0329661
-0.0231036
-0.0148977
-0.00851298
-0.00374258
-0.000136575
0.00274612
0.0051375
0.0070102
0.00820906
0.00860181
0.00818142
0.00706317
0.00540629
0.00342699
0.00121842
-0.143072
-0.149956
-0.154191
-0.155445
-0.153682
-0.14913
-0.142245
-0.133765
-0.124651
-0.117089
-0.113196
-0.118949
-0.135163
-0.147491
-0.146888
-0.139291
-0.132851
-0.130532
-0.132092
-0.133721
-0.132522
-0.127404
-0.118933
-0.107574
-0.0945087
-0.08088
-0.067463
-0.054663
-0.0427224
-0.0318597
-0.0223334
-0.0143856
-0.00808644
-0.00325216
0.000466981
0.00340452
0.00574661
0.00748685
0.00852109
0.00875729
0.00821622
0.00700884
0.00531587
0.00329918
0.0011215
-0.205025
-0.205893
-0.207344
-0.209074
-0.212998
-0.220247
-0.229401
-0.237539
-0.241418
-0.238532
-0.227748
-0.209111
-0.183396
-0.152499
-0.119333
-0.0871083
-0.0585103
-0.035143
-0.0178964
-0.00692119
-0.00148919
-0.000307401
-0.00188253
-0.00484481
-0.00813196
-0.0110705
-0.0133417
-0.0149482
-0.0160908
-0.0169592
-0.0176957
-0.01801
-0.0177786
-0.0168447
-0.0153533
-0.0135905
-0.0117528
-0.00974346
-0.00768504
-0.00557981
-0.00358543
-0.00188736
-0.000662136
4.35555e-05
0.000260271
-0.198616
-0.200888
-0.203138
-0.20717
-0.213785
-0.223424
-0.234168
-0.243328
-0.248046
-0.246012
-0.236369
-0.218332
-0.192611
-0.161232
-0.127148
-0.0939545
-0.0646567
-0.0407812
-0.0230184
-0.0114974
-0.00554503
-0.00390966
-0.00506125
-0.00757507
-0.0104137
-0.0128558
-0.0145799
-0.0156244
-0.0164184
-0.0175009
-0.018613
-0.0190278
-0.0180493
-0.0159909
-0.0137506
-0.0118884
-0.0104902
-0.00925776
-0.00768644
-0.00575413
-0.00373948
-0.00196976
-0.000680296
3.55829e-05
0.000245563
-0.207508
-0.205887
-0.206083
-0.208812
-0.216091
-0.227174
-0.238991
-0.248963
-0.254361
-0.252516
-0.242529
-0.224497
-0.199153
-0.168433
-0.135324
-0.103223
-0.0748865
-0.0519193
-0.0349106
-0.0239237
-0.0182195
-0.0163843
-0.0168942
-0.018439
-0.0200414
-0.0212585
-0.0218507
-0.0216223
-0.0208377
-0.0199271
-0.0188987
-0.0175351
-0.0157675
-0.0138184
-0.0119349
-0.0104493
-0.00913193
-0.0077806
-0.00625521
-0.00454032
-0.00282247
-0.00135979
-0.000343365
0.000159748
0.000205177
-0.194654
-0.196765
-0.198432
-0.202715
-0.210705
-0.221975
-0.233708
-0.243564
-0.249063
-0.248179
-0.239524
-0.222986
-0.199618
-0.171619
-0.142015
-0.113731
-0.0888213
-0.0689447
-0.0549251
-0.0461872
-0.0415542
-0.0396431
-0.0390436
-0.0385282
-0.0374061
-0.0357034
-0.0335547
-0.03048
-0.026851
-0.0234155
-0.0204712
-0.0177791
-0.0150771
-0.0123379
-0.0098406
-0.00774135
-0.00607221
-0.00465611
-0.00330502
-0.00197761
-0.000814658
6.11527e-05
0.000525503
0.000585447
0.000240523
-0.230203
-0.208355
-0.205047
-0.204664
-0.209584
-0.219385
-0.229784
-0.237558
-0.241084
-0.238737
-0.229612
-0.21407
-0.19351
-0.169808
-0.145559
-0.123149
-0.104112
-0.0897683
-0.0809948
-0.0765892
-0.0742399
-0.0723412
-0.0699448
-0.0662473
-0.0612811
-0.0556318
-0.0492481
-0.042301
-0.0353077
-0.0287735
-0.022889
-0.0177027
-0.0134122
-0.0100919
-0.0075731
-0.00549504
-0.00356861
-0.0017094
-6.02538e-05
0.00118454
0.00190834
0.00214146
0.00190545
0.00132391
0.000441472
)
;

boundaryField
{
    inlet
    {
        type            zeroGradient;
    }
    outlet
    {
        type            fixedValue;
        value           uniform 0;
    }
    upperWall
    {
        type            zeroGradient;
    }
    lowerWall
    {
        type            zeroGradient;
    }
    frontAndBack
    {
        type            empty;
    }
}


// ************************************************************************* //
