/*--------------------------------*- C++ -*----------------------------------*\
  =========                 |
  \\      /  F ield         | OpenFOAM: The Open Source CFD Toolbox
   \\    /   O peration     | Website:  https://openfoam.org
    \\  /    A nd           | Version:  10
     \\/     M anipulation  |
\*---------------------------------------------------------------------------*/
FoamFile
{
    format      ascii;
    class       surfaceScalarField;
    location    "6.675";
    object      phi;
}
// * * * * * * * * * * * * * * * * * * * * * * * * * * * * * * * * * * * * * //

dimensions      [0 3 -1 0 0 0 0];

internalField   nonuniform List<scalar> 
890
(
0.00984547
0.000154529
0.00971853
0.000126938
0.00946936
0.000249177
0.00942111
4.82427e-05
0.000144054
0.00927706
0.0101198
3.4736e-05
0.010202
4.47625e-05
0.0104059
4.52164e-05
0.0104655
-1.1293e-05
-7.08319e-05
0.0106804
0.0100726
-3.78845e-05
0.0102151
-9.77414e-05
0.0103784
-0.000118015
0.0105205
-0.00015343
-0.000191307
0.010641
0.0100912
-0.000129037
0.0102118
-0.000218439
0.010332
-0.000238133
0.0104161
-0.000237561
-0.000253521
0.0104783
0.00987096
0.00965252
0.00941439
0.00917683
0.00892331
0.00926276
-0.000106572
0.000120868
0.00928854
-0.000267948
0.00024217
0.00936908
-0.000379184
0.000298649
0.00949838
-0.000479353
0.000350048
0.0096649
-0.000584761
0.000418243
0.00986277
-0.000748809
0.000550936
0.0100693
-0.000950285
0.000743796
0.0102816
-0.00119776
0.000985407
0.0104791
-0.00147804
0.00128055
0.0106469
-0.00177449
0.00160675
0.0107702
-0.00206866
0.0019453
0.0108351
-0.00232266
0.00225776
0.0108381
-0.00252001
0.002517
0.0107576
-0.00261489
0.00269537
0.010577
-0.00257843
0.00275904
0.0103274
-0.00247561
0.00272523
0.0100598
-0.00234426
0.00261182
0.00977109
-0.00211641
0.00240517
0.00946371
-0.00182521
0.00213259
0.00915242
-0.00148984
0.00180113
0.0088425
-0.00111605
0.00142596
0.00854813
-0.000745772
0.00104014
0.00829331
-0.000414934
0.000669757
0.00807368
-0.000119363
0.000338998
0.00788071
0.000134904
5.80625e-05
0.00773371
0.000335354
-0.000188359
0.00763068
0.000482055
-0.000379026
0.00755679
0.000592551
-0.000518651
0.00749179
0.000686481
-0.000621481
0.007424
0.000763128
-0.000695345
0.00734864
0.000804419
-0.000729051
0.00726483
0.000792692
-0.000708884
0.00717386
0.000738444
-0.000647479
0.0070778
0.000675833
-0.000579769
0.00698346
0.000637521
-0.000543181
0.0068985
0.000628089
-0.000543132
0.00682564
0.00062864
-0.000555774
0.00676153
0.000611239
-0.000547132
0.0067016
0.000562971
-0.000503041
0.00664403
0.000483866
-0.000426299
0.00659132
0.000386415
-0.000333705
0.00654561
0.000289411
-0.000243697
0.0065107
0.000194451
-0.000159542
0.0064834
0.000133691
-0.000106392
6.15424e-05
-4.65049e-05
0.0107424
-0.000168594
0.0107662
-0.000291807
0.0107974
-0.000410339
0.0108436
-0.000525517
0.0108985
-0.000639679
0.0109363
-0.000786666
0.0109456
-0.000959607
0.0109281
-0.00118024
0.0108683
-0.00141825
0.0107649
-0.00167101
0.0106011
-0.00190487
0.0103867
-0.00210828
0.0101119
-0.00224524
0.00973767
-0.00224065
0.00928135
-0.00212212
0.00878958
-0.00198384
0.00827966
-0.00183434
0.00777591
-0.00161266
0.0072852
-0.0013345
0.00683088
-0.00103552
0.00641452
-0.000699688
0.0060504
-0.00038165
0.00574213
-0.00010666
0.00549765
0.000125114
0.00532157
0.000310988
0.00520857
0.000448351
0.00514032
0.000550306
0.00509936
0.000633511
0.00508328
0.000702562
0.00509886
0.000747548
0.00514847
0.000754808
0.00522047
0.000720686
0.00529747
0.000661449
0.00536977
0.000603531
0.00544091
0.000566386
0.0055201
0.000548891
0.00561262
0.000536127
0.0057164
0.000507461
0.00582414
0.000455228
0.00592882
0.000379187
0.00602241
0.00029282
0.00610442
0.000207405
0.00616742
0.000131453
0.00622101
8.00994e-05
2.94678e-05
0.010727
-0.000254627
0.0107694
-0.00033422
0.0107889
-0.000429803
0.0107858
-0.000522448
0.0107679
-0.000621759
0.0107161
-0.000734857
0.0106304
-0.000873931
0.0104946
-0.00104441
0.0103108
-0.00123445
0.0100889
-0.00144914
0.00982054
-0.00163651
0.0095124
-0.00180014
0.00903921
-0.00177204
0.00841802
-0.00161947
0.00778505
-0.00148915
0.00710449
-0.00130327
0.00632656
-0.00105641
0.00555547
-0.000841564
0.00486665
-0.000645678
0.00425497
-0.000423839
0.00375437
-0.000199085
0.00337259
1.25726e-07
0.00308289
0.000183038
0.00288429
0.000323716
0.00277153
0.000423748
0.00273721
0.000482667
0.00277006
0.000517462
0.00286701
0.000536561
0.00302394
0.000545628
0.00322928
0.000542215
0.00346256
0.000521527
0.00369999
0.000483253
0.00392413
0.000437311
0.00413117
0.000396489
0.0043297
0.000367858
0.00453082
0.000347768
0.00473989
0.000327062
0.00495232
0.000295035
0.00515761
0.000249934
0.0053435
0.0001933
0.00550004
0.000136275
0.00562439
8.30607e-05
0.00571256
4.32745e-05
0.00577751
1.51584e-05
-2.96755e-06
0.0105053
-0.000281655
0.0104927
-0.000321563
0.0104322
-0.000369302
0.0103222
-0.000412442
0.0101704
-0.000469945
0.00995732
-0.000521815
0.00968819
-0.000604802
0.00932633
-0.000682547
0.00889645
-0.000804566
0.00835773
-0.000910424
0.00777491
-0.00105369
0.00715528
-0.00118051
0.00634745
-0.000964216
0.00529205
-0.000564062
0.00403089
-0.000227985
0.00277692
-4.93114e-05
0.00173242
-1.19128e-05
0.000981511
-9.06517e-05
0.000512198
-0.000176366
0.000264265
-0.000175906
0.000163383
-9.82035e-05
0.000155878
7.63095e-06
0.000245579
9.33364e-05
0.000405172
0.000164123
0.000618995
0.000209925
0.000869028
0.000232635
0.00114572
0.000240765
0.00144104
0.000241249
0.00174875
0.00023791
0.00206133
0.000229635
0.00236746
0.000215405
0.00265501
0.000195696
0.00291835
0.000173977
0.00316048
0.00015436
0.00338969
0.000138647
0.00361228
0.000125177
0.00382835
0.000110994
0.0040302
9.31808e-05
0.00420793
7.21984e-05
0.00435169
4.95415e-05
0.00445855
2.94151e-05
0.00452905
1.25679e-05
0.00457009
2.22916e-06
0.00458993
-4.68615e-06
-6.35576e-06
0.00864165
0.00832009
0.00795079
0.00753835
0.0070684
0.00654659
0.00594178
0.00525924
0.00445467
0.00354425
0.00249056
0.00131005
0.000345834
-0.000218228
-0.000446213
-0.000495525
-0.000507438
-0.000598089
-0.000774455
-0.000950361
-0.00104856
-0.00104093
-0.000947597
-0.000783474
-0.00057355
-0.000340915
-0.00010015
0.000141099
0.000379009
0.000608643
0.000824048
0.00101974
0.00119372
0.00134808
0.00148673
0.00161191
0.0017229
0.00181608
0.00188828
0.00193782
0.00196724
0.0019798
0.00198203
0.00197735
5.86543e-05
-5.86543e-05
1.33654e-05
4.52889e-05
-0.000222719
0.000236084
-0.000708806
0.000486087
-0.00134143
0.00063262
-0.00197725
0.000635828
-0.00252908
0.000551821
-0.00296455
0.000435477
-0.00325802
0.000293465
-0.0033966
0.000138587
-0.00336919
-2.74164e-05
-0.00318898
-0.000180207
-0.00286209
-0.000326889
-0.00240515
-0.000456944
-0.00184884
-0.00055631
-0.00123271
-0.000616122
-0.000590945
-0.00064177
5.19768e-05
-0.000642922
0.000664709
-0.000612733
0.00121637
-0.000551664
0.00168482
-0.000468444
0.0020574
-0.000372582
0.00233136
-0.000273956
0.00251208
-0.000180724
0.00260985
-9.77683e-05
0.00263563
-2.57782e-05
0.00259833
3.72918e-05
0.00250139
9.69401e-05
0.00235568
0.000145716
0.00218006
0.000175622
0.00200159
0.000178463
0.00184294
0.000158653
0.00171717
0.000125766
0.00163139
8.57895e-05
0.00158045
5.09325e-05
0.00155818
2.22697e-05
0.00155849
-3.06986e-07
0.00157782
-1.9328e-05
0.00161231
-3.44907e-05
0.00165782
-4.55163e-05
0.00170738
-4.95525e-05
0.00175637
-4.89969e-05
0.0017978
-4.1421e-05
0.00183371
-3.59141e-05
-2.23716e-05
-0.000175035
0.000116381
-0.000594291
0.000464545
-0.00106875
0.000710542
-0.00148991
0.000907251
-0.00182523
0.000967935
-0.00208204
0.000892644
-0.00224866
0.000718433
-0.00231574
0.000502562
-0.00227157
0.00024929
-0.00210541
-2.7566e-05
-0.00183086
-0.000301971
-0.00142543
-0.000585639
-0.000902593
-0.000849722
-0.000281132
-0.0010784
0.000405747
-0.00124319
0.00112971
-0.00134009
0.0018608
-0.00137286
0.00257179
-0.00135391
0.00323514
-0.00127608
0.00382992
-0.00114645
0.00433726
-0.000975779
0.00474595
-0.000781278
0.00505532
-0.000583326
0.00526852
-0.000393923
0.00539047
-0.000219712
0.00543806
-7.33724e-05
0.00543424
4.11169e-05
0.0054024
0.000128774
0.00535427
0.000193848
0.00529511
0.000234777
0.00522042
0.000253157
0.00513178
0.000247289
0.00502666
0.000230886
0.00489382
0.000218632
0.00473354
0.000211209
0.00456466
0.000191155
0.00441418
0.000150171
0.0043063
8.85513e-05
0.00424975
2.20633e-05
0.00424007
-3.58428e-05
0.0042616
-7.1075e-05
0.00430247
-8.98691e-05
0.00434499
-8.39401e-05
0.00438907
-7.99953e-05
-5.34135e-05
-0.000495887
0.000612268
-0.000661786
0.000630444
-0.000668292
0.000717047
-0.000576013
0.000814973
-0.000429127
0.000821049
-0.000246769
0.000710286
-3.62513e-05
0.000507916
0.000219997
0.000246313
0.00053262
-6.3333e-05
0.000921967
-0.000416913
0.00139617
-0.000776169
0.00193718
-0.00112665
0.00253469
-0.00144723
0.0031729
-0.00171662
0.00383062
-0.00190091
0.00448727
-0.00199673
0.00511973
-0.00200532
0.00570331
-0.0019375
0.00622571
-0.00179848
0.00667254
-0.00159329
0.00703485
-0.00133809
0.00730824
-0.00105466
0.00749219
-0.00076728
0.00759524
-0.000496975
0.00763333
-0.000257802
0.00761499
-5.50322e-05
0.00754814
0.000107966
0.00745225
0.000224665
0.00733649
0.000309613
0.00719885
0.000372414
0.00705281
0.0003992
0.00692202
0.000378072
0.00682165
0.000331256
0.00674467
0.000295613
0.00666056
0.000295317
0.00653984
0.000311883
0.00638039
0.000309615
0.00620436
0.000264584
0.0060405
0.000185923
0.00591135
9.33083e-05
0.00582206
1.82099e-05
0.00577099
-3.87996e-05
0.00574632
-5.92622e-05
0.00573929
-7.29742e-05
-5.6479e-05
-0.000203945
0.000816213
-5.4347e-05
0.000480847
0.000248137
0.000414563
0.000684346
0.000378763
0.00119285
0.000312543
0.00173
0.000173142
0.00227917
-4.12575e-05
0.00282709
-0.000301604
0.00339175
-0.000627993
0.00396751
-0.000992678
0.00456155
-0.00137021
0.00516636
-0.00173146
0.00577281
-0.00205368
0.00636539
-0.0023092
0.00692564
-0.00246116
0.00743789
-0.00250898
0.00789359
-0.00246102
0.00828231
-0.00232621
0.0086004
-0.00211657
0.00884335
-0.00183624
0.00901084
-0.00150558
0.00910929
-0.00115311
0.00914284
-0.000800829
0.00912191
-0.000476041
0.00906174
-0.00019763
0.0089709
3.58069e-05
0.00884581
0.000233056
0.00869938
0.000371091
0.00854149
0.000467502
0.00837863
0.000535274
0.00821012
0.000567713
0.00803748
0.000550715
0.00787403
0.000494702
0.00773299
0.000436655
0.00761485
0.000413452
0.00750325
0.000423486
0.00737721
0.000435659
0.00722592
0.000415867
0.00705452
0.000357328
0.00687819
0.000269635
0.00671626
0.000180138
0.00657684
0.000100629
0.00647248
4.50979e-05
0.00639016
9.33742e-06
-1.12066e-05
0.000937081
0.0016601
0.00237331
0.00310212
0.00383291
0.00455698
0.00525952
0.00594333
0.00659588
0.00720995
0.00778505
0.00831135
0.00877467
0.00916084
0.00945871
0.00967496
0.00982577
0.00990472
0.00992075
0.00988564
0.00980602
0.00969305
0.00956198
0.00942493
0.00928537
0.00913281
0.00898684
0.00883928
0.0086853
0.00852523
0.00836389
0.00820573
0.00805295
0.00790984
0.00778011
0.00766046
0.00754034
0.00740908
0.00726336
0.0071067
0.00695313
0.00681007
0.00669562
0.00659857
)
;

boundaryField
{
    inlet
    {
        type            calculated;
        value           nonuniform List<scalar> 5(-0.01 -0.01 -0.01 -0.01 -0.01);
    }
    outlet
    {
        type            calculated;
        value           nonuniform List<scalar> 10(0.00646836 0.00625308 0.00580994 0.00459332 0.00197099 0.00185608 0.00442011 0.00574236 0.00634489 0.00654086);
    }
    upperWall
    {
        type            calculated;
        value           uniform 0;
    }
    lowerWall
    {
        type            calculated;
        value           uniform 0;
    }
    frontAndBack
    {
        type            empty;
        value           nonuniform List<scalar> 0();
    }
}


// ************************************************************************* //
