/*--------------------------------*- C++ -*----------------------------------*\
  =========                 |
  \\      /  F ield         | OpenFOAM: The Open Source CFD Toolbox
   \\    /   O peration     | Website:  https://openfoam.org
    \\  /    A nd           | Version:  10
     \\/     M anipulation  |
\*---------------------------------------------------------------------------*/
FoamFile
{
    format      ascii;
    class       surfaceScalarField;
    location    "9.4";
    object      phi;
}
// * * * * * * * * * * * * * * * * * * * * * * * * * * * * * * * * * * * * * //

dimensions      [0 3 -1 0 0 0 0];

internalField   nonuniform List<scalar> 
928
(
0.0980304
0.00196958
0.102834
-0.00480373
0.107366
-0.00453171
-0.00865435
0.11602
0.0964546
0.00551499
0.10622
-0.0145687
0.104887
-0.00319898
-0.0171852
0.113418
0.0959973
0.00951767
0.107709
-0.0262808
0.10465
-0.000139536
-0.0350294
0.122494
0.100179
0.00933911
0.0942285
-0.0203307
0.0947021
-0.000613153
0.143378
-0.0837055
0.111186
0.00483374
-0.0171923
0.128379
0.111041
0.00721064
-0.0413885
0.135237
0.127184
0.0025206
-0.0454502
0.131246
0.145899
0.100449
0.129031
-0.000652681
0.13069
-0.00165829
0.132309
-0.00161898
-0.00147297
0.133782
0.136195
-0.00161061
0.138707
-0.00417069
0.139784
-0.00269526
-0.00126181
0.139572
0.139175
-0.00953918
0.14438
-0.00937607
0.139887
0.00179775
0.00178956
0.136836
0.10815
-0.0172405
0.105476
-0.00670209
0.0955415
0.0117323
0.0943774
0.00295366
0.134047
-0.000265363
0.134199
-0.000151674
0.133107
0.00109215
0.131941
0.00116514
0.129635
0.0023064
0.127206
0.00242867
0.125289
0.00191725
0.122585
0.00270398
0.120664
0.00192157
0.11788
0.00278309
0.116753
0.0011275
0.115825
0.000927756
0.116719
-0.000893963
0.117407
-0.000687615
0.118063
-0.000656611
0.119335
-0.00127129
0.119783
-0.000448385
0.121231
-0.00144796
0.120971
0.000260131
0.121082
-0.000111161
0.120021
0.00106082
0.1191
0.000921122
0.11853
0.000570065
0.117557
0.000972853
0.117344
0.000213662
0.116074
0.00126976
0.115249
0.000824595
0.11296
0.0022889
0.110431
0.00252953
0.107259
0.00317147
0.103641
0.00361805
0.101049
0.00259214
0.098275
0.0027741
0.0977445
0.00053057
0.0972195
0.000524992
0.0985036
-0.00128411
0.0997553
-0.00125169
0.100994
-0.00123826
0.101808
-0.000814342
0.0012508
0.139427
-0.000120104
0.13963
-0.000354747
0.13949
0.00123197
0.137233
0.00342239
0.135592
0.00394728
0.13441
0.00361109
0.132651
0.00367643
0.130104
0.00525023
0.127527
0.00449944
0.124736
0.00557317
0.12352
0.00234365
0.122921
0.00152664
0.123021
-0.000993149
0.12388
-0.00154682
0.125036
-0.00181261
0.126999
-0.00323437
0.12829
-0.00173967
0.1303
-0.00345802
0.130631
-7.06289e-05
0.131409
-0.000889292
0.130837
0.00163283
0.130518
0.00123983
0.130614
0.000474502
0.129967
0.00162011
0.131066
-0.000885581
0.130234
0.00210133
0.130497
0.000562265
0.129078
0.00370743
0.127354
0.00425413
0.125399
0.00512652
0.122002
0.00701493
0.120296
0.00429769
0.116872
0.00619794
0.115937
0.00146556
0.115462
0.00100019
0.115573
-0.00139515
0.117317
-0.00299561
0.117995
-0.00191618
0.119958
-0.00277729
0.00101765
0.139038
-0.0023221
0.139784
-0.00110103
0.136828
0.00418802
0.134587
0.00566269
0.135906
0.00262863
0.135745
0.00377209
0.131537
0.0078843
0.127601
0.00918625
0.124474
0.00762666
0.123377
0.00666982
0.121544
0.00417682
0.120226
0.00284503
0.119504
-0.000271673
0.119766
-0.00180844
0.121337
-0.00338373
0.122031
-0.0039288
0.123291
-0.00299872
0.123236
-0.00340316
0.124062
-0.00089721
0.124137
-0.000963717
0.124594
0.00117568
0.12499
0.000843297
0.124955
0.000510163
0.125777
0.000797957
0.126189
-0.00129788
0.127664
0.00062652
0.129453
-0.00122672
0.131182
0.00197837
0.132043
0.00339293
0.131646
0.00552382
0.130518
0.00814322
0.128991
0.00582417
0.127925
0.00726366
0.126483
0.00290814
0.124788
0.00269522
0.123314
7.8426e-05
0.122914
-0.00259545
0.122045
-0.00104683
0.123656
-0.00438818
-0.000100278
0.105098
-0.0130428
0.104969
-0.000971564
0.100611
0.00854509
0.103814
0.00245993
0.111026
-0.00458276
0.113115
0.00168302
0.113816
0.00718297
0.11794
0.0050621
0.122017
0.00354966
0.123034
0.00565254
0.121396
0.00581509
0.119617
0.00462387
0.115519
0.00382641
0.110377
0.00333421
0.104506
0.00248651
0.0992899
0.00128766
0.0951328
0.00115843
0.0920303
-0.000300653
0.0902866
0.000846431
0.0873077
0.00201524
0.0851604
0.00332299
0.0828046
0.00319903
0.0815929
0.00172191
0.0808749
0.00151595
0.0813024
-0.00172539
0.0848318
-0.00290283
0.0881499
-0.00454482
0.0943827
-0.0042545
0.0993112
-0.0015355
0.104366
0.000469474
0.108441
0.0040674
0.108147
0.00611834
0.106703
0.00870778
0.101159
0.0084519
0.0953288
0.00852569
0.0901215
0.00528575
0.0866648
0.000861244
0.0862899
-0.000671954
0.0885754
-0.00667367
-0.00437746
0.108516
0.000823336
0.087618
0.000567083
0.0843484
0.00265637
0.0006429
0.111434
-0.0106103
0.0898071
0.0221937
0.0903014
0.00216199
0.0909444
-0.0114259
-0.00581455
0.00975242
-0.0278804
-0.0187844
0.0402691
0.000586103
-0.0164169
-0.0155329
0.00971834
-0.032472
-0.0109414
-0.00539468
0.0131918
0.0101107
-0.0149193
-0.00371611
-0.0257435
0.00575699
-0.0104447
0.0102722
0.00402988
-0.0007913
0.0135234
0.00801462
-0.0133887
0.021259
-0.0115614
0.0249161
0.0035259
0.0204308
0.00954738
0.0209067
0.00307378
0.0237415
0.00281777
0.0238275
0.00572906
0.019376
0.00907539
0.0154091
0.00779331
0.0130557
0.00568757
0.0121726
0.00336963
0.0130125
0.00044769
0.0139314
0.000239585
0.0142987
-0.000667978
0.0148558
0.000289328
0.0163617
0.000509309
0.0179023
0.00178246
0.0198064
0.00129489
0.0217206
-0.000192304
0.0243982
-0.0011616
0.0276067
-0.00493395
0.0312152
-0.00651133
0.0351082
-0.00843783
0.0392455
-0.00839173
0.0432678
-0.00555787
0.0458411
-0.00210379
0.0481483
0.00176025
0.0485103
0.00575629
0.0478542
0.0093639
0.0480788
0.00822734
0.0480725
0.00853192
0.0495057
0.00385261
0.0519083
-0.00154142
0.0541111
-0.00287468
0.0581351
-0.0106977
-0.00768189
-0.0143683
-0.00126456
-0.0186184
-0.00619452
-0.0103908
-0.00419774
0.00277533
0.000357333
-0.000803801
-0.00980954
-0.00504047
-0.00732471
0.000268145
-0.00178271
0.00982314
-7.6216e-06
0.0133429
-0.000445981
0.0132943
0.0028664
0.0134984
0.00552488
0.0159399
0.00663394
0.0184842
0.005249
0.020802
0.00336981
0.0222401
0.00193151
0.0229982
-0.000310438
0.0239949
-0.000757147
0.0244152
-0.00108819
0.0258008
-0.00109636
0.0281902
-0.00188009
0.0314236
-0.00145084
0.0338012
-0.00108272
0.0357418
-0.00213297
0.0379733
-0.00339308
0.0392376
-0.00619827
0.0393386
-0.00661231
0.0390119
-0.00811113
0.038455
-0.00783479
0.0390264
-0.00612932
0.0412491
-0.00432647
0.0430199
-1.0563e-05
0.0468561
0.00192007
0.0514879
0.00473217
0.0554829
0.00423233
0.0607988
0.00321598
0.0643598
0.000291623
0.0660576
-0.00323921
0.0677969
-0.00461402
0.0655041
-0.00840488
-0.00574116
0.100259
-0.0108698
0.0920171
0.0304361
0.0958355
-0.00165643
0.0399754
0.146805
0.0962064
-0.00707619
0.108919
0.0177236
0.105563
0.00169929
0.0198977
0.125641
0.0959051
-0.00298125
0.106772
0.00685668
0.104974
0.00349735
0.0098198
0.115052
0.0970188
0.103875
0.107373
0.117193
0.150325
-0.00352039
0.0481759
0.102149
0.129811
-0.00769061
0.0421802
0.135807
0.112102
-0.00474103
0.0165276
0.137755
0.112452
0.128979
0.107401
0.00446627
0.0922923
0.00416734
0.102234
0.00324968
-0.00391403
0.0912292
0.139348
0.000925316
0.144224
-0.000708556
0.145522
0.00195171
6.91913e-05
0.141538
0.138732
-5.22746e-05
0.138215
-0.000191741
0.138815
0.00135172
0.00015058
0.138734
0.128927
0.128735
0.130087
0.130238
0.0925967
-0.00263208
0.0900211
-0.00361893
0.0885619
-0.00273854
0.0912182
-0.0022989
0.0831729
-0.00176422
0.079367
-0.00351881
0.080222
-0.00263778
0.0806173
-0.00040286
0.0809431
-0.000771828
0.0823107
0.00149877
0.0873238
0.000511813
0.0912378
0.00271995
0.0959214
0.000565397
0.099706
-0.000414769
0.104125
-0.00248752
0.107698
-0.00388349
0.109603
-0.00266245
0.112224
-0.00370858
0.112272
-0.00114415
0.112599
-0.00220777
0.112453
-0.00130475
0.113572
-0.00220186
0.115372
-0.0039329
0.115531
-0.0035522
0.116536
-0.00720272
0.114842
-0.00491873
0.112798
-0.00606645
0.108065
-0.00310267
0.103581
-0.00164527
0.099791
-0.000536125
0.0964162
0.00336419
0.0969347
0.00140164
0.0974453
0.00422155
0.102078
-0.000400516
0.106339
-0.00104527
0.111546
-0.00491521
0.117063
-0.00875567
0.120319
-0.00787053
0.12232
-0.0104053
-0.0049232
0.138821
8.49677e-05
0.137606
-0.00240406
0.137678
-0.00281051
0.138618
-0.00323813
0.138064
-0.00121018
0.13574
-0.00119495
0.135656
-0.00255397
0.135067
0.000186165
0.134895
-0.000599607
0.134378
0.00201592
0.135363
-0.000473711
0.137121
0.000962516
0.13833
-0.000644511
0.139384
-0.00146807
0.138705
-0.00180924
0.13838
-0.00355799
0.137287
-0.00156933
0.136921
-0.00334282
0.136411
-0.000634096
0.135945
-0.00174176
0.135165
-0.000525183
0.13425
-0.00128628
0.132859
-0.00254238
0.131084
-0.00177667
0.128504
-0.00462283
0.125781
-0.00219572
0.12415
-0.0044351
0.122456
-0.0014092
0.121111
-0.000300078
0.120217
0.000358152
0.120739
0.00284193
0.121398
0.000742895
0.12331
0.00230917
0.124947
-0.00203731
0.126217
-0.00231541
0.126087
-0.00478547
0.123682
-0.00634999
0.120936
-0.00512454
0.117216
-0.00668589
-0.00212564
0.138178
0.000641109
0.136859
-0.00108463
0.135067
-0.00101886
0.134211
-0.0023821
0.134064
-0.00106318
0.133317
-0.000448366
0.131667
-0.00090376
0.13216
-0.000306461
0.132301
-0.000740578
0.133359
0.00095712
0.133214
-0.000328185
0.134004
0.000172456
0.134262
-0.000902988
0.133796
-0.00100213
0.133184
-0.00119637
0.131471
-0.00184498
0.130873
-0.000971682
0.129521
-0.00199103
0.129324
-0.00043675
0.12866
-0.00107807
0.128336
-0.000200646
0.127695
-0.000645315
0.126491
-0.00133841
0.125798
-0.00108414
0.123587
-0.00241145
0.122662
-0.00127079
0.120221
-0.00199432
0.119267
-0.000454779
0.119372
-0.000404998
0.119237
0.000493143
0.120864
0.0012141
0.121481
0.000126131
0.123242
0.000548068
0.122683
-0.00147833
0.122187
-0.00181909
0.120934
-0.00353281
0.11832
-0.00373574
0.116382
-0.00318678
0.112455
-0.00275816
-0.000320041
0.130879
0.129794
0.128775
0.126393
0.12533
0.124881
0.123978
0.123671
0.122931
0.123888
0.12356
0.123732
0.122829
0.121827
0.120631
0.118786
0.117814
0.115823
0.115386
0.114308
0.114107
0.113462
0.112124
0.11104
0.108628
0.107357
0.105363
0.104908
0.104503
0.104996
0.10621
0.106337
0.106885
0.105406
0.103587
0.100054
0.0963187
0.0931319
0.0903737
)
;

boundaryField
{
    inlet
    {
        type            calculated;
        value           nonuniform List<scalar> 10(-0.1 -0.1 -0.1 -0.1 -0.1 -0.1 -0.1 -0.1 -0.1 -0.1);
    }
    outlet
    {
        type            calculated;
        value           nonuniform List<scalar> 10(0.100557 0.120191 0.124774 0.0928526 0.0614396 0.0635633 0.121502 0.114419 0.110649 0.0900537);
    }
    obstacle
    {
        type            calculated;
        value           uniform 0;
    }
    upperWall
    {
        type            calculated;
        value           uniform 0;
    }
    lowerWall
    {
        type            calculated;
        value           uniform 0;
    }
    frontAndBack
    {
        type            empty;
        value           nonuniform List<scalar> 0();
    }
}


// ************************************************************************* //
