/*--------------------------------*- C++ -*----------------------------------*\
  =========                 |
  \\      /  F ield         | OpenFOAM: The Open Source CFD Toolbox
   \\    /   O peration     | Website:  https://openfoam.org
    \\  /    A nd           | Version:  10
     \\/     M anipulation  |
\*---------------------------------------------------------------------------*/
FoamFile
{
    format      ascii;
    class       volVectorField;
    location    "4.625";
    object      U;
}
// * * * * * * * * * * * * * * * * * * * * * * * * * * * * * * * * * * * * * //

dimensions      [0 1 -1 0 0 0 0];

internalField   nonuniform List<vector> 
400
(
(-9.44676e-05 8.95375e-05 0)
(-0.000801302 0.000310376 0)
(-0.00197244 0.000371766 0)
(-0.00309125 0.000376533 0)
(-0.00419014 0.000366737 0)
(-0.00523208 0.000351081 0)
(-0.00619428 0.000328914 0)
(-0.00705407 0.00029786 0)
(-0.00778423 0.000255425 0)
(-0.00835332 0.000199254 0)
(-0.00872629 0.000127477 0)
(-0.00886569 3.96443e-05 0)
(-0.00873373 -6.61143e-05 0)
(-0.00829668 -0.000186586 0)
(-0.00753095 -0.000316579 0)
(-0.00642845 -0.000447351 0)
(-0.00501114 -0.000563807 0)
(-0.00336784 -0.000637309 0)
(-0.00150373 -0.000596456 0)
(-0.000250031 -0.000268176 0)
(-0.000331584 0.000807545 0)
(-0.00176264 0.00170318 0)
(-0.00387981 0.0019336 0)
(-0.00590231 0.00192547 0)
(-0.00786187 0.00184034 0)
(-0.00969236 0.00171489 0)
(-0.0113486 0.00155114 0)
(-0.0127895 0.00134412 0)
(-0.0139706 0.00108794 0)
(-0.0148441 0.000777105 0)
(-0.015359 0.000407284 0)
(-0.0154661 -2.42776e-05 0)
(-0.0151155 -0.000512843 0)
(-0.0142634 -0.001046 0)
(-0.0128844 -0.00160195 0)
(-0.010976 -0.00214555 0)
(-0.00858195 -0.0026185 0)
(-0.0058355 -0.00290863 0)
(-0.00276018 -0.00275058 0)
(-0.000560386 -0.00147795 0)
(-0.000414486 0.00204892 0)
(-0.00211504 0.00386152 0)
(-0.00458486 0.00430367 0)
(-0.00693312 0.00425648 0)
(-0.00919965 0.00404021 0)
(-0.0113103 0.00372972 0)
(-0.0132148 0.00333291 0)
(-0.0148681 0.00284398 0)
(-0.0162221 0.00225467 0)
(-0.0172254 0.00155701 0)
(-0.0178249 0.000745128 0)
(-0.0179625 -0.000182947 0)
(-0.0175787 -0.00121861 0)
(-0.016623 -0.00233749 0)
(-0.0150596 -0.00349591 0)
(-0.0128758 -0.00462278 0)
(-0.0101108 -0.00560161 0)
(-0.00691121 -0.00620619 0)
(-0.00329849 -0.00591132 0)
(-0.000682579 -0.00337576 0)
(-0.000441158 0.00331744 0)
(-0.00226201 0.00608668 0)
(-0.00490493 0.0067411 0)
(-0.00741235 0.00664965 0)
(-0.00983569 0.00630039 0)
(-0.0120991 0.00580639 0)
(-0.0141531 0.0051806 0)
(-0.0159535 0.00441557 0)
(-0.017452 0.00349963 0)
(-0.0185957 0.0024205 0)
(-0.0193267 0.00116858 0)
(-0.0195826 -0.000258046 0)
(-0.0192902 -0.00185399 0)
(-0.0183762 -0.00358759 0)
(-0.0167807 -0.00539752 0)
(-0.0144642 -0.00717759 0)
(-0.0114452 -0.00874552 0)
(-0.00787754 -0.00974046 0)
(-0.00377866 -0.00933575 0)
(-0.000783157 -0.00542471 0)
(-0.000459058 0.00466162 0)
(-0.00238133 0.00845161 0)
(-0.00518073 0.00933093 0)
(-0.00783646 0.00919574 0)
(-0.0104121 0.00871334 0)
(-0.0128316 0.00803709 0)
(-0.0150488 0.00718521 0)
(-0.0170224 0.0061481 0)
(-0.0187059 0.00490932 0)
(-0.0200457 0.00344991 0)
(-0.020979 0.00175209 0)
(-0.0214342 -0.000195344 0)
(-0.0213202 -0.00238924 0)
(-0.0205341 -0.00480212 0)
(-0.0189767 -0.0073608 0)
(-0.0165602 -0.00992504 0)
(-0.0132572 -0.0122345 0)
(-0.00921929 -0.0137551 0)
(-0.00446243 -0.0132841 0)
(-0.000932195 -0.00780637 0)
(-0.000480933 0.00607848 0)
(-0.00252351 0.0109623 0)
(-0.00550895 0.0120838 0)
(-0.00834255 0.0119084 0)
(-0.0111015 0.0112966 0)
(-0.0137105 0.0104453 0)
(-0.0161285 0.00937842 0)
(-0.0183194 0.00808387 0)
(-0.020241 0.00653877 0)
(-0.0218414 0.00471413 0)
(-0.0230556 0.00257832 0)
(-0.0238004 0.000102925 0)
(-0.0239653 -0.00272327 0)
(-0.0234097 -0.00589184 0)
(-0.0219744 -0.00932929 0)
(-0.0194965 -0.0128662 0)
(-0.0158644 -0.0161509 0)
(-0.0111991 -0.0184225 0)
(-0.00550846 -0.0179762 0)
(-0.00117517 -0.0106826 0)
(-0.000509085 0.00758364 0)
(-0.00269963 0.0136472 0)
(-0.00591091 0.0150309 0)
(-0.00895833 0.0148188 0)
(-0.0119357 0.0140822 0)
(-0.0147692 0.0130656 0)
(-0.0174255 0.0117999 0)
(-0.0198772 0.0102705 0)
(-0.0220903 0.00844683 0)
(-0.0240199 0.00628643 0)
(-0.0256026 0.00373735 0)
(-0.0267464 0.000744536 0)
(-0.0273246 -0.00273776 0)
(-0.0271528 -0.0067391 0)
(-0.0259898 -0.0112115 0)
(-0.0235588 -0.0159767 0)
(-0.0196026 -0.0205854 0)
(-0.0141401 -0.0239816 0)
(-0.00714813 -0.023746 0)
(-0.00158993 -0.0143323 0)
(-0.00054384 0.00919812 0)
(-0.0029126 0.0165434 0)
(-0.00639166 0.0182106 0)
(-0.00968748 0.0179627 0)
(-0.0129145 0.017104 0)
(-0.0160018 0.0159323 0)
(-0.0189268 0.0144876 0)
(-0.0216751 0.0127539 0)
(-0.0242275 0.0106929 0)
(-0.026553 0.00824631 0)
(-0.0285991 0.00533577 0)
(-0.0302766 0.00186675 0)
(-0.0314507 -0.00226154 0)
(-0.0318918 -0.00715413 0)
(-0.0312609 -0.0128286 0)
(-0.0291203 -0.0191477 0)
(-0.0249752 -0.0255843 0)
(-0.0185902 -0.0307143 0)
(-0.00984747 -0.0310764 0)
(-0.00235547 -0.0192417 0)
(-0.000586176 0.0109441 0)
(-0.00316645 0.0196896 0)
(-0.00695679 0.0216598 0)
(-0.0105323 0.0213715 0)
(-0.0140335 0.0203886 0)
(-0.0173939 0.0190702 0)
(-0.0206056 0.0174687 0)
(-0.023673 0.0155695 0)
(-0.0265989 0.0133288 0)
(-0.0293778 0.0106723 0)
(-0.0319828 0.00749086 0)
(-0.0343443 0.00363619 0)
(-0.0363473 -0.0010787 0)
(-0.0377326 -0.00684047 0)
(-0.0380584 -0.013846 0)
(-0.0366896 -0.0220885 0)
(-0.0327741 -0.0310463 0)
(-0.0255554 -0.0388818 0)
(-0.014647 -0.0406731 0)
(-0.00391468 -0.0263458 0)
(-0.000638962 0.0128476 0)
(-0.00347041 0.023128 0)
(-0.0076187 0.0254143 0)
(-0.011501 0.0250703 0)
(-0.0152919 0.0239528 0)
(-0.0189307 0.0224907 0)
(-0.0224291 0.0207543 0)
(-0.0258162 0.0187354 0)
(-0.029126 0.0163894 0)
(-0.0323922 0.0136318 0)
(-0.0356366 0.0103253 0)
(-0.0388482 0.00626423 0)
(-0.0419322 0.00116064 0)
(-0.0446836 -0.00532764 0)
(-0.046638 -0.013672 0)
(-0.0469286 -0.0241595 0)
(-0.0442513 -0.0364884 0)
(-0.0369638 -0.0485004 0)
(-0.02394 -0.0534874 0)
(-0.0073859 -0.0376373 0)
(-0.000708651 0.0149432 0)
(-0.00384322 0.0269082 0)
(-0.00840248 0.02951 0)
(-0.0126138 0.0290775 0)
(-0.0166976 0.0278 0)
(-0.0206021 0.026187 0)
(-0.024363 0.0243322 0)
(-0.0280394 0.0222407 0)
(-0.0317043 0.0198769 0)
(-0.0354442 0.0171578 0)
(-0.0393532 0.0139324 0)
(-0.0435138 0.0099496 0)
(-0.047952 0.00481665 0)
(-0.0526199 -0.00205474 0)
(-0.0571451 -0.0113896 0)
(-0.0606092 -0.0241099 0)
(-0.0613134 -0.0405107 0)
(-0.0563435 -0.0586307 0)
(-0.0426603 -0.0704889 0)
(-0.0153299 -0.0574207 0)
(-0.000808678 0.0172831 0)
(-0.0043205 0.0310936 0)
(-0.00935422 0.0339837 0)
(-0.0139099 0.0334023 0)
(-0.0182743 0.031917 0)
(-0.0224088 0.0301286 0)
(-0.0263778 0.0281594 0)
(-0.0302736 0.0260352 0)
(-0.0342113 0.0237422 0)
(-0.03834 0.0212207 0)
(-0.0428499 0.0183393 0)
(-0.0479752 0.0148468 0)
(-0.0539706 0.0102899 0)
(-0.0610238 0.00389806 0)
(-0.0692596 -0.00546254 0)
(-0.078251 -0.0193967 0)
(-0.0862228 -0.0397163 0)
(-0.0885043 -0.0662354 0)
(-0.0769593 -0.0927509 0)
(-0.0302928 -0.0946667 0)
(-0.000966722 0.0199475 0)
(-0.00496796 0.0357558 0)
(-0.0105537 0.0388483 0)
(-0.0154576 0.038017 0)
(-0.0200693 0.0362561 0)
(-0.0243703 0.0342537 0)
(-0.0284589 0.0321571 0)
(-0.0324588 0.0300193 0)
(-0.0365211 0.0278644 0)
(-0.0408497 0.0256838 0)
(-0.0457315 0.0234135 0)
(-0.0515769 0.0208828 0)
(-0.0589628 0.0177092 0)
(-0.0686575 0.0131145 0)
(-0.0816189 0.00568415 0)
(-0.0989196 -0.00690414 0)
(-0.119195 -0.0288444 0)
(-0.133449 -0.0668956 0)
(-0.122166 -0.123719 0)
(-0.0443596 -0.16344 0)
(-0.00124625 0.0231111 0)
(-0.00593414 0.0411732 0)
(-0.012148 0.0443863 0)
(-0.0173549 0.0431776 0)
(-0.0221396 0.040968 0)
(-0.0265179 0.0385947 0)
(-0.0306144 0.0362634 0)
(-0.0345678 0.0340637 0)
(-0.038548 0.0320615 0)
(-0.042792 0.0303249 0)
(-0.0476543 0.0289292 0)
(-0.0536988 0.0279212 0)
(-0.0618444 0.0272308 0)
(-0.0735339 0.0264628 0)
(-0.0909821 0.0244846 0)
(-0.116675 0.0177084 0)
(-0.148644 -0.0039937 0)
(-0.169371 -0.0652335 0)
(-0.1498 -0.177787 0)
(-0.042201 -0.26748 0)
(-0.00164377 0.0270695 0)
(-0.00710268 0.0464908 0)
(-0.0141801 0.0492452 0)
(-0.0197706 0.0472693 0)
(-0.0247454 0.0446823 0)
(-0.0290784 0.0421725 0)
(-0.0329862 0.0398341 0)
(-0.0366524 0.0377138 0)
(-0.0402415 0.0359086 0)
(-0.0439461 0.0345833 0)
(-0.0480733 0.0340083 0)
(-0.0531802 0.0345805 0)
(-0.0602964 0.036826 0)
(-0.0711865 0.0410844 0)
(-0.088862 0.0467315 0)
(-0.116229 0.0473457 0)
(-0.150718 0.022529 0)
(-0.164887 -0.0731307 0)
(-0.140388 -0.248666 0)
(-0.0339802 -0.374463 0)
(-0.00364672 0.0307653 0)
(-0.0112022 0.0556221 0)
(-0.017809 0.0581529 0)
(-0.0229664 0.0557186 0)
(-0.0273859 0.0519414 0)
(-0.0314004 0.0482657 0)
(-0.0350661 0.0449672 0)
(-0.0384329 0.0421642 0)
(-0.0415402 0.0399785 0)
(-0.0444497 0.0386202 0)
(-0.047281 0.0385178 0)
(-0.0502971 0.0404264 0)
(-0.0541798 0.0456288 0)
(-0.0598949 0.0550969 0)
(-0.0696454 0.0684422 0)
(-0.084362 0.0734481 0)
(-0.106617 0.0442127 0)
(-0.109336 -0.0792368 0)
(-0.104221 -0.299311 0)
(-0.0258902 -0.462348 0)
(-0.00132774 0.0448536 0)
(-0.00920259 0.0583197 0)
(-0.0208138 0.0580445 0)
(-0.0265749 0.0534268 0)
(-0.031968 0.0500023 0)
(-0.0357588 0.0471551 0)
(-0.0386568 0.0446881 0)
(-0.0408659 0.0424816 0)
(-0.0424732 0.0406562 0)
(-0.0434286 0.0394083 0)
(-0.0435822 0.0393077 0)
(-0.0425836 0.0411116 0)
(-0.0403855 0.046634 0)
(-0.0357514 0.0564235 0)
(-0.0309077 0.0714229 0)
(-0.0210463 0.0769086 0)
(-0.024823 0.0484386 0)
(-0.0170466 -0.0766508 0)
(-0.0465987 -0.315972 0)
(0.00323571 -0.516844 0)
(-0.0118923 0.0343819 0)
(-0.0250503 0.0806824 0)
(-0.0255757 0.0785883 0)
(-0.0328463 0.0732293 0)
(-0.0359149 0.0659355 0)
(-0.0373969 0.059442 0)
(-0.0372821 0.0538471 0)
(-0.0360302 0.0491104 0)
(-0.0338589 0.045175 0)
(-0.0306755 0.0419636 0)
(-0.0266273 0.039816 0)
(-0.0206744 0.0390996 0)
(-0.0133983 0.0416856 0)
(-0.00021581 0.0474794 0)
(0.0147804 0.0597298 0)
(0.0445397 0.0656596 0)
(0.0577699 0.0480773 0)
(0.0956663 -0.0511597 0)
(0.0431056 -0.294407 0)
(0.0551755 -0.511575 0)
(-0.0762696 0.0980002 0)
(-0.0617703 0.0610108 0)
(-0.0635686 0.0605003 0)
(-0.042922 0.0538147 0)
(-0.0260169 0.0468986 0)
(-0.00690757 0.0416246 0)
(0.0110551 0.0377035 0)
(0.0285793 0.0342228 0)
(0.044597 0.031522 0)
(0.0606902 0.0287443 0)
(0.074577 0.0269531 0)
(0.0908687 0.0251404 0)
(0.10233 0.0248587 0)
(0.1258 0.025717 0)
(0.135265 0.025169 0)
(0.182594 0.0225661 0)
(0.185913 -0.00946453 0)
(0.240766 -0.0768035 0)
(0.172492 -0.266604 0)
(0.127255 -0.446654 0)
(0.120126 0.140288 0)
(0.152834 0.0861201 0)
(0.230968 0.0637859 0)
(0.286162 0.0485686 0)
(0.328312 0.0380235 0)
(0.366685 0.0303636 0)
(0.396233 0.0249325 0)
(0.427621 0.021155 0)
(0.447869 0.01806 0)
(0.476823 0.0159921 0)
(0.488609 0.0140931 0)
(0.519091 0.0127754 0)
(0.522179 0.0117994 0)
(0.557033 0.0109386 0)
(0.55098 0.010063 0)
(0.588784 0.00709859 0)
(0.563694 -0.00263062 0)
(0.575235 -0.0261861 0)
(0.440848 -0.0774931 0)
(0.278349 -0.158129 0)
)
;

boundaryField
{
    movingWall
    {
        type            fixedValue;
        value           uniform (1 0 0);
    }
    fixedWalls
    {
        type            noSlip;
    }
    frontAndBack
    {
        type            empty;
    }
}


// ************************************************************************* //
