/*--------------------------------*- C++ -*----------------------------------*\
  =========                 |
  \\      /  F ield         | OpenFOAM: The Open Source CFD Toolbox
   \\    /   O peration     | Website:  https://openfoam.org
    \\  /    A nd           | Version:  10
     \\/     M anipulation  |
\*---------------------------------------------------------------------------*/
FoamFile
{
    format      ascii;
    class       volScalarField;
    location    "7.525";
    object      p;
}
// * * * * * * * * * * * * * * * * * * * * * * * * * * * * * * * * * * * * * //

dimensions      [0 2 -2 0 0 0 0];

internalField   nonuniform List<scalar> 
496
(
26.0258
26.3008
22.9326
16.7296
26.6368
27.2747
23.2529
17.0661
31.5047
29.2538
20.7389
10.4257
39.4654
36.1705
32.5742
16.798
8.32798
-0.967959
8.25087
-0.662445
-4.81084
-9.37719
-34.2046
-59.6143
-7.99216
-12.4434
-14.5787
-15.4501
-7.98361
-13.5908
-16.8556
-18.1988
-2.8156
-3.54965
-7.2462
-12.9428
-29.926
-15.0431
-8.49441
-10.2114
-16.1512
-16.8863
-17.6737
-18.2187
-18.5161
-18.3224
-17.9319
-17.4833
-16.8155
-16.1046
-15.0404
-13.8666
-12.436
-10.9879
-9.47733
-7.92143
-6.68534
-5.59595
-5.00493
-4.35801
-4.20229
-4.26498
-4.25156
-4.17759
-3.50634
-2.97027
-2.04037
-1.29863
-0.357619
0.739926
1.46681
2.18639
2.11018
1.75322
1.02182
0.309581
-0.00834734
-0.377611
-0.354821
-0.173281
-18.9163
-19.3088
-19.4747
-19.2492
-18.6123
-18.0922
-17.8824
-17.4367
-16.8296
-16.1838
-15.1782
-13.9845
-12.571
-11.1058
-9.43974
-7.68839
-6.19718
-5.28857
-4.70571
-4.30574
-4.14534
-4.35988
-4.42649
-4.31098
-3.798
-3.25961
-2.50186
-1.56245
-0.319402
1.00646
1.81945
2.21488
1.98888
1.41974
0.810929
0.087902
-0.439071
-0.703566
-0.768644
-0.499527
-18.2821
-20.9644
-21.3184
-20.3919
-19.3941
-19.1434
-18.4514
-17.6074
-17.3894
-17.1345
-16.3326
-15.0119
-13.3362
-11.1886
-8.80889
-6.94372
-5.614
-4.82507
-4.19709
-4.35708
-5.14279
-5.52999
-6.14434
-5.56128
-4.67263
-3.26612
-1.83011
-0.36967
0.798736
1.37598
2.47899
2.16625
1.6098
0.640633
-0.674236
-1.07651
-2.07107
-1.62616
-0.901151
-0.315029
-17.1584
-21.0813
-19.5708
-18.5461
-19.6656
-19.9541
-17.4949
-16.8709
-17.8444
-18.0654
-17.4491
-16.0841
-14.7823
-12.4424
-9.33668
-6.15205
-3.3262
-1.89327
-2.1441
-3.43984
-4.80475
-6.33728
-7.21429
-6.74449
-6.50737
-5.03304
-3.00141
0.333391
3.8046
5.19592
5.27294
3.13576
2.01194
0.467051
-0.870387
-2.46185
-3.13875
-2.94558
-2.31637
-0.408849
43.9783
45.5474
59.8567
72.2628
43.8448
45.7686
60.2041
72.4563
-33.8386
-27.1544
-11.7567
-32.4502
-36.722
-19.9575
-16.4502
-19.7857
-21.4404
-19.1317
-20.304
-24.4879
-20.4572
-18.9109
-20.219
-17.8936
-17.2023
-16.1066
-15.1069
-14.6276
-13.3766
-11.9268
-10.1402
-7.99078
-6.0735
-4.92647
-4.90801
-4.74229
-4.82599
-5.14378
-5.32873
-5.5822
-5.37615
-4.00546
-2.48085
-1.1313
-0.00896327
0.509652
0.147442
-0.325011
-0.129436
-0.160095
-0.611151
-1.34708
-2.33618
-2.86437
-1.79719
-0.628832
-27.2004
-23.1902
-22.3489
-21.4586
-20.9712
-24.311
-21.3904
-17.9419
-17.0352
-15.5602
-13.1977
-11.3972
-10.4682
-10.2154
-10.286
-10.1205
-9.90263
-9.71707
-8.66326
-7.13081
-5.19819
-3.43779
-1.81265
-1.31653
-1.74879
-1.30827
-1.26968
-1.77971
-2.56632
-3.26713
-3.95368
-3.46946
-2.35063
-0.563139
0.400205
1.58738
1.63054
0.574991
0.568735
0.212807
39.0346
36.0126
32.7968
17.0044
31.8128
29.2007
20.4727
9.65277
26.8358
27.3809
22.8633
16.5917
26.1071
26.3933
22.8835
16.5719
-33.3427
-60.8865
-5.55349
-9.6869
7.61934
-1.43092
7.85764
-1.39346
-30.4768
-6.76931
-7.62502
-14.9381
-2.64921
-3.20203
-7.87609
-14.1381
-8.841
-13.937
-16.4402
-17.81
-8.24433
-12.3362
-14.4364
-15.5678
-18.1415
-19.2135
-20.7521
-21.1665
-19.518
-19.8231
-20.8283
-19.184
-16.6908
-13.99
-11.0957
-9.73419
-9.23805
-9.5119
-10.3163
-11.1037
-11.5654
-10.9567
-9.77336
-7.81755
-4.92936
-1.52061
1.99381
2.98815
2.79869
0.712848
-0.67707
-1.96357
-3.60266
-4.10914
-4.4755
-3.67979
-2.95746
-0.884872
2.37789
5.11391
5.96618
4.99171
3.02898
1.07321
-19.0447
-20.9453
-21.3222
-20.9674
-19.8473
-19.3117
-18.9279
-17.8088
-16.1121
-14.6769
-12.8023
-11.4718
-10.9543
-10.7141
-10.7988
-10.7853
-10.6194
-9.5575
-7.87954
-5.9813
-4.09546
-2.55181
-1.41925
-0.438289
0.0748557
-0.606275
-1.47135
-2.26793
-2.92582
-3.15187
-3.22384
-2.27123
-1.44958
-0.188321
1.26365
2.31035
3.0668
2.78496
2.12678
0.649911
-19.3079
-20.2349
-20.3106
-19.9938
-19.415
-18.7427
-17.8968
-16.9132
-15.685
-14.4951
-13.1991
-11.6159
-10.6692
-10.2955
-10.1642
-9.79741
-9.13095
-8.42972
-7.37592
-6.13392
-4.70398
-3.34258
-1.94353
-0.923889
-0.459816
-0.394405
-0.765813
-0.82434
-1.27282
-1.44526
-1.53945
-1.62726
-1.28142
-0.623001
0.794474
2.017
2.54682
2.59932
1.91353
0.740396
-16.6009
-17.7208
-18.4963
-19.0729
-19.0646
-18.5807
-17.6674
-16.6601
-15.5065
-14.301
-13.4438
-12.3699
-11.4
-10.575
-10.1076
-9.68389
-9.00597
-8.35508
-7.23674
-5.98878
-4.48483
-3.21145
-2.16839
-1.32038
-0.940407
-0.643665
-0.789571
-0.878597
-0.933328
-1.23593
-1.40225
-1.51565
-0.989566
-0.315823
0.729379
1.66674
2.2256
2.32654
1.82175
0.819917
)
;

boundaryField
{
    inlet
    {
        type            zeroGradient;
    }
    outlet
    {
        type            fixedValue;
        value           uniform 0;
    }
    obstacle
    {
        type            zeroGradient;
    }
    upperWall
    {
        type            zeroGradient;
    }
    lowerWall
    {
        type            zeroGradient;
    }
    frontAndBack
    {
        type            empty;
    }
}


// ************************************************************************* //
