/*--------------------------------*- C++ -*----------------------------------*\
  =========                 |
  \\      /  F ield         | OpenFOAM: The Open Source CFD Toolbox
   \\    /   O peration     | Website:  https://openfoam.org
    \\  /    A nd           | Version:  10
     \\/     M anipulation  |
\*---------------------------------------------------------------------------*/
FoamFile
{
    format      ascii;
    class       volScalarField;
    location    "10";
    object      p;
}
// * * * * * * * * * * * * * * * * * * * * * * * * * * * * * * * * * * * * * //

dimensions      [0 2 -2 0 0 0 0];

internalField   nonuniform List<scalar> 
400
(
3.08535e-09
-1.97801e-05
2.53231e-05
0.000129573
0.000292317
0.000516315
0.000805978
0.00116669
0.00160366
0.00212026
0.00271556
0.00338103
0.00409652
0.00482532
0.0055139
0.00609636
0.00651139
0.00672954
0.00677034
0.00666997
2.24247e-05
2.45293e-06
5.37141e-05
0.000161346
0.00032347
0.000543994
0.000827881
0.00118065
0.00160766
0.00211275
0.00269597
0.00335022
0.00405722
0.00478377
0.00547398
0.00605816
0.00646977
0.00667825
0.00670787
0.00659503
-3.84025e-05
-6.49623e-05
-1.49005e-05
9.00033e-05
0.000246448
0.000458858
0.000732882
0.00107504
0.00149228
0.00199091
0.00257454
0.00324038
0.00397437
0.00474353
0.00548645
0.00611748
0.0065484
0.00673649
0.00671944
0.00655652
-0.000187353
-0.000220289
-0.000175041
-7.74145e-05
6.85559e-05
0.000267814
0.000526948
0.000854069
0.00125872
0.00175124
0.00234088
0.00303142
0.00381463
0.00466316
0.005505
0.00622647
0.00669813
0.00685096
0.00674845
0.00650028
-0.000429239
-0.000467237
-0.000429279
-0.000343085
-0.000212766
-3.27501e-05
0.000204613
0.00050927
0.000893859
0.0013737
0.00196561
0.00268283
0.00352565
0.00448654
0.00547799
0.00634644
0.00688928
0.00698462
0.00674014
0.00634499
-0.000763967
-0.000806866
-0.000779022
-0.000708984
-0.000600764
-0.000448348
-0.000243313
2.57833e-05
0.000374369
0.000822673
0.00139592
0.00212269
0.00302717
0.00409875
0.00528842
0.00638485
0.00705431
0.00706569
0.00660961
0.00595635
-0.00118698
-0.00123538
-0.00122092
-0.00117261
-0.00109462
-0.000981134
-0.000823906
-0.000611362
-0.000327118
5.16518e-05
0.000556054
0.00122762
0.00211387
0.0032423
0.00464413
0.0060643
0.00697584
0.00692547
0.00621165
0.00514639
-0.00169061
-0.0017454
-0.00174776
-0.0017273
-0.00168897
-0.0016283
-0.00153907
-0.00141232
-0.00123485
-0.000987283
-0.000642774
-0.000164175
0.000512008
0.00149615
0.00287342
0.00459156
0.00595984
0.00616826
0.0053746
0.00383471
-0.00226456
-0.00232654
-0.00234868
-0.00236171
-0.00237236
-0.00237921
-0.00238067
-0.00237477
-0.0023587
-0.0023286
-0.0022842
-0.00224182
-0.00221235
-0.0020613
-0.00138843
0.000152435
0.0022021
0.00367046
0.00380093
0.00257444
-0.00289605
-0.00296558
-0.00300894
-0.0030589
-0.00312535
-0.00321193
-0.00332477
-0.00347424
-0.00367768
-0.00396432
-0.0043944
-0.00512113
-0.00640686
-0.0082458
-0.0096994
-0.00941365
-0.00677865
-0.00274553
0.000584581
0.00221577
-0.00357067
-0.00364724
-0.00371025
-0.00379606
-0.00391943
-0.00409089
-0.00432712
-0.00465554
-0.00512308
-0.00581145
-0.00687728
-0.00867584
-0.0118444
-0.0166194
-0.0215494
-0.0233662
-0.0205547
-0.0138982
-0.00603944
0.000683869
-0.0042739
-0.00435563
-0.00443183
-0.00454523
-0.00471745
-0.00496715
-0.00532251
-0.00582946
-0.0065673
-0.00767717
-0.00942317
-0.0123464
-0.0173595
-0.0248051
-0.032925
-0.0369401
-0.0345544
-0.0267173
-0.0159995
-0.00503088
-0.0049942
-0.00507725
-0.00515326
-0.00527605
-0.00547705
-0.00578312
-0.00623193
-0.00688385
-0.00784177
-0.00928646
-0.0115437
-0.0152421
-0.0212964
-0.0299058
-0.0393451
-0.044438
-0.0427559
-0.0353581
-0.0247129
-0.0123371
-0.00572683
-0.00580258
-0.00585384
-0.00595583
-0.00615374
-0.00648045
-0.00697774
-0.00771158
-0.00879284
-0.0104064
-0.0128364
-0.0167442
-0.022811
-0.0311163
-0.0402
-0.0453114
-0.043907
-0.0372608
-0.02819
-0.0163187
-0.00648564
-0.00654098
-0.00653055
-0.00656533
-0.00671504
-0.00701596
-0.00750575
-0.00824515
-0.00934084
-0.010981
-0.0131648
-0.0168751
-0.0223084
-0.0293993
-0.0366329
-0.0405323
-0.0395201
-0.0338287
-0.0272477
-0.0156498
-0.0073032
-0.00729746
-0.00714282
-0.00705318
-0.00711587
-0.00735332
-0.00778769
-0.00846309
-0.00945654
-0.0108961
-0.0129565
-0.0160353
-0.0203391
-0.0256426
-0.0308097
-0.0335076
-0.0323569
-0.027635
-0.0235962
-0.00980534
-0.00821596
-0.00819272
-0.00780969
-0.00749226
-0.007397
-0.00752256
-0.00786062
-0.00843124
-0.00928551
-0.0105267
-0.0122925
-0.014767
-0.0180356
-0.0218116
-0.0252913
-0.0266861
-0.025406
-0.0210558
-0.016754
0.00487985
-0.0101776
-0.00926863
-0.00809756
-0.00752937
-0.00735796
-0.007425
-0.00769329
-0.00816987
-0.008902
-0.00996881
-0.0114865
-0.0135431
-0.0161834
-0.0190844
-0.0216392
-0.0222493
-0.0199494
-0.0132175
-0.000387736
0.0398404
-0.00932631
-0.0112005
-0.00940788
-0.00824441
-0.00771059
-0.00756998
-0.00768162
-0.00800425
-0.00860245
-0.00951159
-0.0108786
-0.0127103
-0.0150934
-0.0175987
-0.0196458
-0.0192794
-0.0139366
0.00254886
0.0385525
0.108619
-0.0269985
-0.0118717
-0.00670615
-0.00568361
-0.00559263
-0.00565674
-0.0059054
-0.00636288
-0.00712653
-0.00818534
-0.00970517
-0.0116734
-0.0141474
-0.0165919
-0.0178536
-0.014689
-0.00155672
0.0324584
0.100719
0.205337
)
;

boundaryField
{
    movingWall
    {
        type            zeroGradient;
    }
    fixedWalls
    {
        type            zeroGradient;
    }
    frontAndBack
    {
        type            empty;
    }
}


// ************************************************************************* //
