/*--------------------------------*- C++ -*----------------------------------*\
  =========                 |
  \\      /  F ield         | OpenFOAM: The Open Source CFD Toolbox
   \\    /   O peration     | Website:  https://openfoam.org
    \\  /    A nd           | Version:  10
     \\/     M anipulation  |
\*---------------------------------------------------------------------------*/
FoamFile
{
    format      ascii;
    class       surfaceScalarField;
    location    "10";
    object      phi;
}
// * * * * * * * * * * * * * * * * * * * * * * * * * * * * * * * * * * * * * //

dimensions      [0 3 -1 0 0 0 0];

internalField   nonuniform List<scalar> 
760
(
-1.29508e-05
1.29507e-05
-4.2669e-05
2.97183e-05
-7.90799e-05
3.6411e-05
-0.000117632
3.85522e-05
-0.000157034
3.94019e-05
-0.00019695
3.99162e-05
-0.000236998
4.00481e-05
-0.000276355
3.93561e-05
-0.000313538
3.71832e-05
-0.000346237
3.26996e-05
-0.000371204
2.49668e-05
-0.000384309
1.31044e-05
-0.000380784
-3.52416e-06
-0.000356354
-2.44307e-05
-0.000308765
-4.7589e-05
-0.000240029
-6.8736e-05
-0.000158204
-8.18244e-05
-7.7813e-05
-8.03914e-05
-1.84482e-05
-5.93647e-05
-1.84482e-05
-3.26372e-05
4.55879e-05
-9.29636e-05
9.00447e-05
-0.0001643
0.000107747
-0.000239484
0.000113737
-0.00031568
0.000115597
-0.00039154
0.000115776
-0.00046576
0.000114268
-0.000536412
0.000110009
-0.0006006
0.000101371
-0.000654228
8.6327e-05
-0.00069193
6.26694e-05
-0.000707298
2.84718e-05
-0.000693537
-1.72853e-05
-0.000644113
-7.38541e-05
-0.000556492
-0.00013521
-0.000434488
-0.000190741
-0.000291462
-0.00022485
-0.000151078
-0.000220775
-4.35786e-05
-0.000166865
-6.20267e-05
-4.27683e-05
8.83562e-05
-0.000118774
0.000166051
-0.000207264
0.000196238
-0.000299844
0.000206316
-0.000393145
0.000208899
-0.000485476
0.000208107
-0.000575233
0.000204024
-0.000660183
0.000194959
-0.00073708
0.000178268
-0.000801372
0.000150619
-0.000847019
0.000108316
-0.0008666
4.8053e-05
-0.000851559
-3.23258e-05
-0.000793247
-0.000132166
-0.000686702
-0.000241754
-0.000534957
-0.000342486
-0.000354673
-0.000405134
-0.000178634
-0.000396813
-4.84703e-05
-0.000297029
-0.000110497
-4.69583e-05
0.000135315
-0.000130399
0.000249491
-0.000227141
0.000292979
-0.000328116
0.000307291
-0.000429948
0.000310731
-0.000531133
0.000309292
-0.000630336
0.000303228
-0.000725659
0.000290282
-0.000814182
0.000266791
-0.000891526
0.000227963
-0.000951367
0.000168157
-0.000985128
8.18133e-05
-0.000982187
-3.52669e-05
-0.000928488
-0.000185865
-0.000813138
-0.000357104
-0.000634416
-0.000521209
-0.000411392
-0.000628158
-0.000192513
-0.000615692
-4.2194e-05
-0.000447347
-0.000152691
-4.82253e-05
0.00018354
-0.000134765
0.000336032
-0.000235368
0.000393582
-0.000340692
0.000412616
-0.000447629
0.000417668
-0.000555204
0.000416866
-0.000662788
0.000410812
-0.000769327
0.000396821
-0.00087281
0.000370274
-0.000969627
0.00032478
-0.00105366
0.000252194
-0.00111498
0.000143133
-0.00114141
-8.84061e-06
-0.00110931
-0.000217963
-0.000996878
-0.000469538
-0.000789387
-0.000728699
-0.000503664
-0.000913881
-0.000213194
-0.000906163
-2.88885e-05
-0.000631653
-0.000181579
-4.80511e-05
0.000231591
-0.000135501
0.000423482
-0.000237801
0.000495882
-0.000345581
0.000520396
-0.000456165
0.000528252
-0.00056935
0.000530051
-0.00068557
0.000527032
-0.00080513
0.000516381
-0.000927642
0.000492787
-0.00105125
0.000448387
-0.00117136
0.000372303
-0.0012787
0.000250474
-0.00135594
6.84008e-05
-0.00137665
-0.00019725
-0.00129412
-0.000552076
-0.00106515
-0.000957664
-0.00069036
-0.00128867
-0.000276012
-0.00132051
-1.65552e-05
-0.00089111
-0.000198135
-4.70285e-05
0.000278619
-0.000134126
0.000510579
-0.000236809
0.000598565
-0.000345768
0.000629354
-0.000458834
0.000641317
-0.000576736
0.000647954
-0.000701285
0.00065158
-0.000834684
0.000649781
-0.000979081
0.000637183
-0.00113584
0.000605145
-0.00130432
0.000540785
-0.00147943
0.000425583
-0.00164421
0.000233185
-0.00176953
-7.19386e-05
-0.001771
-0.000550606
-0.0015522
-0.00117646
-0.00107301
-0.00176786
-0.000468156
-0.00192536
-3.64276e-05
-0.00132284
-0.000234562
-4.53493e-05
0.000323969
-0.000131121
0.000596351
-0.000233014
0.000700458
-0.000341721
0.000738062
-0.000455555
0.000755152
-0.000576243
0.000768642
-0.000707175
0.000782512
-0.000852942
0.000795548
-0.00101924
0.000803482
-0.00121268
0.000798582
-0.00144036
0.000768469
-0.0017079
0.000693121
-0.00200815
0.000533434
-0.00229624
0.000216149
-0.00245682
-0.000390024
-0.00230606
-0.00132722
-0.00175694
-0.00231697
-0.000937465
-0.00274484
-0.000178793
-0.00208151
-0.000413355
-4.31121e-05
0.000367081
-0.000126677
0.000679916
-0.000226488
0.000800269
-0.000333062
0.000844636
-0.000445052
0.000867142
-0.000565087
0.000888677
-0.000698135
0.000915559
-0.000851386
0.000948798
-0.00103484
0.000986941
-0.00126221
0.00102595
-0.00155164
0.00105789
-0.0019243
0.00106578
-0.00238706
0.000996196
-0.00287096
0.000700046
-0.00321726
-4.37235e-05
-0.00318545
-0.00135903
-0.00268781
-0.00281462
-0.00175754
-0.00367511
-0.00056893
-0.00327012
-0.000982285
-4.05339e-05
0.000407615
-0.000121196
0.000760578
-0.000217562
0.000896635
-0.000319666
0.00094674
-0.000426249
0.000973724
-0.000540552
0.00100298
-0.00066876
0.00104377
-0.000820256
0.00110029
-0.00100907
0.00117575
-0.00125613
0.00127301
-0.00159066
0.00139243
-0.00204394
0.00151906
-0.00261953
0.00157179
-0.00323212
0.00131263
-0.00365819
0.000382349
-0.00376
-0.00125722
-0.0034649
-0.00310972
-0.0026444
-0.00449561
-0.00118473
-0.00472978
-0.00216702
-3.81135e-05
0.000445728
-0.000115672
0.000838137
-0.000207386
0.000988349
-0.000302435
0.00104179
-0.000399328
0.00107062
-0.000501442
0.0011051
-0.000615351
0.00115768
-0.000751243
0.00123619
-0.000924758
0.00134927
-0.00115971
0.00150796
-0.00148801
0.00172073
-0.00193503
0.00196608
-0.00248076
0.00211752
-0.00302214
0.00185401
-0.00341373
0.000773941
-0.00357231
-0.00109864
-0.003512
-0.00317003
-0.00301571
-0.0049919
-0.00175067
-0.00599483
-0.00391768
-3.67983e-05
0.000482526
-0.000112022
0.00091336
-0.000198388
0.00107471
-0.000283877
0.00112728
-0.000366558
0.0011533
-0.000449424
0.00118796
-0.000538276
0.00124653
-0.000641863
0.00133977
-0.00077312
0.00148052
-0.000950472
0.00168531
-0.00119519
0.00196545
-0.00151469
0.00228558
-0.00187181
0.00247464
-0.00218977
0.00217196
-0.00244437
0.00102854
-0.00263798
-0.000905026
-0.00277322
-0.0030348
-0.00265318
-0.00511194
-0.00180262
-0.00684539
-0.00572031
-3.8154e-05
0.00052068
-0.000113405
0.000988611
-0.000194682
0.00115599
-0.000268554
0.00120115
-0.000332867
0.00121761
-0.000390029
0.00124512
-0.000444059
0.00130056
-0.000500094
0.00139581
-0.000564435
0.00154486
-0.000643663
0.00176454
-0.000740991
0.00206278
-0.000851973
0.00239656
-0.000958314
0.00258098
-0.00104624
0.00225989
-0.00117132
0.00115362
-0.00138971
-0.000686638
-0.00168447
-0.00274004
-0.0018922
-0.00490421
-0.0014316
-0.00730598
-0.00715191
-4.49485e-05
0.000565629
-0.000124844
0.00106851
-0.000202081
0.00123323
-0.000262661
0.00126173
-0.000305376
0.00126033
-0.000332377
0.00127212
-0.000345554
0.00131374
-0.000345644
0.0013959
-0.000331422
0.00153064
-0.000298093
0.00173121
-0.000231122
0.00199581
-0.000128376
0.00229382
-1.26279e-05
0.00246524
4.47329e-05
0.00220253
2.19662e-05
0.00117639
-0.000188425
-0.000476246
-0.00060171
-0.00232676
-0.00108055
-0.00442536
-0.000992465
-0.00739407
-0.00814437
-6.11848e-05
0.000626814
-0.000153974
0.0011613
-0.000230314
0.00130957
-0.000275892
0.00130731
-0.000293926
0.00127836
-0.000288276
0.00126647
-0.000259244
0.0012847
-0.000203603
0.00134026
-0.000114002
0.00144104
2.72903e-05
0.00158992
0.00022429
0.00179881
0.00049385
0.00202426
0.000810707
0.00214838
0.0010803
0.00193294
0.00112806
0.00112863
0.000862949
-0.000211139
0.000356015
-0.00181982
-0.000312158
-0.00375719
-0.000586966
-0.00711926
-0.00873134
-9.36469e-05
0.000720461
-0.000209619
0.00127727
-0.000283591
0.00138354
-0.000311759
0.00133548
-0.000304198
0.0012708
-0.000266803
0.00122908
-0.000199214
0.00121711
-9.57413e-05
0.00123678
5.43311e-05
0.00129097
0.000259411
0.00138484
0.000543071
0.00151515
0.000913013
0.00165431
0.00133575
0.00172565
0.001697
0.00157169
0.00180947
0.00101616
0.0015713
2.70259e-05
0.000979755
-0.00122827
0.000214216
-0.00299165
-0.000205141
-0.0066999
-0.00893648
-0.000165521
0.000885981
-0.000344042
0.00145579
-0.000405991
0.00144549
-0.000392052
0.00132154
-0.000345483
0.00122423
-0.000275053
0.00115865
-0.000175537
0.0011176
-3.69522e-05
0.0010982
0.000151439
0.00110258
0.000403945
0.00113234
0.000732268
0.00118682
0.00113999
0.00124659
0.00158818
0.00127746
0.00197894
0.00118093
0.00212789
0.000867209
0.00194029
0.000214623
0.00136986
-0.00065784
0.000700059
-0.00232185
0.000152489
-0.00615234
-0.00878399
-0.00016613
0.00105211
-0.000379007
0.00166866
-0.000483269
0.00154975
-0.000499757
0.00133803
-0.000451386
0.00117586
-0.000356168
0.00106343
-0.000218182
0.000979612
-3.33808e-05
0.000913398
0.00019974
0.000869455
0.000490859
0.000841217
0.000840828
0.000836854
0.00125318
0.000834241
0.00169058
0.00084006
0.00208552
0.000785987
0.0022951
0.000657622
0.00221452
0.000295212
0.00190282
-0.000346144
0.001419
-0.00183804
0.000660524
-0.00539385
-0.00812347
-0.00157094
0.00262305
-0.00150776
0.00160549
-0.00104148
0.00108347
-0.000589268
0.000885813
-0.000175175
0.000761765
0.000227209
0.000661047
0.000623814
0.000583007
0.00102054
0.000516673
0.00141665
0.00047334
0.00182361
0.000434257
0.00224143
0.000419035
0.00267611
0.000399561
0.00311139
0.000404781
0.003518
0.000379379
0.00385298
0.000322645
0.00400825
0.000139939
0.00394417
-0.000282061
0.00362087
-0.00151474
0.002094
-0.00386698
-0.00602946
0.00262305
0.00422854
0.00531201
0.00619782
0.00695959
0.00762064
0.00820364
0.00872032
0.00919366
0.00962791
0.0100469
0.0104465
0.0108513
0.0112307
0.0115533
0.0116933
0.0114112
0.00989645
0.00602946
)
;

boundaryField
{
    movingWall
    {
        type            calculated;
        value           uniform 0;
    }
    fixedWalls
    {
        type            calculated;
        value           uniform 0;
    }
    frontAndBack
    {
        type            empty;
        value           nonuniform List<scalar> 0();
    }
}


// ************************************************************************* //
