/*--------------------------------*- C++ -*----------------------------------*\
  =========                 |
  \\      /  F ield         | OpenFOAM: The Open Source CFD Toolbox
   \\    /   O peration     | Website:  https://openfoam.org
    \\  /    A nd           | Version:  10
     \\/     M anipulation  |
\*---------------------------------------------------------------------------*/
FoamFile
{
    format      ascii;
    class       volVectorField;
    location    "10";
    object      U;
}
// * * * * * * * * * * * * * * * * * * * * * * * * * * * * * * * * * * * * * //

dimensions      [0 1 -1 0 0 0 0];

internalField   nonuniform List<vector> 
400
(
(-0.000219023 0.000199763 0)
(-0.00124657 0.000548817 0)
(-0.0029973 0.000690542 0)
(-0.00490852 0.000735036 0)
(-0.00686649 0.000757507 0)
(-0.0088547 0.000779335 0)
(-0.0108611 0.000798943 0)
(-0.0128575 0.000806366 0)
(-0.0147875 0.000786976 0)
(-0.0165569 0.000721946 0)
(-0.0180262 0.000589206 0)
(-0.0190084 0.000366569 0)
(-0.0192761 3.76137e-05 0)
(-0.0185938 -0.000398519 0)
(-0.0167872 -0.000893998 0)
(-0.0138425 -0.00135663 0)
(-0.0100089 -0.00165162 0)
(-0.00582339 -0.00163297 0)
(-0.00204777 -0.00118068 0)
(-0.000184711 -0.00029806 0)
(-0.000637451 0.00129159 0)
(-0.00288368 0.00270941 0)
(-0.00634038 0.00328047 0)
(-0.0100812 0.00347256 0)
(-0.0138882 0.00354446 0)
(-0.0177045 0.00357644 0)
(-0.0214754 0.00356607 0)
(-0.0251237 0.00347668 0)
(-0.0285306 0.00325323 0)
(-0.0315215 0.00282685 0)
(-0.0338575 0.00212076 0)
(-0.0352396 0.00106436 0)
(-0.0353264 -0.000381179 0)
(-0.0337687 -0.00217879 0)
(-0.0303226 -0.00414557 0)
(-0.025008 -0.00592986 0)
(-0.0182458 -0.00702898 0)
(-0.0109107 -0.00690955 0)
(-0.0042753 -0.00517805 0)
(-0.000660809 -0.00178975 0)
(-0.000852015 0.00328403 0)
(-0.00372842 0.00627886 0)
(-0.00804414 0.00745823 0)
(-0.012667 0.00785714 0)
(-0.0173418 0.00797052 0)
(-0.0220018 0.00795933 0)
(-0.0265776 0.00782477 0)
(-0.0309773 0.00749814 0)
(-0.0350664 0.00687359 0)
(-0.0386503 0.00581923 0)
(-0.0414624 0.0041902 0)
(-0.043161 0.00185688 0)
(-0.0433362 -0.00124689 0)
(-0.0415389 -0.0050483 0)
(-0.0374034 -0.0091867 0)
(-0.0308608 -0.0129432 0)
(-0.0223783 -0.0152506 0)
(-0.0131217 -0.0149538 0)
(-0.00487907 -0.0112919 0)
(-0.000652405 -0.00424448 0)
(-0.000932108 0.00556888 0)
(-0.00409224 0.0103411 0)
(-0.00882427 0.0121742 0)
(-0.0138711 0.012781 0)
(-0.0189684 0.012928 0)
(-0.0240614 0.0128658 0)
(-0.0290928 0.0126017 0)
(-0.0339864 0.0120367 0)
(-0.0386251 0.0110136 0)
(-0.0428285 0.00933181 0)
(-0.0463292 0.00676351 0)
(-0.0487545 0.00309158 0)
(-0.0496172 -0.0018243 0)
(-0.0482793 -0.0079556 0)
(-0.0440811 -0.0147855 0)
(-0.0366654 -0.0211567 0)
(-0.0263935 -0.0251688 0)
(-0.0148252 -0.0246275 0)
(-0.00471232 -0.0182399 0)
(-0.000276353 -0.00655966 0)
(-0.000947702 0.00796175 0)
(-0.00421221 0.0146138 0)
(-0.00913194 0.0171315 0)
(-0.0143861 0.0179591 0)
(-0.0197153 0.0181627 0)
(-0.0250895 0.0180925 0)
(-0.030483 0.0177682 0)
(-0.0358587 0.017065 0)
(-0.0411455 0.0157758 0)
(-0.0462077 0.0136235 0)
(-0.0508044 0.0102695 0)
(-0.0545479 0.00534374 0)
(-0.0568785 -0.00146885 0)
(-0.0568887 -0.010225 0)
(-0.0534051 -0.0205016 0)
(-0.0454396 -0.0306382 0)
(-0.032873 -0.0374498 0)
(-0.0176408 -0.0367675 0)
(-0.00420577 -0.0262393 0)
(0.000494738 -0.00830195 0)
(-0.000932079 0.010375 0)
(-0.00421048 0.0189736 0)
(-0.00920253 0.0222136 0)
(-0.0145596 0.0232943 0)
(-0.0200345 0.0236051 0)
(-0.0256303 0.0236106 0)
(-0.0313675 0.0233539 0)
(-0.0372701 0.0226951 0)
(-0.0433429 0.021384 0)
(-0.0495381 0.0190639 0)
(-0.0557053 0.0152615 0)
(-0.061512 0.00939383 0)
(-0.0663075 0.000851008 0)
(-0.0690234 -0.0107778 0)
(-0.0678019 -0.0254912 0)
(-0.0602982 -0.0413196 0)
(-0.0451137 -0.0532689 0)
(-0.0241673 -0.0533502 0)
(-0.00424218 -0.0364266 0)
(0.00174502 -0.00923401 0)
(-0.000897586 0.0127558 0)
(-0.00413739 0.0233435 0)
(-0.00913435 0.0273449 0)
(-0.0145282 0.0287193 0)
(-0.0200859 0.029202 0)
(-0.0258486 0.0293908 0)
(-0.0318941 0.0293704 0)
(-0.0383274 0.029005 0)
(-0.045264 0.0280221 0)
(-0.0528025 0.0260029 0)
(-0.0609762 0.022348 0)
(-0.0696558 0.0162424 0)
(-0.0783736 0.00662642 0)
(-0.0860645 -0.00775211 0)
(-0.0899079 -0.0276964 0)
(-0.0851911 -0.0520248 0)
(-0.0679763 -0.0734715 0)
(-0.0396196 -0.0773647 0)
(-0.00825425 -0.0518548 0)
(0.00313424 -0.0100692 0)
(-0.000848014 0.0150681 0)
(-0.00400946 0.0276702 0)
(-0.00895706 0.0324659 0)
(-0.0143224 0.0341696 0)
(-0.0198833 0.0348851 0)
(-0.0257189 0.035367 0)
(-0.0319702 0.0357668 0)
(-0.0388383 0.0359857 0)
(-0.0465825 0.0357713 0)
(-0.0555139 0.0346989 0)
(-0.065984 0.0321156 0)
(-0.0783609 0.0270464 0)
(-0.0928136 0.0179183 0)
(-0.10834 0.00209152 0)
(-0.120901 -0.0236948 0)
(-0.122112 -0.0602961 0)
(-0.104788 -0.0976278 0)
(-0.0704579 -0.111243 0)
(-0.0245481 -0.078946 0)
(0.00302828 -0.0144768 0)
(-0.000785895 0.0172815 0)
(-0.00383481 0.0319081 0)
(-0.00867993 0.0375164 0)
(-0.0139383 0.0395642 0)
(-0.0193902 0.0405488 0)
(-0.0251459 0.0414089 0)
(-0.0314058 0.0423943 0)
(-0.0384691 0.0434887 0)
(-0.0467568 0.0445306 0)
(-0.056841 0.0451975 0)
(-0.0695012 0.0449479 0)
(-0.0858515 0.0428614 0)
(-0.107138 0.0368173 0)
(-0.132706 0.0215758 0)
(-0.155873 -0.0112935 0)
(-0.163765 -0.065014 0)
(-0.149351 -0.124541 0)
(-0.115917 -0.154715 0)
(-0.0609193 -0.125569 0)
(-0.00213181 -0.0294649 0)
(-0.000717501 0.0193727 0)
(-0.00363058 0.0360168 0)
(-0.00832439 0.0424297 0)
(-0.0133854 0.0447982 0)
(-0.0185822 0.0460401 0)
(-0.0240429 0.0473062 0)
(-0.0300097 0.0489786 0)
(-0.0368575 0.0511755 0)
(-0.0451466 0.0539181 0)
(-0.0556904 0.0571433 0)
(-0.06965 0.060637 0)
(-0.0888392 0.0636453 0)
(-0.115631 0.0629423 0)
(-0.149147 0.0488557 0)
(-0.178582 0.00657462 0)
(-0.189503 -0.0685687 0)
(-0.181079 -0.152043 0)
(-0.15704 -0.204742 0)
(-0.105558 -0.193587 0)
(-0.0160114 -0.0644182 0)
(-0.000656913 0.0213349 0)
(-0.00343615 0.0399714 0)
(-0.00794769 0.0471397 0)
(-0.0127197 0.0497473 0)
(-0.0174928 0.0511621 0)
(-0.0223945 0.0527708 0)
(-0.0276764 0.0551119 0)
(-0.0337335 0.0584788 0)
(-0.0411722 0.063153 0)
(-0.0508913 0.0694616 0)
(-0.0641138 0.0776162 0)
(-0.08271 0.0867103 0)
(-0.109387 0.0913261 0)
(-0.142744 0.0767869 0)
(-0.170133 0.0246057 0)
(-0.178536 -0.0674287 0)
(-0.175778 -0.170063 0)
(-0.16445 -0.250086 0)
(-0.128638 -0.273532 0)
(-0.0329609 -0.141501 0)
(-0.000630638 0.0231968 0)
(-0.00332594 0.0437844 0)
(-0.00766261 0.0516 0)
(-0.0120692 0.0542856 0)
(-0.0162473 0.0556945 0)
(-0.0203086 0.0574626 0)
(-0.024476 0.0602847 0)
(-0.029084 0.0646298 0)
(-0.034631 0.0710411 0)
(-0.0418264 0.0802172 0)
(-0.0514906 0.0926405 0)
(-0.0647681 0.106767 0)
(-0.0839235 0.114734 0)
(-0.107742 0.0989877 0)
(-0.125927 0.0417372 0)
(-0.130254 -0.055812 0)
(-0.132758 -0.167476 0)
(-0.133508 -0.270327 0)
(-0.120609 -0.339988 0)
(-0.0352413 -0.253383 0)
(-0.000683265 0.0250461 0)
(-0.00342152 0.047516 0)
(-0.00765556 0.055773 0)
(-0.011655 0.0582774 0)
(-0.0150858 0.0594061 0)
(-0.0180504 0.0610308 0)
(-0.020719 0.0639655 0)
(-0.0232956 0.0687948 0)
(-0.0260308 0.0762166 0)
(-0.0292142 0.0870991 0)
(-0.0330016 0.101919 0)
(-0.0375907 0.118556 0)
(-0.0448487 0.127771 0)
(-0.0550351 0.111615 0)
(-0.0628498 0.0549267 0)
(-0.0650319 -0.0396209 0)
(-0.0734837 -0.148149 0)
(-0.085113 -0.259157 0)
(-0.0957153 -0.366552 0)
(-0.0210022 -0.337094 0)
(-0.000896238 0.0270984 0)
(-0.00392779 0.0514145 0)
(-0.00820327 0.0598171 0)
(-0.0117781 0.0617285 0)
(-0.0143384 0.0621638 0)
(-0.0160194 0.0632201 0)
(-0.0169428 0.0657511 0)
(-0.017161 0.0703432 0)
(-0.0166457 0.0776815 0)
(-0.0152583 0.0885631 0)
(-0.0125471 0.103178 0)
(-0.00805734 0.119627 0)
(-0.00340309 0.129091 0)
(0.000207858 0.114677 0)
(0.00206602 0.0613111 0)
(-0.0010469 -0.0266985 0)
(-0.0164935 -0.124571 0)
(-0.0358459 -0.233541 0)
(-0.069891 -0.370523 0)
(-0.00607034 -0.389687 0)
(-0.00138798 0.0296247 0)
(-0.00514136 0.0554734 0)
(-0.00975448 0.0632781 0)
(-0.0129322 0.0641512 0)
(-0.0144845 0.063595 0)
(-0.0147367 0.0637417 0)
(-0.0138226 0.0653812 0)
(-0.0116633 0.0690045 0)
(-0.00800679 0.0751457 0)
(-0.00255134 0.0842543 0)
(0.00573545 0.0966315 0)
(0.0177483 0.110503 0)
(0.0320258 0.118998 0)
(0.0451954 0.108308 0)
(0.0533948 0.0629199 0)
(0.0523161 -0.0149077 0)
(0.0328163 -0.0987678 0)
(0.00932707 -0.198834 0)
(-0.0475024 -0.362989 0)
(0.00860849 -0.430569 0)
(-0.00241959 0.0332501 0)
(-0.00746474 0.0613745 0)
(-0.0126165 0.068375 0)
(-0.0153163 0.0669831 0)
(-0.0157551 0.0644246 0)
(-0.0145571 0.0629882 0)
(-0.0119056 0.063153 0)
(-0.00764116 0.0651268 0)
(-0.00149707 0.0691779 0)
(0.00727108 0.0755071 0)
(0.0196075 0.0843586 0)
(0.0360262 0.0940684 0)
(0.0555168 0.0999359 0)
(0.074402 0.0920603 0)
(0.0863089 0.0585779 0)
(0.0876305 -0.00260153 0)
(0.0664913 -0.0716508 0)
(0.0426197 -0.164815 0)
(-0.0309101 -0.352434 0)
(0.0250642 -0.45836 0)
(-0.0042948 0.0420585 0)
(-0.0133593 0.0665327 0)
(-0.0193933 0.0677029 0)
(-0.0204421 0.0646688 0)
(-0.0187922 0.0614961 0)
(-0.0158169 0.0592832 0)
(-0.0115883 0.0582846 0)
(-0.00569097 0.0585674 0)
(0.00234059 0.0602773 0)
(0.013283 0.0635896 0)
(0.0278619 0.0684037 0)
(0.0462577 0.0736227 0)
(0.0673959 0.0765083 0)
(0.0884824 0.0708649 0)
(0.101747 0.0496372 0)
(0.105604 0.00747861 0)
(0.0845285 -0.0449489 0)
(0.0624092 -0.134955 0)
(-0.0144815 -0.342363 0)
(0.0475882 -0.47409 0)
(-0.00302899 0.0371622 0)
(-0.0119095 0.0823793 0)
(-0.0231865 0.0826883 0)
(-0.0262084 0.0721633 0)
(-0.0245956 0.0642293 0)
(-0.0207601 0.0590443 0)
(-0.0148329 0.0554323 0)
(-0.00672677 0.0528891 0)
(0.00367296 0.0515039 0)
(0.0168009 0.0511971 0)
(0.0328295 0.0520738 0)
(0.0519378 0.0531325 0)
(0.0725194 0.0536657 0)
(0.0941559 0.0494802 0)
(0.107214 0.0382298 0)
(0.116038 0.0125824 0)
(0.0975616 -0.0262149 0)
(0.0853514 -0.116668 0)
(0.0229258 -0.315572 0)
(0.0875185 -0.448701 0)
(-0.0977896 0.0967047 0)
(-0.0743071 0.0762361 0)
(-0.0635417 0.0577563 0)
(-0.0406184 0.049835 0)
(-0.0194707 0.0442211 0)
(0.00133108 0.0396635 0)
(0.0211474 0.0359521 0)
(0.0415667 0.0328455 0)
(0.0606689 0.0307314 0)
(0.081904 0.0290774 0)
(0.100785 0.0284725 0)
(0.124395 0.0278883 0)
(0.141463 0.0280804 0)
(0.167163 0.0267129 0)
(0.175308 0.0231207 0)
(0.197672 0.0111667 0)
(0.179836 -0.0171329 0)
(0.186816 -0.0849356 0)
(0.136746 -0.227537 0)
(0.167951 -0.340428 0)
(0.13546 0.109612 0)
(0.171519 0.0871007 0)
(0.231493 0.0654226 0)
(0.286805 0.0513448 0)
(0.329338 0.0422035 0)
(0.366779 0.0353209 0)
(0.395367 0.0302329 0)
(0.425468 0.0257802 0)
(0.446481 0.0226853 0)
(0.473793 0.0195791 0)
(0.489097 0.0178711 0)
(0.516283 0.015554 0)
(0.526163 0.014959 0)
(0.553865 0.0129403 0)
(0.554602 0.0128637 0)
(0.576782 0.00883103 0)
(0.551446 0.00394772 0)
(0.542416 -0.0152429 0)
(0.438989 -0.0471445 0)
(0.339217 -0.0994328 0)
)
;

boundaryField
{
    movingWall
    {
        type            fixedValue;
        value           uniform (1 0 0);
    }
    fixedWalls
    {
        type            noSlip;
    }
    frontAndBack
    {
        type            empty;
    }
}


// ************************************************************************* //
