/*--------------------------------*- C++ -*----------------------------------*\
  =========                 |
  \\      /  F ield         | OpenFOAM: The Open Source CFD Toolbox
   \\    /   O peration     | Website:  https://openfoam.org
    \\  /    A nd           | Version:  10
     \\/     M anipulation  |
\*---------------------------------------------------------------------------*/
FoamFile
{
    format      ascii;
    class       volScalarField;
    location    "1.6";
    object      p;
}
// * * * * * * * * * * * * * * * * * * * * * * * * * * * * * * * * * * * * * //

dimensions      [0 2 -2 0 0 0 0];

internalField   nonuniform List<scalar> 
475
(
0.0177449
-0.0113138
-0.0372725
-0.0610162
-0.0848946
-0.00948167
-0.0238813
-0.0440851
-0.0644167
-0.087626
-0.00947422
-0.0186824
-0.0357281
-0.0544049
-0.0720119
-0.00903567
-0.0195198
-0.0356689
-0.0519411
-0.0651512
0.020499
-0.00604434
-0.0301931
-0.0478874
-0.0589482
-0.110517
-0.17127
-0.245302
-0.282492
-0.254671
-0.170541
-0.0829852
-0.0197277
0.0143746
0.0308309
0.0441756
0.0575238
0.0673456
0.0727042
0.074641
0.0745581
0.0733454
0.0714192
0.0690959
0.0667006
0.06424
0.0617255
0.059174
0.0565973
0.0540032
0.0513962
0.0487796
0.0461564
0.0435284
0.0408968
0.0382627
0.0356268
0.0329897
0.0303517
0.0277133
0.0250745
0.0224355
0.0197964
0.0171569
0.0145175
0.011878
0.00923812
0.00659875
0.00395921
0.00131961
-0.116374
-0.145523
-0.172352
-0.180412
-0.152403
-0.0937177
-0.0352209
-0.00244459
0.0112126
0.0226639
0.0383287
0.0522466
0.0611411
0.0659889
0.0685554
0.0695621
0.0694106
0.0684527
0.0670262
0.0652647
0.0632501
0.0610499
0.0587167
0.056289
0.0537948
0.0512547
0.0486836
0.0460914
0.0434844
0.0408672
0.0382429
0.0356136
0.0329811
0.0303461
0.0277098
0.0250724
0.0224342
0.0197957
0.0171565
0.0145173
0.0118779
0.00923814
0.0065988
0.00395924
0.00131962
-0.0897387
-0.104873
-0.113634
-0.113925
-0.10352
-0.0757034
-0.0395339
-0.0135105
0.000327589
0.0196982
0.0432599
0.0581418
0.0639373
0.0665081
0.0679604
0.0685488
0.0684086
0.0676581
0.0664057
0.0647742
0.0628614
0.0607436
0.0584779
0.0561063
0.0536591
0.0511571
0.0486148
0.0460435
0.0434516
0.040845
0.0382281
0.0356039
0.0329748
0.0303422
0.0277074
0.0250709
0.0224334
0.0197952
0.0171563
0.0145173
0.0118779
0.00923823
0.00659889
0.00395929
0.00131965
-0.0772422
-0.084594
-0.0841565
-0.0804538
-0.0714236
-0.0517561
-0.0321667
-0.0201232
-0.0108441
0.00252318
0.0184848
0.033807
0.0462108
0.0550946
0.0607181
0.0639458
0.0654289
0.0656837
0.065081
0.0638824
0.0622656
0.0603516
0.0582247
0.0559449
0.0535559
0.0510902
0.0485712
0.046015
0.0434331
0.0408331
0.0382206
0.0355993
0.032972
0.0303407
0.0277066
0.0250706
0.0224333
0.0197953
0.0171565
0.0145174
0.0118781
0.00923844
0.00659903
0.00395938
0.00131972
-0.0675464
-0.0713883
-0.0668625
-0.0599461
-0.0523239
-0.0396764
-0.0283769
-0.0238443
-0.0182122
-0.00291866
0.0185743
0.037191
0.0498352
0.0577108
0.0624102
0.0649515
0.0659964
0.0659912
0.0652391
0.0639536
0.0622854
0.0603421
0.0582006
0.0559169
0.0535307
0.0510707
0.0485573
0.0460057
0.0434272
0.0408295
0.0382185
0.0355983
0.0329717
0.0303407
0.0277068
0.0250709
0.0224336
0.0197955
0.0171567
0.0145176
0.0118783
0.00923869
0.00659914
0.00395944
0.00131978
-0.186454
-0.197726
-0.214166
-0.213911
-0.178916
-0.105742
-0.0163365
0.059919
0.106731
0.127506
0.131091
0.12596
0.117425
0.108257
0.0996845
0.0921354
0.0856541
0.080101
0.0752787
0.0710651
0.0673033
0.0638676
0.0606668
0.0576334
0.0547186
0.0518874
0.0491148
0.0463835
0.0436809
0.0409984
0.0383297
0.0356705
0.0330177
0.0303693
0.027724
0.0250807
0.0224388
0.0197979
0.0171575
0.0145174
0.0118776
0.00923791
0.00659841
0.0039589
0.00131953
-0.189851
-0.204069
-0.233646
-0.247186
-0.215844
-0.140886
-0.0400344
0.0476981
0.101136
0.123653
0.127404
0.122321
0.114076
0.10543
0.097475
0.0905193
0.0845388
0.0793947
0.0747595
0.0707134
0.0670671
0.0637086
0.0605606
0.0575633
0.0546729
0.0518579
0.0490961
0.0463717
0.0436738
0.0409942
0.0383274
0.0356693
0.0330173
0.0303693
0.0277241
0.025081
0.0224391
0.0197982
0.0171577
0.0145177
0.0118779
0.00923799
0.00659852
0.00395899
0.00131953
-0.202468
-0.236144
-0.287306
-0.321352
-0.297423
-0.209067
-0.080597
0.0260545
0.0910207
0.115876
0.119667
0.115012
0.107739
0.100199
0.0932985
0.0872444
0.0819604
0.0773035
0.0732994
0.069831
0.0665059
0.0633458
0.0603239
0.0574068
0.0545692
0.0517891
0.0490506
0.0463419
0.0436545
0.0409819
0.0383197
0.0356646
0.0330144
0.0303676
0.0277233
0.0250806
0.022439
0.0197983
0.0171579
0.0145179
0.0118781
0.0092381
0.00659865
0.0039591
0.00131955
-0.201492
-0.247607
-0.318597
-0.367421
-0.351731
-0.255445
-0.118942
-0.0016598
0.0706698
0.0985623
0.104734
0.102938
0.0984796
0.0933515
0.088439
0.0839631
0.0799269
0.0762697
0.0728002
0.0691759
0.0659445
0.0629164
0.0600093
0.0571832
0.054412
0.0516798
0.0489754
0.0462908
0.04362
0.0409589
0.0383045
0.0356546
0.033008
0.0303636
0.0277208
0.0250792
0.0224382
0.019798
0.0171577
0.0145179
0.0118781
0.00923814
0.0065987
0.00395916
0.00131958
-0.178279
-0.238057
-0.309094
-0.358413
-0.341309
-0.243538
-0.120806
-0.0212171
0.0370909
0.0613844
0.0735907
0.0813137
0.0839657
0.0829519
0.0805524
0.0778127
0.0750708
0.0724706
0.0700201
0.0675414
0.0649054
0.0622303
0.0595492
0.0568722
0.0542011
0.0515365
0.0488783
0.046225
0.0435756
0.040929
0.0382845
0.0356414
0.0329993
0.030358
0.0277173
0.025077
0.022437
0.0197973
0.0171574
0.0145177
0.0118781
0.00923814
0.00659873
0.00395919
0.00131959
)
;

boundaryField
{
    inlet
    {
        type            zeroGradient;
    }
    outlet
    {
        type            fixedValue;
        value           uniform 0;
    }
    upperWall
    {
        type            zeroGradient;
    }
    lowerWall
    {
        type            zeroGradient;
    }
    frontAndBack
    {
        type            empty;
    }
}


// ************************************************************************* //
