/*--------------------------------*- C++ -*----------------------------------*\
  =========                 |
  \\      /  F ield         | OpenFOAM: The Open Source CFD Toolbox
   \\    /   O peration     | Website:  https://openfoam.org
    \\  /    A nd           | Version:  10
     \\/     M anipulation  |
\*---------------------------------------------------------------------------*/
FoamFile
{
    format      ascii;
    class       volScalarField;
    location    "3.45";
    object      p;
}
// * * * * * * * * * * * * * * * * * * * * * * * * * * * * * * * * * * * * * //

dimensions      [0 2 -2 0 0 0 0];

internalField   nonuniform List<scalar> 
475
(
-0.0465551
-0.0712537
-0.101563
-0.125941
-0.149434
-0.0712256
-0.0851366
-0.101285
-0.119938
-0.136027
-0.0693369
-0.0788486
-0.0936371
-0.110833
-0.126843
-0.068351
-0.0793321
-0.0937666
-0.108777
-0.122211
-0.0384962
-0.0654101
-0.0886019
-0.105804
-0.118024
-0.167006
-0.172685
-0.174257
-0.184032
-0.206791
-0.233149
-0.25293
-0.258813
-0.24634
-0.215177
-0.172855
-0.127736
-0.0848674
-0.0508154
-0.0299083
-0.0125551
0.00448319
0.0157878
0.021478
0.0261592
0.0319208
0.0368072
0.0395897
0.0403966
0.0398474
0.0385138
0.0367797
0.0348618
0.0328688
0.0308505
0.0288282
0.0268099
0.0247983
0.0227937
0.0207957
0.0188032
0.0168155
0.0148314
0.0128495
0.0108691
0.00889074
0.0069138
0.00493782
0.00296242
0.000987383
-0.152053
-0.163573
-0.16963
-0.174985
-0.18432
-0.19527
-0.201766
-0.201407
-0.190083
-0.168767
-0.144081
-0.119142
-0.0932896
-0.0693125
-0.0509328
-0.0321003
-0.012424
0.00320999
0.0134945
0.0216974
0.0289972
0.0345339
0.0379263
0.0394205
0.039477
0.0385666
0.0370711
0.0352528
0.0332718
0.0312188
0.0291418
0.0270648
0.0249986
0.0229469
0.0209102
0.0188869
0.0168754
0.0148741
0.0128798
0.0108907
0.00890547
0.00692337
0.0049436
0.0029654
0.000988218
-0.139617
-0.149045
-0.15469
-0.156751
-0.158403
-0.159124
-0.158249
-0.154598
-0.145438
-0.1374
-0.131583
-0.121958
-0.108535
-0.0942964
-0.0783223
-0.0564085
-0.0294505
-0.0070836
0.0085039
0.0198088
0.0282535
0.0339914
0.037475
0.0391967
0.0395401
0.0388674
0.037513
0.0357431
0.0337443
0.0316362
0.0294897
0.0273431
0.0252147
0.0231108
0.0210322
0.0189757
0.0169387
0.0149172
0.0129088
0.0109098
0.00891797
0.00693122
0.00494815
0.00296761
0.00098875
-0.131662
-0.138718
-0.142648
-0.142191
-0.139895
-0.134231
-0.127612
-0.119462
-0.109236
-0.112765
-0.124977
-0.125118
-0.115105
-0.103382
-0.0902539
-0.0690706
-0.0392101
-0.012111
0.00728565
0.019747
0.0279384
0.0335367
0.0371781
0.03913
0.0396676
0.0391232
0.0378297
0.0360669
0.0340409
0.0318887
0.0296936
0.0275013
0.0253341
0.0231986
0.0210952
0.0190212
0.0169712
0.0149405
0.0129248
0.0109206
0.00892497
0.00693551
0.00495049
0.00296859
0.000988824
-0.12644
-0.132154
-0.13472
-0.134133
-0.129636
-0.120999
-0.111136
-0.0982721
-0.0897173
-0.0964725
-0.113781
-0.124096
-0.12069
-0.1077
-0.0884742
-0.064303
-0.0354322
-0.0108364
0.00789584
0.0207189
0.0292805
0.0348681
0.0382543
0.0399246
0.0402491
0.0395636
0.0381754
0.036343
0.034261
0.0320621
0.0298278
0.0276031
0.0254086
0.0232526
0.0211339
0.0190483
0.0169898
0.0149531
0.0129332
0.010926
0.00892836
0.00693749
0.00495156
0.00296902
0.000988833
-0.189459
-0.191664
-0.196904
-0.211025
-0.237497
-0.271199
-0.295827
-0.296716
-0.268897
-0.21231
-0.134851
-0.0500248
0.028772
0.0877526
0.121203
0.130662
0.124123
0.109906
0.0936706
0.0785291
0.065572
0.0553349
0.0477449
0.0423705
0.0386251
0.035941
0.0338741
0.0321232
0.0305031
0.0289095
0.0272896
0.0256212
0.0238991
0.0221248
0.0203053
0.0184486
0.0165622
0.0146528
0.0127259
0.0107858
0.00883599
0.00687927
0.00491755
0.00295245
0.000984998
-0.179538
-0.183568
-0.193137
-0.214558
-0.248845
-0.288458
-0.318279
-0.323827
-0.301881
-0.248393
-0.17051
-0.0838233
0.0011676
0.0656075
0.104781
0.119274
0.116435
0.103998
0.0884608
0.0742257
0.0626877
0.0538099
0.0472151
0.0424491
0.0389969
0.0363969
0.0343041
0.0324836
0.0307858
0.0291224
0.0274459
0.0257335
0.0239775
0.0221795
0.0203434
0.0184749
0.0165802
0.014665
0.012734
0.010791
0.00883924
0.00688117
0.00491855
0.00295282
0.000984988
-0.190558
-0.186118
-0.19576
-0.221209
-0.262241
-0.30742
-0.342227
-0.354932
-0.334276
-0.281486
-0.204081
-0.118953
-0.0368856
0.0308139
0.0746742
0.0930716
0.0943138
0.0860287
0.0743681
0.0644256
0.0567785
0.0508689
0.0461541
0.0424362
0.0394822
0.0370475
0.0349457
0.0330416
0.0312394
0.0294762
0.0277143
0.025933
0.0241237
0.0222848
0.0204179
0.0185271
0.0166163
0.0146901
0.0127509
0.0108023
0.00884646
0.00688552
0.00492094
0.0029538
0.000985041
-0.179839
-0.178975
-0.186966
-0.209827
-0.246715
-0.288046
-0.32134
-0.336073
-0.324027
-0.280705
-0.212351
-0.135516
-0.0632936
-0.00283473
0.038298
0.0576371
0.0619116
0.0583231
0.0528586
0.0491781
0.0474909
0.0460673
0.0442293
0.0421092
0.0399174
0.0377743
0.0357222
0.0337546
0.0318455
0.0299675
0.0280997
0.0262281
0.0243455
0.0224487
0.0205376
0.0186133
0.0166775
0.0147318
0.012779
0.010821
0.00885873
0.00689319
0.00492538
0.00295597
0.000985541
-0.213196
-0.178548
-0.182784
-0.198439
-0.228646
-0.264029
-0.29351
-0.306277
-0.295851
-0.258685
-0.201715
-0.137861
-0.0783302
-0.0303272
0.00176148
0.0211352
0.030536
0.0321765
0.0317245
0.0338632
0.0374914
0.0403566
0.0415176
0.0411813
0.0399196
0.0381957
0.0362853
0.0343219
0.0323557
0.030399
0.0284502
0.0265048
0.0245589
0.0226101
0.0206576
0.0187009
0.0167403
0.0147765
0.0128102
0.010843
0.00887358
0.0069028
0.00493119
0.00295896
0.000986376
)
;

boundaryField
{
    inlet
    {
        type            zeroGradient;
    }
    outlet
    {
        type            fixedValue;
        value           uniform 0;
    }
    upperWall
    {
        type            zeroGradient;
    }
    lowerWall
    {
        type            zeroGradient;
    }
    frontAndBack
    {
        type            empty;
    }
}


// ************************************************************************* //
