/*--------------------------------*- C++ -*----------------------------------*\
  =========                 |
  \\      /  F ield         | OpenFOAM: The Open Source CFD Toolbox
   \\    /   O peration     | Website:  https://openfoam.org
    \\  /    A nd           | Version:  10
     \\/     M anipulation  |
\*---------------------------------------------------------------------------*/
FoamFile
{
    format      ascii;
    class       volScalarField;
    location    "6.05";
    object      p;
}
// * * * * * * * * * * * * * * * * * * * * * * * * * * * * * * * * * * * * * //

dimensions      [0 2 -2 0 0 0 0];

internalField   nonuniform List<scalar> 
400
(
-6.39451e-08
-2.09288e-05
2.23828e-05
0.000106859
0.000238783
0.000419574
0.000651155
0.000935584
0.00127413
0.00166649
0.00210977
0.00259729
0.00311736
0.00365209
0.00417665
0.00465991
0.00506615
0.00535952
0.00553126
0.00551586
2.18238e-05
3.26468e-07
4.78463e-05
0.000132322
0.000261612
0.000437897
0.000663603
0.000941165
0.00127222
0.0016569
0.00209289
0.00257412
0.00308931
0.00362203
0.00414764
0.00463485
0.00504684
0.00534677
0.00552757
0.00550839
-2.74123e-05
-5.55786e-05
-9.69732e-06
7.14027e-05
0.000196404
0.000367776
0.000588499
0.000861839
0.0011905
0.00157591
0.00201718
0.00250993
0.00304524
0.00360622
0.00416758
0.00469511
0.00514652
0.00547674
0.00567617
0.00564343
-0.00012874
-0.000161766
-0.000118642
-4.25236e-05
7.61986e-05
0.000240448
0.000454065
0.000721566
0.00104733
0.00143486
0.00188576
0.00239822
0.0029653
0.00357287
0.00419471
0.00479234
0.00531373
0.00569901
0.00593322
0.00588596
-0.000287981
-0.000325592
-0.000286665
-0.000217405
-0.000107224
4.73827e-05
0.000251345
0.000510782
0.000832271
0.00122225
0.00168592
0.00222548
0.00283774
0.00351198
0.00422209
0.00492473
0.00555534
0.00603028
0.00632224
0.00625424
-0.000504454
-0.00054714
-0.000513957
-0.000453864
-0.000355313
-0.000214187
-2.43508e-05
0.000222149
0.00053452
0.00092288
0.00139737
0.00196608
0.00263162
0.00339051
0.00421923
0.00507085
0.00586439
0.00648143
0.00686819
0.00676748
-0.00077637
-0.000825069
-0.000799377
-0.000751368
-0.000668622
-0.000546525
-0.000377809
-0.000152662
0.000140972
0.000517452
0.000993071
0.00158448
0.00230555
0.0031574
0.00413309
0.00518555
0.00621635
0.00705907
0.0076066
0.00745632
-0.0011016
-0.00115753
-0.00114127
-0.00110881
-0.00104708
-0.000951277
-0.000813374
-0.000622041
-0.000362601
-1.64101e-05
0.000439533
0.00103232
0.00179002
0.00273361
0.00387205
0.00517772
0.00654469
0.00774866
0.00858401
0.00837214
-0.00147741
-0.00154191
-0.00153698
-0.00152375
-0.00148885
-0.00142794
-0.00133296
-0.00119198
-0.000988696
-0.000701167
-0.000300358
0.000251367
0.00100012
0.00199606
0.00327325
0.00486019
0.00667894
0.00846792
0.00983165
0.00961937
-0.0019004
-0.00197481
-0.00198253
-0.00199178
-0.00198942
-0.0019724
-0.00193387
-0.00186284
-0.00174354
-0.00155333
-0.00126013
-0.000819233
-0.000169149
0.000766916
0.00206852
0.00386781
0.0061878
0.0088822
0.0112072
0.011276
-0.00236678
-0.00245224
-0.00247252
-0.00250602
-0.00254055
-0.00257547
-0.00260664
-0.00262615
-0.00262185
-0.00257546
-0.00245965
-0.0022331
-0.00183294
-0.00116744
-0.000113153
0.00141508
0.00395734
0.00775135
0.0117249
0.0129984
-0.00287333
-0.00297032
-0.00300018
-0.00305669
-0.00312938
-0.00322121
-0.00333239
-0.00346051
-0.00360095
-0.003746
-0.0038838
-0.00399719
-0.00406241
-0.00405299
-0.0039608
-0.00366914
-0.00257984
0.0014132
0.00754424
0.011976
-0.00341941
-0.00352769
-0.00356033
-0.00363411
-0.00374045
-0.00388771
-0.00408237
-0.00432951
-0.00463604
-0.00501239
-0.00547601
-0.00605926
-0.00682945
-0.00794817
-0.0098186
-0.0127615
-0.0156727
-0.0130877
-0.00562716
0.0038777
-0.00400439
-0.00411506
-0.00413099
-0.00420753
-0.00433816
-0.00453513
-0.00480869
-0.00517256
-0.00564684
-0.00626371
-0.00707966
-0.00820071
-0.00983952
-0.0124007
-0.016876
-0.0239747
-0.033391
-0.0334978
-0.0256768
-0.0105632
-0.00466128
-0.00478579
-0.0047697
-0.00483733
-0.00496577
-0.00518125
-0.00550253
-0.00595234
-0.00656291
-0.00738569
-0.00851038
-0.0100969
-0.0124973
-0.0162557
-0.0228013
-0.0326259
-0.0468668
-0.0496587
-0.0426577
-0.0239018
-0.0054702
-0.00539943
-0.00527288
-0.00524978
-0.00535613
-0.00559769
-0.00597899
-0.00651365
-0.00723288
-0.00819223
-0.00949402
-0.0113052
-0.0140713
-0.0182226
-0.0254717
-0.0348418
-0.0507218
-0.0529996
-0.0471781
-0.0246952
-0.00596256
-0.00639709
-0.00612265
-0.00615088
-0.0061653
-0.00631118
-0.00660563
-0.00707975
-0.00776882
-0.00871952
-0.0100283
-0.0117963
-0.0145037
-0.0184338
-0.0249767
-0.0332541
-0.0438803
-0.0453109
-0.0382219
-0.00741788
-0.00933045
-0.00682216
-0.0062224
-0.00568289
-0.00564988
-0.00587411
-0.00630022
-0.00689296
-0.00766802
-0.00864759
-0.00994576
-0.0115762
-0.0140134
-0.017339
-0.0223703
-0.0278432
-0.0337893
-0.0313401
-0.0185261
0.0286083
-0.00607116
-0.00907049
-0.00805228
-0.00811238
-0.00771366
-0.00752748
-0.00753158
-0.00776454
-0.00825646
-0.00899818
-0.010086
-0.0115268
-0.0137728
-0.0166864
-0.0215169
-0.0259612
-0.0298677
-0.0180949
0.0100218
0.089531
-0.0312151
-0.00621329
-0.00477883
-0.00407357
-0.0039189
-0.00418737
-0.00476874
-0.0054795
-0.0063795
-0.00740948
-0.00882768
-0.0104723
-0.0128496
-0.0154479
-0.0182839
-0.0179671
-0.011058
0.0211112
0.0910297
0.225734
)
;

boundaryField
{
    movingWall
    {
        type            zeroGradient;
    }
    fixedWalls
    {
        type            zeroGradient;
    }
    frontAndBack
    {
        type            empty;
    }
}


// ************************************************************************* //
