/*--------------------------------*- C++ -*----------------------------------*\
  =========                 |
  \\      /  F ield         | OpenFOAM: The Open Source CFD Toolbox
   \\    /   O peration     | Website:  https://openfoam.org
    \\  /    A nd           | Version:  10
     \\/     M anipulation  |
\*---------------------------------------------------------------------------*/
FoamFile
{
    format      ascii;
    class       volScalarField;
    location    "9.025";
    object      p;
}
// * * * * * * * * * * * * * * * * * * * * * * * * * * * * * * * * * * * * * //

dimensions      [0 2 -2 0 0 0 0];

internalField   nonuniform List<scalar> 
475
(
-0.0410079
-0.0664055
-0.0956867
-0.119224
-0.141784
-0.0668166
-0.0801405
-0.0964148
-0.115476
-0.132465
-0.0649606
-0.0743355
-0.0892738
-0.106763
-0.123157
-0.0643576
-0.0751366
-0.0899957
-0.105493
-0.119099
-0.0345174
-0.0614236
-0.0850892
-0.102777
-0.115626
-0.160045
-0.171107
-0.175384
-0.176765
-0.17785
-0.179403
-0.181372
-0.183061
-0.183429
-0.181664
-0.177258
-0.170027
-0.160081
-0.148195
-0.135218
-0.121793
-0.108313
-0.0952923
-0.0845644
-0.0778823
-0.0757721
-0.076858
-0.0791595
-0.0811683
-0.0824386
-0.0829128
-0.082505
-0.0807848
-0.0778679
-0.0732319
-0.067323
-0.0604059
-0.0528895
-0.0452401
-0.0377606
-0.0309547
-0.0247599
-0.0194288
-0.0149197
-0.0111784
-0.00825361
-0.00568878
-0.00368292
-0.00196261
-0.000546989
-0.149135
-0.160757
-0.166588
-0.168122
-0.167826
-0.166979
-0.165804
-0.164122
-0.161658
-0.158218
-0.153731
-0.148293
-0.141956
-0.13493
-0.127244
-0.118729
-0.109063
-0.0992148
-0.0914398
-0.0871099
-0.0866274
-0.0889647
-0.0922731
-0.0947949
-0.0959734
-0.0959319
-0.094766
-0.0921617
-0.0876887
-0.0817157
-0.0744437
-0.0659638
-0.0568578
-0.0475225
-0.0384146
-0.030096
-0.0225673
-0.0163686
-0.0112555
-0.00742741
-0.00461316
-0.00243978
-0.00111142
-0.000145162
0.000244304
-0.136597
-0.146168
-0.15182
-0.154004
-0.153761
-0.151875
-0.148927
-0.145194
-0.140965
-0.136507
-0.132381
-0.129424
-0.128151
-0.128353
-0.126609
-0.120014
-0.109089
-0.100886
-0.0971848
-0.0952858
-0.0941317
-0.0946215
-0.095896
-0.0971676
-0.0978893
-0.0977727
-0.0965223
-0.0936917
-0.0893246
-0.0831978
-0.0756091
-0.0667662
-0.0572603
-0.0473965
-0.0378088
-0.0289087
-0.020944
-0.0144145
-0.00910929
-0.00532108
-0.00252906
-0.000720383
0.000304286
0.000769818
0.000595096
-0.12999
-0.137884
-0.142818
-0.144791
-0.144168
-0.141289
-0.136798
-0.131032
-0.124669
-0.118346
-0.113609
-0.112085
-0.115715
-0.125958
-0.133104
-0.126259
-0.107185
-0.0921999
-0.0878666
-0.0914892
-0.0965132
-0.0996578
-0.100949
-0.100895
-0.100068
-0.0986001
-0.0963439
-0.0929291
-0.0880376
-0.0816738
-0.0740295
-0.0652675
-0.0558601
-0.0461278
-0.0366815
-0.0278259
-0.0200234
-0.0134991
-0.00826359
-0.00441069
-0.00159276
9.68097e-05
0.00106186
0.00121534
0.000797851
-0.125342
-0.132574
-0.137233
-0.139122
-0.138215
-0.134821
-0.129458
-0.122765
-0.115498
-0.108567
-0.103668
-0.102318
-0.10785
-0.120597
-0.130419
-0.129043
-0.118388
-0.106214
-0.0979574
-0.0952945
-0.0957883
-0.0970934
-0.0981272
-0.0985234
-0.0981641
-0.0969294
-0.0946336
-0.0910307
-0.0861094
-0.079787
-0.0721964
-0.0635618
-0.0542991
-0.0447858
-0.0355513
-0.0269024
-0.0192988
-0.0128752
-0.00774856
-0.00388277
-0.00115591
0.000529964
0.00141093
0.0014278
0.000981779
-0.184877
-0.18529
-0.185732
-0.186486
-0.187499
-0.18926
-0.19195
-0.195137
-0.197744
-0.198245
-0.195019
-0.187026
-0.173951
-0.156038
-0.134114
-0.109727
-0.0848187
-0.061296
-0.0406609
-0.0238129
-0.0113763
-0.00340545
0.000495765
0.00108571
-0.000758573
-0.00413792
-0.00830771
-0.0127686
-0.0169933
-0.0209631
-0.024542
-0.027613
-0.0301234
-0.0319993
-0.0331718
-0.033645
-0.0333065
-0.0319537
-0.0294941
-0.0259885
-0.0217336
-0.0171075
-0.0122652
-0.00733611
-0.00230898
-0.179629
-0.181585
-0.182386
-0.183977
-0.186151
-0.189187
-0.19304
-0.197234
-0.200747
-0.20206
-0.199554
-0.192288
-0.179795
-0.162072
-0.140046
-0.115257
-0.0898325
-0.065925
-0.0449563
-0.0279095
-0.0151789
-0.00689519
-0.0026928
-0.00177178
-0.00325678
-0.00629629
-0.0101049
-0.0141782
-0.0183702
-0.0221922
-0.0254453
-0.0280801
-0.0302156
-0.0318712
-0.0329589
-0.0334268
-0.0331717
-0.0319611
-0.0295936
-0.0261269
-0.0219276
-0.0172216
-0.0123917
-0.00740261
-0.00235324
-0.188561
-0.187335
-0.186779
-0.186731
-0.188077
-0.191012
-0.195257
-0.199949
-0.203956
-0.205716
-0.203324
-0.196034
-0.183597
-0.166077
-0.144453
-0.120289
-0.0956789
-0.0726175
-0.0525335
-0.0362482
-0.0241903
-0.0164902
-0.0127303
-0.0120329
-0.0134421
-0.0161497
-0.0194702
-0.0228529
-0.0260375
-0.0288323
-0.0308147
-0.0320317
-0.0328193
-0.0333423
-0.0334836
-0.0331587
-0.0322944
-0.0306602
-0.028189
-0.0247213
-0.0207016
-0.0163198
-0.0117592
-0.00718566
-0.0024564
-0.17609
-0.178834
-0.180221
-0.182092
-0.184624
-0.188196
-0.192769
-0.197627
-0.201584
-0.203302
-0.201166
-0.194269
-0.182393
-0.165922
-0.145895
-0.123853
-0.101655
-0.0810565
-0.0633759
-0.0494424
-0.0396367
-0.0338164
-0.0313689
-0.0313572
-0.032817
-0.0349959
-0.0373156
-0.0392304
-0.0405432
-0.0412452
-0.0409591
-0.0398007
-0.0381962
-0.0364468
-0.0344933
-0.0323358
-0.0301115
-0.0275994
-0.024769
-0.0213618
-0.0177252
-0.0139204
-0.00996357
-0.00605692
-0.00211926
-0.212257
-0.19286
-0.189246
-0.186732
-0.186476
-0.188553
-0.191855
-0.195329
-0.197722
-0.197848
-0.194583
-0.187279
-0.175828
-0.160875
-0.14347
-0.124875
-0.106433
-0.0894896
-0.0754136
-0.0652998
-0.0594074
-0.0568823
-0.0566004
-0.0575645
-0.0590489
-0.0605094
-0.0615139
-0.0616759
-0.0606692
-0.05828
-0.0547956
-0.0505365
-0.0457921
-0.0409239
-0.0361117
-0.0315617
-0.0274069
-0.0235485
-0.0199859
-0.0164725
-0.0131543
-0.00993713
-0.00685574
-0.00402574
-0.00140924
)
;

boundaryField
{
    inlet
    {
        type            zeroGradient;
    }
    outlet
    {
        type            fixedValue;
        value           uniform 0;
    }
    upperWall
    {
        type            zeroGradient;
    }
    lowerWall
    {
        type            zeroGradient;
    }
    frontAndBack
    {
        type            empty;
    }
}


// ************************************************************************* //
