/*--------------------------------*- C++ -*----------------------------------*\
  =========                 |
  \\      /  F ield         | OpenFOAM: The Open Source CFD Toolbox
   \\    /   O peration     | Website:  https://openfoam.org
    \\  /    A nd           | Version:  10
     \\/     M anipulation  |
\*---------------------------------------------------------------------------*/
FoamFile
{
    format      ascii;
    class       volScalarField;
    location    "6.275";
    object      p;
}
// * * * * * * * * * * * * * * * * * * * * * * * * * * * * * * * * * * * * * //

dimensions      [0 2 -2 0 0 0 0];

internalField   nonuniform List<scalar> 
400
(
1.23902e-09
-2.05708e-05
2.52108e-05
0.000114017
0.000252205
0.000441333
0.000683529
0.000981121
0.00133565
0.00174707
0.00221262
0.00272557
0.00327381
0.00383854
0.00439335
0.00490485
0.00533464
0.00564422
0.00582446
0.00580681
2.14669e-05
3.48887e-07
5.06346e-05
0.000139644
0.000275316
0.000459985
0.000696291
0.000986931
0.00133381
0.00173733
0.00219533
0.00270172
0.00324482
0.00380745
0.00436337
0.00487905
0.00531484
0.00563111
0.00582055
0.00579827
-3.07879e-05
-5.87393e-05
-1.01068e-05
7.54142e-05
0.000206592
0.000386058
0.000617025
0.000903056
0.0012472
0.0016512
0.00211448
0.00263274
0.00319694
0.00378952
0.0043835
0.00494214
0.00541969
0.00576753
0.00597578
0.00593731
-0.000137747
-0.000170662
-0.000124899
-4.46036e-05
7.99187e-05
0.000251765
0.000475036
0.000754593
0.00109523
0.00150095
0.00197383
0.00251241
0.00310978
0.00375157
0.00440978
0.00504303
0.00559486
0.00600014
0.00624373
0.00618581
-0.000305339
-0.000342889
-0.000301556
-0.00022853
-0.000113142
4.82996e-05
0.000261013
0.000531517
0.000866912
0.0012743
0.00175963
0.00232585
0.00297023
0.00368219
0.0044341
0.00517916
0.00584694
0.00634596
0.00664852
0.00656022
-0.000532795
-0.000575428
-0.00054019
-0.000476912
-0.00037399
-0.000227114
-2.98468e-05
0.000226211
0.000550883
0.00095512
0.00145012
0.00204509
0.00274331
0.00354472
0.0044224
0.0053261
0.00616733
0.00681555
0.00721588
0.00707573
-0.000818043
-0.000866679
-0.000839395
-0.000788965
-0.000702959
-0.000576589
-0.000402305
-0.000169852
0.000133491
0.000523079
0.00101663
0.00163294
0.00238861
0.00328379
0.00431528
0.00543223
0.0065267
0.00741321
0.00798218
0.00775516
-0.00115857
-0.00121441
-0.00119713
-0.00116319
-0.00109959
-0.00100143
-0.000860471
-0.000665052
-0.000399905
-4.54101e-05
0.000422997
0.00103479
0.00182128
0.00280669
0.00400806
0.00539205
0.00684541
0.00811788
0.00899379
0.00863759
-0.00155113
-0.0016155
-0.0016102
-0.00159658
-0.00156145
-0.00150048
-0.00140562
-0.00126485
-0.00106158
-0.00077319
-0.000369287
0.000190407
0.000956954
0.0019875
0.00332112
0.00498574
0.00691398
0.00882092
0.0102582
0.00980935
-0.0019917
-0.00206592
-0.00207395
-0.00208396
-0.00208315
-0.00206865
-0.00203391
-0.00196829
-0.0018564
-0.00167594
-0.00139475
-0.000966965
-0.000327888
0.000607572
0.00193718
0.00375726
0.00617872
0.00907705
0.0115303
0.0112866
-0.00247577
-0.00256094
-0.00258217
-0.00261747
-0.00265525
-0.00269527
-0.00273406
-0.0027647
-0.0027764
-0.00275275
-0.00266909
-0.002488
-0.00215118
-0.00157219
-0.000635398
0.000841872
0.00328994
0.00727557
0.011374
0.0126023
-0.00299934
-0.00309587
-0.00312707
-0.00318612
-0.00326338
-0.00336241
-0.00348458
-0.00362914
-0.0037941
-0.00397586
-0.00416926
-0.00436855
-0.00457077
-0.004795
-0.00512196
-0.00550201
-0.00494547
-0.00091082
0.00539982
0.0104302
-0.00356101
-0.00366867
-0.00370281
-0.00377941
-0.00389081
-0.00404637
-0.00425398
-0.00452109
-0.00485844
-0.00528285
-0.00582298
-0.00653235
-0.00751942
-0.009027
-0.0116394
-0.0157145
-0.0197191
-0.0170152
-0.00910164
0.00127759
-0.0041592
-0.00426902
-0.00428595
-0.00436468
-0.00449967
-0.00470437
-0.00499061
-0.00537482
-0.00588159
-0.00655095
-0.0074535
-0.00872145
-0.010623
-0.0136535
-0.0189992
-0.0271909
-0.0372264
-0.0373463
-0.0290548
-0.013441
-0.00482631
-0.00494936
-0.00493305
-0.00500129
-0.00513219
-0.00535322
-0.00568442
-0.00615074
-0.00678821
-0.00765473
-0.00885179
-0.0105566
-0.0131709
-0.0172894
-0.0245105
-0.035029
-0.0485883
-0.050726
-0.0433635
-0.0250209
-0.00564258
-0.00557082
-0.00544245
-0.00541754
-0.00552336
-0.00576623
-0.00615171
-0.00669486
-0.0074295
-0.00841528
-0.0097629
-0.0116404
-0.0145229
-0.0188419
-0.02638
-0.0366168
-0.0492043
-0.0512189
-0.0450705
-0.0235111
-0.00613558
-0.00656922
-0.00629019
-0.00631418
-0.00632369
-0.00646586
-0.00675741
-0.00723058
-0.00792185
-0.00887932
-0.0102072
-0.0120007
-0.0147357
-0.0186639
-0.0251248
-0.0330514
-0.0418737
-0.0421001
-0.0349468
-0.00527289
-0.00950786
-0.00699872
-0.00639113
-0.00584179
-0.00580066
-0.00601648
-0.00643296
-0.00701605
-0.00778242
-0.00875244
-0.0100514
-0.01166
-0.01408
-0.0173244
-0.0221503
-0.0271317
-0.0319962
-0.0284678
-0.0156003
0.0305202
-0.00623758
-0.00924047
-0.00821213
-0.00826297
-0.00785285
-0.00765664
-0.00764625
-0.00786406
-0.00834139
-0.00906396
-0.0101382
-0.011563
-0.0137848
-0.0166402
-0.0212887
-0.0252743
-0.0281242
-0.015792
0.0120874
0.0909224
-0.0314015
-0.00639269
-0.00493912
-0.00422598
-0.00406298
-0.00432337
-0.00488822
-0.00557998
-0.00646829
-0.00747002
-0.00886787
-0.0104853
-0.0127958
-0.0152925
-0.0178909
-0.0171657
-0.00965901
0.0229393
0.0924458
0.226412
)
;

boundaryField
{
    movingWall
    {
        type            zeroGradient;
    }
    fixedWalls
    {
        type            zeroGradient;
    }
    frontAndBack
    {
        type            empty;
    }
}


// ************************************************************************* //
