/*--------------------------------*- C++ -*----------------------------------*\
  =========                 |
  \\      /  F ield         | OpenFOAM: The Open Source CFD Toolbox
   \\    /   O peration     | Website:  https://openfoam.org
    \\  /    A nd           | Version:  10
     \\/     M anipulation  |
\*---------------------------------------------------------------------------*/
FoamFile
{
    format      ascii;
    class       volVectorField;
    location    "3.15";
    object      U;
}
// * * * * * * * * * * * * * * * * * * * * * * * * * * * * * * * * * * * * * //

dimensions      [0 1 -1 0 0 0 0];

internalField   nonuniform List<vector> 
496
(
(9.97133 0.0553165 0)
(9.95191 -0.104884 0)
(10.1334 -0.157828 0)
(10.793 -0.171658 0)
(9.88043 0.517666 0)
(10.0075 -1.24308 0)
(10.1026 -0.377325 0)
(11.0301 -1.09512 0)
(10.3663 1.41202 0)
(9.63833 -3.09335 0)
(10.9794 -0.247119 0)
(11.241 -4.21642 0)
(11.3844 1.68169 0)
(8.82526 -2.85911 0)
(11.7779 1.07316 0)
(11.0721 -6.87213 0)
(11.4128 -0.246014 2.09962e-18)
(12.2426 -0.18474 5.52795e-19)
(11.6174 -0.47681 -1.59378e-18)
(12.7209 0.148158 3.12982e-18)
(13.1201 -2.22705 -5.0814e-19)
(13.6607 -0.594661 -3.6829e-18)
(11.9848 -5.20579 -4.12119e-17)
(16.5804 -4.62339 6.86143e-17)
(12.7453 -0.193682 0)
(13.1729 -0.204625 0)
(13.2452 -0.104044 0)
(13.3893 -0.060239 0)
(13.23 0.127841 0)
(13.7538 -0.18947 0)
(13.9411 -0.432312 0)
(14.171 -0.551829 0)
(13.2375 0.485598 0)
(13.1685 0.780334 0)
(13.6615 0.515513 0)
(13.8173 0.195272 0)
(8.61754 -2.51822 0)
(10.6485 -1.77469 0)
(6.99636 -0.822095 0)
(8.7636 0.0350171 0)
(13.3174 0.114538 0)
(13.3534 0.133923 0)
(13.2585 0.28536 0)
(13.2046 0.275823 0)
(13.0728 0.34384 0)
(12.9237 0.355841 0)
(12.8545 0.37781 0)
(12.6167 0.387377 0)
(12.5205 0.353664 0)
(12.2059 0.382771 0)
(12.1065 0.298 0)
(11.9047 0.331175 0)
(11.9571 0.270938 0)
(11.9573 0.274763 0)
(11.9383 0.239106 0)
(11.8859 0.239597 0)
(11.6384 0.300875 0)
(11.533 0.291508 0)
(11.2799 0.377701 0)
(11.208 0.298155 0)
(10.9559 0.317783 0)
(10.7548 0.213007 0)
(10.7006 0.176722 0)
(10.6184 0.125892 0)
(10.8808 0.0599247 0)
(10.8493 0.0726407 0)
(11.0908 0.00277022 0)
(11.0055 0.0660067 0)
(11.0642 0.0432168 0)
(11.0648 0.092891 0)
(10.9492 0.123374 0)
(11.0539 0.104522 0)
(10.8154 0.204089 0)
(10.9512 0.141979 0)
(10.7487 0.286744 0)
(10.7287 0.24198 0)
(10.6684 0.380652 0)
(10.3191 0.394247 0)
(10.3677 0.453922 0)
(9.65217 0.553616 0)
(14.1238 -0.391961 0)
(14.1737 -0.352458 0)
(14.0691 -0.143096 0)
(13.9881 -0.17834 0)
(13.8821 -0.0793872 0)
(13.7588 -0.0147406 0)
(13.6686 0.003391 0)
(13.4698 0.0957616 0)
(13.3519 -0.0328734 0)
(13.1017 0.0343201 0)
(12.9684 -0.183632 0)
(12.8695 -0.054894 0)
(12.8645 -0.179454 0)
(12.9277 -0.124463 0)
(12.9413 -0.130399 0)
(12.9996 -0.0953264 0)
(12.8639 0.114489 0)
(12.7955 0.0572024 0)
(12.6344 0.228873 0)
(12.5142 0.0401428 0)
(12.3634 0.0684803 0)
(12.1857 -0.0620572 0)
(12.1536 -0.144704 0)
(12.1689 -0.100628 0)
(12.3011 -0.254244 0)
(12.4381 -0.0871268 0)
(12.5106 -0.224672 0)
(12.6494 -0.0400066 0)
(12.5818 -0.105583 0)
(12.7337 0.00357522 0)
(12.5985 -0.0192294 0)
(12.7426 -0.0335299 0)
(12.6443 -0.0255879 0)
(12.7016 -0.105842 0)
(12.7318 -0.0391341 0)
(12.6421 -0.0957663 0)
(12.7565 0.0881528 0)
(12.4223 0.0647347 0)
(12.4319 0.307005 0)
(11.8785 0.235513 0)
(14.218 0.175709 0)
(14.1593 0.253437 0)
(14.2385 0.360319 0)
(13.9591 0.152975 0)
(13.9714 0.346947 0)
(14.0306 0.433038 0)
(13.8123 0.540768 0)
(13.9255 0.738612 0)
(13.5146 0.612691 0)
(13.5602 0.715825 0)
(13.2232 0.410283 0)
(13.2981 0.456724 0)
(13.1866 0.159239 0)
(13.0925 0.0665742 0)
(13.3533 0.0843061 0)
(13.1531 0.0411479 0)
(13.6071 0.433416 0)
(13.1645 0.360944 0)
(13.5759 0.765766 0)
(13.1305 0.592126 0)
(13.3503 0.648025 0)
(13.1242 0.393896 0)
(13.0066 0.00615155 0)
(13.1582 -0.0181475 0)
(12.7473 -0.443811 0)
(13.1411 -0.157403 0)
(12.6499 -0.408928 0)
(12.8991 -0.0989091 0)
(12.6395 -0.0731847 0)
(12.5935 -0.0319663 0)
(12.6809 0.251357 0)
(12.4192 -0.0439278 0)
(12.7798 0.364707 0)
(12.3945 -0.0641654 0)
(13.0145 0.297092 0)
(12.6559 0.105312 0)
(13.408 0.310123 0)
(13.158 0.513575 0)
(13.712 0.652265 0)
(13.5711 0.983294 0)
(8.00112 0.0862948 0)
(9.83612 0.37046 0)
(9.19242 -0.484044 0)
(7.87268 -0.151711 0)
(9.78979 0.0532471 0)
(8.9799 -0.122878 0)
(9.90474 0.171863 0)
(9.53846 0.264503 0)
(9.83319 0.367311 0)
(9.81929 0.372013 0)
(9.36908 0.389566 0)
(9.80198 0.282043 0)
(8.73492 0.139137 0)
(9.55118 -0.0125212 0)
(8.94861 -0.177659 0)
(9.7821 -0.147023 0)
(10.0045 -0.0833733 0)
(10.1664 0.0478716 0)
(11.043 0.180788 0)
(10.5246 0.173998 0)
(11.3729 0.21444 0)
(10.1865 0.120064 0)
(10.1846 0.214185 0)
(9.28089 0.192079 0)
(8.21398 0.242681 0)
(8.34335 0.252748 0)
(6.89842 0.0929492 0)
(7.71842 0.219342 0)
(6.89091 0.0587166 0)
(7.18188 0.0802411 0)
(7.54177 0.131366 0)
(7.07609 -0.0474537 0)
(8.12751 0.0206982 0)
(7.52075 -0.290212 0)
(8.69802 -0.11972 0)
(8.69534 -0.489391 0)
(9.45885 -0.245349 0)
(10.3202 -0.152536 0)
(10.6223 0.0154398 0)
(11.6666 0.493886 0)
(12.8854 0.448845 -1.01414e-17)
(7.33087 -0.704718 -1.71943e-17)
(12.3041 -0.262509 3.00144e-17)
(4.31335 -4.61167 -8.16112e-17)
(11.894 -0.621114 1.02829e-17)
(8.30812 0.831583 1.75635e-17)
(10.9933 -0.107066 -3.0562e-17)
(5.21089 4.58498 8.30258e-17)
(-4.99782 1.5918 0)
(5.44849 4.2112 0)
(-9.72834 -1.57133 0)
(3.135 -2.69419 0)
(-0.734843 -2.37493 3.37265e-17)
(-3.38285 3.48841 0)
(7.71185 -1.9491 0)
(-1.94965 -2.45304 0)
(-1.77428 0.129969 0)
(2.2468 2.61648 0)
(-2.81492 -1.96617 0)
(1.00413 -0.521555 0)
(1.18331 1.36795 0)
(-1.76268 0.0177136 0)
(0.051028 -0.00644892 0)
(0.80625 0.340213 0)
(0.547142 0.601122 0)
(0.939872 0.828627 0)
(1.233 0.699763 0)
(1.06398 0.461103 0)
(1.58435 0.0416829 0)
(1.91676 -0.32426 0)
(2.28669 -0.463838 0)
(2.86943 -0.492631 0)
(3.20919 -0.298703 0)
(3.15023 -0.234181 0)
(3.68141 0.138797 0)
(3.60807 0.489362 0)
(3.24533 0.676882 0)
(3.22511 0.947509 0)
(2.6987 0.965396 0)
(2.57002 1.05035 0)
(2.5137 0.69426 0)
(2.19582 0.542136 0)
(2.4698 0.294078 0)
(2.73037 0.112066 0)
(2.57047 -0.0556227 0)
(3.1005 -0.172703 0)
(3.37636 -0.139631 0)
(3.60343 -0.319669 0)
(3.77432 -0.488417 0)
(4.35338 -0.676892 0)
(4.82623 -0.727485 0)
(4.70873 -1.08893 0)
(6.11738 -0.984944 0)
(6.08638 -0.825113 0)
(6.94063 -0.746266 0)
(7.60666 -0.0620573 0)
(-1.59248 0.958805 0)
(0.184803 -0.0628003 0)
(1.65999 -0.252716 0)
(-1.8173 -1.56675 0)
(0.111658 1.348 0)
(0.541917 0.0422585 0)
(0.810585 -1.22639 0)
(0.611462 -0.420753 0)
(0.228494 0.191244 0)
(1.34791 -0.013066 0)
(1.67547 -0.126922 0)
(2.33454 -0.261827 0)
(2.43002 -0.511702 0)
(2.54396 -0.642911 0)
(2.50497 -0.787565 0)
(2.80734 -0.844412 0)
(2.6325 -0.543206 0)
(2.80309 -0.202564 0)
(2.76416 0.20643 0)
(3.07261 0.527072 0)
(3.05142 0.843349 0)
(3.40232 0.890498 0)
(3.36057 0.938288 0)
(3.90621 0.731899 0)
(4.22755 0.32651 0)
(4.07872 0.220887 0)
(4.92854 -0.184798 0)
(4.75885 -0.413461 0)
(5.12714 -0.431216 0)
(5.32227 -0.603959 0)
(5.56924 -0.674222 0)
(5.56412 -0.740937 0)
(5.61966 -0.781459 0)
(5.65989 -1.13131 0)
(5.44345 -1.20541 0)
(5.26323 -1.56713 0)
(4.91172 -1.39282 0)
(5.04408 -1.28871 0)
(4.75917 -0.931147 0)
(5.04534 0.0437403 0)
(12.4364 -1.43414 0)
(7.67511 2.45339 0)
(13.4544 -0.587189 0)
(9.46581 6.3522 0)
(11.1348 -1.31317 0)
(8.759 2.82498 0)
(11.4601 0.0735704 0)
(10.4154 4.01487 0)
(10.1451 -0.493491 0)
(9.72514 1.30241 0)
(10.3614 0.318027 0)
(10.7884 1.23365 0)
(9.96301 -0.0924833 0)
(9.93559 0.241299 0)
(10.2461 0.0988412 0)
(10.802 0.263718 0)
(13.8363 5.43226 3.3816e-17)
(14.7247 4.3734 -6.29038e-17)
(13.0119 1.99322 0)
(12.781 0.609257 0)
(11.7118 0.507067 0)
(12.4373 0.0231881 0)
(11.5216 0.202891 0)
(12.1974 0.211619 0)
(12.1674 2.98034 0)
(9.82892 1.92457 0)
(9.22175 0.234989 0)
(11.3661 0.655702 0)
(12.5575 -0.828729 0)
(12.6872 -0.480265 0)
(13.1154 -0.395998 0)
(13.7146 -0.576493 0)
(13.1052 0.0285927 0)
(13.5313 0.346874 0)
(13.847 0.565496 0)
(13.9989 0.465294 0)
(12.8248 0.193102 0)
(13.1338 0.131616 0)
(13.3948 0.102997 0)
(13.4152 -0.084907 0)
(9.62611 0.486231 0)
(10.477 0.25961 0)
(9.06484 0.26949 0)
(10.549 0.207695 0)
(9.32001 0.144016 0)
(9.55786 -0.000574056 0)
(9.31967 -0.180836 0)
(10.0411 -0.0961858 0)
(9.53136 0.0253361 0)
(9.65392 0.0318145 0)
(10.0055 -0.0257732 0)
(10.1117 -0.174742 0)
(10.7328 -0.255491 0)
(10.3992 -0.398965 0)
(10.7262 -0.40803 0)
(9.94705 -0.328261 0)
(9.79607 -0.294721 0)
(9.36024 -0.170453 0)
(8.85496 -0.0855184 0)
(9.04331 0.179102 0)
(8.49372 0.401455 0)
(9.26619 0.529393 0)
(9.25484 0.612062 0)
(9.84901 0.472202 0)
(10.5763 0.280818 0)
(10.6523 0.123579 0)
(11.7079 -0.139101 0)
(11.6169 -0.236074 0)
(12.5219 -0.353597 0)
(12.5625 -0.36076 0)
(13.0493 -0.365772 0)
(13.5237 -0.310491 0)
(13.2895 -0.183836 0)
(14.0793 -0.0785965 0)
(12.8192 0.0857581 0)
(13.0395 0.0407812 0)
(10.699 -0.058451 0)
(9.9043 -0.281378 0)
(8.25565 -0.56209 0)
(7.3632 -0.182502 0)
(13.6636 -0.47592 0)
(13.8188 -0.544457 0)
(13.6414 -0.303118 0)
(13.54 -0.411334 0)
(13.5436 -0.282737 0)
(13.3706 -0.284529 0)
(13.5346 -0.287824 0)
(13.402 -0.317844 0)
(13.619 -0.422417 0)
(13.3413 -0.326808 0)
(13.5115 -0.553501 0)
(13.3089 -0.570231 0)
(13.317 -0.888619 0)
(13.0258 -0.823062 0)
(12.8857 -0.824887 0)
(12.8097 -0.575892 0)
(12.5781 -0.195593 0)
(12.5809 0.0138415 0)
(12.3658 0.39088 0)
(12.5934 0.305997 0)
(12.6531 0.503819 0)
(12.8749 0.339283 0)
(13.1422 0.193152 0)
(13.1393 0.0259892 0)
(13.5705 -0.493025 0)
(13.34 -0.520029 0)
(13.5943 -1.05877 0)
(13.1281 -0.900641 0)
(13.0408 -1.21595 0)
(12.5373 -1.07588 0)
(12.1125 -1.05601 0)
(11.8875 -1.14948 0)
(11.1805 -0.800593 0)
(11.3805 -0.950906 0)
(10.6653 -0.304456 0)
(11.1936 -0.143021 0)
(10.8413 0.44018 0)
(11.1482 0.628707 0)
(11.1293 0.758953 0)
(10.9961 0.588408 0)
(14.0272 0.464899 0)
(14.0009 0.29025 0)
(13.8793 0.297628 0)
(13.8064 0.224686 0)
(13.6423 0.239988 0)
(13.6345 0.210196 0)
(13.5505 0.155266 0)
(13.609 0.158915 0)
(13.5594 0.0145635 0)
(13.4977 0.073029 0)
(13.329 -0.0557792 0)
(13.1549 -0.0161546 0)
(13.0327 -0.127366 0)
(12.8274 -0.0226557 0)
(12.6645 0.0726053 0)
(12.4469 0.105605 0)
(12.3646 0.284304 0)
(12.3645 0.249134 0)
(12.4381 0.484334 0)
(12.6733 0.344723 0)
(12.8638 0.453088 0)
(13.1352 0.293015 0)
(13.231 0.209451 0)
(13.3018 0.100989 0)
(13.2593 -0.131999 0)
(13.1054 -0.109976 0)
(13.0234 -0.267176 0)
(12.6799 -0.053421 0)
(12.5822 -0.113075 0)
(12.1702 0.0865792 0)
(12.0915 0.08826 0)
(11.7783 0.108397 0)
(11.6181 0.211412 0)
(11.4165 0.0834269 0)
(11.1822 0.29759 0)
(11.2244 0.174213 0)
(11.1558 0.251435 0)
(11.4633 0.210571 0)
(11.4894 0.114574 0)
(11.8488 0.126078 0)
(13.4765 -0.12131 0)
(13.4057 -0.311757 0)
(13.358 -0.283263 0)
(13.2386 -0.399469 0)
(13.1044 -0.342009 0)
(13.0279 -0.376331 0)
(12.9077 -0.360803 0)
(12.8971 -0.344775 0)
(12.7686 -0.416577 0)
(12.7099 -0.368918 0)
(12.4531 -0.460029 0)
(12.2597 -0.369656 0)
(12.0381 -0.473492 0)
(11.8008 -0.410375 0)
(11.6182 -0.462214 0)
(11.3943 -0.412609 0)
(11.4076 -0.314489 0)
(11.2655 -0.272732 0)
(11.4228 -0.15502 0)
(11.5259 -0.18757 0)
(11.8165 -0.111372 0)
(11.9809 -0.143547 0)
(12.0121 -0.157477 0)
(12.0126 -0.192478 0)
(11.8133 -0.307224 0)
(11.7545 -0.292338 0)
(11.4389 -0.416853 0)
(11.1887 -0.380646 0)
(10.8707 -0.483774 0)
(10.4921 -0.457606 0)
(10.418 -0.456273 0)
(10.0029 -0.457546 0)
(10.1356 -0.354752 0)
(9.75293 -0.358767 0)
(9.91189 -0.193145 0)
(9.79076 -0.178746 0)
(9.95182 -0.0143214 0)
(10.1196 -0.00312816 0)
(10.1776 0.0954506 0)
(10.4148 0.0806123 0)
)
;

boundaryField
{
    inlet
    {
        type            fixedValue;
        value           uniform (10 0 0);
    }
    outlet
    {
        type            zeroGradient;
    }
    obstacle
    {
        type            noSlip;
    }
    upperWall
    {
        type            noSlip;
    }
    lowerWall
    {
        type            noSlip;
    }
    frontAndBack
    {
        type            empty;
    }
}


// ************************************************************************* //
