/*--------------------------------*- C++ -*----------------------------------*\
  =========                 |
  \\      /  F ield         | OpenFOAM: The Open Source CFD Toolbox
   \\    /   O peration     | Website:  https://openfoam.org
    \\  /    A nd           | Version:  10
     \\/     M anipulation  |
\*---------------------------------------------------------------------------*/
FoamFile
{
    format      ascii;
    class       volVectorField;
    location    "9.55";
    object      U;
}
// * * * * * * * * * * * * * * * * * * * * * * * * * * * * * * * * * * * * * //

dimensions      [0 1 -1 0 0 0 0];

internalField   nonuniform List<vector> 
400
(
(-0.000171777 0.000146692 0)
(-0.00130158 0.000477616 0)
(-0.0032193 0.000597982 0)
(-0.00519686 0.000640359 0)
(-0.00726239 0.000667131 0)
(-0.00938003 0.000698311 0)
(-0.0115418 0.000733185 0)
(-0.0137281 0.000762946 0)
(-0.0158894 0.000774216 0)
(-0.0179376 0.000748392 0)
(-0.0197358 0.00066159 0)
(-0.0210895 0.000487323 0)
(-0.0217484 0.000203162 0)
(-0.0214193 -0.000212444 0)
(-0.0198256 -0.000734601 0)
(-0.0168158 -0.00128363 0)
(-0.0125398 -0.00170306 0)
(-0.00761074 -0.0017897 0)
(-0.00264846 -0.0013691 0)
(-0.000103956 -0.000321976 0)
(-0.000573566 0.00133256 0)
(-0.00298356 0.00278617 0)
(-0.00668403 0.00333945 0)
(-0.0105062 0.00354388 0)
(-0.0144593 0.00364139 0)
(-0.018454 0.0037106 0)
(-0.022442 0.0037503 0)
(-0.0263596 0.00372494 0)
(-0.0300994 0.00357939 0)
(-0.0334964 0.00324078 0)
(-0.0363154 0.00262219 0)
(-0.038243 0.00163185 0)
(-0.0389106 0.000191343 0)
(-0.0378972 -0.00171477 0)
(-0.0348111 -0.00396224 0)
(-0.0294637 -0.00622392 0)
(-0.0221092 -0.00790707 0)
(-0.0136882 -0.00823838 0)
(-0.00524226 -0.00655935 0)
(-0.000564012 -0.00238563 0)
(-0.000758906 0.0034966 0)
(-0.00378756 0.0066012 0)
(-0.00834387 0.0077842 0)
(-0.0130188 0.00821187 0)
(-0.0178236 0.00837774 0)
(-0.0226486 0.00844161 0)
(-0.027434 0.00840477 0)
(-0.0321066 0.00819878 0)
(-0.0365482 0.0077154 0)
(-0.0405795 0.00681293 0)
(-0.0439453 0.00532384 0)
(-0.0463061 0.00307489 0)
(-0.0472293 -7.31836e-05 0)
(-0.0461891 -0.00413081 0)
(-0.0426556 -0.00888113 0)
(-0.0362712 -0.013674 0)
(-0.0271925 -0.0172929 0)
(-0.0165613 -0.0180204 0)
(-0.00594594 -0.0143944 0)
(-0.000449857 -0.00563205 0)
(-0.000821936 0.00583126 0)
(-0.00411175 0.0107166 0)
(-0.00904829 0.0125503 0)
(-0.0140955 0.0131903 0)
(-0.0192811 0.0134134 0)
(-0.0244988 0.0134684 0)
(-0.0297029 0.0133623 0)
(-0.0348394 0.0129978 0)
(-0.039815 0.012217 0)
(-0.0444762 0.0108083 0)
(-0.0485842 0.0085121 0)
(-0.0517889 0.00504611 0)
(-0.0536003 0.000170889 0)
(-0.0533641 -0.00620367 0)
(-0.0502699 -0.013857 0)
(-0.0435274 -0.0218503 0)
(-0.0328545 -0.0281733 0)
(-0.0194607 -0.0295848 0)
(-0.00595259 -0.0231796 0)
(0.000103283 -0.00854493 0)
(-0.000822746 0.00826683 0)
(-0.00418823 0.0150313 0)
(-0.00926838 0.0175491 0)
(-0.0144683 0.0184184 0)
(-0.0198355 0.0187234 0)
(-0.0252822 0.0188131 0)
(-0.0307948 0.0187084 0)
(-0.0363621 0.0182904 0)
(-0.0419438 0.0173563 0)
(-0.0474473 0.0156236 0)
(-0.0526895 0.0127248 0)
(-0.0573408 0.00822187 0)
(-0.0608618 0.00167608 0)
(-0.0624519 -0.00721955 0)
(-0.06091 -0.0184283 0)
(-0.0546779 -0.0308782 0)
(-0.0423828 -0.041593 0)
(-0.024733 -0.0446798 0)
(-0.00604909 -0.0340121 0)
(0.00108134 -0.011064 0)
(-0.000793183 0.0106974 0)
(-0.00413997 0.0193969 0)
(-0.00924521 0.0226319 0)
(-0.014493 0.0237602 0)
(-0.0199488 0.0241939 0)
(-0.0255521 0.0243971 0)
(-0.0313346 0.0244184 0)
(-0.0373472 0.0241311 0)
(-0.0436305 0.0233007 0)
(-0.0501933 0.0215801 0)
(-0.056968 0.018485 0)
(-0.0637282 0.0133798 0)
(-0.0699902 0.00550884 0)
(-0.0749263 -0.00587816 0)
(-0.0769233 -0.0212187 0)
(-0.0731497 -0.0399559 0)
(-0.0598537 -0.0583096 0)
(-0.0359907 -0.0657926 0)
(-0.00810186 -0.0487718 0)
(0.00237915 -0.0131459 0)
(-0.000745848 0.0130643 0)
(-0.00401962 0.0237275 0)
(-0.0090797 0.0277112 0)
(-0.0143068 0.0291328 0)
(-0.0197808 0.029751 0)
(-0.0254713 0.0301632 0)
(-0.0314626 0.0304648 0)
(-0.0378837 0.0305455 0)
(-0.0448851 0.0301672 0)
(-0.0526286 0.0289463 0)
(-0.0612536 0.0263041 0)
(-0.0708071 0.0214145 0)
(-0.0811305 0.0131569 0)
(-0.0916147 8.84913e-05 0)
(-0.100427 -0.0194973 0)
(-0.102608 -0.0470023 0)
(-0.0898326 -0.0787201 0)
(-0.058701 -0.0964213 0)
(-0.0178906 -0.0718278 0)
(0.00296649 -0.0166556 0)
(-0.000684486 0.0153314 0)
(-0.00384555 0.0279703 0)
(-0.00880495 0.0327276 0)
(-0.013944 0.0344691 0)
(-0.019351 0.0353186 0)
(-0.0250226 0.0360288 0)
(-0.0310954 0.0367667 0)
(-0.0377823 0.0374717 0)
(-0.0453666 0.0379502 0)
(-0.054215 0.0378517 0)
(-0.0647805 0.0365995 0)
(-0.0776053 0.0333037 0)
(-0.0932894 0.0265971 0)
(-0.112039 0.0140071 0)
(-0.131601 -0.00921283 0)
(-0.142938 -0.0489501 0)
(-0.132026 -0.102281 0)
(-0.0965774 -0.137901 0)
(-0.0454696 -0.109939 0)
(-0.000463998 -0.028338 0)
(-0.000611649 0.0174691 0)
(-0.00362866 0.032081 0)
(-0.00843656 0.0376216 0)
(-0.0134104 0.0396869 0)
(-0.0186381 0.0407857 0)
(-0.0241335 0.0418497 0)
(-0.0300755 0.0431459 0)
(-0.0367514 0.0447043 0)
(-0.0445716 0.0464422 0)
(-0.0541255 0.0481561 0)
(-0.0662583 0.0494633 0)
(-0.0821892 0.049692 0)
(-0.103655 0.0474166 0)
(-0.131892 0.0383592 0)
(-0.162784 0.0120455 0)
(-0.181857 -0.0451996 0)
(-0.174164 -0.126965 0)
(-0.143421 -0.184392 0)
(-0.0915331 -0.166713 0)
(-0.0134182 -0.060107 0)
(-0.000533421 0.019456 0)
(-0.00338964 0.0360235 0)
(-0.00800471 0.0423316 0)
(-0.0127295 0.0446876 0)
(-0.0176415 0.0460038 0)
(-0.0227561 0.0474144 0)
(-0.028271 0.0493131 0)
(-0.0345157 0.0518625 0)
(-0.0419816 0.0551667 0)
(-0.0514183 0.0593095 0)
(-0.0639722 0.0643433 0)
(-0.0813567 0.0700639 0)
(-0.10607 0.074728 0)
(-0.13951 0.0707335 0)
(-0.175265 0.0397265 0)
(-0.195567 -0.0370173 0)
(-0.191908 -0.145376 0)
(-0.172474 -0.226992 0)
(-0.1294 -0.238971 0)
(-0.0358326 -0.127603 0)
(-0.000462292 0.0212882 0)
(-0.00316928 0.0397757 0)
(-0.00757317 0.0467912 0)
(-0.0119704 0.0493482 0)
(-0.0164219 0.0507797 0)
(-0.0209222 0.0524383 0)
(-0.0256548 0.0548557 0)
(-0.0309321 0.0583473 0)
(-0.0372227 0.0632494 0)
(-0.0452546 0.0700216 0)
(-0.0561596 0.0792687 0)
(-0.071491 0.0911735 0)
(-0.0930969 0.102815 0)
(-0.121595 0.102215 0)
(-0.150096 0.0653373 0)
(-0.164911 -0.0259976 0)
(-0.165187 -0.151043 0)
(-0.156185 -0.256893 0)
(-0.132217 -0.310345 0)
(-0.0500669 -0.231285 0)
(-0.000423946 0.0230062 0)
(-0.00304857 0.0433842 0)
(-0.00726554 0.0510135 0)
(-0.0112727 0.0536234 0)
(-0.0151277 0.0549823 0)
(-0.0187889 0.0566725 0)
(-0.0223943 0.0593565 0)
(-0.0261704 0.063479 0)
(-0.0304339 0.0695699 0)
(-0.0356357 0.0783784 0)
(-0.0424087 0.0908467 0)
(-0.0514275 0.107132 0)
(-0.0632173 0.122908 0)
(-0.078069 0.123034 0)
(-0.0921561 0.0820393 0)
(-0.0988718 -0.0162808 0)
(-0.103178 -0.144452 0)
(-0.105486 -0.262383 0)
(-0.107562 -0.350948 0)
(-0.0431142 -0.324462 0)
(-0.000449802 0.0246639 0)
(-0.00311693 0.0467999 0)
(-0.00723544 0.0547846 0)
(-0.0108456 0.0571845 0)
(-0.0140213 0.058229 0)
(-0.0166734 0.0596816 0)
(-0.0188913 0.0622693 0)
(-0.0207833 0.0664942 0)
(-0.0224453 0.0729469 0)
(-0.0239415 0.082421 0)
(-0.0252547 0.0958213 0)
(-0.0261023 0.113034 0)
(-0.026102 0.129349 0)
(-0.0255997 0.12912 0)
(-0.0258782 0.0883705 0)
(-0.026757 -0.0095211 0)
(-0.0383162 -0.130293 0)
(-0.0523398 -0.248417 0)
(-0.0776742 -0.363518 0)
(-0.0295887 -0.387043 0)
(-0.000652218 0.0266034 0)
(-0.00368878 0.0506921 0)
(-0.00784975 0.0589471 0)
(-0.0109797 0.0609072 0)
(-0.0133456 0.06122 0)
(-0.0148804 0.0619159 0)
(-0.0156155 0.0637992 0)
(-0.0155311 0.0673734 0)
(-0.0145308 0.0731678 0)
(-0.012346 0.0818112 0)
(-0.00847765 0.0939182 0)
(-0.00196635 0.109131 0)
(0.00773236 0.123407 0)
(0.0206516 0.122857 0)
(0.0293134 0.0864344 0)
(0.0334436 -0.00222298 0)
(0.0143064 -0.111064 0)
(-0.00836244 -0.22158 0)
(-0.0544601 -0.359742 0)
(-0.0196559 -0.433478 0)
(-0.000992047 0.0290221 0)
(-0.0044373 0.053733 0)
(-0.00900575 0.061176 0)
(-0.0119571 0.0619089 0)
(-0.0137483 0.0613555 0)
(-0.0142126 0.0613703 0)
(-0.0134572 0.0625682 0)
(-0.0114407 0.0652695 0)
(-0.00798946 0.0698391 0)
(-0.0026887 0.0766076 0)
(0.00515627 0.0859852 0)
(0.0167689 0.097274 0)
(0.0322301 0.107398 0)
(0.0520371 0.10609 0)
(0.0660557 0.076777 0)
(0.0741326 0.00568498 0)
(0.0502161 -0.0861047 0)
(0.0257312 -0.183175 0)
(-0.0379821 -0.34171 0)
(-0.00903002 -0.465507 0)
(-0.00307971 0.0309007 0)
(-0.00889119 0.0603291 0)
(-0.0127329 0.067604 0)
(-0.0145498 0.0676545 0)
(-0.0148393 0.0652077 0)
(-0.0139353 0.0631934 0)
(-0.0118154 0.0623401 0)
(-0.00828868 0.062945 0)
(-0.00310451 0.0652204 0)
(0.00435734 0.0692509 0)
(0.0146563 0.0751999 0)
(0.0287542 0.0821773 0)
(0.0462357 0.087897 0)
(0.0682774 0.0855736 0)
(0.0835995 0.0645954 0)
(0.0945844 0.0133054 0)
(0.0690025 -0.0571293 0)
(0.0458752 -0.140334 0)
(-0.0280041 -0.321655 0)
(0.00192172 -0.489419 0)
(-0.000907235 0.0441084 0)
(-0.00730857 0.0613759 0)
(-0.0162007 0.0642796 0)
(-0.017913 0.0606412 0)
(-0.0184082 0.0576338 0)
(-0.0166209 0.0556501 0)
(-0.0133 0.0547116 0)
(-0.00830003 0.0547097 0)
(-0.00147982 0.0557034 0)
(0.00772403 0.0577062 0)
(0.0196605 0.0607827 0)
(0.0349775 0.0642411 0)
(0.0525878 0.066697 0)
(0.0745668 0.0638968 0)
(0.0888531 0.0498701 0)
(0.101555 0.0167358 0)
(0.0767207 -0.0331071 0)
(0.0612727 -0.101347 0)
(-0.0106046 -0.299448 0)
(0.0203851 -0.499202 0)
(-0.0125803 0.0321555 0)
(-0.0229168 0.0806875 0)
(-0.0202797 0.0810656 0)
(-0.0238546 0.0761942 0)
(-0.0229488 0.0687661 0)
(-0.0202182 0.0626444 0)
(-0.0153731 0.0578119 0)
(-0.00857333 0.0541564 0)
(0.000120862 0.0516774 0)
(0.0111198 0.0501349 0)
(0.0242893 0.0496211 0)
(0.0402596 0.0494093 0)
(0.0569762 0.0496948 0)
(0.0777428 0.0474621 0)
(0.0895258 0.0410945 0)
(0.105374 0.0245372 0)
(0.0877361 -0.00637208 0)
(0.0968716 -0.0626801 0)
(0.0387392 -0.272492 0)
(0.0567318 -0.488229 0)
(-0.0777007 0.0957128 0)
(-0.0632126 0.0587211 0)
(-0.0649399 0.0600688 0)
(-0.0420566 0.0534773 0)
(-0.0239342 0.0464845 0)
(-0.0029738 0.0413084 0)
(0.0168127 0.0375456 0)
(0.037024 0.0343714 0)
(0.0558084 0.0320882 0)
(0.0763035 0.0300235 0)
(0.0941302 0.0288816 0)
(0.116867 0.027685 0)
(0.132603 0.0268286 0)
(0.160844 0.0253366 0)
(0.169859 0.0196681 0)
(0.202292 0.0106685 0)
(0.188832 -0.0216175 0)
(0.221048 -0.0733371 0)
(0.153556 -0.251386 0)
(0.124451 -0.432497 0)
(0.119325 0.140698 0)
(0.151809 0.0859602 0)
(0.22821 0.0634101 0)
(0.283698 0.0479852 0)
(0.32519 0.0373886 0)
(0.363553 0.0296479 0)
(0.392354 0.0242607 0)
(0.42362 0.0201994 0)
(0.443682 0.0173275 0)
(0.472294 0.0150057 0)
(0.485254 0.0133321 0)
(0.514601 0.0119265 0)
(0.520123 0.0108115 0)
(0.552121 0.00944316 0)
(0.546794 0.00742438 0)
(0.578335 0.00295227 0)
(0.546245 -0.00581231 0)
(0.551903 -0.0267831 0)
(0.419073 -0.072918 0)
(0.274677 -0.151564 0)
)
;

boundaryField
{
    movingWall
    {
        type            fixedValue;
        value           uniform (1 0 0);
    }
    fixedWalls
    {
        type            noSlip;
    }
    frontAndBack
    {
        type            empty;
    }
}


// ************************************************************************* //
