/*--------------------------------*- C++ -*----------------------------------*\
  =========                 |
  \\      /  F ield         | OpenFOAM: The Open Source CFD Toolbox
   \\    /   O peration     | Website:  https://openfoam.org
    \\  /    A nd           | Version:  10
     \\/     M anipulation  |
\*---------------------------------------------------------------------------*/
FoamFile
{
    format      ascii;
    class       volScalarField;
    location    "1";
    object      p;
}
// * * * * * * * * * * * * * * * * * * * * * * * * * * * * * * * * * * * * * //

dimensions      [0 2 -2 0 0 0 0];

internalField   nonuniform List<scalar> 
496
(
27.9481
27.9545
24.4451
18.2519
28.9425
29.0912
24.7291
18.329
33.9132
31.4429
23.309
12.9068
40.9594
38.2803
35.0022
20.1718
9.58939
0.00931758
9.34704
0.0341326
-2.04663
-7.41437
-28.6074
-54.1969
-7.65479
-12.8749
-15.9358
-17.5646
-8.15383
-14.3769
-18.4163
-20.5652
-2.7721
-5.64355
-13.0314
-18.1013
-24.5658
-11.7641
-18.3314
-20.8142
-18.4019
-18.784
-18.7716
-18.4358
-17.7726
-16.9108
-15.8301
-14.5269
-13.0338
-11.4582
-9.91329
-8.52472
-7.36542
-6.46235
-5.76019
-5.03537
-4.17878
-3.32717
-2.72727
-2.37669
-2.0565
-1.65269
-1.15662
-0.555874
0.182265
0.828373
1.21885
1.23398
1.069
0.85096
0.560356
0.0833968
-0.459162
-0.831177
-1.02786
-1.03558
-1.00014
-0.886379
-0.640997
-0.23107
-21.3355
-21.0914
-20.2239
-19.1189
-18.0924
-17.1116
-16.0264
-14.6557
-13.1023
-11.5242
-10.0306
-8.63947
-7.38878
-6.31889
-5.39007
-4.6466
-4.02765
-3.37086
-2.78254
-2.39821
-2.08498
-1.71298
-1.23267
-0.61254
0.272715
0.956923
1.42431
1.46866
1.20646
0.886408
0.488637
0.0690183
-0.534449
-0.883995
-1.0609
-1.04453
-1.03512
-0.991333
-0.828494
-0.520595
-20.7706
-21.2915
-20.6607
-19.6194
-18.7407
-17.9477
-16.8241
-15.2585
-13.4347
-11.5466
-9.7528
-8.13392
-6.84337
-5.94898
-5.4078
-4.94926
-4.45818
-4.13376
-3.77316
-3.21613
-2.42933
-1.57473
-0.785166
-0.00754694
0.714422
1.30026
1.76799
1.62579
1.07584
0.423628
-0.188893
-0.823236
-1.31386
-1.6499
-1.78256
-1.6164
-1.33256
-0.950133
-0.526313
-0.094523
-19.2963
-20.0103
-20.1217
-19.7776
-19.4672
-19.0684
-17.9044
-16.3047
-14.3137
-12.2759
-10.1185
-7.86733
-5.80941
-4.27174
-3.45225
-3.42872
-3.72179
-4.06348
-4.18362
-3.98253
-3.31615
-2.35132
-1.08242
0.521131
2.11592
3.46692
3.61742
3.30481
2.2061
1.08112
0.0517797
-0.996403
-1.68498
-2.30006
-2.34212
-2.24073
-1.96155
-1.49273
-1.18771
-0.418413
45.1754
47.318
61.3035
73.8554
44.9171
46.2054
60.6098
72.6262
-28.7453
-39.9569
-30.2968
-16.5888
-31.3928
-33.7347
-27.3914
-32.3626
-26.9759
-23.3997
-20.6407
-20.0766
-20.6722
-18.7928
-17.3445
-16.2166
-13.9675
-12.2051
-10.4269
-8.65979
-7.08502
-5.79248
-4.8973
-4.11422
-3.71003
-3.54799
-3.46558
-3.16697
-2.45009
-1.56078
-0.603606
0.263174
0.930203
1.43051
1.51889
1.16733
0.940515
0.376743
-0.224093
-0.746138
-1.13707
-1.47177
-1.55579
-1.63452
-1.3746
-1.05125
-0.689828
-0.170912
-23.446
-19.7207
-21.0729
-20.9036
-19.2802
-17.6877
-15.6602
-15.1533
-12.8994
-11.6318
-10.5351
-9.62386
-8.78983
-7.841
-6.67755
-5.28475
-3.82142
-2.45273
-1.34442
-0.424262
-0.217082
0.126992
0.215437
0.138348
-0.0050141
-0.137168
-0.269309
-0.458244
-0.544457
-0.689079
-0.737015
-0.662618
-0.439912
-0.202605
-0.107029
0.0101504
-0.0816492
-0.0931252
-0.0121581
-0.00581361
39.876
36.57
32.7292
16.579
31.6226
29.2896
20.5982
9.98508
26.5924
27.3242
23.1577
16.7031
25.9641
26.344
22.9072
16.514
-35.8122
-60.8223
-5.4879
-10.6379
7.57813
-1.66736
7.67054
-1.92171
-30.8003
-15.884
-9.66261
-12.8233
-4.40722
-5.63036
-10.9701
-17.4286
-9.40566
-15.3628
-19.0037
-20.6584
-9.37903
-14.2274
-16.6813
-17.7927
-19.9942
-22.9051
-21.4612
-20.8664
-19.4623
-17.4972
-15.6473
-14.1294
-12.678
-11.7312
-11.0761
-10.4436
-9.74855
-8.85773
-7.60724
-5.85619
-3.64133
-1.3413
0.517404
1.65469
1.91449
1.27666
0.619729
-0.0812524
-0.66809
-1.01735
-1.20093
-1.34878
-1.42685
-1.37901
-1.17263
-0.474977
0.390006
1.12521
1.27694
1.14955
0.781217
0.289994
0.131078
-0.148108
-21.7822
-23.2708
-22.2898
-20.5333
-18.6713
-16.9274
-15.3762
-13.9609
-12.7422
-11.7133
-10.8634
-10.0707
-9.23164
-8.2249
-6.89947
-5.26804
-3.55423
-2.06556
-0.884931
-0.195427
0.294947
0.193381
-0.113256
-0.468445
-0.596301
-0.794893
-0.962362
-1.07534
-1.10124
-0.95735
-0.757806
-0.444778
-0.229184
0.164665
0.372721
0.370534
0.316989
0.154454
0.0301722
-0.0275629
-21.1482
-20.8626
-20.0643
-19.0089
-17.7719
-16.5286
-15.3797
-14.1287
-12.7938
-11.5092
-10.4143
-9.46593
-8.61939
-7.81137
-6.88942
-5.70492
-4.21068
-2.62147
-1.2509
-0.31247
-0.0029676
0.0661658
-0.00858721
-0.125146
-0.197536
-0.249672
-0.483474
-0.748162
-0.977367
-1.06631
-1.08018
-0.989189
-0.65842
-0.237268
0.247748
0.519446
0.643103
0.581571
0.403159
0.194663
-18.3828
-18.6849
-18.6478
-18.2725
-17.598
-16.7422
-15.7396
-14.5029
-12.9922
-11.469
-10.2448
-9.36551
-8.6368
-7.87132
-6.90812
-5.63866
-4.13443
-2.64929
-1.46226
-0.709821
-0.299934
-0.21962
-0.313306
-0.266857
-0.226026
-0.315689
-0.570286
-0.809032
-0.950641
-0.962727
-0.953054
-0.81734
-0.585078
-0.184703
0.248241
0.488547
0.577943
0.482618
0.319771
0.127738
)
;

boundaryField
{
    inlet
    {
        type            zeroGradient;
    }
    outlet
    {
        type            fixedValue;
        value           uniform 0;
    }
    obstacle
    {
        type            zeroGradient;
    }
    upperWall
    {
        type            zeroGradient;
    }
    lowerWall
    {
        type            zeroGradient;
    }
    frontAndBack
    {
        type            empty;
    }
}


// ************************************************************************* //
