/*--------------------------------*- C++ -*----------------------------------*\
  =========                 |
  \\      /  F ield         | OpenFOAM: The Open Source CFD Toolbox
   \\    /   O peration     | Website:  https://openfoam.org
    \\  /    A nd           | Version:  10
     \\/     M anipulation  |
\*---------------------------------------------------------------------------*/
FoamFile
{
    format      ascii;
    class       surfaceScalarField;
    location    "1";
    object      phi;
}
// * * * * * * * * * * * * * * * * * * * * * * * * * * * * * * * * * * * * * //

dimensions      [0 3 -1 0 0 0 0];

internalField   nonuniform List<scalar> 
928
(
0.0963477
0.00365234
0.103622
-0.00727461
0.106674
-0.00305204
-0.00983195
0.116506
0.0953076
0.00834478
0.105852
-0.017819
0.10306
-0.000260548
-0.0192767
0.112505
0.0959002
0.0124446
0.107432
-0.0293506
0.103523
0.0036485
-0.0387129
0.122959
0.102456
0.0099891
0.0943335
-0.0212286
0.0982138
-0.000231772
0.145322
-0.0858212
0.11122
0.00528659
-0.0169259
0.128146
0.108848
0.00894364
-0.0420164
0.133939
0.124016
0.00788674
-0.0451619
0.127161
0.153209
0.108047
0.128225
-7.98788e-05
0.12952
-0.00129486
0.131008
-0.00148818
-0.00152393
0.132532
0.134226
-0.00036756
0.13532
-0.00238832
0.137358
-0.00352636
-0.00162566
0.13746
0.132542
-0.00574849
0.139551
-0.00939667
0.135098
0.000926639
0.000646341
0.132826
0.107577
-0.00527822
0.114166
-0.0159861
0.0992688
0.015824
0.0959732
0.0039419
0.13329
-0.000757916
0.133557
-0.000266485
0.132907
0.000649822
0.132121
0.000786239
0.131183
0.0009381
0.130232
0.000950404
0.128862
0.00137001
0.127231
0.00163133
0.12533
0.00190098
0.123452
0.00187765
0.121667
0.00178492
0.120153
0.00151451
0.119037
0.00111624
0.118369
0.000667877
0.117947
0.000422129
0.117606
0.000340986
0.116959
0.000646413
0.115761
0.00119871
0.113716
0.00204491
0.111075
0.00264051
0.108063
0.00301215
0.105308
0.00275461
0.103061
0.00224719
0.1017
0.00136129
0.101356
0.000343796
0.101943
-0.000586765
0.103458
-0.00151507
0.105204
-0.00174643
0.107187
-0.00198263
0.108339
-0.00115248
0.109123
-0.000783913
0.108698
0.000425151
0.107882
0.000816471
0.105823
0.0020586
0.103635
0.00218769
0.100798
0.00283743
0.0983439
0.00245412
0.0963065
0.00203734
0.0946794
0.00162717
0.000191606
0.137421
-0.000718887
0.137405
-0.000251227
0.137817
0.000238078
0.137953
0.000650811
0.137839
0.00105213
0.136946
0.00184289
0.13569
0.00262583
0.134161
0.00316102
0.132595
0.00346666
0.13105
0.00342238
0.129662
0.00317323
0.128492
0.00268402
0.127649
0.00195936
0.127276
0.00104069
0.12739
0.000308237
0.127643
8.8118e-05
0.127522
0.000767629
0.126864
0.00185621
0.125632
0.00327702
0.123815
0.00445804
0.121652
0.00517488
0.119213
0.00519322
0.116913
0.0045476
0.115196
0.00307859
0.114761
0.00077832
0.115102
-0.000927546
0.116544
-0.00295726
0.118257
-0.00345911
0.120384
-0.00411005
0.122178
-0.00294602
0.123908
-0.0025142
0.124625
-0.000291659
0.12468
0.000760991
0.123949
0.0027902
0.122493
0.00364369
0.121044
0.00428581
0.118784
0.00471485
0.117229
0.00359167
0.114952
0.00390482
0.00159097
0.133972
-0.00186511
0.134386
-0.000665641
0.134771
-0.000147046
0.13573
-0.000307501
0.136106
0.000676234
0.135511
0.00243754
0.134754
0.0033831
0.133528
0.0043866
0.132026
0.00496893
0.130544
0.00490372
0.129213
0.00450479
0.128251
0.00364554
0.127694
0.00251667
0.127417
0.00131784
0.127451
0.000273898
0.127982
-0.00044295
0.129102
-0.000351987
0.130036
0.000922059
0.130268
0.00304525
0.12925
0.00547588
0.127309
0.00711611
0.124853
0.00764899
0.122788
0.00661252
0.121134
0.0047328
0.119823
0.00208911
0.118888
7.99071e-06
0.118842
-0.00291151
0.119198
-0.00381573
0.12021
-0.0051214
0.121622
-0.00435794
0.123368
-0.00426032
0.125339
-0.00226287
0.127494
-0.00139377
0.129152
0.00113168
0.130057
0.00273868
0.130073
0.00427009
0.128732
0.00605631
0.126865
0.00545873
0.12417
0.00659893
0.00339735
0.104182
-0.0100741
0.100006
0.00351023
0.0974061
0.00245326
0.0995112
-0.00241263
0.099596
0.000591421
0.0994602
0.00257336
0.102151
0.000692733
0.102446
0.00409102
0.103483
0.00393216
0.103525
0.00486206
0.102467
0.00556266
0.100569
0.00554373
0.0982398
0.00484541
0.0963242
0.00323336
0.0955611
0.00103705
0.0960049
-0.000886805
0.0979395
-0.00228656
0.101372
-0.00251
0.105663
-0.00124652
0.110148
0.000990897
0.113966
0.0032981
0.116288
0.00532702
0.116379
0.00652206
0.114182
0.0069291
0.109848
0.00642369
0.104633
0.00522307
0.0988195
0.00290183
0.0945062
0.00049759
0.0915007
-0.00211599
0.091317
-0.00417425
0.0926952
-0.00563844
0.0960686
-0.00563624
0.0998868
-0.00521201
0.104611
-0.00359242
0.109312
-0.00196284
0.113805
-0.000222038
0.118179
0.00168137
0.121245
0.0023929
0.12364
0.00420397
0.00352923
0.109482
0.000506984
0.0882253
2.82583e-05
0.0865467
0.0014468
0.000725469
0.110799
-0.0102921
0.0884576
0.0223698
0.0893906
0.000513785
0.0901161
-0.010154
0.00487579
0.0177561
-0.0438962
0.018627
0.0149531
0.0389214
-0.0163525
-0.00459208
0.00946786
-0.030392
-0.0180963
-0.0214664
0.00602748
0.00955272
0.00790228
-0.00896094
-0.0174657
0.00251247
-0.00796318
-0.00368531
0.00865105
-0.00300777
-0.00309018
0.00103552
-0.00345187
0.00320045
0.000408432
0.00445211
-0.000558927
0.00749836
0.00104477
0.0100488
0.00138175
0.0124816
0.00242924
0.0147455
0.00329875
0.0169342
0.00335509
0.0194512
0.0023284
0.0222712
0.000413297
0.0255453
-0.00223698
0.0294514
-0.00479296
0.0337513
-0.0065864
0.0380816
-0.00684039
0.0420577
-0.00522255
0.0451647
-0.00211616
0.0473522
0.00111063
0.0481793
0.0044999
0.0477076
0.00699383
0.0465338
0.00810289
0.0453249
0.00763255
0.0445807
0.00596731
0.0442304
0.00325206
0.0442407
0.000487323
0.0445304
-0.00240564
0.044959
-0.0046029
0.0459059
-0.00658531
0.0473164
-0.0070468
0.0492337
-0.00712933
0.0512817
-0.00564041
0.0529781
-0.0036592
0.0543311
-0.00157506
0.0548658
0.00114664
0.0555453
0.00171342
0.0548893
0.00486004
0.00435649
-0.0049045
-0.0030085
-0.00718795
-0.00567973
-0.00387927
0.00534236
-0.00300027
-0.00396918
-0.00366321
-0.00278893
6.77395e-07
-0.00325545
0.00100149
-0.00155974
0.00541075
-0.0033645
0.00864264
-0.00185014
0.0121713
-0.00109946
0.0160431
-0.000572987
0.0198835
-0.000485356
0.0235891
-0.00137721
0.0268476
-0.00284519
0.029235
-0.00462433
0.030669
-0.006227
0.03154
-0.00745746
0.0322375
-0.0075378
0.0333872
-0.00637225
0.0352743
-0.00400332
0.0374377
-0.00105275
0.0403904
0.00154718
0.0435418
0.00384243
0.0468413
0.00480343
0.0499203
0.0045535
0.0525322
0.00335547
0.0540835
0.00170073
0.0544516
0.000119163
0.0534524
-0.00140636
0.0515353
-0.00268582
0.0489124
-0.00396247
0.0465916
-0.00472596
0.0446237
-0.00516145
0.043518
-0.00453465
0.0432621
-0.00340331
0.04369
-0.00200296
0.0447702
6.64308e-05
0.0460691
0.000414501
0.0483045
0.00262459
0.00178653
0.103343
-0.0136354
0.0928338
0.0328793
0.0984041
-0.00505648
0.0414307
0.14709
0.0959413
-0.00957675
0.109682
0.019139
0.104496
0.000128718
0.0199575
0.12597
0.0946778
-0.00425451
0.105969
0.00784812
0.102874
0.00322333
0.00988641
0.112945
0.0957455
0.103594
0.106817
0.116703
0.153359
-0.00626949
0.0482756
0.105083
0.128165
-0.0084645
0.0420932
0.134347
0.109692
-0.00521152
0.016735
0.13505
0.111492
0.128227
0.111382
0.00316913
0.0912075
0.00207836
0.0925793
0.00465567
0.00195724
0.0985244
0.136756
0.00075988
0.138847
-1.25466e-05
0.14195
0.00155318
0.00295074
0.140956
0.136186
-0.000375684
0.13571
0.000463142
0.135929
0.00133457
0.00169729
0.137182
0.127851
0.128314
0.129649
0.131346
0.0967482
-0.00123229
0.0929376
-0.0018692
0.098855
-0.000574958
0.096357
-0.00147127
0.0956018
-0.00203374
0.0952049
-0.00285855
0.0958649
-0.0022197
0.0945377
-0.00203731
0.094518
-0.00183042
0.0952392
-0.00182068
0.0968484
-0.00218215
0.0994824
-0.00311935
0.10242
-0.00431453
0.10513
-0.00555526
0.106701
-0.00619562
0.106635
-0.00616132
0.104173
-0.00499487
0.100209
-0.00357373
0.095697
-0.00186052
0.0922891
-0.000595401
0.0899411
0.00129524
0.0896124
0.00187586
0.0912158
0.00223907
0.0946021
0.00141705
0.0989242
0.000231411
0.103814
-0.00153449
0.108732
-0.00321704
0.113001
-0.00415036
0.116637
-0.0050414
0.118387
-0.00443645
0.118365
-0.00394003
0.1156
-0.00196131
0.111109
-0.00067009
0.105204
0.00136974
0.09935
0.002451
0.0950136
0.00233347
0.0922328
0.00284729
0.0914276
0.00121961
0.0924376
0.00161467
-0.000100573
0.137969
0.00175489
0.135802
0.000297972
0.136308
-0.00108172
0.136639
-0.00180189
0.136713
-0.00210811
0.136004
-0.00214941
0.135539
-0.00175453
0.134905
-0.00140329
0.134416
-0.00134092
0.134176
-0.00158146
0.134183
-0.00218899
0.134102
-0.00303787
0.13362
-0.00383321
0.132534
-0.00446845
0.130977
-0.00463947
0.129255
-0.00443891
0.127953
-0.0036929
0.127057
-0.00267786
0.126274
-0.00107726
0.12552
0.000158202
0.125614
0.00120194
0.126138
0.00135165
0.12725
0.00112646
0.128794
-0.00012607
0.130371
-0.00134594
0.131522
-0.00268586
0.131899
-0.00359385
0.131538
-0.00378928
0.130413
-0.00391664
0.128883
-0.00290577
0.127239
-0.00229614
0.125637
-0.000360009
0.124285
0.000682429
0.123253
0.0024016
0.122844
0.00285958
0.122358
0.00281961
0.122673
0.00253225
0.122675
0.00121772
0.123424
0.000865547
-0.00108597
0.137888
0.0010489
0.137815
0.000371251
0.13763
-0.00089682
0.136926
-0.00109779
0.136202
-0.00138397
0.135288
-0.00123514
0.134707
-0.00117419
0.13422
-0.000915585
0.133726
-0.000847619
0.133088
-0.000942915
0.132205
-0.00130579
0.130898
-0.00173092
0.129282
-0.00221732
0.127381
-0.00256792
0.125453
-0.00271098
0.123496
-0.0024824
0.121767
-0.00196386
0.120339
-0.0012497
0.11986
-0.00059787
0.120047
-2.90711e-05
0.120853
0.000395965
0.121805
0.000399614
0.12273
0.000201375
0.122986
-0.000382153
0.122553
-0.00091253
0.121601
-0.00173437
0.119982
-0.0019747
0.118526
-0.00233378
0.1166
-0.00199023
0.115347
-0.00165225
0.11398
-0.000929713
0.113662
-4.20958e-05
0.113788
0.000556914
0.114753
0.00143671
0.116175
0.001437
0.117434
0.0015611
0.118973
0.000992475
0.11988
0.000311258
0.120833
-8.71732e-05
-0.00115835
0.132395
0.132766
0.131869
0.130772
0.129388
0.128153
0.126978
0.126063
0.125215
0.124272
0.122966
0.121236
0.119018
0.11645
0.113739
0.111257
0.109293
0.108043
0.107445
0.107416
0.107812
0.108212
0.108413
0.108031
0.107119
0.105384
0.10341
0.101076
0.0990856
0.0974334
0.0965037
0.0964616
0.0970185
0.0984552
0.0998922
0.101453
0.102446
0.102757
0.10267
)
;

boundaryField
{
    inlet
    {
        type            calculated;
        value           nonuniform List<scalar> 10(-0.1 -0.1 -0.1 -0.1 -0.1 -0.1 -0.1 -0.1 -0.1 -0.1);
    }
    outlet
    {
        type            calculated;
        value           nonuniform List<scalar> 10(0.0944878 0.113552 0.122364 0.123508 0.054062 0.0508745 0.0943247 0.12441 0.120905 0.101511);
    }
    obstacle
    {
        type            calculated;
        value           uniform 0;
    }
    upperWall
    {
        type            calculated;
        value           uniform 0;
    }
    lowerWall
    {
        type            calculated;
        value           uniform 0;
    }
    frontAndBack
    {
        type            empty;
        value           nonuniform List<scalar> 0();
    }
}


// ************************************************************************* //
