/*--------------------------------*- C++ -*----------------------------------*\
  =========                 |
  \\      /  F ield         | OpenFOAM: The Open Source CFD Toolbox
   \\    /   O peration     | Website:  https://openfoam.org
    \\  /    A nd           | Version:  10
     \\/     M anipulation  |
\*---------------------------------------------------------------------------*/
FoamFile
{
    format      ascii;
    class       volVectorField;
    location    "1";
    object      U;
}
// * * * * * * * * * * * * * * * * * * * * * * * * * * * * * * * * * * * * * //

dimensions      [0 1 -1 0 0 0 0];

internalField   nonuniform List<vector> 
496
(
(9.94909 0.0907809 0)
(9.96377 -0.220646 0)
(10.2099 -0.107713 0)
(10.8037 -0.250989 0)
(10.0993 0.481711 0)
(9.77789 -1.26572 0)
(10.3069 -0.328674 0)
(10.8055 -1.19439 0)
(11.0559 1.32771 0)
(8.80718 -2.82864 0)
(11.3723 -0.0923966 0)
(10.424 -3.98179 0)
(12.457 1.48016 0)
(7.7097 -2.47881 0)
(13.3852 0.64565 0)
(9.57746 -6.32499 0)
(11.4567 -0.206374 2.69972e-18)
(12.2207 -0.216177 -6.1582e-21)
(11.6547 -0.489668 -6.18731e-19)
(12.4692 -0.00444488 2.10014e-18)
(12.9623 -2.02482 -2.08411e-18)
(12.7641 -0.564954 -2.09423e-18)
(13.7218 -5.40697 -3.26371e-17)
(14.8317 -4.31517 6.14555e-17)
(12.7847 -0.175955 0)
(13.1398 -0.178927 0)
(13.355 -0.0607601 0)
(13.4234 0.00396224 0)
(13.0594 0.00161647 0)
(13.5343 -0.372272 0)
(13.8151 -0.514224 0)
(13.9653 -0.562604 0)
(12.5651 0.745573 0)
(12.6214 0.519339 0)
(13.1467 0.380842 0)
(13.5354 0.52989 0)
(12.024 -3.02843 0)
(10.1153 -1.80698 0)
(9.08087 -0.32718 0)
(11.2424 -0.70327 0)
(13.4789 0.150541 0)
(13.4426 0.217055 0)
(13.4432 0.31393 0)
(13.3357 0.328051 0)
(13.2903 0.362231 0)
(13.1225 0.359566 0)
(13.0308 0.382062 0)
(12.7877 0.382485 0)
(12.6462 0.389172 0)
(12.37 0.384112 0)
(12.2496 0.385764 0)
(12.0163 0.386527 0)
(11.9837 0.381146 0)
(11.8449 0.371892 0)
(11.9051 0.351466 0)
(11.7815 0.343633 0)
(11.7938 0.349698 0)
(11.5614 0.372243 0)
(11.4888 0.390272 0)
(11.1572 0.428909 0)
(11.0094 0.467226 0)
(10.5987 0.522341 0)
(10.4941 0.521443 0)
(10.1589 0.499422 0)
(10.2117 0.39493 0)
(10.0352 0.33635 0)
(10.3204 0.224747 0)
(10.3385 0.209034 0)
(10.7166 0.135869 0)
(10.7094 0.183813 0)
(10.9437 0.154063 0)
(10.8453 0.253679 0)
(10.8964 0.263397 0)
(10.7099 0.360184 0)
(10.4921 0.376143 0)
(10.2529 0.439913 0)
(9.89349 0.473907 0)
(9.76251 0.461341 0)
(9.48638 0.497743 0)
(9.44983 0.394008 0)
(14.0379 -0.462214 0)
(14.0068 -0.380223 0)
(13.9736 -0.274713 0)
(13.8604 -0.228456 0)
(13.8231 -0.173531 0)
(13.703 -0.123942 0)
(13.6448 -0.0647611 0)
(13.4506 -0.0335454 0)
(13.3389 -0.0272745 0)
(13.1219 -0.0524698 0)
(13.0386 -0.0928756 0)
(12.8563 -0.144386 0)
(12.835 -0.189115 0)
(12.7256 -0.222121 0)
(12.7938 -0.225415 0)
(12.7438 -0.223893 0)
(12.8085 -0.165287 0)
(12.6621 -0.0818025 0)
(12.6292 0.0523223 0)
(12.4027 0.0941447 0)
(12.3103 0.0933199 0)
(12.0069 -0.0337718 0)
(11.8662 -0.131414 0)
(11.5626 -0.267674 0)
(11.5189 -0.328965 0)
(11.408 -0.428849 0)
(11.5774 -0.483879 0)
(11.6879 -0.503596 0)
(11.9648 -0.478733 0)
(12.1154 -0.374425 0)
(12.3076 -0.282477 0)
(12.4388 -0.108403 0)
(12.4788 -0.0391401 0)
(12.4961 0.106267 0)
(12.3126 0.0863369 0)
(12.2265 0.116416 0)
(11.9527 -0.0118479 0)
(11.8144 -0.107186 0)
(11.6181 -0.224133 0)
(11.3695 -0.37543 0)
(13.7575 0.414641 0)
(13.7187 0.358761 0)
(13.744 0.31783 0)
(13.6029 0.341059 0)
(13.6239 0.381262 0)
(13.5417 0.50095 0)
(13.5575 0.619917 0)
(13.3828 0.730772 0)
(13.3107 0.805031 0)
(13.0835 0.831043 0)
(13.005 0.798953 0)
(12.8127 0.690147 0)
(12.8016 0.536782 0)
(12.7093 0.363674 0)
(12.7729 0.228211 0)
(12.7465 0.177928 0)
(12.8723 0.212827 0)
(12.9262 0.362635 0)
(13.0344 0.586627 0)
(12.9719 0.860042 0)
(12.844 1.06101 0)
(12.6041 1.19496 0)
(12.3722 1.11278 0)
(12.2157 0.906643 0)
(12.0218 0.469476 0)
(11.9356 0.117408 0)
(11.8081 -0.264558 0)
(11.9135 -0.348741 0)
(11.9178 -0.497977 0)
(12.1209 -0.341778 0)
(12.2066 -0.319385 0)
(12.4512 -0.016567 0)
(12.6309 0.136205 0)
(12.8736 0.4379 0)
(13.0019 0.656202 0)
(13.0296 0.807753 0)
(12.9817 1.05281 0)
(12.7507 0.942334 0)
(12.5974 1.13864 0)
(12.2318 0.740353 0)
(9.74382 -0.478577 0)
(9.72988 -0.338711 0)
(10.0275 -0.296596 0)
(9.96117 -0.383137 0)
(9.71364 -0.266252 0)
(10.1814 -0.173517 0)
(10.0766 -0.135756 0)
(10.2733 -0.0260875 0)
(10.3483 0.0442969 0)
(10.3898 0.117301 0)
(10.3244 0.16589 0)
(10.1571 0.172012 0)
(9.90137 0.134377 0)
(9.66555 0.0533041 0)
(9.51941 -0.0396197 0)
(9.53886 -0.166189 0)
(9.62279 -0.243835 0)
(9.95836 -0.247208 0)
(10.3098 -0.14387 0)
(10.835 0.0147312 0)
(11.1828 0.174621 0)
(11.6219 0.266553 0)
(11.6419 0.26542 0)
(11.6654 0.179691 0)
(11.1467 0.0885648 0)
(10.8159 0.0435118 0)
(10.0171 -0.00121151 0)
(9.73615 -0.094978 0)
(9.11585 -0.274997 0)
(9.19751 -0.386418 0)
(9.07241 -0.500636 0)
(9.45504 -0.467725 0)
(9.80888 -0.455624 0)
(10.1463 -0.349642 0)
(10.8545 -0.270928 0)
(10.9667 -0.151276 0)
(11.8505 -0.0522581 0)
(11.7827 -0.0328319 0)
(12.4906 0.00527318 0)
(12.3521 -0.101514 0)
(11.8865 0.631635 -1.04195e-17)
(8.31847 -0.827858 -1.77455e-17)
(11.0234 0.137176 3.0917e-17)
(5.20524 -4.59029 -8.37913e-17)
(12.5763 -0.505967 1.02651e-17)
(7.65818 0.793236 1.74262e-17)
(11.9488 0.210483 -3.04027e-17)
(4.61882 4.72756 8.2388e-17)
(0.531105 2.49981 0)
(-4.35777 -3.48783 0)
(8.6474 2.30092 0)
(-2.88801 2.20788 0)
(-5.8628 -1.75201 3.56815e-17)
(6.07308 -4.03761 0)
(-10.2585 1.186 0)
(3.76937 3.03842 0)
(-2.167 -2.55526 0)
(1.19801 0.590415 0)
(-0.560502 0.693241 0)
(-0.324303 -0.0189418 0)
(-0.498064 0.28243 0)
(0.832021 0.776042 0)
(-0.152445 0.329305 0)
(0.864714 0.804456 0)
(0.865692 0.757482 0)
(1.10005 0.804827 0)
(1.39365 0.842612 0)
(1.53141 0.788124 0)
(1.79534 0.658938 0)
(2.05309 0.433388 0)
(2.37259 0.170701 0)
(2.71233 -0.10812 0)
(3.11953 -0.254584 0)
(3.61966 -0.266506 0)
(3.98474 -0.112272 0)
(4.4311 0.127976 0)
(4.59461 0.426513 0)
(4.88707 0.698598 0)
(4.74057 0.875482 0)
(4.78847 0.961415 0)
(4.50216 0.897616 0)
(4.54615 0.7132 0)
(4.33986 0.404635 0)
(4.49634 0.0867172 0)
(4.328 -0.218556 0)
(4.58146 -0.407737 0)
(4.39756 -0.537362 0)
(4.80761 -0.524949 0)
(4.66026 -0.473561 0)
(5.19704 -0.288523 0)
(5.08571 -0.0808897 0)
(5.47976 0.135639 0)
(5.45068 0.438551 0)
(5.50045 0.51931 0)
(5.62011 0.826168 0)
(5.4023 0.797931 0)
(-0.99998 0.0619482 0)
(-0.116074 -1.43809 0)
(-1.80081 1.15727 0)
(1.0723 -0.645623 0)
(-1.52991 -0.721475 0)
(0.710387 -0.626406 0)
(-0.661555 -0.371477 0)
(0.725215 -0.524109 0)
(0.633472 -0.391945 0)
(0.989455 -0.288249 0)
(1.43144 -0.218503 0)
(1.75703 -0.196269 0)
(2.16483 -0.270887 0)
(2.53779 -0.424049 0)
(2.82201 -0.631789 0)
(3.01729 -0.809152 0)
(3.08525 -0.958114 0)
(3.22263 -0.958802 0)
(3.19435 -0.79479 0)
(3.46685 -0.473552 0)
(3.52253 -0.0819036 0)
(3.97208 0.263721 0)
(4.08922 0.513586 0)
(4.60709 0.620918 0)
(4.75484 0.584147 0)
(5.22181 0.441592 0)
(5.27786 0.214726 0)
(5.53113 -0.0138482 0)
(5.35396 -0.271235 0)
(5.33586 -0.497047 0)
(4.9793 -0.718221 0)
(4.81609 -0.825519 0)
(4.5184 -0.866377 0)
(4.40092 -0.753966 0)
(4.30987 -0.581221 0)
(4.35284 -0.399507 0)
(4.3464 -0.103913 0)
(4.63763 -0.0722688 0)
(4.54354 0.229191 0)
(5.08757 0.105575 0)
(11.7597 -1.67237 0)
(8.47036 2.79721 0)
(12.4027 -0.978162 0)
(10.7087 6.78791 0)
(10.7252 -1.4517 0)
(9.25567 3.114 0)
(11.1667 0.146673 0)
(10.9758 4.24613 0)
(9.97392 -0.561606 0)
(9.88701 1.34937 0)
(10.1587 0.314838 0)
(10.9273 1.16501 0)
(9.93302 -0.0948166 0)
(9.94962 0.192142 0)
(10.1516 0.109221 0)
(10.8063 0.221109 0)
(12.6304 5.3138 4.08587e-17)
(16.2669 4.5666 -6.89726e-17)
(13.0818 2.17703 0)
(13.4671 0.536195 0)
(11.6207 0.454452 0)
(12.6254 -0.166817 0)
(11.4561 0.215086 0)
(12.2472 0.20135 0)
(9.75223 2.67478 0)
(10.6057 1.73682 0)
(8.03253 1.00502 0)
(9.04739 0.0161294 0)
(12.9151 -0.621052 0)
(13.0113 -0.964468 0)
(13.3203 -0.608114 0)
(13.6527 -0.264494 0)
(13.1678 -0.13098 0)
(13.6178 0.193685 0)
(13.8716 0.493402 0)
(13.9848 0.595642 0)
(12.7896 0.181244 0)
(13.1249 0.197801 0)
(13.2834 0.0891492 0)
(13.3126 0.0175992 0)
(8.69357 -0.381169 0)
(10.6075 -0.222718 0)
(9.48963 0.0100115 0)
(9.85132 -0.0853066 0)
(9.62856 -0.0145134 0)
(9.76763 -0.152453 0)
(9.47029 -0.0500998 0)
(9.48338 -0.102471 0)
(9.39477 -0.0464804 0)
(9.48545 0.00540642 0)
(9.56123 0.0442792 0)
(9.81666 0.0307828 0)
(10.0455 -0.0361336 0)
(10.4177 -0.129895 0)
(10.5933 -0.233525 0)
(10.7735 -0.308325 0)
(10.5449 -0.324095 0)
(10.2828 -0.286338 0)
(9.70534 -0.220855 0)
(9.37942 -0.144246 0)
(8.99317 -0.0377678 0)
(8.94736 0.102543 0)
(8.98333 0.247004 0)
(9.2571 0.297433 0)
(9.68964 0.291587 0)
(10.0814 0.202097 0)
(10.6972 0.114562 0)
(11.0205 0.031081 0)
(11.5964 -0.00280406 0)
(11.7169 -0.00226217 0)
(11.9818 0.00390525 0)
(11.7202 0.0350304 0)
(11.3975 0.0216013 0)
(10.8581 0.0265786 0)
(10.1003 0.0226596 0)
(9.83294 0.0393995 0)
(9.10106 0.114327 0)
(9.36402 0.10798 0)
(8.94806 0.20229 0)
(9.44405 0.205691 0)
(13.9976 -0.084721 0)
(14.0902 -0.196138 0)
(14.0424 -0.227582 0)
(13.8654 -0.290167 0)
(13.7624 -0.326229 0)
(13.6041 -0.355032 0)
(13.5622 -0.329397 0)
(13.4321 -0.30595 0)
(13.4331 -0.277253 0)
(13.3633 -0.298539 0)
(13.4159 -0.365432 0)
(13.3949 -0.492149 0)
(13.4223 -0.632525 0)
(13.3365 -0.796394 0)
(13.2266 -0.884372 0)
(13.0295 -0.918748 0)
(12.8435 -0.778533 0)
(12.7194 -0.602951 0)
(12.6193 -0.319198 0)
(12.5474 -0.115824 0)
(12.5015 0.0892643 0)
(12.5621 0.106165 0)
(12.6732 0.0988597 0)
(12.7956 -0.0321784 0)
(12.989 -0.200843 0)
(13.0741 -0.393612 0)
(13.231 -0.624138 0)
(13.14 -0.722695 0)
(13.1781 -0.87524 0)
(12.8952 -0.783015 0)
(12.8751 -0.745631 0)
(12.5699 -0.440465 0)
(12.5586 -0.196433 0)
(12.3354 0.0724695 0)
(12.3099 0.271269 0)
(12.2596 0.253462 0)
(12.1942 0.329506 0)
(12.2959 0.0893543 0)
(12.2379 0.106156 0)
(12.4431 -0.202374 0)
(14.0232 0.494545 0)
(13.9721 0.330543 0)
(13.9167 0.155314 0)
(13.7891 0.0589942 0)
(13.7137 -0.00435979 0)
(13.5703 -0.00852165 0)
(13.543 -0.00231324 0)
(13.4214 0.0303326 0)
(13.3999 0.0406036 0)
(13.2715 0.0272523 0)
(13.2591 -0.0314592 0)
(13.1046 -0.098157 0)
(13.0445 -0.163917 0)
(12.8376 -0.181568 0)
(12.7244 -0.170698 0)
(12.4638 -0.0867078 0)
(12.3002 0.00253797 0)
(12.0265 0.100893 0)
(11.9535 0.148138 0)
(11.8993 0.206021 0)
(12.0337 0.241321 0)
(12.1007 0.238265 0)
(12.2737 0.186218 0)
(12.2965 0.079427 0)
(12.3266 -0.0100686 0)
(12.1861 -0.112152 0)
(12.1132 -0.107304 0)
(11.8983 -0.0827607 0)
(11.7921 0.0159421 0)
(11.5363 0.121325 0)
(11.4929 0.211783 0)
(11.3124 0.353987 0)
(11.4273 0.374524 0)
(11.3651 0.492562 0)
(11.6035 0.403824 0)
(11.6156 0.423373 0)
(11.8724 0.271022 0)
(11.9045 0.212298 0)
(12.0796 0.10141 0)
(12.087 -0.00274908 0)
(13.3354 -0.126554 0)
(13.2847 -0.196178 0)
(13.2582 -0.287256 0)
(13.1388 -0.305263 0)
(13.0784 -0.334832 0)
(12.9221 -0.307451 0)
(12.8716 -0.295349 0)
(12.6977 -0.264274 0)
(12.617 -0.251851 0)
(12.4006 -0.252592 0)
(12.3327 -0.273514 0)
(12.1294 -0.299132 0)
(12.0479 -0.30294 0)
(11.7681 -0.313563 0)
(11.6126 -0.316219 0)
(11.2526 -0.337755 0)
(11.0782 -0.347656 0)
(10.7711 -0.344436 0)
(10.7582 -0.282807 0)
(10.6205 -0.232548 0)
(10.7761 -0.185784 0)
(10.7384 -0.180273 0)
(10.9199 -0.163717 0)
(10.7964 -0.204932 0)
(10.8344 -0.219466 0)
(10.5752 -0.280203 0)
(10.498 -0.298775 0)
(10.1825 -0.367176 0)
(10.0371 -0.378699 0)
(9.76115 -0.407581 0)
(9.70048 -0.365479 0)
(9.59902 -0.324185 0)
(9.71227 -0.246723 0)
(9.72596 -0.201236 0)
(9.98213 -0.140706 0)
(9.98925 -0.148236 0)
(10.2897 -0.104506 0)
(10.1685 -0.165607 0)
(10.3728 -0.15485 0)
(10.1499 -0.251174 0)
)
;

boundaryField
{
    inlet
    {
        type            fixedValue;
        value           uniform (10 0 0);
    }
    outlet
    {
        type            zeroGradient;
    }
    obstacle
    {
        type            noSlip;
    }
    upperWall
    {
        type            noSlip;
    }
    lowerWall
    {
        type            noSlip;
    }
    frontAndBack
    {
        type            empty;
    }
}


// ************************************************************************* //
