/*--------------------------------*- C++ -*----------------------------------*\
  =========                 |
  \\      /  F ield         | OpenFOAM: The Open Source CFD Toolbox
   \\    /   O peration     | Website:  https://openfoam.org
    \\  /    A nd           | Version:  10
     \\/     M anipulation  |
\*---------------------------------------------------------------------------*/
FoamFile
{
    format      ascii;
    class       surfaceScalarField;
    location    "0.85";
    object      phi;
}
// * * * * * * * * * * * * * * * * * * * * * * * * * * * * * * * * * * * * * //

dimensions      [0 3 -1 0 0 0 0];

internalField   nonuniform List<scalar> 
760
(
-1.16447e-05
1.16447e-05
-2.51047e-05
1.346e-05
-3.80273e-05
1.29226e-05
-4.99719e-05
1.19446e-05
-6.06388e-05
1.06669e-05
-6.97703e-05
9.13153e-06
-7.7151e-05
7.38069e-06
-8.2609e-05
5.45796e-06
-8.60162e-05
3.40724e-06
-8.72885e-05
1.27231e-06
-8.63855e-05
-9.02985e-07
-8.33121e-05
-3.07348e-06
-7.81197e-05
-5.19231e-06
-7.09098e-05
-7.20993e-06
-6.18359e-05
-9.07392e-06
-5.11059e-05
-1.073e-05
-3.89819e-05
-1.2124e-05
-2.57812e-05
-1.32007e-05
-1.19778e-05
-1.38035e-05
-1.19778e-05
-1.40396e-05
2.56843e-05
-3.00864e-05
2.95068e-05
-4.5484e-05
2.83202e-05
-5.97083e-05
2.61689e-05
-7.24003e-05
2.33589e-05
-8.32551e-05
1.99863e-05
-9.20197e-05
1.61454e-05
-9.84941e-05
1.19324e-05
-0.00010253
7.44343e-06
-0.000104032
2.77365e-06
-0.000102952
-1.98283e-06
-9.92968e-05
-6.72851e-06
-9.31265e-05
-1.13626e-05
-8.45583e-05
-1.57782e-05
-7.37709e-05
-1.98612e-05
-6.10082e-05
-2.34927e-05
-4.65796e-05
-2.65525e-05
-3.08636e-05
-2.89167e-05
-1.44228e-05
-3.02443e-05
-2.64006e-05
-1.48247e-05
4.05089e-05
-3.17667e-05
4.64489e-05
-4.8005e-05
4.45585e-05
-6.29882e-05
4.11521e-05
-7.63413e-05
3.6712e-05
-8.77492e-05
3.13941e-05
-9.69538e-05
2.535e-05
-0.000103753
1.8732e-05
-0.000108
1.16898e-05
-0.000109596
4.36969e-06
-0.000108492
-3.0865e-06
-0.000104693
-1.05281e-05
-9.82511e-05
-1.7804e-05
-8.92801e-05
-2.47492e-05
-7.79555e-05
-3.11858e-05
-6.4523e-05
-3.69253e-05
-4.93014e-05
-4.17741e-05
-3.2688e-05
-4.55301e-05
-1.52792e-05
-4.76531e-05
-4.16798e-05
-1.58885e-05
5.63975e-05
-3.40404e-05
6.46007e-05
-5.14137e-05
6.19319e-05
-6.74153e-05
5.71537e-05
-8.16482e-05
5.09449e-05
-9.37866e-05
4.35325e-05
-0.00010357
3.51329e-05
-0.000110797
2.59595e-05
-0.000115324
1.62167e-05
-0.000117054
6.09989e-06
-0.000115936
-4.20463e-06
-0.000111966
-1.44981e-05
-0.000105188
-2.45821e-05
-9.57022e-05
-3.4235e-05
-8.3675e-05
-4.3213e-05
-6.93493e-05
-5.1251e-05
-5.3053e-05
-5.80704e-05
-3.52085e-05
-6.33746e-05
-1.64658e-05
-6.63959e-05
-5.81455e-05
-1.73805e-05
7.3778e-05
-3.72199e-05
8.44402e-05
-5.61686e-05
8.08806e-05
-7.3573e-05
7.45581e-05
-8.90078e-05
6.63796e-05
-0.000102135
5.66601e-05
-0.000112696
4.56934e-05
-0.000120497
3.37601e-05
-0.0001254
2.11203e-05
-0.000127315
8.0149e-06
-0.000126187
-5.33258e-06
-0.000122002
-1.86829e-05
-0.000114787
-3.17974e-05
-0.00010462
-4.44016e-05
-9.16492e-05
-5.61842e-05
-7.61057e-05
-6.67944e-05
-5.83251e-05
-7.5851e-05
-3.87624e-05
-8.29373e-05
-1.81446e-05
-8.70137e-05
-7.62901e-05
-1.93645e-05
9.31425e-05
-4.14369e-05
0.000106513
-6.24529e-05
0.000101897
-8.16785e-05
9.37836e-05
-9.86539e-05
8.33551e-05
-0.000113034
7.10401e-05
-0.000124568
5.72278e-05
-0.000133082
4.2274e-05
-0.000138456
2.64943e-05
-0.000140609
1.01682e-05
-0.000139486
-6.45583e-06
-0.000135057
-2.31119e-05
-0.000127322
-3.95329e-05
-0.000116323
-5.54006e-05
-0.000102171
-7.03364e-05
-8.50718e-05
-8.38932e-05
-6.53598e-05
-9.5563e-05
-4.35267e-05
-0.00010477
-2.04032e-05
-0.000110137
-9.66933e-05
-2.19279e-05
0.00011507
-4.68668e-05
0.000131452
-7.05056e-05
0.000125535
-9.20056e-05
0.000115284
-0.000110871
0.000102221
-0.00012676
8.69288e-05
-0.000139449
6.99166e-05
-0.0001488
5.16253e-05
-0.000154729
3.24229e-05
-0.000157175
1.26148e-05
-0.000156086
-7.54495e-06
-0.00015141
-2.77877e-05
-0.000143105
-4.78377e-05
-0.000131156
-6.73499e-05
-0.000115608
-8.58842e-05
-9.66144e-05
-0.000102887
-7.44855e-05
-0.000117692
-4.97478e-05
-0.000129508
-2.33667e-05
-0.000136518
-0.00012006
-2.51988e-05
0.000140269
-5.3762e-05
0.000160015
-8.06617e-05
0.000152435
-0.000104928
0.00013955
-0.000126034
0.000123327
-0.000143665
0.000104559
-0.000157655
8.39071e-05
-0.000167937
6.19066e-05
-0.000174484
3.89703e-05
-0.000177278
1.54082e-05
-0.000176273
-8.54975e-06
-0.000171388
-3.26722e-05
-0.000162521
-5.67048e-05
-0.000149564
-8.03071e-05
-0.000132454
-0.000102994
-0.000111241
-0.0001241
-8.6172e-05
-0.000142761
-5.77886e-05
-0.000157891
-2.72238e-05
-0.000167083
-0.000147284
-2.93686e-05
0.000169638
-6.24895e-05
0.000193136
-9.33946e-05
0.00018334
-0.000120955
0.00016711
-0.000144634
0.000147006
-0.000164187
0.000124113
-0.000179563
9.92823e-05
-0.000190809
7.3153e-05
-0.000198002
4.61638e-05
-0.000201189
1.85943e-05
-0.000200346
-9.39276e-06
-0.000195352
-3.76655e-05
-0.000186019
-6.60384e-05
-0.000172099
-9.42272e-05
-0.000153354
-0.000121739
-0.000129652
-0.000147802
-0.000101095
-0.000171318
-6.81903e-05
-0.000190796
-3.22653e-05
-0.000203008
-0.000179549
-3.47318e-05
0.00020437
-7.35945e-05
0.000231998
-0.000109382
0.000219127
-0.000140785
0.000198513
-0.00016731
0.000173531
-0.000188865
0.000145669
-0.000205596
0.000116013
-0.000217746
8.53025e-05
-0.000225548
5.39664e-05
-0.000229154
2.21997e-05
-0.000228583
-9.96322e-06
-0.000223671
-4.25775e-05
-0.000214104
-7.56054e-05
-0.000199435
-0.000108896
-0.000179154
-0.00014202
-0.000152816
-0.00017414
-0.000120239
-0.000203895
-8.17789e-05
-0.000229256
-3.89572e-05
-0.00024583
-0.000218506
-4.17598e-05
0.000246129
-8.79054e-05
0.000278144
-0.000129608
0.00026083
-0.000165383
0.000234288
-0.000194895
0.000203043
-0.000218349
0.000169122
-0.00023622
0.000133884
-0.000249054
9.81361e-05
-0.000257325
6.22375e-05
-0.000261339
2.62144e-05
-0.00026119
-1.01126e-05
-0.00025667
-4.70973e-05
-0.000247309
-8.49668e-05
-0.000232372
-0.000123834
-0.000210945
-0.000163447
-0.000182081
-0.000203003
-0.000145064
-0.000240912
-9.98495e-05
-0.000274471
-4.80824e-05
-0.000297597
-0.000266589
-5.12433e-05
0.000297373
-0.000106717
0.000333618
-0.000155532
0.000309645
-0.000196097
0.000274853
-0.000228478
0.000235424
-0.000253414
0.000194059
-0.00027191
0.00015238
-0.000284965
0.000111191
-0.000293405
7.06777e-05
-0.000297759
3.05681e-05
-0.000298219
-9.65236e-06
-0.000294555
-5.07613e-05
-0.000286118
-9.34045e-05
-0.000271809
-0.000138143
-0.000250122
-0.000185133
-0.000219324
-0.000233801
-0.000177767
-0.000282469
-0.000124496
-0.000327742
-6.10414e-05
-0.000361052
-0.00032763
-6.4591e-05
0.000361964
-0.000132115
0.000401142
-0.000189351
0.000366881
-0.000234818
0.00032032
-0.000269466
0.000270072
-0.000294945
0.000219538
-0.000313086
0.00017052
-0.000325556
0.000123662
-0.000333643
7.87642e-05
-0.000338168
3.50939e-05
-0.00033946
-8.36068e-06
-0.000337298
-5.29232e-05
-0.000330861
-9.9842e-05
-0.000318641
-0.000150362
-0.000298387
-0.000205388
-0.000267147
-0.000265041
-0.000221698
-0.000327918
-0.000159217
-0.000390223
-8.05962e-05
-0.000439673
-0.000408226
-8.45331e-05
0.000446497
-0.000167565
0.000484174
-0.000234416
0.000433732
-0.000284198
0.000370102
-0.000319615
0.000305489
-0.000343851
0.000243774
-0.000360016
0.000186685
-0.000370637
0.000134282
-0.000377552
8.56794e-05
-0.000381931
3.94729e-05
-0.000384283
-6.0086e-06
-0.000384458
-5.27482e-05
-0.000381526
-0.000102774
-0.000373605
-0.000158283
-0.000357614
-0.000221379
-0.000329039
-0.000293615
-0.000281985
-0.000374972
-0.000209995
-0.000462213
-0.000112469
-0.000537199
-0.000520696
-0.000116336
0.000562833
-0.000218845
0.000586683
-0.000295823
0.00051071
-0.000347845
0.000422125
-0.000380954
0.000338597
-0.000400956
0.000263777
-0.000412654
0.000198382
-0.000419577
0.000141205
-0.00042414
9.02433e-05
-0.000427853
4.31856e-05
-0.000431443
-2.41881e-06
-0.000434925
-4.92666e-05
-0.000437432
-0.000100266
-0.000436915
-0.0001588
-0.000429602
-0.000228693
-0.000409252
-0.000313965
-0.000366329
-0.000417895
-0.000287091
-0.000541451
-0.000167295
-0.000656995
-0.000687991
-0.000173213
0.000736046
-0.000296905
0.000710375
-0.000381473
0.000595278
-0.000430341
0.000470993
-0.000455614
0.00036387
-0.000466661
0.000274825
-0.000470307
0.000202028
-0.000471048
0.000141946
-0.000471734
9.09296e-05
-0.000474059
4.55105e-05
-0.000478902
2.42352e-06
-0.000486602
-4.15661e-05
-0.000496696
-9.01719e-05
-0.000507511
-0.000147986
-0.000515191
-0.000221012
-0.000512165
-0.000316991
-0.000485052
-0.000445008
-0.000406996
-0.000619507
-0.000269247
-0.000794744
-0.000957238
-0.000249953
0.000985999
-0.000406552
0.000866973
-0.000499223
0.000687949
-0.000536404
0.000508174
-0.00054464
0.000372106
-0.00053969
0.000269875
-0.000530516
0.000192853
-0.000522088
0.000133518
-0.000517082
8.59232e-05
-0.000516997
4.54259e-05
-0.000522851
8.27704e-06
-0.000535241
-2.91758e-05
-0.000554661
-7.07515e-05
-0.000580719
-0.000121928
-0.000611165
-0.000190566
-0.000638763
-0.000289394
-0.000650454
-0.000433317
-0.000592261
-0.0006777
-0.000459362
-0.000927643
-0.0014166
-0.000520588
0.00150659
-0.000632821
0.000979206
-0.000671328
0.000726456
-0.000663669
0.000500516
-0.000633661
0.000342098
-0.000600373
0.000236587
-0.00057136
0.00016384
-0.000549554
0.000111713
-0.000536187
7.25561e-05
-0.000531878
4.1117e-05
-0.000537016
1.34148e-05
-0.000553084
-1.31084e-05
-0.000581836
-4.19996e-05
-0.000625569
-7.81948e-05
-0.00068712
-0.000129014
-0.000763818
-0.000212696
-0.000849772
-0.000347363
-0.000864135
-0.000663336
-0.000747072
-0.00104471
-0.00216367
-0.0007621
0.00226869
-0.000729437
0.000946543
-0.000630226
0.000627244
-0.00050797
0.00037826
-0.000392501
0.000226629
-0.000301814
0.0001459
-0.000235336
9.73629e-05
-0.000188913
6.52892e-05
-0.000159213
4.28564e-05
-0.000144076
2.598e-05
-0.000142585
1.19238e-05
-0.000154319
-1.37423e-06
-0.000180736
-1.55826e-05
-0.000223175
-3.57561e-05
-0.000283694
-6.84947e-05
-0.00035978
-0.00013661
-0.000442103
-0.00026504
-0.000520906
-0.000584534
-0.00046785
-0.00109776
-0.00263152
0.00226869
0.00321523
0.00384247
0.00422073
0.00444736
0.00459326
0.00469063
0.00475591
0.00479877
0.00482475
0.00483668
0.0048353
0.00481972
0.00478396
0.00471547
0.00457886
0.00431382
0.00372928
0.00263152
)
;

boundaryField
{
    movingWall
    {
        type            calculated;
        value           uniform 0;
    }
    fixedWalls
    {
        type            calculated;
        value           uniform 0;
    }
    frontAndBack
    {
        type            empty;
        value           nonuniform List<scalar> 0();
    }
}


// ************************************************************************* //
