/*--------------------------------*- C++ -*----------------------------------*\
  =========                 |
  \\      /  F ield         | OpenFOAM: The Open Source CFD Toolbox
   \\    /   O peration     | Website:  https://openfoam.org
    \\  /    A nd           | Version:  10
     \\/     M anipulation  |
\*---------------------------------------------------------------------------*/
FoamFile
{
    format      ascii;
    class       volVectorField;
    location    "7.35";
    object      U;
}
// * * * * * * * * * * * * * * * * * * * * * * * * * * * * * * * * * * * * * //

dimensions      [0 1 -1 0 0 0 0];

internalField   nonuniform List<vector> 
496
(
(9.94596 0.0820434 0)
(9.94161 -0.187072 0)
(10.177 -0.101633 0)
(10.7988 -0.230643 0)
(9.99748 0.554944 0)
(9.87368 -1.34069 0)
(10.179 -0.303123 0)
(10.9083 -1.1821 0)
(10.7125 1.41112 0)
(9.26372 -3.0524 0)
(11.189 -0.188418 0)
(10.9433 -4.19436 0)
(11.7377 1.6586 0)
(8.44084 -2.78693 0)
(12.4926 0.959071 0)
(10.4834 -6.76086 0)
(11.4928 -0.206453 2.47423e-18)
(12.1993 -0.20086 1.45427e-19)
(11.6559 -0.43372 -1.30677e-18)
(12.5629 0.165542 2.65637e-18)
(13.0887 -2.17196 -1.17024e-18)
(13.4109 -0.530187 -2.8019e-18)
(12.8655 -5.33058 -3.92403e-17)
(15.917 -4.55431 6.79266e-17)
(12.784 -0.184746 0)
(13.0714 -0.164778 0)
(13.2568 -0.122096 0)
(13.2287 0.0332354 0)
(13.1715 0.147118 0)
(13.553 -0.153794 0)
(13.8448 -0.527356 0)
(13.9231 -0.532892 0)
(12.7986 0.707191 0)
(13.0011 0.957324 0)
(13.1597 0.68751 0)
(13.6916 0.28485 0)
(10.3222 -2.62096 0)
(10.0331 -1.81233 0)
(8.74291 -1.0414 0)
(8.35478 0.142193 0)
(13.2886 0.0903969 0)
(13.2237 0.207952 0)
(13.2607 0.240854 0)
(13.2008 0.300083 0)
(13.1578 0.285615 0)
(13.0917 0.337602 0)
(12.9431 0.343991 0)
(12.7983 0.349245 0)
(12.5019 0.374688 0)
(12.2699 0.333257 0)
(11.9181 0.36814 0)
(11.7587 0.314145 0)
(11.6362 0.313549 0)
(11.6421 0.204301 0)
(11.7286 0.150931 0)
(11.7908 0.134307 0)
(11.937 0.133052 0)
(11.8365 0.232172 0)
(11.8573 0.254706 0)
(11.6309 0.34321 0)
(11.3842 0.338567 0)
(10.9315 0.386105 0)
(10.5215 0.41458 0)
(10.303 0.338775 0)
(10.1247 0.299008 0)
(10.181 0.0991691 0)
(10.2472 0.0580097 0)
(10.3996 -0.108156 0)
(10.7201 -0.146167 0)
(10.8743 -0.162555 0)
(11.4048 -0.146962 0)
(11.5589 -0.00638087 0)
(12.0144 0.0580788 0)
(11.9745 0.257286 0)
(11.8733 0.323008 0)
(11.5696 0.441754 0)
(10.8585 0.535608 0)
(10.4622 0.559267 0)
(9.70564 0.696814 0)
(9.33917 0.503915 0)
(13.9414 -0.571178 0)
(13.9318 -0.313859 0)
(13.9148 -0.268413 0)
(13.8786 -0.11066 0)
(13.8474 -0.0668766 0)
(13.8539 0.0398576 0)
(13.7122 0.0878174 0)
(13.6227 0.115029 0)
(13.3588 0.232964 0)
(13.1607 0.115528 0)
(12.8777 0.138933 0)
(12.7039 -0.069941 0)
(12.5574 -0.0617899 0)
(12.5404 -0.24366 0)
(12.6524 -0.356871 0)
(12.8195 -0.307234 0)
(13.0106 -0.286933 0)
(13.0908 0.0171843 0)
(13.1081 0.0713744 0)
(13.0165 0.363028 0)
(12.7962 0.294692 0)
(12.495 0.284583 0)
(12.1477 0.158212 0)
(11.8342 -0.0438704 0)
(11.719 0.000888588 0)
(11.6142 -0.216269 0)
(11.7893 -0.125911 0)
(11.8092 -0.343969 0)
(12.1016 -0.426617 0)
(12.2802 -0.547613 0)
(12.5832 -0.687745 0)
(12.9023 -0.559252 0)
(13.1765 -0.565811 0)
(13.5094 -0.130735 0)
(13.493 0.0768493 0)
(13.5321 0.52954 0)
(13.1011 0.616694 0)
(12.8111 0.495439 0)
(12.3634 0.319261 0)
(11.6855 -0.152282 0)
(13.7794 0.0184163 0)
(14.0831 0.132694 0)
(13.8974 -0.010275 0)
(13.8174 0.0650646 0)
(13.9362 0.180543 0)
(13.7218 0.283301 0)
(13.9274 0.370806 0)
(13.6649 0.510844 0)
(13.8444 0.812208 0)
(13.3007 0.82022 0)
(13.2925 0.980909 0)
(12.8998 0.670786 0)
(12.8944 0.425508 0)
(12.6683 -0.0654354 0)
(12.5668 -0.317728 0)
(12.8584 -0.323256 0)
(12.7693 -0.378617 0)
(13.1968 0.00705905 0)
(13.2669 0.16032 0)
(13.5925 0.659994 0)
(13.5788 0.919067 0)
(13.2691 1.11998 0)
(13.2984 1.28437 0)
(12.7801 0.816205 0)
(13.2827 0.562148 0)
(12.664 -0.285697 0)
(13.0558 -0.391484 0)
(12.2239 -0.598263 0)
(12.0208 -0.48903 0)
(11.5407 -0.269963 0)
(11.1233 -0.586639 0)
(11.3627 -0.265176 0)
(11.3918 -0.591804 0)
(12.0459 -0.0652318 0)
(12.5155 0.178638 0)
(13.122 0.670296 0)
(13.4707 1.41194 0)
(13.422 1.38836 0)
(13.355 2.09608 0)
(12.8566 1.30653 0)
(8.97816 0.431281 0)
(9.79467 0.263779 0)
(9.30189 -0.193276 0)
(9.05893 -0.0314812 0)
(9.6897 0.0233353 0)
(9.70102 -0.269377 0)
(9.20631 -0.0354503 0)
(10.3184 0.175842 0)
(10.3492 0.220559 0)
(10.6569 0.377082 0)
(10.6246 0.485169 0)
(9.93396 0.513273 0)
(9.64389 0.434355 0)
(8.41829 0.331988 0)
(8.79176 0.149068 0)
(8.1407 -0.21511 0)
(8.51931 -0.436547 0)
(8.94855 -0.481348 0)
(9.35424 -0.292125 0)
(10.5762 -0.115305 0)
(10.6344 0.112204 0)
(11.7088 0.257229 0)
(11.4672 0.252007 0)
(11.2669 0.271087 0)
(10.2051 0.359065 0)
(8.13736 0.643336 0)
(7.30452 0.915244 0)
(5.22905 0.680219 0)
(5.51854 0.465907 0)
(5.07139 -0.128741 0)
(5.19794 -0.760431 0)
(6.24671 -0.997365 0)
(6.34478 -1.38207 0)
(7.79174 -1.18327 0)
(8.43477 -1.00435 0)
(9.57887 -0.533226 0)
(10.8527 0.0658567 0)
(11.3334 0.326794 0)
(12.5476 0.687722 0)
(12.6583 0.371488 0)
(12.6052 0.497547 -1.04839e-17)
(7.61996 -0.795105 -1.76651e-17)
(11.9326 -0.172119 3.09182e-17)
(4.66726 -4.71869 -8.36195e-17)
(11.8878 -0.596951 1.06128e-17)
(8.29165 0.812272 1.79558e-17)
(11.0738 -0.0919531 -3.13718e-17)
(5.17602 4.58033 8.47104e-17)
(-6.26358 1.80591 0)
(6.75025 4.14771 0)
(-10.792 -0.670799 0)
(4.49325 -2.88567 0)
(1.06328 -2.63781 3.11694e-17)
(-4.08642 3.41813 0)
(8.08013 -1.94401 0)
(-2.1892 -2.51437 0)
(-1.08611 -0.0249936 0)
(-0.217274 1.31756 0)
(-0.576713 -1.5817 0)
(1.19289 -0.125911 0)
(-0.214752 1.45698 0)
(-0.0786569 -0.941413 0)
(0.15305 -0.513517 0)
(1.93968 0.919533 0)
(1.11504 0.929695 0)
(1.08946 0.933746 0)
(1.48676 1.20279 0)
(1.53859 1.14235 0)
(1.21943 0.858617 0)
(2.0035 0.437384 0)
(2.30913 -0.142026 0)
(2.26848 -0.672921 0)
(2.77154 -1.0545 0)
(3.40035 -1.04249 0)
(3.85291 -0.905232 0)
(4.36216 -0.508609 0)
(4.38857 -0.129177 0)
(4.78632 0.522189 0)
(4.64149 1.25069 0)
(4.2546 1.62467 0)
(3.78349 1.97431 0)
(3.50979 1.81209 0)
(3.28966 1.29164 0)
(3.42088 0.63754 0)
(3.69844 -0.129774 0)
(3.80282 -0.727894 0)
(4.16719 -1.42443 0)
(4.2048 -1.73158 0)
(4.56534 -1.92232 0)
(4.64327 -2.07019 0)
(5.13574 -1.84663 0)
(5.89526 -1.26373 0)
(5.98988 -0.659673 0)
(6.72003 0.060132 0)
(6.50679 0.96315 0)
(5.92946 0.821642 0)
(-2.56975 2.97925 0)
(2.07497 -1.18367 0)
(-0.869578 -0.878338 0)
(-1.44063 0.316665 0)
(-0.668355 -0.187421 0)
(1.72202 -1.38912 0)
(-1.39116 -0.865893 0)
(0.679325 -0.345907 0)
(0.219716 0.00145237 0)
(1.21126 0.0967181 0)
(1.61 0.251333 0)
(2.21383 0.456367 0)
(2.40834 0.379389 0)
(3.20428 -0.21686 0)
(3.42035 -0.657259 0)
(3.45667 -0.886272 0)
(3.50626 -1.19826 0)
(3.40487 -1.2956 0)
(3.12251 -1.15192 0)
(3.2718 -0.638911 0)
(3.11136 -0.00642249 0)
(3.27111 0.673036 0)
(3.84231 1.28127 0)
(3.91934 1.5956 0)
(4.35689 1.95879 0)
(5.27455 1.683 0)
(5.76957 1.26152 0)
(6.55833 0.672747 0)
(7.11476 0.00703956 0)
(7.59705 -0.497637 0)
(7.43699 -0.724167 0)
(7.15579 -0.805246 0)
(6.56014 -1.04016 0)
(5.56874 -1.22827 0)
(4.79851 -1.43438 0)
(4.42485 -1.16981 0)
(4.07404 -0.469937 0)
(4.21282 0.282938 0)
(4.39992 1.05874 0)
(4.57676 0.668482 0)
(12.4283 -1.50652 0)
(7.77306 2.531 0)
(13.3312 -0.74357 0)
(9.64397 6.40601 0)
(10.9494 -1.35552 0)
(8.95121 2.83557 0)
(11.2993 0.12353 0)
(10.5166 3.971 0)
(10.1023 -0.505722 0)
(9.78381 1.24748 0)
(10.2723 0.37682 0)
(10.8184 1.14644 0)
(9.99078 -0.0860524 0)
(9.92033 0.187678 0)
(10.1734 0.148361 0)
(10.7644 0.208554 0)
(13.6831 5.32347 3.20322e-17)
(14.9026 4.40272 -6.11997e-17)
(12.9847 2.05583 0)
(12.7706 0.589987 0)
(11.6685 0.507079 0)
(12.4517 -0.00580193 0)
(11.4666 0.240169 0)
(12.1933 0.189826 0)
(11.9657 2.82897 0)
(10.2235 2.02835 0)
(8.84839 0.345168 0)
(11.5515 0.804726 0)
(12.6294 -0.779801 0)
(12.5138 -0.500297 0)
(13.2048 -0.394709 0)
(13.4972 -0.518486 0)
(13.0577 0.000551816 0)
(13.5213 0.357218 0)
(13.8161 0.546089 0)
(14.0172 0.556149 0)
(12.7465 0.210556 0)
(13.1323 0.150883 0)
(13.3291 0.0965574 0)
(13.4397 -0.0150016 0)
(9.53683 0.490156 0)
(10.1589 0.30102 0)
(10.348 0.431511 0)
(10.1939 0.292734 0)
(9.86302 -0.0328958 0)
(9.82628 -0.142053 0)
(9.88131 -0.104761 0)
(9.2875 -0.200016 0)
(9.03924 0.0281137 0)
(8.97438 0.189367 0)
(9.13507 0.243376 0)
(9.74656 0.315287 0)
(9.8822 0.171412 0)
(10.7352 -0.0457595 0)
(11.0885 -0.334848 0)
(11.5192 -0.470798 0)
(11.4026 -0.508701 0)
(10.9179 -0.502068 0)
(10.4783 -0.45604 0)
(9.16603 -0.412419 0)
(8.9091 -0.199042 0)
(7.84848 0.227893 0)
(7.93303 0.591927 0)
(8.22456 0.906667 0)
(8.30947 1.05036 0)
(9.72772 0.80313 0)
(9.82075 0.402712 0)
(11.2841 -0.152372 0)
(11.4397 -0.648322 0)
(12.3405 -1.1105 0)
(12.719 -1.41264 0)
(13.3994 -1.4834 0)
(14.4891 -1.31246 0)
(14.7079 -0.942177 0)
(14.2838 -0.685806 0)
(11.9768 -0.643098 0)
(10.0582 -0.237093 0)
(8.72675 0.162861 0)
(7.7063 0.801284 0)
(8.16194 0.632637 0)
(13.7968 -0.44144 0)
(13.7345 -0.425012 0)
(13.7654 -0.548424 0)
(13.4951 -0.548261 0)
(13.4644 -0.671698 0)
(13.3204 -0.562102 0)
(13.1511 -0.53424 0)
(13.2327 -0.41739 0)
(13.0782 -0.18523 0)
(13.1657 -0.152756 0)
(13.1848 -0.0842849 0)
(13.4434 -0.391597 0)
(13.554 -0.599016 0)
(13.4424 -1.00194 0)
(13.3316 -1.30437 0)
(12.7697 -1.3834 0)
(12.7225 -1.34639 0)
(12.1541 -0.77213 0)
(12.3051 -0.421867 0)
(11.7407 0.319654 0)
(11.951 0.508934 0)
(11.8043 0.792979 0)
(11.952 0.843962 0)
(12.3207 0.669656 0)
(12.4409 0.640454 0)
(13.1146 0.0070591 0)
(13.2934 -0.239464 0)
(13.7454 -0.923339 0)
(13.5442 -1.17365 0)
(13.1988 -1.45854 0)
(12.3913 -1.67106 0)
(11.2925 -1.58062 0)
(10.6184 -1.66169 0)
(9.87299 -0.603101 0)
(9.84974 0.239299 0)
(9.68783 1.38396 0)
(9.81375 1.80866 0)
(10.2257 1.47927 0)
(10.2188 1.56336 0)
(10.8897 0.479966 0)
(14.0572 0.460783 0)
(14.0224 0.372037 0)
(13.9057 0.203668 0)
(13.7736 0.226023 0)
(13.6536 0.169327 0)
(13.519 0.17781 0)
(13.3983 0.227007 0)
(13.3573 0.220882 0)
(13.3509 0.26818 0)
(13.4088 0.190727 0)
(13.4306 0.269826 0)
(13.4547 0.0409741 0)
(13.3229 -0.0322141 0)
(13.1484 -0.207535 0)
(12.9099 -0.171466 0)
(12.5859 -0.0402499 0)
(12.2879 0.0413358 0)
(11.8954 0.312683 0)
(11.8582 0.254307 0)
(11.8073 0.549061 0)
(12.1338 0.549678 0)
(12.3601 0.698982 0)
(12.751 0.702809 0)
(13.0244 0.5298 0)
(13.3041 0.439042 0)
(13.5151 0.00613943 0)
(13.4897 -0.177834 0)
(13.3461 -0.527703 0)
(12.9768 -0.5367 0)
(12.6767 -0.383951 0)
(12.3974 -0.228556 0)
(11.917 0.0123766 0)
(11.5014 -0.211229 0)
(10.6749 0.001332 0)
(10.6727 0.0875011 0)
(10.4608 0.602758 0)
(11.0189 0.802024 0)
(11.4381 0.725254 0)
(11.905 0.661302 0)
(12.4719 0.132855 0)
(13.442 -0.166361 0)
(13.4236 -0.242799 0)
(13.3522 -0.367977 0)
(13.2216 -0.340146 0)
(13.0686 -0.413374 0)
(12.9075 -0.392594 0)
(12.8133 -0.395339 0)
(12.6885 -0.368759 0)
(12.6921 -0.333799 0)
(12.6513 -0.368263 0)
(12.6529 -0.315752 0)
(12.5403 -0.411635 0)
(12.4046 -0.393683 0)
(12.1467 -0.457961 0)
(11.7721 -0.490639 0)
(11.4539 -0.540903 0)
(11.0858 -0.587172 0)
(10.8674 -0.443575 0)
(10.7145 -0.414938 0)
(10.8061 -0.220664 0)
(11.0956 -0.201053 0)
(11.382 -0.091999 0)
(11.8152 -0.069375 0)
(11.9507 -0.112083 0)
(12.2577 -0.113663 0)
(12.1661 -0.289063 0)
(12.2228 -0.282217 0)
(11.8167 -0.419657 0)
(11.3601 -0.45493 0)
(10.7279 -0.608814 0)
(10.1748 -0.710221 0)
(9.79725 -0.610713 0)
(9.49808 -0.507985 0)
(9.22481 -0.138319 0)
(9.44048 -0.0017341 0)
(9.50625 0.177796 0)
(10.4141 0.250912 0)
(10.6409 0.151665 0)
(11.4711 0.165596 0)
(11.5137 -0.08828 0)
)
;

boundaryField
{
    inlet
    {
        type            fixedValue;
        value           uniform (10 0 0);
    }
    outlet
    {
        type            zeroGradient;
    }
    obstacle
    {
        type            noSlip;
    }
    upperWall
    {
        type            noSlip;
    }
    lowerWall
    {
        type            noSlip;
    }
    frontAndBack
    {
        type            empty;
    }
}


// ************************************************************************* //
