/*--------------------------------*- C++ -*----------------------------------*\
  =========                 |
  \\      /  F ield         | OpenFOAM: The Open Source CFD Toolbox
   \\    /   O peration     | Website:  https://openfoam.org
    \\  /    A nd           | Version:  10
     \\/     M anipulation  |
\*---------------------------------------------------------------------------*/
FoamFile
{
    format      ascii;
    class       volVectorField;
    location    "0.675";
    object      U;
}
// * * * * * * * * * * * * * * * * * * * * * * * * * * * * * * * * * * * * * //

dimensions      [0 1 -1 0 0 0 0];

internalField   nonuniform List<vector> 
475
(
(0.940285 0.0492863 0)
(1.01293 -0.0623823 0)
(0.943712 0.0706433 0)
(0.993913 -0.059352 0)
(0.995519 0.0174246 0)
(1.01481 4.12181e-05 0)
(1.01391 -0.003208 0)
(1.01437 0.0339352 0)
(1.07637 -0.0448375 0)
(1.03515 -0.0746009 0)
(1.00971 0.0060272 0)
(0.996107 -0.0162849 0)
(1.01398 -0.0294628 0)
(1.05743 -0.0349675 0)
(1.04114 -0.0564507 0)
(1.00517 -0.0120267 0)
(1.00654 -0.0293773 0)
(1.01639 -0.0235213 0)
(1.03277 -0.0463812 0)
(1.02758 -0.0697189 0)
(0.985436 -0.009805 0)
(0.961415 -0.0193213 0)
(0.947147 -0.0256279 0)
(0.929029 -0.030576 0)
(0.869171 -0.0360362 0)
(1.03559 -0.118473 0)
(1.12896 -0.279382 0)
(1.12798 -0.418798 0)
(1.10302 -0.417123 0)
(1.01544 -0.314247 0)
(0.866876 -0.206366 0)
(0.736051 -0.136561 0)
(0.647858 -0.0972095 0)
(0.593771 -0.0727604 0)
(0.56273 -0.0550528 0)
(0.545785 -0.041265 0)
(0.536713 -0.0305001 0)
(0.531793 -0.0222773 0)
(0.529023 -0.0161367 0)
(0.527387 -0.0116255 0)
(0.526378 -0.00834556 0)
(0.525733 -0.00597615 0)
(0.525311 -0.00427168 0)
(0.52503 -0.00304917 0)
(0.524839 -0.00217421 0)
(0.524708 -0.00154888 0)
(0.524617 -0.00110238 0)
(0.524554 -0.000783792 0)
(0.52451 -0.000556715 0)
(0.52448 -0.000395101 0)
(0.524459 -0.000280267 0)
(0.524443 -0.000198768 0)
(0.524432 -0.000140926 0)
(0.524424 -9.98241e-05 0)
(0.524419 -7.05844e-05 0)
(0.524415 -4.97925e-05 0)
(0.524413 -3.50497e-05 0)
(0.524411 -2.46362e-05 0)
(0.52441 -1.73245e-05 0)
(0.524409 -1.2206e-05 0)
(0.524408 -8.62099e-06 0)
(0.524408 -6.10936e-06 0)
(0.524405 -4.34351e-06 0)
(0.524409 -3.12808e-06 0)
(0.524403 -2.26583e-06 0)
(0.524412 -1.70435e-06 0)
(0.524401 -1.44053e-06 0)
(0.52441 -1.10025e-06 0)
(0.524409 -1.25895e-06 0)
(0.524406 -1.48962e-06 0)
(1.06642 -0.0839523 0)
(1.07295 -0.240263 0)
(0.853183 -0.377469 0)
(0.624422 -0.335001 0)
(0.543472 -0.206903 0)
(0.534214 -0.108505 0)
(0.541996 -0.0649695 0)
(0.550322 -0.0516651 0)
(0.55302 -0.0456283 0)
(0.550753 -0.0388826 0)
(0.546157 -0.0313032 0)
(0.541189 -0.0241567 0)
(0.536827 -0.0181397 0)
(0.53338 -0.01339 0)
(0.530809 -0.00977648 0)
(0.528947 -0.00708699 0)
(0.52762 -0.00511189 0)
(0.526679 -0.00367377 0)
(0.526015 -0.00263285 0)
(0.525544 -0.00188275 0)
(0.52521 -0.00134405 0)
(0.524973 -0.000958093 0)
(0.524805 -0.000682044 0)
(0.524686 -0.000484867 0)
(0.524602 -0.000344235 0)
(0.524542 -0.000244116 0)
(0.5245 -0.000172979 0)
(0.524469 -0.000122524 0)
(0.524447 -8.677e-05 0)
(0.524431 -6.14157e-05 0)
(0.524421 -4.33981e-05 0)
(0.524413 -3.05696e-05 0)
(0.524408 -2.14491e-05 0)
(0.524405 -1.49937e-05 0)
(0.524402 -1.04664e-05 0)
(0.5244 -7.32817e-06 0)
(0.524399 -5.17191e-06 0)
(0.524396 -3.69538e-06 0)
(0.524398 -2.69586e-06 0)
(0.524392 -1.98197e-06 0)
(0.524401 -1.52546e-06 0)
(0.52439 -1.27085e-06 0)
(0.524399 -9.98668e-07 0)
(0.524398 -1.14235e-06 0)
(0.524395 -1.47447e-06 0)
(1.02474 -0.12938 0)
(1.03133 -0.138797 0)
(0.984796 -0.0985972 0)
(0.865214 -0.121175 0)
(0.750533 -0.160599 0)
(0.685384 -0.152307 0)
(0.647234 -0.114136 0)
(0.617556 -0.077295 0)
(0.593115 -0.0516559 0)
(0.573901 -0.0354094 0)
(0.559551 -0.025037 0)
(0.549261 -0.0180942 0)
(0.542007 -0.0132088 0)
(0.536879 -0.00965894 0)
(0.533226 -0.00704537 0)
(0.530614 -0.00511835 0)
(0.528745 -0.00370258 0)
(0.527407 -0.00266789 0)
(0.526452 -0.00191601 0)
(0.525768 -0.00137248 0)
(0.52528 -0.000981048 0)
(0.524931 -0.000699794 0)
(0.524683 -0.000498028 0)
(0.524506 -0.000353623 0)
(0.524381 -0.000250662 0)
(0.524291 -0.000177571 0)
(0.524227 -0.000125841 0)
(0.524181 -8.92166e-05 0)
(0.524149 -6.31861e-05 0)
(0.524126 -4.45913e-05 0)
(0.52411 -3.12884e-05 0)
(0.524099 -2.18325e-05 0)
(0.524091 -1.52075e-05 0)
(0.524085 -1.06352e-05 0)
(0.524081 -7.50131e-06 0)
(0.524077 -5.3527e-06 0)
(0.524076 -3.82808e-06 0)
(0.524073 -2.74132e-06 0)
(0.524075 -1.91008e-06 0)
(0.524068 -1.34524e-06 0)
(0.524077 -9.91192e-07 0)
(0.524066 -8.30957e-07 0)
(0.524075 -7.11024e-07 0)
(0.524074 -9.54537e-07 0)
(0.52407 -1.29761e-06 0)
(0.994096 -0.0666534 0)
(0.937824 -0.102911 0)
(0.880265 -0.144652 0)
(0.820536 -0.132155 0)
(0.752496 -0.0844408 0)
(0.68769 -0.0465181 0)
(0.637355 -0.0281091 0)
(0.602662 -0.0202445 0)
(0.579469 -0.0162441 0)
(0.563317 -0.0133778 0)
(0.55138 -0.010781 0)
(0.542347 -0.00840946 0)
(0.535539 -0.00639511 0)
(0.530464 -0.00478028 0)
(0.52672 -0.00353017 0)
(0.523981 -0.0025829 0)
(0.521991 -0.0018757 0)
(0.520553 -0.0013539 0)
(0.519517 -0.000972551 0)
(0.518772 -0.000695866 0)
(0.518239 -0.000496129 0)
(0.517857 -0.000352484 0)
(0.517585 -0.00024959 0)
(0.517391 -0.000176257 0)
(0.517253 -0.000124272 0)
(0.517155 -8.75565e-05 0)
(0.517085 -6.16376e-05 0)
(0.517035 -4.32941e-05 0)
(0.517 -3.02763e-05 0)
(0.516975 -2.10507e-05 0)
(0.516957 -1.45701e-05 0)
(0.516945 -1.00839e-05 0)
(0.516937 -7.00802e-06 0)
(0.51693 -4.90126e-06 0)
(0.516926 -3.42169e-06 0)
(0.516922 -2.40206e-06 0)
(0.516921 -1.58852e-06 0)
(0.516917 -1.14212e-06 0)
(0.516919 -6.36319e-07 0)
(0.516913 -5.46743e-07 0)
(0.516922 -4.7356e-07 0)
(0.516911 -2.25693e-07 0)
(0.516919 -5.56207e-07 0)
(0.516918 -6.93746e-07 0)
(0.516914 -8.98776e-07 0)
(0.803928 -0.0436748 0)
(0.753559 -0.0358517 0)
(0.687565 -0.0187332 0)
(0.608741 -0.0122207 0)
(0.545656 -0.0128989 0)
(0.505416 -0.0133352 0)
(0.479978 -0.0112984 0)
(0.462068 -0.00809659 0)
(0.448759 -0.00534545 0)
(0.438863 -0.00355664 0)
(0.431473 -0.00246395 0)
(0.425899 -0.00176238 0)
(0.421701 -0.00128561 0)
(0.418567 -0.000944523 0)
(0.416249 -0.000692711 0)
(0.414548 -0.000504776 0)
(0.413311 -0.000364833 0)
(0.412416 -0.000261512 0)
(0.411774 -0.000186015 0)
(0.411315 -0.000131384 0)
(0.410988 -9.21774e-05 0)
(0.410756 -6.42445e-05 0)
(0.410592 -4.4488e-05 0)
(0.410477 -3.06216e-05 0)
(0.410397 -2.09633e-05 0)
(0.41034 -1.42781e-05 0)
(0.410301 -9.66855e-06 0)
(0.410273 -6.49524e-06 0)
(0.410254 -4.31463e-06 0)
(0.410241 -2.82576e-06 0)
(0.410232 -1.82352e-06 0)
(0.410226 -1.16263e-06 0)
(0.410222 -7.30282e-07 0)
(0.410219 -4.61698e-07 0)
(0.410217 -2.88946e-07 0)
(0.410215 -1.92281e-07 0)
(0.410214 -6.20264e-08 0)
(0.410213 -7.71023e-08 0)
(0.410214 6.40244e-08 0)
(0.410211 -4.45395e-08 0)
(0.410217 -3.81079e-08 0)
(0.410209 1.42489e-07 0)
(0.410216 -2.03956e-07 0)
(0.410214 -2.49687e-07 0)
(0.410211 -3.72418e-07 0)
(-0.0407086 -0.00968237 0)
(-0.0595428 -0.0166144 0)
(-0.0199389 -0.0234689 0)
(0.0388953 -0.0339447 0)
(0.121275 -0.0354187 0)
(0.194972 -0.0311083 0)
(0.256214 -0.0244539 0)
(0.302941 -0.0178823 0)
(0.336652 -0.0124873 0)
(0.360145 -0.00847931 0)
(0.376202 -0.00566961 0)
(0.387079 -0.00376511 0)
(0.39443 -0.00249729 0)
(0.399407 -0.00165954 0)
(0.40279 -0.0011065 0)
(0.405098 -0.000740834 0)
(0.406678 -0.000498424 0)
(0.407765 -0.000336875 0)
(0.408515 -0.000228305 0)
(0.409036 -0.000154764 0)
(0.409397 -0.000104849 0)
(0.409647 -7.11155e-05 0)
(0.40982 -4.83972e-05 0)
(0.40994 -3.30039e-05 0)
(0.410024 -2.24138e-05 0)
(0.410083 -1.50394e-05 0)
(0.410124 -9.93062e-06 0)
(0.410153 -6.48803e-06 0)
(0.410171 -4.26563e-06 0)
(0.410184 -2.86473e-06 0)
(0.410193 -1.94756e-06 0)
(0.410199 -1.30651e-06 0)
(0.410204 -8.30395e-07 0)
(0.410207 -4.60351e-07 0)
(0.410209 -2.17057e-07 0)
(0.410211 -7.38466e-08 0)
(0.410212 -8.43799e-08 0)
(0.410211 -2.51422e-08 0)
(0.410213 -1.55065e-07 0)
(0.41021 -4.9592e-08 0)
(0.410216 -4.10143e-08 0)
(0.41021 -1.92075e-07 0)
(0.410216 1.21868e-07 0)
(0.410217 1.49711e-07 0)
(0.410213 7.39628e-08 0)
(-0.034712 0.122945 0)
(-0.0674433 0.00282997 0)
(-0.0153463 -0.0643673 0)
(0.0569451 -0.113405 0)
(0.162241 -0.121494 0)
(0.254658 -0.107161 0)
(0.3293 -0.0847624 0)
(0.385061 -0.0627674 0)
(0.42495 -0.0446725 0)
(0.452881 -0.0310835 0)
(0.472271 -0.0213788 0)
(0.485712 -0.0146363 0)
(0.495045 -0.0100164 0)
(0.501548 -0.00686786 0)
(0.506095 -0.00472319 0)
(0.509282 -0.00325977 0)
(0.511522 -0.00225819 0)
(0.5131 -0.0015696 0)
(0.514215 -0.00109353 0)
(0.515004 -0.000762856 0)
(0.515562 -0.000532731 0)
(0.515957 -0.000372624 0)
(0.516236 -0.000261148 0)
(0.516434 -0.000183195 0)
(0.516574 -0.00012833 0)
(0.516675 -8.95787e-05 0)
(0.516746 -6.23155e-05 0)
(0.516796 -4.33375e-05 0)
(0.516831 -3.02742e-05 0)
(0.516855 -2.12945e-05 0)
(0.516873 -1.50255e-05 0)
(0.516885 -1.05464e-05 0)
(0.516894 -7.28831e-06 0)
(0.516901 -4.90078e-06 0)
(0.516905 -3.2222e-06 0)
(0.516908 -2.08096e-06 0)
(0.516911 -1.46071e-06 0)
(0.516911 -9.75374e-07 0)
(0.516915 -8.95702e-07 0)
(0.51691 -6.08183e-07 0)
(0.516919 -4.6518e-07 0)
(0.51691 -6.12642e-07 0)
(0.516918 -1.61749e-07 0)
(0.516919 -1.23276e-07 0)
(0.516916 -2.89925e-07 0)
(-0.127376 0.0586692 0)
(-0.153768 -0.0474036 0)
(-0.0394667 -0.159372 0)
(0.056161 -0.225917 0)
(0.18154 -0.231792 0)
(0.283791 -0.19641 0)
(0.360463 -0.15046 0)
(0.413264 -0.109152 0)
(0.448345 -0.0769155 0)
(0.471646 -0.0534373 0)
(0.487374 -0.0369257 0)
(0.498184 -0.0255039 0)
(0.505722 -0.017651 0)
(0.511029 -0.0122537 0)
(0.514788 -0.00853534 0)
(0.517458 -0.00596506 0)
(0.519358 -0.0041812 0)
(0.520712 -0.00293764 0)
(0.521678 -0.00206719 0)
(0.522368 -0.0014563 0)
(0.522859 -0.0010271 0)
(0.523209 -0.000725301 0)
(0.523457 -0.000512626 0)
(0.523634 -0.000362235 0)
(0.52376 -0.000255614 0)
(0.523851 -0.000180085 0)
(0.523916 -0.000126826 0)
(0.523961 -8.94711e-05 0)
(0.523993 -6.33021e-05 0)
(0.524015 -4.48629e-05 0)
(0.524031 -3.17332e-05 0)
(0.524042 -2.22912e-05 0)
(0.524051 -1.54932e-05 0)
(0.524057 -1.06673e-05 0)
(0.524062 -7.34322e-06 0)
(0.524064 -5.1112e-06 0)
(0.524067 -3.65889e-06 0)
(0.524066 -2.64683e-06 0)
(0.52407 -1.99738e-06 0)
(0.524065 -1.44927e-06 0)
(0.524075 -1.07836e-06 0)
(0.524065 -9.01605e-07 0)
(0.524074 -5.89602e-07 0)
(0.524074 -6.18979e-07 0)
(0.524071 -8.36567e-07 0)
(-0.0537506 0.447341 0)
(0.00741207 -0.0700839 0)
(0.124567 -0.271451 0)
(0.208073 -0.352081 0)
(0.294471 -0.349762 0)
(0.370224 -0.287315 0)
(0.425504 -0.210836 0)
(0.461097 -0.146745 0)
(0.482624 -0.100432 0)
(0.49568 -0.0686941 0)
(0.504015 -0.0472171 0)
(0.509672 -0.0326532 0)
(0.513685 -0.0227103 0)
(0.516598 -0.0158703 0)
(0.518729 -0.0111329 0)
(0.520289 -0.00783345 0)
(0.521428 -0.00552482 0)
(0.522257 -0.003903 0)
(0.522859 -0.00276008 0)
(0.523294 -0.0019531 0)
(0.523607 -0.00138285 0)
(0.523832 -0.000979659 0)
(0.523992 -0.000694262 0)
(0.524108 -0.000491884 0)
(0.524191 -0.000348182 0)
(0.52425 -0.000246176 0)
(0.524292 -0.000173934 0)
(0.524322 -0.000122938 0)
(0.524343 -8.70142e-05 0)
(0.524358 -6.16744e-05 0)
(0.524368 -4.36961e-05 0)
(0.524376 -3.08301e-05 0)
(0.524382 -2.15858e-05 0)
(0.524386 -1.49806e-05 0)
(0.524389 -1.03504e-05 0)
(0.52439 -7.18162e-06 0)
(0.524392 -5.07974e-06 0)
(0.524391 -3.66603e-06 0)
(0.524395 -2.75368e-06 0)
(0.52439 -2.0706e-06 0)
(0.524399 -1.59857e-06 0)
(0.52439 -1.31365e-06 0)
(0.524398 -9.55315e-07 0)
(0.524398 -9.24816e-07 0)
(0.524395 -1.13774e-06 0)
(0.325318 0.00844726 0)
(0.356295 -0.224651 0)
(0.552271 -0.388736 0)
(0.620663 -0.43601 0)
(0.604696 -0.403569 0)
(0.575766 -0.332963 0)
(0.553966 -0.24751 0)
(0.539212 -0.170649 0)
(0.530442 -0.113875 0)
(0.525858 -0.0759515 0)
(0.523704 -0.0513912 0)
(0.522851 -0.0353516 0)
(0.52267 -0.024634 0)
(0.522802 -0.0173113 0)
(0.523052 -0.0122272 0)
(0.52332 -0.00866139 0)
(0.523563 -0.00614516 0)
(0.523767 -0.00436336 0)
(0.523931 -0.00309925 0)
(0.524057 -0.00220162 0)
(0.524151 -0.00156397 0)
(0.52422 -0.0011108 0)
(0.524271 -0.000788601 0)
(0.524308 -0.00055946 0)
(0.524337 -0.000396586 0)
(0.524357 -0.000280976 0)
(0.524372 -0.000199055 0)
(0.524381 -0.000141059 0)
(0.524388 -9.99662e-05 0)
(0.524393 -7.07852e-05 0)
(0.524396 -5.00073e-05 0)
(0.524399 -3.52002e-05 0)
(0.524402 -2.4678e-05 0)
(0.524403 -1.72678e-05 0)
(0.524404 -1.20965e-05 0)
(0.524405 -8.50766e-06 0)
(0.524405 -6.0328e-06 0)
(0.524404 -4.31541e-06 0)
(0.524407 -3.14329e-06 0)
(0.524402 -2.29596e-06 0)
(0.524411 -1.71711e-06 0)
(0.524401 -1.4217e-06 0)
(0.52441 -1.06485e-06 0)
(0.524409 -1.16082e-06 0)
(0.524406 -1.37901e-06 0)
)
;

boundaryField
{
    inlet
    {
        type            fixedValue;
        value           uniform (1 0 0);
    }
    outlet
    {
        type            zeroGradient;
    }
    upperWall
    {
        type            noSlip;
    }
    lowerWall
    {
        type            noSlip;
    }
    frontAndBack
    {
        type            empty;
    }
}


// ************************************************************************* //
