/*--------------------------------*- C++ -*----------------------------------*\
  =========                 |
  \\      /  F ield         | OpenFOAM: The Open Source CFD Toolbox
   \\    /   O peration     | Website:  https://openfoam.org
    \\  /    A nd           | Version:  10
     \\/     M anipulation  |
\*---------------------------------------------------------------------------*/
FoamFile
{
    format      ascii;
    class       volScalarField;
    location    "4.85";
    object      p;
}
// * * * * * * * * * * * * * * * * * * * * * * * * * * * * * * * * * * * * * //

dimensions      [0 2 -2 0 0 0 0];

internalField   nonuniform List<scalar> 
400
(
1.24619e-09
-2.50887e-05
4.76227e-06
6.62621e-05
0.00016562
0.000303669
0.00048142
0.000699796
0.000958916
0.00125747
0.00159207
0.00195652
0.00234135
0.00273262
0.00311247
0.00345952
0.00374989
0.00395993
0.00408435
0.00407108
2.57709e-05
-1.62157e-07
3.23164e-05
9.26665e-05
0.000188641
0.000321754
0.000493477
0.000705119
0.000957176
0.00124877
0.00157696
0.00193566
0.00231678
0.00270634
0.00308667
0.00343626
0.00373053
0.00394545
0.00407697
0.00406218
-8.33463e-06
-4.00112e-05
-9.15201e-06
4.82258e-05
0.000140684
0.000269994
0.000438099
0.00064697
0.000897907
0.00119093
0.00152405
0.00189285
0.00228898
0.00269902
0.00310453
0.00348209
0.00380372
0.0040405
0.0041867
0.00416567
-8.15188e-05
-0.000117638
-8.91889e-05
-3.59223e-05
5.16584e-05
0.000175742
0.000339014
0.000544468
0.000794657
0.0010911
0.00143339
0.001818
0.00223964
0.0026844
0.00313325
0.00355959
0.0039295
0.00420577
0.00437898
0.00435497
-0.000199467
-0.000240115
-0.000215054
-0.000167145
-8.58552e-05
3.15414e-05
0.000188684
0.000389909
0.0006395
0.000941103
0.00129692
0.00170679
0.00216324
0.00265806
0.00317066
0.00367064
0.00411611
0.00445595
0.00467331
0.00464911
-0.000361915
-0.000407849
-0.000387284
-0.000346384
-0.00027351
-0.00016533
-1.70911e-05
0.000177152
0.00042384
0.000729374
0.00109918
0.00153623
0.00203918
0.00260056
0.00320076
0.00380565
0.0043631
0.00480163
0.00508917
0.00507028
-0.000568239
-0.000620549
-0.000605792
-0.000574117
-0.000512722
-0.000417694
-0.000283096
-0.000101181
0.000137025
0.000441389
0.000821847
0.00128676
0.0018408
0.00248269
0.00319585
0.00394413
0.00466344
0.00525455
0.00565436
0.00565579
-0.000817938
-0.000877946
-0.000870528
-0.00085084
-0.000804948
-0.000728515
-0.000614509
-0.000453371
-0.000233373
5.93957e-05
0.000440624
0.000926342
0.00152945
0.00225966
0.00310948
0.00404619
0.0049949
0.00582251
0.006406
0.00646873
-0.00111038
-0.00117954
-0.00118102
-0.00117644
-0.00115086
-0.00109988
-0.00101571
-0.000887268
-0.00070023
-0.000436503
-7.38978e-05
0.000413402
0.00105313
0.00186297
0.00286358
0.0040347
0.0053001
0.00649251
0.00738852
0.00761962
-0.00144478
-0.00152453
-0.00153617
-0.00154973
-0.00154963
-0.00153197
-0.00148888
-0.00140847
-0.00127461
-0.00106569
-0.000753462
-0.000301812
0.000332371
0.00119438
0.0023327
0.00376437
0.00544384
0.00719398
0.00864571
0.00930845
-0.00182047
-0.00191209
-0.0019341
-0.00196805
-0.00199812
-0.00202181
-0.00203216
-0.00201777
-0.0019623
-0.00184271
-0.00162686
-0.00127037
-0.000713151
0.00012203
0.00130936
0.00295635
0.00511082
0.00767975
0.0101343
0.0118156
-0.00223767
-0.00234182
-0.00237231
-0.00242689
-0.00249015
-0.002562
-0.00263769
-0.00270794
-0.00275872
-0.00276929
-0.00270911
-0.00253281
-0.00217233
-0.0015285
-0.000476538
0.00112917
0.00359125
0.00713639
0.011249
0.0148987
-0.00269918
-0.00281539
-0.00284853
-0.00292036
-0.00301611
-0.00313962
-0.00328984
-0.00346128
-0.00364522
-0.00382834
-0.00399014
-0.00409882
-0.00410453
-0.00392958
-0.00346429
-0.00253975
-0.000695247
0.00317641
0.00908534
0.0159605
-0.00321018
-0.00332996
-0.00334993
-0.00342931
-0.00355434
-0.00373133
-0.00396161
-0.00424517
-0.00458169
-0.00497043
-0.00541059
-0.00590213
-0.00645029
-0.00708045
-0.00790319
-0.00907832
-0.0102605
-0.00852924
-0.00216075
0.00904183
-0.00380402
-0.00393981
-0.00393425
-0.00401414
-0.00414833
-0.00435579
-0.00464719
-0.00503163
-0.00551982
-0.00612789
-0.00688399
-0.00783671
-0.00908771
-0.0108365
-0.0136014
-0.0181608
-0.0251484
-0.0276337
-0.0218918
-0.00525338
-0.00455903
-0.0044933
-0.00438741
-0.00439156
-0.00452521
-0.00478707
-0.00517246
-0.00568236
-0.00633052
-0.00714435
-0.00817959
-0.00954077
-0.0114496
-0.014244
-0.0189509
-0.0264883
-0.0392608
-0.0462646
-0.042345
-0.0184797
-0.00503878
-0.00547377
-0.00523636
-0.00530851
-0.00538117
-0.00558293
-0.00592773
-0.00643633
-0.00713067
-0.00804026
-0.00923258
-0.0108145
-0.013108
-0.0163814
-0.0222606
-0.0303465
-0.045859
-0.0541711
-0.0502159
-0.0141062
-0.00835638
-0.00583767
-0.00529673
-0.00484047
-0.00489305
-0.00521392
-0.00574294
-0.00643226
-0.00729374
-0.0083346
-0.00964529
-0.0112723
-0.0136603
-0.0167455
-0.022369
-0.0301141
-0.041992
-0.046364
-0.0357
0.0172659
-0.00514873
-0.00808085
-0.00713932
-0.00727821
-0.00700375
-0.00695795
-0.00711375
-0.00750492
-0.00815592
-0.00901602
-0.0101844
-0.0116138
-0.0137792
-0.0166607
-0.0217601
-0.0280247
-0.0361121
-0.0302542
-0.00284394
0.0818799
-0.0300763
-0.00510144
-0.00381794
-0.00319655
-0.00314496
-0.00355827
-0.00432379
-0.00519054
-0.00628029
-0.00744587
-0.00894318
-0.0106964
-0.0130639
-0.0159235
-0.0194571
-0.020992
-0.0175145
0.0113012
0.0812535
0.220126
)
;

boundaryField
{
    movingWall
    {
        type            zeroGradient;
    }
    fixedWalls
    {
        type            zeroGradient;
    }
    frontAndBack
    {
        type            empty;
    }
}


// ************************************************************************* //
