/*--------------------------------*- C++ -*----------------------------------*\
  =========                 |
  \\      /  F ield         | OpenFOAM: The Open Source CFD Toolbox
   \\    /   O peration     | Website:  https://openfoam.org
    \\  /    A nd           | Version:  10
     \\/     M anipulation  |
\*---------------------------------------------------------------------------*/
FoamFile
{
    format      ascii;
    class       surfaceScalarField;
    location    "6.6";
    object      phi;
}
// * * * * * * * * * * * * * * * * * * * * * * * * * * * * * * * * * * * * * //

dimensions      [0 3 -1 0 0 0 0];

internalField   nonuniform List<scalar> 
22800
(
-2.49386e-06
3.03625e-06
-5.46156e-07
-8.00941e-06
5.64646e-06
-1.3091e-07
-1.45526e-05
6.46838e-06
7.47912e-08
-2.14634e-05
6.72098e-06
1.89879e-07
-2.84696e-05
6.81279e-06
1.93419e-07
-3.54459e-05
6.85435e-06
1.21884e-07
-4.22653e-05
6.83426e-06
-1.48177e-08
-4.87727e-05
6.69923e-06
-1.91841e-07
-5.47176e-05
6.39147e-06
-4.46553e-07
-5.97742e-05
5.84253e-06
-7.85998e-07
-6.35343e-05
4.981e-06
-1.22081e-06
-6.552e-05
3.74336e-06
-1.75775e-06
-6.52187e-05
2.09288e-06
-2.39414e-06
-6.2125e-05
2.29419e-08
-3.11664e-06
-5.58894e-05
-2.36653e-06
-3.86906e-06
-4.64404e-05
-4.89942e-06
-4.54958e-06
-3.42034e-05
-7.21619e-06
-5.0208e-06
-2.0371e-05
-8.74173e-06
-5.09067e-06
-7.17257e-06
-8.59214e-06
-4.60632e-06
-4.61124e-06
-2.56133e-06
-4.96952e-06
9.60762e-06
-1.60185e-06
-1.43479e-05
1.637e-05
-1.34516e-06
-2.5211e-05
1.84932e-05
-1.16175e-06
-3.65509e-05
1.90641e-05
-1.00317e-06
-4.79244e-05
1.91219e-05
-9.35616e-07
-5.9089e-05
1.89535e-05
-9.34549e-07
-6.98203e-05
1.85556e-05
-9.90042e-07
-7.98371e-05
1.78273e-05
-1.11126e-06
-8.87674e-05
1.66346e-05
-1.31284e-06
-9.61349e-05
1.48226e-05
-1.61253e-06
-0.000101354
1.22279e-05
-2.02791e-06
-0.000103742
8.703e-06
-2.5715e-06
-0.000102611
4.20429e-06
-3.24201e-06
-9.73103e-05
-1.23901e-06
-4.03916e-06
-8.7291e-05
-7.52665e-06
-4.85915e-06
-7.2508e-05
-1.40684e-05
-5.61407e-06
-5.3597e-05
-2.00117e-05
-6.11553e-06
-3.22937e-05
-2.39242e-05
-6.12076e-06
-1.18747e-05
-2.35838e-05
-5.42747e-06
-1.37718e-05
-2.71409e-06
-5.81808e-06
1.75965e-05
-2.17082e-06
-1.66239e-05
2.92074e-05
-2.03159e-06
-2.90427e-05
3.27771e-05
-1.86508e-06
-4.19407e-05
3.36349e-05
-1.67276e-06
-5.48355e-05
3.3578e-05
-1.56142e-06
-6.74696e-05
3.30983e-05
-1.51068e-06
-7.96077e-05
3.2208e-05
-1.51434e-06
-9.09558e-05
3.07616e-05
-1.58621e-06
-0.000101124
2.85503e-05
-1.74752e-06
-0.000109606
2.5328e-05
-2.02363e-06
-0.000115771
2.0833e-05
-2.44015e-06
-0.000118877
1.48271e-05
-3.01829e-06
-0.000118069
7.16771e-06
-3.77131e-06
-0.000112489
-2.13995e-06
-4.67918e-06
-0.000101463
-1.28893e-05
-5.66269e-06
-8.4759e-05
-2.41752e-05
-6.59739e-06
-6.29711e-05
-3.45554e-05
-7.24413e-06
-3.80639e-05
-4.15439e-05
-7.28752e-06
-1.39752e-05
-4.1213e-05
-6.4595e-06
-2.4596e-05
-3.151e-06
-6.03969e-06
2.62397e-05
-2.60347e-06
-1.7366e-05
4.3113e-05
-2.5793e-06
-3.03726e-05
4.8219e-05
-2.43529e-06
-4.38905e-05
4.93786e-05
-2.22582e-06
-5.74478e-05
4.92242e-05
-2.08882e-06
-7.08153e-05
4.84742e-05
-2.00839e-06
-8.37899e-05
4.71656e-05
-1.98296e-06
-9.61086e-05
4.51131e-05
-2.03287e-06
-0.000107407
4.20345e-05
-2.18615e-06
-0.000117182
3.75809e-05
-2.47734e-06
-0.00012477
3.13644e-05
-2.94379e-06
-0.000129326
2.30044e-05
-3.62096e-06
-0.000129839
1.222e-05
-4.53964e-06
-0.00012524
-1.03362e-06
-5.70495e-06
-0.000114399
-1.67297e-05
-7.00063e-06
-9.67238e-05
-3.35673e-05
-8.28316e-06
-7.25757e-05
-4.94748e-05
-9.22867e-06
-4.41059e-05
-6.06177e-05
-9.39603e-06
-1.61158e-05
-6.07975e-05
-8.40556e-06
-3.65185e-05
-4.19321e-06
-6.04345e-06
3.52377e-05
-2.95458e-06
-1.7604e-05
5.77035e-05
-3.02995e-06
-3.09278e-05
6.44517e-05
-2.90892e-06
-4.48303e-05
6.59751e-05
-2.69395e-06
-5.88668e-05
6.58108e-05
-2.55021e-06
-7.28567e-05
6.4931e-05
-2.46688e-06
-8.66559e-05
6.34114e-05
-2.4466e-06
-0.000100063
6.10367e-05
-2.51612e-06
-0.000112771
5.74549e-05
-2.71292e-06
-0.000124312
5.22058e-05
-3.08419e-06
-0.000134002
4.47402e-05
-3.68528e-06
-0.000140895
3.44709e-05
-4.5733e-06
-0.000143745
2.08697e-05
-5.79961e-06
-0.000141085
3.69112e-06
-7.38534e-06
-0.000131282
-1.7279e-05
-9.25323e-06
-0.000113017
-4.0661e-05
-1.11721e-05
-8.61522e-05
-6.36357e-05
-1.27035e-05
-5.29144e-05
-8.06769e-05
-1.31786e-05
-1.9344e-05
-8.24115e-05
-1.19563e-05
-4.96626e-05
-6.19994e-06
-5.97823e-06
4.45085e-05
-3.29255e-06
-1.77008e-05
7.28916e-05
-3.46551e-06
-3.12863e-05
8.1407e-05
-3.3699e-06
-4.55319e-05
8.33781e-05
-3.1574e-06
-6.00273e-05
8.33245e-05
-3.01831e-06
-7.46564e-05
8.25087e-05
-2.9486e-06
-8.93576e-05
8.10695e-05
-2.95691e-06
-0.000104024
7.87803e-05
-3.07759e-06
-0.000118442
7.52334e-05
-3.36009e-06
-0.000132227
6.98598e-05
-3.86936e-06
-0.000144727
6.19271e-05
-4.68663e-06
-0.000154919
5.05671e-05
-5.90437e-06
-0.000161317
3.48798e-05
-7.61202e-06
-0.000161895
1.41521e-05
-9.88308e-06
-0.000154357
-1.20896e-05
-1.27274e-05
-0.000136197
-4.30369e-05
-1.5784e-05
-0.000106259
-7.51322e-05
-1.84415e-05
-6.64852e-05
-0.000100819
-1.96316e-05
-2.46181e-05
-0.000106131
-1.81476e-05
-6.45115e-05
-9.76925e-06
-5.87884e-06
5.40555e-05
-3.66811e-06
-1.77434e-05
8.87082e-05
-3.95207e-06
-3.15703e-05
9.91188e-05
-3.8848e-06
-4.61279e-05
0.000101612
-3.67623e-06
-6.10444e-05
0.000101784
-3.54312e-06
-7.62828e-05
0.000101238
-3.49092e-06
-9.18886e-05
0.000100212
-3.53665e-06
-0.000107886
9.85031e-05
-3.72541e-06
-0.000124212
9.56825e-05
-4.12284e-06
-0.000140633
9.10998e-05
-4.81947e-06
-0.000156617
8.38482e-05
-5.93657e-06
-0.000171163
7.27407e-05
-7.62799e-06
-0.000182571
5.63553e-05
-1.00673e-05
-0.000188281
3.32543e-05
-1.33921e-05
-0.000185132
2.64128e-06
-1.78804e-05
-0.000168715
-3.65238e-05
-2.29298e-05
-0.00013607
-7.99839e-05
-2.77933e-05
-8.78632e-05
-0.000118314
-3.07119e-05
-3.37285e-05
-0.000131073
-2.91927e-05
-8.19099e-05
-1.63301e-05
-5.74897e-06
6.3918e-05
-4.11362e-06
-1.77412e-05
0.000105232
-4.53198e-06
-3.1772e-05
0.000117644
-4.49407e-06
-4.65632e-05
0.000120685
-4.28225e-06
-6.17825e-05
0.000121149
-4.14573e-06
-7.74842e-05
0.000121042
-4.10218e-06
-9.38443e-05
0.000120752
-4.18003e-06
-0.000111058
0.000120156
-4.43889e-06
-0.000129278
0.000118868
-4.96605e-06
-0.000148519
0.000116228
-5.88771e-06
-0.000168513
0.000111227
-7.38509e-06
-0.000188468
0.000102407
-9.71119e-06
-0.000206722
8.77989e-05
-1.31893e-05
-0.000220286
6.50073e-05
-1.8189e-05
-0.000224392
3.16921e-05
-2.4945e-05
-0.000213426
-1.37818e-05
-3.37081e-05
-0.000180437
-7.00668e-05
-4.29061e-05
-0.000122768
-0.000126032
-4.99507e-05
-5.07399e-05
-0.000153406
-4.96946e-05
-0.000102969
-2.96804e-05
-5.60275e-06
7.41794e-05
-4.65865e-06
-1.77186e-05
0.000122592
-5.24381e-06
-3.18928e-05
0.000137051
-5.23275e-06
-4.67772e-05
0.00014057
-5.00065e-06
-6.20759e-05
0.000141286
-4.8384e-06
-7.79404e-05
0.000141685
-4.77908e-06
-9.46938e-05
0.000142372
-4.866e-06
-0.000112736
0.000143375
-5.17727e-06
-0.000132493
0.000144453
-5.82756e-06
-0.000154344
0.000145069
-6.98953e-06
-0.000178464
0.000144275
-8.92779e-06
-0.000204546
0.000140531
-1.20427e-05
-0.000231325
0.000131483
-1.69047e-05
-0.000255887
0.000113787
-2.42187e-05
-0.000272782
8.32859e-05
-3.46987e-05
-0.000273449
3.61267e-05
-4.92412e-05
-0.000246728
-3.01591e-05
-6.66293e-05
-0.000181942
-0.000108213
-8.2604e-05
-8.47697e-05
-0.000163352
-8.72265e-05
-0.000129429
-5.83105e-05
-5.48985e-06
8.50116e-05
-5.34226e-06
-1.77675e-05
0.000141006
-6.13665e-06
-3.20184e-05
0.000157446
-6.14433e-06
-4.67968e-05
0.000161211
-5.86185e-06
-6.18374e-05
0.000161962
-5.63482e-06
-7.73898e-05
0.000162753
-5.51565e-06
-9.39236e-05
0.000164471
-5.56555e-06
-0.000112048
0.000167383
-5.88355e-06
-0.000132498
0.00017152
-6.61675e-06
-0.000156104
0.00017667
-7.99575e-06
-0.000183684
0.000182247
-1.03912e-05
-0.000215784
0.000187024
-1.43925e-05
-0.000252164
0.000188785
-2.09223e-05
-0.000290918
0.000183825
-3.12832e-05
-0.000327099
0.000166493
-4.70265e-05
-0.000350456
0.000128925
-6.9441e-05
-0.000343717
6.23322e-05
-9.92294e-05
-0.000283103
-3.87316e-05
-0.000130096
-0.000154151
-0.0001472
-0.000145104
-0.000170384
-0.000113195
-5.52506e-06
9.67634e-05
-6.22678e-06
-1.81037e-05
0.000160869
-7.28421e-06
-3.23892e-05
0.000179025
-7.29356e-06
-4.68172e-05
0.000182551
-6.91208e-06
-6.11501e-05
0.000182853
-6.55892e-06
-7.57361e-05
0.00018365
-6.31061e-06
-9.11693e-05
0.000186153
-6.24889e-06
-0.000108231
0.000190937
-6.49281e-06
-0.000127921
0.000198431
-7.22002e-06
-0.000151505
0.000208974
-8.72011e-06
-0.000180528
0.000222736
-1.14655e-05
-0.00021674
0.000239479
-1.62442e-05
-0.00026172
0.000258127
-2.43618e-05
-0.000316078
0.000275915
-3.77324e-05
-0.000377949
0.000286964
-5.86005e-05
-0.000439148
0.000278548
-8.84249e-05
-0.00047622
0.000224849
-0.000125444
-0.000441558
8.61835e-05
-0.000159577
-0.000281608
-0.000130122
-0.000177028
-0.000276879
-0.000175113
-5.93836e-06
0.000110124
-7.42206e-06
-1.91433e-05
0.000182888
-8.81432e-06
-3.34853e-05
0.000202168
-8.80052e-06
-4.72882e-05
0.000204598
-8.24461e-06
-6.03676e-05
0.000203601
-7.66842e-06
-7.31766e-05
0.000203645
-7.18566e-06
-8.63918e-05
0.00020627
-6.90197e-06
-0.000100869
0.000212365
-6.95151e-06
-0.000117736
0.00022283
-7.53201e-06
-0.000138517
0.000238732
-8.97563e-06
-0.000165321
0.000261353
-1.18132e-05
-0.000201018
0.000292093
-1.69168e-05
-0.000249422
0.000332193
-2.56615e-05
-0.000315226
0.000381254
-3.9535e-05
-0.000403063
0.000433301
-5.8499e-05
-0.000510949
0.000463612
-7.71783e-05
-0.000617899
0.000413192
-8.13932e-05
-0.000645704
0.000169752
-5.57638e-05
-0.000462504
-0.000268844
-4.44787e-05
-0.000590817
-0.000148566
-7.16339e-06
0.000126395
-9.10778e-06
-2.16232e-05
0.000208214
-1.08661e-05
-3.61361e-05
0.000227414
-1.07336e-05
-4.90111e-05
0.000227345
-9.87153e-06
-6.02165e-05
0.000223756
-8.94985e-06
-7.0327e-05
0.000221873
-8.11769e-06
-8.00609e-05
0.000223494
-7.48938e-06
-9.01794e-05
0.000229677
-7.19289e-06
-0.000101665
0.000241742
-7.42743e-06
-0.000115909
0.000261479
-8.50337e-06
-0.000135055
0.000291408
-1.09094e-05
-0.000162432
0.000334691
-1.5221e-05
-0.000203683
0.000395299
-2.18551e-05
-0.000268046
0.000474275
-2.86569e-05
-0.000372209
0.000562726
-2.52626e-05
-0.000533409
0.000612613
1.2199e-05
-0.000751057
0.000513948
0.000116892
-0.000893615
5.19452e-05
0.000260365
-0.000657732
-0.000775699
0.000270973
-0.00123277
-1.57767e-05
-1.01959e-05
0.000148414
-1.18234e-05
-2.69838e-05
0.000239227
-1.42251e-05
-4.1725e-05
0.000256165
-1.40099e-05
-5.31189e-05
0.000251403
-1.26644e-05
-6.16823e-05
0.000243396
-1.10758e-05
-6.82147e-05
0.000237946
-9.54113e-06
-7.32914e-05
0.000236822
-8.25124e-06
-7.73952e-05
0.000241146
-7.3656e-06
-8.10431e-05
0.000252422
-7.03212e-06
-8.49199e-05
0.000272814
-7.45746e-06
-9.04105e-05
0.000305794
-8.89484e-06
-0.000100202
0.00035549
-1.10073e-05
-0.000121493
0.000428284
-1.1694e-05
-0.00016997
0.000523984
-1.23225e-06
-0.000288075
0.000633218
4.76129e-05
-0.000535464
0.000677598
0.000182403
-0.000926631
0.000478878
0.000426237
-0.00114947
-0.000360254
0.000635038
-0.000818337
-0.001605
0.000498173
-0.00208345
3.23386e-05
-1.55191e-05
0.00017968
-1.57463e-05
-3.59676e-05
0.000277629
-1.79526e-05
-5.13757e-05
0.000288768
-1.71951e-05
-6.16054e-05
0.000276559
-1.49264e-05
-6.72081e-05
0.000261578
-1.25796e-05
-6.92856e-05
0.000250382
-1.03581e-05
-6.84974e-05
0.000244469
-8.43562e-06
-6.4993e-05
0.000244569
-6.92734e-06
-5.85679e-05
0.00025194
-5.94354e-06
-4.8681e-05
0.00026845
-5.52284e-06
-3.52468e-05
0.000297928
-5.56832e-06
-1.94935e-05
0.000344107
-4.37056e-06
-9.79444e-06
0.000415464
3.12053e-06
-3.24178e-05
0.000511268
3.53398e-05
-0.000157731
0.000626181
0.00013235
-0.00048881
0.000657199
0.000351479
-0.00100983
0.000335412
0.000664483
-0.00125032
-0.000900316
0.000780554
-0.000928809
-0.00234151
0.000414997
-0.00292099
-9.12705e-05
-3.66161e-05
0.000240168
-2.38723e-05
-6.05252e-05
0.000329532
-2.79946e-05
-7.27601e-05
0.000327231
-2.6228e-05
-7.63663e-05
0.000302654
-2.2489e-05
-7.53894e-05
0.00027872
-1.8119e-05
-7.13433e-05
0.00026028
-1.39437e-05
-6.43465e-05
0.000247785
-1.03128e-05
-5.34781e-05
0.000241103
-7.40174e-06
-3.73828e-05
0.000241157
-5.31175e-06
-1.379e-05
0.000248771
-3.9145e-06
1.9494e-05
0.000267524
-2.8801e-06
6.29078e-05
0.000300101
5.9198e-07
0.000111083
0.000354353
1.29361e-05
0.000138781
0.000427704
5.58653e-05
6.28359e-05
0.000527186
0.00017494
-0.000233307
0.000540085
0.000413257
-0.000734294
0.000137999
0.0006984
-0.00107293
-0.00122669
0.000665014
-0.000938818
-0.00272018
0.000244555
-0.00359001
-0.000269792
-3.07635e-05
0.000310408
-3.94768e-05
-7.2038e-05
0.000409554
-3.87469e-05
-9.21703e-05
0.000381762
-3.43981e-05
-9.95115e-05
0.000336281
-2.62857e-05
-9.58187e-05
0.000294839
-1.98122e-05
-8.47665e-05
0.000263097
-1.38696e-05
-6.82662e-05
0.000240139
-8.85416e-06
-4.62448e-05
0.000223982
-4.90044e-06
-1.7559e-05
0.000214702
-2.231e-06
2.08832e-05
0.00021101
-6.8071e-07
7.25409e-05
0.000215775
9.10843e-08
0.000142373
0.000227953
2.31589e-06
0.000229515
0.000254431
1.27793e-05
0.000323167
0.000287829
4.62233e-05
0.000368361
0.000336944
0.000145048
0.000248229
0.000325841
0.000334376
-0.00014215
-5.97917e-06
0.000534357
-0.000639231
-0.00121852
0.000488906
-0.000771031
-0.00275869
0.000170308
-0.0039257
-0.000435344
-0.000180024
0.000539611
-4.9179e-05
-0.00017905
0.0004694
-6.08203e-05
-0.00015342
0.000414305
-5.81732e-05
-0.000124791
0.000355897
-4.8245e-05
-8.8135e-05
0.000292694
-3.45102e-05
-4.84292e-05
0.00024525
-2.18583e-05
-7.35444e-06
0.000211031
-1.19674e-05
3.64168e-05
0.000184964
-4.75335e-06
8.40963e-05
0.000167354
-3.32017e-07
0.000139842
0.000153608
1.65653e-06
0.000206452
0.000148192
9.72111e-07
0.00029152
0.000144134
-1.24782e-06
0.000394558
0.00015075
6.4206e-07
0.000515123
0.000151833
1.54309e-05
0.000628981
0.000156726
6.63609e-05
0.000668999
0.000102779
0.000183043
0.000516476
-0.000148948
0.000295492
-9.98465e-06
-0.00100764
0.000315584
-0.00039996
-0.00245502
8.63059e-05
-0.00375289
-0.000572767
-0.000370617
0.00107881
-0.000168583
-0.00026176
0.000483242
-0.000122699
-0.000108275
0.000353173
-9.23537e-05
5.93491e-05
0.000251641
-6.33674e-05
0.000218083
0.000178385
-4.44257e-05
0.000362733
0.000130066
-2.94657e-05
0.000491437
0.000100236
-1.79084e-05
0.000606712
7.90346e-05
-9.34617e-06
0.000710862
6.6642e-05
-3.43729e-06
0.000809134
5.58225e-05
-4.86138e-07
0.000905311
5.24815e-05
-4.66074e-07
0.00100657
4.70548e-05
-4.17928e-06
0.00111819
4.83419e-05
-9.21561e-06
0.00123986
4.05417e-05
-1.03758e-05
0.00137609
2.48225e-05
-4.32848e-06
0.00147529
-4.03483e-05
4.39257e-05
0.00144863
-0.000222786
0.000100503
0.00104832
-0.000731549
0.000124223
0.000281858
-0.00169889
1.03308e-05
-0.00276189
-0.000709146
0.00122727
-0.000148456
0.00186915
-0.000158636
0.00237901
-0.000156688
0.00277218
-0.000141533
0.00307418
-0.000123615
0.00331222
-0.000107976
0.00350626
-9.37999e-05
0.00366737
-8.20731e-05
0.00380467
-7.06654e-05
0.00392395
-6.34562e-05
0.0040315
-5.50653e-05
0.00413099
-5.24352e-05
0.00422607
-4.67353e-05
0.00431401
-4.74077e-05
0.00437665
-3.7814e-05
0.0043741
-3.77963e-05
0.00416769
-1.63728e-05
0.00348496
-4.88178e-05
0.00189546
-0.000109402
-0.000866425
-4.33183e-06
4.85613e-06
-1.07046e-06
-1.37853e-05
1.01837e-05
-8.61158e-07
-2.4978e-05
1.19294e-05
-6.618e-07
-3.6559e-05
1.23076e-05
-5.368e-07
-4.80663e-05
1.22378e-05
-5.37079e-07
-5.93e-05
1.19951e-05
-6.39473e-07
-7.00685e-05
1.15879e-05
-8.34217e-07
-8.0081e-05
1.09503e-05
-1.12961e-06
-8.89721e-05
9.98602e-06
-1.5415e-06
-9.62631e-05
8.59242e-06
-2.08742e-06
-0.000101369
6.66716e-06
-2.78232e-06
-0.000103618
4.12396e-06
-3.6324e-06
-0.000102305
9.21034e-07
-4.62775e-06
-9.67668e-05
-2.92954e-06
-5.72575e-06
-8.65395e-05
-7.24687e-06
-6.84953e-06
-7.15446e-05
-1.16766e-05
-7.86786e-06
-5.24022e-05
-1.55716e-05
-8.59159e-06
-3.08967e-05
-1.78096e-05
-8.7866e-06
-1.07613e-05
-1.65254e-05
-8.21627e-06
-7.93003e-06
-5.39263e-06
-9.8962e-06
1.54842e-05
-2.33375e-06
-2.7676e-05
2.90916e-05
-2.47327e-06
-4.81049e-05
3.34969e-05
-2.30039e-06
-6.90154e-05
3.43153e-05
-2.10034e-06
-8.9546e-05
3.38506e-05
-2.01779e-06
-0.000109233
3.27945e-05
-2.04668e-06
-0.000127653
3.12028e-05
-2.185e-06
-0.000144304
2.894e-05
-2.44977e-06
-0.000158572
2.5807e-05
-2.86642e-06
-0.000169709
2.158e-05
-3.46285e-06
-0.00017684
1.60336e-05
-4.26331e-06
-0.000178978
8.97236e-06
-5.28164e-06
-0.000175219
4.34182e-07
-6.51478e-06
-0.000164568
-9.72171e-06
-7.89784e-06
-0.00014646
-2.089e-05
-9.32441e-06
-0.000120904
-3.22207e-05
-1.06252e-05
-8.89338e-05
-4.21216e-05
-1.1536e-05
-5.33119e-05
-4.78165e-05
-1.17358e-05
-1.97074e-05
-4.47075e-05
-1.085e-05
-2.36252e-05
-6.72634e-06
-1.21629e-05
2.85451e-05
-3.0688e-06
-3.34626e-05
5.17946e-05
-3.43492e-06
-5.76926e-05
5.9151e-05
-3.28915e-06
-8.23337e-05
6.03279e-05
-3.04423e-06
-0.000106409
5.92676e-05
-2.90278e-06
-0.000129394
5.71383e-05
-2.87029e-06
-0.000150813
5.40597e-05
-2.95177e-06
-0.000170122
4.9835e-05
-3.17251e-06
-0.000186655
4.41607e-05
-3.56804e-06
-0.000199604
3.66839e-05
-4.17806e-06
-0.000208014
2.70432e-05
-5.03993e-06
-0.000210815
1.49358e-05
-6.18131e-06
-0.000206808
2.68573e-07
-7.61181e-06
-0.000194841
-1.71089e-05
-9.25898e-06
-0.000174093
-3.62836e-05
-1.1017e-05
-0.000144366
-5.58743e-05
-1.26712e-05
-0.000106671
-7.31807e-05
-1.38803e-05
-6.41802e-05
-8.33864e-05
-1.42082e-05
-2.37758e-05
-7.84228e-05
-1.31486e-05
-4.25135e-05
-8.03845e-06
-1.30043e-05
4.26223e-05
-3.67633e-06
-3.5825e-05
7.62883e-05
-4.25223e-06
-6.17239e-05
8.67555e-05
-4.14093e-06
-8.80392e-05
8.82883e-05
-3.87097e-06
-0.000113789
8.66221e-05
-3.69319e-06
-0.000138477
8.34409e-05
-3.6236e-06
-0.000161663
7.89381e-05
-3.67549e-06
-0.000182837
7.28608e-05
-3.88424e-06
-0.000201359
6.47951e-05
-4.2981e-06
-0.000216416
5.42366e-05
-4.97342e-06
-0.000226989
4.06395e-05
-5.96761e-06
-0.000231844
2.3502e-05
-7.33184e-06
-0.000229584
2.56605e-06
-9.09669e-06
-0.000218608
-2.2549e-05
-1.12414e-05
-0.000197522
-5.07711e-05
-1.35994e-05
-0.000165569
-8.01969e-05
-1.5913e-05
-0.000123429
-0.000106841
-1.77091e-05
-7.4621e-05
-0.000123237
-1.83528e-05
-2.75365e-05
-0.00011681
-1.7103e-05
-6.37793e-05
-1.04639e-05
-1.33857e-05
5.72736e-05
-4.22013e-06
-3.71183e-05
0.000101992
-5.00076e-06
-6.41002e-05
0.000115756
-4.92749e-06
-9.15821e-05
0.000117723
-4.64661e-06
-0.000118613
0.000115558
-4.45463e-06
-0.000144767
0.000111506
-4.37855e-06
-0.000169689
0.000105855
-4.44129e-06
-0.000192955
9.83008e-05
-4.69095e-06
-0.000213995
8.8316e-05
-5.19287e-06
-0.000232032
7.52157e-05
-6.02713e-06
-0.000245996
5.82017e-05
-7.28304e-06
-0.000254473
3.64528e-05
-9.04748e-06
-0.000255648
9.32522e-06
-1.13829e-05
-0.000247408
-2.38293e-05
-1.43454e-05
-0.000227406
-6.22932e-05
-1.77335e-05
-0.00019386
-0.000103695
-2.12191e-05
-0.00014667
-0.000142604
-2.41303e-05
-8.95277e-05
-0.000168104
-2.5454e-05
-3.30537e-05
-0.000161296
-2.39447e-05
-8.83573e-05
-1.46756e-05
-1.36913e-05
7.24475e-05
-4.77509e-06
-3.82616e-05
0.000128869
-5.77311e-06
-6.62871e-05
0.000146154
-5.74259e-06
-9.49309e-05
0.000148668
-5.45879e-06
-0.000123287
0.000146161
-5.26542e-06
-0.000151029
0.000141502
-5.20225e-06
-0.000177927
0.0001351
-5.30424e-06
-0.000203695
0.000126626
-5.6357e-06
-0.000227896
0.000115442
-6.28492e-06
-0.00024985
0.000100665
-7.36519e-06
-0.000268502
8.11807e-05
-9.01376e-06
-0.000282276
5.57021e-05
-1.13796e-05
-0.000288934
2.29752e-05
-1.46038e-05
-0.000285611
-1.82054e-05
-1.883e-05
-0.000268606
-6.81152e-05
-2.39101e-05
-0.000234447
-0.000124224
-2.94147e-05
-0.000181405
-0.000179706
-3.43814e-05
-0.00011276
-0.000219247
-3.71333e-05
-4.21661e-05
-0.000214683
-3.53548e-05
-0.000118689
-2.16034e-05
-1.40292e-05
8.8213e-05
-5.40447e-06
-3.95216e-05
0.000157062
-6.65215e-06
-6.86846e-05
0.000178101
-6.66876e-06
-9.85738e-05
0.000181261
-6.38023e-06
-0.000128337
0.000178565
-6.18372e-06
-0.000157775
0.000173584
-6.13477e-06
-0.000186829
0.000166901
-6.28384e-06
-0.000215414
0.000158202
-6.71624e-06
-0.000243317
0.000146773
-7.55101e-06
-0.000270067
0.000131545
-8.94836e-06
-0.000294757
0.00011105
-1.11168e-05
-0.000315783
8.34113e-05
-1.43112e-05
-0.000330504
4.64536e-05
-1.88246e-05
-0.00033537
-1.7847e-06
-2.49462e-05
-0.000324774
-6.38949e-05
-3.26973e-05
-0.000292692
-0.000137603
-4.16323e-05
-0.000234262
-0.000215514
-5.04149e-05
-0.000150644
-0.000277342
-5.62347e-05
-5.85383e-05
-0.000281476
-5.45051e-05
-0.000160463
-3.30946e-05
-1.44223e-05
0.000104679
-6.15762e-06
-4.09576e-05
0.00018677
-7.70437e-06
-7.13529e-05
0.000211771
-7.76887e-06
-0.000102523
0.00021561
-7.46123e-06
-0.000133674
0.000212813
-7.24267e-06
-0.000164763
0.000207759
-7.18843e-06
-0.00019595
0.000201277
-7.36843e-06
-0.000227429
0.000193136
-7.89404e-06
-0.000259325
0.000182627
-8.9236e-06
-0.00029155
0.000168562
-1.06803e-05
-0.000323572
0.000149163
-1.3475e-05
-0.000354065
0.000121919
-1.7726e-05
-0.000380383
8.35319e-05
-2.39497e-05
-0.000397937
3.02307e-05
-3.26503e-05
-0.000399878
-4.23313e-05
-4.45674e-05
-0.000376364
-0.000135515
-5.93105e-05
-0.00031699
-0.000242678
-7.51167e-05
-0.000216692
-0.000340156
-8.74349e-05
-9.14269e-05
-0.000369349
-8.70869e-05
-0.000228585
-5.29854e-05
-1.48977e-05
0.000122004
-7.08596e-06
-4.262e-05
0.000218247
-8.99896e-06
-7.43153e-05
0.00024734
-9.10593e-06
-0.000106712
0.000251755
-8.74898e-06
-0.000139078
0.000248808
-8.46839e-06
-0.000171548
0.000243814
-8.36377e-06
-0.000204545
0.000237936
-8.52824e-06
-0.000238619
0.000231137
-9.10329e-06
-0.000274367
0.00022284
-1.02933e-05
-0.000312296
0.000211901
-1.23986e-05
-0.000352594
0.000196397
-1.58642e-05
-0.000394694
0.000173315
-2.13392e-05
-0.000436584
0.000138231
-2.9713e-05
-0.000473622
8.51897e-05
-4.214e-05
-0.000498603
7.92632e-06
-5.99752e-05
-0.000497278
-0.00010244
-8.36406e-05
-0.000451097
-0.000244166
-0.000111323
-0.000339836
-0.000398414
-0.000135607
-0.000163545
-0.000493575
-0.000139292
-0.00036228
-8.81609e-05
-1.55301e-05
0.00014045
-8.25815e-06
-4.46466e-05
0.000251853
-1.06257e-05
-7.76959e-05
0.000285005
-1.07602e-05
-0.000111168
0.000289668
-1.03028e-05
-0.000144392
0.000286291
-9.89321e-06
-0.000177698
0.000281266
-9.66081e-06
-0.0002118
0.000276197
-9.72486e-06
-0.000247658
0.000271369
-1.02577e-05
-0.000286449
0.000266526
-1.15112e-05
-0.000329517
0.000260843
-1.38704e-05
-0.000378198
0.000252624
-1.79374e-05
-0.000433436
0.000238815
-2.46531e-05
-0.000495069
0.000214383
-3.54413e-05
-0.000560638
0.000171692
-5.22159e-05
-0.00062312
0.00010043
-7.70484e-05
-0.000670024
-1.25127e-05
-0.000112465
-0.000668516
-0.000190355
-0.000154548
-0.000566732
-0.00043968
-0.000190614
-0.000315459
-0.000693897
-0.000196055
-0.000652471
-0.000138463
-1.64834e-05
0.000160485
-9.77842e-06
-4.73422e-05
0.000288142
-1.27146e-05
-8.18232e-05
0.000325039
-1.28469e-05
-0.000116129
0.00032927
-1.22091e-05
-0.000149659
0.000324831
-1.15686e-05
-0.000182952
0.00031934
-1.1091e-05
-0.000217011
0.00031493
-1.09229e-05
-0.000253204
0.000312332
-1.12628e-05
-0.000293322
0.000311823
-1.23995e-05
-0.000339673
0.00031326
-1.47863e-05
-0.000395135
0.000315781
-1.91612e-05
-0.000463069
0.000317242
-2.67369e-05
-0.00054698
0.000313373
-3.9441e-05
-0.000649691
0.000296599
-5.99281e-05
-0.000770709
0.00025344
-9.05933e-05
-0.000896798
0.000154811
-0.00012966
-0.000981459
-6.43468e-05
-0.000166791
-0.000910436
-0.000493308
-0.000176973
-0.000555107
-0.00106179
-0.000164466
-0.00121791
-0.000164782
-1.80811e-05
0.000182961
-1.18165e-05
-5.12891e-05
0.000328012
-1.54768e-05
-8.7346e-05
0.000367859
-1.55634e-05
-0.00012216
0.000370465
-1.46259e-05
-0.000155249
0.000363851
-1.36004e-05
-0.000187379
0.000356989
-1.27045e-05
-0.000219803
0.000352568
-1.21157e-05
-0.000254211
0.000351836
-1.20474e-05
-0.000292899
0.000355779
-1.28001e-05
-0.000339078
0.000365308
-1.48456e-05
-0.000397257
0.000381106
-1.89591e-05
-0.000473705
0.000403172
-2.63988e-05
-0.000577017
0.000430006
-3.89833e-05
-0.000717858
0.000455972
-5.80674e-05
-0.000903719
0.000461029
-8.02271e-05
-0.00111859
0.000380198
-8.76898e-05
-0.00128582
6.51065e-05
-4.36172e-05
-0.00123547
-0.000653846
5.44193e-05
-0.000768317
-0.00164596
7.25402e-05
-0.00203485
-9.99423e-05
-2.08582e-05
0.000209343
-1.4632e-05
-5.74274e-05
0.000372867
-1.91515e-05
-9.53552e-05
0.00041411
-1.90567e-05
-0.000130332
0.000413199
-1.76284e-05
-0.000162071
0.000402669
-1.60274e-05
-0.000191604
0.000392922
-1.45178e-05
-0.000220389
0.000387154
-1.32906e-05
-0.000250252
0.000387054
-1.25476e-05
-0.000283638
0.000394297
-1.25601e-05
-0.000324189
0.000411073
-1.3716e-05
-0.000377525
0.000440125
-1.65927e-05
-0.00045217
0.000484473
-2.18767e-05
-0.000560834
0.000546315
-2.95008e-05
-0.000719077
0.000619813
-3.42539e-05
-0.000937325
0.000669251
-1.52373e-05
-0.00119619
0.000576147
7.51138e-05
-0.00141794
0.000123506
0.000280246
-0.00138211
-0.000925496
0.000496181
-0.000843004
-0.00229415
0.000380065
-0.00288793
-5.70304e-06
-2.63825e-05
0.000242755
-1.88524e-05
-6.80137e-05
0.000424971
-2.46977e-05
-0.000107802
0.000464292
-2.44042e-05
-0.000141924
0.000456884
-2.22278e-05
-0.00017102
0.000440325
-1.96364e-05
-0.000196498
0.000425917
-1.70583e-05
-0.000219721
0.000416893
-1.47668e-05
-0.00024223
0.000415174
-1.29769e-05
-0.000266153
0.000423057
-1.1869e-05
-0.000294668
0.000443753
-1.16226e-05
-0.000333065
0.00048193
-1.2303e-05
-0.000389599
0.000543094
-1.30938e-05
-0.00047756
0.000632356
-9.77471e-06
-0.000612844
0.000739785
1.40803e-05
-0.000814005
0.000814475
0.00010355
-0.00107805
0.000697012
0.000325584
-0.00134888
0.000139459
0.000681112
-0.0013348
-0.00116554
0.000861002
-0.000809775
-0.00274994
0.000428943
-0.00363325
-3.21132e-05
-3.33651e-05
0.000285089
-2.47152e-05
-8.19894e-05
0.000487006
-3.13638e-05
-0.000125392
0.00052089
-3.03902e-05
-0.00016009
0.000503586
-2.69307e-05
-0.000186299
0.000477085
-2.31303e-05
-0.000206098
0.000454718
-1.93599e-05
-0.000221231
0.000439485
-1.5895e-05
-0.00023302
0.00043293
-1.28951e-05
-0.000242679
0.000437216
-1.0443e-05
-0.000251751
0.000455737
-8.43477e-06
-0.00026351
0.000494358
-6.23705e-06
-0.000283084
0.000559419
-1.12172e-06
-0.000322193
0.000658855
1.57312e-05
-0.000396331
0.000777986
7.12776e-05
-0.00054335
0.000870745
0.0002231
-0.000778303
0.000749156
0.000534288
-0.00106174
0.000170306
0.000917071
-0.00107668
-0.00126425
0.000894203
-0.000684241
-0.00295664
0.000229252
-0.00423875
-0.000170013
-6.67912e-05
0.000362892
-3.4884e-05
-0.000122155
0.000558639
-4.4264e-05
-0.000160559
0.000575402
-4.23362e-05
-0.000185578
0.000543347
-3.72302e-05
-0.000202978
0.000507439
-3.10738e-05
-0.000214813
0.000477458
-2.48484e-05
-0.000221527
0.000454957
-1.90699e-05
-0.000222625
0.000440628
-1.40018e-05
-0.000217462
0.000436438
-9.6971e-06
-0.000204803
0.000444978
-5.81422e-06
-0.000184365
0.000472342
-1.30239e-06
-0.000155923
0.000523524
8.04472e-06
-0.000126037
0.000609106
3.27989e-05
-0.000105608
0.00071148
0.000101942
-0.000135961
0.000806307
0.000269732
-0.000259946
0.000710294
0.000576103
-0.000457456
0.000190079
0.000876138
-0.000591415
-0.00116118
0.000695905
-0.000438864
-0.00295381
8.91779e-05
-0.00463049
-0.000316911
-4.67652e-05
0.000422975
-5.2795e-05
-0.000132625
0.000667135
-6.13826e-05
-0.000190899
0.000655366
-5.60874e-05
-0.000224916
0.000597173
-4.60951e-05
-0.000241261
0.000540938
-3.69653e-05
-0.000244904
0.000495315
-2.80845e-05
-0.000238654
0.000459889
-2.00363e-05
-0.000223002
0.000433114
-1.3039e-05
-0.000197378
0.000415869
-7.28667e-06
-0.000158342
0.000407677
-2.41591e-06
-0.000102438
0.000414117
2.41209e-06
-2.3986e-05
0.000435851
1.15366e-05
8.04811e-05
0.000483625
3.37934e-05
0.000204571
0.000544159
8.94548e-05
0.00033333
0.000603673
0.000218922
0.000385704
0.000542709
0.000449587
0.000303658
0.000170903
0.00063558
1.82702e-05
-0.000872603
0.000485714
-2.5764e-05
-0.00278967
5.02033e-05
-0.00468244
-0.000409159
-0.000193465
0.000628832
-6.15702e-05
-0.000228357
0.000722767
-8.15614e-05
-0.000255167
0.000704876
-8.08725e-05
-0.00027409
0.000637467
-6.96166e-05
-0.000268518
0.000555088
-5.42326e-05
-0.000244576
0.000488607
-3.90917e-05
-0.000207294
0.000436548
-2.59086e-05
-0.000157463
0.000393728
-1.51979e-05
-9.70181e-05
0.000362311
-7.21804e-06
-2.26472e-05
0.000336553
-1.58988e-06
6.7349e-05
0.000323521
1.57185e-06
0.000179966
0.000316752
5.23478e-06
0.000321059
0.000328205
1.49698e-05
0.000492448
0.00034382
4.43799e-05
0.000694393
0.000358796
0.000109293
0.000864276
0.00031269
0.000243179
0.00098829
1.6424e-05
0.000325956
0.00083244
-0.000661682
0.000260513
0.000512921
-0.00239747
1.36171e-05
-0.00427812
-0.000464174
-0.000667251
0.00128798
-0.000160484
-0.000628677
0.000709046
-0.000147551
-0.000489597
0.000593053
-0.000119611
-0.000295733
0.000475031
-9.47952e-05
-9.27792e-05
0.000383426
-7.57176e-05
0.000108273
0.000316513
-5.84227e-05
0.000300734
0.000269954
-4.37755e-05
0.00048365
0.000232928
-3.14625e-05
0.000657445
0.00020675
-2.16719e-05
0.00082422
0.000183895
-1.46039e-05
0.000988175
0.000169845
-1.07448e-05
0.00115255
0.000158301
-1.01036e-05
0.00133026
0.000152452
-1.11753e-05
0.0015191
0.000148685
-4.07785e-06
0.00174643
0.000124464
2.67026e-06
0.00197254
7.76734e-05
5.28404e-05
0.0021194
-0.000123413
9.34771e-05
0.00208075
-0.000557501
5.86942e-05
0.00140873
-0.00168247
-3.26465e-05
-0.00307108
-0.000507455
0.00126997
-0.000130444
0.0019707
-0.000150323
0.00256092
-0.000153855
0.00304115
-0.000146728
0.00343698
-0.000136019
0.00376984
-0.000124325
0.0040588
-0.000112802
0.00431212
-0.00010247
0.00453971
-9.15046e-05
0.00474431
-8.41563e-05
0.00493356
-7.44758e-05
0.00511053
-7.10982e-05
0.00527873
-6.2489e-05
0.00544488
-6.48746e-05
0.00558269
-5.11558e-05
0.00568509
-6.25195e-05
0.0055825
-3.72017e-05
0.0050679
-9.17196e-05
0.00338325
-0.000107216
-0.000554256
-4.91034e-06
5.17232e-06
-1.33243e-06
-1.57439e-05
1.14742e-05
-1.5018e-06
-2.85541e-05
1.35668e-05
-1.41841e-06
-4.17213e-05
1.39685e-05
-1.33814e-06
-5.47034e-05
1.37989e-05
-1.35387e-06
-6.72784e-05
1.34041e-05
-1.46852e-06
-7.92286e-05
1.28011e-05
-1.68514e-06
-9.0255e-05
1.19134e-05
-2.01657e-06
-9.99553e-05
1.06402e-05