/*--------------------------------*- C++ -*----------------------------------*\
  =========                 |
  \\      /  F ield         | OpenFOAM: The Open Source CFD Toolbox
   \\    /   O peration     | Website:  https://openfoam.org
    \\  /    A nd           | Version:  10
     \\/     M anipulation  |
\*---------------------------------------------------------------------------*/
FoamFile
{
    format      ascii;
    class       volVectorField;
    location    "6.775";
    object      U;
}
// * * * * * * * * * * * * * * * * * * * * * * * * * * * * * * * * * * * * * //

dimensions      [0 1 -1 0 0 0 0];

internalField   nonuniform List<vector> 
8000
(
(-6.41676e-05 8.39405e-05 -2.78224e-05)
(-0.000469493 0.000184638 8.99365e-06)
(-0.00114237 0.000216526 2.52443e-05)
(-0.00182794 0.000228347 3.27713e-05)
(-0.00254051 0.000236526 3.30809e-05)
(-0.00325683 0.00024534 2.89425e-05)
(-0.00396593 0.000253678 2.12143e-05)
(-0.00465445 0.000258701 9.19995e-06)
(-0.00530188 0.000257599 -7.17173e-06)
(-0.00587891 0.000246998 -2.85519e-05)
(-0.00634739 0.000223277 -5.56883e-05)
(-0.00666051 0.000183248 -8.90551e-05)
(-0.00676533 0.000125383 -0.00012841)
(-0.0066071 4.87754e-05 -0.000172379)
(-0.00613733 -4.57282e-05 -0.000217655)
(-0.00532884 -0.000148963 -0.000259599)
(-0.00419509 -0.000245358 -0.000288606)
(-0.00283775 -0.000309635 -0.000291509)
(-0.00130022 -0.000304482 -0.000258375)
(-0.000238175 -0.000137602 -0.000131319)
(-0.000160129 0.000568293 -9.65433e-05)
(-0.000884557 0.00100723 -7.27908e-05)
(-0.00200026 0.00114767 -5.92137e-05)
(-0.00313231 0.00119125 -4.89815e-05)
(-0.00429578 0.00120553 -4.47101e-05)
(-0.00545158 0.00120915 -4.429e-05)
(-0.00657821 0.00120079 -4.68433e-05)
(-0.00765153 0.00117242 -5.28917e-05)
(-0.00863859 0.00111415 -6.33108e-05)
(-0.00949586 0.0010145 -7.92472e-05)
(-0.0101678 0.000861491 -0.000101934)
(-0.0105872 0.000644233 -0.000132361)
(-0.0106806 0.000355106 -0.00017069)
(-0.0103747 -4.26379e-06 -0.000217802)
(-0.00960173 -0.000418464 -0.000266681)
(-0.00832303 -0.000853655 -0.000312028)
(-0.00656235 -0.00124925 -0.00034146)
(-0.00446603 -0.00150702 -0.000338766)
(-0.00210295 -0.00148012 -0.000290982)
(-0.000421095 -0.000819832 -0.000117873)
(-0.000190191 0.00137703 -0.000133399)
(-0.00103063 0.00230028 -0.000116435)
(-0.00231054 0.0025913 -0.000104136)
(-0.00360076 0.00267008 -9.22173e-05)
(-0.00492204 0.00267744 -8.53259e-05)
(-0.0062313 0.00265259 -8.17596e-05)
(-0.00750599 0.00259587 -8.08341e-05)
(-0.00872093 0.00249442 -8.32763e-05)
(-0.00984168 0.00233013 -9.03662e-05)
(-0.0108224 0.00208186 -0.000103733)
(-0.0116039 0.00172736 -0.00012513)
(-0.012114 0.0012464 -0.000156137)
(-0.0122672 0.000625671 -0.0001981)
(-0.0119702 -0.000130929 -0.000250364)
(-0.0111368 -0.000996866 -0.000307966)
(-0.00971006 -0.00190341 -0.000363205)
(-0.00769828 -0.00272989 -0.000400355)
(-0.00526272 -0.00327483 -0.000398623)
(-0.00247716 -0.00323157 -0.000341272)
(-0.000490267 -0.00189943 -0.00013115)
(-0.000194048 0.00222765 -0.000159973)
(-0.00107231 0.00366545 -0.000149204)
(-0.00241425 0.00410926 -0.000138276)
(-0.0037638 0.00421994 -0.00012552)
(-0.00514934 0.00421908 -0.000117203)
(-0.00652852 0.00416779 -0.000111975)
(-0.00788233 0.00406831 -0.000109356)
(-0.00918918 0.00390315 -0.000110292)
(-0.0104177 0.00364623 -0.000116434)
(-0.0115241 0.00326596 -0.000129967)
(-0.0124482 0.00272781 -0.000153362)
(-0.0131112 0.00199893 -0.000189058)
(-0.0134146 0.00105657 -0.000239397)
(-0.0132476 -0.000101988 -0.000306533)
(-0.0124868 -0.00144143 -0.000381258)
(-0.0110283 -0.00287036 -0.000456001)
(-0.00884363 -0.00420163 -0.000509561)
(-0.00609724 -0.00511012 -0.000513205)
(-0.00286627 -0.00508926 -0.000444023)
(-0.000553926 -0.00302157 -0.000179028)
(-0.000187974 0.00312831 -0.00018012)
(-0.00107686 0.00511754 -0.000174981)
(-0.00244894 0.00572473 -0.000165392)
(-0.00383027 0.00587214 -0.000152436)
(-0.00525672 0.00586919 -0.000143812)
(-0.00668868 0.0058014 -0.000138483)
(-0.00811331 0.00567422 -0.000136242)
(-0.0095157 0.00546638 -0.000138359)
(-0.0108712 0.0051442 -0.000146932)
(-0.0121411 0.00466467 -0.000164825)
(-0.0132674 0.00397793 -0.000195546)
(-0.0141661 0.00303237 -0.000242855)
(-0.0147232 0.00178409 -0.000310215)
(-0.0147912 0.000213192 -0.000399141)
(-0.0142024 -0.0016458 -0.00050785)
(-0.0127876 -0.00368785 -0.00061892)
(-0.0104375 -0.00565428 -0.000705093)
(-0.00730039 -0.00706324 -0.000724362)
(-0.00344737 -0.00713736 -0.000638836)
(-0.000655323 -0.00424671 -0.000281573)
(-0.000178096 0.00405689 -0.000198541)
(-0.00106907 0.006629 -0.000199004)
(-0.00246299 0.00741147 -0.000190897)
(-0.00386955 0.00760368 -0.000178212)
(-0.00533193 0.00761011 -0.000170033)
(-0.00681449 0.00754403 -0.000165658)
(-0.00831261 0.00741615 -0.000165234)
(-0.00982098 0.00720305 -0.000170507)
(-0.0113255 0.00686442 -0.000184192)
(-0.0127977 0.00634555 -0.000210071)
(-0.0141862 0.00557824 -0.000253098)
(-0.0154066 0.00448488 -0.00031918)
(-0.0163299 0.0029892 -0.000414154)
(-0.0167712 0.00103658 -0.000541802)
(-0.0164993 -0.00137386 -0.00070641)
(-0.0152413 -0.00413443 -0.000882636)
(-0.0127576 -0.00692131 -0.00103262)
(-0.00912589 -0.00905587 -0.00109146)
(-0.00438073 -0.00937116 -0.000988795)
(-0.00083974 -0.0055899 -0.000476795)
(-0.000165691 0.00500913 -0.000218553)
(-0.00105519 0.00819627 -0.00022526)
(-0.00246803 0.00916685 -0.000218853)
(-0.00389556 0.00941255 -0.000206569)
(-0.00538856 0.00944127 -0.000199017)
(-0.00691608 0.00939853 -0.000195941)
(-0.00848372 0.00930354 -0.000197965)
(-0.0100989 0.00913364 -0.000207478)
(-0.0117627 0.00884451 -0.000228101)
(-0.0134637 0.00837139 -0.000264997)
(-0.0151668 0.00762694 -0.000325327)
(-0.0167965 0.00650128 -0.000418458)
(-0.018217 0.00486996 -0.000554737)
(-0.0192113 0.00261593 -0.000742706)
(-0.019474 -0.000327242 -0.00100035)
(-0.01859 -0.00387588 -0.00129386)
(-0.0161121 -0.0077048 -0.00157136)
(-0.0119286 -0.0109059 -0.00173081)
(-0.00595333 -0.0117459 -0.00163095)
(-0.00120933 -0.00709985 -0.000862584)
(-0.000150732 0.00598667 -0.00024205)
(-0.00103617 0.0098243 -0.000256148)
(-0.00246506 0.0109949 -0.000251548)
(-0.0039059 0.0112998 -0.00023934)
(-0.00541759 0.0113609 -0.000231969)
(-0.00697416 0.0113616 -0.000229803)
(-0.008593 0.0113345 -0.000234099)
(-0.0102973 0.0112625 -0.000248084)
(-0.0121085 0.0111029 -0.000276611)
(-0.0140405 0.0107863 -0.00032684)
(-0.0160873 0.0102105 -0.000409297)
(-0.0182023 0.00923415 -0.000538997)
(-0.0202656 0.0076746 -0.000735488)
(-0.0220439 0.00532375 -0.00102089)
(-0.0231415 0.00199968 -0.00141142)
(-0.0230129 -0.00234275 -0.00192302)
(-0.0209199 -0.00738788 -0.00245812)
(-0.0163112 -0.0121203 -0.00286903)
(-0.00878732 -0.014018 -0.00286184)
(-0.002029 -0.00884137 -0.00169071)
(-0.000133855 0.00699437 -0.000270599)
(-0.00101447 0.0115217 -0.000293723)
(-0.0024565 0.0129001 -0.000290831)
(-0.00389853 0.0132627 -0.000277796)
(-0.00540845 0.0133581 -0.000269389)
(-0.00696478 0.0134152 -0.000266842)
(-0.00859744 0.0134856 -0.000272246)
(-0.0103474 0.0135653 -0.000289867)
(-0.0122607 0.0136219 -0.000326093)
(-0.0143845 0.0135931 -0.000390687)
(-0.0167566 0.0133752 -0.000498851)
(-0.019384 0.0128077 -0.000674019)
(-0.022202 0.0116576 -0.000950343)
(-0.0250105 0.0096138 -0.00137136)
(-0.0274001 0.00631969 -0.00198105)
(-0.0286425 0.00148722 -0.00283274)
(-0.0276961 -0.0047912 -0.00388858)
(-0.0232813 -0.0114985 -0.00488975)
(-0.0141931 -0.0154587 -0.00527955)
(-0.00394367 -0.0108862 -0.00362392)
(-0.000117579 0.00804319 -0.000306275)
(-0.000998124 0.0133034 -0.000340572)
(-0.0024531 0.0148888 -0.000338972)
(-0.00388065 0.0152944 -0.00032342)
(-0.0053596 0.0154118 -0.000311763)
(-0.00687194 0.0155233 -0.000306386)
(-0.00845942 0.015707 -0.000310432)
(-0.0101803 0.0159798 -0.000329349)
(-0.0121059 0.0163323 -0.000371289)
(-0.0143213 0.0167272 -0.000449143)
(-0.0169205 0.0170856 -0.000584065)
(-0.0199903 0.0172628 -0.000810969)
(-0.0235732 0.0170138 -0.00118506)
(-0.0275949 0.0159553 -0.00178588)
(-0.0317433 0.013549 -0.00270806)
(-0.0353116 0.0091558 -0.00403947)
(-0.0369103 0.00222964 -0.00591512)
(-0.0342108 -0.00685179 -0.00811057)
(-0.0244692 -0.0146616 -0.00955111)
(-0.0082415 -0.0134122 -0.0077128)
(-0.000107926 0.00915677 -0.000352552)
(-0.00100531 0.0151974 -0.000400725)
(-0.00248054 0.0169738 -0.000399504)
(-0.00387647 0.0173868 -0.000378619)
(-0.00528745 0.0174907 -0.000360136)
(-0.00669784 0.0176312 -0.000347961)
(-0.00815917 0.0179184 -0.000346518)
(-0.00974329 0.0183984 -0.000362451)
(-0.011541 0.0190979 -0.000405603)
(-0.0136694 0.0200273 -0.000491842)
(-0.0162768 0.0211685 -0.00064851)
(-0.0195446 0.0224504 -0.00092273)
(-0.0236718 0.0237037 -0.00139094)
(-0.0288255 0.0245897 -0.00216813)
(-0.0350438 0.0244966 -0.00340317)
(-0.0419992 0.0223405 -0.00526816)
(-0.048288 0.0163644 -0.00792363)
(-0.0499393 0.00456243 -0.0112342)
(-0.0415356 -0.0110621 -0.0139772)
(-0.0162931 -0.0188868 -0.0133911)
(-0.000117558 0.0103843 -0.000415887)
(-0.00107137 0.0172575 -0.000481548)
(-0.00258794 0.0191837 -0.000479346)
(-0.00393625 0.0195374 -0.000448646)
(-0.00523602 0.0195597 -0.000417577)
(-0.00647437 0.0196693 -0.000392485)
(-0.00771041 0.0200119 -0.000379313)
(-0.00902134 0.0206675 -0.000385709)
(-0.0105039 0.0217099 -0.000422827)
(-0.0122883 0.023219 -0.000508435)
(-0.0145541 0.0252784 -0.000673506)
(-0.0175528 0.0279602 -0.000970395)
(-0.0216346 0.0312891 -0.00147556)
(-0.027276 0.0351293 -0.00227509)
(-0.0351175 0.0389007 -0.00341569)
(-0.0457499 0.0407082 -0.00486449)
(-0.0584181 0.0361549 -0.0066312)
(-0.0678712 0.0174204 -0.0083702)
(-0.0646818 -0.0153608 -0.00991834)
(-0.0277857 -0.0384215 -0.013154)
(-0.000171747 0.0118083 -0.000507452)
(-0.00126025 0.0195507 -0.000591817)
(-0.00285917 0.0215321 -0.000583002)
(-0.00414646 0.0217132 -0.000534187)
(-0.00528737 0.0215516 -0.00048278)
(-0.0062747 0.0215379 -0.000437874)
(-0.00717542 0.0218438 -0.000406029)
(-0.00806054 0.0225806 -0.00039454)
(-0.00900904 0.0238705 -0.000415148)
(-0.0101278 0.0258702 -0.000484569)
(-0.0115764 0.0287896 -0.000629351)
(-0.0136043 0.032886 -0.000886478)
(-0.0166408 0.0384544 -0.00127346)
(-0.0214535 0.045569 -0.00167307)
(-0.0295587 0.0534396 -0.00164876)
(-0.0432051 0.0581324 -0.000295765)
(-0.0650832 0.0508593 0.00290031)
(-0.0890175 0.0159286 0.00758741)
(-0.0916645 -0.0463632 0.0114182)
(-0.0372309 -0.0865034 -0.00164822)
(-0.000332981 0.0136368 -0.000661784)
(-0.00171087 0.0223496 -0.000781899)
(-0.00344508 0.0242916 -0.000769579)
(-0.00463697 0.0241612 -0.000691763)
(-0.00555131 0.023641 -0.000599733)
(-0.00620608 0.0233156 -0.000512563)
(-0.00667231 0.0233929 -0.00044218)
(-0.00699605 0.0240106 -0.000398617)
(-0.00721528 0.0253271 -0.000390829)
(-0.00737027 0.0275576 -0.000429992)
(-0.00753702 0.0310262 -0.000528163)
(-0.00786064 0.0361349 -0.000672548)
(-0.00877288 0.0434182 -0.000741231)
(-0.0113324 0.0528935 -0.000197053)
(-0.0186478 0.0634381 0.00227243)
(-0.0363675 0.0681913 0.00877757)
(-0.0735144 0.053134 0.0205695)
(-0.114424 -0.0140277 0.034372)
(-0.115464 -0.124687 0.0352561)
(-0.0424389 -0.168672 0.0048683)
(-0.000648592 0.0163279 -0.000894363)
(-0.00247609 0.0254469 -0.000994584)
(-0.00443696 0.0268293 -0.000945825)
(-0.00556876 0.0259645 -0.000807298)
(-0.00626023 0.0249216 -0.000666851)
(-0.00652279 0.0242483 -0.000538644)
(-0.0064559 0.0240786 -0.000433318)
(-0.00609161 0.024491 -0.000358106)
(-0.00541684 0.0256269 -0.00032101)
(-0.00436802 0.027705 -0.000324801)
(-0.00289889 0.0311088 -0.000362873)
(-0.000948369 0.0363134 -0.000352086)
(0.00104318 0.0440287 -5.70644e-06)
(0.00203884 0.0541525 0.00170375)
(-0.00326704 0.0655475 0.00686757)
(-0.0239136 0.0684209 0.0188953)
(-0.0752955 0.0383991 0.0375863)
(-0.123453 -0.0776758 0.0490161)
(-0.127376 -0.219826 0.0309055)
(-0.0490329 -0.260902 -0.00812081)
(-0.00199404 0.0190671 -0.00142502)
(-0.00510587 0.0305339 -0.0016392)
(-0.0067888 0.0315179 -0.0015243)
(-0.00741087 0.0301113 -0.0012845)
(-0.00740541 0.0281359 -0.00100894)
(-0.00702127 0.0265062 -0.000751493)
(-0.00633571 0.0254263 -0.000536758)
(-0.0052961 0.0249892 -0.000376435)
(-0.003789 0.0253214 -0.000280203)
(-0.00160678 0.026562 -0.000241578)
(0.0014688 0.0290888 -0.000240921)
(0.00581543 0.033264 -0.00015957)
(0.0110835 0.0398834 0.000412615)
(0.0167852 0.0487453 0.00259987)
(0.0167347 0.0597035 0.00934467)
(0.00381921 0.0602157 0.0235055)
(-0.0458951 0.016561 0.0421505)
(-0.0903241 -0.127576 0.0413366)
(-0.123646 -0.26997 0.0144361)
(-0.0500612 -0.339528 -0.0281025)
(-0.00131508 0.0306281 -0.00245776)
(-0.00507342 0.0344188 -0.002314)
(-0.00880439 0.0328717 -0.00203301)
(-0.00960486 0.0290306 -0.00148667)
(-0.00970462 0.0262756 -0.00105408)
(-0.00876578 0.0243568 -0.000673061)
(-0.00723318 0.0231281 -0.00036954)
(-0.00515006 0.0224203 -0.000151884)
(-0.00248901 0.0222903 -3.94361e-05)
(0.00104114 0.0227349 -1.84489e-05)
(0.00570233 0.0241146 -9.03652e-05)
(0.0122054 0.026484 -0.000146328)
(0.0202757 0.0305581 0.000256543)
(0.03108 0.0357955 0.00190379)
(0.0380446 0.0429212 0.00757272)
(0.0444274 0.0421224 0.0193547)
(0.0092458 -0.000827316 0.0331219)
(-0.0272677 -0.132547 0.0306665)
(-0.100055 -0.283485 0.00850427)
(-0.0377245 -0.390732 -0.045643)
(-0.0126443 0.0282043 -0.00324436)
(-0.0213924 0.0493759 -0.00399443)
(-0.0156582 0.0451664 -0.00372711)
(-0.0142996 0.0402775 -0.00300793)
(-0.0105548 0.0344689 -0.00205804)
(-0.00654451 0.029724 -0.00122183)
(-0.00235732 0.0260458 -0.000567548)
(0.00206529 0.0232478 -0.00011176)
(0.00671725 0.0213078 0.000127926)
(0.012137 0.0199594 0.000151178)
(0.018228 0.0194067 -2.28568e-05)
(0.0262711 0.0193214 -0.000394901)
(0.0352038 0.0203502 -0.000535645)
(0.0482708 0.0213078 7.80019e-05)
(0.0568914 0.0232831 0.00302902)
(0.0745144 0.0202762 0.0104668)
(0.0565353 -0.00799848 0.0191373)
(0.0511085 -0.110342 0.0224654)
(-0.0521662 -0.268868 0.0020885)
(-0.0149815 -0.403244 -0.0574894)
(-0.0465208 0.0880392 -0.0124673)
(-0.0298154 0.040407 -0.00871555)
(-0.020599 0.0341186 -0.00643965)
(-0.00168748 0.0270603 -0.00430375)
(0.0141521 0.0206987 -0.00284316)
(0.0298226 0.0164508 -0.00171902)
(0.0433446 0.0137486 -0.000875755)
(0.0559046 0.0117011 -0.000290701)
(0.0664744 0.0104111 7.63559e-05)
(0.0774398 0.0092275 0.000189091)
(0.0861259 0.00886408 5.72653e-05)
(0.0978609 0.0081916 -0.000356856)
(0.105457 0.00841008 -0.000838185)
(0.122592 0.00717979 -0.00120209)
(0.12538 0.00489836 -0.000741428)
(0.15458 -0.00442246 0.00266223)
(0.132422 -0.0291781 0.00705906)
(0.160692 -0.101075 0.0119395)
(0.0342813 -0.238458 -0.00212145)
(0.0341911 -0.368537 -0.0667734)
(0.117589 0.112207 -0.0112204)
(0.144207 0.0598242 -0.0118369)
(0.216172 0.0394726 -0.0116317)
(0.260858 0.0262142 -0.0104001)
(0.293394 0.0173813 -0.00892609)
(0.320772 0.0114221 -0.0076418)
(0.341162 0.00771384 -0.00650103)
(0.360504 0.00516881 -0.00555753)
(0.372938 0.00372592 -0.0046961)
(0.389095 0.00254517 -0.00408571)
(0.395537 0.00207655 -0.0035494)
(0.41265 0.00154033 -0.00322385)
(0.412464 0.00143812 -0.00310043)
(0.434824 0.00101606 -0.00281413)
(0.422793 1.15854e-05 -0.00280928)
(0.45125 -0.00328088 -0.00194292)
(0.407611 -0.0118208 -0.00137057)
(0.421428 -0.0325289 -0.0011046)
(0.25148 -0.0730601 -0.0089328)
(0.165868 -0.138715 -0.0771067)
(-0.000110964 0.000128252 -8.78784e-05)
(-0.000806679 0.000337497 -4.36735e-05)
(-0.00196057 0.000407612 -1.76468e-05)
(-0.0031223 0.000426377 -3.63556e-06)
(-0.00430465 0.000431125 -3.41282e-06)
(-0.00547081 0.000433083 -1.31745e-05)
(-0.00660294 0.000431858 -3.15601e-05)
(-0.00767812 0.000423858 -5.95817e-05)
(-0.0086634 0.000404112 -9.84989e-05)
(-0.00951518 0.000367333 -0.000150071)
(-0.0101778 0.000308121 -0.000215953)
(-0.0105847 0.000221835 -0.000297024)
(-0.0106617 0.00010624 -0.00039254)
(-0.0103338 -4.1369e-05 -0.000498704)
(-0.00953715 -0.000214195 -0.000607542)
(-0.00823655 -0.000396884 -0.000706695)
(-0.00645227 -0.000560701 -0.000775796)
(-0.00433114 -0.000656063 -0.000788729)
(-0.00195445 -0.000602494 -0.000722341)
(-0.000346075 -0.000238788 -0.000436886)
(-0.000333576 0.00090478 -0.000224529)
(-0.00172929 0.00179413 -0.000212069)
(-0.00383355 0.00208975 -0.000189636)
(-0.00594739 0.00215594 -0.000168603)
(-0.00807341 0.00214363 -0.000159925)
(-0.0101397 0.00209885 -0.000161334)
(-0.0121044 0.00202395 -0.00017196)
(-0.013923 0.00190802 -0.00019333)
(-0.0155383 0.00173545 -0.000227858)
(-0.0168799 0.00148909 -0.000278365)
(-0.0178622 0.0011517 -0.000347523)
(-0.0183858 0.000708562 -0.00043713)
(-0.0183479 0.000150787 -0.000547022)
(-0.0176439 -0.000515034 -0.000674321)
(-0.0161846 -0.00125857 -0.000805681)
(-0.0139296 -0.00201804 -0.000925677)
(-0.0109242 -0.00268141 -0.00100663)
(-0.00739252 -0.00305744 -0.00101421)
(-0.00347145 -0.00283836 -0.000914119)
(-0.00070137 -0.00141395 -0.000507297)
(-0.000421131 0.00222076 -0.000302032)
(-0.00211287 0.00407309 -0.000309521)
(-0.00461976 0.00467592 -0.0002899)
(-0.00712063 0.0047905 -0.000264589)
(-0.00962242 0.00472755 -0.000249921)
(-0.0120424 0.00458118 -0.000244703)
(-0.0143337 0.00436022 -0.000248695)
(-0.0164468 0.00404682 -0.000264165)
(-0.0183202 0.00361415 -0.000294526)
(-0.0198773 0.00303145 -0.000343767)
(-0.0210257 0.00226753 -0.000415855)
(-0.0216577 0.00129604 -0.000513996)
(-0.0216511 0.000103047 -0.000639964)
(-0.020876 -0.00129682 -0.000788806)
(-0.0192198 -0.00284749 -0.000949121)
(-0.0166153 -0.0044254 -0.0011003)
(-0.0130911 -0.0058056 -0.00120662)
(-0.00889701 -0.00659722 -0.00122232)
(-0.00418721 -0.00616945 -0.00110141)
(-0.000844698 -0.00329187 -0.000599114)
(-0.000447845 0.00360741 -0.000362416)
(-0.00226098 0.00648198 -0.00038831)
(-0.00494561 0.00739673 -0.000372074)
(-0.00761546 0.00755175 -0.000344488)
(-0.010288 0.00743201 -0.000326296)
(-0.0128802 0.00718235 -0.000317275)
(-0.0153488 0.0068184 -0.000317895)
(-0.0176487 0.00631591 -0.00033128)
(-0.0197218 0.00563633 -0.000361991)
(-0.0214934 0.00473359 -0.000415577)
(-0.022868 0.00355898 -0.000497936)
(-0.0237273 0.00206899 -0.000614548)
(-0.0239305 0.000238682 -0.000769489)
(-0.0233145 -0.00192241 -0.000963494)
(-0.021711 -0.00434403 -0.00117741)
(-0.0189875 -0.00684552 -0.00138805)
(-0.015116 -0.00907654 -0.00154595)
(-0.010352 -0.010405 -0.00158507)
(-0.00486734 -0.00979705 -0.00143896)
(-0.000962625 -0.00528952 -0.000789202)
(-0.00045368 0.00507144 -0.000412801)
(-0.00233025 0.00903704 -0.000456085)
(-0.0051238 0.0102821 -0.000443416)
(-0.00790278 0.0104832 -0.000415046)
(-0.0106959 0.0103133 -0.00039576)
(-0.0134238 0.00997245 -0.000386299)
(-0.0160523 0.0094846 -0.000387981)
(-0.018546 0.00881977 -0.00040503)
(-0.0208557 0.00792725 -0.000443497)
(-0.0229134 0.00674309 -0.000511064)
(-0.0246244 0.00519503 -0.000616609)
(-0.0258596 0.00321143 -0.000769029)
(-0.0264491 0.000737745 -0.000975276)
(-0.0261819 -0.00223627 -0.00124157)
(-0.0248102 -0.00564449 -0.00155271)
(-0.0220915 -0.00925882 -0.00187133)
(-0.0178848 -0.012584 -0.00212941)
(-0.0124138 -0.0146749 -0.002224)
(-0.00586127 -0.0139536 -0.00204194)
(-0.00114141 -0.00755319 -0.00113743)
(-0.000454918 0.00658518 -0.000461841)
(-0.00238427 0.0117043 -0.000523005)
(-0.00527726 0.0133011 -0.000514306)
(-0.00815987 0.0135592 -0.000486132)
(-0.0110719 0.0133544 -0.000467309)
(-0.0139404 0.012947 -0.000459665)
(-0.0167439 0.0123724 -0.000465589)
(-0.0194615 0.0115963 -0.000490745)
(-0.0220594 0.010556 -0.000543204)
(-0.0244834 0.00916733 -0.000633625)
(-0.0266465 0.00732744 -0.000775315)
(-0.0284145 0.00492278 -0.000983281)
(-0.0295896 0.00184787 -0.00127255)
(-0.0299033 -0.00196065 -0.00165511)
(-0.0289983 -0.00648115 -0.00212611)
(-0.0264628 -0.011462 -0.00263477)
(-0.021958 -0.0162518 -0.00308339)
(-0.0155831 -0.0194962 -0.00330344)
(-0.0074847 -0.0188342 -0.00308036)
(-0.00146644 -0.0102247 -0.00173687)
(-0.000455809 0.0081489 -0.000516296)
(-0.00244197 0.0144877 -0.000597617)
(-0.00544212 0.0164596 -0.000593338)
(-0.00843439 0.016787 -0.000565445)
(-0.0114706 0.0165647 -0.000547253)
(-0.0144856 0.0161213 -0.000541949)
(-0.0174747 0.0155074 -0.000553317)
(-0.0204371 0.0146881 -0.000588923)
(-0.0233625 0.0135906 -0.000659616)
(-0.0262215 0.0121102 -0.000780356)
(-0.0289492 0.010108 -0.000971173)
(-0.0314204 0.00741363 -0.00125746)
(-0.0334207 0.00383998 -0.00166834)
(-0.0346325 -0.000778437 -0.00222886)
(-0.0345689 -0.0064979 -0.00295929)
(-0.0325805 -0.0131345 -0.0038013)
(-0.0280075 -0.019911 -0.00461785)
(-0.0206203 -0.0249699 -0.00512904)
(-0.0103551 -0.0247861 -0.0048987)
(-0.00213871 -0.0136617 -0.00279612)
(-0.000456977 0.00977112 -0.000580783)
(-0.00250783 0.017404 -0.000686013)
(-0.00562598 0.0197738 -0.000686292)
(-0.0087314 0.0201786 -0.000657603)
(-0.0118892 0.0199531 -0.000638608)
(-0.0150434 0.0195032 -0.000634246)
(-0.0182094 0.0189016 -0.000650089)
(-0.021413 0.0181187 -0.000696101)
(-0.0246771 0.0170781 -0.000786768)
(-0.0280122 0.0156588 -0.000942959)
(-0.0313974 0.0136864 -0.00119449)
(-0.0347487 0.0109246 -0.00158264)
(-0.0378723 0.00707647 -0.00215897)
(-0.0404037 0.00181774 -0.00297699)
(-0.0417604 -0.00508675 -0.00411197)
(-0.0410503 -0.0136403 -0.00554299)
(-0.0371187 -0.0230653 -0.00706795)
(-0.0290165 -0.0310325 -0.00824546)
(-0.0159816 -0.03238 -0.00817184)
(-0.00372452 -0.0187792 -0.00480524)
(-0.00045958 0.0114634 -0.000659684)
(-0.00258637 0.0204734 -0.000794033)
(-0.00583413 0.0232589 -0.000798453)
(-0.00904988 0.0237392 -0.000766437)
(-0.0123139 0.0235143 -0.000743267)
(-0.0155798 0.0230794 -0.000736119)
(-0.0188863 0.0225379 -0.000752761)
(-0.0222911 0.0218752 -0.000806016)
(-0.0258603 0.0210229 -0.00091474)
(-0.0296613 0.0198565 -0.00110727)
(-0.0337458 0.0181774 -0.00142671)
(-0.0381162 0.0156881 -0.00193782)
(-0.0426642 0.0119706 -0.00273288)
(-0.0470785 0.00649173 -0.0039336)
(-0.0507708 -0.00130663 -0.00565864)
(-0.052674 -0.0117329 -0.00800841)
(-0.0510842 -0.0244537 -0.0108238)
(-0.0436783 -0.0370705 -0.013346)
(-0.0278228 -0.0426425 -0.0138505)
(-0.0076801 -0.0278431 -0.00884379)
(-0.00046739 0.0132443 -0.000758778)
(-0.0026894 0.0237234 -0.000929096)
(-0.00608213 0.0269305 -0.000936403)
(-0.00939927 0.0274661 -0.000896616)
(-0.0127398 0.0272266 -0.000863437)
(-0.0160666 0.0268107 -0.000846839)
(-0.0194429 0.0263626 -0.00085717)
(-0.0229617 0.0258957 -0.000910299)
(-0.0267387 0.0253661 -0.00102982)
(-0.0309141 0.0246701 -0.00125258)
(-0.0356438 0.0236151 -0.0016378)
(-0.0410752 0.0218767 -0.00228074)
(-0.0472921 0.0189432 -0.00332899)
(-0.054213 0.0140716 -0.00498739)
(-0.061448 0.00631415 -0.00749412)
(-0.0681856 -0.00531681 -0.0110805)
(-0.0722775 -0.0215812 -0.015578)
(-0.0688346 -0.0416891 -0.0197889)
(-0.0510344 -0.057929 -0.0209883)
(-0.0162141 -0.0466189 -0.0156614)
(-0.000489049 0.0151472 -0.000887109)
(-0.00284254 0.0271957 -0.00110215)
(-0.00640566 0.0308079 -0.00110975)
(-0.0098111 0.0313496 -0.00105512)
(-0.0131838 0.0310505 -0.0010029)
(-0.0164956 0.030628 -0.000966539)
(-0.0198335 0.0302777 -0.000959218)
(-0.0233242 0.0300541 -0.000999603)
(-0.0271322 0.0299597 -0.00111536)
(-0.0314741 0.0299442 -0.00135085)
(-0.0366295 0.0298732 -0.00178049)
(-0.0429469 0.0294709 -0.00252977)
(-0.0508312 0.028242 -0.00380097)
(-0.0607017 0.0253765 -0.00588025)
(-0.0729088 0.0196069 -0.0090532)
(-0.0872587 0.00874965 -0.0132994)
(-0.100973 -0.0111853 -0.0177142)
(-0.104735 -0.0450698 -0.0198278)
(-0.0851544 -0.0862076 -0.0192753)
(-0.0283131 -0.0885833 -0.0204139)
(-0.000542423 0.0172366 -0.00106013)
(-0.00309525 0.0309674 -0.00133189)
(-0.00687267 0.0349363 -0.00133625)
(-0.0103512 0.0353925 -0.00125608)
(-0.0136979 0.034943 -0.00117085)
(-0.0168942 0.0344416 -0.00109923)
(-0.0200494 0.0341444 -0.00105768)
(-0.0233155 0.0341589 -0.00106687)
(-0.0268929 0.034555 -0.00115664)
(-0.0310597 0.0353774 -0.00137485)
(-0.0362101 0.0366209 -0.00180248)
(-0.0429015 0.0381769 -0.00257352)
(-0.0519183 0.0397554 -0.0038803)
(-0.0643522 0.0407049 -0.00587576)
(-0.0815954 0.0393376 -0.00828502)
(-0.104232 0.0307498 -0.00950434)
(-0.127485 0.00325466 -0.00582754)
(-0.13677 -0.0590464 0.00447654)
(-0.114649 -0.143115 0.00850567)
(-0.0357979 -0.166176 -0.0122964)
(-0.00065885 0.0195994 -0.00130204)
(-0.00352615 0.0350807 -0.00163776)
(-0.00759219 0.0392619 -0.00162523)
(-0.0111346 0.0394729 -0.00150153)
(-0.0143889 0.0387495 -0.00136636)
(-0.0173479 0.0380716 -0.00124297)
(-0.0201438 0.0377396 -0.00114902)
(-0.0229409 0.0379132 -0.0011042)
(-0.0259445 0.0387453 -0.00113742)
(-0.0294464 0.0404055 -0.00129087)
(-0.0338926 0.0430838 -0.00162905)
(-0.039966 0.0469566 -0.00223224)
(-0.0487147 0.0520972 -0.00310031)
(-0.0617302 0.0579635 -0.00371085)
(-0.0810341 0.0614716 -0.00194661)
(-0.107275 0.0521552 0.00711567)
(-0.136021 0.009564 0.0288418)
(-0.149429 -0.088556 0.0544661)
(-0.126346 -0.213153 0.0481877)
(-0.0345894 -0.255674 0.00151342)
(-0.000933054 0.0225194 -0.00168039)
(-0.00435958 0.0400373 -0.00212506)
(-0.00879562 0.0443547 -0.00209947)
(-0.0123284 0.0441434 -0.00190872)
(-0.0153676 0.0428763 -0.00168116)
(-0.0179515 0.0417311 -0.00145909)
(-0.0202219 0.041087 -0.00126989)
(-0.0223169 0.0411637 -0.00113643)
(-0.0244026 0.0421901 -0.00107979)
(-0.0267163 0.0444603 -0.00112441)
(-0.0296398 0.0483797 -0.00128822)
(-0.0337882 0.0544196 -0.00150395)
(-0.0401862 0.0629687 -0.00134045)
(-0.0504712 0.0730672 0.000946151)
(-0.0671973 0.079474 0.00997276)
(-0.0917214 0.0664466 0.0332713)
(-0.124284 0.00965567 0.0718731)
(-0.141844 -0.117073 0.0952804)
(-0.122206 -0.268053 0.0578038)
(-0.0296098 -0.335366 0.000295515)
(-0.00132605 0.0263622 -0.00221436)
(-0.00538663 0.0449119 -0.00267737)
(-0.0104595 0.0485554 -0.0025824)
(-0.0141401 0.0473361 -0.00227004)
(-0.0170353 0.0454411 -0.00193726)
(-0.0191429 0.0439341 -0.00161564)
(-0.0206816 0.0430803 -0.00133148)
(-0.0217934 0.0430389 -0.00110221)
(-0.0225827 0.0440511 -0.000942356)
(-0.02315 0.0464855 -0.000851233)
(-0.023693 0.0509151 -0.000784602)
(-0.0245273 0.0580012 -0.000479256)
(-0.0264457 0.068352 0.000954953)
(-0.0307332 0.0803912 0.00639402)
(-0.0408051 0.0882566 0.0219152)
(-0.0589724 0.0730842 0.054745)
(-0.0931571 0.0097756 0.0958743)
(-0.107411 -0.137641 0.0983621)
(-0.104549 -0.301301 0.0391895)
(-0.0197462 -0.406923 -0.0142732)
(-0.00341398 0.0299621 -0.00324623)
(-0.00967642 0.0533601 -0.00396368)
(-0.0142559 0.0568084 -0.00376711)
(-0.0171945 0.0549197 -0.00328801)
(-0.0190886 0.051548 -0.00270816)
(-0.0203454 0.048573 -0.00213712)
(-0.0210549 0.0463934 -0.0016274)
(-0.0212016 0.0452072 -0.00120633)
(-0.0207114 0.0452383 -0.000887743)
(-0.0194538 0.0468054 -0.000647663)
(-0.017343 0.0505143 -0.000400455)
(-0.0141661 0.0569987 0.00023329)
(-0.0104346 0.0670902 0.00235737)
(-0.00610985 0.0789254 0.00898356)
(-0.00576071 0.0882025 0.026369)
(-0.00818156 0.0746874 0.05866)
(-0.0346101 0.0140653 0.09174)
(-0.0399118 -0.134346 0.0784931)
(-0.0746602 -0.306532 0.0259067)
(0.000118169 -0.457384 -0.0316065)
(-0.00147343 0.0447008 -0.00520041)
(-0.0082155 0.0570839 -0.00554504)
(-0.0173251 0.057036 -0.00497357)
(-0.0206897 0.0521344 -0.00395365)
(-0.0231397 0.0485066 -0.00310008)
(-0.0238172 0.0457852 -0.00229288)
(-0.0234413 0.0438536 -0.00158994)
(-0.0220923 0.0425984 -0.00101398)
(-0.0197655 0.0421865 -0.000598433)
(-0.0162129 0.0427933 -0.000310358)
(-0.0111912 0.0450684 -0.000100118)
(-0.00388435 0.0492978 0.000403522)
(0.00539018 0.0565078 0.00220204)
(0.0188495 0.0651064 0.00727597)
(0.030103 0.0726087 0.0206762)
(0.0488796 0.0639488 0.0449305)
(0.0345318 0.0148533 0.0664661)
(0.0392588 -0.106187 0.0569962)
(-0.0296468 -0.292348 0.0198098)
(0.0302759 -0.476584 -0.0460269)
(-0.0123572 0.0356049 -0.00619044)
(-0.0242508 0.0787516 -0.00789393)
(-0.0225224 0.0765486 -0.00775143)
(-0.0272246 0.070562 -0.00660324)
(-0.0271846 0.0626581 -0.00496389)
(-0.0254567 0.0559132 -0.00341682)
(-0.0220799 0.0504115 -0.00213075)
(-0.0174335 0.0460354 -0.00114844)
(-0.0117411 0.0428262 -0.00050793)
(-0.00463593 0.0405316 -0.000179592)
(0.00357278 0.0395775 -0.000160346)
(0.014345 0.039815 -0.000275228)
(0.0265681 0.0422602 0.000216482)
(0.0443289 0.0453905 0.00265423)
(0.0587818 0.0492389 0.00931756)
(0.0880188 0.0441388 0.0238107)
(0.0840109 0.0147486 0.0345243)
(0.116263 -0.0671863 0.0337072)
(0.0408659 -0.259765 0.010763)
(0.0769153 -0.466853 -0.0574509)
(-0.0762415 0.0998594 -0.0195705)
(-0.0613776 0.0608794 -0.0152508)
(-0.0608365 0.0597903 -0.0118504)
(-0.0384821 0.0517742 -0.00882006)
(-0.0195481 0.0437774 -0.00666187)
(0.00144287 0.0378803 -0.00482643)
(0.0208802 0.0336403 -0.00336094)
(0.0402209 0.0300377 -0.00221985)
(0.0574429 0.0274787 -0.00139034)
(0.0757306 0.025028 -0.000915309)
(0.090779 0.023786 -0.000812962)
(0.109927 0.0224642 -0.00112651)
(0.122669 0.022425 -0.00162195)
(0.148631 0.0220849 -0.00141251)
(0.155453 0.0193812 -0.000774408)
(0.199696 0.0130831 0.00475071)
(0.18662 -0.0166109 0.0108363)
(0.23631 -0.074378 0.0100152)
(0.15918 -0.237677 0.00313326)
(0.150684 -0.416137 -0.0682968)
(0.119155 0.140169 -0.0169423)
(0.151477 0.0856255 -0.0185421)
(0.228827 0.0632113 -0.0185623)
(0.2835 0.0477293 -0.0171522)
(0.324548 0.0368109 -0.0153476)
(0.362423 0.0287221 -0.0136829)
(0.39083 0.023076 -0.0121239)
(0.421393 0.0188101 -0.0108592)
(0.440626 0.0157701 -0.00951023)
(0.468448 0.0133735 -0.00870732)
(0.47978 0.0115358 -0.00761426)
(0.508852 0.0103514 -0.00738845)
(0.511792 0.00904032 -0.00642091)
(0.545692 0.00858138 -0.0069299)
(0.537347 0.00673284 -0.00517566)
(0.575221 0.00372768 -0.00652117)
(0.542947 -0.0050155 -0.00272028)
(0.559193 -0.025144 -0.00880413)
(0.427602 -0.0672386 -0.010029)
(0.302741 -0.144711 -0.0811488)
(-0.000122091 0.000124961 -0.000131596)
(-0.000917919 0.000373825 -0.000135491)
(-0.00224391 0.000458769 -0.00012204)
(-0.00357077 0.000479326 -0.000111567)
(-0.00491164 0.000481379 -0.000112652)
(-0.00622368 0.000479233 -0.000124601)
(-0.00748713 0.00047264 -0.000147158)
(-0.00867749 0.000457346 -0.000181412)
(-0.00975919 0.000428129 -0.000229596)
(-0.0106849 0.000379231 -0.000293905)
(-0.0113948 0.00030473 -0.000376107)
(-0.0118176 0.000199462 -0.000476878)
(-0.0118739 6.06685e-05 -0.000594955)
(-0.0114826 -0.000113725 -0.00072521)
(-0.0105745 -0.000315841 -0.000858238)
(-0.00911042 -0.000528129 -0.000978993)
(-0.00711193 -0.000715927 -0.00106687)