/*--------------------------------*- C++ -*----------------------------------*\
  =========                 |
  \\      /  F ield         | OpenFOAM: The Open Source CFD Toolbox
   \\    /   O peration     | Website:  https://openfoam.org
    \\  /    A nd           | Version:  10
     \\/     M anipulation  |
\*---------------------------------------------------------------------------*/
FoamFile
{
    format      ascii;
    class       volScalarField;
    location    "8.05";
    object      p;
}
// * * * * * * * * * * * * * * * * * * * * * * * * * * * * * * * * * * * * * //

dimensions      [0 2 -2 0 0 0 0];

internalField   nonuniform List<scalar> 
496
(
27.4804
27.1292
23.4346
17.3722
28.4971
28.3976
23.8272
17.3712
33.5557
30.9085
22.8099
12.0195
40.5356
37.7553
34.6545
19.0951
8.76159
-0.511366
8.36859
-0.679285
-3.34656
-8.22728
-30.5449
-57.1695
-7.78906
-12.5055
-15.1162
-16.6981
-8.76201
-14.3986
-17.8173
-19.3614
-2.77126
-4.60678
-11.8478
-16.3926
-26.379
-9.56023
-13.8263
-18.5911
-17.5835
-18.2741
-18.6501
-18.9508
-19.1403
-18.9487
-18.1599
-16.8106
-15.6247
-14.3632
-13.1826
-11.7261
-10.2477
-8.78098
-7.41594
-6.81764
-6.3998
-6.1866
-5.72222
-5.83247
-6.48303
-7.1007
-7.34328
-6.95154
-6.88682
-6.8837
-6.7475
-6.18715
-5.30997
-4.75873
-4.20853
-3.88251
-3.29119
-2.65369
-2.03287
-1.32951
-0.802099
-0.235305
0.0104306
0.0357955
-19.9826
-20.3253
-20.2759
-20.1556
-19.7988
-19.2354
-18.3386
-17.299
-16.0952
-14.5788
-13.091
-11.5361
-10.0034
-8.35677
-6.95532
-6.22935
-5.98111
-5.74376
-5.36073
-5.51736
-6.39597
-7.17765
-7.49125
-7.15496
-6.98367
-6.82208
-6.69971
-6.20679
-5.51073
-4.86814
-4.27521
-3.90565
-3.3349
-2.79926
-2.07675
-1.37291
-0.661016
-0.000348061
0.329563
0.33905
-18.8667
-19.8514
-20.2323
-20.5871
-20.6011
-19.8879
-19.1073
-18.5432
-17.2333
-15.3778
-13.3289
-11.4387
-9.54503
-7.78139
-6.92773
-6.36259
-5.73593
-5.25226
-5.18799
-5.87471
-6.74088
-7.71087
-8.08001
-8.29848
-8.1043
-7.52046
-6.86455
-5.91389
-5.33926
-4.55869
-4.17209
-3.75688
-3.34126
-2.85969
-1.9359
-1.17283
-0.33868
0.263561
0.142615
0.21247
-19.1548
-19.2358
-19.4771
-20.4224
-20.6129
-19.3103
-19.4253
-19.904
-18.1189
-16.0842
-13.7084
-11.5496
-9.12857
-6.74571
-5.42555
-4.08023
-3.69802
-3.74977
-4.49527
-5.46737
-6.46127
-7.93503
-8.65595
-9.55357
-9.33728
-8.64453
-7.61318
-6.4168
-5.64305
-4.40593
-4.10886
-3.55875
-3.59133
-3.36893
-2.52697
-1.66025
0.750705
2.01187
2.76418
1.98712
44.5557
46.9073
60.6492
73.4572
44.4941
45.7477
60.0506
72.3577
-30.8681
-37.1799
-21.367
-16.2152
-32.4867
-33.5325
-23.0873
-24.1932
-23.4219
-19.9453
-24.7058
-22.3107
-20.5621
-21.2701
-22.0968
-20.053
-16.5408
-14.9551
-13.4728
-11.7017
-9.74028
-7.98593
-6.72146
-5.70031
-5.53558
-5.57432
-5.42142
-5.83103
-6.37575
-6.97284
-7.84293
-8.48174
-8.44643
-7.92874
-7.25678
-6.4374
-5.20987
-4.18266
-3.79528
-3.23873
-2.94576
-2.8855
-2.39607
-1.7497
-0.978877
-0.193138
0.379269
0.161756
-22.2768
-21.3901
-21.9795
-23.4928
-23.5493
-21.3953
-19.9566
-18.0491
-15.0674
-14.3876
-12.7534
-11.3993
-10.1524
-9.2737
-8.83889
-8.22475
-7.73463
-7.26258
-6.70036
-6.52643
-6.47998
-6.13386
-6.19651
-6.17559
-6.02162
-5.92568
-6.11316
-5.79703
-5.02654
-4.53138
-3.85035
-2.85942
-2.04084
-1.52493
-0.689608
-0.503597
-0.705293
-0.422509
-1.10001
-1.27501
39.9412
36.4249
32.5496
16.3196
31.4788
29.3076
20.7665
10.5705
26.6485
27.2908
23.4144
17.3301
26.0451
26.2675
22.9542
16.847
-34.8813
-59.9164
-4.87738
-9.75567
8.34223
-0.582953
8.33791
-1.08113
-29.9581
-16.1777
-7.61216
-15.4607
-3.50676
-4.23769
-8.90138
-14.865
-8.18087
-14.1558
-18.0761
-19.7784
-8.41524
-13.2078
-15.7156
-16.8362
-21.7226
-23.2591
-22.6834
-20.8204
-20.6996
-20.1078
-18.4346
-15.8058
-13.5298
-12.0949
-12.1704
-11.7766
-10.7069
-10.0912
-9.17159
-9.04784
-8.15757
-7.88518
-7.58365
-6.75818
-6.05645
-4.38185
-4.27806
-4.02722
-4.61435
-4.95207
-5.22384
-6.04669
-5.33322
-4.92357
-3.87306
-2.81905
-1.54591
-0.300067
-0.165929
0.358701
-0.444625
-0.779407
-1.11062
-1.14944
-19.7266
-22.6315
-22.8791
-21.5993
-19.8387
-17.9677
-17.0642
-16.4448
-15.2402
-13.5596
-12.4882
-12.1243
-11.3696
-10.5624
-9.59401
-8.92346
-8.15771
-7.6551
-7.55251
-7.07584
-6.70772
-5.97482
-5.46444
-5.32283
-5.32289
-5.72651
-5.44482
-5.38844
-4.87686
-4.25311
-3.42321
-2.60515
-1.82426
-1.13042
-0.634663
-0.328109
-0.542158
-0.752875
-0.664267
-0.451533
-20.6115
-21.1358
-21.5662
-21.2749
-20.1555
-18.533
-16.7952
-15.7077
-14.6725
-13.6021
-12.3879
-11.6293
-11.0653
-10.3449
-9.55418
-8.60864
-8.05683
-7.60891
-7.48153
-7.36799
-7.026
-6.50228
-5.62656
-5.19408
-4.95393
-5.07045
-5.08642
-4.68199
-4.31378
-3.67114
-3.29366
-2.71078
-2.1636
-1.53629
-0.869311
-0.57892
-0.165019
-0.0748214
0.0632686
0.14899
-17.6184
-18.4279
-19.4098
-19.9148
-19.7853
-18.7204
-16.8375
-15.2028
-14.1635
-13.5632
-12.5403
-11.6117
-11.0431
-10.4661
-9.73164
-8.65925
-8.08179
-7.67431
-7.52354
-7.39461
-7.05857
-6.58625
-5.70683
-5.23551
-5.01397
-5.15459
-5.09262
-4.66551
-4.20809
-3.61821
-3.25663
-2.71137
-2.15452
-1.59041
-0.975194
-0.607749
-0.260925
-0.0925074
-0.0330327
-0.00153996
)
;

boundaryField
{
    inlet
    {
        type            zeroGradient;
    }
    outlet
    {
        type            fixedValue;
        value           uniform 0;
    }
    obstacle
    {
        type            zeroGradient;
    }
    upperWall
    {
        type            zeroGradient;
    }
    lowerWall
    {
        type            zeroGradient;
    }
    frontAndBack
    {
        type            empty;
    }
}


// ************************************************************************* //
