/*--------------------------------*- C++ -*----------------------------------*\
  =========                 |
  \\      /  F ield         | OpenFOAM: The Open Source CFD Toolbox
   \\    /   O peration     | Website:  https://openfoam.org
    \\  /    A nd           | Version:  10
     \\/     M anipulation  |
\*---------------------------------------------------------------------------*/
FoamFile
{
    format      ascii;
    class       volVectorField;
    location    "8.05";
    object      U;
}
// * * * * * * * * * * * * * * * * * * * * * * * * * * * * * * * * * * * * * //

dimensions      [0 1 -1 0 0 0 0];

internalField   nonuniform List<vector> 
496
(
(9.94621 0.0557624 0)
(10.0163 -0.176559 0)
(10.2538 -0.122578 0)
(10.8513 -0.249696 0)
(10.1131 0.383381 0)
(9.77058 -1.17046 0)
(10.3787 -0.371636 0)
(10.8137 -1.19134 0)
(11.1696 1.23527 0)
(8.65144 -2.75877 0)
(11.6027 -0.130869 0)
(10.2459 -3.98441 0)
(12.44 1.3823 0)
(7.64339 -2.43146 0)
(13.4984 0.484731 0)
(9.33974 -6.33988 0)
(11.4814 -0.190529 2.44221e-18)
(12.2227 -0.226413 1.68752e-19)
(11.733 -0.477346 -1.01127e-18)
(12.4156 0.00552356 2.35811e-18)
(13.2395 -1.94941 -1.4337e-18)
(12.5598 -0.50676 -2.52737e-18)
(13.9983 -5.56602 -3.48478e-17)
(14.5898 -4.31609 6.48232e-17)
(12.7406 -0.13794 0)
(13.0585 -0.157624 0)
(13.2316 -0.00395312 0)
(13.3019 0.0588179 0)
(13.0589 0.0514576 0)
(13.4377 -0.390626 0)
(13.7473 -0.53829 0)
(13.8099 -0.604873 0)
(12.6705 1.0978 0)
(12.3571 0.688381 0)
(13.1557 0.564794 0)
(13.3217 0.405143 0)
(12.6209 -2.99389 0)
(9.47704 -1.9008 0)
(9.76069 -0.254826 0)
(10.5165 -1.28508 0)
(13.3775 0.150244 0)
(13.3735 0.233287 0)
(13.4346 0.260274 0)
(13.3868 0.352693 0)
(13.4389 0.338429 0)
(13.3442 0.409309 0)
(13.2721 0.373001 0)
(13.0458 0.421673 0)
(12.875 0.450679 0)
(12.6375 0.451032 0)
(12.4383 0.483933 0)
(12.2023 0.398953 0)
(12.0029 0.437831 0)
(11.8089 0.333535 0)
(11.7032 0.321576 0)
(11.6251 0.242024 0)
(11.7154 0.201602 0)
(11.6652 0.204459 0)
(11.7735 0.146729 0)
(11.7039 0.204769 0)
(11.8947 0.167629 0)
(11.8373 0.262814 0)
(11.8342 0.294157 0)
(11.6113 0.363911 0)
(11.4298 0.442735 0)
(11.2367 0.44888 0)
(10.9885 0.551962 0)
(10.7301 0.511479 0)
(10.5186 0.58222 0)
(10.2654 0.510234 0)
(10.3256 0.465558 0)
(10.0629 0.414431 0)
(10.2782 0.315354 0)
(9.95339 0.344974 0)
(10.1616 0.243793 0)
(9.95896 0.264636 0)
(10.0692 0.135343 0)
(10.1205 0.107883 0)
(10.1507 0.0080183 0)
(10.4046 -0.024687 0)
(13.9238 -0.581693 0)
(13.9323 -0.484141 0)
(14.0009 -0.478668 0)
(13.9911 -0.340315 0)
(14.0218 -0.33147 0)
(13.9801 -0.170959 0)
(13.9193 -0.191428 0)
(13.8146 -0.0529938 0)
(13.6688 0.0243479 0)
(13.4699 0.0707113 0)
(13.2872 0.116419 0)
(13.0702 0.00614676 0)
(12.941 0.0563665 0)
(12.7279 -0.124555 0)
(12.6831 -0.0997229 0)
(12.6354 -0.165687 0)
(12.7677 -0.208539 0)
(12.8057 -0.196889 0)
(12.9023 -0.321851 0)
(12.9715 -0.179225 0)
(13.1352 -0.246301 0)
(13.2346 -0.0850252 0)
(13.229 -0.087947 0)
(13.0905 0.0111173 0)
(12.9519 0.0936859 0)
(12.732 0.0038691 0)
(12.6402 0.0230963 0)
(12.3138 -0.222385 0)
(12.2512 -0.183648 0)
(11.8741 -0.339594 0)
(11.8901 -0.284665 0)
(11.6413 -0.295133 0)
(11.6614 -0.31564 0)
(11.5559 -0.189102 0)
(11.469 -0.306813 0)
(11.4935 -0.15187 0)
(11.358 -0.266545 0)
(11.563 -0.188828 0)
(11.4958 -0.194652 0)
(11.8423 -0.194586 0)
(13.6152 0.442627 0)
(13.6591 0.340783 0)
(13.6694 0.262752 0)
(13.707 0.261447 0)
(13.7889 0.248385 0)
(13.7114 0.353516 0)
(13.7595 0.30523 0)
(13.6486 0.533592 0)
(13.7909 0.648436 0)
(13.4619 0.712218 0)
(13.5454 0.809855 0)
(13.1931 0.642886 0)
(13.2531 0.696898 0)
(12.9531 0.35562 0)
(13.0323 0.328149 0)
(12.962 0.0921357 0)
(12.9057 -0.0594546 0)
(12.9813 -0.0803707 0)
(12.8852 -0.265141 0)
(13.1537 -0.0304316 0)
(13.2038 -0.126954 0)
(13.4622 0.160012 0)
(13.5952 0.235049 0)
(13.6272 0.449945 0)
(13.7447 0.796985 0)
(13.4714 0.835833 0)
(13.4298 1.19656 0)
(12.9022 0.98342 0)
(12.7222 1.179 0)
(12.2357 0.881856 0)
(11.9933 0.802188 0)
(11.823 0.695572 0)
(11.4432 0.422299 0)
(11.5574 0.64041 0)
(11.0323 0.275855 0)
(11.3487 0.442977 0)
(10.9855 -0.041992 0)
(11.2382 -0.189518 0)
(11.1468 -0.51903 0)
(11.1048 -0.572384 0)
(10.6343 -0.49126 0)
(10.0211 -0.779771 0)
(10.1823 -0.480035 0)
(9.65414 -0.347705 0)
(10.3211 -0.300786 0)
(9.79583 -0.383659 0)
(9.56374 -0.0886932 0)
(10.2623 0.159791 0)
(10.189 0.267692 0)
(10.3948 0.297534 0)
(10.2915 0.412165 0)
(10.2044 0.449702 0)
(10.2078 0.433167 0)
(9.55704 0.387279 0)
(9.63246 0.310431 0)
(9.00987 0.179041 0)
(8.99825 0.0465399 0)
(8.88928 -0.0882933 0)
(8.63792 -0.196122 0)
(9.19455 -0.301644 0)
(8.96396 -0.350975 0)
(9.93495 -0.371747 0)
(9.88108 -0.375657 0)
(10.7176 -0.241622 0)
(11.1345 -0.0947546 0)
(11.4522 0.0646775 0)
(12.1644 0.201424 0)
(12.1822 0.268288 0)
(12.8925 0.314518 0)
(12.7681 0.223373 0)
(13.1128 0.135674 0)
(13.1903 0.063584 0)
(12.9792 -0.0516994 0)
(13.3618 -0.0520227 0)
(12.5066 -0.130525 0)
(12.8406 -0.0929371 0)
(11.3173 -0.0311223 0)
(10.8329 0.106796 0)
(9.41835 0.381129 0)
(8.35024 0.161252 0)
(11.8952 0.639404 -1.03034e-17)
(8.27685 -0.854341 -1.75892e-17)
(11.0032 0.112629 3.06132e-17)
(5.11181 -4.63477 -8.33384e-17)
(13.0383 -0.454494 1.0166e-17)
(7.32262 0.641437 1.72622e-17)
(12.2839 0.282272 -3.01136e-17)
(4.52497 4.39888 8.20841e-17)
(-2.90675 3.16756 0)
(-0.771506 -2.83934 0)
(6.66615 1.24438 0)
(-5.38341 2.87093 0)
(-3.30613 -1.21579 3.69255e-17)
(5.27585 -5.73207 0)
(-7.29616 3.01916 0)
(4.63004 -0.256768 0)
(2.71705 -1.08788 0)
(-2.47059 0.742544 0)
(0.923508 -0.655301 0)
(0.812804 0.761733 0)
(-1.62573 0.813995 0)
(0.240435 -0.987831 0)
(0.455453 -0.0994099 0)
(1.96129 0.931166 0)
(1.05379 0.726315 0)
(1.11223 0.655996 0)
(1.27109 0.578512 0)
(1.77407 0.672862 0)
(1.92317 0.770564 0)
(1.95885 0.639675 0)
(2.25211 0.570814 0)
(2.09358 0.228731 0)
(2.1866 -0.0933261 0)
(2.50354 -0.178211 0)
(2.687 -0.515517 0)
(2.70521 -0.578691 0)
(3.09171 -0.653433 0)
(3.06043 -0.688639 0)
(3.40077 -0.503142 0)
(3.8379 -0.228439 0)
(3.86474 0.0724889 0)
(4.05064 0.265397 0)
(4.02447 0.499507 0)
(4.43372 0.645467 0)
(4.35574 0.690789 0)
(4.35478 0.633764 0)
(4.64189 0.582579 0)
(4.79869 0.608699 0)
(4.78739 0.593486 0)
(5.06765 0.765459 0)
(5.00404 0.88273 0)
(5.04323 1.20986 0)
(4.76838 1.18126 0)
(4.88213 1.28581 0)
(4.51141 0.996509 0)
(4.76496 0.117683 0)
(-1.99377 -0.92244 0)
(2.11044 -0.0630358 0)
(-1.91417 -1.28458 0)
(-0.498157 1.51892 0)
(-0.297067 -0.631805 0)
(0.745492 -1.76388 0)
(-2.01791 -0.737039 0)
(0.0458871 -0.142216 0)
(-0.388383 -0.00309778 0)
(0.65878 -0.0959384 0)
(1.14216 -0.00996048 0)
(1.17559 0.0642528 0)
(1.61044 0.273025 0)
(1.95588 0.232787 0)
(2.39076 0.158182 0)
(2.89158 0.0727386 0)
(2.67476 -0.13703 0)
(3.28334 -0.400871 0)
(2.98148 -0.567572 0)
(2.6454 -0.646847 0)
(2.8446 -0.837386 0)
(2.26352 -0.839862 0)
(2.28504 -0.777524 0)
(2.28666 -0.724345 0)
(2.12631 -0.364355 0)
(2.11508 -0.0854324 0)
(2.31905 0.0577406 0)
(2.68558 -0.0245089 0)
(2.58887 0.0982852 0)
(2.97328 0.0992907 0)
(3.2818 -0.175705 0)
(3.5215 -0.0996963 0)
(3.6037 -0.0118816 0)
(4.25004 0.0612229 0)
(4.26911 0.261877 0)
(4.60022 0.655122 0)
(5.52653 0.63208 0)
(5.44359 0.715391 0)
(6.33308 0.754124 0)
(6.80864 0.068678 0)
(11.2273 -1.72259 0)
(8.80457 2.93441 0)
(11.7434 -1.15993 0)
(10.9218 7.0473 0)
(10.4049 -1.32636 0)
(9.57751 2.99761 0)
(11.0181 0.28636 0)
(11.2131 4.14147 0)
(9.84079 -0.516559 0)
(10.0364 1.26521 0)
(10.1364 0.310068 0)
(10.9754 1.09333 0)
(9.90155 -0.0875182 0)
(9.98128 0.179533 0)
(10.1698 0.113167 0)
(10.7825 0.211253 0)
(12.0784 5.0005 3.97942e-17)
(16.3515 4.86092 -6.79515e-17)
(13.077 2.26082 0)
(13.6421 0.493949 0)
(11.6308 0.440469 0)
(12.633 -0.230173 0)
(11.4293 0.249606 0)
(12.1798 0.182662 0)
(8.874 2.12953 0)
(10.6097 1.79587 0)
(7.55183 1.29311 0)
(7.1647 0.754437 0)
(13.0771 -0.421725 0)
(13.1435 -1.0809 0)
(13.5193 -0.634041 0)
(13.5456 -0.278959 0)
(13.2251 -0.139423 0)
(13.6444 0.12576 0)
(13.9573 0.522357 0)
(14.0672 0.6511 0)
(12.7555 0.222907 0)
(13.0519 0.191522 0)
(13.2382 0.135604 0)
(13.2556 0.00742256 0)
(9.15739 0.331762 0)
(8.62993 0.437729 0)
(9.29626 0.486896 0)
(8.59088 0.610982 0)
(8.24575 0.353792 0)
(8.45777 0.194135 0)
(8.75902 -0.00759837 0)
(8.25357 -0.22715 0)
(8.34352 -0.0954465 0)
(8.00525 -0.0315819 0)
(8.392 -0.0604915 0)
(8.89792 -0.0211202 0)
(8.78237 0.012664 0)
(9.59091 0.0285414 0)
(9.50729 0.00207735 0)
(10.3388 -0.0986873 0)
(10.4138 -0.123054 0)
(10.6394 -0.159479 0)
(11.1294 -0.132869 0)
(10.5306 -0.0461165 0)
(10.9631 -0.0785007 0)
(9.77131 -0.0111424 0)
(9.79065 -0.116414 0)
(8.89988 -0.0805682 0)
(8.38628 -0.0670756 0)
(8.44506 -0.0236067 0)
(7.55595 0.134465 0)
(8.4786 0.0285836 0)
(7.92991 0.153803 0)
(8.47654 0.0564929 0)
(8.67092 -0.0155996 0)
(8.59608 -0.00884415 0)
(9.17234 -0.0972836 0)
(8.67331 0.0887519 0)
(9.46582 0.0157455 0)
(9.13198 0.340669 0)
(9.76434 0.234027 0)
(10.2443 0.283027 0)
(10.4823 0.221999 0)
(11.417 -0.230553 0)
(14.1441 -0.379784 0)
(14.1437 -0.406209 0)
(14.4193 -0.620312 0)
(14.0708 -0.499371 0)
(14.0761 -0.581539 0)
(13.8209 -0.49723 0)
(13.8256 -0.609647 0)
(13.8555 -0.574227 0)
(13.7314 -0.491652 0)
(13.7193 -0.468779 0)
(13.5786 -0.332194 0)
(13.7816 -0.55024 0)
(13.7488 -0.480729 0)
(13.7795 -0.656224 0)
(13.8553 -0.685169 0)
(13.6632 -0.748268 0)
(13.8436 -0.920508 0)
(13.4344 -0.73479 0)
(13.7521 -0.915692 0)
(13.2852 -0.585078 0)
(13.5536 -0.595497 0)
(13.1567 -0.215615 0)
(13.1687 0.0225252 0)
(13.1063 0.080442 0)
(12.9173 0.335765 0)
(13.1447 0.0570329 0)
(12.8232 0.278562 0)
(13.056 -0.0785911 0)
(12.8998 -0.0959422 0)
(12.9486 -0.270891 0)
(12.9881 -0.484388 0)
(12.8296 -0.317359 0)
(13.0596 -0.59064 0)
(12.7309 -0.136972 0)
(13.1109 -0.3845 0)
(12.7657 -0.0592076 0)
(13.2803 -0.19094 0)
(13.0739 -0.300059 0)
(13.5021 -0.349632 0)
(13.3842 -0.755715 0)
(14.1176 0.653623 0)
(14.1794 0.515621 0)
(14.1742 0.319031 0)
(14.1713 0.287072 0)
(14.0457 0.193538 0)
(13.9242 0.293139 0)
(13.7785 0.291978 0)
(13.6995 0.296574 0)
(13.6682 0.226659 0)
(13.5753 0.17691 0)
(13.5566 0.246572 0)
(13.4544 0.107259 0)
(13.4371 0.142172 0)
(13.2711 0.00400157 0)
(13.1363 0.0665856 0)
(12.9147 0.0186348 0)
(12.727 0.0368058 0)
(12.5364 0.138753 0)
(12.4039 0.114267 0)
(12.2685 0.260096 0)
(12.2205 0.197164 0)
(12.1351 0.329327 0)
(12.1947 0.345593 0)
(12.2228 0.344063 0)
(12.3942 0.369823 0)
(12.5018 0.219656 0)
(12.6412 0.26561 0)
(12.6972 0.0741641 0)
(12.678 0.0902709 0)
(12.6928 -0.0620575 0)
(12.5787 -0.0282211 0)
(12.5826 -0.0195505 0)
(12.4571 0.0193626 0)
(12.398 0.140382 0)
(12.4209 0.129055 0)
(12.3161 0.251463 0)
(12.5145 0.121041 0)
(12.2952 0.131198 0)
(12.4263 -0.107501 0)
(12.0773 -0.144422 0)
(13.2875 -0.106758 0)
(13.2997 -0.216864 0)
(13.3403 -0.335382 0)
(13.33 -0.378169 0)
(13.2675 -0.450267 0)
(13.1356 -0.409843 0)
(12.9491 -0.409764 0)
(12.7722 -0.393929 0)
(12.7204 -0.425899 0)
(12.6217 -0.442078 0)
(12.5761 -0.413388 0)
(12.3869 -0.453789 0)
(12.3449 -0.446665 0)
(12.1233 -0.496609 0)
(11.9739 -0.476046 0)
(11.6405 -0.499393 0)
(11.421 -0.530471 0)
(11.1984 -0.508154 0)
(11.0251 -0.529246 0)
(10.9152 -0.444727 0)
(10.8112 -0.432695 0)
(10.7433 -0.316005 0)
(10.755 -0.272883 0)
(10.7343 -0.209921 0)
(10.9723 -0.167079 0)
(10.971 -0.163744 0)
(11.2244 -0.119631 0)
(11.0797 -0.170129 0)
(11.1618 -0.148332 0)
(10.9911 -0.193768 0)
(10.8962 -0.201914 0)
(10.8004 -0.207524 0)
(10.585 -0.269118 0)
(10.5817 -0.21219 0)
(10.4436 -0.292466 0)
(10.4375 -0.228804 0)
(10.4889 -0.310644 0)
(10.2558 -0.326303 0)
(10.4074 -0.356204 0)
(9.86058 -0.446589 0)
)
;

boundaryField
{
    inlet
    {
        type            fixedValue;
        value           uniform (10 0 0);
    }
    outlet
    {
        type            zeroGradient;
    }
    obstacle
    {
        type            noSlip;
    }
    upperWall
    {
        type            noSlip;
    }
    lowerWall
    {
        type            noSlip;
    }
    frontAndBack
    {
        type            empty;
    }
}


// ************************************************************************* //
