/*--------------------------------*- C++ -*----------------------------------*\
  =========                 |
  \\      /  F ield         | OpenFOAM: The Open Source CFD Toolbox
   \\    /   O peration     | Website:  https://openfoam.org
    \\  /    A nd           | Version:  10
     \\/     M anipulation  |
\*---------------------------------------------------------------------------*/
FoamFile
{
    format      ascii;
    class       volScalarField;
    location    "9.975";
    object      p;
}
// * * * * * * * * * * * * * * * * * * * * * * * * * * * * * * * * * * * * * //

dimensions      [0 2 -2 0 0 0 0];

internalField   nonuniform List<scalar> 
496
(
26.0115
26.9362
23.6472
17.2069
26.1938
27.6755
24.0848
17.9199
30.7473
28.9478
20.5919
11.1261
39.6436
36.0347
32.3685
17.5117
8.69524
-1.22986
9.03865
-0.632401
-3.30617
-10.122
-32.1718
-53.9476
-9.51017
-15.4295
-19.0895
-20.6853
-8.25437
-15.4323
-20.9393
-23.9064
-6.03148
-9.58678
-15.7824
-21.9039
-27.5971
-22.7667
-20.7778
-29.294
-20.6893
-19.7039
-18.1376
-15.7617
-13.8789
-13.7928
-14.6946
-15.3026
-15.028
-14.3732
-13.8102
-13.4409
-13.0808
-12.6933
-11.9675
-11.1587
-10.4687
-10.157
-9.90173
-9.25491
-8.51108
-7.58672
-6.68059
-5.50982
-4.55617
-3.7212
-3.0193
-2.52043
-2.31629
-2.58376
-2.815
-3.0491
-2.98581
-2.89518
-2.78197
-2.40466
-2.12208
-1.45469
-0.835364
-0.271162
-24.2711
-22.1845
-18.8931
-15.7727
-14.2332
-14.275
-14.864
-15.0533
-14.6586
-14.2938
-14.0606
-13.8265
-13.3333
-12.5835
-11.5499
-10.5413
-10.184
-10.107
-9.89508
-9.30067
-8.58036
-7.66375
-6.68907
-5.52519
-4.54274
-3.55703
-2.7427
-2.27123
-2.20049
-2.62685
-2.90342
-3.36387
-3.19889
-3.07271
-2.877
-2.53908
-2.21378
-1.55149
-0.572493
0.0380887
-24.3246
-22.9404
-18.8515
-14.6655
-13.2351
-13.8149
-14.7611
-14.8066
-14.4371
-14.4124
-14.4938
-14.3804
-13.8938
-12.8284
-11.5547
-10.9407
-10.7008
-10.9069
-10.7369
-10.4791
-9.52888
-8.18075
-6.44752
-4.88423
-3.62261
-2.85863
-2.27947
-2.03075
-2.55874
-3.25363
-4.2229
-4.67601
-4.53849
-4.02621
-3.01116
-2.52772
-1.79458
-1.14604
-1.16807
-0.141143
-28.1149
-23.549
-19.1527
-14.3065
-12.456
-12.9169
-13.3373
-12.9075
-14.3691
-15.5944
-15.8512
-15.0576
-13.3875
-11.2665
-9.80279
-9.49397
-9.82548
-10.3436
-10.5379
-11.0828
-10.6016
-9.54009
-7.5806
-5.32056
-2.62502
-0.0747474
0.503016
0.0930473
-1.2178
-2.52989
-4.36234
-5.09684
-5.40208
-4.9631
-3.75733
-3.42082
-2.04781
-0.770746
1.33039
2.18108
44.2156
45.8141
60.5735
72.798
42.9878
46.1725
60.0523
71.9604
-30.1978
-34.3827
-36.928
-34.4637
-34.7987
-38.8611
-32.0429
-32.6794
-22.0569
-21.4435
-19.3236
-17.8126
-15.2448
-12.3812
-11.1285
-13.6816
-15.1402
-15.322
-15.6879
-15.6555
-15.0758
-13.9459
-12.8025
-11.681
-10.5787
-9.87751
-9.82088
-9.96327
-9.59772
-8.40812
-7.15346
-5.69553
-3.99294
-2.72112
-2.27471
-1.64248
-1.97307
-2.92838
-3.59331
-4.38979
-5.05484
-4.33609
-3.89049
-2.70743
-1.13892
-0.671793
0.468012
0.668603
-23.5493
-17.495
-21.2419
-14.7061
-10.2322
-13.127
-12.2778
-11.4662
-12.5457
-14.5348
-15.7188
-16.7059
-17.0496
-16.288
-15.0503
-13.754
-11.7521
-9.58693
-8.31059
-7.26742
-5.93957
-5.70319
-6.01429
-5.96056
-5.94931
-6.0578
-5.54044
-4.4429
-3.65535
-2.95583
-1.95046
-1.60534
-1.5765
-1.6125
-1.75471
-1.52165
-1.22254
-1.15389
-1.24586
-0.844873
38.8961
35.8625
32.8847
16.6601
32.3335
29.005
19.7334
9.19901
27.1727
26.5502
20.5774
14.2081
25.7314
25.429
20.7492
14.0212
-34.4453
-60.7537
-6.91836
-12.4528
5.36568
-4.73284
5.7876
-4.05058
-32.7529
-19.6446
-19.6594
-21.5317
-7.71684
-11.08
-15.4082
-18.8094
-13.156
-19.5931
-22.4337
-21.9297
-11.8226
-16.7064
-18.7843
-18.9282
-21.5738
-19.029
-15.4272
-12.7414
-10.35
-8.62879
-10.735
-13.4066
-14.3113
-15.0085
-15.5673
-17.0323
-18.1065
-18.0087
-16.4477
-14.4439
-12.1491
-9.25206
-6.5622
-4.39163
-4.05286
-4.0566
-5.22271
-6.26979
-7.32693
-7.26865
-6.8528
-5.80484
-3.28919
-1.44233
1.15261
1.86264
1.95585
0.962562
0.0405125
-0.321171
-1.38554
-1.49971
-2.11603
-1.59317
-21.5236
-21.2829
-18.0919
-14.1803
-12.2504
-11.8095
-12.1408
-13.403
-14.0006
-14.6161
-15.3499
-16.297
-16.9388
-16.6319
-15.2669
-13.182
-11.2319
-9.32731
-7.94358
-6.88813
-6.06415
-5.66758
-5.85753
-6.38004
-6.62723
-6.56292
-5.40609
-4.36396
-2.82102
-1.9863
-1.27161
-0.572245
-0.40786
0.199278
-0.136109
-0.444772
-0.948814
-1.2905
-1.12344
-0.551918
-20.8243
-20.0196
-18.0855
-14.727
-11.8587
-11.0828
-12.1133
-13.5489
-14.4465
-14.7644
-15.068
-15.4715
-15.8153
-15.51
-14.348
-12.6062
-11.0965
-9.85585
-8.60189
-7.22466
-6.16388
-5.70892
-5.41195
-5.59953
-5.65232
-5.54225
-5.04743
-4.17362
-3.40102
-2.45616
-1.48413
-0.791883
-0.24691
0.00112841
-0.0288901
-0.146422
-0.133339
-0.192307
-0.0751991
-0.0922493
-18.2333
-17.7482
-17.1854
-15.2338
-12.5335
-11.2042
-12.2129
-14.2327
-15.3431
-15.0277
-14.439
-14.5141
-15.1278
-15.1568
-14.1164
-12.3703
-10.8603
-9.83971
-8.86405
-7.76808
-6.65018
-5.95938
-5.57388
-5.55604
-5.58731
-5.51745
-4.9442
-3.94006
-3.21248
-2.33826
-1.79179
-0.989538
-0.504651
-0.294088
-0.063486
0.0230495
0.201141
0.182247
0.0412355
-0.0351419
)
;

boundaryField
{
    inlet
    {
        type            zeroGradient;
    }
    outlet
    {
        type            fixedValue;
        value           uniform 0;
    }
    obstacle
    {
        type            zeroGradient;
    }
    upperWall
    {
        type            zeroGradient;
    }
    lowerWall
    {
        type            zeroGradient;
    }
    frontAndBack
    {
        type            empty;
    }
}


// ************************************************************************* //
