/*--------------------------------*- C++ -*----------------------------------*\
  =========                 |
  \\      /  F ield         | OpenFOAM: The Open Source CFD Toolbox
   \\    /   O peration     | Website:  https://openfoam.org
    \\  /    A nd           | Version:  10
     \\/     M anipulation  |
\*---------------------------------------------------------------------------*/
FoamFile
{
    format      ascii;
    class       volScalarField;
    location    "1";
    object      p;
}
// * * * * * * * * * * * * * * * * * * * * * * * * * * * * * * * * * * * * * //

dimensions      [0 2 -2 0 0 0 0];

internalField   nonuniform List<scalar> 
400
(
-1.41814e-09
4.65813e-05
0.000172349
0.000374025
0.000645979
0.000981413
0.00137204
0.00180821
0.0022791
0.00277289
0.00327704
0.00377847
0.00426389
0.00472007
0.00513422
0.00549434
0.00578967
0.00601109
0.00615086
0.00620422
-4.78897e-05
-7.90202e-07
0.000127093
0.000331767
0.000607564
0.000947726
0.00134392
0.00178639
0.00226422
0.00276546
0.00327741
0.00378684
0.00428027
0.00474424
0.00516569
0.00553238
0.00583327
0.00605906
0.0062018
0.00625612
-0.000178982
-0.000130273
2.77702e-06
0.000215638
0.000502372
0.000856006
0.00126793
0.00172808
0.00222519
0.00274695
0.00328027
0.00381145
0.00432651
0.00481141
0.00525247
0.00563672
0.00595244
0.00618962
0.00633967
0.00639648
-0.000395554
-0.000343879
-0.000202382
2.39963e-05
0.000328879
0.000704851
0.0011428
0.00163215
0.00216103
0.00271657
0.00328501
0.00385195
0.00440259
0.00492198
0.00539539
0.00580871
0.006149
0.00640509
0.0065673
0.00662872
-0.000702303
-0.000646373
-0.000492897
-0.000247348
8.32611e-05
0.000490849
0.000965574
0.00149608
0.00206972
0.00267279
0.0032907
0.0039081
0.00450909
0.00507746
0.005597
0.00605196
0.00642763
0.0067111
0.00689103
0.00695934
-0.00110712
-0.00104553
-0.000876169
-0.000605252
-0.000240684
0.000208523
0.000731524
0.00131594
0.00194812
0.00261336
0.00329603
0.00397965
0.00464699
0.00528025
0.00586133
0.00637224
0.00679581
0.00711659
0.00732083
0.00739874
-0.00162053
-0.00155169
-0.00136202
-0.00105877
-0.000651096
-0.000149271
0.000434528
0.00108662
0.00179213
0.00253521
0.00329905
0.00406596
0.00481721
0.00553316
0.00619335
0.0067769
0.00726331
0.00763353
0.00787028
0.00796117
-0.00225607
-0.00217813
-0.001963
-0.0016194
-0.0011582
-0.000591431
6.69954e-05
0.00080178
0.00159661
0.00243436
0.00329707
0.0041658
0.00502034
0.00583903
0.00659867
0.00727478
0.00784239
0.00827739
0.00855727
0.00866566
-0.00303093
-0.00294164
-0.00269485
-0.00230135
-0.00177449
-0.0011287
-0.000380163
0.000453814
0.00135527
0.00230577
0.00328632
0.00427694
0.00525612
0.00620025
0.00708315
0.007876
0.00854797
0.0090678
0.00940513
0.00953729
-0.00396681
-0.00386334
-0.00357709
-0.00312199
-0.00251493
-0.00177367
-0.000917461
3.39383e-05
0.00106073
0.00214324
0.00326172
0.00439565
0.00552276
0.00661792
0.00765204
0.00859137
0.00939757
0.0100293
0.0104443
0.0106094
-0.00509122
-0.00496978
-0.00463389
-0.00410225
-0.00339701
-0.00254069
-0.00155657
-0.000467517
0.000704691
0.00193937
0.00321657
0.0045161
0.00581596
0.00709055
0.00830859
0.00943119
0.0104108
0.0111922
0.0117144
0.0119269
-0.00643964
-0.00629481
-0.0058952
-0.00526721
-0.00444088
-0.00344546
-0.00230977
-0.00106049
0.000278454
0.00168583
0.0031424
0.00462966
0.0061276
0.00761211
0.00905153
0.0104028
0.011608
0.0125928
0.013268
0.0135517
-0.00805895
-0.00788246
-0.00739861
-0.00664681
-0.00566911
-0.00450442
-0.00318893
-0.00175413
-0.000226124
0.001374
0.00302911
0.0047243
0.00644417
0.0081693
0.00987129
0.0115061
0.013006
0.0142731
0.0151745
0.0155729
-0.0100137
-0.009792
-0.00919203
-0.00827668
-0.00710629
-0.00573333
-0.00420382
-0.00255504
-0.000815102
0.000996168
0.00286556
0.00478433
0.00674515
0.00873809
0.0107442
0.0127257
0.0146109
0.0162761
0.017526
0.0181244
-0.0123984
-0.0121071
-0.011338
-0.0101991
-0.00877773
-0.00714496
-0.00535932
-0.00346457
-0.00149003
0.000547471
0.00264095
0.00479081
0.00700183
0.00927975
0.0116245
0.014018
0.0164009
0.0186336
0.0204413
0.0214255
-0.0153636
-0.014953
-0.0139199
-0.0124633
-0.0107066
-0.00874465
-0.00665074
-0.00447455
-0.00224434
2.89022e-05
0.00234743
0.00472338
0.00717757
0.00973787
0.0124348
0.0152914
0.0182948
0.0213312
0.0240548
0.0258501
-0.0191786
-0.0185272
-0.0170495
-0.015124
-0.0129083
-0.0105232
-0.008057
-0.0055617
-0.00305896
-0.000548993
0.00198321
0.00456411
0.00723114
0.0100387
0.0130574
0.0163763
0.0200847
0.0241881
0.0283324
0.0318226
-0.0246628
-0.0231561
-0.0208793
-0.0182427
-0.0153826
-0.0124455
-0.00953049
-0.00667987
-0.00389635
-0.00116062
0.00155978
0.00430636
0.00712709
0.010103
0.0133403
0.0170034
0.0213262
0.0265696
0.0325848
0.0399257
-0.0314845
-0.0296022
-0.0257716
-0.0218115
-0.017994
-0.0143469
-0.01092
-0.00770589
-0.00466142
-0.00173537
0.00112701
0.00398784
0.00688582
0.00992293
0.0132193
0.017021
0.02173
0.0283506
0.0376999
0.0565728
-0.0519111
-0.0339012
-0.0273248
-0.0233172
-0.0192138
-0.0152224
-0.0115612
-0.00819054
-0.00503367
-0.00202828
0.000883335
0.00375518
0.00667736
0.00970705
0.0129958
0.0170209
0.0227195
0.0336095
0.0527043
0.0905875
)
;

boundaryField
{
    movingWall
    {
        type            zeroGradient;
    }
    fixedWalls
    {
        type            zeroGradient;
    }
    frontAndBack
    {
        type            empty;
    }
}


// ************************************************************************* //
