/*--------------------------------*- C++ -*----------------------------------*\
  =========                 |
  \\      /  F ield         | OpenFOAM: The Open Source CFD Toolbox
   \\    /   O peration     | Website:  https://openfoam.org
    \\  /    A nd           | Version:  10
     \\/     M anipulation  |
\*---------------------------------------------------------------------------*/
FoamFile
{
    format      ascii;
    class       surfaceScalarField;
    location    "1";
    object      phi;
}
// * * * * * * * * * * * * * * * * * * * * * * * * * * * * * * * * * * * * * //

dimensions      [0 3 -1 0 0 0 0];

internalField   nonuniform List<scalar> 
760
(
-1.21762e-05
1.21762e-05
-2.67983e-05
1.46222e-05
-4.09441e-05
1.41457e-05
-5.40413e-05
1.30973e-05
-6.57564e-05
1.1715e-05
-7.58038e-05
1.00474e-05
-8.39426e-05
8.13878e-06
-8.99786e-05
6.03604e-06
-9.37658e-05
3.78716e-06
-9.52061e-05
1.44032e-06
-9.42504e-05
-9.55612e-07
-9.09007e-05
-3.34979e-06
-8.52117e-05
-5.68896e-06
-7.72946e-05
-7.91706e-06
-6.73198e-05
-9.97483e-06
-5.55189e-05
-1.18009e-05
-4.21843e-05
-1.33346e-05
-2.7674e-05
-1.45103e-05
-1.25917e-05
-1.50823e-05
-1.25917e-05
-1.52778e-05
2.7454e-05
-3.33121e-05
3.26565e-05
-5.07265e-05
3.15601e-05
-6.68504e-05
2.92212e-05
-8.12623e-05
2.61269e-05
-9.36103e-05
2.23954e-05
-0.000103601
1.81296e-05
-0.000111001
1.34357e-05
-0.000115634
8.42071e-06
-0.000117386
3.19151e-06
-0.000116197
-2.14431e-06
-0.000112071
-7.4756e-06
-0.000105074
-1.26859e-05
-9.53398e-05
-1.76513e-05
-8.30743e-05
-2.22403e-05
-6.85589e-05
-2.63163e-05
-5.21526e-05
-2.9741e-05
-3.4304e-05
-3.23588e-05
-1.57491e-05
-3.36373e-05
-2.83408e-05
-1.6178e-05
4.3632e-05
-3.53055e-05
5.1784e-05
-5.37518e-05
5.00064e-05
-7.0809e-05
4.62784e-05
-8.60385e-05
4.13563e-05
-9.90748e-05
3.54317e-05
-0.000109617
2.86716e-05
-0.000117426
2.12453e-05
-0.000122326
1.33209e-05
-0.000124199
5.06395e-06
-0.000122983
-3.36024e-06
-0.000118677
-1.17817e-05
-0.000111341
-2.00219e-05
-0.000101103
-2.78887e-05
-8.81688e-05
-3.51749e-05
-7.28234e-05
-4.16617e-05
-5.54399e-05
-4.71245e-05
-3.64898e-05
-5.13089e-05
-1.67529e-05
-5.33742e-05
-4.50938e-05
-1.73238e-05
6.09557e-05
-3.78085e-05
7.22688e-05
-5.75425e-05
6.97404e-05
-7.57609e-05
6.44968e-05
-9.2e-05
5.75954e-05
-0.000105881
4.93124e-05
-0.000117097
3.98875e-05
-0.00012541
2.95586e-05
-0.000130646
1.85565e-05
-0.000132685
7.10356e-06
-0.000131464
-4.58163e-06
-0.000126971
-1.6275e-05
-0.000119253
-2.77396e-05
-0.000108425
-3.87161e-05
-9.46817e-05
-4.89187e-05
-7.83057e-05
-5.80378e-05
-5.96823e-05
-6.57479e-05
-3.93142e-05
-7.1677e-05
-1.80528e-05
-7.46357e-05
-6.31466e-05
-1.89293e-05
7.9885e-05
-4.12997e-05
9.46392e-05
-6.28135e-05
9.12541e-05
-8.26275e-05
8.43108e-05
-0.000100243
7.52111e-05
-0.000115266
6.43352e-05
-0.000127388
5.20093e-05
-0.000136377
3.85473e-05
-0.000142064
2.4244e-05
-0.000144335
9.37461e-06
-0.00014312
-5.79645e-06
-0.000138395
-2.10003e-05
-0.000130185
-3.59495e-05
-0.00011858
-5.03213e-05
-0.00010375
-6.37482e-05
-8.59702e-05
-7.58178e-05
-6.56357e-05
-8.60824e-05
-4.3292e-05
-9.40207e-05
-1.98936e-05
-9.80341e-05
-8.30401e-05
-2.10658e-05
0.000100951
-4.59323e-05
0.000119506
-6.97842e-05
0.000115106
-9.16742e-05
0.000106201
-0.00011106
9.45973e-05
-0.000127535
8.08098e-05
-0.000140797
6.52709e-05
-0.000150631
4.83812e-05
-0.000156886
3.04997e-05
-0.000159459
1.19468e-05
-0.000158274
-6.98095e-06
-0.000153289
-2.59855e-05
-0.000144495
-4.47437e-05
-0.000131938
-6.28783e-05
-0.000115746
-7.99396e-05
-9.61665e-05
-9.53975e-05
-7.35975e-05
-0.000108652
-4.86354e-05
-0.000118983
-2.2376e-05
-0.000124294
-0.000105416
-2.38233e-05
0.000124774
-5.18936e-05
0.000147576
-7.8715e-05
0.000141927
-0.000103204
0.00013069
-0.00012477
0.000116163
-0.000143002
9.90409e-05
-0.000157622
7.98912e-05
-0.000168455
5.92143e-05
-0.000175386
3.74313e-05
-0.000178333
1.48937e-05
-0.000177222
-8.09222e-06
-0.000171982
-3.12257e-05
-0.000162553
-5.4173e-05
-0.000148909
-7.65215e-05
-0.000131105
-9.7744e-05
-0.000109325
-0.000117178
-8.39481e-05
-0.000134028
-5.56247e-05
-0.000147306
-2.56375e-05
-0.000154281
-0.000131054
-2.73333e-05
0.000152107
-5.94511e-05
0.000179694
-8.99697e-05
0.000172446
-0.00011763
0.00015835
-0.000141791
0.000140325
-0.000162062
0.000119311
-0.000178224
9.60536e-05
-0.000190176
7.11662e-05
-0.00019787
4.51253e-05
-0.000201266
1.82896e-05
-0.000200297
-9.06095e-06
-0.000194858
-3.6665e-05
-0.000184811
-6.42199e-05
-0.00017002
-9.13125e-05
-0.000150407
-0.000117356
-0.00012604
-0.000141545
-9.72318e-05
-0.000162836
-6.46709e-05
-0.000179867
-2.98838e-05
-0.000189068
-0.000160937
-3.17895e-05
0.000183897
-6.89936e-05
0.000216898
-0.000104063
0.000207515
-0.000135514
0.000189801
-0.000162672
0.000167484
-0.00018521
0.000141849
-0.000203028
0.000113871
-0.000216154
8.42931e-05
-0.000224657
5.36281e-05
-0.00022857
2.22026e-05
-0.000227848
-9.78325e-06
-0.000222341
-4.21722e-05
-0.000211803
-7.47578e-05
-0.000195927
-0.000107188
-0.000174423
-0.00013886
-0.000147141
-0.000168827
-0.000114236
-0.000195741
-7.6389e-05
-0.000217714
-3.54296e-05
-0.000230027
-0.000196367
-3.74859e-05
0.000221383
-8.1097e-05
0.000260509
-0.000121733
0.000248151
-0.000157634
0.000225702
-0.000188135
0.000197984
-0.000213057
0.000166771
-0.000232517
0.000133331
-0.000246765
9.85404e-05
-0.00025605
6.29134e-05
-0.000260529
2.66815e-05
-0.0002602
-1.01126e-05
-0.000254864
-4.75083e-05
-0.000244127
-8.5494e-05
-0.000227436
-0.000123879
-0.000204165
-0.000162131
-0.000173785
-0.000199207
-0.000136122
-0.000233404
-9.17246e-05
-0.000262111
-4.27753e-05
-0.000278977
-0.000239142
-4.48833e-05
0.000266266
-9.66396e-05
0.000312265
-0.000144063
0.000295574
-0.000185076
0.000266715
-0.000219127
0.000232036
-0.000246347
0.000193991
-0.000267224
0.000154208
-0.000282357
0.000113673
-0.000292279
7.28349e-05
-0.000297331
3.17338e-05
-0.00029759
-9.85344e-06
-0.000292811
-5.22874e-05
-0.000282415
-9.58905e-05
-0.000265503
-0.000140791
-0.000240949
-0.000186686
-0.000207595
-0.000232561
-0.000164626
-0.000276374
-0.000112178
-0.000314559
-5.27521e-05
-0.000338402
-0.000291894
-5.4735e-05
0.000321001
-0.000117004
0.000374534
-0.000172671
0.000351241
-0.000219367
0.000313412
-0.000256895
0.000269564
-0.00028597
0.000223066
-0.000307694
0.000175933
-0.000323201
0.00012918
-0.000333428
8.30617e-05
-0.000338985
3.72912e-05
-0.000340075
-8.76342e-06
-0.000336425
-5.5937e-05
-0.000327247
-0.000105068
-0.000311207
-0.000156831
-0.000286463
-0.00021143
-0.000250861
-0.000268163
-0.000202405
-0.00032483
-0.000140216
-0.000376748
-6.68222e-05
-0.000411796
-0.000358717
-6.83332e-05
0.000389334
-0.000144441
0.000450642
-0.000210029
0.000416829
-0.000262679
0.000366062
-0.00030306
0.000309945
-0.000332953
0.000252959
-0.000354429
0.000197409
-0.000369391
0.000144141
-0.000379323
9.29943e-05
-0.000385193
4.3161e-05
-0.000387388
-6.56839e-06
-0.000385654
-5.76704e-05
-0.000379014
-0.000111709
-0.000365644
-0.000170202
-0.000342781
-0.000234293
-0.000306778
-0.000304167
-0.000253575
-0.000378033
-0.00018005
-0.000450272
-8.77417e-05
-0.000504105
-0.000446458
-8.80321e-05
0.000477366
-0.000182754
0.000545363
-0.00025997
0.000494046
-0.000318088
0.000424181
-0.000359688
0.000351544
-0.000388402
0.000281673
-0.000407769
0.000216776
-0.000420714
0.000157086
-0.000429393
0.000101674
-0.000435194
4.89623e-05
-0.000438756
-3.00654e-06
-0.000439931
-5.64959e-05
-0.000437655
-0.000113984
-0.000429688
-0.000178169
-0.000412251
-0.000251729
-0.000379687
-0.000336731
-0.000324547
-0.000433173
-0.000239123
-0.000535696
-0.000121149
-0.000622079
-0.000567607
-0.00011844
0.000595806
-0.000238606
0.000665529
-0.000328496
0.000583936
-0.000389872
0.000485556
-0.000429252
0.000390924
-0.000453336
0.000305757
-0.000467687
0.000231127
-0.000476449
0.000165847
-0.000482479
0.000107704
-0.000487578
5.40618e-05
-0.000492673
2.0884e-06
-0.000497858
-5.13116e-05
-0.000502232
-0.00010961
-0.000503471
-0.00017693
-0.000497045
-0.000258155
-0.000475074
-0.000358702
-0.000425168
-0.000483079
-0.000330918
-0.000629946
-0.00017938
-0.000773617
-0.000746987
-0.00016923
0.000765036
-0.000324051
0.00082035
-0.000424932
0.000684817
-0.000483644
0.000544268
-0.000514322
0.000421602
-0.000528227
0.000319662
-0.000533357
0.000236258
-0.000535012
0.000167503
-0.000536545
0.000109237
-0.000540003
5.75191e-05
-0.00054655
8.63577e-06
-0.000556706
-4.11555e-05
-0.000570163
-9.61529e-05
-0.000585262
-0.00016183
-0.000597773
-0.000245644
-0.00059848
-0.000357995
-0.000569299
-0.00051226
-0.000479148
-0.000720097
-0.000288785
-0.00096398
-0.00103577
-0.000261854
0.00102689
-0.000461218
0.00101971
-0.000562754
0.000786353
-0.000605154
0.000586668
-0.000615568
0.000432017
-0.000610815
0.000314909
-0.000600984
0.000226427
-0.000591831
0.00015835
-0.000586552
0.000103958
-0.000586997
5.79639e-05
-0.000594345
1.59839e-05
-0.000609693
-2.58074e-05
-0.000633863
-7.19827e-05
-0.000667051
-0.000128642
-0.000707533
-0.000205162
-0.000747907
-0.000317621
-0.000766751
-0.000493416
-0.000712414
-0.000774434
-0.000491348
-0.00118505
-0.00152712
-0.000452579
0.00147947
-0.000686643
0.00125378
-0.000748121
0.00084783
-0.000739782
0.000578329
-0.000706465
0.0003987
-0.000668139
0.000276582
-0.000634169
0.000192457
-0.000608508
0.000132688
-0.000592631
8.80814e-05
-0.000587246
5.25781e-05
-0.000592781
2.15193e-05
-0.000610919
-7.66987e-06
-0.000643755
-3.91463e-05
-0.00069423
-7.81674e-05
-0.000765653
-0.000133739
-0.00085728
-0.000225995
-0.000952522
-0.000398174
-0.000979609
-0.000747348
-0.000775142
-0.00138951
-0.00230226
-0.000979275
0.00245874
-0.000921802
0.00119631
-0.000686988
0.000613016
-0.000498397
0.000389738
-0.000354781
0.000255084
-0.000246133
0.000167934
-0.000166902
0.000113225
-0.000111558
7.73449e-05
-7.559e-05
5.21132e-05
-5.61568e-05
3.3145e-05
-5.22704e-05
1.76329e-05
-6.32111e-05
3.27082e-06
-9.22424e-05
-1.0115e-05
-0.000143299
-2.71108e-05
-0.00022395
-5.30877e-05
-0.000339947
-0.000109998
-0.000492691
-0.000245429
-0.000614509
-0.00062553
-0.000552608
-0.00145141
-0.00285487
0.00245874
0.00365505
0.00426807
0.0046578
0.00491289
0.00508082
0.00519405
0.00527139
0.00532351
0.00535665
0.00537428
0.00537755
0.00536744
0.00534033
0.00528724
0.00517724
0.00493181
0.00430628
0.00285487
)
;

boundaryField
{
    movingWall
    {
        type            calculated;
        value           uniform 0;
    }
    fixedWalls
    {
        type            calculated;
        value           uniform 0;
    }
    frontAndBack
    {
        type            empty;
        value           nonuniform List<scalar> 0();
    }
}


// ************************************************************************* //
