/*--------------------------------*- C++ -*----------------------------------*\
  =========                 |
  \\      /  F ield         | OpenFOAM: The Open Source CFD Toolbox
   \\    /   O peration     | Website:  https://openfoam.org
    \\  /    A nd           | Version:  10
     \\/     M anipulation  |
\*---------------------------------------------------------------------------*/
FoamFile
{
    format      ascii;
    class       volVectorField;
    location    "1";
    object      U;
}
// * * * * * * * * * * * * * * * * * * * * * * * * * * * * * * * * * * * * * //

dimensions      [0 1 -1 0 0 0 0];

internalField   nonuniform List<vector> 
400
(
(-0.000304006 0.000299808 0)
(-0.000973046 0.000359572 0)
(-0.00169589 0.000348444 0)
(-0.00237888 0.000322865 0)
(-0.0030004 0.00028892 0)
(-0.0035454 0.000247884 0)
(-0.0040008 0.000200868 0)
(-0.00435573 0.00014904 0)
(-0.00460168 9.35906e-05 0)
(-0.00473256 3.57091e-05 0)
(-0.0047447 -2.33985e-05 0)
(-0.00463691 -8.24669e-05 0)
(-0.00441061 -0.00014017 0)
(-0.00406994 -0.000195123 0)
(-0.00362191 -0.000245869 0)
(-0.00307662 -0.000290887 0)
(-0.00244708 -0.000328693 0)
(-0.00174842 -0.000357686 0)
(-0.00100522 -0.00037187 0)
(-0.000313375 -0.000311115 0)
(-0.000380474 0.000984618 0)
(-0.00121313 0.00117322 0)
(-0.0021044 0.00113445 0)
(-0.00294615 0.00105056 0)
(-0.00371125 0.000939563 0)
(-0.00438162 0.000805617 0)
(-0.0049412 0.000652378 0)
(-0.00537679 0.000483648 0)
(-0.00567817 0.000303282 0)
(-0.00583808 0.000115141 0)
(-0.00585217 -7.68728e-05 0)
(-0.00571909 -0.000268727 0)
(-0.00544054 -0.00045619 0)
(-0.00502147 -0.000634777 0)
(-0.00447038 -0.00079975 0)
(-0.00379951 -0.000946195 0)
(-0.00302476 -0.0010692 0)
(-0.00216479 -0.00116329 0)
(-0.00124926 -0.00120932 0)
(-0.000391279 -0.00101703 0)
(-0.000402042 0.00177218 0)
(-0.00128497 0.00210467 0)
(-0.00223032 0.00203301 0)
(-0.00312151 0.00188194 0)
(-0.00393046 0.00168228 0)
(-0.00463853 0.00144169 0)
(-0.00522913 0.00116689 0)
(-0.00568875 0.000864756 0)
(-0.00600705 0.000542149 0)
(-0.00617666 0.000205882 0)
(-0.00619311 -0.000137217 0)
(-0.00605486 -0.000480125 0)
(-0.00576333 -0.000815451 0)
(-0.00532319 -0.0011353 0)
(-0.00474275 -0.00143122 0)
(-0.00403435 -0.00169435 0)
(-0.0032143 -0.00191569 0)
(-0.00230209 -0.00208504 0)
(-0.00132889 -0.00216839 0)
(-0.000416113 -0.00183081 0)
(-0.000430259 0.00261003 0)
(-0.00137595 0.00309444 0)
(-0.00238805 0.00298696 0)
(-0.00334078 0.00276337 0)
(-0.00420409 0.00246865 0)
(-0.00495854 0.00211439 0)
(-0.00558709 0.00171072 0)
(-0.00607614 0.00126779 0)
(-0.0064154 0.000795535 0)
(-0.00659758 0.000303688 0)
(-0.00661809 -0.000198121 0)
(-0.00647506 -0.000700049 0)
(-0.00616936 -0.00119167 0)
(-0.00570496 -0.00166168 0)
(-0.00508957 -0.00209777 0)
(-0.00433516 -0.00248677 0)
(-0.00345825 -0.00281502 0)
(-0.00247927 -0.00306694 0)
(-0.00143196 -0.00319219 0)
(-0.000448433 -0.00270037 0)
(-0.000470115 0.00351463 0)
(-0.00150324 0.00416344 0)
(-0.00260768 0.00401597 0)
(-0.00364519 0.00371231 0)
(-0.00458293 0.00331351 0)
(-0.00540038 0.00283582 0)
(-0.0060801 0.00229333 0)
(-0.00660862 0.00169978 0)
(-0.00697603 0.00106829 0)
(-0.00717528 0.000411332 0)
(-0.00720176 -0.000258947 0)
(-0.00705315 -0.000930206 0)
(-0.00672944 -0.00158927 0)
(-0.00623338 -0.00222158 0)
(-0.00557146 -0.00281079 0)
(-0.00475481 -0.00333891 0)
(-0.00379991 -0.00378671 0)
(-0.00272833 -0.00413205 0)
(-0.00157749 -0.0043058 0)
(-0.000494247 -0.00364699 0)
(-0.000523269 0.0045125 0)
(-0.00167242 0.00534159 0)
(-0.00289862 0.00514761 0)
(-0.00404699 0.00475286 0)
(-0.00508102 0.00423697 0)
(-0.00597901 0.0036221 0)
(-0.00672344 0.00292711 0)
(-0.00730148 0.00216982 0)
(-0.00770415 0.00136656 0)
(-0.00792512 0.000532274 0)
(-0.00795992 -0.00031891 0)
(-0.00780565 -0.00117277 0)
(-0.00746097 -0.00201391 0)
(-0.0069267 -0.00282479 0)
(-0.0062071 -0.00358499 0)
(-0.00531147 -0.004271 0)
(-0.00425559 -0.00485677 0)
(-0.00306213 -0.00531156 0)
(-0.00177332 -0.00554378 0)
(-0.000556084 -0.00470121 0)
(-0.000591961 0.0056324 0)
(-0.00189048 0.00666183 0)
(-0.00327222 0.00641165 0)
(-0.00456042 0.00591016 0)
(-0.00571403 0.00525921 0)
(-0.00671035 0.00448872 0)
(-0.00753249 0.00362354 0)
(-0.00816927 0.00268613 0)
(-0.00861366 0.00169604 0)
(-0.00886083 0.000670142 0)
(-0.00890687 -0.000376323 0)
(-0.00874821 -0.0014283 0)
(-0.0083815 -0.00246919 0)
(-0.00780449 -0.00347912 0)
(-0.00701772 -0.00443364 0)
(-0.00602692 -0.00530302 0)
(-0.00484576 -0.00605256 0)
(-0.00349737 -0.00663998 0)
(-0.00203004 -0.00694571 0)
(-0.00063742 -0.00589842 0)
(-0.000679513 0.00690848 0)
(-0.00216752 0.00816271 0)
(-0.00374444 0.00784196 0)
(-0.00520509 0.00721157 0)
(-0.00650288 0.00640093 0)
(-0.00761485 0.00545047 0)
(-0.00852616 0.00439279 0)
(-0.00922911 0.0032557 0)
(-0.00972026 0.00206169 0)
(-0.00999759 0.000828687 0)
(-0.0100585 -0.000428408 0)
(-0.0098986 -0.00169537 0)
(-0.00951186 -0.00295607 0)
(-0.00889121 -0.00418963 0)
(-0.00803107 -0.00536811 0)
(-0.00693081 -0.00645482 0)
(-0.00559924 -0.00740406 0)
(-0.00405825 -0.00815763 0)
(-0.00236327 -0.00855968 0)
(-0.000743435 -0.00728236 0)
(-0.00079088 0.00838294 0)
(-0.00251833 0.00989104 0)
(-0.00433824 0.00947794 0)
(-0.00600832 0.00868698 0)
(-0.00747567 0.00768276 0)
(-0.00871873 0.00652034 0)
(-0.00972747 0.00524248 0)
(-0.0105006 0.00388304 0)
(-0.0110409 0.00246692 0)
(-0.0113511 0.00101148 0)
(-0.0114311 -0.000470926 0)
(-0.011276 -0.0019695 0)
(-0.0108759 -0.00347121 0)
(-0.0102166 -0.0049566 0)
(-0.00928303 -0.00639565 0)
(-0.00806343 -0.00774447 0)
(-0.00655693 -0.00894352 0)
(-0.00478039 -0.00991237 0)
(-0.00279669 -0.0104462 0)
(-0.000882111 -0.00890955 0)
(-0.000933611 0.01011 0)
(-0.00296512 0.0119054 0)
(-0.00508709 0.0113663 0)
(-0.00700855 0.0103686 0)
(-0.00867022 0.00912366 0)
(-0.0100555 0.00770733 0)
(-0.0111638 0.00617539 0)
(-0.012005 0.00456839 0)
(-0.0125921 0.00291229 0)
(-0.0129357 0.00122143 0)
(-0.0130397 -0.00049768 0)
(-0.0128991 -0.00224159 0)
(-0.0124992 -0.00400443 0)
(-0.0118158 -0.00577209 0)
(-0.0108192 -0.00751566 0)
(-0.00947946 -0.0091851 0)
(-0.00777755 -0.0107042 0)
(-0.0057174 -0.0119616 0)
(-0.00336728 -0.0126841 0)
(-0.00106624 -0.0108564 0)
(-0.00111961 0.0121626 0)
(-0.0035422 0.0142818 0)
(-0.00604107 0.0135629 0)
(-0.00826083 0.0122897 0)
(-0.0101378 0.0107381 0)
(-0.0116675 0.00901274 0)
(-0.0128669 0.00718604 0)
(-0.0137641 0.00530482 0)
(-0.0143882 0.00339371 0)
(-0.0147614 0.00146 0)
(-0.0148945 -0.000500266 0)
(-0.0147831 -0.00249628 0)
(-0.0144067 -0.00453536 0)
(-0.0137282 -0.00661508 0)
(-0.0126964 -0.00871369 0)
(-0.011253 -0.010779 0)
(-0.00934643 -0.0127168 0)
(-0.00695204 -0.0143741 0)
(-0.00413504 -0.0153792 0)
(-0.00131721 -0.0132318 0)
(-0.0013685 0.0146436 0)
(-0.00430461 0.0171221 0)
(-0.00727712 0.0161351 0)
(-0.00984521 0.0144822 0)
(-0.0119485 0.0125304 0)
(-0.0136083 0.0104242 0)
(-0.0148724 0.0082552 0)
(-0.0157979 0.0060741 0)
(-0.0164375 0.00389943 0)
(-0.0168302 0.00172572 0)
(-0.0169965 -0.000467875 0)
(-0.0169347 -0.00271002 0)
(-0.0166185 -0.00502924 0)
(-0.0159947 -0.00744439 0)
(-0.0149836 -0.00995158 0)
(-0.0134841 -0.0125064 0)
(-0.0113891 -0.015001 0)
(-0.00861562 -0.0172297 0)
(-0.0052019 -0.0186787 0)
(-0.00167299 -0.0161995 0)
(-0.00171422 0.017706 0)
(-0.00534422 0.020568 0)
(-0.00891671 0.0191624 0)
(-0.0118798 0.016969 0)
(-0.0141977 0.0144848 0)
(-0.0159439 0.011906 0)
(-0.017218 0.00934214 0)
(-0.0181207 0.00684107 0)
(-0.0187374 0.0044065 0)
(-0.0191295 0.00201212 0)
(-0.0193309 -0.00038764 0)
(-0.0193452 -0.0028491 0)
(-0.0191419 -0.00543184 0)
(-0.0186514 -0.00818912 0)
(-0.0177593 -0.0111524 0)
(-0.0163046 -0.0143057 0)
(-0.0140907 -0.0175457 0)
(-0.0109222 -0.0206119 0)
(-0.00675027 -0.0227895 0)
(-0.00220598 -0.0200236 0)
(-0.00221926 0.0215932 0)
(-0.00682173 0.0248217 0)
(-0.011157 0.0227323 0)
(-0.0145401 0.0197482 0)
(-0.0170143 0.0165477 0)
(-0.0187528 0.0133843 0)
(-0.0199388 0.010374 0)
(-0.0207347 0.00754644 0)
(-0.0212675 0.00487622 0)
(-0.0216253 0.00230498 0)
(-0.0218587 -0.000246144 0)
(-0.02198 -0.00286921 0)
(-0.0219597 -0.00566517 0)
(-0.0217166 -0.0087376 0)
(-0.0211018 -0.0121789 0)
(-0.0198805 -0.0160401 0)
(-0.0177224 -0.0202684 0)
(-0.014228 -0.0245802 0)
(-0.00912616 -0.0280017 0)
(-0.00306663 -0.025167 0)
(-0.00300714 0.0267215 0)
(-0.00903348 0.0301757 0)
(-0.0143262 0.0269216 0)
(-0.0180861 0.0227593 0)
(-0.0205659 0.0185973 0)
(-0.0221202 0.0147257 0)
(-0.0230577 0.0112328 0)
(-0.0236198 0.00809952 0)
(-0.0239798 0.0052497 0)
(-0.0242527 0.00257905 0)
(-0.024506 -3.24981e-05 0)
(-0.0247653 -0.00271778 0)
(-0.0250116 -0.00562651 0)
(-0.0251669 -0.00892781 0)
(-0.0250639 -0.0128071 0)
(-0.024398 -0.0174431 0)
(-0.022666 -0.0229332 0)
(-0.0191297 -0.0290879 0)
(-0.0130253 -0.0346838 0)
(-0.00459623 -0.0324891 0)
(-0.00434353 0.0338673 0)
(-0.0125597 0.0370417 0)
(-0.0189787 0.0317338 0)
(-0.0228918 0.0258148 0)
(-0.0250524 0.0203951 0)
(-0.0261176 0.0157092 0)
(-0.0265629 0.0117422 0)
(-0.0267142 0.00837352 0)
(-0.0267832 0.00544607 0)
(-0.0269018 0.0027955 0)
(-0.0271491 0.00025673 0)
(-0.0275671 -0.00234137 0)
(-0.0281624 -0.00519572 0)
(-0.0288896 -0.00854674 0)
(-0.0296087 -0.0127006 0)
(-0.0299978 -0.0180419 0)
(-0.0293936 -0.0249881 0)
(-0.0265755 -0.0337275 0)
(-0.0198402 -0.0430419 0)
(-0.00755641 -0.0434956 0)
(-0.00684581 0.0448906 0)
(-0.0186077 0.0459464 0)
(-0.0260383 0.0369459 0)
(-0.0294267 0.0284786 0)
(-0.030621 0.0215146 0)
(-0.0306973 0.0159944 0)
(-0.0302988 0.0116573 0)
(-0.0298067 0.0082045 0)
(-0.0294364 0.00536282 0)
(-0.0293099 0.00289873 0)
(-0.0295006 0.000606991 0)
(-0.0300648 -0.00170514 0)
(-0.0310517 -0.00426323 0)
(-0.0324906 -0.00736139 0)
(-0.0343538 -0.0114226 0)
(-0.0364395 -0.0170969 0)
(-0.0380703 -0.0253376 0)
(-0.0375037 -0.0372844 0)
(-0.0316899 -0.052794 0)
(-0.0129745 -0.0620219 0)
(-0.0117546 0.0596098 0)
(-0.0301245 0.0573372 0)
(-0.0366111 0.0416799 0)
(-0.0374072 0.0296158 0)
(-0.0361949 0.0210549 0)
(-0.0343448 0.0149573 0)
(-0.0325166 0.0105729 0)
(-0.0310197 0.00733475 0)
(-0.0299802 0.004833 0)
(-0.0294476 0.00277723 0)
(-0.0294479 0.000945365 0)
(-0.0300344 -0.000863479 0)
(-0.0312995 -0.00283926 0)
(-0.0333733 -0.00528173 0)
(-0.0364278 -0.00867328 0)
(-0.0405677 -0.0139488 0)
(-0.0454215 -0.0228974 0)
(-0.0490401 -0.0391173 0)
(-0.0480488 -0.0666516 0)
(-0.0174109 -0.101178 0)
(-0.0417669 0.10928 0)
(-0.0496796 0.0615778 0)
(-0.0392716 0.0357112 0)
(-0.0290981 0.0238811 0)
(-0.0209667 0.0161824 0)
(-0.0147605 0.011017 0)
(-0.010141 0.00758592 0)
(-0.0068277 0.00521616 0)
(-0.00457677 0.00348143 0)
(-0.00321199 0.00212689 0)
(-0.00263611 0.000981209 0)
(-0.0028175 -9.98845e-05 0)
(-0.00381398 -0.0012637 0)
(-0.00581431 -0.00270598 0)
(-0.00914612 -0.00487295 0)
(-0.0141989 -0.0089929 0)
(-0.0214754 -0.0180713 0)
(-0.0291964 -0.0403279 0)
(-0.0411472 -0.084674 0)
(0.0117621 -0.147669 0)
(0.142976 0.0864325 0)
(0.149334 0.0483704 0)
(0.195192 0.0251657 0)
(0.224685 0.0145503 0)
(0.240555 0.008978 0)
(0.250428 0.00570697 0)
(0.257185 0.00374522 0)
(0.261839 0.002524 0)
(0.265006 0.00171444 0)
(0.26709 0.0011414 0)
(0.268331 0.000707704 0)
(0.268826 0.000360955 0)
(0.26861 2.69015e-05 0)
(0.267621 -0.000323553 0)
(0.265334 -0.000761904 0)
(0.261281 -0.00166179 0)
(0.250359 -0.00363802 0)
(0.235886 -0.0104943 0)
(0.170705 -0.0291722 0)
(0.183941 -0.0726414 0)
)
;

boundaryField
{
    movingWall
    {
        type            fixedValue;
        value           uniform (1 0 0);
    }
    fixedWalls
    {
        type            noSlip;
    }
    frontAndBack
    {
        type            empty;
    }
}


// ************************************************************************* //
