/*--------------------------------*- C++ -*----------------------------------*\
  =========                 |
  \\      /  F ield         | OpenFOAM: The Open Source CFD Toolbox
   \\    /   O peration     | Website:  https://openfoam.org
    \\  /    A nd           | Version:  10
     \\/     M anipulation  |
\*---------------------------------------------------------------------------*/
FoamFile
{
    format      ascii;
    class       surfaceScalarField;
    location    "2.575";
    object      phi;
}
// * * * * * * * * * * * * * * * * * * * * * * * * * * * * * * * * * * * * * //

dimensions      [0 3 -1 0 0 0 0];

internalField   nonuniform List<scalar> 
760
(
-1.28105e-05
1.28105e-05
-3.37652e-05
2.09547e-05
-5.53594e-05
2.15942e-05
-7.58811e-05
2.05217e-05
-9.47273e-05
1.88462e-05
-0.000111446
1.67191e-05
-0.000125619
1.41728e-05
-0.000136852
1.12325e-05
-0.000144781
7.92931e-06
-0.000149084
4.30317e-06
-0.000149493
4.09201e-07
-0.000145791
-3.70276e-06
-0.000137872
-7.91915e-06
-0.000125746
-1.2126e-05
-0.000109569
-1.61768e-05
-8.96716e-05
-1.98971e-05
-6.65985e-05
-2.30731e-05
-4.12657e-05
-2.53329e-05
-1.60224e-05
-2.52432e-05
-1.60224e-05
-2.1605e-05
3.44155e-05
-5.37716e-05
5.31213e-05
-8.65762e-05
5.43988e-05
-0.000117642
5.1588e-05
-0.000146035
4.72388e-05
-0.000171053
4.17372e-05
-0.00019207
3.51896e-05
-0.000208519
2.76816e-05
-0.000219897
1.93077e-05
-0.000225767
1.01727e-05
-0.000225819
4.61877e-07
-0.000219754
-9.76857e-06
-0.000207479
-2.01934e-05
-0.000189057
-3.05479e-05
-0.00016475
-4.04845e-05
-0.000135062
-4.95851e-05
-0.000100798
-5.73366e-05
-6.32864e-05
-6.28447e-05
-2.57135e-05
-6.28162e-05
-4.17359e-05
-2.39039e-05
5.83194e-05
-5.92429e-05
8.84602e-05
-9.51874e-05
9.03432e-05
-0.000129185
8.55859e-05
-0.00016024
7.82939e-05
-0.000187604
6.9101e-05
-0.000210609
5.81943e-05
-0.000228653
4.57256e-05
-0.000241202
3.18573e-05
-0.000247805
1.67756e-05
-0.000248073
7.29896e-07
-0.000241679
-1.61625e-05
-0.000228503
-3.33694e-05
-0.000208564
-5.04876e-05
-0.00018209
-6.69583e-05
-0.000149582
-8.20935e-05
-0.00011188
-9.50385e-05
-7.04214e-05
-0.000104303
-2.87177e-05
-0.00010452
-7.04536e-05
-2.53928e-05
8.37123e-05
-6.30182e-05
0.000126086
-0.000101268
0.000128593
-0.000137456
0.000121773
-0.00017055
0.000111389
-0.000199783
9.83338e-05
-0.000224469
8.28801e-05
-0.000243988
6.52446e-05
-0.000257782
4.56507e-05
-0.000265352
2.43463e-05
-0.000266292
1.67007e-06
-0.000260169
-2.22863e-05
-0.00024676
-4.67781e-05
-0.000225989
-7.12586e-05
-0.000197991
-9.49564e-05
-0.000163191
-0.000116894
-0.00012242
-0.000135809
-7.72292e-05
-0.000149494
-3.15192e-05
-0.00015023
-0.000101973
-2.72747e-05
0.000110987
-6.77813e-05
0.000166592
-0.000108956
0.000169768
-0.000147933
0.00016075
-0.000183635
0.000147092
-0.000215275
0.000129974
-0.000242154
0.000109758
-0.000263636
8.67272e-05
-0.000279141
6.11549e-05
-0.000288127
3.33327e-05
-0.000290096
3.63935e-06
-0.000284549
-2.7834e-05
-0.000271091
-6.02353e-05
-0.000249474
-9.28759e-05
-0.00021966
-0.000124771
-0.000181932
-0.000154621
-0.000137071
-0.000180671
-8.67635e-05
-0.000199801
-3.54855e-05
-0.000201508
-0.000137458
-2.97492e-05
0.000140736
-7.40099e-05
0.000210853
-0.000118985
0.000214743
-0.000161568
0.000203333
-0.000200631
0.000186154
-0.000235365
0.000164708
-0.000265066
0.00013946
-0.000289095
0.000110757
-0.000306854
7.89136e-05
-0.000317759
4.42381e-05
-0.000321231
7.11078e-06
-0.000316638
-3.24267e-05
-0.000303378
-7.34958e-05
-0.000280943
-0.000115311
-0.00024901
-0.000156703
-0.000207607
-0.000196024
-0.000157363
-0.000230915
-0.000100102
-0.000257063
-4.10989e-05
-0.000260511
-0.000178557
-3.28876e-05
0.000173624
-8.18828e-05
0.000259848
-0.000131618
0.000264478
-0.000178688
0.000250402
-0.000221901
0.000229367
-0.00026044
0.000203247
-0.000293614
0.000172633
-0.000320801
0.000137944
-0.000341408
9.95206e-05
-0.000354825
5.76547e-05
-0.000360387
1.26729e-05
-0.000357321
-3.54926e-05
-0.000344739
-8.60771e-05
-0.000321772
-0.000138278
-0.000287645
-0.000190831
-0.000241926
-0.000241743
-0.000184905
-0.000287935
-0.000118457
-0.000323511
-4.89407e-05
-0.000330027
-0.000227498
-3.67704e-05
0.000210394
-9.15952e-05
0.000314673
-0.000147137
0.000320021
-0.00019962
0.000302885
-0.00024779
0.000277538
-0.000290842
0.000246299
-0.000328129
0.00020992
-0.000359089
0.000168904
-0.000383173
0.000123605
-0.000399781
7.42627e-05
-0.000408186
2.10782e-05
-0.000407473
-3.62056e-05
-0.000396405
-9.7146e-05
-0.000373615
-0.000161067
-0.000337646
-0.0002268
-0.000287269
-0.00029212
-0.000222074
-0.000353131
-0.000143718
-0.000401867
-5.99848e-05
-0.00041376
-0.000287483
-4.15178e-05
0.000251912
-0.000103424
0.000376579
-0.000165925
0.000382522
-0.000224795
0.000361754
-0.000278728
0.000331471
-0.000326965
0.000294536
-0.000368959
0.000251915
-0.00040427
0.000204214
-0.000432465
0.0001518
-0.000453017
9.48149e-05
-0.000465193
3.32544e-05
-0.000467979
-3.34196e-05
-0.000459741
-0.000105384
-0.000438489
-0.00018232
-0.000401774
-0.000263514
-0.000347048
-0.000346846
-0.000272511
-0.000427667
-0.000178975
-0.000495404
-7.59808e-05
-0.000516754
-0.000363463
-4.73172e-05
0.000299229
-0.000117779
0.000447041
-0.000188527
0.000453269
-0.000254799
0.000428026
-0.000315267
0.000391939
-0.00036928
0.000348548
-0.000416468
0.000299103
-0.000456607
0.000244353
-0.000489485
0.000184677
-0.000514757
0.000120088
-0.000531791
5.02879e-05
-0.000539585
-2.56252e-05
-0.000536129
-0.000108841
-0.00051872
-0.000199728
-0.000483586
-0.000298648
-0.000426123
-0.00040431
-0.000341899
-0.000511891
-0.000229478
-0.000607825
-0.000100279
-0.000645952
-0.000463742
-5.44721e-05
0.000353701
-0.000135279
0.000527848
-0.000215729
0.00053372
-0.000290445
0.000502743
-0.000358138
0.000459631
-0.000418358
0.000408768
-0.000471029
0.000351775
-0.000516272
0.000289596
-0.000554237
0.000222643
-0.000584929
0.000150779
-0.000607989
7.33479e-05
-0.000622641
-1.09723e-05
-0.000626676
-0.000104806
-0.000616737
-0.000209668
-0.000587457
-0.000327927
-0.000531294
-0.000460474
-0.000439229
-0.000603956
-0.000304547
-0.000742507
-0.000139778
-0.000810722
-0.00060352
-6.34937e-05
0.000417195
-0.000156885
0.000621239
-0.000248693
0.000625528
-0.000332876
0.000586926
-0.000408318
0.000535072
-0.000474912
0.000475363
-0.000533032
0.000409895
-0.000583307
0.000339871
-0.000626436
0.000265772
-0.000662989
0.000187332
-0.000693145
0.000103504
-0.000716714
1.25965e-05
-0.000731711
-8.98084e-05
-0.000734539
-0.00020684
-0.000718314
-0.000344152
-0.000671789
-0.000506999
-0.000578736
-0.000697009
-0.00042154
-0.000899703
-0.000209821
-0.00102244
-0.000813341
-7.53039e-05
0.000492499
-0.000184124
0.000730059
-0.000289141
0.000730545
-0.000383712
0.000681496
-0.000467138
0.000618499
-0.000539865
0.00054809
-0.000602909
0.000472938
-0.000657607
0.00039457
-0.000705427
0.000313591
-0.000747769
0.000229674
-0.000785773
0.000141508
-0.000819888
4.67117e-05
-0.000849895
-5.98012e-05
-0.00087258
-0.000184155
-0.000880623
-0.00033611
-0.000859252
-0.000528369
-0.000782504
-0.000773758
-0.000613548
-0.00106866
-0.00034758
-0.00128841
-0.00116092
-9.16706e-05
0.000584169
-0.000219655
0.000858044
-0.000339732
0.000850622
-0.000445264
0.000787029
-0.000536426
0.000709661
-0.000614433
0.000626097
-0.000681182
0.000539687
-0.000738929
0.000452317
-0.000790114
0.000364776
-0.000837223
0.000276783
-0.000882696
0.000186981
-0.000928697
9.2713e-05
-0.000976724
-1.17746e-05
-0.00102749
-0.000133388
-0.00107553
-0.000288074
-0.00110544
-0.000498457
-0.00108243
-0.000796765
-0.000936563
-0.00121453
-0.000620095
-0.00160488
-0.00178102
-0.000113331
0.0006975
-0.000265641
0.00101035
-0.000403579
0.00098856
-0.000520641
0.000904091
-0.000618681
0.000807701
-0.000700226
0.000707642
-0.000768506
0.000607966
-0.000826906
0.000510717
-0.000878951
0.000416821
-0.000928328
0.00032616
-0.000978845
0.000237497
-0.0010349
0.000148769
-0.00110351
5.68311e-05
-0.00118889
-4.80004e-05
-0.00129367
-0.000183293
-0.00141163
-0.000380502
-0.00151005
-0.000698347
-0.00145532
-0.00126926
-0.00110502
-0.00195517
-0.00288604
-0.000167702
0.000865202
-0.000341115
0.00118377
-0.00049014
0.00113759
-0.000613594
0.00102754
-0.00071555
0.000909656
-0.000798175
0.000790267
-0.000865006
0.000674798
-0.000920389
0.000566101
-0.000969227
0.000465659
-0.00101674
0.000373677
-0.00106918
0.000289937
-0.00113332
0.000212905
-0.00121759
0.000141099
-0.00133399
6.83988e-05
-0.0015008
-1.64841e-05
-0.00172955
-0.000151745
-0.00200525
-0.000422654
-0.00209976
-0.00117475
-0.00167282
-0.00238211
-0.00455886
-0.000153762
0.00101896
-0.000399322
0.00142933
-0.000590332
0.0013286
-0.000734646
0.00117186
-0.000839867
0.00101488
-0.000913988
0.000864389
-0.000966837
0.000727647
-0.00100672
0.000605984
-0.00104016
0.000499095
-0.00107212
0.000405645
-0.00110865
0.000326459
-0.00115661
0.000260868
-0.0012303
0.000214793
-0.00135157
0.000189663
-0.00156004
0.000191987
-0.00187157
0.000159784
-0.00229786
3.6421e-06
-0.00244216
-0.00103045
-0.00178807
-0.0030362
-0.00634693
-0.000438613
0.00145758
-0.000613648
0.00160436
-0.000750119
0.00146507
-0.000856167
0.00127791
-0.000912753
0.00107146
-0.000935623
0.000887259
-0.000938086
0.00073011
-0.000929618
0.000597516
-0.00091787
0.000487347
-0.000907866
0.000395641
-0.000908122
0.000326715
-0.000921249
0.000273996
-0.000961389
0.000254933
-0.00102915
0.000257421
-0.00115368
0.000316523
-0.00131016
0.000316257
-0.00146827
0.000161752
-0.00151552
-0.000983196
-0.000856889
-0.00369483
-0.00720382
-0.00124148
0.00269905
-0.00114954
0.00151243
-0.000913574
0.0012291
-0.00060674
0.000971072
-0.000298692
0.000763415
-1.33188e-05
0.000601886
0.000238509
0.000478283
0.000455185
0.000380839
0.000636715
0.000305816
0.000788532
0.000243823
0.000914279
0.000200968
0.0010222
0.000166076
0.00113089
0.000146243
0.00124321
0.000145101
0.00143431
0.000125422
0.00163187
0.000118692
0.00192642
-0.000132789
0.00191172
-0.000968498
0.00133446
-0.00311757
-0.00586936
0.00269905
0.00421148
0.00544058
0.00641165
0.00717507
0.00777695
0.00825524
0.00863607
0.00894189
0.00918571
0.00938668
0.00955276
0.009699
0.0098441
0.00996953
0.0100882
0.00995543
0.00898693
0.00586936
)
;

boundaryField
{
    movingWall
    {
        type            calculated;
        value           uniform 0;
    }
    fixedWalls
    {
        type            calculated;
        value           uniform 0;
    }
    frontAndBack
    {
        type            empty;
        value           nonuniform List<scalar> 0();
    }
}


// ************************************************************************* //
