/*--------------------------------*- C++ -*----------------------------------*\
  =========                 |
  \\      /  F ield         | OpenFOAM: The Open Source CFD Toolbox
   \\    /   O peration     | Website:  https://openfoam.org
    \\  /    A nd           | Version:  10
     \\/     M anipulation  |
\*---------------------------------------------------------------------------*/
FoamFile
{
    format      ascii;
    class       volScalarField;
    location    "3";
    object      p;
}
// * * * * * * * * * * * * * * * * * * * * * * * * * * * * * * * * * * * * * //

dimensions      [0 2 -2 0 0 0 0];

internalField   nonuniform List<scalar> 
475
(
-0.0437581
-0.0679064
-0.0992146
-0.124074
-0.148221
-0.0680659
-0.0818906
-0.0977864
-0.116153
-0.131931
-0.0657004
-0.0753096
-0.0900537
-0.106862
-0.122303
-0.0646839
-0.0752487
-0.0899402
-0.10483
-0.116602
-0.0346783
-0.0613153
-0.0847375
-0.101543
-0.112635
-0.164334
-0.158644
-0.160305
-0.182523
-0.220521
-0.256076
-0.276052
-0.269879
-0.2337
-0.180724
-0.121796
-0.0670477
-0.0282042
-0.0040363
0.0122078
0.020695
0.0260387
0.0317589
0.0381316
0.0429548
0.0455494
0.0462577
0.0456986
0.0443952
0.042689
0.040774
0.0387536
0.0366815
0.0345858
0.0324807
0.0303731
0.0282664
0.026162
0.0240603
0.0219613
0.0198646
0.0177699
0.0156766
0.0135845
0.0114934
0.00940283
0.00731284
0.0052233
0.00313376
0.00104452
-0.14731
-0.157015
-0.163867
-0.173924
-0.188832
-0.203212
-0.20992
-0.200203
-0.17323
-0.141689
-0.107475
-0.0718438
-0.0438436
-0.0226434
-0.00337057
0.0105778
0.0189868
0.0269089
0.0342846
0.0398447
0.0431755
0.0446658
0.0447886
0.0439762
0.0425788
0.0408372
0.0389009
0.0368588
0.0347625
0.0326413
0.0305112
0.0283809
0.0262543
0.0241332
0.0220177
0.0199076
0.0178021
0.0157004
0.0136018
0.0115058
0.00941165
0.0073189
0.005227
0.00313578
0.00104511
-0.135099
-0.143678
-0.147746
-0.150972
-0.154258
-0.156796
-0.156702
-0.147347
-0.133656
-0.123418
-0.110188
-0.0900777
-0.0704552
-0.0515626
-0.0304432
-0.0095267
0.00796883
0.0221888
0.0325439
0.0390191
0.0426415
0.044363
0.0447271
0.0441179
0.0428498
0.0411641
0.0392306
0.0371605
0.0350219
0.0328551
0.030682
0.028514
0.0263561
0.0242098
0.0220749
0.0199497
0.0178328
0.0157226
0.0136178
0.011517
0.00941914
0.00732374
0.00522999
0.00313739
0.00104567
-0.126808
-0.133382
-0.134868
-0.135431
-0.132807
-0.127195
-0.120873
-0.108843
-0.102839
-0.11036
-0.111977
-0.0999065
-0.0846427
-0.0687207
-0.0450766
-0.0183923
0.00395715
0.0196742
0.0300186
0.0369127
0.0412982
0.0436631
0.0444503
0.0440902
0.0429535
0.0413254
0.0394062
0.0373269
0.0351684
0.0329782
0.0307822
0.0285938
0.0264185
0.0242578
0.0221115
0.019977
0.0178528
0.015737
0.0136279
0.011524
0.00942401
0.00732688
0.00523188
0.00313835
0.00104584
-0.121121
-0.126436
-0.127783
-0.125995
-0.120469
-0.111754
-0.0988939
-0.0867979
-0.0858276
-0.0975604
-0.107256
-0.104414
-0.0898775
-0.0693083
-0.044129
-0.018332
0.00375384
0.0203581
0.0315729
0.0386503
0.0427541
0.0447439
0.0452268
0.0446546
0.0433742
0.0416453
0.0396515
0.0375148
0.0353114
0.0330859
0.0308626
0.0286531
0.0264618
0.0242891
0.0221329
0.0199921
0.0178634
0.0157444
0.0136331
0.0115275
0.00942639
0.00732841
0.00523281
0.00313881
0.00104592
-0.184992
-0.187613
-0.196755
-0.217999
-0.253702
-0.290539
-0.304482
-0.282648
-0.223163
-0.133964
-0.0335864
0.0561577
0.115562
0.140991
0.14099
0.127816
0.110643
0.0941086
0.0800654
0.06884
0.0601917
0.0536761
0.0488017
0.0450983
0.042171
0.0397245
0.0375551
0.0355309
0.0335717
0.0316317
0.0296866
0.0277251
0.0257434
0.0237418
0.0217224
0.0196872
0.0176395
0.0155819
0.0135166
0.0114453
0.00936969
0.00729074
0.00520944
0.00312656
0.00104253
-0.175011
-0.178876
-0.193286
-0.224096
-0.270306
-0.316482
-0.338792
-0.324322
-0.26842
-0.178579
-0.0734311
0.0290936
0.0955531
0.128047
0.132873
0.121761
0.105193
0.0894214
0.0765815
0.0666622
0.0590466
0.0532315
0.0487736
0.045276
0.0424212
0.0399756
0.0377754
0.035711
0.0337126
0.0317388
0.0297664
0.0277839
0.0257863
0.0237727
0.0217439
0.0197023
0.0176501
0.0155892
0.0135217
0.0114489
0.00937207
0.00729228
0.00521035
0.003127
0.00104262
-0.18567
-0.180921
-0.198195
-0.236611
-0.293018
-0.346976
-0.38011
-0.371101
-0.31595
-0.22709
-0.119421
-0.0154097
0.0601757
0.0990167
0.109142
0.102738
0.0903037
0.0784483
0.0692225
0.0622385
0.0566407
0.0521124
0.0484182
0.0453235
0.0426474
0.0402563
0.0380488
0.0359507
0.0339114
0.031898
0.0298909
0.0278794
0.0258585
0.0238265
0.0217838
0.0197316
0.0176714
0.0156046
0.0135323
0.0114561
0.00937695
0.00729546
0.00521228
0.00312791
0.0010428
-0.174678
-0.171663
-0.187163
-0.223103
-0.276612
-0.329918
-0.36542
-0.364596
-0.318581
-0.238048
-0.141774
-0.0485219
0.0228868
0.0610831
0.0732474
0.0712071
0.0650302
0.0606299
0.0581162
0.0558614
0.0532387
0.0504587
0.047758
0.0452077
0.0428077
0.0405347
0.0383564
0.0362415
0.0341646
0.0321077
0.0300586
0.0280102
0.0259585
0.023902
0.0218401
0.0197731
0.0177017
0.0156264
0.013548
0.0114673
0.00938439
0.00730028
0.00521526
0.00312947
0.00104325
-0.207044
-0.164331
-0.177355
-0.204749
-0.251456
-0.29963
-0.330503
-0.329343
-0.289309
-0.220583
-0.13997
-0.0638735
-0.00708862
0.0246579
0.0383679
0.040819
0.0403271
0.0420264
0.0456544
0.0481626
0.0488523
0.0481623
0.0466661
0.0447778
0.0427317
0.0406375
0.0385377
0.036445
0.0343605
0.0322819
0.0302062
0.0281311
0.026055
0.0239774
0.0218981
0.0198169
0.0177344
0.0156505
0.0135656
0.0114798
0.0093933
0.00730638
0.00521899
0.00313149
0.00104385
)
;

boundaryField
{
    inlet
    {
        type            zeroGradient;
    }
    outlet
    {
        type            fixedValue;
        value           uniform 0;
    }
    upperWall
    {
        type            zeroGradient;
    }
    lowerWall
    {
        type            zeroGradient;
    }
    frontAndBack
    {
        type            empty;
    }
}


// ************************************************************************* //
