/*--------------------------------*- C++ -*----------------------------------*\
  =========                 |
  \\      /  F ield         | OpenFOAM: The Open Source CFD Toolbox
   \\    /   O peration     | Website:  https://openfoam.org
    \\  /    A nd           | Version:  10
     \\/     M anipulation  |
\*---------------------------------------------------------------------------*/
FoamFile
{
    format      ascii;
    class       surfaceScalarField;
    location    "3";
    object      phi;
}
// * * * * * * * * * * * * * * * * * * * * * * * * * * * * * * * * * * * * * //

dimensions      [0 3 -1 0 0 0 0];

internalField   nonuniform List<scalar> 
890
(
0.00984254
0.000157461
0.00974099
0.000101547
0.00947571
0.000265286
0.00949191
-1.61994e-05
0.000112482
0.00937942
0.0101258
3.16373e-05
0.0101843
4.30716e-05
0.0104079
4.16469e-05
0.0104421
-5.03875e-05
-9.56788e-05
0.0106503
0.0100701
-3.84276e-05
0.0102087
-9.55734e-05
0.0103917
-0.000141343
0.0105021
-0.000160821
-0.000215198
0.0106217
0.0100853
-0.000123756
0.010214
-0.000224251
0.0103284
-0.000255714
0.0104039
-0.000236392
-0.000267563
0.0104563
0.00987624
0.00965199
0.00939628
0.00915989
0.00889232
0.00921193
-0.000242697
0.000410195
0.00925427
-0.000283541
0.000241199
0.00943288
-0.000285333
0.00010672
0.00975938
-0.000369653
4.31592e-05
0.0101635
-0.000593821
0.00018972
0.0105292
-0.00104743
0.00068172
0.0108202
-0.00172261
0.00143157
0.0109363
-0.00243717
0.00232104
0.0108065
-0.00313109
0.00326092
0.0104753
-0.00360144
0.00393262
0.00987094
-0.00360203
0.00420642
0.00899643
-0.00328492
0.00415942
0.00802952
-0.00251578
0.00348269
0.00698503
-0.00130475
0.00234924
0.00596129
-0.000360142
0.00138387
0.00524915
-1.8488e-07
0.00071233
0.00501841
7.36595e-05
0.000157075
0.00512221
0.000192754
-0.000296553
0.0053461
0.000359733
-0.000583618
0.00555026
0.000473213
-0.00067738
0.00568851
0.000495571
-0.000633817
0.00576592
0.000447858
-0.000525264
0.00580348
0.000366057
-0.000403623
0.00581987
0.000279105
-0.000295491
0.00582674
0.000202798
-0.00020967
0.00582995
0.000142555
-0.000145768
0.00583193
9.79664e-05
-9.99462e-05
0.00583349
6.62717e-05
-6.78282e-05
0.00583481
4.43074e-05
-4.56337e-05
0.00583593
2.9331e-05
-3.04455e-05
0.00583683
1.92297e-05
-2.01318e-05
0.00583753
1.24745e-05
-1.31778e-05
0.00583807
7.99227e-06
-8.52439e-06
0.00583846
5.04379e-06
-5.43642e-06
0.00583874
3.12267e-06
-3.40524e-06
0.00583894
1.88676e-06
-2.08741e-06
0.00583908
1.10017e-06
-1.2397e-06
0.00583918
6.15523e-07
-7.10496e-07
0.00583924
3.1649e-07
-3.80458e-07
0.00583928
1.48024e-07
-1.89317e-07
0.00583931
4.95691e-08
-7.60775e-08
0.00583933
5.11816e-09
-2.2923e-08
0.00583934
-1.06336e-08
1.71939e-11
0.00583934
-1.24e-08
4.65159e-09
1.37906e-08
-1.95818e-08
0.0106769
-0.000269296
0.0107388
-0.000345471
0.0108592
-0.000405738
0.0110645
-0.000574973
0.0112478
-0.000777036
0.0113191
-0.00111876
0.0112229
-0.00162646
0.0109231
-0.00213728
0.0104216
-0.00262963
0.00976623
-0.00294606
0.00889567
-0.00273147
0.00780656
-0.00219581
0.00680045
-0.00150967
0.00604941
-0.000553708
0.00544639
0.000242883
0.00497472
0.000471481
0.00470977
0.000338613
0.00468887
0.000213651
0.00483617
0.000212438
0.00504727
0.000262115
0.00525149
0.000291345
0.00541871
0.000280636
0.00554367
0.000241103
0.00563234
0.000190431
0.00569353
0.000141604
0.00573519
0.000100897
0.0057634
6.976e-05
0.00578247
4.72042e-05
0.00579535
3.14294e-05
0.00580403
2.06492e-05
0.00580986
1.33958e-05
0.00581376
8.5741e-06
0.00581635
5.39985e-06
0.00581806
3.33264e-06
0.00581919
2.00208e-06
0.00581992
1.15683e-06
0.00582038
6.30881e-07
0.00582069
3.14991e-07
0.00582088
1.25925e-07
0.00582099
2.92677e-08
0.00582107
-2.35652e-08
0.00582111
-4.18897e-08
0.00582114
-3.87846e-08
0.00582116
-3.22902e-08
-5.64926e-10
0.0106827
-0.000330312
0.0107147
-0.000377522
0.0107735
-0.000464568
0.0108152
-0.000616617
0.0108231
-0.000784941
0.0107342
-0.00102984
0.0105015
-0.00139378
0.0101983
-0.00183412
0.00970067
-0.00213196
0.00896823
-0.00221363
0.00817927
-0.0019425
0.00736004
-0.00137659
0.00665428
-0.000803916
0.00632372
-0.000223142
0.00628219
0.000284409
0.00622349
0.000530182
0.00601139
0.000550716
0.00574045
0.000484594
0.00553507
0.000417809
0.00543466
0.000362528
0.00541817
0.000307839
0.0054488
0.000250006
0.00549699
0.000192911
0.00554542
0.000141997
0.00558651
0.000100518
0.0056184
6.90093e-05
0.00564189
4.62713e-05
0.00565864
3.04475e-05
0.00567036
1.97112e-05
0.00567845
1.2558e-05
0.00568399
7.85649e-06
0.00568776
4.80844e-06
0.0056903
2.85485e-06
0.00569201
1.62643e-06
0.00569314
8.69654e-07
0.00569389
4.118e-07
0.00569437
1.51285e-07
0.00569467
9.44719e-09
0.00569486
-6.27981e-08
0.00569497
-8.54509e-08
0.00569504
-9.23315e-08
0.00569508
-8.17766e-08
0.00569511
-6.13608e-08
0.00569512
-4.78474e-08
-1.43387e-08
0.0104415
-0.000315526
0.0104137
-0.000349737
0.0103595
-0.00041034
0.0102115
-0.000468617
0.0100201
-0.000593551
0.00970095
-0.000710672
0.00919457
-0.000887393
0.00861548
-0.00125504
0.00787319
-0.00138967
0.00677822
-0.00111866
0.0055699
-0.000734178
0.00455304
-0.000359732
0.00384058
-9.14487e-05
0.00351285
0.000104585
0.00352781
0.000269451
0.00368802
0.000369972
0.00385759
0.000381143
0.0040103
0.000331884
0.00416388
0.00026423
0.00432537
0.000201038
0.00448407
0.000149139
0.00462589
0.000108189
0.00474228
7.65135e-05
0.0048316
5.26792e-05
0.00489677
3.53464e-05
0.00494262
2.31598e-05
0.00497405
1.48422e-05
0.0049952
9.30022e-06
0.00500923
5.68049e-06
0.00501843
3.35807e-06
0.00502439
1.89407e-06
0.00502821
9.93312e-07
0.00503061
4.51106e-07
0.0050321
1.40972e-07
0.00503299
-2.55989e-08
0.00503352
-1.15179e-07
0.00503382
-1.44203e-07
0.00503397
-1.47291e-07
0.00503404
-1.33901e-07
0.00503407
-1.12353e-07
0.00503407
-9.3748e-08
0.00503406
-7.17031e-08
0.00503405
-5.14864e-08
0.00503404
-3.82373e-08
-1.43469e-08
0.0085768
0.00822706
0.00781672
0.0073481
0.00675455
0.00604388
0.00515649
0.00390145
0.00251178
0.00139312
0.000658947
0.000299215
0.000207766
0.000312351
0.000581802
0.000951774
0.00133292
0.0016648
0.00192903
0.00213007
0.00227921
0.0023874
0.00246391
0.00251659
0.00255194
0.00257509
0.00258994
0.00259924
0.00260492
0.00260828
0.00261017
0.00261116
0.00261161
0.00261176
0.00261173
0.00261161
0.00261147
0.00261132
0.00261119
0.00261108
0.00261098
0.00261091
0.00261086
0.00261082
-0.000225575
0.000225575
-0.000687538
0.000461962
-0.00157603
0.000888493
-0.00273984
0.00116381
-0.00386456
0.00112472
-0.00469864
0.000834082
-0.00507958
0.000380939
-0.00490756
-0.000172015
-0.00422905
-0.000678518
-0.00309704
-0.00113201
-0.00164585
-0.00145119
-7.10631e-05
-0.00157478
0.0013935
-0.00146456
0.00253923
-0.00114573
0.0032649
-0.000725677
0.0035944
-0.000329499
0.00363351
-3.91102e-05
0.00351407
0.000119446
0.00333164
0.000182431
0.00314792
0.000183717
0.0029913
0.000156624
0.0028697
0.000121599
0.00278109
8.86091e-05
0.00271945
6.16356e-05
0.00267808
4.13682e-05
0.00265112
2.6966e-05
0.00263399
1.71292e-05
0.00262337
1.06136e-05
0.00261697
6.40266e-06
0.00261324
3.73644e-06
0.00261115
2.08244e-06
0.00261008
1.07672e-06
0.00260959
4.85501e-07
0.00260944
1.49456e-07
0.00260947
-2.7066e-08
0.00260958
-1.14542e-07
0.00260973
-1.48293e-07
0.00260988
-1.46834e-07
0.00261001
-1.34517e-07
0.00261013
-1.16124e-07
0.00261022
-9.29784e-08
0.00261029
-7.30481e-08
0.00261035
-5.31439e-08
0.00261039
-3.73118e-08
-1.36547e-08
-0.000555384
0.00078096
-0.00127689
0.00118347
-0.002082
0.0016936
-0.00281918
0.00190099
-0.00338545
0.00169098
-0.00370443
0.00115306
-0.00368407
0.000360577
-0.00329232
-0.000563767
-0.0025005
-0.00147034
-0.00135944
-0.00227306
3.75977e-05
-0.00284823
0.00151788
-0.00305507
0.00292399
-0.00287067
0.00411505
-0.00233679
0.00497824
-0.00158887
0.00547401
-0.000825266
0.0056768
-0.000241901
0.00569573
0.000100517
0.00563009
0.000248068
0.00553367
0.000280139
0.00543246
0.00025783
0.00533948
0.000214585
0.00526057
0.000167517
0.00519728
0.000124926
0.00514871
8.99368e-05
0.00511277
6.29062e-05
0.00508698
4.29236e-05
0.00506893
2.86586e-05
0.00505658
1.87565e-05
0.00504828
1.20326e-05
0.00504281
7.55731e-06
0.00503925
4.62808e-06
0.00503699
2.74815e-06
0.00503558
1.56193e-06
0.00503472
8.29099e-07
0.00503422
3.93008e-07
0.00503393
1.36439e-07
0.00503378
3.06303e-09
0.00503371
-6.47499e-08
0.00503369
-9.26627e-08
0.00503369
-9.34572e-08
0.0050337
-8.17898e-08
0.00503371
-6.43725e-08
0.00503372
-4.75654e-08
-1.33156e-08
-0.000204534
0.000985493
-0.000258044
0.00123698
-0.000353671
0.00178923
-0.000397346
0.00194467
-0.000341651
0.00163529
-0.000177132
0.000988543
0.000125824
5.76217e-05
0.000659692
-0.00109763
0.00140161
-0.00221225
0.00223591
-0.00310736
0.00315218
-0.00376451
0.00411499
-0.00401787
0.00493526
-0.00369094
0.00558819
-0.00298972
0.00610138
-0.00210206
0.0064158
-0.00113968
0.00649988
-0.000325979
0.00642225
0.000178141
0.00628669
0.000383635
0.00615549
0.000411338
0.00604838
0.000364938
0.00596466
0.0002983
0.00589889
0.000233295
0.00584687
0.000176939
0.00580609
0.000130718
0.00577475
9.42488e-05
0.00575124
6.64359e-05
0.00573402
4.58765e-05
0.00572168
3.10934e-05
0.005713
2.07114e-05
0.00570699
1.35672e-05
0.00570289
8.73423e-06
0.00570012
5.51809e-06
0.00569827
3.4092e-06
0.00569705
2.04554e-06
0.00569626
1.18401e-06
0.00569575
6.43937e-07
0.00569544
3.21419e-07
0.00569524
1.31312e-07
0.00569512
2.83107e-08
0.00569505
-2.35411e-08
0.00569501
-4.04771e-08
0.00569498
-4.02576e-08
0.00569497
-3.22753e-08
2.0798e-10
0.000344128
0.000641365
0.000979448
0.000601662
0.00165063
0.00111804
0.00237075
0.00122455
0.00303095
0.000975087
0.00365553
0.000363961
0.0042818
-0.000568644
0.00486977
-0.00168561
0.00548288
-0.00282536
0.00605483
-0.00367931
0.00652397
-0.00423364
0.00691925
-0.00441315
0.00712276
-0.00389446
0.00708819
-0.00295515
0.00700475
-0.00201862
0.00698187
-0.00111681
0.00694953
-0.000293641
0.00682661
0.000301062
0.0066311
0.000579145
0.00642296
0.000619481
0.00624659
0.000541309
0.00611536
0.000429532
0.00602372
0.000324931
0.00596111
0.000239547
0.0059183
0.000173535
0.00588872
0.000123831
0.00586806
8.70882e-05
0.00585356
6.03779e-05
0.00584338
4.12772e-05
0.00583626
2.78323e-05
0.00583131
1.85092e-05
0.00582792
1.21334e-05
0.0058256
7.83245e-06
0.00582404
4.96933e-06
0.005823
3.08651e-06
0.00582231
1.8702e-06
0.00582187
1.09257e-06
0.00582157
6.11573e-07
0.00582139
3.15883e-07
0.00582127
1.46306e-07
0.0058212
4.85281e-08
0.00582115
5.49332e-09
0.00582113
-1.13896e-08
0.00582111
-1.26311e-08
1.41644e-08
0.00105156
0.00189442
0.00311918
0.0043869
0.0055517
0.00659738
0.00746031
0.00809574
0.0085313
0.00878461
0.00875739
0.00850366
0.0080919
0.00748598
0.00685124
0.00644676
0.0063102
0.00631471
0.00631023
0.00625234
0.00615983
0.0060641
0.0059854
0.00592946
0.00589333
0.00587139
0.00585853
0.00585108
0.00584672
0.00584411
0.00584249
0.00584144
0.00584075
0.00584028
0.00583997
0.00583975
0.0058396
0.0058395
0.00583944
0.0058394
0.00583937
0.00583935
0.00583934
0.00583933
)
;

boundaryField
{
    inlet
    {
        type            calculated;
        value           nonuniform List<scalar> 5(-0.01 -0.01 -0.01 -0.01 -0.01);
    }
    outlet
    {
        type            calculated;
        value           nonuniform List<scalar> 10(0.00583935 0.00582118 0.00569513 0.00503404 0.00261081 0.0026104 0.00503372 0.00569496 0.00582109 0.00583933);
    }
    upperWall
    {
        type            calculated;
        value           uniform 0;
    }
    lowerWall
    {
        type            calculated;
        value           uniform 0;
    }
    frontAndBack
    {
        type            empty;
        value           nonuniform List<scalar> 0();
    }
}


// ************************************************************************* //
