/*--------------------------------*- C++ -*----------------------------------*\
  =========                 |
  \\      /  F ield         | OpenFOAM: The Open Source CFD Toolbox
   \\    /   O peration     | Website:  https://openfoam.org
    \\  /    A nd           | Version:  10
     \\/     M anipulation  |
\*---------------------------------------------------------------------------*/
FoamFile
{
    format      ascii;
    class       volVectorField;
    location    "3";
    object      U;
}
// * * * * * * * * * * * * * * * * * * * * * * * * * * * * * * * * * * * * * //

dimensions      [0 1 -1 0 0 0 0];

internalField   nonuniform List<vector> 
475
(
(0.965333 0.0170016 0)
(0.987618 0.00299658 0)
(0.938559 0.0342803 0)
(0.970625 -0.005509 0)
(0.911343 0.0289781 0)
(0.997329 0.00861889 0)
(1.01552 0.0131531 0)
(1.02339 0.0164637 0)
(1.04418 0.00301389 0)
(1.05181 -0.00294296 0)
(0.999974 -0.000271962 0)
(1.0084 -0.00212884 0)
(1.02569 -0.00646796 0)
(1.04154 -0.0116285 0)
(1.05366 -0.0173588 0)
(0.999956 -0.00970779 0)
(1.00916 -0.0200754 0)
(1.02332 -0.0247462 0)
(1.03516 -0.0230592 0)
(1.042 -0.0270973 0)
(0.980603 -0.00937191 0)
(0.96998 -0.0192749 0)
(0.95239 -0.0228846 0)
(0.931414 -0.022044 0)
(0.905445 -0.0248134 0)
(0.942345 -0.0310136 0)
(0.936727 -0.0314267 0)
(0.925905 -0.0349745 0)
(0.940439 -0.0414652 0)
(0.98347 -0.0579494 0)
(1.02718 -0.103844 0)
(1.0706 -0.173531 0)
(1.10702 -0.245065 0)
(1.10445 -0.317605 0)
(1.07861 -0.373913 0)
(1.03308 -0.388989 0)
(0.942728 -0.371596 0)
(0.845091 -0.302796 0)
(0.750687 -0.19012 0)
(0.639957 -0.0962319 0)
(0.546971 -0.0427336 0)
(0.503252 -0.0061616 0)
(0.502204 0.0280868 0)
(0.522363 0.0543081 0)
(0.545575 0.0663491 0)
(0.563012 0.0654238 0)
(0.573491 0.056475 0)
(0.578875 0.0445323 0)
(0.581326 0.0329881 0)
(0.582365 0.0234236 0)
(0.582824 0.0161762 0)
(0.583077 0.0109736 0)
(0.583259 0.00735812 0)
(0.583411 0.00489257 0)
(0.583537 0.00322972 0)
(0.583641 0.00211616 0)
(0.583721 0.00137465 0)
(0.583783 0.000883757 0)
(0.583829 0.000560939 0)
(0.583862 0.000350231 0)
(0.583887 0.000214287 0)
(0.583902 0.000127264 0)
(0.583914 7.30694e-05 0)
(0.583922 3.9244e-05 0)
(0.583926 1.96919e-05 0)
(0.58393 8.05237e-06 0)
(0.583932 2.4895e-06 0)
(0.583933 8.28731e-08 0)
(0.583934 -4.19792e-07 0)
(0.583935 1.98577e-06 0)
(1.06742 -0.0224554 0)
(1.07765 -0.0300428 0)
(1.07869 -0.0296169 0)
(1.08778 -0.0395336 0)
(1.10864 -0.0603327 0)
(1.12388 -0.0963568 0)
(1.13478 -0.156353 0)
(1.12574 -0.22438 0)
(1.07697 -0.289358 0)
(1.016 -0.328944 0)
(0.946037 -0.31673 0)
(0.83487 -0.271531 0)
(0.71921 -0.186893 0)
(0.637036 -0.0604277 0)
(0.57051 0.0300489 0)
(0.514893 0.0431945 0)
(0.478051 0.0228023 0)
(0.464884 0.0126127 0)
(0.473132 0.0180731 0)
(0.493064 0.027369 0)
(0.515086 0.0324574 0)
(0.534111 0.0319727 0)
(0.548763 0.0277853 0)
(0.559347 0.022155 0)
(0.566711 0.0166325 0)
(0.571737 0.0119672 0)
(0.575141 0.0083558 0)
(0.57744 0.00571043 0)
(0.578993 0.00384089 0)
(0.580039 0.0025505 0)
(0.580744 0.00167384 0)
(0.581215 0.00108524 0)
(0.58153 0.000693855 0)
(0.581738 0.000436219 0)
(0.581874 0.000268479 0)
(0.581964 0.00016072 0)
(0.58202 9.24361e-05 0)
(0.582057 5.05305e-05 0)
(0.582081 2.47204e-05 0)
(0.582095 1.04541e-05 0)
(0.582105 2.23685e-06 0)
(0.58211 -1.25476e-06 0)
(0.582114 -2.14453e-06 0)
(0.582115 -2.0008e-06 0)
(0.582118 8.4348e-07 0)
(1.06622 -0.0313854 0)
(1.07304 -0.0341048 0)
(1.07566 -0.0447058 0)
(1.07763 -0.0675751 0)
(1.07776 -0.0873543 0)
(1.07691 -0.120244 0)
(1.07131 -0.168898 0)
(1.04484 -0.210601 0)
(0.997845 -0.249493 0)
(0.936243 -0.275232 0)
(0.864134 -0.244902 0)
(0.776269 -0.182267 0)
(0.689078 -0.127126 0)
(0.640766 -0.0572261 0)
(0.630462 0.012964 0)
(0.629965 0.0445378 0)
(0.614621 0.0412099 0)
(0.585655 0.0303052 0)
(0.559643 0.026214 0)
(0.544941 0.0271228 0)
(0.540383 0.0275902 0)
(0.542149 0.0254858 0)
(0.546781 0.0213899 0)
(0.551992 0.0166254 0)
(0.556643 0.0122025 0)
(0.560352 0.00859313 0)
(0.563127 0.00587537 0)
(0.565123 0.00393189 0)
(0.566527 0.00258785 0)
(0.567498 0.00167876 0)
(0.568165 0.00107315 0)
(0.568618 0.000674908 0)
(0.568926 0.000415789 0)
(0.569132 0.000249423 0)
(0.569269 0.000144111 0)
(0.56936 7.82985e-05 0)
(0.569418 3.84815e-05 0)
(0.569456 1.53052e-05 0)
(0.569479 2.0633e-06 0)
(0.569493 -3.85419e-06 0)
(0.569503 -6.69907e-06 0)
(0.569507 -6.88241e-06 0)
(0.569511 -5.47782e-06 0)
(0.569511 -4.38635e-06 0)
(0.569513 -9.47253e-07 0)
(1.04568 -0.0360941 0)
(1.04473 -0.0407042 0)
(1.03818 -0.0478232 0)
(1.03128 -0.0586832 0)
(1.01376 -0.0737595 0)
(0.98742 -0.0899955 0)
(0.959406 -0.113718 0)
(0.896982 -0.151223 0)
(0.817331 -0.174649 0)
(0.736579 -0.173859 0)
(0.623885 -0.147663 0)
(0.499485 -0.0910497 0)
(0.407549 -0.033563 0)
(0.360739 0.010568 0)
(0.350617 0.0444149 0)
(0.360687 0.0640702 0)
(0.37612 0.0689746 0)
(0.391774 0.0641716 0)
(0.407291 0.0541055 0)
(0.423462 0.0424861 0)
(0.439987 0.0318269 0)
(0.455459 0.0230576 0)
(0.468635 0.0162384 0)
(0.479018 0.0111492 0)
(0.486738 0.00748572 0)
(0.492238 0.00492909 0)
(0.496041 0.0031899 0)
(0.498614 0.00203038 0)
(0.50033 0.00126968 0)
(0.501459 0.000777526 0)
(0.502195 0.000463167 0)
(0.502666 0.000265779 0)
(0.502966 0.000143572 0)
(0.503153 7.01243e-05 0)
(0.503266 2.73638e-05 0)
(0.503334 3.57209e-06 0)
(0.503372 -8.04481e-06 0)
(0.503393 -1.32863e-05 0)
(0.503403 -1.47262e-05 0)
(0.503407 -1.3378e-05 0)
(0.503408 -1.1877e-05 0)
(0.503407 -9.58319e-06 0)
(0.503407 -6.88134e-06 0)
(0.503405 -5.26515e-06 0)
(0.503404 -1.9785e-06 0)
(0.873565 -0.0248941 0)
(0.841968 -0.0270766 0)
(0.801764 -0.0325813 0)
(0.761538 -0.0321172 0)
(0.710483 -0.0423146 0)
(0.643538 -0.0494356 0)
(0.576831 -0.0579462 0)
(0.464636 -0.0952385 0)
(0.309835 -0.0981073 0)
(0.180028 -0.0419274 0)
(0.0929084 0.00638726 0)
(0.0417576 0.0202413 0)
(0.0207231 0.0165555 0)
(0.0222907 0.0132818 0)
(0.0429614 0.0139888 0)
(0.0765311 0.0134682 0)
(0.11441 0.0096764 0)
(0.150236 0.00479082 0)
(0.180169 0.00139785 0)
(0.203447 -3.85466e-05 0)
(0.220912 -0.000344491 0)
(0.233708 -0.000278903 0)
(0.242866 -0.000175255 0)
(0.249255 -0.000114045 0)
(0.253596 -8.9951e-05 0)
(0.256473 -8.37053e-05 0)
(0.258337 -8.21933e-05 0)
(0.259518 -7.99475e-05 0)
(0.260249 -7.55443e-05 0)
(0.260688 -6.92903e-05 0)
(0.260941 -6.18633e-05 0)
(0.261079 -5.38697e-05 0)
(0.261148 -4.60914e-05 0)
(0.261174 -3.85701e-05 0)
(0.261178 -3.18818e-05 0)
(0.26117 -2.55183e-05 0)
(0.261156 -2.00613e-05 0)
(0.261141 -1.5797e-05 0)
(0.261126 -1.19683e-05 0)
(0.261114 -9.10951e-06 0)
(0.261103 -6.92791e-06 0)
(0.261095 -4.80972e-06 0)
(0.261089 -3.41081e-06 0)
(0.261084 -2.39555e-06 0)
(0.261081 -8.94563e-07 0)
(-0.00892884 -0.0241896 0)
(-0.0340424 -0.00817797 0)
(-0.0994551 0.0304625 0)
(-0.216719 0.0611399 0)
(-0.344943 0.0645216 0)
(-0.448143 0.0515522 0)
(-0.503423 0.0286805 0)
(-0.50676 0.00202723 0)
(-0.460121 -0.0273483 0)
(-0.366832 -0.0520337 0)
(-0.235777 -0.068909 0)
(-0.0835653 -0.0723011 0)
(0.0692654 -0.0624339 0)
(0.20093 -0.0437385 0)
(0.295571 -0.0217879 0)
(0.3485 -0.00250591 0)
(0.36593 0.00982017 0)
(0.360147 0.0148537 0)
(0.34337 0.0145629 0)
(0.324099 0.011766 0)
(0.306686 0.00849168 0)
(0.292684 0.00567193 0)
(0.282206 0.00356842 0)
(0.274762 0.00213479 0)
(0.269679 0.001218 0)
(0.266318 0.000658698 0)
(0.264156 0.000330095 0)
(0.2628 0.000144189 0)
(0.261971 4.38754e-05 0)
(0.261479 -6.75911e-06 0)
(0.261198 -2.96531e-05 0)
(0.261047 -3.76983e-05 0)
(0.260974 -3.79359e-05 0)
(0.260945 -3.47064e-05 0)
(0.260942 -2.98465e-05 0)
(0.26095 -2.45498e-05 0)
(0.260964 -1.97667e-05 0)
(0.260979 -1.53584e-05 0)
(0.260994 -1.208e-05 0)
(0.261007 -9.17204e-06 0)
(0.261017 -6.74442e-06 0)
(0.261026 -5.09418e-06 0)
(0.261032 -3.48498e-06 0)
(0.261037 -2.22307e-06 0)
(0.26104 -8.482e-07 0)
(-0.0237042 0.0751211 0)
(-0.0830285 0.107168 0)
(-0.167374 0.154239 0)
(-0.253937 0.172257 0)
(-0.324839 0.153064 0)
(-0.371658 0.106149 0)
(-0.381105 0.0406908 0)
(-0.354528 -0.0421933 0)
(-0.291999 -0.12037 0)
(-0.193516 -0.189062 0)
(-0.0668794 -0.235222 0)
(0.0775647 -0.24978 0)
(0.221706 -0.229546 0)
(0.351598 -0.180764 0)
(0.456884 -0.118708 0)
(0.527259 -0.060508 0)
(0.562449 -0.016949 0)
(0.572224 0.00989558 0)
(0.568366 0.022346 0)
(0.55923 0.025238 0)
(0.548799 0.0231271 0)
(0.538785 0.0189684 0)
(0.530007 0.0144567 0)
(0.522796 0.0104495 0)
(0.517162 0.00725662 0)
(0.512932 0.00488236 0)
(0.50986 0.00319968 0)
(0.507689 0.00204891 0)
(0.506193 0.00128264 0)
(0.505181 0.000783081 0)
(0.504509 0.000463835 0)
(0.50407 0.000263369 0)
(0.503789 0.000140677 0)
(0.503612 6.72208e-05 0)
(0.503504 2.48087e-05 0)
(0.50344 2.24401e-06 0)
(0.503402 -9.62089e-06 0)
(0.503382 -1.40961e-05 0)
(0.503372 -1.49817e-05 0)
(0.503368 -1.41833e-05 0)
(0.503368 -1.19527e-05 0)
(0.503369 -9.58596e-06 0)
(0.50337 -7.21102e-06 0)
(0.503372 -5.24385e-06 0)
(0.503372 -1.87518e-06 0)
(-0.0127792 0.0685302 0)
(-0.0230293 0.118391 0)
(-0.0299777 0.170336 0)
(-0.0433967 0.190621 0)
(-0.0425022 0.165977 0)
(-0.0314732 0.107503 0)
(-0.00847275 0.0210908 0)
(0.0340527 -0.083634 0)
(0.104 -0.192504 0)
(0.186631 -0.287272 0)
(0.27726 -0.354846 0)
(0.367939 -0.378669 0)
(0.451068 -0.354056 0)
(0.520821 -0.290048 0)
(0.580449 -0.199135 0)
(0.627314 -0.103752 0)
(0.65064 -0.0309808 0)
(0.649863 0.00989104 0)
(0.636598 0.0266001 0)
(0.621946 0.030153 0)
(0.609888 0.0279628 0)
(0.600456 0.0236778 0)
(0.59304 0.018939 0)
(0.587168 0.0145115 0)
(0.582531 0.0107345 0)
(0.578927 0.00770754 0)
(0.576194 0.00539476 0)
(0.574171 0.00369369 0)
(0.57271 0.00247974 0)
(0.571674 0.00163406 0)
(0.570955 0.001057 0)
(0.57046 0.000669927 0)
(0.570125 0.00041486 0)
(0.569902 0.000249416 0)
(0.569753 0.00014386 0)
(0.569657 7.83983e-05 0)
(0.569594 3.81326e-05 0)
(0.569555 1.50293e-05 0)
(0.569531 2.2038e-06 0)
(0.569516 -4.25972e-06 0)
(0.569507 -6.77085e-06 0)
(0.569502 -6.78003e-06 0)
(0.569498 -5.71225e-06 0)
(0.569498 -4.38901e-06 0)
(0.569496 -8.43402e-07 0)
(0.00991996 0.14598 0)
(0.0650388 0.137452 0)
(0.129498 0.199451 0)
(0.194709 0.212183 0)
(0.265251 0.176285 0)
(0.324615 0.102732 0)
(0.390837 -0.00670562 0)
(0.46356 -0.124562 0)
(0.527621 -0.240591 0)
(0.590957 -0.334138 0)
(0.643671 -0.407008 0)
(0.677139 -0.436859 0)
(0.701718 -0.396145 0)
(0.705601 -0.319395 0)
(0.69524 -0.231594 0)
(0.694564 -0.13155 0)
(0.698728 -0.0376235 0)
(0.692517 0.0237166 0)
(0.674302 0.0493207 0)
(0.652087 0.0521135 0)
(0.632272 0.0451975 0)
(0.617022 0.0361635 0)
(0.606166 0.0279189 0)
(0.598715 0.0210939 0)
(0.593634 0.015625 0)
(0.590134 0.0113367 0)
(0.587696 0.00805511 0)
(0.585982 0.00561002 0)
(0.584777 0.00383547 0)
(0.583929 0.00257791 0)
(0.583341 0.00170519 0)
(0.582933 0.00111016 0)
(0.582656 0.000711002 0)
(0.582468 0.000447119 0)
(0.582342 0.000274893 0)
(0.582259 0.000164636 0)
(0.582204 9.45659e-05 0)
(0.582169 5.15996e-05 0)
(0.582146 2.54613e-05 0)
(0.582131 1.05993e-05 0)
(0.582122 2.28505e-06 0)
(0.582117 -1.1112e-06 0)
(0.582113 -2.21364e-06 0)
(0.582112 -2.00937e-06 0)
(0.582109 9.12035e-07 0)
(0.127007 -0.0367724 0)
(0.10568 -0.0148217 0)
(0.253794 0.0173678 0)
(0.368195 0.034602 0)
(0.4897 0.0222459 0)
(0.598894 -0.0288129 0)
(0.703228 -0.105194 0)
(0.793002 -0.205756 0)
(0.847712 -0.315623 0)
(0.884437 -0.391765 0)
(0.896195 -0.433166 0)
(0.865295 -0.447958 0)
(0.826155 -0.390906 0)
(0.77684 -0.28109 0)
(0.707503 -0.180602 0)
(0.654336 -0.0983484 0)
(0.633956 -0.024212 0)
(0.631512 0.0326781 0)
(0.6322 0.0626985 0)
(0.62871 0.0690419 0)
(0.620495 0.0613628 0)
(0.610581 0.0487234 0)
(0.601727 0.0364009 0)
(0.595104 0.0263358 0)
(0.590684 0.0187231 0)
(0.587947 0.0131618 0)
(0.586327 0.00916664 0)
(0.585385 0.00632576 0)
(0.584839 0.0043232 0)
(0.584513 0.00292401 0)
(0.584314 0.00195555 0)
(0.584186 0.00129181 0)
(0.584104 0.000841756 0)
(0.584048 0.000540027 0)
(0.584009 0.000339963 0)
(0.583984 0.000209418 0)
(0.583966 0.000124928 0)
(0.583954 7.18891e-05 0)
(0.583946 3.87083e-05 0)
(0.583941 1.93553e-05 0)
(0.583938 7.85939e-06 0)
(0.583936 2.43561e-06 0)
(0.583934 1.35796e-08 0)
(0.583934 -4.5315e-07 0)
(0.583933 1.99802e-06 0)
)
;

boundaryField
{
    inlet
    {
        type            fixedValue;
        value           uniform (1 0 0);
    }
    outlet
    {
        type            zeroGradient;
    }
    upperWall
    {
        type            noSlip;
    }
    lowerWall
    {
        type            noSlip;
    }
    frontAndBack
    {
        type            empty;
    }
}


// ************************************************************************* //
