/*--------------------------------*- C++ -*----------------------------------*\
  =========                 |
  \\      /  F ield         | OpenFOAM: The Open Source CFD Toolbox
   \\    /   O peration     | Website:  https://openfoam.org
    \\  /    A nd           | Version:  10
     \\/     M anipulation  |
\*---------------------------------------------------------------------------*/
FoamFile
{
    format      ascii;
    class       volScalarField;
    location    "6.65";
    object      p;
}
// * * * * * * * * * * * * * * * * * * * * * * * * * * * * * * * * * * * * * //

dimensions      [0 2 -2 0 0 0 0];

internalField   nonuniform List<scalar> 
475
(
-0.0594034
-0.0847349
-0.114169
-0.137885
-0.16061
-0.0851352
-0.0984417
-0.114695
-0.133729
-0.150597
-0.0831996
-0.0926041
-0.107578
-0.124963
-0.141307
-0.0824676
-0.0934097
-0.108175
-0.123562
-0.137093
-0.0527168
-0.079587
-0.103191
-0.12084
-0.133518
-0.178903
-0.189117
-0.192817
-0.195645
-0.200254
-0.206897
-0.214019
-0.218794
-0.219559
-0.215556
-0.206267
-0.192693
-0.176589
-0.159713
-0.143416
-0.12831
-0.115511
-0.10706
-0.104016
-0.104561
-0.105235
-0.103747
-0.0991995
-0.0917384
-0.0822464
-0.0719637
-0.0617218
-0.0519212
-0.0425594
-0.0333693
-0.0245739
-0.0169755
-0.0112372
-0.00743487
-0.00488818
-0.00272582
-0.000510884
0.00164241
0.00336076
0.00437237
0.00461257
0.00420951
0.00332588
0.00213686
0.000752765
-0.167158
-0.178684
-0.184625
-0.186994
-0.188473
-0.18987
-0.190936
-0.19065
-0.1882
-0.183334
-0.176204
-0.167494
-0.158153
-0.149079
-0.140598
-0.131878
-0.124704
-0.121052
-0.121363
-0.123686
-0.125042
-0.123199
-0.117035
-0.10715
-0.0951802
-0.082458
-0.0697004
-0.0574542
-0.0457855
-0.034752
-0.0246352
-0.0161577
-0.00991862
-0.00576215
-0.00287737
-0.00041933
0.00197305
0.00414651
0.00574162
0.00651256
0.00642877
0.0056492
0.00437939
0.00279151
0.00103103
-0.154633
-0.164163
-0.169722
-0.172026
-0.17211
-0.170699
-0.168142
-0.164504
-0.159889
-0.154706
-0.150328
-0.147843
-0.14748
-0.145656
-0.139289
-0.132887
-0.131583
-0.132788
-0.134097
-0.135326
-0.134408
-0.129733
-0.121829
-0.110504
-0.0973181
-0.0835827
-0.070247
-0.057495
-0.045284
-0.0337892
-0.0235083
-0.0150437
-0.0086831
-0.00417162
-0.000866899
0.00184422
0.00424158
0.00623316
0.00756632
0.00806218
0.00771321
0.00666409
0.00510546
0.00323028
0.00117493
-0.147764
-0.155512
-0.160075
-0.161749
-0.16056
-0.157148
-0.151678
-0.1448
-0.136974
-0.130201
-0.12667
-0.130012
-0.142947
-0.15014
-0.140018
-0.122421
-0.117403
-0.124617
-0.13345
-0.138849
-0.139058
-0.134383
-0.124343
-0.111543
-0.0971847
-0.0826614
-0.0685856
-0.0553454
-0.0430915
-0.031953
-0.0221847
-0.0141209
-0.00788539
-0.0032274
0.000320985
0.0031854
0.00556289
0.00739695
0.00852529
0.00882816
0.0083188
0.007127
0.00541711
0.00341581
0.00120466
-0.143052
-0.149934
-0.154168
-0.155414
-0.153644
-0.149077
-0.142173
-0.133665
-0.124531
-0.116963
-0.113118
-0.118997
-0.135311
-0.147538
-0.146847
-0.139281
-0.132929
-0.130696
-0.132253
-0.133727
-0.132289
-0.126926
-0.118245
-0.106721
-0.0935356
-0.0798391
-0.0663939
-0.0535917
-0.0416777
-0.0308732
-0.0214454
-0.0136266
-0.00745674
-0.00272218
0.000938089
0.00384555
0.00616061
0.00785477
0.00881798
0.00896849
0.008344
0.00706987
0.00533645
0.00329334
0.00111219
-0.205042
-0.20592
-0.207387
-0.209138
-0.21313
-0.220481
-0.229737
-0.237933
-0.241791
-0.238816
-0.227886
-0.209056
-0.183131
-0.152045
-0.118741
-0.0864449
-0.0578393
-0.0345128
-0.0173418
-0.00645624
-0.00110798
1.6932e-05
-0.00157785
-0.00452575
-0.00777488
-0.0106603
-0.0128708
-0.0144232
-0.0155328
-0.016407
-0.017144
-0.0174748
-0.0172724
-0.0163523
-0.0149014
-0.0131716
-0.011327
-0.0093727
-0.00732856
-0.00523531
-0.0032735
-0.00163314
-0.000481872
0.000145726
0.000288264
-0.198613
-0.200893
-0.203171
-0.207254
-0.213955
-0.223719
-0.234568
-0.243782
-0.24848
-0.246363
-0.236568
-0.218331
-0.192388
-0.160811
-0.126577
-0.0933093
-0.0640031
-0.0401701
-0.0224791
-0.0110429
-0.00517382
-0.0035995
-0.00476699
-0.00725835
-0.0100552
-0.012436
-0.0140841
-0.0150662
-0.015865
-0.0169743
-0.0181142
-0.0184819
-0.0174387
-0.0154003
-0.0132593
-0.0115294
-0.0102383
-0.00897448
-0.00736256
-0.00540854
-0.00341191
-0.00170031
-0.000490279
0.000143035
0.000276045
-0.207502
-0.205877
-0.206094
-0.208888
-0.216287
-0.22751
-0.239432
-0.249467
-0.254832
-0.252891
-0.242765
-0.22454
-0.198973
-0.168061
-0.134815
-0.102637
-0.0742931
-0.0513697
-0.0344275
-0.0235193
-0.0178838
-0.0160879
-0.0166007
-0.0181135
-0.0196671
-0.0208334
-0.0213548
-0.0210534
-0.0202207
-0.0193102
-0.0182818
-0.0169157
-0.0151609
-0.0132663
-0.0114845
-0.0100935
-0.00882868
-0.00747878
-0.00593493
-0.00421149
-0.00251583
-0.00110864
-0.000166342
0.000260712
0.000236219
-0.194644
-0.196748
-0.19843
-0.202775
-0.210873
-0.222271
-0.234104
-0.244019
-0.249509
-0.248536
-0.239752
-0.223053
-0.199483
-0.171309
-0.141609
-0.113261
-0.0883332
-0.0685147
-0.0545644
-0.045867
-0.0412635
-0.0393601
-0.0387218
-0.0381291
-0.0369389
-0.0351905
-0.0329639
-0.0298045
-0.0261459
-0.0227402
-0.0198331
-0.0171594
-0.0144721
-0.011783
-0.00935861
-0.00734457
-0.00573277
-0.0043366
-0.0029863
-0.00167205
-0.00054742
0.000270004
0.000669873
0.000666429
0.0002676
-0.23017
-0.208292
-0.204996
-0.204677
-0.209712
-0.219635
-0.230122
-0.237944
-0.241465
-0.23904
-0.229796
-0.214133
-0.19342
-0.169572
-0.145262
-0.122844
-0.103805
-0.0895038
-0.0808122
-0.0764253
-0.0740279
-0.0720615
-0.0695585
-0.0657226
-0.0606594
-0.0549484
-0.0485071
-0.0415079
-0.034494
-0.0279652
-0.0221085
-0.0169876
-0.0128094
-0.00960448
-0.00716248
-0.00510978
-0.00317983
-0.00131992
0.00029881
0.00148367
0.00213482
0.00229743
0.00200175
0.00137204
0.000456762
)
;

boundaryField
{
    inlet
    {
        type            zeroGradient;
    }
    outlet
    {
        type            fixedValue;
        value           uniform 0;
    }
    upperWall
    {
        type            zeroGradient;
    }
    lowerWall
    {
        type            zeroGradient;
    }
    frontAndBack
    {
        type            empty;
    }
}


// ************************************************************************* //
