/*--------------------------------*- C++ -*----------------------------------*\
  =========                 |
  \\      /  F ield         | OpenFOAM: The Open Source CFD Toolbox
   \\    /   O peration     | Website:  https://openfoam.org
    \\  /    A nd           | Version:  10
     \\/     M anipulation  |
\*---------------------------------------------------------------------------*/
FoamFile
{
    format      ascii;
    class       volVectorField;
    location    "6.025";
    object      U;
}
// * * * * * * * * * * * * * * * * * * * * * * * * * * * * * * * * * * * * * //

dimensions      [0 1 -1 0 0 0 0];

internalField   nonuniform List<vector> 
400
(
(-0.000102751 9.44781e-05 0)
(-0.000866367 0.000329561 0)
(-0.00216436 0.000409632 0)
(-0.00345532 0.000427105 0)
(-0.00475351 0.000427939 0)
(-0.00601967 0.000424629 0)
(-0.00723272 0.000416402 0)
(-0.00836879 0.000399022 0)
(-0.00939429 0.000367485 0)
(-0.0102651 0.000316416 0)
(-0.0109261 0.000240534 0)
(-0.0113122 0.000135564 0)
(-0.0113506 -2.04264e-06 0)
(-0.0109675 -0.000172699 0)
(-0.0101002 -0.000369241 0)
(-0.00871153 -0.000576012 0)
(-0.00681925 -0.000762543 0)
(-0.00456663 -0.000874979 0)
(-0.00202651 -0.000813206 0)
(-0.000336373 -0.000370978 0)
(-0.00036202 0.000876618 0)
(-0.00195399 0.0018756 0)
(-0.0043773 0.0022029 0)
(-0.00677666 0.00225488 0)
(-0.00915496 0.0022131 0)
(-0.0114354 0.00212963 0)
(-0.0135691 0.0020068 0)
(-0.015508 0.0018331 0)
(-0.0171937 0.00159332 0)
(-0.0185556 0.00127097 0)
(-0.0195104 0.000849722 0)
(-0.0199653 0.000315435 0)
(-0.0198209 -0.000338734 0)
(-0.0189768 -0.00110187 0)
(-0.0173518 -0.00194235 0)
(-0.0149053 -0.0027958 0)
(-0.011682 -0.00354466 0)
(-0.00789968 -0.00397915 0)
(-0.00368599 -0.00372191 0)
(-0.000729739 -0.00197742 0)
(-0.000467069 0.00226926 0)
(-0.00241261 0.00434934 0)
(-0.005313 0.00500657 0)
(-0.00816389 0.0050828 0)
(-0.0109738 0.00494695 0)
(-0.0136546 0.00470606 0)
(-0.0161508 0.00437007 0)
(-0.0184093 0.00392141 0)
(-0.0203665 0.00333439 0)
(-0.0219469 0.0025802 0)
(-0.023062 0.0016302 0)
(-0.02361 0.000460548 0)
(-0.0234722 -0.000938135 0)
(-0.0225271 -0.00254769 0)
(-0.020671 -0.00430516 0)
(-0.0178362 -0.00608157 0)
(-0.0140501 -0.00763921 0)
(-0.00955245 -0.00854854 0)
(-0.00448338 -0.00804434 0)
(-0.000895109 -0.00450374 0)
(-0.000499675 0.00372779 0)
(-0.00259473 0.00695075 0)
(-0.00571351 0.00794092 0)
(-0.00876891 0.00803168 0)
(-0.0117824 0.00779508 0)
(-0.0146652 0.00739499 0)
(-0.0173654 0.00684856 0)
(-0.0198339 0.00613187 0)
(-0.0220101 0.0052078 0)
(-0.0238197 0.00403278 0)
(-0.0251712 0.00256184 0)
(-0.0259529 0.000756675 0)
(-0.0260287 -0.00140259 0)
(-0.0252392 -0.00390583 0)
(-0.0234232 -0.00666987 0)
(-0.0204473 -0.00950566 0)
(-0.0162794 -0.0120419 0)
(-0.0111644 -0.0135778 0)
(-0.00525224 -0.012864 0)
(-0.00103645 -0.00729319 0)
(-0.00051093 0.00526133 0)
(-0.00269751 0.00970004 0)
(-0.00596766 0.0110416 0)
(-0.00917129 0.0111516 0)
(-0.0123437 0.0108201 0)
(-0.0153996 0.0102716 0)
(-0.0182961 0.00953139 0)
(-0.020993 0.00856926 0)
(-0.0234386 0.00733534 0)
(-0.0255639 0.00576765 0)
(-0.0272765 0.00379715 0)
(-0.0284525 0.00135763 0)
(-0.0289309 -0.00159874 0)
(-0.0284998 -0.0050847 0)
(-0.026912 -0.00901823 0)
(-0.0239224 -0.0131592 0)
(-0.0193753 -0.0169804 0)
(-0.0134782 -0.0194244 0)
(-0.00638763 -0.01858 0)
(-0.00125169 -0.0105995 0)
(-0.000519758 0.00684667 0)
(-0.00279553 0.0125726 0)
(-0.00621976 0.0142889 0)
(-0.00957844 0.0144289 0)
(-0.0129212 0.0140171 0)
(-0.0161688 0.0133438 0)
(-0.0192909 0.0124444 0)
(-0.0222619 0.0112829 0)
(-0.0250447 0.00979576 0)
(-0.0275834 0.00789841 0)
(-0.0297915 0.00548867 0)
(-0.0315382 0.00245585 0)
(-0.032638 -0.00130274 0)
(-0.0328152 -0.00585678 0)
(-0.0317032 -0.0111662 0)
(-0.0288831 -0.0169668 0)
(-0.0239814 -0.0225559 0)
(-0.0170634 -0.0264034 0)
(-0.00823737 -0.0256277 0)
(-0.00162911 -0.0147111 0)
(-0.000530559 0.00848645 0)
(-0.00290893 0.0155772 0)
(-0.00650853 0.0176946 0)
(-0.0100416 0.0178772 0)
(-0.0135736 0.017403 0)
(-0.0170338 0.0166352 0)
(-0.0204084 0.0156227 0)
(-0.0236925 0.0143258 0)
(-0.0268724 0.0126677 0)
(-0.0299169 0.0105384 0)
(-0.0327599 0.00779376 0)
(-0.0352793 0.00425728 0)
(-0.0372771 -0.000264003 0)
(-0.0384185 -0.00592825 0)
(-0.0381929 -0.0128276 0)
(-0.0359328 -0.0207466 0)
(-0.0309052 -0.0288296 0)
(-0.0227994 -0.034939 0)
(-0.0114665 -0.0347264 0)
(-0.00236108 -0.0201814 0)
(-0.000543661 0.0101912 0)
(-0.00304139 0.0187352 0)
(-0.0068402 0.0212806 0)
(-0.0105637 0.0215153 0)
(-0.0142963 0.0209947 0)
(-0.0179768 0.0201641 0)
(-0.021613 0.0190914 0)
(-0.0252278 0.0177382 0)
(-0.0288423 0.0160184 0)
(-0.0324665 0.0137987 0)
(-0.0360807 0.0108886 0)
(-0.0396038 0.00703124 0)
(-0.0428389 0.00190939 0)
(-0.0454416 -0.00481351 0)
(-0.0467877 -0.0134641 0)
(-0.0458893 -0.0240207 0)
(-0.0414803 -0.0356165 0)
(-0.0324356 -0.0454609 0)
(-0.0176959 -0.0470428 0)
(-0.00396666 -0.0281666 0)
(-0.000559746 0.0119723 0)
(-0.00319593 0.0220687 0)
(-0.00721748 0.0250652 0)
(-0.0111403 0.0253531 0)
(-0.0150711 0.0247945 0)
(-0.0189596 0.0239284 0)
(-0.0228395 0.0228497 0)
(-0.0267688 0.0215303 0)
(-0.0308152 0.0198847 0)
(-0.0350501 0.0177654 0)
(-0.0395315 0.0149419 0)
(-0.0442666 0.0110728 0)
(-0.0491508 0.0056808 0)
(-0.0539169 -0.0018509 0)
(-0.0579094 -0.0121359 0)
(-0.0599079 -0.025684 0)
(-0.0580065 -0.0419941 0)
(-0.0494724 -0.0580111 0)
(-0.0306578 -0.0644419 0)
(-0.00774379 -0.041213 0)
(-0.000581874 0.0138442 0)
(-0.00338208 0.0256019 0)
(-0.00765171 0.0290622 0)
(-0.0117747 0.029389 0)
(-0.0158852 0.0287858 0)
(-0.0199448 0.0278995 0)
(-0.0240153 0.026862 0)
(-0.0281953 0.025668 0)
(-0.03261 0.0242497 0)
(-0.0374133 0.0224682 0)
(-0.0427806 0.0200794 0)
(-0.0488851 0.0166808 0)
(-0.0558365 0.0116428 0)
(-0.0635535 0.00405989 0)
(-0.0717321 -0.00717976 0)
(-0.0793766 -0.0233036 0)
(-0.0839111 -0.0452807 0)
(-0.0793595 -0.0713929 0)
(-0.0559981 -0.0900076 0)
(-0.0156589 -0.0647879 0)
(-0.000617586 0.0158313 0)
(-0.00362188 0.029367 0)
(-0.00817205 0.0332835 0)
(-0.0124886 0.0336092 0)
(-0.0167429 0.0329306 0)
(-0.0209083 0.0320171 0)
(-0.0250754 0.0310486 0)
(-0.0293838 0.0300571 0)
(-0.0340181 0.0290159 0)
(-0.0392256 0.0278308 0)
(-0.0453316 0.0262986 0)
(-0.0527476 0.0240339 0)
(-0.0619532 0.0203582 0)
(-0.0734533 0.014179 0)
(-0.087731 0.00387942 0)
(-0.104937 -0.0129333 0)
(-0.121565 -0.0405112 0)
(-0.124284 -0.0834827 0)
(-0.0932179 -0.129122 0)
(-0.0271887 -0.108843 0)
(-0.000682677 0.0179787 0)
(-0.00395897 0.0334157 0)
(-0.00883659 0.0377487 0)
(-0.0133329 0.0379956 0)
(-0.0176765 0.0371727 0)
(-0.0218529 0.0361885 0)
(-0.0259799 0.0352809 0)
(-0.0302312 0.0345328 0)
(-0.0348403 0.0339853 0)
(-0.0401378 0.0336386 0)
(-0.0466006 0.0334157 0)
(-0.054923 0.0330915 0)
(-0.066105 0.0321786 0)
(-0.0815583 0.0297845 0)
(-0.103267 0.0241673 0)
(-0.132509 0.0104183 0)
(-0.162511 -0.024015 0)
(-0.167689 -0.0977428 0)
(-0.12479 -0.189789 0)
(-0.0387775 -0.181611 0)
(-0.00080702 0.0203519 0)
(-0.00446744 0.037773 0)
(-0.0097431 0.042395 0)
(-0.0144022 0.0424283 0)
(-0.018764 0.041368 0)
(-0.0228271 0.0402491 0)
(-0.0267359 0.0393542 0)
(-0.0306827 0.0388262 0)
(-0.0349161 0.0387971 0)
(-0.0398025 0.0394071 0)
(-0.0459094 0.0408019 0)
(-0.0541399 0.0431104 0)
(-0.0659143 0.0463911 0)
(-0.0834195 0.050356 0)
(-0.109853 0.0528828 0)
(-0.146083 0.043457 0)
(-0.179473 -0.00382924 0)
(-0.1762 -0.122931 0)
(-0.133941 -0.265801 0)
(-0.048726 -0.278697 0)
(-0.00107153 0.0232052 0)
(-0.00534552 0.0428962 0)
(-0.0110919 0.0477454 0)
(-0.015827 0.047413 0)
(-0.0200817 0.0458685 0)
(-0.0238934 0.0443552 0)
(-0.0274069 0.0432429 0)
(-0.0307916 0.0427465 0)
(-0.0342653 0.0430936 0)
(-0.0381478 0.0445927 0)
(-0.0429499 0.04769 0)
(-0.0495221 0.0530131 0)
(-0.0592547 0.0613683 0)
(-0.0740202 0.0727713 0)
(-0.0965017 0.0832075 0)
(-0.125233 0.0742763 0)
(-0.150885 0.0107821 0)
(-0.141509 -0.144937 0)
(-0.123581 -0.324318 0)
(-0.0478675 -0.381026 0)
(-0.00144752 0.0267065 0)
(-0.00637078 0.0475659 0)
(-0.0128555 0.0518435 0)
(-0.0178178 0.0506222 0)
(-0.0220341 0.0486135 0)
(-0.0254677 0.0469316 0)
(-0.0283416 0.0458128 0)
(-0.0308283 0.0454125 0)
(-0.0330654 0.0459919 0)
(-0.0352051 0.0479864 0)
(-0.0374969 0.0521076 0)
(-0.0403385 0.0593998 0)
(-0.0445328 0.0711727 0)
(-0.0506014 0.0869827 0)
(-0.0600627 0.101294 0)
(-0.0699889 0.0901468 0)
(-0.0837922 0.0189727 0)
(-0.0753693 -0.14874 0)
(-0.0925866 -0.352988 0)
(-0.0296198 -0.465138 0)
(-0.00351343 0.0299153 0)
(-0.0107196 0.0561111 0)
(-0.0166332 0.0603084 0)
(-0.0208253 0.0585999 0)
(-0.0240813 0.055224 0)
(-0.026765 0.052182 0)
(-0.028938 0.0498677 0)
(-0.0305768 0.048494 0)
(-0.0315964 0.0483139 0)
(-0.031859 0.0497444 0)
(-0.031186 0.0535535 0)
(-0.0292467 0.060842 0)
(-0.026188 0.0731648 0)
(-0.0204053 0.08926 0)
(-0.0143209 0.104438 0)
(-0.00161083 0.0933913 0)
(-0.00307548 0.0244978 0)
(0.00235641 -0.131803 0)
(-0.0480038 -0.351711 0)
(-0.00753521 -0.510455 0)
(-0.00117048 0.0438939 0)
(-0.00868716 0.0585705 0)
(-0.0195915 0.0591853 0)
(-0.0241988 0.0547012 0)
(-0.0282247 0.051464 0)
(-0.0304694 0.049127 0)
(-0.0316626 0.0474811 0)
(-0.031854 0.0464139 0)
(-0.0309808 0.0461023 0)
(-0.0287516 0.046852 0)
(-0.0247106 0.0493832 0)
(-0.0177278 0.054379 0)
(-0.00777648 0.0632795 0)
(0.00902097 0.0750517 0)
(0.0283338 0.0858875 0)
(0.0582319 0.0773349 0)
(0.0643036 0.0201522 0)
(0.0691198 -0.102243 0)
(-0.00374781 -0.324449 0)
(0.018304 -0.521345 0)
(-0.0124047 0.0328721 0)
(-0.0243452 0.0798879 0)
(-0.023977 0.0787552 0)
(-0.0303402 0.0735845 0)
(-0.0324388 0.0663048 0)
(-0.032801 0.0601259 0)
(-0.0313209 0.0550128 0)
(-0.028326 0.0509183 0)
(-0.0239214 0.0478337 0)
(-0.0178385 0.0456121 0)
(-0.0101197 0.0446634 0)
(0.000733688 0.0451642 0)
(0.0143181 0.048373 0)
(0.0350214 0.0534285 0)
(0.0563537 0.0594166 0)
(0.0919881 0.0539585 0)
(0.0993428 0.0188181 0)
(0.125327 -0.0664857 0)
(0.0554361 -0.288546 0)
(0.0601374 -0.505218 0)
(-0.0772198 0.0967575 0)
(-0.0629534 0.0594553 0)
(-0.0653631 0.0599312 0)
(-0.0440449 0.0532589 0)
(-0.0270032 0.0463619 0)
(-0.0072902 0.0412007 0)
(0.0112944 0.0374686 0)
(0.0300022 0.0342588 0)
(0.0471813 0.0318608 0)
(0.0654573 0.0295858 0)
(0.0811933 0.0282071 0)
(0.1009 0.027113 0)
(0.115292 0.0270098 0)
(0.142893 0.0276131 0)
(0.154315 0.0248343 0)
(0.202005 0.0188516 0)
(0.196865 -0.0151542 0)
(0.23886 -0.0798142 0)
(0.165844 -0.263024 0)
(0.127515 -0.442118 0)
(0.11976 0.140729 0)
(0.152441 0.0861614 0)
(0.229388 0.0635784 0)
(0.284741 0.0481452 0)
(0.326017 0.0374659 0)
(0.364393 0.029674 0)
(0.392876 0.0242554 0)
(0.424371 0.0202461 0)
(0.444059 0.0173338 0)
(0.472744 0.0151778 0)
(0.485534 0.0134037 0)
(0.515015 0.0123892 0)
(0.520501 0.0112671 0)
(0.554532 0.0108549 0)
(0.549674 0.00942292 0)
(0.586691 0.00560593 0)
(0.557983 -0.00380965 0)
(0.567408 -0.0273156 0)
(0.429996 -0.0726806 0)
(0.276383 -0.152056 0)
)
;

boundaryField
{
    movingWall
    {
        type            fixedValue;
        value           uniform (1 0 0);
    }
    fixedWalls
    {
        type            noSlip;
    }
    frontAndBack
    {
        type            empty;
    }
}


// ************************************************************************* //
