/*--------------------------------*- C++ -*----------------------------------*\
  =========                 |
  \\      /  F ield         | OpenFOAM: The Open Source CFD Toolbox
   \\    /   O peration     | Website:  https://openfoam.org
    \\  /    A nd           | Version:  10
     \\/     M anipulation  |
\*---------------------------------------------------------------------------*/
FoamFile
{
    format      ascii;
    class       volScalarField;
    location    "1.675";
    object      p;
}
// * * * * * * * * * * * * * * * * * * * * * * * * * * * * * * * * * * * * * //

dimensions      [0 2 -2 0 0 0 0];

internalField   nonuniform List<scalar> 
496
(
27.0423
27.2252
24.1818
17.9178
27.5313
28.4598
24.7402
18.2753
32.5225
30.7314
22.4428
12.393
41.262
38.1094
33.6551
17.8998
9.27371
-0.0692021
9.29814
0.199632
-2.74689
-8.51533
-35.2206
-58.0882
-7.43333
-12.3425
-15.1058
-16.7383
-7.35429
-13.3826
-17.4058
-19.8071
-2.54374
-3.05833
-7.88269
-15.818
-29.2703
-14.9565
-7.62398
-18.7894
-17.897
-18.6491
-18.9551
-18.9854
-18.2656
-17.2009
-16.0954
-14.8657
-13.3652
-11.8149
-10.8568
-10.1427
-9.19336
-7.7342
-6.48661
-5.80561
-5.4742
-5.50829
-5.56664
-5.63468
-5.22489
-4.60352
-4.12341
-3.9599
-4.07601
-3.9821
-3.83463
-3.61402
-3.62236
-3.7518
-3.75008
-3.62577
-3.27296
-2.89921
-2.3683
-1.81609
-1.23319
-0.711201
-0.363158
-0.0818357
-21.2779
-21.9439
-21.4409
-19.9937
-18.5492
-17.6196
-16.533
-15.0026
-13.3514
-11.9194
-10.9714
-10.0822
-9.0252
-7.56038
-6.21882
-5.32219
-5.08181
-5.2422
-5.40037
-5.51733
-5.15503
-4.64955
-4.19216
-3.93501
-3.98625
-3.89242
-3.82242
-3.6559
-3.74307
-3.84928
-3.83179
-3.72783
-3.3657
-3.01022
-2.49973
-1.91831
-1.18874
-0.569519
-0.233485
0.0804749
-21.0167
-22.8271
-21.5741
-19.5738
-18.7014
-18.3089
-17.3275
-15.6985
-13.8857
-12.5254
-11.0876
-9.64673
-8.23021
-7.05663
-6.24425
-5.60111
-5.33375
-5.35355
-5.54102
-5.49696
-5.15683
-4.82572
-4.27073
-4.10675
-3.83067
-3.79387
-3.84851
-4.03246
-4.26664
-4.45049
-4.62341
-4.27925
-3.67151
-2.90134
-2.12835
-1.34863
-0.702593
-0.217288
0.0418056
-0.0183561
-24.1627
-22.7278
-19.5141
-20.094
-20.2226
-18.2295
-17.7322
-16.3811
-14.6716
-13.4614
-11.255
-9.22617
-7.02389
-5.40011
-4.37228
-3.91493
-4.43033
-4.61754
-5.13552
-5.08224
-5.14074
-4.85388
-4.23892
-4.00051
-3.44787
-3.49129
-3.53474
-4.00114
-4.65466
-5.01917
-5.37805
-5.04028
-4.58903
-3.7172
-2.67945
-1.20655
0.137368
0.878814
1.56853
0.794902
45.9647
46.8936
60.9829
72.9452
45.7391
48.0221
61.4777
74.1543
-27.9789
-28.8556
-24.5315
-27.7418
-25.987
-32.7742
-20.219
-18.6806
-23.7264
-20.3685
-22.7888
-25.672
-20.9336
-20.0994
-18.7554
-13.8635
-15.8292
-13.3988
-10.2387
-8.8308
-7.40348
-6.0962
-5.279
-5.1681
-5.26415
-5.25083
-5.42613
-5.5598
-5.61371
-5.38623
-5.13298
-4.81723
-4.42394
-4.16879
-4.00694
-3.88219
-3.81143
-3.98847
-4.08845
-4.02104
-3.83222
-3.24339
-2.24319
-1.37974
-0.774465
0.0179432
0.304164
0.00871184
-28.3682
-23.1394
-23.2605
-23.5717
-24.3458
-20.439
-16.4125
-13.7597
-12.4937
-10.6557
-8.75743
-7.96598
-7.19182
-6.46599
-5.94693
-5.88592
-5.93769
-5.99728
-6.0732
-6.14563
-6.48219
-6.86067
-6.82923
-6.6709
-6.25752
-5.64689
-5.09135
-4.20686
-3.00204
-1.90429
-1.1955
-1.01268
-1.41935
-1.81245
-1.81245
-1.83121
-1.75611
-1.36609
-0.910231
-0.306765
41.9268
39.2978
35.5183
20.5495
34.812
32.3236
24.4441
13.8282
29.719
29.3546
24.8049
18.2403
28.47
27.9962
24.4028
18.2157
-29.9409
-54.8631
-1.51179
-6.99927
9.30409
0.542115
9.83775
0.708072
-25.1837
-9.83189
-13.032
-17.0973
-2.03802
-4.17224
-10.9183
-16.2973
-7.52083
-13.318
-16.9292
-19.1457
-6.57109
-11.7859
-14.9267
-16.7984
-20.3172
-22.8802
-23.4447
-22.1556
-18.507
-17.8057
-16.0793
-13.4606
-11.6321
-9.65707
-8.05372
-6.80496
-6.64206
-6.53288
-6.56005
-6.6174
-6.55757
-6.69476
-6.59336
-6.96919
-7.03187
-7.36035
-7.34986
-7.07934
-6.90894
-6.27686
-5.64302
-3.74755
-1.227
0.882314
1.91257
1.40713
0.302263
-1.07262
-1.76557
-2.54696
-2.78847
-2.29726
-1.8349
-0.608522
-20.03
-22.5002
-22.8108
-21.0471
-18.7409
-17.1307
-15.473
-13.7673
-12.339
-10.8887
-9.51761
-8.27931
-7.58727
-7.35727
-7.3404
-7.28326
-6.92965
-6.66408
-6.55192
-6.9035
-7.09338
-6.90265
-6.54076
-5.98624
-5.72845
-5.12188
-4.38392
-3.1487
-2.10187
-1.17073
-0.611619
-0.839466
-1.15987
-1.71408
-2.09119
-2.27026
-2.20032
-1.71833
-1.07096
-0.298204
-20.4981
-21.4621
-21.454
-20.3589
-18.6687
-16.609
-14.6376
-13.1277
-12.1184
-11.1141
-9.81393
-8.44914
-7.50071
-7.31807
-7.35367
-7.18986
-6.60339
-6.16652
-6.33729
-6.79147
-7.00825
-6.55329
-5.98051
-5.65243
-5.57802
-5.32713
-4.58741
-3.53579
-2.35989
-1.41882
-0.859544
-0.673731
-0.763679
-0.97514
-1.22918
-1.42161
-1.42256
-1.20868
-0.849067
-0.361077
-18.0642
-18.8885
-19.4071
-19.3047
-18.2698
-16.2524
-14.3179
-13.0504
-12.3066
-11.523
-10.2288
-8.87794
-7.79875
-7.54401
-7.57846
-7.27641
-6.58825
-6.12789
-6.55642
-7.12919
-7.24241
-6.58734
-5.86387
-5.52899
-5.3862
-5.14164
-4.3269
-3.37493
-2.37084
-1.62523
-1.16468
-0.905496
-0.916918
-0.977075
-1.18737
-1.23022
-1.18163
-1.0578
-0.725839
-0.286143
)
;

boundaryField
{
    inlet
    {
        type            zeroGradient;
    }
    outlet
    {
        type            fixedValue;
        value           uniform 0;
    }
    obstacle
    {
        type            zeroGradient;
    }
    upperWall
    {
        type            zeroGradient;
    }
    lowerWall
    {
        type            zeroGradient;
    }
    frontAndBack
    {
        type            empty;
    }
}


// ************************************************************************* //
