/*--------------------------------*- C++ -*----------------------------------*\
  =========                 |
  \\      /  F ield         | OpenFOAM: The Open Source CFD Toolbox
   \\    /   O peration     | Website:  https://openfoam.org
    \\  /    A nd           | Version:  10
     \\/     M anipulation  |
\*---------------------------------------------------------------------------*/
FoamFile
{
    format      ascii;
    class       volScalarField;
    location    "0.325";
    object      p;
}
// * * * * * * * * * * * * * * * * * * * * * * * * * * * * * * * * * * * * * //

dimensions      [0 2 -2 0 0 0 0];

internalField   nonuniform List<scalar> 
8000
(
-1.62771e-08
8.62983e-05
0.000270667
0.000547536
0.000909658
0.00134773
0.0018506
0.00240562
0.00299896
0.00361594
0.00424133
0.00485969
0.00545565
0.00601428
0.0065214
0.00696395
0.00733033
0.00761082
0.0077978
0.00788544
-8.50683e-05
3.15721e-06
0.000191657
0.000474657
0.000844715
0.00129228
0.00180595
0.00237278
0.00297868
0.00360867
0.00424727
0.00487874
0.00548745
0.00605818
0.00657643
0.00702884
0.00740352
0.00769044
0.00788176
0.00797142
-0.000273284
-0.000180783
1.6879e-05
0.000313519
0.000701215
0.00116986
0.00170743
0.00230037
0.00293398
0.00359268
0.00426039
0.00492079
0.00555765
0.00615509
0.00669797
0.00717223
0.00756529
0.00786649
0.00806745
0.00816163
-0.000567849
-0.00046855
-0.00025644
6.16694e-05
0.000477072
0.000978747
0.00155371
0.00218743
0.00286425
0.00356768
0.00428074
0.00498624
0.00566699
0.00630618
0.00688762
0.00739616
0.00781815
0.00814188
0.00835805
0.00845942
-0.000976612
-0.000867736
-0.000635337
-0.000287166
0.000166908
0.00071454
0.00134136
0.00203147
0.00276792
0.003533
0.00430856
0.00507623
0.00581763
0.00651462
0.00714963
0.00770598
0.00816845
0.00852382
0.00876144
0.008873
-0.0015106
-0.00138896
-0.0011296
-0.000741651
-0.000236634
0.000371245
0.00106573
0.00182915
0.00264289
0.00348774
0.00434414
0.0051923
0.00601238
0.00678466
0.00748973
0.00810896
0.00862497
0.00902241
0.00928867
0.00941387
-0.00218445
-0.00204625
-0.00175207
-0.001313
-0.000742957
-5.86846e-05
0.000721071
0.00157636
0.00248658
0.00343076
0.00438774
0.0053362
0.00625464
0.00712147
0.00791511
0.00861438
0.00919907
0.00965087
0.00995439
0.0100974
-0.00301713
-0.00285767
-0.00251903
-0.00201524
-0.00136359
-0.000584321
0.000300573
0.00126833
0.00229599
0.00336069
0.0044396
0.00550984
0.0065482
0.00753105
0.00843427
0.00923353
0.00990491
0.010426
0.0107775
0.0109436
-0.0040329
-0.00384613
-0.0034508
-0.00286544
-0.0021122
-0.00121611
-0.000203379
0.000899796
0.00206785
0.00327596
0.00449978
0.00571503
0.00689696
0.00801988
0.00905683
0.00997968
0.0107597
0.0113689
0.0117822
0.0119783
-0.00526284
-0.00504057
-0.00457242
-0.00388397
-0.00300445
-0.00196551
-0.000798795
0.000465445
0.00179887
0.00317488
0.00456804
0.00595318
0.00730446
0.00859436
0.00979299
0.0108678
0.0117838
0.0125055
0.012999
0.0132348
-0.00674711
-0.0064777
-0.0059145
-0.00509458
-0.00405762
-0.00284435
-0.00149334
-3.94875e-05
0.00148616
0.00305579
0.00464369
0.0062248
0.0077731
0.00925994
0.0106527
0.0119139
0.0130008
0.0138674
0.0144672
0.0147564
-0.00853874
-0.00820441
-0.00751427
-0.00652434
-0.00528974
-0.00386361
-0.00229308
-0.000618153
0.00112793
0.00291729
0.00472539
0.00652885
0.00830302
0.0100196
0.0116441
0.0131338
0.0144369
0.0154929
0.0162367
0.0166013
-0.0107105
-0.0102808
-0.00941655
-0.0082028
-0.00671779
-0.00503121
-0.00320058
-0.00127074
0.000724322
0.00275858
0.00481089
0.00686189
0.00889073
0.0108717
0.0127706
0.0145407
0.0161193
0.0174274
0.0183719
0.0188504
-0.0133668
-0.0127844
-0.0116745
-0.0101599
-0.00835422
-0.00634886
-0.00421232
-0.00199242
0.000278742
0.00258001
0.00489679
0.00721697
0.00952699
0.0118074
0.0140277
0.0161404
0.0180731
0.0197232
0.020955
0.0216211
-0.0166655
-0.0158147
-0.0143489
-0.0124209
-0.0102015
-0.00780708
-0.00531454
-0.00277045
-0.000200375
0.00238384
0.00497831
0.00758238
0.0101942
0.0128058
0.0153966
0.0179244
0.0203127
0.0224361
0.0240895
0.0250941
-0.0208809
-0.0194979
-0.0175035
-0.0149961
-0.0122425
-0.00937722
-0.00647769
-0.00358061
-0.000697462
0.0021752
0.00504928
0.00794038
0.0108637
0.0138293
0.0168356
0.0198576
0.0228285
0.025614
0.0278956
0.0295685
-0.0262422
-0.0239477
-0.0211838
-0.0178626
-0.0144241
-0.0110002
-0.00764945
-0.00438325
-0.00118798
0.00196297
0.00510248
0.00826679
0.0114931
0.0148173
0.018269
0.0218593
0.02556
0.0292703
0.0324775
0.0354478
-0.0350702
-0.0295809
-0.0254881
-0.0209542
-0.016638
-0.0125719
-0.00874735
-0.00512074
-0.00163712
0.00176086
0.00513053
0.00853208
0.0120273
0.0156842
0.0195777
0.0237857
0.028379
0.0334617
0.0381936
0.0446612
-0.0423206
-0.0349517
-0.0297283
-0.0238653
-0.0186267
-0.0139258
-0.00966268
-0.00572366
-0.00200526
0.00158371
0.00512647
0.00870237
0.0123981
0.0163113
0.0205603
0.0252892
0.0306494
0.0370104
0.042346
0.0528024
-0.0737021
-0.0426654
-0.0348696
-0.0264813
-0.0200247
-0.0147549
-0.0101779
-0.006048
-0.00220064
0.00148663
0.00511513
0.00877994
0.0125847
0.0166625
0.0212095
0.0265577
0.033224
0.0428552
0.0524694
0.0867998
-3.74965e-08
8.5901e-05
0.000270199
0.00054707
0.000909229
0.00134735
0.0018503
0.0024054
0.00299883
0.00361591
0.00424139
0.00485984
0.00545589
0.00601461
0.00652181
0.00696442
0.00733085
0.00761135
0.00779825
0.00788552
-8.4681e-05
3.14691e-06
0.000191556
0.000474528
0.000844585
0.00129217
0.00180585
0.00237271
0.00297864
0.00360867
0.00424729
0.0048788
0.00548755
0.00605831
0.00657659
0.00702903
0.00740371
0.0076906
0.00788184
0.0079711
-0.000272772
-0.000180692
1.68686e-05
0.000313471
0.000701158
0.0011698
0.00170738
0.00230034
0.00293396
0.00359268
0.00426041
0.00492084
0.00555771
0.00615517
0.00669807
0.00717235
0.0075654
0.00786658
0.00806743
0.00816119
-0.000567248
-0.000468401
-0.000256398
6.16666e-05
0.000477053
0.000978728
0.00155369
0.00218743
0.00286425
0.00356769
0.00428077
0.00498627
0.00566704
0.00630625
0.0068877
0.00739625
0.00781823
0.00814193
0.00835799
0.00845892
-0.000975925
-0.000867543
-0.000635262
-0.00028714
0.000166919
0.000714547
0.00134136
0.00203148
0.00276793
0.00353302
0.00430859
0.00507627
0.00581768
0.00651469
0.0071497
0.00770606
0.00816853
0.00852387
0.00876137
0.00887243
-0.00150981
-0.00138872
-0.0011295
-0.000741593
-0.000236594
0.000371279
0.00106576
0.00182918
0.00264292
0.00348778
0.00434417
0.00519234
0.00601243
0.00678472
0.00748981
0.00810905
0.00862506
0.00902245
0.00928859
0.00941323
-0.00218354
-0.00204596
-0.00175192
-0.00131291
-0.000742884
-5.86191e-05
0.000721133
0.00157642
0.00248664
0.00343081
0.00438779
0.00533624
0.00625469
0.00712153
0.00791519
0.00861447
0.00919916
0.00965092
0.00995431
0.0100967
-0.00301607
-0.00285731
-0.00251883
-0.0020151
-0.00136347
-0.000584211
0.000300675
0.00126842
0.00229607
0.00336076
0.00443966
0.00550989
0.00654825
0.00753111
0.00843435
0.00923363
0.00990502
0.0104261
0.0107774
0.0109429
-0.00403164
-0.00384568
-0.00345053
-0.00286524
-0.00211201
-0.00121593
-0.000203221
0.000899935
0.00206797
0.00327605
0.00449984
0.00571508
0.00689701
0.00801993
0.0090569
0.00997978
0.0107598
0.011369
0.0117821
0.0119775
-0.00526131
-0.00503998
-0.00457203
-0.00388365
-0.00300416
-0.00196524
-0.000798558
0.000465645
0.00179903
0.003175
0.00456811
0.00595323
0.00730448
0.00859438
0.00979304
0.0108679
0.011784
0.0125056
0.012999
0.0132338
-0.00674521
-0.0064769
-0.00591393
-0.0050941
-0.00405718
-0.00284396
-0.001493
-3.92089e-05
0.00148637
0.00305593
0.00464377
0.00622483
0.00777308
0.00925991
0.0106527
0.0119139
0.013001
0.0138675
0.0144672
0.0147553
-0.00853631
-0.00820327
-0.0075134
-0.0065236
-0.00528908
-0.00386304
-0.00229261
-0.000617784
0.0011282
0.00291746
0.00472547
0.00652884
0.00830295
0.0100195
0.011644
0.0131338
0.014437
0.0154931
0.0162368
0.0166002
-0.0107072
-0.0102791
-0.00941519
-0.00820166
-0.00671681
-0.00503041
-0.00319996
-0.00127028
0.000724634
0.00275876
0.00481095
0.00686183
0.00889058
0.0108715
0.0127704
0.0145405
0.0161193
0.0174275
0.0183721
0.0188493
-0.0133621
-0.0127815
-0.0116723
-0.0101582
-0.00835284
-0.00634781
-0.00421156
-0.0019919
0.000279069
0.00258017
0.00489679
0.00721683
0.00952671
0.011807
0.0140273
0.0161399
0.0180728
0.0197232
0.0209552
0.0216203
-0.0166581
-0.0158095
-0.0143456
-0.0124184
-0.0101997
-0.00780584
-0.00531371
-0.00276995
-0.000200113
0.00238391
0.00497819
0.00758209
0.0101937
0.0128051
0.0153957
0.0179234
0.0203119
0.0224358
0.0240891
0.0250944
-0.0208704
-0.0194885
-0.0174986
-0.0149928
-0.0122405
-0.00937604
-0.00647705
-0.00358033
-0.000697431
0.00217503
0.00504893
0.00793983
0.0108629
0.0138282
0.016834
0.0198557
0.0228265
0.0256129
0.0278931
0.0295717
-0.0262056
-0.0239265
-0.0211778
-0.0178593
-0.0144228
-0.0109998
-0.00764957
-0.00438362
-0.0011885
0.00196234
0.0051017
0.00826577
0.0114917
0.0148153
0.0182661
0.0218553
0.025555
0.0292671
0.0324659
0.0354485
-0.0350791
-0.0295627
-0.0254956
-0.0209568
-0.0166407
-0.0125743
-0.00874946
-0.00512255
-0.00163873
0.00175932
0.00512886
0.00853008
0.0120247
0.0156804
0.0195721
0.0237778
0.0283704
0.0334666
0.0381847
0.0447142
-0.042192
-0.0349155
-0.0297444
-0.0238788
-0.0186393
-0.0139354
-0.00966973
-0.00572891
-0.00200944
0.00158002
0.00512277
0.00869806
0.0123924
0.0163028
0.0205466
0.0252659
0.0306062
0.0369676
0.0422069
0.0527543
-0.0736903
-0.0425376
-0.0349067
-0.0265039
-0.0200413
-0.0147679
-0.0101871
-0.00605464
-0.00220595
0.00148178
0.00511
0.00877379
0.0125765
0.0166509
0.0211925
0.0265347
0.0331845
0.0428719
0.0524128
0.0870404
-1.45065e-09
8.58728e-05
0.000270135
0.000546987
0.000909141
0.00134727
0.00185023
0.00240535
0.00299881
0.00361591
0.00424142
0.00485989
0.00545597
0.00601471
0.00652193
0.00696456
0.00733099
0.00761147
0.00779834
0.00788555
-8.45743e-05
3.18701e-06
0.000191557
0.000474504
0.00084455
0.00129213
0.00180582
0.00237269
0.00297863
0.00360867
0.00424732
0.00487884
0.0054876
0.00605838
0.00657667
0.00702911
0.00740378
0.00769066
0.00788186
0.00797106
-0.000272611
-0.000180604
1.69156e-05
0.00031349
0.000701159
0.0011698
0.00170738
0.00230034
0.00293397
0.00359269
0.00426043
0.00492087
0.00555775
0.00615522
0.00669813
0.0071724
0.00756545
0.0078666
0.00806742
0.00816111
-0.000567034
-0.000468268
-0.000256316
6.17169e-05
0.000477086
0.00097875
0.00155371
0.00218744
0.00286426
0.00356771
0.00428079
0.0049863
0.00566708
0.00630628
0.00688774
0.00739629
0.00781826
0.00814192
0.00835795
0.00845879
-0.000975657
-0.000867366
-0.000635142
-0.000287056
0.000166978
0.000714591
0.0013414
0.00203151
0.00276796
0.00353305
0.00430862
0.00507629
0.0058177
0.00651471
0.00714973
0.00770608
0.00816854
0.00852384
0.0087613
0.00887227
-0.00150948
-0.00138849
-0.00112933
-0.000741475
-0.000236505
0.000371349
0.00106582
0.00182923
0.00264296
0.00348781
0.0043442
0.00519236
0.00601245
0.00678474
0.00748982
0.00810905
0.00862505
0.00902241
0.0092885
0.00941304
-0.00218313
-0.00204567
-0.00175171
-0.00131275
-0.000742757
-5.85173e-05
0.000721215
0.00157649
0.00248669
0.00343085
0.00438782
0.00533626
0.00625471
0.00712154
0.00791519
0.00861447
0.00919914
0.00965086
0.0099542
0.0100965
-0.00301556
-0.00285694
-0.00251855
-0.00201488
-0.0013633
-0.000584069
0.00030079
0.00126851
0.00229614
0.00336081
0.00443969
0.0055099
0.00654826
0.00753111
0.00843434
0.00923361
0.00990498
0.010426
0.0107773
0.0109426
-0.00403099
-0.00384519
-0.00345015
-0.00286494
-0.00211177
-0.00121574
-0.000203064
0.000900055
0.00206805
0.0032761
0.00449987
0.00571509
0.006897
0.00801991
0.00905687
0.00997973
0.0107598
0.0113689
0.011782
0.0119772
-0.00526047
-0.00503934
-0.00457152
-0.00388324
-0.00300383
-0.00196498
-0.00079835
0.000465799
0.00179913
0.00317506
0.00456813
0.00595322
0.00730445
0.00859433
0.00979298
0.0108678
0.0117839
0.0125055
0.0129988
0.0132335
-0.0067441
-0.00647602
-0.00591323
-0.00509353
-0.00405673
-0.0028436
-0.00149273
-3.90192e-05
0.00148649
0.00305599
0.00464377
0.00622479
0.00777301
0.00925981
0.0106526
0.0119138
0.0130008
0.0138674
0.014467
0.014755
-0.00853479
-0.00820205
-0.00751242
-0.00652282
-0.00528847
-0.00386258
-0.00229228
-0.000617564
0.00112832
0.00291749
0.00472543
0.00652875
0.00830281
0.0100193
0.0116438
0.0131335
0.0144368
0.0154928
0.0162366
0.0165998
-0.0107051
-0.0102773
-0.00941381
-0.00820059
-0.00671602
-0.00502983
-0.00319957
-0.00127005
0.000724738
0.00275875
0.00481085
0.00686165
0.00889033
0.0108712
0.01277
0.0145401
0.016119
0.0174272
0.0183718
0.0188488
-0.013359
-0.012779
-0.0116704
-0.0101568
-0.00835184
-0.00634715
-0.00421115
-0.0019917
0.00027911
0.00258008
0.00489659
0.00721652
0.00952629
0.0118065
0.0140267
0.0161393
0.0180722
0.0197227
0.0209547
0.0216198
-0.0166535
-0.0158057
-0.0143429
-0.0124165
-0.0101985
-0.00780516
-0.00531337
-0.00276985
-0.000200204
0.00238367
0.00497782
0.00758158
0.0101931
0.0128043
0.0153948
0.0179223
0.0203108
0.0224349
0.0240883
0.025094
-0.0208637
-0.019483
-0.0174952
-0.0149907
-0.0122394
-0.00937552
-0.00647693
-0.00358047
-0.000697753
0.00217456
0.0050483
0.007939
0.0108618
0.0138268
0.0168324
0.0198539
0.0228246
0.0256115
0.0278916
0.0295719
-0.0261931
-0.0239179
-0.0211736
-0.0178571
-0.014422
-0.0109998
-0.00764995
-0.0043842
-0.00118921
0.00196149
0.00510067
0.00826447
0.01149
0.0148132
0.0182634
0.0218522
0.0255517
0.0292645
0.0324625
0.0354483
-0.0350699
-0.0295535
-0.0254929
-0.0209558
-0.016641
-0.0125753
-0.00875068
-0.00512384
-0.00164005
0.00175791
0.00512725
0.00852812
0.0120221
0.0156772
0.0195679
0.0237727
0.0283653
0.0334647
0.038182
0.0447228
-0.042165
-0.034901
-0.029741
-0.0238781
-0.0186411
-0.0139379
-0.0096722
-0.00573118
-0.00201158
0.00157786
0.0051204
0.0086952
0.0123887
0.0162979
0.0205399
0.0252571
0.0305944
0.0369575
0.0421868
0.052752
-0.0736683
-0.0425126
-0.0349046
-0.0265046
-0.020044
-0.0147712
-0.0101903
-0.00605744
-0.00220854
0.00147918
0.00510713
0.00877035
0.0125721
0.0166451
0.0211848
0.0265254
0.0331739
0.0428703
0.0524072
0.0870735
3.54743e-08
8.5864e-05
0.000270096
0.000546932
0.000909082
0.00134722
0.00185018
0.00240532
0.00299879
0.00361591
0.00424144
0.00485994
0.00545603
0.00601479
0.00652203
0.00696466
0.0073311
0.00761157
0.00779841
0.00788557
-8.4482e-05
3.23134e-06
0.000191568
0.000474495
0.000844531
0.00129211
0.0018058
0.00237268
0.00297863
0.00360868
0.00424734
0.00487888
0.00548765
0.00605844
0.00657674
0.00702918
0.00740385
0.00769071
0.00788188
0.00797103
-0.000272471
-0.000180515
1.69673e-05
0.000313516
0.000701172
0.0011698
0.00170738
0.00230035
0.00293398
0.00359271
0.00426045
0.0049209
0.00555779
0.00615527
0.00669818
0.00717245
0.00756549
0.00786662
0.0080674
0.00816104
-0.000566847
-0.000468135
-0.000256223
6.17799e-05
0.000477129
0.00097878
0.00155373
0.00218746
0.00286428
0.00356773
0.00428081
0.00498632
0.0056671
0.00630631
0.00688777
0.00739631
0.00781827
0.00814192
0.0083579
0.00845869
-0.000975418
-0.000867187
-0.000635009
-0.000286958
0.000167052
0.000714648
0.00134144
0.00203155
0.00276799
0.00353307
0.00430864
0.00507632
0.00581773
0.00651473
0.00714974
0.00770609
0.00816853
0.00852381
0.00876123
0.00887214
-0.00150918
-0.00138826
-0.00112915
-0.000741336
-0.000236396
0.000371435
0.00106589
0.00182928
0.002643
0.00348784
0.00434422
0.00519238
0.00601247
0.00678475
0.00748983
0.00810905
0.00862503
0.00902237
0.00928841
0.00941289
-0.00218276
-0.00204537
-0.00175147
-0.00131256
-0.000742606
-5.83965e-05
0.00072131
0.00157656
0.00248674
0.00343089
0.00438784
0.00533628
0.00625471
0.00712154
0.00791519
0.00861445
0.0091991
0.0096508
0.00995408
0.0100963
-0.00301508
-0.00285655
-0.00251823
-0.00201463
-0.00136309
-0.000583904
0.000300918
0.00126861
0.00229621
0.00336085
0.00443971
0.00550991
0.00654825
0.00753109
0.00843431
0.00923357
0.00990493
0.0104259
0.0107772
0.0109424
-0.00403038
-0.00384469
-0.00344973
-0.00286459
-0.00211149
-0.00121552
-0.000202895
0.000900179
0.00206814
0.00327615
0.00449989
0.00571508
0.00689697
0.00801986
0.00905681
0.00997967
0.0107597
0.0113688
0.0117818
0.0119769
-0.00525968
-0.00503867
-0.00457096
-0.00388278
-0.00300346
-0.00196469
-0.000798132
0.000465953
0.00179923
0.0031751
0.00456814
0.00595318
0.00730439
0.00859424
0.00979287
0.0108677
0.0117838
0.0125054
0.0129986
0.0132332
-0.00674305
-0.00647512
-0.00591247
-0.00509292
-0.00405624
-0.00284323
-0.00149246
-3.88347e-05
0.00148659
0.00305603
0.00464375
0.00622471
0.00777289
0.00925966
0.0106524
0.0119136
0.0130006
0.0138672
0.0144667
0.0147546
-0.00853336
-0.00820081
-0.0075114
-0.006522
-0.00528783
-0.0038621
-0.00229194
-0.000617356
0.00112842
0.0029175
0.00472536
0.00652861
0.0083026
0.010019
0.0116435
0.0131333
0.0144365
0.0154925
0.0162362
0.0165994
-0.0107031
-0.0102756
-0.00941241
-0.0081995
-0.0067152
-0.00502926
-0.00319919
-0.00126984
0.000724813
0.00275871
0.0048107
0.00686141
0.00889
0.0108708
0.0127696
0.0145397
0.0161185
0.0174268
0.0183713
0.0188483
-0.0133562
-0.0127765
-0.0116685
-0.0101553
-0.00835083
-0.00634648
-0.00421076
-0.00199152
0.00027912
0.00257994
0.00489631
0.00721612
0.00952577
0.0118058
0.014026
0.0161385
0.0180715
0.019722
0.0209541
0.0216193
-0.0166495
-0.0158023
-0.0143404
-0.0124147
-0.0101974
-0.00780447
-0.00531303
-0.00276977
-0.000200325
0.00238337
0.00497736
0.00758095
0.0101923
0.0128034
0.0153937
0.0179211
0.0203097
0.0224339
0.0240874
0.0250936
-0.0208581
-0.0194781
-0.0174919
-0.0149886
-0.0122382
-0.00937495
-0.00647678
-0.0035806
-0.000698105
0.00217402
0.00504757
0.00793806
0.0108606
0.0138254
0.0168307
0.019852
0.0228227
0.0256098
0.0278901
0.0295718
-0.0261836
-0.0239106
-0.0211696
-0.017855
-0.0144211
-0.0109996
-0.00765019
-0.00438471
-0.00118992
0.0019606
0.00509957
0.0082631
0.0114883
0.0148111
0.0182608
0.0218492
0.0255486
0.0292619
0.0324595
0.0354482
-0.0350637
-0.0295454
-0.0254899
-0.0209544
-0.0166409
-0.0125759
-0.00875158
-0.0051249
-0.00164124
0.00175657
0.00512568
0.0085262
0.0120198
0.0156742
0.0195642
0.0237683
0.0283608
0.0334621
0.0381788
0.0447292
-0.0421428
-0.0348862
-0.029737
-0.0238776
-0.0186422
-0.0139396
-0.009674
-0.00573296
-0.00201335
0.001576
0.00511831
0.00869267
0.0123855
0.0162938
0.0205345
0.0252501
0.0305854
0.0369491
0.0421698
0.0527484
-0.0736564
-0.0424924
-0.0349027
-0.0265055
-0.0200461
-0.0147737
-0.0101926
-0.00605963
-0.00221065
0.001477
0.00510468
0.00876742
0.0125684
0.0166403
0.0211789
0.0265184
0.0331664
0.0428691
0.0524005
0.0870992
8.46627e-08
8.58958e-05
0.000270112
0.000546933
0.000909074
0.00134721
0.00185017
0.00240532
0.0029988
0.00361592
0.00424146
0.00485997
0.00545608
0.00601484
0.00652209
0.00696472
0.00733115
0.00761161
0.00779844
0.00788558
-8.4408e-05
3.2862e-06
0.000191604
0.000474516
0.000844541
0.00129211
0.0018058
0.00237268
0.00297864
0.00360869
0.00424736
0.0048789
0.00548769
0.00605848
0.00657678
0.00702922
0.00740389
0.00769074
0.00788189
0.00797102
-0.000272365
-0.000180429
1.70306e-05
0.000313561
0.000701203
0.00116982
0.0017074
0.00230036
0.00293399
0.00359273
0.00426047
0.00492092
0.00555782
0.0061553
0.00669821
0.00717247
0.0075655
0.00786662
0.00806739
0.00816101
-0.000566703
-0.000468014
-0.000256127
6.18539e-05
0.000477185
0.000978823
0.00155377
0.00218749
0.00286431
0.00356775
0.00428083
0.00498634
0.00566712
0.00630633
0.00688778
0.00739632
0.00781827
0.0081419
0.00835786
0.00845864
-0.000975229
-0.000867024
-0.000634875
-0.000286851
0.000167137
0.000714715
0.0013415
0.00203159
0.00276802
0.0035331
0.00430866
0.00507633
0.00581774
0.00651474
0.00714975
0.00770609
0.00816852
0.00852378
0.00876117
0.00887206
-0.00150894
-0.00138805
-0.00112897
-0.000741189
-0.000236277
0.000371529
0.00106596
0.00182934
0.00264304
0.00348787
0.00434424
0.00519239
0.00601247
0.00678474
0.00748982
0.00810903
0.00862499
0.00902231
0.00928833
0.00941278
-0.00218245
-0.00204509
-0.00175123
-0.00131236
-0.000742446
-5.82686e-05
0.00072141
0.00157664
0.00248679
0.00343092
0.00438786
0.00533628
0.00625471
0.00712152
0.00791516
0.00861441
0.00919905
0.00965072
0.00995398
0.0100962
-0.00301468
-0.00285619
-0.00251792
-0.00201437
-0.00136288
-0.000583735
0.000301049
0.0012687
0.00229628
0.00336089
0.00443973
0.0055099
0.00654823
0.00753105
0.00843426
0.00923351
0.00990484
0.0104258
0.010777
0.0109422
-0.00402986
-0.00384421
-0.00344932
-0.00286425
-0.00211121
-0.0012153
-0.000202728
0.000900297
0.00206821
0.00327619
0.00449989
0.00571505
0.00689692
0.00801979
0.00905673
0.00997957
0.0107596
0.0113687
0.0117816
0.0119767
-0.00525899
-0.00503804
-0.00457042
-0.00388233
-0.00300309
-0.0019644
-0.000797924
0.000466095
0.00179931
0.00317513
0.00456812
0.00595313
0.0073043
0.00859413
0.00979274
0.0108675
0.0117836
0.0125052
0.0129984
0.0132329
-0.00674213
-0.00647428
-0.00591175
-0.00509232
-0.00405577
-0.00284287
-0.0014922
-3.86715e-05
0.00148668
0.00305604
0.0046437
0.00622461
0.00777274
0.00925948
0.0106522
0.0119134
0.0130004
0.0138669
0.0144665
0.0147543
-0.00853213
-0.00819968
-0.00751044
-0.00652122
-0.00528723
-0.00386166
-0.00229165
-0.000617179
0.00112849
0.00291748
0.00472526
0.00652844
0.00830237
0.0100188
0.0116432
0.0131329
0.0144361
0.0154922
0.0162359
0.016599
-0.0107014
-0.0102741
-0.00941114
-0.0081985
-0.00671445
-0.00502873
-0.00319886
-0.00126967
0.000724849
0.00275863
0.00481052
0.00686113
0.00888964
0.0108704
0.0127691
0.0145392
0.016118
0.0174263
0.0183709
0.0188479
-0.0133539
-0.0127745
-0.0116668
-0.0101541
-0.00834993
-0.00634589
-0.00421042
-0.00199138
0.000279085
0.00257976
0.00489601
0.00721569
0.00952523
0.0118052
0.0140253
0.0161378
0.0180707
0.0197213
0.0209535
0.0216188
-0.0166464
-0.0157995
-0.0143382
-0.0124132
-0.0101963
-0.00780385
-0.00531274
-0.00276973
-0.000200481
0.00238305
0.00497688
0.00758032
0.0101915
0.0128024
0.0153926
0.01792
0.0203086
0.0224329
0.0240865
0.0250929
-0.0208538
-0.0194743
-0.0174891
-0.0149868
-0.0122371
-0.0093744
-0.00647662
-0.00358073
-0.000698448
0.00217349
0.00504685
0.00793715
0.0108595
0.0138241
0.0168292
0.0198504
0.0228211
0.0256084
0.0278888
0.0295712
-0.0261774
-0.0239056
-0.0211664
-0.017853
-0.0144201
-0.0109993
-0.00765028
-0.00438509
-0.00119052
0.0019598
0.00509855
0.00826185
0.0114868
0.0148092
0.0182587
0.0218469
0.0255463
0.0292598
0.0324576
0.0354475
-0.0350577
-0.0295396
-0.0254867
-0.0209526
-0.0166402
-0.0125759
-0.00875204
-0.00512563
-0.00164217
0.00175545
0.00512432
0.00852455
0.0120177
0.0156717
0.0195613
0.023765
0.0283576
0.0334598
0.0381767
0.0447304
-0.0421318
-0.0348776
-0.029733
-0.0238758
-0.0186419
-0.0139401
-0.00967487
-0.00573406
-0.00201462
0.00157455
0.00511661
0.00869063
0.012383
0.0162907
0.0205308
0.0252457
0.0305805
0.0369449
0.0421641
0.0527473
-0.073647
-0.0424825
-0.0348989
-0.026504
-0.020046
-0.0147744
-0.0101937
-0.00606096
-0.00221212
0.00147536
0.00510278
0.00876514
0.0125656
0.0166369
0.0211748
0.0265139
0.033162
0.0428669
0.0523978
0.0871054
1.35539e-07
8.59371e-05
0.000270142
0.000546955
0.000909087
0.00134721
0.00185018
0.00240532
0.0029988
0.00361593
0.00424148
0.00485999
0.0054561
0.00601488
0.00652212
0.00696475
0.00733118
0.00761163
0.00779845
0.00788558
-8.43422e-05
3.34198e-06
0.000191648
0.000474548
0.000844564
0.00129213
0.00180582
0.0023727
0.00297865
0.00360871
0.00424738
0.00487892
0.00548771
0.0060585
0.00657681
0.00702925
0.0074039
0.00769075
0.00788189
0.00797102
-0.000272276
-0.000180351
1.70947e-05
0.000313612
0.000701242
0.00116985
0.00170742
0.00230038
0.00293401
0.00359274
0.00426049
0.00492094
0.00555784
0.00615532
0.00669822
0.00717249
0.00756551
0.00786662
0.00806737
0.00816098
-0.000566583
-0.000467907
-0.000256037
6.1928e-05
0.000477244
0.00097887
0.0015538
0.00218752
0.00286433
0.00356777
0.00428085
0.00498636
0.00566714
0.00630634
0.00688779
0.00739633
0.00781826
0.00814188
0.00835783
0.0084586
-0.000975072
-0.000866881
-0.000634751
-0.000286747
0.000167221
0.000714782
0.00134155
0.00203163
0.00276805
0.00353312
0.00430868
0.00507634
0.00581774
0.00651474
0.00714974
0.00770608
0.00816849
0.00852374
0.00876112
0.008872
-0.00150873
-0.00138786
-0.00112881
-0.00074105
-0.000236163
0.000371621
0.00106603
0.00182939
0.00264308
0.0034879
0.00434426
0.0051924
0.00601247
0.00678473
0.0074898
0.00810901
0.00862496
0.00902226
0.00928826
0.0094127
-0.00218218
-0.00204485
-0.00175101
-0.00131218
-0.000742293
-5.81461e-05
0.000721505
0.00157671
0.00248684
0.00343095
0.00438787
0.00533628
0.00625469
0.0071215
0.00791512
0.00861436
0.00919899
0.00965065
0.00995388
0.0100961
-0.00301433
-0.00285587
-0.00251764
-0.00201413
-0.00136268
-0.000583576
0.000301171
0.00126879
0.00229633
0.00336092
0.00443973
0.00550989
0.00654819
0.00753101
0.0084342
0.00923344
0.00990476
0.0104257
0.0107769
0.0109421
-0.00402941
-0.00384379
-0.00344895
-0.00286393
-0.00211095
-0.00121509
-0.000202575
0.000900403
0.00206828
0.00327622
0.00449989
0.00571502
0.00689686
0.00801972
0.00905663
0.00997946
0.0107594
0.0113685
0.0117815
0.0119765
-0.00525839
-0.00503748
-0.00456993
-0.00388192
-0.00300276
-0.00196415
-0.000797736
0.00046622
0.00179938
0.00317515
0.0045681
0.00595307
0.0073042
0.00859401
0.0097926
0.0108674
0.0117834
0.012505
0.0129982
0.0132327
-0.00674134
-0.00647355
-0.00591111
-0.00509179
-0.00405534
-0.00284255
-0.00149198
-3.85313e-05
0.00148674
0.00305604
0.00464364
0.0062245
0.00777259
0.00925929
0.010652
0.0119132
0.0130002
0.0138667
0.0144662
0.014754
-0.00853108
-0.00819872
-0.0075096
-0.00652053
-0.0052867
-0.00386127
-0.00229138
-0.000617031
0.00112854
0.00291745
0.00472515
0.00652826
0.00830214
0.0100185
0.0116428
0.0131326
0.0144358
0.0154919
0.0162355
0.0165986
-0.0107
-0.0102728
-0.00941005
-0.00819763
-0.0067138
-0.00502827
-0.00319857
-0.00126952
0.000724865
0.00275854
0.00481033
0.00686086
0.00888929
0.01087
0.0127686
0.0145387
0.0161175
0.0174258
0.0183704
0.0188474
-0.0133521
-0.0127728
-0.0116654
-0.010153
-0.00834914
-0.00634537
-0.00421013
-0.00199127
0.00027904
0.00257959
0.00489571
0.00721529
0.00952473
0.0118046
0.0140246
0.0161371
0.01807
0.0197207
0.0209529
0.0216182
-0.0166439
-0.0157973
-0.0143364
-0.0124119
-0.0101954
-0.0078033
-0.00531248
-0.00276969
-0.000200624
0.00238275
0.00497644
0.00757974
0.0101908
0.0128016
0.0153917
0.0179191
0.0203076
0.022432
0.0240857
0.0250923
-0.0208507
-0.0194715
-0.017487
-0.0149852
-0.0122361
-0.00937388
-0.00647644
-0.00358081
-0.000698735
0.00217302
0.00504622
0.00793636
0.0108586
0.0138229
0.0168279
0.019849
0.0228198
0.0256072
0.0278877
0.0295705
-0.0261733
-0.023902
-0.0211638
-0.0178514
-0.0144191
-0.0109988
-0.00765025
-0.00438535
-0.001191
0.00195913
0.0050977
0.00826079
0.0114855
0.0148077
0.018257
0.0218451
0.0255445
0.0292582
0.0324562
0.0354468
-0.0350533
-0.0295354
-0.025484
-0.0209509
-0.0166394
-0.0125757
-0.00875221
-0.0051261
-0.00164286
0.00175456
0.00512322
0.00852321
0.0120161
0.0156698
0.0195591
0.0237627
0.0283553
0.033458
0.0381752
0.0447305
-0.042125
-0.0348719
-0.0297297
-0.0238741
-0.0186412
-0.01394
-0.00967527
-0.00573474
-0.00201551
0.00157346
0.0051153
0.00868904
0.0123811
0.0162884
0.0205281
0.0252427
0.0305774
0.0369421
0.0421608
0.0527463
-0.0736409
-0.0424763
-0.0348957
-0.0265023
-0.0200455
-0.0147746
-0.0101943
-0.00606177
-0.00221313
0.00147414
0.00510133
0.0087634
0.0125635
0.0166344
0.0211719
0.0265109
0.0331592
0.0428651
0.0523959
0.0871078
1.83249e-07
8.59797e-05
0.000270176
0.000546981
0.000909108
0.00134723
0.00185019
0.00240533
0.00299882
0.00361595
0.0042415
0.00486001
0.00545612
0.0060149
0.00652214
0.00696477
0.00733119
0.00761164
0.00779845
0.00788558
-8.42851e-05
3.39369e-06
0.000191691
0.000474583
0.000844591
0.00129215
0.00180584
0.00237271
0.00297866
0.00360872
0.00424739
0.00487894
0.00548773
0.00605852
0.00657683
0.00702926
0.00740391
0.00769075
0.00788188
0.00797101
-0.000272202
-0.000180283
1.71535e-05
0.000313661
0.000701282
0.00116989
0.00170744
0.0023004
0.00293403
0.00359276
0.00426051
0.00492095
0.00555785
0.00615533
0.00669823
0.00717249
0.00756551
0.00786661
0.00806736
0.00816097
-0.000566486
-0.000467817
-0.000255957
6.19956e-05
0.0004773
0.000978915
0.00155384
0.00218754
0.00286435
0.00356779
0.00428086
0.00498637
0.00566715
0.00630635
0.00688779
0.00739632
0.00781825
0.00814186
0.00835781
0.00845857
-0.000974943
-0.000866761
-0.000634644
-0.000286656
0.000167298
0.000714844
0.0013416
0.00203167
0.00276808
0.00353314
0.00430869
0.00507635
0.00581775
0.00651474
0.00714974
0.00770606
0.00816847
0.00852371
0.00876108
0.00887196
-0.00150857
-0.0013877
-0.00112867
-0.000740928
-0.000236061
0.000371704
0.0010661
0.00182944
0.00264312
0.00348792
0.00434427
0.0051924
0.00601246
0.00678472
0.00748978
0.00810898
0.00862492
0.00902221
0.0092882
0.00941264
-0.00218196
-0.00204464
-0.00175083
-0.00131202
-0.000742159
-5.80379e-05
0.000721589
0.00157677
0.00248688
0.00343098
0.00438788
0.00533628
0.00625467
0.00712147
0.00791509
0.00861432
0.00919893
0.00965058
0.00995381
0.010096
-0.00301405
-0.0028556
-0.00251739
-0.00201392
-0.0013625
-0.000583437
0.000301276
0.00126887
0.00229638
0.00336094
0.00443973
0.00550987
0.00654816
0.00753096
0.00843415
0.00923337
0.00990468
0.0104256
0.0107768
0.010942
-0.00402903
-0.00384344
-0.00344864
-0.00286366
-0.00211073
-0.00121492
-0.000202444
0.000900493
0.00206833
0.00327624
0.00449988
0.00571498
0.00689681
0.00801964
0.00905654
0.00997936
0.0107593
0.0113684
0.0117813
0.0119764
-0.00525791
-0.00503703
-0.00456952
-0.00388157
-0.00300248
-0.00196393
-0.000797576
0.000466324
0.00179943
0.00317516
0.00456807
0.005953
0.00730411
0.0085939
0.00979246
0.0108672
0.0117833
0.0125048
0.012998
0.0132325
-0.00674071
-0.00647296
-0.00591058
-0.00509134
-0.00405499
-0.00284228
-0.00149179
-3.84164e-05
0.00148679
0.00305603
0.00464358
0.0062244
0.00777245
0.00925912
0.0106518
0.0119129
0.0129999
0.0138664
0.014466
0.0147538
-0.00853025
-0.00819794
-0.00750891
-0.00651997
-0.00528625
-0.00386095
-0.00229117
-0.000616912
0.00112858
0.00291741
0.00472505
0.0065281
0.00830193
0.0100182
0.0116426
0.0131323
0.0144355
0.0154915
0.0162352
0.0165983
-0.0106989
-0.0102718
-0.00940917
-0.00819692
-0.00671325
-0.00502789
-0.00319834
-0.00126941
0.000724871
0.00275845
0.00481016
0.00686062
0.00888899
0.0108696
0.0127683
0.0145383
0.0161171
0.0174254
0.01837
0.0188471
-0.0133507
-0.0127715
-0.0116643