/*--------------------------------*- C++ -*----------------------------------*\
  =========                 |
  \\      /  F ield         | OpenFOAM: The Open Source CFD Toolbox
   \\    /   O peration     | Website:  https://openfoam.org
    \\  /    A nd           | Version:  10
     \\/     M anipulation  |
\*---------------------------------------------------------------------------*/
FoamFile
{
    format      ascii;
    class       surfaceScalarField;
    location    "0.75";
    object      phi;
}
// * * * * * * * * * * * * * * * * * * * * * * * * * * * * * * * * * * * * * //

dimensions      [0 3 -1 0 0 0 0];

internalField   nonuniform List<scalar> 
760
(
-1.0864e-05
1.0864e-05
-2.3176e-05
1.2312e-05
-3.49669e-05
1.17909e-05
-4.58551e-05
1.08882e-05
-5.55681e-05
9.71301e-06
-6.38719e-05
8.3038e-06
-7.05716e-05
6.69966e-06
-7.55127e-05
4.94109e-06
-7.85814e-05
3.06873e-06
-7.97043e-05
1.12287e-06
-7.8848e-05
-8.563e-07
-7.60202e-05
-2.82773e-06
-7.12711e-05
-4.74912e-06
-6.46951e-05
-6.57597e-06
-5.64336e-05
-8.26158e-06
-4.66758e-05
-9.75778e-06
-3.56591e-05
-1.10167e-05
-2.36682e-05
-1.19909e-05
-1.11084e-05
-1.25599e-05
-1.11084e-05
-1.28579e-05
2.37219e-05
-2.72996e-05
2.67537e-05
-4.11239e-05
2.56152e-05
-5.38826e-05
2.36468e-05
-6.52554e-05
2.10858e-05
-7.49697e-05
1.80181e-05
-8.28005e-05
1.45304e-05
-8.85707e-05
1.07113e-05
-9.21509e-05
6.64888e-06
-9.34578e-05
2.42976e-06
-9.24535e-05
-1.86057e-06
-8.91472e-05
-6.13405e-06
-8.35956e-05
-1.03007e-05
-7.59063e-05
-1.42652e-05
-6.62412e-05
-1.79267e-05
-5.48186e-05
-2.11804e-05
-4.19142e-05
-2.39211e-05
-2.78622e-05
-2.60429e-05
-1.31374e-05
-2.72846e-05
-2.42458e-05
-1.35614e-05
3.72833e-05
-2.8791e-05
4.19834e-05
-4.33532e-05
4.01774e-05
-5.67765e-05
3.70701e-05
-6.87261e-05
3.30354e-05
-7.89209e-05
2.82129e-05
-8.71318e-05
2.27413e-05
-9.31808e-05
1.67604e-05
-9.69387e-05
1.04068e-05
-9.83225e-05
3.81351e-06
-9.72926e-05
-2.8904e-06
-9.38558e-05
-9.57084e-06
-8.80645e-05
-1.60921e-05
-8.0022e-05
-2.23077e-05
-6.98879e-05
-2.80609e-05
-5.78822e-05
-3.31861e-05
-4.42889e-05
-3.75144e-05
-2.94582e-05
-4.08735e-05
-1.38932e-05
-4.28497e-05
-3.8139e-05
-1.45434e-05
5.18267e-05
-3.08685e-05
5.83085e-05
-4.64551e-05
5.5764e-05
-6.07948e-05
5.14098e-05
-7.35335e-05
4.57741e-05
-8.43801e-05
3.90596e-05
-9.31037e-05
3.14648e-05
-9.95282e-05
2.31849e-05
-0.000103528
1.44065e-05
-0.000105021
5.30698e-06
-0.000103968
-3.94402e-06
-0.000100368
-1.31702e-05
-9.42671e-05
-2.21933e-05
-8.57578e-05
-3.0817e-05
-7.4992e-05
-3.88267e-05
-6.21881e-05
-4.59901e-05
-4.76381e-05
-5.20644e-05
-3.17144e-05
-5.67972e-05
-1.49648e-05
-5.95993e-05
-5.31037e-05
-1.59211e-05
6.77477e-05
-3.37752e-05
7.61627e-05
-5.0784e-05
7.27727e-05
-6.63864e-05
6.70123e-05
-8.02026e-05
5.95902e-05
-9.19316e-05
5.07886e-05
-0.000101343
4.08767e-05
-0.00010827
3.01113e-05
-0.000112593
1.87297e-05
-0.000114237
6.95056e-06
-0.000113158
-5.02224e-06
-0.000109352
-1.69769e-05
-0.000102846
-2.86987e-05
-9.37182e-05
-3.99451e-05
-8.21028e-05
-5.0442e-05
-6.82103e-05
-5.98826e-05
-5.23396e-05
-6.7935e-05
-3.48917e-05
-7.42452e-05
-1.64785e-05
-7.80124e-05
-6.95823e-05
-1.7753e-05
8.55007e-05
-3.76304e-05
9.60401e-05
-5.6505e-05
9.16473e-05
-7.37457e-05
8.42529e-05
-8.89416e-05
7.47862e-05
-0.000101786
6.36326e-05
-0.000112057
5.11485e-05
-0.000119606
3.76599e-05
-0.000124331
2.34544e-05
-0.000126166
8.78607e-06
-0.00012507
-6.11821e-06
-0.000121025
-2.10226e-05
-0.000114036
-3.56877e-05
-0.000104149
-4.98314e-05
-9.14705e-05
-6.31208e-05
-7.61881e-05
-7.51649e-05
-5.86009e-05
-8.55223e-05
-3.91421e-05
-9.37039e-05
-1.85103e-05
-9.86442e-05
-8.80926e-05
-2.01213e-05
0.000105622
-4.25972e-05
0.000118516
-6.38393e-05
0.000112889
-8.3125e-05
0.000103539
-0.000100012
9.1673e-05
-0.000114196
7.78169e-05
-0.000125484
6.24364e-05
-0.00013376
4.59352e-05
-0.000138954
2.8649e-05
-0.000141023
1.08553e-05
-0.000139928
-7.21327e-06
-0.000135634
-2.53175e-05
-0.00012811
-4.3211e-05
-0.000117355
-6.05871e-05
-0.000103417
-7.70584e-05
-8.64409e-05
-9.2141e-05
-6.67073e-05
-0.000105256
-4.46801e-05
-0.000115731
-2.11697e-05
-0.000122155
-0.000109262
-2.31465e-05
0.000128769
-4.89106e-05
0.00014428
-7.30973e-05
0.000137076
-9.48694e-05
0.000125311
-0.000113758
0.000110562
-0.000129486
9.35447e-05
-0.000141914
7.48646e-05
-0.000150991
5.50119e-05
-0.000156704
3.43623e-05
-0.000159046
1.31973e-05
-0.000157987
-8.27207e-06
-0.000153468
-2.98366e-05
-0.000145407
-5.12717e-05
-0.000133722
-7.22721e-05
-0.000118371
-9.241e-05
-9.94092e-05
-0.000111102
-7.7066e-05
-0.000127599
-5.182e-05
-0.000140977
-2.46208e-05
-0.000149354
-0.000133883
-2.70091e-05
0.000155778
-5.69135e-05
0.000174184
-8.47184e-05
0.000164881
-0.000109449
0.000150042
-0.000130631
0.000131744
-0.000148056
0.000110969
-0.000161688
8.84971e-05
-0.000171587
6.49103e-05
-0.000177832
4.06076e-05
-0.000180477
1.58421e-05
-0.000179513
-9.23651e-06
-0.000174846
-3.45029e-05
-0.000166322
-5.97964e-05
-0.000153735
-8.48585e-05
-0.000136894
-0.000109251
-0.0001157
-0.000132296
-9.02612e-05
-0.000153038
-6.10297e-05
-0.000170209
-2.91159e-05
-0.000181268
-0.000162999
-3.19868e-05
0.000187764
-6.71151e-05
0.000209313
-9.93318e-05
0.000197098
-0.00012751
0.00017822
-0.000151221
0.000155454
-0.000170399
0.000130148
-0.000185195
0.000103293
-0.000195846
7.55611e-05
-0.000202578
4.73392e-05
-0.000205537
1.88017e-05
-0.000204754
-1.00199e-05
-0.000200096
-3.91611e-05
-0.000191298
-6.85938e-05
-0.000177983
-9.81736e-05
-0.000159723
-0.000127511
-0.000136153
-0.000155866
-0.000107142
-0.000182049
-7.30205e-05
-0.000204331
-3.50562e-05
-0.000219232
-0.000198055
-3.85255e-05
0.00022629
-8.02919e-05
0.000251079
-0.000117853
0.000234659
-0.000149945
0.000210311
-0.000176292
0.000181801
-0.00019711
0.000150966
-0.000212856
0.00011904
-0.000224046
8.67505e-05
-0.000231123
5.44165e-05
-0.000234376
2.20547e-05
-0.000233894
-1.0502e-05
-0.000229507
-4.35482e-05
-0.000220808
-7.72925e-05
-0.000207167
-0.000111814
-0.000187808
-0.000146871
-0.000161934
-0.00018174
-0.000128965
-0.000215018
-8.8904e-05
-0.000244391
-4.31121e-05
-0.000265024
-0.000241167
-4.73775e-05
0.000273667
-9.76611e-05
0.000301363
-0.000141641
0.00027864
-0.000177997
0.000246667
-0.000206841
0.000210645
-0.000228893
0.000173018
-0.0002451
0.000135246
-0.000256392
9.80428e-05
-0.000263532
6.15563e-05
-0.000267004
2.55271e-05
-0.000266981
-1.0525e-05
-0.000263264
-4.72652e-05
-0.000255283
-8.52742e-05
-0.000242081
-0.000125016
-0.000222363
-0.000166589
-0.000194663
-0.000209439
-0.000157613
-0.000252068
-0.000110471
-0.000291534
-5.44782e-05
-0.000321016
-0.000295646
-5.98998e-05
0.000333567
-0.000121189
0.000362652
-0.000172741
0.000330192
-0.000213412
0.000287338
-0.000244156
0.000241389
-0.000266545
0.000195407
-0.000282294
0.000150996
-0.000292945
0.000108694
-0.000299668
6.82794e-05
-0.000303204
2.90626e-05
-0.000303834
-9.89485e-06
-0.000301354
-4.9745e-05
-0.000295026
-9.16021e-05
-0.000283522
-0.00013652
-0.000264884
-0.000185227
-0.000236592
-0.000237732
-0.000195954
-0.000292705
-0.000140699
-0.00034679
-7.15132e-05
-0.000390202
-0.000367159
-7.87618e-05
0.000412329
-0.00015415
0.00043804
-0.000214269
0.000390312
-0.000258627
0.000331695
-0.000289818
0.00027258
-0.000310865
0.000216455
-0.000324661
0.000164792
-0.000333516
0.000117549
-0.000339087
7.38506e-05
-0.000342406
3.23815e-05
-0.000343902
-8.39883e-06
-0.000343405
-5.02419e-05
-0.000340057
-9.49509e-05
-0.000332169
-0.000144408
-0.000317034
-0.000200362
-0.000290752
-0.000264013
-0.000248354
-0.000335103
-0.00018463
-0.000410515
-9.88709e-05
-0.00047596
-0.00046603
-0.000108939
0.000521268
-0.000202007
0.000531107
-0.000270955
0.00045926
-0.000316924
0.000377664
-0.000345632
0.000301288
-0.000362553
0.000233377
-0.000372111
0.000174349
-0.000377503
0.000122941
-0.000380879
7.72264e-05
-0.000383544
3.50471e-05
-0.000386096
-5.84731e-06
-0.000388472
-4.78662e-05
-0.000389827
-9.35957e-05
-0.000388277
-0.000145957
-0.000380451
-0.000208188
-0.000360881
-0.000283583
-0.000321395
-0.000374589
-0.000250903
-0.000481007
-0.000145466
-0.000581398
-0.000611495
-0.00016266
0.000683928
-0.000274839
0.000643286
-0.000350007
0.000534428
-0.000392418
0.000420075
-0.000413439
0.000322309
-0.000421873
0.00024181
-0.000423941
0.000176417
-0.000423662
0.000122662
-0.000423521
7.70855e-05
-0.00042494
3.64661e-05
-0.000428636
-2.15152e-06
-0.00043476
-4.17426e-05
-0.000442782
-8.55731e-05
-0.000451068
-0.000137671
-0.000456068
-0.000203189
-0.000451012
-0.000288638
-0.000424065
-0.000401537
-0.000353721
-0.000551351
-0.000231289
-0.000703829
-0.000842785
-0.000239928
0.000923856
-0.000379353
0.000782711
-0.000459317
0.000614392
-0.000489394
0.000450152
-0.000494086
0.000327001
-0.000487621
0.000235345
-0.000477971
0.000166767
-0.000469446
0.000114137
-0.000464277
7.19172e-05
-0.000463661
3.58501e-05
-0.000468386
2.57284e-06
-0.000478834
-3.12945e-05
-0.000495231
-6.91758e-05
-0.000516999
-0.000115904
-0.000541834
-0.000178353
-0.000563078
-0.000267395
-0.000567578
-0.000397037
-0.000512191
-0.000606738
-0.000391275
-0.000824745
-0.00123406
-0.000490674
0.00141453
-0.00058796
0.000879997
-0.000617557
0.000643989
-0.000606119
0.000438715
-0.000576131
0.000297013
-0.00054438
0.000203594
-0.000517291
0.000139678
-0.000497217
9.40629e-05
-0.000485039
5.97393e-05
-0.000481145
3.19554e-05
-0.000485647
7.0756e-06
-0.000499985
-1.69567e-05
-0.000525126
-4.40353e-05
-0.000562777
-7.82528e-05
-0.000614877
-0.000126254
-0.000679274
-0.000202997
-0.00074905
-0.000327261
-0.00075816
-0.000597628
-0.000660498
-0.000922406
-0.00189456
-0.000696305
0.00211084
-0.000674301
0.000857993
-0.000589788
0.000559476
-0.00048209
0.000331017
-0.000381429
0.000196352
-0.000302861
0.000125025
-0.000245551
8.23684e-05
-0.000205918
5.44298e-05
-0.000181071
3.48923e-05
-0.000169138
2.00225e-05
-0.00016943
7.36722e-06
-0.000181625
-4.76174e-06
-0.000207338
-1.83219e-05
-0.000248041
-3.75495e-05
-0.000305452
-6.88432e-05
-0.000377425
-0.000131024
-0.000456678
-0.000248008
-0.000522877
-0.000531429
-0.000478005
-0.000967278
-0.00237256
0.00211084
0.00296883
0.0035283
0.00385932
0.00405567
0.0041807
0.00426307
0.0043175
0.00435239
0.00437241
0.00437978
0.00437502
0.00435669
0.00431914
0.0042503
0.00411928
0.00387127
0.00333984
0.00237256
)
;

boundaryField
{
    movingWall
    {
        type            calculated;
        value           uniform 0;
    }
    fixedWalls
    {
        type            calculated;
        value           uniform 0;
    }
    frontAndBack
    {
        type            empty;
        value           nonuniform List<scalar> 0();
    }
}


// ************************************************************************* //
