/*--------------------------------*- C++ -*----------------------------------*\
  =========                 |
  \\      /  F ield         | OpenFOAM: The Open Source CFD Toolbox
   \\    /   O peration     | Website:  https://openfoam.org
    \\  /    A nd           | Version:  10
     \\/     M anipulation  |
\*---------------------------------------------------------------------------*/
FoamFile
{
    format      ascii;
    class       volVectorField;
    location    "9.625";
    object      U;
}
// * * * * * * * * * * * * * * * * * * * * * * * * * * * * * * * * * * * * * //

dimensions      [0 1 -1 0 0 0 0];

internalField   nonuniform List<vector> 
400
(
(-0.000172546 0.000146885 0)
(-0.00131008 0.000480213 0)
(-0.00324177 0.000601421 0)
(-0.00523425 0.000644227 0)
(-0.00731661 0.000671547 0)
(-0.00945324 0.000703574 0)
(-0.0116367 0.000739605 0)
(-0.0138477 0.000770744 0)
(-0.0160366 0.000783409 0)
(-0.0181139 0.000758584 0)
(-0.0199404 0.000671719 0)
(-0.0213175 0.0004955 0)
(-0.0219887 0.00020671 0)
(-0.0216534 -0.000216756 0)
(-0.0200285 -0.00074908 0)
(-0.0169606 -0.00130734 0)
(-0.0126102 -0.00172946 0)
(-0.00761187 -0.00180713 0)
(-0.00261398 -0.00136732 0)
(-8.42306e-05 -0.000307344 0)
(-0.000578306 0.00134169 0)
(-0.00300852 0.00280698 0)
(-0.0067407 0.00336527 0)
(-0.0105973 0.00357297 0)
(-0.0145888 0.00367394 0)
(-0.0186259 0.00374732 0)
(-0.0226606 0.00379176 0)
(-0.026629 0.00377105 0)
(-0.0304224 0.00362883 0)
(-0.0338728 0.00329039 0)
(-0.0367403 0.00266621 0)
(-0.0387038 0.00166161 0)
(-0.0393858 0.000195556 0)
(-0.0383542 -0.0017476 0)
(-0.0352081 -0.00403887 0)
(-0.0297569 -0.00633835 0)
(-0.0222703 -0.00803259 0)
(-0.0137226 -0.00832899 0)
(-0.00520503 -0.00657477 0)
(-0.000538804 -0.00234633 0)
(-0.000766009 0.00352499 0)
(-0.00382232 0.00665607 0)
(-0.00842067 0.00785105 0)
(-0.013141 0.00828682 0)
(-0.017996 0.00846069 0)
(-0.0228757 0.00853342 0)
(-0.0277206 0.0085058 0)
(-0.032457 0.0083078 0)
(-0.0369651 0.00782855 0)
(-0.0410624 0.00692251 0)
(-0.0444882 0.00541711 0)
(-0.0468951 0.00313356 0)
(-0.0478391 -7.17914e-05 0)
(-0.0467808 -0.00420967 0)
(-0.0431761 -0.00905445 0)
(-0.0366595 -0.0139308 0)
(-0.0274003 -0.0175783 0)
(-0.0165868 -0.0182312 0)
(-0.00587599 -0.0144367 0)
(-0.000411295 -0.00555662 0)
(-0.00083003 0.00588188 0)
(-0.00415086 0.0108103 0)
(-0.00913413 0.0126634 0)
(-0.0142317 0.0133165 0)
(-0.0194727 0.0135523 0)
(-0.0247509 0.0136209 0)
(-0.0300208 0.0135287 0)
(-0.0352287 0.0131762 0)
(-0.0402803 0.0124012 0)
(-0.0450199 0.0109867 0)
(-0.049204 0.00866528 0)
(-0.0524745 0.00514571 0)
(-0.0543295 0.000180701 0)
(-0.0540971 -0.00632273 0)
(-0.0509427 -0.0141353 0)
(-0.044051 -0.0222817 0)
(-0.0331347 -0.0286736 0)
(-0.0194632 -0.0299592 0)
(-0.00581664 -0.023232 0)
(0.000166498 -0.00839834 0)
(-0.000830709 0.00834081 0)
(-0.00422716 0.0151656 0)
(-0.00935422 0.0177107 0)
(-0.014605 0.0185984 0)
(-0.0200284 0.0189211 0)
(-0.0255372 0.0190302 0)
(-0.0311189 0.0189458 0)
(-0.0367635 0.0185459 0)
(-0.0424313 0.0176233 0)
(-0.0480295 0.0158879 0)
(-0.0533733 0.0129617 0)
(-0.058127 0.00839361 0)
(-0.0617396 0.00172999 0)
(-0.0633903 -0.00734739 0)
(-0.061841 -0.0188023 0)
(-0.0554728 -0.0315232 0)
(-0.0428562 -0.0424085 0)
(-0.0247621 -0.0453167 0)
(-0.00583946 -0.03407 0)
(0.00117536 -0.0107961 0)
(-0.000800169 0.0107935 0)
(-0.00417517 0.0195702 0)
(-0.00932399 0.0228407 0)
(-0.0146196 0.0239931 0)
(-0.0201294 0.0244504 0)
(-0.0257935 0.02468 0)
(-0.0316459 0.0247302 0)
(-0.0377401 0.0244717 0)
(-0.0441199 0.0236649 0)
(-0.0507975 0.0219543 0)
(-0.057708 0.0188429 0)
(-0.0646257 0.0136774 0)
(-0.0710632 0.00567842 0)
(-0.0761777 -0.00593343 0)
(-0.0782999 -0.0216227 0)
(-0.0744623 -0.0408317 0)
(-0.0607487 -0.0595873 0)
(-0.0362268 -0.0668674 0)
(-0.00793153 -0.0488867 0)
(0.00249058 -0.0127217 0)
(-0.000751241 0.0131793 0)
(-0.00404842 0.0239353 0)
(-0.00914592 0.0279626 0)
(-0.0144152 0.0294145 0)
(-0.0199379 0.0300629 0)
(-0.0256849 0.0305102 0)
(-0.0317437 0.0308524 0)
(-0.0382476 0.0309776 0)
(-0.0453535 0.0306437 0)
(-0.0532316 0.0294595 0)
(-0.0620322 0.0268339 0)
(-0.071817 0.0219214 0)
(-0.082444 0.01357 0)
(-0.0933012 0.000272568 0)
(-0.102462 -0.0197939 0)
(-0.104667 -0.0481127 0)
(-0.0913249 -0.0806542 0)
(-0.0594831 -0.0981353 0)
(-0.0181815 -0.0721917 0)
(0.00301687 -0.0161545 0)
(-0.000687823 0.0154607 0)
(-0.00386585 0.0282059 0)
(-0.00885417 0.0330147 0)
(-0.0140273 0.0347927 0)
(-0.0194747 0.0356798 0)
(-0.0251948 0.0364349 0)
(-0.0313278 0.0372275 0)
(-0.0380928 0.0379975 0)
(-0.0457819 0.0385501 0)
(-0.0547763 0.0385317 0)
(-0.0655512 0.0373596 0)
(-0.0786851 0.0341342 0)
(-0.094831 0.0274536 0)
(-0.114196 0.0147015 0)
(-0.134265 -0.00919731 0)
(-0.145486 -0.0503529 0)
(-0.133895 -0.104972 0)
(-0.0982138 -0.140111 0)
(-0.046727 -0.110856 0)
(-0.000616765 -0.0281279 0)
(-0.000612593 0.0176072 0)
(-0.0036388 0.0323359 0)
(-0.00846516 0.0379351 0)
(-0.0134626 0.0400431 0)
(-0.0187193 0.0411864 0)
(-0.0242509 0.042305 0)
(-0.0302396 0.0436707 0)
(-0.0369792 0.0453173 0)
(-0.0448908 0.0471659 0)
(-0.054582 0.0490185 0)
(-0.0669273 0.0505004 0)
(-0.0831963 0.0509422 0)
(-0.105191 0.0488509 0)
(-0.13408 0.0396133 0)
(-0.16528 0.012165 0)
(-0.183825 -0.0472183 0)
(-0.175699 -0.130149 0)
(-0.145405 -0.186624 0)
(-0.0931862 -0.16853 0)
(-0.0139293 -0.0608087 0)
(-0.000531792 0.0195963 0)
(-0.00338855 0.0362874 0)
(-0.00801003 0.0426605 0)
(-0.0127458 0.0450644 0)
(-0.0176726 0.0464305 0)
(-0.0228063 0.0479035 0)
(-0.0283471 0.0498846 0)
(-0.0346295 0.0525438 0)
(-0.0421538 0.0559955 0)
(-0.0516857 0.0603409 0)
(-0.0643979 0.0656558 0)
(-0.0820375 0.0717307 0)
(-0.107123 0.0766448 0)
(-0.140825 0.072201 0)
(-0.176243 0.0394899 0)
(-0.195601 -0.0395342 0)
(-0.191837 -0.148322 0)
(-0.17288 -0.229151 0)
(-0.129889 -0.241668 0)
(-0.0365665 -0.129727 0)
(-0.000458094 0.0214237 0)
(-0.00315657 0.0400374 0)
(-0.00755391 0.0471224 0)
(-0.0119483 0.049731 0)
(-0.0163981 0.0512151 0)
(-0.0208967 0.0529398 0)
(-0.0256281 0.0554462 0)
(-0.0309055 0.0590598 0)
(-0.0372 0.0641321 0)
(-0.0452427 0.0711466 0)
(-0.0561659 0.0807307 0)
(-0.0714966 0.0930127 0)
(-0.0930307 0.104753 0)
(-0.121132 0.103292 0)
(-0.148736 0.0644059 0)
(-0.162594 -0.0288987 0)
(-0.163022 -0.153598 0)
(-0.154548 -0.258444 0)
(-0.131353 -0.312241 0)
(-0.0501818 -0.233706 0)
(-0.00041749 0.0231303 0)
(-0.00302501 0.043633 0)
(-0.00722255 0.0513345 0)
(-0.0112127 0.0539974 0)
(-0.0150488 0.0554079 0)
(-0.0186863 0.0571618 0)
(-0.0222609 0.0599313 0)
(-0.0259952 0.0641711 0)
(-0.0301993 0.0704247 0)
(-0.0353113 0.0794582 0)
(-0.0419365 0.0922131 0)
(-0.0506871 0.108738 0)
(-0.0620693 0.124355 0)
(-0.0762288 0.123355 0)
(-0.0895132 0.0803989 0)
(-0.0956018 -0.0193777 0)
(-0.100286 -0.146503 0)
(-0.103326 -0.262766 0)
(-0.106187 -0.351279 0)
(-0.0425965 -0.325529 0)
(-0.000441455 0.0247703 0)
(-0.00308378 0.0470241 0)
(-0.0071712 0.055081 0)
(-0.0107516 0.0575321 0)
(-0.013893 0.0586233 0)
(-0.0165018 0.0601313 0)
(-0.0186634 0.0627918 0)
(-0.0204791 0.0671135 0)
(-0.0220337 0.0736936 0)
(-0.0233706 0.083329 0)
(-0.0244394 0.096905 0)
(-0.0248892 0.11418 0)
(-0.0243815 0.130181 0)
(-0.023217 0.12885 0)
(-0.0230847 0.0863614 0)
(-0.0239563 -0.01236 0)
(-0.0362696 -0.131997 0)
(-0.051034 -0.248454 0)
(-0.0767277 -0.363431 0)
(-0.0293091 -0.387283 0)
(-0.000642877 0.0266874 0)
(-0.00364948 0.0508837 0)
(-0.00777017 0.0592096 0)
(-0.0108592 0.0612182 0)
(-0.0131773 0.06157 0)
(-0.014653 0.0623086 0)
(-0.0153136 0.0642456 0)
(-0.0151319 0.0678873 0)
(-0.014 0.0737621 0)
(-0.0116283 0.0824893 0)
(-0.0075044 0.0946581 0)
(-0.000600579 0.109806 0)
(0.00953305 0.123678 0)
(0.0228434 0.122175 0)
(0.0316214 0.0843805 0)
(0.0353366 -0.00471017 0)
(0.0153965 -0.112237 0)
(-0.00759835 -0.221303 0)
(-0.0539572 -0.35922 0)
(-0.0195346 -0.433312 0)
(-0.000982502 0.0290818 0)
(-0.00439368 0.0538858 0)
(-0.00891563 0.0613943 0)
(-0.0118183 0.0621681 0)
(-0.0135525 0.0616435 0)
(-0.0139479 0.0616867 0)
(-0.0131085 0.0629184 0)
(-0.0109874 0.0656584 0)
(-0.00740523 0.0702658 0)
(-0.00192881 0.0770623 0)
(0.00613691 0.0864162 0)
(0.0180178 0.0975773 0)
(0.0337177 0.107295 0)
(0.0536836 0.105253 0)
(0.0674957 0.0750061 0)
(0.0751454 0.00373336 0)
(0.0505596 -0.0867158 0)
(0.0257834 -0.182691 0)
(-0.0378585 -0.341145 0)
(-0.00896343 -0.465187 0)
(-0.00307069 0.030931 0)
(-0.00884842 0.0604361 0)
(-0.0126407 0.0677717 0)
(-0.0144054 0.0678587 0)
(-0.0146317 0.065431 0)
(-0.0136521 0.0634321 0)
(-0.0114438 0.0625964 0)
(-0.00781371 0.0632193 0)
(-0.00250373 0.0655067 0)
(0.00510073 0.0695336 0)
(0.0155536 0.0754228 0)
(0.0298042 0.0822528 0)
(0.0473689 0.0876613 0)
(0.0694125 0.0848564 0)
(0.0844172 0.0632978 0)
(0.0948934 0.0120447 0)
(0.0687111 -0.0574084 0)
(0.0454759 -0.139902 0)
(-0.0280909 -0.321315 0)
(0.00183103 -0.489189 0)
(-0.000903438 0.0441202 0)
(-0.00727767 0.0614466 0)
(-0.0161225 0.0644008 0)
(-0.0177732 0.060785 0)
(-0.0181941 0.0577828 0)
(-0.0163233 0.0558007 0)
(-0.0129119 0.0548669 0)
(-0.00781353 0.0548716 0)
(-0.000883903 0.0558686 0)
(0.00842902 0.0578571 0)
(0.0204624 0.0608853 0)
(0.0358463 0.0642331 0)
(0.0534351 0.0664945 0)
(0.0753002 0.0634138 0)
(0.08926 0.049064 0)
(0.101458 0.0159651 0)
(0.0761894 -0.0331713 0)
(0.0608922 -0.100984 0)
(-0.0107066 -0.299141 0)
(0.020312 -0.498966 0)
(-0.012582 0.0321497 0)
(-0.022889 0.0807143 0)
(-0.0202013 0.0811227 0)
(-0.0237121 0.0762607 0)
(-0.0227374 0.0688318 0)
(-0.0199372 0.0627086 0)
(-0.0150211 0.0578786 0)
(-0.00814795 0.0542276 0)
(0.000624871 0.0517535 0)
(0.0116965 0.0502056 0)
(0.0249232 0.0496757 0)
(0.0409231 0.0494154 0)
(0.0575872 0.0496111 0)
(0.0782253 0.0472597 0)
(0.0897567 0.0407593 0)
(0.105225 0.0242042 0)
(0.087306 -0.00637132 0)
(0.0965896 -0.0625025 0)
(0.0386327 -0.272413 0)
(0.0566726 -0.488133 0)
(-0.0777047 0.0956989 0)
(-0.063208 0.0587171 0)
(-0.0649083 0.0600781 0)
(-0.0419905 0.0534908 0)
(-0.023835 0.0464964 0)
(-0.00284254 0.0413194 0)
(0.0169739 0.037557 0)
(0.0372181 0.0343845 0)
(0.0560346 0.0321044 0)
(0.0765679 0.0300374 0)
(0.0944185 0.0288949 0)
(0.117182 0.0276855 0)
(0.132906 0.026805 0)
(0.161078 0.0252776 0)
(0.170001 0.0195816 0)
(0.202247 0.0105728 0)
(0.18861 -0.021628 0)
(0.220905 -0.0732735 0)
(0.153527 -0.25134 0)
(0.124397 -0.432416 0)
(0.11932 0.140692 0)
(0.151794 0.0859499 0)
(0.228192 0.0634018 0)
(0.283683 0.0479797 0)
(0.325181 0.0373868 0)
(0.363551 0.0296472 0)
(0.392359 0.0242625 0)
(0.423631 0.0202016 0)
(0.443703 0.0173321 0)
(0.472322 0.0150069 0)
(0.485288 0.0133369 0)
(0.514638 0.0119239 0)
(0.520155 0.0108082 0)
(0.552129 0.00942962 0)
(0.546769 0.00740786 0)
(0.578261 0.00293507 0)
(0.546121 -0.00580915 0)
(0.551788 -0.0267682 0)
(0.419013 -0.0729079 0)
(0.274639 -0.151556 0)
)
;

boundaryField
{
    movingWall
    {
        type            fixedValue;
        value           uniform (1 0 0);
    }
    fixedWalls
    {
        type            noSlip;
    }
    frontAndBack
    {
        type            empty;
    }
}


// ************************************************************************* //
