/*--------------------------------*- C++ -*----------------------------------*\
  =========                 |
  \\      /  F ield         | OpenFOAM: The Open Source CFD Toolbox
   \\    /   O peration     | Website:  https://openfoam.org
    \\  /    A nd           | Version:  10
     \\/     M anipulation  |
\*---------------------------------------------------------------------------*/
FoamFile
{
    format      ascii;
    class       surfaceScalarField;
    location    "0.075";
    object      phi;
}
// * * * * * * * * * * * * * * * * * * * * * * * * * * * * * * * * * * * * * //

dimensions      [0 3 -1 0 0 0 0];

internalField   nonuniform List<scalar> 
22800
(
-7.76587e-07
7.76497e-07
9.3961e-11
-1.54559e-06
7.6877e-07
2.31248e-10
-2.27439e-06
7.28719e-07
8.4642e-11
-2.94483e-06
6.7035e-07
9.19651e-11
-3.54041e-06
5.95488e-07
8.3807e-11
-4.04696e-06
5.06485e-07
7.17934e-11
-4.4529e-06
4.0588e-07
5.72467e-11
-4.74923e-06
2.96291e-07
4.09729e-11
-4.92959e-06
1.80337e-07
2.36866e-11
-4.99019e-06
6.05911e-08
5.78183e-12
-4.92976e-06
-6.04191e-08
-1.23609e-11
-4.74955e-06
-1.80182e-07
-3.06591e-11
-4.45333e-06
-2.96169e-07
-4.8658e-11
-4.04746e-06
-4.05803e-07
-6.59394e-11
-3.54091e-06
-5.06463e-07
-8.19527e-11
-2.9453e-06
-5.95523e-07
-9.58556e-11
-2.27475e-06
-6.70443e-07
-1.06347e-10
-1.54573e-06
-7.289e-07
-1.11203e-10
-7.7675e-07
-7.68879e-07
-1.05212e-10
-7.76688e-07
-6.14802e-11
-8.09032e-07
1.58539e-06
1.39006e-10
-1.60978e-06
1.56939e-06
1.3046e-10
-2.36858e-06
1.48743e-06
8.67875e-11
-3.06608e-06
1.36777e-06
7.30399e-11
-3.6852e-06
1.21455e-06
6.12627e-11
-4.21137e-06
1.03261e-06
4.98406e-11
-4.63272e-06
8.27185e-07
3.83219e-11
-4.94011e-06
6.03654e-07
2.67459e-11
-5.12712e-06
3.67333e-07
1.52081e-11
-5.18994e-06
1.2341e-07
3.64931e-12
-5.12731e-06
-1.23044e-07
-7.96442e-12
-4.94047e-06
-3.67002e-07
-1.96917e-11
-4.63321e-06
-6.03391e-07
-3.14162e-11
-4.21196e-06
-8.27016e-07
-4.29608e-11
-3.68582e-06
-1.03255e-06
-5.39166e-11
-3.06666e-06
-1.21462e-06
-6.34964e-11
-2.36908e-06
-1.36796e-06
-7.038e-11
-1.61017e-06
-1.48773e-06
-7.23088e-11
-8.09277e-07
-1.56971e-06
-6.41132e-11
-1.58595e-06
-1.69699e-11
-8.50602e-07
2.43601e-06
-1.83471e-11
-1.69189e-06
2.41061e-06
6.77628e-11
-2.4883e-06
2.28378e-06
6.3289e-11
-3.21937e-06
2.09878e-06
5.78424e-11
-3.86725e-06
1.86238e-06
5.02485e-11
-4.41694e-06
1.58226e-06
4.1195e-11
-4.85644e-06
1.26665e-06
3.15662e-11
-5.17666e-06
9.23848e-07
2.1933e-11
-5.37129e-06
5.61956e-07
1.24894e-11
-5.43665e-06
1.88767e-07
3.13276e-12
-5.37152e-06
-1.88176e-07
-6.27731e-12
-5.17708e-06
-5.61421e-07
-1.5921e-11
-4.85703e-06
-9.2342e-07
-2.58896e-11
-4.41764e-06
-1.26637e-06
-3.6134e-11
-3.86798e-06
-1.58216e-06
-4.62483e-11
-3.22006e-06
-1.86248e-06
-5.54538e-11
-2.48887e-06
-2.09907e-06
-6.22323e-11
-1.6923e-06
-2.28424e-06
-6.39012e-11
-8.50779e-07
-2.41118e-06
-5.50249e-11
-2.43672e-06
-5.32992e-12
-9.14717e-07
3.35074e-06
-1.15894e-11
-1.8187e-06
3.31454e-06
5.54008e-11
-2.673e-06
3.13802e-06
5.82383e-11
-3.45545e-06
2.88117e-06
5.40665e-11
-4.14704e-06
2.55393e-06
4.66301e-11
-4.73224e-06
2.16742e-06
3.76847e-11
-5.19894e-06
1.73333e-06
2.84635e-11
-5.53827e-06
1.26316e-06
1.9609e-11
-5.74422e-06
7.67895e-07
1.12369e-11
-5.81334e-06
2.57884e-07
3.1278e-12
-5.7445e-06
-2.57012e-07
-5.02407e-12
-5.5388e-06
-7.67104e-07
-1.35471e-11
-5.19968e-06
-1.26252e-06
-2.27665e-11
-4.73311e-06
-1.73291e-06
-3.27697e-11
-4.14796e-06
-2.16727e-06
-4.31761e-11
-3.45632e-06
-2.55406e-06
-5.31457e-11
-2.67375e-06
-2.88158e-06
-6.10024e-11
-1.81925e-06
-3.13868e-06
-6.36035e-11
-9.14999e-07
-3.31537e-06
-5.46418e-11
-3.35172e-06
-2.2812e-12
-1.00413e-06
4.35488e-06
-1.03246e-11
-1.99518e-06
4.30553e-06
5.38219e-11
-2.92942e-06
4.07221e-06
5.95743e-11
-3.78221e-06
3.7339e-06
5.44899e-11
-4.53306e-06
3.30473e-06
4.53677e-11
-5.16588e-06
2.80021e-06
3.51673e-11
-5.6687e-06
2.23612e-06
2.5459e-11
-6.03317e-06
1.62761e-06
1.68714e-11
-6.25389e-06
9.88614e-07
9.35278e-12
-6.32791e-06
3.31896e-07
2.49523e-12
-6.25425e-06
-3.30664e-07
-4.25634e-12
-6.03385e-06
-9.87494e-07
-1.15585e-11
-5.66965e-06
-1.6267e-06
-2.00125e-11
-5.16701e-06
-2.23552e-06
-2.98365e-11
-4.53427e-06
-2.79997e-06
-4.08218e-11
-3.78337e-06
-3.3049e-06
-5.22412e-11
-2.93042e-06
-3.73447e-06
-6.22087e-11
-1.99591e-06
-4.07313e-06
-6.68892e-11
-1.00451e-06
-4.3067e-06
-5.87419e-11
-4.35623e-06
-2.18903e-12
-1.12256e-06
5.47745e-06
-6.2095e-12
-2.22839e-06
5.4113e-06
5.85108e-11
-3.26711e-06
5.11087e-06
6.39527e-11
-4.21069e-06
4.67743e-06
5.59957e-11
-5.03693e-06
4.13092e-06
4.36362e-11
-5.72937e-06
3.49261e-06
3.10562e-11
-6.2767e-06
2.78343e-06
2.02574e-11
-6.67171e-06
2.02261e-06
1.18686e-11
-6.91022e-06
1.22711e-06
5.60917e-12
-6.99009e-06
4.11768e-07
7.49859e-13
-6.91069e-06
-4.10064e-07
-3.68693e-12
-6.67262e-06
-1.22556e-06
-8.83151e-12
-6.27796e-06
-2.02135e-06
-1.58158e-11
-5.73087e-06
-2.78258e-06
-2.51986e-11
-5.03854e-06
-3.49227e-06
-3.69147e-11
-4.21225e-06
-4.13114e-06
-5.03914e-11
-3.26846e-06
-4.6782e-06
-6.37518e-11
-2.22938e-06
-5.11214e-06
-7.22405e-11
-1.12308e-06
-5.41294e-06
-6.63549e-11
-5.4793e-06
-4.83295e-12
-1.27549e-06
6.75294e-06
-5.78307e-13
-2.52857e-06
6.66431e-06
6.84706e-11
-3.69963e-06
6.28186e-06
7.06265e-11
-4.75624e-06
5.73398e-06
5.71498e-11
-5.67435e-06
5.04899e-06
3.95114e-11
-6.43779e-06
4.25603e-06
2.33393e-11
-7.0369e-06
3.38254e-06
1.10925e-11
-7.46671e-06
2.45242e-06
3.35429e-12
-7.72514e-06
1.48553e-06
-6.04543e-13
-7.81153e-06
4.98158e-07
-2.10614e-12
-7.72576e-06
-4.95831e-07
-2.74397e-12
-7.46791e-06
-1.4834e-06
-4.18865e-12
-7.03857e-06
-2.45067e-06
-8.42618e-12
-6.4398e-06
-3.38134e-06
-1.68153e-11
-5.67652e-06
-4.25552e-06
-2.95665e-11
-4.75836e-06
-5.04925e-06
-4.61931e-11
-3.70148e-06
-5.73502e-06
-6.47882e-11
-2.52994e-06
-6.2836e-06
-7.94455e-11
-1.27621e-06
-6.66658e-06
-7.79843e-11
-6.7555e-06
-1.18396e-11
-1.47097e-06
8.2239e-06
1.05627e-11
-2.91049e-06
8.10375e-06
8.44546e-11
-4.24615e-06
7.61744e-06
7.94276e-11
-5.43989e-06
6.92766e-06
5.64456e-11
-6.46614e-06
6.0752e-06
3.07103e-11
-7.31034e-06
5.10023e-06
9.65605e-12
-7.96631e-06
4.03851e-06
-3.56923e-12
-8.43308e-06
2.91919e-06
-9.75205e-12
-8.7121e-06
1.76457e-06
-9.66451e-12
-8.80515e-06
5.91206e-07
-5.84065e-12
-8.71292e-06
-5.88058e-07
-6.5774e-13
-8.43465e-06
-1.76167e-06
3.72298e-12
-7.96853e-06
-2.91679e-06
4.16923e-12
-7.31304e-06
-4.03683e-06
-1.99233e-12
-6.46907e-06
-5.09947e-06
-1.6124e-11
-5.44279e-06
-6.07549e-06
-3.7488e-11
-4.2487e-06
-6.92904e-06
-6.41688e-11
-2.9124e-06
-7.61982e-06
-8.88612e-11
-1.47198e-06
-8.10691e-06
-9.54772e-11
-8.22746e-06
-2.5389e-11
-1.72096e-06
9.94483e-06
3.22222e-11
-3.39574e-06
9.77842e-06
1.08134e-10
-4.93389e-06
9.15549e-06
8.92842e-11
-6.29045e-06
8.28418e-06
5.05341e-11
-7.43956e-06
7.2243e-06
1.25473e-11
-8.37093e-06
6.03161e-06
-1.37784e-11
-9.08487e-06
4.75247e-06
-2.78785e-11
-9.58721e-06
3.42157e-06
-2.96932e-11
-9.88514e-06
2.06252e-06
-2.24677e-11
-9.98414e-06
6.90214e-07
-1.00855e-11
-9.88621e-06
-6.85995e-07
3.60496e-12
-9.58928e-06
-2.05862e-06
1.63442e-11
-9.08781e-06
-3.41829e-06
2.41659e-11
-8.37454e-06
-4.75012e-06
2.19361e-11
-7.44354e-06
-6.03047e-06
6.52268e-12
-6.29443e-06
-7.22458e-06
-2.06253e-11
-4.93744e-06
-8.28597e-06
-5.95444e-11
-3.39842e-06
-9.15873e-06
-1.00316e-10
-1.7224e-06
-9.78281e-06
-1.21327e-10
-9.94981e-06
-4.86413e-11
-2.04387e-06
1.19886e-05
6.90482e-11
-4.01659e-06
1.1751e-05
1.41934e-10
-5.80203e-06
1.09408e-05
9.70296e-11
-7.3476e-06
9.82971e-06
3.25493e-11
-8.63023e-06
8.50695e-06
-2.0417e-11
-9.64876e-06
7.0502e-06
-5.47274e-11
-1.0415e-05
5.51879e-06
-6.60559e-11
-1.09459e-05
3.95249e-06
-5.99029e-11
-1.12573e-05
2.37397e-06
-4.13022e-11
-1.13603e-05
7.93197e-07
-1.57435e-11
-1.12587e-05
-7.87595e-07
1.05066e-11
-1.09486e-05
-2.36875e-06
3.4888e-11
-1.04189e-05
-3.94803e-06
5.3708e-11
-9.65357e-06
-5.5155e-06
5.92325e-11
-8.63562e-06
-7.04846e-06
4.5778e-11
-7.35309e-06
-8.50712e-06
9.85838e-12
-5.80702e-06
-9.832e-06
-4.4899e-11
-4.02041e-06
-1.09452e-05
-1.11294e-10
-2.04594e-06
-1.17571e-05
-1.5856e-10
-1.19957e-05
-8.89152e-11
-2.46903e-06
1.44575e-05
1.33972e-10
-4.82266e-06
1.41044e-05
1.88903e-10
-6.90815e-06
1.30262e-05
9.5779e-11
-8.66647e-06
1.1588e-05
-8.5886e-12
-1.00844e-05
9.925e-06
-8.31392e-11
-1.11787e-05
8.14463e-06
-1.19936e-10
-1.19807e-05
6.32086e-06
-1.2308e-10
-1.25242e-05
4.49615e-06
-1.02854e-10
-1.28382e-05
2.68795e-06
-6.76871e-11
-1.29412e-05
8.96283e-07
-2.38963e-11
-1.28399e-05
-8.88921e-07
1.99127e-11
-1.25277e-05
-2.68102e-06
6.03565e-11
-1.19857e-05
-4.49011e-06
9.53338e-11
-1.11851e-05
-6.31623e-06
1.15002e-10
-1.00917e-05
-8.14197e-06
1.08836e-10
-8.67406e-06
-9.92485e-06
6.89001e-11
-6.91521e-06
-1.15908e-05
-6.60886e-12
-4.8282e-06
-1.30321e-05
-1.15045e-10
-2.47209e-06
-1.4113e-05
-2.11201e-10
-1.44676e-05
-1.60214e-10
-3.04561e-06
1.75029e-05
2.51373e-10
-5.89278e-06
1.69514e-05
2.50417e-10
-8.33825e-06
1.54716e-05
6.84952e-11
-1.0324e-05
1.35739e-05
-9.16684e-11
-1.18617e-05
1.14629e-05
-1.89397e-10
-1.30012e-05
9.2843e-06
-2.20223e-10
-1.3805e-05
7.12493e-06
-2.0288e-10
-1.43326e-05
5.0239e-06
-1.58393e-10
-1.46303e-05
2.98573e-06
-1.00567e-10
-1.4727e-05
9.93017e-07
-3.43539e-11
-1.46325e-05
-9.83465e-07
3.14271e-11
-1.4337e-05
-2.97663e-06
9.29653e-11
-1.38115e-05
-5.01576e-06
1.50794e-10
-1.30095e-05
-7.1184e-06
1.94677e-10
-1.18715e-05
-9.28015e-06
2.07872e-10
-1.03345e-05
-1.1462e-05
1.72569e-10
-8.34835e-06
-1.35771e-05
7.04195e-11
-5.90097e-06
-1.54794e-05
-9.52576e-11
-3.05027e-06
-1.69634e-05
-2.82014e-10
-1.75176e-05
-2.88872e-10
-3.86084e-06
2.13633e-05
4.68328e-10
-7.3563e-06
2.04465e-05
3.13711e-10
-1.02229e-05
1.83383e-05
-2.40093e-11
-1.24276e-05
1.57788e-05
-2.61624e-10
-1.40371e-05
1.30728e-05
-3.67468e-10
-1.51593e-05
1.04069e-05
-3.69157e-10
-1.59061e-05
7.87196e-06
-3.10091e-10
-1.63715e-05
5.48957e-06
-2.256e-10
-1.66241e-05
3.23849e-06
-1.3727e-10
-1.67047e-05
1.07365e-06
-4.58034e-11
-1.66268e-05
-1.06146e-06
4.41301e-11
-1.63768e-05
-3.2267e-06
1.30931e-10
-1.59141e-05
-5.47871e-06
2.19358e-10
-1.517e-05
-7.86276e-06
3.01608e-10
-1.40501e-05
-1.04004e-05
3.55311e-10
-1.24421e-05
-1.30703e-05
3.47513e-10
-1.02376e-05
-1.57819e-05
2.34229e-10
-7.36868e-06
-1.83483e-05
-7.27979e-12
-3.86822e-06
-2.04635e-05
-3.61052e-10
-2.13853e-05
-5.25937e-10
-5.07966e-06
2.6442e-05
8.79188e-10
-9.43189e-06
2.47984e-05
3.16548e-10
-1.2762e-05
2.16687e-05
-2.70578e-10
-1.51246e-05
1.81419e-05
-5.82709e-10
-1.66993e-05
1.46481e-05
-6.48472e-10
-1.76935e-05
1.14017e-05
-5.72273e-10
-1.82893e-05
8.46818e-06
-4.39886e-10
-1.86243e-05
5.82489e-06
-2.97809e-10
-1.8791e-05
3.40544e-06
-1.71793e-10
-1.8842e-05
1.12466e-06
-5.56046e-11
-1.87941e-05
-1.10944e-06
5.61592e-11
-1.86305e-05
-3.39046e-06
1.68551e-10
-1.82989e-05
-5.81056e-06
2.94179e-10
-1.77069e-05
-8.45527e-06
4.31987e-10
-1.67163e-05
-1.13915e-05
5.58934e-10
-1.51447e-05
-1.46426e-05
6.26286e-10
-1.27834e-05
-1.81438e-05
5.47808e-10
-9.45113e-06
-2.16807e-05
2.17702e-10
-5.09197e-06
-2.48223e-05
-3.89027e-10
-2.64763e-05
-9.74871e-10
-7.03488e-06
3.34752e-05
1.67908e-09
-1.2498e-05
3.02615e-05
3.63357e-11
-1.62597e-05
2.54312e-05
-8.63725e-10
-1.86074e-05
2.04908e-05
-1.15281e-09
-1.99422e-05
1.5984e-05
-1.05603e-09
-2.06276e-05
1.20879e-05
-8.15301e-10
-2.09351e-05
8.77617e-06
-5.67103e-10
-2.10469e-05
5.93713e-06
-3.54441e-10
-2.10753e-05
3.43396e-06
-1.91346e-10
-2.10796e-05
1.12905e-06
-5.86858e-11
-2.10786e-05
-1.11054e-06
6.42391e-11
-2.10538e-05
-3.41538e-06
1.94379e-10
-2.09462e-05
-5.91858e-06
3.56966e-10
-2.06437e-05
-8.75827e-06
5.65152e-10
-1.9964e-05
-1.20721e-05
8.08621e-10
-1.86348e-05
-1.59728e-05
1.03577e-09
-1.6291e-05
-2.04887e-05
1.112e-09
-1.25288e-05
-2.54438e-05
7.93057e-10
-7.05679e-06
-3.02941e-05
-1.52817e-10
-3.35312e-05
-1.85146e-09
-1.04369e-05
4.39089e-05
3.26064e-09
-1.72184e-05
3.70442e-05
-1.15718e-09
-2.11629e-05
2.93778e-05
-2.12746e-09
-2.31024e-05
2.24324e-05
-2.06677e-09
-2.38384e-05
1.67216e-05
-1.56757e-09
-2.3944e-05
1.21945e-05
-1.04098e-09
-2.37797e-05
8.6126e-06
-6.37652e-10
-2.35557e-05
5.71345e-06
-3.57888e-10
-2.33858e-05
3.2642e-06
-1.75694e-10
-2.33248e-05
1.06807e-06
-4.76966e-11
-2.3389e-05
-1.04636e-06
6.39163e-11
-2.35627e-05
-3.24188e-06
1.90939e-10
-2.37915e-05
-5.69011e-06
3.74065e-10
-2.39621e-05
-8.58831e-06
6.51654e-10
-2.38649e-05
-1.21703e-05
1.05195e-09
-2.31387e-05
-1.67006e-05
1.56132e-09
-2.12087e-05
-2.24207e-05
2.03437e-09
-1.72687e-05
-2.93859e-05
2.04401e-09
-1.04786e-05
-3.70852e-05
9.86315e-10
-4.40062e-05
-3.58655e-09
-1.6869e-05
6.07721e-05
5.79971e-09
-2.47497e-05
4.49298e-05
-5.00844e-09
-2.80645e-05
3.26972e-05
-4.4533e-09
-2.88122e-05
2.31833e-05
-3.27763e-09
-2.83773e-05
1.62887e-05
-2.01317e-09
-2.75386e-05
1.13569e-05
-1.10166e-09
-2.66904e-05
7.76498e-06
-5.56789e-10
-2.60152e-05
5.03849e-06
-2.56856e-10
-2.55909e-05
2.84004e-06
-1.01231e-10
-2.54478e-05
9.24934e-07
-1.49071e-11
-2.55936e-05
-9.00631e-07
5.18824e-11
-2.60212e-05
-2.81441e-06
1.39889e-10
-2.67013e-05
-5.01028e-06
3.01203e-10
-2.7557e-05
-7.73322e-06
6.06913e-10
-2.8407e-05
-1.13215e-05
1.15859e-09
-2.88579e-05
-1.62518e-05
2.06389e-09
-2.813e-05
-2.31519e-05
3.30909e-09
-2.48332e-05
-3.26871e-05
4.40149e-09
-1.6956e-05
-4.49671e-05
4.77911e-09
-6.09557e-05
-6.52035e-09
-3.03428e-05
9.10962e-05
1.86273e-08
-3.69019e-05
5.1503e-05
-1.40263e-08
-3.75665e-05
3.33694e-05
-7.58692e-09
-3.57369e-05
2.1358e-05
-4.21118e-09
-3.33361e-05
1.38897e-05
-1.92552e-09
-3.115e-05
9.17153e-06
-7.28994e-10
-2.94276e-05
6.04284e-06
-2.01463e-10
-2.82174e-05
3.82831e-06
-7.11772e-12
-2.75058e-05
2.12841e-06
4.77185e-11
-2.72719e-05
6.90911e-07
4.62446e-11
-2.75071e-05
-6.65435e-07
3.08868e-11
-2.82207e-05
-2.10082e-06
3.50911e-11
-2.94348e-05
-3.7963e-06
1.02054e-10
-3.11645e-05
-6.00384e-06
3.33724e-10
-3.3364e-05
-9.12297e-06
9.03077e-10
-3.57874e-05
-1.38304e-05
2.14633e-09
-3.76514e-05
-2.12924e-05
4.47355e-09
-3.70259e-05
-3.33203e-05
7.78469e-09
-3.04984e-05
-5.15086e-05
1.40149e-08
-9.14348e-05
-1.9344e-08
-5.1379e-05
0.000142531
-5.60911e-08
-5.28035e-05
5.29813e-05
-5.38625e-08
-4.74447e-05
2.80249e-05
-1.427e-08
-4.1112e-05
1.50294e-05
-4.23304e-09
-3.59218e-05
8.70013e-06
-6.12558e-10
-3.20909e-05
5.34033e-06
3.79967e-10
-2.9418e-05
3.36936e-06
5.0895e-10
-2.76731e-05
2.08302e-06
4.0632e-10
-2.66887e-05
1.14378e-06
2.69168e-10
-2.63688e-05
3.7086e-07
1.42894e-10
-2.66824e-05
-3.51877e-07
2.92355e-11
-2.76603e-05
-1.12287e-06
-7.64253e-11
-2.93984e-05
-2.05799e-06
-1.63924e-10
-3.20645e-05
-3.33761e-06
-1.71792e-10
-3.58882e-05
-5.29933e-06
1.13923e-10
-4.10704e-05
-8.64966e-06
1.36342e-09
-4.73937e-05
-1.49745e-05
5.3592e-09
-5.26895e-05
-2.80402e-05
1.56521e-08
-5.11843e-05
-5.30697e-05
5.59183e-08
-0.000142673
5.35597e-08
0.000142397
1.33891e-07
0.000195428
-4.93251e-08
0.000223436
1.68372e-08
0.000238458
7.7988e-09
0.000247154
4.20637e-09
0.000252492
2.28313e-09
0.00025586
1.25747e-09
0.000257942
7.07816e-10
0.000259086
3.9647e-10
0.000259456
1.97861e-10
0.000259104
4.13246e-11
0.000257982
-1.25911e-10
0.000255924
-3.6346e-10
0.000252587
-7.78175e-10
0.000247289
-1.5839e-09
0.000238643
-3.20517e-09
0.000223675
-6.34592e-09
0.000195651
-1.664e-08
0.000142533
4.82002e-08
-1.39377e-07
-7.888e-07
7.88934e-07
-3.98917e-11
-1.5698e-06
7.81102e-07
1.27644e-10
-2.31024e-06
7.40479e-07
5.15611e-11
-2.99132e-06
6.81113e-07
5.80079e-11
-3.59633e-06
6.05037e-07
5.4255e-11
-4.11091e-06
5.14601e-07
4.69238e-11
-4.52327e-06
4.1238e-07
3.74922e-11
-4.82429e-06
3.01035e-07
2.67666e-11
-5.0075e-06
1.83223e-07
1.52464e-11
-5.06906e-06
6.15597e-08
3.22381e-12
-5.00768e-06
-6.13877e-08
-9.06314e-12
-4.82462e-06
-1.83068e-07
-2.14137e-11
-4.52372e-06
-3.00911e-07
-3.35264e-11
-4.11144e-06
-4.12301e-07
-4.50847e-11
-3.5969e-06
-5.14572e-07
-5.55878e-11
-2.99187e-06
-6.05059e-07
-6.42646e-11
-2.31073e-06
-6.8118e-07
-7.01366e-11
-1.57019e-06
-7.40574e-07
-7.17334e-11
-7.89035e-07
-7.81193e-07
-6.67862e-11
-7.89047e-07
-4.94463e-11
-8.21894e-07
1.61087e-06
9.81621e-11
-1.63537e-06
1.59459e-06
1.21145e-10
-2.40622e-06
1.51133e-06
8.55953e-11
-3.11482e-06
1.38972e-06
7.00238e-11
-3.7438e-06
1.23402e-06
5.75503e-11
-4.27836e-06
1.04916e-06
4.61314e-11
-4.70641e-06
8.40436e-07
3.51276e-11
-5.01869e-06
6.13321e-07
2.44278e-11
-5.20868e-06
3.73213e-07
1.39252e-11
-5.27251e-06
1.25383e-07
3.53305e-12
-5.20888e-06
-1.25017e-07
-6.65362e-12
-5.01907e-06
-3.72881e-07
-1.6833e-11
-4.70693e-06
-6.13054e-07
-2.68784e-11
-4.27898e-06
-8.40261e-07
-3.65959e-11
-3.74447e-06
-1.04909e-06
-4.55586e-11
-3.11547e-06
-1.23407e-06
-5.29569e-11
-2.40679e-06
-1.38987e-06
-5.77206e-11
-1.63582e-06
-1.51156e-06
-5.83131e-11
-8.22162e-07
-1.59486e-06
-5.23936e-11
-1.61119e-06
-3.50023e-11
-8.64055e-07
2.4749e-06
4.17021e-12
-1.71877e-06
2.4493e-06
7.23407e-11
-2.52786e-06
2.32042e-06
6.13671e-11
-3.27057e-06
2.13243e-06
5.42323e-11
-3.92876e-06
1.89223e-06
4.63738e-11
-4.48721e-06
1.60761e-06
3.77882e-11
-4.93371e-06
1.28693e-06
2.88557e-11
-5.25902e-06
9.38637e-07
1.99918e-11
-5.45676e-06
5.7095e-07
1.13366e-11
-5.52316e-06
1.91786e-07
2.80982e-12
-5.45699e-06
-1.9119e-07
-5.57575e-12
-5.25946e-06
-5.70409e-07
-1.39892e-11
-4.93431e-06
-9.38203e-07
-2.2492e-11
-4.48793e-06
-1.28664e-06
-3.10094e-11
-3.92953e-06
-1.6075e-06
-3.91606e-11
-3.27131e-06
-1.8923e-06
-4.61524e-11
-2.5285e-06
-2.13269e-06
-5.07595e-11
-1.71925e-06
-2.32082e-06
-5.12376e-11
-8.64326e-07
-2.44979e-06
-4.50007e-11
-2.47549e-06
-2.64269e-11
-9.29252e-07
3.40413e-06
9.1574e-12
-1.84763e-06
3.36768e-06
5.41863e-11
-2.71553e-06
3.18832e-06
5.13675e-11
-3.51042e-06
2.92733e-06
4.65518e-11
-4.21302e-06
2.59483e-06
3.99823e-11
-4.80753e-06
2.20212e-06
3.23203e-11
-5.28166e-06
1.76107e-06
2.43826e-11
-5.6264e-06
1.28337e-06
1.6688e-11
-5.83563e-06
7.8018e-07
9.38098e-12
-5.90585e-06
2.62007e-07
2.38339e-12
-5.83591e-06
-2.61128e-07
-4.58129e-12
-5.62694e-06
-7.79382e-07
-1.16804e-11
-5.28242e-06
-1.28273e-06
-1.91646e-11
-4.80842e-06
-1.76064e-06
-2.70324e-11
-4.21397e-06
-2.20196e-06
-3.50455e-11
-3.51134e-06
-2.59495e-06
-4.23736e-11
-2.71632e-06
-2.92772e-06
-4.75612e-11
-1.84822e-06
-3.18894e-06
-4.86386e-11
-9.29566e-07
-3.36846e-06
-4.24742e-11
-3.40504e-06
-2.27601e-11
-1.0201e-06
4.42421e-06
1.01632e-11
-2.02693e-06
4.37451e-06
4.57039e-11
-2.97604e-06
4.13744e-06
4.69395e-11
-3.84239e-06
3.79369e-06
4.27093e-11
-4.60519e-06
3.35764e-06
3.57179e-11
-5.24808e-06
2.84502e-06
2.77802e-11
-5.75891e-06
2.2719e-06
2.00973e-11
-6.12918e-06
1.65364e-06
1.3198e-11
-6.35342e-06
1.00442e-06
7.15224e-12
-6.42861e-06
3.372e-07
1.71957e-12
-6.35378e-06
-3.35958e-07
-3.62579e-12
-6.12987e-06
-1.00329e-06
-9.33818e-12
-5.75988e-06
-1.65273e-06
-1.5894e-11
-5.24924e-06
-2.27129e-06
-2.32885e-11
-4.60642e-06
-2.84478e-06
-3.1424e-11
-3.84358e-06
-3.3578e-06
-3.95644e-11
-2.97707e-06
-3.79425e-06
-4.60527e-11
-2.02769e-06
-4.13834e-06
-4.84617e-11
-1.0205e-06
-4.37566e-06
-4.28889e-11
-4.42552e-06
-2.20954e-11
-1.14042e-06
5.56461e-06
1.26333e-11
-2.26386e-06
5.49796e-06
4.28434e-11
-3.3191e-06
5.19271e-06
4.5174e-11
-4.2777e-06
4.75231e-06
3.97522e-11
-5.11708e-06
4.19703e-06
3.10262e-11
-5.82054e-06
3.54849e-06
2.18883e-11
-6.37659e-06
2.82795e-06
1.39692e-11
-6.7779e-06
2.05495e-06
7.87811e-12
-7.0202e-06
1.24673e-06
3.52581e-12
-7.10134e-06
4.18345e-07
2.65974e-13
-7.02067e-06
-4.16628e-07
-2.68929e-12
-6.77881e-06
-1.24516e-06
-6.25234e-12
-6.37786e-06
-2.05368e-06
-1.13637e-11
-5.82207e-06
-2.82709e-06
-1.81187e-11
-5.11871e-06
-3.54814e-06
-2.65236e-11
-4.27929e-06
-4.19724e-06
-3.59803e-11
-3.32048e-06
-4.75308e-06
-4.46295e-11
-2.26487e-06
-5.19397e-06
-4.94159e-11
-1.14095e-06
-5.49959e-06
-4.53451e-11
-5.56645e-06
-2.38059e-11
-1.29579e-06
6.86038e-06
1.63792e-11
-2.56881e-06
6.77102e-06
4.36951e-11
-3.75851e-06
6.38243e-06
4.45946e-11
-4.83193e-06
5.82575e-06
3.59683e-11
-5.76465e-06
5.12977e-06
2.40366e-11
-6.54024e-06
4.3241e-06
1.28692e-11
-7.1489e-06
3.43662e-06
4.63951e-12
-7.58556e-06
2.49162e-06
-6.29992e-14
-7.8481e-06
1.50927e-06
-2.30693e-12
-7.93586e-06
5.06109e-07
-2.27247e-12
-7.84872e-06
-5.03768e-07
-1.56263e-12
-7.58676e-06
-1.50712e-06
-1.62567e-12
-7.15059e-06
-2.48986e-06
-4.11851e-12
-6.54227e-06
-3.43541e-06
-9.70265e-12
-5.76684e-06
-4.32358e-06
-1.84625e-11
-4.83407e-06
-5.13003e-06
-2.99182e-11
-3.76037e-06
-5.82679e-06
-4.20079e-11
-2.5702e-06
-6.38418e-06
-5.08679e-11
-1.29651e-06
-6.77331e-06
-4.98988e-11
-6.86295e-06
-2.82492e-11
-1.49436e-06
8.35473e-06
2.28013e-11
-2.9568e-06
8.23349e-06
4.80033e-11
-4.31371e-06
7.73937e-06
4.44363e-11
-5.52644e-06
7.03851e-06
2.98325e-11
-6.56902e-06
6.17237e-06
1.29771e-11
-7.42668e-06
5.18177e-06
-1.81192e-13
-8.09311e-06
4.10305e-06
-9.65645e-12
-8.56731e-06
2.96583e-06
-1.23559e-11
-8.85079e-06
1.79275e-06
-1.03612e-11
-8.94532e-06
6.00634e-07
-5.53227e-12
-8.85161e-06
-5.97471e-07
2.93553e-13
-8.5689e-06
-1.78984e-06
5.76552e-12
-8.09535e-06
-2.96342e-06
7.66671e-12
-7.4294e-06
-4.10137e-06
3.99103e-12
-6.57199e-06
-5.18101e-06
-5.24405e-12
-5.52937e-06
-6.17266e-06
-1.945e-11
-4.31628e-06
-7.0399e-06
-3.69268e-11
-2.95872e-06
-7.74178e-06
-5.25226e-11
-1.49538e-06
-8.23668e-06
-5.71885e-11
-8.35832e-06
-3.62318e-11
-1.74832e-06
1.0103e-05
3.33892e-11
-3.44975e-06
9.93497e-06
5.55527e-11
-5.01235e-06
9.30202e-06
4.28446e-11
-6.39051e-06
8.41669e-06
1.83512e-11
-7.55792e-06
7.3398e-06
-5.35574e-12
-8.50414e-06
6.128e-06
-2.38818e-11
-9.22947e-06
4.82838e-06
-3.10638e-11
-9.73983e-06
3.47619e-06
-2.94998e-11
-1.00425e-05
2.09543e-06
-2.12133e-11
-1.01431e-05
7.01209e-07
-9.27448e-12
-1.00436e-05
-6.96973e-07
3.88445e-12
-9.74192e-06
-2.09151e-06
1.66421e-11
-9.23244e-06
-3.4729e-06
2.52333e-11
-8.50778e-06
-4.82603e-06
2.60014e-11
-7.56194e-06
-6.12686e-06
1.71929e-11
-6.39452e-06
-7.3401e-06
-2.39184e-12
-5.01593e-06
-8.41852e-06
-2.70532e-11
-3.45245e-06
-9.30531e-06
-5.32578e-11
-1.74977e-06
-9.93942e-06
-6.77632e-11
-1.01081e-05
-4.91301e-11
-2.07633e-06
1.21794e-05
4.98396e-11
-4.08042e-06
1.19391e-05
6.5426e-11
-5.89426e-06
1.11159e-05
3.60762e-11
-7.46444e-06
9.9869e-06
-2.23087e-12
-8.76751e-06
8.64289e-06
-4.07554e-11
-9.8023e-06
7.16279e-06
-6.00009e-11
-1.05808e-05
5.60688e-06
-6.40615e-11
-1.11202e-05
4.01554e-06
-5.52908e-11
-1.14365e-05
2.41182e-06
-3.69742e-11
-1.15412e-05
8.05818e-07
-1.37774e-11
-1.14379e-05
-8.00194e-07
9.85514e-12
-1.11229e-05
-2.40657e-06
3.26565e-11
-1.05847e-05
-4.01107e-06
5.07962e-11
-9.80715e-06
-5.60358e-06
5.86181e-11
-8.77295e-06
-7.16107e-06
5.22445e-11
-7.46997e-06
-8.6431e-06
3.0204e-11
-5.89929e-06
-9.98924e-06
-8.37126e-12
-4.08427e-06
-1.11204e-05
-5.00801e-11
-2.07842e-06
-1.19453e-05
-8.18097e-11
-1.21865e-05
-6.99616e-11
-2.5082e-06
1.46876e-05
7.71424e-11
-4.89923e-06
1.43303e-05
7.65452e-11
-7.01788e-06
1.32347e-05
1.90941e-11
-8.80421e-06
1.17733e-05
-5.00566e-11
-1.02448e-05
1.00835e-05
-9.60241e-11
-1.13566e-05
8.2746e-06
-1.15509e-10
-1.21714e-05
6.42166e-06
-1.11912e-10
-1.27237e-05
4.56781e-06
-9.1143e-11
-1.30426e-05
2.73076e-06
-5.8864e-11
-1.31473e-05
9.10526e-07
-2.01959e-11
-1.30444e-05
-9.03133e-07
1.80747e-11
-1.27272e-05
-2.7238e-06
5.44739e-11
-1.21765e-05
-4.56175e-06
8.62216e-11
-1.1363e-05
-6.41702e-06
1.05806e-10
-1.02522e-05
-8.27195e-06
1.06319e-10
-8.81187e-06
-1.00834e-05
8.31756e-11
-7.02501e-06
-1.17761e-05
3.33088e-11
-4.90482e-06
-1.32407e-05
-3.70281e-11
-2.51129e-06
-1.4339e-05
-9.89832e-11
-1.46979e-05
-1.04181e-10
-3.09386e-06
1.77816e-05
1.24053e-10
-5.98623e-06
1.72228e-05
8.61456e-11
-8.47059e-06
1.57191e-05
-2.1747e-11
-1.0488e-05
1.37907e-05
-1.30047e-10
-1.20503e-05
1.16458e-05
-1.84394e-10
-1.3208e-05
9.43229e-06
-1.9695e-10
-1.40248e-05
7.23842e-06
-1.76687e-10
-1.45609e-05
5.10387e-06
-1.36425e-10
-1.48634e-05
3.03323e-06
-8.54054e-11
-1.49616e-05
1.00877e-06
-2.81131e-11
-1.48656e-05
-9.99181e-07
2.83434e-11
-1.45653e-05
-3.02409e-06
8.21759e-11
-1.40313e-05
-5.09571e-06
1.32693e-10
-1.32164e-05
-7.23188e-06
1.71515e-10
-1.20602e-05
-9.42816e-06
1.87882e-10
-1.04986e-05
-1.1645e-05
1.70166e-10
-8.48079e-06
-1.3794e-05
1.10456e-10
-5.99449e-06
-1.5727e-05
-5.32746e-12
-3.09856e-06
-1.72351e-05
-1.1689e-10
-1.77966e-05
-1.61986e-10
-3.92187e-06
2.17038e-05
2.06523e-10
-7.47278e-06
2.0774e-05
8.09998e-11
-1.0385e-05
1.86315e-05
-1.29548e-10
-1.26249e-05
1.60306e-05
-2.69846e-10
-1.42602e-05
1.32811e-05
-3.24995e-10
-1.54005e-05
1.05726e-05
-3.13712e-10
-1.61593e-05
7.99717e-06
-2.61344e-10
-1.66323e-05
5.57684e-06
-1.90309e-10
-1.68891e-05
3.28993e-06
-1.14683e-10
-1.6971e-05
1.09065e-06
-3.63314e-11
-1.68917e-05
-1.07841e-06
4.01054e-11
-1.66377e-05
-3.27809e-06
1.14541e-10
-1.61674e-05
-5.56593e-06
1.89558e-10
-1.54113e-05
-7.98795e-06
2.58114e-10
-1.42733e-05
-1.05661e-05
3.05367e-10
-1.26396e-05
-1.32787e-05
3.09462e-10
-1.03998e-05
-1.60338e-05
2.45868e-10
-7.48528e-06
-1.86416e-05
9.40344e-11
-3.92933e-06
-2.07913e-05
-1.24958e-10
-2.17262e-05
-2.6253e-10
-5.15975e-06
2.6864e-05
3.56435e-10
-9.58092e-06
2.51954e-05
2.64791e-11
-1.29641e-05
2.20147e-05
-3.45157e-10
-1.53645e-05
1.84309e-05
-5.10466e-10
-1.69646e-05
1.48811e-05
-5.34451e-10
-1.7975e-05
1.15829e-05
-4.66959e-10
-1.85806e-05
8.60265e-06
-3.61082e-10
-1.89211e-05
5.91733e-06
-2.46924e-10
-1.90907e-05
3.45945e-06
-1.41858e-10
-1.91425e-05
1.14244e-06
-4.2718e-11
-1.90937e-05
-1.12714e-06
5.20673e-11
-1.89274e-05
-3.44439e-06
1.47578e-10
-1.85904e-05
-5.90295e-06
2.51907e-10
-1.79885e-05
-8.5897e-06
3.62474e-10
-1.69819e-05
-1.15727e-05
4.62779e-10
-1.53848e-05
-1.48757e-05
5.20099e-10
-1.29856e-05
-1.84329e-05
4.82255e-10
-9.60037e-06
-2.2027e-05
2.97359e-10
-5.17221e-06
-2.52197e-05
-8.56022e-11
-2.68989e-05
-4.43151e-10
-7.1454e-06
3.40105e-05
6.43119e-10
-1.2695e-05
3.07453e-05
-2.47028e-10
-1.65167e-05
2.58363e-05
-7.60956e-10
-1.89024e-05
2.08164e-05
-9.04143e-10
-2.02591e-05
1.62376e-05
-8.2136e-10
-2.0956e-05
1.22795e-05
-6.43552e-10
-2.12687e-05
8.91526e-06
-4.56989e-10
-2.13826e-05
6.03118e-06
-2.91332e-10
-2.14115e-05
3.48833e-06
-1.57553e-10
-2.14159e-05
1.14686e-06
-4.37238e-11
-2.14148e-05
-1.12825e-06
6.20147e-11
-2.13896e-05
-3.46964e-06
1.7336e-10
-2.12799e-05
-6.01255e-06
3.07078e-10
-2.09722e-05
-8.89727e-06
4.6961e-10
-2.02811e-05
-1.22636e-05
6.51108e-10
-1.89301e-05
-1.62264e-05
8.15115e-10
-1.65484e-05
-2.08144e-05
8.77196e-10
-1.27261e-05
-2.58492e-05
7.01967e-10
-7.16759e-06
-3.07785e-05
1.38903e-10
-3.40676e-05
-7.82182e-10
-1.06001e-05
4.46126e-05
1.20053e-09
-1.74888e-05
3.76339e-05
-9.87671e-10
-2.14969e-05
2.98438e-05
-1.55032e-09
-2.34685e-05
2.27874e-05
-1.49077e-09
-2.42173e-05
1.6986e-05
-1.16247e-09
-2.43253e-05
1.23873e-05
-8.02784e-10
-2.4159e-05
8.7488e-06
-5.11931e-10
-2.39317e-05
5.8038e-06
-2.97892e-10
-2.37591e-05
3.31579e-06
-1.47624e-10
-2.36972e-05
1.08489e-06
-3.40982e-11
-2.37624e-05
-1.06304e-06
6.74666e-11
-2.39387e-05
-3.29333e-06
1.80634e-10
-2.41709e-05
-5.78031e-06
3.32898e-10
-2.43437e-05
-8.72436e-06
5.46696e-10
-2.42441e-05
-1.2363e-05
8.346e-10
-2.35052e-05
-1.69649e-05
1.17888e-09
-2.15433e-05
-2.27758e-05
1.4801e-09
-1.75397e-05
-2.98522e-05
1.48864e-09
-1.06423e-05
-3.76758e-05
8.46435e-10
-4.4712e-05
-1.43348e-09
-1.71303e-05
6.17465e-05
2.15906e-09
-2.51367e-05
4.56381e-05
-2.85924e-09
-2.85069e-05
3.32125e-05
-2.89217e-09
-2.92689e-05
2.35483e-05
-2.21767e-09
-2.88288e-05
1.65453e-05
-1.44678e-09
-2.79777e-05
1.1536e-05
-8.5175e-10
-2.71165e-05
7.88752e-06
-4.66749e-10
-2.64308e-05
5.11803e-06
-2.34568e-10
-2.59998e-05
2.88485e-06
-9.76589e-11
-2.58544e-05
9.39467e-07
-8.68807e-12
-2.60025e-05
-9.14975e-07
6.66262e-11
-2.64368e-05
-2.85902e-06
1.58667e-10
-2.71275e-05
-5.08959e-06
3.02567e-10
-2.79963e-05
-7.8555e-06
5.42194e-10
-2.88589e-05
-1.15003e-05
9.33015e-10
-2.93152e-05
-1.65081e-05
1.52129e-09
-2.85732e-05
-2.35167e-05
2.26545e-09
-2.52214e-05
-3.32025e-05
2.86206e-09
-1.72187e-05
-4.56763e-05
2.68765e-09
-6.19347e-05
-2.5765e-09
-3.08114e-05
9.25704e-05
6.13471e-09
-3.74783e-05
5.22981e-05
-7.10744e-09
-3.81591e-05
3.38905e-05
-4.72994e-09
-3.63045e-05
2.16922e-05
-2.77779e-09
-3.38675e-05
1.41078e-05
-1.41681e-09
-3.16474e-05
9.31585e-06
-6.46137e-10
-2.98979e-05
6.13806e-06
-2.60034e-10
-2.86685e-05
3.88868e-06
-7.6601e-11
-2.79455e-05
2.16196e-06
6.42303e-12
-2.77078e-05
7.01762e-07
3.55414e-11
-2.79468e-05
-6.7602e-07
5.99652e-11
-2.86718e-05
-2.13408e-06
1.02041e-10
-2.99052e-05
-3.85632e-06
1.98504e-10
-3.16622e-05
-6.0986e-06
4.06736e-10
-3.38957e-05
-9.26666e-06
8.21225e-10
-3.63556e-05
-1.40477e-05
1.61522e-09
-3.82452e-05
-2.16256e-05
2.97084e-09
-3.76042e-05
-3.38406e-05
4.83066e-09
-3.09697e-05
-5.23039e-05
7.00109e-09
-9.29171e-05
-6.641e-09
-5.21152e-05
0.000144648
-1.88492e-08
-5.36026e-05
5.37533e-05
-2.17032e-08
-4.81796e-05
2.84606e-05
-7.33372e-09
-4.17532e-05
1.52642e-05
-2.5999e-09
-3.64821e-05
8.8368e-06
-7.27845e-10
-3.25903e-05
5.42444e-06
1.02662e-11
-2.98744e-05
3.42249e-06
1.66463e-10
-2.81014e-05
2.11589e-06
1.74986e-10
-2.71011e-05
1.16183e-06
1.38395e-10
-2.6776e-05
3.76705e-07
9.43085e-11
-2.70946e-05
-3.57448e-07
5.64384e-11
-2.80882e-05
-1.14061e-06
1.92068e-11
-2.98542e-05
-2.09047e-06
1.0951e-11
-3.25628e-05
-3.39023e-06
8.14413e-11
-3.6447e-05
-5.38271e-06
3.71656e-10
-4.17092e-05
-8.78529e-06
1.15206e-09
-4.81249e-05
-1.52076e-05
3.11975e-09
-5.34821e-05
-2.84755e-05
7.80199e-09
-5.19098e-05
-5.38423e-05
2.2111e-08
-0.000144791
1.75074e-08
0.000144729
5.35575e-08
0.000198449
-1.65049e-08
0.000226922
5.08224e-09
0.000242191
2.76994e-09
0.00025103
1.64064e-09
0.000256456
9.78988e-10
0.000259879
5.9533e-10
0.000261995
3.68965e-10
0.000263157
2.28033e-10
0.000263534
1.31631e-10
0.000263177
5.61233e-11
0.000262036
-2.1485e-11
0.000259945
-1.15643e-10
0.000256554
-2.68316e-10
0.000251171
-5.48427e-10
0.000242383
-1.09487e-09
0.000227171
-2.14496e-09
0.000198684
-5.05942e-09
0.000144874
1.59188e-08
-5.59961e-08
-7.88928e-07
7.88913e-07
-2.4879e-11
-1.56997e-06
7.81123e-07
5.06935e-11
-2.31047e-06
7.40512e-07
3.54069e-11
-2.9916e-06
6.81153e-07
3.5299e-11
-3.59666e-06
6.05077e-07
3.38524e-11
-4.11128e-06
5.14637e-07
3.00089e-11