/*--------------------------------*- C++ -*----------------------------------*\
  =========                 |
  \\      /  F ield         | OpenFOAM: The Open Source CFD Toolbox
   \\    /   O peration     | Website:  https://openfoam.org
    \\  /    A nd           | Version:  10
     \\/     M anipulation  |
\*---------------------------------------------------------------------------*/
FoamFile
{
    format      ascii;
    class       volScalarField;
    location    "5.425";
    object      p;
}
// * * * * * * * * * * * * * * * * * * * * * * * * * * * * * * * * * * * * * //

dimensions      [0 2 -2 0 0 0 0];

internalField   nonuniform List<scalar> 
400
(
6.35976e-10
-2.20638e-05
1.51753e-05
8.89994e-05
0.000205597
0.000366057
0.000571797
0.000824221
0.00112394
0.00147003
0.00185923
0.00228501
0.00273661
0.0031983
0.00364895
0.00406273
0.00441036
0.0046625
0.00481188
0.0048006
2.2977e-05
1.60939e-07
4.08015e-05
0.000114038
0.000227633
0.000383397
0.00058323
0.000828933
0.00112149
0.00146043
0.00184305
0.00226319
0.00271067
0.00317076
0.00362246
0.00403974
0.00439245
0.00465061
0.00480837
0.00479492
-1.91544e-05
-4.81627e-05
-9.14381e-06
6.09484e-05
0.000170698
0.00032219
0.000517841
0.000760206
0.00105119
0.00139142
0.00177933
0.00221032
0.00267572
0.00316027
0.00364238
0.00409369
0.0044798
0.00476439
0.0049394
0.00491743
-0.000106829
-0.000140459
-0.000103988
-3.8375e-05
6.58971e-05
0.000211352
0.000401214
0.000639183
0.000928635
0.00127196
0.00166963
0.00211897
0.00261297
0.00313826
0.00367218
0.0041827
0.00462779
0.00496018
0.00516706
0.00513913
-0.000245701
-0.000283861
-0.000251119
-0.00019151
-9.45077e-05
4.29765e-05
0.000225198
0.00045734
0.00074475
0.00109232
0.00150347
0.00197876
0.00251394
0.00309791
0.00370769
0.00430707
0.00484425
0.00525387
0.00551302
0.00548023
-0.000435292
-0.000478615
-0.000450906
-0.000399246
-0.000312074
-0.000185686
-1.46475e-05
0.000207967
0.000489924
0.000839359
0.00126381
0.0017685
0.00235392
0.00301399
0.0037269
0.00445247
0.00512621
0.00565669
0.0059998
0.00596464
-0.000674451
-0.000723953
-0.000702785
-0.00066161
-0.000587846
-0.000477236
-0.000323159
-0.000116817
0.000152308
0.000496282
0.000928066
0.00145971
0.00209871
0.00284822
0.00369182
0.00458866
0.00546002
0.00617946
0.00665938
0.00663242
-0.00096194
-0.0010189
-0.00100599
-0.000978389
-0.000922612
-0.000834085
-0.000705214
-0.000525465
-0.000281533
4.29624e-05
0.000467449
0.00101338
0.0017017
0.00254105
0.00353763
0.00465596
0.0058069
0.00682197
0.00753368
0.00755127
-0.00129617
-0.00136199
-0.00135906
-0.00134841
-0.00131593
-0.00125719
-0.00116417
-0.00102514
-0.000824531
-0.000541946
-0.000151397
0.000379094
0.0010854
0.00200083
0.00315467
0.00453731
0.00606963
0.00754779
0.00867048
0.008843
-0.00167518
-0.00175125
-0.00175957
-0.00176902
-0.00176525
-0.00174477
-0.00170002
-0.00161928
-0.00148599
-0.00127726
-0.00096182
-0.000497603
0.000170176
0.0011074
0.00236851
0.00400724
0.00601312
0.00820371
0.0100783
0.0107257
-0.00209687
-0.00218441
-0.00220406
-0.0022356
-0.00226511
-0.00229096
-0.00230739
-0.00230434
-0.00226677
-0.00217266
-0.00198985
-0.00167179
-0.00115214
-0.000340559
0.000874019
0.00261174
0.00505297
0.00824299
0.0115181
0.0131495
-0.00255989
-0.0026595
-0.00268807
-0.00274125
-0.00280626
-0.00288446
-0.00297344
-0.00306684
-0.0031543
-0.00321964
-0.00323811
-0.00317229
-0.00296418
-0.00252319
-0.00172053
-0.000378186
0.00191153
0.00597671
0.0112679
0.0149855
-0.00306543
-0.00317679
-0.00320794
-0.0032782
-0.00337616
-0.00350787
-0.00367609
-0.00388021
-0.00411816
-0.00438612
-0.00467772
-0.00498377
-0.00529278
-0.00560177
-0.00596201
-0.00640058
-0.00627557
-0.00308229
0.00361446
0.0113093
-0.00361567
-0.00372998
-0.00374606
-0.00382126
-0.00394598
-0.00412954
-0.00437797
-0.00469808
-0.00509892
-0.00559387
-0.00620539
-0.00697478
-0.0079862
-0.00942408
-0.0117544
-0.0155262
-0.0205478
-0.0201897
-0.013169
-0.000223961
-0.0042446
-0.00437414
-0.00436153
-0.00443238
-0.00456051
-0.00476877
-0.00507238
-0.00548787
-0.00603706
-0.0067534
-0.00769387
-0.00895967
-0.010764
-0.0134935
-0.0181091
-0.0256687
-0.0369844
-0.0406566
-0.0345005
-0.0161015
-0.0050316
-0.00496343
-0.00484486
-0.00483189
-0.00494721
-0.0051946
-0.00557496
-0.00609716
-0.00678511
-0.00768215
-0.00886939
-0.0104908
-0.0128662
-0.0164345
-0.022665
-0.0320416
-0.0469367
-0.0529542
-0.0482666
-0.0239812
-0.0055215
-0.00595674
-0.00569827
-0.00574362
-0.00578081
-0.00594863
-0.00626395
-0.00675419
-0.00745086
-0.00839435
-0.00966853
-0.0113935
-0.0139564
-0.017618
-0.0241604
-0.0332702
-0.0470165
-0.0520797
-0.0459121
-0.0112827
-0.00887274
-0.00636221
-0.0057882
-0.00528319
-0.0052832
-0.00554565
-0.00601544
-0.00665126
-0.00746989
-0.0084904
-0.0098107
-0.0114883
-0.0139026
-0.017282
-0.0227728
-0.0296994
-0.0386772
-0.0394248
-0.0269623
0.0236654
-0.00564409
-0.00861901
-0.00763326
-0.00772451
-0.00737077
-0.00723667
-0.00730342
-0.0075986
-0.00816335
-0.00896948
-0.010098
-0.0115712
-0.0137977
-0.0167798
-0.0218087
-0.0271562
-0.0333456
-0.0241054
0.00398963
0.086235
-0.0307061
-0.00571895
-0.00434917
-0.0036743
-0.00355306
-0.00386887
-0.00452816
-0.00530025
-0.00627426
-0.00739144
-0.008838
-0.0105731
-0.0130116
-0.0157559
-0.0190658
-0.0196762
-0.014491
0.0162334
0.0869383
0.224145
)
;

boundaryField
{
    movingWall
    {
        type            zeroGradient;
    }
    fixedWalls
    {
        type            zeroGradient;
    }
    frontAndBack
    {
        type            empty;
    }
}


// ************************************************************************* //
