/*--------------------------------*- C++ -*----------------------------------*\
  =========                 |
  \\      /  F ield         | OpenFOAM: The Open Source CFD Toolbox
   \\    /   O peration     | Website:  https://openfoam.org
    \\  /    A nd           | Version:  10
     \\/     M anipulation  |
\*---------------------------------------------------------------------------*/
FoamFile
{
    format      ascii;
    class       surfaceScalarField;
    location    "8.525";
    object      phi;
}
// * * * * * * * * * * * * * * * * * * * * * * * * * * * * * * * * * * * * * //

dimensions      [0 3 -1 0 0 0 0];

internalField   nonuniform List<scalar> 
928
(
0.0953572
0.00464281
0.103888
-0.00853076
0.105877
-0.00198934
-0.0111441
0.117021
0.0939609
0.010682
0.105834
-0.020404
0.101953
0.00189146
-0.0220664
0.112876
0.0951661
0.0155159
0.111636
-0.0368742
0.104644
0.00888322
-0.0457562
0.128334
0.104132
0.0113842
0.0910499
-0.0237923
0.0982276
0.00170552
0.144574
-0.0921028
0.111197
0.00582423
-0.0172545
0.128452
0.10884
0.00985947
-0.0435721
0.135158
0.12951
0.00868422
-0.0536032
0.139541
0.153258
0.0996551
0.128431
2.0683e-05
0.128736
-0.000304907
0.129149
-0.000413389
-2.14638e-05
0.129171
0.137671
-0.00249241
0.137219
0.000147025
0.136618
0.00018768
0.000463494
0.136133
0.143415
-0.00636718
0.145064
-0.00150121
0.14774
-0.00248876
0.00443522
0.143768
0.115588
-0.0223004
0.0943519
0.0197353
0.109766
-0.0179032
0.10458
0.00962129
0.127282
0.00188847
0.124196
0.00308607
0.122392
0.00180388
0.121511
0.00088106
0.121661
-0.000150126
0.122664
-0.00100261
0.124767
-0.00210279
0.126708
-0.00194082
0.128992
-0.00228452
0.130241
-0.00124883
0.130683
-0.000441913
0.129715
0.000968093
0.128052
0.00166275
0.126007
0.00204498
0.123551
0.00245638
0.121511
0.00203969
0.119233
0.00227846
0.117938
0.0012944
0.11649
0.001448
0.115911
0.000578738
0.115273
0.000638518
0.115066
0.000206917
0.114888
0.000178109
0.114204
0.000683433
0.113602
0.000602214
0.111716
0.00188573
0.110008
0.00170862
0.107136
0.00287138
0.105195
0.00194155
0.103256
0.00193921
0.102488
0.000767445
0.102932
-0.000444204
0.103845
-0.000912648
0.106408
-0.00256333
0.108124
-0.00171548
0.110293
-0.00216915
0.110643
-0.000350288
0.110508
0.000135566
0.108467
0.0020405
0.00308739
0.134815
0.00320657
0.133014
0.00488653
0.130785
0.00403306
0.12844
0.00322658
0.1291
-0.000810147
0.130841
-0.00274427
0.132804
-0.00406569
0.134932
-0.00406846
0.137407
-0.00475953
0.13857
-0.00241139
0.139169
-0.00104112
0.138293
0.00184384
0.137056
0.00290024
0.135657
0.00344364
0.133773
0.00434056
0.132377
0.00343539
0.130381
0.00427455
0.129401
0.00227388
0.127636
0.00321293
0.127479
0.000736281
0.127268
0.000849524
0.127596
-0.000121654
0.128381
-0.000606258
0.127955
0.00110962
0.128185
0.000372059
0.126755
0.00331573
0.125852
0.00261109
0.123872
0.00485173
0.12201
0.00380375
0.120319
0.00363053
0.118753
0.00233307
0.118815
-0.000506533
0.118969
-0.00106684
0.121214
-0.00480757
0.122573
-0.00307461
0.125004
-0.00459992
0.1265
-0.00184642
0.127059
-0.000423755
0.127247
0.00185208
0.0044512
0.137185
0.0097902
0.13526
0.00681135
0.133796
0.00549704
0.13344
0.00358288
0.133333
-0.000703318
0.131703
-0.00111418
0.131879
-0.00424214
0.13442
-0.00660971
0.13521
-0.00554892
0.134827
-0.00202853
0.13455
-0.000764094
0.134417
0.00197729
0.134404
0.0029124
0.133864
0.00398392
0.133073
0.00513168
0.131888
0.00462015
0.130591
0.00557183
0.129195
0.00367
0.128795
0.00361238
0.128191
0.00134075
0.128161
0.000879859
0.128259
-0.000220166
0.128774
-0.0011213
0.129685
0.000199112
0.13069
-0.000633512
0.130643
0.00336256
0.12998
0.00327399
0.1284
0.00643229
0.126096
0.00610777
0.124245
0.00548133
0.122265
0.00431301
0.120924
0.000834937
0.119885
-2.77615e-05
0.120042
-0.00496538
0.120463
-0.0034953
0.122655
-0.00679145
0.124423
-0.00361494
0.126521
-0.0025214
0.128502
-0.000129424
0.00477978
0.10432
0.0100506
0.10712
0.00401105
0.103728
0.00888899
0.1072
0.000111453
0.108997
-0.00250042
0.100892
0.00699012
0.101919
-0.00526823
0.0999857
-0.00467682
0.0953455
-0.000908803
0.0944864
-0.00116939
0.0949379
-0.00121563
0.0966775
0.000237687
0.0984862
0.00110375
0.10053
0.00194021
0.102735
0.00292638
0.103922
0.0034335
0.104141
0.00535299
0.102892
0.00491821
0.102822
0.00368269
0.101246
0.00291727
0.0995829
0.00254263
0.0989448
0.000417908
0.0994629
-0.00163939
0.101593
-0.00193147
0.103423
-0.00246294
0.107445
-0.000659113
0.110608
0.000110534
0.113973
0.00306718
0.11517
0.00491063
0.114089
0.00656246
0.110484
0.00791811
0.105312
0.00600693
0.100578
0.00470604
0.0943919
0.00122098
0.0932899
-0.00239327
0.0924524
-0.00595395
0.0952194
-0.00638194
0.0996458
-0.00694786
0.104711
-0.005195
0.000376252
0.113527
-0.00214255
0.0880741
0.00166033
0.0935669
-0.00378728
0.00146408
0.108229
-0.0103712
0.0886013
0.0212877
0.0837018
0.00111224
0.0851659
0.00894163
-0.031242
-0.0115838
0.0402607
0.0116298
-0.0411167
0.00983336
0.0114177
-0.0314967
0.000254651
-0.000531963
0.00929595
-0.0228319
-0.0188168
-0.0174561
0.00445754
0.00356271
0.0179055
0.0118369
-0.0042631
0.00839167
0.0123342
0.0146118
-0.00610868
0.0182601
-0.00614869
0.00683868
0.0184115
-0.00247609
0.00404655
0.00397987
-0.0111328
0.006849
-0.00377793
0.0061673
-0.000487687
0.00668309
-0.00173142
0.00772715
-0.000806376
0.00974689
-0.000915987
0.0132764
-0.00158933
0.0165919
-0.000389125
0.0188799
0.00114556
0.0203645
0.00386838
0.0221486
0.00313406
0.0228697
0.00296163
0.0238007
0.0019863
0.0254384
0.000904864
0.0279179
-0.00206151
0.0301713
-0.00389285
0.0325321
-0.0042922
0.0360061
-0.00593703
0.0385688
-0.00322173
0.0403874
-0.00170813
0.0420988
0.00135579
0.0413295
0.00567991
0.0408838
0.00700813
0.0407025
0.00809943
0.0397334
0.00697609
0.0409166
0.00352281
0.0425988
-0.000461237
0.0447507
-0.0045451
0.0484825
-0.00968578
0.0520389
-0.0099384
0.0567031
-0.0116121
0.060509
-0.00900087
-0.00062812
0.00678668
-0.00633723
0.00513461
-0.00261104
0.0138053
0.00366352
0.0105887
-0.00289206
0.000848771
0.0035912
0.0127406
0.00651963
0.0132931
0.00349404
0.00241258
-0.000252228
-0.00147721
0.000111861
-0.00198156
1.66752e-05
-0.000730893
-0.00298209
0.00222119
-0.00375846
0.00565437
-0.00434916
0.00804575
-0.00398072
0.00968087
-0.00202423
0.0116838
-0.000857412
0.0156424
-9.0207e-05
0.0191557
-0.000379222
0.0212067
0.000910655
0.0232942
-0.000101183
0.026028
-0.00182892
0.0270334
-0.00306699
0.0272644
-0.00412381
0.0278664
-0.00489425
0.0280997
-0.00617028
0.0291777
-0.00429978
0.0304179
-0.00294828
0.0319518
-0.000178075
0.0349078
0.00272386
0.0382612
0.0036547
0.041548
0.00481268
0.0450548
0.00346923
0.0475676
0.00101007
0.0499022
-0.00279583
0.0495934
-0.00423634
0.0475264
-0.00761874
0.0467187
-0.0091307
0.0446885
-0.00958192
0.0436103
-0.00792265
-0.00109564
0.0976617
-0.00803285
0.0939535
0.0249959
0.0947497
0.000315968
0.0382524
0.141663
0.095736
-0.00376886
0.106202
0.01453
0.105249
0.00126896
0.0200326
0.123469
0.0974712
-0.00124002
0.106711
0.00529034
0.10504
0.00294009
0.00993844
0.115134
0.09876
0.10405
0.10699
0.116929
0.153756
-0.0120924
0.0422934
0.111462
0.123098
-0.0117221
0.0412789
0.124113
0.108963
-0.00555087
0.0156897
0.134552
0.111378
0.127068
0.110318
0.00139894
0.115915
0.0036988
0.0978412
-0.000742955
0.00104134
0.101257
0.128409
-0.00289687
0.133131
-0.00102347
0.130818
0.00157046
0.00150972
0.130349
0.132119
-0.000464174
0.131767
-0.000670902
0.132814
0.000523567
0.00183288
0.13249
0.126603
0.125933
0.126456
0.128289
0.095618
-0.000697855
0.0909831
0.00202393
0.0913394
0.00330719
0.0869949
0.0014525
0.0881016
0.00248446
0.0898688
0.00475241
0.0906381
0.00272474
0.0878615
0.00252444
0.0872033
0.00077
0.0873297
-0.000109664
0.0863099
-0.00196229
0.0852686
-0.00271718
0.0842088
-0.00328933
0.0836942
-0.00346613
0.0846626
-0.00299269
0.0865715
-0.0027663
0.0881017
-0.00162037
0.0909069
-0.00318449
0.0942706
-0.002453
0.0981017
-0.00393223
0.100226
-0.00395301
0.102428
-0.00526956
0.103146
-0.00484199
0.102167
-0.00391483
0.099408
-0.00341121
0.0962294
-0.00112113
0.0941809
-0.00089979
0.0915812
0.00242163
0.0925905
0.00171451
0.0938776
0.0023676
0.0978782
0.000812134
0.103181
-0.00183407
0.107467
-0.00327505
0.111669
-0.00699811
0.113213
-0.0057809
0.111371
-0.00577666
0.104892
-0.00265129
0.096548
-0.00123803
0.0874672
0.00115823
0.00318123
0.128834
0.000817608
0.130242
0.00061537
0.131721
0.00182869
0.13091
0.00226302
0.132138
0.00125695
0.134869
0.0020208
0.135714
0.00188056
0.135422
0.00281596
0.135644
0.000547539
0.135985
-0.000450452
0.136295
-0.00227198
0.136212
-0.00263458
0.135641
-0.0027179
0.134981
-0.00280664
0.134058
-0.00206927
0.134545
-0.00325303
0.134574
-0.00164934
0.13476
-0.00337029
0.134561
-0.00225431
0.134587
-0.00395841
0.133692
-0.0030583
0.132227
-0.00380405
0.131062
-0.00367731
0.129546
-0.00239835
0.128848
-0.00271332
0.12743
0.000296253
0.126644
-0.000113569
0.126711
0.00235506
0.127277
0.00114845
0.128359
0.0012856
0.129617
-0.000445893
0.130446
-0.00266324
0.130102
-0.00293102
0.128388
-0.00528384
0.126233
-0.0036266
0.125135
-0.00467781
0.123453
-0.000969581
0.122035
0.000180141
0.120547
0.00264541
0.00419592
0.132087
0.00122143
0.132708
-6.09352e-06
0.134652
-0.000115242
0.135898
0.00101688
0.136327
0.0008281
0.13777
0.000577644
0.139482
0.000168899
0.141607
0.000690769
0.141715
0.000439527
0.141336
-7.18211e-05
0.140313
-0.00124836
0.139345
-0.00166657
0.138207
-0.00158046
0.136935
-0.0015343
0.136013
-0.00114787
0.13451
-0.0017493
0.134064
-0.0012034
0.1326
-0.00190606
0.131732
-0.00138676
0.129946
-0.00217246
0.128754
-0.00186612
0.127058
-0.00210839
0.125379
-0.00199814
0.124301
-0.00131999
0.122962
-0.00137419
0.123085
0.000172322
0.123148
-0.00017588
0.124365
0.00113759
0.125165
0.000349187
0.126147
0.000302919
0.126337
-0.000635723
0.12541
-0.00173609
0.124683
-0.00220408
0.122408
-0.00300921
0.120654
-0.00187269
0.118245
-0.00226815
0.117304
-2.90067e-05
0.117074
0.000410127
0.117891
0.00182884
0.00208036
0.12951
0.129504
0.129389
0.130406
0.131234
0.131812
0.131981
0.132671
0.133111
0.133039
0.131791
0.130124
0.128544
0.127009
0.125862
0.124112
0.122909
0.121003
0.119616
0.117444
0.115577
0.113469
0.111471
0.110151
0.108777
0.108949
0.108773
0.109911
0.11026
0.110563
0.109927
0.108191
0.105987
0.102978
0.101105
0.0988369
0.0988079
0.0992181
0.101047
)
;

boundaryField
{
    inlet
    {
        type            calculated;
        value           nonuniform List<scalar> 10(-0.1 -0.1 -0.1 -0.1 -0.1 -0.1 -0.1 -0.1 -0.1 -0.1);
    }
    outlet
    {
        type            calculated;
        value           nonuniform List<scalar> 10(0.10538 0.125884 0.128174 0.109115 0.0615134 0.0440778 0.0831903 0.119533 0.120006 0.103127);
    }
    obstacle
    {
        type            calculated;
        value           uniform 0;
    }
    upperWall
    {
        type            calculated;
        value           uniform 0;
    }
    lowerWall
    {
        type            calculated;
        value           uniform 0;
    }
    frontAndBack
    {
        type            empty;
        value           nonuniform List<scalar> 0();
    }
}


// ************************************************************************* //
