/*--------------------------------*- C++ -*----------------------------------*\
  =========                 |
  \\      /  F ield         | OpenFOAM: The Open Source CFD Toolbox
   \\    /   O peration     | Website:  https://openfoam.org
    \\  /    A nd           | Version:  10
     \\/     M anipulation  |
\*---------------------------------------------------------------------------*/
FoamFile
{
    format      ascii;
    class       volVectorField;
    location    "7.725";
    object      U;
}
// * * * * * * * * * * * * * * * * * * * * * * * * * * * * * * * * * * * * * //

dimensions      [0 1 -1 0 0 0 0];

internalField   nonuniform List<vector> 
400
(
(-0.000142533 0.000128241 0)
(-0.0010748 0.000402541 0)
(-0.00265037 0.000501989 0)
(-0.00425785 0.000532434 0)
(-0.00590873 0.000545535 0)
(-0.00756351 0.000557394 0)
(-0.00920484 0.000567198 0)
(-0.0108085 0.000568429 0)
(-0.0123324 0.000552353 0)
(-0.0137133 0.000508489 0)
(-0.0148632 0.000424934 0)
(-0.0156676 0.000289753 0)
(-0.0159887 9.42341e-05 0)
(-0.0156736 -0.000170211 0)
(-0.0145801 -0.000491984 0)
(-0.0126174 -0.000838639 0)
(-0.00981426 -0.00114337 0)
(-0.00644705 -0.001301 0)
(-0.00271909 -0.00116657 0)
(-0.000379478 -0.000473897 0)
(-0.000457483 0.00109265 0)
(-0.00239943 0.00228002 0)
(-0.00537191 0.00271411 0)
(-0.00839657 0.002839 0)
(-0.0114646 0.0028583 0)
(-0.0144903 0.00283776 0)
(-0.0174222 0.0027791 0)
(-0.0202038 0.00266073 0)
(-0.0227551 0.00245154 0)
(-0.0249684 0.00211439 0)
(-0.026703 0.00160862 0)
(-0.0277839 0.000894323 0)
(-0.0280153 -6.0025e-05 0)
(-0.0271823 -0.00125371 0)
(-0.0250866 -0.00263178 0)
(-0.0216168 -0.00405841 0)
(-0.0168422 -0.00527621 0)
(-0.0111849 -0.00588135 0)
(-0.00498077 -0.00532705 0)
(-0.000871876 -0.00259128 0)
(-0.000594607 0.00281525 0)
(-0.00300081 0.00532425 0)
(-0.00661187 0.00622736 0)
(-0.0102581 0.00646575 0)
(-0.013933 0.0064568 0)
(-0.0175351 0.00633606 0)
(-0.0210044 0.00611273 0)
(-0.0242778 0.00574945 0)
(-0.0272687 0.00518904 0)
(-0.029861 0.00436189 0)
(-0.0319038 0.00319179 0)
(-0.0332094 0.00160547 0)
(-0.0335466 -0.000450465 0)
(-0.0326503 -0.00297604 0)
(-0.0302658 -0.00586585 0)
(-0.0262116 -0.00885016 0)
(-0.0205115 -0.0114076 0)
(-0.013647 -0.0126887 0)
(-0.00601139 -0.0115578 0)
(-0.00100312 -0.00590689 0)
(-0.000638659 0.00464955 0)
(-0.00323942 0.00857285 0)
(-0.00713586 0.00995505 0)
(-0.0110556 0.0102947 0)
(-0.0150061 0.0102468 0)
(-0.0188871 0.0100216 0)
(-0.0226468 0.00963674 0)
(-0.0262319 0.00904032 0)
(-0.0295667 0.00814949 0)
(-0.032544 0.00685969 0)
(-0.0350148 0.00505168 0)
(-0.0367781 0.00260659 0)
(-0.0375767 -0.000568689 0)
(-0.037074 -0.00450574 0)
(-0.0348869 -0.00908599 0)
(-0.0306705 -0.0139178 0)
(-0.0242849 -0.0181735 0)
(-0.0162277 -0.0204093 0)
(-0.00694079 -0.0186612 0)
(-0.000999226 -0.00945087 0)
(-0.000644042 0.00656569 0)
(-0.00332666 0.0119867 0)
(-0.00736873 0.0138733 0)
(-0.0114369 0.0143244 0)
(-0.0155549 0.0142518 0)
(-0.0196326 0.0139472 0)
(-0.023636 0.0134398 0)
(-0.0275338 0.0126652 0)
(-0.031274 0.0115149 0)
(-0.0347721 0.0098457 0)
(-0.0378929 0.00748304 0)
(-0.0404302 0.0042345 0)
(-0.0420857 -7.76938e-05 0)
(-0.0424314 -0.00554999 0)
(-0.0409011 -0.0121264 0)
(-0.0368642 -0.0193299 0)
(-0.0298445 -0.0259715 0)
(-0.0202016 -0.0297598 0)
(-0.00832115 -0.0273846 0)
(-0.000910626 -0.0134658 0)
(-0.000636077 0.00850747 0)
(-0.00336148 0.0154912 0)
(-0.00750355 0.0179107 0)
(-0.0116836 0.0184931 0)
(-0.0159411 0.0184255 0)
(-0.0202011 0.0180893 0)
(-0.0244554 0.0175314 0)
(-0.0287043 0.016679 0)
(-0.0329335 0.0154005 0)
(-0.0371 0.0135112 0)
(-0.0411063 0.0107695 0)
(-0.0447631 0.0068801 0)
(-0.0477394 0.00152698 0)
(-0.0495296 -0.00555241 0)
(-0.0493479 -0.0144761 0)
(-0.0461305 -0.0247972 0)
(-0.0387794 -0.0349816 0)
(-0.0270678 -0.0415636 0)
(-0.0108631 -0.0387488 0)
(-0.000744094 -0.0182085 0)
(-0.000622522 0.0104539 0)
(-0.00337798 0.0190586 0)
(-0.0076062 0.0220412 0)
(-0.0118842 0.0227784 0)
(-0.0162674 0.0227515 0)
(-0.0206986 0.0224437 0)
(-0.0252017 0.0219278 0)
(-0.0298192 0.0211315 0)
(-0.0345912 0.0199072 0)
(-0.0395411 0.018033 0)
(-0.0446469 0.0151948 0)
(-0.0497871 0.0109706 0)
(-0.0546659 0.00483564 0)
(-0.058767 -0.00377417 0)
(-0.0611218 -0.0152572 0)
(-0.0601517 -0.0295477 0)
(-0.0536962 -0.045074 0)
(-0.0397479 -0.0570575 0)
(-0.0164293 -0.0546872 0)
(-0.000708915 -0.0244825 0)
(-0.000604535 0.0123973 0)
(-0.00338412 0.0226814 0)
(-0.00769087 0.0262556 0)
(-0.0120504 0.0271666 0)
(-0.016533 0.0272126 0)
(-0.0211008 0.0269927 0)
(-0.0258137 0.0266187 0)
(-0.0307668 0.0260331 0)
(-0.0360717 0.0250903 0)
(-0.0418501 0.0235481 0)
(-0.0482094 0.0210335 0)
(-0.0551914 0.0169975 0)
(-0.0626822 0.0106748 0)
(-0.0702795 0.00111272 0)
(-0.0771451 -0.0126654 0)
(-0.08135 -0.0315292 0)
(-0.0788249 -0.0550364 0)
(-0.0630685 -0.0777206 0)
(-0.0291234 -0.0788728 0)
(-0.00178192 -0.0345354 0)
(-0.0005829 0.0143317 0)
(-0.00338391 0.0263543 0)
(-0.0077613 0.0305405 0)
(-0.0121753 0.031631 0)
(-0.0167103 0.0317675 0)
(-0.0213458 0.0316823 0)
(-0.0261786 0.031542 0)
(-0.0313606 0.031325 0)
(-0.0370896 0.0309164 0)
(-0.0436158 0.0300943 0)
(-0.0512373 0.0284778 0)
(-0.060276 0.0254478 0)
(-0.0710174 0.0200617 0)
(-0.0836429 0.0109822 0)
(-0.0980138 -0.00370199 0)
(-0.111992 -0.0268571 0)
(-0.117688 -0.0622226 0)
(-0.0998876 -0.105098 0)
(-0.0538597 -0.117368 0)
(-0.00660196 -0.0536765 0)
(-0.00056128 0.0162548 0)
(-0.00338926 0.0300747 0)
(-0.00783229 0.0348768 0)
(-0.0122634 0.0361279 0)
(-0.016781 0.0363447 0)
(-0.0213774 0.0364122 0)
(-0.0261817 0.0365698 0)
(-0.0313988 0.036857 0)
(-0.0373111 0.0372289 0)
(-0.0443097 0.0375475 0)
(-0.0529325 0.0375263 0)
(-0.063911 0.0366435 0)
(-0.078234 0.034043 0)
(-0.0972122 0.0282785 0)
(-0.121822 0.0160568 0)
(-0.14901 -0.0106929 0)
(-0.163361 -0.0647288 0)
(-0.14136 -0.141168 0)
(-0.0907257 -0.17419 0)
(-0.0199044 -0.0910553 0)
(-0.000548858 0.018177 0)
(-0.00342852 0.0338498 0)
(-0.00794393 0.0392412 0)
(-0.0123491 0.0405958 0)
(-0.0167603 0.0408403 0)
(-0.021175 0.0410308 0)
(-0.0257437 0.0414953 0)
(-0.0307073 0.0423583 0)
(-0.0364091 0.0436884 0)
(-0.0433526 0.0455099 0)
(-0.0522896 0.0477768 0)
(-0.0643522 0.0503327 0)
(-0.0812588 0.0527953 0)
(-0.10558 0.0537369 0)
(-0.139095 0.0467902 0)
(-0.17523 0.0142739 0)
(-0.190978 -0.0673962 0)
(-0.16716 -0.183764 0)
(-0.127749 -0.241463 0)
(-0.0402794 -0.159955 0)
(-0.000565197 0.0201369 0)
(-0.0035595 0.0377236 0)
(-0.00817837 0.043644 0)
(-0.0125136 0.0449962 0)
(-0.0167157 0.0451546 0)
(-0.0207809 0.045367 0)
(-0.0248653 0.0460612 0)
(-0.0292141 0.0474609 0)
(-0.0341779 0.0497842 0)
(-0.0402864 0.0532948 0)
(-0.0483656 0.058338 0)
(-0.0597045 0.065359 0)
(-0.0762003 0.074561 0)
(-0.100472 0.0835997 0)
(-0.133325 0.0807975 0)
(-0.166014 0.0385919 0)
(-0.176649 -0.0685848 0)
(-0.158321 -0.215491 0)
(-0.139259 -0.307354 0)
(-0.0503981 -0.265448 0)
(-0.000640939 0.0221875 0)
(-0.00386228 0.0416747 0)
(-0.00865561 0.0479366 0)
(-0.012897 0.0490957 0)
(-0.0167939 0.0490142 0)
(-0.0203319 0.0491068 0)
(-0.0236638 0.0498698 0)
(-0.0269989 0.0516181 0)
(-0.0306091 0.0547104 0)
(-0.0349009 0.0596452 0)
(-0.0405024 0.0671535 0)
(-0.0483441 0.0781792 0)
(-0.0596195 0.093133 0)
(-0.0755009 0.107803 0)
(-0.0961926 0.105999 0)
(-0.114776 0.0554207 0)
(-0.12051 -0.064103 0)
(-0.112431 -0.226249 0)
(-0.116574 -0.355366 0)
(-0.0426212 -0.36653 0)
(-0.000873564 0.0246332 0)
(-0.00459427 0.046284 0)
(-0.00965582 0.0528228 0)
(-0.013699 0.0535974 0)
(-0.0171391 0.0529423 0)
(-0.0199899 0.0525264 0)
(-0.0223664 0.0529447 0)
(-0.0243892 0.0545825 0)
(-0.0261912 0.0578802 0)
(-0.0279341 0.0634599 0)
(-0.0298434 0.0722338 0)
(-0.0320708 0.0852086 0)
(-0.0347924 0.102676 0)
(-0.0375687 0.118888 0)
(-0.0416148 0.117046 0)
(-0.0430905 0.0636478 0)
(-0.0460345 -0.0551974 0)
(-0.0474453 -0.215236 0)
(-0.0789041 -0.369776 0)
(-0.0276604 -0.432634 0)
(-0.00122649 0.0276266 0)
(-0.00546988 0.0502141 0)
(-0.011104 0.0560682 0)
(-0.0151726 0.055796 0)
(-0.018293 0.054506 0)
(-0.0203815 0.0537252 0)
(-0.0216168 0.0538932 0)
(-0.0220835 0.0552871 0)
(-0.0217774 0.0583071 0)
(-0.0205889 0.063549 0)
(-0.0183684 0.0718773 0)
(-0.0144198 0.0839735 0)
(-0.00848478 0.0999138 0)
(0.0017354 0.114143 0)
(0.0122437 0.11182 0)
(0.0250136 0.0622055 0)
(0.0197404 -0.0466276 0)
(0.00962108 -0.187439 0)
(-0.0491659 -0.359112 0)
(-0.0127331 -0.47547 0)
(-0.00330511 0.0302113 0)
(-0.00990012 0.0578788 0)
(-0.0148862 0.063652 0)
(-0.0179522 0.0628052 0)
(-0.0197845 0.0598827 0)
(-0.0207446 0.0574145 0)
(-0.0208493 0.0559676 0)
(-0.0199766 0.0558361 0)
(-0.0178837 0.0573301 0)
(-0.0141643 0.0608651 0)
(-0.00845449 0.0670866 0)
(0.000466407 0.0762751 0)
(0.0129346 0.0882857 0)
(0.0314025 0.0985478 0)
(0.0498043 0.0959709 0)
(0.0700517 0.0565621 0)
(0.0646328 -0.033581 0)
(0.0524504 -0.149075 0)
(-0.0263303 -0.335663 0)
(0.00279914 -0.499099 0)
(-0.00101876 0.0438505 0)
(-0.00804728 0.0597523 0)
(-0.0180446 0.0614603 0)
(-0.0212591 0.0573219 0)
(-0.0235844 0.0542014 0)
(-0.0238734 0.0521232 0)
(-0.0228518 0.050962 0)
(-0.0204315 0.0506261 0)
(-0.0164265 0.0512817 0)
(-0.0103421 0.0531441 0)
(-0.00178303 0.0567209 0)
(0.010695 0.0621484 0)
(0.0269034 0.0691222 0)
(0.0497064 0.0743725 0)
(0.0706948 0.0710038 0)
(0.0958841 0.0434615 0)
(0.0884088 -0.0218885 0)
(0.076048 -0.108818 0)
(-0.00487151 -0.308141 0)
(0.0226055 -0.506486 0)
(-0.0125382 0.032352 0)
(-0.0236187 0.0801151 0)
(-0.0221853 0.0797592 0)
(-0.0272771 0.0747104 0)
(-0.0280013 0.0673409 0)
(-0.0269263 0.0612343 0)
(-0.0238163 0.0563123 0)
(-0.0188925 0.0525072 0)
(-0.0122013 0.0498312 0)
(-0.00335796 0.0481183 0)
(0.00763785 0.0476746 0)
(0.0220857 0.0483808 0)
(0.038916 0.0506195 0)
(0.0616968 0.0518625 0)
(0.0795481 0.0504776 0)
(0.105919 0.0359613 0)
(0.099324 -0.00303354 0)
(0.108149 -0.068738 0)
(0.0423364 -0.27738 0)
(0.0588445 -0.493202 0)
(-0.0775739 0.0961065 0)
(-0.0632545 0.0589031 0)
(-0.0655391 0.0599053 0)
(-0.0434612 0.0532495 0)
(-0.0260307 0.0463045 0)
(-0.00576058 0.0411513 0)
(0.013369 0.0373949 0)
(0.032827 0.0341942 0)
(0.0508468 0.0318792 0)
(0.070361 0.0297349 0)
(0.0873946 0.0285437 0)
(0.10906 0.0275864 0)
(0.124623 0.0271945 0)
(0.154175 0.0268501 0)
(0.164657 0.0221998 0)
(0.203926 0.0138047 0)
(0.194977 -0.020161 0)
(0.226664 -0.0759699 0)
(0.155935 -0.253183 0)
(0.125881 -0.434972 0)
(0.119466 0.14081 0)
(0.152175 0.0861612 0)
(0.228676 0.0635661 0)
(0.284129 0.0480947 0)
(0.325497 0.0374315 0)
(0.363756 0.0296443 0)
(0.392418 0.0242148 0)
(0.423636 0.0201694 0)
(0.443451 0.0172217 0)
(0.47207 0.0150017 0)
(0.484749 0.0132295 0)
(0.514274 0.0120119 0)
(0.519633 0.0109239 0)
(0.552563 0.0098731 0)
(0.547758 0.00804274 0)
(0.581116 0.00365048 0)
(0.550596 -0.00572378 0)
(0.556411 -0.0273947 0)
(0.42177 -0.0735226 0)
(0.27558 -0.152209 0)
)
;

boundaryField
{
    movingWall
    {
        type            fixedValue;
        value           uniform (1 0 0);
    }
    fixedWalls
    {
        type            noSlip;
    }
    frontAndBack
    {
        type            empty;
    }
}


// ************************************************************************* //
