/*--------------------------------*- C++ -*----------------------------------*\
  =========                 |
  \\      /  F ield         | OpenFOAM: The Open Source CFD Toolbox
   \\    /   O peration     | Website:  https://openfoam.org
    \\  /    A nd           | Version:  10
     \\/     M anipulation  |
\*---------------------------------------------------------------------------*/
FoamFile
{
    format      ascii;
    class       surfaceScalarField;
    location    "7.425";
    object      phi;
}
// * * * * * * * * * * * * * * * * * * * * * * * * * * * * * * * * * * * * * //

dimensions      [0 3 -1 0 0 0 0];

internalField   nonuniform List<scalar> 
928
(
0.0959519
0.00404815
0.103276
-0.00732403
0.107012
-0.00373591
-0.00921988
0.116232
0.0947523
0.0092959
0.106063
-0.0186349
0.102832
-0.000504439
-0.0192929
0.112905
0.0958432
0.0134527
0.109491
-0.0322823
0.104028
0.00495817
-0.0409141
0.125649
0.103167
0.0102852
0.0928881
-0.0220029
0.0983233
-0.000477067
0.146838
-0.0894289
0.111341
0.00489074
-0.0162807
0.127622
0.109525
0.00827064
-0.0414759
0.13472
0.127398
0.00652217
-0.0474215
0.133343
0.15336
0.105939
0.127381
0.000240673
0.127752
-0.000371264
0.129141
-0.00138892
-0.00198726
0.131128
0.135778
-0.000817642
0.135262
0.00014548
0.135531
-0.00165835
-0.00387574
0.13742
0.135334
-0.00280815
0.136648
-0.00116867
0.141034
-0.00604489
-0.00277586
0.139935
0.111215
-0.00808426
0.0895276
0.0205187
0.0895506
-0.00606789
0.096541
-0.00976634
0.132368
-0.00123955
0.132954
-0.000585582
0.131952
0.00100195
0.131016
0.000935816
0.129535
0.00148088
0.128233
0.00130167
0.127104
0.00112898
0.125994
0.00111006
0.125818
0.000176422
0.12529
0.000527745
0.125126
0.000163662
0.123884
0.00124276
0.122524
0.00135941
0.120091
0.00243337
0.116683
0.00340815
0.113394
0.00328812
0.10978
0.00361495
0.107898
0.00188105
0.106173
0.00172582
0.106938
-0.000765697
0.108503
-0.00156459
0.110831
-0.00232795
0.113647
-0.00281628
0.11495
-0.00130312
0.115901
-0.000951043
0.114296
0.0016056
0.111821
0.00247435
0.107502
0.00431902
0.102964
0.00453841
0.0996479
0.00331609
0.0964674
0.00318043
0.0965286
-6.11649e-05
0.0957972
0.00073143
0.097804
-0.00200682
0.0997496
-0.0019456
0.10227
-0.0025206
0.106598
-0.00432742
0.109266
-0.00266838
0.113706
-0.00444014
-0.00156032
0.13806
-0.00188016
0.138171
-0.000696891
0.137866
0.00130727
0.137602
0.00119979
0.136634
0.00244866
0.135423
0.00251278
0.134391
0.00216086
0.134109
0.0013921
0.134376
-9.02104e-05
0.133894
0.00100939
0.134201
-0.000143495
0.133695
0.0017496
0.132938
0.00211645
0.131234
0.00413712
0.128619
0.00602279
0.125918
0.00598905
0.122422
0.00711118
0.120019
0.0042846
0.118486
0.00325843
0.118698
-0.000977734
0.120204
-0.00307042
0.122319
-0.00444289
0.12542
-0.00591739
0.127627
-0.0035103
0.129875
-0.00319909
0.129443
0.00203726
0.128357
0.00356079
0.125908
0.0067681
0.122099
0.00834683
0.118969
0.00644639
0.114774
0.00737523
0.113615
0.00109848
0.11327
0.00107611
0.114502
-0.00323847
0.116006
-0.0034496
0.117606
-0.00412127
0.120605
-0.00732591
0.122026
-0.0040898
0.125881
-0.008295
-0.00368382
0.137345
0.000709662
0.134545
0.00210337
0.136756
-0.00090383
0.136961
0.000994654
0.13558
0.00382944
0.135583
0.00250961
0.1357
0.0020437
0.134984
0.0021081
0.133159
0.00173509
0.133416
0.00075279
0.133532
-0.000260263
0.135285
-3.1027e-06
0.136353
0.00104836
0.136564
0.0039265
0.134895
0.00769174
0.131362
0.00952199
0.12883
0.00964303
0.126022
0.00709232
0.124536
0.00474477
0.122311
0.00124692
0.121024
-0.00178325
0.121488
-0.00490694
0.122237
-0.00666644
0.124866
-0.00613938
0.127426
-0.00575833
0.131732
-0.00226871
0.133567
0.00172516
0.133106
0.00722963
0.131056
0.0103965
0.12837
0.00913236
0.128577
0.00716794
0.128091
0.00158502
0.127935
0.00123193
0.124798
-0.000101278
0.12047
0.000878461
0.115359
0.00098955
0.110522
-0.00248924
0.107826
-0.00139386
0.108425
-0.00889384
-0.00622415
0.0948887
0.00236198
0.0906246
0.00636753
0.0988155
-0.0090948
0.0973781
0.00243205
0.0920949
0.00911265
0.0949723
-0.00036778
0.0942273
0.00278869
0.0888968
0.00743862
0.0880582
0.00257372
0.0884116
0.000399406
0.0899941
-0.00184277
0.0932515
-0.00326052
0.0981285
-0.00382865
0.103691
-0.00163648
0.108529
0.00285385
0.112418
0.00563311
0.113104
0.00895682
0.108824
0.0113728
0.101499
0.0120693
0.0927445
0.0100019
0.0855664
0.00539483
0.0806373
2.21951e-05
0.0796021
-0.00563123
0.0823577
-0.008895
0.0886346
-0.0120352
0.0968746
-0.0105087
0.105175
-0.00657554
0.113383
-0.000978453
0.118874
0.004906
0.118552
0.00945468
0.111419
0.0143008
0.0964863
0.0165175
0.0800292
0.017689
0.0646432
0.0152847
0.0566017
0.00892
0.0543489
0.00324231
0.0556298
-0.00377013
0.0601408
-0.00590489
0.0650467
-0.0137996
-0.0123212
0.110698
-0.000412538
0.0885952
9.96219e-05
0.0891257
-0.00100758
-0.000303214
0.109704
-0.0101166
0.0881092
0.0216945
0.0870745
2.7139e-05
0.0867713
-0.00166756
-0.0064167
-0.0221019
0.0409531
-0.0179932
-0.0101766
-0.0416488
0.0138892
-0.00611988
-0.000296808
0.0188436
0.0159896
0.0216576
-0.0129906
-0.0164351
-0.00355604
-0.000778813
0.01703
-0.00223992
0.00782864
0.000630709
-0.0119654
0.00855453
-0.00549177
-0.00303172
0.0206989
-0.0061475
0.00274801
0.00231995
-0.00567877
0.00741469
0.00234388
0.0069428
0.0030456
0.00840672
-0.00106452
0.0130799
-0.00651593
0.0185129
-0.00869353
0.0229477
-0.00826344
0.0272756
-0.00596442
0.0315382
-0.00140875
0.0334843
0.00368704
0.0330708
0.00937026
0.032089
0.0123546
0.0312825
0.0128758
0.0317815
0.0095028
0.0327726
0.00440377
0.0346127
-0.00181787
0.0372494
-0.00826801
0.0412394
-0.012885
0.0459366
-0.0167324
0.0513233
-0.0158954
0.0567
-0.0119522
0.0601262
-0.00440468
0.0615967
0.0034355
0.0598178
0.0112336
0.0551168
0.0190018
0.0501587
0.0214756
0.0471778
0.0206699
0.0465121
0.0159504
0.0475811
0.00785103
0.0498751
0.00094832
0.0523898
-0.00628488
0.0547597
-0.00827476
0.0554242
-0.0144641
-0.0117574
-0.0072776
0.00787246
0.00599172
-0.00544068
-0.00664005
0.000666338
-0.010488
-0.00164381
0.00491333
0.00529758
0.00762353
3.78078e-05
0.00417002
-0.00222526
0.00710837
-0.000594466
0.0107557
-0.000601754
0.0148816
-0.00519038
0.0168684
-0.00850277
0.0171451
-0.00897021
0.0169711
-0.00808948
0.0183714
-0.00736466
0.0212086
-0.004246
0.0248338
6.18162e-05
0.0289798
0.00522433
0.0344177
0.00691675
0.0403213
0.00697211
0.0455072
0.00431692
0.0499692
-5.81727e-05
0.0519242
-0.00377288
0.0517198
-0.00806364
0.0498975
-0.0110627
0.0461191
-0.012954
0.0434939
-0.0132702
0.0427535
-0.0112118
0.04361
-0.0052611
0.0449896
0.00205585
0.0478844
0.0083388
0.0519183
0.014968
0.0571051
0.0162887
0.063297
0.0144779
0.0704187
0.00882873
0.0769743
0.00129549
0.0813408
-0.00341828
0.0839757
-0.00891974
0.0835796
-0.00787865
0.0778856
-0.00877016
-0.00722223
0.103264
-0.0133808
0.0945271
0.0304315
0.0994119
-0.00485758
0.0399316
0.146252
0.0957481
-0.00912888
0.107317
0.0188629
0.103267
-0.000808166
0.020017
0.123182
0.0948518
-0.00398067
0.105881
0.00783346
0.102389
0.00268451
0.0101254
0.11228
0.0960193
0.103853
0.106537
0.116663
0.155433
-0.00918195
0.0453031
0.11013
0.123612
-0.009612
0.0420286
0.126886
0.10812
-0.00545164
0.0166147
0.133534
0.111211
0.127826
0.106737
0.0030965
0.11491
0.00781667
0.10264
-0.000720763
0.00117577
0.0979084
0.130514
-0.000531301
0.136838
0.00149266
0.133205
0.00291195
0.00211113
0.13227
0.133292
-0.000289292
0.133989
0.000794978
0.135371
0.00153057
0.00133838
0.136144
0.127536
0.128331
0.129862
0.1312
0.104399
0.00138219
0.0986745
0.000283571
0.0977716
0.00156917
0.0956922
0.000435602
0.0984739
0.00251587
0.0984906
2.11034e-05
0.0988665
-0.00260117
0.101625
-0.00335294
0.106172
-0.00514851
0.107219
-0.00623749
0.106174
-0.00745794
0.103169
-0.00596467
0.0996173
-0.00453823
0.0942871
-0.00203451
0.089836
0.000205099
0.0873093
0.00258851
0.0881046
0.00442904
0.0917626
0.0032588
0.0967628
0.00197185
0.104102
-0.00302193
0.110653
-0.00660908
0.116977
-0.0100975
0.120376
-0.0114628
0.11917
-0.00985606
0.113477
-0.00726074
0.102705
-0.00249861
0.0907099
0.000783134
0.0804976
0.00495128
0.0748463
0.0077071
0.0744286
0.00875652
0.0778995
0.0114971
0.0857936
0.00839462
0.0927726
0.00749896
0.101598
3.42008e-06
0.108129
-0.00523526
0.113593
-0.00888302
0.11896
-0.014286
0.122589
-0.0115077
0.131313
-0.0174945
-0.0110592
0.132082
0.00157027
0.132335
3.05071e-05
0.132897
0.00100769
0.133588
-0.000256231
0.135826
0.000277895
0.136005
-0.000157835
0.13508
-0.00167535
0.134654
-0.00292742
0.134068
-0.00456219
0.131985
-0.0041546
0.129965
-0.00543837
0.127555
-0.00355467
0.126585
-0.00356764
0.125366
-0.000816175
0.124796
0.000775444
0.12567
0.00171485
0.127031
0.00306733
0.129537
0.000752858
0.131578
-6.85007e-05
0.132862
-0.00430645
0.13194
-0.00568733
0.129261
-0.00741818
0.125766
-0.00796825
0.121569
-0.00565887
0.11895
-0.00464198
0.115867
0.000584953
0.11373
0.0029196
0.112108
0.00657357
0.111763
0.0080521
0.113203
0.00731629
0.116156
0.00854487
0.120844
0.00370589
0.125469
0.00287403
0.13002
-0.00454764
0.131677
-0.00689171
0.131963
-0.00916881
0.127635
-0.00995794
0.121748
-0.00562171
0.112575
-0.00832151
-0.00423217
0.13645
0.00126414
0.136405
7.48143e-05
0.137133
0.000279899
0.137672
-0.000794927
0.138263
-0.000313499
0.13848
-0.000374834
0.137601
-0.000796362
0.136073
-0.00139946
0.134142
-0.00263105
0.132255
-0.00226736
0.129941
-0.00312444
0.128127
-0.00174045
0.12616
-0.00160069
0.125662
-0.000318813
0.126276
0.000162189
0.127532
0.00045839
0.129379
0.00121996
0.13034
-0.000207689
0.130594
-0.000322289
0.129003
-0.00271612
0.126661
-0.00334452
0.1235
-0.00425707
0.119663
-0.00413133
0.116399
-0.00239559
0.113876
-0.00211831
0.113455
0.00100555
0.114721
0.00165335
0.117417
0.00387758
0.121102
0.00436738
0.124573
0.00384493
0.1289
0.00421875
0.131521
0.00108478
0.133893
0.000501661
0.132906
-0.00356107
0.130382
-0.00436691
0.127437
-0.00622415
0.123918
-0.00643874
0.121966
-0.0036695
0.117359
-0.00371442
-0.000997396
0.132465
0.132539
0.132819
0.132024
0.131711
0.131336
0.13054
0.12914
0.126509
0.124242
0.121117
0.119377
0.117776
0.117457
0.11762
0.118078
0.119298
0.11909
0.118768
0.116052
0.112707
0.10845
0.104319
0.101923
0.0998049
0.10081
0.102464
0.106341
0.110709
0.114554
0.118772
0.119857
0.120359
0.116798
0.112431
0.106207
0.0997681
0.0960986
0.0923841
)
;

boundaryField
{
    inlet
    {
        type            calculated;
        value           nonuniform List<scalar> 10(-0.1 -0.1 -0.1 -0.1 -0.1 -0.1 -0.1 -0.1 -0.1 -0.1);
    }
    outlet
    {
        type            calculated;
        value           nonuniform List<scalar> 10(0.115266 0.128005 0.110965 0.0711437 0.0548604 0.0733505 0.13515 0.105748 0.114124 0.0913868);
    }
    obstacle
    {
        type            calculated;
        value           uniform 0;
    }
    upperWall
    {
        type            calculated;
        value           uniform 0;
    }
    lowerWall
    {
        type            calculated;
        value           uniform 0;
    }
    frontAndBack
    {
        type            empty;
        value           nonuniform List<scalar> 0();
    }
}


// ************************************************************************* //
