/*--------------------------------*- C++ -*----------------------------------*\
  =========                 |
  \\      /  F ield         | OpenFOAM: The Open Source CFD Toolbox
   \\    /   O peration     | Website:  https://openfoam.org
    \\  /    A nd           | Version:  10
     \\/     M anipulation  |
\*---------------------------------------------------------------------------*/
FoamFile
{
    format      ascii;
    class       volScalarField;
    location    "8.475";
    object      p;
}
// * * * * * * * * * * * * * * * * * * * * * * * * * * * * * * * * * * * * * //

dimensions      [0 2 -2 0 0 0 0];

internalField   nonuniform List<scalar> 
496
(
22.6909
22.7503
19.2147
12.8828
23.2108
23.9331
19.4252
12.7831
28.6713
26.1839
16.6436
5.57345
37.4912
34.0911
28.7849
11.2617
4.06914
-4.95526
3.60353
-5.14891
-11.0774
-15.4187
-46.4262
-73.1134
-11.5925
-14.6327
-14.6986
-13.3998
-12.1898
-17.1911
-19.4698
-17.9099
-7.31275
-5.23278
-8.80726
-10.9233
-39.195
-22.0459
-6.7001
-8.1763
-11.6293
-10.1793
-10.1648
-11.9401
-14.3851
-16.472
-17.534
-17.5125
-16.8596
-15.997
-15.0303
-13.9128
-12.5945
-11.3254
-10.1403
-8.98598
-8.06101
-7.37656
-6.99316
-6.49883
-6.02456
-5.57599
-5.1805
-4.57515
-3.69468
-2.89588
-2.02202
-1.35393
-0.673932
-0.439417
-0.532736
-0.88173
-1.16252
-1.1462
-1.37
-1.42282
-1.4186
-1.25944
-0.814236
-0.337297
-14.0539
-10.7518
-10.7366
-12.9338
-15.3497
-17.2394
-18.0024
-17.9246
-17.3547
-16.5361
-15.4012
-14.0606
-12.6511
-11.3032
-9.93335
-8.58334
-7.6342
-7.06428
-6.83735
-6.38949
-6.02536
-5.54302
-5.10832
-4.49444
-3.70221
-2.90539
-1.97695
-1.14385
-0.400246
-0.182444
-0.297622
-0.568261
-0.978077
-1.325
-1.5379
-1.49842
-1.4953
-1.32387
-1.03256
-0.467249
-9.8584
-9.02142
-10.2082
-12.709
-15.7826
-18.3263
-19.1482
-19.0022
-18.4314
-17.6224
-16.1501
-14.4213
-12.7355
-11.1743
-9.53863
-8.39241
-7.68741
-7.39163
-7.12453
-6.85283
-6.68269
-6.30046
-5.70227
-4.58388
-3.56024
-2.3154
-1.30431
-0.629812
0.165911
0.0314895
-0.464038
-1.21308
-1.88014
-2.44645
-2.60562
-2.37033
-1.88531
-1.23112
-0.76798
-0.237697
-7.38617
-5.20295
-7.31524
-10.4629
-15.7817
-19.5218
-19.5947
-19.8267
-19.8546
-18.6373
-16.7501
-14.6715
-12.5985
-10.6127
-8.55347
-7.40138
-6.60267
-6.58278
-6.21507
-6.49344
-6.85752
-6.92849
-6.60143
-5.59115
-4.50461
-2.32166
-0.429184
1.49252
2.10468
1.56337
0.689812
-0.599793
-1.77749
-3.12721
-3.01269
-3.24749
-2.6717
-1.83373
-1.4634
-0.0921985
43.863
43.8339
58.2382
67.7745
45.4084
47.6491
60.6729
73.939
-42.9723
-36.3251
-31.2903
-13.2156
-17.0598
-39.1263
-29.1981
-17.2606
-11.4391
-6.51572
-7.64614
-13.6303
-17.6066
-18.7248
-18.9274
-22.6872
-21.8606
-18.3251
-16.3883
-14.4209
-12.6409
-10.9991
-9.4583
-8.28484
-7.437
-6.61936
-6.10497
-6.26977
-6.22388
-5.98618
-5.56821
-4.99328
-4.22808
-2.87315
-1.8532
-0.912765
-0.409206
-0.346717
-0.0948066
-0.722615
-1.64922
-2.00216
-2.60085
-2.96063
-2.15064
-1.55567
-0.708042
0.297509
-21.9653
-8.53687
-9.25505
-11.4532
-15.2202
-20.9294
-20.3027
-19.6654
-19.0188
-17.2444
-15.6821
-14.3459
-12.9356
-11.4471
-10.099
-9.39877
-8.68002
-7.40823
-6.42143
-5.80942
-4.98201
-4.05847
-3.64055
-3.5088
-3.41728
-3.46733
-3.50515
-3.67561
-3.59829
-2.75052
-1.76962
-1.19264
-0.562738
0.372695
0.223764
-0.471598
-0.256729
-0.129147
-0.219679
-0.215365
42.0431
40.7278
36.8509
24.6595
35.318
33.9933
28.005
17.7955
30.5922
30.6258
27.2578
20.8046
29.6888
29.1726
26.5247
20.6955
-21.5563
-44.5301
4.38604
-2.48825
12.5857
4.18915
12.9389
4.45039
-16.1247
-8.18076
-18.3551
-15.5755
0.904985
-0.763635
-10.8911
-16.852
-3.29372
-8.0758
-12.6071
-16.7039
-2.81372
-7.99069
-11.2054
-13.376
-13.0275
-9.05043
-8.5606
-11.9418
-15.1796
-17.5886
-19.4018
-20.1881
-18.4236
-16.3398
-14.4066
-13.012
-12.5517
-11.9667
-11.1569
-9.95795
-9.19693
-7.97825
-6.75896
-5.04521
-3.90617
-3.00001
-2.35547
-2.48149
-3.0028
-4.15469
-4.51934
-4.99269
-4.45441
-3.90844
-2.28611
0.0329886
1.55783
3.35198
3.21791
2.8965
1.37772
0.748223
0.279575
-0.735631
-14.8256
-9.94562
-9.35508
-12.2015
-15.3059
-17.2358
-17.8924
-18.0666
-17.4673
-16.246
-14.9771
-13.6681
-12.8594
-12.1592
-11.2504
-10.0126
-8.97104
-7.82424
-6.63669
-5.48484
-4.55415
-3.84287
-3.43199
-3.51379
-3.57694
-4.02906
-4.12453
-3.98359
-3.32762
-2.36713
-1.48268
-0.229622
0.478578
0.701069
1.14952
1.30484
0.968815
0.658833
0.357482
-0.0723791
-16.677
-13.475
-10.8586
-11.8228
-14.7882
-17.0626
-17.6626
-17.2229
-16.5235
-15.6062
-14.6561
-13.5756
-12.5815
-11.6792
-10.7441
-9.70679
-8.64483
-7.80129
-6.87757
-5.96555
-4.89576
-4.13308
-3.61701
-3.30939
-3.45076
-3.49781
-3.49235
-3.16773
-2.82791
-2.36877
-1.88093
-1.18615
-0.367706
0.288705
0.877768
1.13319
1.22388
0.998123
0.769464
0.296947
-14.1717
-12.6432
-10.6018
-10.7322
-13.1841
-16.0003
-17.444
-17.233
-16.2992
-15.3199
-14.398
-13.4537
-12.4844
-11.5921
-10.7321
-9.72446
-8.64751
-7.84745
-7.02915
-6.15074
-5.07416
-4.28446
-3.74496
-3.52087
-3.53879
-3.51736
-3.49908
-3.05453
-2.64609
-2.14914
-1.65471
-1.18171
-0.488531
0.138406
0.647772
0.927532
1.07545
0.97461
0.575775
0.237998
)
;

boundaryField
{
    inlet
    {
        type            zeroGradient;
    }
    outlet
    {
        type            fixedValue;
        value           uniform 0;
    }
    obstacle
    {
        type            zeroGradient;
    }
    upperWall
    {
        type            zeroGradient;
    }
    lowerWall
    {
        type            zeroGradient;
    }
    frontAndBack
    {
        type            empty;
    }
}


// ************************************************************************* //
