/*--------------------------------*- C++ -*----------------------------------*\
  =========                 |
  \\      /  F ield         | OpenFOAM: The Open Source CFD Toolbox
   \\    /   O peration     | Website:  https://openfoam.org
    \\  /    A nd           | Version:  10
     \\/     M anipulation  |
\*---------------------------------------------------------------------------*/
FoamFile
{
    format      ascii;
    class       volScalarField;
    location    "9.45";
    object      p;
}
// * * * * * * * * * * * * * * * * * * * * * * * * * * * * * * * * * * * * * //

dimensions      [0 2 -2 0 0 0 0];

internalField   nonuniform List<scalar> 
400
(
1.17472e-08
-3.18642e-05
2.59785e-05
0.000138922
0.000315706
0.000559629
0.000876108
0.00127228
0.00175562
0.00233227
0.00300462
0.00376819
0.00460658
0.00548621
0.0063501
0.00711985
0.00770437
0.0080402
0.00814571
0.00799868
3.47885e-05
2.71298e-06
6.9579e-05
0.000186103
0.000362597
0.000603194
0.000913656
0.00130105
0.00177269
0.00233492
0.00299107
0.0037382
0.0045607
0.00542988
0.00628965
0.00705977
0.00764193
0.00796616
0.00805808
0.00789134
-3.88109e-05
-8.0645e-05
-1.54658e-05
9.59997e-05
0.000264759
0.000495078
0.000793231
0.00116724
0.00162604
0.0021787
0.00283235
0.0035888
0.00444037
0.00536082
0.00629108
0.00713651
0.00776941
0.00808809
0.00812563
0.00788538
-0.00019835
-0.000246919
-0.000186278
-8.39674e-05
7.1769e-05
0.000285448
0.000564097
0.000917129
0.00135589
0.00189347
0.00254335
0.00331558
0.00421045
0.00520945
0.00625497
0.00723123
0.00796099
0.00827055
0.00819896
0.00783495
-0.000454402
-0.000508392
-0.000455929
-0.000367692
-0.000231253
-4.17983e-05
0.000208507
0.000530618
0.000938668
0.00145049
0.00208748
0.00287209
0.00381936
0.00492173
0.00613103
0.00730977
0.00820398
0.00849921
0.00823502
0.00766981
-0.000805194
-0.000864279
-0.000823611
-0.000754718
-0.000644857
-0.000489247
-0.000279722
-4.29354e-06
0.000353333
0.000815209
0.00141048
0.00217549
0.00314625
0.00433895
0.00574384
0.00721352
0.00838592
0.00867139
0.00810242
0.00721496
-0.00124393
-0.00130842
-0.00128311
-0.00123934
-0.00116462
-0.00105486
-0.00090278
-0.000697147
-0.000421681
-5.29825e-05
0.000442429
0.00111101
0.00201205
0.00320653
0.00472715
0.0065204
0.00812074
0.00844865
0.00757438
0.00626296
-0.00176106
-0.00183157
-0.00182497
-0.00181219
-0.00178182
-0.0017316
-0.00165697
-0.00155053
-0.00140122
-0.00119178
-0.000895457
-0.000473873
0.000127052
0.000994521
0.002266
0.00411574
0.0062231
0.00699108
0.00631003
0.00485944
-0.00234447
-0.00242156
-0.00243615
-0.00245924
-0.00248151
-0.0025041
-0.00252774
-0.00255291
-0.0025806
-0.00261281
-0.00265423
-0.00272199
-0.00287125
-0.00314118
-0.00325749
-0.00236182
4.89409e-06
0.00259684
0.00393878
0.00403125
-0.0029798
-0.0030637
-0.00309997
-0.0031611
-0.00324092
-0.00334568
-0.00348414
-0.00366935
-0.00392277
-0.00428158
-0.00481317
-0.00565233
-0.0071068
-0.00957238
-0.012845
-0.0145753
-0.0124596
-0.00680853
-0.000900726
0.00345217
-0.00365148
-0.00374194
-0.00379709
-0.00389398
-0.00402995
-0.00421808
-0.00447721
-0.00483635
-0.00534412
-0.00608667
-0.00722573
-0.00907099
-0.0122521
-0.0176785
-0.0251485
-0.0308537
-0.0295466
-0.0209018
-0.0104193
-0.00158396
-0.00434408
-0.00443953
-0.0045049
-0.00462802
-0.00480949
-0.00506997
-0.00543789
-0.00595729
-0.00670221
-0.00780275
-0.00950384
-0.0122704
-0.0169337
-0.0245495
-0.0348638
-0.0429
-0.0427443
-0.0337377
-0.0224871
-0.0109192
-0.00504744
-0.00514664
-0.0052087
-0.00534117
-0.0055467
-0.00585358
-0.00629699
-0.00692962
-0.00783834
-0.00916851
-0.0111847
-0.0144112
-0.0196854
-0.0278217
-0.0386481
-0.0467001
-0.0470632
-0.0389188
-0.0296233
-0.0183644
-0.00575143
-0.00584378
-0.00587275
-0.00598478
-0.00618482
-0.00650487
-0.00697955
-0.0076626
-0.00864003
-0.0100434
-0.0120612
-0.0152486
-0.0202992
-0.0275396
-0.0368649
-0.0431684
-0.0437905
-0.0367652
-0.0309069
-0.020602
-0.00648183
-0.00657342
-0.00654276
-0.00660797
-0.00675973
-0.00704142
-0.00748722
-0.00814661
-0.00910106
-0.0104858
-0.0121666
-0.0150326
-0.0191971
-0.0247401
-0.0315114
-0.0357864
-0.0362081
-0.0301631
-0.0274871
-0.0172287
-0.00732536
-0.00721752
-0.00704525
-0.00697391
-0.00704842
-0.00728374
-0.0076932
-0.00830219
-0.00917055
-0.0103191
-0.0119145
-0.0141895
-0.0173349
-0.0212157
-0.0257266
-0.0281428
-0.028112
-0.0227146
-0.0219385
-0.00795814
-0.00776785
-0.00815162
-0.00778436
-0.00771901
-0.00764129
-0.00771916
-0.00796413
-0.00840792
-0.0090964
-0.0100619
-0.011414
-0.0132365
-0.0156491
-0.0184022
-0.021438
-0.0227023
-0.0221843
-0.0169771
-0.0147246
0.00995242
-0.0111377
-0.00856464
-0.0078352
-0.00713507
-0.00697042
-0.00707181
-0.00738453
-0.00786953
-0.00855294
-0.0094509
-0.010665
-0.0122125
-0.0142118
-0.0163226
-0.0184739
-0.0188942
-0.0175949
-0.0107233
-0.00170533
0.0415075
-0.00772671
-0.0106565
-0.00943795
-0.00932737
-0.00876652
-0.0084528
-0.0083393
-0.00844844
-0.00883404
-0.00948016
-0.0105049
-0.0118549
-0.0137694
-0.0158211
-0.0181652
-0.0183736
-0.0162431
-0.0025652
0.0219086
0.0983758
-0.0329719
-0.00781301
-0.00613979
-0.00528934
-0.00501419
-0.00516165
-0.00561378
-0.00618347
-0.0069614
-0.00786926
-0.00913576
-0.0105853
-0.0123999
-0.0138217
-0.0145195
-0.0108231
3.91114e-05
0.033979
0.0993696
0.229546
)
;

boundaryField
{
    movingWall
    {
        type            zeroGradient;
    }
    fixedWalls
    {
        type            zeroGradient;
    }
    frontAndBack
    {
        type            empty;
    }
}


// ************************************************************************* //
