/*--------------------------------*- C++ -*----------------------------------*\
  =========                 |
  \\      /  F ield         | OpenFOAM: The Open Source CFD Toolbox
   \\    /   O peration     | Website:  https://openfoam.org
    \\  /    A nd           | Version:  10
     \\/     M anipulation  |
\*---------------------------------------------------------------------------*/
FoamFile
{
    format      ascii;
    class       volScalarField;
    location    "8.075";
    object      p;
}
// * * * * * * * * * * * * * * * * * * * * * * * * * * * * * * * * * * * * * //

dimensions      [0 2 -2 0 0 0 0];

internalField   nonuniform List<scalar> 
475
(
-0.0518453
-0.0772094
-0.106576
-0.130173
-0.15285
-0.0776141
-0.0909315
-0.107199
-0.126253
-0.143202
-0.075746
-0.0850815
-0.100032
-0.117493
-0.133866
-0.0751052
-0.0858412
-0.100712
-0.11615
-0.129716
-0.0452297
-0.0721557
-0.0957753
-0.113411
-0.126179
-0.171144
-0.18193
-0.185848
-0.187381
-0.189305
-0.192191
-0.195703
-0.198562
-0.199366
-0.197158
-0.191521
-0.182389
-0.170366
-0.156594
-0.142227
-0.127981
-0.114134
-0.102013
-0.0939423
-0.0909644
-0.0921532
-0.0950881
-0.0975355
-0.0984844
-0.0975224
-0.0945072
-0.0898294
-0.0835096
-0.076095
-0.0677588
-0.0589532
-0.0502321
-0.0421341
-0.0348301
-0.028423
-0.0227367
-0.0177933
-0.0134833
-0.00986667
-0.00700551
-0.00483452
-0.00337037
-0.00223374
-0.00130439
-0.000505728
-0.159816
-0.171358
-0.177122
-0.178755
-0.178825
-0.178545
-0.177994
-0.176819
-0.174499
-0.170805
-0.165641
-0.159119
-0.151604
-0.143532
-0.135104
-0.126284
-0.116646
-0.108379
-0.103582
-0.103097
-0.106077
-0.11044
-0.113598
-0.114493
-0.112759
-0.108404
-0.101652
-0.0935239
-0.0842943
-0.0741168
-0.0635238
-0.0531134
-0.0434018
-0.0345869
-0.0268913
-0.0202284
-0.0146898
-0.0100861
-0.00648667
-0.00391197
-0.00221066
-0.00141904
-0.000861568
-0.000601911
-0.00025419
-0.147232
-0.156729
-0.162283
-0.164398
-0.164133
-0.162287
-0.159398
-0.155689
-0.15139
-0.14675
-0.142519
-0.139684
-0.138646
-0.138409
-0.134708
-0.125658
-0.116903
-0.112975
-0.111958
-0.111943
-0.113685
-0.116144
-0.117753
-0.117573
-0.115131
-0.110253
-0.103514
-0.0951195
-0.0854319
-0.0748379
-0.0638452
-0.0529939
-0.0427801
-0.0335058
-0.025411
-0.0184837
-0.012769
-0.00809912
-0.00459074
-0.00218161
-0.000732981
-0.000128857
0.000262645
0.000238245
0.000304864
-0.140489
-0.148273
-0.153034
-0.154827
-0.153965
-0.150819
-0.145998
-0.1398
-0.133038
-0.126357
-0.122009
-0.121489
-0.127798
-0.140286
-0.141854
-0.127188
-0.108212
-0.10081
-0.104568
-0.111913
-0.117458
-0.120549
-0.121125
-0.11956
-0.116156
-0.110185
-0.102705
-0.0938176
-0.0838971
-0.0732911
-0.0624147
-0.0517142
-0.0415775
-0.0323532
-0.0242352
-0.017278
-0.0115551
-0.00697473
-0.00360028
-0.00127883
7.95927e-05
0.00070997
0.000990236
0.000793157
0.000594444
-0.135796
-0.142882
-0.147324
-0.148955
-0.147697
-0.143898
-0.137974
-0.130715
-0.122772
-0.115555
-0.110795
-0.111071
-0.120126
-0.134765
-0.141116
-0.135043
-0.12383
-0.11463
-0.111287
-0.112153
-0.114779
-0.116814
-0.117348
-0.11597
-0.112393
-0.107068
-0.0999876
-0.0914574
-0.0818308
-0.071495
-0.0608866
-0.050452
-0.0404247
-0.0313947
-0.0234094
-0.0165626
-0.0109184
-0.00644668
-0.00315033
-0.000881899
0.000452689
0.0011302
0.0013205
0.00111993
0.000758706
-0.196195
-0.196713
-0.197422
-0.198461
-0.200102
-0.20319
-0.207767
-0.212662
-0.216199
-0.216223
-0.211142
-0.200164
-0.183327
-0.161248
-0.135371
-0.107827
-0.081034
-0.0569513
-0.0368807
-0.0216901
-0.0116363
-0.00638232
-0.00509908
-0.00670774
-0.0101092
-0.0144003
-0.0189618
-0.0230683
-0.0266323
-0.0295367
-0.0317626
-0.0334146
-0.0346369
-0.0353372
-0.0350292
-0.0334207
-0.030703
-0.0272156
-0.0232844
-0.0191403
-0.0149379
-0.0109147
-0.00726809
-0.00413358
-0.00124451
-0.190614
-0.192632
-0.193769
-0.195958
-0.199228
-0.203999
-0.209886
-0.215857
-0.22031
-0.221158
-0.216903
-0.206769
-0.190317
-0.168233
-0.14204
-0.113832
-0.0865048
-0.0619393
-0.0415495
-0.0259933
-0.0155278
-0.00987851
-0.00820152
-0.00940982
-0.0124292
-0.0163281
-0.0204804
-0.0245737
-0.0279176
-0.0303765
-0.0320766
-0.0333782
-0.0345766
-0.0353589
-0.0351373
-0.03349
-0.0306913
-0.0271247
-0.0230973
-0.0187364
-0.0143263
-0.010317
-0.00684745
-0.00397087
-0.00140662
-0.1996
-0.198204
-0.197745
-0.198258
-0.20104
-0.206186
-0.212799
-0.219273
-0.224618
-0.225662
-0.221435
-0.211194
-0.194877
-0.173172
-0.147544
-0.120191
-0.093764
-0.0701767
-0.0506723
-0.0358834
-0.0260692
-0.0208965
-0.0194409
-0.0205088
-0.0230468
-0.026197
-0.0293367
-0.0320889
-0.0341645
-0.0352677
-0.0356176
-0.0356109
-0.035604
-0.035309
-0.0341293
-0.0318064
-0.0286938
-0.025164
-0.0214742
-0.0176401
-0.013662
-0.00983357
-0.00647768
-0.00357186
-0.00123007
-0.186981
-0.189487
-0.190751
-0.193089
-0.197013
-0.202695
-0.209558
-0.216232
-0.221209
-0.222605
-0.218872
-0.209323
-0.19391
-0.173737
-0.150341
-0.125698
-0.102136
-0.0814038
-0.0646281
-0.0524734
-0.0449712
-0.0414418
-0.0407854
-0.041789
-0.043478
-0.0450671
-0.0460819
-0.0463735
-0.0458768
-0.0443943
-0.042152
-0.0396455
-0.0372393
-0.0347849
-0.0319974
-0.0288518
-0.0255476
-0.0221806
-0.0186668
-0.014968
-0.0112512
-0.00785008
-0.00507029
-0.00277704
-0.000960608
-0.223258
-0.202967
-0.199122
-0.196978
-0.198034
-0.202168
-0.207775
-0.212864
-0.216052
-0.215804
-0.211086
-0.201427
-0.18704
-0.169159
-0.149272
-0.128933
-0.109764
-0.093362
-0.0810829
-0.0735585
-0.0702128
-0.0696022
-0.0702852
-0.0712576
-0.0717372
-0.0710593
-0.0689821
-0.0660483
-0.0617858
-0.0565752
-0.0508606
-0.0451079
-0.0397369
-0.0348019
-0.0302019
-0.0257751
-0.0215755
-0.0176464
-0.0140472
-0.0108337
-0.0080672
-0.00572526
-0.00381622
-0.00214401
-0.000768324
)
;

boundaryField
{
    inlet
    {
        type            zeroGradient;
    }
    outlet
    {
        type            fixedValue;
        value           uniform 0;
    }
    upperWall
    {
        type            zeroGradient;
    }
    lowerWall
    {
        type            zeroGradient;
    }
    frontAndBack
    {
        type            empty;
    }
}


// ************************************************************************* //
