/*--------------------------------*- C++ -*----------------------------------*\
  =========                 |
  \\      /  F ield         | OpenFOAM: The Open Source CFD Toolbox
   \\    /   O peration     | Website:  https://openfoam.org
    \\  /    A nd           | Version:  10
     \\/     M anipulation  |
\*---------------------------------------------------------------------------*/
FoamFile
{
    format      ascii;
    class       volScalarField;
    location    "5.125";
    object      p;
}
// * * * * * * * * * * * * * * * * * * * * * * * * * * * * * * * * * * * * * //

dimensions      [0 2 -2 0 0 0 0];

internalField   nonuniform List<scalar> 
400
(
-6.06902e-08
-2.36418e-05
9.69878e-06
7.70283e-05
0.000184537
0.000333178
0.000524161
0.000758642
0.00103699
0.00135809
0.00171864
0.00211228
0.00252863
0.00295321
0.00336667
0.00374553
0.00406335
0.00429378
0.0044305
0.00441878
2.41878e-05
-1.50843e-07
3.62051e-05
0.000102659
0.000206968
0.000350787
0.000535795
0.000763539
0.00103476
0.00134881
0.00170289
0.00209099
0.00250331
0.00292627
0.00334058
0.00372254
0.00404492
0.00428087
0.00442538
0.00441193
-1.37632e-05
-4.40479e-05
-9.30279e-06
5.41023e-05
0.000154741
0.000294531
0.000475642
0.000700326
0.000970178
0.00128552
0.00164457
0.0020428
0.00247183
0.00291729
0.00335935
0.00377226
0.00412501
0.00438516
0.00454575
0.00452521
-9.38122e-05
-0.000128614
-9.63332e-05
-3.7204e-05
5.82793e-05
0.000192458
0.00036827
0.000589044
0.000857721
0.00117624
0.00154467
0.0019602
0.00241582
0.00289893
0.0033885
0.00385532
0.00426163
0.00456549
0.00475571
0.00473123
-0.000221617
-0.000260938
-0.000232192
-0.00017871
-8.99662e-05
3.69243e-05
0.000205885
0.000421645
0.000688977
0.00101209
0.00139369
0.00183371
0.00232804
0.0028656
0.00342492
0.00397287
0.00446289
0.0048372
0.00507588
0.00504986
-0.000396812
-0.000441348
-0.00041733
-0.000371275
-0.000291589
-0.000174783
-1.57955e-05
0.000191768
0.000454949
0.000780934
0.00117611
0.0016446
0.00218646
0.00279523
0.00344986
0.0041132
0.00472727
0.00521132
0.00552734
0.00550468
-0.00061853
-0.000669333
-0.000651439
-0.000615163
-0.000547826
-0.000445372
-0.000301559
-0.000108163
0.000144486
0.000467245
0.000871402
0.00136703
0.00196039
0.00265422
0.00343093
0.00425151
0.00504495
0.00569949
0.0061401
0.00613534
-0.000885935
-0.000944299
-0.000934137
-0.000910543
-0.00085982
-0.000777543
-0.000656432
-0.000486484
-0.000255253
5.22678e-05
0.000453321
0.00096556
0.00160219
0.00239057
0.00331352
0.00433931
0.0053867
0.00630639
0.00695374
0.00700907
-0.00119796
-0.00126531
-0.0012645
-0.00125682
-0.00122773
-0.00117287
-0.00108433
-0.000950732
-0.000757146
-0.000484345
-0.000108197
0.000400743
0.00107728
0.00193059
0.0030062
0.00428222
0.00567843
0.00700931
0.00801477
0.00824461
-0.00155328
-0.00163103
-0.00164083
-0.00165212
-0.00164994
-0.00163061
-0.00158644
-0.00150557
-0.00137162
-0.00116229
-0.0008478
-0.000389412
0.000259353
0.00114226
0.00235725
0.00390051
0.00574443
0.00770547
0.00935747
0.0100607
-0.0019506
-0.00203998
-0.00206052
-0.00209288
-0.00212221
-0.00214645
-0.00215925
-0.00214978
-0.00210225
-0.00199381
-0.00179179
-0.00144992
-0.000902699
-5.84025e-05
0.0011307
0.00285011
0.00516675
0.00803659
0.0108729
0.0126001
-0.00238941
-0.00249106
-0.00252018
-0.00257351
-0.00263695
-0.00271118
-0.00279259
-0.00287326
-0.00294078
-0.00297623
-0.00295124
-0.00282288
-0.00252532
-0.00195826
-0.000993029
0.000503132
0.00299042
0.00683912
0.0115485
0.0152819
-0.0028718
-0.00298532
-0.00301692
-0.00308722
-0.00318316
-0.00330972
-0.00346776
-0.00365414
-0.00386317
-0.00408568
-0.0043071
-0.00450468
-0.00464337
-0.00467373
-0.00453957
-0.00411862
-0.00293165
0.000647826
0.00699288
0.0142295
-0.0034015
-0.00351819
-0.00353555
-0.00361189
-0.00373567
-0.00391472
-0.00415279
-0.00445324
-0.00482018
-0.00525933
-0.00578021
-0.00640054
-0.00715837
-0.00814863
-0.00962755
-0.0119347
-0.0148256
-0.0137546
-0.00703856
0.00491245
-0.00401248
-0.00414482
-0.004135
-0.00420925
-0.00433913
-0.0045456
-0.00484169
-0.00524038
-0.00575791
-0.00641868
-0.00726435
-0.00836811
-0.00988424
-0.0121049
-0.0157548
-0.021799
-0.0309833
-0.034185
-0.0281754
-0.0105429
-0.00478363
-0.00471638
-0.00460311
-0.00459724
-0.00471982
-0.00497262
-0.0053539
-0.00586893
-0.00653679
-0.00739296
-0.00850592
-0.0100009
-0.0121491
-0.0153555
-0.0208852
-0.0295209
-0.0437038
-0.0503166
-0.0459106
-0.0214149
-0.00526855
-0.00570321
-0.00545417
-0.00551085
-0.0055634
-0.00574593
-0.00607407
-0.00657245
-0.0072684
-0.00819688
-0.00943392
-0.0110935
-0.0135321
-0.0170348
-0.0233204
-0.0323777
-0.0473318
-0.0538294
-0.0481743
-0.0126446
-0.00860481
-0.00609024
-0.00553122
-0.00504773
-0.00507037
-0.00535862
-0.00585524
-0.00651586
-0.00735601
-0.00838826
-0.00970616
-0.0113576
-0.0137583
-0.0170956
-0.0227185
-0.0303116
-0.0409216
-0.0433814
-0.0314859
0.0207396
-0.00538792
-0.00834228
-0.00737625
-0.00748732
-0.00716737
-0.00707262
-0.00717874
-0.00751703
-0.00812577
-0.00895903
-0.0101102
-0.011573
-0.0137767
-0.0167673
-0.0218519
-0.0276967
-0.0349761
-0.0272211
0.000624529
0.0843585
-0.0303892
-0.0054071
-0.00407719
-0.00342407
-0.00333038
-0.0036879
-0.00439618
-0.00520894
-0.00624006
-0.00738552
-0.00885511
-0.0106231
-0.013042
-0.01587
-0.0193472
-0.0204459
-0.016199
0.0136698
0.0842654
0.222592
)
;

boundaryField
{
    movingWall
    {
        type            zeroGradient;
    }
    fixedWalls
    {
        type            zeroGradient;
    }
    frontAndBack
    {
        type            empty;
    }
}


// ************************************************************************* //
