/*--------------------------------*- C++ -*----------------------------------*\
  =========                 |
  \\      /  F ield         | OpenFOAM: The Open Source CFD Toolbox
   \\    /   O peration     | Website:  https://openfoam.org
    \\  /    A nd           | Version:  10
     \\/     M anipulation  |
\*---------------------------------------------------------------------------*/
FoamFile
{
    format      ascii;
    class       surfaceScalarField;
    location    "3.6";
    object      phi;
}
// * * * * * * * * * * * * * * * * * * * * * * * * * * * * * * * * * * * * * //

dimensions      [0 3 -1 0 0 0 0];

internalField   nonuniform List<scalar> 
22800
(
-2.81427e-06
3.06684e-06
-2.5459e-07
-8.5473e-06
5.59582e-06
1.37198e-07
-1.48378e-05
6.02932e-06
2.61155e-07
-2.10672e-05
5.90967e-06
3.19794e-07
-2.69995e-05
5.61457e-06
3.17726e-07
-3.24826e-05
5.20547e-06
2.77645e-07
-3.73744e-05
4.68045e-06
2.11325e-07
-4.15249e-05
4.02881e-06
1.21714e-07
-4.47729e-05
3.24036e-06
7.61487e-09
-4.6963e-05
2.30617e-06
-1.161e-07
-4.79238e-05
1.2293e-06
-2.68454e-07
-4.7493e-05
6.54005e-09
-4.37344e-07
-4.55503e-05
-1.32384e-06
-6.18883e-07
-4.20063e-05
-2.74016e-06
-8.03778e-07
-3.68488e-05
-4.1769e-06
-9.80614e-07
-3.01643e-05
-5.55389e-06
-1.13063e-06
-2.21839e-05
-6.75941e-06
-1.22099e-06
-1.33844e-05
-7.59764e-06
-1.20184e-06
-4.82647e-06
-7.51477e-06
-1.0432e-06
-4.46519e-06
-3.61278e-07
-5.35845e-06
9.29039e-06
-8.65101e-07
-1.4667e-05
1.54e-05
-4.95591e-07
-2.46699e-05
1.63812e-05
-3.49067e-07
-3.44865e-05
1.59628e-05
-2.36588e-07
-4.37517e-05
1.50579e-05
-1.78144e-07
-5.22193e-05
1.38255e-05
-1.52399e-07
-5.96658e-05
1.22756e-05
-1.48586e-07
-6.5869e-05
1.03964e-05
-1.64343e-07
-7.06038e-05
8.17556e-06
-2.00447e-07
-7.36431e-05
5.60531e-06
-2.59857e-07
-7.47613e-05
2.69016e-06
-3.42626e-07
-7.37887e-05
-5.15987e-07
-4.50117e-07
-7.05232e-05
-4.02025e-06
-5.69047e-07
-6.48826e-05
-7.6803e-06
-7.00426e-07
-5.68705e-05
-1.13583e-05
-8.30792e-07
-4.66288e-05
-1.48569e-05
-9.38665e-07
-3.44997e-05
-1.79036e-05
-9.84875e-07
-2.11653e-05
-2.00181e-05
-9.13985e-07
-8.09923e-06
-1.98754e-05
-7.05446e-07
-1.2612e-05
4.76231e-08
-6.06505e-06
1.64824e-05
-1.12692e-06
-1.64591e-05
2.65668e-05
-7.72778e-07
-2.7576e-05
2.8114e-05
-6.15839e-07
-3.84612e-05
2.73286e-05
-4.80534e-07
-4.87262e-05
2.572e-05
-3.9709e-07
-5.81083e-05
2.35518e-05
-3.44283e-07
-6.63694e-05
2.08478e-05
-3.11117e-07
-7.32719e-05
1.7596e-05
-2.97071e-07
-7.85746e-05
1.37826e-05
-3.04415e-07
-8.20353e-05
9.40196e-06
-3.35969e-07
-8.342e-05
4.46762e-06
-3.92764e-07
-8.24743e-05
-9.84839e-07
-4.76804e-07
-7.9008e-05
-6.90404e-06
-5.8252e-07
-7.28915e-05
-1.30914e-05
-7.05416e-07
-6.40937e-05
-1.93238e-05
-8.32346e-07
-5.27347e-05
-2.52764e-05
-9.39409e-07
-3.91652e-05
-3.0491e-05
-9.82074e-07
-2.4131e-05
-3.4155e-05
-8.97236e-07
-9.29118e-06
-3.40502e-05
-6.65089e-07
-2.20643e-05
1.61026e-07
-6.38065e-06
2.42101e-05
-1.34714e-06
-1.73761e-05
3.8572e-05
-1.00974e-06
-2.91337e-05
4.07182e-05
-8.4658e-07
-4.06602e-05
3.95502e-05
-6.9513e-07
-5.15609e-05
3.72145e-05
-5.93736e-07
-6.15728e-05
3.40853e-05
-5.21574e-07
-7.04564e-05
3.01997e-05
-4.68266e-07
-7.79697e-05
2.55436e-05
-4.34269e-07
-8.38617e-05
2.00974e-05
-4.22837e-07
-8.78703e-05
1.38483e-05
-4.37736e-07
-8.97267e-05
6.80651e-06
-4.82423e-07
-8.91682e-05
-9.81002e-07
-5.62337e-07
-8.58976e-05
-9.50896e-06
-6.65723e-07
-7.97187e-05
-1.84774e-05
-7.92805e-07
-7.05234e-05
-2.75898e-05
-9.29256e-07
-5.83702e-05
-3.63804e-05
-1.04923e-06
-4.35859e-05
-4.41745e-05
-1.10086e-06
-2.69771e-05
-4.9755e-05
-1.0089e-06
-1.04182e-05
-4.98585e-05
-7.50558e-07
-3.2656e-05
1.73558e-07
-6.71319e-06
3.24792e-05
-1.5559e-06
-1.83758e-05
5.14624e-05
-1.22782e-06
-3.0863e-05
5.42641e-05
-1.05873e-06
-4.31334e-05
5.27149e-05
-8.94283e-07
-5.47868e-05
4.96483e-05
-7.80319e-07
-6.55635e-05
4.5558e-05
-6.96021e-07
-7.52274e-05
4.0495e-05
-6.31425e-07
-8.3536e-05
3.44401e-05
-5.87881e-07
-9.02299e-05
2.7361e-05
-5.69705e-07
-9.5026e-05
1.92264e-05
-5.81941e-07
-9.76144e-05
1.00245e-05
-6.29624e-07
-9.76811e-05
-1.94866e-07
-7.19414e-07
-9.48319e-05
-1.15192e-05
-8.38995e-07
-8.87566e-05
-2.35608e-05
-9.91857e-07
-7.92104e-05
-3.59744e-05
-1.16165e-06
-6.61252e-05
-4.81478e-05
-1.3177e-06
-4.97656e-05
-5.91365e-05
-1.39756e-06
-3.10087e-05
-6.72048e-05
-1.30709e-06
-1.20456e-05
-6.78083e-05
-1.01335e-06
-4.47689e-05
6.73836e-08
-7.14226e-06
4.14122e-05
-1.79073e-06
-1.96523e-05
6.544e-05
-1.46762e-06
-3.30669e-05
6.89706e-05
-1.2919e-06
-4.62803e-05
6.70426e-05
-1.11432e-06
-5.88866e-05
6.32434e-05
-9.88874e-07
-7.06332e-05
5.81992e-05
-8.94678e-07
-8.12928e-05
5.1977e-05
-8.22307e-07
-9.06283e-05
4.45497e-05
-7.74158e-07
-9.83768e-05
3.58652e-05
-7.5573e-07
-0.000104237
2.58603e-05
-7.73436e-07
-0.000107859
1.44801e-05
-8.33867e-07
-0.000108851
1.7401e-06
-9.42811e-07
-0.000106715
-1.25514e-05
-1.1041e-06
-0.000100959
-2.80091e-05
-1.30762e-06
-9.11354e-05
-4.42574e-05
-1.54041e-06
-7.69609e-05
-6.05562e-05
-1.76618e-06
-5.85515e-05
-7.56401e-05
-1.90573e-06
-3.68353e-05
-8.70856e-05
-1.83551e-06
-1.44494e-05
-8.86944e-05
-1.4997e-06
-5.90564e-05
-1.62002e-07
-7.68023e-06
5.11732e-05
-2.08079e-06
-2.12415e-05
8.07647e-05
-1.76349e-06
-3.57979e-05
8.51066e-05
-1.57956e-06
-5.01633e-05
8.27934e-05
-1.38532e-06
-6.39266e-05
7.82518e-05
-1.24505e-06
-7.68489e-05
7.22598e-05
-1.13824e-06
-8.87206e-05
6.49053e-05
-1.05657e-06
-9.93206e-05
5.61536e-05
-1.00392e-06
-0.000108394
4.59264e-05
-9.87523e-07
-0.000115633
3.41148e-05
-1.01579e-06
-0.000120653
2.05969e-05
-1.09701e-06
-0.000122963
5.28749e-06
-1.23704e-06
-0.000121973
-1.2075e-05
-1.46645e-06
-0.000116928
-3.12993e-05
-1.75431e-06
-0.000107082
-5.2009e-05
-2.09481e-06
-9.1793e-05
-7.33996e-05
-2.44577e-06
-7.08662e-05
-9.38637e-05
-2.70318e-06
-4.51883e-05
-0.000110067
-2.69606e-06
-1.8004e-05
-0.000113559
-2.31925e-06
-7.64656e-05
-5.94763e-07
-8.33224e-06
6.19562e-05
-2.45074e-06
-2.31609e-05
9.77378e-05
-2.14438e-06
-3.90775e-05
0.000102972
-1.94908e-06
-5.47977e-05
0.000100244
-1.73077e-06
-6.99087e-05
9.49304e-05
-1.56763e-06
-8.41947e-05
8.79864e-05
-1.44056e-06
-9.74772e-05
7.9531e-05
-1.34334e-06
-0.000109567
6.95261e-05
-1.28221e-06
-0.000120239
5.78651e-05
-1.26692e-06
-0.000129197
4.43815e-05
-1.30917e-06
-0.000136037
2.88579e-05
-1.42038e-06
-0.00014021
1.10653e-05
-1.6049e-06
-0.000140986
-9.36134e-06
-1.93794e-06
-0.00013731
-3.26192e-05
-2.35666e-06
-0.000128007
-5.84365e-05
-2.87465e-06
-0.000111864
-8.60976e-05
-3.44547e-06
-8.80816e-05
-0.000113715
-3.93099e-06
-5.72431e-05
-0.000136824
-4.08157e-06
-2.33797e-05
-0.000143734
-3.68862e-06
-9.84252e-05
-1.42015e-06
-9.11216e-06
7.39986e-05
-2.93023e-06
-2.5444e-05
0.000116714
-2.6444e-06
-4.29431e-05
0.000122903
-2.43162e-06
-6.02092e-05
0.000119686
-2.17594e-06
-7.68342e-05
0.00011353
-1.97503e-06
-9.26391e-05
0.000105604
-1.81315e-06
-0.000107494
9.60739e-05
-1.68779e-06
-0.000121267
8.49074e-05
-1.60875e-06
-0.000133788
7.19763e-05
-1.58947e-06
-0.000144814
5.70537e-05
-1.6468e-06
-0.000153965
3.98096e-05
-1.80074e-06
-0.000160645
1.98284e-05
-2.08248e-06
-0.000164058
-3.42334e-06
-2.52585e-06
-0.000162786
-3.07517e-05
-3.13861e-06
-0.000155097
-6.21831e-05
-3.94255e-06
-0.000138899
-9.74025e-05
-4.89327e-06
-0.000112303
-0.000134498
-5.81309e-06
-7.49882e-05
-0.000167809
-6.32999e-06
-3.18625e-05
-0.000180851
-6.00928e-06
-0.000127245
-3.04224e-06
-1.00539e-05
8.76142e-05
-3.56171e-06
-2.81604e-05
0.000138131
-3.31088e-06
-4.74732e-05
0.000145285
-3.06881e-06
-6.64586e-05
0.000141424
-2.75237e-06
-8.47259e-05
0.000134285
-2.48762e-06
-0.000102152
0.000125296
-2.26549e-06
-0.000118679
0.00011469
-2.08965e-06
-0.000134259
0.000102462
-1.9749e-06
-0.000148819
8.84761e-05
-1.93958e-06
-0.000162218
7.24599e-05
-2.00707e-06
-0.000174173
5.39724e-05
-2.20827e-06
-0.000184135
3.238e-05
-2.58922e-06
-0.000191283
6.9184e-06
-3.19348e-06
-0.000193954
-2.39758e-05
-4.105e-06
-0.00018971
-6.10686e-05
-5.35854e-06
-0.000175225
-0.000104937
-6.95065e-06
-0.000146749
-0.000154293
-8.6808e-06
-0.00010191
-0.000202632
-1.00164e-05
-4.60658e-05
-0.000226669
-1.00256e-05
-0.000166834
-6.47765e-06
-1.12316e-05
0.000103257
-4.41144e-06
-3.14486e-05
0.000162563
-4.21468e-06
-5.28205e-05
0.000170577
-3.92026e-06
-7.36716e-05
0.000165777
-3.50179e-06
-9.36536e-05
0.000157396
-3.12823e-06
-0.000112726
0.000147171
-2.80278e-06
-0.000130927
0.000135431
-2.53883e-06
-0.000148326
0.000122218
-2.3577e-06
-0.00016499
0.000107423
-2.28314e-06
-0.000180949
9.07644e-05
-2.34558e-06
-0.00019612
7.17312e-05
-2.5879e-06
-0.000210175
4.95064e-05
-3.07086e-06
-0.000222292
2.29013e-05
-3.8659e-06
-0.000231032
-1.00239e-05
-5.21166e-06
-0.00023315
-5.18129e-05
-7.13775e-06
-0.000223794
-0.00010453
-9.76417e-06
-0.000196294
-0.00016884
-1.29528e-05
-0.000144259
-0.000238645
-1.60211e-05
-7.15736e-05
-0.000282201
-1.7154e-05
-0.000224536
-1.38709e-05
-1.27998e-05
0.000121646
-5.5894e-06
-3.55716e-05
0.000190801
-5.46651e-06
-5.92666e-05
0.000199346
-5.0747e-06
-8.20857e-05
0.000193077
-4.48059e-06
-0.000103772
0.000183003
-3.92073e-06
-0.000124405
0.000171224
-3.42006e-06
-0.000144148
0.000158181
-3.00659e-06
-0.000163212
0.000143991
-2.70932e-06
-0.000181843
0.000128611
-2.55669e-06
-0.000200311
0.000111818
-2.58522e-06
-0.00021886
9.31306e-05
-2.85128e-06
-0.000237574
7.1662e-05
-3.44149e-06
-0.000256089
4.59027e-05
-4.48622e-06
-0.000273323
1.34782e-05
-6.26811e-06
-0.000286051
-2.99885e-05
-9.09654e-06
-0.000287883
-8.94368e-05
-1.32607e-05
-0.00026811
-0.000169712
-1.89004e-05
-0.000213249
-0.00026817
-2.53374e-05
-0.000121107
-0.000344534
-2.98079e-05
-0.000314996
-3.0648e-05
-1.50867e-05
0.000144024
-7.29127e-06
-4.10223e-05
0.00022399
-7.2525e-06
-6.73075e-05
0.000232302
-6.6703e-06
-9.21166e-05
0.00022365
-5.76437e-06
-0.000115377
0.000211147
-4.88377e-06
-0.000137339
0.000197274
-4.08859e-06
-0.000158315
0.000182584
-3.42725e-06
-0.000178667
0.000167279
-2.9361e-06
-0.000198836
0.000151424
-2.64407e-06
-0.000219372
0.000134941
-2.58713e-06
-0.000240948
0.000117535
-2.82743e-06
-0.000264313
9.8501e-05
-3.47464e-06
-0.000290111
7.64242e-05
-4.72345e-06
-0.000318242
4.85073e-05
-6.8982e-06
-0.000347344
9.92953e-06
-1.0816e-05
-0.000370044
-4.99858e-05
-1.67505e-05
-0.000371805
-0.000142255
-2.56961e-05
-0.0003273
-0.000275254
-3.74206e-05
-0.000216486
-0.000405605
-4.97438e-05
-0.000464596
-6.68855e-05
-1.8815e-05
0.000172716
-9.87693e-06
-4.87726e-05
0.000263849
-9.9021e-06
-7.78165e-05
0.000270326
-8.98064e-06
-0.000104457
0.000257804
-7.51327e-06
-0.000128976
0.000241716
-6.05001e-06
-0.000151847
0.00022488
-4.73568e-06
-0.000173538
0.000207932
-3.65723e-06
-0.000194547
0.00019114
-2.85142e-06
-0.000215482
0.00017469
-2.33146e-06
-0.000237157
0.000158733
-2.11663e-06
-0.000260748
0.000143386
-2.26085e-06
-0.000287905
0.000128545
-2.88808e-06
-0.000320779
0.000113508
-4.20965e-06
-0.00036166
9.59166e-05
-6.52822e-06
-0.000411546
6.99989e-05
-1.01831e-05
-0.000467783
2.26664e-05
-1.64155e-05
-0.000515226
-6.75365e-05
-2.72755e-05
-0.000508394
-0.000238853
-4.32323e-05
-0.000389814
-0.000460211
-6.39739e-05
-0.00073668
-0.00011773
-2.4731e-05
0.000211528
-1.40805e-05
-5.99417e-05
0.000312689
-1.36293e-05
-9.19694e-05
0.000314273
-1.19186e-05
-0.00012029
0.000295474
-9.34948e-06
-0.000145544
0.000273963
-6.99236e-06
-0.000168569
0.000252854
-4.94888e-06
-0.000190124
0.000232778
-3.29094e-06
-0.000210821
0.000213875
-2.03782e-06
-0.000231291
0.000196337
-1.17728e-06
-0.000252386
0.000180525
-6.96254e-07
-0.000275529
0.000167099
-5.70038e-07
-0.000303125
0.000156936
-7.94205e-07
-0.000339388
0.000151144
-1.37268e-06
-0.00039062
0.000149468
-2.31909e-06
-0.000465249
0.000148147
-3.51932e-06
-0.000569292
0.000131006
-4.29658e-06
-0.000696186
6.40521e-05
-4.69518e-06
-0.00076302
-0.000167892
-4.12674e-06
-0.000644252
-0.000574099
-4.88089e-06
-0.00126067
-0.000120263
-4.38756e-05
0.000276662
-2.12584e-05
-8.22021e-05
0.000373107
-2.20913e-05
-0.000113897
0.000364493
-1.85253e-05
-0.000140355
0.000335918
-1.39863e-05
-0.000164296
0.000307279
-9.37508e-06
-0.000186487
0.000280469
-5.42382e-06
-0.000207337
0.000255942
-2.31406e-06
-0.000227028
0.000233596
-3.01095e-08
-0.000245882
0.000213796
1.39494e-06
-0.000264589
0.000197005
2.22694e-06
-0.000284715
0.000184636
2.58962e-06
-0.00030889
0.000178372
2.73824e-06
-0.00034275
0.000181752
3.25184e-06
-0.000396138
0.000197438
5.41802e-06
-0.000487215
0.000226544
1.26796e-05
-0.000634106
0.00024447
3.34274e-05
-0.000850329
0.000202081
7.81939e-05
-0.00100907
-0.000158518
0.000149368
-0.000885425
-0.000899742
0.000201996
-0.00209582
-5.02711e-05
-3.93246e-05
0.000351216
-3.52297e-05
-9.69566e-05
0.000458687
-2.79476e-05
-0.000138107
0.000427621
-2.1978e-05
-0.000169909
0.000380426
-1.27054e-05
-0.000193494
0.000336502
-5.63836e-06
-0.000211759
0.000298983
-2.49005e-07
-0.00022701
0.000267312
3.88143e-06
-0.000240261
0.000240221
6.6263e-06
-0.00025218
0.0002174
8.31504e-06
-0.00026273
0.000198363
9.1919e-06
-0.000272628
0.000184849
9.68508e-06
-0.000282967
0.000178231
1.04791e-05
-0.000298977
0.000184415
1.33465e-05
-0.000331482
0.000207332
2.26119e-05
-0.000411828
0.000257882
4.90083e-05
-0.000573132
0.000293351
0.000112423
-0.000871097
0.000259559
0.000240488
-0.00111895
-0.000294576
0.000383913
-0.000973496
-0.00145143
0.00040623
-0.00296744
-0.000101884
-0.000176497
0.000578138
-5.04244e-05
-0.000192764
0.000528388
-5.34351e-05
-0.000193136
0.000469468
-4.14743e-05
-0.000194957
0.000407993
-2.57461e-05
-0.000191795
0.000343558
-1.02188e-05
-0.000187703
0.000293392
1.49973e-06
-0.000184301
0.000254151
9.75874e-06
-0.000181026
0.000221976
1.49704e-05
-0.000177874
0.000196353
1.78942e-05
-0.000173295
0.000174899
1.8885e-05
-0.000167733
0.000160343
1.89442e-05
-0.000159352
0.000150991
1.88596e-05
-0.000151305
0.000154368
2.20002e-05
-0.000146776
0.000168712
3.40908e-05
-0.000169867
0.000207978
7.29941e-05
-0.000257125
0.00022316
0.00015745
-0.000465792
0.000141089
0.000327136
-0.000749841
-0.000503212
0.000492684
-0.00073399
-0.00185929
0.000392013
-0.00334951
-0.000351919
-0.000375366
0.00109092
-0.000137421
-0.000277135
0.000508466
-7.83081e-05
-0.000144091
0.000380486
-4.40625e-05
-6.82572e-06
0.000280869
-1.01408e-05
0.00011557
0.000209396
1.1766e-05
0.000219582
0.000162386
2.69944e-05
0.000304504
0.000132322
3.69074e-05
0.000373819
0.000110623
4.2037e-05
0.000430103
9.59815e-05
4.40881e-05
0.000478164
8.40195e-05
4.28179e-05
0.000522074
7.68219e-05
3.9611e-05
0.000565974
7.19467e-05
3.51443e-05
0.000619276
6.9704e-05
3.13621e-05
0.000685437
7.23882e-05
3.0163e-05
0.000774973
6.5988e-05
5.24544e-05
0.00085936
4.82989e-05
9.04736e-05
0.000871776
-6.9261e-05
0.000197935
0.000534721
-0.000535533
0.000369376
6.68387e-05
-0.00154903
0.000157621
-0.00267653
-0.000606139
0.00123266
-0.000141737
0.00188322
-0.000142097
0.00239481
-0.000131099
0.00278397
-0.000108295
0.00307619
-8.28254e-05
0.00329872
-6.01394e-05
0.00346909
-3.80504e-05
0.0036009
-2.11812e-05
0.00370146
-4.57886e-06
0.00378006
5.41697e-06
0.00384259
1.42962e-05
0.00389565
1.88847e-05
0.0039479
1.74484e-05
0.00399653
2.37612e-05
0.0040473
1.52162e-05
0.00406032
3.52845e-05
0.00396049
3.057e-05
0.00339991
2.50453e-05
0.00188616
-3.52785e-05
-0.000790375
-4.90698e-06
5.0687e-06
-4.16313e-07
-1.42885e-05
9.65882e-06
-1.40069e-07
-2.44537e-05
1.04396e-05
-1.32613e-08
-3.43393e-05
1.01468e-05
5.86127e-08
-4.36087e-05
9.51049e-06
7.65565e-08
-5.20473e-05
8.6601e-06
5.62076e-08
-5.94487e-05
7.60461e-06
8.14863e-09
-6.55922e-05
6.3383e-06
-7.30925e-08
-7.02601e-05
4.85445e-06
-1.78959e-07
-7.32217e-05
3.15403e-06
-3.08554e-07
-7.42695e-05
1.24046e-06
-4.61096e-07
-7.32076e-05
-8.67015e-07
-6.32231e-07
-6.98818e-05
-3.12815e-06
-8.16527e-07
-6.4203e-05
-5.4762e-06
-1.00638e-06
-5.6178e-05
-7.81925e-06
-1.18636e-06
-4.59397e-05
-1.00339e-05
-1.33504e-06
-3.3797e-05
-1.19439e-05
-1.41978e-06
-2.03936e-05
-1.32074e-05
-1.39781e-06
-7.40908e-06
-1.27824e-05
-1.24534e-06
-7.13005e-06
-6.40308e-07
-9.77788e-06
1.49572e-05
-9.75692e-07
-2.57624e-05
2.59146e-05
-7.66846e-07
-4.27322e-05
2.76734e-05
-6.13063e-07
-5.91238e-05
2.67807e-05
-4.78862e-07
-7.43686e-05
2.49765e-05
-3.99341e-07
-8.8086e-05
2.25842e-05
-3.59112e-07
-9.99285e-05
1.96472e-05
-3.48677e-07
-0.000109558
1.61695e-05
-3.65957e-07
-0.000116647
1.21552e-05
-4.11818e-07
-0.000120883
7.61683e-06
-4.87391e-07
-0.000121972
2.58022e-06
-5.93292e-07
-0.000119683
-2.8774e-06
-7.28508e-07
-0.000113812
-8.68607e-06
-8.82464e-07
-0.000104279
-1.46619e-05
-1.04745e-06
-9.11407e-05
-2.05819e-05
-1.20649e-06
-7.46356e-05
-2.61438e-05
-1.33387e-06
-5.52552e-05
-3.09197e-05
-1.38959e-06
-3.39712e-05
-3.408e-05
-1.32535e-06
-1.31719e-05
-3.31671e-05
-1.12005e-06
-1.98569e-05
-3.97411e-07
-1.12507e-05
2.63363e-05
-1.25541e-06
-2.9358e-05
4.43356e-05
-1.08639e-06
-4.84838e-05
4.71048e-05
-9.21474e-07
-6.69107e-05
4.54885e-05
-7.61313e-07
-8.40233e-05
4.23451e-05
-6.5307e-07
-9.94079e-05
3.82068e-05
-5.82214e-07
-0.000112687
3.3155e-05
-5.40061e-07
-0.000123496
2.72077e-05
-5.26085e-07
-0.000131483
2.03801e-05
-5.42448e-07
-0.00013631
1.26995e-05
-5.91635e-07
-0.00013767
4.22246e-06
-6.74773e-07
-0.000135245
-4.98729e-06
-7.9183e-07
-0.000128825
-1.47536e-05
-9.35525e-07
-0.000118285
-2.48096e-05
-1.09715e-06
-0.000103643
-3.47975e-05
-1.25863e-06
-8.51188e-05
-4.42166e-05
-1.3911e-06
-6.32227e-05
-5.23491e-05
-1.44873e-06
-3.90257e-05
-5.77988e-05
-1.37547e-06
-1.52299e-05
-5.64782e-05
-1.1498e-06
-3.4563e-05
-3.62743e-07
-1.19628e-05
3.8468e-05
-1.51598e-06
-3.12565e-05
6.40079e-05
-1.38838e-06
-5.16173e-05
6.78348e-05
-1.21586e-06
-7.12439e-05
6.54553e-05
-1.03534e-06
-8.95065e-05
6.0918e-05
-9.0419e-07
-0.000105986
5.4974e-05
-8.08917e-07
-0.000120301
4.77431e-05
-7.41903e-07
-0.000132078
3.92544e-05
-7.0408e-07
-0.00014095
2.95281e-05
-6.99061e-07
-0.000146553
1.85956e-05
-7.30857e-07
-0.000148535
6.52512e-06
-8.02695e-07
-0.000146544
-6.623e-06
-9.17775e-07
-0.000140249
-2.06476e-05
-1.06625e-06
-0.000129431
-3.51792e-05
-1.24123e-06
-0.000114006
-4.97286e-05
-1.42349e-06
-9.41093e-05
-6.35815e-05
-1.58078e-06
-7.02214e-05
-7.56789e-05
-1.65889e-06
-4.3502e-05
-8.39379e-05
-1.58915e-06
-1.7004e-05
-8.23816e-05
-1.34513e-06
-5.09334e-05
-4.60066e-07
-1.27184e-05
5.14135e-05
-1.78302e-06
-3.33128e-05
8.50705e-05
-1.69607e-06
-5.50558e-05
9.00344e-05
-1.51532e-06
-7.60466e-05
8.6867e-05
-1.31516e-06
-9.56419e-05
8.08969e-05
-1.16399e-06
-0.000113424
7.31096e-05
-1.04912e-06
-0.000129014
6.36648e-05
-9.63949e-07
-0.000142035
5.25988e-05
-9.10934e-07
-0.000152108
3.9927e-05
-8.95378e-07
-0.000158839
2.56678e-05
-9.2326e-07
-0.000161816
9.87289e-06
-1.00001e-06
-0.00016061
-7.41807e-06
-1.13018e-06
-0.000154762
-2.60295e-05
-1.30584e-06
-0.000143888
-4.55234e-05
-1.52146e-06
-0.00012772
-6.53021e-05
-1.7558e-06
-0.000106226
-8.44233e-05
-1.97046e-06
-7.97973e-05
-0.000101406
-2.09856e-06
-4.96981e-05
-0.000113293
-2.05099e-06
-1.94947e-05
-0.000111812
-1.78665e-06
-6.96256e-05
-7.35225e-07
-1.36906e-05
6.54058e-05
-2.09234e-06
-3.59364e-05
0.000107898
-2.04931e-06
-5.94336e-05
0.000114098
-1.85834e-06
-8.2152e-05
0.000110107
-1.63574e-06
-0.000103433
0.000102652
-1.46274e-06
-0.000122866
9.29759e-05
-1.32768e-06
-0.000140081
8.12831e-05
-1.22536e-06
-0.00015471
6.76136e-05
-1.16014e-06
-0.000166367
5.19673e-05
-1.13946e-06
-0.00017463
3.43288e-05
-1.17175e-06
-0.000179026
1.4701e-05
-1.26554e-06
-0.000179031
-6.92664e-06
-1.42896e-06
-0.000174003
-3.05051e-05
-1.65715e-06
-0.000163329
-5.55584e-05
-1.94624e-06
-0.000146456
-8.14415e-05
-2.27384e-06
-0.000123055
-0.000106997
-2.5937e-06
-9.33151e-05
-0.000130232
-2.81952e-06
-5.85768e-05
-0.000147038
-2.82928e-06
-2.31404e-05
-0.000146198
-2.54981e-06
-9.16884e-05
-1.23955e-06
-1.49189e-05
8.07207e-05
-2.47684e-06
-3.92261e-05
0.000132929
-2.48748e-06
-6.48967e-05
0.000140472
-2.28249e-06
-8.97384e-05
0.000135593
-2.03008e-06
-0.000113078
0.000126574
-1.82768e-06
-0.000134523
0.000114947
-1.66546e-06
-0.000153725
0.000100969
-1.54053e-06
-0.000170339
8.46843e-05
-1.45997e-06
-0.000183992
6.60671e-05
-1.4342e-06
-0.000194248
4.50444e-05
-1.47516e-06
-0.000200579
2.15301e-05
-1.59569e-06
-0.000202366
-4.56715e-06
-1.80937e-06
-0.000198733
-3.34838e-05
-2.12074e-06
-0.00018876
-6.4759e-05
-2.5268e-06
-0.000171463
-9.78254e-05
-3.00768e-06
-0.000146013
-0.000131384
-3.50875e-06
-0.000112168
-0.000162865
-3.91585e-06
-7.12214e-05
-0.000186627
-4.05397e-06
-2.84809e-05
-0.000187473
-3.78459e-06
-0.000118667
-2.09724e-06
-1.6429e-05
9.76684e-05
-2.96945e-06
-4.32462e-05
0.000160652
-3.05017e-06
-7.15317e-05
0.000169632
-2.82428e-06
-9.88968e-05
0.000163756
-2.52854e-06
-0.000124659
0.00015305
-2.2819e-06
-0.000148454
0.000139381
-2.07794e-06
-0.000169984
0.000123073
-1.91759e-06
-0.000188953
0.000104183
-1.81188e-06
-0.00020503
8.26516e-05
-1.77534e-06
-0.000217795
5.83252e-05
-1.82495e-06
-0.000226679
3.09753e-05
-1.98077e-06
-0.000231034
4.55883e-07
-2.27304e-06
-0.00022966
-3.41019e-05
-2.69429e-06
-0.000221281
-7.2219e-05
-3.27499e-06
-0.000204291
-0.000113692
-3.99783e-06
-0.000177044
-0.000157274
-4.80249e-06
-0.000138444
-0.000199857
-5.53918e-06
-8.9384e-05
-0.000233819
-5.94849e-06
-3.64922e-05
-0.000238294
-5.75933e-06
-0.000153031
-3.54861e-06
-1.8263e-05
0.000116613
-3.61185e-06
-4.80903e-05
0.000191622
-3.78659e-06
-7.94574e-05
0.000202095
-3.52754e-06
-0.000109742
0.00019503
-3.16555e-06
-0.000138261
0.000182444
-2.84908e-06
-0.000164707
0.000166592
-2.57793e-06
-0.000188859
0.000147896
-2.35911e-06
-0.00021051
0.000126435
-2.20921e-06
-0.00022942
0.000102121
-2.14822e-06
-0.000245248
7.47055e-05
-2.19926e-06
-0.000257473
4.37859e-05
-2.3862e-06
-0.00026527
8.89167e-06
-2.72172e-06
-0.000267463
-3.10882e-05
-3.34668e-06
-0.000262162
-7.64726e-05
-4.18536e-06
-0.000246958
-0.000127561
-5.27826e-06
-0.000218944
-0.000183603
-6.57902e-06
-0.000175444
-0.000241267
-7.90307e-06
-0.000116124
-0.000290599
-8.86925e-06
-4.9121e-05
-0.000302373
-8.93426e-06
-0.000199126
-6.0679e-06
-2.0497e-05
0.000138012
-4.46358e-06
-5.39144e-05
0.000226493
-4.76495e-06
-8.88632e-05
0.000238426
-4.45084e-06
-0.00012245
0.000229849
-3.98426e-06
-0.000154014
0.000215075
-3.55546e-06
-0.000183335
0.000196823
-3.175e-06
-0.000210314
0.000175645
-2.8594e-06
-0.000234888
0.000151666
-2.63288e-06
-0.000256971
0.000124787
-2.52241e-06
-0.00027638
9.46676e-05
-2.56005e-06
-0.000292725
6.07083e-05
-2.78578e-06
-0.000305218
2.2055e-05
-3.26e-06
-0.000312674
-2.27839e-05
-4.04094e-06
-0.000312731
-7.5307e-05
-5.2139e-06
-0.000301982
-0.000136824
-6.84429e-06
-0.000275706
-0.000207901
-8.92845e-06
-0.000228485
-0.000285895
-1.12733e-05
-0.000157094
-0.000358657
-1.33492e-05
-7.05701e-05
-0.000384836
-1.40871e-05
-0.000265536
-1.06373e-05
-2.32688e-05
0.000162485
-5.61526e-06
-6.09819e-05
0.000266077
-6.08539e-06
-0.000100057
0.000279257
-5.67689e-06
-0.000137302
0.000268634
-5.04146e-06
-0.000172118
0.000251193
-4.4304e-06
-0.000204424
0.000230199
-3.87258e-06
-0.000234296
0.000206376
-3.39896e-06
-0.000261875
0.000179931
-3.04353e-06
-0.000287313
0.000150782
-2.84069e-06
-0.000310693
0.000118533
-2.83075e-06
-0.000331911
8.24054e-05
-3.06714e-06
-0.000350458
4.11602e-05
-3.6287e-06
-0.000365362
-7.12494e-06
-4.62118e-06
-0.000374067
-6.55927e-05
-6.22049e-06
-0.000372251
-0.000137195
-8.58297e-06
-0.000352897
-0.000225181
-1.18388e-05
-0.000306249
-0.000329604
-1.58919e-05
-0.000223352
-0.000437471
-2.01042e-05
-0.000110728
-0.000492087
-2.25268e-05
-0.000370793
-1.93421e-05
-2.68286e-05
0.000190935
-7.21105e-06
-6.97379e-05
0.00031142
-7.89975e-06
-0.000113535
0.000325306
-7.32606e-06
-0.000154739
0.000311771
-6.41334e-06
-0.000192891
0.000290929
-5.50522e-06
-0.00022812
0.00026667
-4.66136e-06
-0.000260741
0.000239925
-3.93423e-06
-0.000291169
0.00021102
-3.36965e-06
-0.000319877
0.000179941
-3.00799e-06
-0.000347344
0.000146308
-2.89296e-06
-0.000373966
0.000109264
-3.0871e-06
-0.000399848
6.7286e-05
-3.68617e-06
-0.00042457
1.79346e-05
-4.82322e-06
-0.000446308
-4.32439e-05
-6.87909e-06
-0.000460433
-0.000122058
-1.01086e-05
-0.000457811
-0.000226123
-1.49407e-05
-0.000422865
-0.000361813
-2.16374e-05
-0.000336558
-0.000519425
-2.96895e-05
-0.000193456
-0.000628711
-3.62857e-05
-0.00055815
-3.67475e-05
-3.16495e-05
0.000224782
-9.48939e-06
-8.09315e-05
0.000363897
-1.04481e-05
-0.000130084
0.000377366
-9.57782e-06
-0.000175442
0.000359566
-8.20115e-06
-0.000216826
0.000334236
-6.80742e-06
-0.000254677
0.000305938
-5.50556e-06
-0.000289623
0.000275822
-4.37877e-06
-0.000322408
0.000244355
-3.48627e-06
-0.000353887
0.000211644
-2.86788e-06
-0.000385045
0.000177437
-2.55869e-06
-0.000416993
0.000141
-2.61563e-06
-0.000450876
0.000100839
-3.14446e-06
-0.000487605
5.42968e-05
-4.35626e-06
-0.000527617
-3.49225e-06
-6.6377e-06
-0.000567463
-8.24542e-05
-1.05739e-05
-0.000598275
-0.000195102
-1.69601e-05
-0.000598833
-0.000360035
-2.69153e-05
-0.000532148
-0.000582869
-4.06622e-05
-0.000359856
-0.000794729
-5.60179e-05
-0.000914432
-7.04593e-05
-3.87513e-05
0.000266518
-1.28614e-05
-9.60153e-05
0.000425393
-1.41342e-05
-0.000151004
0.000436124
-1.27511e-05
-0.000200411
0.000412051
-1.05909e-05
-0.000244628
0.000380783
-8.37969e-06
-0.0002845
0.000347403
-6.32761e-06
-0.000321009
0.000313242
-4.56886e-06
-0.000355249
0.000278918
-3.17401e-06
-0.000388489
0.000244719
-2.16625e-06
-0.000422271
0.00021065
-1.54693e-06
-0.000458607
0.000176412
-1.33684e-06
-0.000500125
0.000141083
-1.615e-06
-0.000550041
0.000102543
-2.54001e-06
-0.000611596
5.58885e-05
-4.35399e-06
-0.000687802
-8.78e-06
-7.65078e-06
-0.000775178
-0.000110307
-1.38346e-05
-0.000849761
-0.000287755
-2.49729e-05
-0.000841022
-0.000592361
-4.24804e-05
-0.000636407
-0.000995993
-6.73247e-05
-0.00155617
-0.000112399
-4.81045e-05
0.000318528
-1.79856e-05
-0.000115661
0.000498577
-1.92572e-05
-0.000177632
0.000503052
-1.68751e-05
-0.000231373
0.000469765
-1.3324e-05
-0.000277767
0.000430065
-9.87969e-06
-0.000318478
0.000389927
-6.76215e-06
-0.000355172
0.000350762
-4.11685e-06
-0.000389352
0.00031307
-2.00952e-06
-0.000422547
0.000277193
-4.57486e-07
-0.000456581
0.00024335
6.37174e-07
-0.000494111
0.000212008
1.3628e-06
-0.000539239
0.000183595
1.82283e-06
-0.00059866
0.000158452
2.13842e-06
-0.000682043
0.000134555
2.39795e-06
-0.000801075
0.000104075
2.65741e-06
-0.000960026
4.09624e-05
3.38502e-06
-0.00113598
-0.000120362
3.86334e-06
-0.00118542
-0.000550279
3.23537e-06
-0.000899942
-0.00127697
-9.38521e-06
-0.00246625
-0.000110125
-7.86182e-05
0.00040195
-2.6062e-05
-0.000153186
0.000579855
-2.88011e-05
-0.00021591
0.000571771
-2.45192e-05
-0.000268326
0.000526941
-1.87456e-05
-0.000314058
0.000479199
-1.27773e-05
-0.000354389
0.00043227
-7.43607e-06
-0.000390472
0.000387546
-3.01598e-06
-0.000423396
0.000345572
3.92131e-07
-0.000454725
0.000307056
2.86077e-06
-0.000486307
0.000272571
4.5893e-06
-0.000521319
0.000243727
5.88243e-06
-0.000564437
0.00022225
7.20181e-06
-0.000624379
0.00021224
9.40543e-06
-0.000714456
0.000215977
1.40731e-05
-0.00085412
0.000231777
2.46404e-05
-0.00104395
0.000216447
4.77722e-05
-0.00125981
8.12064e-05
9.24823e-05
-0.00131383
-0.000503339
0.000156456
-0.000914777
-0.00164338
0.000169356
-0.00336281
-6.8485e-05
-6.33934e-05
0.000470209
-4.00959e-05
-0.000171876
0.000698223
-3.78333e-05
-0.000256561
0.000665009
-3.05316e-05
-0.000320312
0.000597842
-1.98556e-05
-0.000367512
0.000531628
-1.08671e-05
-0.000402998
0.000470693
-3.18662e-06
-0.000430674
0.000416379
2.72508e-06
-0.00045339
0.000367884
7.0304e-06
-0.000473438
0.000325324
1.0095e-05
-0.000491998
0.000288075
1.22476e-05
-0.000511336
0.000258668
1.4082e-05
-0.000534145
0.000238933
1.66052e-05
-0.00056761
0.000236982
2.20693e-05
-0.000621666
0.000257636
3.501e-05
-0.000718932
0.000312529
6.55222e-05
-0.000851874
0.000331345
0.000130467
-0.00102866
0.000246783
0.000251701
-0.00106894
-0.000459862
0.000380714
-0.00066058
-0.00198267
0.000337156
-0.00398843
-0.000136844
-0.000205326
0.000679369
-5.42577e-05
-0.000273453
0.000773242
-6.03276e-05
-0.000328816
0.000727973
-4.90749e-05
-0.000372852
0.000649027
-3.28954e-05
-0.000393295
0.000558233
-1.63802e-05
-0.000398753
0.000480395
-2.74318e-06
-0.000395401
0.000415382
7.403e-06
-0.000386459
0.000359426
1.44862e-05
-0.000375494
0.000313128
1.91256e-05
-0.000362627
0.000272339
2.17541e-05
-0.000350909
0.00024237
2.3524e-05
-0.000338373
0.00021959
2.56673e-05
-0.000327976
0.000216645
3.19406e-05
-0.000312539
0.000228096
4.81937e-05
-0.000295549
0.000277954
9.05798e-05
-0.000271009
0.000289781
0.000174474
-0.000211314
0.000188243
0.000325981
-0.00022927
-0.000424461
0.000475239
-2.18302e-05
-0.00212393
0.000325834
-0.00403449
-0.000327691
-0.000651627
0.00131051
-0.000116938
-0.000609318
0.00073772
-8.50948e-05
-0.00048009
0.00061089
-5.62082e-05
-0.000304686
0.00048931
-2.58275e-05
-0.000124789
0.000393432
-3.32958e-06
4.71317e-05
0.000321975
1.3493e-05
0.000203363
0.000269776
2.62821e-05
0.000343237
0.000226962
3.46279e-05
0.000466389
0.000194302
3.97619e-05
0.000574358
0.00016584
4.1349e-05
0.000671877
0.000143673
4.07887e-05
0.000759125
0.000128617
3.88683e-05
0.000853034
0.000116161
3.7937e-05
0.000955659
0.000115029
4.06047e-05
0.00111363
0.000109143
6.3299e-05
0.00130828
8.37526e-05
0.000101847
0.00154282
-2.90841e-05
0.000180719
0.00160587
-0.000443279
0.000325149
0.00112165
-0.00162791
0.000145816
-0.00303566
-0.000483318
0.00128443
-0.000115656
0.00200498
-0.000124922
0.00260565
-0.000120881
0.00309367
-0.000107001
0.0034928
-8.85307e-05
0.00382422
-6.958e-05
0.00410499
-4.90473e-05
0.00434256
-3.17864e-05
0.00454602
-1.37342e-05
0.00471813
-8.57353e-07
0.00486649
9.61346e-06
0.00499538
1.86081e-05
0.00511067
1.83207e-05
0.00522206
2.74001e-05
0.00532348
2.29402e-05
0.00541151
3.10088e-05
0.00537176
4.12354e-05
0.00494582
7.70537e-06
0.00330512
-2.24926e-05
-0.000520912
-5.33937e-06
5.40071e-06
-4.77657e-07
-1.55561e-05
1.04897e-05
-4.12991e-07
-2.65998e-05
1.1362e-05
-3.31616e-07
-3.73058e-05
1.10269e-05
-2.62317e-07
-4.73088e-05
1.03069e-05
-2.2733e-07
-5.6382e-05
9.3509e-06
-2.21541e-07