/*--------------------------------*- C++ -*----------------------------------*\
  =========                 |
  \\      /  F ield         | OpenFOAM: The Open Source CFD Toolbox
   \\    /   O peration     | Website:  https://openfoam.org
    \\  /    A nd           | Version:  10
     \\/     M anipulation  |
\*---------------------------------------------------------------------------*/
FoamFile
{
    format      ascii;
    class       volScalarField;
    location    "2.4";
    object      p;
}
// * * * * * * * * * * * * * * * * * * * * * * * * * * * * * * * * * * * * * //

dimensions      [0 2 -2 0 0 0 0];

internalField   nonuniform List<scalar> 
400
(
2.63345e-09
-2.19427e-05
1.95581e-05
9.73586e-05
0.00021479
0.00037082
0.000563256
0.000789124
0.00104437
0.0013237
0.00162047
0.00192694
0.00223346
0.00252951
0.00280371
0.00304436
0.00323994
0.00338025
0.00346357
0.00345294
2.08035e-05
-2.58615e-06
3.84969e-05
0.000113904
0.000227921
0.000379952
0.000568095
0.000789654
0.00104083
0.00131654
0.0016102
0.00191452
0.00221973
0.00251532
0.00278983
0.00303135
0.00322806
0.00336966
0.00345505
0.00344328
-2.32728e-05
-5.00212e-05
-9.47872e-06
6.55188e-05
0.000179747
0.000332841
0.000523157
0.000748274
0.00100465
0.00128745
0.00159045
0.00190552
0.0022233
0.00253279
0.00282183
0.00307756
0.00328694
0.00343828
0.00353003
0.00351629
-0.000108642
-0.000138764
-9.85895e-05
-2.34406e-05
9.21084e-05
0.000248085
0.000443242
0.000675568
0.000941905
0.00123771
0.00155691
0.00189117
0.00223121
0.00256518
0.00287971
0.00316038
0.00339213
0.00356092
0.00366416
0.00364988
-0.000240193
-0.000274389
-0.000234467
-0.000158611
-4.05548e-05
0.000120265
0.000323141
0.000566617
0.000848036
0.00116325
0.00150636
0.00186945
0.00224252
0.00261294
0.00296579
0.00328431
0.00355038
0.00374629
0.00386755
0.00385374
-0.000420293
-0.000459727
-0.00042018
-0.000343447
-0.000222164
-5.5054e-05
0.000157903
0.000415993
0.000717255
0.00105813
0.00143311
0.00183473
0.0022525
0.00267287
0.003079
0.00345104
0.00376656
0.00400233
0.00415052
0.00413861
-0.000651652
-0.000697829
-0.000659148
-0.000581939
-0.000457403
-0.000283321
-5.87069e-05
0.000216714
0.000541931
0.000914257
0.00132893
0.00177886
0.00225375
0.0027392
0.00321633
0.00366143
0.00404619
0.00433927
0.00452714
0.00451983
-0.000937773
-0.000992626
-0.000955802
-0.000879262
-0.000752341
-0.000571591
-0.000334765
-4.03025e-05
0.00031204
0.000720786
0.0011823
0.00169032
0.0022354
0.0028028
0.00337188
0.00391471
0.00439525
0.00477055
0.00501705
0.00501991
-0.00128279
-0.00134881
-0.00131548
-0.00124171
-0.00111442
-0.000928563
-0.000680272
-0.000366373
1.49543e-05
0.000463814
0.000978185
0.00155333
0.0021817
0.00284923
0.00353464
0.0042062
0.00481861
0.00531264
0.00564695
0.00567203
-0.0016914
-0.0017718
-0.00174441
-0.00167674
-0.00155254
-0.0013647
-0.00110729
-0.00077519
-0.000364731
0.000126109
0.000697431
0.00134689
0.00207034
0.00285628
0.00368512
0.00452335
0.00531658
0.0059841
0.00645236
0.00652667
-0.00216886
-0.00226778
-0.00224979
-0.0021931
-0.00207724
-0.00189238
-0.00163004
-0.00128287
-0.000845188
-0.000312917
0.000316502
0.00104389
0.00187075
0.00279069
0.00379036
0.00483931
0.00587751
0.00680181
0.0074786
0.00766439
-0.00272118
-0.00284385
-0.00283995
-0.00280101
-0.00270091
-0.00252614
-0.00226505
-0.00190784
-0.001447
-0.000876667
-0.000191954
0.000610808
0.00154278
0.00260437
0.00379668
0.00510197
0.00646452
0.00776959
0.00877875
0.0092197
-0.00335582
-0.00350814
-0.00352447
-0.00351251
-0.00343826
-0.00328308
-0.00303126
-0.00267059
-0.00219239
-0.00159001
-0.000856529
1.84192e-05
0.00103824
0.00223159
0.00362113
0.00521677
0.00698962
0.00884609
0.0104003
0.0114163
-0.00408508
-0.00427239
-0.00431535
-0.00434234
-0.00430729
-0.00418362
-0.00395037
-0.00359321
-0.00310389
-0.00247761
-0.0017092
-0.000788945
0.000301609
0.00158581
0.00313883
0.00501514
0.00725755
0.00987574
0.0122905
0.0147094
-0.00490176
-0.00514403
-0.00522566
-0.00531028
-0.00533161
-0.00525283
-0.00504719
-0.00469876
-0.00420185
-0.00355748
-0.00276821
-0.00183389
-0.00074316
0.000541999
0.00215693
0.00418957
0.00685243
0.0104581
0.0141715
0.0194519
-0.0059767
-0.00611693
-0.00624006
-0.00639256
-0.00650652
-0.0065076
-0.00634886
-0.00601254
-0.00550285
-0.0048347
-0.00402442
-0.00307883
-0.00199199
-0.000724622
0.000836961
0.00275928
0.00534097
0.00960588
0.0143074
0.0245665
-0.00683328
-0.00757964
-0.00767538
-0.00800843
-0.00818229
-0.00818295
-0.00798841
-0.00760151
-0.00703864
-0.00632629
-0.00550508
-0.00461481
-0.00370547
-0.00279921
-0.00197393
-0.00100301
-3.4604e-06
0.00442186
0.00897939
0.02779
-0.00991175
-0.00789962
-0.00823746
-0.00856343
-0.00903743
-0.0093335
-0.00936569
-0.00910261
-0.00857159
-0.00782409
-0.00694844
-0.00601062
-0.00514327
-0.0044511
-0.0042588
-0.0045132
-0.00619617
-0.00311628
0.000988744
0.0322695
-0.00795103
-0.0115887
-0.0116558
-0.0127755
-0.0131434
-0.0131023
-0.0126477
-0.0119049
-0.0109567
-0.00986221
-0.00875903
-0.00771438
-0.00695257
-0.00671265
-0.00757265
-0.00941952
-0.0153603
-0.0128548
-0.00562415
0.0507878
-0.0306319
-0.0076498
-0.00830225
-0.00932346
-0.010232
-0.0108791
-0.0111544
-0.0109826
-0.0104471
-0.00957171
-0.00868549
-0.00762266
-0.00706591
-0.00645039
-0.00699634
-0.00662192
-0.00497353
0.0117697
0.0562961
0.160916
)
;

boundaryField
{
    movingWall
    {
        type            zeroGradient;
    }
    fixedWalls
    {
        type            zeroGradient;
    }
    frontAndBack
    {
        type            empty;
    }
}


// ************************************************************************* //
