/*--------------------------------*- C++ -*----------------------------------*\
  =========                 |
  \\      /  F ield         | OpenFOAM: The Open Source CFD Toolbox
   \\    /   O peration     | Website:  https://openfoam.org
    \\  /    A nd           | Version:  10
     \\/     M anipulation  |
\*---------------------------------------------------------------------------*/
FoamFile
{
    format      ascii;
    class       volScalarField;
    location    "4";
    object      p;
}
// * * * * * * * * * * * * * * * * * * * * * * * * * * * * * * * * * * * * * //

dimensions      [0 2 -2 0 0 0 0];

internalField   nonuniform List<scalar> 
8000
(
-8.00078e-09
-1.1341e-05
7.80032e-06
5.50845e-05
0.000131169
0.000236811
0.000372161
0.00053671
0.000729075
0.000946485
0.00118515
0.00143907
0.00170059
0.00195947
0.00220416
0.00242197
0.00260018
0.00272787
0.00279681
0.00280032
8.90314e-06
-3.18596e-06
1.60589e-05
6.21164e-05
0.000135845
0.000238483
0.00037046
0.000531532
0.000720583
0.000935282
0.00117179
0.00142435
0.00168559
0.00194534
0.0021919
0.00241224
0.00259329
0.0027239
0.00279552
0.00279889
-1.90154e-05
-3.35887e-05
-1.57712e-05
2.84959e-05
0.000100072
0.000200518
0.000330625
0.000490583
0.000679757
0.00089633
0.00113693
0.00139625
0.00166665
0.00193813
0.00219829
0.00243295
0.0026274
0.00276874
0.00284654
0.0028488
-8.25572e-05
-9.97065e-05
-8.39079e-05
-4.19023e-05
2.7306e-05
0.000125683
0.000254537
0.000414695
0.000606247
0.00082814
0.00107771
0.00135008
0.00163829
0.00193165
0.00221682
0.00247763
0.00269655
0.00285747
0.00294686
0.00294987
-0.00018334
-0.000203282
-0.000189968
-0.000150746
-8.43621e-05
1.16863e-05
0.000139392
0.000300437
0.000495914
0.000725875
0.000988774
0.0012809
0.00159478
0.00192063
0.00224344
0.00254422
0.00280114
0.00299295
0.00310114
0.00310695
-0.000323324
-0.000346661
-0.000336485
-0.000300841
-0.000238168
-0.000145312
-1.94315e-05
0.000142246
0.000342127
0.000581748
0.00086112
0.00117789
0.00152622
0.00189616
0.0022713
0.00262906
0.00294161
0.00317983
0.00331692
0.00332677
-0.000504508
-0.000532044
-0.000525886
-0.00049501
-0.000437551
-0.000349623
-0.000227386
-6.67479e-05
0.000136354
0.00038543
0.000682688
0.001028
0.00141784
0.00184378
0.00228801
0.00272396
0.0031158
0.00342271
0.00360442
0.00362305
-0.000729305
-0.000761982
-0.000760945
-0.000736451
-0.000686408
-0.000606174
-0.000490819
-0.000334733
-0.000131858
0.000123828
0.000437534
0.000812383
0.00124762
0.00174118
0.00227301
0.00281334
0.00331663
0.00372508
0.00397634
0.00401177
-0.00100074
-0.00103959
-0.0010449
-0.00102874
-0.000988991
-0.000920314
-0.000816691
-0.000670888
-0.000474594
-0.000218782
0.000105611
0.000505944
0.000982777
0.00155537
0.00219304
0.00286859
0.00352663
0.00408592
0.00444811
0.00451777
-0.00132272
-0.00136874
-0.00138154
-0.00137577
-0.00134965
-0.00129739
-0.00121201
-0.00108469
-0.000904802
-0.000659989
-0.000336348
8.13518e-05
0.000610875
0.00124172
0.00199527
0.00283818
0.00370693
0.00449085
0.00503491
0.00517888
-0.00170059
-0.00175455
-0.00177539
-0.00178162
-0.00177252
-0.00174219
-0.00168298
-0.00158478
-0.00143492
-0.00121798
-0.000915457
-0.000505742
3.42598e-05
0.000722532
0.0015956
0.00263083
0.00377551
0.00489158
0.00574128
0.00605418
-0.00214231
-0.00220425
-0.00223217
-0.00225065
-0.00226111
-0.00225814
-0.00223383
-0.00217727
-0.00207445
-0.00190776
-0.00165499
-0.00128766
-0.000769373
-5.75215e-05
0.000875757
0.00209128
0.00356646
0.00515877
0.00653044
0.0072343
-0.00266077
-0.00272898
-0.00275969
-0.00278754
-0.00281791
-0.00284648
-0.00286545
-0.00286366
-0.00282686
-0.00273729
-0.00257206
-0.00230043
-0.00187956
-0.00125039
-0.000333765
0.000967827
0.00275927
0.00497491
0.00722854
0.00883706
-0.00327837
-0.00334696
-0.00336918
-0.00339748
-0.00344389
-0.00350531
-0.00357384
-0.00363838
-0.00368575
-0.00370064
-0.00366446
-0.00355185
-0.0033246
-0.00292089
-0.00223447
-0.00107866
0.000803388
0.00365682
0.0072869
0.0108719
-0.00403759
-0.00409136
-0.00407891
-0.00408695
-0.00413804
-0.00422861
-0.00434882
-0.0044868
-0.00463115
-0.00477178
-0.00490055
-0.00500873
-0.00508222
-0.00508932
-0.00495068
-0.00443243
-0.00298066
0.00021188
0.00567022
0.0127745
-0.00501723
-0.0050105
-0.00490483
-0.00485697
-0.00489411
-0.00500473
-0.00517286
-0.00538356
-0.00562704
-0.00589931
-0.00620807
-0.00657231
-0.00702505
-0.00760539
-0.0083333
-0.00903316
-0.00881462
-0.00586889
0.00124579
0.0129929
-0.00638232
-0.00626664
-0.00594332
-0.00574411
-0.00571498
-0.00581879
-0.00601934
-0.00629054
-0.0066192
-0.00700556
-0.00747284
-0.00806996
-0.00889268
-0.0100798
-0.011808
-0.0140567
-0.0158564
-0.0140256
-0.00622578
0.011772
-0.00885501
-0.00785619
-0.00692193
-0.00654686
-0.00647884
-0.00659351
-0.00682786
-0.00714403
-0.00753175
-0.00799012
-0.00855569
-0.00929268
-0.0103578
-0.011974
-0.0145108
-0.0181099
-0.0223626
-0.021884
-0.0118715
0.0198665
-0.0109231
-0.0110225
-0.00920791
-0.00815703
-0.00772123
-0.00764475
-0.00776461
-0.00800745
-0.0083554
-0.00878847
-0.00935294
-0.010103
-0.0112513
-0.0130365
-0.0159604
-0.0198314
-0.0241876
-0.0191608
0.00304665
0.0629727
-0.0288065
-0.0121375
-0.00717721
-0.00630956
-0.006196
-0.00629247
-0.00660154
-0.00704691
-0.00760797
-0.00821323
-0.00897783
-0.00989722
-0.0113472
-0.0133026
-0.0162521
-0.0182566
-0.0165505
0.00138773
0.0496959
0.137285
2.88784e-06
-1.61653e-05
1.1173e-06
4.81539e-05
0.000124639
0.000231028
0.000367434
0.000533343
0.00072733
0.000947006
0.00118802
0.00144453
0.00170871
0.0019705
0.00221811
0.00243852
0.00261857
0.00274661
0.00281283
0.00280606
2.01962e-05
5.75507e-07
1.84744e-05
6.41059e-05
0.000137548
0.000240034
0.000371971
0.000533131
0.000722435
0.000937622
0.00117484
0.00142842
0.0016908
0.00195195
0.00220002
0.00242178
0.00260373
0.00273429
0.0028034
0.00279505
-4.1146e-06
-2.7246e-05
-1.08575e-05
3.28795e-05
0.000103975
0.000204027
0.000333811
0.000493548
0.000682658
0.000899378
0.00114038
0.0014004
0.00167186
0.00194468
0.00220637
0.0024425
0.00263792
0.0027792
0.00285422
0.00284291
-6.54225e-05
-9.18957e-05
-7.76114e-05
-3.6183e-05
3.24702e-05
0.000130369
0.000258808
0.000418657
0.000610068
0.000832059
0.00108203
0.00135529
0.00164459
0.00193952
0.00222653
0.00248917
0.00270935
0.0028703
0.00295648
0.0029438
-0.000164184
-0.000194123
-0.000182367
-0.000143718
-7.79024e-05
1.76538e-05
0.000144938
0.000305682
0.000501052
0.000731172
0.000994554
0.00128744
0.00160309
0.00193098
0.0022562
0.00255939
0.00281807
0.00301007
0.00311446
0.00310157
-0.000301947
-0.000336067
-0.000327474
-0.000292361
-0.000230229
-0.000137832
-1.23204e-05
0.000149138
0.000349038
0.000589015
0.000869169
0.00118719
0.0015378
0.00191048
0.0022889
0.0026501
0.0029653
0.00320412
0.00333689
0.00332604
-0.000480442
-0.000519716
-0.000515155
-0.000484747
-0.000427789
-0.000340267
-0.000218317
-5.77707e-05
0.000145548
0.000395285
0.000693787
0.00104093
0.00143417
0.00186386
0.0023128
0.00275395
0.00315011
0.00345852
0.00363503
0.00362823
-0.00070189
-0.00074746
-0.000748026
-0.00072393
-0.000674357
-0.000594486
-0.000479336
-0.000323193
-0.000119854
0.000136901
0.000452539
0.000830605
0.00127114
0.00176944
0.00230823
0.00285683
0.00336766
0.00377973
0.00402495
0.00402814
-0.000969118
-0.00102225
-0.00102917
-0.00101336
-0.000974082
-0.000905769
-0.000802301
-0.000656305
-0.000459286
-0.000201949
0.000125204
0.000530716
0.00101917
0.00159487
0.00224308
0.00293245
0.0036043
0.00417205
0.0045282
0.00455606
-0.00128575
-0.00134773
-0.00136216
-0.00135672
-0.00133119
-0.00127939
-0.0011942
-0.00106663
-0.000885812
-0.000639085
-0.000312174
0.000110035
0.000641134
0.0012934
0.00206579
0.00293258
0.00382729
0.00463046
0.00517147
0.00526302
-0.00165669
-0.00172865
-0.00175119
-0.00175788
-0.00174963
-0.00172005
-0.00166126
-0.00156292
-0.00141204
-0.00119281
-0.00088608
-0.000469947
7.54162e-05
0.000795932
0.00169451
0.00276994
0.00396347
0.00512223
0.00598082
0.00624357
-0.00208914
-0.00217165
-0.00220145
-0.00222073
-0.00223266
-0.00223108
-0.00220774
-0.00215145
-0.0020478
-0.00187862
-0.00162067
-0.00124334
-0.000703573
2.19726e-05
0.00100689
0.00229011
0.00385479
0.00553926
0.00696081
0.00768323
-0.00259454
-0.00268671
-0.00271979
-0.00274927
-0.00278233
-0.00281352
-0.00283458
-0.00283401
-0.00279713
-0.00270542
-0.00253474
-0.00225194
-0.00181044
-0.00114948
-0.000176521
0.00122701
0.00316108
0.00555277
0.00797608
0.00987298
-0.00319231
-0.0032895
-0.00331531
-0.00334727
-0.00339882
-0.00346517
-0.00353792
-0.0036056
-0.00365451
-0.00366852
-0.00362751
-0.00350339
-0.00325353
-0.00281142
-0.00207178
-0.00083656
0.00118578
0.00423142
0.00817866
0.0126973
-0.00391955
-0.00401082
-0.00400529
-0.00402008
-0.00408029
-0.00417987
-0.00430816
-0.00445278
-0.0046018
-0.00474417
-0.00487039
-0.00496879
-0.00502239
-0.0050019
-0.0048525
-0.00441238
-0.00315208
-0.000198497
0.0053073
0.0142145
-0.00483878
-0.00487306
-0.00478123
-0.00475533
-0.00481523
-0.00494536
-0.00512996
-0.00535398
-0.00560784
-0.00588717
-0.00619763
-0.0065568
-0.00700056
-0.00759463
-0.00846287
-0.00962398
-0.010247
-0.00874302
-0.00276405
0.0112123
-0.0060362
-0.00605881
-0.00579163
-0.00562186
-0.00562566
-0.00576082
-0.00599003
-0.0062846
-0.00663236
-0.00703116
-0.00750276
-0.00809513
-0.0089151
-0.0101548
-0.0121989
-0.0154203
-0.0192786
-0.0197208
-0.0145991
0.00639474
-0.00840371
-0.00738953
-0.006479
-0.00623579
-0.00629577
-0.00651097
-0.00681855
-0.00718833
-0.00761459
-0.00809344
-0.00866188
-0.00937724
-0.010419
-0.0120694
-0.0149613
-0.0195513
-0.0261552
-0.0282216
-0.0218265
0.0178755
-0.00852304
-0.0100591
-0.00861658
-0.00784568
-0.00763158
-0.00771356
-0.00792827
-0.00823564
-0.00862699
-0.00907262
-0.00962277
-0.0103113
-0.011406
-0.0131628
-0.0164122
-0.0209518
-0.0267041
-0.0232552
0.00221979
0.0698799
-0.0263144
-0.0106214
-0.00605331
-0.00549226
-0.00566205
-0.00595853
-0.00641308
-0.00694797
-0.00759134
-0.0082255
-0.00901843
-0.00989846
-0.0113708
-0.0133895
-0.0165213
-0.0188573
-0.0163857
0.0032482
0.059795
0.159166
8.28205e-06
-1.43554e-05
1.60046e-06
4.82077e-05
0.000124591
0.000231289
0.000368238
0.000534934
0.000730082
0.000951122
0.00119394
0.0014526
0.00171912
0.0019834
0.00223344
0.00245596
0.00263734
0.00276548
0.00282989
0.00281767
3.03297e-05
6.71337e-06
2.34519e-05
6.84501e-05
0.000141472
0.000243756
0.000375672
0.00053702
0.000726762
0.000942658
0.0011809
0.00143584
0.00169981
0.00196276
0.00221267
0.00243604
0.00261897
0.00274949
0.00281699
0.00280343
8.87888e-06
-1.87966e-05
-3.62861e-06
3.93577e-05
0.000109872
0.000209528
0.00033908
0.000498784
0.000688105
0.000905335
0.00114719
0.00140844
0.00168148
0.00195617
0.00221984
0.00245776
0.00265432
0.00279564
0.00286889
0.00285148
-5.00349e-05
-8.1464e-05
-6.8477e-05
-2.78783e-05
4.00967e-05
0.000137492
0.000265595
0.000425314
0.000616869
0.000839344
0.00109021
0.00136483
0.00165596
0.0019531
0.00224253
0.00250745
0.00272919
0.00289038
0.00297464
0.00295496
-0.000146401
-0.000181667
-0.000171265
-0.00013349
-6.84064e-05
2.65956e-05
0.000153507
0.000314115
0.000509667
0.000740375
0.00100484
0.00129938
0.00161739
0.00194817
0.00227659
0.00258292
0.0028439
0.00303656
0.00313886
0.00311797
-0.000281463
-0.000321335
-0.000314145
-0.000279931
-0.000218564
-0.000126741
-1.59547e-06
0.000159781
0.000359991
0.000600792
0.000882419
0.00120272
0.00155645
0.00193302
0.00231594
0.00268171
0.00300055
0.00324083
0.00337134
0.00335019
-0.000456675
-0.000502212
-0.000499106
-0.000469627
-0.000413476
-0.000326557
-0.000204964
-4.44245e-05
0.00015938
0.000410271
0.000710803
0.00106115
0.00145867
0.00189378
0.00234924
0.00279735
0.00319952
0.00351104
0.00368544
0.00366577
-0.000674002
-0.000726452
-0.000728541
-0.000705437
-0.000656762
-0.000577574
-0.000462817
-0.000306635
-0.000102633
0.000155654
0.000473961
0.000855773
0.00130306
0.001809
0.00235741
0.00291694
0.00343801
0.00385653
0.00410061
0.00408748
-0.000935965
-0.000996717
-0.00100527
-0.000990585
-0.000952402
-0.000884965
-0.000782038
-0.000636058
-0.000438272
-0.000179027
0.000151662
0.000563135
0.00106025
0.0016463
0.00230883
0.00301562
0.00370519
0.00428601
0.00464399
0.00465175
-0.00124576
-0.00131626
-0.00133251
-0.00132847
-0.00130441
-0.00125389
-0.0011696
-0.0010423
-0.000860807
-0.000612018
-0.000281054
0.000148066
0.000689704
0.00135777
0.00215171
0.00304616
0.00397144
0.00480039
0.00535081
0.0054211
-0.00160762
-0.00168922
-0.0017139
-0.0017225
-0.00171642
-0.00168887
-0.00163169
-0.00153424
-0.00138315
-0.00116202
-0.000850881
-0.000426076
0.000138269
0.000874379
0.00180245
0.00292012
0.0041651
0.00537329
0.00625878
0.00651153
-0.00202764
-0.00212121
-0.00215374
-0.00217589
-0.00219122
-0.00219298
-0.00217257
-0.00211839
-0.00201557
-0.00184533
-0.0015835
-0.0011987
-0.00065082
0.000104228
0.00113091
0.00247483
0.0041215
0.00589741
0.00738624
0.00814452
-0.0025154
-0.00262053
-0.00265745
-0.00269151
-0.00273009
-0.00276688
-0.00279311
-0.00279678
-0.00276269
-0.00267166
-0.00249858
-0.00220896
-0.00175456
-0.00107227
-5.6639e-05
0.00141852
0.00346242
0.0060063
0.00858913
0.0106424
-0.00308681
-0.00319951
-0.00323129
-0.00327107
-0.0033319
-0.00340769
-0.00348934
-0.00356483
-0.00361989
-0.00363783
-0.00359754
-0.00347001
-0.00321067
-0.00275155
-0.00201178
-0.00073124
0.00136237
0.0045813
0.00882841
0.0137342
-0.00377294
-0.00388468
-0.00388955
-0.00391734
-0.00399287
-0.00410816
-0.00425152
-0.00440988
-0.0045704
-0.00472224
-0.00485466
-0.00495676
-0.00501296
-0.00500042
-0.00488138
-0.00457829
-0.0034974
-0.000563546
0.00525639
0.0147612
-0.00462279
-0.00468144
-0.0046069
-0.00460651
-0.00469476
-0.00485283
-0.0050637
-0.00531229
-0.00558563
-0.00588137
-0.00620528
-0.00657698
-0.00703934
-0.00768223
-0.00870875
-0.0102878
-0.0116124
-0.0106653
-0.00465978
0.00988343
-0.00568149
-0.00576526
-0.00554246
-0.00541435
-0.00546179
-0.00564114
-0.00591336
-0.00624807
-0.00662904
-0.00705432
-0.00754638
-0.0081559
-0.00900351
-0.010326
-0.0126456
-0.01657
-0.0217549
-0.0231914
-0.0181816
0.00370812
-0.00791887
-0.00693554
-0.00604746
-0.00587265
-0.00601505
-0.00631326
-0.00670809
-0.00715057
-0.0076342
-0.00815427
-0.00874988
-0.0094777
-0.0105387
-0.0122663
-0.0154424
-0.0206197
-0.0285531
-0.0314775
-0.0240023
0.0177233
-0.00724173
-0.00920988
-0.00792896
-0.0073077
-0.00721799
-0.00741728
-0.00779404
-0.00821399
-0.00869033
-0.00919113
-0.00977185
-0.010461
-0.0115676
-0.0133942
-0.0169339
-0.021948
-0.0280564
-0.023803
0.0053548
0.0756546
-0.0250909
-0.0096417
-0.00523658
-0.00482405
-0.00515137
-0.00559109
-0.00618134
-0.00681631
-0.00754353
-0.00822522
-0.00905436
-0.00995502
-0.0114522
-0.0136285
-0.0168681
-0.0193447
-0.0157966
0.00645192
0.0678255
0.172191
1.45474e-05
-9.73923e-06
5.33862e-06
5.14174e-05
0.000127633
0.000234402
0.000371692
0.000539005
0.000735014
0.00095718
0.00120141
0.00146177
0.00173018
0.00199646
0.00224847
0.00247265
0.00265512
0.00278346
0.00284701
0.0028325
3.87846e-05
1.34448e-05
2.93782e-05
7.38217e-05
0.000146499
0.000248643
0.000380626
0.000542262
0.000732541
0.000949251
0.00118861
0.00144495
0.00171056
0.0019753
0.00222701
0.00245194
0.00263591
0.00276664
0.00283336
0.00281748
1.92608e-05
-1.03268e-05
3.99265e-06
4.63592e-05
0.000116428
0.000215823
0.000345307
0.000505163
0.000694899
0.000912848
0.00115576
0.00141842
0.00169319
0.00196983
0.00223552
0.00247526
0.00267308
0.00281476
0.00288723
0.00286717
-3.76461e-05
-7.11631e-05
-5.90852e-05
-1.91711e-05
4.82806e-05
0.000145332
0.000273286
0.000433095
0.000625035
0.000848251
0.00110027
0.0013765
0.00166965
0.00196917
0.00226113
0.00252841
0.00275192
0.0029138
0.00299731
0.00297462
-0.000131818
-0.000169339
-0.000159904
-0.000122868
-5.8367e-05
3.62368e-05
0.000162962
0.000323656
0.000519643
0.000751222
0.00101707
0.0013136
0.00163419
0.00196806
0.00229989
0.00260955
0.00287317
0.00306711
0.00316883
0.00314448
-0.000264323
-0.000306636
-0.000300473
-0.000267055
-0.000206327
-0.000114949
9.99287e-06
0.000171487
0.000372242
0.000614139
0.000897544
0.00122044
0.00157758
0.00195835
0.00234605
0.00271669
0.00303966
0.00328232
0.00341263
0.00338735
-0.000436404
-0.000484603
-0.0004826
-0.000453994
-0.000398564
-0.00031216
-0.000190809
-3.01252e-05
0.000174355
0.000426628
0.000729451
0.00108323
0.00148532
0.00192623
0.00238855
0.002844
0.00325283
0.00356878
0.00374394
0.00371947
-0.000649786
-0.000705166
-0.000708468
-0.000686361
-0.000638554
-0.000560022
-0.000445614
-0.000289322
-8.45547e-05
0.000175401
0.000496589
0.000882956
0.00133627
0.00185018
0.00240851
0.00297927
0.00351126
0.00393799
0.00418494
0.00416644
-0.000906688
-0.000970698
-0.000980633
-0.000967157
-0.000930105
-0.000863599
-0.000761271
-0.00061536
-0.000416854
-0.000155761
0.0001783
0.000594956
0.00110044
0.00169737
0.00237414
0.00309805
0.00380561
0.00440146
0.0047668
0.00476942
-0.00120987
-0.00128404
-0.00130193
-0.00129947
-0.001277
-0.00122791
-0.00114471
-0.00101792
-0.000836023
-0.000585494
-0.000250875
0.000184566
0.000736198
0.00141857
0.00223242
0.00315249
0.00410698
0.0049631
0.00553017
0.00559873
-0.00156293
-0.00164871
-0.00167546
-0.00168625
-0.00168254
-0.00165727
-0.00160208
-0.001506
-0.00135526
-0.00113297
-0.000818429
-0.000386808
0.000189499
0.000942337
0.00189644
0.00305057
0.0043415
0.00559792
0.00651904
0.00678285
-0.00197096
-0.00206937
-0.00210466
-0.00213002
-0.00214897
-0.00215444
-0.0021375
-0.00208618
-0.0019852
-0.00181522
-0.00155133
-0.00116115
-0.00060356
0.000170456
0.00122843
0.00261928
0.00433362
0.00619293
0.00775755
0.00856134
-0.00244192
-0.00255279
-0.00259361
-0.00263252
-0.00267676
-0.00271951
-0.00275158
-0.00276055
-0.00273078
-0.00264254
-0.00247011
-0.002178
-0.00171693
-0.00102114
2.30577e-05
0.00154261
0.00366851
0.00634529
0.00909013
0.0112691
-0.00298909
-0.00310878
-0.00314632
-0.00319365
-0.00326337
-0.00334867
-0.00343987
-0.00352444
-0.00358768
-0.00361248
-0.00357763
-0.0034533
-0.00319488
-0.00273344
-0.00198289
-0.000710465
0.00142349
0.00480216
0.00935105
0.0145325
-0.00363945
-0.00376032
-0.00377415
-0.00381363
-0.00390296
-0.00403316
-0.00419172
-0.00436482
-0.00453937
-0.00470382
-0.0048483
-0.00496295
-0.00503547
-0.00505231
-0.00500736
-0.00481752
-0.00387841
-0.000902074
0.00530012
0.0152386
-0.00443461
-0.00450556
-0.00444427
-0.00446235
-0.00457259
-0.00475436
-0.00498924
-0.00526061
-0.00555691
-0.00587338
-0.00621752
-0.0066125
-0.00710957
-0.00781968
-0.00900467
-0.0109248
-0.0127212
-0.0120877
-0.00580129
0.00931217
-0.0054095
-0.00551482
-0.0053149
-0.00521513
-0.00529491
-0.00550967
-0.00581821
-0.00618854
-0.00660322
-0.00705878
-0.007579
-0.00821945
-0.00911526
-0.0105391
-0.0131008
-0.0175658
-0.0238103
-0.0255613
-0.0202581
0.00264305
-0.00754498
-0.00658652
-0.00571763
-0.00557752
-0.0057673
-0.00612109
-0.0065701
-0.00706911
-0.00760376
-0.00816677
-0.00879788
-0.00955727
-0.010665
-0.0124957
-0.0159154
-0.0214938
-0.0308776
-0.0332507
-0.0249079
0.0186136
-0.00665439
-0.00871008
-0.00746208
-0.00689982
-0.00687849
-0.0071653
-0.00760792
-0.00810776
-0.00865349
-0.00921012
-0.00983276
-0.010552
-0.0117035
-0.013625
-0.017399
-0.0227439
-0.02919
-0.0241711
0.00694177
0.0798295
-0.0244453
-0.00901894
-0.00465045
-0.00431051
-0.00472681
-0.00526092
-0.00594358
-0.00666133
-0.00746196
-0.00820028
-0.00907457
-0.0100168
-0.0115688
-0.0138644
-0.0172229
-0.0197256
-0.0157785
0.00772833
0.0714503
0.179064
2.09582e-05
-3.96784e-06
1.06316e-05
5.63497e-05
0.000132387
0.000239167
0.000376674
0.000544417
0.000741085
0.000964162
0.00120956
0.00147132
0.00174132
0.0020093
0.00226296
0.00248858
0.00267206
0.00280081
0.00286414
0.00284879
4.61884e-05
2.01691e-05
3.56235e-05
7.96889e-05
0.00015213
0.000254204
0.000386301
0.000548256
0.000739085
0.000956603
0.00119704
0.00145472
0.00172187
0.0019883
0.00224169
0.0024681
0.00265314
0.00278435
0.00285091
0.0028342
2.79491e-05
-2.37737e-06
1.14315e-05
5.33804e-05
0.000123158
0.000222417
0.000351945
0.000512057
0.000702301
0.000921043
0.00116506
0.00142914
0.0017056
0.00198414
0.00225176
0.00249328
0.00269245
0.00283482
0.00290722
0.00288625
-2.73719e-05
-6.16908e-05
-5.01652e-05
-1.07166e-05
5.63886e-05
0.000153247
0.000281196
0.000441233
0.000633687
0.000857755
0.00111101
0.00138888
0.00168406
0.00198591
0.00228034
0.00254997
0.00277535
0.00293831
0.00302194
0.00299825
-0.000119659
-0.000158046
-0.000149209
-0.00011269
-4.8589e-05
4.57733e-05
0.000172462
0.000333387
0.000529945
0.000762513
0.00102984
0.0013284
0.00165156
0.00198847
0.00232364
0.00263658
0.00290298
0.0030987
0.00320087
0.00317545
-0.000249884
-0.000293134
-0.000287626
-0.000254787
-0.000194524
-0.000103444
2.14294e-05
0.000183169
0.000384584
0.00062767
0.000912908
0.00123838
0.00159888
0.00198374
0.00237608
0.0027515
0.00307872
0.00332437
0.00345579
0.00342938
-0.000419138
-0.000468362
-0.00046709
-0.000439153
-0.000384288
-0.000298274
-0.000177058
-1.614e-05
0.000189082
0.000442768
0.000747852
0.00110492
0.00151141
0.00195786
0.00242672
0.00288923
0.00330472
0.00362574
0.00380329
0.00377779
-0.000628951
-0.000685463
-0.000689608
-0.000668315
-0.000621239
-0.00054327
-0.000429145
-0.000272712
-6.71918e-05
0.000194353
0.000518232
0.000908689
0.00136767
0.00188904
0.00245658
0.0030378
0.00358032
0.00401572
0.00426751
0.00424843
-0.000881275
-0.000946556
-0.000957505
-0.000945076
-0.000909037
-0.0008434
-0.000741656
-0.000595859
-0.000396761
-0.00013407
0.000202948
0.000624252
0.00113698
0.00174371
0.00243324
0.00317255
0.00389668
0.00450739
0.00488214
0.00488563
-0.0011785
-0.00125412
-0.00127329
-0.00127225
-0.00125125
-0.00120355
-0.00112148
-0.000995336
-0.000813308
-0.000561495
-0.000223938
0.000216794
0.000776599
0.00147116
0.00230203
0.00324413
0.00422433
0.00510573
0.00569089
0.00576437
-0.00152369
-0.00161115
-0.00163958
-0.00165237
-0.00165086
-0.00162783
-0.00157469
-0.0014802
-0.00133028
-0.00110759
-0.000790814
-0.000354324
0.000230473
0.000997093
0.00197235
0.0031563
0.00448592
0.00578495
0.00674076
0.00701975
-0.00192114
-0.00202154
-0.00205912
-0.00208737
-0.00210965
-0.00211866
-0.00210522
-0.00205706
-0.00195854
-0.00178988
-0.00152556
-0.0011324
-0.000568165
0.000217812
0.00129937
0.00272626
0.00449511
0.00642512
0.00805761
0.00889993
-0.00237766
-0.00249096
-0.00253498
-0.00257811
-0.00262735
-0.00267559
-0.00271334
-0.00272786
-0.00270314
-0.00261908
-0.00244945
-0.0021583
-0.00169608
-0.00100193
6.71261e-05
0.00161794
0.00380786
0.0065954
0.00947661
0.0117451
-0.00290489
-0.00302758
-0.00306967
-0.00312316
-0.00320031
-0.00329394
-0.003394
-0.00348757
-0.00355966
-0.0035929
-0.00356588
-0.00344906
-0.00319687
-0.0027332
-0.00199501
-0.000736523
0.00143269
0.00495537
0.00975465
0.0151188
-0.00352764
-0.00365231
-0.0036726
-0.00372095
-0.00382109
-0.00396362
-0.00413548
-0.00432238
-0.00451095
-0.00468956
-0.00484898
-0.00498098
-0.00507628
-0.00512765
-0.00515098
-0.00505963
-0.0042216
-0.00114264
0.00540065
0.0156377
-0.00428441
-0.00436084
-0.00430825
-0.00433852
-0.00446416
-0.00466379
-0.00491812
-0.00520967
-0.00552677
-0.00586443
-0.0062315
-0.00665469
-0.00719262
-0.00797217
-0.00929536
-0.0114873
-0.0136953
-0.013091
-0.00646758
0.00908809
-0.00521114
-0.0053225
-0.00513335
-0.00505012
-0.00515068
-0.00539004
-0.00572572
-0.00612423
-0.00656778
-0.00705226
-0.00760283
-0.00828004
-0.00923157
-0.0107566
-0.0135232
-0.0183845
-0.0252083
-0.0272555
-0.0215446
0.00207254
-0.00728026
-0.00633655
-0.00547917
-0.00535572
-0.00557045
-0.00595709
-0.00644381
-0.00698093
-0.00755485
-0.00815543
-0.00882287
-0.00962212
-0.0107894
-0.0127311
-0.0163828
-0.0223952
-0.0324172
-0.034792
-0.0255613
0.0192471
-0.00635312
-0.00841319
-0.00716083
-0.00661495
-0.00662297
-0.0069527
-0.00744362
-0.00799065
-0.00858722
-0.00918987
-0.00985364
-0.010613
-0.0118229
-0.0138448
-0.0178246
-0.0234593
-0.0302219
-0.0248423
0.00769226
0.0823006
-0.0240921
-0.00863923
-0.00426035
-0.00394957
-0.00441041
-0.00499717
-0.0057388
-0.00651576
-0.00737401
-0.00816228
-0.00908215
-0.0100702
-0.0116876
-0.0140803
-0.0175744
-0.0201569
-0.0161454
0.00806418
0.073372
0.182619
2.70043e-05
1.84724e-06
1.61923e-05
6.16908e-05
0.000137609
0.000244405
0.000382086
0.000550181
0.000747403
0.00097125
0.00121764
0.00148059
0.00175196
0.00202138
0.00227647
0.00250336
0.0026878
0.0028171
0.00288056
0.00286496
5.27231e-05
2.64468e-05
4.16368e-05
8.54741e-05
0.000157779
0.000259841
0.000392079
0.000554354
0.000745709
0.000963978
0.0012054
0.00146429
0.00173284
0.00200077
0.00225567
0.00248344
0.00266954
0.00280138
0.00286812
0.00285121
3.53743e-05
4.77451e-06
1.83e-05
5.99963e-05
0.000129606
0.000228819
0.000358456
0.000518866
0.000709631
0.000929149
0.00117421
0.00143961
0.00171764
0.0019979
0.00226731
0.00251048
0.00271099
0.00285421
0.00292692
0.00290575
-1.87041e-05
-5.3317e-05
-4.2102e-05
-2.94028e-06
6.39581e-05
0.000160733
0.000288763
0.000449091
0.000642092
0.000867011
0.00112145
0.00140087
0.00169793
0.00200192
0.00229862
0.00257044
0.00279768
0.00296189
0.00304607
0.00302221
-0.000109418
-0.000148122
-0.00013963
-0.000103441
-3.95929e-05
5.46447e-05
0.000181389
0.00034261
0.000539771
0.000773317
0.00104206
0.00134251
0.00166804
0.00200774
0.00234595
0.00266194
0.00293103
0.00312869
0.00323182
0.0032063
-0.000237681
-0.000281276
-0.000276159
-0.000243709
-0.000183763
-9.28661e-05
3.20241e-05
0.000194061
0.000396145
0.000640373
0.000927322
0.00125516
0.0016187
0.00200727
0.0024038
0.00278357
0.00311481
0.00336352
0.00349662
0.00347026
-0.000404477
-0.000454081
-0.000453267
-0.000425808
-0.000371361
-0.000285631
-0.000164478
-3.29941e-06
0.000202633
0.000457619
0.000764748
0.00112475
0.00153514
0.00198651
0.00246117
0.00292997
0.00335155
0.00367751
0.00385801
0.00383291
-0.000611182
-0.00066812
-0.000672824
-0.000652149
-0.000605657
-0.000528148
-0.000414253
-0.000257685
-5.15033e-05
0.000211429
0.000537646
0.000931625
0.0013955
0.00192331
0.00249881
0.00308912
0.00364093
0.00408438
0.00434133
0.00432338
-0.000859533
-0.000925303
-0.000936964
-0.000925371
-0.000890185
-0.000825311
-0.000724108
-0.000578468
-0.000378936
-0.000114961
0.000224503
0.000649781
0.0011684
0.00178332
0.00248353
0.00323579
0.00397406
0.00459786
0.00498169
0.00498784
-0.00115163
-0.00122782
-0.00124793
-0.00124806
-0.00122833
-0.00118189
-0.0011009
-0.000975464
-0.000793532
-0.000540884
-0.000201151
0.00024362
0.000809982
0.0015144
0.00235898
0.00331899
0.00432036
0.00522302
0.00582422
0.00590368
-0.00149011
-0.00157827
-0.00160797
-0.00162243
-0.00162283
-0.00160182
-0.00155061
-0.00145777
-0.00130893
-0.0010864
-0.000768382
-0.000328552
0.00026257
0.00103999
0.00203138
0.00323864
0.00459905
0.00593255
0.00691703
0.00720908
-0.00187873
-0.00197997
-0.00201932
-0.00204995
-0.00207507
-0.00208721
-0.002077
-0.00203194
-0.00193612
-0.00176938
-0.00150571
-0.00111114
-0.000542179
0.000253517
0.00135045
0.00280416
0.00461525
0.00660064
0.00828573
0.00915546
-0.00232356
-0.00243788
-0.00248432
-0.00253084
-0.00258421
-0.00263716
-0.00268
-0.00269975
-0.00268014
-0.00260078
-0.00243511
-0.00214647
-0.00168406
-0.000981258
9.21043e-05
0.00166496
0.00390446
0.00677763
0.00975875
0.0120842
-0.00283531
-0.00295927
-0.00300465
-0.00306282
-0.00314583
-0.00324631
-0.00335397
-0.00345568
-0.00353622
-0.00357811
-0.00355998
-0.00345251
-0.00321082
-0.00276274
-0.00202675
-0.000770648
0.00143118
0.00507072
0.0100501
0.0155259
-0.00343784
-0.00356399
-0.00358861
-0.00364328
-0.00375146
-0.00390357
-0.0040863
-0.00428509
-0.00448636
-0.00467865
-0.00485331
-0.0050035
-0.00512227
-0.00520662
-0.00527794
-0.00525486
-0.0044736
-0.00127731
0.00552647
0.0159553
-0.00416877
-0.00424734
-0.0042001
-0.00423819
-0.00437427
-0.00458674
-0.00485594
-0.00516404
-0.0054988
-0.00585583
-0.00624509
-0.00669608
-0.00727278
-0.00811214
-0.00953929
-0.0119199
-0.0144271
-0.0137197
-0.00679242
0.00906514
-0.00506724
-0.00517936
-0.00499521
-0.00492125
-0.00503457
-0.00529019
-0.00564509
-0.0060651
-0.00653195
-0.00704165
-0.00762072
-0.00833383
-0.00933781
-0.0109492
-0.0138718
-0.0189987
-0.0260995
-0.0283566
-0.0222825
0.00179535
-0.00709734
-0.00616005
-0.00530848
-0.00519306
-0.00542074
-0.0058262
-0.00633669
-0.00690093
-0.00750419
-0.00813564
-0.00883647
-0.00967575
-0.0109021
-0.0129438
-0.0167857
-0.0231382
-0.0334949
-0.0359493
-0.0260877
0.0195502
-0.00617983
-0.00822534
-0.00696274
-0.00641846
-0.00643731
-0.0067878
-0.00730609
-0.00788604
-0.00851825
-0.00915628
-0.00985726
-0.0106578
-0.0119279
-0.0140437
-0.0181959
-0.0240692
-0.0310907
-0.025541
0.00789256
0.083542
-0.0238906
-0.00840993
-0.00401121
-0.00370666
-0.00418583
-0.00479917
-0.00557527
-0.00639123
-0.00729088
-0.0081189
-0.00908065
-0.0101123
-0.0117948
-0.014274
-0.0179027
-0.0205921
-0.0166136
0.00797518
0.0742008
0.184389
3.22976e-05
7.06555e-06
2.12811e-05
6.66578e-05
0.000142515
0.000249345
0.000387182
0.000555578
0.000753265
0.000977756
0.00122497
0.00148892
0.00176142
0.00203205
0.00228834
0.00251632
0.00270164
0.00283152
0.00289524
0.00287963
5.82872e-05
3.19174e-05
4.69693e-05
9.06812e-05
0.00016292
0.00026501
0.000397397
0.000559969
0.000751789
0.000970712
0.00121298
0.0014729
0.00174264
0.00201185
0.00226804
0.002497
0.00268406
0.00281656
0.00288363
0.00286674
4.15713e-05
1.08749e-05
2.42508e-05
6.58066e-05
0.000135333
0.000234556
0.000364328
0.000525031
0.000716275
0.000936483
0.00118246
0.00144901
0.00172838
0.00201013
0.00228106
0.00252568
0.00272741
0.00287149
0.00294465
0.00292355
-1.15516e-05
-4.6267e-05
-3.52195e-05
3.77751e-06
7.05655e-05
0.000167325
0.000295475
0.000456097
0.000649609
0.000875293
0.00113078
0.00141154
0.00171022
0.00201605
0.0023147
0.00258843
0.00281733
0.00298278
0.00306763
0.0030439
-0.000101002
-0.000139817
-0.000131518
-9.55281e-05
-3.18282e-05
6.23601e-05
0.000189203
0.000350724
0.000548443
0.000782862
0.00105284
0.00135492
0.00168248
0.00202456
0.00236537
0.00268399
0.00295545
0.00315493
0.00325912
0.00323384
-0.000227656
-0.000271373
-0.000266487
-0.000234287
-0.000174546
-8.37527e-05
4.1197e-05
0.000203526
0.000406214
0.000651439
0.000939859
0.0012697
0.00163582
0.0020275
0.00242756
0.00281103
0.00314572
0.00339721
0.00353201
0.0035061
-0.000392422
-0.000442163
-0.000441634