/*--------------------------------*- C++ -*----------------------------------*\
  =========                 |
  \\      /  F ield         | OpenFOAM: The Open Source CFD Toolbox
   \\    /   O peration     | Website:  https://openfoam.org
    \\  /    A nd           | Version:  10
     \\/     M anipulation  |
\*---------------------------------------------------------------------------*/
FoamFile
{
    format      ascii;
    class       surfaceScalarField;
    location    "4";
    object      phi;
}
// * * * * * * * * * * * * * * * * * * * * * * * * * * * * * * * * * * * * * //

dimensions      [0 3 -1 0 0 0 0];

internalField   nonuniform List<scalar> 
22800
(
-2.42963e-06
2.70861e-06
-2.7877e-07
-7.74732e-06
5.20754e-06
1.10148e-07
-1.37806e-05
5.72144e-06
3.1187e-07
-1.97891e-05
5.64029e-06
3.68113e-07
-2.55416e-05
5.39202e-06
3.60574e-07
-3.08965e-05
5.04057e-06
3.14319e-07
-3.57164e-05
4.58145e-06
2.38445e-07
-3.98518e-05
4.00071e-06
1.3467e-07
-4.31309e-05
3.28339e-06
-4.28299e-09
-4.54071e-05
2.4109e-06
-1.34798e-07
-4.64858e-05
1.39251e-06
-3.1379e-07
-4.61855e-05
2.11805e-07
-5.12067e-07
-4.43753e-05
-1.08341e-06
-7.26785e-07
-4.09499e-05
-2.47846e-06
-9.46989e-07
-3.58874e-05
-3.90384e-06
-1.15862e-06
-2.92758e-05
-5.27297e-06
-1.33863e-06
-2.13582e-05
-6.46694e-06
-1.4507e-06
-1.26466e-05
-7.2742e-06
-1.43741e-06
-4.41297e-06
-7.06229e-06
-1.17137e-06
-4.00887e-06
-4.0413e-07
-4.93042e-06
8.59398e-06
-9.54954e-07
-1.38264e-05
1.46869e-05
-5.83394e-07
-2.36303e-05
1.58801e-05
-3.54851e-07
-3.33203e-05
1.55801e-05
-2.49859e-07
-4.25159e-05
1.47817e-05
-1.94035e-07
-5.09722e-05
1.36672e-05
-1.70319e-07
-5.84663e-05
1.22461e-05
-1.70487e-07
-6.47713e-05
1.04991e-05
-1.93327e-07
-6.96512e-05
8.404e-06
-2.40787e-07
-7.28664e-05
5.94446e-06
-3.18369e-07
-7.41725e-05
3.12138e-06
-4.22733e-07
-7.33615e-05
-4.15773e-08
-5.57636e-07
-7.02125e-05
-3.52573e-06
-7.06646e-07
-6.46254e-05
-7.19275e-06
-8.72811e-07
-5.65897e-05
-1.09008e-05
-1.03875e-06
-4.62535e-05
-1.44323e-05
-1.17696e-06
-3.39908e-05
-1.74846e-05
-1.24503e-06
-2.0563e-05
-1.95214e-05
-1.18062e-06
-7.72836e-06
-1.90663e-05
-8.30704e-07
-1.17258e-05
-1.1483e-08
-5.67204e-06
1.55808e-05
-1.31481e-06
-1.57185e-05
2.57167e-05
-9.83355e-07
-2.67005e-05
2.7605e-05
-7.4284e-07
-3.7523e-05
2.70142e-05
-6.11607e-07
-4.77838e-05
2.55631e-05
-5.20621e-07
-5.72195e-05
2.35595e-05
-4.5663e-07
-6.55903e-05
2.103e-05
-4.13162e-07
-7.26527e-05
1.7952e-05
-3.90542e-07
-7.81532e-05
1.42969e-05
-3.92417e-07
-8.18286e-05
1.0043e-05
-4.23139e-07
-8.3413e-05
5.19164e-06
-4.8586e-07
-8.26458e-05
-2.26023e-07
-5.82784e-07
-7.92923e-05
-6.17191e-06
-7.07302e-07
-7.31941e-05
-1.24362e-05
-8.54684e-07
-6.43047e-05
-1.87815e-05
-1.00875e-06
-5.27521e-05
-2.48453e-05
-1.13958e-06
-3.89268e-05
-3.01109e-05
-1.19906e-06
-2.36665e-05
-3.36643e-05
-1.11741e-06
-8.94905e-06
-3.30605e-05
-7.23256e-07
-2.0868e-05
1.93214e-07
-5.96596e-06
2.31052e-05
-1.55841e-06
-1.66178e-05
3.76168e-05
-1.24825e-06
-2.82557e-05
4.0239e-05
-9.96022e-07
-3.97301e-05
3.93377e-05
-8.49045e-07
-5.06381e-05
3.72103e-05
-7.39158e-07
-6.07193e-05
3.42953e-05
-6.54627e-07
-6.97345e-05
3.06352e-05
-5.89933e-07
-7.74378e-05
2.62019e-05
-5.46685e-07
-8.35657e-05
2.09548e-05
-5.29953e-07
-8.78352e-05
1.4858e-05
-5.45507e-07
-8.99452e-05
7.90053e-06
-5.98847e-07
-8.96017e-05
1.26651e-07
-6.96165e-07
-8.64701e-05
-8.48257e-06
-8.20957e-07
-8.03217e-05
-1.76048e-05
-9.79757e-07
-7.1018e-05
-2.69322e-05
-1.15305e-06
-5.86139e-05
-3.59436e-05
-1.30588e-06
-4.3479e-05
-4.3865e-05
-1.38074e-06
-2.65309e-05
-4.93187e-05
-1.29367e-06
-1.00376e-05
-4.87061e-05
-8.47725e-07
-3.10998e-05
1.94202e-07
-6.25573e-06
3.11495e-05
-1.78857e-06
-1.75323e-05
5.03901e-05
-1.49683e-06
-2.98736e-05
5.38147e-05
-1.23444e-06
-4.2067e-05
5.26075e-05
-1.0764e-06
-5.37086e-05
4.98061e-05
-9.5418e-07
-6.45461e-05
4.59902e-05
-8.57398e-07
-7.4348e-05
4.12185e-05
-7.81479e-07
-8.28707e-05
3.54538e-05
-7.29205e-07
-8.98446e-05
2.86356e-05
-7.06995e-07
-9.49644e-05
2.07e-05
-7.22199e-07
-9.78813e-05
1.16007e-05
-7.83255e-07
-9.82681e-05
1.41639e-06
-9.02905e-07
-9.56287e-05
-1.0077e-05
-1.04496e-06
-8.96314e-05
-2.23639e-05
-1.23829e-06
-7.99799e-05
-3.51268e-05
-1.45688e-06
-6.65916e-05
-4.76738e-05
-1.65821e-06
-4.97742e-05
-5.89123e-05
-1.77018e-06
-3.05472e-05
-6.68601e-05
-1.68547e-06
-1.16042e-05
-6.64828e-05
-1.1663e-06
-4.27572e-05
5.32298e-08
-6.62938e-06
3.98278e-05
-2.04893e-06
-1.86874e-05
6.42224e-05
-1.77427e-06
-3.19079e-05
6.85359e-05
-1.50077e-06
-4.50001e-05
6.70325e-05
-1.33275e-06
-5.75593e-05
6.35652e-05
-1.20003e-06
-6.93464e-05
5.88711e-05
-1.09387e-06
-8.01447e-05
5.30278e-05
-1.01097e-06
-8.97214e-05
4.5986e-05
-9.55554e-07
-9.78078e-05
3.76576e-05
-9.35567e-07
-0.000104083
2.79351e-05
-9.59965e-07
-0.00010816
1.67156e-05
-1.03804e-06
-0.000109582
4.01509e-06
-1.17613e-06
-0.000107794
-1.0484e-05
-1.3817e-06
-0.000102214
-2.63003e-05
-1.64321e-06
-9.23159e-05
-4.30805e-05
-1.9446e-06
-7.77769e-05
-5.99766e-05
-2.23624e-06
-5.87558e-05
-7.55094e-05
-2.42394e-06
-3.63687e-05
-8.6885e-05
-2.36213e-06
-1.39057e-05
-8.71972e-05
-1.74861e-06
-5.6454e-05
-2.08918e-07
-7.10035e-06
4.92971e-05
-2.36898e-06
-2.01264e-05
7.93634e-05
-2.115e-06
-3.44241e-05
8.46618e-05
-1.82824e-06
-4.8607e-05
8.28633e-05
-1.64799e-06
-6.22718e-05
7.87321e-05
-1.50208e-06
-7.52011e-05
7.31848e-05
-1.38439e-06
-8.72042e-05
6.63246e-05
-1.29369e-06
-9.80726e-05
5.80907e-05
-1.23628e-06
-0.000107553
4.83603e-05
-1.22239e-06
-0.000115321
3.69668e-05
-1.26381e-06
-0.000120956
2.3722e-05
-1.37175e-06
-0.000123892
8.5026e-06
-1.55084e-06
-0.000123455
-9.0724e-06
-1.84918e-06
-0.000118754
-2.87803e-05
-2.22028e-06
-0.000108912
-5.02615e-05
-2.66172e-06
-9.31928e-05
-7.25806e-05
-3.11483e-06
-7.14298e-05
-9.38209e-05
-3.45154e-06
-4.47607e-05
-0.000110092
-3.46203e-06
-1.72803e-05
-0.000111941
-2.73668e-06
-7.30775e-05
-6.56868e-07
-7.67429e-06
5.97463e-05
-2.77492e-06
-2.18671e-05
9.61071e-05
-2.55083e-06
-3.74426e-05
0.000102484
-2.24716e-06
-5.28977e-05
0.000100367
-2.04854e-06
-6.78363e-05
9.55523e-05
-1.8816e-06
-8.2075e-05
8.91682e-05
-1.74468e-06
-9.54657e-05
8.13553e-05
-1.63999e-06
-0.000107844
7.20461e-05
-1.57703e-06
-0.000118996
6.1082e-05
-1.56943e-06
-0.000128621
4.82247e-05
-1.63332e-06
-0.000136283
3.3169e-05
-1.78481e-06
-0.00014135
1.56023e-05
-2.03238e-06
-0.000143011
-4.93834e-06
-2.47316e-06
-0.000139964
-2.8819e-05
-3.00855e-06
-0.000130844
-5.57e-05
-3.6811e-06
-0.000114234
-8.47704e-05
-4.4201e-06
-8.9299e-05
-0.00011371
-5.04669e-06
-5.69645e-05
-0.000137185
-5.24121e-06
-2.23458e-05
-0.000142158
-4.40133e-06
-9.39101e-05
-1.51313e-06
-8.36614e-06
7.14096e-05
-3.29725e-06
-2.39439e-05
0.000114803
-3.1183e-06
-4.09992e-05
0.000122331
-2.79134e-06
-5.78897e-05
0.00011982
-2.56235e-06
-7.42361e-05
0.000114258
-2.35913e-06
-8.99069e-05
0.000107027
-2.18762e-06
-0.000104818
9.83223e-05
-2.05555e-06
-0.000118878
8.80833e-05
-1.97717e-06
-0.000131947
7.61222e-05
-1.9711e-06
-0.000143792
6.21293e-05
-2.06033e-06
-0.000154009
4.56599e-05
-2.2738e-06
-0.00016192
2.6172e-05
-2.659e-06
-0.00016678
3.22219e-06
-3.30007e-06
-0.000166585
-2.49634e-05
-4.05106e-06
-0.00015946
-5.7725e-05
-5.10016e-06
-0.000142877
-9.50101e-05
-6.34271e-06
-0.000114723
-0.000134334
-7.52947e-06
-7.51295e-05
-0.000168622
-8.15642e-06
-3.02872e-05
-0.000179734
-7.26688e-06
-0.000121036
-3.16137e-06
-9.21249e-06
8.46007e-05
-3.97855e-06
-2.64324e-05
0.00013589
-3.86711e-06
-4.51764e-05
0.00014458
-3.50518e-06
-6.36392e-05
0.000141506
-3.22389e-06
-8.14766e-05
0.000135052
-2.95719e-06
-9.86338e-05
0.000126908
-2.72375e-06
-0.000115119
0.000117348
-2.53986e-06
-0.000130946
0.000106336
-2.42651e-06
-0.000146094
9.36791e-05
-2.40893e-06
-0.000160463
7.90169e-05
-2.51864e-06
-0.000173793
6.17866e-05
-2.79621e-06
-0.000185527
4.12037e-05
-3.29763e-06
-0.000194543
1.63039e-05
-4.06589e-06
-0.000199196
-1.49635e-05
-5.34667e-06
-0.000196302
-5.35958e-05
-7.0239e-06
-0.000181848
-0.000100322
-9.14154e-06
-0.000151443
-0.000153341
-1.13976e-05
-0.000103137
-0.000203931
-1.29977e-05
-4.3589e-05
-0.000226943
-1.23385e-05
-0.00015809
-6.5345e-06
-1.02916e-05
9.9776e-05
-4.88373e-06
-2.94862e-05
0.000159955
-4.87076e-06
-5.01438e-05
0.000169689
-4.45162e-06
-7.02781e-05
0.000165719
-4.07865e-06
-8.96157e-05
0.000158091
-3.70134e-06
-0.000108215
0.000148866
-3.35939e-06
-0.000126208
0.000138423
-3.08201e-06
-0.000143747
0.000126773
-2.89899e-06
-0.000160976
0.000113752
-2.84345e-06
-0.000178003
9.90017e-05
-2.95762e-06
-0.000194817
8.19011e-05
-3.30121e-06
-0.000211115
6.1458e-05
-3.95586e-06
-0.000226007
3.61853e-05
-4.98927e-06
-0.000237979
3.9452e-06
-6.9366e-06
-0.000242832
-3.92219e-05
-9.52164e-06
-0.000234691
-9.53757e-05
-1.30878e-05
-0.000205362
-0.000165352
-1.73174e-05
-0.000148212
-0.000240071
-2.10102e-05
-6.77477e-05
-0.000285921
-2.14861e-05
-0.000211875
-1.39625e-05
-1.17617e-05
0.000117655
-6.11752e-06
-3.3401e-05
0.000187838
-6.24369e-06
-5.6223e-05
0.000198236
-5.72412e-06
-7.80672e-05
0.000192752
-5.18878e-06
-9.88068e-05
0.000183451
-4.61999e-06
-0.000118669
0.000172821
-4.092e-06
-0.000137943
0.000161349
-3.65282e-06
-0.00015694
0.000149114
-3.34279e-06
-0.000176008
0.000136023
-3.20287e-06
-0.000195529
0.000121809
-3.2865e-06
-0.000215887
0.000105935
-3.67591e-06
-0.000237328
8.74016e-05
-4.50186e-06
-0.000259647
6.44933e-05
-5.98928e-06
-0.000281556
3.42606e-05
-8.40639e-06
-0.000299571
-8.81008e-06
-1.23968e-05
-0.000305367
-7.14248e-05
-1.81551e-05
-0.000285405
-0.000159617
-2.56975e-05
-0.000223753
-0.000268227
-3.34959e-05
-0.00011502
-0.000356954
-3.76995e-05
-0.000295984
-3.09118e-05
-1.39371e-05
0.00013945
-7.8581e-06
-3.87332e-05
0.000220806
-8.1717e-06
-6.39946e-05
0.000230963
-7.46561e-06
-8.7476e-05
0.000222874
-6.64013e-06
-0.000109358
0.000211074
-5.74102e-06
-0.000130124
0.000198486
-4.89907e-06
-0.000150249
0.000185663
-4.1886e-06
-0.000170205
0.000172731
-3.66046e-06
-0.000190533
0.000159711
-3.35981e-06
-0.000211916
0.000146538
-3.34578e-06
-0.00023524
0.000132975
-3.71707e-06
-0.000261579
0.000118391
-4.64965e-06
-0.000291964
0.000101314
-6.43647e-06
-0.000326744
7.84695e-05
-9.4283e-06
-0.000364415
4.35661e-05
-1.47057e-05
-0.000396426
-1.65197e-05
-2.28942e-05
-0.000402963
-0.000118632
-3.44477e-05
-0.000351875
-0.000271041
-4.82741e-05
-0.000210204
-0.000436903
-6.17222e-05
-0.000438802
-6.73866e-05
-1.74488e-05
0.000167331
-1.04314e-05
-4.65239e-05
0.000260869
-1.09873e-05
-7.44724e-05
0.000268829
-9.91775e-06
-9.92882e-05
0.000256247
-8.55691e-06
-0.000121799
0.000240665
-7.08055e-06
-0.00014288
0.000225279
-5.71079e-06
-0.000163199
0.000210536
-4.55435e-06
-0.000183339
0.000196537
-3.66735e-06
-0.000203953
0.000183413
-3.08791e-06
-0.000225947
0.000171398
-2.86635e-06
-0.000250683
0.000160804
-3.09351e-06
-0.00028022
0.000151866
-3.9388e-06
-0.000317512
0.000144291
-5.68374e-06
-0.000366328
0.000136023
-8.73759e-06
-0.00042939
0.000120144
-1.35165e-05
-0.000503459
7.86838e-05
-2.11345e-05
-0.000564554
-2.59116e-05
-3.16249e-05
-0.000554936
-0.000235147
-4.55119e-05
-0.000382711
-0.000538719
-7.04092e-05
-0.000701983
-0.00011953
-2.35752e-05
0.000205314
-1.44078e-05
-5.87506e-05
0.00031116
-1.51164e-05
-8.94238e-05
0.000312815
-1.33128e-05
-0.00011475
0.000292607
-1.10343e-05
-0.000136939
0.000271437
-8.58266e-06
-0.000157437
0.000252111
-6.33383e-06
-0.000177049
0.000234599
-4.45028e-06
-0.000196334
0.00021881
-2.98771e-06
-0.000215875
0.000204902
-1.94771e-06
-0.000236563
0.000193432
-1.34614e-06
-0.000259955
0.000185405
-1.20927e-06
-0.000288842
0.000182344
-1.59056e-06
-0.000328298
0.000186196
-2.44923e-06
-0.00038679
0.000197841
-3.3265e-06
-0.000476375
0.000212308
-2.57924e-06
-0.000605315
0.000204449
3.17518e-06
-0.000750816
0.000103472
1.61178e-05
-0.00081809
-0.0002012
3.33272e-05
-0.000620124
-0.000751564
1.48791e-05
-0.00119256
-0.000129542
-3.54061e-05
0.000261853
-2.11329e-05
-7.92405e-05
0.000377616
-2.2621e-05
-0.000111436
0.000364309
-1.92992e-05
-0.000135413
0.000331302
-1.47178e-05
-0.000155682
0.000301894
-1.01879e-05
-0.000174244
0.000276968
-6.2952e-06
-0.000191862
0.000255382
-3.16561e-06
-0.000208892
0.000236588
-7.48239e-07
-0.000225548
0.000220703
8.54811e-07
-0.000242327
0.000208287
1.92432e-06
-0.000260376
0.000200902
2.55166e-06
-0.000282284
0.000201209
3.04394e-06
-0.000314338
0.000213897
4.35297e-06
-0.000369684
0.000243835
9.35282e-06
-0.000472828
0.000289523
2.59295e-05
-0.000652173
0.000315448
6.83472e-05
-0.00089212
0.000198304
0.000145114
-0.00104281
-0.000287932
0.000237426
-0.000821077
-0.00120193
0.000228624
-0.0019396
-7.40408e-05
-5.55968e-05
0.000352375
-3.4926e-05
-0.000115253
0.000468693
-3.14215e-05
-0.000147004
0.00041999
-2.39289e-05
-0.000164351
0.000365733
-1.70845e-05
-0.000178179
0.000325748
-1.0026e-05
-0.000191066
0.000293642
-3.78755e-06
-0.000203222
0.00026639
1.14815e-06
-0.000214434
0.000242974
4.8258e-06
-0.000224551
0.000223449
7.37066e-06
-0.000233183
0.000207948
8.97142e-06
-0.000240412
0.000198116
1.00164e-05
-0.000246896
0.000196416
1.12761e-05
-0.000257621
0.00020938
1.52425e-05
-0.000286797
0.000243862
2.91478e-05
-0.000370342
0.000302252
7.08162e-05
-0.000559447
0.000339114
0.000165438
-0.000860321
0.000178049
0.000321129
-0.00107117
-0.000534779
0.000457697
-0.00089257
-0.00176352
0.000382996
-0.0026962
-0.000135969
-0.000104484
0.000504981
-4.81212e-05
-0.000178044
0.000600615
-5.83622e-05
-0.000191628
0.000481485
-4.79108e-05
-0.000187536
0.000390447
-2.88054e-05
-0.000179409
0.000329389
-1.17676e-05
-0.000169916
0.000282848
1.30029e-06
-0.000160277
0.000246184
1.05678e-05
-0.000150678
0.000216777
1.65981e-05
-0.000141302
0.000193834
2.02389e-05
-0.000130642
0.000175351
2.19361e-05
-0.000117657
0.000162666
2.24658e-05
-9.94368e-05
0.00015555
2.26451e-05
-7.68626e-05
0.000160748
2.6058e-05
-5.63101e-05
0.000181679
4.16309e-05
-7.16959e-05
0.000224812
9.28261e-05
-0.000180953
0.000241447
0.000206924
-0.000441887
4.42238e-05
0.000394759
-0.000736695
-0.00074315
0.000503179
-0.000787796
-0.00201759
0.000305164
-0.00310305
-0.000380944
-0.000456466
0.00110519
-0.00014374
-0.000345491
0.000572528
-8.28881e-05
-0.000143746
0.000332709
-5.29687e-05
2.31254e-05
0.000247152
-2.35765e-05
0.000160058
0.000195709
-3.25251e-06
0.000270508
0.000156778
1.56199e-05
0.000360243
0.000128508
2.79402e-05
0.000433827
0.000107705
3.54883e-05
0.000494238
9.35811e-05
3.98423e-05
0.000546407
8.23475e-05
4.08353e-05
0.000593185
7.61136e-05
3.97733e-05
0.00064033
7.21611e-05
3.62441e-05
0.000690936
7.6952e-05
3.31899e-05
0.000750922
8.72534e-05
3.44392e-05
0.000814072
0.000101172
6.04907e-05
0.000854088
8.11182e-05
0.000120313
0.00071382
-6.67332e-05
0.000251225
0.000309202
-0.000687469
0.000348937
-3.91935e-05
-0.00170049
3.13008e-05
-0.00251253
-0.000629721
0.00127001
-0.000164824
0.00198972
-0.000147178
0.00245086
-0.000128435
0.0028059
-0.000107887
0.00308726
-8.56484e-05
0.00330897
-6.49387e-05
0.00348279
-4.53123e-05
0.00362009
-2.95929e-05
0.00372864
-1.49672e-05
0.00381541
-4.42159e-06
0.00388699
4.52791e-06
0.00394916
9.99919e-06
0.00401343
1.2675e-05
0.00408453
1.61541e-05
0.00416355
2.21492e-05
0.00421237
3.23033e-05
0.00409427
5.13613e-05
0.00339248
1.43285e-05
0.0017595
-6.75098e-05
-0.000753029
-4.44683e-06
4.65054e-06
-4.82486e-07
-1.34486e-05
9.35542e-06
-2.43557e-07
-2.34097e-05
1.0319e-05
-4.60211e-08
-3.31636e-05
1.00892e-05
3.28087e-08
-4.2358e-05
9.50393e-06
5.1106e-08
-5.07807e-05
8.70645e-06
3.05829e-08
-5.82269e-05
7.70503e-06
-2.04586e-08
-6.44656e-05
6.49106e-06
-1.17685e-07
-6.92785e-05
5.04869e-06
-2.40102e-07
-7.24048e-05
3.37833e-06
-3.8686e-07
-7.3628e-05
1.47375e-06
-5.64314e-07
-7.27221e-05
-6.50385e-07
-7.67564e-07
-6.95107e-05
-2.94901e-06
-9.89127e-07
-6.38848e-05
-5.35605e-06
-1.21686e-06
-5.58405e-05
-7.7705e-06
-1.43245e-06
-4.55164e-05
-1.00541e-05
-1.6086e-06
-3.32512e-05
-1.20094e-05
-1.70658e-06
-1.97701e-05
-1.32448e-05
-1.67381e-06
-6.9776e-06
-1.25453e-05
-1.41856e-06
-6.62988e-06
-7.51875e-07
-9.45735e-06
1.42458e-05
-1.09289e-06
-2.53096e-05
2.55647e-05
-9.40394e-07
-4.24261e-05
2.77876e-05
-7.07014e-07
-5.90994e-05
2.70732e-05
-5.60554e-07
-7.46855e-05
2.5369e-05
-4.73064e-07
-8.87819e-05
2.30633e-05
-4.30715e-07
-0.000101028
2.02052e-05
-4.24877e-07
-0.000111067
1.67892e-05
-4.52584e-07
-0.000118548
1.28053e-05
-5.16435e-07
-0.000123124
8.25376e-06
-6.17876e-07
-0.000124476
3.16105e-06
-7.57657e-07
-0.000122315
-2.43453e-06
-9.33958e-07
-0.000116415
-8.42101e-06
-1.13542e-06
-0.000106667
-1.46252e-05
-1.35123e-06
-9.31176e-05
-2.07997e-05
-1.55897e-06
-7.6024e-05
-2.66006e-05
-1.72417e-06
-5.59496e-05
-3.15305e-05
-1.79836e-06
-3.40426e-05
-3.46141e-05
-1.71837e-06
-1.29981e-05
-3.30471e-05
-1.37351e-06
-1.90733e-05
-5.66108e-07
-1.10876e-05
2.54908e-05
-1.47226e-06
-2.92988e-05
4.41872e-05
-1.39473e-06
-4.88077e-05
4.76998e-05
-1.14602e-06
-6.77516e-05
4.63735e-05
-9.67954e-07
-8.54302e-05
4.33684e-05
-8.41499e-07
-0.0001014
3.93314e-05
-7.55472e-07
-0.000115263
3.43582e-05
-7.03189e-07
-0.000126632
2.8453e-05
-6.84537e-07
-0.000135127
2.16104e-05
-7.03105e-07
-0.000140371
1.38374e-05
-7.62816e-07
-0.000142006
5.17656e-06
-8.66101e-07
-0.000139697
-4.31369e-06
-1.0128e-06
-0.000133175
-1.44555e-05
-1.1942e-06
-0.000122282
-2.49743e-05
-1.39882e-06
-0.000107022
-3.54661e-05
-1.60294e-06
-8.76367e-05
-4.53571e-05
-1.76821e-06
-6.47265e-05
-5.38005e-05
-1.83918e-06
-3.95686e-05
-5.91453e-05
-1.74402e-06
-1.52152e-05
-5.67648e-05
-1.359e-06
-3.3614e-05
-4.81279e-07
-1.18157e-05
3.75253e-05
-1.77719e-06
-3.1293e-05
6.41779e-05
-1.76171e-06
-5.21314e-05
6.90433e-05
-1.50119e-06
-7.23633e-05
6.70569e-05
-1.30054e-06
-9.12767e-05
6.26903e-05
-1.1476e-06
-0.000108425
5.68588e-05
-1.0332e-06
-0.000123409
4.97043e-05
-9.52122e-07
-0.000135834
4.12373e-05
-9.06178e-07
-0.000145303
3.14496e-05
-9.00849e-07
-0.00015141
2.03413e-05
-9.42136e-07
-0.000153751
7.9536e-06
-1.03495e-06
-0.000151922
-5.65658e-06
-1.18195e-06
-0.00014555
-2.02761e-05
-1.37274e-06
-0.000134361
-3.55445e-05
-1.59868e-06
-0.000118237
-5.09091e-05
-1.83367e-06
-9.73246e-05
-6.55424e-05
-2.03296e-06
-7.21985e-05
-7.81776e-05
-2.12974e-06
-4.42606e-05
-8.63404e-05
-2.03643e-06
-1.70103e-05
-8.32552e-05
-1.60764e-06
-4.98231e-05
-6.06977e-07
-1.25419e-05
5.03641e-05
-2.08551e-06
-3.33123e-05
8.5584e-05
-2.1325e-06
-5.55478e-05
9.1905e-05
-1.86067e-06
-7.7165e-05
8.9238e-05
-1.64025e-06
-9.7441e-05
8.34777e-05
-1.46566e-06
-0.000115936
7.58263e-05
-1.32972e-06
-0.000132257
6.64727e-05
-1.22881e-06
-0.000146012
5.54289e-05
-1.16673e-06
-0.000156789
4.26714e-05
-1.15118e-06
-0.000164153
2.81736e-05
-1.19082e-06
-0.000167634
1.19447e-05
-1.29361e-06
-0.000166735
-5.99371e-06
-1.46469e-06
-0.000160918
-2.54443e-05
-1.69298e-06
-0.000149726
-4.60009e-05
-1.97413e-06
-0.000132827
-6.69864e-05
-2.2786e-06
-0.000110177
-8.72989e-05
-2.55216e-06
-8.22658e-05
-0.000105149
-2.7098e-06
-5.06556e-05
-0.000116999
-2.63722e-06
-1.9494e-05
-0.000113432
-2.15089e-06
-6.83223e-05
-9.41642e-07
-1.34677e-05
6.42233e-05
-2.44039e-06
-3.58522e-05
0.000108751
-2.55705e-06
-5.98292e-05
0.000116653
-2.27192e-06
-8.31744e-05
0.000113281
-2.03015e-06
-0.000105152
0.000106088
-1.83305e-06
-0.000125337
9.6593e-05
-1.67605e-06
-0.000143352
8.50351e-05
-1.55763e-06
-0.000158819
7.1424e-05
-1.48409e-06
-0.000171325
5.57082e-05
-1.46596e-06
-0.000180405
3.78088e-05
-1.51512e-06
-0.000185522
1.7667e-05
-1.64356e-06
-0.000186053
-4.77892e-06
-1.86015e-06
-0.000181257
-2.94596e-05
-2.16202e-06
-0.000170395
-5.59633e-05
-2.54274e-06
-0.000152797
-8.35586e-05
-2.97103e-06
-0.000128077
-0.000110875
-3.38052e-06
-9.65168e-05
-0.000135474
-3.65824e-06
-5.98398e-05
-0.000152393
-3.64466e-06
-2.31247e-05
-0.000148808
-3.08789e-06
-9.01206e-05
-1.53531e-06
-1.46391e-05
7.93712e-05
-2.8778e-06
-3.90339e-05
0.00013411
-3.07934e-06
-6.51595e-05
0.000143727
-2.77677e-06
-9.06181e-05
0.000139598
-2.50712e-06
-0.000114663
0.000130912
-2.28033e-06
-0.000136895
0.000119536
-2.09566e-06
-0.000156974
0.000105775
-1.95486e-06
-0.000174552
8.96335e-05
-1.8678e-06
-0.000189238
7.10208e-05
-1.84898e-06
-0.000200557
4.97789e-05
-1.91498e-06
-0.000207904
2.57261e-05
-2.08328e-06
-0.000210552
-1.30795e-06
-2.37374e-06
-0.000207475
-3.15973e-05
-2.78898e-06
-0.00019756
-6.4771e-05
-3.32787e-06
-0.000179616
-0.000100204
-3.9608e-06
-0.000152667
-0.000136331
-4.60678e-06
-0.00011653
-0.000169952
-5.11085e-06
-7.29909e-05
-0.000194158
-5.23715e-06
-2.84197e-05
-0.000191505
-4.6109e-06
-0.000116675
-2.52242e-06
-1.60832e-05
9.61137e-05
-3.43429e-06
-4.29248e-05
0.000162146
-3.74476e-06
-7.16282e-05
0.000173601
-3.41751e-06
-9.95857e-05
0.000168614
-3.10698e-06
-0.000126047
0.000158326
-2.83513e-06
-0.000150657
0.000145009
-2.60742e-06
-0.000173137
0.000129046
-2.43069e-06
-0.000193208
0.000110447
-2.32001e-06
-0.000210535
8.90734e-05
-2.29549e-06
-0.00022467
6.46616e-05
-2.38083e-06
-0.000234979
3.68534e-05
-2.60326e-06
-0.000240667
5.34371e-06
-2.99539e-06
-0.000240365
-3.07959e-05
-3.5768e-06
-0.000232493
-7.12976e-05
-4.3545e-06
-0.000215097
-0.000115965
-5.31468e-06
-0.000186211
-0.000163273
-6.36346e-06
-0.000144683
-0.000209241
-7.28678e-06
-9.20271e-05
-0.000244333
-7.72138e-06
-3.62844e-05
-0.00024458
-7.06916e-06
-0.000150305
-4.1671e-06
-1.78436e-05
0.000114815
-4.15472e-06
-4.76196e-05
0.000193412
-4.60816e-06
-7.9351e-05
0.000206785
-4.24364e-06
-0.00011018
0.00020075
-3.86937e-06
-0.000139365
0.000188677
-3.52523e-06
-0.000166627
0.00017331
-3.22666e-06
-0.000191786
0.000155139
-2.98844e-06
-0.000214676
0.000134193
-2.83297e-06
-0.000235077
0.000110291
-2.78791e-06
-0.000252643
8.3053e-05
-2.88595e-06
-0.000266799
5.18988e-05
-3.16322e-06
-0.000276616
1.61566e-05
-3.65485e-06
-0.00028067
-2.55404e-05
-4.50124e-06
-0.000276662
-7.37277e-05
-5.62939e-06
-0.000261638
-0.000128991
-7.09874e-06
-0.000232043
-0.000190391
-8.82086e-06
-0.000184838
-0.000253465
-1.05104e-05
-0.000120395
-0.000305333
-1.15992e-05
-4.85646e-05
-0.000312597
-1.10799e-05
-0.000195068
-6.96297e-06
-1.99998e-05
0.000135938
-5.10161e-06
-5.32808e-05
0.00022857
-5.74405e-06
-8.8521e-05
0.00024384
-5.32009e-06
-0.00012257
0.000236418
-4.84329e-06
-0.000154721
0.000222253
-4.38106e-06
-0.000184813
0.000204643
-3.96505e-06
-0.000212818
0.000184225
-3.6221e-06
-0.000238741
0.000161074
-3.38461e-06
-0.000262554
0.000134986
-3.29003e-06
-0.000284112
0.000105475
-3.38387e-06
-0.000303023
7.17357e-05
-3.72217e-06
-0.000318431
3.26464e-05
-4.37863e-06
-0.000328897
-1.36605e-05
-5.48042e-06
-0.000331598
-6.92733e-05
-7.10026e-06
-0.000322299
-0.000135982
-9.3317e-06
-0.000295083
-0.000214602
-1.21456e-05
-0.000243478
-0.000301263
-1.52052e-05
-0.000164695
-0.000379471
-1.76428e-05
-6.93802e-05
-0.000402529
-1.77204e-05
-0.00025907
-1.19131e-05
-2.26961e-05
0.000160118
-6.36846e-06
-6.0191e-05
0.000268454
-7.2606e-06
-9.94646e-05
0.000285399
-6.73755e-06
-0.000137038
0.000276006
-6.09279e-06
-0.000172294
0.000259244
-5.4369e-06
-0.00020525
0.000239068
-4.82779e-06
-0.000236094
0.000216296
-4.31012e-06
-0.000265072
0.000191083
-3.9291e-06
-0.000292439
0.000163242
-3.7327e-06
-0.000318375
0.000132233
-3.77866e-06
-0.00034286
9.70656e-05
-4.14608e-06
-0.000365375
5.61663e-05
-4.96136e-06
-0.00038504
7.43114e-06
-6.41553e-06
-0.000398531
-5.41187e-05
-8.6006e-06
-0.000400678
-0.000131484
-1.18728e-05
-0.000382469
-0.00022955
-1.63483e-05
-0.000331696
-0.000347609
-2.17446e-05
-0.000238183
-0.000467151
-2.68437e-05
-0.000108579
-0.000524866
-2.87531e-05
-0.000360455
-2.11562e-05
-2.6194e-05
0.000188297
-8.10168e-06
-6.88379e-05
0.000314176
-9.3214e-06
-0.000112727
0.000332192
-8.62739e-06
-0.000154052
0.000319845
-7.7039e-06
-0.000192391
0.000299693
-6.73055e-06
-0.000228037
0.00027643
-5.80762e-06
-0.000261466
0.000251078
-5.00571e-06
-0.000293235
0.000223895
-4.38519e-06
-0.000323964
0.000194771
-4.00311e-06
-0.000354308
0.000163216
-3.9264e-06
-0.000384877
0.000128212
-4.25258e-06
-0.000416063
8.79766e-05
-5.12666e-06
-0.000447518
3.95993e-05
-6.70251e-06
-0.00047742
-2.30085e-05
-9.61433e-06
-0.000500146
-0.00010702
-1.41341e-05
-0.000503795
-0.000223249
-2.08074e-05
-0.000467834
-0.000379537
-2.97294e-05
-0.000366743
-0.000562174
-3.95632e-05
-0.000188842
-0.000694169
-4.62971e-05
-0.000541098
-3.91115e-05
-3.0968e-05
0.000221946
-1.05395e-05
-8.00636e-05
0.000367281
-1.21812e-05
-0.000129208
0.000385055
-1.11841e-05
-0.000174358
0.000368148
-9.79336e-06
-0.000215511
0.000343405
-8.29977e-06
-0.000253385
0.000316278
-6.87184e-06
-0.000288822
0.000287943
-5.6173e-06
-0.000322734
0.000258759
-4.61245e-06
-0.000356155
0.000228749
-3.91689e-06
-0.000390313
0.000197623
-3.59403e-06
-0.00042671
0.000164629
-3.73765e-06
-0.000467071
0.000128196
-4.50718e-06
-0.000512883
8.51573e-05
-6.18218e-06
-0.000565425
2.93731e-05
-9.26855e-06
-0.000621369
-5.12721e-05
-1.45093e-05
-0.000668325
-0.00017626
-2.29279e-05
-0.000675523
-0.000371477
-3.53096e-05
-0.000589033
-0.000645754
-5.11845e-05
-0.000349114
-0.000927802
-6.80087e-05
-0.000885916
-7.16825e-05
-3.79037e-05
0.000263506
-1.40882e-05
-9.53268e-05
0.000429982
-1.6265e-05
-0.000150349
0.000444878
-1.47182e-05
-0.000199089
0.000420858
-1.25262e-05
-0.000242408
0.000389816
-1.01727e-05
-0.000281668
0.000357762
-7.93538e-06
-0.000318144
0.000325836
-5.9718e-06
-0.000353087
0.000294407
-4.37147e-06
-0.000387902
0.000263659
-3.18314e-06
-0.000424366
0.000233662
-2.44159e-06
-0.000464953
0.000204312
-2.18934e-06
-0.0005132
0.000175023
-2.51911e-06
-0.000574017
0.000143888
-3.59802e-06
-0.000653153
0.00010546
-5.68786e-06
-0.000755068
4.63188e-05
-9.19287e-06
-0.000870479
-6.68787e-05
-1.51048e-05
-0.00095632
-0.000293118
-2.41427e-05
-0.000911917
-0.000696888
-3.87803e-05
-0.000595484
-0.00124734
-6.73085e-05
-0.001491
-0.000109932
-4.85582e-05
0.000317076
-1.94191e-05
-0.000117199
0.000505639
-2.21323e-05
-0.000178595
0.00051253
-1.95685e-05
-0.000229972
0.000477262
-1.60612e-05
-0.000274142
0.000437723
-1.23199e-05
-0.000313432
0.000399518
-8.79907e-06
-0.000349527
0.000363219
-5.73812e-06
-0.000383874
0.000329014
-3.2481e-06
-0.000418055
0.000297239
-1.34665e-06
-0.000454135
0.000268345
5.07841e-08
-0.000495295
0.000243233
1.02924e-06
-0.000546734
0.000223153
1.71843e-06
-0.000617063
0.000209306
2.4619e-06
-0.000719044
0.000200027
4.08734e-06
-0.000865707
0.000181911
8.49153e-06
-0.0010529
0.000104453
1.90357e-05
-0.00121839
-0.000148395
3.68885e-05
-0.00120486
-0.000728993
5.18946e-05
-0.000798091
-0.00165927
2.00467e-05
-0.00230663
-0.000111998
-6.73959e-05
0.000391207
-2.7868e-05
-0.000150276
0.000597516
-3.16184e-05
-0.000216402
0.000586578
-2.72217e-05
-0.000268458
0.000535656
-2.10561e-05
-0.000311577
0.000485425
-1.47706e-05
-0.000348995
0.000439728
-9.0886e-06
-0.000382658
0.000398019
-4.30175e-06
-0.000413948
0.000360034
-4.78054e-07
-0.000444389
0.000326039
2.49588e-06
-0.0004757
0.00029681
4.77018e-06
-0.000510879
0.000274233
6.73098e-06
-0.000555279
0.000261522
9.07441e-06
-0.000619208
0.0002642
1.3389e-05
-0.00071918
0.000285894
2.3457e-05
-0.000873784
0.000314885
4.756e-05
-0.00107968
0.000280588
9.81107e-05
-0.00125644
-6.30251e-06
0.000179776
-0.00123162
-0.000769428
0.000253045
-0.000783527
-0.00207348
0.000194742
-0.00306956
-9.46396e-05
-9.63635e-05
0.000495095
-4.24509e-05
-0.000205521
0.000719037
-4.37847e-05
-0.00027467
0.000667067
-3.52691e-05
-0.000320014
0.000589848
-2.59327e-05
-0.000355982
0.000527714
-1.63469e-05
-0.000386306
0.000473871
-7.60575e-06
-0.000411969
0.000425093
-2.63426e-07
-0.000433847
0.000381323
5.41465e-06
-0.000453184
0.000343071
9.67626e-06
-0.000470861
0.000310572
1.28867e-05
-0.000488613
0.000286227
1.57739e-05
-0.00050883
0.00027326
1.97559e-05
-0.000538421
0.000280706
2.83272e-05
-0.000588382
0.000315366
4.96368e-05
-0.000674218
0.000371054
0.000100483
-0.000795475
0.000365382
0.000201902
-0.00091851
8.59264e-05
0.000351935
-0.000890067
-0.000786758
0.000446584
-0.000568499
-0.0022952
0.000283146
-0.00358065
-0.000193378
-0.000106851
0.000612453
-5.86285e-05
-0.000251375
0.000873394
-6.81948e-05
-0.000333238
0.000757699
-5.66793e-05
-0.00037437
0.000640284
-3.81099e-05
-0.000389632
0.000551258
-2.00488e-05
-0.000388697
0.000478743
-4.506e-06
-0.000377352
0.000417414
6.90082e-06
-0.000360107
0.000365219
1.54569e-05
-0.000340439
0.00032226
2.13817e-05
-0.00031864
0.000285492
2.52163e-05
-0.00029561
0.000257631
2.8031e-05
-0.000268545
0.000237431
3.1409e-05
-0.000237448
0.000235747
3.99205e-05
-0.000198118
0.000254306
6.33609e-05
-0.000158938
0.000302747
0.000121953
-0.000126026
0.000304559
0.000234835
-0.000129165
8.23847e-05
0.000401439
-0.000181886
-0.000694446
0.000463587
-3.5213e-05
-0.0023227
0.000185996
-0.00361652
-0.000380287
-0.000762684
0.00134819
-0.000116796
-0.00069728
0.000819137
-9.40359e-05
-0.000477702
0.000554411
-6.92576e-05
-0.000267763
0.000449435
-4.26668e-05
-7.71249e-05
0.000376929
-1.95623e-05
0.000100163
0.000316262
8.12791e-07
0.000262065
0.000268326
1.51259e-05
0.000407966
0.000228642
2.61642e-05
0.000537581
0.000198569
3.39175e-05
0.000653814
0.000171889
3.82057e-05
0.000757906
0.00015308
4.02327e-05
0.000854214
0.000137174
4.01933e-05
0.000946312
0.000135558
4.12808e-05
0.00104738
0.000139562
4.81159e-05
0.00117715
0.000155868
7.76029e-05
0.00134562
0.000123645
0.000132756
0.001452
-4.80811e-06
0.000232038
0.00144024
-0.000620633
0.000286883
0.000916831
-0.0018022
3.41987e-05
-0.00283249
-0.000496926
0.00130887
-0.000125502
0.00211228
-0.000131452
0.00266201
-0.000123746
0.00311483
-0.000111274
0.00350141
-9.52997e-05
0.00383058
-7.78491e-05
0.00411265
-5.90536e-05
0.00435392
-4.22239e-05
0.00456358
-2.60594e-05
0.00474357
-1.25223e-05
0.00490267
-1.4898e-06
0.00504234
7.49996e-06
0.0051767
1.38725e-05
0.00531401
1.84146e-05
0.00546086
3.11581e-05
0.00558831
2.85028e-05
0.00557909
5.5777e-05
0.00496859
4.18906e-06
0.00312955
-3.066e-05
-0.000455969
-4.87143e-06
4.95206e-06
-5.63129e-07
-1.48146e-05
1.02365e-05
-5.36868e-07
-2.57751e-05
1.13321e-05
-4.17734e-07
-3.64654e-05
1.10608e-05
-3.3767e-07
-4.65004e-05
1.03838e-05
-2.97712e-07
-5.56507e-05
9.47187e-06
-2.90959e-07