/*--------------------------------*- C++ -*----------------------------------*\
  =========                 |
  \\      /  F ield         | OpenFOAM: The Open Source CFD Toolbox
   \\    /   O peration     | Website:  https://openfoam.org
    \\  /    A nd           | Version:  10
     \\/     M anipulation  |
\*---------------------------------------------------------------------------*/
FoamFile
{
    format      ascii;
    class       volVectorField;
    location    "4";
    object      U;
}
// * * * * * * * * * * * * * * * * * * * * * * * * * * * * * * * * * * * * * //

dimensions      [0 1 -1 0 0 0 0];

internalField   nonuniform List<vector> 
8000
(
(-8.77518e-05 9.93903e-05 -1.47473e-05)
(-0.000468917 0.000210768 1.28192e-05)
(-0.00107224 0.00023481 2.5124e-05)
(-0.00168357 0.000232838 2.79724e-05)
(-0.00227417 0.000224548 2.69451e-05)
(-0.00283179 0.000212472 2.3725e-05)
(-0.0033428 0.000196085 1.88739e-05)
(-0.0037928 0.000174513 1.24186e-05)
(-0.00416575 0.000146836 4.54661e-06)
(-0.00444565 0.000111933 -5.60418e-06)
(-0.00461532 7.01763e-05 -1.64908e-05)
(-0.00465586 2.16738e-05 -2.82588e-05)
(-0.00455132 -3.41571e-05 -4.11357e-05)
(-0.00428964 -9.45958e-05 -5.43938e-05)
(-0.00386419 -0.000156962 -6.71893e-05)
(-0.00327799 -0.000217397 -7.81595e-05)
(-0.00254695 -0.000270615 -8.51053e-05)
(-0.00170113 -0.000307207 -8.43513e-05)
(-0.00080843 -0.000297972 -6.74862e-05)
(-0.000181364 -0.000161205 -2.09484e-05)
(-0.000198697 0.000519449 -5.59333e-05)
(-0.000881107 0.000929909 -3.17553e-05)
(-0.00186809 0.00101293 -1.70883e-05)
(-0.00285798 0.000996592 -1.08801e-05)
(-0.00380697 0.00094947 -7.83401e-06)
(-0.00469377 0.000883034 -6.67187e-06)
(-0.00549534 0.000797191 -6.89351e-06)
(-0.00618919 0.000690083 -8.44013e-06)
(-0.00675212 0.000559677 -1.14067e-05)
(-0.00716031 0.000403977 -1.60536e-05)
(-0.00738948 0.000223288 -2.22062e-05)
(-0.00741666 1.85259e-05 -3.01117e-05)
(-0.00722 -0.000207612 -3.89308e-05)
(-0.0067831 -0.000447984 -4.87783e-05)
(-0.00609986 -0.000692168 -5.86792e-05)
(-0.00517677 -0.000925562 -6.70165e-05)
(-0.00403899 -0.00112801 -7.12077e-05)
(-0.00273135 -0.00126384 -6.71444e-05)
(-0.00135128 -0.00123158 -4.46794e-05)
(-0.000330277 -0.000735042 1.02435e-05)
(-0.000230197 0.0011952 -7.80865e-05)
(-0.00100679 0.00199815 -5.66239e-05)
(-0.00211661 0.00215119 -4.10602e-05)
(-0.00322358 0.00210757 -3.3174e-05)
(-0.00428291 0.00199652 -2.79285e-05)
(-0.00527246 0.00184233 -2.42515e-05)
(-0.00616731 0.00164677 -2.17241e-05)
(-0.00694328 0.00140774 -2.03691e-05)
(-0.00757555 0.00112274 -2.04063e-05)
(-0.00803825 0.000789858 -2.20887e-05)
(-0.00830479 0.000408967 -2.55879e-05)
(-0.00834861 -1.74274e-05 -3.10501e-05)
(-0.00814446 -0.000482615 -3.81198e-05)
(-0.00767217 -0.000973516 -4.65692e-05)
(-0.00692088 -0.00146989 -5.54917e-05)
(-0.00589403 -0.00194297 -6.31426e-05)
(-0.00461647 -0.00235234 -6.66126e-05)
(-0.0031358 -0.00262673 -6.1328e-05)
(-0.00155976 -0.00257327 -3.60684e-05)
(-0.000383622 -0.00160945 2.31585e-05)
(-0.00024057 0.00192614 -9.23655e-05)
(-0.00106165 0.00315189 -7.22069e-05)
(-0.00223924 0.00337623 -5.58994e-05)
(-0.00341243 0.00330194 -4.70827e-05)
(-0.00453674 0.00312354 -4.07284e-05)
(-0.00559099 0.00287814 -3.58398e-05)
(-0.00655044 0.00256919 -3.20481e-05)
(-0.00739083 0.00219418 -2.94428e-05)
(-0.0080868 0.00174975 -2.83257e-05)
(-0.00861099 0.00123315 -2.90346e-05)
(-0.00893414 0.000643719 -3.18891e-05)
(-0.00902632 -1.52017e-05 -3.724e-05)
(-0.00885554 -0.00073674 -4.42112e-05)
(-0.00839301 -0.00150071 -5.31753e-05)
(-0.00761951 -0.0022776 -6.30596e-05)
(-0.00652993 -0.00302345 -7.18374e-05)
(-0.00514392 -0.00367447 -7.60528e-05)
(-0.00351012 -0.00411793 -7.02619e-05)
(-0.00175037 -0.00405592 -4.16237e-05)
(-0.000430406 -0.00257949 2.55894e-05)
(-0.000250437 0.00270258 -0.000105526)
(-0.00111646 0.00438186 -8.63453e-05)
(-0.0023654 0.00468257 -6.93778e-05)
(-0.00361065 0.00457742 -5.99494e-05)
(-0.00480755 0.00433156 -5.29327e-05)
(-0.00593627 0.00399556 -4.73854e-05)
(-0.00697286 0.00357444 -4.29848e-05)
(-0.00789366 0.00306495 -3.98792e-05)
(-0.00867316 0.00246216 -3.84406e-05)
(-0.00928265 0.00176125 -3.90968e-05)
(-0.00968953 0.000959178 -4.23436e-05)
(-0.00985989 5.7039e-05 -4.88715e-05)
(-0.00975197 -0.000935937 -5.67527e-05)
(-0.00932359 -0.00199934 -6.75553e-05)
(-0.00854221 -0.00309459 -7.98822e-05)
(-0.00738737 -0.0041611 -9.12765e-05)
(-0.00586786 -0.00510661 -9.74317e-05)
(-0.00403152 -0.00576593 -9.14858e-05)
(-0.00202132 -0.0057139 -5.80555e-05)
(-0.000499068 -0.00366598 2.23655e-05)
(-0.000263552 0.00353598 -0.000120349)
(-0.0011863 0.00570738 -0.00010202)
(-0.00252429 0.00609237 -8.43313e-05)
(-0.00385963 0.0059573 -7.43802e-05)
(-0.00514727 0.00564467 -6.6842e-05)
(-0.00636922 0.00521986 -6.08391e-05)
(-0.007503 0.0046896 -5.61125e-05)
(-0.0085263 0.00404954 -5.28819e-05)
(-0.00941432 0.00329238 -5.15981e-05)
(-0.0101377 0.00240971 -5.2776e-05)
(-0.0106614 0.00139389 -5.69691e-05)
(-0.0109433 0.000240825 -6.45898e-05)
(-0.0109321 -0.00104219 -7.58389e-05)
(-0.0105702 -0.00243866 -9.03406e-05)
(-0.00980072 -0.00390381 -0.000107183)
(-0.00857872 -0.00536018 -0.000123493)
(-0.00689206 -0.00668042 -0.000133677)
(-0.00478161 -0.00762974 -0.000128574)
(-0.00241771 -0.00762094 -8.88271e-05)
(-0.000601217 -0.00492261 1.08544e-05)
(-0.00028031 0.00444022 -0.000138594)
(-0.0012738 0.00715065 -0.000121312)
(-0.00272152 0.00762919 -0.000102773)
(-0.00416673 0.00746497 -9.2198e-05)
(-0.00556399 0.00708628 -8.4017e-05)
(-0.00689805 0.00657518 -7.74693e-05)
(-0.00814889 0.00594054 -7.24046e-05)
(-0.00929678 0.0051768 -6.91515e-05)
(-0.0103191 0.00427349 -6.828e-05)
(-0.0111873 0.00321706 -7.04558e-05)
(-0.0118645 0.00199275 -7.63129e-05)
(-0.0123019 0.000588049 -8.61602e-05)
(-0.0124373 -0.00100155 -0.000102541)
(-0.0121915 -0.00276793 -0.000123086)
(-0.0114741 -0.00466633 -0.000147629)
(-0.0102011 -0.00660596 -0.000172789)
(-0.00832092 -0.00841796 -0.000191003)
(-0.00585204 -0.00977365 -0.000189295)
(-0.00299533 -0.00986995 -0.000141854)
(-0.000752569 -0.00642261 -1.425e-05)
(-0.000300859 0.00543243 -0.000161769)
(-0.00138009 0.00873866 -0.000146086)
(-0.00295927 0.0093205 -0.000126498)
(-0.0045337 0.00912633 -0.000114982)
(-0.00605791 0.00868099 -0.000105747)
(-0.0075206 0.00808588 -9.82558e-05)
(-0.00890566 0.00735291 -9.25442e-05)
(-0.0101978 0.00647553 -8.91125e-05)
(-0.0113789 0.00543965 -8.87072e-05)
(-0.0124236 0.00422515 -9.22134e-05)
(-0.0132958 0.00280714 -0.000100508)
(-0.0139431 0.00115935 -0.000114197)
(-0.0142941 -0.000739553 -0.000138556)
(-0.0142421 -0.00290834 -0.000168272)
(-0.0136521 -0.00530993 -0.000205632)
(-0.0123803 -0.00785216 -0.000246589)
(-0.0103038 -0.0103228 -0.00028061)
(-0.00738577 -0.0122676 -0.000288243)
(-0.00385067 -0.0125843 -0.00023235)
(-0.000983503 -0.0082704 -6.17393e-05)
(-0.000325865 0.00653347 -0.000191616)
(-0.00150767 0.0105033 -0.000178476)
(-0.0032414 0.0111971 -0.000157498)
(-0.00496358 0.0109686 -0.000144399)
(-0.0066293 0.0104529 -0.000133287)
(-0.00823308 0.00977446 -0.000124025)
(-0.00976471 0.00894962 -0.000116964)
(-0.0112159 0.00797172 -0.000112864)
(-0.0125759 0.00682333 -0.000112746)
(-0.0138268 0.00547697 -0.000117881)
(-0.0149379 0.00389484 -0.000129879)
(-0.0158569 0.00202995 -0.000151304)
(-0.0165143 -0.000169402 -0.000186768)
(-0.016773 -0.00274115 -0.000228874)
(-0.016438 -0.00570715 -0.000287348)
(-0.0152841 -0.0089921 -0.000356425)
(-0.0130639 -0.0123514 -0.000421373)
(-0.00961882 -0.0151716 -0.000451842)
(-0.00516137 -0.0159259 -0.000390107)
(-0.00135482 -0.0106261 -0.000153061)
(-0.00035716 0.0077702 -0.000230577)
(-0.00166235 0.0124834 -0.0002214)
(-0.00357646 0.0132942 -0.000198411)
(-0.0054639 0.01302 -0.000182527)
(-0.00728166 0.0124243 -0.000168031)
(-0.00903285 0.0116591 -0.000155495)
(-0.0107158 0.0107476 -0.000145766)
(-0.0123322 0.00968443 -0.000139983)
(-0.0138825 0.00845034 -0.000139527)
(-0.0153619 0.00701145 -0.000146136)
(-0.0167538 0.00531671 -0.000162082)
(-0.0180199 0.00329524 -0.00019055)
(-0.0190797 0.000856671 -0.000234413)
(-0.0197979 -0.0020858 -0.000305897)
(-0.0199345 -0.00564438 -0.000400065)
(-0.019126 -0.00981072 -0.000518701)
(-0.0169324 -0.0143565 -0.00064355)
(-0.0129509 -0.0184934 -0.000726836)
(-0.00727655 -0.0200977 -0.000673327)
(-0.00199917 -0.013756 -0.000339007)
(-0.000398866 0.00918012 -0.000282416)
(-0.00185625 0.0147294 -0.000279231)
(-0.00398168 0.0156531 -0.000253022)
(-0.00605061 0.0153096 -0.00023214)
(-0.00802504 0.0146135 -0.000211594)
(-0.00992113 0.0137506 -0.000193173)
(-0.0117492 0.0127533 -0.000178486)
(-0.0135238 0.0116199 -0.000169175)
(-0.0152607 0.010332 -0.000167066)
(-0.0169738 0.00885293 -0.000174507)
(-0.0186696 0.00712231 -0.000194808)
(-0.0203352 0.00504743 -0.000232539)
(-0.0219174 0.00249521 -0.000292439)
(-0.0233034 -0.000716328 -0.000402837)
(-0.0242141 -0.00479003 -0.000550337)
(-0.0241499 -0.00991015 -0.000752719)
(-0.0223856 -0.0159755 -0.000990265)
(-0.0180677 -0.0220781 -0.00119003)
(-0.0109139 -0.0253148 -0.00119363)
(-0.0032195 -0.0181303 -0.000749809)
(-0.000459631 0.0108203 -0.000353289)
(-0.00211331 0.017311 -0.000358876)
(-0.00448975 0.0183253 -0.000327026)
(-0.00675419 0.0178671 -0.000297068)
(-0.00888093 0.0170329 -0.000265804)
(-0.010907 0.0160487 -0.000237072)
(-0.0128588 0.0149577 -0.000213604)
(-0.0147668 0.013764 -0.000197656)
(-0.0166644 0.0124542 -0.000191505)
(-0.0185887 0.0109959 -0.000198146)
(-0.0205796 0.00932878 -0.000222201)
(-0.0226721 0.00734874 -0.000271126)
(-0.0248761 0.00488404 -0.000357969)
(-0.0271303 0.0016681 -0.000500878)
(-0.0292147 -0.0026659 -0.000732294)
(-0.0305585 -0.00861053 -0.00106554)
(-0.0300561 -0.0164357 -0.00149833)
(-0.0261239 -0.0253572 -0.00193487)
(-0.0175422 -0.0316775 -0.00214361)
(-0.0057013 -0.0246429 -0.00171754)
(-0.000557231 0.0127843 -0.000453842)
(-0.00247985 0.0203313 -0.000471749)
(-0.00516068 0.0213766 -0.000429267)
(-0.00762903 0.0207219 -0.000382654)
(-0.009889 0.0196852 -0.000332472)
(-0.0120126 0.0185367 -0.000285992)
(-0.0140482 0.0173292 -0.000247526)
(-0.0160424 0.0160732 -0.000219943)
(-0.0180456 0.0147645 -0.000205788)
(-0.0201186 0.0133851 -0.000208491)
(-0.0223404 0.0118927 -0.000233943)
(-0.024811 0.0101991 -0.000292659)
(-0.0276421 0.0081307 -0.000401783)
(-0.0309239 0.00536163 -0.000583255)
(-0.0346371 0.00131561 -0.000901568)
(-0.0383272 -0.00489758 -0.00139284)
(-0.0405989 -0.0143295 -0.00208389)
(-0.0388431 -0.0269686 -0.00289919)
(-0.0298304 -0.038858 -0.00365182)
(-0.0108069 -0.0349885 -0.00385846)
(-0.000728476 0.0152371 -0.00060384)
(-0.00304559 0.0239539 -0.000638326)
(-0.00610278 0.0248956 -0.000574593)
(-0.00876752 0.0238991 -0.000496501)
(-0.0111154 0.0225557 -0.000412537)
(-0.0132797 0.0211737 -0.000335645)
(-0.015336 0.0198058 -0.000272112)
(-0.0173449 0.0184643 -0.000225088)
(-0.0193663 0.0171569 -0.000196725)
(-0.021476 0.0158908 -0.000190088)
(-0.0237848 0.0146654 -0.000210965)
(-0.0264609 0.0134523 -0.000270295)
(-0.0297565 0.0121461 -0.000386601)
(-0.0340257 0.0104538 -0.000587345)
(-0.0396642 0.00768467 -0.000905371)
(-0.0467703 0.00239629 -0.00142016)
(-0.0540928 -0.0078222 -0.0021451)
(-0.057813 -0.0250116 -0.00309983)
(-0.0508837 -0.0464194 -0.00460039)
(-0.0199886 -0.052308 -0.00707213)
(-0.00105 0.0184695 -0.000838921)
(-0.00398596 0.0284063 -0.000887761)
(-0.00751361 0.0289573 -0.0007797)
(-0.0103233 0.0273894 -0.000644963)
(-0.0126624 0.025593 -0.000501973)
(-0.0147728 0.0238804 -0.000373206)
(-0.0167604 0.0222819 -0.000268062)
(-0.0186882 0.0208015 -0.000189355)
(-0.0206097 0.0194552 -0.000137177)
(-0.022594 0.0182824 -0.000113006)
(-0.0247564 0.0173463 -0.000119698)
(-0.0273022 0.0167267 -0.00016285)
(-0.030607 0.0164871 -0.000246511)
(-0.0353459 0.0165339 -0.000356721)
(-0.0426575 0.0162512 -0.000428018)
(-0.0538834 0.0135486 -0.000309023)
(-0.0686693 0.00365696 0.000165364)
(-0.0817341 -0.019868 0.000796632)
(-0.0796246 -0.0578365 -0.000391493)
(-0.0306531 -0.0848116 -0.00790099)
(-0.00170655 0.0230626 -0.00124546)
(-0.00568207 0.034349 -0.0013406)
(-0.00973065 0.0339062 -0.00113668)
(-0.0125047 0.0312506 -0.000861239)
(-0.0146504 0.02872 -0.000591559)
(-0.0165587 0.0265185 -0.000364175)
(-0.0183474 0.0245799 -0.000186397)
(-0.020062 0.0228665 -5.59729e-05)
(-0.0217266 0.0213912 3.56853e-05)
(-0.0233705 0.0202122 8.8657e-05)
(-0.0250648 0.0194606 0.000108887)
(-0.026971 0.0193472 0.000108901)
(-0.0294825 0.0201961 0.000135643)
(-0.0335103 0.0222763 0.000348073)
(-0.0410872 0.0252342 0.0011704)
(-0.0555992 0.0261391 0.00332477)
(-0.078553 0.0162394 0.00738451)
(-0.102402 -0.0199347 0.0124833)
(-0.106253 -0.0896197 0.0119389)
(-0.0333035 -0.151791 -0.00538657)
(-0.0028369 0.031127 -0.00208181)
(-0.00863678 0.0411854 -0.00190176)
(-0.0135123 0.0382095 -0.00143642)
(-0.0158108 0.0344999 -0.00099919)
(-0.0172409 0.0313749 -0.00056136)
(-0.0185364 0.0286936 -0.000185857)
(-0.0197668 0.0263356 0.000103747)
(-0.0209163 0.0242643 0.000309328)
(-0.0219654 0.0225135 0.000444294)
(-0.0228813 0.0211369 0.00051925)
(-0.023639 0.0203096 0.00055482)
(-0.0242355 0.0203161 0.000590482)
(-0.0248798 0.0217439 0.000761849)
(-0.0263768 0.0252317 0.00146411)
(-0.0313483 0.0307955 0.00371464)
(-0.0453294 0.0342462 0.0090758)
(-0.0728389 0.0206786 0.0181574)
(-0.104448 -0.0416551 0.0259801)
(-0.118811 -0.159601 0.0195795)
(-0.0222625 -0.256261 -0.0137694)
(-0.00418037 0.0358884 -0.00291425)
(-0.0146269 0.0561468 -0.00359241)
(-0.0197208 0.049466 -0.00290074)
(-0.0194328 0.0410124 -0.00165961)
(-0.0185371 0.035167 -0.000580386)
(-0.0175532 0.030743 0.000229294)
(-0.016538 0.0271869 0.000773052)
(-0.0155389 0.0242606 0.00111078)
(-0.0145828 0.0219084 0.00129769)
(-0.0135621 0.020047 0.00136284)
(-0.0123898 0.0188149 0.00135303)
(-0.0107474 0.0183712 0.00131102)
(-0.00860357 0.0194046 0.00144687)
(-0.00596835 0.0224959 0.00229386)
(-0.00509147 0.0278473 0.00528561)
(-0.0108436 0.0298003 0.0122886)
(-0.0334363 0.00883158 0.0236711)
(-0.0640989 -0.0816216 0.0284859)
(-0.104327 -0.22856 0.0104112)
(0.000520869 -0.33256 -0.037256)
(-0.0566461 0.0868149 -0.00907657)
(-0.0396032 0.0551658 -0.00527292)
(-0.0236548 0.035653 -0.00331111)
(-0.00544671 0.0284595 -0.00142805)
(0.00966788 0.0239068 2.68751e-05)
(0.0219515 0.0201943 0.00115618)
(0.0319209 0.0173348 0.00190847)
(0.0400956 0.0151717 0.00234721)
(0.0466369 0.0136307 0.00257735)
(0.0523704 0.0123833 0.0025915)
(0.057071 0.0116446 0.0024824)
(0.062158 0.0111949 0.00222211)
(0.066598 0.0119167 0.00199296)
(0.0728427 0.0135169 0.00206451)
(0.0770087 0.0168837 0.00361422)
(0.0840703 0.0159502 0.00764965)
(0.0688018 -0.00396979 0.0162224)
(0.0606684 -0.0822353 0.0198972)
(-0.018761 -0.204862 -0.00512541)
(0.0532958 -0.287544 -0.0504491)
(0.134365 0.0891923 -0.0106913)
(0.161786 0.0623532 -0.0097796)
(0.217608 0.0413707 -0.00853325)
(0.263233 0.029361 -0.00714458)
(0.296258 0.02198 -0.0056432)
(0.321211 0.0168566 -0.00421429)
(0.340403 0.0131965 -0.00284754)
(0.356112 0.0104465 -0.00173391)
(0.367744 0.00851 -0.000702018)
(0.378291 0.00698678 5.09668e-06)
(0.384819 0.00597615 0.00054652)
(0.39355 0.00521821 0.000879)
(0.396372 0.00478084 0.000877969)
(0.407525 0.00494089 0.00127779)
(0.404676 0.00484575 0.000934869)
(0.420405 0.00539012 0.00243142)
(0.392621 0.000317851 0.00249593)
(0.393532 -0.0139549 0.00241806)
(0.259546 -0.0434992 -0.0038436)
(0.214173 -0.0904065 -0.0510542)
(-0.00016706 0.000173619 -3.95894e-05)
(-0.000829628 0.000384137 -7.06806e-07)
(-0.0018377 0.000429223 2.06809e-05)
(-0.00283978 0.000421603 2.81128e-05)
(-0.00379162 0.000399742 2.85312e-05)
(-0.00467641 0.000369592 2.42514e-05)
(-0.00547377 0.000331061 1.64345e-05)
(-0.00616185 0.000283426 5.71771e-06)
(-0.00671809 0.00022563 -8.12738e-06)
(-0.00711842 0.000157463 -2.56454e-05)
(-0.00733891 7.82366e-05 -4.56747e-05)
(-0.00735705 -1.13766e-05 -6.7987e-05)
(-0.00715239 -0.000109998 -9.23712e-05)
(-0.00671031 -0.000214356 -0.000117431)
(-0.00602472 -0.000319989 -0.000141365)
(-0.00510204 -0.000420714 -0.000161385)
(-0.00396511 -0.000507786 -0.000173277)
(-0.00265355 -0.000563788 -0.000170665)
(-0.00126439 -0.000532556 -0.000140495)
(-0.000284181 -0.000266353 -5.93324e-05)
(-0.000391667 0.000869482 -0.000112625)
(-0.00164298 0.00163595 -8.05154e-05)
(-0.00338233 0.00179093 -5.37371e-05)
(-0.00509927 0.00174877 -3.97708e-05)
(-0.0067207 0.0016437 -3.20876e-05)
(-0.00821242 0.00150075 -2.87193e-05)
(-0.00953672 0.00132219 -2.86827e-05)
(-0.0106576 0.001107 -3.17208e-05)
(-0.0115397 0.0008536 -3.80557e-05)
(-0.012148 0.000561842 -4.8012e-05)
(-0.0124489 0.000231936 -6.14887e-05)
(-0.0124118 -0.000132644 -7.86156e-05)
(-0.01201 -0.000525034 -9.7931e-05)
(-0.0112265 -0.00093367 -0.000118981)
(-0.0100574 -0.00134174 -0.000139598)
(-0.00851728 -0.00172615 -0.000156357)
(-0.00664581 -0.00205376 -0.000164145)
(-0.00450696 -0.00225942 -0.000155639)
(-0.00224561 -0.00214974 -0.000115231)
(-0.000555128 -0.00119836 -1.95523e-05)
(-0.000462892 0.00196382 -0.000154548)
(-0.00191316 0.00344939 -0.000128985)
(-0.00390233 0.00373446 -0.000100421)
(-0.00585552 0.00363432 -8.31238e-05)
(-0.00769612 0.00340168 -7.12127e-05)
(-0.00938716 0.0030879 -6.30454e-05)
(-0.0108868 0.00270015 -5.78276e-05)
(-0.0121559 0.00223835 -5.5556e-05)
(-0.0131559 0.00170178 -5.66287e-05)
(-0.0138489 0.0010909 -6.14958e-05)
(-0.0141981 0.000408478 -7.04526e-05)
(-0.0141683 -0.000338276 -8.36169e-05)
(-0.0137287 -0.00113587 -0.000100172)
(-0.0128573 -0.00196215 -0.000119267)
(-0.0115454 -0.00278446 -0.000138736)
(-0.00980456 -0.00355739 -0.00015481)
(-0.00767522 -0.00421482 -0.000161683)
(-0.00522628 -0.00462782 -0.000151121)
(-0.00261911 -0.0044309 -0.000105864)
(-0.000652501 -0.00259916 -2.86557e-06)
(-0.000491754 0.00313664 -0.000184732)
(-0.00204106 0.00539242 -0.000163774)
(-0.00416856 0.00580946 -0.000133846)
(-0.00625426 0.00564474 -0.000114422)
(-0.00822112 0.0052775 -0.000100001)
(-0.0100331 0.00478548 -8.91209e-05)
(-0.011648 0.00418054 -8.11173e-05)
(-0.0130261 0.00346348 -7.6159e-05)
(-0.014128 0.00263378 -7.48251e-05)
(-0.0149135 0.00169202 -7.77592e-05)
(-0.0153421 0.000641858 -8.55266e-05)
(-0.0153731 -0.000507281 -9.86011e-05)
(-0.0149667 -0.00173772 -0.00011556)
(-0.0140898 -0.0030174 -0.000136294)
(-0.0127215 -0.00429807 -0.000158338)
(-0.010862 -0.00551013 -0.000177301)
(-0.00854481 -0.00654949 -0.000186227)
(-0.00584043 -0.00721348 -0.000175193)
(-0.00293123 -0.00694014 -0.000124228)
(-0.000728914 -0.00413807 -6.9785e-06)
(-0.000520253 0.00437635 -0.000213924)
(-0.00216923 0.00745505 -0.000197265)
(-0.00444006 0.00801184 -0.00016609)
(-0.00666667 0.00778023 -0.00014501)
(-0.00877093 0.00727554 -0.000128785)
(-0.0107183 0.00660308 -0.000116115)
(-0.0124675 0.00577931 -0.000106466)
(-0.0139791 0.0048054 -0.000100168)
(-0.0152133 0.00367998 -9.79891e-05)
(-0.016128 0.00240203 -0.000100801)
(-0.0166779 0.00097346 -0.000109505)
(-0.0168145 -0.000597219 -0.00012504)
(-0.0164852 -0.00229079 -0.00014489)
(-0.0156392 -0.0040691 -0.000170383)
(-0.0142351 -0.00586956 -0.000198519)
(-0.0122521 -0.00759614 -0.00022397)
(-0.00970848 -0.00909822 -0.000237967)
(-0.00667349 -0.0100808 -0.000227766)
(-0.0033607 -0.0097469 -0.000168907)
(-0.000835822 -0.0058583 -2.74614e-05)
(-0.000557232 0.00570612 -0.000247136)
(-0.00233145 0.00967489 -0.000234989)
(-0.00478071 0.0103832 -0.000202403)
(-0.00718307 0.0100828 -0.000179683)
(-0.00945873 0.00943745 -0.000161767)
(-0.0115755 0.0085823 -0.000147557)
(-0.0134937 0.00753865 -0.000136689)
(-0.0151756 0.00630758 -0.000129697)
(-0.0165822 0.00488554 -0.000127574)
(-0.0176701 0.00326765 -0.000131452)
(-0.0183893 0.00145067 -0.000142491)
(-0.0186821 -0.000562192 -0.000161569)
(-0.0184794 -0.00275661 -0.000188701)
(-0.017706 -0.00509354 -0.000223169)
(-0.0162889 -0.00750003 -0.000262356)
(-0.0141719 -0.00985227 -0.000299859)
(-0.0113433 -0.0119416 -0.00032413)
(-0.00786222 -0.0133513 -0.00031774)
(-0.0039838 -0.0129886 -0.000248704)
(-0.000993713 -0.00785207 -6.97778e-05)
(-0.000604493 0.00715079 -0.000287998)
(-0.00253574 0.0120916 -0.000281312)
(-0.00520621 0.0129646 -0.000246969)
(-0.00782444 0.0125921 -0.00022218)
(-0.0103089 0.0118014 -0.000202097)
(-0.012631 0.0107607 -0.000185936)
(-0.0147541 0.00949694 -0.00017361)
(-0.0166443 0.00801084 -0.000165947)
(-0.0182655 0.00629539 -0.000164267)
(-0.019575 0.00433919 -0.000170099)
(-0.0205195 0.00212957 -0.000185013)
(-0.0210332 -0.000341855 -0.000210289)
(-0.0210278 -0.00307564 -0.000248616)
(-0.0203951 -0.00604105 -0.000297549)
(-0.019017 -0.00916395 -0.000355307)
(-0.01678 -0.0122959 -0.000414174)
(-0.0136155 -0.0151575 -0.000458383)
(-0.00954989 -0.0171669 -0.000462617)
(-0.00488663 -0.016841 -0.000381887)
(-0.00122623 -0.0102384 -0.00014612)
(-0.000663199 0.00873875 -0.000339907)
(-0.00278675 0.0147505 -0.000340444)
(-0.00572484 0.0158017 -0.000303764)
(-0.0086002 0.0153499 -0.000275927)
(-0.0113298 0.0144058 -0.000252489)
(-0.0138907 0.0131751 -0.000233207)
(-0.0162517 0.0116914 -0.000218442)
(-0.0183856 0.00995558 -0.000209463)
(-0.0202628 0.00795606 -0.000208068)
(-0.0218452 0.00567222 -0.000216382)
(-0.0230801 0.00307653 -0.000236706)
(-0.0238975 0.000139211 -0.000271325)
(-0.0241898 -0.00316077 -0.000326611)
(-0.0238085 -0.00682547 -0.000397532)
(-0.0225743 -0.0107964 -0.000485645)
(-0.0202841 -0.014914 -0.000581836)
(-0.016765 -0.0188196 -0.000664187)
(-0.0119615 -0.0217067 -0.000694021)
(-0.00621608 -0.0215521 -0.000602875)
(-0.00157605 -0.0131963 -0.000279494)
(-0.000735447 0.0105031 -0.00040691)
(-0.00309149 0.0177033 -0.000417321)
(-0.00634784 0.0189434 -0.000377304)
(-0.00952199 0.0183988 -0.000344608)
(-0.0125303 0.0172876 -0.000315605)
(-0.0153583 0.0158586 -0.000290967)
(-0.0179838 0.014155 -0.000271772)
(-0.0203905 0.0121784 -0.000259932)
(-0.0225606 0.00991271 -0.000257911)
(-0.0244672 0.00732589 -0.000268699)
(-0.0260663 0.00437047 -0.000295824)
(-0.0272856 0.000986101 -0.000343818)
(-0.0280098 -0.0028862 -0.000424509)
(-0.0280532 -0.00730453 -0.000526823)
(-0.0271523 -0.0122641 -0.000663652)
(-0.0249739 -0.0176294 -0.000824377)
(-0.0211633 -0.0229725 -0.000979043)
(-0.0154822 -0.0271899 -0.00106689)
(-0.00825638 -0.0274841 -0.000976132)
(-0.00213392 -0.0170214 -0.000518304)
(-0.000825309 0.0124844 -0.000494648)
(-0.00346244 0.02101 -0.000518639)
(-0.00709419 0.0224434 -0.000473496)
(-0.010609 0.0217809 -0.000432755)
(-0.0139246 0.0204789 -0.000394347)
(-0.0170397 0.0188374 -0.000360483)
(-0.0199458 0.0169119 -0.000333349)
(-0.0226429 0.0147071 -0.000315759)
(-0.0251318 0.0122034 -0.000311064)
(-0.0274056 0.00935733 -0.000323398)
(-0.0294402 0.00609862 -0.000357981)
(-0.0311773 0.00232927 -0.000422289)
(-0.0325081 -0.00207124 -0.000525665)
(-0.0332233 -0.0072545 -0.000684384)
(-0.0329738 -0.0133211 -0.000898695)
(-0.0312478 -0.0202392 -0.00116883)
(-0.027394 -0.027571 -0.00145854)
(-0.0208017 -0.0338559 -0.0016731)
(-0.0116064 -0.0351793 -0.00162201)
(-0.00311133 -0.0222582 -0.000969101)
(-0.000940494 0.0147363 -0.000611639)
(-0.00392184 0.0247443 -0.000654192)
(-0.00799627 0.0263612 -0.000600637)
(-0.0118934 0.0255366 -0.000546297)
(-0.015537 0.0240047 -0.000491975)
(-0.0189464 0.0221258 -0.000442426)
(-0.0221327 0.0199716 -0.000401509)
(-0.0251192 0.0175529 -0.000373209)
(-0.0279327 0.0148498 -0.000361892)
(-0.0305972 0.0118101 -0.000373019)
(-0.0331234 0.00834223 -0.000414239)
(-0.0354901 0.00430471 -0.00049691)
(-0.037637 -0.000506531 -0.000636021)
(-0.0393647 -0.00635348 -0.00086573)
(-0.0402619 -0.0135485 -0.00119138)
(-0.0396283 -0.0223036 -0.00163774)
(-0.0363729 -0.0323367 -0.00216997)
(-0.0291961 -0.0418648 -0.00264897)
(-0.0176062 -0.0454572 -0.00275652)
(-0.00503128 -0.0300374 -0.00188493)
(-0.00109546 0.0173356 -0.000771446)
(-0.00450903 0.0290021 -0.000839003)
(-0.00910896 0.030765 -0.000770873)
(-0.0134282 0.0297032 -0.00069323)
(-0.0174077 0.0278784 -0.000612044)
(-0.0210993 0.0257207 -0.000536253)
(-0.0245426 0.0233216 -0.000472164)
(-0.0277906 0.0207013 -0.000425169)
(-0.0309034 0.0178442 -0.000400594)
(-0.0339462 0.014697 -0.000405108)
(-0.0369849 0.0111559 -0.000448748)
(-0.0400754 0.00704311 -0.000546876)
(-0.0432323 0.00207332 -0.000721881)
(-0.0463687 -0.00415691 -0.00102534)
(-0.0491433 -0.0122748 -0.00150584)
(-0.0507175 -0.0229557 -0.00220635)
(-0.0494663 -0.0364339 -0.00312861)
(-0.0429635 -0.0509516 -0.00410454)
(-0.0291234 -0.0594492 -0.00469117)
(-0.00909991 -0.04288 -0.00386454)
(-0.00131746 0.0203992 -0.000996647)
(-0.00529383 0.0339134 -0.00109691)
(-0.0105246 0.0357331 -0.00100242)
(-0.0152992 0.0343098 -0.000884414)
(-0.0196005 0.0320946 -0.000757946)
(-0.0235348 0.029594 -0.000638801)
(-0.0271811 0.0269191 -0.000536762)
(-0.0306274 0.0241009 -0.000458671)
(-0.033971 0.0211342 -0.00041029)
(-0.0373247 0.0179773 -0.000398588)
(-0.0408254 0.0145359 -0.000434789)
(-0.0446364 0.0106288 -0.000538637)
(-0.0489308 0.0059285 -0.000743471)
(-0.0538778 -0.000140985 -0.00109822)
(-0.0594399 -0.00852564 -0.00170815)
(-0.0649278 -0.0206575 -0.00265862)
(-0.0682695 -0.0379284 -0.00400579)
(-0.0653851 -0.0596733 -0.00564477)
(-0.0506734 -0.078165 -0.00732252)
(-0.0170795 -0.0660139 -0.0078932)
(-0.00165911 0.0241221 -0.00132716)
(-0.00640177 0.0396781 -0.00146902)
(-0.012397 0.0413677 -0.00132507)
(-0.0176398 0.0393735 -0.00113517)
(-0.0222112 0.0366202 -0.000931552)
(-0.0263099 0.0336837 -0.000741057)
(-0.0300668 0.0306822 -0.000577962)
(-0.0336065 0.0276531 -0.000450076)
(-0.0370592 0.0246066 -0.000362187)
(-0.0405802 0.0215281 -0.000319436)
(-0.044377 0.0183671 -0.000330618)
(-0.0487439 0.0149982 -0.000412347)
(-0.0541018 0.0111387 -0.0005923)
(-0.061019 0.00616912 -0.00091081)
(-0.0701401 -0.00115038 -0.00141292)
(-0.0814931 -0.0132235 -0.00219642)
(-0.092774 -0.0337548 -0.00324358)
(-0.0973479 -0.0655329 -0.00467646)
(-0.0832987 -0.102886 -0.00757811)
(-0.0271021 -0.10859 -0.0132454)
(-0.00221722 0.0288064 -0.00183071)
(-0.0080519 0.0464554 -0.0020075)
(-0.0149939 0.0476443 -0.00176827)
(-0.0206647 0.0448174 -0.00145792)
(-0.0253785 0.0413607 -0.00112666)
(-0.0295038 0.0378808 -0.00081986)
(-0.0332323 0.0344847 -0.000559398)
(-0.0367142 0.0312078 -0.000353755)
(-0.0400953 0.0280782 -0.000204099)
(-0.0435497 0.0251207 -0.000109856)
(-0.0473255 0.0223676 -6.93372e-05)
(-0.0518182 0.0198326 -7.8552e-05)
(-0.0576891 0.0174421 -0.000119272)
(-0.0660291 0.0147936 -0.000118516)
(-0.0784283 0.0105305 0.000136435)
(-0.096087 0.000822345 0.00109324)
(-0.11627 -0.0224791 0.00318216)
(-0.128128 -0.0693077 0.00564325)
(-0.113249 -0.139109 0.00310588)
(-0.0262783 -0.181467 -0.0140889)
(-0.00327436 0.0349063 -0.00265508)
(-0.0107573 0.055346 -0.00293395)
(-0.0186811 0.0553619 -0.00250982)
(-0.0245681 0.0508704 -0.00192334)
(-0.0292179 0.0462838 -0.0013376)
(-0.0331771 0.0420605 -0.0008234)
(-0.0366812 0.03816 -0.000401799)
(-0.0398834 0.0345583 -7.53344e-05)
(-0.0429207 0.031279 0.00016571)
(-0.0459435 0.0283831 0.000334607)
(-0.0491667 0.0260103 0.00045695)
(-0.0529641 0.0243791 0.000587077)
(-0.0580458 0.0238049 0.000872989)
(-0.0657539 0.0243507 0.00172276)
(-0.0784706 0.0247027 0.00411428)
(-0.0984625 0.0187934 0.00963901)
(-0.121636 -0.00798652 0.0192808)
(-0.133732 -0.0766727 0.0296835)
(-0.119831 -0.190231 0.0261716)
(-0.00528783 -0.279928 -0.0110175)
(-0.00497449 0.0457782 -0.00421669)
(-0.0152607 0.063456 -0.0040248)
(-0.0245931 0.0602283 -0.00314625)
(-0.0301754 0.0551929 -0.00228037)
(-0.0340557 0.0502783 -0.00138192)
(-0.037306 0.0456546 -0.000574792)
(-0.040053 0.0413182 8.50825e-05)
(-0.0423768 0.037326 0.000581608)
(-0.0443857 0.0337659 0.000936203)
(-0.0461774 0.0307279 0.0011796)
(-0.0478662 0.0284539 0.00137298)
(-0.0495998 0.0273175 0.00164283)
(-0.0517591 0.0280886 0.00234418)
(-0.0551723 0.0313306 0.00438696)
(-0.0620435 0.0358969 0.00980062)
(-0.0750908 0.033457 0.0213147)
(-0.0917813 0.00420688 0.039284)
(-0.0983348 -0.0867039 0.0532862)
(-0.0999327 -0.242402 0.0401567)
(0.025516 -0.370745 -0.021445)
(-0.00177245 0.0456069 -0.00579565)
(-0.0172683 0.0847128 -0.00697866)
(-0.0314244 0.0786786 -0.00571849)
(-0.0365836 0.0665967 -0.00357239)
(-0.0388518 0.0576908 -0.00161445)
(-0.0393062 0.0505643 -5.73072e-05)
(-0.0385092 0.0444592 0.00109927)
(-0.0369531 0.0391997 0.00188045)
(-0.0350451 0.0347768 0.00237537)
(-0.032895 0.0310782 0.00264627)
(-0.0306457 0.0283254 0.00279573)
(-0.027969 0.026729 0.0029612)
(-0.0249638 0.0273088 0.00361814)
(-0.0209407 0.0306337 0.00586691)
(-0.0174358 0.0363499 0.0122183)
(-0.0147911 0.0354235 0.0253808)
(-0.0193616 0.00840643 0.0458067)
(-0.0132611 -0.0921337 0.0565245)
(-0.0437795 -0.270818 0.031027)
(0.0690192 -0.402634 -0.04596)
(-0.0921702 0.104339 -0.0144529)
(-0.0714603 0.079699 -0.00926923)
(-0.0586145 0.0583266 -0.00631468)
(-0.0372715 0.0496183 -0.00323459)
(-0.0173163 0.0428924 -0.00078267)
(0.00142074 0.0369302 0.0012548)
(0.0184377 0.0319591 0.00277563)
(0.0340168 0.0278238 0.00376138)
(0.047529 0.0246066 0.00437626)
(0.0602179 0.0217567 0.0046103)
(0.0706853 0.019767 0.00461051)
(0.0816881 0.0180846 0.00435881)
(0.090064 0.0182158 0.00418082)
(0.101502 0.0195133 0.00453007)
(0.107946 0.0236073 0.00747219)
(0.127321 0.0231048 0.0137206)
(0.118548 0.0030894 0.0268967)
(0.145913 -0.0641995 0.0374651)
(0.104068 -0.211945 0.00766822)
(0.167201 -0.324568 -0.0618496)
(0.134682 0.113521 -0.0167254)
(0.169825 0.0894839 -0.0159786)
(0.233331 0.0668057 -0.014442)
(0.28874 0.0523195 -0.0125342)
(0.332161 0.0425235 -0.0103731)
(0.368251 0.0350295 -0.00823425)
(0.397713 0.0292343 -0.00605177)
(0.424926 0.0243884 -0.00417632)
(0.445552 0.0206151 -0.0023824)
(0.467716 0.0173487 -0.00095558)
(0.480808 0.0147574 0.000171543)
(0.501229 0.0125956 0.00104919)
(0.507188 0.0110588 0.0015458)
(0.530114 0.00986707 0.00189254)
(0.527171 0.0098723 0.00298812)
(0.553882 0.00827875 0.00283204)
(0.529713 0.00532611 0.00679497)
(0.535744 -0.0130039 0.000750084)
(0.438024 -0.0424111 -0.00186675)
(0.355683 -0.0912682 -0.0630581)
(-0.0001808 0.000180741 -5.34634e-05)
(-0.000911054 0.000417031 -4.16193e-05)
(-0.00202472 0.00046835 -2.67831e-05)
(-0.00312533 0.000459208 -1.81349e-05)
(-0.00416631 0.000433861 -1.45581e-05)
(-0.00512988 0.000399493 -1.50931e-05)
(-0.00599378 0.000356004 -1.90004e-05)