/*--------------------------------*- C++ -*----------------------------------*\
  =========                 |
  \\      /  F ield         | OpenFOAM: The Open Source CFD Toolbox
   \\    /   O peration     | Website:  https://openfoam.org
    \\  /    A nd           | Version:  10
     \\/     M anipulation  |
\*---------------------------------------------------------------------------*/
FoamFile
{
    format      ascii;
    class       surfaceScalarField;
    location    "1.05";
    object      phi;
}
// * * * * * * * * * * * * * * * * * * * * * * * * * * * * * * * * * * * * * //

dimensions      [0 3 -1 0 0 0 0];

internalField   nonuniform List<scalar> 
22800
(
-5.33132e-06
5.34618e-06
-1.48589e-08
-1.17214e-05
6.34926e-06
4.08618e-08
-1.78987e-05
6.12478e-06
5.25246e-08
-2.36298e-05
5.67567e-06
5.53922e-08
-2.87661e-05
5.08369e-06
5.25532e-08
-3.3181e-05
4.36882e-06
4.61463e-08
-3.67682e-05
3.54983e-06
3.73438e-08
-3.94412e-05
2.64629e-06
2.67745e-08
-4.11342e-05
1.67812e-06
1.48556e-08
-4.18016e-05
6.65495e-07
1.86937e-09
-4.14187e-05
-3.71167e-07
-1.16929e-08
-3.99827e-05
-1.41036e-06
-2.56713e-08
-3.75138e-05
-2.42932e-06
-3.95651e-08
-3.40574e-05
-3.4036e-06
-5.28627e-08
-2.96856e-05
-4.30692e-06
-6.48767e-08
-2.44992e-05
-5.11171e-06
-7.46264e-08
-1.86286e-05
-5.79006e-06
-8.0515e-08
-1.22364e-05
-6.31229e-06
-7.99056e-08
-5.5824e-06
-6.58501e-06
-6.90426e-08
-5.57266e-06
-9.73833e-09
-6.58787e-06
1.20097e-05
-7.56063e-08
-1.43656e-05
1.41441e-05
-1.71355e-08
-2.18779e-05
1.36388e-05
-1.6688e-09
-2.88426e-05
1.26342e-05
6.10541e-09
-3.50781e-05
1.13102e-05
9.05849e-09
-4.04318e-05
9.71325e-06
9.20834e-09
-4.4776e-05
7.88636e-06
7.67187e-09
-4.80083e-05
5.87371e-06
4.92521e-09
-5.00511e-05
3.71974e-06
1.15358e-09
-5.08512e-05
1.46889e-06
-3.2661e-09
-5.03802e-05
-8.33569e-07
-8.57442e-09
-4.86348e-05
-3.14154e-06
-1.42911e-08
-4.56393e-05
-5.40454e-06
-2.02766e-08
-4.14474e-05
-7.5693e-06
-2.61613e-08
-3.6145e-05
-9.5779e-06
-3.13925e-08
-2.98526e-05
-1.1369e-05
-3.50874e-08
-2.27269e-05
-1.28801e-05
-3.56656e-08
-1.49653e-05
-1.40435e-05
-3.04238e-08
-6.88076e-06
-1.46537e-05
-1.58292e-08
-1.25002e-05
4.67512e-08
-6.96661e-06
1.90745e-05
-9.81959e-08
-1.51916e-05
2.24066e-05
-3.74547e-08
-2.31269e-05
2.15944e-05
-2.0388e-08
-3.0476e-05
1.9994e-05
-1.07379e-08
-3.70493e-05
1.78893e-05
-5.82386e-09
-4.26885e-05
1.53559e-05
-3.49406e-09
-4.7263e-05
1.24636e-05
-2.69624e-09
-5.06689e-05
9.28255e-06
-2.94117e-09
-5.28277e-05
5.88265e-06
-4.11853e-09
-5.36855e-05
2.33279e-06
-6.0385e-09
-5.32104e-05
-1.30003e-06
-8.65556e-09
-5.13986e-05
-4.94151e-06
-1.18611e-08
-4.82703e-05
-8.5173e-06
-1.54631e-08
-4.38762e-05
-1.19443e-05
-1.91465e-08
-3.83e-05
-1.51317e-05
-2.23961e-08
-3.1663e-05
-1.79817e-05
-2.43367e-08
-2.41268e-05
-2.03929e-05
-2.33377e-08
-1.58991e-05
-2.22547e-05
-1.65567e-08
-7.31233e-06
-2.32402e-05
-2.66519e-10
-1.98778e-05
6.53067e-08
-7.4549e-06
2.66454e-05
-1.16034e-07
-1.62564e-05
3.12597e-05
-5.16466e-08
-2.47373e-05
3.01084e-05
-3.30133e-08
-3.25798e-05
2.78586e-05
-2.1991e-08
-3.95836e-05
2.49089e-05
-1.58501e-08
-4.55847e-05
2.13693e-05
-1.22515e-08
-5.04508e-05
1.73397e-05
-1.00769e-08
-5.40779e-05
1.29186e-05
-8.90209e-09
-5.63881e-05
8.20145e-06
-8.57047e-09
-5.7327e-05
3.28068e-06
-9.02771e-09
-5.68608e-05
-1.75595e-06
-1.02419e-08
-5.49801e-05
-6.81014e-06
-1.2125e-08
-5.1699e-05
-1.17838e-05
-1.45424e-08
-4.70609e-05
-1.65653e-05
-1.71975e-08
-4.11434e-05
-2.10296e-05
-1.95745e-08
-3.40655e-05
-2.50389e-05
-2.07539e-08
-2.59931e-05
-2.84464e-05
-1.89759e-08
-1.71472e-05
-3.10894e-05
-1.11334e-08
-7.89078e-06
-3.25032e-05
6.5742e-09
-2.78457e-05
7.71337e-08
-8.13923e-06
3.49193e-05
-1.34672e-07
-1.77437e-05
4.0929e-05
-6.48395e-08
-2.69813e-05
3.93903e-05
-4.4331e-08
-3.55035e-05
3.64126e-05
-3.18772e-08
-4.30955e-05
3.25256e-05
-2.46029e-08
-4.95876e-05
2.78814e-05
-1.99686e-08
-5.48467e-05
2.26156e-05
-1.67807e-08
-5.87715e-05
1.68579e-05
-1.45997e-08
-6.12867e-05
1.07299e-05
-1.32823e-08
-6.23386e-05
4.3454e-06
-1.27993e-08
-6.18909e-05
-2.19049e-06
-1.31509e-08
-5.99266e-05
-8.76024e-06
-1.42699e-08
-5.64496e-05
-1.52446e-05
-1.60804e-08
-5.14907e-05
-2.15059e-05
-1.82978e-08
-4.51158e-05
-2.73841e-05
-2.03883e-08
-3.7437e-05
-3.26963e-05
-2.13497e-08
-2.8623e-05
-3.72411e-05
-1.9215e-08
-1.89127e-05
-4.07892e-05
-1.04691e-08
-8.71249e-06
-4.27126e-05
9.09034e-09
-3.66451e-05
8.68646e-08
-9.04922e-06
4.41255e-05
-1.56994e-07
-1.97162e-05
5.16757e-05
-7.97755e-08
-2.99473e-05
4.96783e-05
-5.69011e-08
-3.93529e-05
4.58609e-05
-4.27156e-08
-4.77009e-05
4.09078e-05
-3.41576e-08
-5.48169e-05
3.50258e-05
-2.84254e-08
-6.05711e-05
2.8394e-05
-2.42208e-08
-6.48695e-05
2.11774e-05
-2.10793e-08
-6.76437e-05
1.3523e-05
-1.88669e-08
-6.88435e-05
5.56282e-06
-1.75806e-08
-6.84303e-05
-2.58644e-06
-1.72605e-08
-6.63764e-05
-1.07963e-05
-1.78501e-08
-6.26704e-05
-1.89313e-05
-1.93505e-08
-5.7322e-05
-2.68328e-05
-2.14913e-08
-5.03762e-05
-3.43062e-05
-2.37119e-08
-4.19295e-05
-4.11182e-05
-2.48931e-08
-3.21484e-05
-4.69994e-05
-2.27728e-08
-2.12914e-05
-5.1633e-05
-1.32473e-08
-9.82426e-06
-5.41881e-05
8.36779e-09
-4.65655e-05
9.61668e-08
-1.02233e-05
5.45344e-05
-1.85551e-07
-2.22527e-05
6.38039e-05
-9.8767e-08
-3.37439e-05
6.12424e-05
-7.2829e-08
-4.42537e-05
5.6427e-05
-5.63433e-08
-5.35314e-05
5.02316e-05
-4.60653e-08
-6.14022e-05
4.29354e-05
-3.88743e-08
-6.77476e-05
3.47728e-05
-3.33516e-08
-7.24894e-05
2.59481e-05
-2.90075e-08
-7.55738e-05
1.66331e-05
-2.57206e-08
-7.6959e-05
6.9716e-06
-2.35204e-08
-7.66058e-05
-2.91716e-06
-2.24964e-08
-7.44719e-05
-1.29075e-05
-2.25971e-08
-7.0523e-05
-2.28563e-05
-2.39308e-08
-6.47357e-05
-3.25938e-05
-2.62646e-08
-5.71187e-05
-4.18942e-05
-2.90144e-08
-4.77372e-05
-5.04687e-05
-3.09158e-08
-3.67437e-05
-5.79636e-05
-2.93087e-08
-2.44143e-05
-6.39431e-05
-1.92672e-08
-1.12921e-05
-6.73151e-05
4.77036e-09
-5.79632e-05
1.05649e-07
-1.17178e-05
6.64753e-05
-2.23174e-07
-2.54664e-05
7.76768e-05
-1.2423e-07
-3.85231e-05
7.43933e-05
-9.4225e-08
-5.03768e-05
6.83552e-05
-7.45008e-08
-6.07599e-05
6.06764e-05
-6.17017e-08
-6.95072e-05
5.17351e-05
-5.23438e-08
-7.65257e-05
4.18361e-05
-4.48877e-08
-8.17674e-05
3.12287e-05
-3.88247e-08
-8.52055e-05
2.01052e-05
-3.40509e-08
-8.6815e-05
8.61177e-06
-3.0634e-08
-8.65598e-05
-3.14368e-06
-2.87223e-08
-8.43787e-05
-1.50604e-05
-2.82619e-08
-8.02039e-05
-2.70016e-05
-2.94992e-08
-7.39621e-05
-3.88033e-05
-3.23029e-08
-6.56016e-05
-5.02187e-05
-3.60918e-08
-5.51292e-05
-6.09016e-05
-3.94449e-08
-4.26594e-05
-7.03942e-05
-3.91869e-08
-2.84751e-05
-7.80981e-05
-2.92468e-08
-1.32162e-05
-8.25721e-05
-1.83185e-09
-7.12945e-05
1.15023e-07
-1.36167e-05
8.03658e-05
-2.73824e-07
-2.95219e-05
9.37414e-05
-1.59481e-07
-4.44994e-05
8.94946e-05
-1.23853e-07
-5.79552e-05
8.19104e-05
-9.93206e-08
-6.96126e-05
7.24164e-05
-8.26096e-08
-7.93361e-05
6.15284e-05
-6.98561e-08
-8.70815e-05
4.9641e-05
-5.94187e-08
-9.28544e-05
3.70524e-05
-5.0776e-08
-9.66738e-05
2.39685e-05
-4.38374e-08
-9.85448e-05
1.05214e-05
-3.87045e-08
-9.84411e-05
-3.21176e-06
-3.55809e-08
-9.62794e-05
-1.71877e-05
-3.43911e-08
-9.19444e-05
-3.13011e-05
-3.55662e-08
-8.52888e-05
-4.54197e-05
-3.91639e-08
-7.6165e-05
-5.92978e-05
-4.47076e-08
-6.44775e-05
-7.25384e-05
-5.06561e-08
-5.02574e-05
-8.45611e-05
-5.32004e-08
-3.37647e-05
-9.45462e-05
-4.46368e-08
-1.57525e-05
-0.000100569
-1.52055e-08
-8.717e-05
1.23014e-07
-1.60496e-05
9.67591e-05
-3.43692e-07
-3.46629e-05
0.000112564
-2.09689e-07
-5.19797e-05
0.000106977
-1.65776e-07
-6.73087e-05
9.7373e-05
-1.33703e-07
-8.03856e-05
8.5604e-05
-1.10658e-07
-9.11401e-05
7.23753e-05
-9.24324e-08
-9.9616e-05
5.81942e-05
-7.73136e-08
-0.000105907
4.34083e-05
-6.47546e-08
-0.000110106
2.82225e-05
-5.46438e-08
-0.000112268
1.27303e-05
-4.70759e-08
-0.000112388
-3.04984e-06
-4.22783e-08
-0.000110359
-1.91768e-05
-4.01004e-08
-0.000106002
-3.56161e-05
-4.12283e-08
-9.90649e-05
-5.23113e-05
-4.5983e-08
-8.92527e-05
-6.90558e-05
-5.4247e-08
-7.62977e-05
-8.54288e-05
-6.45617e-08
-6.00672e-05
-0.000100719
-7.24478e-08
-4.07291e-05
-0.000113816
-6.79855e-08
-1.9154e-05
-0.000122106
-3.77138e-08
-0.00010645
1.263e-07
-1.92241e-05
0.000116426
-4.43074e-07
-4.12601e-05
0.000134884
-2.83455e-07
-6.14114e-05
0.000127355
-2.26224e-07
-7.88811e-05
0.000115024
-1.81669e-07
-9.34666e-05
0.000100338
-1.48021e-07
-0.000105226
8.42551e-05
-1.20839e-07
-0.00011435
6.74174e-05
-9.83376e-08
-0.000121074
5.02121e-05
-7.98806e-08
-0.000125603
3.28165e-05
-6.52176e-08
-0.000128067
1.52487e-05
-5.42852e-08
-0.000128501
-2.56906e-06
-4.72317e-08
-0.000126778
-2.08561e-05
-4.37186e-08
-0.000122645
-3.97042e-05
-4.4771e-08
-0.000115701
-5.92037e-05
-5.10873e-08
-0.000105437
-7.92574e-05
-6.3213e-08
-9.13068e-05
-9.94782e-05
-8.04349e-08
-7.28761e-05
-0.000119052
-9.7946e-08
-5.00717e-05
-0.000136518
-1.03091e-07
-2.38504e-05
-0.000148252
-7.52601e-08
-0.000130418
1.17376e-07
-2.34886e-05
0.000140505
-5.90007e-07
-4.98932e-05
0.000161684
-3.95646e-07
-7.34582e-05
0.000151235
-3.14788e-07
-9.32941e-05
0.000135109
-2.48573e-07
-0.000109365
0.000116605
-1.96721e-07
-0.000121962
9.70071e-05
-1.54767e-07
-0.000131517
7.70931e-05
-1.20747e-07
-0.000138473
5.72621e-05
-9.36909e-08
-0.000143203
3.76193e-05
-7.28108e-08
-0.000145948
1.80514e-05
-5.74665e-08
-0.000146803
-1.66692e-06
-4.7531e-08
-0.000145634
-2.19829e-05
-4.21288e-08
-0.000142109
-4.3186e-05
-4.28471e-08
-0.00013565
-6.56122e-05
-5.09568e-08
-0.00012544
-8.93997e-05
-6.82404e-08
-0.000110501
-0.000114321
-9.56144e-08
-8.98721e-05
-0.000139551
-1.29479e-07
-6.2935e-05
-0.0001633
-1.55141e-07
-3.0617e-05
-0.000180434
-1.36534e-07
-0.000161114
7.90715e-08
-2.94604e-05
0.000170783
-8.17791e-07
-6.14953e-05
0.000194292
-5.72545e-07
-8.91242e-05
0.000179309
-4.45675e-07
-0.000111426
0.000157751
-3.40534e-07
-0.000128747
0.000134183
-2.56891e-07
-0.000141782
0.000110233
-1.90803e-07
-0.000151334
8.67841e-05
-1.39517e-07
-0.000158154
6.4183e-05
-1.00753e-07
-0.000162842
4.23798e-05
-7.20701e-08
-0.000165792
2.10526e-05
-5.13665e-08
-0.000167182
-2.39219e-07
-3.76456e-08
-0.000166898
-2.22374e-05
-2.93578e-08
-0.000164544
-4.5511e-05
-2.88055e-08
-0.00015935
-7.07684e-05
-3.80931e-08
-0.000150124
-9.85643e-05
-6.11158e-08
-0.000135251
-0.000129092
-1.02235e-07
-0.000112871
-0.000161769
-1.62159e-07
-8.12346e-05
-0.000194706
-2.29788e-07
-4.09769e-05
-0.000220458
-2.33784e-07
-0.000202065
-2.63327e-08
-3.8317e-05
0.000210287
-1.18656e-06
-7.76211e-05
0.000234454
-8.58302e-07
-0.00010995
0.000212275
-6.3706e-07
-0.000134522
0.000182784
-4.60958e-07
-0.000152471
0.000152453
-3.2174e-07
-0.000165159
0.000123139
-2.17872e-07
-0.000173964
9.57326e-05
-1.42976e-07
-0.000180051
7.03603e-05
-9.02321e-08
-0.000184298
4.66803e-05
-5.31802e-08
-0.00018729
2.40704e-05
-2.58958e-08
-0.000189308
1.781e-06
-2.57207e-09
-0.000190318
-2.12323e-05
5.23164e-09
-0.0001899
-4.59378e-05
8.74405e-09
-0.000187131
-7.35418e-05
4.00066e-09
-0.000180424
-0.00010525
-2.15044e-08
-0.000167366
-0.000142072
-7.84133e-08
-0.000144659
-0.000184299
-1.76359e-07
-0.000108272
-0.000230764
-3.30005e-07
-5.82319e-05
-0.00027011
-3.8766e-07
-0.000260022
-2.74464e-07
-5.23043e-05
0.000264468
-1.8772e-06
-0.000100836
0.000284333
-1.34705e-06
-0.000138293
0.000250641
-9.08276e-07
-0.000164313
0.000209403
-5.98673e-07
-0.000181565
0.00017007
-3.64303e-07
-0.000192552
0.000134333
-2.07477e-07
-0.000199447
0.000102733
-1.05667e-07
-0.000203908
7.4861e-05
-4.04501e-08
-0.000207118
4.9888e-05
3.16071e-09
-0.000209861
2.67843e-05
2.83507e-08
-0.000212544
4.41595e-06
4.7906e-08
-0.00021529
-1.85523e-05
6.68006e-08
-0.000217756
-4.35537e-05
8.16068e-08
-0.000219
-7.23862e-05
8.89561e-08
-0.000217162
-0.000107166
7.75789e-08
-0.000209004
-0.000150258
2.79767e-08
-0.000189376
-0.000203818
-1.07814e-07
-0.000149711
-0.000269998
-4.31975e-07
-8.8329e-05
-0.000330904
-5.87871e-07
-0.000347488
-8.63446e-07
-7.81927e-05
0.000345462
-2.8008e-06
-0.000136469
0.000344629
-2.01958e-06
-0.000178012
0.000293373
-1.18888e-06
-0.000203095
0.000235164
-6.78626e-07
-0.000217168
0.000184448
-3.04777e-07
-0.000224275
0.000141531
-9.05262e-08
-0.000227548
0.00010598
2.56947e-08
-0.000229144
7.63723e-05
8.43222e-08
-0.000230506
5.11326e-05
1.17511e-07
-0.000232562
2.86998e-05
1.4044e-07
-0.000235849
7.54042e-06
1.62537e-07
-0.000240689
-1.39083e-05
1.95741e-07
-0.000247025
-3.74554e-05
2.38276e-07
-0.000254215
-6.54867e-05
2.89994e-07
-0.000260506
-0.000101212
3.36787e-07
-0.000262112
-0.00014899
3.38066e-07
-0.000252389
-0.000213777
2.35393e-07
-0.000214203
-0.000307864
-3.19434e-07
-0.00014491
-0.000399665
-5.32344e-07
-0.000490269
-2.12873e-06
-0.000110123
0.000462067
-6.4827e-06
-0.000184973
0.000423103
-3.62476e-06
-0.000232107
0.000342057
-1.55043e-06
-0.00025306
0.000256649
-5.32392e-07
-0.000259849
0.000191184
5.22401e-08
-0.000259754
0.000141145
2.90708e-07
-0.000257033
0.000102889
3.70774e-07
-0.000254186
7.31439e-05
3.80928e-07
-0.000252675
4.92505e-05
3.7181e-07
-0.00025341
2.90644e-05
3.69919e-07
-0.000257023
1.0761e-05
3.92707e-07
-0.000264009
-7.37138e-06
4.49497e-07
-0.000274887
-2.713e-05
5.51821e-07
-0.000289742
-5.13518e-05
7.20779e-07
-0.000307922
-8.40006e-05
9.6894e-07
-0.000325886
-0.000132287
1.2602e-06
-0.00033908
-0.000202142
1.55995e-06
-0.000313795
-0.000333714
5.65264e-07
-0.000249445
-0.000464656
6.4044e-07
-0.000734968
-4.74598e-06
-0.000238505
0.000708074
-7.50184e-06
-0.00029118
0.000480727
-4.94934e-06
-0.000312647
0.000364178
-6.53247e-07
-0.000312638
0.000256024
6.16178e-07
-0.000301271
0.000178563
1.25495e-06
-0.00028737
0.000125942
1.30192e-06
-0.000274699
8.90538e-05
1.16333e-06
-0.000264915
6.23667e-05
9.93444e-07
-0.000258853
4.23277e-05
8.60512e-07
-0.000257033
2.64562e-05
7.8884e-07
-0.000259973
1.2911e-05
7.89439e-07
-0.000268102
-1.41359e-07
8.99708e-07
-0.00028338
-1.2958e-05
1.10512e-06
-0.000307163
-2.90441e-05
1.47563e-06
-0.000341727
-5.14996e-05
2.06336e-06
-0.000385368
-9.13803e-05
2.73375e-06
-0.000436999
-0.000154433
3.922e-06
-0.000448817
-0.000324272
2.37606e-06
-0.000387328
-0.000529832
3.68718e-06
-0.00111534
-6.95499e-06
-0.000354766
0.00107982
-1.69798e-05
-0.000332417
0.000458777
-3.98721e-07
-0.000282195
0.00030959
4.36578e-06
-0.000222855
0.000190797
5.88631e-06
-0.000166464
0.000116794
5.37847e-06
-0.000121668
7.69946e-05
4.15205e-06
-8.83966e-05
5.26727e-05
3.10947e-06
-6.47651e-05
3.6377e-05
2.3582e-06
-4.92159e-05
2.49078e-05
1.87062e-06
-4.07357e-05
1.63693e-05
1.60676e-06
-3.88496e-05
9.47925e-06
1.54566e-06
-4.3817e-05
3.14752e-06
1.67851e-06
-5.56942e-05
-3.24096e-06
2.16017e-06
-7.54266e-05
-1.24059e-05
3.0943e-06
-0.000104996
-2.69672e-05
5.03703e-06
-0.00014394
-5.99132e-05
7.47643e-06
-0.000188551
-0.000124642
1.48208e-05
-0.000237572
-0.000288484
1.32333e-05
-0.000222377
-0.000569508
2.4481e-05
-0.001327
-1.07173e-05
0.00110509
-2.52677e-05
0.00158142
-1.75586e-05
0.001895
-3.98673e-06
0.00208287
2.92914e-06
0.0021954
4.26278e-06
0.00226838
4.01617e-06
0.00231767
3.37818e-06
0.00235137
2.68209e-06
0.00237413
2.14368e-06
0.00238868
1.81963e-06
0.00239645
1.70916e-06
0.00239778
1.81462e-06
0.00239226
2.28045e-06
0.00237685
3.00668e-06
0.0023448
5.08154e-06
0.00227881
6.07592e-06
0.00214175
1.24178e-05
0.00184478
8.48313e-06
0.00127945
-4.17314e-06
-4.75512e-05
-6.40234e-06
6.4086e-06
-2.1125e-08
-1.40642e-05
7.69002e-06
1.27315e-08
-2.14563e-05
7.42176e-06
2.27907e-08
-2.8302e-05
6.87387e-06
2.7248e-08
-3.4429e-05
6.15207e-06
2.74703e-08
-3.96889e-05
5.28138e-06
2.47534e-08
-4.39565e-05
4.28499e-06
1.99115e-08
-4.71301e-05
3.18694e-06
1.34608e-08
-4.91327e-05
2.01157e-06
5.81173e-09
-4.99113e-05
7.83502e-07
-3.02568e-09
-4.94383e-05
-4.72327e-07
-1.22967e-08
-4.77121e-05
-1.73005e-06
-2.19052e-08
-4.47579e-05
-2.96218e-06
-3.14987e-08
-4.06309e-05
-4.13933e-06
-4.05564e-08
-3.54174e-05
-5.23e-06
-4.84417e-08
-2.92365e-05
-6.20121e-06
-5.43023e-08
-2.22405e-05
-7.0196e-06
-5.69137e-08
-1.46167e-05
-7.64912e-06
-5.45552e-08
-6.67072e-06
-7.96972e-06
-4.53048e-08
-6.671e-06
-9.46115e-09
-7.99816e-06
1.43901e-05
-5.89437e-08
-1.74156e-05
1.71157e-05
-2.54259e-08
-2.64951e-05
1.65116e-05
-1.20245e-08
-3.48984e-05
1.52869e-05
-3.63202e-09
-4.24119e-05
1.3674e-05
6.52241e-10
-4.88544e-05
1.17311e-05
1.97453e-09
-5.40741e-05
9.51081e-06
1.59863e-09
-5.79496e-05
7.0674e-06
-4.99309e-12
-6.0389e-05
4.45524e-06
-3.11203e-09
-6.13302e-05
1.72835e-06
-6.92538e-09
-6.07415e-05
-1.05834e-06
-1.12406e-08
-5.86209e-05
-3.84898e-06
-1.60492e-08
-5.49993e-05
-6.58293e-06
-2.10513e-08
-4.99429e-05
-9.1961e-06
-2.57973e-08
-4.35555e-05
-1.16192e-05
-2.97e-08
-3.5981e-05
-1.37789e-05
-3.19245e-08
-2.74047e-05
-1.56003e-05
-3.12124e-08
-1.8057e-05
-1.70016e-05
-2.57645e-08
-8.30965e-06
-1.77191e-05
-1.3771e-08
-1.49582e-05
2.43059e-08
-8.4689e-06
2.28385e-05
-7.7743e-08
-1.84394e-05
2.70916e-05
-4.2924e-08
-2.80408e-05
2.61212e-05
-2.85791e-08
-3.69173e-05
2.41717e-05
-1.89725e-08
-4.48457e-05
2.16096e-05
-1.30332e-08
-5.16381e-05
1.85295e-05
-9.57297e-09
-5.7139e-05
1.50169e-05
-7.82953e-09
-6.12251e-05
1.11579e-05
-7.38298e-09
-6.38038e-05
7.03779e-06
-7.97042e-09
-6.48124e-05
2.74036e-06
-9.4284e-09
-6.4215e-05
-1.65279e-06
-1.15822e-08
-6.20092e-05
-6.05236e-06
-1.43127e-08
-5.82216e-05
-1.03687e-05
-1.7345e-08
-5.29146e-05
-1.45019e-05
-2.02822e-08
-4.61901e-05
-1.83435e-05
-2.25588e-08
-3.81931e-05
-2.17768e-05
-2.33358e-08
-2.91151e-05
-2.46804e-05
-2.13101e-08
-1.91981e-05
-2.69205e-05
-1.45837e-08
-8.83757e-06
-2.80785e-05
-1.31664e-09
-2.37686e-05
3.81441e-08
-9.0665e-06
3.18838e-05
-9.47993e-08
-1.97394e-05
3.77713e-05
-5.83741e-08
-3.00041e-05
3.63953e-05
-4.23245e-08
-3.94788e-05
3.36556e-05
-3.12577e-08
-4.79277e-05
3.00665e-05
-2.38598e-08
-5.51565e-05
2.57649e-05
-1.88848e-08
-6.10075e-05
2.08734e-05
-1.55645e-08
-6.53578e-05
1.55128e-05
-1.34984e-08
-6.81156e-05
9.79953e-06
-1.24731e-08
-6.92179e-05
3.84595e-06
-1.23508e-08
-6.86268e-05
-2.241e-06
-1.30591e-08
-6.63336e-05
-8.34329e-06
-1.44452e-08
-6.23578e-05
-1.43427e-05
-1.62662e-08
-5.67536e-05
-2.01053e-05
-1.81526e-08
-4.96156e-05
-2.54815e-05
-1.95316e-08
-4.10865e-05
-3.03071e-05
-1.95168e-08
-3.13624e-05
-3.44068e-05
-1.66963e-08
-2.07013e-05
-3.75838e-05
-8.98858e-09
-9.53474e-06
-3.92441e-05
5.57179e-09
-3.32738e-05
4.75997e-08
-9.9029e-06
4.17654e-05
-1.13383e-07
-2.15531e-05
4.9431e-05
-7.43462e-08
-3.27364e-05
4.75907e-05
-5.63842e-08
-4.3034e-05
4.39648e-05
-4.35141e-08
-5.21932e-05
3.92357e-05
-3.4514e-08
-6.00129e-05
3.35926e-05
-2.8007e-08
-6.63351e-05
2.7202e-05
-2.31987e-08
-7.10401e-05
2.02229e-05
-1.96978e-08
-7.40399e-05
1.28033e-05
-1.73199e-08
-7.52726e-05
5.0818e-06
-1.59734e-08
-7.46976e-05
-2.81358e-06
-1.55806e-08
-7.22976e-05
-1.07415e-05
-1.60094e-08
-6.80804e-05
-1.85588e-05
-1.70623e-08
-6.20854e-05
-2.61002e-05
-1.83751e-08
-5.43938e-05
-3.31742e-05
-1.93453e-08
-4.51402e-05
-3.9563e-05
-1.89982e-08
-3.45242e-05
-4.50263e-05
-1.57427e-08
-2.28239e-05
-4.92873e-05
-7.20653e-09
-1.0523e-05
-5.15448e-05
8.87078e-09
-4.37649e-05
5.49246e-08
-1.1015e-05
5.27592e-05
-1.3583e-07
-2.3958e-05
6.23874e-05
-9.31182e-08
-3.63473e-05
5.99957e-05
-7.26953e-08
-4.7714e-05
5.53464e-05
-5.75763e-08
-5.77857e-05
4.93197e-05
-4.65777e-08
-6.63556e-05
4.21724e-05
-3.82409e-08
-7.32706e-05
3.41245e-05
-3.17424e-08
-7.842e-05
2.53779e-05
-2.66934e-08
-8.17248e-05
1.61121e-05
-2.29217e-08
-8.31277e-05
6.48748e-06
-2.03544e-08
-8.25857e-05
-3.35386e-06
-1.89469e-08
-8.00697e-05
-1.32568e-05
-1.85922e-08
-7.55691e-05
-2.30596e-05
-1.91329e-08
-6.90992e-05
-3.25714e-05
-2.02071e-08
-6.07162e-05
-4.15597e-05
-2.11679e-08
-5.05369e-05
-4.97463e-05
-2.09145e-08
-3.87581e-05
-5.68103e-05
-1.7594e-08
-2.56805e-05
-6.23697e-05
-8.39972e-09
-1.18584e-05
-6.53679e-05
9.40075e-09
-5.55883e-05
6.10648e-08
-1.24501e-05
6.51884e-05
-1.64589e-07
-2.70512e-05
7.70067e-05
-1.17026e-07
-4.09699e-05
7.39349e-05
-9.3305e-08
-5.36728e-05
6.80681e-05
-7.51194e-08
-6.48657e-05
6.0528e-05
-6.13952e-08
-7.43426e-05
5.1661e-05
-5.06021e-08
-8.19643e-05
4.17548e-05
-4.1892e-08
-8.76402e-05
3.10597e-05
-3.48733e-08
-9.13092e-05
1.97848e-05
-2.93879e-08
-9.29249e-05
8.10504e-06
-2.5389e-08
-9.24438e-05
-3.83454e-06
-2.28686e-08
-8.98204e-05
-1.58811e-05
-2.17431e-08
-8.50171e-05
-2.7865e-05
-2.19089e-08
-7.80104e-05
-3.95814e-05
-2.30194e-08
-6.88139e-05
-5.07608e-05
-2.43843e-08
-5.75075e-05
-6.10588e-05
-2.47432e-08
-4.42714e-05
-7.00539e-05
-2.18821e-08
-2.94266e-05
-7.72215e-05
-1.23542e-08
-1.3619e-05
-8.11781e-05
7.43188e-09
-6.91679e-05
6.6308e-08
-1.42774e-05
7.94453e-05
-2.02638e-07
-3.09714e-05
9.37253e-05
-1.48827e-07
-4.67902e-05
8.978e-05
-1.20541e-07
-6.1119e-05
8.24203e-05
-9.79633e-08
-7.36443e-05
7.30719e-05
-8.02964e-08
-8.41732e-05
6.22035e-05
-6.59742e-08
-9.25982e-05
5.0189e-05
-5.41366e-08
-9.8866e-05
3.7333e-05
-4.4398e-08
-0.000102949
2.38701e-05
-3.66154e-08
-0.000104821
9.97744e-06
-3.07615e-08
-0.000104443
-4.21408e-06
-2.68619e-08
-0.000101749
-1.85792e-05
-2.48506e-08
-9.66598e-05
-3.29586e-05
-2.47039e-08
-8.90941e-05
-4.71533e-05
-2.61296e-08
-7.89943e-05
-6.08683e-05
-2.8422e-08
-6.63719e-05
-7.36906e-05
-3.01479e-08
-5.13617e-05
-8.50746e-05
-2.86203e-08
-3.4292e-05
-9.43009e-05
-1.94612e-08
-1.59232e-05
-9.95505e-05
1.70789e-09
-8.50463e-05
7.02188e-08
-1.66003e-05
9.60259e-05
-2.54163e-07
-3.59201e-05
0.000113078
-1.92313e-07
-5.40707e-05
0.000107964
-1.57454e-07
-7.03372e-05
9.87158e-05
-1.2833e-07
-8.43975e-05
8.71543e-05
-1.04736e-07
-9.6096e-05
7.39173e-05
-8.51471e-08
-0.000105386
5.94884e-05
-6.87286e-08
-0.00011228
4.42315e-05
-5.51105e-08
-0.000116807
2.8397e-05
-4.4142e-08
-0.000118977
1.21448e-05
-3.57855e-08
-0.000118764
-4.43304e-06
-3.00695e-08
-0.000116074
-2.12766e-05
-2.69316e-08
-0.000110774
-3.82674e-05
-2.64604e-08
-0.000102694
-5.52439e-05
-2.85031e-08
-9.16633e-05
-7.19112e-05
-3.24257e-08
-7.75726e-05
-8.77953e-05
-3.6671e-08
-6.04586e-05
-0.000102204
-3.79811e-08
-4.06213e-05
-0.000114152
-3.06741e-08
-1.8956e-05
-0.000121222
-8.91745e-09
-0.000103951
7.14028e-08
-1.95774e-05
0.000115585
-3.25516e-07
-4.21955e-05
0.000135739
-2.53135e-07
-6.31862e-05
0.000128998
-2.08325e-07
-8.17173e-05
0.000117282
-1.69067e-07
-9.74852e-05
0.000102948
-1.36297e-07
-0.000110416
8.68644e-05
-1.08682e-07
-0.000120572
6.96521e-05
-8.54749e-08
-0.000128073
5.17342e-05
-6.6294e-08
-0.000133038
3.33586e-05
-5.09032e-08
-0.000135539
1.46374e-05
-3.91604e-08
-0.000135572
-4.41084e-06
-3.10164e-08
-0.000133019
-2.38439e-05
-2.63617e-08
-0.00012767
-4.36321e-05
-2.54371e-08
-0.000119228
-6.37031e-05
-2.83636e-08
-0.000107351
-8.38081e-05
-3.48034e-08
-9.17241e-05
-0.000103443
-4.32926e-08
-7.21919e-05
-0.000121758
-4.9974e-08
-4.89439e-05
-0.000137421
-4.7398e-08
-2.30165e-05
-0.00014716
-2.68339e-08
-0.000126908
6.69142e-08
-2.34618e-05
0.000139031
-4.26792e-07
-5.02499e-05
0.000162584
-3.40071e-07
-7.46813e-05
0.000153482
-2.79286e-07
-9.57984e-05
0.000138442
-2.23778e-07
-0.000113377
0.000120555
-1.76473e-07
-0.000127504
0.000101006
-1.36506e-07
-0.000138421
8.05749e-05
-1.03256e-07
-0.000146423
5.97316e-05
-7.61995e-08
-0.000151763
3.86883e-05
-5.48091e-08
-0.000154605
1.74638e-05
-3.86039e-08
-0.000154991
-4.04425e-06
-2.72616e-08
-0.000152779
-2.60789e-05
-2.05549e-08
-0.00014767
-4.87677e-05
-1.88931e-08
-0.00013919
-7.22108e-05
-2.27759e-08
-0.000126741
-9.62882e-05
-3.25777e-08
-0.000109682
-0.000120535
-4.76453e-08
-8.74989e-05
-0.000143976
-6.38031e-08
-6.00959e-05
-0.000164855
-7.14354e-08
-2.86141e-05
-0.000178661
-5.63699e-08
-0.000155455
5.07075e-08
-2.86757e-05
0.000167691
-5.74618e-07
-6.0787e-05
0.000194767
-4.67117e-07
-8.93611e-05
0.00018212
-3.79051e-07
-0.000113333
0.000162462
-2.9666e-07
-0.000132688
0.00013994
-2.25948e-07
-0.000147802
0.000116132
-1.66955e-07
-0.000159213
9.19841e-05
-1.19062e-07
-0.000167469
6.79752e-05
-8.12265e-08
-0.000173027
4.4226e-05
-5.21019e-08
-0.000176185
2.05938e-05
-3.03572e-08
-0.000177052
-3.2091e-06
-1.51181e-08
-0.000175478
-2.7689e-05
-5.93292e-09
-0.000171065
-5.32204e-05
-3.07708e-09
-0.000163128
-8.0192e-05
-7.29529e-09
-0.000150702
-0.000108761
-2.06975e-08
-0.000132638
-0.00013865
-4.4661e-08
-0.000107798
-0.000168869
-7.63605e-08
-7.54388e-05
-0.000197265
-1.04409e-07
-3.66707e-05
-0.000217462
-1.03207e-07
-0.000192058
1.11424e-08
-3.59608e-05
0.000203631
-7.97338e-07
-7.49336e-05
0.000233824
-6.56855e-07
-0.000108437
0.000215698
-5.19354e-07
-0.000135379
0.000189454
-3.91431e-07
-0.000156218
0.000160804
-2.82689e-07
-0.000171827
0.000131746
-1.94729e-07
-0.000183203
0.000103346
-1.26298e-07
-0.000191268
7.6014e-05
-7.47182e-08
-0.000196753
4.96752e-05
-3.65522e-08
-0.000200135
2.39337e-05
-9.06834e-09
-0.000201624
-1.77016e-06
1.26048e-08
-0.000201088
-2.82824e-05
2.7615e-08
-0.000198046
-5.63257e-05
3.46245e-08
-0.00019158
-8.67268e-05
3.12799e-08
-0.00018028
-0.000120135
1.23781e-08
-0.000162239
-0.000156769
-2.397e-08
-0.000135261
-0.000195931
-7.87154e-08
-9.72636e-05
-0.000235347
-1.45874e-07
-4.89965e-05
-0.000265789
-1.74307e-07
-0.000240994
-8.66135e-08
-4.67142e-05
0.000250302
-1.1427e-06
-9.45536e-05
0.000281749
-9.4439e-07
-0.000133757
0.000254978
-7.13563e-07
-0.000163423
0.000219168
-5.07732e-07
-0.000184982
0.000182379
-3.3739e-07
-0.000200133
0.000146886
-2.07014e-07
-0.000210575
0.000113758
-1.1226e-07
-0.000217731
8.31251e-05
-4.55367e-08
-0.000222665
5.45561e-05
-2.71861e-10
-0.000226081
2.72847e-05
3.91151e-08
-0.000228324
4.00458e-07
6.95956e-08
-0.00022932
-2.73704e-05
8.91939e-08
-0.000228571
-5.71697e-05
1.03843e-07
-0.000224965
-9.0437e-05
1.08054e-07
-0.000216616
-0.000128597
9.23859e-08
-0.000200672
-0.000172835
4.32699e-08
-0.000173241
-0.00022349
-4.84007e-08
-0.000129548
-0.000279181
-1.88736e-07
-6.95704e-05
-0.000325875
-2.78687e-07
-0.00031056
-2.78917e-07
-6.3488e-05
0.00031364
-1.72706e-06
-0.000122665
0.000340972
-1.39268e-06
-0.000168115
0.000300492
-9.72352e-07
-0.000199514
0.0002506
-6.31449e-07
-0.000220194
0.000203057
-3.63641e-07
-0.000233251
0.000159913
-1.76745e-07
-0.000241357
0.000121811
-5.367e-08
-0.000246534
8.82343e-05
2.72284e-08
-0.000250214
5.81552e-05
8.43504e-08
-0.000253336
3.03108e-05
1.24958e-07
-0.00025638
3.33357e-06
1.57943e-07
-0.000259465
-2.44104e-05
1.92247e-07
-0.000262161
-5.4617e-05
2.24457e-07
-0.000263327
-8.94315e-05
2.50015e-07
-0.000260744
-0.000131358
2.5465e-07
-0.000250571
-0.000183192
2.12114e-07
-0.000226744
-0.000247507
8.19149e-08
-0.00017918
-0.000326977
-2.00007e-07
-0.000105688
-0.000399559
-3.96594e-07
-0.000416417
-6.94594e-07
-9.44729e-05
0.000407838
-2.52678e-06
-0.000165635
0.000412113
-1.99768e-06
-0.000216096
0.000351013
-1.24958e-06
-0.000246366
0.000280895
-7.03736e-07
-0.00026318
0.000219865
-2.98194e-07
-0.00027152
0.000168212
-4.90854e-08
-0.000275236
0.000125452
9.99358e-08
-0.000276961
8.98592e-05
1.84084e-07
-0.000278432
5.95102e-05
2.34039e-07
-0.000280756
3.25028e-05
2.71696e-07
-0.000284552
6.98159e-06
3.10951e-07
-0.000290183
-1.8946e-05
3.62832e-07
-0.000297536
-4.74553e-05
4.28841e-07
-0.000305802
-8.13797e-05
5.04855e-07
-0.000312882
-0.000124513
5.72053e-07
-0.000314294
-0.00018203
5.87904e-07
-0.000302255
-0.000259793
4.83326e-07
-0.000256683
-0.000372834
-3.43199e-08
-0.000173887
-0.000482555
-3.32974e-07
-0.00059089
-1.54276e-06
-0.000130585
0.000536899
-4.95815e-06
-0.000223166
0.000504267
-3.19818e-06
-0.000280954
0.000408822
-1.57211e-06
-0.000306496
0.000306516
-6.11251e-07
-0.000314578
0.000228006
-6.24172e-09
-0.000314215
0.000167853
2.8615e-07
-0.000310689
0.000121878
4.18367e-07
-0.000307057
8.61397e-05
4.68866e-07
-0.000305087
5.74234e-05
4.88655e-07
-0.000305848
3.31242e-05
5.09776e-07
-0.000310084
1.1056e-05
5.53805e-07
-0.000318344
-1.08706e-05
6.34085e-07
-0.000331166
-3.4844e-05
7.6298e-07
-0.000348593
-6.41772e-05
9.45377e-07
-0.000369807
-0.000103499
1.16899e-06
-0.000390555
-0.000161403
1.38077e-06
-0.000405835
-0.000244462
1.5086e-06
-0.000376623
-0.000402187
7.05769e-07
-0.000298999
-0.000559989
4.51328e-07
-0.000891449
-3.18563e-06
-0.000280738
0.000816029
-5.89398e-06
-0.000349494
0.000572234
-4.16065e-06
-0.000377504
0.00043734
-1.16059e-06
-0.000378276
0.000307784
1.19658e-07
-0.000364283
0.000214456
8.11479e-07
-0.000346965
0.000150816
1.02209e-06
-0.000331153
0.000106204
1.02489e-06
-0.000318943
7.39671e-05
9.56199e-07
-0.000311336
4.97858e-05
8.90794e-07
-0.000308913
3.06251e-05
8.65534e-07
-0.000312196
1.42275e-05
9.00626e-07
-0.000321789
-1.39582e-06
1.0176e-06
-0.000339682
-1.70919e-05
1.24639e-06
-0.000367412
-3.65627e-05
1.59149e-06
-0.000407537
-6.33688e-05
2.05798e-06
-0.000457477
-0.000111231
2.50243e-06
-0.000515761
-0.000185338
3.0818e-06
-0.000527935
-0.000389368
1.73102e-06
-0.000446583
-0.000639565
1.90964e-06
-0.00133984
-5.14889e-06
-0.000439893
0.00125024
-1.12929e-05
-0.00041433
0.000548661
-2.38791e-06
-0.000350016
0.000375979
1.41278e-06
-0.000272873
0.000233525
3.00247e-06
-0.000199911
0.000143669
3.20403e-06
-0.000142113
9.44052e-05
2.76526e-06
-9.92912e-05
6.4223e-05
2.2683e-06
-6.89022e-05
4.4076e-05
1.86021e-06
-4.87937e-05
2.99673e-05
1.58067e-06
-3.75113e-05
1.95096e-05
1.4398e-06
-3.42967e-05
1.11115e-05
1.44712e-06
-3.9089e-05
3.45223e-06
1.62274e-06
-5.1834e-05
-4.21897e-06
2.03216e-06
-7.29615e-05
-1.51149e-05
2.77403e-06
-0.000103704
-3.17179e-05
4.12893e-06
-0.000143281
-6.99184e-05
5.74028e-06
-0.000180698
-0.000143069
9.96824e-06
-0.000231689
-0.000333532
8.38779e-06
-0.00019423
-0.000666209
1.36669e-05
-0.00153698
-7.8057e-06
0.00124142
-1.64496e-05
0.00178475
-1.22314e-05
0.00216089
-4.14404e-06
0.00239643
9.10441e-07
0.00254196
2.40304e-06
0.00263773
2.65205e-06
0.00270288
2.44507e-06
0.00274755
2.08906e-06
0.00277789
1.77376e-06
0.00279764
1.57672e-06
0.00280894
1.52567e-06
0.00281256
1.63995e-06
0.00280862
2.00757e-06
0.00279394
2.57051e-06
0.00276337
3.93222e-06
0.00269495
4.57825e-06
0.00255616
8.13954e-06
0.0022258
5.31594e-06
0.00155717
-1.75819e-06
-2.73587e-05
-6.46732e-06
6.46981e-06
-2.36195e-08
-1.42175e-05
7.77362e-06
-1.07158e-08
-2.16946e-05
7.50319e-06
-3.24917e-09
-2.86182e-05
6.94901e-06