/*--------------------------------*- C++ -*----------------------------------*\
  =========                 |
  \\      /  F ield         | OpenFOAM: The Open Source CFD Toolbox
   \\    /   O peration     | Website:  https://openfoam.org
    \\  /    A nd           | Version:  10
     \\/     M anipulation  |
\*---------------------------------------------------------------------------*/
FoamFile
{
    format      ascii;
    class       surfaceScalarField;
    location    "1.975";
    object      phi;
}
// * * * * * * * * * * * * * * * * * * * * * * * * * * * * * * * * * * * * * //

dimensions      [0 3 -1 0 0 0 0];

internalField   nonuniform List<scalar> 
760
(
-1.41317e-05
1.41317e-05
-3.45503e-05
2.04186e-05
-5.49743e-05
2.0424e-05
-7.41573e-05
1.9183e-05
-9.1578e-05
1.74207e-05
-0.000106814
1.52356e-05
-0.000119485
1.26717e-05
-0.000129258
9.77301e-06
-0.000135846
6.58788e-06
-0.000139016
3.17004e-06
-0.000138596
-4.20159e-07
-0.000134481
-4.11533e-06
-0.000126655
-7.82585e-06
-0.000115202
-1.14532e-05
-0.000100319
-1.48829e-05
-8.23324e-05
-1.79864e-05
-6.1712e-05
-2.06205e-05
-3.91407e-05
-2.25713e-05
-1.61928e-05
-2.29479e-05
-1.61928e-05
-2.10848e-05
3.52164e-05
-4.99144e-05
4.92483e-05
-7.86091e-05
4.91187e-05
-0.00010551
4.60835e-05
-0.000129869
4.17804e-05
-0.000151091
3.64568e-05
-0.00016865
3.02312e-05
-0.000182096
2.32194e-05
-0.000191053
1.55443e-05
-0.000195216
7.33295e-06
-0.000194394
-1.24216e-06
-0.000188441
-1.00686e-05
-0.000177365
-1.89014e-05
-0.000161297
-2.75208e-05
-0.000140519
-3.5661e-05
-0.000115485
-4.3021e-05
-8.6842e-05
-4.92632e-05
-5.55327e-05
-5.38806e-05
-2.36196e-05
-5.48609e-05
-3.98124e-05
-2.28204e-05
5.80368e-05
-5.39389e-05
8.03667e-05
-8.48605e-05
8.00403e-05
-0.000113824
7.50466e-05
-0.00014004
6.79966e-05
-0.000162878
5.92953e-05
-0.00018179
4.91425e-05
-0.000196301
3.77313e-05
-0.00020602
2.52624e-05
-0.000210637
1.195e-05
-0.000209903
-1.97533e-06
-0.000203671
-1.63009e-05
-0.000191928
-3.0644e-05
-0.00017478
-4.46693e-05
-0.000152491
-5.79498e-05
-0.000125517
-6.99949e-05
-9.45338e-05
-8.02465e-05
-6.05485e-05
-8.78659e-05
-2.57985e-05
-8.96109e-05
-6.5611e-05
-2.42898e-05
8.23266e-05
-5.74622e-05
0.000113539
-9.04032e-05
0.000112981
-0.000121249
0.000105892
-0.000149176
9.59236e-05
-0.000173532
8.36516e-05
-0.000193754
6.93644e-05
-0.000209358
5.33354e-05
-0.000219937
3.58409e-05
-0.000225156
1.71693e-05
-0.000224761
-2.37025e-06
-0.000218528
-2.2534e-05
-0.000206399
-4.27729e-05
-0.000188425
-6.26429e-05
-0.000164819
-8.15566e-05
-0.000136
-9.88132e-05
-0.000102653
-0.000113594
-6.58571e-05
-0.000124662
-2.80777e-05
-0.00012739
-9.36886e-05
-2.62693e-05
0.000108596
-6.21838e-05
0.000149454
-9.78234e-05
0.000148621
-0.00013118
0.000139249
-0.000161383
0.000126127
-0.000187758
0.000110026
-0.000209728
9.13342e-05
-0.000226802
7.04095e-05
-0.000238561
4.76003e-05
-0.00024465
2.3258e-05
-0.000244781
-2.2394e-06
-0.000238652
-2.86626e-05
-0.000226125
-5.52997e-05
-0.000207158
-8.16104e-05
-0.000181867
-0.000106848
-0.000150604
-0.000130076
-0.000114038
-0.00015016
-7.33439e-05
-0.000165356
-3.13186e-05
-0.000169416
-0.000125007
-2.88882e-05
0.000137484
-6.84077e-05
0.000188973
-0.000107578
0.000187791
-0.000144199
0.00017587
-0.000177343
0.000159271
-0.00020631
0.000138993
-0.000230522
0.000115545
-0.000249488
8.93763e-05
-0.00026279
6.09016e-05
-0.00027005
3.05186e-05
-0.000270954
-1.33575e-06
-0.000265086
-3.45304e-05
-0.0002522
-6.81859e-05
-0.000232105
-0.000101705
-0.000204763
-0.000134189
-0.00017039
-0.00016445
-0.000129595
-0.000190955
-8.36509e-05
-0.0002113
-3.58148e-05
-0.000217252
-0.000160822
-3.22311e-05
0.000169715
-7.63301e-05
0.000233072
-0.000119951
0.000231413
-0.00016065
0.000216568
-0.00019743
0.000196051
-0.000229579
0.000171142
-0.00025653
0.000142497
-0.000277822
0.000110668
-0.000293049
7.61291e-05
-0.000301826
3.9296e-05
-0.000303836
6.74042e-07
-0.000298495
-3.98711e-05
-0.000285428
-8.12534e-05
-0.000264217
-0.000122916
-0.000234572
-0.000163835
-0.000196461
-0.00020256
-0.000150337
-0.000237079
-9.75374e-05
-0.000264099
-4.19317e-05
-0.000272857
-0.000202754
-3.64121e-05
0.000206127
-8.62085e-05
0.000282869
-0.000135307
0.000280512
-0.000180956
0.000262217
-0.00022209
0.000237186
-0.000258003
0.000207054
-0.000288176
0.00017267
-0.000312212
0.000134704
-0.000329767
9.36846e-05
-0.00034049
5.00186e-05
-0.000343952
4.13644e-06
-0.000339599
-4.42249e-05
-0.000326748
-9.41039e-05
-0.000304678
-0.000144986
-0.000272698
-0.000195814
-0.000230354
-0.000244905
-0.000177745
-0.000289688
-0.000116158
-0.000325686
-5.02538e-05
-0.000338761
-0.000253008
-4.15996e-05
0.000247727
-9.84103e-05
0.000339679
-0.00015415
0.000336252
-0.000205688
0.000313754
-0.000251898
0.000283396
-0.000292118
0.000247275
-0.000325938
0.00020649
-0.000353091
0.000161856
-0.000373351
0.000113944
-0.000386441
6.31087e-05
-0.000391929
9.62488e-06
-0.000389186
-4.69682e-05
-0.000377248
-0.000106042
-0.000354958
-0.000167276
-0.000321014
-0.000229758
-0.000274239
-0.00029168
-0.000214032
-0.000349895
-0.000141327
-0.000398391
-6.17642e-05
-0.000418324
-0.000314772
-4.8049e-05
0.000295776
-0.000113471
0.000405101
-0.000177192
0.000399973
-0.000235618
0.000372181
-0.000287596
0.000335374
-0.000332581
0.000292259
-0.000370358
0.000244267
-0.000400889
0.000192387
-0.000424163
0.000137219
-0.000440065
7.90106e-05
-0.000448239
1.77981e-05
-0.000447999
-4.72075e-05
-0.00043809
-0.000115951
-0.000416806
-0.00018856
-0.000381963
-0.000264601
-0.000331186
-0.000342457
-0.000262561
-0.00041852
-0.000175985
-0.000484967
-7.82057e-05
-0.000516104
-0.000392978
-5.61621e-05
0.000351938
-0.000132188
0.000481127
-0.000205451
0.000473236
-0.000271812
0.000438541
-0.00033016
0.000393722
-0.000380189
0.000342288
-0.000422024
0.000286101
-0.000455996
0.00022636
-0.000482448
0.000163672
-0.000501554
9.81164e-05
-0.000513144
2.93874e-05
-0.000516591
-4.376e-05
-0.000510374
-0.000122168
-0.000492171
-0.000206763
-0.000458628
-0.000298144
-0.000405518
-0.000395568
-0.000328517
-0.000495521
-0.000225064
-0.000588419
-0.00010287
-0.000638298
-0.000495848
-6.65978e-05
0.000418536
-0.000155784
0.000570312
-0.00024042
0.000557873
-0.000315753
0.000513874
-0.000380883
0.000458852
-0.000435933
0.000397339
-0.000481574
0.000331742
-0.00051871
0.000263495
-0.000548224
0.000193186
-0.000570757
0.00012065
-0.0005865
4.51302e-05
-0.00059508
-3.51805e-05
-0.000594864
-0.000122384
-0.000582977
-0.00021865
-0.000554693
-0.000326427
-0.000503193
-0.000447067
-0.000420012
-0.000578703
-0.000297166
-0.000711265
-0.000142439
-0.000793025
-0.000638287
-8.04964e-05
0.000499032
-0.000186176
0.000675992
-0.000284311
0.000656008
-0.000369537
0.000599101
-0.000441497
0.000530812
-0.000501044
0.000456886
-0.000549688
0.000380386
-0.000589174
0.000302981
-0.000621171
0.000225182
-0.00064701
0.000146489
-0.000667481
6.56013e-05
-0.000682772
-1.98901e-05
-0.000691502
-0.000113654
-0.000690607
-0.000219545
-0.000674114
-0.00034292
-0.000632057
-0.000489124
-0.000549755
-0.000661005
-0.00040791
-0.000853109
-0.000211775
-0.000989161
-0.000850062
-9.99904e-05
0.000599023
-0.000226566
0.000802568
-0.000340482
0.000769924
-0.000436144
0.000694763
-0.000514338
0.000609005
-0.000577058
0.000519606
-0.000627077
0.000430405
-0.000667313
0.000343218
-0.000700495
0.000258365
-0.000728924
0.000174918
-0.000754253
9.09303e-05
-0.000777601
3.45775e-06
-0.000798599
-9.26564e-05
-0.000814856
-0.000203288
-0.000820106
-0.00033767
-0.000801545
-0.000507685
-0.000737014
-0.000725537
-0.000586024
-0.0010041
-0.000344091
-0.00123109
-0.00119415
-0.000127172
0.000726195
-0.000280791
0.000956187
-0.000413448
0.00090258
-0.000519652
0.000800967
-0.000602484
0.000691837
-0.00066586
0.000582982
-0.000714451
0.000478996
-0.000752748
0.000381514
-0.000784798
0.000290415
-0.000814112
0.000204232
-0.000843511
0.000120329
-0.000875491
3.54379e-05
-0.000911653
-5.64943e-05
-0.000951922
-0.000163019
-0.000992432
-0.00029716
-0.0010194
-0.000480715
-0.00100705
-0.000737886
-0.000875633
-0.00113552
-0.000598216
-0.00150851
-0.00179237
-0.000184566
0.00091076
-0.000365001
0.00113662
-0.000513142
0.00105072
-0.000626289
0.000914115
-0.000709912
0.00077546
-0.00076951
0.00064258
-0.000812106
0.000521593
-0.000844189
0.000413597
-0.000871397
0.000317622
-0.000898541
0.000231377
-0.000930141
0.000151929
-0.000969798
7.50949e-05
-0.00102077
-5.52733e-06
-0.00109014
-9.36476e-05
-0.00117951
-0.000207783
-0.00127896
-0.000381267
-0.00137303
-0.000643818
-0.00132376
-0.00118479
-0.00103921
-0.00179306
-0.00283158
-0.000202161
0.00111292
-0.000451654
0.00138612
-0.000637338
0.0012364
-0.000761716
0.00103849
-0.000840593
0.000854337
-0.000886906
0.000688893
-0.000913985
0.000548671
-0.000931488
0.0004311
-0.0009465
0.000332635
-0.000964241
0.000249118
-0.000989299
0.000176987
-0.00102708
0.000112877
-0.00108757
5.4965e-05
-0.00118048
-7.45389e-07
-0.00132417
-6.40897e-05
-0.00151202
-0.000193417
-0.00177146
-0.000384371
-0.00184043
-0.00111582
-0.00150254
-0.00213096
-0.00433412
-0.000503718
0.00161664
-0.00069609
0.00157849
-0.000828196
0.00136851
-0.000909841
0.00112014
-0.000938711
0.000883207
-0.000937108
0.00068729
-0.000921391
0.000532954
-0.000901539
0.000411248
-0.000884805
0.000315901
-0.000876863
0.000241176
-0.000883825
0.000183949
-0.000910705
0.000139757
-0.000968215
0.000112475
-0.00106051
9.15509e-05
-0.00121797
9.33656e-05
-0.00141247
1.08338e-06
-0.0016506
-0.000146242
-0.00173659
-0.00102983
-0.00123599
-0.00263156
-0.00557011
-0.00117136
0.002788
-0.00107792
0.00148504
-0.000859402
0.00114999
-0.000596704
0.00085744
-0.000338746
0.000625249
-0.000109077
0.000457621
8.37594e-05
0.000340118
0.000238599
0.000256408
0.000359177
0.000195323
0.000450897
0.000149457
0.000517902
0.000116944
0.00056682
9.08391e-05
0.000603518
7.57774e-05
0.000630253
6.48155e-05
0.000681123
4.24951e-05
0.000674479
7.72755e-06
0.000775677
-0.00024744
0.000621107
-0.000875256
0.000518468
-0.00252892
-0.00505164
0.002788
0.00427305
0.00542304
0.00628048
0.00690573
0.00736335
0.00770347
0.00795987
0.0081552
0.00830465
0.0084216
0.00851244
0.00858821
0.00865303
0.00869553
0.00870325
0.00845581
0.00758056
0.00505164
)
;

boundaryField
{
    movingWall
    {
        type            calculated;
        value           uniform 0;
    }
    fixedWalls
    {
        type            calculated;
        value           uniform 0;
    }
    frontAndBack
    {
        type            empty;
        value           nonuniform List<scalar> 0();
    }
}


// ************************************************************************* //
