/*--------------------------------*- C++ -*----------------------------------*\
  =========                 |
  \\      /  F ield         | OpenFOAM: The Open Source CFD Toolbox
   \\    /   O peration     | Website:  https://openfoam.org
    \\  /    A nd           | Version:  10
     \\/     M anipulation  |
\*---------------------------------------------------------------------------*/
FoamFile
{
    format      ascii;
    class       surfaceScalarField;
    location    "4.775";
    object      phi;
}
// * * * * * * * * * * * * * * * * * * * * * * * * * * * * * * * * * * * * * //

dimensions      [0 3 -1 0 0 0 0];

internalField   nonuniform List<scalar> 
760
(
-8.52072e-06
8.52071e-06
-2.8103e-05
1.95823e-05
-5.06741e-05
2.2571e-05
-7.32904e-05
2.26164e-05
-9.50416e-05
2.17512e-05
-0.000115483
2.04417e-05
-0.000134183
1.86996e-05
-0.000150627
1.64439e-05
-0.000164208
1.3581e-05
-0.000174229
1.00207e-05
-0.000179917
5.68852e-06
-0.000180467
5.49491e-07
-0.000175068
-5.39853e-06
-0.000163076
-1.19922e-05
-0.000144112
-1.89639e-05
-0.000118255
-2.58569e-05
-8.63614e-05
-3.18936e-05
-5.07684e-05
-3.5593e-05
-1.72597e-05
-3.35087e-05
-1.72597e-05
-2.04214e-05
2.89422e-05
-5.74342e-05
5.65951e-05
-9.86024e-05
6.37392e-05
-0.000139366
6.33805e-05
-0.000178076
6.04612e-05
-0.000213798
5.61636e-05
-0.000245691
5.05925e-05
-0.000272871
4.36234e-05
-0.000294379
3.50896e-05
-0.000309186
2.4827e-05
-0.000316165
1.26677e-05
-0.000314347
-1.26871e-06
-0.000302581
-1.71636e-05
-0.000280112
-3.44616e-05
-0.000246577
-5.24992e-05
-0.000202296
-7.01373e-05
-0.000148719
-8.54711e-05
-8.94811e-05
-9.48309e-05
-3.30579e-05
-8.99319e-05
-5.03177e-05
-2.48164e-05
5.37585e-05
-6.84709e-05
0.00010025
-0.00011656
0.000111828
-0.000163934
0.000110754
-0.000208758
0.000105286
-0.000249994
9.73992e-05
-0.000286709
8.73078e-05
-0.000317939
7.4853e-05
-0.000342649
5.97993e-05
-0.000359725
4.19031e-05
-0.000368033
2.09756e-05
-0.000366247
-3.05423e-06
-0.000353154
-3.02568e-05
-0.000327766
-5.985e-05
-0.000289493
-9.07722e-05
-0.000238473
-0.000121157
-0.000176159
-0.000147785
-0.000106626
-0.000164363
-3.97786e-05
-0.00015678
-9.00962e-05
-2.65399e-05
8.02985e-05
-7.33054e-05
0.000147015
-0.000124716
0.000163239
-0.000175347
0.000161385
-0.000223347
0.000153286
-0.000267695
0.000141747
-0.000307481
0.000127093
-0.000341751
0.000109124
-0.000369463
8.75107e-05
-0.00038945
6.18907e-05
-0.000400421
3.19462e-05
-0.000401005
-2.47063e-06
-0.000389468
-4.17928e-05
-0.00036437
-8.49487e-05
-0.000324531
-0.000130611
-0.000269553
-0.000176134
-0.000200622
-0.000216717
-0.000122155
-0.00024283
-4.57104e-05
-0.000233225
-0.000135807
-2.78414e-05
0.00010814
-7.72577e-05
0.000196431
-0.000131626
0.000217608
-0.000185278
0.000215037
-0.000236371
0.000204379
-0.000283949
0.000189325
-0.000327174
0.000170318
-0.00036515
0.0001471
-0.00039686
0.00011922
-0.000421095
8.61258e-05
-0.0004364
4.72516e-05
-0.000441165
2.29434e-06
-0.000433117
-4.98406e-05
-0.000410088
-0.000107978
-0.000369925
-0.000170774
-0.000311165
-0.000234894
-0.000234255
-0.000293627
-0.000143959
-0.000333126
-5.42613e-05
-0.000322923
-0.000190068
-2.93745e-05
0.000137514
-8.18954e-05
0.000248952
-0.00013976
0.000275473
-0.000197002
0.000272278
-0.000251801
0.000259177
-0.000303298
0.000240823
-0.000350772
0.000217791
-0.000393439
0.000189768
-0.000430366
0.000156147
-0.00046036
0.00011612
-0.000481862
6.87541e-05
-0.000492782
1.32144e-05
-0.00049055
-5.20725e-05
-0.000471733
-0.000126795
-0.000432741
-0.000209767
-0.000370344
-0.000297291
-0.00028342
-0.000380551
-0.000176691
-0.000439855
-6.7628e-05
-0.000431985
-0.000257696
-3.12798e-05
0.000168794
-8.75722e-05
0.000305245
-0.000149644
0.000337545
-0.000211162
0.000333796
-0.00027034
0.000318355
-0.000326461
0.000296944
-0.000378979
0.000270309
-0.000427304
0.000238094
-0.000470683
0.000199525
-0.000508044
0.000153481
-0.000537806
9.85168e-05
-0.000557619
3.30273e-05
-0.000564354
-4.53382e-05
-0.00055317
-0.000137979
-0.000518389
-0.000244547
-0.000453901
-0.000361778
-0.000355508
-0.000478945
-0.000226601
-0.000568762
-8.92614e-05
-0.000569325
-0.000346957
-3.35879e-05
0.000202382
-9.43704e-05
0.000366027
-0.000161362
0.000404536
-0.000227784
0.000400219
-0.000291909
0.00038248
-0.000353211
0.000358246
-0.000411402
0.0003285
-0.000466196
0.000292888
-0.000517164
0.000250494
-0.000563545
0.000199861
-0.000603964
0.000138936
-0.000636034
6.5097e-05
-0.00065621
-2.51617e-05
-0.00065815
-0.000136039
-0.000633402
-0.000269294
-0.000571449
-0.000423732
-0.000462432
-0.000587961
-0.000305274
-0.00072592
-0.000126585
-0.000748014
-0.000473543
-3.63458e-05
0.000238728
-0.000102385
0.000432066
-0.00017498
0.000477131
-0.000246829
0.000472067
-0.000316283
0.000451934
-0.000383081
0.000425044
-0.000447285
0.000392705
-0.000509052
0.000354655
-0.000568476
0.000309918
-0.000625381
0.000256766
-0.00067897
0.000192524
-0.000727237
0.000113365
-0.000766977
1.45776e-05
-0.000790376
-0.00011264
-0.000786019
-0.000273651
-0.000737274
-0.000472477
-0.000624678
-0.000700557
-0.000436475
-0.000914123
-0.0001972
-0.000987289
-0.000670742
-3.96716e-05
0.0002784
-0.000111836
0.00050423
-0.0001907
0.000555996
-0.000268352
0.000549719
-0.000343273
0.000526855
-0.000415536
0.000497307
-0.000485664
0.000462833
-0.000554402
0.000423393
-0.000622605
0.000378121
-0.00069106
0.000325221
-0.000760147
0.000261612
-0.000829207
0.000182424
-0.000895086
8.04566e-05
-0.000952073
-5.5653e-05
-0.000985631
-0.000240093
-0.000972359
-0.000485749
-0.00087871
-0.000794207
-0.000670602
-0.00112223
-0.000344132
-0.00131376
-0.00101487
-4.38161e-05
0.000322216
-0.000123178
0.000583592
-0.000208976
0.000641793
-0.000292632
0.000633375
-0.000372835
0.000607058
-0.000450085
0.000574557
-0.000525454
0.000538202
-0.000600404
0.000498343
-0.000676761
0.000454478
-0.000756653
0.000405113
-0.000842312
0.00034727
-0.000935509
0.000275622
-0.00103623
0.000181176
-0.00114208
5.01979e-05
-0.00124064
-0.000141533
-0.00130533
-0.000421062
-0.00128568
-0.000813848
-0.00110198
-0.00130593
-0.00065844
-0.0017573
-0.00167331
-4.92699e-05
0.000371485
-0.000137264
0.000671587
-0.000230677
0.000735206
-0.000320313
0.00072301
-0.000405217
0.000691962
-0.000486426
0.000655766
-0.000565628
0.000617404
-0.000645048
0.000577762
-0.000727583
0.000537013
-0.000817025
0.000494555
-0.000918242
0.000448487
-0.00103713
0.000394513
-0.00117985
0.000323897
-0.00135012
0.000220465
-0.00155011
5.84587e-05
-0.00176066
-0.000210514
-0.00191482
-0.000659686
-0.00183037
-0.00139039
-0.00120191
-0.00238575
-0.00287523
-5.69638e-05
0.000428449
-0.000155612
0.000770234
-0.000257325
0.00083692
-0.000352601
0.000818286
-0.000441116
0.000780478
-0.000524619
0.000739269
-0.000605442
0.000698227
-0.000686443
0.000658763
-0.000771412
0.000621983
-0.000865678
0.000588821
-0.000976942
0.00055975
-0.00111637
0.000533943
-0.00129979
0.000507313
-0.00154815
0.000468824
-0.00188354
0.000393855
-0.00231032
0.000216267
-0.00272281
-0.000247201
-0.00272843
-0.00138477
-0.0017843
-0.00332988
-0.00465953
-6.90893e-05
0.000497539
-0.000181338
0.000882483
-0.000291419
0.000947001
-0.000390973
0.00091784
-0.000481363
0.000870868
-0.000565097
0.000823003
-0.000644787
0.000777917
-0.000723559
0.000737535
-0.000805664
0.000704087
-0.000897358
0.000680516
-0.00100851
0.000670906
-0.00115523
0.000680656
-0.00136392
0.000716004
-0.00167381
0.00077872
-0.00213029
0.000850331
-0.00272657
0.000812541
-0.00326877
0.000295
-0.00320766
-0.00144588
-0.00198289
-0.00455465
-0.00664242
-8.41201e-05
0.000581659
-0.000213596
0.00101196
-0.000334634
0.00106804
-0.000440411
0.00102362
-0.000531502
0.000961959
-0.000612042
0.000903543
-0.000685953
0.000851829
-0.000756721
0.000808303
-0.000827977
0.000775343
-0.000904746
0.000757285
-0.000996186
0.000762346
-0.00111883
0.000803302
-0.00130357
0.000900744
-0.00159486
0.00107001
-0.00204029
0.00129576
-0.00259155
0.0013638
-0.00304878
0.000752225
-0.00289676
-0.0015979
-0.0018055
-0.00564591
-0.00844792
-0.000148708
0.000730366
-0.000291137
0.00115439
-0.000404276
0.00118118
-0.000496698
0.00111604
-0.000578393
0.00104365
-0.000652582
0.000977731
-0.000720484
0.000919731
-0.000782561
0.000870379
-0.000839745
0.000832527
-0.000893378
0.000810918
-0.00094734
0.000816308
-0.00100931
0.000865275
-0.00109873
0.000990163
-0.00123348
0.00120476
-0.00144909
0.00151137
-0.0016822
0.00159691
-0.00189364
0.000963662
-0.00187918
-0.00161236
-0.00134381
-0.00618128
-0.00979173
-9.94047e-05
0.000829771
-0.00030605
0.00136103
-0.00046437
0.0013395
-0.00058145
0.00123312
-0.000667112
0.00112932
-0.000730794
0.00104141
-0.000778466
0.000967403
-0.000812853
0.000904766
-0.000834375
0.00085405
-0.000839715
0.000816258
-0.000824544
0.000801137
-0.000778495
0.000819225
-0.000696744
0.000908413
-0.000558868
0.00106688
-0.000377956
0.00133046
-0.000208877
0.00142783
-0.000143074
0.000897859
-0.00038054
-0.00137489
-0.000410986
-0.00615083
-0.0102027
-0.000389481
0.00121925
-0.000489018
0.00146057
-0.000585976
0.00143646
-0.000675399
0.00132254
-0.000721599
0.00117552
-0.000732852
0.00105267
-0.000717794
0.000952345
-0.000679364
0.000866337
-0.000622698
0.000797384
-0.000542289
0.000735849
-0.000436615
0.000695463
-0.00028634
0.00066895
-6.73741e-05
0.000689447
0.000247699
0.000751809
0.000707136
0.000871023
0.00122857
0.000906399
0.00173952
0.00038691
0.00160895
-0.00124433
0.00089288
-0.00543476
-0.00930983
-0.00133929
0.00255855
-0.00129602
0.0014173
-0.00105269
0.00119313
-0.000703135
0.000972987
-0.000331861
0.000804242
3.9453e-05
0.000681352
0.00039777
0.000594028
0.000737629
0.000526477
0.00106103
0.000473979
0.00136818
0.000428699
0.00166688
0.000396768
0.00196617
0.000369662
0.00229617
0.000359443
0.00268431
0.000363667
0.00321868
0.000336654
0.00385439
0.000270687
0.00440134
-0.000160039
0.00434132
-0.00118431
0.00269111
-0.00378454
-0.00661872
0.00255855
0.00397584
0.00516897
0.00614196
0.0069462
0.00762755
0.00822158
0.00874805
0.00922203
0.00965073
0.0100475
0.0104172
0.0107766
0.0111403
0.0114769
0.0117476
0.0115876
0.0104033
0.00661872
)
;

boundaryField
{
    movingWall
    {
        type            calculated;
        value           uniform 0;
    }
    fixedWalls
    {
        type            calculated;
        value           uniform 0;
    }
    frontAndBack
    {
        type            empty;
        value           nonuniform List<scalar> 0();
    }
}


// ************************************************************************* //
