/*--------------------------------*- C++ -*----------------------------------*\
  =========                 |
  \\      /  F ield         | OpenFOAM: The Open Source CFD Toolbox
   \\    /   O peration     | Website:  https://openfoam.org
    \\  /    A nd           | Version:  10
     \\/     M anipulation  |
\*---------------------------------------------------------------------------*/
FoamFile
{
    format      ascii;
    class       volScalarField;
    location    "5.65";
    object      p;
}
// * * * * * * * * * * * * * * * * * * * * * * * * * * * * * * * * * * * * * //

dimensions      [0 2 -2 0 0 0 0];

internalField   nonuniform List<scalar> 
400
(
2.13324e-09
-2.13111e-05
1.84895e-05
9.66943e-05
0.000219509
0.000388139
0.000604175
0.000869245
0.00118417
0.00154824
0.0019583
0.00240772
0.00288538
0.00337475
0.00385336
0.00429348
0.00466352
0.0049318
0.00509036
0.00507864
2.23151e-05
2.79489e-07
4.37703e-05
0.000121598
0.000241546
0.000405553
0.000615705
0.000874018
0.00118169
0.00153847
0.00194173
0.00238534
0.00285871
0.00334643
0.00382621
0.00427011
0.0046456
0.00492023
0.00508753
0.00507321
-2.26885e-05
-5.10933e-05
-9.23294e-06
6.5369e-05
0.000181318
0.000340836
0.000546538
0.000801226
0.00110708
0.00146499
0.00187361
0.00232839
0.00282056
0.00333424
0.00384647
0.0043268
0.00473804
0.00504075
0.00522607
0.00520184
-0.000115726
-0.000148836
-0.000109597
-3.96478e-05
7.05487e-05
0.00022366
0.000423131
0.00067295
0.000976842
0.00133758
0.00175601
0.00222975
0.00275179
0.0033085
0.00387587
0.00441955
0.00489401
0.00524756
0.00546625
0.00543385
-0.00026248
-0.000300138
-0.000264791
-0.000201142
-9.86546e-05
4.5912e-05
0.00023706
0.000480309
0.000781442
0.00114589
0.00157767
0.00207792
0.00264274
0.00326129
0.00390929
0.00454795
0.00512104
0.00555692
0.00583053
0.00578932
-0.000462396
-0.000505184
-0.000475119
-0.000419844
-0.000327813
-0.000195167
-1.62084e-05
0.000216367
0.000510842
0.000876047
0.0013204
0.0018501
0.00246649
0.00316463
0.00392187
0.00469534
0.00541492
0.00598017
0.0063425
0.00629158
-0.000714096
-0.000763006
-0.000739817
-0.000695589
-0.000617808
-0.000502073
-0.00034151
-0.000126932
0.000152747
0.000510411
0.00096013
0.00151519
0.00218393
0.0029758
0.00387077
0.00482674
0.00575861
0.00652712
0.0070357
0.00697943
-0.00101603
-0.00107232
-0.00105781
-0.00102786
-0.000969136
-0.000876968
-0.000743566
-0.000558061
-0.000306595
2.81011e-05
0.000466839
0.0010334
0.00175243
0.00263081
0.00368271
0.00487252
0.00610474
0.00719322
0.00795408
0.007918
-0.0013662
-0.00143126
-0.00142721
-0.00141504
-0.00138088
-0.00132032
-0.00122527
-0.00108385
-0.000880108
-0.000592943
-0.00019512
0.000347413
0.00107368
0.0020204
0.00323
0.0046943
0.00633458
0.00792924
0.00914487
0.00922768
-0.00176213
-0.00183734
-0.00184506
-0.00185384
-0.0018498
-0.00182954
-0.00178572
-0.00170674
-0.00157617
-0.00137087
-0.00105889
-0.000596591
7.42328e-05
0.00102561
0.00231473
0.00402634
0.0061573
0.00853136
0.0105798
0.011097
-0.00220114
-0.00228769
-0.00230719
-0.00233888
-0.00236945
-0.00239761
-0.0024181
-0.0024215
-0.00239356
-0.00231319
-0.00214926
-0.00185586
-0.00136636
-0.00058845
0.000591976
0.00230583
0.00481778
0.00825205
0.0118443
0.0133526
-0.00268117
-0.00277964
-0.00280834
-0.00286221
-0.00292932
-0.0030116
-0.0031075
-0.00321196
-0.00331637
-0.00340706
-0.00346289
-0.00345185
-0.00332457
-0.0030057
-0.0023936
-0.00132369
0.000706716
0.00482994
0.0104992
0.0143047
-0.00320276
-0.00331286
-0.00334426
-0.00341534
-0.00351579
-0.00365243
-0.00382939
-0.004048
-0.00430918
-0.00461366
-0.00496245
-0.00535876
-0.00581322
-0.0063692
-0.00717965
-0.00839466
-0.00928866
-0.00636574
0.000601632
0.00881396
-0.00376699
-0.00387988
-0.00389567
-0.00397096
-0.0040974
-0.00428535
-0.00454243
-0.00487794
-0.00530479
-0.00584271
-0.00652534
-0.00741492
-0.00863632
-0.0104479
-0.0134962
-0.0184527
-0.0251098
-0.0250882
-0.0178497
-0.00408419
-0.00440761
-0.00453532
-0.00452129
-0.00459066
-0.00471858
-0.00492922
-0.00523918
-0.00566741
-0.00623972
-0.00699631
-0.00800615
-0.00939213
-0.0114141
-0.0145246
-0.0198702
-0.0284437
-0.0410519
-0.0446067
-0.0381982
-0.0195317
-0.00520428
-0.00513541
-0.00501378
-0.00499685
-0.00510848
-0.00535342
-0.00573413
-0.0062616
-0.00696278
-0.00788628
-0.00912198
-0.0108262
-0.0133572
-0.0171531
-0.0238249
-0.0335532
-0.0485773
-0.0535885
-0.048414
-0.024939
-0.00569641
-0.00613188
-0.00586742
-0.00590619
-0.0059344
-0.00609358
-0.00640105
-0.00688579
-0.00758125
-0.00853107
-0.00982443
-0.0115851
-0.0142374
-0.0179877
-0.0245814
-0.0335666
-0.0462843
-0.0499941
-0.0429619
-0.0103601
-0.00905556
-0.00654693
-0.00596325
-0.00544501
-0.00543193
-0.00567909
-0.00613197
-0.00675164
-0.0075544
-0.00856214
-0.00987546
-0.0115499
-0.0139956
-0.0173639
-0.0226976
-0.0291053
-0.0368961
-0.0363761
-0.0236215
0.0255041
-0.00581666
-0.00880331
-0.0078052
-0.00788473
-0.00751248
-0.00735595
-0.00739825
-0.00766834
-0.00820325
-0.00898752
-0.0101003
-0.0115665
-0.0138147
-0.0167717
-0.0217476
-0.0267594
-0.0320815
-0.0218334
0.00637629
0.0874461
-0.0309139
-0.00592251
-0.0045274
-0.00384046
-0.00370544
-0.00399965
-0.00462756
-0.0053766
-0.00631678
-0.0074061
-0.00884357
-0.0105434
-0.0129777
-0.0156674
-0.0188131
-0.0190717
-0.0131941
0.0181144
0.0886518
0.224889
)
;

boundaryField
{
    movingWall
    {
        type            zeroGradient;
    }
    fixedWalls
    {
        type            zeroGradient;
    }
    frontAndBack
    {
        type            empty;
    }
}


// ************************************************************************* //
