/*--------------------------------*- C++ -*----------------------------------*\
  =========                 |
  \\      /  F ield         | OpenFOAM: The Open Source CFD Toolbox
   \\    /   O peration     | Website:  https://openfoam.org
    \\  /    A nd           | Version:  10
     \\/     M anipulation  |
\*---------------------------------------------------------------------------*/
FoamFile
{
    format      ascii;
    class       volScalarField;
    location    "6";
    object      p;
}
// * * * * * * * * * * * * * * * * * * * * * * * * * * * * * * * * * * * * * //

dimensions      [0 2 -2 0 0 0 0];

internalField   nonuniform List<scalar> 
496
(
29.5283
29.664
26.4454
20.3062
30.0726
30.7746
26.8645
20.623
34.8564
32.7624
24.3491
14.0726
42.6888
39.652
35.9468
20.5248
11.8045
2.76691
11.8636
3.01216
-0.845984
-5.56637
-29.8279
-55.3248
-4.28043
-8.72956
-11.0241
-12.036
-4.26161
-9.76534
-13.2804
-14.8108
0.902017
0.321811
-3.13628
-7.92905
-25.7408
-12.6631
-7.21733
-7.3868
-12.7475
-13.7369
-14.7642
-15.6472
-15.803
-15.6353
-15.2192
-14.6753
-14.1181
-13.5675
-13.2171
-12.6923
-12.0221
-11.0218
-10.066
-9.3469
-8.90124
-8.61024
-8.06058
-7.40368
-6.63622
-5.88173
-5.10922
-4.30689
-3.62235
-2.93098
-2.32445
-1.74754
-1.28099
-1.25185
-1.40173
-1.70933
-1.84795
-1.82214
-1.72912
-1.4906
-1.4412
-1.23096
-0.863784
-0.314061
-15.7937
-16.6679
-17.0588
-16.7891
-16.1123
-15.4959
-14.7787
-14.3205
-13.9552
-13.6571
-13.2997
-12.7058
-11.9369
-10.8993
-9.99616
-9.29733
-8.88982
-8.5401
-8.04847
-7.38093
-6.65005
-5.9074
-5.13444
-4.29275
-3.53524
-2.73313
-2.06076
-1.56472
-1.14755
-1.2081
-1.29415
-1.73287
-1.88246
-1.89138
-1.79644
-1.58255
-1.5291
-1.30753
-0.80874
-0.268997
-13.8689
-17.9778
-18.9546
-17.929
-17.0276
-16.1425
-15.2699
-14.7684
-14.4596
-14.1843
-13.6538
-13.0188
-11.897
-10.8136
-9.90714
-9.3623
-9.12297
-8.79943
-8.4304
-7.81103
-7.14104
-6.1828
-5.02639
-3.9476
-3.11939
-2.54569
-1.82103
-1.20003
-1.25109
-1.45613
-1.97936
-2.33873
-2.55546
-2.68999
-2.1566
-1.68101
-1.01332
-0.478265
-0.296822
0.0131458
-13.9766
-18.2511
-17.5968
-15.669
-16.3181
-16.8608
-15.2577
-14.5673
-14.779
-14.406
-13.6419
-13.0133
-11.5627
-10.6744
-9.60878
-9.23303
-9.03977
-8.89433
-8.57269
-8.03651
-7.75996
-6.91986
-5.70236
-4.28952
-2.66207
-1.0407
-0.173216
0.162537
-0.571181
-0.875281
-1.81156
-2.69128
-3.18414
-3.4135
-3.06373
-2.78012
-1.4367
-0.250517
1.05536
1.57496
47.3646
48.7665
63.1916
75.4014
46.9944
48.9182
63.1224
75.4485
-29.4875
-22.5752
-5.90252
-24.7561
-33.01
-11.7787
-9.87244
-16.3983
-20.2184
-17.4244
-17.967
-21.5089
-18.7752
-16.8782
-15.4535
-15.8406
-15.7321
-14.2185
-13.1541
-12.764
-12.065
-10.8891
-9.96798
-9.369
-8.83929
-8.22726
-7.4753
-7.30887
-7.02676
-5.99776
-5.38286
-4.68283
-3.32861
-2.51812
-2.28695
-1.80936
-1.56379
-1.59426
-1.78327
-1.96785
-1.98142
-1.95153
-2.29886
-1.6844
-0.961927
-0.612354
0.0215163
0.368371
-24.1168
-18.3357
-20.7626
-18.7631
-18.8651
-20.5966
-16.1516
-15.1754
-15.7841
-14.3878
-14.0733
-13.7635
-12.6351
-11.355
-10.3297
-9.43903
-8.69881
-7.85669
-6.62356
-5.90262
-5.42207
-4.48992
-4.31123
-4.47126
-4.00452
-4.12942
-4.56673
-4.15981
-3.64328
-2.80732
-1.94844
-1.3577
-0.24383
0.263572
0.48182
0.465109
0.111585
-0.122209
-0.651267
-0.67311
42.2736
39.2472
35.7956
19.9846
34.9625
32.2715
23.5783
12.7495
29.8495
30.2684
25.8472
19.5039
29.0703
29.3292
25.789
19.5255
-31.6689
-58.934
-2.66527
-6.59719
10.4687
1.62285
10.8976
1.6303
-28.9504
-4.19536
-2.62029
-10.3696
0.911344
1.11428
-3.58235
-9.2824
-5.67838
-10.617
-13.0176
-14.1816
-4.98729
-8.98868
-10.6836
-11.6376
-14.6075
-16.2643
-16.9317
-17.5514
-15.5105
-15.5268
-15.9855
-16.0404
-15.5296
-14.4065
-13.746
-13.003
-12.5859
-11.5403
-10.5373
-9.52468
-8.50609
-7.30076
-6.06572
-4.95181
-4.1798
-3.73016
-3.55762
-4.13887
-4.78938
-4.97148
-5.04523
-5.08453
-4.25316
-3.46876
-1.93798
-0.444371
1.00956
2.35263
2.42802
1.92436
0.781172
0.0717088
-0.790341
-1.06779
-14.2624
-17.309
-17.8668
-17.5308
-16.7826
-16.0559
-15.5855
-15.2812
-15.0578
-14.491
-13.921
-13.1956
-12.44
-11.4462
-10.4088
-9.48028
-8.58751
-7.55536
-6.57441
-5.80288
-5.31715
-4.84216
-4.39184
-4.46732
-4.64366
-4.81812
-4.56604
-4.14245
-3.35042
-2.54493
-1.56881
-0.616383
0.0684912
0.548107
0.713854
0.629344
0.244636
-0.100088
-0.300115
-0.388309
-15.1564
-16.3465
-16.9826
-16.8151
-16.2541
-15.5002
-15.0102
-14.5287
-14.3391
-14.0528
-13.6714
-13.1665
-12.3363
-11.3208
-10.1477
-9.20989
-8.42008
-7.66828
-6.70239
-5.73985
-5.00317
-4.6027
-4.39403
-4.23175
-4.16581
-4.12986
-3.90576
-3.55071
-3.15476
-2.56003
-1.92654
-1.10307
-0.306227
0.108925
0.51533
0.746475
0.917125
0.745398
0.407856
0.100941
-12.6385
-13.7626
-14.9283
-15.6419
-15.9743
-15.7031
-15.2239
-14.6974
-14.214
-13.851
-13.489
-13.1114
-12.3706
-11.3516
-10.1662
-9.11215
-8.36682
-7.77695
-7.0462
-6.14888
-5.38822
-4.958
-4.6864
-4.42219
-4.21089
-4.07441
-3.88206
-3.54416
-3.12283
-2.48924
-1.85898
-1.13696
-0.591467
-0.125993
0.277942
0.538344
0.659362
0.500871
0.300366
0.0439893
)
;

boundaryField
{
    inlet
    {
        type            zeroGradient;
    }
    outlet
    {
        type            fixedValue;
        value           uniform 0;
    }
    obstacle
    {
        type            zeroGradient;
    }
    upperWall
    {
        type            zeroGradient;
    }
    lowerWall
    {
        type            zeroGradient;
    }
    frontAndBack
    {
        type            empty;
    }
}


// ************************************************************************* //
