/*--------------------------------*- C++ -*----------------------------------*\
  =========                 |
  \\      /  F ield         | OpenFOAM: The Open Source CFD Toolbox
   \\    /   O peration     | Website:  https://openfoam.org
    \\  /    A nd           | Version:  10
     \\/     M anipulation  |
\*---------------------------------------------------------------------------*/
FoamFile
{
    format      ascii;
    class       surfaceScalarField;
    location    "6";
    object      phi;
}
// * * * * * * * * * * * * * * * * * * * * * * * * * * * * * * * * * * * * * //

dimensions      [0 3 -1 0 0 0 0];

internalField   nonuniform List<scalar> 
928
(
0.0962007
0.00379932
0.103156
-0.00695511
0.106895
-0.0037397
-0.00900641
0.115902
0.0948472
0.0089521
0.105703
-0.0178104
0.102698
-0.000735396
-0.0185822
0.112274
0.0955714
0.0133807
0.109426
-0.0316654
0.103637
0.00505416
-0.0400918
0.125146
0.103084
0.0102966
0.0931964
-0.0217776
0.0979332
0.000317293
0.145958
-0.0881168
0.110642
0.00525942
-0.0162895
0.126932
0.108951
0.00858207
-0.0408439
0.133506
0.126547
0.00718104
-0.0468148
0.132518
0.153139
0.106324
0.126228
0.000703684
0.126775
-0.000547064
0.127771
-0.000995183
-0.00222703
0.129998
0.134545
-0.000335838
0.133685
0.000313263
0.13368
-0.000990661
-0.00473682
0.13619
0.134522
-0.00233991
0.133633
0.00120271
0.136658
-0.00401549
-0.00643775
0.138359
0.111775
-0.00779061
0.0856076
0.0273702
0.0825847
-0.000992557
0.0901047
-0.0139578
0.131831
-0.00183328
0.133107
-0.00127636
0.133162
-5.42795e-05
0.132252
0.00090943
0.13167
0.000582236
0.1307
0.00096939
0.130225
0.000475826
0.129423
0.000801324
0.129025
0.000398634
0.128091
0.00093332
0.12728
0.000810945
0.12624
0.00104051
0.125135
0.0011052
0.124216
0.00091888
0.123074
0.00114141
0.122198
0.000876173
0.121002
0.00119595
0.119861
0.00114126
0.118461
0.00139994
0.116819
0.00164223
0.11506
0.00175881
0.113054
0.00200572
0.111305
0.00174969
0.109922
0.00138244
0.108936
0.000986361
0.108767
0.000168636
0.108708
5.8824e-05
0.109489
-0.000780883
0.109945
-0.000456041
0.110293
-0.000347609
0.110134
0.000159202
0.109
0.00113341
0.10755
0.00145058
0.104742
0.002808
0.102467
0.00227444
0.0995763
0.00289097
0.0980442
0.00153207
0.0969816
0.00106257
0.0972286
-0.000246995
-0.001354
0.138326
-0.00396883
0.138611
-0.00156161
0.138112
0.00044439
0.138235
0.000787139
0.13851
0.000306964
0.13831
0.00116899
0.138215
0.000570738
0.137406
0.00161038
0.137441
0.000364155
0.136495
0.00187936
0.136271
0.00103507
0.13533
0.0019806
0.134971
0.00146503
0.134545
0.00134453
0.134102
0.00158405
0.133767
0.00121124
0.132908
0.00205551
0.132198
0.00185078
0.130956
0.00264253
0.129941
0.00265663
0.128456
0.00324438
0.127229
0.00323209
0.125611
0.00336759
0.124614
0.00238023
0.123375
0.00222475
0.123304
0.000239571
0.123481
-0.000117506
0.124488
-0.00178836
0.125594
-0.00156222
0.126399
-0.00115194
0.127377
-0.000819658
0.126757
0.00175392
0.126547
0.00166036
0.124634
0.0047209
0.123351
0.00355753
0.12111
0.00513219
0.119257
0.00338482
0.118034
0.00228547
0.117376
0.000410941
-0.002353
0.135792
-0.00140181
0.133808
0.000422569
0.135065
-0.000813238
0.137078
-0.00122583
0.1366
0.000785082
0.13629
0.00147932
0.136152
0.000708649
0.136811
0.000951613
0.136085
0.00108919
0.135498
0.0024672
0.134647
0.00188567
0.134705
0.00192288
0.135067
0.0011023
0.134787
0.00162491
0.135217
0.001154
0.13497
0.00145803
0.135255
0.00177121
0.135122
0.00198339
0.13507
0.00269503
0.134998
0.00272844
0.134014
0.00422762
0.132875
0.00437196
0.131536
0.00470657
0.130337
0.00357912
0.129266
0.00329529
0.128194
0.00131184
0.127549
0.000527301
0.1272
-0.00143885
0.127464
-0.0018268
0.128342
-0.00202984
0.129661
-0.00213873
0.131103
0.000312435
0.132489
0.000274328
0.133023
0.00418675
0.132651
0.00392963
0.131576
0.00620679
0.130249
0.00471229
0.1293
0.00323444
0.127749
0.00196189
-0.00130315
0.0900286
-0.00132571
0.084998
0.00545323
0.0861869
-0.00200214
0.0896147
-0.00465369
0.0909413
-0.0005415
0.0840257
0.0083949
0.0876437
-0.00290928
0.0892396
-0.000644332
0.087681
0.00264777
0.0871965
0.00295173
0.0877646
0.00131754
0.0887213
0.000966178
0.0885661
0.00125754
0.0890401
0.00115093
0.0900364
0.000157707
0.0916611
-0.000166701
0.0934845
-5.22617e-05
0.0952429
0.000225089
0.0982358
-0.000297958
0.100871
9.33545e-05
0.102478
0.0026203
0.104063
0.00278683
0.104215
0.004555
0.100974
0.00682004
0.0978908
0.00637856
0.0936369
0.00556568
0.0900527
0.00411154
0.08672
0.0018938
0.0859152
-0.00102196
0.0871512
-0.00326588
0.0898328
-0.00482024
0.0943694
-0.00422416
0.0987686
-0.00412493
0.104681
-0.00172544
0.107884
0.000726279
0.110807
0.00328359
0.110795
0.0047243
0.107364
0.00666612
0.102446
0.00687956
0.00230532
0.110644
-0.00034709
0.0882896
0.000576479
0.0890115
-0.000404613
0.000894718
0.109907
-0.0102543
0.0882463
0.0222375
0.0875232
0.000318416
0.088418
0.00818645
-0.015977
0.017509
0.0180477
0.00126689
0.0152495
-0.035856
0.0231652
-0.00342768
-0.0125494
0.00499682
0.00962322
0.0173015
0.00294484
-0.0140319
-0.00452256
0.0128922
0.00894722
0.00207147
0.016274
-0.00429069
0.00436001
0.0131527
-0.0220971
0.005746
0.00686519
-0.00269695
0.0168379
0.00149366
-0.00709989
0.00297615
-0.00212682
0.00620992
-0.000586001
0.00665111
0.00251053
0.00569817
0.00227048
0.00587635
0.000788003
0.00811412
-0.000980228
0.0103897
-0.00112464
0.012652
-0.00210463
0.015359
-0.00287373
0.0174289
-0.0021221
0.0202326
-0.00257861
0.0225397
-0.00260505
0.024481
-0.00184793
0.0269872
0.000114084
0.0278116
0.00196246
0.0279486
0.00441796
0.0290252
0.00574342
0.0293445
0.00605926
0.028878
0.00603222
0.0302586
0.00273092
0.0317461
0.000406249
0.0327684
-0.0020442
0.035831
-0.00632848
0.0379793
-0.00696855
0.0412584
-0.00750329
0.0441038
-0.00697035
0.0459363
-0.00355794
0.047463
-0.000800344
0.0476116
0.0031349
0.046998
0.00533798
0.0457224
0.00794169
0.0443721
0.00822985
0.00203872
-0.00971515
0.00463043
0.00149878
0.00506006
0.00340445
0.00245435
-0.0100182
-0.00867444
-0.00995571
0.00680271
0.00719827
-0.000316127
0.00556768
-0.0054693
0.00237015
0.00107071
0.00394552
-0.00216136
0.00740102
-0.000944963
0.010009
-0.00033755
0.012657
-0.00186
0.0149745
-0.00329768
0.0168091
-0.00295928
0.0173778
-0.00267331
0.0177078
-0.00320366
0.0189563
-0.00337065
0.0208522
-0.0044745
0.0217865
-0.00353936
0.0222574
-0.00231887
0.0246726
-0.00230111
0.0266079
2.71801e-05
0.0290092
0.0020167
0.0333094
0.00144324
0.0361554
0.00321318
0.039242
0.00294569
0.0417468
0.000226096
0.0433308
-0.00117772
0.0447564
-0.00346985
0.0435427
-0.00511472
0.0424789
-0.00590475
0.0419007
-0.00692517
0.0408838
-0.00595345
0.0409722
-0.0036463
0.0418169
-0.00164508
0.0437818
0.00117007
0.045618
0.00350172
0.0487938
0.00476587
0.0518256
0.00519811
0.00109866
0.10343
-0.0136844
0.0947177
0.0309499
0.0997385
-0.00470239
0.0401502
0.148006
0.0957289
-0.00941336
0.107517
0.0191617
0.103664
-0.000849456
0.0199062
0.123908
0.0947898
-0.00420314
0.105969
0.00798281
0.102312
0.00280686
0.0100131
0.112205
0.0957969
0.10378
0.106587
0.1166
0.157322
-0.00931617
0.0438369
0.113486
0.1244
-0.00980845
0.0413431
0.126894
0.10788
-0.00548251
0.0156918
0.133531
0.111117
0.126809
0.10156
-0.000624051
0.109262
0.00192171
0.109345
0.00286111
0.00420995
0.100613
0.128129
-0.00185828
0.131665
-0.00161431
0.131453
0.00307311
0.00383421
0.131828
0.132455
-0.000782694
0.13107
-0.000229103
0.13234
0.00180298
0.00170831
0.134466
0.126026
0.125797
0.1276
0.129308
0.101975
0.00326865
0.106292
0.000742341
0.106645
0.00210225
0.0985435
-0.000573382
0.10353
0.00181579
0.103022
0.000192095
0.0994561
-0.00190319
0.101793
-0.00126579
0.101865
-0.00223367
0.102268
-0.00134803
0.10424
-0.0023095
0.104217
-0.00183663
0.104169
-0.00324971
0.104085
-0.00287609
0.104568
-0.00315598
0.104205
-0.00284091
0.103446
-0.00261144
0.101231
-0.00225941
0.0992944
-0.00160275
0.0980076
-0.00103203
0.0958199
-0.000113401
0.0958769
-2.98761e-05
0.0962977
0.00159595
0.097441
0.000299871
0.100166
0.000487916
0.104927
-0.00181544
0.107793
-0.00263908
0.112222
-0.00560748
0.114624
-0.00587159
0.11581
-0.00630051
0.115194
-0.00528853
0.111222
-0.00295328
0.107449
-0.00218064
0.101703
0.00210006
0.0982276
0.00182995
0.0947928
0.00460489
0.0948957
0.00339875
0.096961
0.00270066
0.100306
0.00185352
-0.0023005
0.130923
0.00417386
0.131168
0.000496915
0.132384
0.000887064
0.132033
-0.000222597
0.134149
-0.00030021
0.134285
5.562e-05
0.133144
-0.000762235
0.132188
-0.000309443
0.132004
-0.00205003
0.131988
-0.0013318
0.132216
-0.00253712
0.132038
-0.00165896
0.131113
-0.00232451
0.130228
-0.0019916
0.129494
-0.00242174
0.128835
-0.0021814
0.128395
-0.00217195
0.127892
-0.00175658
0.127396
-0.00110679
0.127097
-0.000733053
0.126944
4.0428e-05
0.126971
-5.76951e-05
0.12799
0.000577524
0.128672
-0.000382332
0.12966
-0.000499607
0.1305
-0.00265536
0.130389
-0.00252847
0.12914
-0.00435858
0.127269
-0.00400098
0.12521
-0.00424127
0.123536
-0.00361436
0.121959
-0.00137589
0.120517
-0.000738765
0.120341
0.00227557
0.120308
0.0018628
0.121285
0.00362788
0.122646
0.00203818
0.124175
0.00117116
0.126194
-0.000164887
-0.00297136
0.136575
0.00206523
0.136201
0.000870295
0.136725
0.000363193
0.137091
-0.000588529
0.137322
-0.000530981
0.137645
-0.000268052
0.137347
-0.000463907
0.137297
-0.000258985
0.135998
-0.000750956
0.135571
-0.000904968
0.134552
-0.00151873
0.134145
-0.00125119
0.133136
-0.00131549
0.132342
-0.00119788
0.131149
-0.00122924
0.130196
-0.00122785
0.12933
-0.00130647
0.128664
-0.00109014
0.128356
-0.00079921
0.128025
-0.00040207
0.128327
-0.000260842
0.128486
-0.000217374
0.129256
-0.000192056
0.129325
-0.000451815
0.129458
-0.00063261
0.1284
-0.00159663
0.127618
-0.00174683
0.125874
-0.00261425
0.124121
-0.00224815
0.122221
-0.00234182
0.120133
-0.00152605
0.11943
-0.00067276
0.118728
-3.66897e-05
0.119737
0.00126629
0.120579
0.00102073
0.122384
0.00182298
0.123846
0.000576002
0.124845
0.000172975
0.125609
-0.000929695
-0.0021803
0.131374
0.132244
0.132607
0.132019
0.131488
0.13122
0.130756
0.130497
0.129746
0.128841
0.127322
0.126071
0.124755
0.123557
0.122328
0.1211
0.119794
0.118704
0.117905
0.117502
0.117242
0.117024
0.116832
0.11638
0.115748
0.114151
0.112404
0.10979
0.107542
0.1052
0.103674
0.103001
0.102965
0.104231
0.105252
0.107075
0.107651
0.107824
0.106894
)
;

boundaryField
{
    inlet
    {
        type            calculated;
        value           nonuniform List<scalar> 10(-0.1 -0.1 -0.1 -0.1 -0.1 -0.1 -0.1 -0.1 -0.1 -0.1);
    }
    outlet
    {
        type            calculated;
        value           nonuniform List<scalar> 10(0.0985826 0.118375 0.126699 0.0988375 0.0446387 0.0527656 0.103705 0.126865 0.124818 0.104714);
    }
    obstacle
    {
        type            calculated;
        value           uniform 0;
    }
    upperWall
    {
        type            calculated;
        value           uniform 0;
    }
    lowerWall
    {
        type            calculated;
        value           uniform 0;
    }
    frontAndBack
    {
        type            empty;
        value           nonuniform List<scalar> 0();
    }
}


// ************************************************************************* //
