/*--------------------------------*- C++ -*----------------------------------*\
  =========                 |
  \\      /  F ield         | OpenFOAM: The Open Source CFD Toolbox
   \\    /   O peration     | Website:  https://openfoam.org
    \\  /    A nd           | Version:  10
     \\/     M anipulation  |
\*---------------------------------------------------------------------------*/
FoamFile
{
    format      ascii;
    class       volVectorField;
    location    "6";
    object      U;
}
// * * * * * * * * * * * * * * * * * * * * * * * * * * * * * * * * * * * * * //

dimensions      [0 1 -1 0 0 0 0];

internalField   nonuniform List<vector> 
496
(
(9.95846 0.0728293 0)
(9.94935 -0.140038 0)
(10.1537 -0.139296 0)
(10.7512 -0.190096 0)
(9.99448 0.500648 0)
(9.86741 -1.20055 0)
(10.1656 -0.360894 0)
(10.8651 -1.04278 0)
(10.6814 1.38626 0)
(9.23937 -2.96029 0)
(11.1183 -0.210678 0)
(10.8559 -4.03245 0)
(11.8704 1.67745 0)
(8.34264 -2.74535 0)
(12.5375 1.0117 0)
(10.4357 -6.66447 0)
(11.401 -0.229343 3.37425e-18)
(12.1335 -0.199331 -8.19092e-19)
(11.5747 -0.425401 -2.33032e-19)
(12.4958 0.203227 1.54455e-18)
(12.9786 -2.18584 -3.14545e-18)
(13.1972 -0.416825 -7.24695e-19)
(12.8648 -5.17387 -3.40302e-17)
(15.817 -4.5366 6.27367e-17)
(12.662 -0.179212 0)
(12.9661 -0.208695 0)
(13.1278 -0.0852942 0)
(13.158 -0.0280354 0)
(13.0379 0.19071 0)
(13.4362 -0.203449 0)
(13.7465 -0.478644 0)
(13.792 -0.792163 0)
(12.7138 0.65944 0)
(12.6672 1.11757 0)
(13.0535 0.9435 0)
(13.0724 0.462025 0)
(10.5291 -2.48482 0)
(9.97447 -1.52583 0)
(7.16899 -2.41487 0)
(8.27768 -1.15244 0)
(13.2101 0.107023 0)
(13.2176 0.202219 0)
(13.3047 0.30817 0)
(13.2532 0.377354 0)
(13.2871 0.360885 0)
(13.13 0.387489 0)
(13.1552 0.321006 0)
(12.9614 0.331962 0)
(12.9891 0.270592 0)
(12.7968 0.299013 0)
(12.8341 0.272375 0)
(12.6672 0.29121 0)
(12.6461 0.276217 0)
(12.4587 0.273556 0)
(12.3721 0.275017 0)
(12.23 0.269195 0)
(12.1589 0.286648 0)
(12.0562 0.279478 0)
(11.9399 0.290524 0)
(11.7643 0.277119 0)
(11.5998 0.277583 0)
(11.3797 0.264837 0)
(11.2207 0.269673 0)
(11.0203 0.251455 0)
(10.9592 0.231949 0)
(10.8489 0.169216 0)
(10.9106 0.138376 0)
(10.8505 0.0925331 0)
(11.0071 0.0884876 0)
(10.9254 0.0978045 0)
(11.1234 0.120046 0)
(10.8988 0.175048 0)
(10.9759 0.170666 0)
(10.5478 0.235654 0)
(10.4224 0.222284 0)
(10.0396 0.285812 0)
(9.83619 0.250792 0)
(9.79401 0.2401 0)
(9.6269 0.176064 0)
(9.85983 0.090648 0)
(13.9387 -0.741534 0)
(13.9181 -0.626445 0)
(14.045 -0.386032 0)
(13.8808 -0.259312 0)
(13.9405 -0.211349 0)
(13.7643 -0.128445 0)
(13.8198 -0.169958 0)
(13.687 -0.10456 0)
(13.7475 -0.151439 0)
(13.6689 -0.0716947 0)
(13.6885 -0.081155 0)
(13.6318 -0.0429877 0)
(13.5731 -0.0308659 0)
(13.5093 -0.0621347 0)
(13.4086 -0.0259095 0)
(13.3775 -0.0609785 0)
(13.3053 -0.00163726 0)
(13.2727 0.00135087 0)
(13.1753 0.0382293 0)
(13.0518 0.0842954 0)
(12.9319 0.0828854 0)
(12.7567 0.119529 0)
(12.6588 0.0505726 0)
(12.4545 0.00845068 0)
(12.4244 -0.0480371 0)
(12.2717 -0.130307 0)
(12.3989 -0.114048 0)
(12.3191 -0.234352 0)
(12.546 -0.158912 0)
(12.5147 -0.152376 0)
(12.7659 -0.0375246 0)
(12.6804 0.104452 0)
(12.7503 0.150094 0)
(12.5603 0.324296 0)
(12.402 0.194706 0)
(12.2366 0.234879 0)
(11.9509 0.0033817 0)
(11.9354 -0.0799866 0)
(11.7013 -0.24016 0)
(11.8375 -0.356765 0)
(13.5921 0.309455 0)
(13.8373 0.306528 0)
(13.9336 0.389334 0)
(13.8062 0.312043 0)
(13.647 0.211625 0)
(13.7141 0.304605 0)
(13.509 0.219266 0)
(13.6391 0.322001 0)
(13.4859 0.186078 0)
(13.6266 0.363425 0)
(13.5396 0.2334 0)
(13.606 0.356906 0)
(13.5173 0.28153 0)
(13.4713 0.292303 0)
(13.4807 0.301597 0)
(13.4231 0.252925 0)
(13.542 0.344188 0)
(13.4767 0.312987 0)
(13.5968 0.446027 0)
(13.4649 0.443415 0)
(13.5295 0.601129 0)
(13.2836 0.597418 0)
(13.2849 0.695915 0)
(12.9754 0.515117 0)
(13.0639 0.488907 0)
(12.8001 0.145155 0)
(12.8642 0.0408006 0)
(12.6389 -0.209097 0)
(12.7379 -0.229158 0)
(12.7793 -0.143425 0)
(12.826 -0.167388 0)
(13.1269 0.21427 0)
(13.1224 0.194579 0)
(13.4143 0.677745 0)
(13.2187 0.626427 0)
(13.2644 0.94023 0)
(13.0627 0.784694 0)
(12.9505 0.616855 0)
(12.9015 0.29961 0)
(12.6635 -0.18327 0)
(7.84356 -0.434807 0)
(9.38381 -0.207923 0)
(9.0359 -0.410995 0)
(8.62337 -0.270866 0)
(8.38288 0.0833389 0)
(8.92531 -0.0734243 0)
(8.9193 -0.0268706 0)
(8.62428 -0.0347342 0)
(8.51709 0.0965738 0)
(9.12643 0.0988711 0)
(8.46591 0.089113 0)
(9.37582 0.0476267 0)
(8.35701 0.0136219 0)
(9.28716 0.0453958 0)
(8.58764 -0.0188944 0)
(9.21631 0.0133528 0)
(9.14108 -0.0292713 0)
(9.45574 -0.0172249 0)
(9.80409 -0.0351058 0)
(9.75843 -0.0133616 0)
(10.388 0.0909284 0)
(10.2038 0.139187 0)
(10.6116 0.233494 0)
(10.1064 0.267178 0)
(10.2178 0.306457 0)
(9.35897 0.238314 0)
(9.30896 0.193386 0)
(8.61351 0.124518 0)
(8.70122 -0.00255416 0)
(8.59032 -0.152918 0)
(8.64903 -0.256418 0)
(9.45825 -0.22469 0)
(9.34472 -0.252821 0)
(10.534 -0.0668838 0)
(10.3135 -0.0408466 0)
(11.3141 0.132615 0)
(10.9762 0.154543 0)
(11.0535 0.118992 0)
(10.6715 0.215433 0)
(9.80994 0.0823397 0)
(12.3495 0.509262 -1.08294e-17)
(7.89235 -0.722666 -1.81771e-17)
(11.6559 -0.0799637 3.18671e-17)
(4.85925 -4.55551 -8.55403e-17)
(11.7821 -0.61168 1.08047e-17)
(8.42709 0.903448 1.82314e-17)
(11.0047 -0.0221311 -3.18902e-17)
(5.32983 4.81126 8.55935e-17)
(-12.0885 1.84213 0)
(15.6246 5.75044 0)
(-8.51881 2.5597 0)
(7.10792 -3.35012 0)
(7.17674 -6.40559 3.75392e-17)
(-4.90436 -0.190721 0)
(5.17528 -0.138923 0)
(-2.34411 -2.21759 0)
(-0.932028 -0.0514835 0)
(3.31757 1.6039 0)
(-2.91766 -0.0303063 0)
(1.59442 -1.26677 0)
(1.72908 -0.329437 0)
(-0.717877 2.16687 0)
(0.297494 -0.522427 0)
(-0.118962 -0.202639 0)
(0.57955 0.30088 0)
(0.903421 0.598062 0)
(0.551963 0.281597 0)
(0.414794 0.223418 0)
(0.711236 0.177345 0)
(1.08859 0.184551 0)
(0.92544 0.0341246 0)
(1.47921 -0.0577135 0)
(1.58147 0.0239202 0)
(1.97424 0.102724 0)
(2.23919 0.0124992 0)
(2.03231 0.00992867 0)
(2.94001 0.416022 0)
(2.69446 0.417636 0)
(2.55196 0.549085 0)
(3.19729 0.890553 0)
(2.81897 0.791072 0)
(2.81233 0.637993 0)
(2.92192 0.423436 0)
(3.29874 0.146977 0)
(2.96371 -0.14564 0)
(3.54283 -0.49142 0)
(3.62924 -0.598398 0)
(3.97613 -0.511116 0)
(4.33742 -0.474728 0)
(4.41446 -0.219122 0)
(4.72303 0.115005 0)
(4.93783 0.471926 0)
(4.50236 0.629049 0)
(4.86759 0.93667 0)
(4.36342 0.868918 0)
(4.43955 0.269067 0)
(-1.45452 1.11242 0)
(0.533247 0.95804 0)
(-0.593222 0.484185 0)
(1.62112 -2.0847 0)
(-3.66846 1.47346 0)
(1.07641 0.213691 0)
(0.946402 -1.11004 0)
(-0.0347402 -0.0335052 0)
(0.312007 -0.397958 0)
(0.714485 -0.185744 0)
(0.626493 0.00787356 0)
(1.18853 -0.159226 0)
(1.47509 -0.42499 0)
(1.64579 -0.442024 0)
(1.73791 -0.409312 0)
(1.65399 -0.454824 0)
(1.76561 -0.414838 0)
(2.10684 -0.616974 0)
(2.2945 -0.484002 0)
(1.84782 -0.315518 0)
(2.58166 -0.321824 0)
(2.61195 0.028685 0)
(2.40376 0.32953 0)
(3.45052 0.183566 0)
(3.4889 0.318736 0)
(3.45285 0.429082 0)
(4.43262 0.0238609 0)
(4.06163 -0.157574 0)
(4.51195 -0.426679 0)
(4.57758 -0.698883 0)
(3.93243 -0.764906 0)
(4.70237 -0.920264 0)
(3.7279 -0.784436 0)
(4.25264 -0.446272 0)
(4.0724 -0.204101 0)
(4.20331 0.199657 0)
(4.5789 0.434537 0)
(4.51635 0.618426 0)
(5.10865 0.67458 0)
(5.30666 0.11347 0)
(12.7544 -1.5724 0)
(7.50582 2.57067 0)
(13.7895 -0.764904 0)
(9.56044 6.45102 0)
(10.9882 -1.48437 0)
(8.86195 3.05961 0)
(11.2626 -0.0374301 0)
(10.568 4.20987 0)
(10.1449 -0.555123 0)
(9.70208 1.37573 0)
(10.3072 0.286199 0)
(10.7253 1.20553 0)
(9.97532 -0.099691 0)
(9.8945 0.222316 0)
(10.2238 0.0926876 0)
(10.7406 0.220273 0)
(14.1133 5.45554 3.61322e-17)
(15.105 4.24657 -6.68183e-17)
(12.8541 1.9019 0)
(12.8995 0.417253 0)
(11.6712 0.410754 0)
(12.4233 -0.200095 0)
(11.4739 0.205348 0)
(12.1364 0.142869 0)
(12.3811 2.74387 0)
(10.8172 2.11091 0)
(8.12577 1.23471 0)
(11.4297 1.44647 0)
(11.9749 -1.32356 0)
(12.3861 -1.33489 0)
(12.328 -0.598639 0)
(13.1033 -0.462845 0)
(12.98 -0.133865 0)
(13.3606 0.255043 0)
(13.5139 0.654334 0)
(13.6221 0.723556 0)
(12.6927 0.17521 0)
(12.8945 0.0723012 0)
(13.0775 0.0639083 0)
(13.0553 -0.0908755 0)
(9.56994 0.536551 0)
(11.4304 0.440497 0)
(9.3054 0.383362 0)
(11.1086 0.1491 0)
(10.0654 0.418723 0)
(9.60114 0.0813301 0)
(10.3945 0.021019 0)
(9.97914 0.115282 0)
(10.5332 0.0273871 0)
(9.95728 0.0379563 0)
(10.637 -0.0092566 0)
(9.96645 -0.0428592 0)
(10.7399 -0.138349 0)
(10.2586 -0.117655 0)
(10.6389 -0.165109 0)
(10.3264 -0.144292 0)
(10.419 -0.164631 0)
(10.2367 -0.126195 0)
(10.0223 -0.128164 0)
(9.9427 -0.0514587 0)
(9.48368 -0.0232532 0)
(9.83364 0.0353082 0)
(9.21978 0.180084 0)
(9.91068 0.154513 0)
(9.69196 0.223865 0)
(10.4456 0.1614 0)
(10.3857 0.0842362 0)
(11.2477 -0.103643 0)
(11.2398 -0.181968 0)
(11.6574 -0.280672 0)
(11.637 -0.253025 0)
(11.2294 -0.220267 0)
(11.1868 -0.197554 0)
(10.165 -0.0890385 0)
(10.1872 -0.0503813 0)
(9.4088 0.157798 0)
(9.51926 0.256882 0)
(9.58831 0.336298 0)
(9.66925 0.360087 0)
(10.418 0.0882348 0)
(13.1182 -0.236924 0)
(13.6073 -0.419599 0)
(13.443 -0.229083 0)
(13.4465 -0.342007 0)
(13.4317 -0.306437 0)
(13.1932 -0.209337 0)
(13.3928 -0.350161 0)
(13.1237 -0.260118 0)
(13.4333 -0.513085 0)
(13.101 -0.369729 0)
(13.3851 -0.559457 0)
(13.0618 -0.429503 0)
(13.2743 -0.541424 0)
(12.977 -0.482598 0)
(13.0854 -0.510348 0)
(12.8666 -0.492076 0)
(12.9218 -0.451062 0)
(12.7734 -0.426486 0)
(12.7439 -0.290503 0)
(12.7183 -0.259942 0)
(12.662 -0.0948187 0)
(12.739 -0.121543 0)
(12.661 0.0101109 0)
(12.8601 -0.123918 0)
(12.8731 -0.11138 0)
(13.0963 -0.411166 0)
(13.0192 -0.458846 0)
(13.0389 -0.78265 0)
(12.8197 -0.841669 0)
(12.6214 -0.910436 0)
(12.4648 -0.864967 0)
(12.1857 -0.472929 0)
(12.211 -0.365207 0)
(11.9154 0.226416 0)
(12.1124 0.171539 0)
(11.9595 0.483195 0)
(12.2551 0.297078 0)
(12.2654 0.142455 0)
(12.5422 0.0325145 0)
(12.7028 -0.455268 0)
(13.6726 0.771073 0)
(13.8025 0.547172 0)
(13.8234 0.462034 0)
(13.8319 0.317727 0)
(13.7663 0.297427 0)
(13.7209 0.266361 0)
(13.6846 0.253206 0)
(13.642 0.242689 0)
(13.6446 0.193255 0)
(13.5841 0.17667 0)
(13.5784 0.128268 0)
(13.471 0.131012 0)
(13.4362 0.106143 0)
(13.2532 0.122512 0)
(13.2026 0.100031 0)
(13.0131 0.119504 0)
(13.0311 0.0828338 0)
(12.8674 0.116885 0)
(12.9018 0.122285 0)
(12.7356 0.172074 0)
(12.8373 0.156449 0)
(12.7735 0.158465 0)
(12.9232 0.153471 0)
(12.8927 0.110598 0)
(12.9724 0.0758894 0)
(12.8996 -0.0669251 0)
(12.8241 -0.0745585 0)
(12.6948 -0.168686 0)
(12.4911 -0.0616974 0)
(12.3377 -0.0331944 0)
(12.0918 0.0913453 0)
(11.9575 0.182209 0)
(11.8896 0.229329 0)
(11.8754 0.366233 0)
(12.0767 0.325396 0)
(12.0599 0.40532 0)
(12.3937 0.223081 0)
(12.3456 0.172608 0)
(12.6123 -0.0458453 0)
(12.4838 -0.150084 0)
(13.1831 -0.111366 0)
(13.1853 -0.241863 0)
(13.2957 -0.309154 0)
(13.2734 -0.363301 0)
(13.2828 -0.405474 0)
(13.2107 -0.356597 0)
(13.1316 -0.393695 0)
(13.0674 -0.333422 0)
(12.9686 -0.384863 0)
(12.9166 -0.354858 0)
(12.8118 -0.402448 0)
(12.7377 -0.389226 0)
(12.6114 -0.404568 0)
(12.4389 -0.395661 0)
(12.305 -0.387533 0)
(12.0972 -0.382957 0)
(12.0605 -0.369749 0)
(11.8867 -0.363687 0)
(11.9121 -0.326413 0)
(11.7014 -0.290112 0)
(11.7807 -0.245175 0)
(11.6181 -0.233888 0)
(11.7683 -0.218546 0)
(11.5823 -0.246336 0)
(11.6878 -0.257704 0)
(11.4409 -0.310112 0)
(11.4132 -0.310759 0)
(11.0781 -0.367922 0)
(10.8983 -0.364318 0)
(10.6131 -0.395628 0)
(10.4101 -0.367286 0)
(10.3212 -0.306524 0)
(10.2527 -0.261514 0)
(10.3718 -0.149213 0)
(10.4898 -0.159995 0)
(10.5833 -0.0912011 0)
(10.8079 -0.137456 0)
(10.6579 -0.171238 0)
(10.899 -0.217644 0)
(10.4747 -0.304937 0)
)
;

boundaryField
{
    inlet
    {
        type            fixedValue;
        value           uniform (10 0 0);
    }
    outlet
    {
        type            zeroGradient;
    }
    obstacle
    {
        type            noSlip;
    }
    upperWall
    {
        type            noSlip;
    }
    lowerWall
    {
        type            noSlip;
    }
    frontAndBack
    {
        type            empty;
    }
}


// ************************************************************************* //
