/*--------------------------------*- C++ -*----------------------------------*\
  =========                 |
  \\      /  F ield         | OpenFOAM: The Open Source CFD Toolbox
   \\    /   O peration     | Website:  https://openfoam.org
    \\  /    A nd           | Version:  10
     \\/     M anipulation  |
\*---------------------------------------------------------------------------*/
FoamFile
{
    format      ascii;
    class       volScalarField;
    location    "4.875";
    object      p;
}
// * * * * * * * * * * * * * * * * * * * * * * * * * * * * * * * * * * * * * //

dimensions      [0 2 -2 0 0 0 0];

internalField   nonuniform List<scalar> 
400
(
-1.81478e-10
-2.48218e-05
5.57245e-06
6.79316e-05
0.000168467
0.000308024
0.000487632
0.000708228
0.000969943
0.00127147
0.00160941
0.00197756
0.00236637
0.00276178
0.00314574
0.00349665
0.00379036
0.00400293
0.00412896
0.0041161
2.55199e-05
-1.42814e-07
3.29097e-05
9.4142e-05
0.000191312
0.000325948
0.000499539
0.000713409
0.000968066
0.00126264
0.00159417
0.00195655
0.00234173
0.0027355
0.00312003
0.00347357
0.00377128
0.00398883
0.00412204
0.00410766
-9.15356e-06
-4.05821e-05
-9.15126e-06
4.91009e-05
0.000142742
0.00027356
0.000443516
0.000654605
0.000908147
0.00120417
0.00154071
0.00191336
0.00231368
0.00272816
0.00313817
0.00352004
0.00384545
0.00408514
0.00423321
0.00421255
-8.32912e-05
-0.000119172
-9.01585e-05
-3.6033e-05
5.27069e-05
0.000178268
0.000343359
0.000551008
0.000803802
0.00110328
0.00144906
0.0018375
0.00226376
0.00271339
0.00316724
0.00359847
0.00397277
0.00425243
0.00442785
0.00440419
-0.000202571
-0.000242984
-0.000217373
-0.000168634
-8.6227e-05
3.25936e-05
0.0001915
0.000394873
0.000647053
0.000951744
0.00131123
0.00172548
0.00218656
0.00268667
0.00320495
0.00371068
0.00416146
0.0045055
0.00472559
0.00470174
-0.000366714
-0.00041241
-0.000391321
-0.000349635
-0.000275708
-0.000166188
-1.62794e-05
0.00018002
0.000429221
0.000737813
0.00111132
0.00155279
0.00206087
0.00262822
0.00323504
0.00384689
0.004411
0.00485499
0.00514613
0.00512761
-0.000575067
-0.000627134
-0.000611891
-0.000579492
-0.000517139
-0.000420895
-0.000284776
-0.000100971
0.000139585
0.00044687
0.000830962
0.00130038
0.00185989
0.00250844
0.00322938
0.00398625
0.0047142
0.00531276
0.00571758
0.00571948
-0.000827089
-0.000886849
-0.000878993
-0.000858666
-0.000811945
-0.000734471
-0.000619166
-0.000456403
-0.000234352
6.10331e-05
0.000445629
0.000935684
0.0015443
0.0022819
0.00314079
0.00408813
0.00504826
0.00588644
0.00647741
0.00654107
-0.0011221
-0.001191
-0.00119211
-0.001187
-0.00116075
-0.00110896
-0.0010238
-0.000894122
-0.000705503
-0.000439696
-7.4275e-05
0.000416937
0.00106218
0.00187932
0.00288991
0.0040739
0.00535446
0.00656235
0.00747045
0.007704
-0.00145925
-0.00153875
-0.00155008
-0.00156323
-0.00156266
-0.00154447
-0.00150077
-0.00141966
-0.0012849
-0.00107476
-0.000760732
-0.000306345
0.000332072
0.00120042
0.00234908
0.00379538
0.00549438
0.00726764
0.00874033
0.00941044
-0.0018378
-0.00192916
-0.00195094
-0.0019846
-0.0020144
-0.00203787
-0.00204808
-0.00203363
-0.00197816
-0.00185856
-0.00164248
-0.00128521
-0.000726048
0.000113253
0.00130745
0.00296801
0.00514458
0.00774708
0.0102398
0.0119334
-0.0022579
-0.00236179
-0.0023921
-0.0024465
-0.00250967
-0.00258161
-0.00265763
-0.00272854
-0.00278037
-0.00279246
-0.00273424
-0.00256031
-0.00220241
-0.00156067
-0.000509276
0.00109757
0.00357425
0.00715952
0.0113346
0.0150025
-0.00272226
-0.00283821
-0.00287121
-0.0029429
-0.00303869
-0.0031625
-0.00331345
-0.00348625
-0.00367238
-0.00385876
-0.00402523
-0.0041404
-0.00415511
-0.00399304
-0.00354717
-0.00265136
-0.000839542
0.00303344
0.00899495
0.0159057
-0.00323589
-0.0033554
-0.00337518
-0.00345436
-0.00357942
-0.00375681
-0.00398807
-0.0042735
-0.00461316
-0.00500682
-0.00545439
-0.00595703
-0.00652202
-0.00717904
-0.00804886
-0.00930466
-0.0106107
-0.00892547
-0.0025057
0.00875998
-0.0038322
-0.00396772
-0.00396188
-0.00404141
-0.00417547
-0.0043832
-0.00467555
-0.00506199
-0.00555378
-0.0061678
-0.00693333
-0.00790091
-0.00917609
-0.010965
-0.0138028
-0.0184825
-0.0256476
-0.0281729
-0.0223787
-0.00565344
-0.00458954
-0.00452375
-0.00441731
-0.00442074
-0.00455369
-0.00481523
-0.00520097
-0.0057124
-0.00636384
-0.00718359
-0.00822871
-0.00960582
-0.011541
-0.0143766
-0.0191664
-0.0268029
-0.0397103
-0.0465618
-0.0425979
-0.0186762
-0.00507046
-0.0055055
-0.00526718
-0.00533812
-0.0054093
-0.00560989
-0.00595405
-0.00646304
-0.00715947
-0.00807357
-0.00927402
-0.010869
-0.0131844
-0.0164811
-0.0224324
-0.0305922
-0.0462267
-0.0539013
-0.0498816
-0.0138837
-0.00839054
-0.00587235
-0.00532987
-0.00487127
-0.00492139
-0.00523984
-0.00576679
-0.00645488
-0.00731655
-0.00835976
-0.00967603
-0.0113137
-0.0137253
-0.0167882
-0.0224438
-0.0301841
-0.0419546
-0.0459925
-0.0351817
0.0177078
-0.00518248
-0.00811688
-0.00717314
-0.00730951
-0.00703101
-0.00698121
-0.00713313
-0.00752061
-0.00816988
-0.00902999
-0.0102003
-0.0116364
-0.0138069
-0.0166885
-0.0217864
-0.0280049
-0.0360003
-0.0299069
-0.00240513
0.0822368
-0.0301178
-0.00514226
-0.00385441
-0.00323005
-0.00317458
-0.0035831
-0.00434412
-0.00520687
-0.0062932
-0.00745915
-0.00895589
-0.0107131
-0.0130837
-0.0159336
-0.0194578
-0.0209399
-0.0173723
0.0115765
0.0816389
0.220484
)
;

boundaryField
{
    movingWall
    {
        type            zeroGradient;
    }
    fixedWalls
    {
        type            zeroGradient;
    }
    frontAndBack
    {
        type            empty;
    }
}


// ************************************************************************* //
