/*--------------------------------*- C++ -*----------------------------------*\
  =========                 |
  \\      /  F ield         | OpenFOAM: The Open Source CFD Toolbox
   \\    /   O peration     | Website:  https://openfoam.org
    \\  /    A nd           | Version:  10
     \\/     M anipulation  |
\*---------------------------------------------------------------------------*/
FoamFile
{
    format      ascii;
    class       volScalarField;
    location    "4.95";
    object      p;
}
// * * * * * * * * * * * * * * * * * * * * * * * * * * * * * * * * * * * * * //

dimensions      [0 2 -2 0 0 0 0];

internalField   nonuniform List<scalar> 
400
(
8.95518e-09
-2.42059e-05
7.45597e-06
7.18615e-05
0.000175221
0.000318416
0.000502529
0.000728558
0.00099669
0.00130565
0.00165201
0.00202945
0.00242838
0.00283431
0.00322878
0.00358959
0.00389184
0.00411084
0.00424084
0.00422878
2.49773e-05
-7.327e-08
3.43454e-05
9.76943e-05
0.000197736
0.000336039
0.000514152
0.000733465
0.000994547
0.00129657
0.00163654
0.00200803
0.00240357
0.00280795
0.00320313
0.00356678
0.00387326
0.00409746
0.00423488
0.00422128
-1.10199e-05
-4.19002e-05
-9.10955e-06
5.12302e-05
0.000147694
0.000282112
0.000456516
0.000672982
0.000932923
0.00123649
0.00158184
0.0019648
0.00237495
0.0028004
0.00322179
0.00361466
0.00394978
0.00419687
0.00434962
0.00432956
-8.74456e-05
-0.000122805
-9.24559e-05
-3.62999e-05
5.51732e-05
0.000184217
0.00035362
0.000566511
0.000825601
0.00113259
0.0014873
0.0018868
0.00232314
0.00278471
0.00325129
0.00369513
0.00408077
0.00436916
0.0045501
0.00452689
-0.000209961
-0.000249857
-0.000222965
-0.000172293
-8.72972e-05
3.48192e-05
0.000197819
0.000406207
0.000664465
0.000976439
0.00134446
0.00176799
0.00224218
0.00275611
0.00328915
0.00380984
0.00427446
0.00462935
0.00485634
0.00483275
-0.000378252
-0.000423422
-0.000401134
-0.000357657
-0.000281351
-0.000168808
-1.51305e-05
0.000185828
0.000440765
0.000756382
0.00113843
0.00159021
0.00211156
0.00269434
0.00331841
0.00394848
0.00453012
0.0049883
0.00528857
0.00527007
-0.000591587
-0.000643112
-0.000626782
-0.000592781
-0.000528335
-0.00042945
-0.000290033
-0.000102107
0.000143624
0.000457453
0.000849884
0.00132999
0.00190308
0.0025686
0.00330973
0.0040891
0.00483984
0.00545793
0.00587561
0.00587737
-0.00084932
-0.000908518
-0.000899716
-0.000878028
-0.000829584
-0.000749978
-0.000632032
-0.000465948
-0.000239638
6.13313e-05
0.000453384
0.000953442
0.00157525
0.00233147
0.00321367
0.00418879
0.00517912
0.00604526
0.00665579
0.00671987
-0.00115063
-0.00121895
-0.00121928
-0.00121309
-0.00118557
-0.00113229
-0.00104535
-0.000913484
-0.000722005
-0.000452248
-8.11223e-05
0.000418612
0.00107676
0.00191141
0.00294712
0.00416442
0.00548503
0.00673433
0.00767475
0.00791194
-0.00149451
-0.00157339
-0.00158411
-0.00159649
-0.00159514
-0.00157621
-0.00153181
-0.00145
-0.00131436
-0.00110283
-0.000786269
-0.000327165
0.000319695
0.00120183
0.00237573
0.00385901
0.0056091
0.00744469
0.00897468
0.00966149
-0.00188001
-0.00197072
-0.00199204
-0.0020252
-0.00205471
-0.00207821
-0.00208892
-0.00207554
-0.00202175
-0.00190432
-0.00169048
-0.00133463
-0.000774298
7.18393e-05
0.00127899
0.00297099
0.0052025
0.00789484
0.0104937
0.0122116
-0.00230706
-0.00241025
-0.00244019
-0.00249426
-0.00255753
-0.0026302
-0.00270789
-0.00278175
-0.00283819
-0.00285685
-0.00280744
-0.00264457
-0.00229954
-0.0016707
-0.000629266
0.000968274
0.00346997
0.00715616
0.0115014
0.0152048
-0.00277815
-0.00289338
-0.00292601
-0.00299737
-0.00309338
-0.00321831
-0.00337182
-0.00354927
-0.00374295
-0.00394082
-0.00412401
-0.0042628
-0.00431025
-0.00419429
-0.00381736
-0.00302598
-0.00134959
0.00248809
0.00857446
0.0155756
-0.00329787
-0.00341656
-0.00343571
-0.00351422
-0.00363921
-0.00381763
-0.00405174
-0.00434284
-0.00469229
-0.00510168
-0.00557371
-0.00611382
-0.00673598
-0.0074822
-0.0085003
-0.0100068
-0.0117189
-0.0102138
-0.0037086
0.00773218
-0.00389981
-0.00403444
-0.00402754
-0.00410573
-0.00423897
-0.00444703
-0.00474158
-0.00513333
-0.00563528
-0.00626691
-0.00706175
-0.00807774
-0.00943444
-0.0113568
-0.0144116
-0.0194199
-0.0271189
-0.0298463
-0.0240377
-0.007064
-0.00466247
-0.00459633
-0.00448794
-0.00448881
-0.00461905
-0.00487868
-0.00526428
-0.00577867
-0.00643797
-0.00727319
-0.00834616
-0.00977234
-0.0117981
-0.0147911
-0.0198273
-0.0276412
-0.0407181
-0.0475038
-0.0436616
-0.0195193
-0.00514547
-0.00558047
-0.00533904
-0.00540583
-0.00547174
-0.00566757
-0.00600805
-0.00651567
-0.00721475
-0.00813725
-0.00935501
-0.0109812
-0.0133675
-0.0168493
-0.0230741
-0.0314308
-0.046142
-0.0532398
-0.04959
-0.0135136
-0.00847156
-0.00595466
-0.00540719
-0.00494103
-0.00498294
-0.00529271
-0.00581139
-0.00649265
-0.00735011
-0.00839279
-0.00971196
-0.0113502
-0.0137361
-0.0170847
-0.0227203
-0.0302888
-0.0413919
-0.0449005
-0.0339797
0.0187167
-0.00526142
-0.00820224
-0.00725159
-0.00738001
-0.00708863
-0.00702541
-0.00716373
-0.0075371
-0.00817625
-0.00903012
-0.0101971
-0.0116437
-0.0138304
-0.0168015
-0.0218772
-0.0278992
-0.0356044
-0.0289092
-0.00131807
0.0830297
-0.0302185
-0.00524086
-0.00393985
-0.00330627
-0.00323858
-0.00363142
-0.00437683
-0.00522479
-0.00629634
-0.0074584
-0.00894905
-0.0107163
-0.013108
-0.0159632
-0.0194584
-0.0207683
-0.0169452
0.0123485
0.0826115
0.22131
)
;

boundaryField
{
    movingWall
    {
        type            zeroGradient;
    }
    fixedWalls
    {
        type            zeroGradient;
    }
    frontAndBack
    {
        type            empty;
    }
}


// ************************************************************************* //
