/*--------------------------------*- C++ -*----------------------------------*\
  =========                 |
  \\      /  F ield         | OpenFOAM: The Open Source CFD Toolbox
   \\    /   O peration     | Website:  https://openfoam.org
    \\  /    A nd           | Version:  10
     \\/     M anipulation  |
\*---------------------------------------------------------------------------*/
FoamFile
{
    format      ascii;
    class       surfaceScalarField;
    location    "4.95";
    object      phi;
}
// * * * * * * * * * * * * * * * * * * * * * * * * * * * * * * * * * * * * * //

dimensions      [0 3 -1 0 0 0 0];

internalField   nonuniform List<scalar> 
760
(
-8.51184e-06
8.51182e-06
-2.82119e-05
1.97e-05
-5.10515e-05
2.28396e-05
-7.40263e-05
2.29749e-05
-9.6201e-05
2.21747e-05
-0.000117132
2.09306e-05
-0.000136386
1.92546e-05
-0.000153442
1.70561e-05
-0.000167671
1.42283e-05
-0.000178337
1.06665e-05
-0.000184618
6.28077e-06
-0.000185643
1.02541e-06
-0.000180511
-5.13223e-06
-0.000168496
-1.20148e-05
-0.000149149
-1.93468e-05
-0.000122513
-2.66369e-05
-8.94797e-05
-3.30328e-05
-5.25554e-05
-3.69244e-05
-1.78508e-05
-3.47046e-05
-1.78508e-05
-2.05714e-05
2.90832e-05
-5.80506e-05
5.71793e-05
-9.99481e-05
6.47371e-05
-0.00014158
6.46071e-05
-0.000181241
6.18357e-05
-0.00021798
5.76697e-05
-0.000250943
5.22174e-05
-0.00027922
4.5333e-05
-0.000301812
3.68203e-05
-0.000317626
2.64807e-05
-0.000325453
1.41074e-05
-0.00032425
-1.77685e-07
-0.000312709
-1.66734e-05
-0.000289977
-3.47468e-05
-0.000255596
-5.37278e-05
-0.000209846
-7.23868e-05
-0.000154244
-8.86347e-05
-9.26906e-05
-9.84776e-05
-3.41736e-05
-9.32216e-05
-5.20244e-05
-2.5124e-05
5.42072e-05
-6.9514e-05
0.000101569
-0.000118639
0.000113862
-0.000167188
0.000113156
-0.000213259
0.000107907
-0.00025579
0.000100201
-0.000293833
9.02606e-05
-0.000326396
7.78952e-05
-0.000352397
6.28221e-05
-0.00037066
4.47429e-05
-0.000379963
2.34108e-05
-0.000378873
-1.26738e-06
-0.000366034
-2.95127e-05
-0.000340314
-6.0467e-05
-0.000301
-9.30418e-05
-0.000248161
-0.000125225
-0.000183307
-0.000153489
-0.00011082
-0.000170965
-4.12496e-05
-0.000162792
-9.3274e-05
-2.68916e-05
8.10987e-05
-7.44806e-05
0.000149158
-0.00012703
0.000166412
-0.000178942
0.000165068
-0.000228298
0.000157262
-0.000274059
0.000145962
-0.000315305
0.000131506
-0.000351062
0.000113652
-0.000380246
9.20061e-05
-0.000401628
6.61249e-05
-0.00041381
3.55927e-05
-0.000415383
3.06369e-07
-0.000404329
-4.0567e-05
-0.000379084
-8.57119e-05
-0.000338264
-0.000133862
-0.000281318
-0.000182172
-0.000209445
-0.000225362
-0.000127402
-0.000253008
-4.7562e-05
-0.000242632
-0.000140836
-2.81611e-05
0.00010926
-7.83793e-05
0.000199377
-0.00013388
0.000221912
-0.000188819
0.000220008
-0.000241295
0.000209738
-0.000290345
0.000195012
-0.00033513
0.000176292
-0.000374751
0.000153272
-0.000408162
0.000125417
-0.000434108
9.20709e-05
-0.000451061
5.25461e-05
-0.000457119
6.36392e-06
-0.000450082
-4.76043e-05
-0.000427349
-0.000108445
-0.000386484
-0.000174727
-0.000325746
-0.00024291
-0.000245468
-0.000305639
-0.000150769
-0.000347708
-5.67045e-05
-0.000336696
-0.00019754
-2.96254e-05
0.000138885
-8.28724e-05
0.000252624
-0.000141812
0.000280852
-0.000200304
0.0002785
-0.000256478
0.000265911
-0.000309483
0.000248016
-0.000358615
0.000225424
-0.000403105
0.000197762
-0.000442013
0.000164325
-0.000474113
0.000124171
-0.000497761
7.61936e-05
-0.000510722
1.93255e-05
-0.000510213
-4.81134e-05
-0.000492427
-0.000126231
-0.000453305
-0.000213849
-0.00038911
-0.000307105
-0.000298368
-0.000396382
-0.000186065
-0.00046001
-7.11165e-05
-0.000451644
-0.000268657
-3.14374e-05
0.000170323
-8.83433e-05
0.00030953
-0.000151396
0.000343905
-0.000214093
0.000341197
-0.000274608
0.000326427
-0.00033225
0.000305658
-0.000386512
0.000279687
-0.000436848
0.000248098
-0.000482528
0.000210006
-0.000522483
0.000164127
-0.000555081
0.000108792
-0.000577849
4.20932e-05
-0.000587414
-3.85487e-05
-0.000578454
-0.000135191
-0.000544624
-0.000247678
-0.000478954
-0.000372775
-0.000376445
-0.000498891
-0.000240399
-0.000596056
-9.47495e-05
-0.000597294
-0.000363406
-3.36274e-05
0.00020395
-9.48744e-05
0.000370777
-0.000162714
0.000411744
-0.000230204
0.000408687
-0.000295584
0.000391806
-0.000358376
0.00036845
-0.000418361
0.000339672
-0.000475331
0.000305067
-0.000528932
0.000263607
-0.000578462
0.000213656
-0.000622561
0.000152891
-0.000658752
7.82845e-05
-0.000683332
-1.39689e-05
-0.00068937
-0.000129153
-0.000667546
-0.000269503
-0.000605981
-0.00043434
-0.000493239
-0.000611632
-0.000327239
-0.000762056
-0.000136301
-0.000788232
-0.000499708
-3.62407e-05
0.000240191
-0.000102555
0.000437091
-0.000175819
0.000485008
-0.000248567
0.000481435
-0.000319132
0.000462371
-0.000387318
0.000436636
-0.000453293
0.000405647
-0.000517333
0.000369108
-0.000579675
0.000325949
-0.00064029
0.000274272
-0.000698521
0.000211123
-0.000752462
0.000132225
-0.000798473
3.2042e-05
-0.000828934
-9.86916e-05
-0.000830988
-0.000267449
-0.00078622
-0.000479108
-0.000672422
-0.000725431
-0.000474775
-0.000959703
-0.000216719
-0.00104629
-0.000716427
-3.93954e-05
0.000279586
-0.000111602
0.000509297
-0.000190901
0.000564307
-0.000269216
0.00055975
-0.000345016
0.000538172
-0.000418465
0.000510084
-0.000490217
0.000477398
-0.000561192
0.000440083
-0.000632464
0.000397221
-0.000705086
0.000346893
-0.000779737
0.000285774
-0.000856038
0.000208526
-0.000931065
0.000107069
-0.000999154
-3.0602e-05
-0.00104497
-0.000221633
-0.00104333
-0.000480745
-0.00095658
-0.000812184
-0.000742737
-0.00117355
-0.000386724
-0.0014023
-0.00110315
-4.33473e-05
0.000322933
-0.000122478
0.000588428
-0.000208418
0.000650246
-0.00029242
0.000643753
-0.000373166
0.000618918
-0.000451259
0.000588177
-0.000527933
0.000554072
-0.000604867
0.000517017
-0.000684184
0.000476539
-0.00076842
0.000431129
-0.000860344
0.000377698
-0.000962439
0.000310621
-0.00107559
0.000220223
-0.00119745
9.12542e-05
-0.00131779
-0.000101288
-0.00140896
-0.000389582
-0.00141493
-0.000806208
-0.00123612
-0.00135236
-0.000743213
-0.0018952
-0.00184636
-4.85986e-05
0.000371532
-0.000136058
0.000675888
-0.000229264
0.000743452
-0.000318841
0.00073333
-0.000403828
0.000703905
-0.000485372
0.000669722
-0.000565337
0.000634037
-0.000646189
0.000597868
-0.000731176
0.000561526
-0.000824616
0.000524569
-0.000932175
0.000485257
-0.00106094
0.000439389
-0.00121885
0.000378131
-0.00141228
0.000284682
-0.00164541
0.000131848
-0.00190454
-0.000130453
-0.00211043
-0.00060032
-0.00203361
-0.00142918
-0.00131317
-0.00261565
-0.00315953
-5.60949e-05
0.000427627
-0.000153896
0.000773689
-0.000255008
0.000844564
-0.000349741
0.000828062
-0.000437749
0.000791913
-0.000520891
0.000752864
-0.000601675
0.000714821
-0.000683184
0.000679377
-0.000769549
0.000647891
-0.000866666
0.000621686
-0.000983189
0.00060178
-0.00113191
0.000588114
-0.00133146
0.000577675
-0.00160749
0.000560714
-0.00198825
0.000512611
-0.00247416
0.000355451
-0.00293302
-0.000141457
-0.00290402
-0.00145818
-0.00183527
-0.0036844
-0.0049948
-6.81121e-05
0.000495739
-0.000179229
0.000884805
-0.000288243
0.000953579
-0.000386627
0.000926446
-0.000475776
0.000881063
-0.000558307
0.000835395
-0.00063693
0.000793445
-0.000714925
0.000757371
-0.000796788
0.000729754
-0.000889219
0.000714118
-0.00100293
0.000715495
-0.00115558
0.000740765
-0.00137635
0.000798445
-0.0017079
0.000892258
-0.00219628
0.00100099
-0.00281937
0.000978543
-0.00334798
0.000387154
-0.00321372
-0.00159244
-0.00195226
-0.00494586
-0.00694707
-8.29229e-05
0.000578662
-0.000210948
0.00101283
-0.000330582
0.00107321
-0.000434755
0.00103062
-0.000523918
0.000970226
-0.000602302
0.000913778
-0.000673872
0.000865015
-0.000742154
0.000825652
-0.000810828
0.000798429
-0.000885034
0.000788324
-0.000974257
0.000804718
-0.00109542
0.000861926
-0.00128002
0.000983049
-0.00157074
0.00118297
-0.00200865
0.00143891
-0.00252286
0.00149275
-0.00292404
0.000788338
-0.00274952
-0.00176696
-0.00175652
-0.00593886
-0.00870358
-0.000147996
0.000726658
-0.000289213
0.00115405
-0.000400294
0.00118429
-0.000489968
0.00112029
-0.000568549
0.00104881
-0.000639423
0.000984652
-0.000703732
0.000929324
-0.000761728
0.000883648
-0.000814042
0.000850743
-0.000861501
0.000835782
-0.000907155
0.000850372
-0.000957229
0.000911999
-0.00102863
0.00105445
-0.00113298
0.00128732
-0.00130055
0.00160648
-0.00146426
0.00165646
-0.00162674
0.000950824
-0.00165262
-0.00174108
-0.00124445
-0.00634703
-0.00994804
-9.84909e-05
0.000825149
-0.000303694
0.00135925
-0.000459648
0.00134025
-0.00057359
0.00123423
-0.000655696
0.00113091
-0.000715524
0.00104448
-0.000758813
0.000972613
-0.000787991
0.000912826
-0.000803043
0.000865795
-0.000799739
0.000832478
-0.000772611
0.000823244
-0.000708946
0.000848335
-0.000600477
0.000945985
-0.000422751
0.00110959
-0.000182802
0.00136653
2.78903e-05
0.00144577
0.000134492
0.000844223
-0.000167583
-0.00143901
-0.000285648
-0.00622896
-0.0102337
-0.000389372
0.00121452
-0.000485947
0.00145583
-0.000580549
0.00143485
-0.000667714
0.0013214
-0.000711383
0.00117458
-0.000719574
0.00105267
-0.00070063
0.000953668
-0.000657064
0.00086926
-0.000593772
0.000802503
-0.000504593
0.000743299
-0.000386918
0.000705568
-0.000220921
0.000682338
2.14251e-05
0.000703638
0.000361781
0.000769234
0.000849029
0.00087928
0.00139205
0.000902747
0.00188841
0.000347861
0.00172391
-0.00127451
0.000932678
-0.00543773
-0.00930101
-0.00134275
0.00255727
-0.00130158
0.00141465
-0.00105821
0.00119149
-0.000707866
0.000971051
-0.00033542
0.000802136
3.77454e-05
0.000679507
0.000398814
0.0005926
0.000742867
0.000525207
0.00107116
0.000474214
0.00138522
0.000429233
0.00169193
0.000398858
0.00200068
0.000373595
0.00234152
0.000362796
0.00274095
0.000369804
0.00328257
0.000337655
0.00391569
0.000269629
0.00442904
-0.000165485
0.00435257
-0.00119804
0.00268991
-0.00377507
-0.0066111
0.00255727
0.00397192
0.00516341
0.00613446
0.0069366
0.0076161
0.0082087
0.00873391
0.00920813
0.00963736
0.0100362
0.0104098
0.0107726
0.0111424
0.0114801
0.0117497
0.0115842
0.0103862
0.0066111
)
;

boundaryField
{
    movingWall
    {
        type            calculated;
        value           uniform 0;
    }
    fixedWalls
    {
        type            calculated;
        value           uniform 0;
    }
    frontAndBack
    {
        type            empty;
        value           nonuniform List<scalar> 0();
    }
}


// ************************************************************************* //
