/*--------------------------------*- C++ -*----------------------------------*\
  =========                 |
  \\      /  F ield         | OpenFOAM: The Open Source CFD Toolbox
   \\    /   O peration     | Website:  https://openfoam.org
    \\  /    A nd           | Version:  10
     \\/     M anipulation  |
\*---------------------------------------------------------------------------*/
FoamFile
{
    format      ascii;
    class       volScalarField;
    location    "7.9";
    object      p;
}
// * * * * * * * * * * * * * * * * * * * * * * * * * * * * * * * * * * * * * //

dimensions      [0 2 -2 0 0 0 0];

internalField   nonuniform List<scalar> 
400
(
-1.26438e-08
-2.38676e-05
3.15264e-05
0.000138258
0.000303816
0.000530784
0.000822976
0.00118505
0.00162127
0.0021342
0.00272329
0.00338257
0.00409791
0.00484433
0.0055829
0.00626172
0.00681966
0.00719992
0.00739816
0.00733213
2.60625e-05
1.68899e-06
6.36345e-05
0.000172077
0.000336029
0.000558898
0.000844973
0.00119914
0.00162586
0.00212812
0.00270607
0.00335476
0.00406046
0.00480162
0.0055394
0.00622161
0.00678425
0.00716747
0.0073709
0.0072903
-3.94784e-05
-7.21485e-05
-1.20399e-05
9.20122e-05
0.000249799
0.00046499
0.00074248
0.00108814
0.00150788
0.00200673
0.00258731
0.00324768
0.00397908
0.00476
0.00555104
0.00629346
0.00690973
0.00732224
0.00753081
0.00740295
-0.000175929
-0.000214438
-0.000158103
-6.12423e-05
8.6803e-05
0.000290129
0.000554548
0.000887383
0.00129673
0.00179082
0.00237656
0.00305686
0.00382659
0.00467231
0.00555222
0.00639909
0.00711345
0.00758056
0.00779812
0.00758898
-0.000390869
-0.00043439
-0.000384302
-0.000297963
-0.000163847
2.26793e-05
0.000268522
0.000582793
0.000976334
0.0014615
0.00205121
0.00275635
0.00358139
0.00451332
0.00552129
0.00652648
0.00739768
0.00795789
0.00818554
0.00783081
-0.000682925
-0.000731527
-0.000690204
-0.000618114
-0.00050306
-0.000339982
-0.000120943
0.000164924
0.000531344
0.000995232
0.00157655
0.00229675
0.00317308
0.00420817
0.00538184
0.00661279
0.00773006
0.00845142
0.00868639
0.00807045
-0.00104782
-0.00110216
-0.00107223
-0.00101872
-0.000929081
-0.000798198
-0.000617647
-0.000375371
-5.53734e-05
0.000363396
0.000908005
0.00161192
0.00251047
0.0036273
0.0049862
0.00651284
0.00800535
0.00902238
0.0092524
0.00820786
-0.0014799
-0.00154091
-0.00152508
-0.0014949
-0.00143795
-0.00134978
-0.00122256
-0.00104456
-0.000799289
-0.000463661
-5.72348e-06
0.000618413
0.00146671
0.00260537
0.00406398
0.00589007
0.00789856
0.00948032
0.0097035
0.00814983
-0.00197193
-0.00204065
-0.00204123
-0.00203885
-0.00202196
-0.00198777
-0.00193062
-0.00184146
-0.00170714
-0.00150815
-0.00121526
-0.000785184
-0.0001561
0.000757002
0.0020651
0.00390267
0.00640297
0.00900122
0.0094206
0.0079009
-0.00251518
-0.00259248
-0.00261062
-0.00263913
-0.0026682
-0.00269803
-0.00272718
-0.00275238
-0.00276865
-0.00276852
-0.00274111
-0.00267118
-0.00254265
-0.00234838
-0.00202733
-0.00120136
0.00105006
0.00502972
0.00700972
0.00751237
-0.00309989
-0.00318632
-0.00322089
-0.00328047
-0.00335782
-0.00345765
-0.00358487
-0.00374543
-0.00394853
-0.00420945
-0.00455524
-0.00503796
-0.00577675
-0.00704902
-0.00911397
-0.0115076
-0.0111027
-0.00582096
0.000103499
0.00529715
-0.00371642
-0.00381153
-0.00385705
-0.00394286
-0.00406469
-0.00423309
-0.00446061
-0.00476467
-0.00517333
-0.00573421
-0.0065333
-0.00773315
-0.00966301
-0.0130405
-0.0186195
-0.0258792
-0.0290288
-0.0229389
-0.012759
-0.00250001
-0.00435873
-0.00446204
-0.00450879
-0.00461012
-0.0047641
-0.00498857
-0.00530419
-0.00573939
-0.00634109
-0.00718959
-0.00843044
-0.0103347
-0.0134435
-0.0187705
-0.0273645
-0.0383723
-0.0449539
-0.0393736
-0.0282374
-0.0146945
-0.00502021
-0.00512197
-0.00514495
-0.00523933
-0.00540546
-0.0056656
-0.00604321
-0.00657427
-0.00731591
-0.00836453
-0.00989564
-0.0122065
-0.0159485
-0.0220633
-0.0317006
-0.0432821
-0.0508743
-0.0456995
-0.0365497
-0.0228588
-0.00572915
-0.00583772
-0.00581549
-0.00588314
-0.00602524
-0.00627707
-0.00666607
-0.00722995
-0.00802622
-0.00914634
-0.0107666
-0.0131109
-0.0168479
-0.0226564
-0.0314327
-0.0409037
-0.0470197
-0.0422189
-0.0363217
-0.0228743
-0.0065681
-0.00648094
-0.00633245
-0.00628613
-0.0063777
-0.00661728
-0.00701446
-0.00759037
-0.00839016
-0.00948377
-0.0110338
-0.0131317
-0.0163974
-0.0210449
-0.0275845
-0.0339805
-0.0379655
-0.0333114
-0.0299799
-0.0139431
-0.00704189
-0.00745478
-0.00713423
-0.00711616
-0.00708149
-0.00718825
-0.00745031
-0.00790073
-0.00858034
-0.00953247
-0.0108773
-0.0127115
-0.0153676
-0.0188351
-0.0235039
-0.0274066
-0.0295539
-0.024381
-0.0201137
0.00515379
-0.0104213
-0.00788589
-0.00721623
-0.00659047
-0.0064845
-0.00663608
-0.00698854
-0.00750501
-0.00820728
-0.00910632
-0.0103322
-0.0119308
-0.0141324
-0.0168047
-0.0201236
-0.0222345
-0.022598
-0.0156759
-0.00505825
0.0379992
-0.0070742
-0.0100553
-0.00893615
-0.00890861
-0.00841663
-0.00815043
-0.00807118
-0.00820935
-0.00860703
-0.00925395
-0.0102722
-0.0116352
-0.0137152
-0.0161892
-0.0195145
-0.0212089
-0.0205644
-0.00668177
0.0193709
0.0960125
-0.0323081
-0.00722998
-0.00565281
-0.00487298
-0.00465112
-0.00484241
-0.00533606
-0.00593763
-0.00673719
-0.00765802
-0.00894721
-0.0104591
-0.0124754
-0.0143617
-0.0158507
-0.0132612
-0.00343262
0.0305464
0.097414
0.228269
)
;

boundaryField
{
    movingWall
    {
        type            zeroGradient;
    }
    fixedWalls
    {
        type            zeroGradient;
    }
    frontAndBack
    {
        type            empty;
    }
}


// ************************************************************************* //
