/*--------------------------------*- C++ -*----------------------------------*\
  =========                 |
  \\      /  F ield         | OpenFOAM: The Open Source CFD Toolbox
   \\    /   O peration     | Website:  https://openfoam.org
    \\  /    A nd           | Version:  10
     \\/     M anipulation  |
\*---------------------------------------------------------------------------*/
FoamFile
{
    format      ascii;
    class       surfaceScalarField;
    location    "7.9";
    object      phi;
}
// * * * * * * * * * * * * * * * * * * * * * * * * * * * * * * * * * * * * * //

dimensions      [0 3 -1 0 0 0 0];

internalField   nonuniform List<scalar> 
760
(
-1.19208e-05
1.19208e-05
-3.84545e-05
2.65337e-05
-7.03232e-05
3.18687e-05
-0.000103783
3.34594e-05
-0.000137633
3.38506e-05
-0.000171493
3.38602e-05
-0.000204987
3.34938e-05
-0.000237449
3.24624e-05
-0.000267803
3.03536e-05
-0.000294472
2.66686e-05
-0.000315323
2.08512e-05
-0.000327669
1.23462e-05
-0.0003284
7.31077e-07
-0.00031427
-1.41305e-05
-0.000282734
-3.15353e-05
-0.000233026
-4.97087e-05
-0.000167814
-6.52116e-05
-9.5091e-05
-7.27229e-05
-2.9877e-05
-6.5214e-05
-2.9877e-05
-2.83935e-05
4.03143e-05
-8.01531e-05
7.82933e-05
-0.00014044
9.21558e-05
-0.00020307
9.60894e-05
-0.000265643
9.64233e-05
-0.000327007
9.52237e-05
-0.000386109
9.25962e-05
-0.000441556
8.79096e-05
-0.000491415
8.02119e-05
-0.000533088
6.83422e-05
-0.000563255
5.10176e-05
-0.000577836
2.69281e-05
-0.00057267
-4.43511e-06
-0.000542986
-4.38152e-05
-0.000485494
-8.90268e-05
-0.000399528
-0.000135675
-0.000289468
-0.000175271
-0.000167774
-0.000194417
-5.7374e-05
-0.000175614
-8.7251e-05
-3.58297e-05
7.6144e-05
-9.9252e-05
0.000141716
-0.000172312
0.000165216
-0.000247651
0.000171429
-0.000322454
0.000171227
-0.00039536
0.000168129
-0.000465159
0.000162395
-0.000530319
0.00015307
-0.000588764
0.000138656
-0.000637703
0.000117282
-0.000673528
8.68426e-05
-0.000691888
4.52883e-05
-0.000687372
-8.95168e-06
-0.000654268
-7.69188e-05
-0.000587814
-0.000155481
-0.000486008
-0.000237481
-0.000353044
-0.000308235
-0.000203955
-0.000343506
-6.83877e-05
-0.000311181
-0.000155639
-3.86705e-05
0.000114815
-0.000107181
0.000210226
-0.000185866
0.000243901
-0.000266873
0.000252436
-0.000347378
0.000251731
-0.000426149
0.000246901
-0.000502165
0.000238411
-0.000574116
0.000225021
-0.000640153
0.000204694
-0.00069765
0.000174778
-0.000742933
0.000132125
-0.000771059
7.3415e-05
-0.000775998
-4.01262e-06
-0.000749512
-0.000103405
-0.000683793
-0.0002212
-0.000573158
-0.000348115
-0.000419372
-0.000462022
-0.000240296
-0.000522581
-7.63558e-05
-0.000475122
-0.000231994
-3.95499e-05
0.000154364
-0.000110395
0.000281071
-0.00019194
0.000325446
-0.00027612
0.000336616
-0.000360276
0.000335887
-0.000443504
0.000330128
-0.000525197
0.000320105
-0.000604535
0.000304358
-0.000680179
0.000280338
-0.000749948
0.000244548
-0.000810365
0.000192542
-0.000856066
0.000119115
-0.000879373
1.92945e-05
-0.000869654
-0.000113124
-0.000813575
-0.000277279
-0.000698634
-0.000463056
-0.000520102
-0.000640554
-0.000296149
-0.000746534
-8.7101e-05
-0.00068417
-0.000319095
-3.9717e-05
0.000194081
-0.000111907
0.000353261
-0.000195398
0.000408937
-0.000281995
0.000423213
-0.000369285
0.000423177
-0.000456817
0.00041766
-0.000544589
0.000407877
-0.000632524
0.000392293
-0.000720136
0.00036795
-0.000806118
0.000330529
-0.000887688
0.000274113
-0.000959627
0.000191055
-0.00101287
7.25404e-05
-0.00103421
-9.17843e-05
-0.00100294
-0.000308549
-0.000894927
-0.000571073
-0.000689832
-0.000845649
-0.000395893
-0.00104047
-0.000107774
-0.00097229
-0.000426869
-3.96012e-05
0.000233683
-0.00011278
0.000426439
-0.000197863
0.00049402
-0.000286517
0.000511867
-0.000376603
0.000513264
-0.000468221
0.000509278
-0.000562149
0.000501805
-0.000659333
0.000489476
-0.000760584
0.000469202
-0.000866127
0.000436072
-0.000974811
0.000382796
-0.0010828
0.000299043
-0.00118142
0.000171159
-0.00125704
-1.61672e-05
-0.0012804
-0.000285189
-0.00121029
-0.000641179
-0.00099102
-0.00106492
-0.000591959
-0.00143953
-0.000160072
-0.00140418
-0.000586941
-3.92988e-05
0.000272981
-0.000113261
0.000500402
-0.000199624
0.000580382
-0.000289831
0.000602075
-0.000382013
0.000605445
-0.000476868
0.000604132
-0.000576094
0.000601031
-0.000681949
0.000595332
-0.000797055
0.000584308
-0.000924081
0.000563098
-0.00106507
0.000523782
-0.00122011
0.00045409
-0.00138511
0.000336155
-0.00154754
0.000146261
-0.00168145
-0.000151276
-0.00171543
-0.000607204
-0.00151991
-0.00126044
-0.000976192
-0.00198325
-0.000297834
-0.00208253
-0.000884775
-3.88593e-05
0.000311841
-0.000113443
0.000574986
-0.000200665
0.000667603
-0.000291608
0.000693019
-0.000384614
0.000698451
-0.000480972
0.00070049
-0.00058334
0.000703399
-0.000695452
0.000707444
-0.000822187
0.000711044
-0.000969631
0.000710542
-0.00114489
0.000699036
-0.0013556
0.000664805
-0.00160898
0.000589534
-0.00190654
0.000443818
-0.0022264
0.000168588
-0.00245333
-0.000380269
-0.00232278
-0.00139099
-0.00161333
-0.00269271
-0.000605618
-0.00309024
-0.00149039
-3.84392e-05
0.00035028
-0.000113616
0.000650162
-0.000201202
0.00075519
-0.00029174
0.000783557
-0.000383681
0.000790392
-0.000478813
0.000795622
-0.000580658
0.000805244
-0.000694348
0.000821134
-0.000827083
0.000843779
-0.000988911
0.00087237
-0.0011939
0.000904023
-0.00146168
0.000932586
-0.00181832
0.000946176
-0.00228709
0.000912583
-0.00283222
0.000713726
-0.00326003
4.75332e-05
-0.00319165
-0.00145937
-0.00240138
-0.00348297
-0.00114553
-0.0043461
-0.00263592
-3.84138e-05
0.000388694
-0.000114501
0.00072625
-0.000202024
0.000842712
-0.000290794
0.000872326
-0.000379233
0.000878831
-0.000469464
0.000885853
-0.000565566
0.000901346
-0.000673606
0.000929174
-0.000802519
0.000972692
-0.000965718
0.00103557
-0.00118383
0.00112214
-0.00148853
0.00123729
-0.00192215
0.00137979
-0.00251292
0.00150335
-0.0031885
0.00138931
-0.00367462
0.000533646
-0.00365303
-0.00148095
-0.00301933
-0.00411668
-0.0017713
-0.00559412
-0.00440722
-3.95605e-05
0.000428254
-0.000117578
0.000804267
-0.000204831
0.000929965
-0.00029034
0.000957835
-0.000372495
0.000960986
-0.000453538
0.000966897
-0.000537608
0.000985416
-0.000630786
0.00102235
-0.000742222
0.00108413
-0.000886091
0.00117944
-0.00108467
0.00132072
-0.00137126
0.00152388
-0.00178468
0.00179321
-0.00232742
0.00204609
-0.00289991
0.0019618
-0.00327934
0.000913076
-0.00331689
-0.0014434
-0.00297723
-0.00445633
-0.00194815
-0.00662321
-0.00635537
-4.29627e-05
0.000471217
-0.000124909
0.000886214
-0.000212282
0.00101734
-0.000293358
0.00103891
-0.000366445
0.00103407
-0.000433739
0.00103419
-0.000498961
0.00105064
-0.000566801
0.00109019
-0.000644035
0.00116136
-0.000740839
0.00127624
-0.000872346
0.00145222
-0.00105737
0.0017089
-0.00131265
0.0020485
-0.00161789
0.00235133
-0.00191352
0.00225743
-0.00210453
0.00110409
-0.00220943
-0.0013385
-0.0022035
-0.00446226
-0.00160469
-0.00722202
-0.00796006
-5.22105e-05
0.000523427
-0.000142114
0.000976117
-0.000229356
0.00110458
-0.000303319
0.00111287
-0.000364149
0.0010949
-0.000414185
0.00108423
-0.000455493
0.00109195
-0.000490449
0.00112515
-0.000521666
0.00119258
-0.000552047
0.00130662
-0.000584699
0.00148488
-0.000617508
0.00174171
-0.000646574
0.00207756
-0.000647306
0.00235206
-0.000643051
0.00225317
-0.000662032
0.00112307
-0.000813915
-0.00118662
-0.00116186
-0.00411431
-0.00108161
-0.00730227
-0.00904167
-6.39419e-05
0.000587369
-0.000165574
0.00107775
-0.000257225
0.00119623
-0.000328693
0.00118434
-0.000377893
0.0011441
-0.000408054
0.00111439
-0.00042139
0.00110528
-0.000418434
0.00112219
-0.000397764
0.00117191
-0.000355089
0.00126395
-0.000282518
0.00141231
-0.000162629
0.00162182
2.67961e-05
0.00188814
0.000274656
0.0021042
0.000533765
0.00199406
0.00061051
0.00104632
0.000362693
-0.0009388
-0.000316642
-0.00343498
-0.000648777
-0.00697014
-0.00969045
-0.00013152
0.000718889
-0.000247696
0.00119392
-0.000324386
0.00127292
-0.000369937
0.00122989
-0.000394545
0.00116871
-0.000401673
0.00112152
-0.000389873
0.00109348
-0.000354951
0.00108727
-0.000290677
0.00110764
-0.000187121
0.00116039
-3.00219e-05
0.00125521
0.000197599
0.0013942
0.000515851
0.00156988
0.000921275
0.00169878
0.00131176
0.00160358
0.00145601
0.00090207
0.00114658
-0.000629362
0.000301286
-0.00258969
-0.000274011
-0.00639484
-0.00996446
-8.50837e-05
0.000803973
-0.000266321
0.00137516
-0.000383339
0.00138994
-0.00044378
0.00129034
-0.000463406
0.00118834
-0.000452358
0.00111047
-0.00041323
0.00105435
-0.000343459
0.0010175
-0.000237093
0.00100127
-8.23347e-05
0.00100563
0.000134584
0.00103829
0.000430432
0.00109835
0.000817812
0.0011825
0.00128335
0.00123324
0.00172533
0.00116159
0.00190105
0.000726353
0.00156791
-0.000296223
0.000746963
-0.00176874
0.000127722
-0.0057756
-0.00983674
-0.000380548
0.00118452
-0.000442158
0.00143677
-0.000496313
0.00144409
-0.000539805
0.00133383
-0.000536305
0.00118484
-0.00049177
0.00106593
-0.000410134
0.000972716
-0.000289794
0.000897158
-0.000131246
0.000842722
7.35019e-05
0.000800885
0.000329945
0.000781845
0.000651906
0.000776392
0.00103986
0.000794554
0.00146961
0.000803485
0.00188529
0.000745916
0.00209493
0.000516709
0.00200978
-0.000211065
0.00158429
-0.00134325
0.000876609
-0.00506792
-0.00896013
-0.00136236
0.00254689
-0.00132654
0.00140094
-0.00107012
0.00118768
-0.000701819
0.000965523
-0.000312774
0.000795793
8.0634e-05
0.000672525
0.000466919
0.000586431
0.000845253
0.000518825
0.00121784
0.000470138
0.00158922
0.000429497
0.00196813
0.000402943
0.00236176
0.000382762
0.00278844
0.000367871
0.00324206
0.000349861
0.00371025
0.000277731
0.0040802
0.000146753
0.00418069
-0.00031155
0.0040023
-0.00116487
0.00253355
-0.00359916
-0.00642658
0.00254689
0.00394783
0.00513551
0.00610103
0.00689683
0.00756935
0.00815578
0.00867461
0.00914474
0.00957424
0.00997718
0.0103599
0.0107278
0.0110777
0.0113554
0.0115022
0.0111906
0.0100257
0.00642658
)
;

boundaryField
{
    movingWall
    {
        type            calculated;
        value           uniform 0;
    }
    fixedWalls
    {
        type            calculated;
        value           uniform 0;
    }
    frontAndBack
    {
        type            empty;
        value           nonuniform List<scalar> 0();
    }
}


// ************************************************************************* //
