/*--------------------------------*- C++ -*----------------------------------*\
  =========                 |
  \\      /  F ield         | OpenFOAM: The Open Source CFD Toolbox
   \\    /   O peration     | Website:  https://openfoam.org
    \\  /    A nd           | Version:  10
     \\/     M anipulation  |
\*---------------------------------------------------------------------------*/
FoamFile
{
    format      ascii;
    class       volVectorField;
    location    "9.875";
    object      U;
}
// * * * * * * * * * * * * * * * * * * * * * * * * * * * * * * * * * * * * * //

dimensions      [0 1 -1 0 0 0 0];

internalField   nonuniform List<vector> 
475
(
(0.974632 0.016045 0)
(0.975449 0.00652094 0)
(0.950587 0.0314289 0)
(0.953858 0.0014516 0)
(0.920046 0.0303844 0)
(0.998626 0.00871787 0)
(1.01389 0.0148221 0)
(1.02555 0.0153427 0)
(1.04357 0.0087745 0)
(1.05594 0.00254935 0)
(1.00002 0.000290749 0)
(1.00954 -0.00295871 0)
(1.02454 -0.00453141 0)
(1.04095 -0.00926026 0)
(1.05686 -0.0140445 0)
(0.99993 -0.0100369 0)
(1.01014 -0.0194502 0)
(1.02291 -0.0219939 0)
(1.03536 -0.0229516 0)
(1.04491 -0.0254433 0)
(0.980739 -0.00970163 0)
(0.969153 -0.0190401 0)
(0.953742 -0.0218884 0)
(0.933459 -0.0221985 0)
(0.907909 -0.0229224 0)
(0.924198 -0.0155115 0)
(0.931253 -0.0351331 0)
(0.936654 -0.0483357 0)
(0.942823 -0.0578544 0)
(0.951595 -0.0669534 0)
(0.963238 -0.0762007 0)
(0.97803 -0.0877259 0)
(0.994978 -0.100968 0)
(1.01322 -0.117257 0)
(1.03156 -0.135385 0)
(1.04871 -0.155302 0)
(1.06334 -0.175104 0)
(1.074 -0.193651 0)
(1.07956 -0.209015 0)
(1.07928 -0.219731 0)
(1.07257 -0.224772 0)
(1.05923 -0.223746 0)
(1.03935 -0.217913 0)
(1.01367 -0.208523 0)
(0.984834 -0.195703 0)
(0.955335 -0.17956 0)
(0.927451 -0.160336 0)
(0.899639 -0.138791 0)
(0.87502 -0.115428 0)
(0.849604 -0.091881 0)
(0.830577 -0.0683435 0)
(0.811574 -0.0463986 0)
(0.802973 -0.0248313 0)
(0.793595 -0.0047096 0)
(0.79446 0.0150629 0)
(0.792696 0.0328915 0)
(0.79987 0.0497174 0)
(0.803237 0.0645913 0)
(0.813161 0.0761972 0)
(0.817406 0.085768 0)
(0.827518 0.0908401 0)
(0.829262 0.0929597 0)
(0.838175 0.0920091 0)
(0.8356 0.0869783 0)
(0.842274 0.081559 0)
(0.83563 0.0717686 0)
(0.839621 0.0639578 0)
(0.829852 0.0534659 0)
(0.831304 0.0478028 0)
(0.819875 0.0393394 0)
(1.06834 -0.00806642 0)
(1.0782 -0.0200046 0)
(1.0824 -0.0319711 0)
(1.08462 -0.0425806 0)
(1.08429 -0.0537699 0)
(1.08509 -0.0651269 0)
(1.08448 -0.0787779 0)
(1.08442 -0.0938276 0)
(1.08224 -0.111697 0)
(1.07894 -0.130599 0)
(1.07243 -0.15076 0)
(1.0627 -0.169785 0)
(1.04851 -0.186529 0)
(1.02935 -0.197946 0)
(1.00474 -0.202726 0)
(0.97431 -0.199777 0)
(0.937755 -0.192184 0)
(0.895014 -0.182968 0)
(0.847239 -0.171685 0)
(0.797843 -0.156259 0)
(0.750518 -0.137723 0)
(0.705472 -0.117771 0)
(0.664292 -0.0982767 0)
(0.627726 -0.080013 0)
(0.594145 -0.0632066 0)
(0.566921 -0.0469996 0)
(0.543811 -0.0317492 0)
(0.532625 -0.0164761 0)
(0.524528 -0.00242277 0)
(0.527455 0.0123915 0)
(0.530219 0.02612 0)
(0.543969 0.0404771 0)
(0.554881 0.0524606 0)
(0.573627 0.0635726 0)
(0.588802 0.0718796 0)
(0.608638 0.0774384 0)
(0.623903 0.0804308 0)
(0.642146 0.0802177 0)
(0.653822 0.0773186 0)
(0.668692 0.0731566 0)
(0.675934 0.0659199 0)
(0.686332 0.0600492 0)
(0.689604 0.0517568 0)
(0.694732 0.0469913 0)
(0.696428 0.0406655 0)
(1.06827 -0.0219989 0)
(1.07738 -0.0320477 0)
(1.0806 -0.0432305 0)
(1.08235 -0.0537612 0)
(1.07892 -0.0641693 0)
(1.07574 -0.0744701 0)
(1.06782 -0.0861173 0)
(1.06021 -0.098678 0)
(1.04753 -0.113162 0)
(1.03374 -0.128533 0)
(1.0147 -0.144754 0)
(0.992338 -0.160152 0)
(0.965526 -0.172102 0)
(0.933133 -0.178563 0)
(0.895086 -0.173513 0)
(0.848386 -0.159003 0)
(0.791418 -0.142641 0)
(0.726071 -0.132636 0)
(0.657996 -0.125509 0)
(0.591809 -0.115032 0)
(0.524579 -0.0976987 0)
(0.459962 -0.0759624 0)
(0.402265 -0.0535721 0)
(0.354101 -0.0349973 0)
(0.314924 -0.0221387 0)
(0.285073 -0.0135652 0)
(0.263703 -0.00785319 0)
(0.252274 -0.00283842 0)
(0.247406 0.00287915 0)
(0.250936 0.0109455 0)
(0.256729 0.0194425 0)
(0.270839 0.0287559 0)
(0.284757 0.0372341 0)
(0.306186 0.0458983 0)
(0.325946 0.0520927 0)
(0.350124 0.0579264 0)
(0.373172 0.0599219 0)
(0.395748 0.0612492 0)
(0.418831 0.0594634 0)
(0.437607 0.0571841 0)
(0.458593 0.0529083 0)
(0.472001 0.0490793 0)
(0.490543 0.0435383 0)
(0.49719 0.0410874 0)
(0.5164 0.0366301 0)
(1.05034 -0.0297324 0)
(1.05221 -0.0356021 0)
(1.04874 -0.0418605 0)
(1.04213 -0.0482898 0)
(1.02917 -0.0544317 0)
(1.01413 -0.0609345 0)
(0.991643 -0.0680306 0)
(0.96775 -0.0760266 0)
(0.934413 -0.0853401 0)
(0.899165 -0.0953338 0)
(0.852837 -0.106491 0)
(0.803156 -0.116429 0)
(0.744131 -0.124869 0)
(0.677442 -0.127582 0)
(0.613063 -0.11668 0)
(0.537604 -0.0960508 0)
(0.444683 -0.0710547 0)
(0.330326 -0.0456687 0)
(0.221493 -0.0187552 0)
(0.139799 -0.000923759 0)
(0.0841408 0.00224051 0)
(0.0527596 -8.33487e-05 0)
(0.0359759 -0.00063917 0)
(0.0266624 -0.000527408 0)
(0.0216421 -0.000915015 0)
(0.0191576 -0.00162801 0)
(0.0181893 -0.00225282 0)
(0.0188045 -0.00196116 0)
(0.0210742 -0.000475786 0)
(0.0265019 0.00246271 0)
(0.0344736 0.00649918 0)
(0.0471326 0.0117254 0)
(0.0620454 0.0169277 0)
(0.082118 0.0222853 0)
(0.103301 0.026694 0)
(0.128705 0.0304462 0)
(0.154452 0.0323289 0)
(0.181408 0.0339906 0)
(0.209547 0.0333987 0)
(0.233477 0.0328944 0)
(0.26206 0.0302547 0)
(0.27999 0.0282083 0)
(0.30831 0.0249767 0)
(0.318118 0.0233161 0)
(0.349482 0.0201072 0)
(0.88038 -0.0240354 0)
(0.849471 -0.0260987 0)
(0.816332 -0.027856 0)
(0.778734 -0.0302048 0)
(0.737352 -0.0318988 0)
(0.691164 -0.0344933 0)
(0.639966 -0.0366909 0)
(0.584496 -0.0402759 0)
(0.521328 -0.0438062 0)
(0.454528 -0.0482753 0)
(0.375143 -0.0534437 0)
(0.294669 -0.0560955 0)
(0.196913 -0.0639046 0)
(0.0948655 -0.0451158 0)
(0.0209296 -0.00143484 0)
(-0.024664 0.0356063 0)
(-0.039246 0.0595477 0)
(-0.0343946 0.0627102 0)
(-0.0197885 0.0437447 0)
(-0.00696187 0.0127287 0)
(-0.00589324 -0.0123943 0)
(-0.0165025 -0.0220882 0)
(-0.029673 -0.0211163 0)
(-0.0403648 -0.0161268 0)
(-0.0483367 -0.0115084 0)
(-0.0544843 -0.00830675 0)
(-0.059638 -0.00644058 0)
(-0.0640265 -0.00527342 0)
(-0.0673515 -0.00422827 0)
(-0.068779 -0.00293515 0)
(-0.0678468 -0.00141355 0)
(-0.0637103 0.000395794 0)
(-0.0564199 0.00212738 0)
(-0.0453331 0.00396246 0)
(-0.0314072 0.00547503 0)
(-0.0144071 0.0067442 0)
(0.00438687 0.00753544 0)
(0.0247486 0.00795799 0)
(0.0453201 0.00784414 0)
(0.0651382 0.00738227 0)
(0.0849879 0.00658004 0)
(0.10136 0.00584765 0)
(0.119508 0.00485638 0)
(0.12969 0.00447078 0)
(0.150806 0.00382472 0)
(0.00200409 -0.0221165 0)
(0.000883602 -0.0214094 0)
(-0.00723299 -0.0154081 0)
(-0.0207054 -0.00364672 0)
(-0.045266 0.00923658 0)
(-0.0791885 0.0181813 0)
(-0.117573 0.0226962 0)
(-0.156946 0.0240787 0)
(-0.193973 0.0232235 0)
(-0.225407 0.0205543 0)
(-0.248332 0.0164831 0)
(-0.260881 0.0114568 0)
(-0.262541 0.00557335 0)
(-0.253336 -0.00082023 0)
(-0.233492 -0.00697031 0)
(-0.203961 -0.0124051 0)
(-0.16615 -0.0168267 0)
(-0.122347 -0.0195282 0)
(-0.0748439 -0.0210243 0)
(-0.0253417 -0.0212756 0)
(0.0243317 -0.0205883 0)
(0.0725056 -0.019172 0)
(0.117083 -0.0168856 0)
(0.156776 -0.0138828 0)
(0.190156 -0.0104471 0)
(0.216507 -0.00680069 0)
(0.235382 -0.00296598 0)
(0.246348 0.00067055 0)
(0.249546 0.00404535 0)
(0.245608 0.00751805 0)
(0.235064 0.0102097 0)
(0.21926 0.0112958 0)
(0.199817 0.010823 0)
(0.178838 0.00950863 0)
(0.157829 0.00794531 0)
(0.138286 0.00635629 0)
(0.1207 0.0047329 0)
(0.105789 0.00315191 0)
(0.0932941 0.00186511 0)
(0.0837052 0.000855737 0)
(0.0765559 0.000217741 0)
(0.0721187 -0.000401634 0)
(0.0698472 -0.000807944 0)
(0.0688444 -0.00114481 0)
(0.0704831 -0.0011538 0)
(-0.000191707 0.0202537 0)
(-0.0152544 0.0327696 0)
(-0.0532657 0.0389168 0)
(-0.0860142 0.0451534 0)
(-0.117326 0.0517865 0)
(-0.143061 0.0550399 0)
(-0.163745 0.0546872 0)
(-0.178862 0.0505777 0)
(-0.187884 0.0429777 0)
(-0.189864 0.0323281 0)
(-0.183232 0.0185477 0)
(-0.16787 0.00319071 0)
(-0.143481 -0.0130095 0)
(-0.110639 -0.0294256 0)
(-0.0693095 -0.0447989 0)
(-0.0211202 -0.0580644 0)
(0.0332058 -0.0682371 0)
(0.0917712 -0.0750544 0)
(0.151555 -0.0785455 0)
(0.21159 -0.0790589 0)
(0.269599 -0.0768628 0)
(0.325057 -0.0724411 0)
(0.376077 -0.065659 0)
(0.422083 -0.0570444 0)
(0.461651 -0.046923 0)
(0.494319 -0.0359097 0)
(0.519808 -0.02465 0)
(0.538063 -0.0131868 0)
(0.548674 -0.00215714 0)
(0.552768 0.0081739 0)
(0.549524 0.0177315 0)
(0.540079 0.0256592 0)
(0.524557 0.0313128 0)
(0.504418 0.0340249 0)
(0.480511 0.0341418 0)
(0.454767 0.0319076 0)
(0.427976 0.028587 0)
(0.40272 0.0244472 0)
(0.379046 0.0200696 0)
(0.359098 0.0155547 0)
(0.341536 0.0110419 0)
(0.32874 0.00675205 0)
(0.318568 0.0034793 0)
(0.312426 0.000847951 0)
(0.307217 -0.00128522 0)
(-0.0345576 -0.0120413 0)
(-0.0678723 0.0266396 0)
(-0.0788811 0.0442489 0)
(-0.0835593 0.0535955 0)
(-0.0802691 0.0579061 0)
(-0.0703909 0.0574649 0)
(-0.0553082 0.0533343 0)
(-0.0352601 0.0452141 0)
(-0.0105042 0.0326592 0)
(0.0184985 0.0160371 0)
(0.0531557 -0.00409283 0)
(0.0936846 -0.0267766 0)
(0.139969 -0.0509196 0)
(0.190754 -0.0744827 0)
(0.24499 -0.0959514 0)
(0.301902 -0.114215 0)
(0.35927 -0.127401 0)
(0.416566 -0.135979 0)
(0.471796 -0.139724 0)
(0.52475 -0.139187 0)
(0.573609 -0.134571 0)
(0.619165 -0.126247 0)
(0.659437 -0.114303 0)
(0.695082 -0.0996371 0)
(0.724491 -0.0829985 0)
(0.748636 -0.0650411 0)
(0.766509 -0.0466556 0)
(0.779516 -0.0283392 0)
(0.786446 -0.0103193 0)
(0.789158 0.00633008 0)
(0.785967 0.0215715 0)
(0.77864 0.0347422 0)
(0.765454 0.045374 0)
(0.749573 0.0526612 0)
(0.72897 0.0564945 0)
(0.708117 0.0575544 0)
(0.683548 0.0555475 0)
(0.661123 0.0509662 0)
(0.636207 0.044911 0)
(0.616234 0.0374978 0)
(0.594341 0.0303304 0)
(0.579699 0.0222147 0)
(0.56135 0.0146001 0)
(0.553367 0.00972319 0)
(0.536229 0.00416571 0)
(-0.02996 0.141619 0)
(-0.0270624 0.0903321 0)
(-0.0178346 0.0710309 0)
(0.00643753 0.0578861 0)
(0.0382961 0.0472934 0)
(0.0776897 0.0375625 0)
(0.1223 0.0260169 0)
(0.1706 0.011692 0)
(0.222281 -0.00623135 0)
(0.276418 -0.028409 0)
(0.333281 -0.053779 0)
(0.391771 -0.0805741 0)
(0.450792 -0.107348 0)
(0.509789 -0.132714 0)
(0.56718 -0.154898 0)
(0.622136 -0.172437 0)
(0.67304 -0.184299 0)
(0.719724 -0.190386 0)
(0.760935 -0.191149 0)
(0.797911 -0.187133 0)
(0.829261 -0.178309 0)
(0.857355 -0.164981 0)
(0.879784 -0.147474 0)
(0.899281 -0.127056 0)
(0.913079 -0.104828 0)
(0.924779 -0.0815403 0)
(0.931346 -0.0582953 0)
(0.936944 -0.0350385 0)
(0.937757 -0.0128719 0)
(0.938347 0.00841776 0)
(0.933817 0.0275295 0)
(0.92906 0.0441014 0)
(0.918399 0.0579878 0)
(0.90836 0.0682294 0)
(0.892447 0.0753514 0)
(0.878668 0.0780364 0)
(0.858672 0.0779035 0)
(0.843459 0.0740094 0)
(0.821293 0.0674876 0)
(0.807403 0.0596888 0)
(0.784753 0.0495023 0)
(0.774543 0.0408588 0)
(0.752187 0.0305917 0)
(0.746463 0.0247262 0)
(0.722957 0.0168256 0)
(0.0807307 0.00512429 0)
(0.120023 -0.00350453 0)
(0.202591 -0.00700139 0)
(0.267103 -0.0136488 0)
(0.327133 -0.0224586 0)
(0.386301 -0.0329391 0)
(0.446274 -0.0458662 0)
(0.505292 -0.0608549 0)
(0.565034 -0.0791028 0)
(0.623839 -0.0999923 0)
(0.681709 -0.12337 0)
(0.737326 -0.147537 0)
(0.789309 -0.170986 0)
(0.836534 -0.192098 0)
(0.877787 -0.209124 0)
(0.912317 -0.220837 0)
(0.939325 -0.226471 0)
(0.959131 -0.226261 0)
(0.971831 -0.221418 0)
(0.979723 -0.212443 0)
(0.982665 -0.199309 0)
(0.983951 -0.181807 0)
(0.980858 -0.160521 0)
(0.977977 -0.136432 0)
(0.971029 -0.111239 0)
(0.966841 -0.0855213 0)
(0.959441 -0.0608024 0)
(0.956834 -0.0361636 0)
(0.951156 -0.0130372 0)
(0.950501 0.00957302 0)
(0.945871 0.0299028 0)
(0.945608 0.0479313 0)
(0.940448 0.0636831 0)
(0.939377 0.0755211 0)
(0.931628 0.0846943 0)
(0.929069 0.0889683 0)
(0.917555 0.090132 0)
(0.913698 0.0879312 0)
(0.898567 0.0817988 0)
(0.894368 0.0749526 0)
(0.876781 0.0643578 0)
(0.873059 0.0555252 0)
(0.853703 0.0443038 0)
(0.851648 0.0379998 0)
(0.830042 0.0292211 0)
)
;

boundaryField
{
    inlet
    {
        type            fixedValue;
        value           uniform (1 0 0);
    }
    outlet
    {
        type            zeroGradient;
    }
    upperWall
    {
        type            noSlip;
    }
    lowerWall
    {
        type            noSlip;
    }
    frontAndBack
    {
        type            empty;
    }
}


// ************************************************************************* //
