/*--------------------------------*- C++ -*----------------------------------*\
  =========                 |
  \\      /  F ield         | OpenFOAM: The Open Source CFD Toolbox
   \\    /   O peration     | Website:  https://openfoam.org
    \\  /    A nd           | Version:  10
     \\/     M anipulation  |
\*---------------------------------------------------------------------------*/
FoamFile
{
    format      ascii;
    class       volScalarField;
    location    "9.225";
    object      p;
}
// * * * * * * * * * * * * * * * * * * * * * * * * * * * * * * * * * * * * * //

dimensions      [0 2 -2 0 0 0 0];

internalField   nonuniform List<scalar> 
496
(
24.462
23.3283
20.2155
14.9554
25.7661
24.8446
20.999
14.7623
30.9961
28.4928
21.9639
10.8916
37.7548
35.4672
32.2459
17.4021
6.42869
-2.5852
5.45109
-2.61431
-5.08243
-9.8708
-29.7345
-57.2647
-9.52998
-14.2519
-16.6746
-18.0572
-10.7634
-15.6745
-18.0922
-20.9343
-5.05213
-5.31607
-12.7913
-20.9975
-26.6005
-10.2466
-17.4014
-19.4945
-19.2494
-19.3049
-17.1572
-14.7478
-14.6489
-16.801
-19.0279
-19.6983
-18.9378
-18.0208
-17.353
-16.8191
-16.0929
-14.9662
-13.8733
-12.582
-11.1412
-9.59881
-8.54382
-7.77235
-7.04641
-6.41659
-5.99562
-5.94166
-5.67496
-5.54873
-5.03266
-4.41443
-3.57616
-2.62537
-1.79817
-0.674274
-0.0619983
0.501558
0.659591
0.593628
0.635911
0.36101
0.143132
-0.0156749
-22.7784
-21.0044
-17.2074
-14.7291
-15.3168
-17.5222
-19.1173
-19.5069
-19.1038
-18.4695
-17.908
-17.2956
-16.3711
-15.1054
-13.9081
-12.5446
-11.0374
-9.52878
-8.35123
-7.30809
-6.62282
-6.23842
-5.87609
-5.88887
-5.77592
-5.60821
-5.16771
-4.64414
-3.90107
-2.96011
-1.7753
-0.541833
0.180637
0.588027
0.503168
0.339467
0.268373
0.0978431
-0.0727879
-0.249336
-23.7309
-20.2992
-15.9659
-14.4207
-15.5351
-17.6637
-18.7942
-19.0804
-19.0553
-19.1951
-19.0461
-18.3768
-17.115
-15.8792
-14.4319
-12.635
-10.7589
-9.2855
-8.12782
-7.29971
-6.57223
-6.02534
-6.51236
-6.82448
-7.27311
-6.92853
-5.92342
-4.75101
-3.16963
-2.02145
-0.843043
-0.141189
0.478388
0.493601
-0.146615
-0.39798
-0.919554
-1.21211
-1.08407
-0.473828
-19.7674
-17.324
-15.267
-13.2633
-14.3824
-17.9971
-19.7399
-19.4956
-19.6183
-20.0507
-19.7873
-18.6357
-17.2021
-16.3888
-14.9909
-13.1793
-10.8903
-8.74514
-6.58804
-5.24134
-4.71902
-4.925
-6.21438
-7.11455
-8.1506
-7.78099
-7.58557
-6.44516
-4.26669
-1.5275
2.23954
3.23165
3.33751
1.43223
0.316778
-0.430713
-1.99114
-1.92552
-1.89458
-1.3023
40.7471
43.2272
55.9172
69.8512
39.9182
39.9714
54.6496
66.8037
-25.7122
-35.9844
-35.8311
-34.6254
-42.0368
-32.2079
-44.1404
-34.6168
-27.6942
-18.3959
-14.7355
-13.6287
-15.5255
-16.7096
-17.1569
-20.7864
-21.8535
-20.9094
-19.1566
-17.8675
-16.9258
-15.8662
-14.7948
-12.9404
-11.0349
-9.7675
-8.65974
-7.15521
-6.61486
-6.45363
-6.5857
-6.49113
-6.59922
-6.74433
-6.44628
-5.36926
-3.94615
-2.58576
-1.37385
-0.910423
-1.09048
-1.20465
-1.12908
-1.14448
-1.54959
-1.53366
-1.74682
-1.06364
-21.9033
-13.6092
-15.5805
-12.0939
-13.2552
-18.8275
-19.7612
-20.5902
-21.1476
-21.5541
-20.125
-18.3331
-16.2157
-14.1851
-12.5979
-11.6572
-10.9514
-10.7951
-10.9825
-10.599
-9.46373
-8.5972
-7.29518
-5.61315
-3.94785
-3.14947
-3.04225
-2.54207
-2.48172
-2.9252
-3.62107
-4.20806
-4.80289
-3.8925
-3.17478
-1.63386
-0.356616
-0.00178841
1.07338
0.546192
34.2825
30.5468
26.916
9.44536
25.5885
23.527
14.3819
3.56765
20.6008
21.7847
17.7418
11.3179
20.2604
20.7414
17.4358
11.3123
-42.5945
-69.6677
-12.7184
-17.1414
2.00904
-6.67603
2.26121
-7.04694
-35.2908
-22.8094
-20.7856
-26.171
-10.9671
-12.2472
-17.1151
-22.2945
-14.4274
-20.541
-24.3713
-25.4355
-14.4489
-19.4067
-21.057
-20.728
-22.7144
-13.984
-9.461
-11.0088
-13.0239
-14.7634
-18.3004
-21.9742
-22.8422
-21.2144
-19.5274
-16.9798
-14.9304
-13.0342
-12.0889
-11.0854
-10.82
-11.0412
-11.4886
-11.6971
-10.5462
-9.46768
-7.17837
-4.67091
-1.27391
0.398309
0.902638
-0.396998
-1.88643
-2.92336
-4.74412
-4.86899
-5.35144
-4.55059
-3.62546
-2.57289
0.637953
2.27093
3.42556
2.30076
-21.6105
-16.8528
-14.1075
-14.0935
-15.4581
-16.9375
-18.3968
-19.9176
-20.5531
-19.9946
-18.6649
-16.7473
-15.1125
-13.8369
-13.2545
-12.6101
-11.8448
-11.4098
-11.0768
-10.67
-9.29665
-8.0103
-6.27591
-4.94293
-3.74365
-2.53841
-1.98532
-2.02389
-2.87273
-3.42253
-4.16399
-4.26221
-4.10336
-3.37143
-2.54025
-2.12735
-1.0873
-0.0414513
0.193273
0.333432
-22.9518
-18.4471
-14.9932
-14.4323
-15.9397
-17.4518
-18.316
-18.6958
-18.8912
-18.7058
-17.9077
-16.801
-15.3938
-14.1315
-13.0181
-12.364
-11.4361
-10.8177
-10.1516
-9.5648
-8.84021
-7.74478
-6.6555
-5.37165
-3.98803
-3.00208
-2.31386
-2.06806
-2.15858
-2.47975
-2.72666
-2.82447
-2.742
-2.8659
-2.72808
-2.38964
-1.3104
-0.123647
0.339868
0.478982
-19.4456
-17.2071
-14.9016
-14.3815
-15.5976
-17.2386
-18.35
-18.6048
-18.4991
-17.9814
-17.3794
-16.5864
-15.4225
-14.2124
-13.0501
-12.3622
-11.5634
-10.8356
-10.163
-9.59498
-8.85654
-7.64618
-6.56242
-5.31139
-4.387
-3.32515
-2.76988
-2.45993
-2.49452
-2.59466
-2.42217
-2.63394
-2.61075
-2.75197
-2.51846
-2.05798
-1.40914
-0.418028
0.0715908
0.157599
)
;

boundaryField
{
    inlet
    {
        type            zeroGradient;
    }
    outlet
    {
        type            fixedValue;
        value           uniform 0;
    }
    obstacle
    {
        type            zeroGradient;
    }
    upperWall
    {
        type            zeroGradient;
    }
    lowerWall
    {
        type            zeroGradient;
    }
    frontAndBack
    {
        type            empty;
    }
}


// ************************************************************************* //
