/*--------------------------------*- C++ -*----------------------------------*\
  =========                 |
  \\      /  F ield         | OpenFOAM: The Open Source CFD Toolbox
   \\    /   O peration     | Website:  https://openfoam.org
    \\  /    A nd           | Version:  10
     \\/     M anipulation  |
\*---------------------------------------------------------------------------*/
FoamFile
{
    format      ascii;
    class       volScalarField;
    location    "0.525";
    object      p;
}
// * * * * * * * * * * * * * * * * * * * * * * * * * * * * * * * * * * * * * //

dimensions      [0 2 -2 0 0 0 0];

internalField   nonuniform List<scalar> 
8000
(
-1.43879e-09
7.20123e-05
0.000238075
0.00049113
0.000824672
0.00123023
0.00169755
0.0022149
0.00276938
0.0033472
0.00393397
0.00451498
0.00507556
0.00560131
0.00607852
0.00649448
0.0068379
0.00709931
0.00727132
0.00734632
-7.07611e-05
2.58528e-06
0.000171923
0.000429878
0.000769826
0.00118312
0.0016593
0.00218642
0.00275136
0.0033401
0.00393802
0.0045302
0.00510169
0.00563786
0.00612469
0.00654921
0.00689983
0.00716681
0.00734259
0.00741915
-0.000240313
-0.000163669
1.34975e-05
0.00028331
0.000638748
0.00107069
0.00156818
0.00211872
0.00270866
0.00332347
0.00394799
0.00456675
0.00516425
0.00572522
0.00623502
0.00667997
0.0070478
0.00732812
0.00751279
0.00759319
-0.000509053
-0.000427011
-0.000237347
5.13505e-05
0.000431413
0.000892953
0.00142417
0.00201173
0.00264116
0.00329709
0.00396357
0.00462429
0.00526286
0.00586309
0.00640931
0.00688674
0.007282
0.00758361
0.00778254
0.00786922
-0.000884194
-0.00079449
-0.000587196
-0.00027193
0.000142669
0.000645583
0.00122381
0.00186286
0.00254709
0.00326004
0.00398468
0.00470363
0.00539933
0.00605431
0.00665149
0.00717457
0.00760853
0.00794034
0.00815953
0.00825522
-0.00137582
-0.00127588
-0.00104514
-0.000694673
-0.000234517
0.000322735
0.000962461
0.0016686
0.00242405
0.00321102
0.00401117
0.0048058
0.00557596
0.00630259
0.00696681
0.00755029
0.00803579
0.00840803
0.00865452
0.0087624
-0.00199732
-0.00188408
-0.00162308
-0.00122744
-0.000709152
-8.29978e-05
0.000634258
0.00142456
0.00226906
0.00314837
0.00404271
0.00493191
0.00579545
0.00661245
0.00736181
0.00802259
0.00857462
0.0089995
0.00928179
0.00940581
-0.00276597
-0.0026357
-0.00233618
-0.00188346
-0.00129235
-0.000580604
0.000232205
0.00112556
0.00207853
0.00307
0.0040787
0.00508299
0.00606071
0.00698898
0.00784415
0.00860204
0.0092386
0.00973113
0.0100599
0.0102051
-0.00370391
-0.00355175
-0.00320333
-0.00267893
-0.0019974
-0.00118058
-0.000251704
0.000765693
0.00184835
0.00297339
0.00411815
0.00525974
0.0063745
0.00743754
0.00842238
0.00930097
0.0100442
0.0106234
0.0110127
0.0111859
-0.00483938
-0.00465877
-0.0042479
-0.0036333
-0.00283973
-0.00189469
-0.00082617
0.000338689
0.00157412
0.00285563
0.00415953
0.00546219
0.00673892
0.0079631
0.00910537
0.0101331
0.0110109
0.0117018
0.0121705
0.0123814
-0.00620879
-0.00599034
-0.00549855
-0.0047695
-0.0038367
-0.0027355
-0.0015
-0.000161586
0.00125147
0.00271351
0.00420058
0.00568918
0.0071546
0.00856927
0.00990126
0.011113
0.0121611
0.0129972
0.0135724
0.0138356
-0.00785996
-0.00758936
-0.00699046
-0.00611414
-0.00500705
-0.00371541
-0.00228108
-0.000740182
0.000876739
0.00254381
0.0042381
0.00593777
0.00761965
0.0092568
0.0108158
0.0122543
0.0135193
0.0145474
0.0152687
0.0156075
-0.00985741
-0.00951155
-0.00876677
-0.00769721
-0.00636964
-0.00484493
-0.00317459
-0.00139975
0.000447852
0.00234369
0.00426789
0.00620244
0.00812821
0.0100214
0.0118495
0.013567
0.0151104
0.0163968
0.0173248
0.0177794
-0.0122932
-0.0118298
-0.0108801
-0.00955094
-0.0079408
-0.00612986
-0.00418082
-0.00213867
-3.43695e-05
0.00211141
0.0042846
0.00647416
0.00866841
0.0108506
0.0129935
0.0150522
0.0169551
0.0185961
0.019823
0.0204751
-0.0153068
-0.0146365
-0.0133934
-0.0117064
-0.00972981
-0.00756719
-0.00529126
-0.00294807
-0.000564151
0.00184739
0.004282
0.00673948
0.00922016
0.0117199
0.0142233
0.0166942
0.0190603
0.0211974
0.0228644
0.023889
-0.0191833
-0.0180616
-0.0163799
-0.0141855
-0.0117315
-0.00913779
-0.00648309
-0.00380789
-0.00112812
0.00155585
0.00425356
0.00698
0.00975293
0.0125875
0.0154902
0.0184472
0.0214019
0.0242371
0.0265588
0.0283544
-0.0238519
-0.0221596
-0.0198959
-0.0169849
-0.0139105
-0.0107954
-0.00771168
-0.00468212
-0.00170268
0.00124647
0.00419392
0.00717312
0.0102244
0.0133896
0.0167094
0.0202127
0.0238901
0.0277065
0.0309397
0.0342354
-0.0324357
-0.0275655
-0.0241893
-0.020111
-0.0161927
-0.0124509
-0.00889955
-0.00551312
-0.00225016
0.000937654
0.00410286
0.00729453
0.0105844
0.0140436
0.017761
0.0218541
0.0264562
0.0318591
0.0366931
0.043823
-0.0387132
-0.0330974
-0.0285545
-0.0232066
-0.0183729
-0.0139701
-0.00995536
-0.00623928
-0.00273353
0.000643214
0.00396681
0.00731996
0.0107741
0.0144314
0.0184102
0.022863
0.0278628
0.0345769
0.0392489
0.0518823
-0.0689271
-0.0392576
-0.033149
-0.0256359
-0.0196919
-0.0148051
-0.0105082
-0.00661057
-0.00298085
0.000487909
0.00388849
0.00730929
0.0108486
0.0146378
0.0188842
0.024001
0.0304256
0.0408192
0.0511524
0.0883435
9.20169e-08
7.11478e-05
0.000237052
0.000490099
0.000823716
0.0012294
0.00169687
0.00221441
0.00276909
0.00334712
0.00393411
0.00451534
0.00507613
0.00560209
0.00607949
0.00649561
0.00683914
0.00710055
0.00727242
0.00734646
-6.96666e-05
2.68174e-06
0.000171813
0.000429686
0.000769615
0.00118292
0.00165914
0.0021863
0.0027513
0.0033401
0.00393809
0.00453034
0.00510191
0.00563815
0.00612505
0.00654961
0.00690024
0.00716717
0.00734275
0.00741831
-0.000238922
-0.000163338
1.36072e-05
0.000283316
0.000638711
0.00107065
0.00156814
0.00211869
0.00270866
0.0033235
0.00394806
0.00456686
0.0051644
0.00572542
0.00623526
0.00668024
0.00704806
0.0073283
0.00751276
0.00759209
-0.000507431
-0.00042653
-0.000237106
5.14747e-05
0.000431485
0.000893002
0.00142421
0.00201177
0.00264121
0.00329715
0.00396365
0.00462439
0.00526299
0.00586326
0.0064095
0.00688695
0.00728219
0.00758372
0.00778241
0.00786794
-0.000882339
-0.000793884
-0.000586853
-0.000271717
0.000142819
0.000645701
0.00122392
0.00186295
0.00254717
0.00326013
0.00398478
0.00470375
0.00539947
0.00605447
0.00665168
0.00717477
0.00760872
0.00794043
0.00815937
0.00825378
-0.00137369
-0.00127514
-0.00104469
-0.000694371
-0.000234286
0.000322926
0.000962627
0.00166875
0.00242419
0.00321115
0.00401131
0.00480595
0.00557612
0.00630278
0.00696703
0.00755052
0.008036
0.00840814
0.00865434
0.0087608
-0.00199483
-0.00188318
-0.0016225
-0.00122702
-0.00070882
-8.2715e-05
0.000634506
0.00142479
0.00226926
0.00314856
0.00404289
0.00493209
0.00579565
0.00661267
0.00736206
0.00802287
0.00857489
0.00899966
0.00928163
0.00940403
-0.00276303
-0.00263456
-0.00233542
-0.00188289
-0.00129188
-0.0005802
0.000232561
0.00112587
0.00207881
0.00307025
0.00407893
0.00508321
0.00606095
0.00698924
0.00784445
0.00860238
0.00923894
0.00973136
0.0100598
0.0102031
-0.00370036
-0.0035503
-0.00320232
-0.00267815
-0.00199674
-0.00118001
-0.000251206
0.000766126
0.00184872
0.00297372
0.00411844
0.00526001
0.00637478
0.00743785
0.00842274
0.00930139
0.0100447
0.0106238
0.0110126
0.0111837
-0.004835
-0.00465687
-0.00424651
-0.0036322
-0.00283881
-0.0018939
-0.000825486
0.000339273
0.00157461
0.00285604
0.00415989
0.00546252
0.00673924
0.00796345
0.00910579
0.0101337
0.0110115
0.0117023
0.0121706
0.012379
-0.00620326
-0.00598775
-0.0054966
-0.00476795
-0.0038354
-0.0027344
-0.00149908
-0.000160824
0.00125209
0.00271402
0.004201
0.00568955
0.00715495
0.00856967
0.00990173
0.0111136
0.0121618
0.012998
0.0135728
0.013833
-0.00785273
-0.00758565
-0.00698765
-0.00611193
-0.00500524
-0.00371393
-0.00227988
-0.000739229
0.000877487
0.00254439
0.00423856
0.00593814
0.00761996
0.00925713
0.0108163
0.012255
0.0135202
0.0145484
0.0152694
0.015605
-0.00984752
-0.00950597
-0.00876263
-0.00769403
-0.00636715
-0.00484299
-0.0031731
-0.00139863
0.000448679
0.00234429
0.0042683
0.00620271
0.00812836
0.0100215
0.0118498
0.0135676
0.0151115
0.0163984
0.0173262
0.0177774
-0.0122787
-0.0118211
-0.010874
-0.00954642
-0.0079375
-0.00612749
-0.00417914
-0.00213751
-3.35861e-05
0.00211189
0.00428483
0.00647416
0.00866824
0.0108504
0.0129933
0.0150524
0.0169561
0.0185982
0.0198253
0.0204745
-0.0152833
-0.0146222
-0.0133844
-0.0117002
-0.00972585
-0.00756467
-0.0052897
-0.00294714
-0.000563696
0.00184748
0.00428178
0.00673897
0.00921941
0.0117189
0.0142223
0.0166934
0.0190605
0.0212004
0.0228677
0.0238924
-0.0191483
-0.0180389
-0.016368
-0.0141783
-0.0117278
-0.00913606
-0.00648245
-0.0038079
-0.00112857
0.00155508
0.00425249
0.00697856
0.00975102
0.012585
0.0154872
0.0184439
0.0213993
0.0242393
0.0265598
0.0283684
-0.0237476
-0.0221124
-0.0198808
-0.0169791
-0.0139102
-0.010797
-0.00771397
-0.00468452
-0.00170509
0.00124398
0.00419115
0.00716978
0.0102201
0.0133837
0.0167015
0.0202024
0.0238772
0.0277021
0.0309221
0.0342624
-0.0323724
-0.0275186
-0.0242007
-0.0201226
-0.0162058
-0.0124624
-0.0089089
-0.0055207
-0.00225659
0.000931737
0.00409672
0.00728731
0.010575
0.0140307
0.017743
0.0218312
0.0264289
0.0318649
0.0366805
0.0439268
-0.038428
-0.033103
-0.0286224
-0.0232735
-0.0184283
-0.0140096
-0.00998336
-0.00625972
-0.00274954
0.000629261
0.00395307
0.0073044
0.0107537
0.0144014
0.0183621
0.022784
0.0277129
0.0344458
0.0389072
0.0518849
-0.0686293
-0.03899
-0.0331943
-0.0257001
-0.0197448
-0.0148492
-0.0105412
-0.00663503
-0.00300044
0.000470255
0.00387029
0.00728769
0.0108198
0.0145963
0.0188203
0.0239158
0.0302744
0.0407878
0.0511567
0.0889759
2.47834e-07
7.11482e-05
0.000236979
0.000489979
0.000823579
0.00122927
0.00169677
0.00221434
0.00276906
0.00334715
0.00393418
0.00451548
0.00507633
0.00560234
0.00607978
0.00649592
0.00683945
0.00710084
0.00727264
0.00734651
-6.93214e-05
2.84829e-06
0.0001719
0.000429718
0.000769611
0.00118291
0.00165912
0.0021863
0.00275131
0.00334014
0.00393816
0.00453044
0.00510204
0.00563831
0.00612523
0.0065498
0.00690042
0.0071673
0.00734281
0.00741819
-0.000238448
-0.000163057
1.37895e-05
0.00028343
0.000638787
0.0010707
0.00156817
0.00211873
0.0027087
0.00332355
0.00394812
0.00456695
0.00516451
0.00572554
0.00623539
0.00668037
0.00704817
0.00732835
0.00751273
0.00759187
-0.000506825
-0.000426136
-0.000236826
5.16728e-05
0.000431629
0.000893111
0.00142429
0.00201185
0.00264127
0.00329722
0.00396372
0.00462447
0.00526309
0.00586336
0.00640961
0.00688705
0.00728226
0.00758372
0.00778232
0.00786764
-0.00088159
-0.000793372
-0.000586471
-0.000271432
0.000143037
0.000645872
0.00122405
0.00186307
0.00254727
0.00326022
0.00398487
0.00470383
0.00539955
0.00605456
0.00665177
0.00717484
0.00760875
0.0079404
0.00815923
0.00825342
-0.00137277
-0.00127449
-0.00104419
-0.000693986
-0.000233984
0.000323168
0.000962822
0.00166891
0.00242432
0.00321126
0.00401141
0.00480604
0.0055762
0.00630286
0.0069671
0.00755058
0.00803602
0.00840808
0.00865418
0.00876039
-0.0019937
-0.00188235
-0.00162186
-0.00122651
-0.000708415
-8.23884e-05
0.00063477
0.001425
0.00226943
0.00314869
0.004043
0.00493219
0.00579573
0.00661274
0.00736213
0.00802292
0.0085749
0.00899959
0.00928144
0.00940356
-0.00276161
-0.00263351
-0.00233458
-0.00188222
-0.00129135
-0.000579767
0.000232907
0.00112615
0.00207902
0.00307041
0.00407905
0.00508331
0.00606102
0.00698931
0.00784451
0.00860242
0.00923895
0.00973129
0.0100596
0.0102026
-0.00369855
-0.00354893
-0.00320121
-0.00267726
-0.00199604
-0.00117944
-0.000250761
0.000766468
0.00184898
0.0029739
0.00411857
0.0052601
0.00637484
0.00743789
0.00842278
0.00930141
0.0100446
0.0106237
0.0110124
0.0111831
-0.00483265
-0.00465506
-0.00424504
-0.00363102
-0.00283787
-0.00189317
-0.000824928
0.000339684
0.0015749
0.00285623
0.00416
0.00546257
0.00673925
0.00796345
0.00910578
0.0101336
0.0110115
0.0117022
0.0121704
0.0123784
-0.00620014
-0.00598529
-0.00549462
-0.00476638
-0.00383419
-0.00273348
-0.00149841
-0.000160353
0.00125239
0.00271418
0.00420105
0.00568952
0.00715488
0.00856957
0.00990164
0.0111136
0.0121618
0.0129979
0.0135726
0.0138324
-0.00784849
-0.00758225
-0.00698494
-0.00610983
-0.00500367
-0.0037128
-0.0022791
-0.000738734
0.000877752
0.00254447
0.00423849
0.00593798
0.00761975
0.00925689
0.010816
0.0122548
0.0135201
0.0145484
0.0152693
0.0156045
-0.00984159
-0.00950118
-0.00875891
-0.00769127
-0.00636518
-0.00484167
-0.00317228
-0.0013982
0.00044882
0.0023442
0.00426804
0.00620232
0.00812789
0.010021
0.0118493
0.0135672
0.0151112
0.0163983
0.0173262
0.0177771
-0.0122701
-0.0118143
-0.0108689
-0.00954287
-0.00793518
-0.0061261
-0.00417842
-0.00213728
-3.37163e-05
0.00211149
0.00428422
0.00647338
0.00866731
0.0108493
0.0129923
0.0150514
0.0169555
0.018598
0.0198254
0.0204747
-0.0152706
-0.0146124
-0.0133777
-0.0116959
-0.00972337
-0.00756348
-0.00528937
-0.00294739
-0.000564315
0.00184657
0.00428062
0.00673754
0.00921769
0.0117169
0.0142202
0.0166914
0.0190589
0.0211998
0.0228678
0.0238939
-0.0191298
-0.0180252
-0.0163595
-0.0141736
-0.0117257
-0.00913566
-0.00648304
-0.00380902
-0.00113003
0.00155332
0.0042504
0.00697605
0.00974799
0.0125814
0.0154831
0.0184397
0.0213956
0.0242377
0.0265596
0.0283728
-0.0237137
-0.0220919
-0.0198705
-0.0169747
-0.0139097
-0.0107984
-0.00771624
-0.00468718
-0.00170796
0.00124088
0.00418766
0.00716564
0.010215
0.0133775
0.0166941
0.0201941
0.0238687
0.0276973
0.0309176
0.0342698
-0.0323363
-0.0274953
-0.0241933
-0.0201212
-0.0162089
-0.0124672
-0.00891411
-0.00552582
-0.00226156
0.0009267
0.00409133
0.00728084
0.010567
0.0140205
0.0177305
0.0218173
0.0264151
0.0318612
0.0366797
0.0439511
-0.0383606
-0.0330818
-0.0286184
-0.0232792
-0.0184383
-0.0140202
-0.00999307
-0.00626835
-0.00275742
0.000621564
0.0039448
0.00729494
0.0107418
0.0143858
0.0183412
0.0227564
0.0276746
0.0344183
0.0388605
0.0518992
-0.0685414
-0.0389304
-0.0331817
-0.0257033
-0.0197547
-0.014861
-0.0105524
-0.00664509
-0.00300964
0.000461246
0.00386059
0.00727626
0.0108054
0.0145772
0.0187952
0.0238861
0.0302395
0.0407805
0.0511671
0.0890789
4.21041e-07
7.11875e-05
0.000236939
0.000489891
0.000823477
0.00122917
0.00169669
0.00221429
0.00276905
0.00334718
0.00393426
0.00451561
0.0050765
0.00560255
0.00608003
0.00649619
0.00683972
0.00710107
0.00727281
0.00734655
-6.90053e-05
3.03296e-06
0.000171998
0.00042975
0.000769619
0.0011829
0.00165911
0.0021863
0.00275133
0.00334019
0.00393823
0.00453054
0.00510217
0.00563846
0.0061254
0.00654998
0.00690058
0.00716742
0.00734285
0.00741811
-0.000238013
-0.000162762
1.39949e-05
0.000283568
0.00063888
0.00107076
0.00156823
0.00211878
0.00270876
0.00332361
0.0039482
0.00456704
0.00516461
0.00572566
0.00623552
0.00668049
0.00704827
0.0073284
0.0075127
0.0075917
-0.000506267
-0.00042573
-0.000236519
5.19029e-05
0.000431803
0.000893245
0.0014244
0.00201194
0.00264136
0.0032973
0.0039638
0.00462455
0.00526317
0.00586345
0.0064097
0.00688713
0.00728231
0.00758372
0.00778223
0.0078674
-0.000880895
-0.000792845
-0.000586056
-0.000271107
0.000143293
0.000646075
0.00122422
0.0018632
0.00254738
0.00326031
0.00398496
0.00470391
0.00539963
0.00605464
0.00665184
0.0071749
0.00760878
0.00794036
0.0081591
0.00825312
-0.00137191
-0.00127382
-0.00104365
-0.000693552
-0.000233636
0.000323446
0.000963045
0.00166908
0.00242447
0.00321138
0.0040115
0.00480612
0.00557628
0.00630293
0.00696716
0.00755062
0.00803603
0.00840802
0.00865401
0.00876003
-0.00199263
-0.0018815
-0.00162115
-0.00122594
-0.000707956
-8.20203e-05
0.000635062
0.00142523
0.00226961
0.00314883
0.0040431
0.00493227
0.0057958
0.0066128
0.00736218
0.00802295
0.00857489
0.00899951
0.00928124
0.00940315
-0.00276026
-0.00263241
-0.00233367
-0.00188148
-0.00129075
-0.00057929
0.00023328
0.00112643
0.00207923
0.00307057
0.00407916
0.00508338
0.00606108
0.00698935
0.00784454
0.00860244
0.00923893
0.00973119
0.0100594
0.0102022
-0.00369683
-0.00354751
-0.00320003
-0.00267629
-0.00199526
-0.00117883
-0.000250294
0.000766814
0.00184922
0.00297406
0.00411867
0.00526015
0.00637485
0.00743789
0.00842277
0.0093014
0.0100446
0.0106236
0.0110122
0.0111826
-0.00483041
-0.00465318
-0.00424347
-0.00362976
-0.00283687
-0.00189239
-0.000824356
0.000340089
0.00157516
0.00285639
0.00416006
0.00546256
0.0067392
0.00796337
0.0091057
0.0101336
0.0110114
0.0117021
0.0121702
0.0123779
-0.00619717
-0.00598278
-0.00549254
-0.00476472
-0.0038329
-0.00273252
-0.00149773
-0.000159904
0.00125265
0.00271429
0.00420103
0.00568941
0.0071547
0.00856936
0.00990143
0.0111134
0.0121616
0.0129977
0.0135723
0.0138319
-0.00784448
-0.00757885
-0.00698216
-0.00610766
-0.00500205
-0.00371164
-0.00227833
-0.000738279
0.000877958
0.00254447
0.00423833
0.00593768
0.00761935
0.00925644
0.0108156
0.0122544
0.0135198
0.0145482
0.0152691
0.015604
-0.00983607
-0.00949649
-0.00875518
-0.00768846
-0.00636319
-0.00484035
-0.00317149
-0.00139781
0.000448885
0.002344
0.00426762
0.00620172
0.00812714
0.0100202
0.0118484
0.0135664
0.0151106
0.0163979
0.0173259
0.0177768
-0.0122623
-0.0118078
-0.0108639
-0.00953932
-0.00793284
-0.0061247
-0.00417773
-0.00213711
-3.39449e-05
0.00211094
0.00428339
0.00647229
0.00866601
0.0108479
0.0129908
0.01505
0.0169544
0.0185975
0.0198252
0.0204748
-0.0152593
-0.0146033
-0.0133711
-0.0116916
-0.00972086
-0.00756226
-0.00528904
-0.00294767
-0.00056507
0.00184544
0.00427913
0.00673571
0.00921552
0.0117145
0.0142175
0.0166888
0.0190568
0.0211986
0.0228674
0.0238949
-0.0191136
-0.0180125
-0.0163513
-0.0141688
-0.0117235
-0.0091351
-0.00648351
-0.00381017
-0.00113165
0.00155131
0.00424797
0.00697314
0.00974453
0.0125774
0.0154786
0.0184351
0.0213914
0.0242351
0.0265583
0.028376
-0.0236856
-0.0220732
-0.0198608
-0.0169704
-0.0139088
-0.0107994
-0.00771825
-0.00468973
-0.00171086
0.00123762
0.00418394
0.00716124
0.0102097
0.0133712
0.0166867
0.0201861
0.0238608
0.0276921
0.0309128
0.034275
-0.032308
-0.0274739
-0.0241859
-0.0201199
-0.0162111
-0.012471
-0.00891851
-0.00553035
-0.00226618
0.000921857
0.00408605
0.00727453
0.0105592
0.0140109
0.017719
0.0218045
0.0264028
0.0318562
0.0366766
0.0439708
-0.0383039
-0.0330534
-0.0286124
-0.0232825
-0.0184457
-0.0140284
-0.0100009
-0.00627557
-0.00276425
0.0006147
0.00393731
0.00728637
0.0107312
0.0143722
0.0183234
0.0227332
0.0276437
0.0343951
0.0388217
0.0519093
-0.0684771
-0.0388785
-0.0331715
-0.0257063
-0.019763
-0.0148707
-0.0105618
-0.00665361
-0.00301759
0.00045331
0.00385198
0.00726624
0.010793
0.0145613
0.0187747
0.0238622
0.0302123
0.0407735
0.0511662
0.0891564
6.1017e-07
7.13306e-05
0.000237043
0.000489968
0.000823522
0.0012292
0.00169671
0.00221431
0.00276909
0.00334723
0.00393433
0.0045157
0.00507661
0.00560269
0.00608017
0.00649634
0.00683985
0.00710118
0.00727288
0.00734658
-6.8751e-05
3.2342e-06
0.000172153
0.000429869
0.000769703
0.00118296
0.00165916
0.00218635
0.00275138
0.00334024
0.0039383
0.00453063
0.00510227
0.00563857
0.00612551
0.00655009
0.00690067
0.00716748
0.00734288
0.00741809
-0.000237678
-0.000162485
1.42165e-05
0.000283742
0.000639013
0.00107087
0.00156831
0.00211885
0.00270882
0.00332368
0.00394827
0.00456711
0.00516469
0.00572574
0.0062356
0.00668057
0.00704832
0.00732843
0.00751268
0.00759163
-0.000505834
-0.000425362
-0.000236215
5.21487e-05
0.000431999
0.000893402
0.00142453
0.00201204
0.00264144
0.00329737
0.00396387
0.00462463
0.00526324
0.00586352
0.00640976
0.00688718
0.00728233
0.00758371
0.00778217
0.00786729
-0.000880344
-0.000792368
-0.000585653
-0.000270775
0.000143562
0.000646293
0.00122439
0.00186334
0.0025475
0.0032604
0.00398503
0.00470398
0.00539969
0.00605469
0.00665188
0.00717492
0.00760877
0.00794031
0.008159
0.00825296
-0.00137121
-0.00127321
-0.00104312
-0.000693116
-0.000233279
0.000323734
0.000963274
0.00166926
0.0024246
0.00321149
0.00401158
0.00480618
0.00557633
0.00630296
0.00696718
0.00755062
0.00803599
0.00840795
0.00865387
0.00875983
-0.00199174
-0.00188071
-0.00162048
-0.00122538
-0.000707492
-8.16479e-05
0.000635354
0.00142545
0.00226978
0.00314895
0.00404319
0.00493232
0.00579583
0.00661281
0.00736217
0.00802292
0.00857483
0.0089994
0.00928107
0.00940291
-0.00275913
-0.0026314
-0.00233279
-0.00188075
-0.00129015
-0.000578816
0.000233645
0.0011267
0.00207942
0.00307069
0.00407923
0.00508341
0.00606108
0.00698933
0.0078445
0.00860237
0.00923884
0.00973106
0.0100592
0.0102019
-0.00369536
-0.00354619
-0.00319889
-0.00267535
-0.00199449
-0.00117824
-0.000249848
0.000767131
0.00184943
0.00297418
0.00411871
0.00526014
0.0063748
0.00743781
0.00842268
0.00930129
0.0100445
0.0106234
0.011012
0.0111823
-0.00482849
-0.00465146
-0.00424199
-0.00362853
-0.0028359
-0.00189166
-0.000823823
0.000340446
0.00157537
0.00285647
0.00416005
0.00546248
0.00673906
0.0079632
0.00910551
0.0101334
0.0110112
0.0117019
0.0121699
0.0123775
-0.00619463
-0.0059805
-0.00549059
-0.00476315
-0.00383168
-0.00273163
-0.00149711
-0.000159527
0.00125283
0.00271431
0.00420092
0.0056892
0.00715441
0.00856903
0.00990109
0.0111131
0.0121613
0.0129975
0.013572
0.0138315
-0.00784108
-0.0075758
-0.00697961
-0.00610565
-0.00500054
-0.00371059
-0.00227766
-0.000737924
0.000878053
0.00254436
0.00423805
0.00593726
0.00761883
0.00925587
0.010815
0.0122538
0.0135193
0.0145478
0.0152687
0.0156036
-0.00983147
-0.00949239
-0.00875184
-0.00768591
-0.00636137
-0.00483916
-0.00317081
-0.00139755
0.000448811
0.00234366
0.00426706
0.00620098
0.00812627
0.0100192
0.0118474
0.0135655
0.0151099
0.0163973
0.0173255
0.0177764
-0.012256
-0.0118022
-0.0108596
-0.00953616
-0.00793074
-0.00612346
-0.00417717
-0.00213707
-3.43148e-05
0.00211024
0.00428241
0.00647108
0.00866459
0.0108463
0.0129892
0.0150485
0.0169531
0.0185965
0.0198246
0.0204746
-0.0152506
-0.0145959
-0.0133656
-0.0116878
-0.00971859
-0.00756114
-0.00528878
-0.00294805
-0.000565913
0.00184421
0.00427756
0.00673381
0.00921332
0.011712
0.014215
0.0166863
0.0190547
0.0211971
0.0228666
0.023895
-0.0191017
-0.0180027
-0.0163444
-0.0141645
-0.0117213
-0.00913441
-0.00648384
-0.0038112
-0.00113319
0.00154934
0.0042456
0.00697032
0.00974124
0.0125737
0.0154746
0.0184311
0.0213879
0.0242327
0.026557
0.0283768
-0.0236681
-0.02206
-0.0198526
-0.0169659
-0.0139071
-0.0107996
-0.00771955
-0.00469173
-0.00171336
0.00123469
0.00418053
0.00715723
0.010205
0.0133657
0.0166806
0.0201797
0.0238549
0.0276882
0.0309101
0.0342766
-0.0322884
-0.0274582
-0.0241775
-0.020116
-0.0162105
-0.0124725
-0.00892113
-0.0055336
-0.00226984
0.000917797
0.0040815
0.00726914
0.0105528
0.0140033
0.0177103
0.0217954
0.0263945
0.031852
0.036675
0.0439777
-0.0382745
-0.0330335
-0.0286029
-0.0232789
-0.0184464
-0.0140314
-0.010005
-0.00628019
-0.00276915
0.000609414
0.00393134
0.00727956
0.0107231
0.0143623
0.0183115
0.0227195
0.0276286
0.0343847
0.0388106
0.0519141
-0.0684426
-0.0388517
-0.0331599
-0.0257022
-0.0197638
-0.0148744
-0.0105666
-0.00665892
-0.00302315
0.000447383
0.0038454
0.00725857
0.0107838
0.0145501
0.0187615
0.0238479
0.0301986
0.0407682
0.0511657
0.0891789
7.91061e-07
7.14836e-05
0.000237164
0.000490057
0.000823591
0.00122925
0.00169675
0.00221436
0.00276913
0.00334728
0.00393439
0.00451577
0.0050767
0.00560278
0.00608026
0.00649643
0.00683993
0.00710125
0.00727292
0.0073466
-6.8531e-05
3.42617e-06
0.000172312
0.000429996
0.000769803
0.00118304
0.00165923
0.00218641
0.00275144
0.0033403
0.00393836
0.00453069
0.00510234
0.00563865
0.00612559
0.00655016
0.00690073
0.00716752
0.00734289
0.00741808
-0.000237399
-0.000162237
1.44284e-05
0.000283916
0.000639155
0.00107098
0.0015684
0.00211893
0.00270889
0.00332374
0.00394833
0.00456717
0.00516475
0.00572581
0.00623566
0.00668062
0.00704836
0.00732844
0.00751267
0.00759159
-0.000505476
-0.000425039
-0.000235935
5.23844e-05
0.000432194
0.00089356
0.00142465
0.00201214
0.00264153
0.00329745
0.00396394
0.00462468
0.0052633
0.00586357
0.0064098
0.0068872
0.00728234
0.00758369
0.00778212
0.00786721
-0.000879887
-0.00079195
-0.000585287
-0.000270464
0.000143821
0.000646503
0.00122456
0.00186347
0.0025476
0.00326049
0.0039851
0.00470403
0.00539973
0.00605472
0.0066519
0.00717493
0.00760876
0.00794027
0.00815892
0.00825285
-0.00137063
-0.00127267
-0.00104265
-0.000692711
-0.000232943
0.000324007
0.000963491
0.00166943
0.00242473
0.00321158
0.00401165
0.00480623
0.00557635
0.00630298
0.00696718
0.0075506
0.00803595
0.00840787
0.00865376
0.00875969
-0.00199099
-0.00188002
-0.00161987
-0.00122486
-0.00070706
-8.13002e-05
0.000635626
0.00142566
0.00226993
0.00314905
0.00404325
0.00493235
0.00579584
0.0066128
0.00736214
0.00802287
0.00857476
0.0089993
0.00928093
0.00940273
-0.00275817
-0.00263051
-0.00233201
-0.00188008
-0.0012896
-0.000578379
0.000233979
0.00112695
0.00207959
0.00307079
0.00407928
0.00508342
0.00606105
0.00698927
0.00784442
0.00860228
0.00923873
0.00973091
0.010059
0.0102017
-0.00369412
-0.00354504
-0.00319787
-0.00267449
-0.0019938
-0.0011777
-0.000249446
0.000767409
0.0018496
0.00297427
0.00411872
0.00526009
0.00637471
0.0074377
0.00842254
0.00930114
0.0100443
0.0106232
0.0110117
0.0111821
-0.00482687
-0.00464996
-0.00424068
-0.00362744
-0.00283503
-0.001891
-0.000823352
0.000340751
0.00157554
0.00285652
0.00416
0.00546235
0.00673888
0.00796298
0.00910528
0.0101331
0.011011
0.0117016
0.0121696
0.0123772
-0.0061925
-0.00597854
-0.00548889
-0.00476175
-0.0038306
-0.00273083
-0.00149658
-0.000159216
0.00125295
0.00271428
0.00420077
0.00568895
0.00715409
0.00856866
0.0099007
0.0111127
0.012161
0.0129971
0.0135717
0.0138312
-0.00783827
-0.00757322
-0.00697741
-0.00610388
-0.00499922
-0.00370966
-0.00227708
-0.000737644
0.00087809
0.0025442
0.00423773
0.00593681
0.00761829
0.00925526
0.0108144
0.0122532
0.0135188
0.0145473
0.0152683
0.0156032
-0.00982774
-0.009489
-0.00874901
-0.00768371
-0.00635979
-0.00483813
-0.00317025
-0.00139737
0.000448685
0.00234329
0.00426649
0.00620023
0.00812539
0.0100182
0.0118465
0.0135645
0.015109
0.0163967
0.017325
0.017776
-0.0122511
-0.0117978
-0.010856
-0.00953347
-0.00792891
-0.00612238
-0.00417669
-0.00213707
-3.469e-05
0.00210956
0.00428147
0.00646991
0.00866324
0.0108448
0.0129876
0.015047
0.0169518
0.0185955
0.0198239
0.0204741
-0.015244
-0.0145901
-0.0133611
-0.0116846
-0.00971659
-0.00756012
-0.00528852
-0.00294836
-0.000566673
0.00184308
0.00427612
0.00673207
0.00921132
0.0117098
0.0142127
0.0166841
0.0190527
0.0211957
0.0228656
0.0238946
-0.019093
-0.0179953
-0.0163389
-0.0141609
-0.0117193
-0.00913363
-0.00648397
-0.003812
-0.00113449
0.00154763
0.0042435
0.00696784
0.00973839
0.0125705
0.0154713
0.0184277
0.0213849
0.0242305
0.0265557
0.0283768
-0.0236563
-0.0220504
-0.019846
-0.016962
-0.0139053
-0.0107993
-0.00772029
-0.00469318
-0.00171534
0.00123226
0.00417765
0.00715385
0.0102011
0.0133613
0.0166759
0.020175
0.0238506
0.0276851
0.0309081
0.0342769
-0.0322749
-0.0274469
-0.0241705
-0.0201121
-0.0162092
-0.0124729
-0.00892265
-0.00553583
-0.0022726
0.000914581
0.00407781
0.00726479
0.0105477
0.0139975
0.0177039
0.0217889
0.0263887
0.0318484
0.0366732
0.0439805
-0.0382558
-0.0330194
-0.0285948
-0.0232751
-0.0184457
-0.0140327
-0.0100074
-0.00628321
-0.00277266
0.000605429
0.00392674
0.00727431
0.010717
0.0143552
0.0183034
0.0227107
0.0276194
0.0343783
0.0388042
0.0519158
-0.0684218
-0.0388344
-0.0331506
-0.0256982
-0.0197633
-0.014876
-0.0105694
-0.00666236
-0.00302707
0.000442999
0.00384043
0.00725281
0.010777
0.0145423
0.0187527
0.0238387
0.0301901
0.040764
0.051164
0.0891888
9.52991e-07
7.16311e-05
0.000237292
0.000490163
0.000823678
0.00122932
0.00169682
0.00221441
0.00276918
0.00334733
0.00393445
0.00451583
0.00507675
0.00560284
0.00608032
0.00649648
0.00683998
0.00710128
0.00727294
0.00734661
-6.83445e-05
3.59747e-06
0.000172461
0.000430123
0.000769907
0.00118313
0.0016593
0.00218647
0.0027515
0.00334035
0.00393842
0.00453075
0.00510239
0.0056387
0.00612564
0.0065502
0.00690077
0.00716754
0.0073429
0.00741807
-0.000237169
-0.000162024
1.46168e-05
0.000284077
0.00063929
0.0010711
0.0015685
0.00211901
0.00270896
0.0033238
0.00394838
0.00456722
0.0051648
0.00572585
0.0062357
0.00668065
0.00704838
0.00732844
0.00751265
0.00759157
-0.000505185
-0.000424768
-0.000235692
5.25934e-05
0.000432369
0.000893706
0.00142477
0.00201224
0.00264161
0.00329751
0.00396399
0.00462473
0.00526334
0.0058636
0.00640982
0.00688722
0.00728234
0.00758367
0.00778209
0.00786716
-0.000879515
-0.000791603
-0.000584975
-0.000270194
0.000144049
0.000646691
0.00122471
0.00186359
0.0025477
0.00326056
0.00398515
0.00470407
0.00539976
0.00605474
0.00665191
0.00717492
0.00760873
0.00794023
0.00815886
0.00825278
-0.00137016
-0.00127222
-0.00104225
-0.000692363
-0.00023265
0.000324247
0.000963681
0.00166958
0.00242484
0.00321166
0.0040117
0.00480626
0.00557637
0.00630297
0.00696717
0.00755057
0.0080359
0.00840781
0.00865368
0.00875959
-0.00199038
-0.00187945
-0.00161935
-0.00122441
-0.000706687
-8.09988e-05
0.00063586
0.00142583
0.00227005
0.00314913
0.00404329
0.00493237
0.00579583
0.00661277
0.0073621
0.00802281
0.00857468
0.0089992
0.00928082
0.0094026
-0.00275738
-0.00262977
-0.00233134
-0.00187951
-0.00128913
-0.000578004
0.000234264
0.00112715
0.00207972
0.00307086
0.0040793
0.0050834
0.006061
0.00698921
0.00784434
0.00860218
0.00923861
0.00973078
0.0100588
0.0102015
-0.0036931
-0.00354409
-0.00319702
-0.00267376
-0.00199321
-0.00117723
-0.000249108
0.000767639
0.00184974
0.00297432
0.00411871
0.00526003
0.00637462
0.00743757
0.00842239
0.00930098
0.0100441
0.010623
0.0110116
0.0111819
-0.00482556
-0.00464873
-0.00423959
-0.00362652
-0.00283429
-0.00189044
-0.000822959
0.000340998
0.00157566
0.00285654
0.00415993
0.00546222
0.00673869
0.00796276
0.00910504
0.0101329
0.0110107
0.0117014
0.0121694
0.012377
-0.0061908
-0.00597695
-0.00548749
-0.00476059
-0.00382969
-0.00273017
-0.00149614
-0.000158968
0.00125304
0.00271422
0.0042006
0.00568869
0.00715377
0.0085683
0.00990033
0.0111123
0.0121606
0.0129968
0.0135714
0.0138308
-0.00783604
-0.00757116
-0.00697562
-0.00610244
-0.00499812
-0.0037089
-0.00227661
-0.000737425
0.000878097
0.00254403
0.00423741
0.00593638
0.00761778
0.00925469
0.0108138
0.0122527
0.0135183
0.0145468
0.0152678
0.0156028
-0.00982484
-0.00948633
-0.00874674
-0.00768192
-0.00635849
-0.00483727
-0.00316978
-0.00139722
0.000448564
0.00234295
0.00426596
0.00619956
0.0081246
0.0100174
0.0118456
0.0135637
0.0151083