/*--------------------------------*- C++ -*----------------------------------*\
  =========                 |
  \\      /  F ield         | OpenFOAM: The Open Source CFD Toolbox
   \\    /   O peration     | Website:  https://openfoam.org
    \\  /    A nd           | Version:  10
     \\/     M anipulation  |
\*---------------------------------------------------------------------------*/
FoamFile
{
    format      ascii;
    class       surfaceScalarField;
    location    "4.825";
    object      phi;
}
// * * * * * * * * * * * * * * * * * * * * * * * * * * * * * * * * * * * * * //

dimensions      [0 3 -1 0 0 0 0];

internalField   nonuniform List<scalar> 
760
(
-8.51351e-06
8.5135e-06
-2.81246e-05
1.96111e-05
-5.07681e-05
2.26435e-05
-7.34827e-05
2.27146e-05
-9.53507e-05
2.18681e-05
-0.000115928
2.05773e-05
-0.000134782
1.88542e-05
-0.000151397
1.66149e-05
-0.000165159
1.37622e-05
-0.000175361
1.02016e-05
-0.000181215
5.85448e-06
-0.000181898
6.82985e-07
-0.000176575
-5.32343e-06
-0.000164577
-1.19975e-05
-0.000145508
-1.90695e-05
-0.000119435
-2.60733e-05
-8.72245e-05
-3.22102e-05
-5.12614e-05
-3.59631e-05
-1.74214e-05
-3.38399e-05
-1.74214e-05
-2.04592e-05
2.89727e-05
-5.76007e-05
5.67526e-05
-9.89732e-05
6.40159e-05
-0.000139981
6.37224e-05
-0.000178958
6.08451e-05
-0.000214966
5.65849e-05
-0.000247159
5.10475e-05
-0.000274646
4.41024e-05
-0.000296459
3.55747e-05
-0.000311548
2.52906e-05
-0.000318765
1.30712e-05
-0.000317115
-9.66186e-07
-0.000305413
-1.70261e-05
-0.000282869
-3.4541e-05
-0.000249097
-5.28422e-05
-0.000204405
-7.07653e-05
-0.000150261
-8.63543e-05
-9.03749e-05
-9.58488e-05
-3.33671e-05
-9.08477e-05
-5.07886e-05
-2.48993e-05
5.3872e-05
-6.87596e-05
0.000100613
-0.000117141
0.000112397
-0.000164845
0.000111427
-0.000210021
0.000106021
-0.000251622
9.81853e-05
-0.000288711
8.81363e-05
-0.000320315
7.57066e-05
-0.000345387
6.06471e-05
-0.000362796
4.2699e-05
-0.000371381
2.16568e-05
-0.000369789
-2.55817e-06
-0.000356765
-3.00506e-05
-0.000331282
-6.00243e-05
-0.000292715
-9.14084e-05
-0.000241185
-0.000122296
-0.000178159
-0.000149381
-0.000107798
-0.000166209
-4.01885e-05
-0.000158457
-9.0977e-05
-2.66351e-05
8.05071e-05
-7.36311e-05
0.000147609
-0.000125363
0.000164128
-0.000176355
0.00016242
-0.000224737
0.000154403
-0.000269483
0.000142931
-0.000309679
0.000128333
-0.000344368
0.000110395
-0.000372493
8.87721e-05
-0.000392872
6.30782e-05
-0.000404185
3.29695e-05
-0.000405034
-1.70851e-06
-0.000393634
-4.14506e-05
-0.000368493
-8.51657e-05
-0.000328377
-0.000131524
-0.000272846
-0.000177826
-0.00020309
-0.000219137
-0.000123622
-0.000245677
-4.62273e-05
-0.000235852
-0.000137204
-2.79272e-05
0.000108434
-7.75678e-05
0.00019725
-0.000132256
0.000218816
-0.00018627
0.000216434
-0.000237752
0.000205886
-0.000285745
0.000190924
-0.000329409
0.000171997
-0.000367848
0.000148834
-0.000400035
0.000120959
-0.000424749
8.77922e-05
-0.000440513
4.87329e-05
-0.000445646
3.42442e-06
-0.000437875
-4.92214e-05
-0.000414924
-0.000108116
-0.00037456
-0.000171888
-0.000315244
-0.000237143
-0.00023739
-0.000296991
-0.000145862
-0.000337205
-5.49442e-05
-0.00032677
-0.000192149
-2.94406e-05
0.000137875
-8.21643e-05
0.000249973
-0.000140332
0.000276984
-0.000197927
0.000274028
-0.000253113
0.000261072
-0.000305035
0.000242846
-0.000352976
0.000219937
-0.000396156
0.000192014
-0.00043364
0.000158443
-0.000464224
0.000118377
-0.000486327
7.08355e-05
-0.000497818
1.49156e-05
-0.000496064
-5.09759e-05
-0.000477529
-0.000126651
-0.000438493
-0.000210923
-0.000375588
-0.000300048
-0.000287593
-0.000384985
-0.000179307
-0.000445491
-6.86032e-05
-0.000437474
-0.000260752
-3.13193e-05
0.000169194
-8.77827e-05
0.000306437
-0.000150131
0.000339332
-0.000211982
0.000335879
-0.000271537
0.000320627
-0.000328087
0.000299396
-0.000381097
0.000272947
-0.000429989
0.000240906
-0.000474015
0.000202469
-0.000512104
0.000156466
-0.000542661
0.000101392
-0.0005633
3.55552e-05
-0.00057082
-4.34566e-05
-0.000560249
-0.000137222
-0.000525723
-0.000245449
-0.000460893
-0.000364877
-0.000361342
-0.000484536
-0.000230443
-0.000576391
-9.07926e-05
-0.000577124
-0.000351544
-3.35938e-05
0.000202788
-9.45052e-05
0.000367348
-0.000161736
0.000406563
-0.00022846
0.000402603
-0.000292939
0.000385106
-0.000354663
0.00036112
-0.00041336
0.000331645
-0.000468768
0.000296314
-0.000520479
0.000254179
-0.000567745
0.000203732
-0.000609197
0.000142844
-0.000642421
6.87795e-05
-0.000663815
-2.20626e-05
-0.000666889
-0.000134149
-0.000642939
-0.000269399
-0.00058107
-0.000426747
-0.000470992
-0.000594615
-0.00031136
-0.000736023
-0.000129282
-0.000759203
-0.000480826
-3.63104e-05
0.000239098
-0.000102425
0.000433462
-0.000175209
0.000479347
-0.000247312
0.000474706
-0.000317081
0.000454875
-0.000384272
0.000428311
-0.000448978
0.000396351
-0.000511388
0.000358724
-0.000571636
0.000314427
-0.000629586
0.000261682
-0.000684478
0.000197736
-0.000734333
0.000118635
-0.000775821
1.94253e-05
-0.000801174
-0.000108796
-0.000798571
-0.000272002
-0.000750881
-0.000474436
-0.000637885
-0.000707611
-0.000447015
-0.000926893
-0.00020258
-0.00100364
-0.000683406
-3.95875e-05
0.000278686
-0.000111761
0.000505636
-0.000190749
0.000558335
-0.000268589
0.000552547
-0.00034376
0.000530046
-0.00041636
0.000500911
-0.000486949
0.000466941
-0.000556323
0.000428097
-0.000625395
0.0003835
-0.000695027
0.000331314
-0.000765681
0.00026839
-0.000836772
0.000189726
-0.00090521
8.7863e-05
-0.000965261
-4.87455e-05
-0.00100218
-0.000235082
-0.000992036
-0.000484581
-0.000900147
-0.0007995
-0.00069036
-0.00113668
-0.000355858
-0.00133814
-0.00103926
-4.36771e-05
0.000322363
-0.000122971
0.00058493
-0.000208809
0.000644172
-0.000292564
0.000636302
-0.000372923
0.000610405
-0.000450415
0.000578403
-0.000526158
0.000542683
-0.000601675
0.000503615
-0.000678875
0.0004607
-0.00076
0.000412439
-0.000847428
0.000355819
-0.000943128
0.000285425
-0.00104733
0.000192066
-0.00115763
6.15532e-05
-0.00126216
-0.000130556
-0.00133402
-0.000412719
-0.00132126
-0.000812262
-0.00113897
-0.00131897
-0.000682278
-0.00179483
-0.00172154
-4.90732e-05
0.000371436
-0.000136913
0.00067277
-0.000230268
0.000737527
-0.000319888
0.000725922
-0.000404818
0.000695335
-0.000486126
0.000659712
-0.000565552
0.000622109
-0.000645387
0.000583449
-0.000728628
0.000543941
-0.000819215
0.000503025
-0.000922237
0.000458841
-0.00104392
0.000407112
-0.00119091
0.000339056
-0.00136765
0.000238287
-0.00157679
7.85919e-05
-0.00180071
-0.000188806
-0.00196938
-0.000643591
-0.00188805
-0.00140029
-0.00123488
-0.002448
-0.00295643
-5.67109e-05
0.000428147
-0.000155116
0.000771175
-0.000256658
0.000839069
-0.00035178
0.000821044
-0.000440155
0.00078371
-0.000523562
0.000743119
-0.000604384
0.000702932
-0.000685544
0.000664609
-0.00077093
0.000629327
-0.000866029
0.000598125
-0.000978812
0.000571623
-0.0011209
0.000549201
-0.0013089
0.000527054
-0.00156508
0.000494463
-0.00191332
0.000426832
-0.00235712
0.000254994
-0.00278425
-0.000216453
-0.00278202
-0.00140252
-0.00180165
-0.00342838
-0.00475807
-6.88057e-05
0.000496953
-0.000180729
0.000883098
-0.000290506
0.000948846
-0.000389727
0.000920265
-0.000479768
0.000873751
-0.000563168
0.000826519
-0.00064257
0.000782333
-0.000721142
0.000743182
-0.000803209
0.000711393
-0.000895153
0.00069007
-0.00100709
0.000683561
-0.00115557
0.000697675
-0.00136779
0.000739283
-0.00168407
0.000810742
-0.00215025
0.00089301
-0.00275577
0.000860508
-0.0032959
0.000323684
-0.00321406
-0.00148437
-0.00197449
-0.00466794
-0.00673256
-8.37724e-05
0.000580725
-0.000212832
0.00101216
-0.000333468
0.00106948
-0.00043879
0.00102559
-0.000529335
0.000964297
-0.00060927
0.000906454
-0.000682532
0.000855595
-0.000752618
0.000813269
-0.00082318
0.000781954
-0.000899278
0.000766168
-0.000990177
0.00077446
-0.00111256
0.000820054
-0.00129755
0.000924282
-0.00158928
0.00110247
-0.00203362
0.00133735
-0.00257594
0.00140283
-0.0030173
0.000765043
-0.00285692
-0.00164475
-0.0017913
-0.00573356
-0.00852386
-0.000148507
0.000729232
-0.000290586
0.00115424
-0.000403129
0.00118203
-0.00049476
0.00111722
-0.000575566
0.0010451
-0.000648818
0.000979706
-0.000715715
0.000922492
-0.000776661
0.000874215
-0.000832506
0.000837799
-0.000884453
0.000818114
-0.000936155
0.000826163
-0.000994904
0.000878802
-0.00107946
0.00100884
-0.00120597
0.00122899
-0.00140835
0.00153972
-0.0016223
0.00161678
-0.00181841
0.000961162
-0.00181473
-0.00164843
-0.00131643
-0.00623187
-0.00984029
-9.91344e-05
0.000828366
-0.000305356
0.00136046
-0.000462994
0.00133966
-0.000579175
0.0012334
-0.000663823
0.00112975
-0.000726413
0.0010423
-0.00077285
0.000968929
-0.000805778
0.000907142
-0.000825491
0.000857513
-0.000828411
0.000821034
-0.000809888
0.00080764
-0.00075887
0.000827784
-0.00066957
0.000919536
-0.000520313
0.00107973
-0.000322449
0.00134186
-0.000139531
0.00143386
-6.32101e-05
0.000884842
-0.000317283
-0.00139436
-0.000373636
-0.00617551
-0.0102139
-0.000389453
0.00121782
-0.000488116
0.00145912
-0.000584394
0.00143594
-0.000673172
0.00132218
-0.000718649
0.00117523
-0.00072903
0.00105268
-0.000712862
0.000952761
-0.000672966
0.000867246
-0.000614412
0.000798959
-0.000531493
0.000738115
-0.000422391
0.000698538
-0.000267577
0.000672971
-4.18161e-05
0.000693775
0.000280818
0.000757093
0.000748828
0.000873848
0.00127697
0.000905722
0.00178524
0.000376566
0.00164467
-0.00125379
0.000906143
-0.00543699
-0.00930778
-0.00134033
0.00255815
-0.00129769
0.00141648
-0.00105436
0.00119261
-0.000704574
0.00097239
-0.00033295
0.000803605
3.89154e-05
0.00068081
0.00039807
0.000593607
0.000739177
0.000526139
0.00106403
0.000474102
0.00137325
0.000428896
0.00167429
0.000397496
0.00197639
0.000370879
0.00230957
0.000360589
0.00270103
0.000365636
0.00323779
0.000337088
0.00387279
0.000270724
0.0044108
-0.000161448
0.00434577
-0.00118876
0.0026907
-0.00378192
-0.00661708
0.00255815
0.00397463
0.00516724
0.00613963
0.00694324
0.00762405
0.00821765
0.00874379
0.0092179
0.00964679
0.0100443
0.0104152
0.0107758
0.0111414
0.0114785
0.0117492
0.0115878
0.010399
0.00661708
)
;

boundaryField
{
    movingWall
    {
        type            calculated;
        value           uniform 0;
    }
    fixedWalls
    {
        type            calculated;
        value           uniform 0;
    }
    frontAndBack
    {
        type            empty;
        value           nonuniform List<scalar> 0();
    }
}


// ************************************************************************* //
