/*--------------------------------*- C++ -*----------------------------------*\
  =========                 |
  \\      /  F ield         | OpenFOAM: The Open Source CFD Toolbox
   \\    /   O peration     | Website:  https://openfoam.org
    \\  /    A nd           | Version:  10
     \\/     M anipulation  |
\*---------------------------------------------------------------------------*/
FoamFile
{
    format      ascii;
    class       volVectorField;
    location    "2.425";
    object      U;
}
// * * * * * * * * * * * * * * * * * * * * * * * * * * * * * * * * * * * * * //

dimensions      [0 1 -1 0 0 0 0];

internalField   nonuniform List<vector> 
400
(
(-0.000254289 0.00025214 0)
(-0.0011174 0.000426151 0)
(-0.00225993 0.000438705 0)
(-0.00330182 0.000416757 0)
(-0.00427699 0.000383136 0)
(-0.00515606 0.000340522 0)
(-0.0059163 0.00028939 0)
(-0.00653809 0.000230145 0)
(-0.00700327 0.000163363 0)
(-0.00729566 8.98826e-05 0)
(-0.0074017 1.10154e-05 0)
(-0.00731045 -7.2753e-05 0)
(-0.00701507 -0.000158788 0)
(-0.00651429 -0.000244663 0)
(-0.00581301 -0.000327377 0)
(-0.0049234 -0.00040339 0)
(-0.00386762 -0.000468475 0)
(-0.00268615 -0.000515554 0)
(-0.00135497 -0.00051544 0)
(-0.000319537 -0.000320595 0)
(-0.000442287 0.00111961 0)
(-0.00178239 0.00173158 0)
(-0.00347785 0.00176641 0)
(-0.00503124 0.00167227 0)
(-0.00647835 0.00152965 0)
(-0.00777604 0.0013499 0)
(-0.0088906 0.00113627 0)
(-0.00979372 0.000891581 0)
(-0.0104601 0.000619059 0)
(-0.0108678 0.000322503 0)
(-0.0110001 6.2084e-06 0)
(-0.0108432 -0.000323938 0)
(-0.0103886 -0.00065992 0)
(-0.00963703 -0.00099259 0)
(-0.00859714 -0.00131078 0)
(-0.0072875 -0.00160136 0)
(-0.0057408 -0.00184865 0)
(-0.00401315 -0.00202621 0)
(-0.00208206 -0.00203158 0)
(-0.000525306 -0.00135005 0)
(-0.000488104 0.00232692 0)
(-0.00195735 0.00347013 0)
(-0.00380839 0.00352439 0)
(-0.00550193 0.00333117 0)
(-0.00707849 0.00304088 0)
(-0.00849187 0.00267634 0)
(-0.00970621 0.00224505 0)
(-0.0106915 0.00175353 0)
(-0.0114211 0.00120881 0)
(-0.0118722 0.000618777 0)
(-0.0120256 -7.55983e-06 0)
(-0.0118653 -0.00065898 0)
(-0.0113819 -0.00132073 0)
(-0.0105743 -0.00197507 0)
(-0.00944937 -0.00260052 0)
(-0.0080248 -0.00317172 0)
(-0.00633402 -0.00365818 0)
(-0.00443739 -0.00400839 0)
(-0.0023091 -0.00403007 0)
(-0.000585132 -0.00275844 0)
(-0.000517615 0.00354688 0)
(-0.00208118 0.00524179 0)
(-0.00405291 0.00531503 0)
(-0.0058551 0.00502079 0)
(-0.00753385 0.0045817 0)
(-0.00904112 0.00403181 0)
(-0.01034 0.0033827 0)
(-0.0113996 0.00264431 0)
(-0.0121924 0.00182705 0)
(-0.012694 0.000942375 0)
(-0.0128843 3.64632e-06 0)
(-0.0127441 -0.000973651 0)
(-0.0122589 -0.00196948 0)
(-0.0114239 -0.00295795 0)
(-0.0102416 -0.00390711 0)
(-0.00872572 -0.00477851 0)
(-0.00690777 -0.00552504 0)
(-0.00485179 -0.0060671 0)
(-0.00252882 -0.00611502 0)
(-0.000640761 -0.004221 0)
(-0.00055592 0.00485123 0)
(-0.00224042 0.00713892 0)
(-0.00436707 0.00723209 0)
(-0.0063095 0.00683031 0)
(-0.00812029 0.00623378 0)
(-0.00974921 0.00548875 0)
(-0.0111583 0.00461121 0)
(-0.0123163 0.00361455 0)
(-0.0131947 0.00251227 0)
(-0.0137678 0.0013186 0)
(-0.0140126 4.94985e-05 0)
(-0.0139063 -0.00127498 0)
(-0.0134294 -0.00263091 0)
(-0.0125691 -0.00398544 0)
(-0.0113203 -0.00529608 0)
(-0.00968964 -0.00650975 0)
(-0.00770408 -0.00755923 0)
(-0.00543134 -0.00833009 0)
(-0.00283914 -0.00842025 0)
(-0.000720483 -0.00584195 0)
(-0.000606708 0.00626715 0)
(-0.00244975 0.00920188 0)
(-0.0047784 0.0093161 0)
(-0.00690303 0.00879784 0)
(-0.00888446 0.0080323 0)
(-0.0106699 0.00707938 0)
(-0.0122207 0.00596002 0)
(-0.0135055 0.00469117 0)
(-0.0144954 0.00328897 0)
(-0.0151637 0.00176954 0)
(-0.0154846 0.000150328 0)
(-0.0154308 -0.00154766 0)
(-0.0149752 -0.00329733 0)
(-0.0140943 -0.00506046 0)
(-0.0127711 -0.00678484 0)
(-0.0109998 -0.00840121 0)
(-0.00879802 -0.00981752 0)
(-0.00623545 -0.0108743 0)
(-0.00327452 -0.0110339 0)
(-0.000833852 -0.00768829 0)
(-0.000671402 0.00782553 0)
(-0.00271536 0.0114755 0)
(-0.00529864 0.0116111 0)
(-0.00765099 0.0109638 0)
(-0.00984405 0.0100137 0)
(-0.0118224 0.00883646 0)
(-0.0135472 0.00745879 0)
(-0.014988 0.00590146 0)
(-0.016117 0.00418273 0)
(-0.0169071 0.00231922 0)
(-0.0173303 0.000327671 0)
(-0.0173545 -0.00177224 0)
(-0.0169427 -0.00395442 0)
(-0.0160571 -0.00617846 0)
(-0.0146624 -0.00838459 0)
(-0.0127324 -0.0104867 0)
(-0.0102661 -0.0123621 0)
(-0.0073297 -0.0137916 0)
(-0.0038758 -0.0140666 0)
(-0.000992974 -0.00984687 0)
(-0.000751777 0.00956248 0)
(-0.00304462 0.0140118 0)
(-0.00594128 0.0141671 0)
(-0.00857034 0.0133732 0)
(-0.0110177 0.0122176 0)
(-0.0132254 0.0107946 0)
(-0.0151559 0.00913849 0)
(-0.0167817 0.00727421 0)
(-0.0180778 0.00522161 0)
(-0.0190189 0.00299618 0)
(-0.0195761 0.00061098 0)
(-0.019713 -0.00191961 0)
(-0.0193815 -0.00457603 0)
(-0.0185246 -0.00732162 0)
(-0.0170806 -0.0100944 0)
(-0.0149903 -0.0127937 0)
(-0.0122181 -0.0152602 0)
(-0.00881318 -0.0171952 0)
(-0.00470884 -0.0176637 0)
(-0.00121897 -0.0124383 0)
(-0.000850633 0.0115193 0)
(-0.00344824 0.01687 0)
(-0.0067252 0.0170395 0)
(-0.009684 0.0160737 0)
(-0.0124295 0.014684 0)
(-0.0149021 0.0129878 0)
(-0.0170678 0.0110288 0)
(-0.018905 0.00883747 0)
(-0.0203952 0.00643463 0)
(-0.0215178 0.00383266 0)
(-0.0222461 0.00103738 0)
(-0.0225415 -0.00194775 0)
(-0.0223448 -0.00511774 0)
(-0.0215757 -0.00844945 0)
(-0.0201362 -0.0118894 0)
(-0.0179152 -0.0153307 0)
(-0.0148165 -0.0185762 0)
(-0.0108413 -0.0212221 0)
(-0.005886 -0.0220191 0)
(-0.00155151 -0.0156384 0)
(-0.000972573 0.0137453 0)
(-0.00394244 0.0201192 0)
(-0.00767763 0.0202901 0)
(-0.0110238 0.0191156 0)
(-0.0141115 0.0174525 0)
(-0.0168813 0.0154471 0)
(-0.0193065 0.013156 0)
(-0.0213762 0.0106161 0)
(-0.0230829 0.00784953 0)
(-0.0244164 0.00486338 0)
(-0.0253566 0.00165203 0)
(-0.0258682 -0.00179903 0)
(-0.0258833 -0.00551028 0)
(-0.0252966 -0.00948726 0)
(-0.0239642 -0.0137044 0)
(-0.0216998 -0.0180685 0)
(-0.0183031 -0.0223556 0)
(-0.0136634 -0.0260346 0)
(-0.00760905 -0.027397 0)
(-0.00207022 -0.0197223 0)
(-0.00112553 0.0163022 0)
(-0.00455251 0.0238424 0)
(-0.00883865 0.0239889 0)
(-0.0126348 0.0225518 0)
(-0.0161069 0.0205606 0)
(-0.0191996 0.0181984 0)
(-0.0218993 0.0155388 0)
(-0.024212 0.0126279 0)
(-0.0261484 0.00948893 0)
(-0.0277157 0.00612226 0)
(-0.0289088 0.00250642 0)
(-0.0297041 -0.00139866 0)
(-0.0300332 -0.00565259 0)
(-0.0297701 -0.010311 0)
(-0.0287204 -0.0154083 0)
(-0.0265972 -0.0209052 0)
(-0.0230382 -0.0265895 0)
(-0.0176903 -0.0318075 0)
(-0.0102622 -0.0341587 0)
(-0.00294638 -0.025155 0)
(-0.00132391 0.0192729 0)
(-0.00531925 0.0281424 0)
(-0.0102684 0.0282167 0)
(-0.0145814 0.0264362 0)
(-0.0184748 0.0240402 0)
(-0.0219043 0.0212572 0)
(-0.0248778 0.0181835 0)
(-0.0274268 0.0148772 0)
(-0.0295892 0.011364 0)
(-0.0313995 0.0076363 0)
(-0.0328782 0.00365332 0)
(-0.0340278 -0.000659535 0)
(-0.0347962 -0.00540694 0)
(-0.035053 -0.0107297 0)
(-0.0345628 -0.0167677 0)
(-0.0329239 -0.0236072 0)
(-0.0295515 -0.0311403 0)
(-0.0236137 -0.0386705 0)
(-0.0146198 -0.0427841 0)
(-0.00456987 -0.0327843 0)
(-0.0015962 0.0227793 0)
(-0.00631159 0.0331567 0)
(-0.0120579 0.0330684 0)
(-0.0169569 0.0308221 0)
(-0.0212967 0.0279125 0)
(-0.0250578 0.0246222 0)
(-0.0282803 0.0210758 0)
(-0.0310324 0.0173468 0)
(-0.0333901 0.013465 0)
(-0.0354272 0.0094155 0)
(-0.0372056 0.00513722 0)
(-0.0387653 0.00051891 0)
(-0.0401046 -0.00459861 0)
(-0.0411325 -0.0104653 0)
(-0.0416053 -0.0173917 0)
(-0.0410338 -0.0257021 0)
(-0.038589 -0.0355874 0)
(-0.0326103 -0.0465439 0)
(-0.0222985 -0.0537619 0)
(-0.00786743 -0.0443876 0)
(-0.00200005 0.02691 0)
(-0.00765686 0.0390102 0)
(-0.0143539 0.0386335 0)
(-0.0198989 0.0357523 0)
(-0.0246863 0.03218 0)
(-0.0287429 0.028266 0)
(-0.0321544 0.0241713 0)
(-0.0350385 0.0199867 0)
(-0.0375212 0.0157481 0)
(-0.0397278 0.0114365 0)
(-0.0417753 0.00697692 0)
(-0.0437641 0.00223355 0)
(-0.0457813 -0.00301315 0)
(-0.0478481 -0.00914975 0)
(-0.0498109 -0.0166831 0)
(-0.0512183 -0.0263375 0)
(-0.0511042 -0.0389429 0)
(-0.0465534 -0.0547533 0)
(-0.0366353 -0.0672641 0)
(-0.0151353 -0.0634625 0)
(-0.00257139 0.0325563 0)
(-0.00942853 0.0460904 0)
(-0.0173206 0.0450492 0)
(-0.0235864 0.0412115 0)
(-0.0287951 0.0367839 0)
(-0.0330685 0.0321153 0)
(-0.0365596 0.0273858 0)
(-0.0394538 0.0227052 0)
(-0.0419363 0.0181215 0)
(-0.0441917 0.0136173 0)
(-0.0463985 0.0091063 0)
(-0.0487407 0.00441393 0)
(-0.0514672 -0.000737337 0)
(-0.0547757 -0.00674141 0)
(-0.0587691 -0.0142578 0)
(-0.063386 -0.0245602 0)
(-0.0679193 -0.0393644 0)
(-0.0677529 -0.0611826 0)
(-0.0624127 -0.0821125 0)
(-0.0295015 -0.0963936 0)
(-0.00429329 0.0373673 0)
(-0.0130994 0.0546772 0)
(-0.0215459 0.0527401 0)
(-0.0283563 0.0477989 0)
(-0.033792 0.042114 0)
(-0.038134 0.0362938 0)
(-0.0415409 0.0306696 0)
(-0.0442579 0.025377 0)
(-0.0465388 0.0204486 0)
(-0.0486442 0.0158535 0)
(-0.0508481 0.0115318 0)
(-0.0534402 0.00737103 0)
(-0.0567218 0.00319124 0)
(-0.0610849 -0.00138453 0)
(-0.0672341 -0.0072695 0)
(-0.0758068 -0.0162889 0)
(-0.0874354 -0.031459 0)
(-0.0947566 -0.0617551 0)
(-0.0992193 -0.0986471 0)
(-0.0456525 -0.157187 0)
(-0.0033858 0.0526149 0)
(-0.0137785 0.0613525 0)
(-0.0266096 0.0581036 0)
(-0.0343215 0.051184 0)
(-0.0402008 0.0447547 0)
(-0.0442837 0.0385134 0)
(-0.0470496 0.0326187 0)
(-0.0490105 0.027138 0)
(-0.0505376 0.0221186 0)
(-0.0519192 0.0175636 0)
(-0.0534165 0.013467 0)
(-0.0553216 0.00974335 0)
(-0.0581132 0.0063424 0)
(-0.0625999 0.0029101 0)
(-0.070067 -0.00100927 0)
(-0.0816617 -0.00781313 0)
(-0.102047 -0.0209636 0)
(-0.11385 -0.0600726 0)
(-0.127795 -0.125883 0)
(-0.0372433 -0.253457 0)
(-0.012058 0.0475814 0)
(-0.0310296 0.0851133 0)
(-0.0341494 0.0766055 0)
(-0.0424463 0.0670496 0)
(-0.0454759 0.0565078 0)
(-0.0469932 0.0465258 0)
(-0.0472116 0.0378245 0)
(-0.0467865 0.0305115 0)
(-0.0461144 0.0244795 0)
(-0.0455004 0.0195364 0)
(-0.0452892 0.0156574 0)
(-0.0456985 0.0127474 0)
(-0.0472723 0.0111479 0)
(-0.0501236 0.0110675 0)
(-0.0560633 0.0133697 0)
(-0.0624956 0.0142415 0)
(-0.0794979 0.0104876 0)
(-0.0738261 -0.0445821 0)
(-0.0992282 -0.15263 0)
(0.0122471 -0.341657 0)
(-0.0717552 0.112121 0)
(-0.0554861 0.0693581 0)
(-0.0545369 0.0630007 0)
(-0.0373892 0.0523455 0)
(-0.0223649 0.0420968 0)
(-0.00802098 0.0339438 0)
(0.00481629 0.0275549 0)
(0.015866 0.0223498 0)
(0.0250134 0.0181058 0)
(0.032631 0.0146072 0)
(0.0385756 0.0121177 0)
(0.0439476 0.0100848 0)
(0.047724 0.00963119 0)
(0.0534935 0.00910544 0)
(0.0553196 0.0108795 0)
(0.0719416 0.00746044 0)
(0.0608496 -0.00473759 0)
(0.10581 -0.0647811 0)
(0.0392311 -0.213282 0)
(0.091314 -0.37638 0)
(0.125477 0.142966 0)
(0.163933 0.0883815 0)
(0.245134 0.0642135 0)
(0.300292 0.0478587 0)
(0.341354 0.0357926 0)
(0.373365 0.0265555 0)
(0.398532 0.0196955 0)
(0.418496 0.0146811 0)
(0.433584 0.0111575 0)
(0.44667 0.00846976 0)
(0.454636 0.00666718 0)
(0.466179 0.00529849 0)
(0.466452 0.00385553 0)
(0.483291 0.004193 0)
(0.471128 0.000858726 0)
(0.500236 0.00366807 0)
(0.46362 -0.00788418 0)
(0.486924 -0.0184832 0)
(0.357599 -0.0549623 0)
(0.259121 -0.141637 0)
)
;

boundaryField
{
    movingWall
    {
        type            fixedValue;
        value           uniform (1 0 0);
    }
    fixedWalls
    {
        type            noSlip;
    }
    frontAndBack
    {
        type            empty;
    }
}


// ************************************************************************* //
