/*--------------------------------*- C++ -*----------------------------------*\
  =========                 |
  \\      /  F ield         | OpenFOAM: The Open Source CFD Toolbox
   \\    /   O peration     | Website:  https://openfoam.org
    \\  /    A nd           | Version:  10
     \\/     M anipulation  |
\*---------------------------------------------------------------------------*/
FoamFile
{
    format      ascii;
    class       surfaceScalarField;
    location    "7.1";
    object      phi;
}
// * * * * * * * * * * * * * * * * * * * * * * * * * * * * * * * * * * * * * //

dimensions      [0 3 -1 0 0 0 0];

internalField   nonuniform List<scalar> 
760
(
-1.07351e-05
1.07345e-05
-3.48759e-05
2.41408e-05
-6.37724e-05
2.88965e-05
-9.38684e-05
3.0096e-05
-0.000123999
3.0131e-05
-0.000153746
2.97463e-05
-0.000182699
2.89538e-05
-0.000210225
2.7525e-05
-0.000235372
2.51476e-05
-0.000256834
2.1462e-05
-0.000272917
1.60832e-05
-0.000281564
8.64658e-06
-0.000280462
-1.1016e-06
-0.000267285
-1.31778e-05
-0.000240227
-2.70575e-05
-0.000198727
-4.14997e-05
-0.000144609
-5.41181e-05
-8.3637e-05
-6.09722e-05
-2.75744e-05
-5.60626e-05
-2.75744e-05
-2.56292e-05
3.63636e-05
-7.25323e-05
7.10439e-05
-0.000126854
8.3218e-05
-0.000182764
8.60061e-05
-0.000237995
8.53621e-05
-0.000291423
8.3174e-05
-0.000342036
7.95672e-05
-0.000388581
7.40699e-05
-0.000429421
6.59878e-05
-0.000462467
5.45078e-05
-0.00048514
3.87561e-05
-0.00049441
1.79173e-05
-0.000487205
-8.30736e-06
-0.000460175
-4.02073e-05
-0.000411036
-7.61967e-05
-0.000339349
-0.000113186
-0.000248178
-0.00014529
-0.000146496
-0.000162654
-5.20871e-05
-0.000150471
-7.96616e-05
-3.21848e-05
6.85484e-05
-8.93464e-05
0.000128205
-0.000154798
0.000148669
-0.000221666
0.000152875
-0.000287328
0.000151023
-0.000350476
0.000146322
-0.000409962
0.000139054
-0.000464415
0.000128523
-0.000512078
0.00011365
-0.000550702
9.3132e-05
-0.000577508
6.55623e-05
-0.000589233
2.96423e-05
-0.000581891
-1.56493e-05
-0.000551514
-7.05842e-05
-0.00049484
-0.000132871
-0.000410564
-0.000197462
-0.000301565
-0.000254288
-0.000178341
-0.000285878
-6.30596e-05
-0.000265753
-0.000142721
-3.46757e-05
0.000103224
-9.63369e-05
0.000189867
-0.000166729
0.000219062
-0.000238541
0.000224686
-0.000309134
0.000221616
-0.000377301
0.000214489
-0.000442028
0.000203781
-0.00050209
0.000188585
-0.000555868
0.000167429
-0.000601186
0.00013845
-0.000635145
9.95213e-05
-0.000654041
4.85384e-05
-0.000653346
-1.63449e-05
-0.000627326
-9.66036e-05
-0.000570655
-0.000189542
-0.000479625
-0.000288492
-0.000355596
-0.000378318
-0.00021058
-0.000430893
-7.28195e-05
-0.000403514
-0.000215541
-3.56454e-05
0.00013887
-9.97137e-05
0.000253935
-0.000172989
0.000292337
-0.00024793
0.000299628
-0.000322019
0.000295705
-0.000394293
0.000286763
-0.000464036
0.000273524
-0.000530356
0.000254905
-0.00059196
0.000229033
-0.000646912
0.000193402
-0.000692323
0.000144932
-0.00072398
8.01951e-05
-0.000736466
-3.8582e-06
-0.000721668
-0.000111402
-0.000670895
-0.000240315
-0.000576041
-0.000383346
-0.000434585
-0.000519775
-0.000258878
-0.0006066
-8.70295e-05
-0.000575363
-0.00030257
-3.62082e-05
0.000175078
-0.000102163
0.00031989
-0.000177891
0.000368065
-0.000255661
0.000377398
-0.00033313
0.000373174
-0.000409677
0.00036331
-0.000485027
0.000348874
-0.000558805
0.000328683
-0.000630273
0.000300501
-0.000698017
0.000261145
-0.000759482
0.000206397
-0.000810315
0.000131028
-0.000843666
2.94924e-05
-0.000849539
-0.000105529
-0.000813771
-0.000276083
-0.000721022
-0.000476095
-0.000560346
-0.00068045
-0.000339675
-0.000827272
-0.00011158
-0.000803457
-0.00041415
-3.67066e-05
0.000211784
-0.000104537
0.00038772
-0.000182731
0.000446259
-0.000263335
0.000458002
-0.000344214
0.000454053
-0.000425171
0.000444267
-0.000506515
0.000430218
-0.000588608
0.000410776
-0.000671598
0.000383491
-0.000755043
0.000344591
-0.000837312
0.000288666
-0.000914623
0.000208339
-0.000979484
9.43535e-05
-0.00102027
-6.47391e-05
-0.00101683
-0.000279529
-0.000942767
-0.000550155
-0.000769727
-0.00085349
-0.000486694
-0.0011103
-0.000161344
-0.00112881
-0.000575494
-3.72036e-05
0.000248988
-0.000107001
0.000457518
-0.000187684
0.000526941
-0.000270996
0.000541314
-0.000355014
0.000538071
-0.000440038
0.000529291
-0.000527099
0.000517279
-0.000617538
0.000501215
-0.000712785
0.000478738
-0.000814011
0.000445816
-0.000921471
0.000396127
-0.00103335
0.000320214
-0.00114371
0.000204716
-0.00124182
3.33724e-05
-0.00130308
-0.000218269
-0.00128766
-0.000565573
-0.00113273
-0.00100843
-0.000771971
-0.00147106
-0.00027493
-0.00162585
-0.000850423
-3.77354e-05
0.000286723
-0.000109619
0.000529401
-0.000192709
0.000610031
-0.000278327
0.000626933
-0.000364748
0.000624492
-0.000452797
0.000617341
-0.000544322
0.000608803
-0.000641853
0.000598747
-0.000748532
0.000585416
-0.000867931
0.000565216
-0.00100363
0.000531823
-0.00115819
0.000474777
-0.00133129
0.000377817
-0.00151581
0.000217891
-0.00169843
-3.56498e-05
-0.00181872
-0.00044528
-0.00174754
-0.0010796
-0.00129725
-0.00192135
-0.000517991
-0.00240511
-0.00136841
-3.84361e-05
0.000325159
-0.00011263
0.000603595
-0.000197965
0.000695365
-0.000285192
0.00071416
-0.000372743
0.000712043
-0.000461956
0.000706554
-0.000555496
0.000702344
-0.000657146
0.000700397
-0.000771996
0.000700266
-0.000906721
0.000699941
-0.00106976
0.000694864
-0.00127126
0.00067627
-0.00152269
0.000629254
-0.00183495
0.00053015
-0.00220161
0.000331009
-0.00255242
-9.44669e-05
-0.00262359
-0.00100844
-0.00206007
-0.00248487
-0.000929864
-0.00353532
-0.00229828
-3.96365e-05
0.000364796
-0.000116654
0.000680613
-0.000204087
0.000782798
-0.00029197
0.000802043
-0.000378845
0.000798918
-0.000466496
0.000794205
-0.000558275
0.000794123
-0.000659035
0.000801156
-0.000775663
0.000816895
-0.000917996
0.000842273
-0.0011002
0.000877065
-0.0013429
0.000918977
-0.00167562
0.000961965
-0.00213318
0.000987711
-0.00271598
0.000913813
-0.00327288
0.00046243
-0.00343556
-0.000845763
-0.00278961
-0.00313081
-0.0014712
-0.00485373
-0.00376947
-4.20185e-05
0.000406814
-0.000122955
0.000761549
-0.000212471
0.000872314
-0.000299858
0.000889431
-0.000383793
0.000882853
-0.000466418
0.000876829
-0.000551483
0.000879188
-0.000644377
0.00089405
-0.000753028
0.000925546
-0.000889454
0.000978699
-0.00107235
0.00105997
-0.00133116
0.00117778
-0.0017086
0.0013394
-0.00224385
0.00152296
-0.00291196
0.00158193
-0.00349156
0.00104202
-0.00362338
-0.000713944
-0.003082
-0.00367219
-0.00190843
-0.0060273
-0.00567791
-4.66391e-05
0.000453454
-0.000133449
0.000848359
-0.000225422
0.000964287
-0.000311244
0.000975253
-0.000389739
0.000961347
-0.000463322
0.000950412
-0.00053586
0.000951727
-0.000612291
0.000970481
-0.000699885
0.00101314
-0.000809999
0.00108881
-0.000960716
0.00121068
-0.00117971
0.00139677
-0.00150412
0.00166381
-0.00195152
0.00197037
-0.00246474
0.00209514
-0.00286139
0.00143868
-0.00297563
-0.000599706
-0.00273346
-0.00391436
-0.00187767
-0.00688309
-0.00755557
-5.67503e-05
0.000510204
-0.000153095
0.000944703
-0.000247165
0.00105836
-0.000328818
0.00105691
-0.000398766
0.00103129
-0.000459818
0.00101146
-0.000514683
0.00100659
-0.000566811
0.00102261
-0.000620797
0.00106712
-0.000683346
0.00115136
-0.000764701
0.00129204
-0.00087742
0.00150949
-0.00103544
0.00182183
-0.00122964
0.00216457
-0.00142844
0.00229394
-0.00156528
0.00157552
-0.00167264
-0.00049235
-0.0017807
-0.0038063
-0.00139406
-0.00726973
-0.00894963
-6.9225e-05
0.000579429
-0.000178676
0.00105415
-0.000278887
0.00115857
-0.000360314
0.00113833
-0.000421627
0.00109261
-0.00046664
0.00105648
-0.000498368
0.00103832
-0.000518662
0.0010429
-0.000528319
0.00107678
-0.000527228
0.00115027
-0.000514773
0.00127958
-0.000484774
0.00147949
-0.000428248
0.0017653
-0.000325199
0.00206152
-0.000196763
0.00216551
-0.000129268
0.00150803
-0.000223966
-0.000397652
-0.000678156
-0.00335211
-0.000827427
-0.00712046
-0.00977706
-0.000136587
0.000716016
-0.000260695
0.00117826
-0.00034725
0.00124512
-0.000404871
0.00119595
-0.000444432
0.00113217
-0.000469668
0.00108171
-0.0004798
0.00104845
-0.000471707
0.00103481
-0.000440731
0.00104581
-0.00037921
0.00108875
-0.000276785
0.00117716
-0.000116028
0.00131874
0.000125523
0.00152375
0.00045181
0.00173524
0.000824718
0.0017926
0.00106126
0.00127148
0.000926655
-0.000263045
0.000182925
-0.00260838
-0.000337459
-0.00660008
-0.0101145
-8.87385e-05
0.000804754
-0.000277213
0.00136674
-0.000405122
0.00137303
-0.000480374
0.00127121
-0.000517314
0.00116911
-0.000525921
0.00109032
-0.000509298
0.00103183
-0.00046588
0.000991392
-0.000390542
0.000970469
-0.000271569
0.000969777
-9.4011e-05
0.0009996
0.00016176
0.00106297
0.000516901
0.00116861
0.000978923
0.00127321
0.0014793
0.00129223
0.00180422
0.00094656
0.00163558
-9.44083e-05
0.000848518
-0.00182131
0.000171249
-0.00592281
-0.00994327
-0.000383589
0.00118834
-0.000453634
0.00143678
-0.000519452
0.00143885
-0.000575954
0.00132771
-0.000586237
0.00117939
-0.000556366
0.00106045
-0.000491026
0.00096649
-0.000389535
0.000889901
-0.000252925
0.000833859
-7.26863e-05
0.000789538
0.000158589
0.000768324
0.000457527
0.000764028
0.000836711
0.000789427
0.00128902
0.000820905
0.00177819
0.000803056
0.00211496
0.000609793
0.00216326
-0.000142705
0.00171914
-0.0013772
0.000924667
-0.00512834
-0.0090186
-0.00136096
0.00254931
-0.00132696
0.00140277
-0.00107576
0.00118765
-0.000713282
0.000965232
-0.000329299
0.000795409
5.88962e-05
0.000672253
0.000439431
0.000585955
0.000811127
0.000518205
0.00117524
0.000469742
0.00153621
0.00042857
0.0019034
0.00040114
0.00228438
0.000383048
0.00270474
0.000369064
0.0031654
0.000360246
0.00367321
0.000295248
0.00411356
0.00016944
0.00426048
-0.000289623
0.00406807
-0.00118479
0.00256495
-0.00362522
-0.00645365
0.00254931
0.00395208
0.00513973
0.00610497
0.00690037
0.00757263
0.00815858
0.00867679
0.00914653
0.0095751
0.00997624
0.0103593
0.0107284
0.0110886
0.0113838
0.0115533
0.0112637
0.0100789
0.00645365
)
;

boundaryField
{
    movingWall
    {
        type            calculated;
        value           uniform 0;
    }
    fixedWalls
    {
        type            calculated;
        value           uniform 0;
    }
    frontAndBack
    {
        type            empty;
        value           nonuniform List<scalar> 0();
    }
}


// ************************************************************************* //
