/*--------------------------------*- C++ -*----------------------------------*\
  =========                 |
  \\      /  F ield         | OpenFOAM: The Open Source CFD Toolbox
   \\    /   O peration     | Website:  https://openfoam.org
    \\  /    A nd           | Version:  10
     \\/     M anipulation  |
\*---------------------------------------------------------------------------*/
FoamFile
{
    format      ascii;
    class       surfaceScalarField;
    location    "2.75";
    object      phi;
}
// * * * * * * * * * * * * * * * * * * * * * * * * * * * * * * * * * * * * * //

dimensions      [0 3 -1 0 0 0 0];

internalField   nonuniform List<scalar> 
760
(
-1.23045e-05
1.23045e-05
-3.31838e-05
2.08792e-05
-5.49048e-05
2.17211e-05
-7.56258e-05
2.0721e-05
-9.47211e-05
1.90952e-05
-0.000111736
1.70146e-05
-0.000126244
1.45082e-05
-0.000137838
1.15941e-05
-0.000146134
8.29645e-06
-0.000150784
4.64909e-06
-0.000151484
7.00413e-07
-0.000147987
-3.4973e-06
-0.000140151
-7.83554e-06
-0.000127957
-1.21937e-05
-0.000111541
-1.64161e-05
-9.12282e-05
-2.03132e-05
-6.75821e-05
-2.36461e-05
-4.15963e-05
-2.59858e-05
-1.58614e-05
-2.57349e-05
-1.58614e-05
-2.15285e-05
3.3833e-05
-5.43365e-05
5.36873e-05
-8.80457e-05
5.54302e-05
-0.000120071
5.27464e-05
-0.000149422
4.84465e-05
-0.000175374
4.29667e-05
-0.000197276
3.64094e-05
-0.00021453
2.88481e-05
-0.000226598
2.03648e-05
-0.000233003
1.10539e-05
-0.000233382
1.07937e-06
-0.000227408
-9.47143e-06
-0.000214937
-2.03065e-05
-0.000195999
-3.11314e-05
-0.000170841
-4.15744e-05
-0.000139974
-5.11796e-05
-0.000104249
-5.93717e-05
-6.51189e-05
-6.51155e-05
-2.61307e-05
-6.47231e-05
-4.19921e-05
-2.39966e-05
5.78297e-05
-6.02472e-05
8.99379e-05
-9.73794e-05
9.25624e-05
-0.000132607
8.79738e-05
-0.000164872
8.07113e-05
-0.000193397
7.14916e-05
-0.000217485
6.04976e-05
-0.0002365
4.78638e-05
-0.00024987
3.37343e-05
-0.000257095
1.8279e-05
-0.000257745
1.72947e-06
-0.000251432
-1.57845e-05
-0.000237992
-3.37466e-05
-0.000217405
-5.17181e-05
-0.000189878
-6.91012e-05
-0.000155914
-8.51439e-05
-0.0001164
-9.88861e-05
-7.29162e-05
-0.000108599
-2.93875e-05
-0.000108252
-7.13796e-05
-2.5486e-05
8.33157e-05
-6.40792e-05
0.000128531
-0.000103589
0.000132072
-0.000141086
0.00012547
-0.000175477
0.000115103
-0.000205967
0.000101981
-0.000231841
8.63714e-05
-0.000252443
6.84666e-05
-0.000267174
4.84652e-05
-0.000275488
2.65924e-05
-0.000276918
3.15983e-06
-0.000270978
-2.17245e-05
-0.000257374
-4.73503e-05
-0.000235975
-7.31176e-05
-0.000206878
-9.81985e-05
-0.000170495
-0.000121526
-0.000127697
-0.000141684
-8.01902e-05
-0.000156106
-3.23485e-05
-0.000156093
-0.000103728
-2.73204e-05
0.000110636
-6.88017e-05
0.000170012
-0.00011127
0.000174541
-0.000151606
0.000165806
-0.000188676
0.000152172
-0.000221664
0.00013497
-0.000249847
0.000114554
-0.000272552
9.11722e-05
-0.000289154
6.50665e-05
-0.000299056
3.64951e-05
-0.000301698
5.80138e-06
-0.000296506
-2.69167e-05
-0.000282998
-6.08576e-05
-0.000260841
-9.52744e-05
-0.000229926
-0.000129114
-0.000190497
-0.000160955
-0.000143353
-0.000188828
-9.03552e-05
-0.000209104
-3.65347e-05
-0.000209914
-0.000140263
-2.97263e-05
0.000140362
-7.49572e-05
0.000215243
-0.000121257
0.000220841
-0.000165255
0.000209805
-0.000205768
0.000192685
-0.000241967
0.000171168
-0.00027312
0.000145707
-0.000298555
0.000116607
-0.000317625
8.41361e-05
-0.000329687
4.85568e-05
-0.000334086
1.02005e-05
-0.000330105
-3.08976e-05
-0.000317021
-7.39411e-05
-0.000294208
-0.000118088
-0.000261218
-0.000162104
-0.000217987
-0.000204186
-0.000165128
-0.000241687
-0.000104646
-0.000269586
-4.24978e-05
-0.000272063
-0.000182761
-3.27731e-05
0.000173135
-8.27224e-05
0.000265193
-0.000133812
0.00027193
-0.000182359
0.000258351
-0.00022712
0.000237447
-0.000267263
0.000211312
-0.000302075
0.000180518
-0.000330898
0.00014543
-0.000353091
0.000106329
-0.000367979
6.34448e-05
-0.000374814
1.70361e-05
-0.000372724
-3.29881e-05
-0.000360663
-8.60017e-05
-0.000337592
-0.000141159
-0.000302539
-0.000197157
-0.000254892
-0.000251833
-0.000194849
-0.00030173
-0.000124448
-0.000339987
-5.09035e-05
-0.000345607
-0.000233664
-3.65326e-05
0.000209668
-9.22749e-05
0.000320935
-0.00014919
0.000328846
-0.000203211
0.000312372
-0.000253038
0.000287274
-0.000297856
0.00025613
-0.000337
0.000219663
-0.000369875
0.000178305
-0.000395886
0.00013234
-0.000414366
8.19249e-05
-0.000424501
2.71704e-05
-0.000425267
-3.2222e-05
-0.000415228
-9.60409e-05
-0.000392791
-0.000163596
-0.0003562
-0.000233747
-0.000303896
-0.000304138
-0.000235224
-0.000370401
-0.000151933
-0.000423278
-6.28855e-05
-0.000434655
-0.00029655
-4.11129e-05
0.000250781
-0.000103866
0.000383688
-0.000167738
0.000392717
-0.000228197
0.00037283
-0.000283899
0.000342976
-0.000334082
0.000306313
-0.000378186
0.000263766
-0.00041574
0.00021586
-0.00044627
0.00016287
-0.000469188
0.000104843
-0.000483674
4.16571e-05
-0.00048862
-2.72763e-05
-0.000482147
-0.000102514
-0.000461982
-0.000183761
-0.000425253
-0.000270476
-0.000368855
-0.000360535
-0.000290444
-0.000448813
-0.000190705
-0.000523016
-8.05248e-05
-0.000544835
-0.000377074
-4.66859e-05
0.000297467
-0.000117872
0.000454875
-0.000189951
0.000464796
-0.000257842
0.000440721
-0.000320188
0.000405322
-0.00037634
0.000362466
-0.00042592
0.000313346
-0.000468676
0.000258616
-0.00050436
0.000198554
-0.000532582
0.000133064
-0.000552639
6.17143e-05
-0.000563485
-1.643e-05
-0.000562824
-0.000103175
-0.000547649
-0.000198936
-0.000513617
-0.000304508
-0.000455266
-0.000418886
-0.000367092
-0.000536987
-0.000246985
-0.000643124
-0.000107906
-0.000683914
-0.00048498
-5.35346e-05
0.000351002
-0.000134869
0.000536209
-0.000216553
0.00054648
-0.000292883
0.000517052
-0.00036255
0.000474989
-0.000425113
0.000425028
-0.000480482
0.000368715
-0.000528753
0.000306886
-0.000570049
0.000239851
-0.000604348
0.000167363
-0.000631228
8.85945e-05
-0.000650112
2.45408e-06
-0.00065829
-9.49969e-05
-0.000652301
-0.000204925
-0.000626065
-0.000330744
-0.000570809
-0.000474142
-0.000475658
-0.000632138
-0.00033203
-0.000786752
-0.000153666
-0.000862278
-0.000638646
-6.2143e-05
0.000413145
-0.000155759
0.000629825
-0.000248619
0.000639339
-0.000334362
0.000602794
-0.000411858
0.000552486
-0.000481007
0.000494177
-0.000542155
0.000429862
-0.000595898
0.000360629
-0.000642919
0.000286872
-0.000683812
0.000208256
-0.000718857
0.00012364
-0.000747498
3.10948e-05
-0.000768546
-7.39494e-05
-0.000777815
-0.000195656
-0.000767836
-0.000340723
-0.000725862
-0.000516117
-0.000632769
-0.00072523
-0.000467229
-0.000952292
-0.00023765
-0.00109186
-0.000876297
-7.33983e-05
0.000486543
-0.000181994
0.000738421
-0.000287753
0.000745099
-0.000383763
0.000698804
-0.000469311
0.000638034
-0.000544822
0.000569688
-0.000611254
0.000496294
-0.000669879
0.000419254
-0.000722131
0.000339124
-0.000769456
0.000255581
-0.000813127
0.000167311
-0.000853799
7.17668e-05
-0.000891805
-3.59436e-05
-0.000924107
-0.000163355
-0.000943298
-0.000321532
-0.000933252
-0.000526162
-0.000864222
-0.00079426
-0.000693177
-0.00112334
-0.000406345
-0.00137869
-0.00128264
-8.90159e-05
0.000575559
-0.000216138
0.000865543
-0.000336447
0.000865408
-0.000443217
0.000805574
-0.000536566
0.000731383
-0.000617637
0.00065076
-0.000688195
0.000566852
-0.000750354
0.000481414
-0.000806475
0.000395244
-0.000859094
0.000308201
-0.000910937
0.000219154
-0.000964786
0.000125616
-0.00102215
2.14201e-05
-0.00108617
-9.93374e-05
-0.0011522
-0.000255498
-0.00120474
-0.000473622
-0.00120598
-0.000793017
-0.0010751
-0.00125422
-0.000739686
-0.00171411
-0.00202233
-0.000109513
0.000685071
-0.000260071
0.0010161
-0.000397521
0.00100286
-0.000515612
0.000923665
-0.00061596
0.000831731
-0.000700938
0.000735738
-0.00077354
0.000639454
-0.000836896
0.000544769
-0.000894311
0.00045266
-0.000949416
0.000363305
-0.00100627
0.000276008
-0.00106992
0.000189267
-0.00114875
0.000100251
-0.00125135
3.26068e-06
-0.00138115
-0.000125694
-0.00153674
-0.00031804
-0.00168628
-0.000643472
-0.00167318
-0.00126731
-0.00129332
-0.00209397
-0.00331565
-0.000164054
0.000849125
-0.000333802
0.00118585
-0.000480357
0.00114941
-0.000603698
0.00104701
-0.000707925
0.000935957
-0.000794772
0.000822585
-0.000867008
0.000711691
-0.000928267
0.000606028
-0.000982986
0.000507378
-0.00103619
0.000416507
-0.00109436
0.00033418
-0.00116508
0.000259983
-0.00125936
0.000194538
-0.00139076
0.000134654
-0.00158557
6.91237e-05
-0.00185709
-4.65245e-05
-0.00219467
-0.000305888
-0.00232842
-0.00113356
-0.0018235
-0.00259889
-0.00513915
-0.00014302
0.000992145
-0.0003847
0.00142753
-0.000574448
0.00133916
-0.000720228
0.00119279
-0.000829037
0.00104477
-0.000908246
0.000901794
-0.000966698
0.000770143
-0.00101204
0.000651369
-0.00105032
0.000545657
-0.00108602
0.00045221
-0.00112526
0.000373423
-0.00117503
0.000309752
-0.0012506
0.000270107
-0.00137545
0.000259506
-0.00159448
0.000288147
-0.0019276
0.000286596
-0.00237655
0.000143064
-0.00252119
-0.000988926
-0.00176529
-0.00335479
-0.00690444
-0.000425467
0.00141761
-0.000592537
0.0015946
-0.000726642
0.00147327
-0.000835082
0.00130123
-0.000895577
0.00110526
-0.000922634
0.000928851
-0.000928695
0.000776204
-0.000922576
0.00064525
-0.000911836
0.000534916
-0.000900572
0.000440945
-0.000897456
0.000370308
-0.000903726
0.000316022
-0.000932833
0.000299213
-0.000982778
0.000309451
-0.00107874
0.000384113
-0.00119569
0.000403544
-0.00130409
0.000251465
-0.00132939
-0.000963627
-0.000688538
-0.00399564
-0.00759298
-0.00125504
0.00267265
-0.0011664
0.00150596
-0.000927684
0.00123456
-0.000611896
0.000985438
-0.000292484
0.000785849
6.21436e-06
0.000630153
0.000272588
0.000509831
0.000505245
0.000412593
0.000703383
0.000336779
0.000872351
0.000271977
0.00101613
0.00022653
0.00114187
0.000190286
0.0012737
0.000167375
0.00141307
0.000170084
0.00164996
0.00014722
0.00191391
0.000139599
0.00226997
-0.000104593
0.00229333
-0.000986992
0.00155202
-0.00325433
-0.00604096
0.00267265
0.00417861
0.00541316
0.0063986
0.00718445
0.0078146
0.00832443
0.00873702
0.0090738
0.00934578
0.00957231
0.0097626
0.00992997
0.0101001
0.0102473
0.0103869
0.0102823
0.00929529
0.00604096
)
;

boundaryField
{
    movingWall
    {
        type            calculated;
        value           uniform 0;
    }
    fixedWalls
    {
        type            calculated;
        value           uniform 0;
    }
    frontAndBack
    {
        type            empty;
        value           nonuniform List<scalar> 0();
    }
}


// ************************************************************************* //
