/*--------------------------------*- C++ -*----------------------------------*\
  =========                 |
  \\      /  F ield         | OpenFOAM: The Open Source CFD Toolbox
   \\    /   O peration     | Website:  https://openfoam.org
    \\  /    A nd           | Version:  10
     \\/     M anipulation  |
\*---------------------------------------------------------------------------*/
FoamFile
{
    format      ascii;
    class       volScalarField;
    location    "3.075";
    object      p;
}
// * * * * * * * * * * * * * * * * * * * * * * * * * * * * * * * * * * * * * //

dimensions      [0 2 -2 0 0 0 0];

internalField   nonuniform List<scalar> 
8000
(
-3.43955e-08
-1.60207e-05
1.50004e-05
7.45106e-05
0.000167002
0.000292473
0.000450087
0.000638317
0.000854633
0.00109524
0.00135509
0.00162741
0.00190378
0.00217427
0.00242771
0.00265222
0.00283597
0.00296843
0.00304826
0.00304562
1.33245e-05
-3.54177e-06
2.74186e-05
8.50632e-05
0.000174824
0.000296993
0.000450994
0.000635558
0.000848408
0.00108605
0.00134349
0.00161403
0.00188975
0.00216056
0.00241516
0.00264145
0.00282725
0.00296172
0.00304417
0.00304092
-2.48665e-05
-4.45442e-05
-1.44893e-05
4.19528e-05
0.000130792
0.000252516
0.000406837
0.000592834
0.00080858
0.00105089
0.00131509
0.00159499
0.00188205
0.00216603
0.00243498
0.00267582
0.00287495
0.00301989
0.00310942
0.00310495
-9.7895e-05
-0.000120258
-9.12976e-05
-3.61763e-05
5.1864e-05
0.000173666
0.000329418
0.000518737
0.000740254
0.000991314
0.00126765
0.00156317
0.00186982
0.00217664
0.00247055
0.00273671
0.00295927
0.00312289
0.00322517
0.00322132
-0.000211561
-0.000237156
-0.000209538
-0.000155835
-6.83515e-05
5.42341e-05
0.000212753
0.000407554
0.000638044
0.000902327
0.0011968
0.00151575
0.00185126
0.00219185
0.00252313
0.00282783
0.00308655
0.00327949
0.00340194
0.00340035
-0.000368022
-0.000397696
-0.000371842
-0.000319996
-0.000233294
-0.0001098
5.21444e-05
0.000253849
0.000495759
0.000777042
0.00109508
0.00144484
0.00181901
0.00220558
0.00258867
0.00294796
0.00325912
0.00349559
0.00364858
0.0036517
-0.000569758
-0.000604575
-0.000581169
-0.000532101
-0.000447062
-0.000323357
-0.000158295
5.0655e-05
0.0003053
0.000606273
0.000952428
0.00133997
0.0017624
0.00220807
0.00265973
0.00309348
0.00347856
0.00377844
0.00397709
0.00398921
-0.000819926
-0.000861189
-0.000841237
-0.000796437
-0.000714731
-0.000592523
-0.000425871
-0.000210745
5.63827e-05
0.00037808
0.000755325
0.00118681
0.00166598
0.00218444
0.00272381
0.00325663
0.00374438
0.00413637
0.00440368
0.00443387
-0.00112238
-0.00117164
-0.00115647
-0.00111804
-0.00104223
-0.000924411
-0.00075917
-0.000540702
-0.000263411
7.76671e-05
0.000486259
0.00096377
0.00150787
0.00211237
0.00276029
0.003422
0.00405061
0.0045771
0.00494874
0.00501613
-0.0014819
-0.0015409
-0.00153209
-0.00150274
-0.0014363
-0.00132703
-0.00116785
-0.000950962
-0.000668409
-0.000312423
0.000124154
0.000646948
0.00125861
0.00195919
0.00273602
0.00356077
0.00437981
0.00510366
0.00563632
0.00578269
-0.00190464
-0.00197521
-0.00197433
-0.00195715
-0.00190438
-0.00180905
-0.00166228
-0.00145413
-0.00117416
-0.000811607
-0.000355405
0.000205258
0.000879414
0.00167875
0.00259921
0.00362146
0.00469175
0.00570366
0.00649004
0.00680469
-0.0023991
-0.00248272
-0.00249078
-0.00248886
-0.00245452
-0.0023795
-0.00225295
-0.00206276
-0.0017962
-0.00143976
-0.000978504
-0.000395241
0.000330545
0.00121014
0.00227207
0.00351536
0.00490284
0.00632844
0.00751998
0.00819425
-0.00297818
-0.00307459
-0.003091
-0.00310651
-0.00309521
-0.00304726
-0.0029496
-0.00278804
-0.00254807
-0.00221448
-0.00177015
-0.00119408
-0.000459842
0.000462281
0.00163803
0.00309488
0.0048507
0.00684712
0.00865836
0.010147
-0.00366619
-0.0037689
-0.00378811
-0.00382063
-0.00383562
-0.00382077
-0.00376029
-0.00363796
-0.00343825
-0.00314599
-0.00274467
-0.00221226
-0.00151559
-0.000597747
0.000596806
0.00216573
0.00426022
0.00695633
0.00969511
0.0129023
-0.00448925
-0.00459284
-0.00460378
-0.00464842
-0.00468783
-0.00470746
-0.00468911
-0.00461406
-0.00446615
-0.00423263
-0.00390328
-0.00346467
-0.00289584
-0.00215148
-0.00115392
0.000258573
0.00248361
0.00600981
0.00999782
0.0163788
-0.00561016
-0.00553212
-0.0054881
-0.00551157
-0.00558482
-0.00566439
-0.00571343
-0.00570248
-0.00561511
-0.00544628
-0.00519981
-0.00488013
-0.00448973
-0.00400431
-0.00334439
-0.00225837
-0.000571606
0.00321626
0.00777483
0.0193357
-0.00676013
-0.00698914
-0.00685581
-0.00692178
-0.00696223
-0.00700069
-0.00701856
-0.00699508
-0.00691972
-0.00678986
-0.00662393
-0.00645043
-0.0063252
-0.00629928
-0.00641004
-0.00650466
-0.00679644
-0.00336203
0.00118313
0.0211837
-0.0104682
-0.00783049
-0.00756706
-0.00730487
-0.00739716
-0.00758702
-0.00778843
-0.00792611
-0.00797713
-0.00793425
-0.00784731
-0.00776063
-0.0078105
-0.00810175
-0.00891194
-0.00990907
-0.0126286
-0.00964908
-0.00522599
0.0262744
-0.0106349
-0.0116325
-0.010659
-0.0106509
-0.0103732
-0.0101856
-0.0100222
-0.00984875
-0.00966556
-0.00944358
-0.00924657
-0.0091226
-0.00924651
-0.00983405
-0.0114123
-0.0134557
-0.0189792
-0.0156128
-0.00988328
0.047658
-0.0341841
-0.00930948
-0.0084915
-0.00782715
-0.00771122
-0.00803568
-0.00846497
-0.00875852
-0.00897346
-0.00900233
-0.00904589
-0.00899943
-0.00926046
-0.00955747
-0.0105459
-0.0103264
-0.00930132
0.00651721
0.0401919
0.139236
2.75114e-06
-2.19342e-05
8.13415e-06
6.71524e-05
0.000160008
0.000286306
0.000445052
0.000634718
0.000852737
0.00109541
0.00135746
0.00163214
0.00191107
0.00218421
0.00244021
0.00266701
0.00285232
0.00298477
0.00306341
0.00304974
2.57318e-05
1.03279e-07
3.04211e-05
8.71048e-05
0.000176416
0.000298359
0.000452242
0.000636811
0.000849812
0.00108777
0.00134575
0.00161708
0.00189371
0.00216561
0.00242135
0.00264869
0.00283505
0.00296889
0.00305028
0.00303521
-9.86539e-06
-3.92823e-05
-9.90249e-06
4.54385e-05
0.000133682
0.000255012
0.000409039
0.000594866
0.000810604
0.0010531
0.0013177
0.00159826
0.00188621
0.00217128
0.00244146
0.00268344
0.0028832
0.00302745
0.0031158
0.00309792
-8.03539e-05
-0.000113175
-8.48966e-05
-3.09821e-05
5.63414e-05
0.000177609
0.000332912
0.000521902
0.000743255
0.000994363
0.001271
0.00156717
0.00187468
0.00218263
0.00247784
0.00274527
0.00296855
0.0031314
0.00323233
0.00321335
-0.00019178
-0.000228619
-0.000201667
-0.000149229
-6.25107e-05
5.94947e-05
0.000217524
0.000411963
0.000642273
0.000906615
0.00120144
0.00152115
0.00185767
0.00219962
0.0025325
0.00283879
0.0030985
0.00329063
0.00341149
0.00339246
-0.000345755
-0.000387632
-0.0003624
-0.000311858
-0.000225939
-0.000103032
5.84308e-05
0.000259801
0.000501585
0.000783017
0.00110155
0.00145233
0.00182782
0.0022162
0.00260143
0.00296292
0.00327559
0.00351136
0.00366249
0.00364502
-0.000544416
-0.000592613
-0.000569762
-0.000522039
-0.000437799
-0.000314687
-0.000150093
5.85684e-05
0.000313174
0.000614433
0.000961281
0.00135011
0.0017745
0.00222274
0.00267749
0.00311453
0.00350214
0.00380176
0.00399839
0.00398618
-0.000790693
-0.00084677
-0.000827282
-0.00078389
-0.000703025
-0.000581443
-0.000415265
-0.000200386
6.68094e-05
0.000388977
0.000767158
0.0011998
0.00168245
0.00220472
0.00274875
0.00328681
0.00377905
0.00417199
0.00443722
0.00443831
-0.00108818
-0.00115398
-0.00113917
-0.00110227
-0.0010274
-0.000910304
-0.000745595
-0.000527365
-0.000249898
9.19146e-05
0.000501942
0.000981703
0.00153019
0.00214022
0.00279536
0.00346571
0.00410263
0.00463298
0.00500312
0.00503618
-0.00144126
-0.00151894
-0.00151036
-0.00148274
-0.00141748
-0.00130917
-0.0011507
-0.000934112
-0.000651306
-0.000294266
0.00014447
0.000671278
0.00128843
0.001997
0.00278509
0.00362434
0.00445894
0.00519341
0.00572674
0.00583604
-0.00185548
-0.00194737
-0.00194664
-0.00193161
-0.00188049
-0.00178659
-0.00164093
-0.00143332
-0.00115314
-0.000789271
-0.00033011
0.000235981
0.000918646
0.00172906
0.00266686
0.00371336
0.00481255
0.00585065
0.00664409
0.00693661
-0.00233823
-0.00244666
-0.00245489
-0.00245591
-0.00242416
-0.00235151
-0.00222687
-0.00203782
-0.00177138
-0.00141365
-0.000949167
-0.000360224
0.000373684
0.00127325
0.00236199
0.00364504
0.0050847
0.00656832
0.00778792
0.00850995
-0.00290026
-0.00302643
-0.0030434
-0.00306353
-0.00305662
-0.0030128
-0.00291858
-0.00275936
-0.00252031
-0.00218578
-0.00173795
-0.0011548
-0.000406968
0.000544401
0.00175451
0.00327045
0.00511298
0.0072206
0.00911328
0.0108977
-0.00356162
-0.00370182
-0.00372225
-0.00376275
-0.00378601
-0.00377903
-0.00372502
-0.00360731
-0.00341006
-0.00311772
-0.00271278
-0.0021712
-0.00145674
-0.0005155
0.000711726
0.00235876
0.00457698
0.00745852
0.0103746
0.0144766
-0.00433704
-0.00449988
-0.00451496
-0.00457658
-0.00462992
-0.00466212
-0.00465437
-0.00458734
-0.00444455
-0.00421287
-0.00388115
-0.0034369
-0.00285765
-0.00210094
-0.00107422
0.00042614
0.00271751
0.00643339
0.0104899
0.0186631
-0.00536882
-0.00534062
-0.00532121
-0.00537629
-0.00548627
-0.00559941
-0.00567644
-0.00568672
-0.0056136
-0.00545101
-0.00520381
-0.00487746
-0.00447755
-0.003986
-0.00333043
-0.0024
-0.000944279
0.00244734
0.00567528
0.0198531
-0.00629409
-0.00676963
-0.00665809
-0.00681984
-0.00691669
-0.00700419
-0.00705519
-0.00705457
-0.00699292
-0.0068671
-0.00669789
-0.00651606
-0.00638851
-0.00639747
-0.00666255
-0.0072877
-0.00901096
-0.00710352
-0.00595287
0.0175913
-0.00972709
-0.00726625
-0.00710484
-0.00698221
-0.00723269
-0.00754661
-0.00784023
-0.00804088
-0.0081296
-0.0080971
-0.00800491
-0.00789352
-0.00793222
-0.00826149
-0.00938013
-0.0110945
-0.0161602
-0.0161162
-0.0156877
0.022255
-0.00771775
-0.0104617
-0.00999706
-0.0105331
-0.0105697
-0.0105752
-0.0105268
-0.0104029
-0.0102246
-0.00995929
-0.00968818
-0.00948337
-0.00950877
-0.010067
-0.011995
-0.0145307
-0.0225056
-0.022256
-0.0137909
0.0505947
-0.0314894
-0.00724039
-0.00690254
-0.00691047
-0.00725073
-0.00783525
-0.00845674
-0.00889089
-0.00918749
-0.00920357
-0.00927289
-0.00914201
-0.00944637
-0.00971698
-0.010981
-0.0111304
-0.00993129
0.00655697
0.0520674
0.166223
7.0783e-06
-2.03801e-05
9.16151e-06
6.76013e-05
0.000160295
0.000286712
0.000445793
0.000635945
0.000854662
0.00109819
0.00136137
0.00163742
0.00191783
0.0021925
0.00244998
0.00267801
0.00286408
0.00299646
0.00307448
0.00305687
3.36994e-05
4.86031e-06
3.46569e-05
9.06219e-05
0.000179502
0.000301186
0.000454954
0.000639555
0.000852758
0.0010911
0.00134966
0.00162176
0.00189932
0.00217225
0.00242903
0.00265727
0.00284412
0.00297773
0.00305856
0.00303975
-2.36164e-07
-3.32291e-05
-4.4288e-06
5.00917e-05
0.000137807
0.000258775
0.000412578
0.000598333
0.000814172
0.00105697
0.00132209
0.0016034
0.00189228
0.00217843
0.00244974
0.00269273
0.0028931
0.00303716
0.00312494
0.00310283
-6.8775e-05
-0.000105472
-7.78185e-05
-2.48341e-05
6.18554e-05
0.000182647
0.00033761
0.000526417
0.000747777
0.000999115
0.00127623
0.00157317
0.00188169
0.00219085
0.00248736
0.00275602
0.0029801
0.00314284
0.00324322
0.00321955
-0.000178194
-0.000219251
-0.000192959
-0.000141539
-5.55372e-05
6.59122e-05
0.000223527
0.000417728
0.000648014
0.000912597
0.00120797
0.00152858
0.00186633
0.0022098
0.00254438
0.00285232
0.00311323
0.00330548
0.00342589
0.00340158
-0.000329826
-0.000376339
-0.000351796
-0.000302364
-0.000217243
-9.49696e-05
6.60154e-05
0.000267108
0.000508869
0.000790597
0.00110981
0.00146175
0.00183885
0.00222927
0.00261687
0.00298076
0.00329536
0.00353171
0.00368261
0.00365912
-0.000525568
-0.00057891
-0.000556783
-0.000510291
-0.000426963
-0.000304593
-0.000140565
6.77676e-05
0.000322355
0.00062399
0.000971699
0.00136202
0.00178862
0.00223974
0.00269791
0.00313862
0.00352942
0.00383056
0.00402745
0.00400814
-0.000768107
-0.000829948
-0.000811244
-0.000769263
-0.000689493
-0.000568832
-0.000403371
-0.000188922
7.82304e-05
0.000400855
0.000780113
0.00121463
0.00170038
0.00222673
0.00277581
0.00331957
0.00381723
0.00421357
0.00448014
0.00447294
-0.00106072
-0.00113305
-0.00111913
-0.00108392
-0.00101046
-0.00089459
-0.000730875
-0.000513288
-0.000235975
0.000106335
0.00051768
0.00099977
0.00155251
0.00216828
0.00283086
0.00351013
0.00415632
0.00469372
0.00506758
0.00509219
-0.00140733
-0.00149248
-0.001485
-0.00145955
-0.00139621
-0.00128966
-0.00113268
-0.000917159
-0.000634787
-0.00027733
0.000162861
0.000691433
0.00131522
0.00203171
0.00283059
0.00368364
0.00453386
0.00528242
0.00582457
0.00592929
-0.00181278
-0.00191335
-0.00191408
-0.00190202
-0.00185369
-0.00176248
-0.00161918
-0.00141341
-0.00113425
-0.000770253
-0.00030931
0.000261679
0.000949477
0.00176997
0.00272285
0.00379005
0.00491481
0.00597978
0.0067924
0.00709484
-0.00228331
-0.00240202
-0.00241238
-0.00241772
-0.00239027
-0.00232186
-0.00220108
-0.00201519
-0.00175087
-0.00139386
-0.000928203
-0.000335629
0.000404362
0.00131731
0.00242607
0.00373852
0.00521809
0.00675006
0.00801061
0.00878443
-0.00282768
-0.00296639
-0.00298674
-0.00301353
-0.0030135
-0.00297655
-0.00288866
-0.00273483
-0.00249978
-0.0021675
-0.00171973
-0.00113414
-0.000382924
0.000586292
0.00181961
0.00337249
0.00527172
0.0074583
0.00943149
0.0113798
-0.00346231
-0.00361841
-0.00364427
-0.00369551
-0.00373032
-0.00373483
-0.00369137
-0.0035827
-0.00339251
-0.00310484
-0.00270182
-0.00215837
-0.00143511
-0.000488229
0.000757868
0.00243989
0.00472349
0.00771865
0.0107728
0.0152235
-0.0041968
-0.00438266
-0.00440721
-0.00448759
-0.00455949
-0.00460993
-0.00461904
-0.00456661
-0.00443561
-0.00421218
-0.00388593
-0.00344408
-0.00286577
-0.00211011
-0.00108319
0.000416461
0.00273135
0.00655614
0.0107643
0.0195088
-0.00516082
-0.00515486
-0.00515398
-0.0052378
-0.00538107
-0.00552734
-0.00563558
-0.00567221
-0.00561922
-0.00547062
-0.00523248
-0.00491242
-0.00452049
-0.00404523
-0.00342681
-0.00257994
-0.00127708
0.00196566
0.0050832
0.0198675
-0.00595859
-0.00649651
-0.00641604
-0.00664121
-0.00679402
-0.00693384
-0.00703606
-0.0070754
-0.00704218
-0.006934
-0.00677525
-0.00660115
-0.00648878
-0.00654108
-0.00692626
-0.00782541
-0.0102176
-0.00898126
-0.00782322
0.0161159
-0.00929674
-0.00687887
-0.00673746
-0.00668701
-0.00702881
-0.0074314
-0.0078082
-0.00807436
-0.00821121
-0.00820685
-0.00812989
-0.00802219
-0.00807658
-0.00845345
-0.00976559
-0.0118429
-0.0178113
-0.0190754
-0.0180257
0.0216328
-0.00665182
-0.00963975
-0.00933555
-0.0100566
-0.0102659
-0.0104525
-0.0105599
-0.0105447
-0.0104377
-0.0102028
-0.00993241
-0.00971382
-0.0097258
-0.0103137
-0.0124834
-0.01535
-0.0240926
-0.0239394
-0.0117966
0.0545767
-0.0306451
-0.00639108
-0.00612147
-0.00631953
-0.00686593
-0.00762291
-0.00838736
-0.00891412
-0.00929233
-0.00933714
-0.00942765
-0.00927867
-0.00961248
-0.00993741
-0.0113052
-0.0115549
-0.00965605
0.0080401
0.0591791
0.177352
1.19004e-05
-1.73035e-05
1.16736e-05
6.96183e-05
0.000162097
0.000288514
0.000447782
0.000638328
0.000857627
0.00110193
0.00136605
0.00164318
0.0019248
0.00220072
0.00245941
0.00268846
0.00287515
0.00300754
0.00308519
0.00306551
4.05454e-05
1.00178e-05
3.9285e-05
9.46342e-05
0.000183125
0.00030459
0.000458292
0.00064299
0.000856464
0.00109527
0.00135447
0.0016274
0.00190592
0.0021799
0.0024377
0.00266681
0.00285417
0.00298773
0.00306819
0.0030471
7.95681e-06
-2.6861e-05
1.3783e-06
5.52092e-05
0.000142452
0.000263109
0.000416753
0.000602512
0.000818541
0.00106174
0.00132746
0.00160958
0.00189946
0.00218675
0.00245919
0.00270318
0.00290418
0.00304824
0.00313567
0.00311102
-5.88785e-05
-9.75292e-05
-7.04788e-05
-1.82654e-05
6.78579e-05
0.000188236
0.000342936
0.00053165
0.000753118
0.0010048
0.00128251
0.00158033
0.00188996
0.00220042
0.00249831
0.00276823
0.00299318
0.00315609
0.0032562
0.00322971
-0.000166418
-0.000209573
-0.000183934
-0.000133375
-4.80293e-05
7.29161e-05
0.000230184
0.000424227
0.000654588
0.000919525
0.00121558
0.00153721
0.00187633
0.00222146
0.00255786
0.00286757
0.00312983
0.00332258
0.00344291
0.00341546
-0.000315807
-0.00036459
-0.000340765
-0.000292302
-0.000207945
-8.62795e-05
7.42679e-05
0.000275141
0.000516961
0.000799091
0.00111912
0.00147235
0.00185122
0.00224388
0.00263403
0.00300053
0.00331734
0.00355484
0.00370609
0.00367912
-0.000508741
-0.000564565
-0.000543242
-0.000497869
-0.000415458
-0.000293849
-0.000130391
7.76271e-05
0.000332241
0.000634334
0.000983036
0.001375
0.00180397
0.00225818
0.00272004
0.00316471
0.00355917
0.00386271
0.0040608
0.00403777
-0.000747672
-0.00081226
-0.00079449
-0.000753852
-0.000675235
-0.000555578
-0.00039091
-0.000176947
9.01415e-05
0.000413253
0.000793696
0.00123029
0.0017192
0.00224985
0.00280427
0.00335413
0.00385786
0.00425887
0.00452839
0.00451785
-0.00103557
-0.00111098
-0.00109819
-0.00106468
-0.000992744
-0.000878278
-0.000715734
-0.000498945
-0.000221903
0.000120837
0.000533509
0.0010181
0.00157501
0.00219666
0.00286694
0.00355551
0.00421172
0.00475793
0.00513809
0.00516121
-0.0013759
-0.00146455
-0.00145854
-0.00143532
-0.00137413
-0.00126964
-0.00111446
-0.000900284
-0.000618598
-0.000260931
0.000180632
0.000712137
0.00134107
0.00206534
0.00287501
0.00374198
0.00460844
0.00537317
0.00592802
0.00603717
-0.00177283
-0.00187747
-0.00188019
-0.00187124
-0.00182607
-0.00173797
-0.00159751
-0.00139401
-0.00111629
-0.000752596
-0.00029043
0.000283792
0.000977279
0.00180751
0.00277489
0.00386217
0.00501241
0.00610617
0.00694408
0.0072666
-0.00223154
-0.00235511
-0.00236834
-0.0023782
-0.00235552
-0.00229194
-0.00217564
-0.00199354
-0.00173197
-0.00137632
-0.000910285
-0.000315125
0.000430475
0.00135494
0.00248177
0.00382129
0.00533893
0.00691991
0.00823088
0.00906109
-0.00275916
-0.00290387
-0.00292851
-0.00296212
-0.00296946
-0.00294008
-0.00285933
-0.00271167
-0.00248143
-0.00215231
-0.00170573
-0.00111921
-0.0003644
0.000616633
0.00186894
0.00345372
0.00540462
0.00766849
0.00973682
0.011837
-0.00336906
-0.00353315
-0.00356556
-0.00362739
-0.00367388
-0.00369042
-0.00365826
-0.00355947
-0.00337724
-0.00309544
-0.00269604
-0.00215331
-0.00142693
-0.000475962
0.000781654
0.0024912
0.00483011
0.00792898
0.011148
0.0159254
-0.00406782
-0.00426534
-0.00430041
-0.00439812
-0.00448803
-0.0045568
-0.00458327
-0.00454616
-0.00442784
-0.00421455
-0.00389609
-0.00346058
-0.00288868
-0.0021424
-0.00112684
0.000369618
0.0026918
0.0066132
0.0110593
0.0203832
-0.00497485
-0.00498167
-0.00499733
-0.00510639
-0.00527918
-0.00545624
-0.00559372
-0.00565604
-0.00562401
-0.00549165
-0.00526645
-0.00495877
-0.00458393
-0.00413806
-0.00357141
-0.00281029
-0.00162755
0.00148916
0.00472146
0.0202798
-0.0056838
-0.0062633
-0.00620645
-0.006482
-0.00668069
-0.00686682
-0.00700912
-0.00708233
-0.00707659
-0.00698924
-0.00684731
-0.00669057
-0.00660696
-0.00671838
-0.00723224
-0.00838312
-0.0113197
-0.0105917
-0.00933245
0.01564
-0.00891797
-0.0065322
-0.00642073
-0.00642778
-0.00683819
-0.00731335
-0.00775718
-0.00807972
-0.00826126
-0.00828761
-0.00823301
-0.00814376
-0.00823314
-0.00868257
-0.0101899
-0.0126104
-0.0193554
-0.0215794
-0.0202254
0.0214123
-0.00600828
-0.00915596
-0.00888768
-0.00973352
-0.0100533
-0.0103457
-0.0105471
-0.0106079
-0.0105581
-0.010356
-0.0101006
-0.00988996
-0.009917
-0.0105663
-0.0129349
-0.0161068
-0.0255399
-0.0257145
-0.0122331
0.0574507
-0.0299053
-0.00566645
-0.00546907
-0.00579837
-0.00649699
-0.00739471
-0.00828142
-0.00890181
-0.00935724
-0.00944133
-0.00955995
-0.009422
-0.00978638
-0.010171
-0.0116298
-0.0120075
-0.0100756
0.00811635
0.0614051
0.184124
1.68162e-05
-1.29995e-05
1.56484e-05
7.32304e-05
0.000165477
0.000291794
0.0004511
0.000641832
0.000861469
0.00110627
0.00137106
0.001649
0.00193154
0.00220845
0.00246809
0.00269796
0.00288519
0.00301776
0.00309536
0.00307492
4.63579e-05
1.51555e-05
4.40858e-05
9.90261e-05
0.000187223
0.000308511
0.000462162
0.000646947
0.00086066
0.00109987
0.00135964
0.0016333
0.00191269
0.00218759
0.00244632
0.00267623
0.00286415
0.0029979
0.00307835
0.00305655
1.47252e-05
-2.08251e-05
7.04748e-06
6.04189e-05
0.000147314
0.000267735
0.000421268
0.000607061
0.000823289
0.00106686
0.00133316
0.00161605
0.00190686
0.00219518
0.00246869
0.00271364
0.00291535
0.00305971
0.00314721
0.0031218
-5.07664e-05
-9.02101e-05
-6.35669e-05
-1.18805e-05
7.38205e-05
0.000193884
0.000348396
0.000537079
0.0007587
0.00101075
0.00128906
0.00158773
0.00189843
0.00221014
0.00250935
0.00278052
0.00300647
0.00316991
0.00327023
0.00324296
-0.000156681
-0.000200703
-0.000175522
-0.00012557
-4.07322e-05
7.98109e-05
0.000236812
0.000430761
0.000661247
0.000926567
0.0012233
0.00154595
0.00188639
0.00223313
0.0025713
0.00288277
0.00314654
0.00334024
0.00346108
0.00343284
-0.000304059
-0.000353798
-0.000330498
-0.000282748
-0.000199011
-7.78629e-05
8.23137e-05
0.000283017
0.000524928
0.000807474
0.00112831
0.00148279
0.00186337
0.00225818
0.00265081
0.00301989
0.00333905
0.00357824
0.00373054
0.00370283
-0.00049445
-0.000551338
-0.000530638
-0.000486127
-0.000404501
-0.000283579
-0.00012065
8.70749e-05
0.000341714
0.000644244
0.000993892
0.00138741
0.00181862
0.00227575
0.00274111
0.00318964
0.00358784
0.00389434
0.00409445
0.00407093
-0.000730111
-0.000795901
-0.000778897
-0.000739345
-0.000661766
-0.000543062
-0.000379177
-0.000165723
0.000101248
0.000424761
0.000806269
0.00124475
0.00173655
0.00227115
0.00283055
0.00338615
0.00389584
0.004302
0.00457531
0.00456502
-0.00101374
-0.00109053
-0.00107873
-0.00104664
-0.000976139
-0.00086305
-0.000701705
-0.000485795
-0.000209155
0.00013383
0.000547591
0.00103436
0.00159488
0.00222177
0.00289899
0.00359604
0.00426163
0.00481671
0.00520384
0.00522914
-0.00134844
-0.0014387
-0.00143401
-0.00141274
-0.00135359
-0.00125114
-0.00109783
-0.000885151
-0.000604388
-0.000246856
0.000195616
0.000729374
0.00136258
0.00209352
0.00291258
0.00379176
0.00467271
0.00545253
0.00602008
0.00613609
-0.0017378
-0.00184436
-0.00184893
-0.00184273
-0.00180055
-0.00171554
-0.00157799
-0.00137698
-0.00110109
-0.000738281
-0.000275745
0.000300554
0.000998297
0.00183648
0.00281593
0.00392006
0.00509206
0.00621087
0.0070721
0.00741215
-0.0021862
-0.00231213
-0.00232802
-0.00234187
-0.00232363
-0.00226472
-0.00215296
-0.00197491
-0.00171662
-0.0013632
-0.000898054
-0.000302028
0.000446918
0.00138011
0.00252106
0.00388218
0.00543077
0.00705194
0.00840576
0.00927655
-0.00269961
-0.00284732
-0.00287583
-0.0029153
-0.0029293
-0.002907
-0.00283321
-0.00269197
-0.00246726
-0.00214245
-0.00169894
-0.00111396
-0.000359731
0.000629941
0.00189609
0.00350481
0.00549589
0.00782052
0.00996467
0.0121575
-0.00328951
-0.00345768
-0.0034957
-0.00356623
-0.00362274
-0.00365001
-0.00362845
-0.00353954
-0.00336611
-0.00309153
-0.00269768
-0.00215836
-0.00143167
-0.000481916
0.000780748
0.00250941
0.00489029
0.00806766
0.0114168
0.0163734
-0.00396117
-0.00416437
-0.00420766
-0.00431856
-0.00442306
-0.00450745
-0.00454956
-0.00452718
-0.00442199
-0.00422011
-0.00391161
-0.00348533
-0.00292318
-0.0021902
-0.0011897
0.000304493
0.00263887
0.0066362
0.0112922
0.02092
-0.00482799
-0.00484051
-0.00486768
-0.00499489
-0.00518967
-0.00539075
-0.00555242
-0.00563736
-0.00562527
-0.00550992
-0.00529995
-0.00500785
-0.00465258
-0.00423442
-0.00370616
-0.00300203
-0.00187178
0.00119757
0.00466981
0.0206137
-0.00548781
-0.00608276
-0.00603874
-0.00634453
-0.0065739
-0.00679304
-0.00696802
-0.00707152
-0.00709217
-0.00702699
-0.00690493
-0.00676946
-0.00671621
-0.0068793
-0.00748819
-0.00879913
-0.0120532
-0.0115595
-0.0099793
0.015521
-0.0086567
-0.00628121
-0.00618648
-0.00622553
-0.00667764
-0.00720012
-0.00769198
-0.00805926
-0.00827931
-0.00833635
-0.00830769
-0.00824344
-0.00837027
-0.00888508
-0.0105339
-0.0131831
-0.020403
-0.0231447
-0.0212488
0.0212331
-0.00569734
-0.00886654
-0.00859029
-0.00948277
-0.0098539
-0.0102094
-0.0104774
-0.0105974
-0.0105962
-0.0104294
-0.0102
-0.0100128
-0.01007
-0.0107839
-0.0132981
-0.0166981
-0.0265589
-0.0269698
-0.012541
0.0586747
-0.0295133
-0.00525514
-0.00507769
-0.00545655
-0.00622888
-0.0072105
-0.00817845
-0.0088662
-0.0093776
-0.00949996
-0.00964995
-0.00953602
-0.00993362
-0.0103791
-0.0119246
-0.0124242
-0.010531
0.00788889
0.0624173
0.186877
2.14207e-05
-8.67325e-06
1.97473e-05
7.70738e-05
0.000169135
0.000295357
0.000454674
0.000645538
0.000865438
0.00111064
0.00137596
0.00165456
0.00193786
0.00221557
0.002476
0.00270656
0.00289431
0.00302716
0.00310484
0.00308415
5.142e-05
1.99353e-05
4.86341e-05
0.0001033
0.000191284
0.00031244
0.00046606
0.000650933
0.000864865
0.00110444
0.00136472
0.00163902
0.00191916
0.00219488
0.00245443
0.00268507
0.00287355
0.00300762
0.00308819
0.00306613
2.05127e-05
-1.53403e-05
1.22802e-05
6.53427e-05
0.000151986
0.000272233
0.000425695
0.00061154
0.000827964
0.0010719
0.00133872
0.0016223
0.00191394
0.00220319
0.00247766
0.0027235
0.00292591
0.00307071
0.00315842
0.00313274
-4.39101e-05
-8.36815e-05
-5.73226e-05
-5.99588e-06
7.93951e-05
0.000199224
0.000353606
0.000542292
0.000764081
0.00101648
0.00129536
0.00159481
0.00190649
0.00221934
0.00251976
0.0027921
0.00301905
0.00318315
0.00328385
0.00325634
-0.000148457
-0.000192837
-0.000167985
-0.000118462
-3.40105e-05
8.62184e-05
0.000243016
0.000436914
0.00066754
0.000933235
0.00123061
0.00155419
0.00189584
0.00224405
0.00258384
0.00289696
0.00316221
0.00335698
0.0034785
0.0034501
-0.0002941
-0.000344233
-0.000321327
-0.0002741
-0.000190858
-7.01358e-05
8.97337e-05
0.000290305
0.000532316
0.000815255
0.00113683
0.00149244
0.00187458
0.00227134
0.00266621
0.00303768
0.00335909
0.00360005
0.00375355
0.00372585
-0.000482278
-0.000539608
-0.000519395
-0.000475546
-0.000394573
-0.000274246
-0.000111784
9.56761e-05
0.000350334
0.00065325
0.00100374
0.00139864
0.00183184
0.00229157
0.00276007
0.00321208
0.00361376
0.00392318
0.00412541
0.00410226
-0.00071509
-0.000781386
-0.000765008
-0.000726323
-0.000649638
-0.00053179
-0.00036863
-0.000155665
0.000111158
0.000434985
0.000817395
0.0012575
0.00175181
0.00228985
0.0028536
0.00341428
0.00392932
0.00434031
0.0046173
0.00460817
-0.000995013
-0.0010724
-0.00106143
-0.00103052
-0.000961282
-0.000849453
-0.000689239
-0.000474195
-0.000198015
0.000145075
0.000559679
0.00104822
0.00161178
0.00224312
0.00292626
0.00363059
0.00430434
0.00486733
0.00526086
0.00528897
-0.00132485
-0.00141583
-0.00141228
-0.00139266
-0.00133533
-0.00123475
-0.00108321
-0.000872007
-0.000592246
-0.000235044
0.000207973
0.000743347
0.00138001
0.00211645
0.00294331
0.00383268
0.00472583
0.0055185
0.00609711
0.00621943
-0.00170776
-0.00181522
-0.0018214
-0.00181753
-0.001778
-0.00169579
-0.00156097
-0.00136239
-0.00108839
-0.000726701
-0.000264262
0.000313329
0.00101395
0.00185855
0.00284775
0.00396559
0.00515528
0.00629451
0.00717507
0.00752868
-0.00214756
-0.00227464
-0.00229281
-0.00230999
-0.00229562
-0.00224089
-0.0021333
-0.0019591
-0.00170408
-0.0013531
-0.000889398
-0.000293808
0.00045614
0.00139669
0.00254882
0.00392722
0.00550037
0.00715309
0.00854054
0.00943953
-0.00264945
-0.00279864
-0.00283038
-0.00287463
-0.00289427
-0.00287813
-0.00281059
-0.00267526
-0.00245583
-0.00213546
-0.00169546
-0.00111388
-0.000366225
0.000633637
0.0019098
0.00353839
0.00556106
0.0079323
0.0101336
0.0123862
-0.00322382
-0.003394
-0.00343652
-0.00351388
-0.00357853
-0.00361477
-0.00360239
-0.0035223
-0.00335691
-0.00308944
-0.00270134
-0.00216529
-0.00143501
-0.000492697
0.00077123
0.00251434
0.00492887
0.00816539
0.0116107
0.0166795
-0.00387545
-0.00408133
-0.0041308
-0.00425142
-0.00436729
-0.00446426
-0.00451937
-0.00450971
-0.00441643
-0.00422543
-0.00392689
-0.00350988
-0.00295687
-0.00223812
-0.00125318
0.000242822
0.00259319
0.00665195
0.0114621
0.0212828
-0.00471406
-0.00472919
-0.00476446
-0.00490442
-0.00511528
-0.00533459
-0.00551526
-0.00561874
-0.00562382
-0.0055241
-0.00532898
-0.00505236
-0.00471551
-0.00432108
-0.00381958
-0.00315529
-0.00204285
0.0010127
0.00465611
0.0208752
-0.00534564
-0.00594682
-0.00591038
-0.00623447
-0.0064846
-0.0067274
-0.00692664
-0.00705436
-0.00709712
-0.00705211
-0.00694951
-0.00683531
-0.00681022
-0.00701567
-0.00769263
-0.00910804
-0.0125558
-0.0121659
-0.0103576
0.0155423
-0.00846831
-0.00609667
-0.00601398
-0.00607232
-0.00655057
-0.00710498
-0.00763158
-0.00803229
-0.00828274
-0.00836629
-0.00836217
-0.00832339
-0.00848553
-0.00905497
-0.0108062
-0.0136088
-0.0211353
-0.0241496
-0.0219294
0.0210988
-0.00551147
-0.00868012
-0.00839032
-0.00930261
-0.0097006
-0.0100937
-0.0104067
-0.0105672
-0.0106029
-0.0104671
-0.010264
-0.010103
-0.0101937
-0.0109636
-0.0135867
-0.0171446
-0.0272995
-0.0278552
-0.0130029
0.0591719
-0.0292598
-0.00498637
-0.00481507
-0.0052167
-0.0060287
-0.00706086
-0.00808317
-0.00882023
-0.00937562
-0.00953316
-0.00971255
-0.00962467
-0.010058
-0.010553
-0.0121804
-0.0127702
-0.0109826
0.00752312
0.0625588
0.188147
2.54493e-05
-4.75419e-06
2.35243e-05
8.06841e-05
0.000172611
0.000298756
0.000458072
0.000649027
0.000869124
0.00111464
0.00138038
0.00165951
0.00194341
0.00222178
0.00248286
0.00271402
0.00290224
0.00303539
0.00311323
0.00309249
5.57048e-05
2.41017e-05
5.2652e-05
0.000107141
0.000194978
0.000316042
0.000469645
0.000654594
0.000868711
0.00110858
0.00136929
0.00164413
0.00192489
0.0022013
0.00246155
0.00269283
0.00288183
0.00301624
0.00309701
0.00307491
2.53382e-05
-1.06399e-05
1.68158e-05
6.96768e-05
0.000156145
0.000276271
0.000429688
0.000615587
0.000832183
0.00107642
0.00134369
0.00162785
0.00192019
0.00221023
0.00248552
0.00273214
0.00293522
0.00308048
0.00316846
0.00314278
-3.82545e-05
-7.81623e-05
-5.19945e-05
-9.08483e-07
8.42626e-05
0.000203922
0.000358216
0.000546922
0.000768866
0.00102158
0.00130094
0.00160106
0.00191358
0.00222739
0.00252886
0.00280223
0.00303008
0.00319486
0.00329601
0.00326853
-0.000141695
-0.000186226
-0.000161605
-0.000112378
-2.82108e-05
9.17811e-05
0.000248427
0.000442297
0.000673056
0.000939078
0.001237
0.00156137
0.00190407
0.00225352
0.0025947
0.00290925
0.00317582
0.00337164
0.00349387
0.00346559
-0.000285907
-0.000336213
-0.000313592
-0.000266742
-0.000183878
-6.34932e-05
9.6131e-05
0.000296599
0.000538701
0.000821975
0.00114418
0.00150075
0.0018842
0.00228259
0.00267937
0.00305287
0.00337625
0.00361884
0.00377351
0.00374612
-0.000472248
-0.000529779
-0.000509932
-0.000466579
-0.000386125
-0.000266286
-0.000104217
0.000103014
0.000357678
0.00066091
0.0010121
0.00140814
0.00184298