/*--------------------------------*- C++ -*----------------------------------*\
  =========                 |
  \\      /  F ield         | OpenFOAM: The Open Source CFD Toolbox
   \\    /   O peration     | Website:  https://openfoam.org
    \\  /    A nd           | Version:  10
     \\/     M anipulation  |
\*---------------------------------------------------------------------------*/
FoamFile
{
    format      ascii;
    class       volScalarField;
    location    "1.75";
    object      p;
}
// * * * * * * * * * * * * * * * * * * * * * * * * * * * * * * * * * * * * * //

dimensions      [0 2 -2 0 0 0 0];

internalField   nonuniform List<scalar> 
400
(
1.08143e-09
-1.26579e-06
7.27975e-05
0.000198569
0.000376657
0.000603838
0.000875554
0.00118614
0.00152875
0.00189535
0.00227675
0.00266272
0.00304211
0.00340315
0.00373383
0.00402233
0.00425756
0.00443
0.00453586
0.00454593
-1.27085e-07
-2.53295e-06
7.14089e-05
0.000196136
0.000372895
0.000598724
0.000869237
0.00117893
0.00152107
0.00188774
0.00226972
0.00265699
0.00303824
0.0034016
0.00373489
0.00402607
0.00426378
0.00443831
0.00454618
0.00455572
-7.61144e-05
-8.03981e-05
-5.1717e-06
0.000122041
0.000302777
0.000534166
0.000811896
0.00113052
0.00148332
0.00186231
0.00225835
0.00266097
0.00305847
0.00343851
0.00378824
0.00409479
0.0043458
0.00453056
0.00464506
0.00465444
-0.000210656
-0.000216643
-0.000138849
-6.86496e-06
0.000181236
0.000422715
0.000713356
0.00104776
0.00141922
0.00181964
0.00223958
0.00266843
0.00309377
0.00350237
0.00388027
0.00421319
0.00448715
0.00468968
0.00481578
0.00482656
-0.00040804
-0.000416019
-0.00033439
-0.000195321
3.6208e-06
0.000259874
0.00056934
0.000926688
0.00132518
0.00175661
0.00221123
0.00267804
0.0031438
0.00359409
0.00401337
0.00438533
0.00469353
0.00492285
0.00506655
0.00508013
-0.000672745
-0.000683329
-0.000596698
-0.000448366
-0.000235224
4.04122e-05
0.000374605
0.000762122
0.00119623
0.00166857
0.00216912
0.00268651
0.00320647
0.00371317
0.00418903
0.00461501
0.00497124
0.00523862
0.00540767
0.00542585
-0.00101024
-0.00102433
-0.000931709
-0.000772165
-0.000541678
-0.000242227
0.000122489
0.000547394
0.00102581
0.00154928
0.00210746
0.00268895
0.00327821
0.00385797
0.0044082
0.00490639
0.00532798
0.00564812
0.00585292
0.00587844
-0.00142745
-0.00144635
-0.00134702
-0.00117463
-0.000923943
-0.000596474
-0.00019559
0.00027387
0.000805364
0.00139046
0.00201831
0.0026784
0.00335345
0.00402515
0.00467084
0.00526374
0.00577312
0.00616593
0.00642109
0.00645843
-0.00193286
-0.00195843
-0.00185202
-0.00166557
-0.00139222
-0.00103283
-0.000590334
-6.92756e-05
0.000524071
0.00118169
0.00189402
0.00264539
0.00342367
0.0042085
0.00497462
0.00569036
0.00631718
0.00681049
0.00713735
0.00719448
-0.00253656
-0.00257144
-0.00245813
-0.002257
-0.00195899
-0.0015641
-0.00107479
-0.00049531
0.000168262
0.000908094
0.00171446
0.00257507
0.00347588
0.00439729
0.0053129
0.00618668
0.00697056
0.00760442
0.00803514
0.00812732
-0.00325052
-0.00329852
-0.00317924
-0.00296355
-0.00263943
-0.00220578
-0.00166456
-0.00101991
-0.000277861
0.000554046
0.0014669
0.00245033
0.00349195
0.00457421
0.00567184
0.00674654
0.00774061
0.00857397
0.00915835
0.00931667
-0.00408905
-0.00415558
-0.00403236
-0.0038032
-0.00345205
-0.00297644
-0.00237803
-0.00166126
-0.000832571
0.00010057
0.00113032
0.00224846
0.00344666
0.00471246
0.00602589
0.00735131
0.00862515
0.0097462
0.0105628
0.0108543
-0.00506962
-0.00516219
-0.00503876
-0.00479839
-0.00441973
-0.00389847
-0.00323656
-0.00243976
-0.00151599
-0.000473399
0.000680978
0.00194181
0.00330656
0.00477227
0.00633135
0.00796014
0.00959881
0.0111401
0.0123158
0.0128877
-0.00621752
-0.00634506
-0.00622651
-0.0059782
-0.00557133
-0.00499889
-0.00426446
-0.00337715
-0.00234845
-0.00118884
9.47112e-05
0.00150013
0.00303023
0.00469789
0.00651746
0.00849338
0.01059
0.0127434
0.014489
0.0156598
-0.00753316
-0.00772733
-0.00762847
-0.00738032
-0.00694408
-0.00631059
-0.00548876
-0.00449483
-0.00334759
-0.00206281
-0.000649503
0.000892171
0.00257183
0.00441889
0.00648024
0.00881252
0.0114426
0.0144617
0.0170789
0.0196083
-0.00926548
-0.00939452
-0.00931223
-0.00906305
-0.00859014
-0.0078757
-0.0069395
-0.00581201
-0.00452491
-0.00310279
-0.00155952
0.000107376
0.00191652
0.00388344
0.00611329
0.00873723
0.0118707
0.0159792
0.0197268
0.025161
-0.0107319
-0.011397
-0.0113521
-0.0111401
-0.0106101
-0.00975831
-0.00865035
-0.00734199
-0.00588148
-0.00430526
-0.00264183
-0.000911035
0.000883375
0.00277445
0.00488318
0.00748885
0.0105324
0.0161206
0.0210234
0.0322608
-0.0147178
-0.0129851
-0.0133163
-0.0130595
-0.0125755
-0.0116929
-0.010477
-0.00900354
-0.00735174
-0.0055919
-0.00377204
-0.00190819
-1.46449e-05
0.00198733
0.00404504
0.00663773
0.00925966
0.0153844
0.0218025
0.0404112
-0.0148836
-0.0184462
-0.0181786
-0.0180997
-0.0170811
-0.01538
-0.0133949
-0.0112947
-0.00918489
-0.00710381
-0.00509596
-0.00318609
-0.0014598
0.000102572
0.0010163
0.00204864
0.0010441
0.00784973
0.0108476
0.0508894
-0.0373633
-0.0155463
-0.0164342
-0.0165694
-0.0158251
-0.0146178
-0.0130958
-0.0113008
-0.00933955
-0.00731936
-0.00534958
-0.00339338
-0.00170439
0.000109112
0.00118119
0.00378685
0.00688376
0.0222593
0.0531643
0.130099
)
;

boundaryField
{
    movingWall
    {
        type            zeroGradient;
    }
    fixedWalls
    {
        type            zeroGradient;
    }
    frontAndBack
    {
        type            empty;
    }
}


// ************************************************************************* //
