/*--------------------------------*- C++ -*----------------------------------*\
  =========                 |
  \\      /  F ield         | OpenFOAM: The Open Source CFD Toolbox
   \\    /   O peration     | Website:  https://openfoam.org
    \\  /    A nd           | Version:  10
     \\/     M anipulation  |
\*---------------------------------------------------------------------------*/
FoamFile
{
    format      ascii;
    class       volScalarField;
    location    "7";
    object      p;
}
// * * * * * * * * * * * * * * * * * * * * * * * * * * * * * * * * * * * * * //

dimensions      [0 2 -2 0 0 0 0];

internalField   nonuniform List<scalar> 
400
(
-4.14858e-09
-1.32206e-05
2.37629e-05
0.000107554
0.000237954
0.000416545
0.000645344
0.000926324
0.00126068
0.00164786
0.00208449
0.00256302
0.00307046
0.00358727
0.00408689
0.00453702
0.00490343
0.00515697
0.00528014
0.0052674
1.42556e-05
5.84515e-07
4.08413e-05
0.000125519
0.000253911
0.000428665
0.000652413
0.000927494
0.00125546
0.00163624
0.00206699
0.0025408
0.00304555
0.00356238
0.00406453
0.00451899
0.0048904
0.00514907
0.00527604
0.0052587
-2.99654e-05
-4.86715e-05
-9.90665e-06
7.24511e-05
0.000196967
0.000366851
0.000585403
0.0008558
0.00118068
0.00156131
0.00199645
0.00248088
0.0030038
0.00354647
0.00408076
0.00456959
0.0049713
0.00524967
0.00538087
0.00534806
-0.000133613
-0.000157143
-0.000121793
-4.39205e-05
7.47385e-05
0.000237983
0.000450017
0.000715294
0.00103818
0.00142212
0.00186843
0.00237451
0.00293173
0.00352246
0.00411599
0.00466835
0.00512631
0.00544103
0.00558055
0.00552581
-0.000298057
-0.000325695
-0.000294898
-0.00022341
-0.000112906
4.1161e-05
0.000244135
0.000502126
0.000821787
0.0012096
0.00167062
0.00220636
0.00281167
0.00347195
0.00415413
0.00480483
0.00535237
0.00572564
0.00587783
0.00578689
-0.000523207
-0.00055521
-0.000530403
-0.000467624
-0.000368414
-0.000227429
-3.80587e-05
0.00020771
0.000519291
0.000907042
0.00138122
0.00194949
0.00261264
0.00336254
0.00416681
0.00496152
0.00564696
0.00611332
0.00628322
0.00612422
-0.000807641
-0.000844849
-0.000827877
-0.000776821
-0.000693232
-0.000571094
-0.000402625
-0.000177917
0.000115398
0.000492149
0.000969154
0.0015629
0.0022855
0.00313671
0.00409688
0.00509495
0.00599135
0.00660929
0.00680717
0.00651807
-0.00114916
-0.00119268
-0.00118569
-0.00115
-0.00108753
-0.000991946
-0.000854737
-0.00066454
-0.000406397
-6.11457e-05
0.000394992
0.000989966
0.00175175
0.0026977
0.003833
0.00510421
0.0063231
0.00720043
0.00745238
0.006928
-0.00154481
-0.0015958
-0.001601
-0.00158457
-0.00154942
-0.00148964
-0.00139683
-0.00125927
-0.00106074
-0.000779204
-0.000385139
0.000160202
0.000902584
0.00188806
0.00315451
0.00475305
0.00645559
0.00780753
0.00818061
0.0073134
-0.00199079
-0.00205033
-0.00206939
-0.00207561
-0.00207381
-0.00205954
-0.00202591
-0.00196272
-0.00185508
-0.00168164
-0.00141205
-0.00100402
-0.000399954
0.000465474
0.00163402
0.00349811
0.00581346
0.00800578
0.00872786
0.00773683
-0.0024828
-0.00255155
-0.00258477
-0.00261525
-0.00265111
-0.00269073
-0.00273053
-0.00276444
-0.00278292
-0.00277161
-0.00270915
-0.00256491
-0.00230015
-0.00185288
-0.00103516
0.00024382
0.00280338
0.00613786
0.00804306
0.00828093
-0.00301689
-0.00309464
-0.00313955
-0.00319233
-0.00326631
-0.00336429
-0.00348783
-0.00363797
-0.00381549
-0.00402183
-0.00426037
-0.00454187
-0.0049152
-0.00551686
-0.00640416
-0.00692104
-0.00545104
-0.00118642
0.00365497
0.00781157
-0.00359143
-0.00367629
-0.0037256
-0.00379257
-0.00389866
-0.0040524
-0.00426185
-0.00453736
-0.00489437
-0.00535884
-0.00597642
-0.00683355
-0.00814
-0.0103958
-0.0141193
-0.0184157
-0.019716
-0.0154989
-0.0071847
0.00284387
-0.00421051
-0.00429648
-0.00433421
-0.00439819
-0.00452163
-0.00471902
-0.00500454
-0.00539805
-0.00593091
-0.00665726
-0.00767482
-0.00916677
-0.0115242
-0.0156004
-0.0223541
-0.0309111
-0.0359201
-0.0325262
-0.0221466
-0.00744651
-0.004894
-0.00496976
-0.00496678
-0.00499471
-0.00510745
-0.00532418
-0.00566149
-0.00614499
-0.00681754
-0.00775464
-0.00909496
-0.0110987
-0.0142679
-0.0195663
-0.0280172
-0.0387518
-0.0463242
-0.0440483
-0.033971
-0.0171653
-0.0056772
-0.00570424
-0.00559167
-0.00553963
-0.00561279
-0.00582175
-0.00617831
-0.00670773
-0.00745591
-0.00850466
-0.0100051
-0.0122394
-0.0157109
-0.0212478
-0.0297437
-0.0399658
-0.0474094
-0.0454968
-0.0373506
-0.0184279
-0.00660876
-0.00663104
-0.00632972
-0.00609258
-0.00605281
-0.00620269
-0.00653127
-0.00705012
-0.00779692
-0.00884351
-0.0103275
-0.0124897
-0.0157801
-0.0208423
-0.0279995
-0.0359113
-0.0411481
-0.039245
-0.0312263
-0.00525092
-0.0086159
-0.00776332
-0.0067209
-0.00628119
-0.00620467
-0.00633786
-0.00664699
-0.00713385
-0.00783454
-0.00880624
-0.0101707
-0.0121342
-0.015066
-0.0192842
-0.0247922
-0.0301398
-0.0327573
-0.0276724
-0.011479
0.0315673
-0.0078543
-0.00982509
-0.00822206
-0.00720242
-0.00676426
-0.00669625
-0.00686451
-0.00722089
-0.00780607
-0.00864746
-0.00988834
-0.0116728
-0.0143589
-0.0179182
-0.0221968
-0.0251338
-0.0236319
-0.00837229
0.0299245
0.102742
-0.02553
-0.0105713
-0.0055864
-0.00467952
-0.00466624
-0.00479648
-0.00509872
-0.00558655
-0.0063435
-0.00733914
-0.00879021
-0.0107607
-0.0135908
-0.0170181
-0.0202534
-0.0198898
-0.0094788
0.0234338
0.0934298
0.201438
)
;

boundaryField
{
    movingWall
    {
        type            zeroGradient;
    }
    fixedWalls
    {
        type            zeroGradient;
    }
    frontAndBack
    {
        type            empty;
    }
}


// ************************************************************************* //
