/*--------------------------------*- C++ -*----------------------------------*\
  =========                 |
  \\      /  F ield         | OpenFOAM: The Open Source CFD Toolbox
   \\    /   O peration     | Website:  https://openfoam.org
    \\  /    A nd           | Version:  10
     \\/     M anipulation  |
\*---------------------------------------------------------------------------*/
FoamFile
{
    format      ascii;
    class       surfaceScalarField;
    location    "7";
    object      phi;
}
// * * * * * * * * * * * * * * * * * * * * * * * * * * * * * * * * * * * * * //

dimensions      [0 3 -1 0 0 0 0];

internalField   nonuniform List<scalar> 
760
(
-9.15096e-06
9.15111e-06
-3.08104e-05
2.16594e-05
-5.71574e-05
2.6347e-05
-8.44463e-05
2.72889e-05
-0.000111503
2.70564e-05
-0.000137872
2.63694e-05
-0.00016311
2.52383e-05
-0.000186582
2.34719e-05
-0.000207398
2.08157e-05
-0.000224388
1.69897e-05
-0.000236111
1.1723e-05
-0.000240908
4.79682e-06
-0.000236999
-3.90846e-06
-0.000222794
-1.4205e-05
-0.000197281
-2.55133e-05
-0.000160567
-3.67138e-05
-0.000114625
-4.5942e-05
-6.44738e-05
-5.01511e-05
-2.04177e-05
-4.40561e-05
-2.04177e-05
-2.30453e-05
3.21964e-05
-6.61962e-05
6.48103e-05
-0.0001165
7.66506e-05
-0.000168118
7.89076e-05
-0.000218689
7.76265e-05
-0.000267018
7.46991e-05
-0.000312069
7.02893e-05
-0.000352614
6.40165e-05
-0.000387119
5.53206e-05
-0.000413703
4.35736e-05
-0.000430158
2.81788e-05
-0.000434134
8.77216e-06
-0.000422987
-1.5055e-05
-0.000394586
-4.2606e-05
-0.00034772
-7.23789e-05
-0.000282917
-0.000101518
-0.000203625
-0.000125234
-0.000117941
-0.000135834
-4.1202e-05
-0.000120795
-6.16197e-05
-2.95537e-05
6.17501e-05
-8.27437e-05
0.000118
-0.000143744
0.000137651
-0.00020585
0.000141014
-0.000266364
0.00013814
-0.000323889
0.000132223
-0.000377222
0.000123622
-0.00042499
0.000111785
-0.000465515
9.58449e-05
-0.000496743
7.48017e-05
-0.000516233
4.76689e-05
-0.000521229
1.37687e-05
-0.000508644
-2.76401e-05
-0.000475721
-7.55292e-05
-0.000420598
-0.000127502
-0.000343418
-0.000178698
-0.000247968
-0.000220684
-0.000143978
-0.000239824
-5.03235e-05
-0.00021445
-0.000111943
-3.20758e-05
9.38259e-05
-8.99269e-05
0.000175851
-0.000156015
0.000203739
-0.000223155
0.000208154
-0.000288627
0.000203613
-0.000351112
0.000194708
-0.000409501
0.000182011
-0.000462509
0.000164794
-0.000508516
0.000141851
-0.000545437
0.000111723
-0.000570633
7.28648e-05
-0.000580911
2.40474e-05
-0.000572387
-3.61647e-05
-0.00054095
-0.000106966
-0.000483207
-0.000185245
-0.000397911
-0.000263994
-0.000288549
-0.000330046
-0.000166861
-0.000361512
-5.70405e-05
-0.00032427
-0.000168984
-3.32828e-05
0.000127109
-9.38993e-05
0.000236468
-0.000163262
0.000273102
-0.000233871
0.000278763
-0.000303093
0.000272835
-0.000369816
0.000261431
-0.00043317
0.000245365
-0.000492114
0.000223738
-0.000545226
0.000194963
-0.000590498
0.000156995
-0.000625113
0.00010748
-0.000645277
4.42123e-05
-0.000646073
-3.53688e-05
-0.000621122
-0.000131917
-0.000564287
-0.00024208
-0.000471431
-0.00035685
-0.000344664
-0.000456814
-0.000198393
-0.000507783
-6.56539e-05
-0.00045701
-0.000234637
-3.42424e-05
0.000161351
-9.72831e-05
0.000299508
-0.000169661
0.00034548
-0.000243612
0.000352714
-0.000316644
0.000345866
-0.000387942
0.000332729
-0.000457005
0.000314428
-0.000523197
0.00028993
-0.000585485
0.000257251
-0.000642139
0.000213649
-0.000690337
0.000155679
-0.00072569
7.95651e-05
-0.000742286
-1.87725e-05
-0.000730456
-0.000143747
-0.000679745
-0.000292791
-0.00058055
-0.000456045
-0.000430941
-0.000606423
-0.000247673
-0.000691051
-7.84356e-05
-0.000626247
-0.000313073
-3.5262e-05
0.000196613
-0.000100894
0.00036514
-0.00017648
0.000421067
-0.00025397
0.000430203
-0.000331051
0.000422947
-0.000407296
0.000408974
-0.000482716
0.000389848
-0.000557285
0.000364499
-0.000630648
0.000330614
-0.000701733
0.000284733
-0.000768154
0.000222099
-0.000825232
0.000136643
-0.000866796
2.27916e-05
-0.000878898
-0.000131645
-0.000845227
-0.000326461
-0.000746271
-0.000555002
-0.000569831
-0.000782863
-0.000330899
-0.000929983
-9.99392e-05
-0.000857206
-0.000413012
-3.64057e-05
0.000233019
-0.000104905
0.000433639
-0.000183918
0.00050008
-0.000265036
0.000511321
-0.000346154
0.000504065
-0.000427324
0.000490144
-0.000509225
0.000471749
-0.000592698
0.000447973
-0.000678469
0.000416386
-0.000766727
0.000372991
-0.000856399
0.000311772
-0.000943998
0.000224242
-0.00102128
0.000100077
-0.00107637
-7.65571e-05
-0.00108251
-0.000320324
-0.0010043
-0.000633208
-0.000805949
-0.000981216
-0.000485889
-0.00125004
-0.000144548
-0.00119855
-0.000557561
-3.7716e-05
0.000270735
-0.000109385
0.000505308
-0.000191949
0.000582644
-0.000276525
0.000595898
-0.00036123
0.00058877
-0.000446673
0.000575586
-0.000534347
0.000559423
-0.000626227
0.000539853
-0.000724571
0.00051473
-0.000831595
0.000480014
-0.000948775
0.000428952
-0.00107552
0.000350988
-0.001206
0.000230556
-0.00133255
4.99982e-05
-0.00142115
-0.000231726
-0.00141197
-0.000642387
-0.00121948
-0.00117371
-0.000789264
-0.00168026
-0.000250485
-0.00173733
-0.000808046
-3.93273e-05
0.000310062
-0.000114566
0.000580547
-0.00020072
0.000668797
-0.000288279
0.000683457
-0.000375579
0.00067607
-0.000463837
0.000663844
-0.000555462
0.000651048
-0.000653755
0.000638146
-0.000762934
0.000623909
-0.000888122
0.000605202
-0.00103508
0.00057591
-0.00120938
0.000525292
-0.00141459
0.000435763
-0.00164321
0.000278614
-0.00188451
9.57642e-06
-0.00202466
-0.000502241
-0.00189417
-0.0013042
-0.00133416
-0.00224027
-0.000487992
-0.00258349
-0.00129604
-4.15641e-05
0.000351626
-0.000121049
0.000660032
-0.000210829
0.000758577
-0.000300587
0.000773215
-0.000388893
0.000764377
-0.000477591
0.000752542
-0.000569993
0.00074345
-0.000670741
0.000738894
-0.000786182
0.00073935
-0.000924955
0.000743975
-0.00109868
0.000749636
-0.00132266
0.000749267
-0.00161598
0.000729084
-0.00199351
0.000656143
-0.0024228
0.000438874
-0.00278361
-0.000141431
-0.00275924
-0.00132857
-0.00209561
-0.0029039
-0.000913865
-0.00376523
-0.0022099
-4.5073e-05
0.000396699
-0.000130041
0.000745
-0.000223606
0.000852142
-0.000314497
0.000864106
-0.000401618
0.000851498
-0.000487444
0.000838369
-0.000576029
0.000832034
-0.000673043
0.000835908
-0.000786583
0.00085289
-0.000928572
0.000885964
-0.00111685
0.000937909
-0.00137763
0.00101005
-0.00174609
0.00109755
-0.0022525
0.00116255
-0.00285637
0.00104275
-0.00335495
0.000357153
-0.00341549
-0.00126804
-0.00278673
-0.00353266
-0.00148225
-0.00506971
-0.00369215
-5.10273e-05
0.000447726
-0.000143701
0.000837674
-0.00024148
0.000949921
-0.000332148
0.000954773
-0.000415308
0.000934658
-0.000494153
0.000917215
-0.00057314
0.000911021
-0.000658214
0.000920982
-0.00075799
0.000952666
-0.000885823
0.0010138
-0.001063
0.00111508
-0.00132182
0.00126887
-0.00170144
0.00147717
-0.00222016
0.00168128
-0.00281105
0.00163363
-0.00326659
0.000812693
-0.00336327
-0.00117135
-0.00297131
-0.00392462
-0.00186024
-0.00618078
-0.0055524
-6.1603e-05
0.000509329
-0.000165726
0.000941796
-0.000268314
0.00105251
-0.000356927
0.00104339
-0.000432824
0.00101055
-0.000500139
0.000984529
-0.000563254
0.000974137
-0.000627196
0.000984923
-0.000698912
0.00102438
-0.000789316
0.0011042
-0.000916012
0.00124178
-0.00110473
0.00145759
-0.00138005
0.00175248
-0.00173334
0.00203457
-0.00209509
0.00199537
-0.00237778
0.00109539
-0.00253707
-0.00101206
-0.0024853
-0.00397639
-0.00173815
-0.00692794
-0.00729054
-8.032e-05
0.000589649
-0.000202321
0.0010638
-0.000311064
0.00116125
-0.000394589
0.00112691
-0.000458794
0.00107476
-0.000509784
0.00103552
-0.000551303
0.00101566
-0.000585977
0.0010196
-0.000616524
0.00105493
-0.00064703
0.00113471
-0.000683874
0.00127862
-0.000734957
0.00150867
-0.000803094
0.00182062
-0.000875493
0.00210697
-0.000933815
0.00205369
-0.00101552
0.00117709
-0.00124893
-0.000778649
-0.00152404
-0.00370128
-0.00123643
-0.00721555
-0.00852697
-0.000114298
0.000703948
-0.000262393
0.00121189
-0.000373656
0.00127251
-0.000447507
0.00120076
-0.000496238
0.00112349
-0.000527564
0.00106684
-0.000544106
0.0010322
-0.000545032
0.00102052
-0.000527173
0.00103707
-0.000485299
0.00109283
-0.000411762
0.00120509
-0.000295166
0.00139208
-0.000119159
0.00164461
9.78753e-05
0.00188994
0.000290262
0.00186131
0.000353041
0.00111431
0.000153284
-0.000578892
-0.000359444
-0.00318856
-0.000602107
-0.00697289
-0.00912908
-0.00018168
0.000885628
-0.000388079
0.00141829
-0.000492689
0.00137712
-0.000533969
0.00124204
-0.000553267
0.00114279
-0.000559225
0.0010728
-0.00054861
0.00102158
-0.000514487
0.0009864
-0.000448285
0.000970869
-0.000336656
0.000981205
-0.000162025
0.00103045
0.000106191
0.00112386
0.000468363
0.00128244
0.000925055
0.00143325
0.00136814
0.00141822
0.00156356
0.0009189
0.00127725
-0.000292579
0.000614063
-0.00252537
9.73735e-05
-0.0064562
-0.00903171
-0.000177341
0.00106297
-0.000425062
0.00166601
-0.000573308
0.00152537
-0.000641281
0.00131002
-0.000648572
0.00115008
-0.000613247
0.00103748
-0.000542053
0.000950389
-0.000434148
0.000878496
-0.000289107
0.000825827
-9.54136e-05
0.000787512
0.000160123
0.000774917
0.000494469
0.000789513
0.000932752
0.000844159
0.00147094
0.000895058
0.00200162
0.000887536
0.0022949
0.000625625
0.00218233
-0.000180007
0.0016168
-0.00195985
0.000744933
-0.00558433
-0.00828677
-0.00156957
0.00263254
-0.00151494
0.00161138
-0.00107111
0.00108154
-0.000643691
0.000882596
-0.000252122
0.000758511
0.000127517
0.000657838
0.000499273
0.000578634
0.000865827
0.000511941
0.0012262
0.000465453
0.00158848
0.000425232
0.00195731
0.000406083
0.00235233
0.000394499
0.00278416
0.000412328
0.00325247
0.00042675
0.00374405
0.00039595
0.00413869
0.000230994
0.00418562
-0.000226941
0.00382813
-0.00160236
0.00218623
-0.00394243
-0.00610054
0.00263254
0.00424393
0.00532546
0.00620806
0.00696657
0.00762441
0.00820304
0.00871498
0.00918044
0.00960567
0.0100118
0.0104062
0.0108186
0.0112453
0.0116413
0.0118723
0.0116453
0.010043
0.00610054
)
;

boundaryField
{
    movingWall
    {
        type            calculated;
        value           uniform 0;
    }
    fixedWalls
    {
        type            calculated;
        value           uniform 0;
    }
    frontAndBack
    {
        type            empty;
        value           nonuniform List<scalar> 0();
    }
}


// ************************************************************************* //
