/*--------------------------------*- C++ -*----------------------------------*\
  =========                 |
  \\      /  F ield         | OpenFOAM: The Open Source CFD Toolbox
   \\    /   O peration     | Website:  https://openfoam.org
    \\  /    A nd           | Version:  10
     \\/     M anipulation  |
\*---------------------------------------------------------------------------*/
FoamFile
{
    format      ascii;
    class       volVectorField;
    location    "7";
    object      U;
}
// * * * * * * * * * * * * * * * * * * * * * * * * * * * * * * * * * * * * * //

dimensions      [0 1 -1 0 0 0 0];

internalField   nonuniform List<vector> 
400
(
(-0.000148033 0.000139429 0)
(-0.000891983 0.000403478 0)
(-0.00217163 0.000506895 0)
(-0.00354219 0.000529995 0)
(-0.00490845 0.000531503 0)
(-0.00624881 0.00052697 0)
(-0.00754434 0.000515625 0)
(-0.00876863 0.000492429 0)
(-0.00988378 0.000451031 0)
(-0.0108382 0.000384531 0)
(-0.0115662 0.000286202 0)
(-0.0119899 0.000150083 0)
(-0.0120216 -2.81403e-05 0)
(-0.0115746 -0.000244987 0)
(-0.0105817 -0.000488067 0)
(-0.00901707 -0.000733043 0)
(-0.00692694 -0.000938933 0)
(-0.00445955 -0.00103746 0)
(-0.00195227 -0.000906929 0)
(-0.000373111 -0.000392347 0)
(-0.000443651 0.000911897 0)
(-0.00204977 0.00196389 0)
(-0.00451895 0.00235647 0)
(-0.00712638 0.00243661 0)
(-0.00969806 0.00240983 0)
(-0.0121817 0.00233746 0)
(-0.0145283 0.00222233 0)
(-0.0166818 0.00204975 0)
(-0.0185736 0.00179942 0)
(-0.020118 0.00144892 0)
(-0.0212125 0.000976428 0)
(-0.0217414 0.000364808 0)
(-0.0215771 -0.000391997 0)
(-0.0205965 -0.00127703 0)
(-0.0187118 -0.00224109 0)
(-0.0159012 -0.00318956 0)
(-0.0122535 -0.00396576 0)
(-0.008009 -0.00431681 0)
(-0.00370516 -0.00382095 0)
(-0.000815014 -0.00187962 0)
(-0.000581819 0.00230576 0)
(-0.00259444 0.0044898 0)
(-0.00560888 0.00526781 0)
(-0.00875759 0.00540926 0)
(-0.0118432 0.00530965 0)
(-0.0148078 0.00509412 0)
(-0.0175936 0.00477536 0)
(-0.0201371 0.00433006 0)
(-0.0223623 0.00372282 0)
(-0.0241761 0.00291352 0)
(-0.0254656 0.00186275 0)
(-0.0260995 0.000540404 0)
(-0.0259292 -0.00106123 0)
(-0.0248033 -0.0029112 0)
(-0.0226013 -0.00491138 0)
(-0.0192737 -0.0068709 0)
(-0.0149037 -0.00846808 0)
(-0.00976825 -0.00918712 0)
(-0.00452367 -0.00819966 0)
(-0.000994227 -0.00425445 0)
(-0.000628923 0.00387295 0)
(-0.00281762 0.00731252 0)
(-0.0060927 0.0084958 0)
(-0.00949958 0.00868966 0)
(-0.0128349 0.00850393 0)
(-0.0160471 0.00813206 0)
(-0.0190831 0.0075971 0)
(-0.0218838 0.00686721 0)
(-0.0243776 0.00589102 0)
(-0.0264722 0.00460797 0)
(-0.0280499 0.00295583 0)
(-0.028964 0.000882539 0)
(-0.0290357 -0.00163469 0)
(-0.0280593 -0.00456674 0)
(-0.0258397 -0.00777291 0)
(-0.0222505 -0.010957 0)
(-0.017325 -0.0135914 0)
(-0.0113655 -0.0148156 0)
(-0.00519353 -0.0132764 0)
(-0.00110054 -0.00694546 0)
(-0.000646685 0.00551042 0)
(-0.00293119 0.0102795 0)
(-0.00636943 0.0118867 0)
(-0.0099479 0.0121366 0)
(-0.0134623 0.0118725 0)
(-0.0168724 0.0113606 0)
(-0.0201366 0.0106351 0)
(-0.0232085 0.00965556 0)
(-0.0260277 0.00835253 0)
(-0.0285098 0.0066395 0)
(-0.0305357 0.00442044 0)
(-0.0319405 0.00160475 0)
(-0.0325064 -0.00186848 0)
(-0.0319448 -0.0060046 0)
(-0.0299321 -0.0106433 0)
(-0.026195 -0.0153798 0)
(-0.0206461 -0.0194162 0)
(-0.0135886 -0.0213972 0)
(-0.00609472 -0.0192306 0)
(-0.00121873 -0.00997413 0)
(-0.000658882 0.00719741 0)
(-0.00302378 0.0133679 0)
(-0.00660893 0.0154263 0)
(-0.0103489 0.0157461 0)
(-0.0140399 0.0154235 0)
(-0.0176567 0.0148042 0)
(-0.0211749 0.013936 0)
(-0.0245677 0.0127704 0)
(-0.0277954 0.0112184 0)
(-0.0307916 0.00916102 0)
(-0.0334446 0.00645518 0)
(-0.0355778 0.00294796 0)
(-0.0369376 -0.00149819 0)
(-0.0371288 -0.00697412 0)
(-0.0356351 -0.0133555 0)
(-0.0319333 -0.0201516 0)
(-0.0256761 -0.0262141 0)
(-0.0170608 -0.0294382 0)
(-0.00748876 -0.026573 0)
(-0.00136858 -0.0135011 0)
(-0.000671658 0.0089328 0)
(-0.00312209 0.0165802 0)
(-0.00686411 0.0191207 0)
(-0.0107755 0.0195278 0)
(-0.0146534 0.0191719 0)
(-0.018491 0.0184875 0)
(-0.0222869 0.0175406 0)
(-0.0260426 0.0162778 0)
(-0.0297518 0.0145912 0)
(-0.0333825 0.0123259 0)
(-0.0368511 0.00927785 0)
(-0.039992 0.0051979 0)
(-0.0425387 -0.000183545 0)
(-0.0439902 -0.00706512 0)
(-0.0435814 -0.0155399 0)
(-0.0403923 -0.0251122 0)
(-0.0335525 -0.034236 0)
(-0.0228319 -0.0396756 0)
(-0.00989058 -0.0361663 0)
(-0.00158539 -0.0177962 0)
(-0.000686143 0.0107218 0)
(-0.00323195 0.0199285 0)
(-0.00714527 0.0229812 0)
(-0.0112362 0.0234898 0)
(-0.0153023 0.0231247 0)
(-0.0193583 0.0224207 0)
(-0.0234322 0.0214698 0)
(-0.027564 0.0202209 0)
(-0.0317962 0.0185537 0)
(-0.0361569 0.0162804 0)
(-0.0406307 0.0131303 0)
(-0.0451132 0.0087363 0)
(-0.0493266 0.00265134 0)
(-0.052788 -0.00557444 0)
(-0.0545296 -0.0164123 0)
(-0.0530022 -0.0296472 0)
(-0.0463655 -0.0434879 0)
(-0.0331507 -0.0531472 0)
(-0.0147314 -0.0496187 0)
(-0.00205902 -0.0235262 0)
(-0.000703544 0.0125715 0)
(-0.00335672 0.0234274 0)
(-0.00745483 0.0270169 0)
(-0.0117249 0.027631 0)
(-0.0159627 0.0272714 0)
(-0.0202081 0.0265883 0)
(-0.0245236 0.025711 0)
(-0.0289971 0.0246032 0)
(-0.0337375 0.023147 0)
(-0.0388621 0.0211372 0)
(-0.0444717 0.0182492 0)
(-0.0505948 0.0139994 0)
(-0.057106 0.0077114 0)
(-0.0636995 -0.00148764 0)
(-0.0693836 -0.0144401 0)
(-0.0719207 -0.0320899 0)
(-0.0676601 -0.0530316 0)
(-0.0521798 -0.0708474 0)
(-0.025443 -0.0698492 0)
(-0.00344626 -0.0325461 0)
(-0.00072786 0.0144929 0)
(-0.00350669 0.0270939 0)
(-0.00780414 0.0312318 0)
(-0.0122433 0.0319359 0)
(-0.0166154 0.031577 0)
(-0.0209875 0.0309393 0)
(-0.02546 0.0302034 0)
(-0.0301755 0.0293663 0)
(-0.0353226 0.0283377 0)
(-0.0411373 0.0269294 0)
(-0.047897 0.0248068 0)
(-0.0558941 0.0214167 0)
(-0.0653708 0.0158955 0)
(-0.0763465 0.00695491 0)
(-0.0885925 -0.00723532 0)
(-0.0992608 -0.0290775 0)
(-0.101027 -0.0601372 0)
(-0.0841661 -0.0930261 0)
(-0.0472747 -0.101357 0)
(-0.00726774 -0.0487932 0)
(-0.000768532 0.0165078 0)
(-0.00370672 0.0309537 0)
(-0.00822567 0.0356275 0)
(-0.0128163 0.0363732 0)
(-0.0172626 0.0359779 0)
(-0.0216612 0.0353793 0)
(-0.0261505 0.0348248 0)
(-0.0309263 0.0343663 0)
(-0.0362589 0.0339767 0)
(-0.0425173 0.0335421 0)
(-0.0502002 0.0328075 0)
(-0.0599658 0.0312903 0)
(-0.0726905 0.0281644 0)
(-0.0895025 0.0219129 0)
(-0.110771 0.0091341 0)
(-0.133034 -0.0165459 0)
(-0.143294 -0.0623893 0)
(-0.12544 -0.12109 0)
(-0.0813511 -0.149271 0)
(-0.0152798 -0.0783512 0)
(-0.00084437 0.0186616 0)
(-0.00400603 0.0350532 0)
(-0.00878657 0.040209 0)
(-0.0135068 0.0408976 0)
(-0.0179449 0.0403804 0)
(-0.0222319 0.0397674 0)
(-0.0265408 0.0393834 0)
(-0.0311071 0.0393548 0)
(-0.0362629 0.0397571 0)
(-0.0424891 0.0406253 0)
(-0.0504937 0.0419174 0)
(-0.0613058 0.0434433 0)
(-0.0764759 0.0447141 0)
(-0.0984155 0.0440954 0)
(-0.128849 0.0355524 0)
(-0.161368 0.00459049 0)
(-0.175859 -0.0641197 0)
(-0.157255 -0.158916 0)
(-0.115819 -0.214656 0)
(-0.0259109 -0.132847 0)
(-0.000990176 0.0210437 0)
(-0.00449259 0.0394726 0)
(-0.00960682 0.0449844 0)
(-0.0144333 0.0454453 0)
(-0.0187578 0.0446599 0)
(-0.0227613 0.0439183 0)
(-0.0266458 0.0436205 0)
(-0.0306588 0.043975 0)
(-0.0351428 0.0451884 0)
(-0.0406116 0.0475147 0)
(-0.047864 0.0512646 0)
(-0.0580819 0.0567526 0)
(-0.0730562 0.0639199 0)
(-0.0958755 0.0703378 0)
(-0.128698 0.0653627 0)
(-0.162259 0.0260576 0)
(-0.173345 -0.0683988 0)
(-0.157113 -0.198587 0)
(-0.131013 -0.289307 0)
(-0.0310167 -0.227404 0)
(-0.00127207 0.0238371 0)
(-0.00532298 0.0444004 0)
(-0.0108829 0.0500359 0)
(-0.0157815 0.0499728 0)
(-0.0198595 0.0486792 0)
(-0.0233838 0.0476194 0)
(-0.0265801 0.0472341 0)
(-0.0296675 0.0477891 0)
(-0.0329161 0.0496149 0)
(-0.0367273 0.0531995 0)
(-0.0417373 0.0592479 0)
(-0.0488328 0.0685837 0)
(-0.0592098 0.0812444 0)
(-0.0754267 0.093145 0)
(-0.0998067 0.0894443 0)
(-0.124324 0.0434657 0)
(-0.129776 -0.0641502 0)
(-0.121152 -0.216421 0)
(-0.117957 -0.348627 0)
(-0.0222901 -0.338879 0)
(-0.00179927 0.0272794 0)
(-0.00675079 0.0498546 0)
(-0.0129594 0.0550704 0)
(-0.0178782 0.0541626 0)
(-0.0215082 0.0521646 0)
(-0.0243214 0.0506037 0)
(-0.0265774 0.0499053 0)
(-0.0284145 0.0503463 0)
(-0.0299359 0.052327 0)
(-0.0312667 0.0564932 0)
(-0.0326057 0.0638119 0)
(-0.0341708 0.0753702 0)
(-0.0361209 0.0909939 0)
(-0.0398757 0.105312 0)
(-0.0483371 0.102247 0)
(-0.0581508 0.0566188 0)
(-0.060503 -0.0475804 0)
(-0.0613324 -0.203369 0)
(-0.0861783 -0.371001 0)
(-0.00377052 -0.418965 0)
(-0.00282974 0.0319475 0)
(-0.00919906 0.0572857 0)
(-0.0161634 0.061734 0)
(-0.0208856 0.0588419 0)
(-0.0238396 0.0553637 0)
(-0.0257574 0.0528608 0)
(-0.0269143 0.051486 0)
(-0.0273259 0.051353 0)
(-0.0268641 0.0527934 0)
(-0.025283 0.0564385 0)
(-0.0222206 0.0632774 0)
(-0.0171783 0.0743691 0)
(-0.00950115 0.0893603 0)
(0.000340414 0.10352 0)
(0.00889539 0.101849 0)
(0.0152877 0.0608167 0)
(0.0125597 -0.0316316 0)
(0.00571788 -0.172181 0)
(-0.0501721 -0.368196 0)
(0.0179933 -0.465246 0)
(-0.00461095 0.0416232 0)
(-0.014692 0.0638537 0)
(-0.0225348 0.0631697 0)
(-0.0260641 0.0593277 0)
(-0.0274227 0.0557904 0)
(-0.0280063 0.053093 0)
(-0.027903 0.0512727 0)
(-0.0268124 0.0503764 0)
(-0.0243324 0.0506794 0)
(-0.0199031 0.0526763 0)
(-0.0127609 0.0571775 0)
(-0.00204568 0.064852 0)
(0.0136925 0.0760387 0)
(0.0344917 0.0873135 0)
(0.0552173 0.0880346 0)
(0.0720944 0.058536 0)
(0.0694753 -0.0163978 0)
(0.0612446 -0.142038 0)
(-0.0158632 -0.354234 0)
(0.0457208 -0.483182 0)
(-0.00283268 0.0375901 0)
(-0.0131446 0.0815137 0)
(-0.0266358 0.0804831 0)
(-0.0319379 0.0695226 0)
(-0.033008 0.0616546 0)
(-0.0320705 0.0564028 0)
(-0.029296 0.0524799 0)
(-0.0247533 0.0494257 0)
(-0.0184152 0.0473631 0)
(-0.00992148 0.046374 0)
(0.00103169 0.0470561 0)
(0.0158075 0.0497304 0)
(0.0351381 0.0553359 0)
(0.0595119 0.0608709 0)
(0.0835115 0.0612215 0)
(0.107231 0.0416391 0)
(0.104275 -0.00955378 0)
(0.0997648 -0.118334 0)
(0.0324121 -0.319466 0)
(0.0898108 -0.455431 0)
(-0.0974724 0.0973907 0)
(-0.074437 0.076464 0)
(-0.0644205 0.0572127 0)
(-0.0426921 0.0493385 0)
(-0.0227553 0.0438626 0)
(-0.0030904 0.0393657 0)
(0.0155723 0.0356464 0)
(0.0345457 0.0324841 0)
(0.0520915 0.0302217 0)
(0.0712177 0.0283194 0)
(0.0883538 0.0274742 0)
(0.109515 0.0273143 0)
(0.12686 0.0288146 0)
(0.152774 0.0306874 0)
(0.164447 0.0296429 0)
(0.196965 0.0200934 0)
(0.185036 -0.0136386 0)
(0.201681 -0.090837 0)
(0.147595 -0.23314 0)
(0.169909 -0.344921 0)
(0.135761 0.10988 0)
(0.172064 0.0875941 0)
(0.232251 0.0658534 0)
(0.287492 0.0516842 0)
(0.32977 0.0424613 0)
(0.367046 0.0355507 0)
(0.395382 0.0303799 0)
(0.425279 0.0259859 0)
(0.446007 0.0227397 0)
(0.473009 0.0198107 0)
(0.487945 0.01784 0)
(0.515212 0.0158954 0)
(0.524873 0.0151062 0)
(0.554439 0.013775 0)
(0.555618 0.0137018 0)
(0.582437 0.0101079 0)
(0.558145 0.00455284 0)
(0.553308 -0.0165852 0)
(0.448017 -0.047827 0)
(0.342021 -0.0999288 0)
)
;

boundaryField
{
    movingWall
    {
        type            fixedValue;
        value           uniform (1 0 0);
    }
    fixedWalls
    {
        type            noSlip;
    }
    frontAndBack
    {
        type            empty;
    }
}


// ************************************************************************* //
