/*--------------------------------*- C++ -*----------------------------------*\
  =========                 |
  \\      /  F ield         | OpenFOAM: The Open Source CFD Toolbox
   \\    /   O peration     | Website:  https://openfoam.org
    \\  /    A nd           | Version:  10
     \\/     M anipulation  |
\*---------------------------------------------------------------------------*/
FoamFile
{
    format      ascii;
    class       volVectorField;
    location    "6.85";
    object      U;
}
// * * * * * * * * * * * * * * * * * * * * * * * * * * * * * * * * * * * * * //

dimensions      [0 1 -1 0 0 0 0];

internalField   nonuniform List<vector> 
8000
(
(-6.51961e-05 8.5053e-05 -2.83334e-05)
(-0.000473461 0.000186352 8.56089e-06)
(-0.00115046 0.000218486 2.49972e-05)
(-0.00184085 0.000230503 3.25854e-05)
(-0.00255902 0.000238937 3.29154e-05)
(-0.0032817 0.00024809 2.8757e-05)
(-0.00399808 0.000256819 2.09047e-05)
(-0.00469476 0.000262318 8.77996e-06)
(-0.00535105 0.000261696 -7.78664e-06)
(-0.00593729 0.000251506 -2.9493e-05)
(-0.0064147 0.000228032 -5.7134e-05)
(-0.00673554 0.000187964 -9.12281e-05)
(-0.00684562 0.000129697 -0.000131568)
(-0.00668904 5.2313e-05 -0.000176791)
(-0.00621585 -4.3295e-05 -0.000223256)
(-0.00539781 -0.000147895 -0.000266336)
(-0.00424877 -0.000245543 -0.000296164)
(-0.00287263 -0.000310437 -0.000299241)
(-0.00131459 -0.000304944 -0.000265365)
(-0.00024003 -0.000136361 -0.000135409)
(-0.000161626 0.00057371 -9.75473e-05)
(-0.000890513 0.00101532 -7.40768e-05)
(-0.00201275 0.00115717 -6.05405e-05)
(-0.00315258 0.001202 -5.03292e-05)
(-0.00432511 0.00121764 -4.61089e-05)
(-0.00549125 0.00122284 -4.57747e-05)
(-0.0066296 0.00121626 -4.84656e-05)
(-0.00771591 0.00118978 -5.47124e-05)
(-0.00871697 0.00113327 -6.54309e-05)
(-0.00958861 0.00103494 -8.18187e-05)
(-0.0102744 0.000882476 -0.000105169)
(-0.0107056 0.000664597 -0.000136529)
(-0.0108067 0.000373309 -0.000176121)
(-0.0105029 1.00054e-05 -0.000224753)
(-0.00972434 -0.000409426 -0.000275291)
(-0.00843086 -0.000850672 -0.000322233)
(-0.0066466 -0.00125168 -0.000352781)
(-0.00452113 -0.00151222 -0.000350235)
(-0.002126 -0.00148417 -0.000301159)
(-0.000424264 -0.000817819 -0.000123321)
(-0.000191818 0.00138921 -0.000134793)
(-0.00103731 0.00231835 -0.000118322)
(-0.00232475 0.00261265 -0.000106164)
(-0.00362389 0.00269433 -9.42943e-05)
(-0.00495551 0.00270467 -8.74619e-05)
(-0.00627654 0.00268314 -8.39795e-05)
(-0.00756453 0.00263008 -8.3182e-05)
(-0.00879425 0.00253237 -8.58235e-05)
(-0.00993099 0.00237146 -9.3228e-05)
(-0.0109282 0.00212564 -0.000107087)
(-0.0117259 0.00177198 -0.000129229)
(-0.0122501 0.00128949 -0.00016131)
(-0.0124134 0.000664126 -0.000204732)
(-0.01212 -0.000100812 -0.000258894)
(-0.0112811 -0.000977494 -0.000318703)
(-0.00983801 -0.00189677 -0.000376089)
(-0.00779871 -0.00273485 -0.000414761)
(-0.00532819 -0.00328611 -0.000413257)
(-0.00250346 -0.00324097 -0.000354167)
(-0.000493094 -0.0018969 -0.00013775)
(-0.00019563 0.00224715 -0.000161622)
(-0.00107888 0.00369445 -0.000151506)
(-0.00242829 0.00414357 -0.000140792)
(-0.00378675 0.00425879 -0.000128117)
(-0.00518269 0.0042625 -0.000119872)
(-0.00657384 0.0042163 -0.000114736)
(-0.00794137 0.00412243 -0.000112254)
(-0.00926373 0.00396307 -0.000113413)
(-0.0105095 0.00371155 -0.000119921)
(-0.0116342 0.00333542 -0.000134044)
(-0.012577 0.00279913 -0.000158358)
(-0.0132574 0.00206861 -0.000195421)
(-0.0135747 0.00112002 -0.000247662)
(-0.0134145 -5.00118e-05 -0.00031708)
(-0.0126506 -0.00140613 -0.000395158)
(-0.0111766 -0.00285505 -0.000473056)
(-0.0089617 -0.00420526 -0.000528978)
(-0.00617442 -0.00512477 -0.000533112)
(-0.00289537 -0.00510169 -0.000461526)
(-0.000555506 -0.00301501 -0.000187717)
(-0.000189319 0.00315513 -0.000181877)
(-0.00108243 0.00515758 -0.000177529)
(-0.00246098 0.0057722 -0.000168212)
(-0.00385031 0.00592588 -0.000155361)
(-0.00528633 0.00592928 -0.000146834)
(-0.00672964 0.00586861 -0.000141633)
(-0.0081677 0.00574944 -0.000139582)
(-0.00958584 0.00555014 -0.000142007)
(-0.0109595 0.0052363 -0.000151081)
(-0.0122498 0.00476386 -0.000169775)
(-0.013398 0.00408154 -0.000201749)
(-0.0143186 0.00313604 -0.000250938)
(-0.0148952 0.00188168 -0.000320915)
(-0.0149766 0.000297409 -0.000413583)
(-0.0143907 -0.00158337 -0.000527032)
(-0.012963 -0.00365334 -0.00064304)
(-0.0105807 -0.0056481 -0.000733188)
(-0.00739521 -0.00707527 -0.000753724)
(-0.00348078 -0.0071481 -0.000664916)
(-0.000654825 -0.00423036 -0.000294216)
(-0.000179061 0.00409039 -0.000200277)
(-0.00107295 0.0066792 -0.000201651)
(-0.00247158 0.00747126 -0.00019387)
(-0.00388449 0.00767163 -0.00018132)
(-0.0053549 0.00768639 -0.000173277)
(-0.00684749 0.00762985 -0.000169091)
(-0.0083581 0.00751302 -0.000168954)
(-0.00988192 0.00731213 -0.000174678)
(-0.0114052 0.00698617 -0.000189082)
(-0.0128998 0.00647929 -0.000216101)
(-0.0143141 0.00572156 -0.000260911)
(-0.0155623 0.00463308 -0.00032974)
(-0.0165129 0.00313479 -0.000428785)
(-0.016977 0.00116921 -0.000561899)
(-0.0167177 -0.00126629 -0.000733995)
(-0.0154542 -0.00406072 -0.000918415)
(-0.0129389 -0.00688734 -0.00107569)
(-0.00925019 -0.00905164 -0.00113794)
(-0.00442319 -0.00937018 -0.00103112)
(-0.000836659 -0.00555401 -0.00049703)
(-0.000166161 0.00504812 -0.000220167)
(-0.00105681 0.00825499 -0.000227891)
(-0.00247194 0.00923732 -0.000221859)
(-0.00390353 0.00949315 -0.000209744)
(-0.00540229 0.00953241 -0.000202375)
(-0.00693773 0.00950203 -0.000199564)
(-0.00851607 0.00942179 -0.000201992)
(-0.0101455 0.00926891 -0.00021214)
(-0.0118278 0.00899851 -0.000233764)
(-0.0135526 0.00854478 -0.000272239)
(-0.0152848 0.00781862 -0.00033505)
(-0.0169489 0.00670747 -0.000432055)
(-0.0184071 0.0050831 -0.000574251)
(-0.0194384 0.00282391 -0.000771161)
(-0.0197273 -0.000140022 -0.00103903)
(-0.0188516 -0.00372472 -0.001348)
(-0.0163511 -0.00760772 -0.00163996)
(-0.0121045 -0.0108563 -0.00180884)
(-0.00601807 -0.0117122 -0.00170532)
(-0.00120544 -0.0070292 -0.000898692)
(-0.000150602 0.00602954 -0.000243446)
(-0.00103501 0.00988921 -0.000258657)
(-0.00246316 0.0110736 -0.000254473)
(-0.00390508 0.0113907 -0.000242462)
(-0.00541947 0.0114646 -0.00023531)
(-0.00698086 0.0114808 -0.000233477)
(-0.00860738 0.0114726 -0.000238298)
(-0.0103232 0.0114235 -0.000253115)
(-0.0121511 0.0112905 -0.000282958)
(-0.0141062 0.0110035 -0.000335277)
(-0.016184 0.0104591 -0.000421063)
(-0.0183388 0.00951336 -0.000556075)
(-0.0204503 0.00797921 -0.000760976)
(-0.0222811 0.0056421 -0.00105897)
(-0.0234271 0.00231188 -0.00146819)
(-0.023338 -0.00206604 -0.00200749)
(-0.0212484 -0.007158 -0.00256937)
(-0.0165808 -0.0119611 -0.00300518)
(-0.00891034 -0.0139046 -0.00300072)
(-0.00203498 -0.00871254 -0.00176306)
(-0.000133033 0.00703905 -0.000271679)
(-0.00101007 0.0115898 -0.000295995)
(-0.00244775 0.0129839 -0.000293547)
(-0.0038872 0.0133605 -0.000280716)
(-0.00539585 0.013471 -0.000272542)
(-0.00695273 0.0135466 -0.000270369)
(-0.00858849 0.0136405 -0.000276388)
(-0.0103452 0.0137494 -0.00029501)
(-0.0122705 0.0138417 -0.000332855)
(-0.0144136 0.0138555 -0.000400058)
(-0.0168147 0.0136868 -0.000512443)
(-0.0194836 0.0131739 -0.000694504)
(-0.0223583 0.0120805 -0.000982077)
(-0.0252397 0.0100888 -0.00142114)
(-0.0277145 0.00683078 -0.00205941)
(-0.0290277 0.00200216 -0.00294762)
(-0.0281363 -0.00431307 -0.00406671)
(-0.0237166 -0.0110914 -0.00512578)
(-0.0144585 -0.0151682 -0.00554026)
(-0.00399426 -0.0106669 -0.00378095)
(-0.000116007 0.00808723 -0.000306924)
(-0.000990146 0.0133711 -0.000342471)
(-0.00243667 0.0149737 -0.000341326)
(-0.00385735 0.0153949 -0.000325959)
(-0.00533015 0.0155291 -0.000314512)
(-0.00683746 0.0156617 -0.000309504)
(-0.00842164 0.0158729 -0.000314201)
(-0.010142 0.0161813 -0.000334224)
(-0.0120713 0.016579 -0.000377998)
(-0.0142969 0.0170307 -0.000458858)
(-0.016916 0.0174596 -0.000598711)
(-0.0200199 0.0177229 -0.000833811)
(-0.0236572 0.0175768 -0.00122172)
(-0.0277607 0.0166368 -0.00184571)
(-0.0320259 0.014358 -0.00280543)
(-0.0357465 0.0100816 -0.00419697)
(-0.0374865 0.00319167 -0.00614848)
(-0.0348781 -0.00600434 -0.00846222)
(-0.0250128 -0.0140829 -0.00995336)
(-0.00840485 -0.0130832 -0.00798719)
(-0.000105606 0.00919743 -0.000352642)
(-0.00099365 0.0152607 -0.000402086)
(-0.00245605 0.0170551 -0.000401313)
(-0.0038403 0.0174846 -0.000380567)
(-0.00523944 0.0176062 -0.000362233)
(-0.00663798 0.0177694 -0.000350373)
(-0.00808771 0.0180869 -0.000349544)
(-0.0096611 0.0186074 -0.000366585)
(-0.0114499 0.0193604 -0.000411634)
(-0.013573 0.0203598 -0.000501021)
(-0.0161813 0.021593 -0.000662796)
(-0.0194606 0.0229956 -0.000945552)
(-0.0236182 0.0244072 -0.00142794)
(-0.0288349 0.0254982 -0.00222777)
(-0.0351719 0.0256585 -0.00349643)
(-0.0423371 0.0237688 -0.00540615)
(-0.0489322 0.017939 -0.00812003)
(-0.0508258 0.00587152 -0.0114602)
(-0.0423538 -0.0104641 -0.0142192)
(-0.0165797 -0.0187289 -0.0135912)
(-0.000114586 0.0104187 -0.000415283)
(-0.0010563 0.017312 -0.000482209)
(-0.00255566 0.0192565 -0.000480462)
(-0.00388729 0.0196267 -0.000449858)
(-0.00516899 0.0196663 -0.000418844)
(-0.00638771 0.0197984 -0.000393965)
(-0.00760232 0.020172 -0.0003813)
(-0.0088898 0.0208701 -0.000388693)
(-0.0103468 0.0219704 -0.000427585)
(-0.0121034 0.0235583 -0.000516118)
(-0.01434 0.025726 -0.000685649)
(-0.0173094 0.0285573 -0.00098922)
(-0.0213679 0.0320945 -0.00150252)
(-0.0270084 0.0362196 -0.00230525)
(-0.0349106 0.0403413 -0.00342587)
(-0.0457268 0.0424444 -0.00480171)
(-0.0587725 0.0378084 -0.0064341)
(-0.0687295 0.0182287 -0.00802867)
(-0.065615 -0.0159275 -0.00940702)
(-0.0280049 -0.0391501 -0.0128184)
(-0.000168292 0.0118335 -0.000505963)
(-0.00124238 0.0195918 -0.000591492)
(-0.00282014 0.0215905 -0.000583077)
(-0.00408596 0.0217869 -0.000534312)
(-0.00520261 0.0216406 -0.000482891)
(-0.00616219 0.021647 -0.000438131)
(-0.0070309 0.0219816 -0.00040671)
(-0.00787847 0.0227588 -0.000396074)
(-0.00878202 0.0241049 -0.000418185)
(-0.00984583 0.0261827 -0.000489872)
(-0.0112257 0.0292118 -0.000637274)
(-0.0131664 0.0334628 -0.000895667)
(-0.0160968 0.0392487 -0.00127484)
(-0.0208043 0.0466438 -0.00163248)
(-0.0288802 0.0547966 -0.00147948)
(-0.0427437 0.0595182 0.000141921)
(-0.0653359 0.0516495 0.00372592)
(-0.0901978 0.0150274 0.00875575)
(-0.09241 -0.0493175 0.0127863)
(-0.0369917 -0.0884411 -0.00104451)
(-0.000329437 0.0136502 -0.000659326)
(-0.00169167 0.022374 -0.000780654)
(-0.00340176 0.0243318 -0.000768945)
(-0.00456793 0.0242142 -0.000691326)
(-0.0054521 0.0237058 -0.000599303)
(-0.00607135 0.0233959 -0.00051225)
(-0.00649552 0.0234962 -0.000442228)
(-0.00676832 0.0241468 -0.000399423)
(-0.00692432 0.0255098 -0.00039291)
(-0.00699851 0.0278047 -0.000433567)
(-0.00705931 0.031362 -0.00053194)
(-0.0072418 0.0365913 -0.00067048)
(-0.00797962 0.0440359 -0.000712358)
(-0.0103599 0.0536777 -7.6002e-05)
(-0.0176491 0.0643221 0.00260904)
(-0.0357876 0.0687914 0.00950455)
(-0.0741306 0.0525268 0.021765)
(-0.115529 -0.0177515 0.0357825)
(-0.115452 -0.13012 0.0357676)
(-0.04229 -0.171042 0.00479386)
(-0.000645226 0.0163295 -0.000890594)
(-0.00245679 0.0254538 -0.000992226)
(-0.00439197 0.0268485 -0.000944288)
(-0.00549493 0.0259916 -0.000806198)
(-0.00615155 0.0249545 -0.000665996)
(-0.00637237 0.0242899 -0.000538126)
(-0.00625563 0.0241348 -0.000433403)
(-0.00583031 0.024569 -0.000359197)
(-0.00507941 0.0257361 -0.000323723)
(-0.00393335 0.027856 -0.000329192)
(-0.00233708 0.0313116 -0.000366828)
(-0.000214124 0.0365862 -0.000347924)
(0.00198386 0.0443725 3.03254e-05)
(0.00321251 0.0545383 0.0018429)
(-0.00203375 0.0658735 0.00722138)
(-0.0230794 0.0682364 0.0195877)
(-0.0752944 0.0363428 0.038477)
(-0.122911 -0.0828208 0.0491372)
(-0.126867 -0.223406 0.029866)
(-0.049156 -0.26267 -0.00854228)
(-0.00199148 0.0190508 -0.00142038)
(-0.00509001 0.0305149 -0.00163623)
(-0.00674896 0.0315086 -0.00152294)
(-0.00734003 0.0301069 -0.00128422)
(-0.00729521 0.0281321 -0.00100956)
(-0.006864 0.0265045 -0.000753115)
(-0.0061229 0.0254301 -0.000539731)
(-0.00501587 0.025002 -0.000381145)
(-0.00342602 0.0253489 -0.000287687)
(-0.00114245 0.0266026 -0.000252031)
(0.0020709 0.0291483 -0.000249982)
(0.00659521 0.0333356 -0.000170725)
(0.0120729 0.0399332 0.000424878)
(0.0180331 0.0487152 0.00265536)
(0.0181815 0.0594649 0.0095643)
(0.0054834 0.0594611 0.0237738)
(-0.0442657 0.014157 0.0422042)
(-0.0882052 -0.130601 0.0405122)
(-0.122946 -0.270989 0.0138354)
(-0.0496339 -0.340662 -0.0283228)
(-0.00131433 0.0306072 -0.00245226)
(-0.00506279 0.0343936 -0.00231207)
(-0.0087701 0.0328475 -0.00203395)
(-0.00953798 0.0290011 -0.00149012)
(-0.00959628 0.0262394 -0.00106037)
(-0.00860806 0.0243156 -0.000682051)
(-0.00701887 0.0230854 -0.000381565)
(-0.00486728 0.0223731 -0.000167022)
(-0.00212864 0.0222436 -5.96964e-05)
(0.00150045 0.0226848 -4.05591e-05)
(0.00628754 0.024057 -0.000118285)
(0.0129355 0.0263927 -0.000185581)
(0.0211665 0.0303862 0.00022108)
(0.0321521 0.035446 0.00188011)
(0.0392613 0.0422386 0.00756252)
(0.045854 0.0409738 0.0192679)
(0.0108761 -0.00279912 0.0327306)
(-0.0254763 -0.133634 0.0301576)
(-0.0991001 -0.283835 0.00834036)
(-0.0372233 -0.390794 -0.0456783)
(-0.012654 0.0281697 -0.00323675)
(-0.0213928 0.0493239 -0.00399177)
(-0.0156353 0.0451121 -0.00373201)
(-0.0142413 0.0402185 -0.00302138)
(-0.0104536 0.0344024 -0.00207796)
(-0.00639342 0.029651 -0.00124671)
(-0.00215466 0.0259675 -0.000598363)
(0.00233227 0.0231633 -0.000144625)
(0.00705971 0.0212167 8.85318e-05)
(0.0125644 0.0198628 0.000105452)
(0.0187518 0.0192954 -7.79512e-05)
(0.0269028 0.019177 -0.000455095)
(0.0359199 0.0201434 -0.000599264)
(0.049057 0.020958 1.26159e-05)
(0.0575812 0.0226791 0.00294867)
(0.0751385 0.0192558 0.0103173)
(0.0568648 -0.00943076 0.0187231)
(0.0513135 -0.110799 0.0221417)
(-0.0518321 -0.268518 0.00182179)
(-0.0148686 -0.402916 -0.057376)
(-0.0465265 0.0880141 -0.0124739)
(-0.029815 0.0403621 -0.00873382)
(-0.0205921 0.0340717 -0.00646718)
(-0.00165198 0.0270127 -0.00434033)
(0.0142161 0.0206483 -0.00288818)
(0.0299267 0.016396 -0.00177049)
(0.0434885 0.0136885 -0.000934867)
(0.0561045 0.0116367 -0.000357353)
(0.0667269 0.0103411 2.75404e-06)
(0.0777689 0.0091505 0.000107795)
(0.0865212 0.00878016 -2.87657e-05)
(0.0983578 0.00809283 -0.00044699)
(0.105999 0.00828577 -0.000927729)
(0.123229 0.00700655 -0.00128221)
(0.125902 0.00464368 -0.000813114)
(0.154889 -0.0047573 0.00258559)
(0.132438 -0.0296741 0.0069415)
(0.160266 -0.101164 0.011832)
(0.0340564 -0.238281 -0.00224233)
(0.0343186 -0.368373 -0.0667108)
(0.117585 0.112214 -0.0112192)
(0.144205 0.0598305 -0.0118392)
(0.216162 0.0394761 -0.0116408)
(0.260858 0.0262148 -0.0104133)
(0.293396 0.0173815 -0.00894412)
(0.320792 0.0114206 -0.00766348)
(0.341184 0.00771295 -0.00652347)
(0.36055 0.00516501 -0.00559029)
(0.372991 0.00371833 -0.00473009)
(0.38918 0.00253593 -0.00412788)
(0.395636 0.00206116 -0.00360016)
(0.412783 0.00152496 -0.00327646)
(0.412617 0.00141134 -0.00316187)
(0.434975 0.000973636 -0.0028774)
(0.422948 -5.88719e-05 -0.00286968)
(0.451261 -0.00336993 -0.00200523)
(0.407566 -0.011923 -0.0014212)
(0.421145 -0.0325178 -0.00115699)
(0.251346 -0.072981 -0.00897194)
(0.165961 -0.138617 -0.0770245)
(-0.000112132 0.000129724 -8.96236e-05)
(-0.000811966 0.000340014 -4.56257e-05)
(-0.00197257 0.000410661 -1.9441e-05)
(-0.00314243 0.000429901 -5.368e-06)
(-0.00433409 0.000435133 -5.21992e-06)
(-0.00551084 0.000437687 -1.51983e-05)
(-0.00665484 0.000437203 -3.39984e-05)
(-0.00774314 0.000429967 -6.26158e-05)
(-0.00874255 0.000410942 -0.000102422)
(-0.00960885 0.000374713 -0.000155277)
(-0.0102854 0.000315715 -0.000222932)
(-0.010704 0.000229111 -0.000306347)
(-0.0107889 0.000112513 -0.000404801)
(-0.0104629 -3.67376e-05 -0.000514474)
(-0.00966013 -0.00021204 -0.000626873)
(-0.00834425 -0.000397609 -0.000729338)
(-0.00653587 -0.00056391 -0.000800803)
(-0.00438518 -0.000660268 -0.000814352)
(-0.00197676 -0.000605464 -0.000745998)
(-0.0003491 -0.000237839 -0.000451982)
(-0.000335893 0.000912171 -0.000227804)
(-0.00173949 0.0018066 -0.000216493)
(-0.00385635 0.00210537 -0.000194288)
(-0.00598547 0.00217413 -0.000173342)
(-0.00812903 0.00216423 -0.000164863)
(-0.0102149 0.00212205 -0.000166639)
(-0.0122013 0.00204999 -0.000177856)
(-0.0140431 0.00193681 -0.000200117)
(-0.0156829 0.00176653 -0.000235949)
(-0.0170488 0.00152145 -0.000288305)
(-0.0180535 0.00118374 -0.000359993)
(-0.0185954 0.00073804 -0.000452914)
(-0.0185686 0.000174892 -0.000566893)
(-0.0178656 -0.000499404 -0.000699174)
(-0.0163946 -0.00125401 -0.000835719)
(-0.0141128 -0.0020256 -0.000960523)
(-0.0110666 -0.00269914 -0.00104486)
(-0.00748533 -0.00307928 -0.00105316)
(-0.00351103 -0.00285536 -0.000949581)
(-0.000707559 -0.00141578 -0.00052848)
(-0.000424093 0.00223797 -0.000306389)
(-0.00212603 0.00410196 -0.0003156)
(-0.00464904 0.00471217 -0.000296424)
(-0.00716908 0.00483244 -0.000271245)
(-0.00969255 0.00477453 -0.000256776)
(-0.0121365 0.00463336 -0.000251918)
(-0.0144537 0.00441778 -0.000256508)
(-0.0165947 0.00410943 -0.000272926)
(-0.0184969 0.00368067 -0.000304726)
(-0.0200827 0.00309968 -0.000356077)
(-0.0212578 0.00233408 -0.000431132)
(-0.0219117 0.00135629 -0.000533269)
(-0.0219191 0.000151322 -0.000664353)
(-0.0211463 -0.00126667 -0.000819456)
(-0.0194769 -0.00284058 -0.000986651)
(-0.0168409 -0.00444391 -0.00114437)
(-0.0132672 -0.00584567 -0.0012554)
(-0.00901164 -0.0066465 -0.00127219)
(-0.00423482 -0.00620902 -0.0011465)
(-0.00085125 -0.00329989 -0.000625055)
(-0.000450967 0.00363575 -0.000367545)
(-0.002275 0.00652945 -0.000395609)
(-0.00497686 0.00745603 -0.00037999)
(-0.00766711 0.0076198 -0.000352585)
(-0.0103627 0.00750765 -0.000334606)
(-0.0129803 0.00726572 -0.000325962)
(-0.0154768 0.00690978 -0.000327228)
(-0.0178069 0.00641485 -0.000341674)
(-0.0199118 0.00574122 -0.000374048)
(-0.0217159 0.00484126 -0.000430148)
(-0.0231218 0.00366442 -0.000516156)
(-0.0240087 0.00216522 -0.000637814)
(-0.0242317 0.00031706 -0.000799341)
(-0.0236235 -0.00187157 -0.00100168)
(-0.0220105 -0.00432952 -0.00122566)
(-0.0192552 -0.00687174 -0.00144602)
(-0.0153281 -0.00913855 -0.00161134)
(-0.0104908 -0.0104835 -0.00165255)
(-0.00492248 -0.00986079 -0.00149974)
(-0.000968223 -0.00530104 -0.000822905)
(-0.000456474 0.00511101 -0.000418397)
(-0.00234306 0.00910352 -0.000464243)
(-0.00515286 0.0103651 -0.000452343)
(-0.00795145 0.0105782 -0.000424214)
(-0.010767 0.0104187 -0.000405195)
(-0.0135202 0.0100886 -0.000396199)
(-0.0161772 0.00961206 -0.000398683)
(-0.0187025 0.00895834 -0.000417057)
(-0.0210469 0.00807522 -0.00045763)
(-0.0231418 0.00689672 -0.00052843)
(-0.0248908 0.00534799 -0.00063877)
(-0.0261621 0.00335444 -0.000797956)
(-0.0267821 0.00085857 -0.00101299)
(-0.0265338 -0.00215157 -0.00129215)
(-0.025162 -0.00561007 -0.00161815)
(-0.0224157 -0.00928373 -0.00195216)
(-0.0181488 -0.0126641 -0.00222289)
(-0.0125897 -0.014784 -0.00232215)
(-0.00592848 -0.014044 -0.00213047)
(-0.00114526 -0.0075646 -0.00118433)
(-0.000457036 0.00663506 -0.000467655)
(-0.00239439 0.0117886 -0.000531743)
(-0.00530112 0.0134067 -0.000523963)
(-0.00820115 0.0136804 -0.000496109)
(-0.0111339 0.0134892 -0.00047765)
(-0.0140263 0.0130963 -0.000470625)
(-0.0168578 0.0125374 -0.000477603)
(-0.019608 0.0117776 -0.000504494)
(-0.0222435 0.0107524 -0.000559718)
(-0.02471 0.00937523 -0.000654434)
(-0.0269198 0.0075399 -0.000802638)
(-0.0287363 0.00512868 -0.00102033)
(-0.0299571 0.00203125 -0.00132398)
(-0.0303072 -0.00182022 -0.00172384)
(-0.0294197 -0.00640384 -0.00221792)
(-0.0268691 -0.0114658 -0.00275226)
(-0.0223045 -0.0163385 -0.003224)
(-0.0158245 -0.0196344 -0.00345526)
(-0.00757771 -0.0189552 -0.00321861)
(-0.0014691 -0.010232 -0.0018061)
(-0.000456996 0.00820737 -0.00052214)
(-0.00244827 0.0145874 -0.000606731)
(-0.00545846 0.0165855 -0.000603524)
(-0.00846485 0.0169323 -0.000576042)
(-0.0115187 0.0167275 -0.000558324)
(-0.0145552 0.0163031 -0.000553823)
(-0.0175708 0.0157108 -0.000566551)
(-0.0205657 0.0149148 -0.00060439)
(-0.0235308 0.013841 -0.00067866)
(-0.0264377 0.0123819 -0.000805016)
(-0.0292216 0.0103948 -0.0010045)
(-0.0317565 0.00770378 -0.00130396)
(-0.0338245 0.00411482 -0.0017342)
(-0.0350986 -0.000545276 -0.00232189)
(-0.0350814 -0.00633786 -0.00308801)
(-0.033107 -0.0130792 -0.00397577)
(-0.0284904 -0.0199761 -0.00483693)
(-0.0209874 -0.025129 -0.00537597)
(-0.010514 -0.0249475 -0.00512887)
(-0.00214715 -0.0136678 -0.00290542)
(-0.000456996 0.00983583 -0.000586493)
(-0.00250928 0.0175156 -0.000695337)
(-0.00563271 0.0199167 -0.000696832)
(-0.00874779 0.020345 -0.00066863)
(-0.0119189 0.0201411 -0.000650201)
(-0.0150906 0.0197156 -0.000646806)
(-0.0182799 0.0191425 -0.0006643)
(-0.0215142 0.0183922 -0.000713052)
(-0.0248183 0.0173872 -0.000808157)
(-0.028205 0.0160038 -0.000971435)
(-0.0316554 0.0140637 -0.00123418)
(-0.0350868 0.0113245 -0.00163988)
(-0.0383035 0.00747997 -0.00224322)
(-0.0409353 0.00219413 -0.00310276)
(-0.0423893 -0.00478395 -0.00429524)
(-0.0417535 -0.0134576 -0.00580563)
(-0.0378365 -0.0230453 -0.00741387)
(-0.0296407 -0.0311855 -0.0086567)
(-0.01632 -0.0326114 -0.00856781)
(-0.00376818 -0.0188223 -0.0049921)
(-0.000458203 0.0115314 -0.000665092)
(-0.002582 0.0205926 -0.000803397)
(-0.0058292 0.0234142 -0.000809163)
(-0.00904894 0.0239221 -0.000777671)
(-0.0123204 0.0237233 -0.000755102)
(-0.0155981 0.0233185 -0.000749011)
(-0.0189222 0.0228135 -0.000767508)
(-0.0223529 0.0221945 -0.000823905)
(-0.025959 0.0213926 -0.000937831)
(-0.0298117 0.0202818 -0.00113887)
(-0.0339669 0.0186606 -0.00147216)
(-0.0384319 0.0162255 -0.00200582)
(-0.0431024 0.0125488 -0.00283743)
(-0.0476698 0.00708202 -0.00409492)
(-0.051537 -0.000752826 -0.00590545)
(-0.0536261 -0.0112892 -0.00837439)
(-0.0521996 -0.0242108 -0.0113456)
(-0.0448094 -0.0371529 -0.0139834)
(-0.0285891 -0.043042 -0.0144665)
(-0.00783398 -0.0280546 -0.00916583)
(-0.00046441 0.0133121 -0.0007637)
(-0.00267832 0.0238451 -0.000938312)
(-0.00606363 0.0270926 -0.000947072)
(-0.00937783 0.0276598 -0.000907793)
(-0.0127183 0.0274505 -0.000875165)
(-0.0160488 0.0270703 -0.0008596)
(-0.0194343 0.026667 -0.000871831)
(-0.0229702 0.0262556 -0.00092829)
(-0.0267759 0.0257934 -0.00105346)
(-0.0309963 0.0251769 -0.00128571)
(-0.0357943 0.0242132 -0.00168681)
(-0.0413266 0.0225749 -0.00235649)
(-0.0476892 0.0197443 -0.00344963)
(-0.0548166 0.0149674 -0.00518187)
(-0.0623434 0.00727707 -0.0078042)
(-0.0694604 -0.00437068 -0.0115383)
(-0.0739711 -0.0208816 -0.01618)
(-0.0707278 -0.04167 -0.0204375)
(-0.052443 -0.0588823 -0.0214882)
(-0.0165078 -0.0473935 -0.0160318)
(-0.000484315 0.0152107 -0.000891345)
(-0.00282411 0.0273137 -0.00111101)
(-0.00637211 0.0309702 -0.00112014)
(-0.00976653 0.0315468 -0.00106594)
(-0.0131301 0.0312812 -0.00101414)
(-0.0164351 0.0308991 -0.00097865)
(-0.0197702 0.0306009 -0.000973071)
(-0.0232645 0.0304442 -0.00101665)
(-0.0270861 0.0304341 -0.00113801)
(-0.0314567 0.0305239 -0.0013831)
(-0.0366647 0.0305826 -0.00182903)
(-0.0430713 0.0303383 -0.00260611)
(-0.0511029 0.0292999 -0.00392382)
(-0.0612144 0.0266605 -0.00607464)
(-0.07381 0.0211296 -0.00933388)
(-0.0887422 0.0103781 -0.0136141)
(-0.103072 -0.0100508 -0.0178052)
(-0.107 -0.0456553 -0.0193111)
(-0.0866754 -0.0890332 -0.0184142)
(-0.0284769 -0.0907515 -0.0203106)
(-0.000535912 0.0172918 -0.00106349)
(-0.00306928 0.0310757 -0.00134026)
(-0.00682342 0.0350919 -0.00134628)
(-0.0102819 0.0355853 -0.00126647)
(-0.0136087 0.035171 -0.00118143)
(-0.0167856 0.0347127 -0.00111038)
(-0.0199229 0.0344725 -0.00107021)
(-0.0231741 0.0345622 -0.00108211)
(-0.0267423 0.0350568 -0.0011768)
(-0.0309099 0.0360076 -0.00140347)
(-0.0360788 0.0374187 -0.00184507)
(-0.0428192 0.0391949 -0.0026381)
(-0.0519377 0.0410651 -0.003973)
(-0.0645675 0.0423875 -0.00597628)
(-0.0821586 0.0413813 -0.00827224)
(-0.10528 0.0327027 -0.00900702)
(-0.128941 0.00380133 -0.00421635)
(-0.138126 -0.0617 0.00732453)
(-0.115149 -0.148389 0.0109468)
(-0.0356163 -0.169346 -0.0115341)
(-0.000650576 0.0196418 -0.00130427)
(-0.00349271 0.0351717 -0.00164523)
(-0.00752735 0.0394013 -0.00163437)
(-0.0110405 0.03965 -0.00151094)
(-0.0142637 0.0389614 -0.0013758)
(-0.017189 0.0383266 -0.00125277)
(-0.0199492 0.038053 -0.0011598)
(-0.0227086 0.0383052 -0.00111703)
(-0.0256732 0.0392427 -0.00115394)
(-0.0291358 0.0410444 -0.00131323)
(-0.0335451 0.043914 -0.00165908)
(-0.0395885 0.0480475 -0.00226706)
(-0.048322 0.0535376 -0.00311267)
(-0.0613574 0.0598066 -0.00358357)
(-0.0807456 0.063506 -0.00134246)
(-0.107128 0.0535119 0.00883993)
(-0.136175 0.00873041 0.0321665)
(-0.149617 -0.0926663 0.0580829)
(-0.125791 -0.218343 0.0493725)
(-0.0344651 -0.258137 0.00198062)
(-0.000923548 0.0225459 -0.0016816)
(-0.00432063 0.0401071 -0.00213218)
(-0.008718 0.0444742 -0.00210879)
(-0.012212 0.0442998 -0.00191858)
(-0.0152078 0.0430645 -0.00169103)
(-0.0177432 0.0419586 -0.00146911)
(-0.0199591 0.0413684 -0.00128053)
(-0.0219921 0.041519 -0.00114847)
(-0.0240062 0.0426459 -0.00109425)
(-0.0262351 0.0450522 -0.00114164)
(-0.0290562 0.049156 -0.00130499)
(-0.033077 0.0554414 -0.00150307)
(-0.0393137 0.0642948 -0.00125726)
(-0.0494155 0.0746506 0.00130974)
(-0.0659963 0.0809554 0.0110375)
(-0.0905362 0.0669131 0.0355511)
(-0.123592 0.00795544 0.0749442)
(-0.140941 -0.121463 0.0965655)
(-0.121073 -0.271724 0.0561523)
(-0.0296444 -0.33734 0.000165611)
(-0.00131559 0.0263715 -0.00221407)
(-0.00534207 0.0449567 -0.00268387)
(-0.0103698 0.0486458 -0.00259169)
(-0.0140043 0.0474574 -0.00228035)
(-0.0168463 0.0455877 -0.001948)
(-0.0188924 0.0441127 -0.00162686)
(-0.0203596 0.0433043 -0.00134358)
(-0.0213873 0.0433257 -0.00111587)
(-0.0220758 0.0444232 -0.000958417)
(-0.0225191 0.0469714 -0.00086917)
(-0.0229062 0.0515503 -0.000798697)
(-0.0235345 0.0588192 -0.000466204)
(-0.025186 0.0693667 0.00106488)
(-0.0291353 0.0814809 0.00679309)
(-0.0389145 0.0891402 0.0229051)
(-0.056948 0.0729194 0.0564378)
(-0.0914697 0.00780677 0.0971759)
(-0.104878 -0.14135 0.0971061)
(-0.103342 -0.303079 0.0374744)
(-0.0194581 -0.408264 -0.0145593)
(-0.00340395 0.029947 -0.00324561)
(-0.00963417 0.0533699 -0.00397027)
(-0.0141665 0.0568647 -0.00377807)
(-0.0170509 0.0550052 -0.00330159)
(-0.0188801 0.0516511 -0.00272363)
(-0.0200621 0.0486977 -0.00215437)
(-0.0206852 0.0465497 -0.0016468)
(-0.0207304 0.045408 -0.00122849)
(-0.0201182 0.0454996 -0.000914029)
(-0.01871 0.0471445 -0.000677769)
(-0.0164113 0.0509499 -0.000427127)
(-0.0129854 0.0575303 0.000217038)
(-0.00895331 0.0676891 0.00240329)
(-0.00418398 0.0794722 0.00917716)
(-0.00349366 0.0884541 0.0268736)
(-0.00541961 0.0742087 0.0592359)
(-0.0318948 0.0122421 0.0914352)
(-0.0367538 -0.136071 0.0766184)
(-0.0735535 -0.307166 0.0253859)
(0.000713346 -0.457615 -0.0317729)
(-0.00146438 0.0446782 -0.005201)
(-0.0081769 0.0570848 -0.00555815)
(-0.0172382 0.0570669 -0.00499217)
(-0.0205413 0.0521745 -0.00397638)
(-0.0229186 0.0485512 -0.00312754)
(-0.0235148 0.0458402 -0.00232502)
(-0.0230484 0.043927 -0.00162722)
(-0.0215941 0.0426979 -0.00105682)
(-0.0191433 0.0423216 -0.000649645)
(-0.0154396 0.0429709 -0.000366745)
(-0.0102397 0.0452895 -0.000165633)
(-0.00270821 0.0495541 0.000328005)
(0.00683373 0.0567359 0.0021383)
(0.0205982 0.065192 0.00724618)
(0.0320654 0.0722834 0.0206762)
(0.0511022 0.0631487 0.0447628)
(0.036634 0.013101 0.0655134)
(0.0412591 -0.10682 0.0556204)
(-0.0287276 -0.292164 0.0194074)
(0.03062 -0.47622 -0.0458718)
(-0.0123628 0.0355641 -0.00618435)
(-0.0242136 0.0787136 -0.00790145)
(-0.0224282 0.0765344 -0.00777578)
(-0.0270706 0.0705542 -0.00664317)
(-0.026968 0.0626504 -0.00501556)
(-0.025175 0.0559103 -0.00347764)
(-0.0217267 0.0504169 -0.00220166)
(-0.016996 0.0460515 -0.00122559)
(-0.0112047 0.0428577 -0.000597712)
(-0.00398414 0.0405807 -0.000283051)
(0.00436603 0.039645 -0.000276674)
(0.0153026 0.0398923 -0.000411269)
(0.0276819 0.0423063 7.59241e-05)
(0.0456018 0.0452958 0.00251167)
(0.0600003 0.0488612 0.00913874)
(0.0891881 0.0433508 0.0235103)
(0.0847335 0.0133376 0.0337429)
(0.116521 -0.0676887 0.0328681)
(0.0410188 -0.259203 0.010346)
(0.0769764 -0.466399 -0.0573189)
(-0.076249 0.0998216 -0.0196035)
(-0.0613685 0.0608287 -0.0153117)
(-0.0608159 0.0597584 -0.0119249)
(-0.0384259 0.051748 -0.00890972)
(-0.0194671 0.0437531 -0.00676464)
(0.00155739 0.0378584 -0.00493958)
(0.0210289 0.0336203 -0.00348715)
(0.0404164 0.0300195 -0.00235973)
(0.0576886 0.0274653 -0.00154481)
(0.0760515 0.0250173 -0.00108753)
(0.0911712 0.0237833 -0.00100128)
(0.110439 0.0224599 -0.00132745)
(0.123239 0.0224077 -0.00183417)
(0.149369 0.0220348 -0.00161534)
(0.156131 0.0192373 -0.000939235)
(0.200222 0.0128273 0.00451341)
(0.186955 -0.01697 0.0106066)
(0.236089 -0.0744491 0.00984073)
(0.158845 -0.237462 0.00307799)
(0.15065 -0.415917 -0.0681295)
(0.119149 0.140172 -0.0169548)
(0.151477 0.085623 -0.0185661)
(0.228812 0.063207 -0.0185978)
(0.283494 0.0477236 -0.0171938)
(0.324546 0.0368052 -0.0153941)
(0.362425 0.0287192 -0.0137368)
(0.39084 0.0230733 -0.0121767)
(0.42141 0.0188058 -0.0109278)
(0.44064 0.0157682 -0.00958398)
(0.468492 0.0133718 -0.00879142)
(0.479815 0.0115344 -0.00771311)
(0.508926 0.0103444 -0.00750263)
(0.511873 0.00903173 -0.00654038)
(0.545771 0.00855148 -0.00707204)
(0.537447 0.0066876 -0.00531006)
(0.5752 0.00364416 -0.00665586)
(0.542883 -0.00507401 -0.00285886)
(0.55893 -0.0251849 -0.00889214)
(0.427383 -0.0671693 -0.0101212)
(0.302712 -0.144667 -0.0809704)
(-0.000123279 0.000126248 -0.000134359)
(-0.000924014 0.000376428 -0.000139095)
(-0.00225831 0.000462133 -0.000125792)
(-0.00359507 0.000483247 -0.00011541)
(-0.00494717 0.00048582 -0.000116778)
(-0.00627172 0.000484297 -0.000129244)
(-0.00754903 0.000478439 -0.000152576)
(-0.00875454 0.000463916 -0.000188008)
(-0.00985235 0.000435386 -0.000237846)
(-0.0107944 0.000386935 -0.000304394)
(-0.0115198 0.000312441 -0.000389527)
(-0.0119556 0.000206521 -0.000493987)
(-0.0120204 6.62943e-05 -0.000616487)
(-0.0116308 -0.000110543 -0.000751767)
(-0.0107152 -0.000315983 -0.000890029)
(-0.00923317 -0.000532009 -0.00101559)
(-0.00720649 -0.000722946 -0.00110698)
(-0.00480262 -0.000826852 -0.00113866)
(-0.00212037 -0.000743911 -0.00108035)