/*--------------------------------*- C++ -*----------------------------------*\
  =========                 |
  \\      /  F ield         | OpenFOAM: The Open Source CFD Toolbox
   \\    /   O peration     | Website:  https://openfoam.org
    \\  /    A nd           | Version:  10
     \\/     M anipulation  |
\*---------------------------------------------------------------------------*/
FoamFile
{
    format      ascii;
    class       surfaceScalarField;
    location    "3.925";
    object      phi;
}
// * * * * * * * * * * * * * * * * * * * * * * * * * * * * * * * * * * * * * //

dimensions      [0 3 -1 0 0 0 0];

internalField   nonuniform List<scalar> 
928
(
0.0955809
0.00441906
0.104246
-0.00866505
0.10662
-0.00237358
-0.0105648
0.117184
0.0944367
0.00998233
0.106447
-0.0206752
0.101609
0.0024641
-0.0214762
0.112521
0.0957612
0.0142211
0.105889
-0.0308027
0.102498
0.00585457
-0.0423112
0.123333
0.104234
0.0099869
0.0958915
-0.02246
0.102954
-0.00120794
0.149329
-0.0886867
0.11209
0.00509433
-0.0159815
0.128071
0.10737
0.0102446
-0.0423268
0.133716
0.12058
0.012998
-0.0441075
0.122361
0.162327
0.11822
0.127519
0.000552086
0.127425
9.44968e-05
0.128946
-0.00152156
-0.00120468
0.130151
0.131555
0.00271303
0.13061
0.00103962
0.132204
-0.00311574
-0.00253332
0.133532
0.122589
0.00248464
0.13042
-0.00679092
0.128103
-0.000798762
-0.00052694
0.126096
0.105512
0.0151922
0.116208
-0.0174871
0.11231
0.00309937
0.104356
0.0074277
0.131083
-0.000932241
0.131146
-6.30043e-05
0.13092
0.000226343
0.131026
-0.000105714
0.131137
-0.00011171
0.131921
-0.000783626
0.13187
5.06551e-05
0.132368
-0.00049712
0.132164
0.000203109
0.131768
0.000396231
0.130524
0.00124469
0.128511
0.00201256
0.126645
0.00186612
0.124209
0.00243568
0.122654
0.00155548
0.120668
0.00198524
0.119369
0.00129993
0.117949
0.00141982
0.11663
0.00131861
0.115625
0.00100523
0.114092
0.00153289
0.112854
0.00123761
0.110553
0.00230167
0.108645
0.00190791
0.106454
0.00219066
0.104991
0.00146334
0.104466
0.000524555
0.104602
-0.000135694
0.106389
-0.00178701
0.108361
-0.00197225
0.111022
-0.00266107
0.113076
-0.00205361
0.11451
-0.00143408
0.115145
-0.000634918
0.114841
0.000304007
0.114054
0.000787264
0.112181
0.00187281
0.110291
0.0018903
0.107722
0.0025681
0.00218182
0.133395
-0.000794382
0.133452
-0.000120775
0.13409
-0.000410897
0.134966
-0.00098231
0.135631
-0.000776848
0.136243
-0.00139555
0.137141
-0.000846767
0.138151
-0.00150732
0.138859
-0.000505035
0.138831
0.000424348
0.137871
0.00220446
0.136849
0.00303507
0.135769
0.00294606
0.13418
0.00402456
0.132792
0.00294292
0.131196
0.00358152
0.1303
0.00219604
0.129303
0.00241712
0.128462
0.0021592
0.127697
0.00177038
0.126698
0.00253147
0.125966
0.00196964
0.124307
0.00396131
0.122674
0.00354009
0.120492
0.00437332
0.118318
0.00363745
0.116773
0.00206935
0.116149
0.000488488
0.117117
-0.00275519
0.118656
-0.00351165
0.121228
-0.00523296
0.123531
-0.00435625
0.125694
-0.00359727
0.127528
-0.00246922
0.128444
-0.000611825
0.129114
0.000116997
0.12878
0.00220707
0.12835
0.00232029
0.127166
0.00375249
0.00348736
0.125256
4.62395e-05
0.126906
-0.0017714
0.128766
-0.00227118
0.129444
-0.00166016
0.129387
-0.000719607
0.129335
-0.0013432
0.130864
-0.00237566
0.132153
-0.00279689
0.132184
-0.000535689
0.132112
0.000495976
0.132306
0.00201048
0.133064
0.00227702
0.132917
0.00309354
0.132665
0.00427602
0.131649
0.00395879
0.131752
0.00347896
0.131832
0.00211606
0.132269
0.00198005
0.132263
0.00216496
0.131747
0.002287
0.13132
0.00295799
0.129179
0.00411071
0.126582
0.00655881
0.123194
0.00692782
0.119333
0.00823448
0.116006
0.00696445
0.113668
0.00440692
0.112601
0.00155554
0.112445
-0.00259877
0.113041
-0.00410826
0.114055
-0.00624646
0.115018
-0.00531991
0.116531
-0.0051095
0.117899
-0.00383756
0.119444
-0.00215735
0.121304
-0.0017428
0.123019
0.000492551
0.124228
0.00111139
0.124765
0.00321558
0.00313453
0.107949
-0.00354752
0.102789
0.00338932
0.10341
-0.00289273
0.0997653
0.00198483
0.0941506
0.00489507
0.0922959
0.000511477
0.0903177
-0.000397445
0.0880126
-0.000491759
0.0881168
-0.000639876
0.0873133
0.0012995
0.0889323
0.000391473
0.0908604
0.000348928
0.0928222
0.00113165
0.093785
0.00331329
0.09549
0.00225372
0.0987575
0.000211471
0.100961
-8.76364e-05
0.104253
-0.00131189
0.107609
-0.00119085
0.111658
-0.00176212
0.115698
-0.0010816
0.118729
0.00107938
0.124136
0.00115184
0.127996
0.00306813
0.130545
0.00568549
0.131763
0.0057461
0.130005
0.00616458
0.123872
0.00768925
0.114138
0.00713488
0.103937
0.00609244
0.0942408
0.00345006
0.0879548
0.000966005
0.0840331
-0.00118774
0.0831626
-0.00296706
0.0843668
-0.0033616
0.0867636
-0.00413959
0.0903646
-0.00310845
0.0932696
-0.00179362
0.0965813
-9.60339e-05
0.00137361
0.109123
0.000864226
0.0881392
-0.00147643
0.0863501
0.000581132
-0.00233659
0.11189
-0.0110254
0.0884555
0.0219577
0.0906536
-0.00161701
0.088317
-0.00628849
0.0214807
0.0190481
-0.0428236
0.0345773
-0.0124298
0.0281621
0.0138429
0.00903011
0.0124506
0.00219072
-0.0359843
-0.0115726
0.00133345
0.011844
0.00474559
0.0260958
-0.0158004
0.00909522
0.0203899
0.00634196
-0.000139464
0.00451762
0.00380917
0.00250706
0.00690563
0.000474798
0.00254374
0.00533122
-0.00525387
0.01264
-0.00780057
0.0101162
0.00188394
0.00858558
0.00283014
0.00977214
-0.000795083
0.0122513
-0.00213023
0.0155629
-0.00218
0.0198143
-0.000938024
0.0234406
-0.00137257
0.0253775
-0.00172542
0.0273078
-0.00201799
0.0310268
-0.00503089
0.0336215
-0.00378556
0.0343326
-0.00247323
0.0364403
-0.00318929
0.0377006
-0.000180877
0.0364544
0.00239805
0.0369375
0.00258503
0.0361653
0.0064576
0.0330205
0.00889091
0.0304943
0.00869081
0.0289743
0.00920926
0.0276415
0.00846764
0.0270177
0.00671626
0.0275307
0.00293706
0.028115
0.000381709
0.0285796
-0.0016523
0.0305287
-0.00491621
0.032532
-0.00536487
0.0336848
-0.0052924
0.036273
-0.00569668
0.0392199
-0.0047405
0.0400476
-0.000923681
0.000917793
0.00164969
-0.00560615
0.0126288
0.00941078
0.0088228
0.00366652
0.00601991
0.00661205
0.00928783
0.0036377
0.00866539
0.00316618
0.0043699
-0.000958384
-0.0017038
-0.00172686
-0.000841261
0.0010214
0.00554216
-0.00355329
0.00941957
-0.00467248
0.0107754
-0.00348607
0.0119963
-0.00340092
0.0147185
-0.00366017
0.017356
-0.00401013
0.0190319
-0.0034013
0.0213635
-0.00434954
0.0215058
-0.00517325
0.0212775
-0.00355724
0.0216121
-0.00280782
0.0214452
-0.00302239
0.0227253
-0.00146094
0.0233557
0.00176759
0.0234955
0.00244528
0.026401
0.00355208
0.0294453
0.00584656
0.0318911
0.00624504
0.035155
0.00594543
0.0391359
0.00448665
0.0427098
0.00314238
0.0448866
0.000760265
0.0462371
-0.000968801
0.0469693
-0.00238452
0.0463223
-0.00426918
0.0452852
-0.00432772
0.0445299
-0.00453713
0.0435169
-0.00468365
0.0431219
-0.00434553
0.0442755
-0.00207727
-0.000456564
0.103869
-0.0148944
0.0917187
0.034108
0.0967504
-0.00664878
0.0414226
0.143645
0.0952853
-0.0101796
0.110874
0.0185197
0.103564
0.000660666
0.0188407
0.126146
0.0942788
-0.0044585
0.105325
0.0074739
0.102576
0.00340953
0.00924273
0.112174
0.0955415
0.103015
0.106425
0.115668
0.150188
-0.00654295
0.0493336
0.100854
0.127586
-0.00798293
0.0414247
0.135495
0.10963
-0.00543932
0.0171215
0.133933
0.110228
0.12735
0.106853
0.00645213
0.0700751
0.000793295
0.0688851
0.00252348
0.00107289
0.0725578
0.139877
0.00207014
0.139108
0.00156199
0.141612
1.92959e-05
0.00304796
0.139637
0.136267
-0.000263643
0.136691
0.00113823
0.135789
0.000921194
0.00136433
0.137473
0.127086
0.128224
0.129146
0.13051
0.0672171
-0.000265437
0.0733899
0.003238
0.0747304
0.002326
0.0781729
0.00316957
0.0799067
0.0019039
0.0829411
0.000131774
0.0836988
-0.00171608
0.0851845
-0.00321261
0.0882967
-0.00209079
0.0877076
-0.00296421
0.0870963
-0.00406116
0.0878972
-0.00428696
0.0891307
-0.00463442
0.0895601
-0.00408958
0.0904305
-0.00488049
0.0908755
-0.00384637
0.0905088
-0.00398282
0.0886261
-0.00329056
0.0874989
-0.00242997
0.086089
-0.001398
0.0826718
0.000394826
0.080969
0.000241924
0.08053
0.00220654
0.0810224
0.00195289
0.082165
0.00240949
0.0856715
0.00234001
0.0906494
0.00126716
0.0953405
0.00125436
0.101627
-0.00179962
0.107209
-0.00243972
0.113078
-0.0051086
0.117941
-0.00583188
0.121726
-0.00616923
0.123904
-0.00644744
0.124249
-0.00467267
0.123595
-0.00388303
0.119979
-0.00106842
0.11628
-0.000645876
0.112182
0.00202057
0.00182479
0.136269
0.0031028
0.137334
0.00217309
0.138314
0.00134616
0.141277
0.000206123
0.142375
0.000806551
0.142862
-0.000355191
0.141631
-0.000485472
0.141384
-0.00296519
0.14234
-0.00304755
0.142447
-0.00307072
0.141821
-0.00343565
0.14084
-0.0033053
0.140744
-0.00453914
0.140299
-0.00364434
0.140118
-0.00469964
0.139493
-0.00322148
0.138688
-0.00317765
0.13757
-0.00217237
0.136353
-0.00121274
0.135648
-0.000692714
0.134399
0.00164293
0.1333
0.00134173
0.132723
0.00278361
0.132471
0.00220461
0.13265
0.00222995
0.133102
0.00188858
0.134138
0.000230736
0.135676
-0.000283352
0.136651
-0.00277443
0.137224
-0.00301283
0.136647
-0.00453151
0.135277
-0.00446225
0.133393
-0.00428528
0.130887
-0.00394096
0.128592
-0.00237765
0.126777
-0.00206873
0.125415
0.000293876
0.124285
0.000484424
0.124145
0.00216067
0.00202998
0.139321
0.00125444
0.14026
0.00123377
0.140806
0.000800273
0.141602
-0.000589415
0.142557
-0.000148584
0.14265
-0.000448527
0.142366
-0.000201741
0.140786
-0.00138521
0.139524
-0.00178488
0.138424
-0.00197053
0.136968
-0.00198016
0.135384
-0.00172102
0.133159
-0.00231487
0.13149
-0.00197488
0.129388
-0.00259746
0.128084
-0.00191813
0.126741
-0.00183432
0.125775
-0.00120641
0.125152
-0.000589482
0.12481
-0.000350738
0.125817
0.000635682
0.126537
0.000622347
0.127865
0.00145511
0.128977
0.00109276
0.130044
0.00116291
0.131227
0.000705313
0.131463
-5.39968e-06
0.131709
-0.000529003
0.130655
-0.00172058
0.129596
-0.00195352
0.127794
-0.0027298
0.125788
-0.00245642
0.12397
-0.00246662
0.121872
-0.00184308
0.120546
-0.00105179
0.119181
-0.000704082
0.119007
0.000468281
0.119051
0.000440403
0.119868
0.00134397
0.000708371
0.131764
0.132998
0.133798
0.133209
0.13306
0.132612
0.13241
0.131025
0.12924
0.12727
0.125289
0.123568
0.121254
0.119279
0.116681
0.114763
0.112929
0.111722
0.111133
0.110782
0.111418
0.11204
0.113495
0.114588
0.115751
0.116456
0.116451
0.115922
0.114201
0.112248
0.109518
0.107062
0.104595
0.102752
0.1017
0.100996
0.101464
0.101905
0.103249
)
;

boundaryField
{
    inlet
    {
        type            calculated;
        value           nonuniform List<scalar> 10(-0.1 -0.1 -0.1 -0.1 -0.1 -0.1 -0.1 -0.1 -0.1 -0.1);
    }
    outlet
    {
        type            calculated;
        value           nonuniform List<scalar> 10(0.105541 0.12586 0.125117 0.0983422 0.0405034 0.0456498 0.109901 0.12394 0.121189 0.103957);
    }
    obstacle
    {
        type            calculated;
        value           uniform 0;
    }
    upperWall
    {
        type            calculated;
        value           uniform 0;
    }
    lowerWall
    {
        type            calculated;
        value           uniform 0;
    }
    frontAndBack
    {
        type            empty;
        value           nonuniform List<scalar> 0();
    }
}


// ************************************************************************* //
