/*--------------------------------*- C++ -*----------------------------------*\
  =========                 |
  \\      /  F ield         | OpenFOAM: The Open Source CFD Toolbox
   \\    /   O peration     | Website:  https://openfoam.org
    \\  /    A nd           | Version:  10
     \\/     M anipulation  |
\*---------------------------------------------------------------------------*/
FoamFile
{
    format      ascii;
    class       volScalarField;
    location    "7";
    object      p;
}
// * * * * * * * * * * * * * * * * * * * * * * * * * * * * * * * * * * * * * //

dimensions      [0 2 -2 0 0 0 0];

internalField   nonuniform List<scalar> 
8000
(
-3.39406e-06
-6.52769e-06
4.33185e-05
0.000132794
0.00026851
0.000452279
0.000685905
0.000971335
0.00130937
0.00169913
0.0021371
0.00261595
0.0031234
0.00364123
0.00414597
0.00460721
0.00499264
0.00527195
0.00543902
0.00544625
-1.06037e-06
-4.71313e-06
4.69418e-05
0.00013624
0.000270277
0.000451213
0.000681328
0.00096267
0.00129632
0.00168177
0.00211593
0.00259203
0.0030979
0.0036151
0.00412264
0.00458803
0.00497845
0.00526218
0.00543429
0.00543567
-6.66705e-05
-7.40621e-05
-2.42936e-05
6.16587e-05
0.000191459
0.000367446
0.000592359
0.000868911
0.0011991
0.00158352
0.00202038
0.00250422
0.00302489
0.00356605
0.00409946
0.00459572
0.00501614
0.00532221
0.0055077
0.00549904
-0.000188127
-0.000198281
-0.000151456
-7.05998e-05
5.26394e-05
0.000220931
0.000437719
0.000706739
0.00103139
0.00141407
0.00185513
0.00235148
0.00289464
0.00346862
0.0040478
0.00459702
0.00507039
0.00541783
0.00562902
0.00560845
-0.000371671
-0.000384659
-0.000342241
-0.00026855
-0.000154537
2.89004e-06
0.000208029
0.00046589
0.00078168
0.00116023
0.00160493
0.00211615
0.00268892
0.00330965
0.00395303
0.00457994
0.00513391
0.0055469
0.00580035
0.00576291
-0.000617765
-0.000633971
-0.000597512
-0.000533397
-0.000431938
-0.000289651
-0.000101375
0.000139262
0.000439502
0.000807088
0.00124939
0.00177169
0.00237448
0.00304908
0.00377136
0.00450382
0.0051742
0.00568859
0.0060108
0.00595018
-0.000925593
-0.000945606
-0.000916779
-0.000865062
-0.000780274
-0.000658745
-0.000494659
-0.000280452
-6.91721e-06
0.000336761
0.000762529
0.0012822
0.00190455
0.00263064
0.00344557
0.0043021
0.00512964
0.00579808
0.00623366
0.00614893
-0.00129358
-0.00131812
-0.00129863
-0.00126239
-0.00119901
-0.00110505
-0.000974581
-0.000799404
-0.000568925
-0.000269749
0.000114453
0.000602474
0.00121368
0.00196272
0.00285082
0.00385014
0.00487925
0.00577646
0.00640346
0.0063247
-0.0017195
-0.00174926
-0.00174054
-0.00172269
-0.00168556
-0.00162662
-0.00154067
-0.00142001
-0.00125407
-0.00102842
-0.00072398
-0.000316384
0.000224298
0.000931277
0.00183154
0.00292756
0.00416662
0.00538762
0.00633955
0.00640348
-0.00220075
-0.00223622
-0.00223885
-0.00224141
-0.00223458
-0.00221767
-0.00218741
-0.00213819
-0.00206165
-0.00194559
-0.00177261
-0.00151796
-0.00114743
-0.000615265
0.000136378
0.00116887
0.00251784
0.00411052
0.00559008
0.00621755
-0.00273513
-0.00277626
-0.00278912
-0.00281205
-0.00283738
-0.00286739
-0.00290222
-0.00294032
-0.00297845
-0.00301103
-0.00302912
-0.00301945
-0.0029619
-0.00282214
-0.00254223
-0.00201569
-0.0010085
0.000790057
0.00320612
0.00519774
-0.00332224
-0.00336782
-0.00338668
-0.00342635
-0.00348158
-0.00355913
-0.0036638
-0.00380001
-0.00397284
-0.00418849
-0.00445504
-0.00478449
-0.00519584
-0.00570661
-0.00631225
-0.00689236
-0.00691543
-0.00499751
-0.000920677
0.00315716
-0.00396704
-0.00401368
-0.00402957
-0.00407699
-0.00415354
-0.00427221
-0.00444352
-0.00467903
-0.00499457
-0.00541253
-0.0059661
-0.00670373
-0.00771363
-0.00909099
-0.0108736
-0.0127846
-0.0136233
-0.0105524
-0.00410905
0.00139133
-0.00468084
-0.00471633
-0.00470943
-0.0047459
-0.00482788
-0.00497438
-0.00519974
-0.00552272
-0.00596993
-0.00657975
-0.00741356
-0.00853995
-0.0101407
-0.012327
-0.0151564
-0.0179124
-0.0192076
-0.0149808
-0.0083063
-0.000588634
-0.0054985
-0.00551838
-0.00546985
-0.00547566
-0.00553453
-0.00567633
-0.00592223
-0.00629741
-0.0068379
-0.00759335
-0.00866642
-0.0100387
-0.0121221
-0.0148945
-0.0184931
-0.0220295
-0.0251727
-0.0222604
-0.0163443
-0.00377221
-0.00659308
-0.00638598
-0.00620446
-0.00608875
-0.0060885
-0.00621563
-0.00647886
-0.00689339
-0.00749584
-0.00832936
-0.00950462
-0.0111063
-0.0134167
-0.0164933
-0.020679
-0.0249842
-0.0313173
-0.0298409
-0.0239232
-0.00519355
-0.00751261
-0.00761664
-0.00729279
-0.00715077
-0.00702638
-0.0070284
-0.00717988
-0.0075084
-0.00805695
-0.00886192
-0.0100333
-0.0116474
-0.013979
-0.0170367
-0.0213868
-0.0257463
-0.0325512
-0.0301217
-0.0228771
0.00286704
-0.0114124
-0.00858036
-0.00792154
-0.00720024
-0.00693554
-0.00692085
-0.00712465
-0.00750502
-0.00809733
-0.00891256
-0.0100741
-0.0116146
-0.0138023
-0.0165099
-0.0202414
-0.0233403
-0.027746
-0.0226489
-0.0128318
0.026044
-0.0110182
-0.0119187
-0.0104271
-0.00990367
-0.00913929
-0.0086489
-0.00841426
-0.00843626
-0.00875923
-0.00935919
-0.0103551
-0.0117223
-0.0137804
-0.0162157
-0.0197337
-0.021935
-0.0240902
-0.0131328
0.00581873
0.0705672
-0.0356893
-0.0102783
-0.00859819
-0.00710369
-0.0063204
-0.00618038
-0.0064225
-0.00681819
-0.0074673
-0.00827238
-0.00950539
-0.0109447
-0.0130495
-0.0150137
-0.0171883
-0.0158698
-0.0101444
0.0163337
0.0643714
0.171945
1.73e-06
-1.28316e-05
3.43222e-05
0.000122881
0.000258712
0.000443109
0.00067807
0.000965257
0.00130567
0.00169865
0.0021409
0.00262531
0.00313973
0.0036659
0.004179
0.00464835
0.00503996
0.00532066
0.00548471
0.00547325
1.4723e-05
4.40776e-07
5.17743e-05
0.000140604
0.000274627
0.00045563
0.00068585
0.00096737
0.0013014
0.0016876
0.00212312
0.00260144
0.00311058
0.00363315
0.00414537
0.00461618
0.00501069
0.00529478
0.00546498
0.00544617
-4.67338e-05
-6.68081e-05
-1.71393e-05
6.83349e-05
0.000198072
0.000374008
0.000598836
0.000875349
0.00120568
0.00159062
0.00202865
0.00251459
0.00303856
0.00358391
0.00412464
0.0046279
0.00505359
0.00536031
0.00554351
0.00550958
-0.000164998
-0.000189069
-0.00014218
-6.17655e-05
6.14211e-05
0.000229639
0.000446287
0.000715201
0.00103993
0.0014231
0.00186543
0.00236421
0.00291135
0.00349141
0.00407942
0.00463789
0.00511857
0.00546708
0.00567516
0.00562319
-0.000346682
-0.000374466
-0.00033191
-0.00025862
-0.000144567
1.29149e-05
0.000218089
0.000476085
0.000792283
0.0011718
0.00161847
0.00213329
0.0027119
0.00334088
0.00399656
0.00463668
0.00520164
0.00561721
0.00586698
0.00578876
-0.000591531
-0.000623329
-0.000586677
-0.000522885
-0.000421223
-0.000278645
-9.00056e-05
0.000151219
0.000452482
0.000821872
0.00126731
0.00179492
0.00240605
0.00309226
0.00383461
0.00458676
0.00527527
0.00579657
0.00611606
0.00599941
-0.000898275
-0.000934764
-0.000905697
-0.000854209
-0.000769038
-0.000646943
-0.000482094
-0.000266736
8.61638e-06
0.000355219
0.000785748
0.00131321
0.001948
0.00269288
0.00353009
0.00442325
0.00528507
0.00597346
0.00641413
0.00625038
-0.00126518
-0.00130727
-0.00128753
-0.00125146
-0.00118756
-0.0010928
-0.000961171
-0.000784241
-0.000551064
-0.000247666
0.000143242
0.000642094
0.00127086
0.00204668
0.00296941
0.00402337
0.00511709
0.00607212
0.00673482
0.00655183
-0.00168995
-0.00173859
-0.00172967
-0.00171204
-0.00167436
-0.00161449
-0.0015271
-0.00140418
-0.00123469
-0.00100352
-0.000690418
-0.00026892
0.000294515
0.00103827
0.00199609
0.00316719
0.00452907
0.00590518
0.0069996
0.0069882
-0.00216988
-0.00222595
-0.00222853
-0.00223148
-0.00222424
-0.00220646
-0.00217468
-0.0021229
-0.00204222
-0.0019197
-0.00173666
-0.00146621
-0.00106995
-0.000494855
0.000327168
0.00146924
0.00299577
0.00496112
0.00690419
0.0076102
-0.00270249
-0.00276659
-0.00277963
-0.00280335
-0.00282863
-0.00285808
-0.0028916
-0.00292716
-0.00296101
-0.00298685
-0.002995
-0.00297046
-0.00289135
-0.00272362
-0.00241276
-0.00183519
-0.00059925
0.00179872
0.00515857
0.00766951
-0.00328675
-0.00335851
-0.00337776
-0.00341878
-0.00347468
-0.00355237
-0.00365629
-0.00379041
-0.00395925
-0.0041686
-0.00442689
-0.00474702
-0.00515486
-0.00569818
-0.00643644
-0.00728554
-0.00744518
-0.00493364
2.56369e-05
0.00535837
-0.00392674
-0.00400516
-0.00402239
-0.00407236
-0.00415046
-0.00426977
-0.00444068
-0.00467458
-0.00498663
-0.0053994
-0.00594843
-0.00669093
-0.00773483
-0.00926085
-0.0114853
-0.0142577
-0.0163407
-0.0137468
-0.00737163
0.000721313
-0.00462808
-0.00470137
-0.00469467
-0.00473467
-0.00482073
-0.00497062
-0.00519787
-0.00552036
-0.00596438
-0.00656904
-0.00739822
-0.00854985
-0.010218
-0.0126837
-0.0162561
-0.0206189
-0.0246509
-0.0226461
-0.0166521
-0.00566565
-0.00542615
-0.00550625
-0.00545975
-0.00547422
-0.00553781
-0.00568224
-0.00592834
-0.00630115
-0.00683508
-0.00758013
-0.00862231
-0.010068
-0.0122043
-0.0152844
-0.0198492
-0.0254348
-0.0323068
-0.0317174
-0.0277867
-0.0126071
-0.00645322
-0.00631326
-0.00614158
-0.00603922
-0.0060551
-0.0061949
-0.00646568
-0.00688242
-0.00747853
-0.00830408
-0.00945918
-0.0110511
-0.0134372
-0.0166611
-0.0218205
-0.0277592
-0.0373399
-0.0374655
-0.0351237
-0.0143162
-0.00719387
-0.007524
-0.00720809
-0.00712248
-0.00701613
-0.00703
-0.0071837
-0.0075073
-0.00803957
-0.00882019
-0.0099542
-0.011497
-0.0138289
-0.0169749
-0.0219259
-0.0273443
-0.0356193
-0.0354309
-0.0323914
-0.00208879
-0.0109103
-0.00825211
-0.00762948
-0.00695014
-0.00677096
-0.00682039
-0.00706355
-0.00746141
-0.00804614
-0.00882166
-0.00992787
-0.0113746
-0.0135058
-0.0162427
-0.0202992
-0.0241293
-0.0290923
-0.0266476
-0.0183942
0.0270115
-0.00834623
-0.0109455
-0.00983574
-0.00967908
-0.00908952
-0.00870151
-0.00850813
-0.00852715
-0.00881706
-0.00934807
-0.0102485
-0.0114943
-0.013473
-0.0158964
-0.019787
-0.0228057
-0.0258285
-0.0159949
0.00560931
0.0788983
-0.0334527
-0.00841032
-0.00699772
-0.00606465
-0.00563889
-0.00567043
-0.0060325
-0.00648828
-0.00717965
-0.00795948
-0.00916137
-0.0105288
-0.0125937
-0.0146454
-0.0169521
-0.0160931
-0.0101099
0.0181471
0.0781701
0.20284
1.39914e-05
-5.85967e-06
4.03516e-05
0.000128269
0.000264505
0.000450047
0.000686719
0.000976498
0.00132058
0.00171854
0.00216734
0.00266005
0.00318455
0.00372238
0.00424785
0.00472883
0.00512901
0.00541267
0.00557453
0.00555004
3.40288e-05
1.37808e-05
6.48723e-05
0.000153301
0.000287485
0.000469056
0.000700319
0.000983555
0.0013202
0.00171017
0.00215089
0.00263607
0.00315366
0.00368702
0.00421057
0.00469228
0.00509502
0.00538217
0.0055511
0.00551955
-2.30624e-05
-5.0307e-05
-7.513e-07
8.42569e-05
0.000214032
0.000390361
0.000616051
0.000894121
0.00122699
0.00161581
0.00205944
0.00255304
0.00308714
0.00364475
0.00419954
0.00471664
0.0051531
0.00546407
0.00564578
0.00559498
-0.00013725
-0.000169287
-0.000122391
-4.2476e-05
8.07e-05
0.000249249
0.000466731
0.000737259
0.00106475
0.0014523
0.00190116
0.00240914
0.00296839
0.00356493
0.00417154
0.0047491
0.00524525
0.0056001
0.00580646
0.00573121
-0.000315603
-0.000352006
-0.000309349
-0.00023653
-0.000122419
3.55147e-05
0.000241746
0.000501753
0.000821377
0.00120635
0.00166134
0.00218821
0.00278372
0.00343416
0.00411572
0.00478363
0.00537238
0.00579886
0.00604696
0.00593359
-0.000557393
-0.000598429
-0.000561572
-0.000498172
-0.00039631
-0.000253048
-6.29676e-05
0.000180887
0.000486558
0.000862952
0.00131911
0.00186254
0.00249602
0.00321275
0.00399235
0.00478657
0.00551352
0.00605501
0.0063743
0.00619929
-0.000860948
-0.00090734
-0.000877956
-0.000826785
-0.000741278
-0.000618267
-0.000451575
-0.000232913
4.79452e-05
0.000403319
0.000847384
0.00139516
0.00205931
0.0028433
0.003737
0.00469575
0.00562232
0.00635097
0.00679843
0.00653028
-0.00122428
-0.00127704
-0.00125689
-0.00122113
-0.00115686
-0.00106107
-0.000927332
-0.00074657
-0.000506935
-0.000193123
0.000214137
0.000738245
0.00140493
0.00223594
0.00323694
0.00438871
0.00559079
0.00663098
0.00732076
0.00695083
-0.00164483
-0.00170506
-0.0016957
-0.00167851
-0.00164061
-0.00157985
-0.0014904
-0.00136352
-0.00118712
-0.000944525
-0.000613089
-0.000162568
0.000446303
0.00125795
0.00230536
0.0036244
0.0051581
0.00671434
0.00787319
0.00755983
-0.00211957
-0.00218832
-0.00219053
-0.00219426
-0.00218725
-0.0021691
-0.00213579
-0.00208055
-0.00199345
-0.00185993
-0.00165887
-0.0013595
-0.000917304
-0.000271085
0.000655524
0.00192296
0.00368163
0.00595298
0.00799239
0.00836278
-0.00264544
-0.00272356
-0.00273646
-0.00276157
-0.00278792
-0.00281802
-0.00285116
-0.00288464
-0.00291381
-0.0029312
-0.00292549
-0.00288025
-0.00277279
-0.00257372
-0.00224384
-0.0016611
-0.000400401
0.00238298
0.0060412
0.00840895
-0.00322033
-0.00330766
-0.00332698
-0.00337037
-0.00342873
-0.00350874
-0.0036142
-0.00374853
-0.0039158
-0.00412154
-0.00437475
-0.00469261
-0.00511417
-0.00573052
-0.00667666
-0.0078938
-0.00826464
-0.00536871
4.80518e-05
0.00544278
-0.00384692
-0.00394351
-0.00396167
-0.00401555
-0.00409791
-0.00422155
-0.00439627
-0.00463325
-0.00494773
-0.00536342
-0.00592001
-0.00668868
-0.00780773
-0.00954469
-0.0122437
-0.0157752
-0.0185353
-0.0160048
-0.0096268
-0.000971232
-0.00452575
-0.00461955
-0.00461405
-0.00465991
-0.00475336
-0.00491107
-0.00514574
-0.00547483
-0.00592508
-0.00653773
-0.00738286
-0.00858265
-0.0103713
-0.0131382
-0.0173512
-0.0226982
-0.0279836
-0.0267613
-0.0210417
-0.0093055
-0.00529177
-0.00539944
-0.00535465
-0.00537925
-0.00545353
-0.00560898
-0.0058652
-0.00624702
-0.00678872
-0.00754205
-0.00859577
-0.0100944
-0.0123346
-0.0157157
-0.0209049
-0.0272615
-0.0350961
-0.0351438
-0.0308665
-0.0159902
-0.00625898
-0.00615142
-0.00598373
-0.00589455
-0.0059274
-0.00608492
-0.00637199
-0.00680241
-0.00740816
-0.0082408
-0.00939786
-0.0110093
-0.0134286
-0.0168651
-0.0224728
-0.0285354
-0.0375568
-0.0374026
-0.0342265
-0.0153629
-0.00686946
-0.00726263
-0.00696193
-0.00691244
-0.00683322
-0.00687316
-0.00704829
-0.00738942
-0.00793162
-0.00871479
-0.00983671
-0.0113663
-0.0136911
-0.0168942
-0.0219559
-0.0272847
-0.0339699
-0.0333527
-0.02843
-0.00160686
-0.0105563
-0.00793006
-0.00726478
-0.00659496
-0.0064552
-0.00655219
-0.00683608
-0.00726576
-0.00786679
-0.00865198
-0.00975781
-0.0111134
-0.0132212
-0.0159815
-0.0199819
-0.0236754
-0.027243
-0.0239549
-0.0135512
0.028572
-0.00726674
-0.0101367
-0.00914688
-0.00910977
-0.00860381
-0.00829378
-0.00815614
-0.00822176
-0.00853696
-0.00907657
-0.00994909
-0.0111603
-0.0130868
-0.0155695
-0.0195018
-0.0226163
-0.025027
-0.0140664
0.00977768
0.0826143
-0.0327464
-0.00759248
-0.00616668
-0.00536177
-0.00505481
-0.00516302
-0.00557145
-0.00606911
-0.00677606
-0.00756703
-0.00873131
-0.0100906
-0.0120929
-0.014197
-0.0164523
-0.0155067
-0.00847897
0.0213282
0.0852582
0.2117
2.80287e-05
5.14045e-06
5.07169e-05
0.000138433
0.000275328
0.000462286
0.0007012
0.000994234
0.00134281
0.00174677
0.00220332
0.00270569
0.00324175
0.00379264
0.00433176
0.00482555
0.00523562
0.00552402
0.00568592
0.00565328
5.20416e-05
2.85273e-05
7.94591e-05
0.000167795
0.000302516
0.000485197
0.000718261
0.00100419
0.00134468
0.00173994
0.00218768
0.00268182
0.00321048
0.00375658
0.00429375
0.00478848
0.00520144
0.00549364
0.00566313
0.00562333
-1.9251e-06
-3.30472e-05
1.64375e-05
0.000101327
0.000231593
0.000408968
0.000636407
0.000917175
0.00125401
0.00164843
0.00209969
0.00260333
0.00315019
0.00372285
0.00429426
0.00482765
0.00527722
0.00559476
0.00577718
0.00571484
-0.000112889
-0.000149237
-0.000102325
-2.25238e-05
0.000101154
0.000270775
0.000490091
0.000763518
0.00109537
0.00148925
0.00194697
0.00246689
0.00304185
0.00365757
0.00428611
0.00488592
0.0054005
0.00576465
0.00597212
0.00587956
-0.000288357
-0.000329426
-0.000286683
-0.000213943
-9.92422e-05
5.99205e-05
0.000268263
0.000531644
0.000856418
0.00124899
0.00171484
0.00225667
0.00287144
0.00354825
0.00426006
0.00495984
0.00557627
0.00601737
0.0062675
0.00612561
-0.000527358
-0.000573395
-0.000536382
-0.000473003
-0.000370421
-0.000225705
-3.31309e-05
0.000214731
0.000526576
0.0009122
0.00138182
0.00194431
0.00260392
0.00335499
0.00417692
0.00501801
0.00578805
0.00635401
0.00667743
0.00645212
-0.00082797
-0.000879729
-0.000850131
-0.000798941
-0.00071261
-0.000587951
-0.000418412
-0.000195127
9.29401e-05
0.000459259
0.000919596
0.00149107
0.00218873
0.00301761
0.00397007
0.00499806
0.0059929
0.00676463
0.0072211
0.00686229
-0.00118799
-0.00124656
-0.00122618
-0.00119044
-0.00112535
-0.00102786
-0.00089111
-0.000705353
-0.000457792
-0.000131738
0.000294065
0.000845801
0.00155245
0.00243697
0.00351989
0.0047705
0.00607897
0.00719836
0.00790363
0.00738162
-0.00160464
-0.00167121
-0.00166167
-0.00164468
-0.00160616
-0.00154392
-0.00145165
-0.00131991
-0.0011356
-0.000880535
-0.000529829
-4.97386e-05
0.000604118
0.00148335
0.00262105
0.00406342
0.00575034
0.00745246
0.00862606
0.00810521
-0.00207451
-0.00215026
-0.00215245
-0.00215675
-0.00214962
-0.00213058
-0.00209515
-0.00203593
-0.00194206
-0.00179772
-0.00157985
-0.00125477
-0.000773428
-7.00505e-05
0.000929988
0.00230413
0.00422629
0.00672784
0.00879263
0.00901582
-0.00259401
-0.00267995
-0.00269314
-0.00271946
-0.00274651
-0.00277675
-0.00280908
-0.00284033
-0.00286529
-0.00287592
-0.00286036
-0.00280226
-0.00268088
-0.00247605
-0.00216767
-0.00163109
-0.00034867
0.00273774
0.00656813
0.00904389
-0.00316008
-0.00325618
-0.00327619
-0.0033217
-0.003382
-0.00346369
-0.00357025
-0.00370488
-0.00387171
-0.00407691
-0.00433163
-0.00465898
-0.00511316
-0.00582536
-0.00699459
-0.00855747
-0.00916021
-0.00612245
-0.000633675
0.00533472
-0.00377401
-0.00388096
-0.00390061
-0.00395797
-0.00404386
-0.00417099
-0.00434897
-0.00458909
-0.00490735
-0.00532967
-0.00590132
-0.0067072
-0.00791458
-0.00985654
-0.0129885
-0.0171842
-0.0206528
-0.0184747
-0.0122559
-0.00266151
-0.00443299
-0.00453877
-0.00453542
-0.00458643
-0.00468563
-0.00484935
-0.00508991
-0.00542483
-0.00588189
-0.00650538
-0.0073725
-0.00862326
-0.0105249
-0.0135469
-0.0182858
-0.0243991
-0.0306785
-0.0301541
-0.0248629
-0.0123524
-0.00517085
-0.00529436
-0.0052528
-0.00528596
-0.00536863
-0.00553241
-0.00579627
-0.00618502
-0.00673347
-0.00749558
-0.00856496
-0.0101024
-0.0124328
-0.01602
-0.0216346
-0.0285004
-0.0367823
-0.0371198
-0.0336401
-0.018612
-0.00608966
-0.00600127
-0.00583909
-0.00576134
-0.00580634
-0.00597619
-0.00627441
-0.00671377
-0.00732532
-0.00816121
-0.00931821
-0.0109401
-0.0133918
-0.0169163
-0.022679
-0.0290009
-0.0370661
-0.0371083
-0.0352265
-0.016063
-0.00661962
-0.00705477
-0.00675908
-0.00673511
-0.00667403
-0.00673072
-0.00691868
-0.00726833
-0.0078126
-0.00859079
-0.00969415
-0.01121
-0.0135191
-0.0167195
-0.0217529
-0.0269635
-0.0328082
-0.0320001
-0.0284258
-0.000619486
-0.0102305
-0.00764339
-0.0069735
-0.0063246
-0.0062068
-0.00632913
-0.00663489
-0.00708054
-0.0076866
-0.00846424
-0.00953025
-0.0108915
-0.0129407
-0.0156747
-0.019609
-0.0231714
-0.0262357
-0.0228898
-0.0133688
0.0306194
-0.00668402
-0.00972076
-0.00874959
-0.00877698
-0.00830294
-0.00802368
-0.00790776
-0.00798708
-0.00830607
-0.00883711
-0.00968373
-0.0108662
-0.0127588
-0.0152404
-0.0191974
-0.0223075
-0.0245011
-0.0134181
0.0102818
0.0861398
-0.0321828
-0.00702371
-0.00560011
-0.00485652
-0.00461183
-0.00477167
-0.00521768
-0.00574259
-0.00646335
-0.00725532
-0.00840035
-0.00974088
-0.0117075
-0.0137851
-0.0159978
-0.0148867
-0.0075278
0.0231286
0.0877226
0.217928
4.28951e-05
1.89565e-05
6.45121e-05
0.000152521
0.000290378
0.000479014
0.000720463
0.0010171
0.00137058
0.00178102
0.00224585
0.00275846
0.00330663
0.00387109
0.00442435
0.00493145
0.00535212
0.00564656
0.00581017
0.00577258
6.86476e-05
4.38697e-05
9.49212e-05
0.000183575
0.000319216
0.000503466
0.000738909
0.00102825
0.00137344
0.00177497
0.00223083
0.0027351
0.00327599
0.00383592
0.00438773
0.00489642
0.00532061
0.00561928
0.00579082
0.00574611
1.67049e-05
-1.59355e-05
3.37127e-05
0.000118918
0.000250109
0.000429072
0.000658951
0.000943271
0.00128509
0.00168629
0.0021465
0.00266157
0.00322254
0.00381156
0.00440072
0.0049514
0.00541521
0.00574084
0.00592562
0.00585575
-9.18936e-05
-0.000129941
-8.28124e-05
-2.67251e-06
0.000121981
0.000293283
0.000515212
0.000792509
0.0011299
0.00153147
0.00199957
0.00253306
0.00312527
0.00376173
0.00441344
0.0050366
0.00557076
0.00594589
0.00615631
0.00605102
-0.000264983
-0.000307902
-0.000264892
-0.000191768
-7.59896e-05
8.50321e-05
0.000296299
0.000564074
0.000895237
0.00129686
0.0017752
0.00233375
0.00297026
0.00367433
0.00441762
0.00515026
0.00579538
0.00625255
0.00650655
0.00634129
-0.000501516
-0.000549546
-0.000512222
-0.000448407
-0.000344629
-0.000197842
-1.97523e-06
0.000250901
0.000570152
0.000966459
0.00145115
0.0020342
0.00271979
0.00350846
0.00437374
0.00526204
0.00607536
0.00666629
0.00699486
0.00672488
-0.000799452
-0.000853359
-0.000823425
-0.000771782
-0.000684182
-0.000557297
-0.000384165
-0.000155328
0.000141077
0.000519661
0.000997751
0.00159452
0.00232809
0.00320145
0.00421195
0.00530742
0.00636826
0.0071807
0.0076439
0.00720024
-0.00115644
-0.00121733
-0.00119664
-0.00116052
-0.0010942
-0.000994498
-0.000854081
-0.000662543
-0.000406141
-6.68437e-05
0.000378488
0.000958621
0.00170578
0.00264642
0.00380329
0.00514622
0.00655335
0.00774261
0.00845176
0.00778264
-0.00156947
-0.0016386
-0.00162886
-0.00161167
-0.00157217
-0.001508
-0.00141237
-0.0012752
-0.00108241
-0.000814456
-0.000444445
6.43203e-05
0.000760114
0.00169756
0.00291891
0.00447104
0.00629206
0.00811693
0.00927602
0.00854448
-0.00203484
-0.00211343
-0.00211562
-0.0021201
-0.00211248
-0.00209214
-0.0020542
-0.00199067
-0.00188994
-0.00173512
-0.0015017
-0.00115391
-0.000639723
0.000108963
0.00116524
0.00261774
0.00466637
0.00735059
0.00937152
0.00943444
-0.00254845
-0.00263757
-0.0026511
-0.00267819
-0.00270553
-0.00273551
-0.00276673
-0.00279568
-0.00281683
-0.00282193
-0.0027993
-0.0027337
-0.0026082
-0.00241456
-0.00215562
-0.00170872
-0.000476425
0.00279498
0.00662239
0.00927309
-0.00310646
-0.00320614
-0.00322693
-0.00327401
-0.00333567
-0.00341851
-0.00352583
-0.00366085
-0.00382804
-0.00403473
-0.00429496
-0.0046388
-0.0051366
-0.00595941
-0.00738011
-0.00935587
-0.0103039
-0.00711816
-0.0014067
0.00502243
-0.00370914
-0.00382033
-0.00384142
-0.00390144
-0.00398999
-0.00411985
-0.00430062
-0.00454397
-0.00486698
-0.00529829
-0.00588931
-0.00673865
-0.00804246
-0.010197
-0.0137821
-0.0186802
-0.0228266
-0.0206722
-0.0141773
-0.00387389
-0.00435172
-0.00446243
-0.00446119
-0.0045161
-0.00461947
-0.00478765
-0.00503292
-0.00537327
-0.00583791
-0.00647449
-0.00736754
-0.00867351
-0.0106934
-0.0139633
-0.0192153
-0.0260353
-0.0329327
-0.0324688
-0.0268335
-0.0140194
-0.00506753
-0.00519735
-0.00515857
-0.00519764
-0.00528616
-0.00545593
-0.00572565
-0.00612045
-0.00667614
-0.00744926
-0.0085389
-0.0101192
-0.0125432
-0.0163134
-0.0223208
-0.0295474
-0.0378269
-0.0377933
-0.0339969
-0.019498
-0.00595159
-0.0058714
-0.00571382
-0.00564414
-0.00569673
-0.00587429
-0.0061797
-0.00662532
-0.00724216
-0.00808336
-0.00924867
-0.0108856
-0.0133787
-0.0169673
-0.0228794
-0.0292266
-0.0363497
-0.0359519
-0.0338504
-0.0157649
-0.00644305
-0.00689364
-0.00659732
-0.00658692
-0.00653555
-0.00660159
-0.0067967
-0.00715089
-0.00769655
-0.00847256
-0.0095706
-0.0110793
-0.0133834
-0.0165745
-0.0215623
-0.0265948
-0.0317564
-0.0302611
-0.0263656
0.000416509
-0.00998377
-0.00742389
-0.00675959
-0.0061272
-0.00601894
-0.00615229
-0.00646739
-0.00691921
-0.00752653
-0.00829912
-0.00935151
-0.0106978
-0.0127199
-0.0154147
-0.0192797
-0.0226679
-0.0252835
-0.0214043
-0.0114226
0.032114
-0.00642304
-0.00949839
-0.00851251
-0.00855949
-0.00809204
-0.00782211
-0.00771314
-0.00779525
-0.00811299
-0.00863569
-0.00946845
-0.0106315
-0.0125075
-0.0149691
-0.0188921
-0.0218774
-0.0236514
-0.0121873
0.0119713
0.0883039
-0.0318864
-0.00672834
-0.00529686
-0.0045638
-0.004339
-0.00451896
-0.0049808
-0.00551492
-0.00623944
-0.00702768
-0.00816029
-0.00948543
-0.0114254
-0.0134693
-0.0156076
-0.0143491
-0.0066248
0.0246042
0.0898822
0.220938
5.70701e-05
3.28533e-05
7.86544e-05
0.000167237
0.000306251
0.000496727
0.00074086
0.00104123
0.00139973
0.0018167
0.00228979
0.00281247
0.00337246
0.00395007
0.00451698
0.00503695
0.0054681
0.005769
0.00593512
0.00589418
8.35673e-05
5.83936e-05
0.000109733
0.000198977
0.000335773
0.000521839
0.000759928
0.00105296
0.00140313
0.00181118
0.00227533
0.00278979
0.00334282
0.00391635
0.00448244
0.00500474
0.00544007
0.00574558
0.00591986
0.00587184
3.29312e-05
-1.78313e-07
4.97891e-05
0.000135605
0.000267991
0.000448836
0.000681479
0.000969693
0.00131683
0.00172512
0.00219448
0.00272106
0.00329599
0.003901
0.00450732
0.0050747
0.00555238
0.00588637
0.0060742
0.00599886
-7.39733e-05
-0.000112551
-6.50632e-05
1.57281e-05
0.000141652
0.000314963
0.000539873
0.000821428
0.00116473
0.00157432
0.002053
0.0026001
0.00320929
0.00386575
0.00453961
0.00518492
0.0057378
0.00612392
0.00633793
0.00622265
-0.000245195
-0.000288692
-0.000245285
-0.000171456
-5.43005e-05
0.000108915
0.000323475
0.000596022
0.000933928
0.00134487
0.00183579
0.00241091
0.00306861
0.00379854
0.00457142
0.00533473
0.00600663
0.0064792
0.00673747
0.00655281
-0.000479685
-0.000528338
-0.000490586
-0.000426019
-0.000320758
-0.000171586
2.79084e-05
0.00028612
0.000613035
0.00102014
0.00151976
0.00212305
0.00283561
0.00365734
0.00456239
0.00549389
0.00634671
0.00696046
0.00729383
0.00698554
-0.000775347
-0.000829931
-0.000799566
-0.000747163
-0.000658027
-0.000528637
-0.000351638
-0.000117023
0.00018782
0.000578513
0.00107373
0.00169419
0.00245916
0.0033754
0.0044388
0.00559491
0.0067148
0.00756313
0.00803048
0.00751264
-0.00112973
-0.00119137
-0.00117029
-0.00113348
-0.00106569
-0.00096353
-0.000819239
-0.000621816
-0.000356673
-4.6057e-06
0.00045914
0.00106551
0.00184942
0.00284031
0.00406255
0.00548664
0.00698079
0.00823067
0.00893675
0.00813665
-0.00153966
-0.00160963
-0.00159962
-0.00158193
-0.00154121
-0.00147487
-0.00137575
-0.00123315
-0.00103221
-0.000752197
-0.000364605
0.000169618
0.000901838
0.00188946
0.00318168
0.00482851
0.00676688
0.00869983
0.00983307
0.00890538
-0.00200118
-0.00208072
-0.00208285
-0.00208718
-0.00207879
-0.00205692
-0.00201634
-0.0019486
-0.00184149
-0.00167733
-0.00143055
-0.00106391
-0.000523358
0.000260803
0.00136131
0.00287647
0.00503587
0.0078926
0.00986163
0.00974541
-0.0025098
-0.00260001
-0.00261381
-0.00264124
-0.00266852
-0.00269792
-0.00272785
-0.00275459
-0.00277248
-0.0027733
-0.00274589
-0.00267655
-0.00255239
-0.00237657
-0.00217273
-0.00181658
-0.000613298
0.00287725
0.00676234
0.00943696
-0.00306115
-0.00316207
-0.00318353
-0.00323161
-0.00329411
-0.00337758
-0.00348532
-0.00362069
-0.00378868
-0.00399795
-0.00426563
-0.0046286
-0.00517219
-0.0061034
-0.00776539
-0.0101305
-0.0113751
-0.00796356
-0.00201792
0.00479299
-0.00365478
-0.0037675
-0.00378978
-0.00385162
-0.00394203
-0.00407383
-0.00425679
-0.00450307
-0.00483101
-0.00527203
-0.00588355
-0.00677726
-0.00817661
-0.0105349
-0.0145561
-0.0201311
-0.0248535
-0.0225058
-0.015602
-0.00475849
-0.00428489
-0.00439738
-0.00439791
-0.00445553
-0.00456178
-0.00473313
-0.00498202
-0.00532709
-0.00579915
-0.00644932
-0.00736932
-0.00873101
-0.0108691
-0.0143787
-0.020128
-0.0276377
-0.0350141
-0.034282
-0.0282698
-0.0151934
-0.00498499
-0.00511712
-0.0050805
-0.00512342
-0.00521578
-0.00538959
-0.00566357
-0.00606333
-0.00662599
-0.00741094
-0.00852345
-0.0101484
-0.0126721
-0.0166212
-0.0230266
-0.0306615
-0.0389946
-0.0384321
-0.0344117
-0.020034
-0.00584511
-0.00576818
-0.00561419
-0.00554988
-0.00560727
-0.00578962
-0.00609961
-0.00654958
-0.00717104
-0.00801854
-0.00919585
-0.0108534
-0.0134019
-0.0170431
-0.0231683
-0.0295929
-0.036248
-0.03539
-0.0331684
-0.0153681
-0.00632072
-0.00677663
-0.00647846
-0.00647468
-0.00642794
-0.00649873
-0.00669748
-0.00705377
-0.00760006
-0.0083752
-0.00947356
-0.0109822
-0.0132958
-0.0164906
-0.0214783
-0.0264052
-0.0311884
-0.029123
-0.0253065
0.00139892
-0.00980755
-0.00726468
-0.00660895
-0.00598816
-0.00588489
-0.00602256
-0.00634082
-0.00679388
-0.00740031
-0.00816816
-0.00921453
-0.0105486
-0.0125608
-0.0152223
-0.0190429
-0.0222942
-0.0245912
-0.0203427
-0.0102944
0.033391
-0.00629397
-0.00937591
-0.00837097
-0.00842366
-0.00795466
-0.00768467
-0.00757526
-0.00765458
-0.00796892
-0.00848393
-0.00930938
-0.0104586
-0.0123314
-0.0147635
-0.0186583
-0.0215224
-0.023037
-0.0112359
0.0131652
0.08996
-0.0317048
-0.00655552
-0.00511877
-0.00438596
-0.00416807
-0.00435465
-0.0048229
-0.0053579
-0.00608343
-0.00686548
-0.0079938
-0.00930416
-0.0112336
-0.0132383
-0.0153158
-0.0139016
-0.00592716
0.0257808
0.091363
0.222921
6.96077e-05
4.54363e-05
9.16093e-05
0.000180891
0.000321101
0.000513386
0.000760095
0.00106399
0.00142717
0.00185018
0.00233083
0.00286266
0.00343332
0.00402271
0.00460183
0.00513333
0.00557398
0.00588097
0.00604975
0.00600644
9.64169e-05
7.11981e-05
0.000122913
0.000212865
0.000350871
0.000538758
0.000779436
0.00107601
0.00143089
0.00184504
0.00231687
0.00284065
0.00340469
0.00399047
0.00456936
0.00510385
0.00554925
0.00586118
0.00603828
0.00598792
4.66391e-05
1.3469e-05
6.38343e-05
0.000150388
0.000284036
0.000466785
0.00070215
0.000994124
0.00134632
0.00176123
0.00223905
0.00277614
0.00336367
0.00398299
0.00460456
0.00518674
0.00567679
0.00601847
0.0062094
0.00612998
-5.90699e-05
-9.77186e-05
-4.98033e-05
3.17714e-05
0.000159039
0.000334386
0.000562234
0.000847897
0.0011968
0.00161387
0.00210228
0.00266172
0.00328612
0.0039603
0.0046536
0.00531826
0.00588751
0.00628349
0.00650102
0.00637801
-0.000228873
-0.000272447
-0.000228581
-0.000153917
-3.53176e-05
0.000130103
0.000347883
0.000624997
0.000969232
0.00138878
0.00189115
0.00248113
0.0031576
0.00391016
0.00470864
0.00549829
0.00619314
0.00667903
0.00694122
0.00674125
-0.000461745
-0.000510481
-0.000472249
-0.000406804
-0.000300009
-0.00014847
5.45259e-05
0.000317775
0.000651791
0.00106874
0.00158176
0.002203
0.00293898
0.00378928
0.00472821
0.00569621
0.00658219
0.00721503
0.0075523
0.00721342
-0.000755573
-0.000810249
-0.00077941
-0.000726124
-0.00063542
-0.000503575
-0.000322894
-8.29043e-05
0.000229634
0.000631181
0.0011415
0.00178253
0.00257456
0.00352705
0.00463487
0.00584149
0.0070103
0.00788792
0.0083574
0.0077799
-0.00110784
-0.00116959
-0.00114809