/*--------------------------------*- C++ -*----------------------------------*\
  =========                 |
  \\      /  F ield         | OpenFOAM: The Open Source CFD Toolbox
   \\    /   O peration     | Website:  https://openfoam.org
    \\  /    A nd           | Version:  10
     \\/     M anipulation  |
\*---------------------------------------------------------------------------*/
FoamFile
{
    format      ascii;
    class       surfaceScalarField;
    location    "7";
    object      phi;
}
// * * * * * * * * * * * * * * * * * * * * * * * * * * * * * * * * * * * * * //

dimensions      [0 3 -1 0 0 0 0];

internalField   nonuniform List<scalar> 
22800
(
-2.61251e-06
3.21225e-06
-5.94693e-07
-8.32615e-06
5.90104e-06
-1.87407e-07
-1.51044e-05
6.76395e-06
1.43174e-08
-2.22943e-05
7.05298e-06
1.36919e-07
-2.96192e-05
7.18613e-06
1.38729e-07
-3.69551e-05
7.27739e-06
5.85408e-08
-4.4189e-05
7.31279e-06
-7.89226e-08
-5.11502e-05
7.23902e-06
-2.77798e-07
-5.75784e-05
6.98918e-06
-5.60985e-07
-6.31217e-05
6.48527e-06
-9.41996e-07
-6.73302e-05
5.64416e-06
-1.4356e-06
-6.96677e-05
4.38936e-06
-2.05186e-06
-6.95504e-05
2.6721e-06
-2.78941e-06
-6.64251e-05
5.03655e-07
-3.62903e-06
-5.98426e-05
-2.07292e-06
-4.50951e-06
-4.97289e-05
-4.79897e-06
-5.31479e-06
-3.65664e-05
-7.28897e-06
-5.87351e-06
-2.17004e-05
-8.90214e-06
-5.96382e-06
-7.58296e-06
-8.71361e-06
-5.40385e-06
-4.52863e-06
-3.05433e-06
-5.15879e-06
1.00843e-05
-1.71324e-06
-1.48377e-05
1.70718e-05
-1.49187e-06
-2.60766e-05
1.93192e-05
-1.31638e-06
-3.78638e-05
2.00015e-05
-1.16131e-06
-4.9753e-05
2.01759e-05
-1.10055e-06
-6.1504e-05
2.01397e-05
-1.11134e-06
-7.28934e-05
1.98879e-05
-1.18574e-06
-8.36298e-05
1.93104e-05
-1.33496e-06
-9.33177e-05
1.82549e-05
-1.57777e-06
-0.000101439
1.65433e-05
-1.93677e-06
-0.000107345
1.39847e-05
-2.43479e-06
-0.000110263
1.03966e-05
-3.08899e-06
-0.000109396
5.70669e-06
-3.90133e-06
-0.000104018
-8.88696e-09
-4.86617e-06
-9.34571e-05
-6.77177e-06
-5.86162e-06
-7.76494e-05
-1.3825e-05
-6.78168e-06
-5.73112e-05
-2.02277e-05
-7.3994e-06
-3.44008e-05
-2.43846e-05
-7.42794e-06
-1.2541e-05
-2.39633e-05
-6.6101e-06
-1.36719e-05
-3.39778e-06
-6.03162e-06
1.84398e-05
-2.32393e-06
-1.71814e-05
3.04579e-05
-2.23636e-06
-3.00314e-05
3.42552e-05
-2.08594e-06
-4.34405e-05
3.53107e-05
-1.9001e-06
-5.69228e-05
3.54542e-05
-1.796e-06
-7.02236e-05
3.51976e-05
-1.75705e-06
-8.31088e-05
3.45528e-05
-1.77966e-06
-9.52762e-05
3.33588e-05
-1.88101e-06
-0.000106313
3.13791e-05
-2.08738e-06
-0.000115669
2.83298e-05
-2.43043e-06
-0.000122644
2.39027e-05
-2.94288e-06
-0.000126402
1.78073e-05
-3.65278e-06
-0.000125966
9.85021e-06
-4.57925e-06
-0.000120354
7.91179e-08
-5.70057e-06
-0.000108751
-1.14592e-05
-6.91548e-06
-9.08746e-05
-2.36271e-05
-8.0742e-06
-6.73922e-05
-3.48278e-05
-8.88236e-06
-4.0541e-05
-4.22752e-05
-8.96059e-06
-1.47112e-05
-4.18305e-05
-7.96265e-06
-2.4397e-05
-3.98613e-06
-6.24967e-06
2.74742e-05
-2.78471e-06
-1.79165e-05
4.4951e-05
-2.82618e-06
-3.13525e-05
5.03959e-05
-2.70474e-06
-4.53827e-05
5.18435e-05
-2.50258e-06
-5.95343e-05
5.19795e-05
-2.37365e-06
-7.35845e-05
5.15539e-05
-2.30619e-06
-8.73362e-05
5.06066e-05
-2.30209e-06
-0.000100525
4.89333e-05
-2.38552e-06
-0.000112771
4.62165e-05
-2.59112e-06
-0.000123536
4.20568e-05
-2.96223e-06
-0.000132088
3.60008e-05
-3.54658e-06
-0.000137482
2.7591e-05
-4.3899e-06
-0.00013857
1.64666e-05
-5.52827e-06
-0.000134075
2.55529e-06
-6.97098e-06
-0.000122764
-1.41577e-05
-8.61273e-06
-0.000103862
-3.22991e-05
-1.02292e-05
-7.77811e-05
-4.94802e-05
-1.1429e-05
-4.69824e-05
-6.14092e-05
-1.16647e-05
-1.68811e-05
-6.14953e-05
-1.04365e-05
-3.59957e-05
-5.28233e-06
-6.22184e-06
3.68471e-05
-3.15101e-06
-1.80746e-05
6.01082e-05
-3.30457e-06
-3.17776e-05
6.73102e-05
-3.21135e-06
-4.61456e-05
6.92181e-05
-3.00655e-06
-6.07375e-05
6.94443e-05
-2.87295e-06
-7.53854e-05
6.90075e-05
-2.80574e-06
-8.99598e-05
6.79932e-05
-2.81232e-06
-0.000104269
6.61676e-05
-2.92492e-06
-0.000118003
6.314e-05
-3.18936e-06
-0.000130673
5.83911e-05
-3.66484e-06
-0.000141538
5.12883e-05
-4.42216e-06
-0.000149549
4.11373e-05
-5.53519e-06
-0.000153305
2.72895e-05
-7.06677e-06
-0.000151058
9.36635e-06
-9.05865e-06
-0.000141019
-1.27515e-05
-1.14453e-05
-0.00012156
-3.7863e-05
-1.38942e-05
-9.24981e-05
-6.26831e-05
-1.58594e-05
-5.63974e-05
-8.10168e-05
-1.64931e-05
-2.01484e-05
-8.28083e-05
-1.4936e-05
-4.84104e-05
-7.73377e-06
-6.10321e-06
4.64438e-05
-3.49349e-06
-1.80331e-05
7.57956e-05
-3.75747e-06
-3.19091e-05
8.48806e-05
-3.69438e-06
-4.65351e-05
8.73395e-05
-3.49541e-06
-6.15096e-05
8.77886e-05
-3.3698e-06
-7.67365e-05
8.75562e-05
-3.32177e-06
-9.21792e-05
8.68019e-05
-3.36592e-06
-0.000107755
8.52877e-05
-3.54434e-06
-0.000123268
8.2571e-05
-3.91778e-06
-0.000138332
7.80227e-05
-4.56785e-06
-0.000152262
7.08175e-05
-5.59912e-06
-0.000163941
5.99516e-05
-7.13503e-06
-0.000171699
4.43472e-05
-9.30004e-06
-0.000173235
2.30813e-05
-1.21789e-05
-0.000165925
-4.2332e-06
-1.58279e-05
-0.000146778
-3.7251e-05
-1.97595e-05
-0.000114413
-7.18356e-05
-2.32123e-05
-7.10334e-05
-9.96018e-05
-2.47948e-05
-2.55568e-05
-0.000105425
-2.28595e-05
-6.18809e-05
-1.20863e-05
-5.93267e-06
5.62418e-05
-3.86538e-06
-1.78889e-05
9.20055e-05
-4.2536e-06
-3.18835e-05
0.000103099
-4.22376e-06
-4.66999e-05
0.000106187
-4.03158e-06
-6.19794e-05
0.000106984
-3.91583e-06
-7.77116e-05
0.00010718
-3.89186e-06
-9.39788e-05
0.000107053
-3.98433e-06
-0.000110847
0.000106404
-4.24871e-06
-0.000128294
0.000104784
-4.76605e-06
-0.000146118
0.000101497
-5.6502e-06
-0.000163792
9.55492e-05
-7.05711e-06
-0.000180265
8.56145e-05
-9.19053e-06
-0.000193688
7.00565e-05
-1.22858e-05
-0.000201201
4.71509e-05
-1.65565e-05
-0.000198891
1.56288e-05
-2.21724e-05
-0.000182165
-2.51447e-05
-2.88317e-05
-0.000147155
-7.15737e-05
-3.52721e-05
-9.44462e-05
-0.00011312
-3.91912e-05
-3.51656e-05
-0.000127522
-3.71845e-05
-7.69087e-05
-2.01377e-05
-5.71543e-06
6.62571e-05
-4.29987e-06
-1.76555e-05
0.000108781
-4.83572e-06
-3.16976e-05
0.000121981
-4.83995e-06
-4.65866e-05
0.000125723
-4.64667e-06
-6.20054e-05
0.000126933
-4.53067e-06
-7.80389e-05
0.000127735
-4.52114e-06
-9.491e-05
0.000128581
-4.65626e-06
-0.000112873
0.000129376
-5.00901e-06
-0.000132149
0.000129747
-5.68708e-06
-0.000152826
0.000129023
-6.84876e-06
-0.0001747
0.000126148
-8.72533e-06
-0.000196997
0.000119557
-1.16459e-05
-0.000217966
0.000107068
-1.60421e-05
-0.000234318
8.59221e-05
-2.2419e-05
-0.000240808
5.32886e-05
-3.11703e-05
-0.000230953
7.68947e-06
-4.26887e-05
-0.000196356
-5.12634e-05
-5.49073e-05
-0.000133497
-0.000111554
-6.44248e-05
-5.38546e-05
-0.000143205
-6.39592e-05
-9.40491e-05
-3.67143e-05
-5.46749e-06
7.65507e-05
-4.82612e-06
-1.73611e-05
0.000126217
-5.54195e-06
-3.13573e-05
0.000141554
-5.57701e-06
-4.61369e-05
0.000145867
-5.36422e-06
-6.14165e-05
0.000147437
-5.22359e-06
-7.73784e-05
0.000148898
-5.20158e-06
-9.43958e-05
0.000150951
-5.35315e-06
-0.000112939
0.000153692
-5.77299e-06
-0.000133528
0.000156939
-6.60199e-06
-0.00015666
0.00016021
-8.05481e-06
-0.000182647
0.0001626
-1.04644e-05
-0.00021132
0.000162576
-1.43459e-05
-0.000241501
0.000157709
-2.04605e-05
-0.000270215
0.000144435
-2.97979e-05
-0.000291574
0.000118064
-4.34162e-05
-0.000295487
7.36532e-05
-6.20508e-05
-0.00027044
8.88271e-06
-8.51934e-05
-0.000201001
-7.51354e-05
-0.000105858
-9.26581e-05
-0.000140648
-0.0001109
-0.000115263
-7.14437e-05
-5.24265e-06
8.72754e-05
-5.48208e-06
-1.71072e-05
0.000144502
-6.42029e-06
-3.09614e-05
0.000161885
-6.47704e-06
-4.53912e-05
0.000166509
-6.21266e-06
-6.01357e-05
0.000168186
-6.00535e-06
-7.54683e-05
0.000170154
-5.92275e-06
-9.1903e-05
0.000173425
-6.03942e-06
-0.000110116
0.000178379
-6.47345e-06
-0.000130942
0.000185167
-7.40244e-06
-0.000155354
0.00019373
-9.10785e-06
-0.000184375
0.000203671
-1.20504e-05
-0.000218818
0.000214
-1.69811e-05
-0.000258763
0.000222722
-2.50678e-05
-0.000302661
0.000226331
-3.79982e-05
-0.000345881
0.000219033
-5.7749e-05
-0.000377857
0.00019151
-8.58805e-05
-0.000377045
0.000129519
-0.000121449
-0.000315853
2.0411e-05
-0.000156738
-0.000172391
-0.000113966
-0.000170144
-0.00015642
-0.000131234
-5.16331e-06
9.87676e-05
-6.32887e-06
-1.71269e-05
0.000164008
-7.54308e-06
-3.07765e-05
0.000183138
-7.60323e-06
-4.45787e-05
0.000187548
-7.23655e-06
-5.82838e-05
0.00018879
-6.89797e-06
-7.22498e-05
0.0001908
-6.68083e-06
-8.70958e-05
0.000194953
-6.68107e-06
-0.000103646
0.000201968
-7.03794e-06
-0.000122975
0.000212457
-7.96102e-06
-0.000146468
0.000227015
-9.79321e-06
-0.000175855
0.000246175
-1.31173e-05
-0.000213204
0.000270218
-1.88692e-05
-0.000260672
0.000298788
-2.85976e-05
-0.000319788
0.000329903
-4.4456e-05
-0.000389878
0.000357595
-6.84723e-05
-0.000463668
0.000365623
-0.000100324
-0.000516515
0.000315893
-0.000133526
-0.000488552
0.00014539
-0.000152942
-0.000312163
-0.000128608
-0.000161747
-0.000290215
-0.000178368
-5.47127e-06
0.000111715
-7.47585e-06
-1.78645e-05
0.000185442
-9.04017e-06
-3.13257e-05
0.00020568
-9.08085e-06
-4.42037e-05
0.000208963
-8.53664e-06
-5.62868e-05
0.00020884
-7.96686e-06
-6.8011e-05
0.00021003
-7.50517e-06
-8.00446e-05
0.000214258
-7.27131e-06
-9.32368e-05
0.000222579
-7.41914e-06
-0.000108719
0.000236114
-8.17555e-06
-0.000128042
0.000256252
-9.91382e-06
-0.000153369
0.000284765
-1.32631e-05
-0.000187762
0.000323747
-1.91363e-05
-0.00023558
0.000375439
-2.88328e-05
-0.000302788
0.000440038
-4.29263e-05
-0.000396492
0.000509402
-5.81024e-05
-0.000518199
0.000548751
-6.14207e-05
-0.00064867
0.00047859
-3.22261e-05
-0.000699193
0.000165666
3.02477e-05
-0.000492828
-0.000370592
3.56188e-05
-0.000665139
-0.000117904
-6.61106e-06
0.000127424
-9.098e-06
-2.00862e-05
0.000209957
-1.10403e-05
-3.34896e-05
0.000230044
-1.09608e-05
-4.5144e-05
0.000230725
-1.01074e-05
-5.49721e-05
0.000227854
-9.18633e-06
-6.35051e-05
0.000226931
-8.36801e-06
-7.1407e-05
0.000229938
-7.7783e-06
-7.93602e-05
0.000238092
-7.56003e-06
-8.82367e-05
0.000252924
-7.93357e-06
-9.92745e-05
0.00027651
-9.21994e-06
-0.000114416
0.00031183
-1.19233e-05
-0.000136808
0.000362536
-1.63958e-05
-0.000172459
0.000433277
-2.21866e-05
-0.000232605
0.000524092
-2.3909e-05
-0.000340792
0.000622189
-4.60058e-06
-0.000527309
0.000663822
7.14463e-05
-0.000791961
0.000512651
0.000230591
-0.000950183
-6.9095e-05
0.000392983
-0.000668377
-0.000996871
0.000344474
-0.00134767
1.41565e-05
-9.6064e-06
0.000148785
-1.17552e-05
-2.52953e-05
0.000240007
-1.43606e-05
-3.87411e-05
0.000257707
-1.42169e-05
-4.86355e-05
0.000253511
-1.28918e-05
-5.54533e-05
0.000245977
-1.13053e-05
-5.99273e-05
0.000241185
-9.78045e-06
-6.25364e-05
0.000241066
-8.51947e-06
-6.36089e-05
0.000246859
-7.69472e-06
-6.34308e-05
0.00026021
-7.46376e-06
-6.23336e-05
0.000283417
-8.00398e-06
-6.13028e-05
0.000320267
-9.46802e-06
-6.26206e-05
0.000374785
-1.09318e-05
-7.44927e-05
0.000453816
-8.66709e-06
-0.000117365
0.000555051
1.19135e-05
-0.000245957
0.000664829
8.59523e-05
-0.000535621
0.000688664
0.000264821
-0.000979375
0.000411896
0.000544509
-0.00117684
-0.000583883
0.000712257
-0.000814154
-0.00183036
0.000470794
-0.00218887
2.70385e-05
-1.49307e-05
0.000179315
-1.55984e-05
-3.42318e-05
0.000277351
-1.80429e-05
-4.82168e-05
0.00028907
-1.73781e-05
-5.67323e-05
0.000277176
-1.51501e-05
-6.02933e-05
0.000262361
-1.2823e-05
-5.99297e-05
0.000251447
-1.06254e-05
-5.61822e-05
0.000246064
-8.74529e-06
-4.89999e-05
0.000246986
-7.30926e-06
-3.78949e-05
0.000255545
-6.43959e-06
-2.18456e-05
0.000273491
-6.12321e-06
-2.62365e-08
0.000304609
-6.16177e-06
2.5413e-05
0.000353263
-3.91741e-06
4.64158e-05
0.000425786
7.02733e-06
3.10964e-05
0.000520697
4.96735e-05
-0.000103297
0.000629575
0.000169648
-0.000465892
0.000633861
0.000417398
-0.000998435
0.000217514
0.000726926
-0.00121852
-0.00111609
0.000752293
-0.000919835
-0.00246856
0.000339524
-0.00299986
-0.000108844
-3.61257e-05
0.000239143
-2.37029e-05
-5.90283e-05
0.000328238
-2.79849e-05
-6.98117e-05
0.000326236
-2.63822e-05
-7.15431e-05
0.000301686
-2.27781e-05
-6.82626e-05
0.000277588
-1.85071e-05
-6.14644e-05
0.000259065
-1.4416e-05
-5.1169e-05
0.000246654
-1.08852e-05
-3.62477e-05
0.000240167
-8.10165e-06
-1.51107e-05
0.000240611
-6.20333e-06
1.49185e-05
0.000248418
-4.95633e-06
5.59185e-05
0.000267514
-3.90432e-06
0.000109929
0.000299332
-7.9034e-08
0.000170374
0.000350764
1.45763e-05
0.000211881
0.0004171
6.20902e-05
0.000143425
0.000502131
0.0001959
-0.000147628
0.0004887
0.000436215
-0.000638317
1.473e-05
0.000693472
-0.000998574
-0.00134664
0.000590805
-0.0009077
-0.00277038
0.000210947
-0.00362728
-0.000280275
-3.04643e-05
0.000308925
-3.93177e-05
-7.08226e-05
0.000407573
-3.89768e-05
-8.94756e-05
0.000379744
-3.48551e-05
-9.48192e-05
0.000333979
-2.69495e-05
-8.87065e-05
0.000292158
-2.0683e-05
-7.48047e-05
0.000260099
-1.49362e-05
-5.4956e-05
0.000236939
-1.0134e-05
-2.8915e-05
0.000220547
-6.42114e-06
4.71985e-06
0.000211073
-4.09655e-06
4.87171e-05
0.000207164
-2.74394e-06
0.000107466
0.000211235
-2.46986e-06
0.00018572
0.000221624
-5.45947e-07
0.000281912
0.000244231
1.03407e-05
0.000385311
0.000269028
4.46737e-05
0.000439786
0.000302662
0.000144994
0.000332572
0.000268268
0.000327646
-4.69884e-05
-0.000103682
0.000497972
-0.000568083
-0.00126166
0.000436115
-0.000728926
-0.00276275
0.000153205
-0.00392228
-0.000433926
-0.000180298
0.000538011
-4.87879e-05
-0.00017846
0.000466657
-6.09215e-05
-0.000151248
0.00041145
-5.89185e-05
-0.000120538
0.000352913
-4.96442e-05
-8.14379e-05
0.000289421
-3.63634e-05
-3.89371e-05
0.000241688
-2.40899e-05
5.38615e-06
0.000207206
-1.45903e-05
5.28051e-05
0.000180812
-7.68391e-06
0.00010464
0.000162915
-3.67697e-06
0.000165367
0.000148859
-2.42158e-06
0.000237368
0.000142902
-3.66841e-06
0.000328042
0.000137658
-6.70712e-06
0.000435106
0.000142222
-5.05558e-06
0.000555625
0.000138515
9.99352e-06
0.000664435
0.000134351
5.9501e-05
0.000695874
6.60135e-05
0.000170815
0.000528061
-0.000197921
0.000262052
3.77768e-06
-0.00102023
0.00028285
-0.000385741
-0.00243905
6.58193e-05
-0.00373732
-0.000570704
-0.000370727
0.00107839
-0.000169648
-0.000261578
0.00048232
-0.000124811
-0.000107153
0.000352101
-9.50762e-05
6.19825e-05
0.000250462
-6.6684e-05
0.000222599
0.000177128
-4.83235e-05
0.000369419
0.000128655
-3.37868e-05
0.000500645
9.87258e-05
-2.27456e-05
0.000618895
7.72764e-05
-1.47143e-05
0.000726461
6.4658e-05
-9.30964e-06
0.000828671
5.36071e-05
-6.95804e-06
0.000929282
4.98966e-05
-7.60585e-06
0.00103497
4.40907e-05
-1.21213e-05
0.00115027
4.43371e-05
-1.74186e-05
0.00127196
3.48875e-05
-1.80603e-05
0.00140004
1.66961e-05
-1.04226e-05
0.0014836
-5.2859e-05
3.53125e-05
0.00143413
-0.00023953
9.1074e-05
0.00103121
-0.000733403
0.000116103
0.000279794
-0.00169196
4.3237e-06
-0.00275446
-0.000703066
0.00122713
-0.000148739
0.00186878
-0.000159331
0.00237877
-0.000157897
0.00277225
-0.000143018
0.00307474
-0.000125363
0.00331341
-0.000110012
0.00350799
-9.58511e-05
0.00367011
-8.48491e-05
0.00380839
-7.36201e-05
0.00392895
-6.69556e-05
0.00403801
-5.91609e-05
0.00413908
-5.69812e-05
0.00423509
-5.16695e-05
0.00432288
-5.29031e-05
0.00438241
-4.2829e-05
0.00437248
-4.29361e-05
0.00415418
-2.12222e-05
0.00347372
-5.295e-05
0.00189512
-0.000113353
-0.000859342
-4.49405e-06
5.08569e-06
-1.18633e-06
-1.42433e-05
1.0571e-05
-1.00916e-06
-2.58282e-05
1.24112e-05
-8.12025e-07
-3.78712e-05
1.28683e-05
-6.8837e-07
-4.99068e-05
1.28729e-05
-6.98675e-07
-6.17401e-05
1.27129e-05
-8.21004e-07
-7.31709e-05
1.2399e-05
-1.04718e-06
-8.3911e-05
1.18527e-05
-1.39042e-06
-9.35675e-05
1.09665e-05
-1.87093e-06
-0.000101619
9.62083e-06
-2.51185e-06
-0.000107413
7.69281e-06
-3.33354e-06
-0.000110194
5.07453e-06
-4.34605e-06
-0.000109148
1.70383e-06
-5.53922e-06
-0.000103504
-2.40634e-06
-6.86619e-06
-9.27111e-05
-7.07582e-06
-8.22687e-06
-7.6665e-05
-1.18965e-05
-9.46441e-06
-5.6071e-05
-1.61211e-05
-1.03464e-05
-3.29523e-05
-1.84919e-05
-1.05907e-05
-1.14058e-05
-1.7048e-05
-9.90235e-06
-7.95228e-06
-6.50783e-06
-1.02185e-05
1.61435e-05
-2.5526e-06
-2.85563e-05
3.01973e-05
-2.7804e-06
-4.97188e-05
3.48858e-05
-2.62841e-06
-7.15011e-05
3.59264e-05
-2.43703e-06
-9.30193e-05
3.56617e-05
-2.37112e-06
-0.000113803
3.48148e-05
-2.42972e-06
-0.000133418
3.34432e-05
-2.61501e-06
-0.00015134
3.13898e-05
-2.95015e-06
-0.000166905
2.84222e-05
-3.46771e-06
-0.000179292
2.42745e-05
-4.20374e-06
-0.000187517
1.86732e-05
-5.1904e-06
-0.000190452
1.13668e-05
-6.44621e-06
-0.000187013
2.32615e-06
-7.96289e-06
-0.000176094
-8.50033e-06
-9.69114e-06
-0.000156964
-2.05968e-05
-1.14704e-05
-0.000129609
-3.29377e-05
-1.30956e-05
-9.5199e-05
-4.36908e-05
-1.42396e-05
-5.68716e-05
-4.9743e-05
-1.45043e-05
-2.08811e-05
-4.62447e-05
-1.34039e-05
-2.39149e-05
-8.3162e-06
-1.25804e-05
2.97547e-05
-3.35476e-06
-3.45973e-05
5.38219e-05
-3.84397e-06
-5.97562e-05
6.16896e-05
-3.73092e-06
-8.54836e-05
6.32504e-05
-3.4968e-06
-0.000110771
6.25254e-05
-3.37181e-06
-0.000135083
6.07391e-05
-3.36932e-06
-0.000157935
5.80151e-05
-3.50028e-06
-0.000178753
5.41244e-05
-3.79771e-06
-0.000196821
4.87097e-05
-4.30678e-06
-0.000211247
4.13491e-05
-5.07846e-06
-0.000220955
3.16e-05
-6.16157e-06
-0.000224721
1.90728e-05
-7.59327e-06
-0.000221163
3.57589e-06
-9.38684e-06
-0.000208918
-1.49769e-05
-1.14692e-05
-0.000186988
-3.57496e-05
-1.36922e-05
-0.000155104
-5.71091e-05
-1.57872e-05
-0.000114413
-7.59421e-05
-1.73219e-05
-6.85464e-05
-8.68253e-05
-1.77449e-05
-2.51611e-05
-8.12035e-05
-1.63891e-05
-4.30769e-05
-9.98534e-06
-1.3449e-05
4.443e-05
-4.01093e-06
-3.70364e-05
7.93205e-05
-4.73751e-06
-6.39261e-05
9.05434e-05
-4.66881e-06
-9.13963e-05
9.263e-05
-4.41195e-06
-0.000118436
9.14425e-05
-4.25144e-06
-0.000144541
8.87515e-05
-4.21361e-06
-0.000169269
8.47609e-05
-4.31946e-06
-0.000192093
7.91769e-05
-4.61427e-06
-0.00021233
7.15148e-05
-5.15928e-06
-0.00022909
6.11741e-05
-6.02683e-06
-0.000241236
4.7492e-05
-7.29228e-06
-0.000247365
2.9835e-05
-9.02317e-06
-0.000245849
7.79139e-06
-1.12604e-05
-0.000234848
-1.89544e-05
-1.39947e-05
-0.000212677
-4.9519e-05
-1.70137e-05
-0.000178402
-8.16322e-05
-1.99815e-05
-0.000132775
-0.000110711
-2.22876e-05
-7.98484e-05
-0.000128316
-2.31e-05
-2.9079e-05
-0.000120976
-2.14332e-05
-6.4471e-05
-1.29672e-05
-1.37909e-05
5.96575e-05
-4.58759e-06
-3.82386e-05
0.000106007
-5.54371e-06
-6.61649e-05
0.000120781
-5.5224e-06
-9.4766e-05
0.000123483
-5.25819e-06
-0.000123068
0.000121958
-5.08682e-06
-0.00015065
0.000118576
-5.04826e-06
-0.000177168
0.000113642
-5.17545e-06
-0.000202198
0.000106812
-5.52946e-06
-0.000225151
9.74715e-05
-6.19317e-06
-0.00024519
8.48177e-05
-7.26957e-06
-0.000261139
6.78949e-05
-8.87623e-06
-0.000271401
4.56913e-05
-1.11293e-05
-0.000273906
1.73492e-05
-1.41195e-05
-0.000266188
-1.78154e-05
-1.79157e-05
-0.000245471
-5.93826e-05
-2.22989e-05
-0.000209601
-0.000104577
-2.68191e-05
-0.000158391
-0.000147186
-3.05942e-05
-9.61017e-05
-0.000174833
-3.22657e-05
-3.48392e-05
-0.000167028
-3.01461e-05
-8.89639e-05
-1.80801e-05
-1.4009e-05
7.53361e-05
-5.16311e-06
-3.91699e-05
0.000133771
-6.36032e-06
-6.80174e-05
0.000152325
-6.3914e-06
-9.76725e-05
0.000155772
-6.12917e-06
-0.000127215
0.000154094
-5.96212e-06
-0.000156339
0.000150324
-5.94589e-06
-0.000184848
0.000144913
-6.12832e-06
-0.000212479
0.00013749
-6.59073e-06
-0.00023881
0.000127329
-7.44519e-06
-0.000263134
0.000113412
-8.83781e-06
-0.00028432
9.44307e-05
-1.09492e-05
-0.000300621
6.88398e-05
-1.39827e-05
-0.000309487
3.50579e-05
-1.8142e-05
-0.000307647
-8.24819e-06
-2.35862e-05
-0.000290738
-6.19196e-05
-3.02002e-05
-0.000254605
-0.000123055
-3.74138e-05
-0.000197075
-0.000183995
-4.39335e-05
-0.00012183
-0.000227419
-4.74533e-05
-4.45442e-05
-0.000222396
-4.47775e-05
-0.000119163
-2.64317e-05
-1.42232e-05
9.14979e-05
-5.80395e-06
-4.01256e-05
0.000162694
-7.27432e-06
-6.9928e-05
0.000185267
-7.36258e-06
-0.000100659
0.000189572
-7.10109e-06
-0.000131463
0.000187919
-6.93749e-06
-0.000162176
0.000184092
-6.94641e-06
-0.000192798
0.000178744
-7.19447e-06
-0.000223302
0.000171535
-7.78895e-06
-0.000253531
0.000161673
-8.88073e-06
-0.000283045
0.000147952
-1.06762e-05
-0.000310916
0.000128694
-1.34493e-05
-0.00033543
0.000101708
-1.75454e-05
-0.000353679
6.43825e-05
-2.33618e-05
-0.000361463
1.4222e-05
-3.1242e-05
-0.000352564
-5.15717e-05
-4.14192e-05
-0.000319727
-0.000131456
-5.32689e-05
-0.00025694
-0.000217105
-6.49489e-05
-0.000164938
-0.000286099
-7.25134e-05
-6.26981e-05
-0.000292289
-6.95312e-05
-0.000161785
-4.0213e-05
-1.44601e-05
0.000108219
-6.56084e-06
-4.11733e-05
0.000192926
-8.35415e-06
-7.19678e-05
0.000219721
-8.50036e-06
-0.000103746
0.000224928
-8.22448e-06
-0.000135718
0.000223405
-8.0442e-06
-0.000167893
0.000219803
-8.05725e-06
-0.000200512
0.00021506
-8.35329e-06
-0.000233869
0.000208954
-9.07115e-06
-0.0002682
0.000200727
-1.04104e-05
-0.000303527
0.000189088
-1.26571e-05
-0.000339403
0.000172062
-1.62169e-05
-0.000374501
0.000146809
-2.16489e-05
-0.000406015
0.000109508
-2.96532e-05
-0.000428815
5.56059e-05
-4.10032e-05
-0.000435437
-1.94647e-05
-5.66555e-05
-0.000414368
-0.000118957
-7.62559e-05
-0.000352812
-0.000236266
-9.73021e-05
-0.000242834
-0.0003473
-0.000113203
-0.00010103
-0.000387
-0.000111052
-0.000235699
-6.38315e-05
-1.47478e-05
0.000125626
-7.48525e-06
-4.23659e-05
0.000224671
-9.66945e-06
-7.41603e-05
0.000255806
-9.86763e-06
-0.000106859
0.000261808
-9.54511e-06
-0.000139737
0.000260364
-9.30478e-06
-0.000172992
0.000257128
-9.27222e-06
-0.000207147
0.000253426
-9.56357e-06
-0.000242893
0.000249279
-1.0353e-05
-0.000280997
0.000244125
-1.18958e-05
-0.000322179
0.000236789
-1.45737e-05
-0.000366861
0.000225242
-1.89628e-05
-0.000414707
0.000206232
-2.59232e-05
-0.000463862
0.000174878
-3.66755e-05
-0.000509749
0.000124493
-5.27984e-05
-0.000544148
4.73678e-05
-7.58494e-05
-0.000552408
-6.57822e-05
-0.000106966
-0.000511156
-0.000220081
-0.000142631
-0.000391258
-0.000401814
-0.000171241
-0.000187009
-0.000531433
-0.000170716
-0.000390885
-0.000103266
-1.51639e-05
0.000143953
-8.6454e-06
-4.3848e-05
0.000258245
-1.13099e-05
-7.6637e-05
0.000293663
-1.15444e-05
-0.000110028
0.000300107
-1.11211e-05
-0.000143353
0.000298432
-1.07487e-05
-0.000177005
0.000295444
-1.05858e-05
-0.000211811
0.000292969
-1.07771e-05
-0.000248892
0.000291418
-1.15311e-05
-0.000289651
0.000290638
-1.31574e-05
-0.000335738
0.000289906
-1.61372e-05
-0.000388918
0.000287608
-2.12365e-05
-0.000450692
0.000280699
-2.96743e-05
-0.000521606
0.00026404
-4.3316e-05
-0.00060018
0.000229744
-6.46748e-05
-0.000680433
0.00016623
-9.63581e-05
-0.000748387
5.52174e-05
-0.000138926
-0.000764395
-0.000140691
-0.000184832
-0.000656354
-0.000452883
-0.000213709
-0.00035861
-0.000792504
-0.000206817
-0.000730727
-0.000150003
-1.58798e-05
0.00016365
-1.01455e-05
-4.59419e-05
0.00029417
-1.34058e-05
-7.97507e-05
0.000333514
-1.36456e-05
-0.000113518
0.000339676
-1.30385e-05
-0.000146629
0.000337072
-1.24269e-05
-0.000179677
0.000333819
-1.20078e-05
-0.000213769
0.000332334
-1.19539e-05
-0.000250434
0.000333544
-1.24999e-05
-0.000291702
0.000337938
-1.39933e-05
-0.000340247
0.000345644
-1.6986e-05
-0.000399523
0.000356155
-2.23883e-05
-0.000473787
0.00036779
-3.16964e-05
-0.000568038
0.000376922
-4.72281e-05
-0.000687328
0.000376337
-7.17589e-05
-0.000833258
0.000349617
-0.00010593
-0.000990223
0.000252914
-0.000141056
-0.00109691
-1.6017e-05
-0.000151517
-0.00101508
-0.00056965
-0.000118003
-0.000600643
-0.00126734
-0.000101347
-0.00135627
-0.000153464
-1.72345e-05
0.000185565
-1.21568e-05
-4.92649e-05
0.000333334
-1.6174e-05
-8.42004e-05
0.000375748
-1.63791e-05
-0.000117953
0.000380361
-1.54683e-05
-0.000150007
0.000375618
-1.44584e-05
-0.000181156
0.000371064
-1.36016e-05
-0.000212724
0.000369731
-1.30999e-05
-0.00024652
0.00037312
-1.31994e-05
-0.000285034
0.000382527
-1.425e-05
-0.0003318
0.000399297
-1.68015e-05
-0.000391905
0.000424748
-2.17507e-05
-0.000472573
0.000459793
-3.04716e-05
-0.000584005
0.000504036
-4.45145e-05
-0.000738944
0.000551268
-6.29173e-05
-0.000945278
0.000571862
-7.40143e-05
-0.00118162
0.00047096
-4.31263e-05
-0.00136139
5.86781e-05
7.28499e-05
-0.00129382
-0.000832
0.000225024
-0.000777452
-0.00192686
0.000178779
-0.00218431
-6.7317e-05
-1.977e-05
0.000211174
-1.49371e-05
-5.47831e-05
0.000377149
-1.9842e-05
-9.11358e-05
0.000421012
-1.98723e-05
-0.000124504
0.000422089
-1.84673e-05
-0.000154532
0.000413331
-1.68717e-05
-0.000182237
0.000405786
-1.53842e-05
-0.000209094
0.000403024
-1.42149e-05
-0.000236961
0.000407015
-1.35875e-05
-0.000268348
0.000419783
-1.38021e-05
-0.000307013
0.000444012
-1.52701e-05
-0.000358823
0.000483174
-1.85384e-05
-0.000432627
0.000541135
-2.39347e-05
-0.000541608
0.000620473
-2.96431e-05
-0.000701622
0.000711665
-2.42916e-05
-0.000924579
0.000763137
2.70826e-05
-0.00119444
0.000624375
0.000187892
-0.00143267
5.49723e-05
0.000472522
-0.0013836
-0.00115409
0.000666006
-0.00082377
-0.00253386
0.000391639
-0.00300663
1.27012e-05
-2.51162e-05
0.000243671
-1.91362e-05
-6.48781e-05
0.000427973
-2.54224e-05
-0.000102651
0.000469853
-2.52843e-05
-0.000134582
0.000464272
-2.31437e-05
-0.000161243
0.000449241
-2.05545e-05
-0.000183996
0.000436743
-1.7984e-05
-0.000204143
0.000430374
-1.57221e-05
-0.000223134
0.000432309
-1.39979e-05
-0.000242967
0.000445147
-1.2996e-05
-0.000266599
0.000472489
-1.28485e-05
-0.000299035
0.000519538
-1.33967e-05
-0.000347999
0.000592036
-1.28696e-05
-0.000426532
0.000694563
-4.22383e-06
-0.000551527
0.00081085
3.77235e-05
-0.000750056
0.000877024
0.000170593
-0.0010273
0.000706111
0.000460328
-0.00131558
4.29234e-05
0.000844843
-0.00128099
-0.00137453
0.000898109
-0.000779875
-0.00288792
0.00032374
-0.00371932
-4.01473e-05
-3.19262e-05
0.000284962
-2.49628e-05
-7.83763e-05
0.000488497
-3.21177e-05
-0.000119399
0.000524837
-3.13402e-05
-0.000151441
0.000509109
-2.79448e-05
-0.0001746
0.000483744
-2.41676e-05
-0.00019087
0.000462804
-2.04179e-05
-0.000201874
0.000449622
-1.69889e-05
-0.00020875
0.000445926
-1.40508e-05
-0.000212447
0.000454088
-1.1683e-05
-0.000214057
0.000477672
-9.69483e-06
-0.000216275
0.000522751
-7.15737e-06
-0.00022309
0.000595231
-2.97201e-07
-0.000246109
0.000701789
2.28205e-05
-0.000301728
0.000820119
9.60223e-05
-0.00044124
0.000903338
0.000282846
-0.000678766
0.000730343
0.000630692
-0.00095591
6.69758e-05
0.000980018
-0.000975655
-0.00141197
0.000809479
-0.000643543
-0.00302873
0.000148221
-0.00428564
-0.000186063
-6.54139e-05
0.000361844
-3.51713e-05
-0.000118623
0.00055882
-4.50985e-05
-0.000154363
0.000577645
-4.34498e-05
-0.00017621
0.00054667
-3.84918e-05
-0.000189887
0.00051135
-3.24361e-05
-0.000197428
0.000482226
-2.62961e-05
-0.000199136
0.000461057
-2.06123e-05
-0.000194261
0.000448613
-1.5663e-05
-0.000181827
0.000446967
-1.15171e-05
-0.000160027
0.000458652
-7.73649e-06
-0.000127937
0.000489797
-3.04011e-06
-8.4366e-05
0.000544208
7.37407e-06
-3.42702e-05
0.000630236
3.60332e-05
3.82046e-06
0.000728661
0.000115458
3.88757e-06
0.000800558
0.000298613
-0.000118383
0.000676461
0.000612367
-0.000301348
8.66338e-05
0.00085678
-0.000480451
-0.0012339
0.000591834
-0.000390052
-0.00297799
6.98076e-05
-0.00463556
-0.000320408
-4.55208e-05
0.000421268
-5.32209e-05
-0.000129238
0.000666215
-6.26542e-05
-0.000184641
0.000655888
-5.76964e-05
-0.000215047
0.000598054
-4.79273e-05
-0.000227294
0.000541942
-3.90272e-05
-0.000226358
0.000496718
-3.03647e-05
-0.000214889
0.000462003
-2.25488e-05
-0.000193096
0.000436216
-1.58177e-05
-0.000160119
0.000420318
-1.04246e-05
-0.000112053
0.000413708
-5.86502e-06
-4.51494e-05
0.000421762
-1.33842e-06
4.60987e-05
0.000444775
7.63834e-06
0.000164546
0.000490979
3.11501e-05
0.00030549
0.000543578
8.88141e-05
0.000445016
0.000585071
0.000220954
0.000504371
0.000500421
0.000444332
0.000411608
9.10075e-05
0.000586361
0.000107035
-0.00090381
0.000410601
1.23868e-05
-0.00276657
3.64271e-05
-0.00466039
-0.000396709
-0.000192597
0.000626751
-6.16737e-05
-0.00022489
0.000720263
-8.26767e-05
-0.000248532
0.000703525
-8.29133e-05
-0.000264212
0.000636472
-7.23815e-05
-0.000255226
0.000554135
-5.75427e-05
-0.000227628
0.000487858
-4.28279e-05
-0.000186209
0.000436077
-3.0083e-05
-0.000131465
0.000393592
-1.98049e-05
-6.51275e-05
0.000362723
-1.24195e-05
1.61195e-05
0.000337523
-7.48416e-06
0.000113786
0.000325215
-4.78797e-06
0.000235546
0.000318725
-2.41807e-06
0.000384804
0.000329469
7.19751e-06
0.000560404
0.000341228
3.67425e-05
0.000758655
0.000346115
0.000100206
0.000915279
0.000285871
0.00022874
0.00100742
-2.80744e-05
0.000288991
0.000844752
-0.000675215
0.000216926
0.000519687
-0.00237555
-1.30089e-07
-0.00425786
-0.000453552
-0.000667186
0.00128707
-0.000162778
-0.000627932
0.000707717
-0.000151521
-0.000487566
0.000592152
-0.000124069
-0.000292086
0.000474234
-9.99274e-05
-8.75214e-05
0.000382694
-8.14468e-05
0.000115294
0.000315918
-6.46624e-05
0.000309882
0.000269418
-5.0674e-05
0.000495445
0.000232402
-3.90877e-05
0.000672526
0.000206426
-3.00933e-05
0.000843392
0.000183684
-2.39855e-05
0.00101236
0.000169755
-2.11127e-05
0.00118215
0.000158016
-2.12064e-05
0.0013657
0.000151676
-2.31744e-05
0.00155808
0.000146328
-1.55385e-05
0.0017819
0.000119342
-7.46775e-06
0.00199495
6.89892e-05
3.9142e-05
0.00211261
-0.000135535
8.08808e-05
0.0020647
-0.000560592
4.93885e-05
0.00140048
-0.00167419
-3.28203e-05
-0.00306331
-0.00049713
0.0012698
-0.000131475
0.00197023
-0.000152043
0.00256056
-0.000156066
0.00304095
-0.00014918
0.00343697
-0.000138686
0.00377013
-0.000127253
0.00405939
-0.000115698
0.004313
-0.000106055
0.00454117
-9.53637e-05
0.00474645
-8.85491e-05
0.00493673
-7.96848e-05
0.00511504
-7.72812e-05
0.00528408
-6.9029e-05
0.00545034
-7.28379e-05
0.00558569
-5.88321e-05
0.00568203
-7.02914e-05
0.005571
-4.57229e-05
0.00505453
-9.70691e-05
0.00337788
-0.000110903
-0.000544771
-5.09543e-06
5.39724e-06
-1.48814e-06
-1.6291e-05
1.19014e-05
-1.71497e-06
-2.95792e-05
1.41208e-05
-1.64462e-06
-4.33078e-05
1.46144e-05
-1.57415e-06
-5.69203e-05
1.45236e-05
-1.60981e-06
-7.0196e-05
1.42127e-05
-1.75798e-06
-8.2918e-05
1.36996e-05
-2.02485e-06
-9.47776e-05
1.28976e-05
-2.42834e-06
-0.000105345