/*--------------------------------*- C++ -*----------------------------------*\
  =========                 |
  \\      /  F ield         | OpenFOAM: The Open Source CFD Toolbox
   \\    /   O peration     | Website:  https://openfoam.org
    \\  /    A nd           | Version:  10
     \\/     M anipulation  |
\*---------------------------------------------------------------------------*/
FoamFile
{
    format      ascii;
    class       volVectorField;
    location    "7";
    object      U;
}
// * * * * * * * * * * * * * * * * * * * * * * * * * * * * * * * * * * * * * //

dimensions      [0 1 -1 0 0 0 0];

internalField   nonuniform List<vector> 
8000
(
(-6.68442e-05 8.76357e-05 -2.89985e-05)
(-0.000480923 0.000189937 7.80198e-06)
(-0.00116659 0.000222513 2.45676e-05)
(-0.00186683 0.000234885 3.22256e-05)
(-0.00259637 0.000243816 3.25815e-05)
(-0.00333191 0.000253648 2.83831e-05)
(-0.00406295 0.000263159 2.02716e-05)
(-0.00477614 0.000269614 7.90968e-06)
(-0.00545029 0.000269965 -9.05723e-06)
(-0.0060551 0.000260613 -3.14306e-05)
(-0.00655053 0.000237651 -6.01041e-05)
(-0.00688692 0.000197534 -9.56899e-05)
(-0.00700758 0.000138506 -0.000138054)
(-0.00685422 5.97108e-05 -0.000185855)
(-0.00637397 -3.82919e-05 -0.00023481)
(-0.00553639 -0.000145664 -0.0002802)
(-0.00435618 -0.000245797 -0.000311684)
(-0.00294194 -0.000311842 -0.000315088)
(-0.00134262 -0.000305552 -0.000279656)
(-0.000243341 -0.000133476 -0.000143684)
(-0.00016454 0.000585205 -9.94964e-05)
(-0.000902498 0.00103206 -7.66505e-05)
(-0.00203818 0.00117664 -6.32326e-05)
(-0.00319388 0.00122391 -5.309e-05)
(-0.00438481 0.00124226 -4.89883e-05)
(-0.00557195 0.00125067 -4.88379e-05)
(-0.00673403 0.00124767 -5.18188e-05)
(-0.00784666 0.00122502 -5.84789e-05)
(-0.00887603 0.00117207 -6.9817e-05)
(-0.00977676 0.00107647 -8.71373e-05)
(-0.0104904 0.000925149 -0.000111859)
(-0.0109453 0.00070607 -0.000145159)
(-0.011062 0.000410513 -0.000187388)
(-0.0107625 3.9558e-05 -0.000239301)
(-0.0099725 -0.0003907 -0.000293139)
(-0.0086485 -0.000844172 -0.000343328)
(-0.00681599 -0.00125595 -0.000376147)
(-0.00463122 -0.00152176 -0.000373867)
(-0.00217128 -0.00149105 -0.00032207)
(-0.000430039 -0.000812375 -0.000134405)
(-0.000195079 0.00141424 -0.000137603)
(-0.00105091 0.0023555 -0.000122142)
(-0.00235376 0.00265635 -0.000110294)
(-0.00367103 0.00274381 -9.85438e-05)
(-0.00502362 0.00276013 -9.18473e-05)
(-0.00636853 0.00274531 -8.85502e-05)
(-0.00768346 0.00269965 -8.80279e-05)
(-0.00894311 0.00260955 -9.10889e-05)
(-0.0101122 0.00245556 -9.91495e-05)
(-0.011143 0.00221481 -0.000114031)
(-0.0119732 0.00186294 -0.000137723)
(-0.0125259 0.00137742 -0.000172049)
(-0.0127095 0.000742645 -0.000218557)
(-0.0124234 -3.94487e-05 -0.000276869)
(-0.0115734 -0.000937364 -0.000341021)
(-0.0100963 -0.00188216 -0.00040279)
(-0.00800058 -0.00274331 -0.00044458)
(-0.00545885 -0.0033067 -0.00044349)
(-0.00255477 -0.00325714 -0.000380714)
(-0.000497903 -0.0018889 -0.000151175)
(-0.000198824 0.002287 -0.000164971)
(-0.00109228 0.00375393 -0.000156185)
(-0.002457 0.00421367 -0.000145924)
(-0.00383355 0.00433797 -0.000133426)
(-0.00525058 0.00435091 -0.000125343)
(-0.00666599 0.004315 -0.000120409)
(-0.00806126 0.00423253 -0.000118224)
(-0.00941502 0.004085 -0.000119856)
(-0.0106955 0.00384454 -0.000127131)
(-0.0118575 0.00347701 -0.000142481)
(-0.012838 0.00294472 -0.00016871)
(-0.0135536 0.00221114 -0.000208622)
(-0.0138993 0.00125008 -0.000264779)
(-0.0137523 5.66614e-05 -0.000338668)
(-0.0129817 -0.00133268 -0.000423939)
(-0.0114758 -0.00282183 -0.000508427)
(-0.00919873 -0.00420979 -0.000569241)
(-0.006328 -0.0051506 -0.000574342)
(-0.00295134 -0.00512197 -0.000497637)
(-0.000557218 -0.00299673 -0.000205373)
(-0.000192052 0.00320986 -0.000185448)
(-0.00109386 0.00523959 -0.000182701)
(-0.00248571 0.00586912 -0.000173953)
(-0.00389127 0.0060354 -0.00016133)
(-0.0053467 0.0060516 -0.000153016)
(-0.00681297 0.00600536 -0.000148091)
(-0.00827815 0.00590247 -0.000146449)
(-0.0097281 0.00572056 -0.000149525)
(-0.0111385 0.00542383 -0.000159647)
(-0.01247 0.0049661 -0.000180011)
(-0.0136624 0.00429324 -0.000214598)
(-0.0146275 0.00334848 -0.000267749)
(-0.0152435 0.00208249 -0.000343391)
(-0.0153519 0.000471801 -0.000443525)
(-0.0147715 -0.00145298 -0.000566857)
(-0.013317 -0.0035797 -0.000693133)
(-0.0108679 -0.00563101 -0.000791591)
(-0.00758342 -0.00709355 -0.000814713)
(-0.0035438 -0.00716222 -0.000718893)
(-0.000651302 -0.0041892 -0.000319845)
(-0.000181037 0.00415874 -0.000203804)
(-0.001081 0.00678203 -0.000207009)
(-0.00248937 0.00759336 -0.000199902)
(-0.0039152 0.00781007 -0.000187641)
(-0.00540188 0.00784164 -0.000179892)
(-0.00691472 0.00780443 -0.000176111)
(-0.00845049 0.00770999 -0.000176581)
(-0.0100054 0.007534 -0.000183254)
(-0.0115666 0.00723402 -0.000199159)
(-0.0131063 0.0067519 -0.000228542)
(-0.0145723 0.00601432 -0.000277033)
(-0.0158768 0.0049367 -0.00035148)
(-0.016883 0.00343426 -0.000458717)
(-0.0173932 0.00144325 -0.000603252)
(-0.0171599 -0.00104306 -0.000791411)
(-0.0158845 -0.00390648 -0.000992737)
(-0.0133025 -0.00681124 -0.00116544)
(-0.00949682 -0.00903343 -0.00123488)
(-0.004502 -0.00935644 -0.00111914)
(-0.000826132 -0.00546857 -0.000538024)
(-0.000167147 0.00512774 -0.000223438)
(-0.00106032 0.0083753 -0.000233194)
(-0.00248032 0.00938122 -0.000227931)
(-0.00392018 0.00965735 -0.000216175)
(-0.00543062 0.00971784 -0.000209194)
(-0.00698199 0.00971246 -0.000206943)
(-0.00858176 0.0096621 -0.000210224)
(-0.0102396 0.00954383 -0.0002217)
(-0.0119592 0.00931175 -0.00024541)
(-0.0137313 0.00889798 -0.000287162)
(-0.0155223 0.00820996 -0.000355114)
(-0.0172558 0.00712974 -0.000460122)
(-0.0187907 0.00552145 -0.000614561)
(-0.0198977 0.00325403 -0.00082986)
(-0.0202411 0.000248667 -0.00111872)
(-0.0193796 -0.00341524 -0.00145943)
(-0.0168298 -0.00739901 -0.00178306)
(-0.0124544 -0.0107399 -0.0019723)
(-0.00613873 -0.0116253 -0.00186085)
(-0.00119055 -0.0068664 -0.000971948)
(-0.000150385 0.00611712 -0.00024627)
(-0.00103295 0.0100223 -0.000263691)
(-0.00245985 0.0112344 -0.000260354)
(-0.00390405 0.0115758 -0.000248752)
(-0.00542389 0.0116755 -0.000242061)
(-0.00699488 0.0117229 -0.000240926)
(-0.00863665 0.0117532 -0.000246846)
(-0.0103754 0.0117504 -0.000263397)
(-0.0122362 0.0116715 -0.000295979)
(-0.0142372 0.0114455 -0.000352638)
(-0.0163768 0.0109662 -0.000445329)
(-0.0186114 0.0100848 -0.000591361)
(-0.0208199 0.00860579 -0.000813697)
(-0.0227591 0.00630207 -0.00113793)
(-0.0240127 0.00296801 -0.0015846)
(-0.023996 -0.00146623 -0.00217479)
(-0.0219024 -0.00666369 -0.00280008)
(-0.0171199 -0.0116098 -0.00329039)
(-0.0091464 -0.0136442 -0.00329172)
(-0.0020369 -0.00842239 -0.00190978)
(-0.000131431 0.00713042 -0.00027385)
(-0.00100151 0.0117295 -0.000300525)
(-0.00243068 0.013155 -0.000298972)
(-0.00386505 0.0135597 -0.000286562)
(-0.00537113 0.0137004 -0.000278869)
(-0.00692892 0.0138132 -0.000277475)
(-0.00857053 0.0139544 -0.000284776)
(-0.0103403 0.0141226 -0.000305481)
(-0.0122888 0.0142875 -0.000346686)
(-0.0144693 0.0143883 -0.0004193)
(-0.0169272 0.0143211 -0.000540439)
(-0.0196778 0.0139221 -0.000736817)
(-0.0226649 0.0129489 -0.00104787)
(-0.0256909 0.0110714 -0.0015249)
(-0.0283315 0.00790036 -0.00222339)
(-0.0298075 0.00310268 -0.00319449)
(-0.0290417 -0.00328589 -0.00443532)
(-0.0245973 -0.0102387 -0.00561484)
(-0.0149827 -0.0145382 -0.0060801)
(-0.00408408 -0.010186 -0.00409502)
(-0.000112908 0.00817747 -0.000308213)
(-0.000974438 0.0135103 -0.000346215)
(-0.00240425 0.0151472 -0.000345979)
(-0.0038112 0.0155994 -0.000330988)
(-0.0052716 0.0157672 -0.000319972)
(-0.00676854 0.0159422 -0.000315733)
(-0.00834551 0.0162087 -0.000321784)
(-0.0100638 0.0165887 -0.0003441)
(-0.011999 0.0170779 -0.00039167)
(-0.0142428 0.0176454 -0.000478745)
(-0.0168989 0.0182187 -0.000628784)
(-0.0200678 0.0186601 -0.000880773)
(-0.0238102 0.0187296 -0.00129713)
(-0.0280747 0.018042 -0.00196884)
(-0.0325749 0.0160399 -0.00300652)
(-0.0366113 0.0120174 -0.00452077)
(-0.0386764 0.0052345 -0.00662457)
(-0.0362319 -0.00417916 -0.00914313)
(-0.0260726 -0.0128753 -0.0107439)
(-0.0087161 -0.0123899 -0.00851493)
(-0.000101025 0.009281 -0.000352794)
(-0.000970625 0.015391 -0.000404709)
(-0.00240755 0.0172215 -0.000404817)
(-0.00376849 0.0176836 -0.000384348)
(-0.00514382 0.0178405 -0.00036632)
(-0.00651825 0.0180489 -0.000355115)
(-0.00794398 0.0184271 -0.000355567)
(-0.00949446 0.0190287 -0.000374903)
(-0.0112633 0.0198892 -0.000423866)
(-0.0133723 0.0210305 -0.000519715)
(-0.0159775 0.0224507 -0.000691913)
(-0.0192729 0.0241006 -0.000991808)
(-0.0234816 0.0258394 -0.00150213)
(-0.0288135 0.027358 -0.00234508)
(-0.0353787 0.0280481 -0.00367431)
(-0.042962 0.0267124 -0.0056604)
(-0.0501548 0.0211535 -0.00846788)
(-0.0525744 0.00843852 -0.0118389)
(-0.0439995 -0.00949619 -0.0145847)
(-0.0171341 -0.0184821 -0.0138991)
(-0.000108727 0.0104899 -0.000414031)
(-0.00102653 0.017425 -0.000483383)
(-0.00249174 0.0194057 -0.00048252)
(-0.0037901 0.0198086 -0.000452098)
(-0.0050356 0.0198824 -0.000421199)
(-0.00621465 0.0200591 -0.000396768)
(-0.00738549 0.0204942 -0.000385171)
(-0.00862441 0.0212768 -0.000394641)
(-0.0100273 0.0224926 -0.000437186)
(-0.0117241 0.0242385 -0.000531663)
(-0.0138951 0.0266238 -0.00071007)
(-0.0167954 0.029757 -0.00102624)
(-0.0207923 0.0337169 -0.00155302)
(-0.0264127 0.0384175 -0.00235307)
(-0.0344131 0.0432255 -0.00341089)
(-0.0455854 0.0458637 -0.00459984)
(-0.0594563 0.0409019 -0.00590204)
(-0.0705289 0.0193921 -0.00714692)
(-0.0674102 -0.0174517 -0.00811806)
(-0.0282921 -0.0406927 -0.0120487)
(-0.000161505 0.0118862 -0.000502931)
(-0.00120713 0.019678 -0.000590643)
(-0.00274293 0.021711 -0.000582988)
(-0.00396606 0.0219374 -0.000534311)
(-0.00503428 0.021821 -0.000482863)
(-0.00593812 0.021867 -0.000438424)
(-0.00674207 0.0222578 -0.000407912)
(-0.00751293 0.0231142 -0.000399082)
(-0.00832367 0.024571 -0.000424313)
(-0.00927258 0.0268032 -0.000500569)
(-0.0105077 0.0300498 -0.000652925)
(-0.0122621 0.0346042 -0.000911733)
(-0.0149641 0.0408184 -0.00126964)
(-0.0194527 0.0487555 -0.00152735)
(-0.0274669 0.0574089 -0.00107868)
(-0.0418169 0.0620818 0.00110509)
(-0.0659969 0.0528907 0.00547053)
(-0.0926133 0.0128258 0.0112424)
(-0.0936615 -0.0555161 0.0155423)
(-0.0364565 -0.0922199 0.000106945)
(-0.000322497 0.0136794 -0.000654323)
(-0.00165387 0.0224267 -0.000777871)
(-0.0033163 0.0244155 -0.00076731)
(-0.00443151 0.024323 -0.000690071)
(-0.00525573 0.0238371 -0.000598074)
(-0.00580407 0.0235573 -0.000511311)
(-0.00614382 0.0237018 -0.000442111)
(-0.00631369 0.024416 -0.000400968)
(-0.00634107 0.0258686 -0.000397176)
(-0.00624915 0.0282873 -0.000440919)
(-0.00609486 0.0320205 -0.000540058)
(-0.00598725 0.0374691 -0.000663714)
(-0.00636504 0.0452222 -0.000648195)
(-0.00839789 0.0551791 0.000182904)
(-0.0156531 0.065914 0.00332365)
(-0.0346781 0.0697433 0.0109869)
(-0.0753873 0.0509305 0.0241269)
(-0.117533 -0.0256092 0.0384172)
(-0.115332 -0.140594 0.0364416)
(-0.0421273 -0.175476 0.00458868)
(-0.000638698 0.0163351 -0.00088297)
(-0.00241901 0.0254716 -0.000987194)
(-0.00430357 0.0268903 -0.000940801)
(-0.00534962 0.0260483 -0.000803576)
(-0.00593733 0.0250222 -0.000663896)
(-0.00607535 0.0243738 -0.000536767)
(-0.00585927 0.0242457 -0.000433379)
(-0.00531193 0.0247205 -0.000361404)
(-0.00440855 0.0259456 -0.000329453)
(-0.00306125 0.0281385 -0.000338339)
(-0.00121997 0.0316976 -0.000379881)
(0.00125017 0.0370907 -0.000335258)
(0.00389054 0.0449928 0.000102403)
(0.00551896 0.0551997 0.00210033)
(0.000379839 0.0663736 0.00796393)
(-0.0213942 0.0676191 0.02094)
(-0.0751039 0.0319324 0.0401314)
(-0.121461 -0.0928863 0.0490719)
(-0.125911 -0.229642 0.0277247)
(-0.0493511 -0.266021 -0.00931363)
(-0.00198653 0.0190211 -0.00141094)
(-0.00505905 0.0304811 -0.00162992)
(-0.00667095 0.0314936 -0.0015196)
(-0.0072012 0.030101 -0.00128302)
(-0.00707908 0.0281265 -0.0010102)
(-0.00655514 0.0265014 -0.000755826)
(-0.00570414 0.0254359 -0.000545286)
(-0.00446385 0.0250243 -0.000390507)
(-0.00271411 0.0253959 -0.000302773)
(-0.000218745 0.0266697 -0.000269639)
(0.00326302 0.0292406 -0.000273995)
(0.00812629 0.0334447 -0.000193883)
(0.0140171 0.0399676 0.0004502)
(0.0204773 0.0485333 0.0027373)
(0.0209928 0.0588742 0.0100323)
(0.00876967 0.0577869 0.024215)
(-0.0409396 0.00931799 0.0421743)
(-0.0840254 -0.136073 0.0388236)
(-0.121529 -0.272793 0.0128177)
(-0.0486763 -0.342679 -0.0287167)
(-0.00131318 0.0305675 -0.00244107)
(-0.00504261 0.0343466 -0.00230748)
(-0.0087038 0.0328024 -0.00203494)
(-0.00940803 0.0289454 -0.00149614)
(-0.00938526 0.0261695 -0.00107207)
(-0.00830028 0.0242339 -0.000699138)
(-0.00659869 0.0229968 -0.000404721)
(-0.00431273 0.0222803 -0.000197537)
(-0.00142339 0.0221463 -0.000100632)
(0.0024022 0.0225799 -8.50464e-05)
(0.00743187 0.0239216 -0.000175)
(0.014355 0.0261866 -0.000264688)
(0.0228885 0.0300037 0.000151901)
(0.0342047 0.0346905 0.00182669)
(0.0415483 0.0407912 0.00754468)
(0.0484757 0.0385911 0.0190649)
(0.013892 -0.00673631 0.0319117)
(-0.0222636 -0.135536 0.0291875)
(-0.0972426 -0.284346 0.00797475)
(-0.0363401 -0.390737 -0.045671)
(-0.0126726 0.0281036 -0.00322174)
(-0.021394 0.0492241 -0.00398603)
(-0.0155914 0.0450073 -0.00374087)
(-0.0141287 0.0401042 -0.00304688)
(-0.0102582 0.0342726 -0.00211622)
(-0.00610319 0.0295078 -0.00129445)
(-0.00175684 0.0258133 -0.000655976)
(0.0028548 0.022996 -0.000212518)
(0.00772173 0.0210347 9.47547e-06)
(0.013395 0.0196684 1.20445e-05)
(0.0197672 0.0190674 -0.000184756)
(0.0281204 0.0188827 -0.000574159)
(0.0372888 0.0197233 -0.000723613)
(0.0505411 0.0202554 -0.000115071)
(0.058835 0.0214768 0.00279661)
(0.0761878 0.0172537 0.0100313)
(0.0573179 -0.0121952 0.0179186)
(0.0514225 -0.111607 0.0215284)
(-0.051338 -0.267709 0.00130022)
(-0.0146388 -0.402286 -0.0571422)
(-0.0465376 0.0879657 -0.0124853)
(-0.0298153 0.0402754 -0.00876801)
(-0.0205797 0.0339809 -0.00651962)
(-0.00158469 0.0269206 -0.00441022)
(0.0143382 0.020551 -0.00297444)
(0.0301256 0.0162909 -0.00186919)
(0.0437649 0.0135759 -0.00104802)
(0.0564875 0.0115099 -0.00048653)
(0.0672103 0.0102052 -0.000140377)
(0.078399 0.00900153 -5.07293e-05)
(0.0872791 0.00861507 -0.000196814)
(0.0993085 0.00789875 -0.000623522)
(0.107033 0.00804104 -0.00110312)
(0.124436 0.00666799 -0.00143856)
(0.126889 0.00414736 -0.000952384)
(0.155419 -0.00538616 0.00243825)
(0.132407 -0.0305809 0.0067081)
(0.159384 -0.101265 0.0116487)
(0.0335967 -0.237929 -0.00246208)
(0.0345914 -0.36804 -0.0665902)
(0.117579 0.112227 -0.0112167)
(0.144199 0.059842 -0.0118435)
(0.216142 0.0394823 -0.0116584)
(0.260857 0.0262156 -0.0104388)
(0.293398 0.0173818 -0.00897825)
(0.320829 0.0114179 -0.00770582)
(0.341229 0.00771162 -0.00656596)
(0.360639 0.00515917 -0.00565171)
(0.373097 0.00370509 -0.00479632)
(0.389344 0.00252044 -0.00420682)
(0.395829 0.00203268 -0.00369714)
(0.413036 0.00149449 -0.00337763)
(0.412909 0.0013602 -0.00327645)
(0.435252 0.000892015 -0.00299716)
(0.423236 -0.000197925 -0.00298067)
(0.451252 -0.00354905 -0.00211939)
(0.407462 -0.0121234 -0.00151288)
(0.420585 -0.0324905 -0.0012509)
(0.251105 -0.072842 -0.00905048)
(0.166136 -0.138452 -0.0768589)
(-0.000114361 0.000132802 -9.26642e-05)
(-0.000822564 0.000345226 -4.9437e-05)
(-0.00199702 0.000416895 -2.30501e-05)
(-0.00318344 0.000437073 -8.92606e-06)
(-0.00439401 0.00044327 -8.96033e-06)
(-0.00559224 0.000447018 -1.93918e-05)
(-0.00676029 0.00044803 -3.90502e-05)
(-0.00787514 0.000442347 -6.88982e-05)
(-0.00890316 0.000424789 -0.000110535)
(-0.00979883 0.000389691 -0.000166031)
(-0.0105034 0.000331147 -0.000237345)
(-0.0109459 0.000243923 -0.000325602)
(-0.0110467 0.000125331 -0.000430135)
(-0.0107243 -2.72154e-05 -0.000547076)
(-0.00990893 -0.000207524 -0.000666854)
(-0.00856166 -0.000398916 -0.000776125)
(-0.00670405 -0.000570183 -0.000852404)
(-0.0044933 -0.000668432 -0.000867132)
(-0.00202072 -0.000610979 -0.000794595)
(-0.000354687 -0.000235397 -0.000482765)
(-0.000340601 0.000927491 -0.000234306)
(-0.00176042 0.00183234 -0.000225441)
(-0.00390309 0.00213734 -0.000203787)
(-0.0060633 0.00221123 -0.000183079)
(-0.0082425 0.00220614 -0.000175048)
(-0.0103682 0.00216922 -0.000177605)
(-0.0123984 0.00210293 -0.000190062)
(-0.0142876 0.00199538 -0.00021418)
(-0.0159768 0.00182979 -0.000252724)
(-0.017392 0.0015874 -0.000308926)
(-0.0184424 0.00124911 -0.000385884)
(-0.0190215 0.000798274 -0.000485718)
(-0.019017 0.000224289 -0.000608268)
(-0.018316 -0.0004671 -0.000751068)
(-0.0168205 -0.00124414 -0.000898239)
(-0.0144839 -0.00204025 -0.00103296)
(-0.0113543 -0.00273415 -0.00112424)
(-0.00767185 -0.00312217 -0.00113392)
(-0.00358964 -0.00288797 -0.00102287)
(-0.000719349 -0.00141764 -0.000571895)
(-0.000430141 0.00227342 -0.00031519)
(-0.00215297 0.00416132 -0.000327953)
(-0.00470884 0.00478625 -0.000309749)
(-0.00726775 0.0049179 -0.000284897)
(-0.00983521 0.00487018 -0.000270882)
(-0.0123276 0.00473956 -0.000266803)
(-0.0146976 0.00453495 -0.000272666)
(-0.016895 0.00423697 -0.000291075)
(-0.0188559 0.00381629 -0.000325887)
(-0.0205001 0.00323897 -0.000381645)
(-0.0217292 0.00247014 -0.000462908)
(-0.0224276 0.00147969 -0.000573426)
(-0.0224633 0.000250468 -0.0007153)
(-0.021695 -0.00120421 -0.000883722)
(-0.0199983 -0.00282514 -0.00106499)
(-0.0172976 -0.0044798 -0.00123624)
(-0.0136226 -0.0059248 -0.00135699)
(-0.00924176 -0.0067434 -0.00137585)
(-0.00432895 -0.00628536 -0.00123986)
(-0.000863392 -0.00331229 -0.000678212)
(-0.00045736 0.00369387 -0.000377946)
(-0.0023037 0.00662678 -0.000410457)
(-0.00504065 0.00757697 -0.000396152)
(-0.00777223 0.0077583 -0.00036917)
(-0.0105145 0.00766153 -0.000351676)
(-0.0131837 0.00743537 -0.000343854)
(-0.0157367 0.00709579 -0.000346499)
(-0.0181279 0.00661643 -0.00036318)
(-0.0202975 0.00595516 -0.000399046)
(-0.0221676 0.00506121 -0.000460409)
(-0.0236373 0.00388024 -0.000554065)
(-0.02458 0.00236265 -0.000686352)
(-0.0248434 0.000478286 -0.000861791)
(-0.0242505 -0.00176584 -0.00108115)
(-0.0226176 -0.00429728 -0.00132637)
(-0.0197972 -0.00692191 -0.00156709)
(-0.0157559 -0.00926059 -0.00174785)
(-0.0107689 -0.0106377 -0.00179314)
(-0.00503052 -0.00998351 -0.00162577)
(-0.000977647 -0.00531765 -0.000891832)
(-0.000462214 0.0051921 -0.000429753)
(-0.00236937 0.00923966 -0.000480826)
(-0.00521224 0.0105342 -0.000470547)
(-0.00805057 0.0107714 -0.000442961)
(-0.0109117 0.0106331 -0.00042454)
(-0.0137162 0.0103248 -0.000416551)
(-0.0164306 0.0098715 -0.000420738)
(-0.01902 0.00924063 -0.000441902)
(-0.0214349 0.00837703 -0.000486892)
(-0.0236052 0.00721061 -0.000564462)
(-0.0254314 0.0056613 -0.000684873)
(-0.0267765 0.00364846 -0.000858526)
(-0.0274581 0.00110863 -0.00109392)
(-0.0272479 -0.00197444 -0.00139802)
(-0.0258755 -0.00553513 -0.00175499)
(-0.0230725 -0.00932917 -0.00212128)
(-0.0186817 -0.0128209 -0.00241855)
(-0.0129424 -0.0149975 -0.00252727)
(-0.00605892 -0.0142174 -0.00231449)
(-0.00114969 -0.00757675 -0.00127996)
(-0.000461421 0.00673726 -0.000479441)
(-0.00241527 0.0119611 -0.000549467)
(-0.00535 0.0136218 -0.00054361)
(-0.00828533 0.0139267 -0.000516461)
(-0.0112598 0.0137633 -0.000498795)
(-0.0142008 0.0133999 -0.000493097)
(-0.0170889 0.0128732 -0.000502304)
(-0.0199049 0.0121468 -0.000532839)
(-0.0226164 0.0111529 -0.000593852)
(-0.0251691 0.00979989 -0.000697536)
(-0.0274735 0.00797498 -0.000859304)
(-0.0293882 0.00555185 -0.001097)
(-0.0307023 0.00241031 -0.00142877)
(-0.0311275 -0.00152753 -0.00186697)
(-0.0302758 -0.00623888 -0.00241025)
(-0.0276937 -0.0114654 -0.00299846)
(-0.0230054 -0.0165048 -0.00351925)
(-0.0163101 -0.0199034 -0.00377377)
(-0.00775787 -0.0191867 -0.00350704)
(-0.00146862 -0.0102296 -0.00194685)
(-0.000459502 0.00832722 -0.000533958)
(-0.00246142 0.0147914 -0.000625165)
(-0.00549215 0.0168419 -0.00062418)
(-0.00852708 0.0172277 -0.000597584)
(-0.0116164 0.0170583 -0.00058089)
(-0.0146964 0.0166726 -0.000578093)
(-0.0177653 0.0161242 -0.000593681)
(-0.0208258 0.0153763 -0.000636199)
(-0.023871 0.0143513 -0.000717945)
(-0.0268745 0.0129366 -0.000856027)
(-0.0297723 0.0109817 -0.00107361)
(-0.0324363 0.00829955 -0.0014005)
(-0.0346424 0.00468176 -0.00187102)
(-0.0360444 -6.02591e-05 -0.00251546)
(-0.0361232 -0.00599841 -0.00335678)
(-0.0341777 -0.0129515 -0.00434057)
(-0.0294721 -0.0200913 -0.00529795)
(-0.0217324 -0.0254343 -0.00589599)
(-0.010827 -0.0252568 -0.00561066)
(-0.00215463 -0.0136543 -0.00312705)
(-0.000457153 0.00996854 -0.000597998)
(-0.00251266 0.0177441 -0.00071412)
(-0.00564695 0.0202074 -0.000718121)
(-0.00878151 0.0206828 -0.000690955)
(-0.0119793 0.0205229 -0.000673732)
(-0.0151863 0.0201467 -0.000672377)
(-0.0184222 0.0196319 -0.000693335)
(-0.0217178 0.0189485 -0.000747811)
(-0.0251023 0.0180163 -0.000852176)
(-0.0285929 0.0167074 -0.00103025)
(-0.0321748 0.0148354 -0.00131642)
(-0.035768 0.0121452 -0.00175889)
(-0.0391741 0.00831237 -0.00241902)
(-0.0420117 0.00297724 -0.0033653)
(-0.0436686 -0.00414188 -0.00467801)
(-0.0431891 -0.0130503 -0.00634801)
(-0.0393064 -0.0229696 -0.00814012)
(-0.0309232 -0.0314693 -0.00952056)
(-0.0170024 -0.0330644 -0.00939221)
(-0.00384174 -0.0188738 -0.00536869)
(-0.000455552 0.011671 -0.00067593)
(-0.00257363 0.0208368 -0.000822163)
(-0.00581987 0.02373 -0.000830681)
(-0.00904756 0.0242935 -0.000800295)
(-0.0123338 0.0241472 -0.000778998)
(-0.0156349 0.0238034 -0.00077513)
(-0.018994 0.0233727 -0.000797506)
(-0.022476 0.0228428 -0.000860455)
(-0.0261556 0.0221439 -0.000985212)
(-0.0301115 0.0211478 -0.00120397)
(-0.0344085 0.019647 -0.00156615)
(-0.0390638 0.017327 -0.00214696)
(-0.0439822 0.0137404 -0.00305514)
(-0.0488608 0.00830893 -0.00443251)
(-0.0530879 0.000413977 -0.00642324)
(-0.0555739 -0.0103292 -0.00915121)
(-0.0545023 -0.0236606 -0.0124296)
(-0.0471455 -0.0372981 -0.0152876)
(-0.0301432 -0.0438719 -0.0157012)
(-0.00811683 -0.0284487 -0.0097975)
(-0.000458544 0.0134514 -0.000773485)
(-0.00265646 0.0240942 -0.000956655)
(-0.00602696 0.0274222 -0.000968366)
(-0.00933508 0.0280528 -0.000930148)
(-0.0126751 0.0279043 -0.000898687)
(-0.0160126 0.0275962 -0.00088529)
(-0.0194156 0.0272836 -0.000901491)
(-0.0229846 0.026985 -0.000964879)
(-0.0268462 0.0266601 -0.0011018)
(-0.0311552 0.0262067 -0.00135372)
(-0.0360882 0.0254316 -0.00178778)
(-0.0418213 0.024003 -0.00251299)
(-0.0484763 0.021393 -0.00369962)
(-0.0560241 0.0168284 -0.00558587)
(-0.0641522 0.00930264 -0.00844618)
(-0.0720623 -0.00235707 -0.0124723)
(-0.0774405 -0.0193949 -0.0173591)
(-0.0745698 -0.0416786 -0.0215786)
(-0.0552289 -0.0609938 -0.0222898)
(-0.0170338 -0.0489435 -0.016693)
(-0.000474942 0.0153417 -0.000899666)
(-0.00278748 0.0275556 -0.00112847)
(-0.0063052 0.0312999 -0.0011407)
(-0.00967721 0.0319464 -0.0010874)
(-0.0130218 0.0317479 -0.00103647)
(-0.0163125 0.0314472 -0.00100283)
(-0.0196409 0.0312542 -0.00100089)
(-0.0231405 0.0312325 -0.00105112)
(-0.0269865 0.0313937 -0.00118406)
(-0.0314114 0.031698 -0.00144889)
(-0.0367198 0.032023 -0.00192828)
(-0.0432991 0.032106 -0.00276203)
(-0.0516185 0.0314684 -0.00417327)
(-0.0622073 0.029312 -0.00646267)
(-0.075584 0.024291 -0.00987022)
(-0.091689 0.0137277 -0.0141356)
(-0.107197 -0.00786977 -0.0176906)
(-0.111365 -0.0472779 -0.0178085)
(-0.0895098 -0.0952028 -0.0163081)
(-0.0287307 -0.0950494 -0.0199704)
(-0.000522998 0.0174063 -0.00106997)
(-0.0030176 0.0312979 -0.00135655)
(-0.00672507 0.0354078 -0.0013659)
(-0.010143 0.0359756 -0.00128683)
(-0.0134295 0.0356316 -0.00120221)
(-0.0165666 0.0352596 -0.00113241)
(-0.0196662 0.0351338 -0.00109512)
(-0.022885 0.0353748 -0.00111267)
(-0.0264309 0.0360679 -0.0012175)
(-0.0305946 0.0372784 -0.0014614)
(-0.0357922 0.0390303 -0.00193101)
(-0.0426182 0.0412571 -0.00276661)
(-0.0519219 0.0437279 -0.00415033)
(-0.0649178 0.0458119 -0.00614015)
(-0.0831608 0.0454931 -0.00812242)
(-0.107164 0.0364399 -0.00770546)
(-0.131568 0.00436259 -0.000504221)
(-0.140548 -0.0677199 0.0134211)
(-0.115914 -0.159074 0.0157538)
(-0.0353144 -0.175297 -0.00999773)
(-0.000634168 0.0197306 -0.00130838)
(-0.00342617 0.0353591 -0.00165951)
(-0.00739788 0.0396847 -0.00165199)
(-0.0108522 0.0400082 -0.00152913)
(-0.0140123 0.0393888 -0.00139407)
(-0.0168694 0.03884 -0.00127181)
(-0.0195562 0.0386825 -0.00118099)
(-0.0222372 0.0390916 -0.00114253)
(-0.0251189 0.0402397 -0.00118705)
(-0.0284956 0.0423245 -0.00135807)
(-0.0328197 0.045578 -0.00171833)
(-0.0387838 0.0502341 -0.00233051)
(-0.047456 0.0564197 -0.00311403)
(-0.0604855 0.0634604 -0.00325496)
(-0.0799945 0.0674231 4.69478e-05)
(-0.106647 0.0558486 0.0125712)
(-0.13634 0.00650251 0.0389768)
(-0.149792 -0.101202 0.0649193)
(-0.124559 -0.228124 0.0509676)
(-0.0343118 -0.262696 0.00287014)
(-0.000904693 0.0226026 -0.0016835)
(-0.00424311 0.0402516 -0.00214548)
(-0.00856317 0.0447166 -0.00212641)
(-0.0119794 0.0446154 -0.00193729)
(-0.0148882 0.0434431 -0.00170979)
(-0.0173257 0.0424147 -0.00148832)
(-0.019431 0.041931 -0.00130118)
(-0.0213372 0.0422277 -0.00117225)
(-0.0232033 0.043553 -0.00112317)
(-0.0252554 0.0462275 -0.00117617)
(-0.0278616 0.0506946 -0.00133821)
(-0.0316098 0.0574567 -0.00149359)
(-0.0374973 0.066891 -0.00106782)
(-0.0472032 0.0776942 0.00209461)
(-0.0634829 0.0836865 0.0132679)
(-0.0881011 0.0674906 0.0401262)
(-0.122165 0.00421849 0.0807007)
(-0.138859 -0.130203 0.0982422)
(-0.118902 -0.278267 0.0526307)
(-0.0296644 -0.341086 -0.000102121)
(-0.00129492 0.0263943 -0.00221286)
(-0.00525369 0.0450511 -0.00269572)
(-0.0101914 0.0488299 -0.00260898)
(-0.0137337 0.0477026 -0.00229973)
(-0.0164693 0.0458825 -0.00196829)
(-0.0183918 0.04447 -0.00164828)
(-0.0197152 0.0437501 -0.00136706)
(-0.0205729 0.0438941 -0.00114292)
(-0.021057 0.0451575 -0.000990838)
(-0.0212473 0.0479254 -0.00090569)
(-0.0213187 0.0527924 -0.000832775)
(-0.0215259 0.0604038 -0.00043333)
(-0.022632 0.0713096 0.00129027)
(-0.025889 0.0834874 0.00758008)
(-0.0350941 0.0907355 0.0249026)
(-0.0528519 0.0722746 0.0596555)
(-0.0879649 0.00369682 0.0993369)
(-0.09962 -0.148349 0.0942138)
(-0.101125 -0.306142 0.0345598)
(-0.0187554 -0.410636 -0.0151523)
(-0.00338408 0.0299209 -0.00324355)
(-0.00954994 0.053394 -0.00398204)
(-0.0139884 0.0569797 -0.00379831)
(-0.0167653 0.0551777 -0.00332703)
(-0.0184655 0.0518576 -0.00275291)
(-0.0194982 0.0489458 -0.00218738)
(-0.0199488 0.0468585 -0.0016845)
(-0.0197907 0.0458024 -0.0012724)
(-0.0189347 0.0460099 -0.000966715)
(-0.017223 0.0478019 -0.000734921)
(-0.0145512 0.0517881 -0.000488417)
(-0.0106296 0.0585376 0.000182858)
(-0.00602819 0.0687966 0.00249038)
(-0.000309664 0.0804229 0.0095421)
(0.000965489 0.0887802 0.0278313)
(-3.37696e-05 0.0730531 0.0601974)
(-0.0264926 0.00851024 0.090576)
(-0.0306985 -0.139093 0.072919)
(-0.0713594 -0.308275 0.0245283)
(0.00188675 -0.457845 -0.0320463)
(-0.00144683 0.0446363 -0.00520108)
(-0.00810078 0.0570895 -0.0055821)
(-0.0170664 0.057131 -0.00502698)
(-0.0202475 0.052257 -0.00401949)
(-0.0224805 0.0486414 -0.00318018)
(-0.0229149 0.0459491 -0.00238713)
(-0.0222678 0.0440703 -0.00169989)
(-0.020604 0.042891 -0.00114243)
(-0.0179075 0.0425812 -0.000752619)
(-0.0139025 0.0433072 -0.000480347)
(-0.00835438 0.0457071 -0.000299561)
(-0.000385445 0.0500244 0.000174616)
(0.00966497 0.0571221 0.00200619)
(0.0240188 0.0652878 0.00717626)
(0.0358422 0.0714507 0.0206485)
(0.0552829 0.0614612 0.0443607)
(0.0405689 0.00953489 0.0635451)
(0.0448238 -0.107899 0.0529997)
(-0.0269236 -0.291564 0.0185502)
(0.0312662 -0.475463 -0.0455729)
(-0.0123734 0.0354868 -0.00617182)
(-0.0241411 0.0786415 -0.00791495)
(-0.0222434 0.076508 -0.00782193)
(-0.0267666 0.0705398 -0.00671994)
(-0.0265394 0.0626353 -0.00511575)
(-0.024617 0.0559035 -0.00359594)
(-0.021026 0.0504254 -0.00233837)
(-0.0161289 0.0460796 -0.00138236)
(-0.010146 0.042914 -0.000778078)
(-0.00269216 0.0406696 -0.00049052)
(0.00593148 0.0397653 -0.000507612)
(0.0171771 0.0400277 -0.000687301)
(0.0298501 0.0423694 -0.000205316)
(0.0480647 0.0450793 0.00222775)
(0.0623138 0.0480585 0.00878267)
(0.0913261 0.0417876 0.0229175)
(0.0859966 0.0105836 0.032193)
(0.116785 -0.0686395 0.0313038)
(0.0411465 -0.258067 0.00960041)
(0.0771088 -0.465538 -0.0570715)
(-0.0762621 0.0997493 -0.0196655)
(-0.0613487 0.0607311 -0.0154286)
(-0.0607711 0.059696 -0.0120686)
(-0.0383112 0.0516967 -0.00908317)
(-0.0193027 0.0437051 -0.00696375)
(0.00178756 0.0378149 -0.00515912)
(0.0213264 0.033581 -0.00373199)
(0.0408049 0.0299821 -0.00263346)
(0.0581734 0.0274367 -0.00184812)
(0.0766829 0.0249961 -0.001426)
(0.0919384 0.0237701 -0.001373)
(0.111438 0.0224465 -0.00172566)
(0.124347 0.0223661 -0.00225326)
(0.15079 0.021929 -0.00201918)
(0.157447 0.0189434 -0.00126417)
(0.201181 0.0123395 0.00405892)
(0.187562 -0.0176424 0.0101607)
(0.235638 -0.0745196 0.00953379)
(0.158185 -0.237025 0.003012)
(0.150611 -0.415528 -0.0677811)
(0.119137 0.140175 -0.0169787)
(0.151476 0.0856173 -0.0186127)
(0.228784 0.0631981 -0.0186669)
(0.283483 0.0477125 -0.0172752)
(0.324545 0.0367941 -0.0154841)
(0.362431 0.028713 -0.0138425)
(0.39086 0.0230696 -0.0122797)
(0.421453 0.0187984 -0.0110583)
(0.44067 0.015764 -0.00972884)
(0.468584 0.013369 -0.00895387)
(0.479893 0.0115316 -0.00790238)
(0.509068 0.0103316 -0.00772516)
(0.512042 0.00901538 -0.00676903)
(0.545918 0.00849363 -0.00734152)
(0.537647 0.00660123 -0.0055688)
(0.575148 0.00346106 -0.00690369)
(0.542748 -0.00518943 -0.00312039)
(0.558414 -0.0252498 -0.00904632)
(0.426983 -0.0670374 -0.0102979)
(0.302673 -0.144592 -0.0806392)
(-0.00012564 0.000128892 -0.000139798)
(-0.000936404 0.000381791 -0.000146383)
(-0.00228769 0.000468997 -0.000133486)
(-0.00364455 0.000491212 -0.00012333)
(-0.00501942 0.000494824 -0.00012531)
(-0.0063693 0.000494555 -0.000138861)
(-0.00767469 0.000490184 -0.000163795)
(-0.0089109 0.000477228 -0.000201658)
(-0.0100414 0.000450104 -0.000254911)
(-0.0110166 0.00040258 -0.000326092)
(-0.0117734 0.000328125 -0.000417301)
(-0.0122356 0.000220904 -0.000529423)
(-0.0123177 7.77697e-05 -0.000661123)
(-0.0119313 -0.00010402 -0.000806852)
(-0.0110003 -0.000316216 -0.000955945)
(-0.00948124 -0.000539826 -0.00109146)
(-0.00739693 -0.000737067 -0.00119003)
(-0.00492312 -0.00084305 -0.00122411)
(-0.00216705 -0.000755805 -0.00116059)