/*--------------------------------*- C++ -*----------------------------------*\
  =========                 |
  \\      /  F ield         | OpenFOAM: The Open Source CFD Toolbox
   \\    /   O peration     | Website:  https://openfoam.org
    \\  /    A nd           | Version:  10
     \\/     M anipulation  |
\*---------------------------------------------------------------------------*/
FoamFile
{
    format      ascii;
    class       volVectorField;
    location    "6.75";
    object      U;
}
// * * * * * * * * * * * * * * * * * * * * * * * * * * * * * * * * * * * * * //

dimensions      [0 1 -1 0 0 0 0];

internalField   nonuniform List<vector> 
400
(
(-0.000119573 0.000109116 0)
(-0.000948523 0.000358272 0)
(-0.00235434 0.00044664 0)
(-0.00377179 0.000469835 0)
(-0.00521114 0.000475792 0)
(-0.00663266 0.000478627 0)
(-0.00801647 0.000477546 0)
(-0.00933815 0.000467333 0)
(-0.0105605 0.000441475 0)
(-0.0116316 0.000392666 0)
(-0.0124835 0.000313181 0)
(-0.0130324 0.000195922 0)
(-0.0131813 3.58785e-05 0)
(-0.0128275 -0.000170374 0)
(-0.011879 -0.000414208 0)
(-0.0102784 -0.000674403 0)
(-0.00804363 -0.00090825 0)
(-0.0053619 -0.00104352 0)
(-0.0023514 -0.000961896 0)
(-0.000377037 -0.000429351 0)
(-0.000398843 0.000961577 0)
(-0.0021245 0.00203155 0)
(-0.00476128 0.00240446 0)
(-0.00740841 0.00248736 0)
(-0.0100599 0.00247013 0)
(-0.0126345 0.0024112 0)
(-0.015082 0.00231286 0)
(-0.0173504 0.00215958 0)
(-0.0193727 0.00193004 0)
(-0.0210638 0.00160012 0)
(-0.0223189 0.00114469 0)
(-0.0230143 0.000540615 0)
(-0.0230151 -0.000227744 0)
(-0.0221796 -0.0011527 0)
(-0.0203838 -0.00219488 0)
(-0.0175597 -0.00326614 0)
(-0.0137563 -0.00420164 0)
(-0.00925849 -0.00472187 0)
(-0.00426636 -0.00438015 0)
(-0.000819559 -0.00227777 0)
(-0.000516453 0.0024807 0)
(-0.00264042 0.00472625 0)
(-0.00582026 0.00548798 0)
(-0.00898789 0.00563166 0)
(-0.0121413 0.00554558 0)
(-0.0151861 0.00535015 0)
(-0.0180645 0.00505565 0)
(-0.0207191 0.0046369 0)
(-0.0230771 0.00405629 0)
(-0.0250472 0.00327007 0)
(-0.0265175 0.00223256 0)
(-0.0273542 0.000902672 0)
(-0.0273976 -0.000744488 0)
(-0.0264739 -0.00269712 0)
(-0.0244252 -0.00487782 0)
(-0.0211424 -0.0071109 0)
(-0.0166469 -0.00906267 0)
(-0.0112553 -0.0101553 0)
(-0.0051919 -0.0094743 0)
(-0.000990738 -0.00517761 0)
(-0.000553406 0.00408541 0)
(-0.00284477 0.00758128 0)
(-0.0062699 0.00873742 0)
(-0.00966955 0.00893064 0)
(-0.013055 0.00876695 0)
(-0.0163322 0.00843185 0)
(-0.0194486 0.00794368 0)
(-0.0223529 0.00726783 0)
(-0.0249782 0.00634991 0)
(-0.027237 0.00512388 0)
(-0.0290156 0.00351814 0)
(-0.030169 0.00146606 0)
(-0.0305167 -0.00107669 0)
(-0.029835 -0.00411604 0)
(-0.0278842 -0.00755531 0)
(-0.024457 -0.0111386 0)
(-0.0194809 -0.014342 0)
(-0.0132788 -0.0162102 0)
(-0.00609138 -0.01522 0)
(-0.00111537 -0.00836857 0)
(-0.000562001 0.005767 0)
(-0.00294059 0.0105904 0)
(-0.00651463 0.0121623 0)
(-0.0100626 0.012412 0)
(-0.0136106 0.01218 0)
(-0.0170707 0.0117218 0)
(-0.0204026 0.0110654 0)
(-0.0235691 0.0101675 0)
(-0.026517 0.00895581 0)
(-0.0291703 0.00733822 0)
(-0.0314187 0.00520759 0)
(-0.033106 0.00245423 0)
(-0.0340214 -0.00101431 0)
(-0.0338734 -0.0052442 0)
(-0.0323012 -0.0101551 0)
(-0.0289302 -0.0154273 0)
(-0.0234975 -0.0203146 0)
(-0.0162591 -0.0233524 0)
(-0.00743477 -0.0221405 0)
(-0.00128892 -0.012128 0)
(-0.000564004 0.00748957 0)
(-0.00301336 0.0137096 0)
(-0.00672056 0.0157231 0)
(-0.0104074 0.016044 0)
(-0.0141148 0.0157646 0)
(-0.0177645 0.0152167 0)
(-0.0213339 0.0144414 0)
(-0.0248065 0.0133883 0)
(-0.0281522 0.0119672 0)
(-0.0313174 0.010056 0)
(-0.0342072 0.00750092 0)
(-0.0366654 0.00412481 0)
(-0.0384565 -0.000250524 0)
(-0.0392114 -0.00574786 0)
(-0.0384066 -0.012387 0)
(-0.0354108 -0.0198341 0)
(-0.0296232 -0.0271018 0)
(-0.0210516 -0.0320347 0)
(-0.0097071 -0.0308764 0)
(-0.00159142 -0.0167764 0)
(-0.000565126 0.00924689 0)
(-0.00308883 0.0169341 0)
(-0.00693733 0.0194176 0)
(-0.0107701 0.019827 0)
(-0.0146439 0.0195255 0)
(-0.0184926 0.0189303 0)
(-0.0223165 0.0181008 0)
(-0.0261278 0.0169834 0)
(-0.0299312 0.0154731 0)
(-0.0337126 0.0134161 0)
(-0.0374174 0.0106043 0)
(-0.0409164 0.00677088 0)
(-0.0439554 0.00160999 0)
(-0.0461257 -0.00516502 0)
(-0.0467423 -0.0137804 0)
(-0.0448073 -0.0240114 0)
(-0.0391704 -0.0347128 0)
(-0.0291754 -0.04288 0)
(-0.0139944 -0.042555 0)
(-0.00223765 -0.0229987 0)
(-0.000565903 0.0110426 0)
(-0.00317195 0.0202742 0)
(-0.00717357 0.023256 0)
(-0.0111559 0.0237676 0)
(-0.0151933 0.0234671 0)
(-0.0192332 0.0228683 0)
(-0.0233037 0.0220567 0)
(-0.0274543 0.0209846 0)
(-0.0317384 0.0195397 0)
(-0.0362036 0.0175437 0)
(-0.0408686 0.0147339 0)
(-0.0456793 0.0107415 0)
(-0.0504396 0.00508125 0)
(-0.054774 -0.00282333 0)
(-0.0578879 -0.0134581 0)
(-0.0584265 -0.0270519 0)
(-0.0544594 -0.042626 0)
(-0.0437513 -0.0564915 0)
(-0.0230079 -0.0591007 0)
(-0.0038846 -0.0323953 0)
(-0.000566939 0.0128811 0)
(-0.00326573 0.0237415 0)
(-0.00743159 0.0272443 0)
(-0.0115583 0.0278618 0)
(-0.0157394 0.0275751 0)
(-0.0199367 0.027009 0)
(-0.024209 0.0262863 0)
(-0.0286509 0.0253782 0)
(-0.0333782 0.0241822 0)
(-0.0385253 0.0225146 0)
(-0.0442302 0.0200763 0)
(-0.0505968 0.0164051 0)
(-0.0576214 0.0108228 0)
(-0.065052 0.0024235 0)
(-0.0723259 -0.00978706 0)
(-0.0780741 -0.0268115 0)
(-0.0792478 -0.0488953 0)
(-0.0699694 -0.0729052 0)
(-0.0417049 -0.0839238 0)
(-0.00803274 -0.0486055 0)
(-0.000571431 0.01477 0)
(-0.00338026 0.0273493 0)
(-0.00772331 0.0313831 0)
(-0.0119797 0.032091 0)
(-0.0162656 0.0318117 0)
(-0.0205558 0.0312968 0)
(-0.0249408 0.0307201 0)
(-0.029562 0.030089 0)
(-0.0346063 0.0293363 0)
(-0.0403168 0.0283099 0)
(-0.0469969 0.0267262 0)
(-0.0549987 0.0240949 0)
(-0.0646763 0.0196197 0)
(-0.0763208 0.0121172 0)
(-0.0901047 -7.80751e-05 0)
(-0.105287 -0.0193499 0)
(-0.116918 -0.0495493 0)
(-0.111051 -0.0915811 0)
(-0.0727095 -0.122874 0)
(-0.0164442 -0.07908 0)
(-0.000587502 0.0167279 0)
(-0.00353982 0.0311196 0)
(-0.00808154 0.0356702 0)
(-0.0124454 0.0364225 0)
(-0.0167778 0.0361128 0)
(-0.0210643 0.0356364 0)
(-0.0254231 0.0352313 0)
(-0.0300383 0.0349601 0)
(-0.0351617 0.0348228 0)
(-0.041145 0.0347514 0)
(-0.0484796 0.0345646 0)
(-0.0578507 0.0338868 0)
(-0.0701954 0.0320388 0)
(-0.086792 0.0279009 0)
(-0.10924 0.0193168 0)
(-0.137493 0.000602645 0)
(-0.161442 -0.0407564 0)
(-0.155206 -0.114918 0)
(-0.107344 -0.181883 0)
(-0.0305907 -0.132193 0)
(-0.000632369 0.0187966 0)
(-0.00379338 0.0350996 0)
(-0.00857323 0.0401196 0)
(-0.0130168 0.0408276 0)
(-0.0173195 0.040402 0)
(-0.0214755 0.039901 0)
(-0.0256237 0.0396383 0)
(-0.0299748 0.0397478 0)
(-0.0348213 0.0403302 0)
(-0.0405915 0.0414669 0)
(-0.0479295 0.0431982 0)
(-0.0578212 0.0454833 0)
(-0.0717622 0.0481319 0)
(-0.0920371 0.0504565 0)
(-0.121594 0.0492109 0)
(-0.159143 0.0313685 0)
(-0.186985 -0.0291619 0)
(-0.173854 -0.1489 0)
(-0.130497 -0.25487 0)
(-0.0470038 -0.215745 0)
(-0.000736447 0.0210345 0)
(-0.00421767 0.0392926 0)
(-0.009305 0.0446296 0)
(-0.0138061 0.0451362 0)
(-0.0179941 0.044479 0)
(-0.0218682 0.0438619 0)
(-0.0255836 0.0436549 0)
(-0.0293518 0.0440691 0)
(-0.0334516 0.0453238 0)
(-0.0383025 0.0476944 0)
(-0.0445683 0.0515471 0)
(-0.0533173 0.0573735 0)
(-0.0662094 0.065711 0)
(-0.0855049 0.0759333 0)
(-0.113997 0.0818897 0)
(-0.147875 0.0610247 0)
(-0.168761 -0.0208417 0)
(-0.152394 -0.178162 0)
(-0.133266 -0.317772 0)
(-0.0517275 -0.32179 0)
(-0.000987962 0.0237217 0)
(-0.00503662 0.0442178 0)
(-0.0105104 0.0498118 0)
(-0.0149703 0.0499487 0)
(-0.0189019 0.0487758 0)
(-0.0223398 0.0477289 0)
(-0.025423 0.0472745 0)
(-0.0283124 0.0477027 0)
(-0.0312109 0.0493396 0)
(-0.0344107 0.0526453 0)
(-0.0383705 0.0583072 0)
(-0.0438041 0.0672845 0)
(-0.051819 0.0806282 0)
(-0.0632134 0.0968604 0)
(-0.079868 0.106518 0)
(-0.0973003 0.0809791 0)
(-0.108572 -0.0128152 0)
(-0.0977959 -0.186563 0)
(-0.108843 -0.356847 0)
(-0.0380195 -0.416708 0)
(-0.00135332 0.027009 0)
(-0.00599516 0.0485806 0)
(-0.0121371 0.0535539 0)
(-0.0167387 0.052736 0)
(-0.0205093 0.0510326 0)
(-0.0233972 0.0497487 0)
(-0.0256109 0.0492098 0)
(-0.0272918 0.0496309 0)
(-0.0285262 0.0513517 0)
(-0.0293768 0.0549189 0)
(-0.0299427 0.0611894 0)
(-0.0302256 0.0712505 0)
(-0.0305325 0.0862192 0)
(-0.0298174 0.103629 0)
(-0.030071 0.113735 0)
(-0.0265885 0.0867934 0)
(-0.031076 -0.00769446 0)
(-0.0278476 -0.174043 0)
(-0.068118 -0.365395 0)
(-0.0197291 -0.47685 0)
(-0.00342719 0.0299575 0)
(-0.010394 0.056768 0)
(-0.0159321 0.0616743 0)
(-0.0196478 0.0603356 0)
(-0.0223013 0.0571525 0)
(-0.0242591 0.0543733 0)
(-0.0255648 0.0524657 0)
(-0.0261508 0.0516873 0)
(-0.0258558 0.0523344 0)
(-0.0244224 0.0548671 0)
(-0.0215455 0.0600761 0)
(-0.0164504 0.0688343 0)
(-0.00911562 0.0820761 0)
(0.00330369 0.0971818 0)
(0.0169125 0.106197 0)
(0.03629 0.0824877 0)
(0.0377313 -0.0021069 0)
(0.036683 -0.14436 0)
(-0.0328055 -0.347293 0)
(-0.00164515 -0.507394 0)
(-0.00109965 0.0438049 0)
(-0.0084236 0.0590117 0)
(-0.0189593 0.0600935 0)
(-0.0229758 0.0557361 0)
(-0.0262824 0.0525534 0)
(-0.0276983 0.0503557 0)
(-0.0279498 0.0489587 0)
(-0.0270175 0.0482662 0)
(-0.0247712 0.0484599 0)
(-0.0208118 0.0498325 0)
(-0.0146541 0.0530801 0)
(-0.0049844 0.0585782 0)
(0.00835726 0.0671993 0)
(0.0289953 0.0768837 0)
(0.0506387 0.0814744 0)
(0.0803188 0.0633816 0)
(0.083443 -0.0016063 0)
(0.0808454 -0.10858 0)
(-0.000928639 -0.316689 0)
(0.0231848 -0.514917 0)
(-0.0124898 0.0325723 0)
(-0.0240249 0.0799206 0)
(-0.0232105 0.0791421 0)
(-0.0290567 0.0740226 0)
(-0.0305936 0.0667052 0)
(-0.0303598 0.0605737 0)
(-0.0281804 0.0555563 0)
(-0.0243361 0.0516157 0)
(-0.0188985 0.0487438 0)
(-0.0115167 0.0467853 0)
(-0.00228134 0.0461436 0)
(0.010423 0.0468579 0)
(0.0260037 0.0498426 0)
(0.0482559 0.0532825 0)
(0.0686535 0.0558657 0)
(0.101197 0.0452865 0)
(0.102811 0.00646302 0)
(0.119439 -0.0698442 0)
(0.0497547 -0.283044 0)
(0.0593408 -0.498251 0)
(-0.0774305 0.0964213 0)
(-0.0631562 0.0591357 0)
(-0.0655941 0.0598877 0)
(-0.0439411 0.053215 0)
(-0.0267717 0.0462986 0)
(-0.00682474 0.0411488 0)
(0.0119947 0.037393 0)
(0.0310466 0.0342042 0)
(0.0486244 0.0318558 0)
(0.0675036 0.0296309 0)
(0.0838882 0.02836 0)
(0.104583 0.0273987 0)
(0.119688 0.0272103 0)
(0.148714 0.0274942 0)
(0.159621 0.0237247 0)
(0.204234 0.0164172 0)
(0.197058 -0.0179333 0)
(0.232303 -0.0779476 0)
(0.16043 -0.257557 0)
(0.126056 -0.438602 0)
(0.119604 0.140808 0)
(0.152348 0.0861959 0)
(0.229017 0.0635961 0)
(0.284463 0.0481194 0)
(0.325711 0.0374404 0)
(0.36403 0.0296513 0)
(0.392634 0.024189 0)
(0.423796 0.0201615 0)
(0.443687 0.017245 0)
(0.472249 0.0150176 0)
(0.484813 0.0132586 0)
(0.514613 0.0121744 0)
(0.51967 0.0109787 0)
(0.553459 0.0104039 0)
(0.548636 0.00868295 0)
(0.58375 0.00442179 0)
(0.554294 -0.00477671 0)
(0.561475 -0.0276715 0)
(0.425555 -0.0729315 0)
(0.276149 -0.152018 0)
)
;

boundaryField
{
    movingWall
    {
        type            fixedValue;
        value           uniform (1 0 0);
    }
    fixedWalls
    {
        type            noSlip;
    }
    frontAndBack
    {
        type            empty;
    }
}


// ************************************************************************* //
