/*--------------------------------*- C++ -*----------------------------------*\
  =========                 |
  \\      /  F ield         | OpenFOAM: The Open Source CFD Toolbox
   \\    /   O peration     | Website:  https://openfoam.org
    \\  /    A nd           | Version:  10
     \\/     M anipulation  |
\*---------------------------------------------------------------------------*/
FoamFile
{
    format      ascii;
    class       volScalarField;
    location    "9.4";
    object      p;
}
// * * * * * * * * * * * * * * * * * * * * * * * * * * * * * * * * * * * * * //

dimensions      [0 2 -2 0 0 0 0];

internalField   nonuniform List<scalar> 
400
(
2.21045e-09
-3.11856e-05
2.68971e-05
0.000139937
0.000316674
0.000560406
0.00087651
0.00127205
0.00175439
0.00232954
0.00299979
0.0037606
0.00459564
0.00547171
0.00633255
0.00710084
0.0076866
0.00802623
0.00813674
0.00799242
3.48546e-05
3.2219e-06
7.01542e-05
0.000186671
0.000363049
0.00060341
0.00091348
0.00130026
0.00177098
0.00233185
0.0029861
0.00373071
0.00455014
0.00541591
0.00627272
0.00704149
0.00762521
0.00795392
0.0080516
0.00788746
-3.82849e-05
-7.97113e-05
-1.45406e-05
9.68947e-05
0.00026556
0.00049571
0.000793585
0.00116715
0.00162524
0.00217679
0.00282875
0.00358279
0.00443118
0.00534779
0.00627447
0.00711807
0.00775296
0.00807794
0.00812368
0.0078865
-0.000196938
-0.000245104
-0.00018449
-8.21807e-05
7.3542e-05
0.000287192
0.000565771
0.000918641
0.00135705
0.00189393
0.00254251
0.00331257
0.00420415
0.00519887
0.00623986
0.00721348
0.00794592
0.00826527
0.00820642
0.0078458
-0.000451526
-0.000505115
-0.000452641
-0.000364313
-0.000227731
-3.80742e-05
0.000212484
0.000534864
0.000943116
0.00145491
0.00209133
0.00287437
0.00381859
0.00491633
0.00611993
0.00729471
0.00819234
0.00850266
0.00825966
0.00769691
-0.000800265
-0.00085896
-0.000818193
-0.000749056
-0.000638818
-0.000482672
-0.000272429
3.91067e-06
0.000362616
0.000825631
0.00142183
0.00218701
0.00315637
0.00434541
0.00574409
0.00720832
0.00838515
0.00869484
0.00815536
0.00726866
-0.00123644
-0.00130056
-0.00127502
-0.0012308
-0.00115539
-0.00104465
-0.000891219
-0.000683759
-0.000405876
-3.40858e-05
0.000465092
0.00113793
0.00204314
0.00324021
0.00476018
0.00654828
0.00815473
0.00851806
0.0076664
0.00635
-0.00175063
-0.00182079
-0.00181381
-0.00180032
-0.00176887
-0.00171713
-0.00164036
-0.00153089
-0.00137729
-0.00116176
-0.000856832
-0.000423189
0.000194463
0.00108266
0.00237295
0.00423133
0.00635075
0.00714258
0.00644101
0.00496965
-0.00233089
-0.00240767
-0.00242172
-0.00244382
-0.0024646
-0.00248506
-0.00250563
-0.00252636
-0.00254745
-0.00256958
-0.00259508
-0.00263666
-0.00274202
-0.00294539
-0.00298628
-0.0020479
0.000326986
0.00286655
0.00410267
0.00412534
-0.00296308
-0.00304672
-0.00308229
-0.00314219
-0.00322013
-0.00332216
-0.00345667
-0.00363604
-0.00388052
-0.00422485
-0.00473168
-0.00552683
-0.0069016
-0.00924395
-0.012371
-0.014046
-0.0119692
-0.00643522
-0.0006695
0.00356511
-0.00363182
-0.00372211
-0.00377646
-0.00387192
-0.00400572
-0.00419067
-0.00444518
-0.0047975
-0.0052948
-0.00602005
-0.00712766
-0.00891234
-0.0119816
-0.0172528
-0.024564
-0.0302746
-0.0290658
-0.0205356
-0.0101525
-0.00139425
-0.00432192
-0.0044173
-0.00448187
-0.00460352
-0.00478273
-0.00503983
-0.00540286
-0.00591526
-0.00665011
-0.00773542
-0.00940964
-0.0121171
-0.0166695
-0.0241671
-0.034389
-0.0425677
-0.0426013
-0.0336501
-0.0223647
-0.0107674
-0.00502335
-0.00512263
-0.00518402
-0.00531516
-0.00551858
-0.00582218
-0.0062608
-0.00688674
-0.00778698
-0.00910878
-0.0111204
-0.0143063
-0.0194752
-0.0275525
-0.0383519
-0.0466149
-0.0472053
-0.039082
-0.02972
-0.0183652
-0.00572613
-0.00581872
-0.00584731
-0.00595842
-0.00615678
-0.00647391
-0.0069439
-0.00761981
-0.00858743
-0.00998403
-0.0120531
-0.0152468
-0.0201274
-0.0273961
-0.0368072
-0.043256
-0.0441187
-0.0370573
-0.0311425
-0.020729
-0.00645608
-0.00654817
-0.00651764
-0.0065826
-0.0067334
-0.00701289
-0.00745441
-0.00810548
-0.00904129
-0.0103704
-0.0122435
-0.0150439
-0.0191531
-0.0247241
-0.0315958
-0.0360642
-0.0365735
-0.0304828
-0.0277533
-0.0174141
-0.00729978
-0.00719261
-0.00702104
-0.00695029
-0.00702488
-0.00725941
-0.00766675
-0.0082717
-0.0091324
-0.010289
-0.0119325
-0.0142024
-0.0173411
-0.0212498
-0.0258338
-0.0283643
-0.0284099
-0.0229817
-0.0221611
-0.00813455
-0.00774362
-0.00812839
-0.00776269
-0.00769885
-0.00762236
-0.00770084
-0.00794588
-0.00838961
-0.00907943
-0.0100529
-0.0114231
-0.0132519
-0.015671
-0.0184487
-0.0215351
-0.0228627
-0.0223937
-0.0171644
-0.0148816
0.00979997
-0.0111142
-0.00854245
-0.00781506
-0.00711747
-0.00695486
-0.00705808
-0.00737247
-0.0078595
-0.00854634
-0.00945076
-0.010674
-0.0122281
-0.0142359
-0.0163665
-0.018553
-0.0190175
-0.0177538
-0.0108692
-0.00182364
0.0413857
-0.0077054
-0.0106371
-0.00942214
-0.00931457
-0.00875625
-0.00844466
-0.00833325
-0.00844484
-0.00883361
-0.00948428
-0.0105141
-0.011869
-0.0137919
-0.0158599
-0.0182332
-0.01848
-0.016382
-0.00268915
0.0218194
0.0982859
-0.0329508
-0.00779466
-0.00612478
-0.005277
-0.00500406
-0.00515371
-0.00560838
-0.00618095
-0.00696221
-0.0078743
-0.00914578
-0.0106012
-0.012425
-0.0138629
-0.0145853
-0.0109189
-8.2e-05
0.033864
0.099286
0.229476
)
;

boundaryField
{
    movingWall
    {
        type            zeroGradient;
    }
    fixedWalls
    {
        type            zeroGradient;
    }
    frontAndBack
    {
        type            empty;
    }
}


// ************************************************************************* //
