/*--------------------------------*- C++ -*----------------------------------*\
  =========                 |
  \\      /  F ield         | OpenFOAM: The Open Source CFD Toolbox
   \\    /   O peration     | Website:  https://openfoam.org
    \\  /    A nd           | Version:  10
     \\/     M anipulation  |
\*---------------------------------------------------------------------------*/
FoamFile
{
    format      ascii;
    class       volVectorField;
    location    "9.275";
    object      U;
}
// * * * * * * * * * * * * * * * * * * * * * * * * * * * * * * * * * * * * * //

dimensions      [0 1 -1 0 0 0 0];

internalField   nonuniform List<vector> 
400
(
(-0.000168723 0.000145583 0)
(-0.00126983 0.000467708 0)
(-0.00313608 0.000584971 0)
(-0.00505855 0.000625732 0)
(-0.00706205 0.000650479 0)
(-0.00910985 0.000678586 0)
(-0.0111921 0.000709304 0)
(-0.0132881 0.000734149 0)
(-0.0153492 0.000740497 0)
(-0.0172915 0.000711189 0)
(-0.0189867 0.000624653 0)
(-0.0202548 0.000457292 0)
(-0.0208667 0.00018941 0)
(-0.0205549 -0.000198898 0)
(-0.0190668 -0.000685375 0)
(-0.0162577 -0.00120107 0)
(-0.0122441 -0.00160848 0)
(-0.00756738 -0.00172268 0)
(-0.00275105 -0.00136703 0)
(-0.000170898 -0.000369688 0)
(-0.000556158 0.00129844 0)
(-0.00289249 0.00270957 0)
(-0.00647761 0.00324454 0)
(-0.0101744 0.00343698 0)
(-0.0139878 0.003522 0)
(-0.0178284 0.00357621 0)
(-0.0216472 0.00359901 0)
(-0.0253812 0.00355721 0)
(-0.0289276 0.00339988 0)
(-0.0321315 0.00306072 0)
(-0.034775 0.00246174 0)
(-0.0365702 0.00152123 0)
(-0.0371815 0.000169997 0)
(-0.0362252 -0.00160672 0)
(-0.0333427 -0.00369963 0)
(-0.0283542 -0.00582428 0)
(-0.0214646 -0.00745816 0)
(-0.0135024 -0.00789625 0)
(-0.00534168 -0.00647166 0)
(-0.000648308 -0.00250705 0)
(-0.000733099 0.00339254 0)
(-0.00366163 0.0064011 0)
(-0.00806577 0.00754049 0)
(-0.0125761 0.00793868 0)
(-0.0171993 0.00807577 0)
(-0.0218265 0.00810801 0)
(-0.0263974 0.00803845 0)
(-0.0308403 0.00780419 0)
(-0.0350426 0.00730623 0)
(-0.0388362 0.00641623 0)
(-0.0419851 0.00498412 0)
(-0.0441778 0.00285581 0)
(-0.0450207 -9.27296e-05 0)
(-0.0440359 -0.00386943 0)
(-0.0407427 -0.00828666 0)
(-0.0348136 -0.0127781 0)
(-0.0263644 -0.0162751 0)
(-0.0163863 -0.017229 0)
(-0.00615238 -0.0141725 0)
(-0.000581958 -0.00586129 0)
(-0.000792655 0.00564679 0)
(-0.00397052 0.0103764 0)
(-0.00873832 0.0121393 0)
(-0.0136037 0.0127319 0)
(-0.0185892 0.0129097 0)
(-0.023589 0.012916 0)
(-0.0285558 0.0127605 0)
(-0.0334359 0.0123541 0)
(-0.0381386 0.0115524 0)
(-0.0425186 0.0101639 0)
(-0.0463532 0.00795552 0)
(-0.0493206 0.00467623 0)
(-0.0509722 0.00011377 0)
(-0.0507147 -0.00581057 0)
(-0.0478217 -0.0129051 0)
(-0.0415888 -0.0203519 0)
(-0.031754 -0.0264003 0)
(-0.0193433 -0.0281909 0)
(-0.00638683 -0.0228665 0)
(-0.000121041 -0.00900416 0)
(-0.000793987 0.00799806 0)
(-0.00404789 0.0145444 0)
(-0.00895888 0.0169628 0)
(-0.0139756 0.0177656 0)
(-0.0191397 0.018007 0)
(-0.0243626 0.0180281 0)
(-0.0296267 0.0178519 0)
(-0.034917 0.0173694 0)
(-0.0401905 0.016395 0)
(-0.0453551 0.0146716 0)
(-0.0502352 0.0118681 0)
(-0.0545221 0.0075928 0)
(-0.0577183 0.00145791 0)
(-0.0590932 -0.0068045 0)
(-0.0575721 -0.0171543 0)
(-0.0517967 -0.0286506 0)
(-0.0405958 -0.038725 0)
(-0.0245032 -0.0423243 0)
(-0.00675639 -0.0336142 0)
(0.000729947 -0.0119321 0)
(-0.000767941 0.0103491 0)
(-0.00401306 0.0187693 0)
(-0.00896126 0.0218757 0)
(-0.0140363 0.0229169 0)
(-0.0192976 0.0232661 0)
(-0.0246817 0.0233755 0)
(-0.0302131 0.0232943 0)
(-0.035933 0.0229052 0)
(-0.0418712 0.021992 0)
(-0.0480253 0.0202367 0)
(-0.0543187 0.0171995 0)
(-0.0605252 0.0123079 0)
(-0.0661777 0.00488876 0)
(-0.0704992 -0.00571129 0)
(-0.072057 -0.0198454 0)
(-0.0684563 -0.0369563 0)
(-0.056549 -0.0538475 0)
(-0.0350628 -0.06182 0)
(-0.00876484 -0.0481276 0)
(0.00193344 -0.014588 0)
(-0.000726295 0.0126476 0)
(-0.00391564 0.0229754 0)
(-0.00884072 0.0268012 0)
(-0.0139152 0.0281135 0)
(-0.0192135 0.0286232 0)
(-0.0247001 0.0289108 0)
(-0.0304487 0.0290686 0)
(-0.0365722 0.0289922 0)
(-0.0431999 0.0284582 0)
(-0.0504648 0.0271099 0)
(-0.0584697 0.0244138 0)
(-0.0672147 0.0196126 0)
(-0.0764898 0.0116944 0)
(-0.0856897 -0.000578123 0)
(-0.0932449 -0.018541 0)
(-0.0951643 -0.0432948 0)
(-0.0842799 -0.0719779 0)
(-0.0560095 -0.0899774 0)
(-0.017136 -0.070295 0)
(0.0026836 -0.0184853 0)
(-0.000672266 0.0148628 0)
(-0.00377198 0.0271179 0)
(-0.00862672 0.0316887 0)
(-0.0136423 0.0332977 0)
(-0.0189027 0.034013 0)
(-0.0243986 0.0345635 0)
(-0.0302535 0.0351074 0)
(-0.0366595 0.0355829 0)
(-0.0438678 0.0358013 0)
(-0.052196 0.0354255 0)
(-0.0620228 0.0339028 0)
(-0.0737706 0.0303826 0)
(-0.0878557 0.0236042 0)
(-0.104419 0.0115208 0)
(-0.121973 -0.00954165 0)
(-0.133321 -0.0444671 0)
(-0.124977 -0.0926706 0)
(-0.0910493 -0.129148 0)
(-0.0412223 -0.106485 0)
(-3.47824e-05 -0.0292754 0)
(-0.000607986 0.0169689 0)
(-0.00359141 0.0311591 0)
(-0.00833213 0.0364867 0)
(-0.0132201 0.0383972 0)
(-0.0183414 0.0393368 0)
(-0.023705 0.0402058 0)
(-0.0294763 0.0412544 0)
(-0.0359198 0.0425007 0)
(-0.0434083 0.0438501 0)
(-0.0524683 0.0450832 0)
(-0.0638402 0.0457938 0)
(-0.0785666 0.0452969 0)
(-0.0981319 0.042342 0)
(-0.123874 0.0336655 0)
(-0.153178 0.0109288 0)
(-0.173762 -0.0386305 0)
(-0.168226 -0.114882 0)
(-0.136061 -0.175327 0)
(-0.0850625 -0.160347 0)
(-0.0116481 -0.0578502 0)
(-0.000539009 0.0189473 0)
(-0.00339272 0.0350681 0)
(-0.00798377 0.0411404 0)
(-0.0126675 0.0433222 0)
(-0.0175243 0.0444589 0)
(-0.0225671 0.0456456 0)
(-0.0279842 0.0472498 0)
(-0.0340865 0.0494092 0)
(-0.041333 0.052193 0)
(-0.0504147 0.055628 0)
(-0.0623792 0.0596826 0)
(-0.0788008 0.0641343 0)
(-0.102048 0.0677376 0)
(-0.134138 0.0648423 0)
(-0.170541 0.0395594 0)
(-0.194212 -0.0283928 0)
(-0.191472 -0.133757 0)
(-0.169849 -0.218603 0)
(-0.126815 -0.229106 0)
(-0.0331216 -0.11998 0)
(-0.000477189 0.0207962 0)
(-0.00321433 0.0388273 0)
(-0.00764082 0.0455902 0)
(-0.0120468 0.0479597 0)
(-0.0165021 0.0492009 0)
(-0.0210044 0.0506209 0)
(-0.0257357 0.0527176 0)
(-0.0310021 0.0557712 0)
(-0.0372616 0.0600649 0)
(-0.045224 0.0659727 0)
(-0.0560033 0.0740009 0)
(-0.0712072 0.0844498 0)
(-0.0928736 0.0954146 0)
(-0.122458 0.097364 0)
(-0.154028 0.0676154 0)
(-0.172602 -0.0157243 0)
(-0.172573 -0.140869 0)
(-0.161581 -0.250327 0)
(-0.135181 -0.302352 0)
(-0.0493388 -0.221826 0)
(-0.000447126 0.0225549 0)
(-0.00313309 0.0424822 0)
(-0.00741932 0.0498479 0)
(-0.0114865 0.0522644 0)
(-0.0154076 0.0534355 0)
(-0.0191505 0.0548939 0)
(-0.0228611 0.057266 0)
(-0.0267771 0.0609605 0)
(-0.0312355 0.0664574 0)
(-0.0367292 0.0744385 0)
(-0.043982 0.0858215 0)
(-0.0538709 0.101071 0)
(-0.0670929 0.117102 0)
(-0.0844064 0.120903 0)
(-0.101582 0.0871362 0)
(-0.111125 -0.00508451 0)
(-0.11434 -0.136125 0)
(-0.113952 -0.260197 0)
(-0.11279 -0.349223 0)
(-0.0449629 -0.319863 0)
(-0.000480039 0.0242763 0)
(-0.0032367 0.0459862 0)
(-0.00746702 0.0537075 0)
(-0.0111839 0.0559194 0)
(-0.0144824 0.0567927 0)
(-0.0172886 0.0580413 0)
(-0.0197062 0.0603595 0)
(-0.0218661 0.0642244 0)
(-0.0239025 0.0701996 0)
(-0.0259518 0.0790603 0)
(-0.0281321 0.0917742 0)
(-0.0303672 0.108576 0)
(-0.03228 0.125857 0)
(-0.0343098 0.129424 0)
(-0.036581 0.095171 0)
(-0.037887 0.00145081 0)
(-0.0466049 -0.123327 0)
(-0.0576866 -0.247918 0)
(-0.0815517 -0.363871 0)
(-0.0308523 -0.385945 0)
(-0.000686286 0.0262965 0)
(-0.0038315 0.0499959 0)
(-0.00813811 0.0579912 0)
(-0.0114158 0.0597737 0)
(-0.0139549 0.0599429 0)
(-0.0157034 0.0604797 0)
(-0.0167078 0.0621606 0)
(-0.0169737 0.0654775 0)
(-0.016444 0.0709578 0)
(-0.014915 0.0792571 0)
(-0.0120219 0.0911253 0)
(-0.00689457 0.106451 0)
(0.00112581 0.12204 0)
(0.0123595 0.124905 0)
(0.0206356 0.0936398 0)
(0.0256869 0.00734801 0)
(0.00954333 -0.10609 0)
(-0.0114143 -0.222362 0)
(-0.0566872 -0.36157 0)
(-0.020034 -0.434041 0)
(-0.0010271 0.0288041 0)
(-0.00459648 0.0531774 0)
(-0.00933379 0.0603808 0)
(-0.012462 0.0609638 0)
(-0.0144609 0.0603037 0)
(-0.0151775 0.0602116 0)
(-0.0147302 0.0612795 0)
(-0.0130977 0.0638273 0)
(-0.0101304 0.0682327 0)
(-0.00542503 0.0749047 0)
(0.00157517 0.0843132 0)
(0.0121351 0.0960505 0)
(0.0266347 0.107509 0)
(0.0456903 0.108908 0)
(0.0602628 0.0831808 0)
(0.0698447 0.0129421 0)
(0.0487434 -0.0833255 0)
(0.0253418 -0.185002 0)
(-0.0385651 -0.34398 0)
(-0.00928856 -0.466793 0)
(-0.00311294 0.0307903 0)
(-0.00904735 0.0599403 0)
(-0.0130689 0.0669929 0)
(-0.0150768 0.0669093 0)
(-0.0155984 0.0643923 0)
(-0.0149727 0.0623199 0)
(-0.0131818 0.0613989 0)
(-0.0100461 0.0619316 0)
(-0.00529214 0.0641539 0)
(0.00164936 0.0681961 0)
(0.0113259 0.0742955 0)
(0.0248284 0.0818137 0)
(0.0419336 0.0886421 0)
(0.0638801 0.0881367 0)
(0.0802918 0.0694233 0)
(0.0930937 0.0183661 0)
(0.0699631 -0.0557358 0)
(0.047416 -0.141949 0)
(-0.0276406 -0.322954 0)
(0.00225186 -0.490284 0)
(-0.00092155 0.0440653 0)
(-0.00742155 0.0611188 0)
(-0.0164861 0.0638388 0)
(-0.0184241 0.060119 0)
(-0.0191924 0.0570936 0)
(-0.0177126 0.0551032 0)
(-0.0147263 0.0541464 0)
(-0.0100915 0.0541197 0)
(-0.00366983 0.0551062 0)
(0.00512448 0.0571206 0)
(0.0166736 0.0603607 0)
(0.0317186 0.0642182 0)
(0.0493632 0.0673849 0)
(0.0717149 0.0656552 0)
(0.0872071 0.052892 0)
(0.101777 0.0197676 0)
(0.0786997 -0.032705 0)
(0.0627811 -0.102714 0)
(-0.0102557 -0.300606 0)
(0.0207181 -0.500126 0)
(-0.0125743 0.0321777 0)
(-0.0230191 0.080591 0)
(-0.0205667 0.0808589 0)
(-0.0243755 0.0759544 0)
(-0.023721 0.0685311 0)
(-0.0212446 0.0624149 0)
(-0.0166586 0.057573 0)
(-0.0101292 0.0539007 0)
(-0.0017264 0.0514031 0)
(0.00899771 0.0498681 0)
(0.0219393 0.0494044 0)
(0.0377816 0.0493668 0)
(0.0546642 0.0499761 0)
(0.0758772 0.0481973 0)
(0.0885912 0.0423619 0)
(0.105871 0.0258294 0)
(0.0893559 -0.00633966 0)
(0.097975 -0.0634054 0)
(0.0391517 -0.272861 0)
(0.0569472 -0.488635 0)
(-0.0776856 0.0957645 0)
(-0.0632282 0.0587377 0)
(-0.0650526 0.0600362 0)
(-0.0422938 0.0534306 0)
(-0.0242899 0.0464444 0)
(-0.00344427 0.0412718 0)
(0.0162357 0.0375083 0)
(0.0363281 0.0343277 0)
(0.0549969 0.0320349 0)
(0.075353 0.0299762 0)
(0.0930853 0.0288328 0)
(0.115712 0.0276819 0)
(0.131483 0.0269096 0)
(0.159974 0.0255547 0)
(0.169316 0.0200004 0)
(0.202485 0.0110395 0)
(0.189694 -0.021557 0)
(0.221616 -0.0735857 0)
(0.1537 -0.251534 0)
(0.124639 -0.432796 0)
(0.119343 0.14072 0)
(0.151865 0.085997 0)
(0.228275 0.0634394 0)
(0.283755 0.0480043 0)
(0.325224 0.0373955 0)
(0.363568 0.0296514 0)
(0.392343 0.0242535 0)
(0.423591 0.0201912 0)
(0.443613 0.0173134 0)
(0.472207 0.0150011 0)
(0.485142 0.0133139 0)
(0.514484 0.0119382 0)
(0.520024 0.0108224 0)
(0.552103 0.00949725 0)
(0.546903 0.00748637 0)
(0.578629 0.00301438 0)
(0.546733 -0.00582292 0)
(0.552365 -0.026857 0)
(0.419312 -0.0729821 0)
(0.274837 -0.151631 0)
)
;

boundaryField
{
    movingWall
    {
        type            fixedValue;
        value           uniform (1 0 0);
    }
    fixedWalls
    {
        type            noSlip;
    }
    frontAndBack
    {
        type            empty;
    }
}


// ************************************************************************* //
