/*--------------------------------*- C++ -*----------------------------------*\
  =========                 |
  \\      /  F ield         | OpenFOAM: The Open Source CFD Toolbox
   \\    /   O peration     | Website:  https://openfoam.org
    \\  /    A nd           | Version:  10
     \\/     M anipulation  |
\*---------------------------------------------------------------------------*/
FoamFile
{
    format      ascii;
    class       volVectorField;
    location    "3.05";
    object      U;
}
// * * * * * * * * * * * * * * * * * * * * * * * * * * * * * * * * * * * * * //

dimensions      [0 1 -1 0 0 0 0];

internalField   nonuniform List<vector> 
400
(
(-0.000189054 0.000186858 0)
(-0.000999928 0.00038705 0)
(-0.00216461 0.000415772 0)
(-0.00323164 0.000401549 0)
(-0.00424436 0.000374986 0)
(-0.00517063 0.000340119 0)
(-0.00598628 0.000296961 0)
(-0.00667013 0.00024517 0)
(-0.00720102 0.000184581 0)
(-0.00755853 0.000115342 0)
(-0.00772373 3.80648e-05 0)
(-0.00767963 -4.6516e-05 0)
(-0.00741297 -0.000136696 0)
(-0.00691639 -0.000229667 0)
(-0.00618993 -0.000321769 0)
(-0.00524279 -0.000408382 0)
(-0.00409842 -0.00048334 0)
(-0.00280921 -0.00053518 0)
(-0.00134549 -0.000522206 0)
(-0.000276548 -0.000282553 0)
(-0.000402256 0.0010027 0)
(-0.00178956 0.0017387 0)
(-0.00364979 0.00183135 0)
(-0.0053634 0.00175687 0)
(-0.00697769 0.00162614 0)
(-0.00844202 0.00145651 0)
(-0.0097175 0.0012505 0)
(-0.0107713 0.00100908 0)
(-0.0115723 0.000733598 0)
(-0.0120918 0.000426183 0)
(-0.0123047 8.98659e-05 0)
(-0.0121895 -0.000270823 0)
(-0.01173 -0.000647136 0)
(-0.0109192 -0.00102848 0)
(-0.00976086 -0.00140093 0)
(-0.00827174 -0.00174682 0)
(-0.00648943 -0.00204279 0)
(-0.00448898 -0.00224511 0)
(-0.00224252 -0.00220419 0)
(-0.00051878 -0.00133456 0)
(-0.000458958 0.00222878 0)
(-0.00201537 0.00363913 0)
(-0.00408556 0.00380172 0)
(-0.00598913 0.00363659 0)
(-0.00778007 0.00335475 0)
(-0.00940348 0.00299133 0)
(-0.0108174 0.00255326 0)
(-0.0119866 0.00204434 0)
(-0.0128778 0.00146879 0)
(-0.0134606 0.000831943 0)
(-0.0137078 0.000140888 0)
(-0.0135937 -0.000594447 0)
(-0.013099 -0.00135841 0)
(-0.0122147 -0.00212993 0)
(-0.0109415 -0.0028814 0)
(-0.0092942 -0.00357816 0)
(-0.0073107 -0.00417432 0)
(-0.00507256 -0.00458368 0)
(-0.00254708 -0.0045206 0)
(-0.00059481 -0.00286059 0)
(-0.000485978 0.00346097 0)
(-0.00214218 0.00557024 0)
(-0.00434715 0.00580301 0)
(-0.0063726 0.00554571 0)
(-0.00828053 0.00511309 0)
(-0.0100141 0.00455755 0)
(-0.0115304 0.0038899 0)
(-0.0127934 0.00311631 0)
(-0.0137686 0.00224311 0)
(-0.0144236 0.00127801 0)
(-0.0147288 0.00023142 0)
(-0.0146546 -0.000882107 0)
(-0.0141748 -0.0020427 0)
(-0.0132724 -0.00322011 0)
(-0.0119405 -0.00437346 0)
(-0.010187 -0.00544981 0)
(-0.00804537 -0.00637781 0)
(-0.00560214 -0.00702332 0)
(-0.00281959 -0.0069514 0)
(-0.000658479 -0.00445275 0)
(-0.000517383 0.0047752 0)
(-0.00229062 0.00763349 0)
(-0.00465592 0.00794114 0)
(-0.00682813 0.00758729 0)
(-0.0088782 0.00699752 0)
(-0.0107473 0.00624262 0)
(-0.012392 0.00533749 0)
(-0.0137759 0.00429038 0)
(-0.0148636 0.0031092 0)
(-0.0156206 0.00180287 0)
(-0.016013 0.000383073 0)
(-0.0160062 -0.0011332 0)
(-0.0155652 -0.0027221 0)
(-0.014661 -0.00434642 0)
(-0.0132731 -0.00595309 0)
(-0.0113959 -0.00746917 0)
(-0.00905334 -0.00879217 0)
(-0.00633653 -0.00972824 0)
(-0.00320241 -0.00966771 0)
(-0.000749676 -0.0062386 0)
(-0.000558855 0.00619054 0)
(-0.00248349 0.00986226 0)
(-0.00505503 0.0102514 0)
(-0.00741586 0.00979581 0)
(-0.00964799 0.0090415 0)
(-0.0116905 0.00807933 0)
(-0.0134997 0.00692856 0)
(-0.0150395 0.00559931 0)
(-0.0162743 0.00410019 0)
(-0.0171676 0.00243985 0)
(-0.0176819 0.000629023 0)
(-0.0177757 -0.00131638 0)
(-0.0174026 -0.00337235 0)
(-0.0165164 -0.00549731 0)
(-0.0150766 -0.00762774 0)
(-0.0130551 -0.00966982 0)
(-0.0104563 -0.0114827 0)
(-0.00737226 -0.0127951 0)
(-0.00375112 -0.0127826 0)
(-0.000883497 -0.00830021 0)
(-0.000611586 0.00773378 0)
(-0.00272675 0.0122987 0)
(-0.00555616 0.0127768 0)
(-0.00815111 0.012212 0)
(-0.0106078 0.0112833 0)
(-0.012863 0.010104 0)
(-0.0148741 0.00869834 0)
(-0.0166063 0.00707811 0)
(-0.0180251 0.00525168 0)
(-0.0190936 0.00322545 0)
(-0.0197709 0.00100615 0)
(-0.0200091 -0.00139538 0)
(-0.0197476 -0.00396102 0)
(-0.018918 -0.00665078 0)
(-0.01745 -0.00939581 0)
(-0.015279 -0.0120827 0)
(-0.0123734 -0.0145248 0)
(-0.00881384 -0.0163471 0)
(-0.00453187 -0.0164484 0)
(-0.00107966 -0.010755 0)
(-0.000676577 0.00943637 0)
(-0.00302545 0.0149921 0)
(-0.00616896 0.0155662 0)
(-0.00904563 0.014881 0)
(-0.0117699 0.0137644 0)
(-0.0142769 0.0123552 0)
(-0.0165261 0.0106838 0)
(-0.0184866 0.00876404 0)
(-0.0201273 0.00660302 0)
(-0.0214134 0.00420273 0)
(-0.0223029 0.00156211 0)
(-0.022743 -0.00131885 0)
(-0.0226581 -0.00443647 0)
(-0.0219518 -0.00776231 0)
(-0.0205133 -0.0112331 0)
(-0.0182209 -0.0147232 0)
(-0.0149772 -0.0179957 0)
(-0.0108226 -0.0205384 0)
(-0.00565661 -0.0208718 0)
(-0.00137549 -0.0137758 0)
(-0.00075561 0.0113331 0)
(-0.00338708 0.0179968 0)
(-0.00690682 0.0186719 0)
(-0.0101149 0.0178492 0)
(-0.0131497 0.0165255 0)
(-0.0159451 0.0148698 0)
(-0.0184657 0.0129203 0)
(-0.0206875 0.0106934 0)
(-0.0225867 0.00819484 0)
(-0.0241347 0.00541986 0)
(-0.0252926 0.00235542 0)
(-0.0260077 -0.00101592 0)
(-0.0261911 -0.00471849 0)
(-0.0257152 -0.0087495 0)
(-0.0244172 -0.0130721 0)
(-0.0220916 -0.0175682 0)
(-0.0185275 -0.0219571 0)
(-0.0136605 -0.0255539 0)
(-0.00732963 -0.0263349 0)
(-0.00184786 -0.0176329 0)
(-0.000852005 0.0134645 0)
(-0.00382371 0.0213741 0)
(-0.00778982 0.0221502 0)
(-0.0113812 0.0211636 0)
(-0.0147678 0.0196056 0)
(-0.0178839 0.0176809 0)
(-0.020703 0.0154383 0)
(-0.0232125 0.0128987 0)
(-0.0254013 0.0100662 0)
(-0.0272532 0.00692792 0)
(-0.028739 0.00345382 0)
(-0.0298171 -0.000402622 0)
(-0.0303919 -0.00469085 0)
(-0.0303064 -0.00947465 0)
(-0.0293407 -0.0147742 0)
(-0.0271746 -0.0205196 0)
(-0.0234168 -0.0264198 0)
(-0.0177658 -0.0315991 0)
(-0.00994802 -0.033229 0)
(-0.00266605 -0.0227875 0)
(-0.000972033 0.0158807 0)
(-0.00435525 0.0251963 0)
(-0.00884879 0.0260626 0)
(-0.0128771 0.0248713 0)
(-0.0166531 0.0230396 0)
(-0.0201145 0.0208149 0)
(-0.0232486 0.0182604 0)
(-0.0260603 0.0154038 0)
(-0.0285582 0.0122494 0)
(-0.0307478 0.0087763 0)
(-0.0326238 0.00493547 0)
(-0.0341528 0.000646505 0)
(-0.0352638 -0.0041887 0)
(-0.0358002 -0.00972211 0)
(-0.035475 -0.0160863 0)
(-0.0338352 -0.0233388 0)
(-0.0302328 -0.0312693 0)
(-0.0238917 -0.0388429 0)
(-0.0143351 -0.0420854 0)
(-0.00422476 -0.0300916 0)
(-0.00112792 0.0186493 0)
(-0.00501544 0.0295505 0)
(-0.0101317 0.0304767 0)
(-0.0146512 0.0290178 0)
(-0.0188468 0.0268554 0)
(-0.0226656 0.0242871 0)
(-0.0261152 0.0213951 0)
(-0.0292246 0.0182172 0)
(-0.0320299 0.0147612 0)
(-0.0345682 0.0110016 0)
(-0.03687 0.00687361 0)
(-0.0389424 0.00226512 0)
(-0.0407623 -0.00299782 0)
(-0.0422077 -0.00917887 0)
(-0.0429787 -0.0165857 0)
(-0.0425063 -0.025537 0)
(-0.0398266 -0.036103 0)
(-0.0333577 -0.0472376 0)
(-0.0222639 -0.053485 0)
(-0.00748403 -0.0413218 0)
(-0.00134554 0.0218703 0)
(-0.00586417 0.0345533 0)
(-0.0117133 0.0354683 0)
(-0.0167751 0.0336441 0)
(-0.0214081 0.031069 0)
(-0.0255776 0.0280962 0)
(-0.0293199 0.0248305 0)
(-0.0326956 0.0213236 0)
(-0.0357752 0.0175914 0)
(-0.0386368 0.0136105 0)
(-0.041362 0.00930767 0)
(-0.0440264 0.0045398 0)
(-0.0467113 -0.000936449 0)
(-0.0493966 -0.00746297 0)
(-0.0518735 -0.0156187 0)
(-0.0535998 -0.0261889 0)
(-0.0533364 -0.039881 0)
(-0.0483637 -0.0560539 0)
(-0.0374464 -0.0678218 0)
(-0.0148399 -0.0602634 0)
(-0.00167644 0.0256225 0)
(-0.00701784 0.0403174 0)
(-0.0137198 0.041117 0)
(-0.0193557 0.038794 0)
(-0.0244201 0.0356872 0)
(-0.0289071 0.0322201 0)
(-0.0328894 0.0285265 0)
(-0.036465 0.0246738 0)
(-0.039744 0.0206896 0)
(-0.0428527 0.0165634 0)
(-0.0459414 0.0122384 0)
(-0.0491879 0.00758863 0)
(-0.0527679 0.00236208 0)
(-0.0569019 -0.00391279 0)
(-0.0617767 -0.0121032 0)
(-0.0671935 -0.0235965 0)
(-0.0719277 -0.0402486 0)
(-0.0720236 -0.0630771 0)
(-0.065622 -0.0845915 0)
(-0.0299444 -0.0938966 0)
(-0.00214149 0.0306332 0)
(-0.00849299 0.0469192 0)
(-0.0162732 0.0472525 0)
(-0.0225314 0.0441506 0)
(-0.0280069 0.0404424 0)
(-0.0327409 0.0364786 0)
(-0.0368659 0.0323638 0)
(-0.040529 0.0281683 0)
(-0.0438772 0.0239479 0)
(-0.0470726 0.0197282 0)
(-0.0503111 0.0154924 0)
(-0.0538635 0.0111486 0)
(-0.0581551 0.00649502 0)
(-0.0637866 0.00105046 0)
(-0.0715313 -0.00609456 0)
(-0.082171 -0.0167095 0)
(-0.0954197 -0.0341125 0)
(-0.105045 -0.0637845 0)
(-0.107193 -0.102332 0)
(-0.04808 -0.155153 0)
(-0.0039087 0.0350052 0)
(-0.0121064 0.0560565 0)
(-0.019994 0.0556813 0)
(-0.0265366 0.0518259 0)
(-0.0321241 0.0469295 0)
(-0.0369852 0.041821 0)
(-0.0411739 0.0367777 0)
(-0.0448184 0.0319304 0)
(-0.0480733 0.0273442 0)
(-0.0511385 0.023052 0)
(-0.0542819 0.0191108 0)
(-0.0578617 0.0155581 0)
(-0.0624289 0.0124457 0)
(-0.0688789 0.00964095 0)
(-0.078599 0.00649849 0)
(-0.0935069 0.000790733 0)
(-0.115101 -0.0134111 0)
(-0.132169 -0.055641 0)
(-0.141943 -0.131589 0)
(-0.0446373 -0.258048 0)
(-0.00214332 0.049341 0)
(-0.0113012 0.0603142 0)
(-0.0240962 0.0585981 0)
(-0.0314324 0.0530765 0)
(-0.037877 0.0481856 0)
(-0.0426442 0.0433394 0)
(-0.0462713 0.0385788 0)
(-0.0491278 0.0339242 0)
(-0.0514895 0.0294673 0)
(-0.0535551 0.0252865 0)
(-0.0555371 0.0215893 0)
(-0.0577053 0.0185317 0)
(-0.0605965 0.0165793 0)
(-0.0651651 0.0160287 0)
(-0.0731731 0.0171429 0)
(-0.086558 0.0163322 0)
(-0.112405 0.00557654 0)
(-0.124704 -0.0544739 0)
(-0.138188 -0.182676 0)
(-0.0107612 -0.367895 0)
(-0.0110507 0.0415132 0)
(-0.0277724 0.0848257 0)
(-0.0300693 0.0792854 0)
(-0.0384851 0.0720597 0)
(-0.0421661 0.0631313 0)
(-0.044367 0.0545102 0)
(-0.0451499 0.0466681 0)
(-0.0451361 0.0397385 0)
(-0.0446714 0.0337483 0)
(-0.0439248 0.0285944 0)
(-0.0432418 0.0245389 0)
(-0.0425788 0.0217543 0)
(-0.0424685 0.0210631 0)
(-0.0424451 0.0234873 0)
(-0.0444747 0.0304193 0)
(-0.0426611 0.0362323 0)
(-0.0538856 0.0334673 0)
(-0.0356567 -0.0439884 0)
(-0.0638234 -0.223752 0)
(0.0332354 -0.427479 0)
(-0.0739573 0.104623 0)
(-0.0577945 0.0665942 0)
(-0.0580283 0.0629991 0)
(-0.0389071 0.0547223 0)
(-0.0227655 0.046267 0)
(-0.00611851 0.0393347 0)
(0.00911078 0.0336802 0)
(0.0229315 0.0287697 0)
(0.0348242 0.0246366 0)
(0.0456627 0.020799 0)
(0.0544407 0.0181267 0)
(0.0633639 0.0156521 0)
(0.0703224 0.0152658 0)
(0.081156 0.0150099 0)
(0.0867084 0.0173665 0)
(0.117811 0.0150266 0)
(0.110561 0.000146694 0)
(0.168551 -0.0587418 0)
(0.104484 -0.24428 0)
(0.108697 -0.421737 0)
(0.121987 0.141376 0)
(0.158547 0.0881892 0)
(0.239293 0.065613 0)
(0.295646 0.0501121 0)
(0.339669 0.0390725 0)
(0.376239 0.0307549 0)
(0.406049 0.0245138 0)
(0.432166 0.0195017 0)
(0.451394 0.0157714 0)
(0.471806 0.0126434 0)
(0.481422 0.0100717 0)
(0.501425 0.00878671 0)
(0.501005 0.00603051 0)
(0.526463 0.00728488 0)
(0.514089 0.00292221 0)
(0.548632 0.00369147 0)
(0.515207 -0.0048587 0)
(0.538029 -0.0287306 0)
(0.408232 -0.0663929 0)
(0.272788 -0.148592 0)
)
;

boundaryField
{
    movingWall
    {
        type            fixedValue;
        value           uniform (1 0 0);
    }
    fixedWalls
    {
        type            noSlip;
    }
    frontAndBack
    {
        type            empty;
    }
}


// ************************************************************************* //
