/*--------------------------------*- C++ -*----------------------------------*\
  =========                 |
  \\      /  F ield         | OpenFOAM: The Open Source CFD Toolbox
   \\    /   O peration     | Website:  https://openfoam.org
    \\  /    A nd           | Version:  10
     \\/     M anipulation  |
\*---------------------------------------------------------------------------*/
FoamFile
{
    format      ascii;
    class       volScalarField;
    location    "6.35";
    object      p;
}
// * * * * * * * * * * * * * * * * * * * * * * * * * * * * * * * * * * * * * //

dimensions      [0 2 -2 0 0 0 0];

internalField   nonuniform List<scalar> 
400
(
3.1123e-07
-1.97252e-05
2.70416e-05
0.000117251
0.000257339
0.000448934
0.000694247
0.000995705
0.00135495
0.00177203
0.00224425
0.00276488
0.00332169
0.00389563
0.00445976
0.00497996
0.00541693
0.00573133
0.00591393
0.00589519
2.22882e-05
1.40952e-06
5.26638e-05
0.0001431
0.000280692
0.000467835
0.000707246
0.00100172
0.00135325
0.00176233
0.00222688
0.00274082
0.00329236
0.00386412
0.00442934
0.00495376
0.00539678
0.00571788
0.00590971
0.00588601
-3.04806e-05
-5.8364e-05
-8.84748e-06
7.80197e-05
0.000211028
0.000392859
0.000626802
0.000916519
0.00126517
0.00167461
0.00214438
0.00267025
0.00324314
0.00384534
0.00444934
0.00501755
0.00550306
0.00585607
0.00606671
0.00602583
-0.000138859
-0.000171786
-0.000125218
-4.36852e-05
8.2527e-05
0.000256563
0.000482601
0.000765609
0.00111052
0.00152149
0.00200076
0.00254703
0.00315343
0.00380562
0.00447501
0.00511926
0.00568042
0.00609153
0.00633755
0.0062753
-0.000308777
-0.000346372
-0.00030433
-0.000230215
-0.00011334
5.00323e-05
0.000265202
0.000538808
0.000878111
0.00129042
0.00178194
0.00235588
0.00300969
0.00373307
0.00449783
0.00525605
0.0059353
0.00644131
0.00674652
0.00665012
-0.000539415
-0.0005821
-0.000546273
-0.000482099
-0.000377963
-0.000229514
-3.02297e-05
0.000228414
0.000556425
0.000965007
0.00146569
0.00206799
0.00277518
0.00358969
0.0044824
0.00540235
0.00625848
0.00691579
0.00731946
0.00716379
-0.000828601
-0.00087728
-0.000849556
-0.000798471
-0.000711606
-0.000584138
-0.000408443
-0.000174149
0.000131656
0.000524621
0.00102291
0.00164607
0.00241194
0.0033191
0.0043671
0.00550414
0.00661886
0.00751841
0.00809287
0.00783593
-0.00117368
-0.00122955
-0.00121201
-0.00117771
-0.00111368
-0.00101502
-0.000873462
-0.000677245
-0.000410962
-5.47308e-05
0.000416441
0.00103272
0.00182639
0.00282269
0.00404172
0.00545029
0.00693196
0.00822576
0.00911215
0.00870077
-0.00157125
-0.00163563
-0.00163026
-0.00161662
-0.00158157
-0.00152081
-0.00142634
-0.00128614
-0.00108358
-0.000795922
-0.000392476
0.000167642
0.000936654
0.00197353
0.0033187
0.00500911
0.00697396
0.00891906
0.0103735
0.00983695
-0.00201709
-0.00209128
-0.00209945
-0.00210977
-0.00210958
-0.00209609
-0.00206286
-0.00199943
-0.0018906
-0.00171429
-0.00143853
-0.00101739
-0.00038585
0.000542353
0.00186592
0.00368907
0.00614287
0.0091083
0.0115869
0.0112417
-0.00250645
-0.00259153
-0.00261307
-0.002649
-0.0026879
-0.00272969
-0.00277116
-0.00280574
-0.00282316
-0.00280778
-0.00273602
-0.00257207
-0.00225984
-0.00171597
-0.000828974
0.000584414
0.0029993
0.00703821
0.0111524
0.0124004
-0.00303507
-0.00313142
-0.00316304
-0.00322292
-0.00330166
-0.00340307
-0.00352887
-0.00367894
-0.00385221
-0.00404659
-0.00425936
-0.00448889
-0.00473969
-0.00504752
-0.00552313
-0.00613058
-0.00577648
-0.00175898
0.00459011
0.00983445
-0.00360131
-0.00370872
-0.00374331
-0.00382079
-0.00393377
-0.00409193
-0.00430367
-0.00457721
-0.0049246
-0.00536494
-0.00593089
-0.00668358
-0.00774639
-0.00939116
-0.0122676
-0.0167355
-0.021119
-0.0183975
-0.0103201
0.000358745
-0.00420332
-0.0043128
-0.00433
-0.00440934
-0.00454562
-0.00475264
-0.00504274
-0.00543325
-0.0059502
-0.00663624
-0.00756672
-0.00888262
-0.010871
-0.0140566
-0.0196938
-0.0282557
-0.0385018
-0.0385686
-0.0301214
-0.0143915
-0.00487329
-0.00499579
-0.00497931
-0.0050476
-0.00517911
-0.00540167
-0.00573568
-0.00620677
-0.00685211
-0.00773151
-0.00895019
-0.0106908
-0.0133713
-0.0175974
-0.0250194
-0.0357137
-0.0493244
-0.0510368
-0.0435364
-0.0253592
-0.00569153
-0.00561932
-0.00549024
-0.00546456
-0.00556999
-0.00581298
-0.00619935
-0.00674457
-0.00748314
-0.00847571
-0.00983531
-0.0117296
-0.0146439
-0.0190003
-0.0266122
-0.0367671
-0.0489064
-0.0505678
-0.0444344
-0.0231547
-0.00618436
-0.00661752
-0.0063369
-0.00635931
-0.006367
-0.00650771
-0.00679799
-0.00727031
-0.00796149
-0.00891975
-0.0102511
-0.0120463
-0.0147821
-0.0187032
-0.0251044
-0.0328094
-0.041178
-0.0410886
-0.0339731
-0.00466425
-0.00955777
-0.00704809
-0.00643784
-0.00588515
-0.00584118
-0.00605411
-0.00646735
-0.00704707
-0.00781045
-0.00877733
-0.0100779
-0.0116674
-0.0140837
-0.0173028
-0.0220612
-0.0268784
-0.0314576
-0.0276423
-0.0147904
0.0310203
-0.00628378
-0.00928728
-0.00825546
-0.00830312
-0.00788909
-0.00768968
-0.00767497
-0.00788772
-0.00836056
-0.00907722
-0.0101462
-0.0115645
-0.0137797
-0.0166192
-0.0212071
-0.0250543
-0.0276543
-0.0151583
0.0126387
0.0912743
-0.0314536
-0.00644218
-0.00498238
-0.00426659
-0.00410068
-0.0043584
-0.00491868
-0.00560397
-0.00648877
-0.00748263
-0.00887263
-0.010483
-0.0127755
-0.015246
-0.0177891
-0.0169632
-0.00930537
0.0234176
0.0927893
0.226535
)
;

boundaryField
{
    movingWall
    {
        type            zeroGradient;
    }
    fixedWalls
    {
        type            zeroGradient;
    }
    frontAndBack
    {
        type            empty;
    }
}


// ************************************************************************* //
