/*--------------------------------*- C++ -*----------------------------------*\
  =========                 |
  \\      /  F ield         | OpenFOAM: The Open Source CFD Toolbox
   \\    /   O peration     | Website:  https://openfoam.org
    \\  /    A nd           | Version:  10
     \\/     M anipulation  |
\*---------------------------------------------------------------------------*/
FoamFile
{
    format      ascii;
    class       volVectorField;
    location    "5.425";
    object      U;
}
// * * * * * * * * * * * * * * * * * * * * * * * * * * * * * * * * * * * * * //

dimensions      [0 1 -1 0 0 0 0];

internalField   nonuniform List<vector> 
400
(
(-9.27945e-05 8.60779e-05 0)
(-0.000817217 0.00031317 0)
(-0.00204502 0.000385929 0)
(-0.00324765 0.000398319 0)
(-0.00444595 0.000394856 0)
(-0.00560134 0.000386526 0)
(-0.00669205 0.000372586 0)
(-0.00769475 0.000349605 0)
(-0.00857875 0.000313716 0)
(-0.00930573 0.000260944 0)
(-0.00982992 0.000187669 0)
(-0.0100996 9.16011e-05 0)
(-0.0100585 -3.03616e-05 0)
(-0.00965223 -0.000176434 0)
(-0.00883749 -0.000340398 0)
(-0.00759131 -0.000510072 0)
(-0.00593307 -0.000662673 0)
(-0.00397894 -0.000756594 0)
(-0.00176998 -0.000704908 0)
(-0.000294045 -0.000319832 0)
(-0.000340182 0.000825613 0)
(-0.00184537 0.00177643 0)
(-0.00411984 0.00206438 0)
(-0.00634015 0.00209075 0)
(-0.00852045 0.00202998 0)
(-0.0105881 0.00192803 0)
(-0.0124958 0.00178713 0)
(-0.0141986 0.00159874 0)
(-0.0156444 0.00135203 0)
(-0.0167732 0.00103576 0)
(-0.0175168 0.000639485 0)
(-0.0178042 0.000154723 0)
(-0.0175595 -0.000419606 0)
(-0.0167094 -0.00107118 0)
(-0.0152012 -0.00177324 0)
(-0.0130131 -0.00247613 0)
(-0.0101892 -0.00309184 0)
(-0.0069055 -0.00345758 0)
(-0.0032397 -0.0032471 0)
(-0.000648009 -0.00173351 0)
(-0.000435606 0.00213588 0)
(-0.0022585 0.00409658 0)
(-0.0049568 0.00466493 0)
(-0.00757399 0.00468714 0)
(-0.0101312 0.00451454 0)
(-0.0125458 0.00424137 0)
(-0.0147646 0.00387684 0)
(-0.016738 0.00340882 0)
(-0.0184094 0.00281994 0)
(-0.0197145 0.00209148 0)
(-0.0205817 0.00120602 0)
(-0.0209303 0.000150582 0)
(-0.0206701 -0.0010744 0)
(-0.0197141 -0.0024474 0)
(-0.0179934 -0.00391472 0)
(-0.0154675 -0.00537625 0)
(-0.0121699 -0.00665469 0)
(-0.00829408 -0.00741891 0)
(-0.00392249 -0.00701354 0)
(-0.000796637 -0.00396085 0)
(-0.000465203 0.00349516 0)
(-0.00242413 0.00651734 0)
(-0.00532025 0.00736761 0)
(-0.00812117 0.00737767 0)
(-0.0108605 0.00708861 0)
(-0.0134545 0.0066439 0)
(-0.0158522 0.006059 0)
(-0.0180064 0.00531765 0)
(-0.0198621 0.00439482 0)
(-0.0213544 0.00326212 0)
(-0.0224078 0.00189195 0)
(-0.0229341 0.000264097 0)
(-0.0228272 -0.00162651 0)
(-0.02197 -0.00375966 0)
(-0.0202521 -0.00606205 0)
(-0.0175872 -0.00838577 0)
(-0.0139697 -0.0104542 0)
(-0.0095996 -0.0117318 0)
(-0.00456176 -0.0111663 0)
(-0.000924524 -0.0064053 0)
(-0.000478955 0.00492905 0)
(-0.00253327 0.00908195 0)
(-0.00558282 0.0102301 0)
(-0.0085319 0.0102309 0)
(-0.0114272 0.00982858 0)
(-0.0141868 0.00921876 0)
(-0.0167658 0.00842378 0)
(-0.0191233 0.00742291 0)
(-0.0212091 0.00618206 0)
(-0.0229611 0.00465998 0)
(-0.0243003 0.00281283 0)
(-0.0251259 0.000602082 0)
(-0.025311 -0.00199299 0)
(-0.024698 -0.00496476 0)
(-0.0231124 -0.00823318 0)
(-0.0203888 -0.0116075 0)
(-0.0164379 -0.0146946 0)
(-0.0114418 -0.016694 0)
(-0.00549139 -0.016032 0)
(-0.00111913 -0.00928805 0)
(-0.000493253 0.00642351 0)
(-0.00265066 0.0117798 0)
(-0.00586927 0.013247 0)
(-0.00898442 0.0132461 0)
(-0.0120568 0.0127402 0)
(-0.015008 0.0119814 0)
(-0.0178023 0.0110001 0)
(-0.0204085 0.00977098 0)
(-0.0227863 0.00824953 0)
(-0.0248803 0.00637771 0)
(-0.0266126 0.00408779 0)
(-0.0278731 0.00131048 0)
(-0.0285121 -0.00201101 0)
(-0.0283187 -0.00590473 0)
(-0.0270283 -0.0103094 0)
(-0.0243525 -0.0150061 0)
(-0.020053 -0.0194678 0)
(-0.0142308 -0.022546 0)
(-0.00696498 -0.021932 0)
(-0.00145239 -0.0128429 0)
(-0.000511526 0.00798735 0)
(-0.00279224 0.0146293 0)
(-0.00621015 0.0164395 0)
(-0.00951884 0.0164455 0)
(-0.0127953 0.0158481 0)
(-0.0159661 0.0149614 0)
(-0.0190082 0.0138259 0)
(-0.0219054 0.0124131 0)
(-0.024633 0.0106673 0)
(-0.0271515 0.00851018 0)
(-0.0293931 0.00584201 0)
(-0.0312468 0.00254723 0)
(-0.0325465 -0.00149223 0)
(-0.0330263 -0.00637374 0)
(-0.0323064 -0.0121062 0)
(-0.0299162 -0.018486 0)
(-0.0253679 -0.0248557 0)
(-0.0185347 -0.0296162 0)
(-0.00941108 -0.0293744 0)
(-0.00206568 -0.017497 0)
(-0.00053405 0.00963602 0)
(-0.00296108 0.0176591 0)
(-0.00661067 0.0198373 0)
(-0.0101378 0.0198563 0)
(-0.0136392 0.0191775 0)
(-0.017048 0.018185 0)
(-0.0203579 0.0169334 0)
(-0.0235734 0.0153935 0)
(-0.026695 0.0135003 0)
(-0.0297106 0.0111547 0)
(-0.0325798 0.00821882 0)
(-0.035211 0.00451333 0)
(-0.0374392 -0.000174715 0)
(-0.0389597 -0.00604802 0)
(-0.0392709 -0.0132802 0)
(-0.0376585 -0.0217778 0)
(-0.0332471 -0.0308169 0)
(-0.0254026 -0.0382608 0)
(-0.0137974 -0.0391376 0)
(-0.00331508 -0.0240675 0)
(-0.000561632 0.0113858 0)
(-0.00316057 0.0208991 0)
(-0.00707449 0.0234675 0)
(-0.0108393 0.0234983 0)
(-0.0145758 0.0227423 0)
(-0.0182256 0.0216634 0)
(-0.021803 0.020336 0)
(-0.0253405 0.0187362 0)
(-0.0288738 0.0167954 0)
(-0.0324349 0.0143979 0)
(-0.0360365 0.0113681 0)
(-0.0396431 0.00745417 0)
(-0.0431171 0.002322 0)
(-0.0461797 -0.0044231 0)
(-0.048261 -0.0132118 0)
(-0.0483744 -0.024241 0)
(-0.0451245 -0.0369303 0)
(-0.0369242 -0.0486724 0)
(-0.0224334 -0.0524174 0)
(-0.00612231 -0.0343057 0)
(-0.000597267 0.0132565 0)
(-0.00340001 0.0243817 0)
(-0.00761313 0.0273541 0)
(-0.0116282 0.0273823 0)
(-0.015597 0.0265414 0)
(-0.0194705 0.025387 0)
(-0.023288 0.0240209 0)
(-0.0271159 0.0224336 0)
(-0.0310353 0.0205639 0)
(-0.0351404 0.0182933 0)
(-0.039527 0.0154214 0)
(-0.0442644 0.0116328 0)
(-0.049341 0.00645603 0)
(-0.0545988 -0.000769283 0)
(-0.059537 -0.0108101 0)
(-0.0630847 -0.0244896 0)
(-0.0633324 -0.0417859 0)
(-0.0570728 -0.0602454 0)
(-0.040149 -0.070905 0)
(-0.012532 -0.0518876 0)
(-0.000648046 0.0152769 0)
(-0.00369991 0.0281466 0)
(-0.00825354 0.0315195 0)
(-0.0125249 0.031509 0)
(-0.0167075 0.030556 0)
(-0.0207633 0.0293205 0)
(-0.0247596 0.0279409 0)
(-0.0287997 0.0264325 0)
(-0.0330166 0.0247589 0)
(-0.0375809 0.0228229 0)
(-0.0427033 0.0204336 0)
(-0.0486254 0.0172493 0)
(-0.0555802 0.0126907 0)
(-0.0636971 0.00584818 0)
(-0.0729775 -0.00452055 0)
(-0.0827882 -0.0199084 0)
(-0.0909284 -0.0419913 0)
(-0.0912407 -0.0705558 0)
(-0.0724176 -0.0969549 0)
(-0.0242892 -0.0849927 0)
(-0.000728757 0.0174955 0)
(-0.00410018 0.0322505 0)
(-0.00904791 0.0359898 0)
(-0.013574 0.0358709 0)
(-0.0179341 0.0347477 0)
(-0.0221037 0.0333989 0)
(-0.0261794 0.0320069 0)
(-0.0303004 0.0306231 0)
(-0.034648 0.0292559 0)
(-0.0394705 0.0278666 0)
(-0.0451116 0.0263338 0)
(-0.0520439 0.024385 0)
(-0.0608919 0.02148 0)
(-0.0724125 0.0166561 0)
(-0.0874583 0.00834802 0)
(-0.106921 -0.00601338 0)
(-0.128362 -0.0315755 0)
(-0.138503 -0.0762713 0)
(-0.113867 -0.136024 0)
(-0.0368813 -0.1459 0)
(-0.000868489 0.019984 0)
(-0.00467198 0.036738 0)
(-0.0100865 0.0407355 0)
(-0.0148575 0.0403897 0)
(-0.0193385 0.0390173 0)
(-0.0235228 0.0375067 0)
(-0.027539 0.0360753 0)
(-0.0315532 0.0348199 0)
(-0.0357758 0.0338154 0)
(-0.0405066 0.0331207 0)
(-0.0461954 0.0327601 0)
(-0.0535339 0.0326722 0)
(-0.0635831 0.0326139 0)
(-0.0779471 0.0319938 0)
(-0.0990413 0.0293971 0)
(-0.129085 0.0201541 0)
(-0.162877 -0.00897393 0)
(-0.175448 -0.0843304 0)
(-0.139001 -0.200029 0)
(-0.0426026 -0.238227 0)
(-0.00114136 0.0229683 0)
(-0.00559202 0.0419995 0)
(-0.0115446 0.0461874 0)
(-0.0164882 0.0454747 0)
(-0.020984 0.0436377 0)
(-0.0250638 0.0417493 0)
(-0.0288692 0.0401039 0)
(-0.0325624 0.0388569 0)
(-0.0363499 0.0381582 0)
(-0.0405309 0.0381982 0)
(-0.0455786 0.0392362 0)
(-0.0522777 0.0416005 0)
(-0.0619289 0.0456684 0)
(-0.0765626 0.0515179 0)
(-0.099261 0.0575491 0)
(-0.131673 0.0542956 0)
(-0.166335 0.0155051 0)
(-0.170525 -0.102458 0)
(-0.134453 -0.274544 0)
(-0.0450346 -0.341406 0)
(-0.00152636 0.0266499 0)
(-0.00667539 0.0469253 0)
(-0.0134213 0.0505867 0)
(-0.0186601 0.0490384 0)
(-0.023218 0.0467841 0)
(-0.0270647 0.0447618 0)
(-0.030427 0.0431384 0)
(-0.0334914 0.0420173 0)
(-0.0364196 0.0415856 0)
(-0.0394024 0.0421585 0)
(-0.0427557 0.0442626 0)
(-0.0470394 0.0487062 0)
(-0.0533102 0.0565931 0)
(-0.0630797 0.0683739 0)
(-0.0786602 0.0815234 0)
(-0.0998549 0.0800277 0)
(-0.124388 0.0305671 0)
(-0.120814 -0.117016 0)
(-0.110977 -0.324194 0)
(-0.0389465 -0.436391 0)
(-0.00357715 0.0300672 0)
(-0.0109497 0.0557424 0)
(-0.0171551 0.0592877 0)
(-0.0217446 0.0572733 0)
(-0.0254951 0.0537379 0)
(-0.0287633 0.0504539 0)
(-0.0316172 0.047757 0)
(-0.0340675 0.0458181 0)
(-0.0360906 0.0448363 0)
(-0.0376447 0.0451492 0)
(-0.0386867 0.0474173 0)
(-0.0391927 0.0527068 0)
(-0.0395164 0.0626623 0)
(-0.0393652 0.0774992 0)
(-0.0404783 0.0944233 0)
(-0.0396734 0.0923284 0)
(-0.0483935 0.0406772 0)
(-0.0410666 -0.113614 0)
(-0.0695551 -0.341929 0)
(-0.0155679 -0.504522 0)
(-0.00123331 0.0441236 0)
(-0.00889462 0.0583264 0)
(-0.0200904 0.0585566 0)
(-0.0251836 0.054 0)
(-0.029797 0.0507069 0)
(-0.0327175 0.0482075 0)
(-0.0346715 0.046283 0)
(-0.0357735 0.0448108 0)
(-0.0360283 0.0439526 0)
(-0.0352443 0.0439768 0)
(-0.0330723 0.0455779 0)
(-0.0287135 0.0495666 0)
(-0.0218799 0.0577176 0)
(-0.00972077 0.0697476 0)
(0.00425092 0.0841765 0)
(0.029095 0.0828469 0)
(0.0339273 0.0377796 0)
(0.0440489 -0.0936655 0)
(-0.0146628 -0.328826 0)
(0.0137495 -0.524081 0)
(-0.0122625 0.0332943 0)
(-0.0246222 0.0800164 0)
(-0.0246196 0.0785436 0)
(-0.0313792 0.0733187 0)
(-0.0339091 0.0660645 0)
(-0.0347543 0.059816 0)
(-0.033861 0.0545674 0)
(-0.0316007 0.0502818 0)
(-0.0281289 0.0469448 0)
(-0.0232419 0.0443931 0)
(-0.0170083 0.0430605 0)
(-0.0080526 0.04318 0)
(0.00317632 0.0463965 0)
(0.021495 0.0521157 0)
(0.0418877 0.0610109 0)
(0.0773784 0.0612019 0)
(0.0887612 0.0322227 0)
(0.121981 -0.0602749 0)
(0.0565877 -0.293631 0)
(0.0565543 -0.509261 0)
(-0.0769219 0.0971457 0)
(-0.0626232 0.0599018 0)
(-0.0648744 0.060052 0)
(-0.0438408 0.053387 0)
(-0.0268617 0.0465009 0)
(-0.00737595 0.0413309 0)
(0.0110121 0.0375846 0)
(0.0293228 0.0343084 0)
(0.0461065 0.0318687 0)
(0.0637018 0.0294484 0)
(0.078703 0.0279336 0)
(0.0973474 0.0266795 0)
(0.110686 0.0264372 0)
(0.136626 0.0272917 0)
(0.148015 0.0254067 0)
(0.196008 0.0209387 0)
(0.194804 -0.0127219 0)
(0.243471 -0.0809216 0)
(0.170497 -0.267064 0)
(0.127714 -0.446802 0)
(0.119913 0.140578 0)
(0.152512 0.0860987 0)
(0.229836 0.0635788 0)
(0.28508 0.0482157 0)
(0.326551 0.0375513 0)
(0.364874 0.0298391 0)
(0.393629 0.0244164 0)
(0.425267 0.0204468 0)
(0.444787 0.0176153 0)
(0.474112 0.0154016 0)
(0.48628 0.0137004 0)
(0.516229 0.01267 0)
(0.52171 0.0115003 0)
(0.555201 0.0113471 0)
(0.551362 0.00983807 0)
(0.588459 0.00662679 0)
(0.561658 -0.00235139 0)
(0.572995 -0.0265772 0)
(0.434541 -0.0727574 0)
(0.278303 -0.152552 0)
)
;

boundaryField
{
    movingWall
    {
        type            fixedValue;
        value           uniform (1 0 0);
    }
    fixedWalls
    {
        type            noSlip;
    }
    frontAndBack
    {
        type            empty;
    }
}


// ************************************************************************* //
