/*--------------------------------*- C++ -*----------------------------------*\
  =========                 |
  \\      /  F ield         | OpenFOAM: The Open Source CFD Toolbox
   \\    /   O peration     | Website:  https://openfoam.org
    \\  /    A nd           | Version:  10
     \\/     M anipulation  |
\*---------------------------------------------------------------------------*/
FoamFile
{
    format      ascii;
    class       volVectorField;
    location    "3.15";
    object      U;
}
// * * * * * * * * * * * * * * * * * * * * * * * * * * * * * * * * * * * * * //

dimensions      [0 1 -1 0 0 0 0];

internalField   nonuniform List<vector> 
400
(
(-0.000179365 0.00017707 0)
(-0.000980404 0.00038008 0)
(-0.0021452 0.000411308 0)
(-0.00321396 0.000398395 0)
(-0.00423062 0.000373031 0)
(-0.00516268 0.000339513 0)
(-0.0059859 0.000297784 0)
(-0.00667892 0.000247376 0)
(-0.00722016 0.000187991 0)
(-0.00758853 0.000119647 0)
(-0.00776419 4.2829e-05 0)
(-0.00772911 -4.17348e-05 0)
(-0.00746882 -0.000132497 0)
(-0.00697479 -0.000226613 0)
(-0.00624607 -0.00032032 0)
(-0.00529117 -0.000408804 0)
(-0.00413366 -0.00048552 0)
(-0.00282788 -0.000538186 0)
(-0.00134435 -0.000523128 0)
(-0.000270428 -0.000277231 0)
(-0.000395354 0.000983347 0)
(-0.00178597 0.00173498 0)
(-0.00366647 0.00183709 0)
(-0.00540133 0.00176639 0)
(-0.00703856 0.00163817 0)
(-0.00852646 0.0014709 0)
(-0.00982548 0.00126699 0)
(-0.0109022 0.00102708 0)
(-0.0117245 0.000752167 0)
(-0.0122627 0.000444017 0)
(-0.0124902 0.000105376 0)
(-0.0123842 -0.000259523 0)
(-0.011927 -0.00064193 0)
(-0.0111099 -0.00103106 0)
(-0.00993562 -0.00141252 0)
(-0.00842042 -0.00176783 0)
(-0.00660254 -0.00207216 0)
(-0.00456014 -0.00227849 0)
(-0.00226587 -0.00222968 0)
(-0.000517511 -0.00133248 0)
(-0.000453793 0.00220935 0)
(-0.00202002 0.00365536 0)
(-0.00411944 0.00383616 0)
(-0.00605256 0.003677 0)
(-0.00787435 0.00339792 0)
(-0.00952858 0.00303632 0)
(-0.0109725 0.00259905 0)
(-0.0121702 0.00208943 0)
(-0.0130874 0.00151108 0)
(-0.0136923 0.000868784 0)
(-0.0139566 0.000169158 0)
(-0.0138526 -0.000578276 0)
(-0.0133594 -0.00135788 0)
(-0.0124661 -0.00214815 0)
(-0.0111723 -0.00292048 0)
(-0.00949167 -0.00363851 0)
(-0.00746287 -0.00425337 0)
(-0.00517093 -0.00467224 0)
(-0.00258351 -0.00459429 0)
(-0.000596195 -0.00287583 0)
(-0.000480503 0.00344125 0)
(-0.00214742 0.00560687 0)
(-0.00438379 0.00586668 0)
(-0.00644085 0.0056175 0)
(-0.00838192 0.00518799 0)
(-0.0101488 0.00463396 0)
(-0.0116979 0.00396615 0)
(-0.0129925 0.00319001 0)
(-0.0139972 0.00231103 0)
(-0.0146781 0.0013361 0)
(-0.015004 0.000274887 0)
(-0.0149436 -0.00085848 0)
(-0.0144686 -0.00204441 0)
(-0.0135594 -0.00325213 0)
(-0.0122072 -0.0044394 0)
(-0.0104182 -0.00555065 0)
(-0.00822608 -0.00650982 0)
(-0.00572103 -0.00717232 0)
(-0.00286549 -0.00707918 0)
(-0.000661346 -0.00448825 0)
(-0.000510818 0.00475472 0)
(-0.00229381 0.00769126 0)
(-0.00469073 0.00803533 0)
(-0.00689506 0.0076921 0)
(-0.00897937 0.00710619 0)
(-0.0108836 0.00635297 0)
(-0.0125637 0.00544724 0)
(-0.0139826 0.0043963 0)
(-0.015104 0.00320689 0)
(-0.015892 0.00188678 0)
(-0.0163111 0.000446569 0)
(-0.0163243 -0.00109759 0)
(-0.0158942 -0.00272231 0)
(-0.0149883 -0.00438999 0)
(-0.0135829 -0.006046 0)
(-0.0116697 -0.00761395 0)
(-0.00927143 -0.00898444 0)
(-0.00648304 -0.00994832 0)
(-0.00326139 -0.00986106 0)
(-0.000754699 -0.00630067 0)
(-0.000550803 0.00616738 0)
(-0.00248351 0.00994043 0)
(-0.00508636 0.0103762 0)
(-0.00747951 0.00993435 0)
(-0.00974691 0.00918536 0)
(-0.0118264 0.00822592 0)
(-0.0136741 0.00707512 0)
(-0.0152533 0.00574184 0)
(-0.0165274 0.00423315 0)
(-0.0174588 0.0025561 0)
(-0.0180078 0.000719803 0)
(-0.0181307 -0.00126119 0)
(-0.0177775 -0.00336403 0)
(-0.0168979 -0.0055471 0)
(-0.0154464 -0.00774544 0)
(-0.0133898 -0.00986107 0)
(-0.0107295 -0.0117438 0)
(-0.00756064 -0.0131003 0)
(-0.00383096 -0.0130575 0)
(-0.00089247 -0.00839803 0)
(-0.000601655 0.00770534 0)
(-0.00272258 0.0123959 0)
(-0.00558254 0.0129319 0)
(-0.00820974 0.0123847 0)
(-0.0107026 0.0114638 0)
(-0.0129971 0.0102895 0)
(-0.0150501 0.0088857 0)
(-0.016827 0.00726276 0)
(-0.0182921 0.00542701 0)
(-0.0194076 0.00338266 0)
(-0.0201304 0.00113415 0)
(-0.02041 -0.00130991 0)
(-0.0201818 -0.00393353 0)
(-0.0193715 -0.00669779 0)
(-0.0179021 -0.00953312 0)
(-0.0157005 -0.0123218 0)
(-0.0127279 -0.0148649 0)
(-0.00906626 -0.0167572 0)
(-0.0046457 -0.0168286 0)
(-0.00109608 -0.0109038 0)
(-0.000664282 0.0093993 0)
(-0.00301575 0.0151064 0)
(-0.00618838 0.0157509 0)
(-0.0090967 0.0150882 0)
(-0.011858 0.013983 0)
(-0.0144062 0.0125824 0)
(-0.0167013 0.0109166 0)
(-0.0187124 0.00899742 0)
(-0.0204079 0.00682947 0)
(-0.0217519 0.00441191 0)
(-0.0227006 0.00174044 0)
(-0.0231985 -0.0011884 0)
(-0.0231656 -0.00437418 0)
(-0.0224982 -0.00779194 0)
(-0.021076 -0.0113796 0)
(-0.0187644 -0.0150081 0)
(-0.0154517 -0.0184263 0)
(-0.0111741 -0.0210803 0)
(-0.00582771 -0.0213926 0)
(-0.00140663 -0.0140015 0)
(-0.000740356 0.0112831 0)
(-0.00337012 0.0181251 0)
(-0.00691651 0.0188847 0)
(-0.0101548 0.0180905 0)
(-0.0132266 0.0167833 0)
(-0.0160651 0.0151417 0)
(-0.0186356 0.0132035 0)
(-0.0209145 0.010983 0)
(-0.0228779 0.00848281 0)
(-0.0244968 0.00569464 0)
(-0.0257308 0.00260112 0)
(-0.0265246 -0.000820867 0)
(-0.0267854 -0.00459856 0)
(-0.0263777 -0.00873844 0)
(-0.0251258 -0.013208 0)
(-0.0228053 -0.0178892 0)
(-0.0191804 -0.0224869 0)
(-0.0141691 -0.0262622 0)
(-0.00760244 -0.0270485 0)
(-0.00190999 -0.017982 0)
(-0.000833073 0.013396 0)
(-0.0037973 0.0215124 0)
(-0.00778607 0.0223885 0)
(-0.0114049 0.0214378 0)
(-0.0148275 0.019903 0)
(-0.017988 0.0179999 0)
(-0.0208605 0.0157771 0)
(-0.0234336 0.0132527 0)
(-0.0256968 0.0104274 0)
(-0.027634 0.00728427 0)
(-0.0292164 0.00378815 0)
(-0.0303983 -0.000114066 0)
(-0.0310834 -0.00448089 0)
(-0.0311089 -0.00938685 0)
(-0.0302374 -0.014864 0)
(-0.0281236 -0.0208512 0)
(-0.0243372 -0.027048 0)
(-0.0185307 -0.0325132 0)
(-0.010414 -0.0342119 0)
(-0.00279777 -0.023348 0)
(-0.000948572 0.0157865 0)
(-0.00431668 0.0253384 0)
(-0.00882683 0.026322 0)
(-0.012878 0.0251756 0)
(-0.0166876 0.0233758 0)
(-0.0201933 0.0211829 0)
(-0.0233837 0.0186594 0)
(-0.0262651 0.0158302 0)
(-0.0288471 0.0126959 0)
(-0.0311368 0.00923177 0)
(-0.0331298 0.00538288 0)
(-0.0347941 0.0010614 0)
(-0.036059 -0.00384589 0)
(-0.036763 -0.00950384 0)
(-0.0366061 -0.0160689 0)
(-0.035105 -0.0236243 0)
(-0.0315551 -0.0319675 0)
(-0.0250898 -0.039992 0)
(-0.0151956 -0.0434434 0)
(-0.00452143 -0.031043 0)
(-0.00109894 0.0185205 0)
(-0.00496141 0.0296882 0)
(-0.0100855 0.0307507 0)
(-0.0146207 0.0293476 0)
(-0.0188457 0.0272281 0)
(-0.022707 0.0247045 0)
(-0.0262144 0.021858 0)
(-0.0293983 0.0187233 0)
(-0.0322963 0.0153049 0)
(-0.0349483 0.0115739 0)
(-0.0373881 0.00746011 0)
(-0.0396285 0.00284292 0)
(-0.0416508 -0.00246718 0)
(-0.0433368 -0.00875219 0)
(-0.0443847 -0.0163602 0)
(-0.0442009 -0.0256618 0)
(-0.0417503 -0.0367755 0)
(-0.0353095 -0.0485919 0)
(-0.0239662 -0.0553238 0)
(-0.00818879 -0.0430835 0)
(-0.0013099 0.0216954 0)
(-0.00579083 0.0346753 0)
(-0.0116354 0.035747 0)
(-0.0167023 0.0339916 0)
(-0.0213578 0.0314737 0)
(-0.0255664 0.028562 0)
(-0.0293664 0.0253596 0)
(-0.0328196 0.0219152 0)
(-0.035998 0.018242 0)
(-0.0389832 0.0143146 0)
(-0.0418626 0.0100571 0)
(-0.0447238 0.00532024 0)
(-0.0476582 -0.000152302 0)
(-0.050667 -0.00674082 0)
(-0.0535674 -0.0150407 0)
(-0.0558234 -0.0259437 0)
(-0.0561324 -0.040283 0)
(-0.0516061 -0.0574034 0)
(-0.0409007 -0.0701997 0)
(-0.0165331 -0.0636505 0)
(-0.00163265 0.0253928 0)
(-0.00692122 0.0404145 0)
(-0.0136016 0.0413919 0)
(-0.0192265 0.0391538 0)
(-0.0243035 0.0361199 0)
(-0.0288244 0.0327323 0)
(-0.0328629 0.0291225 0)
(-0.0365172 0.0253541 0)
(-0.0398979 0.0214531 0)
(-0.0431339 0.0174093 0)
(-0.0463832 0.0131689 0)
(-0.0498394 0.00860888 0)
(-0.0537153 0.00347667 0)
(-0.0582413 -0.00271638 0)
(-0.0636816 -0.0109149 0)
(-0.0699713 -0.0225772 0)
(-0.075855 -0.0398082 0)
(-0.0772211 -0.0638434 0)
(-0.0717737 -0.087458 0)
(-0.0329328 -0.10062 0)
(-0.00208806 0.0303067 0)
(-0.0083634 0.0469172 0)
(-0.0161021 0.0474466 0)
(-0.0223294 0.0444464 0)
(-0.0278069 0.0408456 0)
(-0.0325665 0.037002 0)
(-0.0367441 0.0330102 0)
(-0.0404851 0.0289327 0)
(-0.0439338 0.0248235 0)
(-0.0472504 0.0207131 0)
(-0.0506343 0.0165977 0)
(-0.0543719 0.0124042 0)
(-0.0589188 0.00795338 0)
(-0.0649759 0.00278512 0)
(-0.0734119 -0.00407429 0)
(-0.0852383 -0.0145144 0)
(-0.100312 -0.0321742 0)
(-0.111902 -0.0632112 0)
(-0.114949 -0.106284 0)
(-0.0498883 -0.168034 0)
(-0.00387258 0.0346237 0)
(-0.0119943 0.0561079 0)
(-0.0197735 0.0559647 0)
(-0.026233 0.0522539 0)
(-0.0317851 0.0474721 0)
(-0.0366611 0.0424861 0)
(-0.0409069 0.0375656 0)
(-0.0446399 0.0328358 0)
(-0.0480014 0.0283627 0)
(-0.0511797 0.0241873 0)
(-0.0544361 0.0203856 0)
(-0.0581345 0.0170276 0)
(-0.0628591 0.0142195 0)
(-0.0695924 0.0118975 0)
(-0.079911 0.00951049 0)
(-0.0959519 0.00468772 0)
(-0.118947 -0.00902285 0)
(-0.136876 -0.0542005 0)
(-0.146221 -0.139337 0)
(-0.0416397 -0.276154 0)
(-0.00201872 0.0488858 0)
(-0.0110226 0.0601097 0)
(-0.0237466 0.0585534 0)
(-0.0309835 0.0531808 0)
(-0.0374329 0.0484827 0)
(-0.0422226 0.0438432 0)
(-0.0459072 0.0392806 0)
(-0.0488395 0.0348017 0)
(-0.0512791 0.0304983 0)
(-0.0534074 0.0264536 0)
(-0.0554204 0.0229037 0)
(-0.0575696 0.0200482 0)
(-0.0603794 0.0184472 0)
(-0.0647979 0.0185161 0)
(-0.072621 0.0206624 0)
(-0.085618 0.0209223 0)
(-0.111641 0.0104373 0)
(-0.123226 -0.0540747 0)
(-0.135565 -0.193495 0)
(-0.00719696 -0.383389 0)
(-0.011026 0.0407269 0)
(-0.0274097 0.0845358 0)
(-0.0295562 0.0793824 0)
(-0.0379174 0.0724239 0)
(-0.0416212 0.0637148 0)
(-0.0438505 0.055322 0)
(-0.0446528 0.0476821 0)
(-0.0446432 0.0409008 0)
(-0.0441614 0.035015 0)
(-0.0433505 0.0299233 0)
(-0.0425474 0.0259111 0)
(-0.0416527 0.0232106 0)
(-0.0411761 0.0226968 0)
(-0.040499 0.0255188 0)
(-0.041673 0.0332142 0)
(-0.0379001 0.0395234 0)
(-0.047387 0.0366416 0)
(-0.0270172 -0.0440389 0)
(-0.0556575 -0.2338 0)
(0.0335894 -0.438207 0)
(-0.0741724 0.103769 0)
(-0.0581387 0.0661036 0)
(-0.0585026 0.0628373 0)
(-0.0391858 0.0548183 0)
(-0.0229281 0.0465856 0)
(-0.00599273 0.0398501 0)
(0.0095407 0.034358 0)
(0.0237344 0.0295505 0)
(0.0360029 0.025505 0)
(0.0473112 0.0216819 0)
(0.0565247 0.0190199 0)
(0.0659763 0.016522 0)
(0.0734426 0.0161226 0)
(0.0851417 0.0159035 0)
(0.0910296 0.0182164 0)
(0.124542 0.0159288 0)
(0.117857 8.93509e-05 0)
(0.176803 -0.0581815 0)
(0.113801 -0.247008 0)
(0.110625 -0.426694 0)
(0.121662 0.141147 0)
(0.157806 0.0879876 0)
(0.238388 0.0655464 0)
(0.294689 0.0501397 0)
(0.338802 0.0392075 0)
(0.375752 0.031016 0)
(0.405915 0.0249186 0)
(0.432796 0.0199968 0)
(0.452398 0.0163145 0)
(0.473912 0.0132367 0)
(0.483761 0.0105581 0)
(0.504939 0.00936286 0)
(0.504723 0.00643615 0)
(0.531141 0.00769352 0)
(0.519085 0.00354983 0)
(0.554257 0.00354199 0)
(0.521192 -0.00442986 0)
(0.543816 -0.0297897 0)
(0.413699 -0.068773 0)
(0.274215 -0.149392 0)
)
;

boundaryField
{
    movingWall
    {
        type            fixedValue;
        value           uniform (1 0 0);
    }
    fixedWalls
    {
        type            noSlip;
    }
    frontAndBack
    {
        type            empty;
    }
}


// ************************************************************************* //
