/*--------------------------------*- C++ -*----------------------------------*\
  =========                 |
  \\      /  F ield         | OpenFOAM: The Open Source CFD Toolbox
   \\    /   O peration     | Website:  https://openfoam.org
    \\  /    A nd           | Version:  10
     \\/     M anipulation  |
\*---------------------------------------------------------------------------*/
FoamFile
{
    format      ascii;
    class       surfaceScalarField;
    location    "8.275";
    object      phi;
}
// * * * * * * * * * * * * * * * * * * * * * * * * * * * * * * * * * * * * * //

dimensions      [0 3 -1 0 0 0 0];

internalField   nonuniform List<scalar> 
760
(
-1.24574e-05
1.24574e-05
-4.01465e-05
2.76892e-05
-7.34466e-05
3.33001e-05
-0.00010852
3.50735e-05
-0.000144161
3.56405e-05
-0.000180013
3.58519e-05
-0.000215722
3.57091e-05
-0.000250615
3.48928e-05
-0.000283554
3.29391e-05
-0.000312827
2.92732e-05
-0.00033607
2.32429e-05
-0.000350254
1.4184e-05
-0.000351829
1.5756e-06
-0.000337047
-1.47823e-05
-0.000302974
-3.40728e-05
-0.000248792
-5.41817e-05
-0.000177766
-7.1026e-05
-9.92694e-05
-7.84971e-05
-3.01699e-05
-6.90995e-05
-3.01699e-05
-2.97587e-05
4.22161e-05
-8.39525e-05
8.1883e-05
-0.000147207
9.65541e-05
-0.000213169
0.000101036
-0.000279392
0.000101864
-0.000344722
0.000101182
-0.000408092
9.90794e-05
-0.000468042
9.48428e-05
-0.000522485
8.73827e-05
-0.000568559
7.5347e-05
-0.000602536
5.72197e-05
-0.000619766
3.14143e-05
-0.000615498
-2.69307e-06
-0.000584148
-4.61318e-05
-0.000521923
-9.6298e-05
-0.000428115
-0.000147989
-0.000308014
-0.000191127
-0.000176254
-0.000210257
-5.8764e-05
-0.000186589
-8.89339e-05
-3.76511e-05
7.98672e-05
-0.000104223
0.000148455
-0.000181083
0.000173415
-0.000260648
0.000180601
-0.000340029
0.000181245
-0.000417849
0.000179001
-0.000492873
0.000174104
-0.000563491
0.000165461
-0.000627459
0.00015135
-0.0006817
0.000129588
-0.000722157
9.76767e-05
-0.000743877
5.31336e-05
-0.000740622
-5.9473e-06
-0.000705778
-8.0976e-05
-0.000633714
-0.000168362
-0.00052212
-0.000259584
-0.000376126
-0.000337121
-0.000213719
-0.000372664
-6.92613e-05
-0.000331048
-0.000158195
-4.06769e-05
0.000120544
-0.000112641
0.000220419
-0.000195478
0.000256252
-0.000281086
0.000266208
-0.000366568
0.000266727
-0.000450694
0.000263127
-0.000532445
0.000255854
-0.000610472
0.000243489
-0.000682811
0.000223689
-0.000746598
0.000193375
-0.000797744
0.000148824
-0.00083063
8.60197e-05
-0.000838449
1.8717e-06
-0.000811419
-0.000108006
-0.000740368
-0.000239413
-0.000618502
-0.00038145
-0.000447967
-0.000507656
-0.000250565
-0.000570066
-7.52981e-05
-0.000506314
-0.000233493
-4.15188e-05
0.000162063
-0.000115788
0.000294688
-0.000201479
0.000341944
-0.000290286
0.000355015
-0.0003795
0.000355941
-0.000468259
0.000351886
-0.000556024
0.000343619
-0.000642021
0.000329485
-0.000724906
0.000306574
-0.000802387
0.000270856
-0.000870692
0.000217128
-0.000923856
0.000139184
-0.000952855
3.08704e-05
-0.000945813
-0.000115049
-0.000886564
-0.000298662
-0.000759895
-0.000508119
-0.000559627
-0.000707924
-0.000308073
-0.00082162
-8.27983e-05
-0.000731589
-0.000316292
-4.1488e-05
0.000203551
-0.000116829
0.000370028
-0.000204204
0.00042932
-0.000295211
0.000446021
-0.000387419
0.00044815
-0.00048048
0.000444947
-0.000574546
0.000437685
-0.000669711
0.00042465
-0.000765656
0.000402519
-0.000861171
0.000366371
-0.000953415
0.000309372
-0.00103677
0.000222538
-0.00110115
9.52527e-05
-0.00113137
-8.48249e-05
-0.00110316
-0.000326881
-0.000986385
-0.00062489
-0.00075384
-0.000940469
-0.000415168
-0.00116029
-9.98446e-05
-0.00104691
-0.000416136
-4.10576e-05
0.000244608
-0.000116928
0.000445899
-0.000205439
0.00051783
-0.000298086
0.000538668
-0.00039275
0.000542815
-0.000489693
0.00054189
-0.000589951
0.000537943
-0.000694801
0.000529499
-0.00080545
0.000513169
-0.000922554
0.000483475
-0.00104535
0.000432173
-0.00117022
0.000347406
-0.00128818
0.000213213
-0.001385
1.1989e-05
-0.00142591
-0.000285964
-0.00135818
-0.000692621
-0.00110586
-0.00119279
-0.000633596
-0.00163256
-0.000152717
-0.00152779
-0.000568853
-4.03446e-05
0.000284953
-0.000116385
0.00052194
-0.00020554
0.000606985
-0.000299126
0.000632254
-0.000395314
0.000639002
-0.000495013
0.000641589
-0.000600274
0.000643204
-0.000713864
0.000643089
-0.000839098
0.000638403
-0.000979564
0.000623941
-0.00113849
0.000591102
-0.00131746
0.000526375
-0.00151421
0.000409963
-0.00171622
0.000213992
-0.00189517
-0.000107011
-0.0019505
-0.000637295
-0.0017104
-0.00143288
-0.00106026
-0.0022827
-0.000307972
-0.00228008
-0.000876825
-3.94099e-05
0.000324363
-0.000115317
0.000597848
-0.000204524
0.000696192
-0.000298016
0.000725746
-0.000394176
0.000735162
-0.000494524
0.000741937
-0.000602136
0.000750816
-0.000721379
0.000762333
-0.000858095
0.000775119
-0.00101985
0.0007857
-0.00121608
0.000787324
-0.00145802
0.00076832
-0.00175826
0.000710204
-0.00212192
0.000577652
-0.00250945
0.000280519
-0.0027608
-0.000385949
-0.00255729
-0.00163639
-0.0017454
-0.00309459
-0.00067203
-0.00335345
-0.00154886
-3.84257e-05
0.000362789
-0.000114049
0.00067347
-0.000202652
0.000784795
-0.000294692
0.000817785
-0.000388623
0.000829094
-0.000486441
0.000839756
-0.000592079
0.000856453
-0.000711341
0.000881595
-0.000852532
0.00091631
-0.00102756
0.000960731
-0.00125374
0.0010135
-0.00155617
0.00107075
-0.00196754
0.00112158
-0.00250927
0.00111938
-0.00311104
0.000882286
-0.0035089
1.19108e-05
-0.00336508
-0.00178021
-0.00256809
-0.00389158
-0.00128731
-0.00463424
-0.00283616
-3.7793e-05
0.000400582
-0.000113363
0.000749041
-0.000200806
0.000872237
-0.00028984
0.00090682
-0.000378811
0.000918065
-0.000469961
0.000930905
-0.000567672
0.000954164
-0.000678548
0.000992471
-0.000812468
0.00105023
-0.000984561
0.00113282
-0.00121853
0.00124747
-0.00155025
0.00140248
-0.00202225
0.00159357
-0.00264446
0.00174159
-0.00330039
0.00153821
-0.00371217
0.000423688
-0.00365154
-0.00184083
-0.0030948
-0.00444832
-0.00186233
-0.0058667
-0.00469849
-3.83405e-05
0.000438922
-0.000114856
0.000825557
-0.000200858
0.000958239
-0.000285247
0.000991208
-0.000366245
0.000999064
-0.000446069
0.00101073
-0.000528925
0.00103702
-0.000621044
0.00108459
-0.000731822
0.00116101
-0.000875786
0.00127679
-0.0010754
0.00144707
-0.00136201
0.00168909
-0.00176473
0.00199629
-0.00226394
0.0022408
-0.00274825
0.00202253
-0.00304117
0.000716602
-0.00308701
-0.00179499
-0.00283757
-0.00469777
-0.00188941
-0.00681486
-0.0065879
-4.11669e-05
0.000480089
-0.000120666
0.000905056
-0.00020565
0.00104322
-0.00028422
0.00106978
-0.000354392
0.00106924
-0.000418167
0.0010745
-0.000479042
0.0010979
-0.000541347
0.00114689
-0.00061116
0.00123082
-0.000697194
0.00136282
-0.000811536
0.00156142
-0.000966219
0.00184378
-0.00116679
0.00219686
-0.00138476
0.00245878
-0.00158395
0.00222171
-0.00171461
0.000847259
-0.00184237
-0.00166723
-0.00193393
-0.00460621
-0.00146985
-0.00727894
-0.00805775
-5.00141e-05
0.000530103
-0.000136721
0.000991762
-0.000220535
0.00112704
-0.000290629
0.00113987
-0.000346846
0.00112545
-0.000391222
0.00111888
-0.000425422
0.0011321
-0.000451149
0.00117262
-0.000469815
0.00124949
-0.000482026
0.00137503
-0.000486887
0.00156628
-0.000476218
0.00183311
-0.000438232
0.00215888
-0.000362866
0.00238341
-0.000292495
0.00215134
-0.000308206
0.000862971
-0.000517892
-0.00145754
-0.000962718
-0.00416138
-0.000983611
-0.00725804
-0.00904136
-6.14286e-05
0.000591532
-0.000159244
0.00108958
-0.000246676
0.00121447
-0.00031326
0.00120646
-0.000356556
0.00116875
-0.000379476
0.0011418
-0.000383823
0.00113644
-0.000369467
0.00115826
-0.000333895
0.00121392
-0.000270828
0.00131197
-0.000168821
0.00146427
-7.86413e-06
0.00167215
0.000227903
0.00192311
0.000529734
0.00208158
0.00080517
0.00187591
0.000844893
0.000823247
0.000512789
-0.00112544
-0.000226493
-0.0034221
-0.000597538
-0.006887
-0.0096389
-0.000129081
0.000720613
-0.000241342
0.00120184
-0.000313276
0.0012864
-0.000353131
0.00124631
-0.000370718
0.00118634
-0.000369356
0.00114044
-0.000347336
0.00111442
-0.000300083
0.00111101
-0.000220847
0.00113468
-9.93478e-05
0.00119047
8.01849e-05
0.00128474
0.000333262
0.00141907
0.00068044
0.00157593
0.00109995
0.00166207
0.00147409
0.00150177
0.00155718
0.000740159
0.00116929
-0.000737552
0.000299969
-0.00255278
-0.000272441
-0.00631459
-0.00991134
-8.33806e-05
0.000803994
-0.00026106
0.00137952
-0.000372896
0.00139824
-0.000426376
0.00129979
-0.000437912
0.00119787
-0.000417734
0.00112026
-0.000368274
0.00106496
-0.000286686
0.00102942
-0.000166812
0.00101481
3.39719e-06
0.00102026
0.00023452
0.00105361
0.00054435
0.00110924
0.000939017
0.00118127
0.00139432
0.00120677
0.00179772
0.00109837
0.00190136
0.000636513
0.00151075
-0.000346935
0.000688854
-0.00173089
0.000108078
-0.00573381
-0.00980326
-0.000379137
0.00118313
-0.000436848
0.00143723
-0.000485412
0.0014468
-0.000522607
0.00133699
-0.000512466
0.00118773
-0.000460996
0.00106879
-0.000371805
0.000975773
-0.000243046
0.000900664
-7.50848e-05
0.000846844
0.000139334
0.000805839
0.000405507
0.000787441
0.000734295
0.000780456
0.00112145
0.000794109
0.00153547
0.000792747
0.00191439
0.000719452
0.00207109
0.00047981
0.001952
-0.00022785
0.00154492
-0.0013238
0.000862105
-0.005051
-0.00894116
-0.00136269
0.00254582
-0.00132563
0.00140017
-0.00106656
0.00118773
-0.000695295
0.000965722
-0.000303633
0.000796069
9.22818e-05
0.000672874
0.000481354
0.000586701
0.000862829
0.000519189
0.00123892
0.000470758
0.00161482
0.000429931
0.00199834
0.000403929
0.0023959
0.000382893
0.00282324
0.000366771
0.00327057
0.000345412
0.00371956
0.000270467
0.00406127
0.000138093
0.00415057
-0.000317146
0.00398263
-0.00115587
0.00252284
-0.00359121
-0.00641831
0.00254582
0.00394599
0.00513372
0.00609944
0.00689551
0.00756839
0.00815509
0.00867428
0.00914503
0.00957497
0.00997889
0.0103618
0.0107286
0.011074
0.0113444
0.0114825
0.0111654
0.0100095
0.00641831
)
;

boundaryField
{
    movingWall
    {
        type            calculated;
        value           uniform 0;
    }
    fixedWalls
    {
        type            calculated;
        value           uniform 0;
    }
    frontAndBack
    {
        type            empty;
        value           nonuniform List<scalar> 0();
    }
}


// ************************************************************************* //
