/*--------------------------------*- C++ -*----------------------------------*\
  =========                 |
  \\      /  F ield         | OpenFOAM: The Open Source CFD Toolbox
   \\    /   O peration     | Website:  https://openfoam.org
    \\  /    A nd           | Version:  10
     \\/     M anipulation  |
\*---------------------------------------------------------------------------*/
FoamFile
{
    format      ascii;
    class       volScalarField;
    location    "9";
    object      p;
}
// * * * * * * * * * * * * * * * * * * * * * * * * * * * * * * * * * * * * * //

dimensions      [0 2 -2 0 0 0 0];

internalField   nonuniform List<scalar> 
8000
(
-2.62393e-06
-1.15007e-05
4.16029e-05
0.000140044
0.000290667
0.000496074
0.000759558
0.00108464
0.00147411
0.00192893
0.00244682
0.00302026
0.00363443
0.00426512
0.00487787
0.00543023
0.00587643
0.00617984
0.00634197
0.0063172
-2.56767e-06
-8.78968e-06
4.80829e-05
0.000147178
0.000296633
0.000499438
0.00075917
0.00107954
0.00146358
0.00191257
0.00242478
0.00299348
0.00360462
0.0042342
0.00484781
0.00540327
0.00585244
0.00615569
0.00631704
0.0062743
-8.46394e-05
-9.43224e-05
-3.94058e-05
5.52755e-05
0.000198505
0.000393437
0.000644096
0.000954931
0.00133006
0.00177231
0.00228187
0.00285421
0.00347755
0.00413022
0.00477739
0.00536929
0.00585078
0.00617032
0.00633317
0.00626106
-0.000236111
-0.000248607
-0.000197662
-0.000110383
2.25825e-05
0.000204628
0.000440407
0.0007354
0.00109532
0.00152539
0.00202895
0.00260534
0.00324664
0.00393338
0.00462978
0.00528271
0.00582194
0.00617383
0.00634345
0.00622348
-0.000465276
-0.000480702
-0.000436206
-0.000359846
-0.000241813
-7.84812e-05
0.000135441
0.000406562
0.000742456
0.00115125
0.00164054
0.00221515
0.00287349
0.0036018
0.00436647
0.00510613
0.00573656
0.0061451
0.00633198
0.006137
-0.000772123
-0.0007908
-0.000755171
-0.000693472
-0.00059567
-0.000458124
-0.000275172
-3.93554e-05
0.000258517
0.000629417
0.00108559
0.00163891
0.00229688
0.00305624
0.0038922
0.00474604
0.00550133
0.00600764
0.0062396
0.00593317
-0.00115375
-0.00117615
-0.00115175
-0.00110867
-0.00103703
-0.000933633
-0.00079314
-0.000608136
-0.000368798
-6.23944e-05
0.000327032
0.000818318
0.00143079
0.00217721
0.00305188
0.00400718
0.00492875
0.00559124
0.00594393
0.00551431
-0.00160527
-0.00163193
-0.00162087
-0.00160026
-0.00156091
-0.00150082
-0.00141605
-0.0013008
-0.00114689
-0.000942738
-0.000672112
-0.000313287
0.000161129
0.00078225
0.00157441
0.00253745
0.00360764
0.00455295
0.00519506
0.00476721
-0.00212018
-0.00215148
-0.00215517
-0.00216004
-0.00215831
-0.00215017
-0.00213463
-0.00210965
-0.00207187
-0.00201586
-0.00193288
-0.00180919
-0.00162347
-0.00134302
-0.000919456
-0.000271041
0.000728896
0.00208218
0.00346636
0.0035637
-0.00269095
-0.00272686
-0.0027452
-0.00277663
-0.00281548
-0.00286542
-0.00293008
-0.00301373
-0.00312189
-0.00326161
-0.0034419
-0.00367404
-0.00397075
-0.00433191
-0.00470799
-0.00489224
-0.00428652
-0.00239732
0.000369976
0.00179391
-0.00330993
-0.00334981
-0.00338021
-0.00343604
-0.00351413
-0.00362317
-0.00377284
-0.00397591
-0.00425049
-0.00462259
-0.00512987
-0.00582644
-0.00678842
-0.00806998
-0.00960962
-0.0109681
-0.0108167
-0.00775532
-0.00311207
-0.000489347
-0.00397125
-0.00401319
-0.00404888
-0.00412177
-0.00423141
-0.00439294
-0.00462252
-0.0049422
-0.00538426
-0.00599629
-0.00685022
-0.00804602
-0.00971925
-0.0119285
-0.0145009
-0.016472
-0.0159647
-0.011028
-0.00570173
-0.00208187
-0.00467556
-0.00471541
-0.00474446
-0.00482056
-0.00494606
-0.00514363
-0.00543546
-0.00585115
-0.00643533
-0.00725049
-0.00840129
-0.0100146
-0.0122404
-0.0150641
-0.0181614
-0.0202019
-0.0194442
-0.0139617
-0.0088408
-0.0032103
-0.00543075
-0.00545539
-0.00545434
-0.00550864
-0.00562587
-0.00583493
-0.0061609
-0.00663564
-0.00731656
-0.00827176
-0.00961448
-0.0114908
-0.0140417
-0.0172104
-0.0205687
-0.0230743
-0.0237797
-0.0193583
-0.0138514
-0.00487447
-0.00626603
-0.00627024
-0.00621581
-0.00622345
-0.00629766
-0.00647718
-0.00679203
-0.00727683
-0.00798973
-0.0089965
-0.0104127
-0.0123764
-0.0150298
-0.0183115
-0.0219624
-0.0251765
-0.0280264
-0.0242449
-0.0182871
-0.00590932
-0.00736522
-0.00713829
-0.00693809
-0.00680223
-0.00679243
-0.00692607
-0.00722011
-0.00769329
-0.00839929
-0.00939053
-0.01078
-0.0126708
-0.0151989
-0.0182951
-0.0218663
-0.0249264
-0.0279771
-0.0238241
-0.0185484
-0.00247493
-0.00824082
-0.00832339
-0.00796422
-0.00778484
-0.00762778
-0.00761165
-0.00776535
-0.00810387
-0.00870308
-0.00958766
-0.0108566
-0.0125715
-0.014845
-0.0175089
-0.0205981
-0.0227705
-0.0249088
-0.0193111
-0.014128
0.00887307
-0.0121337
-0.00927536
-0.00856621
-0.00777606
-0.00745503
-0.00739046
-0.00756689
-0.00793299
-0.0085328
-0.00937596
-0.0105654
-0.0121039
-0.0141197
-0.016296
-0.0187251
-0.0197872
-0.0206653
-0.0126677
-0.00455548
0.0323346
-0.0116528
-0.0125273
-0.0109603
-0.0103589
-0.00952426
-0.00898071
-0.00870844
-0.00870832
-0.00902951
-0.00964497
-0.0106676
-0.0120273
-0.013948
-0.0159589
-0.0183225
-0.0187219
-0.0179432
-0.00523097
0.0122178
0.0756981
-0.0364155
-0.0109567
-0.00917637
-0.00759378
-0.00674042
-0.00654404
-0.00674528
-0.00711775
-0.007755
-0.0085646
-0.00978453
-0.0111651
-0.0130197
-0.0144403
-0.0155435
-0.012569
-0.00466988
0.0229155
0.0698248
0.175851
9.35777e-07
-1.88508e-05
3.21832e-05
0.000129287
0.000279821
0.000485717
0.000750095
0.00107661
0.00146834
0.00192661
0.00244957
0.00303021
0.00365403
0.00429676
0.00492304
0.00548821
0.0059429
0.00624628
0.00640143
0.00635246
1.61489e-05
-2.19135e-06
5.48717e-05
0.000153822
0.000303555
0.000506604
0.000766463
0.00108691
0.00147109
0.00192052
0.00243381
0.00300476
0.0036198
0.00425493
0.00487671
0.00544035
0.00589461
0.0061964
0.00635283
0.00628643
-5.99853e-05
-8.47935e-05
-2.95868e-05
6.49943e-05
0.000208542
0.000403683
0.000654336
0.000964992
0.00133987
0.00178207
0.00229222
0.00286647
0.00349373
0.00415304
0.00480931
0.00541202
0.0059002
0.00621775
0.00637361
0.00627125
-0.00020736
-0.000236567
-0.000185181
-9.79183e-05
3.54721e-05
0.000217816
0.00045365
0.000748481
0.00110812
0.00153804
0.00204217
0.00262073
0.00326681
0.00396165
0.00467047
0.00533874
0.00588812
0.00623793
0.00639691
0.00623609
-0.000434586
-0.000467678
-0.000422711
-0.000346308
-0.000227679
-6.37822e-05
0.000150558
0.000421984
0.000758174
0.00116755
0.00165838
0.00223664
0.0029023
0.00364288
0.00442448
0.00518886
0.00583604
0.00624415
0.0064145
0.00615836
-0.000740785
-0.000777785
-0.000741724
-0.000679916
-0.00058129
-0.000442782
-0.000258825
-2.19072e-05
0.0002773
0.000650104
0.00110948
0.00166875
0.00233766
0.00311429
0.00396822
0.00486278
0.00565876
0.00617675
0.00638783
0.00597367
-0.00112243
-0.00116374
-0.001139
-0.00109578
-0.00102311
-0.00091834
-0.000776182
-0.000589114
-0.000347154
-3.72126e-05
0.00035746
0.000857294
0.00148464
0.00225736
0.0031776
0.00417553
0.00517302
0.00590409
0.00624719
0.00560556
-0.0015744
-0.00162064
-0.00160943
-0.00158875
-0.00154828
-0.00148649
-0.00139947
-0.00128126
-0.00112348
-0.000914228
-0.000636721
-0.000268172
0.00022124
0.000867672
0.00170445
0.00274698
0.00395498
0.00512736
0.00584836
0.00503481
-0.00209005
-0.00214183
-0.0021457
-0.00215075
-0.00214798
-0.00213804
-0.00211989
-0.00209129
-0.00204877
-0.00198687
-0.00189719
-0.00176706
-0.00157833
-0.00130348
-0.000887738
-0.000168549
0.0011854
0.00326032
0.00484774
0.0044071
-0.00266167
-0.00271938
-0.00273838
-0.00277044
-0.0028086
-0.00285692
-0.00291893
-0.00299875
-0.00310196
-0.0032364
-0.00341357
-0.00365194
-0.00398369
-0.00444549
-0.00499777
-0.0052518
-0.00403553
-0.000716266
0.002327
0.0036846
-0.00328144
-0.00334512
-0.00337682
-0.0034339
-0.00351193
-0.00361982
-0.00376713
-0.00396662
-0.00423688
-0.00460611
-0.00511851
-0.00584574
-0.00691091
-0.0084624
-0.0104661
-0.0122522
-0.0117152
-0.00735558
-0.00237052
0.00176408
-0.00394317
-0.00401141
-0.00404882
-0.00412358
-0.00423404
-0.00439512
-0.0046229
-0.00493955
-0.0053783
-0.00599068
-0.00685982
-0.00811588
-0.0099672
-0.0126375
-0.0160321
-0.0191795
-0.0196262
-0.0143094
-0.00803749
-0.00144736
-0.00464656
-0.00471763
-0.00474959
-0.00482871
-0.00495587
-0.00515322
-0.00544306
-0.0058557
-0.00643634
-0.00725424
-0.00842269
-0.0101056
-0.0125642
-0.016005
-0.0203067
-0.0243537
-0.0260774
-0.0207362
-0.0144925
-0.00575274
-0.00539338
-0.00545521
-0.00545553
-0.00551341
-0.0056342
-0.00584502
-0.00617009
-0.00664362
-0.00731819
-0.00826905
-0.00962285
-0.0115527
-0.0143381
-0.0181476
-0.0229803
-0.027754
-0.0313758
-0.0271658
-0.0216783
-0.0106296
-0.00621362
-0.00627622
-0.00622477
-0.00624009
-0.00631761
-0.00649756
-0.00680861
-0.00728818
-0.00798867
-0.00898005
-0.0103831
-0.0123762
-0.0152154
-0.0190342
-0.0239762
-0.0289744
-0.0340693
-0.0303795
-0.02626
-0.0129365
-0.00725181
-0.00708917
-0.00689891
-0.00677431
-0.00677801
-0.00692097
-0.00721658
-0.00768625
-0.00837812
-0.00933646
-0.0107024
-0.0125833
-0.0152125
-0.0186287
-0.0230243
-0.0271962
-0.0315029
-0.0276015
-0.0262624
-0.00859677
-0.00795416
-0.00825898
-0.00790407
-0.00777684
-0.0076318
-0.00762157
-0.0077669
-0.008099
-0.00866858
-0.0095099
-0.0107366
-0.0124104
-0.0147059
-0.0175151
-0.0210778
-0.0239217
-0.0268581
-0.0224641
-0.0215366
0.0056974
-0.0116648
-0.00897559
-0.00830198
-0.00754411
-0.00730127
-0.00729825
-0.00750414
-0.00787715
-0.0084582
-0.00925673
-0.0103979
-0.0118851
-0.0139066
-0.0162087
-0.0190045
-0.0206737
-0.0219432
-0.0159116
-0.00947865
0.0333302
-0.0090311
-0.0115952
-0.0103866
-0.0101409
-0.00947161
-0.00902473
-0.00878682
-0.0087743
-0.00905407
-0.00959494
-0.0105395
-0.0118158
-0.0137376
-0.0158703
-0.0187013
-0.019932
-0.0197728
-0.0079504
0.0123596
0.0839564
-0.0342059
-0.00909623
-0.00756375
-0.0065407
-0.00604746
-0.00602044
-0.00633282
-0.00675418
-0.00742004
-0.00820132
-0.00939704
-0.0107507
-0.0126254
-0.0142149
-0.0155211
-0.0130577
-0.0049234
0.0250261
0.0836216
0.206288
1.89253e-05
-6.62181e-06
4.37392e-05
0.000140759
0.000292327
0.000500159
0.000767507
0.00109837
0.00149631
0.00196326
0.00249797
0.00309395
0.00373685
0.00440184
0.00505153
0.00563765
0.00610543
0.0064093
0.00655412
0.00648197
4.4064e-05
1.86561e-05
7.6176e-05
0.000175415
0.000326098
0.000530634
0.000792711
0.00111645
0.00150546
0.00196186
0.00248493
0.00306912
0.00370104
0.00435675
0.00500119
0.00558558
0.00605291
0.00635484
0.00650086
0.00641085
-2.53472e-05
-5.90758e-05
-3.21433e-06
9.1636e-05
0.000236047
0.0004325
0.000685159
0.000998921
0.00137857
0.00182796
0.00234869
0.00293787
0.00358531
0.00427038
0.00495554
0.00558612
0.0060925
0.00640997
0.00654957
0.00641334
-0.000166838
-0.000206136
-0.0001539
-6.63431e-05
6.79246e-05
0.000251594
0.000489498
0.000787637
0.00115252
0.00159063
0.00210724
0.00270411
0.00337578
0.00410457
0.00485529
0.00556482
0.00614353
0.00649425
0.00662436
0.00640934
-0.000389759
-0.000433742
-0.000387794
-0.00031103
-0.000191372
-2.58847e-05
0.000190981
0.000466472
0.000809152
0.00122876
0.00173545
0.00233774
0.0030382
0.00382549
0.00466947
0.00549897
0.00619718
0.00661075
0.00672772
0.00637644
-0.000692705
-0.000741218
-0.00070407
-0.000641793
-0.000541898
-0.000401373
-0.000214191
2.78962e-05
0.000335318
0.000721071
0.00120071
0.00179138
0.00250747
0.00335186
0.00430266
0.00529843
0.00618854
0.00672858
0.00683773
0.00624435
-0.00107164
-0.00112504
-0.00109914
-0.00105537
-0.00098123
-0.000874053
-0.000728
-0.000534681
-0.000282816
4.27347e-05
0.000461984
0.00100046
0.00168792
0.00254952
0.00358677
0.00477113
0.00594632
0.00674788
0.00689161
0.00592915
-0.00152112
-0.00158005
-0.00156771
-0.00154654
-0.00150458
-0.00144025
-0.001349
-0.00122395
-0.00105536
-0.000829101
-0.000524847
-0.000114066
0.000442274
0.00119307
0.00218908
0.00346543
0.00498884
0.006322
0.00666042
0.00542981
-0.00203424
-0.00209939
-0.00210228
-0.00210713
-0.00210321
-0.00209105
-0.00206897
-0.00203391
-0.00198124
-0.00190386
-0.00179088
-0.00162634
-0.0013892
-0.001048
-0.000524141
0.000410054
0.0021002
0.00441626
0.00556815
0.00494173
-0.00260295
-0.00267478
-0.00269312
-0.00272556
-0.00276333
-0.00281036
-0.00286963
-0.00294468
-0.0030407
-0.00316552
-0.00333201
-0.00356491
-0.00391895
-0.00447345
-0.00518601
-0.00549159
-0.00410967
-0.000354884
0.00273188
0.00432229
-0.00321885
-0.00329754
-0.00332913
-0.00338751
-0.00346639
-0.00357452
-0.0037211
-0.00391886
-0.00418726
-0.00455764
-0.00508318
-0.00585988
-0.00707402
-0.00898582
-0.0115749
-0.0138419
-0.0131875
-0.00788703
-0.00254097
0.00195256
-0.00387425
-0.00395861
-0.00399643
-0.00407362
-0.00418666
-0.0043501
-0.00457979
-0.00489844
-0.0053416
-0.00596751
-0.00687635
-0.00824245
-0.010377
-0.0136406
-0.0179256
-0.021842
-0.0223772
-0.016564
-0.00996257
-0.00269874
-0.00456759
-0.00465711
-0.00469049
-0.00477362
-0.00490529
-0.00510702
-0.00540097
-0.0058184
-0.0064075
-0.00724647
-0.00846865
-0.0102995
-0.0130985
-0.0172248
-0.0225649
-0.0275055
-0.0296802
-0.0245956
-0.0179071
-0.00868409
-0.00529531
-0.00537734
-0.0053791
-0.00544255
-0.0055706
-0.00578872
-0.00612046
-0.00660038
-0.00728316
-0.00825394
-0.00965914
-0.0117298
-0.0148302
-0.0192416
-0.0250013
-0.0304141
-0.0342242
-0.0301872
-0.0241415
-0.013633
-0.00608759
-0.00617653
-0.00612629
-0.00615055
-0.00623762
-0.00642687
-0.00674532
-0.00722946
-0.00793371
-0.00893647
-0.0103801
-0.0124582
-0.0155243
-0.0197395
-0.0252652
-0.0302985
-0.0347529
-0.0307023
-0.02636
-0.0145553
-0.00706767
-0.00693682
-0.00674775
-0.00663407
-0.00665224
-0.00680933
-0.00711557
-0.007591
-0.00828076
-0.00924516
-0.0106106
-0.0125273
-0.0152727
-0.0188829
-0.0234909
-0.0273654
-0.0305842
-0.0263637
-0.0244218
-0.00896598
-0.00763939
-0.00800544
-0.00766246
-0.007567
-0.00744484
-0.00745473
-0.0076129
-0.00795237
-0.008517
-0.00934667
-0.0105495
-0.0122196
-0.0145558
-0.0174521
-0.0210895
-0.023692
-0.0256888
-0.0210755
-0.0182655
0.00586604
-0.0113302
-0.00866455
-0.00793675
-0.00718021
-0.00697221
-0.00700802
-0.00724237
-0.00763367
-0.00821466
-0.00899135
-0.0100998
-0.0115643
-0.0135753
-0.0159315
-0.0187366
-0.0202825
-0.0207286
-0.0145496
-0.00579534
0.0344487
-0.00795959
-0.0107862
-0.00968377
-0.00955121
-0.00896268
-0.0085877
-0.00839431
-0.00841237
-0.008694
-0.00922194
-0.0101222
-0.0113773
-0.0132801
-0.0155097
-0.0184186
-0.0196795
-0.0192674
-0.00699407
0.0155816
0.086971
-0.0334787
-0.0082356
-0.00668689
-0.00579906
-0.00542706
-0.00546821
-0.00581356
-0.00625854
-0.00691718
-0.00768612
-0.00883525
-0.0101819
-0.0120429
-0.0137362
-0.0151084
-0.0126595
-0.00375597
0.027369
0.0895816
0.213882
4.12014e-05
1.20792e-05
6.2206e-05
0.000159631
0.000312795
0.000523356
0.000794765
0.00113142
0.00153743
0.00201533
0.00256454
0.00317906
0.00384453
0.00453532
0.00521173
0.00582128
0.00630366
0.00660904
0.0067444
0.00665329
7.19524e-05
4.2434e-05
0.000100398
0.000200288
0.000352511
0.000559451
0.000825045
0.00115382
0.00154991
0.00201607
0.00255232
0.0031537
0.00380669
0.00448777
0.00515886
0.00576705
0.00624918
0.00655194
0.00668747
0.00657874
7.375e-06
-3.14546e-05
2.49982e-05
0.000120505
0.000266424
0.000465211
0.000721318
0.00104011
0.00142699
0.00188666
0.00242165
0.00302999
0.00370238
0.00441787
0.00513606
0.00579706
0.00632254
0.0066397
0.00676196
0.00659873
-0.000129446
-0.000174532
-0.000121559
-3.33043e-05
0.000102527
0.000288609
0.000530122
0.000833625
0.0012064
0.00165601
0.00218909
0.00280884
0.00351099
0.00427908
0.00507421
0.00582633
0.00643268
0.00678085
0.0068792
0.00662144
-0.00034862
-0.000398897
-0.000352107
-0.000274574
-0.000153197
1.49729e-05
0.000235909
0.000517531
0.000869374
0.00130256
0.00182914
0.00245995
0.0031998
0.00403908
0.00494456
0.00583627
0.00657675
0.00698437
0.00704195
0.00662018
-0.000648521
-0.000703749
-0.000665681
-0.000602548
-0.00050073
-0.000357166
-0.000165318
8.38554e-05
0.000401958
0.000803714
0.00130715
0.00193276
0.00269867
0.00360906
0.00464824
0.00573592
0.0066927
0.00721957
0.00721928
0.00651051
-0.00102481
-0.00108534
-0.00105849
-0.00101383
-0.000937644
-0.000827171
-0.000676003
-0.000474863
-0.000211157
0.00013223
0.000578283
0.00115694
0.001903
0.00284541
0.00399615
0.00531127
0.00658859
0.00736006
0.00731679
0.00619525
-0.0014718
-0.00153834
-0.0015251
-0.00150316
-0.00145924
-0.00139166
-0.0012953
-0.00116241
-0.000981961
-0.000737918
-0.000407055
4.3361e-05
0.00065823
0.00149272
0.00259301
0.0040253
0.00567963
0.00698137
0.0070677
0.00569814
-0.00198231
-0.00205561
-0.00205781
-0.00206223
-0.00205678
-0.00204191
-0.00201544
-0.00197364
-0.00191104
-0.00181945
-0.00168677
-0.00149645
-0.00123031
-0.000861523
-0.000297656
0.000728127
0.00260598
0.00501416
0.00594087
0.00529333
-0.00254786
-0.0026285
-0.00264651
-0.00267914
-0.00271622
-0.00276165
-0.0028181
-0.00288888
-0.00297923
-0.00309781
-0.00326028
-0.00350012
-0.0038968
-0.00455854
-0.00539889
-0.00568347
-0.00407732
-0.000233269
0.00291132
0.00476954
-0.00315945
-0.00324778
-0.00327959
-0.00333905
-0.00341845
-0.00352659
-0.00367262
-0.00386965
-0.00413858
-0.0045146
-0.00506015
-0.00589311
-0.00725
-0.00943958
-0.0123528
-0.0147005
-0.0140893
-0.0090099
-0.00326938
0.00196575
-0.00380821
-0.00390311
-0.00394172
-0.00402106
-0.00413614
-0.00430149
-0.00453311
-0.00485465
-0.00530432
-0.00594682
-0.0068968
-0.00835951
-0.0107025
-0.0143421
-0.0191059
-0.0233655
-0.024392
-0.0191417
-0.0120846
-0.00389629
-0.00449127
-0.00459287
-0.00462788
-0.00471449
-0.00484976
-0.00505505
-0.00535271
-0.00577507
-0.00637322
-0.00723247
-0.00850127
-0.0104343
-0.0134493
-0.0179507
-0.0238041
-0.0291573
-0.031835
-0.0274782
-0.0206874
-0.0108823
-0.00520113
-0.00529677
-0.00530058
-0.00536887
-0.00550238
-0.00572585
-0.00606253
-0.00654758
-0.00723752
-0.00822358
-0.00966366
-0.0118083
-0.0150801
-0.0197585
-0.0258916
-0.031376
-0.0352075
-0.0316417
-0.0261279
-0.0156607
-0.00596746
-0.00607355
-0.00602574
-0.00605751
-0.00615177
-0.00634747
-0.00667062
-0.00715783
-0.00786344
-0.00887038
-0.0103283
-0.0124356
-0.015605
-0.0199078
-0.0255581
-0.0303372
-0.0342285
-0.030556
-0.0272863
-0.0157099
-0.00689935
-0.00678943
-0.00660389
-0.00650036
-0.00652872
-0.00669503
-0.00700746
-0.00748508
-0.00817073
-0.00912797
-0.0104927
-0.0123802
-0.0151514
-0.0187606
-0.0232865
-0.0268049
-0.0295258
-0.0256993
-0.0247693
-0.00921908
-0.00739102
-0.00779919
-0.00745867
-0.00738606
-0.00727906
-0.00730141
-0.00746606
-0.00780588
-0.00836115
-0.00917273
-0.0103489
-0.0119871
-0.0143089
-0.017191
-0.0207651
-0.0231634
-0.0248719
-0.0206196
-0.0187827
0.00647129
-0.0110085
-0.00838001
-0.0076405
-0.00690282
-0.00671406
-0.00677084
-0.00701951
-0.00741652
-0.00798895
-0.00874838
-0.0098211
-0.0112513
-0.0132333
-0.0155777
-0.0183514
-0.0198209
-0.0201766
-0.0144642
-0.00638516
0.0359414
-0.00737151
-0.0103632
-0.00927959
-0.0092107
-0.00865312
-0.00830529
-0.00812708
-0.00814716
-0.00841751
-0.00892129
-0.00978621
-0.0110091
-0.0128934
-0.0151437
-0.018123
-0.0194741
-0.0192166
-0.00704602
0.0154683
0.0899157
-0.0329077
-0.0076499
-0.00610261
-0.00528008
-0.00497131
-0.00505952
-0.00543388
-0.00589375
-0.00655071
-0.00730374
-0.00842652
-0.0097447
-0.0115974
-0.0132962
-0.0147023
-0.0121945
-0.00318884
0.0284109
0.0913501
0.219507
6.55511e-05
3.51319e-05
8.57259e-05
0.000184239
0.000339576
0.00055351
0.000829796
0.00117327
0.00158859
0.00207893
0.00264429
0.00327903
0.00396873
0.0046867
0.0053907
0.00602412
0.00652138
0.00682893
0.00695596
0.00684945
9.89349e-05
6.77051e-05
0.000126366
0.000227411
0.000381768
0.000591927
0.000862138
0.00119737
0.0016023
0.00208034
0.00263215
0.00325323
0.00392981
0.00463848
0.00533774
0.00597049
0.00646767
0.00677159
0.00689709
0.00677346
3.75068e-05
-3.47994e-06
5.3758e-05
0.00015044
0.000298516
0.000500551
0.000761352
0.00108678
0.00148291
0.00195524
0.00250715
0.00313744
0.00383762
0.00458543
0.0053378
0.0060292
0.00657294
0.00688917
0.00699409
0.00680935
-9.59049e-05
-0.000143477
-8.96195e-05
-1.34781e-07
0.000137945
0.000327422
0.000573893
0.000884512
0.00126737
0.00173106
0.00228348
0.00292898
0.00366373
0.00447303
0.00531253
0.00610503
0.00673518
0.0070779
0.00714399
0.00685248
-0.000312016
-0.000365023
-0.000317266
-0.000238424
-0.000114639
5.72026e-05
0.000283564
0.000573084
0.000936289
0.00138565
0.00193496
0.00259692
0.00337777
0.00426864
0.00523283
0.00617951
0.00695167
0.00734463
0.00734337
0.00686828
-0.000609187
-0.00066735
-0.000628258
-0.000563742
-0.00045935
-0.000311818
-0.000114041
0.000143854
0.000474652
0.000894718
0.00142428
0.00208653
0.00290241
0.0038768
0.00499165
0.00615293
0.00715062
0.00764323
0.00754262
0.00675261
-0.00098297
-0.00104664
-0.00101876
-0.00097272
-0.000893894
-0.000779311
-0.000621949
-0.00041163
-0.00013449
0.00022837
0.00070236
0.00132057
0.00212012
0.00312591
0.00437145
0.00577713
0.00710158
0.00780464
0.00761281
0.00638489
-0.0014275
-0.00149742
-0.00148324
-0.00146006
-0.00141367
-0.00134219
-0.00123989
-0.00109822
-0.000904997
-0.000642629
-0.000285867
0.000200418
0.000863381
0.00176146
0.00292442
0.00442841
0.00611783
0.00732504
0.00725557
0.00580179
-0.00193534
-0.00201232
-0.0020138
-0.00201735
-0.00200992
-0.00199183
-0.00196045
-0.00191148
-0.00183885
-0.00173392
-0.00158473
-0.00137722
-0.00110184
-0.000744706
-0.00020983
0.000801292
0.00265085
0.0049862
0.0059242
0.0053555
-0.00249764
-0.0025823
-0.00259994
-0.0026323
-0.00266826
-0.00271169
-0.00276505
-0.00283159
-0.00291695
-0.00303135
-0.00319481
-0.00345242
-0.00391121
-0.00471118
-0.00575335
-0.00620732
-0.00471985
-0.000927227
0.00258413
0.0048125
-0.00310482
-0.00319756
-0.0032295
-0.00328949
-0.00336892
-0.00347667
-0.00362198
-0.00381858
-0.00408909
-0.00447297
-0.00504272
-0.00593797
-0.0074386
-0.00990138
-0.0131921
-0.015852
-0.0154798
-0.0105612
-0.00422881
0.00162397
-0.00374703
-0.00384675
-0.00388601
-0.0039668
-0.00408319
-0.00424985
-0.00448307
-0.00480762
-0.00526437
-0.00592402
-0.00691425
-0.00846611
-0.0109913
-0.0149448
-0.0201335
-0.0247175
-0.0260902
-0.0212694
-0.0137743
-0.00498665
-0.0044203
-0.00452738
-0.00456367
-0.00465274
-0.00479052
-0.00499844
-0.00529913
-0.00572604
-0.00633282
-0.00721046
-0.00851884
-0.0105333
-0.0137109
-0.0184571
-0.0246236
-0.0301115
-0.0328683
-0.0289138
-0.0220849
-0.0121532
-0.00511484
-0.00521659
-0.00522217
-0.00529394
-0.00543107
-0.00565812
-0.00599829
-0.00648728
-0.00718319
-0.00818114
-0.00964652
-0.0118432
-0.015215
-0.0200063
-0.0262438
-0.0314193
-0.0349629
-0.0315283
-0.026356
-0.01633
-0.00586009
-0.00597351
-0.00592761
-0.00596433
-0.0060632
-0.00626294
-0.00658898
-0.00707781
-0.00778398
-0.00879241
-0.0102564
-0.0123775
-0.0155765
-0.0198591
-0.0253927
-0.0297127
-0.032846
-0.0293209
-0.0264563
-0.0157088
-0.00675656
-0.00665649
-0.00647418
-0.00637787
-0.00641216
-0.0065834
-0.00689858
-0.00737586
-0.00805692
-0.00900582
-0.0103589
-0.0122301
-0.0149792
-0.0185191
-0.0228712
-0.0259774
-0.0281207
-0.0243634
-0.0234689
-0.0088818
-0.00720962
-0.00763435
-0.00729143
-0.00723087
-0.00713164
-0.00716033
-0.00732732
-0.00766459
-0.00821093
-0.00900687
-0.0101616
-0.0117699
-0.0140608
-0.0168863
-0.0203376
-0.0224928
-0.0237885
-0.019642
-0.0176012
0.00707794
-0.0107561
-0.00815663
-0.00741915
-0.00669849
-0.00651818
-0.00658365
-0.00683679
-0.00723258
-0.00779576
-0.00853889
-0.00958532
-0.010985
-0.012935
-0.0152369
-0.017931
-0.0192658
-0.0193773
-0.0137711
-0.00545207
0.0369217
-0.00709644
-0.0101302
-0.00903622
-0.00898892
-0.00843812
-0.00809806
-0.00792249
-0.00793868
-0.00819775
-0.00868183
-0.00952167
-0.0107159
-0.0125773
-0.014805
-0.0177525
-0.0190169
-0.018607
-0.00647278
0.016349
0.0915449
-0.0326041
-0.00734711
-0.0057934
-0.00498378
-0.00469563
-0.0048029
-0.00518894
-0.00565154
-0.00630161
-0.00703982
-0.00814021
-0.00943312
-0.0112614
-0.0129335
-0.0142942
-0.0117113
-0.00248846
0.0293687
0.0929082
0.222144
8.90982e-05
5.8353e-05
0.00010972
0.000209678
0.000367489
0.000585111
0.000866618
0.00121727
0.00164224
0.00214525
0.00272679
0.00338154
0.00409496
0.00483886
0.00556896
0.00622469
0.00673576
0.00704553
0.00716522
0.00704589
0.000123693
9.1872e-05
0.000151377
0.000253895
0.000410718
0.000624508
0.00089983
0.00124207
0.00165641
0.00214685
0.00271457
0.00335539
0.00405546
0.00479055
0.00551648
0.00617208
0.00668298
0.00698785
0.00710405
0.0069682
6.4265e-05
2.25219e-05
8.06677e-05
0.000178866
0.000329475
0.000535238
0.000801311
0.00113403
0.00154006
0.0020256
0.00259476
0.00324692
0.00397401
0.00475251
0.00553656
0.00625536
0.00681483
0.00712924
0.00721773
0.00701565
-6.67819e-05
-0.00011524
-6.04013e-05
3.06716e-05
0.000171404
0.000364797
0.000616851
0.000935274
0.00132888
0.00180717
0.00237906
0.00304984
0.00381661
0.00466305
0.00554214
0.00636933
0.00701811
0.00735306
0.00738829
0.00707075
-0.00028056
-0.00033455
-0.000285746
-0.000205231
-7.86332e-05
9.73911e-05
0.000329776
0.000627819
0.00100293
0.00146872
0.00204037
0.00273174
0.00354854
0.00448743
0.00550208
0.00649338
0.00728733
0.00766047
0.00760363
0.0070899
-0.000575505
-0.000634737
-0.000594555
-0.000528302
-0.00042096
-0.000269005
-6.4798e-05
0.000202282
0.00054604
0.0009842
0.00153873
0.00223481
0.00309546
0.0041234
0.00529907
0.00651562
0.00753661
0.00798549
0.00779275
0.00694898
-0.000947155
-0.00101199
-0.00098303
-0.000935266
-0.000853473
-0.000734407
-0.000570487
-0.000350757
-6.03022e-05
0.000321155
0.000820744
0.00147353
0.00231835
0.00338095
0.00468755
0.00615128
0.00749325
0.0081133
0.0077922
0.00650316
-0.00138954
-0.00146073
-0.00144558
-0.00142084
-0.00137169
-0.001296
-0.00118755
-0.00103711
-0.000831678
-0.000552656
-0.000173811
0.000340653
0.00103654
0.0019651
0.00316131
0.00468951
0.00636385
0.00746088
0.00727871
0.00579868
-0.00189503
-0.00197343
-0.00197414
-0.00197648
-0.00196679
-0.00194523
-0.00190881
-0.00185288
-0.00177113
-0.00165512
-0.00149432
-0.00127925
-0.00101234
-0.000697755
-0.00024004
0.000690345
0.00244854
0.00473677
0.00573081
0.00529762
-0.00245447
-0.0025407
-0.0025579
-0.00258959
-0.0026241
-0.00266523
-0.00271537
-0.00277791
-0.00285925
-0.00297184
-0.00314127
-0.00342586
-0.0039621
-0.00493064
-0.00623825
-0.00694235
-0.00559294
-0.00177503
0.00210535
0.00476014
-0.00305778
-0.00315227
-0.00318419
-0.00324422
-0.0033232
-0.00343011
-0.00357444
-0.00377064
-0.00404333
-0.00443663
-0.00503362
-0.00599618
-0.00764707
-0.0103981
-0.0141096
-0.01716
-0.0170191
-0.0120788
-0.00518874
0.00123466
-0.00369442
-0.00379605
-0.00383577
-0.00391734
-0.00403433
-0.00420156
-0.00443577
-0.00476291
-0.00522653
-0.00590326
-0.00693326
-0.00857234
-0.0112738
-0.0155289
-0.021131
-0.0260169
-0.0275864
-0.022902
-0.015125
-0.00588858
-0.00435965
-0.0044689
-0.00450612
-0.00459673
-0.00473599
-0.00494546
-0.00524819
-0.0056787
-0.00629311
-0.00718756
-0.00853233
-0.0106226
-0.0139439
-0.0188997
-0.0253197
-0.0308034
-0.0334641
-0.0296102
-0.0229198
-0.0129664
-0.00504238
-0.00514654
-0.00515351
-0.00522752
-0.0053668
-0.00559587
-0.00593804
-0.00642957
-0.00713003
-0.00813775
-0.00962452
-0.0118635
-0.0153153
-0.0201854
-0.0264699
-0.0312784
-0.0344964
-0.0310581
-0.0263699
-0.0166025
-0.00577232
-0.00588867
-0.00584425
-0.00588398
-0.00598539
-0.00618714
-0.00651426
-0.00700318
-0.00770875
-0.00871702
-0.0101843
-0.0123105
-0.0155136
-0.0197959
-0.0251842
-0.0291019
-0.0316765
-0.0282067
-0.0258601
-0.0154482
-0.00664409
-0.00654846
-0.00636902
-0.00627747
-0.00631503
-0.00648843
-0.00680392
-0.00727901
-0.00795473
-0.00889474
-0.0102376
-0.0120876
-0.0148109
-0.0182868
-0.0224868
-0.0252803
-0.0269877
-0.0232955
-0.0226967
-0.00834721
-0.00708178
-0.00751245
-0.00716666
-0.00711188
-0.00701573
-0.00704658
-0.00721297
-0.00754587
-0.00808339
-0.00886513
-0.010001
-0.0115813
-0.0138379
-0.0166006
-0.0199333
-0.0219047
-0.0229381
-0.0189071
-0.0170413
0.00774923
-0.0105722
-0.00799234
-0.00726247
-0.00655433
-0.00637827
-0.0064464
-0.00669902
-0.00709024
-0.00764423
-0.00837208
-0.00939857
-0.0107698
-0.012688
-0.0149364
-0.017546
-0.0187677
-0.0187275
-0.01324
-0.00502437
0.0377873
-0.00695808
-0.0100014
-0.00889164
-0.00885143
-0.00829882
-0.0079578
-0.00777875
-0.00778752
-0.00803626
-0.00850399
-0.00932564
-0.0104936
-0.0123305
-0.0145144
-0.0174019
-0.0185771
-0.0180652
-0.00589156
0.0169476
0.0928343
-0.0324187
-0.00717271
-0.00561425
-0.00480621
-0.00452552
-0.00463911
-0.00502911
-0.00548887
-0.0061328
-0.00685735
-0.00794299
-0.00921083
-0.0110139
-0.0126356
-0.0139288
-0.0112237
-0.00185873
0.0302223
0.0939385
0.223912
0.000110076
7.94237e-05
0.000131674
0.000233182
0.000393469
0.000614691
0.00090122
0.00125869
0.0016927
0.00220744
0.0028038
0.00347663
0.0042111
0.00497815
0.00573114
0.00640626
0.0069292
0.00724083
0.00735424
0.00722439
0.000145222
0.000113303
0.000173699
0.000277775
0.000437082
0.000654463
0.00093477
0.00128375
0.00170703
0.00220906
0.00279145
0.00345023
0.00417158
0.00492993
0.00567917
0.0063545
0.00687702
0.00718245
0.00729044
0.00714466
8.70672e-05
4.51689e-05
0.000104252
0.000204062
0.000357236
0.00056671
0.000837951
0.0011777
0.00159313
0.00209101
0.00267601
0.00334797
0.00409901
0.00490428
0.0057156
0.00645757
0.0070298
0.0073418
0.00741562
0.00719972
-4.23702e-05
-9.10243e-05
-3.51944e-05
5.75655e-05
0.000200987
0.000398282
0.000655804
0.000981737
0.00138549
0.00187731
0.00246686
0.00316015
0.00395479
0.0048333
0.00574577
0.00660147
0.00726442
0.00759063
0.00759792
0.00726056
-0.000254439
-0.000308652
-0.000258803
-0.00017652
-4.70891e-05
0.000133071
0.000371302
0.000677457
0.00106367
0.00154446
0.00213609
0.00285356
0.00370356
0.0046805
0.00573629
0.00676321
0.00757261
0.00792445
0.00781719
0.00727531
-0.000547663
-0.000607141
-0.000565884
-0.00049781
-0.000387528
-0.000231254
-2.08953e-05
0.000254785
0.000610403
0.00106473
0.00164105
0.00236563
0.00326122
0.00433481
0.00555971
0.00681975
0.00785655
0.00825982
0.00798267
0.00710252
-0.000917606
-0.000982719
-0.000952705
-0.000903144
-0.000818424
-0.000695035
-0.000524938
-0.000296554
5.83147e-06
0.000403497
0.000924757
0.00160596
0.00248698
0.00359319
0.0049468
0.00645409
0.00780858
0.00834369
0.00790141
0.0065772
-0.00135824
-0.00142976
-0.00141365
-0.00138726
-0.0013354
-0.00125569
-0.00114154
-0.000983199
-0.000767114
-0.000474126
-7.76088e-05