/*--------------------------------*- C++ -*----------------------------------*\
  =========                 |
  \\      /  F ield         | OpenFOAM: The Open Source CFD Toolbox
   \\    /   O peration     | Website:  https://openfoam.org
    \\  /    A nd           | Version:  10
     \\/     M anipulation  |
\*---------------------------------------------------------------------------*/
FoamFile
{
    format      ascii;
    class       surfaceScalarField;
    location    "9";
    object      phi;
}
// * * * * * * * * * * * * * * * * * * * * * * * * * * * * * * * * * * * * * //

dimensions      [0 3 -1 0 0 0 0];

internalField   nonuniform List<scalar> 
22800
(
-3.09306e-06
4.04252e-06
-9.45558e-07
-9.77196e-06
7.26942e-06
-5.90521e-07
-1.77399e-05
8.34711e-06
-3.79128e-07
-2.62965e-05
8.82366e-06
-2.67093e-07
-3.51873e-05
9.17487e-06
-2.84119e-07
-4.43252e-05
9.53749e-06
-3.99548e-07
-5.36178e-05
9.90056e-06
-6.07969e-07
-6.28812e-05
1.0193e-05
-9.29566e-07
-7.17936e-05
1.0311e-05
-1.39864e-06
-7.98607e-05
1.01241e-05
-2.057e-06
-8.63935e-05
9.48082e-06
-2.94803e-06
-9.0512e-05
8.22453e-06
-4.10603e-06
-9.12046e-05
6.23024e-06
-5.53764e-06
-8.74731e-05
3.46585e-06
-7.19728e-06
-7.85973e-05
7.25263e-08
-8.94835e-06
-6.44703e-05
-3.60693e-06
-1.052e-05
-4.61454e-05
-6.7819e-06
-1.1543e-05
-2.61257e-05
-8.43058e-06
-1.15891e-05
-8.25015e-06
-7.5616e-06
-1.0314e-05
-2.3478e-06
-5.90235e-06
-6.12256e-06
1.26111e-05
-2.446e-06
-1.74746e-05
2.10835e-05
-2.46203e-06
-3.07582e-05
2.4005e-05
-2.37425e-06
-4.49272e-05
2.52619e-05
-2.26927e-06
-5.95438e-05
2.60695e-05
-2.2781e-06
-7.43967e-05
2.67812e-05
-2.39072e-06
-8.92752e-05
2.73912e-05
-2.6121e-06
-0.000103849
2.77416e-05
-2.97431e-06
-0.000117602
2.75889e-05
-3.52569e-06
-0.000129775
2.66233e-05
-4.32571e-06
-0.000139343
2.44865e-05
-5.43785e-06
-0.000145008
2.08044e-05
-6.91469e-06
-0.000145302
1.52942e-05
-8.77058e-06
-0.000138831
7.94908e-06
-1.09536e-05
-0.000124593
-8.49748e-07
-1.33161e-05
-0.000102357
-1.04309e-05
-1.54116e-05
-7.36752e-05
-1.87376e-05
-1.67266e-05
-4.22504e-05
-2.32186e-05
-1.66368e-05
-1.39587e-05
-2.13321e-05
-1.45212e-05
-8.71203e-06
-7.59444e-06
-7.16044e-06
2.30636e-05
-3.29204e-06
-2.02456e-05
3.77223e-05
-3.55358e-06
-3.54527e-05
4.27575e-05
-3.54548e-06
-5.16012e-05
4.48467e-05
-3.43631e-06
-6.82137e-05
4.61007e-05
-3.41862e-06
-8.50675e-05
4.71329e-05
-3.49799e-06
-0.000101947
4.79603e-05
-3.68959e-06
-0.000118518
4.835e-05
-4.0373e-06
-0.00013425
4.79263e-05
-4.60512e-06
-0.000148349
4.61968e-05
-5.47504e-06
-0.000159703
4.25805e-05
-6.73942e-06
-0.00016688
3.64666e-05
-8.48547e-06
-0.000168165
2.73464e-05
-1.07672e-05
-0.000161703
1.5043e-05
-1.35563e-05
-0.000146043
1.30239e-07
-1.66398e-05
-0.000120575
-1.64214e-05
-1.94768e-05
-8.68712e-05
-3.11135e-05
-2.13283e-05
-4.94233e-05
-3.94285e-05
-2.1238e-05
-1.57614e-05
-3.66863e-05
-1.83077e-05
-1.53172e-05
-9.15618e-06
-7.36971e-06
3.43466e-05
-3.91337e-06
-2.09583e-05
5.56981e-05
-4.38722e-06
-3.67378e-05
6.29853e-05
-4.44826e-06
-5.35036e-05
6.59553e-05
-4.34283e-06
-7.08037e-05
6.7715e-05
-4.31419e-06
-8.84647e-05
6.91761e-05
-4.38218e-06
-0.000106336
7.0405e-05
-4.57307e-06
-0.000124162
7.11206e-05
-4.94498e-06
-0.000141493
7.08396e-05
-5.58245e-06
-0.000157598
6.89011e-05
-6.59881e-06
-0.000171366
6.44809e-05
-8.13312e-06
-0.000181226
5.66593e-05
-1.03325e-05
-0.000185137
4.45733e-05
-1.33159e-05
-0.000180708
2.77233e-05
-1.71094e-05
-0.00016559
6.51029e-06
-2.14981e-05
-0.000138448
-1.77137e-05
-2.58492e-05
-0.000100221
-4.04531e-05
-2.88879e-05
-5.62981e-05
-5.43136e-05
-2.90375e-05
-1.67034e-05
-5.14731e-05
-2.48079e-05
-2.00636e-05
-1.1957e-05
-7.18104e-06
4.58892e-05
-4.36148e-06
-2.06994e-05
7.42366e-05
-5.02015e-06
-3.6468e-05
8.38948e-05
-5.14096e-06
-5.32986e-05
8.78349e-05
-5.04894e-06
-7.07902e-05
9.02398e-05
-5.0332e-06
-8.88525e-05
9.23681e-05
-5.12972e-06
-0.000107447
9.43781e-05
-5.37848e-06
-0.000126455
9.59854e-05
-5.85646e-06
-0.000145583
9.66449e-05
-6.67732e-06
-0.000164247
9.55651e-05
-8.0002e-06
-0.00018142
9.16895e-05
-1.00356e-05
-0.000195448
8.37215e-05
-1.30348e-05
-0.000203911
7.02774e-05
-1.72408e-05
-0.000203619
5.02143e-05
-2.27827e-05
-0.000190913
2.33129e-05
-2.95093e-05
-0.000163026
-8.90925e-06
-3.66908e-05
-0.000119572
-4.16858e-05
-4.22214e-05
-6.65707e-05
-6.40891e-05
-4.32259e-05
-1.80404e-05
-6.32727e-05
-3.67307e-05
-2.11888e-05
-1.69152e-05
-6.77946e-06
5.73837e-05
-4.71511e-06
-1.99181e-05
9.2922e-05
-5.54676e-06
-3.53645e-05
0.000105065
-5.72427e-06
-5.19569e-05
0.000110082
-5.65431e-06
-6.93522e-05
0.000113305
-5.67022e-06
-8.75617e-05
0.000116405
-5.82701e-06
-0.000106691
0.00011969
-6.18235e-06
-0.000126812
0.000122944
-6.83821e-06
-0.000147859
0.00012564
-7.94796e-06
-0.000169502
0.000126943
-9.73582e-06
-0.000190933
0.000125639
-1.25188e-05
-0.000210576
0.000120081
-1.67167e-05
-0.000225727
0.000108236
-2.28074e-05
-0.000232347
8.80166e-05
-3.11816e-05
-0.000225132
5.80011e-05
-4.19039e-05
-0.00019864
1.89077e-05
-5.43084e-05
-0.000149975
-2.53018e-05
-6.50494e-05
-8.42601e-05
-6.12463e-05
-6.85575e-05
-2.12925e-05
-6.78697e-05
-5.83706e-05
-1.70718e-05
-2.54096e-05
-6.22852e-06
6.86525e-05
-5.04028e-06
-1.87693e-05
0.000111512
-6.04935e-06
-3.36503e-05
0.000126229
-6.28221e-06
-4.9728e-05
0.000132393
-6.23411e-06
-6.67107e-05
0.000136572
-6.28451e-06
-8.47132e-05
0.000140918
-6.51122e-06
-0.000104005
0.000145976
-6.99465e-06
-0.000124887
0.000151695
-7.86895e-06
-0.000147602
0.000157694
-9.33878e-06
-0.000172202
0.000163261
-1.17171e-05
-0.000198309
0.000167223
-1.54761e-05
-0.000224731
0.000167803
-2.13001e-05
-0.000248896
0.000162495
-3.00947e-05
-0.000266147
0.000148113
-4.28447e-05
-0.000269338
0.000121361
-6.01684e-05
-0.000249329
7.99617e-05
-8.10634e-05
-0.000198729
2.55044e-05
-0.000101406
-0.000117481
-3.18908e-05
-0.000110603
-3.10948e-05
-5.85307e-05
-9.57254e-05
-7.77093e-06
-4.03957e-05
-5.55084e-06
7.95795e-05
-5.37611e-06
-1.73067e-05
0.000129846
-6.57767e-06
-3.13771e-05
0.000147159
-6.86031e-06
-4.66121e-05
0.000154449
-6.82007e-06
-6.27505e-05
0.000159598
-6.8876e-06
-7.99955e-05
0.000165331
-7.16726e-06
-9.87698e-05
0.000172517
-7.76594e-06
-0.000119613
0.000181394
-8.85561e-06
-0.000143128
0.000191912
-1.07033e-05
-0.000169872
0.000203736
-1.37313e-05
-0.000200133
0.000216095
-1.86117e-05
-0.000233516
0.000227579
-2.63926e-05
-0.000268259
0.000235834
-3.85963e-05
-0.000300211
0.000237141
-5.70757e-05
-0.000321531
0.000225895
-8.32148e-05
-0.000319551
0.000193818
-0.000115835
-0.000277148
0.000130544
-0.000147443
-0.00018285
3.85794e-05
-0.000164767
-6.015e-05
-3.34815e-05
-0.00014775
5.14482e-07
-6.84354e-05
-4.78288e-06
9.01141e-05
-5.75177e-06
-1.56048e-05
0.000147838
-7.16987e-06
-2.86163e-05
0.000167661
-7.49008e-06
-4.26218e-05
0.000175882
-7.42778e-06
-5.73534e-05
0.000181803
-7.47275e-06
-7.30676e-05
0.000188804
-7.75888e-06
-9.02979e-05
0.000198168
-8.42106e-06
-0.000109774
0.00021054
-9.66941e-06
-0.000132415
0.000226386
-1.18329e-05
-0.0001593
0.000246067
-1.54462e-05
-0.000191562
0.000269752
-2.13948e-05
-0.000230085
0.000297214
-3.1113e-05
-0.000274907
0.000327365
-4.67096e-05
-0.000324101
0.000356923
-7.05879e-05
-0.000371887
0.000377308
-0.000103627
-0.000405203
0.000368573
-0.00014144
-0.000395868
0.000294574
-0.000173366
-0.000304796
0.000137389
-0.000189881
-0.000133115
-2.50301e-05
-0.000180132
-1.92702e-05
-0.000113331
-4.01062e-06
0.000100325
-6.20046e-06
-1.38397e-05
0.000165537
-7.87078e-06
-2.55812e-05
0.000187612
-8.20974e-06
-3.79477e-05
0.000196328
-8.0795e-06
-5.06122e-05
0.000202507
-8.03949e-06
-6.38342e-05
0.000210281
-8.25542e-06
-7.81751e-05
0.000221397
-8.88826e-06
-9.44332e-05
0.000236976
-1.0178e-05
-0.000113682
0.000258131
-1.24968e-05
-0.000137331
0.000286164
-1.6448e-05
-0.000167172
0.000322611
-2.30186e-05
-0.000205403
0.000369152
-3.37063e-05
-0.000254809
0.000426965
-5.01931e-05
-0.000318429
0.000493189
-7.26469e-05
-0.000397797
0.000552747
-9.60703e-05
-0.000485257
0.000564028
-0.000107995
-0.000542775
0.000454371
-0.000102279
-0.00048881
0.000178305
-9.48807e-05
-0.000267623
-0.000119561
-0.000126656
-0.000135019
-0.000151874
-3.40249e-06
0.000110498
-6.7703e-06
-1.23558e-05
0.000183236
-8.74559e-06
-2.27181e-05
0.000207049
-9.07439e-06
-3.30619e-05
0.000215486
-8.8139e-06
-4.2972e-05
0.000221021
-8.60418e-06
-5.26498e-05
0.000228606
-8.64716e-06
-6.25683e-05
0.000240437
-9.12176e-06
-7.33983e-05
0.000258083
-1.0277e-05
-8.60688e-05
0.000283283
-1.24812e-05
-0.0001019
0.000318288
-1.62925e-05
-0.000122807
0.000366014
-2.24956e-05
-0.00015183
0.000429949
-3.17737e-05
-0.00019472
0.000512682
-4.28274e-05
-0.000262258
0.000608766
-4.80401e-05
-0.000369997
0.000691197
-3.07104e-05
-0.000524883
0.000689875
2.904e-05
-0.000687904
0.000500093
0.000117298
-0.000692908
4.00986e-05
0.000143211
-0.00041606
-0.000438065
4.16551e-05
-0.000444999
-0.00010608
-3.26678e-06
0.000121364
-7.59875e-06
-1.17633e-05
0.000201674
-9.94103e-06
-2.08119e-05
0.000226342
-1.0245e-05
-2.88267e-05
0.000233285
-9.78513e-06
-3.53394e-05
0.000236831
-9.29735e-06
-4.04644e-05
0.000242769
-9.03801e-06
-4.44702e-05
0.000253644
-9.2007e-06
-4.76617e-05
0.000271293
-1.00187e-05
-5.04289e-05
0.000297841
-1.17909e-05
-5.34274e-05
0.000336142
-1.48562e-05
-5.78551e-05
0.000389755
-1.9313e-05
-6.72239e-05
0.000463066
-2.37486e-05
-9.09538e-05
0.000557824
-2.14119e-05
-0.00015204
0.000663664
6.18817e-06
-0.000292241
0.000740767
9.06305e-05
-0.000546765
0.00069333
0.000251069
-0.000849955
0.000376359
0.000426924
-0.000884152
-0.000370979
0.000445275
-0.000539487
-0.0010391
0.000256366
-0.000997869
1.33824e-05
-4.09729e-06
0.00013431
-8.84923e-06
-1.29711e-05
0.000222088
-1.15406e-05
-2.10184e-05
0.000246095
-1.17057e-05
-2.65568e-05
0.000249744
-1.09201e-05
-2.91828e-05
0.000249508
-1.00508e-05
-2.89592e-05
0.000251946
-9.4008e-06
-2.59202e-05
0.000259756
-9.15076e-06
-1.982e-05
0.000274671
-9.47821e-06
-1.02214e-05
0.000298811
-1.05692e-05
3.31131e-06
0.000335069
-1.24592e-05
1.98338e-05
0.000387343
-1.41106e-05
3.58812e-05
0.000458923
-1.19039e-05
3.6003e-05
0.000550832
6.87051e-06
-2.1432e-05
0.000648687
7.24127e-05
-0.000211841
0.000708023
0.000223153
-0.00059856
0.000612528
0.000467521
-0.00101924
0.000106717
0.000690322
-0.00104622
-0.000976986
0.000632991
-0.000676519
-0.00174767
0.000338866
-0.00172961
5.52202e-05
-7.03452e-06
0.00015245
-1.11052e-05
-1.77539e-05
0.000247279
-1.44711e-05
-2.51944e-05
0.000268168
-1.46322e-05
-2.79856e-05
0.000265966
-1.34309e-05
-2.62737e-05
0.000259725
-1.19291e-05
-2.02628e-05
0.000256529
-1.05932e-05
-9.75963e-06
0.000258927
-9.6742e-06
6.11162e-06
0.000268124
-9.32396e-06
2.81419e-05
0.000286367
-9.58562e-06
5.80809e-05
0.000315381
-1.02515e-05
9.66856e-05
0.000358404
-9.66519e-06
0.000140226
0.000417567
-2.1849e-06
0.000169202
0.000493267
2.85885e-05
0.00012621
0.000572891
0.000118788
-0.000100439
0.000621765
0.000312907
-0.0005569
0.000477938
0.000591051
-0.00101893
-0.000212753
0.000781497
-0.00111201
-0.00146193
0.000578027
-0.000805606
-0.00231565
0.000261584
-0.00250256
-3.26538e-05
-1.25553e-05
0.000179489
-1.44839e-05
-2.6891e-05
0.000279397
-1.77828e-05
-3.45767e-05
0.000293373
-1.75196e-05
-3.53611e-05
0.000282293
-1.55424e-05
-2.95456e-05
0.000267329
-1.34196e-05
-1.76839e-05
0.000256194
-1.15268e-05
3.9353e-07
0.00025099
-1.01411e-05
2.52701e-05
0.000252451
-9.20331e-06
5.90836e-05
0.000261603
-9.04983e-06
0.000104328
0.000279284
-9.1474e-06
0.000162824
0.000307569
-7.66163e-06
0.000232714
0.000346396
1.2814e-06
0.00029666
0.000395294
3.40278e-05
0.000303422
0.000442626
0.000123503
0.000140224
0.000468581
0.000316381
-0.000250923
0.000303667
0.000565419
-0.000722964
-0.000418849
0.000678137
-0.000986051
-0.00162505
0.000426205
-0.000827676
-0.00265678
0.000182754
-0.00316724
-0.000162999
-3.42657e-05
0.000236131
-2.23761e-05
-5.2929e-05
0.000325294
-2.72333e-05
-5.7589e-05
0.000324388
-2.63547e-05
-5.14034e-05
0.000299447
-2.33398e-05
-3.82474e-05
0.000273782
-1.96086e-05
-1.94346e-05
0.000253515
-1.61342e-05
5.39812e-06
0.000239588
-1.34299e-05
3.78785e-05
0.000231511
-1.15411e-05
8.05238e-05
0.000229807
-1.08495e-05
0.000136899
0.00023399
-1.10815e-05
0.000209318
0.000245263
-1.01127e-05
0.000298286
0.000261176
-3.74792e-06
0.000391468
0.000280852
2.12601e-05
0.000456693
0.000289368
8.80335e-05
0.000407971
0.000280439
0.000236863
0.000152564
0.00012918
0.000429893
-0.000301953
-0.000460977
0.000496645
-0.000734235
-0.00152637
0.000333601
-0.000762387
-0.00276471
0.000136083
-0.0036356
-0.000294024
-2.97703e-05
0.000303856
-3.79552e-05
-6.66561e-05
0.000401031
-3.88518e-05
-7.93771e-05
0.000372908
-3.57988e-05
-7.64964e-05
0.000325493
-2.89262e-05
-6.03275e-05
0.000281412
-2.37994e-05
-3.45579e-05
0.00024701
-1.92647e-05
-7.92377e-07
0.00022171
-1.58876e-05
4.12534e-05
0.000203134
-1.36684e-05
9.34294e-05
0.000190825
-1.31936e-05
0.000159322
0.000182581
-1.44833e-05
0.000240812
0.000179622
-1.58492e-05
0.000339607
0.000176856
-1.44746e-05
0.000444795
0.000176206
-5.42917e-07
0.000538409
0.000159031
3.67228e-05
0.00056293
0.000127816
0.000128103
0.000423907
6.90098e-06
0.000261303
4.52236e-05
-0.000395772
0.000313479
-0.00046536
-0.00128671
0.000270926
-0.000649606
-0.00266887
8.84036e-05
-0.00386533
-0.000419875
-0.000181752
0.000532398
-4.67891e-05
-0.000176966
0.000456733
-6.04879e-05
-0.000143803
0.000400684
-6.09387e-05
-0.000104972
0.000341156
-5.44946e-05
-5.63712e-05
0.000276205
-4.33934e-05
-3.0659e-06
0.000227054
-3.33485e-05
5.35433e-05
0.000191166
-2.60655e-05
0.000115056
0.000163172
-2.15507e-05
0.000182573
0.000143435
-2.01273e-05
0.000260338
0.000126746
-2.19301e-05
0.000348454
0.000117171
-2.56652e-05
0.000449403
0.000105243
-2.93352e-05
0.000553351
9.89971e-05
-2.67395e-05
0.000645429
7.63036e-05
-9.34987e-06
0.000697468
4.16033e-05
3.4173e-05
0.000642903
-6.22255e-05
0.000123691
0.000418333
-0.000325387
0.000154186
-5.36389e-05
-0.00101159
0.00019685
-0.000379592
-0.0023826
3.96857e-05
-0.0036924
-0.000552528
-0.000371919
0.0010765
-0.000172179
-0.000261909
0.000478517
-0.000131794
-0.00010387
0.00034767
-0.000105025
7.08267e-05
0.000245602
-7.91431e-05
0.00023816
0.000171956
-6.30836e-05
0.000392525
0.000123108
-5.04198e-05
0.000532435
9.27412e-05
-4.14859e-05
0.00066079
7.07974e-05
-3.59803e-05
0.000780152
5.73898e-05
-3.33169e-05
0.000895564
4.54564e-05
-3.41222e-05
0.00100986
4.01527e-05
-3.72815e-05
0.00112656
3.18376e-05
-4.32931e-05
0.0012454
2.78824e-05
-4.77262e-05
0.00135389
1.24508e-05
-4.46347e-05
0.00144164
-1.38626e-05
-3.22866e-05
0.00146167
-9.25661e-05
1.03141e-05
0.00136639
-0.000279593
4.94883e-05
0.000979054
-0.000718458
9.42033e-05
0.000274649
-0.00167048
-7.72412e-06
-0.00273292
-0.000684829
0.00122608
-0.000149588
0.00186673
-0.000162133
0.00237706
-0.000162653
0.00277193
-0.000149266
0.00307618
-0.000132304
0.00331729
-0.000117996
0.00351448
-0.000104449
0.00367993
-9.46535e-05
0.00382206
-8.4736e-05
0.00394709
-7.95728e-05
0.00406056
-7.33225e-05
0.00416472
-7.23265e-05
0.00426017
-6.75674e-05
0.00434027
-6.76445e-05
0.0043827
-5.62911e-05
0.00434476
-5.46322e-05
0.00409617
-3.09985e-05
0.0034398
-6.20901e-05
0.00189454
-0.000125214
-0.000838377
-5.29445e-06
6.31241e-06
-1.96352e-06
-1.67115e-05
1.28504e-05
-2.02389e-06
-3.04015e-05
1.51892e-05
-1.87835e-06
-4.48998e-05
1.60271e-05
-1.79593e-06
-5.97211e-05
1.64295e-05
-1.89234e-06
-7.46999e-05
1.67393e-05
-2.16006e-06
-8.96613e-05
1.69635e-05
-2.60995e-06
-0.00010429
1.69822e-05
-3.28352e-06
-0.000118065
1.66177e-05
-4.24094e-06
-0.000130221
1.56502e-05
-5.5509e-06
-0.00013972
1.38297e-05
-7.2791e-06
-0.000145264
1.09064e-05
-9.46827e-06
-0.000145389
6.69362e-06
-1.21064e-05
-0.000138668
1.17273e-06
-1.50907e-05
-0.00012405
-5.41759e-06
-1.81495e-05
-0.000101447
-1.22677e-05
-2.08548e-05
-7.24281e-05
-1.79417e-05
-2.26204e-05
-4.08199e-05
-2.03759e-05
-2.28214e-05
-1.29847e-05
-1.73534e-05
-2.07957e-05
-5.70179e-06
-1.31853e-05
-1.21023e-05
1.99333e-05
-3.96461e-06
-3.37634e-05
3.6852e-05
-4.80252e-06
-5.90978e-05
4.29991e-05
-4.84973e-06
-8.57302e-05
4.51679e-05
-4.77766e-06
-0.000112716
4.60154e-05
-4.87816e-06
-0.000139578
4.64006e-05
-5.19033e-06
-0.00016585
4.63761e-05
-5.7522e-06
-0.000190883
4.56749e-05
-6.63426e-06
-0.00021374
4.38785e-05
-7.92981e-06
-0.000233136
4.04655e-05
-9.74461e-06
-0.000247416
3.48527e-05
-1.21804e-05
-0.000254582
2.64611e-05
-1.53038e-05
-0.000252449
1.48904e-05
-1.91004e-05
-0.000239128
3.57704e-07
-2.34598e-05
-0.000213024
-1.6894e-05
-2.79433e-05
-0.000174225
-3.45651e-05
-3.19137e-05
-0.000125227
-4.91975e-05
-3.44679e-05
-7.20076e-05
-5.56601e-05
-3.45723e-05
-2.45683e-05
-4.83664e-05
-3.09476e-05
-1.95712e-05
-1.82933e-05
-1.50134e-05
3.68109e-05
-5.15623e-06
-4.12269e-05
6.59895e-05
-6.4777e-06
-7.16121e-05
7.64929e-05
-6.65404e-06
-0.000103359
8.00529e-05
-6.57428e-06
-0.000135368
8.12457e-05
-6.64008e-06
-0.000167079
8.15371e-05
-6.92323e-06
-0.000197962
8.10535e-05
-7.48371e-06
-0.0002273
7.93927e-05
-8.41705e-06
-0.000254076
7.58974e-05
-9.84882e-06
-0.000276888
6.97307e-05
-1.19277e-05
-0.000293907
5.99392e-05
-1.48068e-05
-0.000302892
4.5573e-05
-1.86123e-05
-0.000301302
2.5928e-05
-2.33952e-05
-0.000286502
1.03256e-06
-2.90307e-05
-0.000256404
-2.86061e-05
-3.50259e-05
-0.000210557
-5.93708e-05
-4.05185e-05
-0.000151532
-8.53823e-05
-4.41682e-05
-8.66628e-05
-9.7438e-05
-4.43296e-05
-2.89072e-05
-8.52948e-05
-3.91349e-05
-3.54398e-05
-2.21948e-05
-1.60406e-05
5.50305e-05
-6.09236e-06
-4.40899e-05
9.74676e-05
-7.81599e-06
-7.65316e-05
0.000112591
-8.10455e-06
-0.000110387
0.000117594
-8.0283e-06
-0.000144559
0.000119182
-8.07792e-06
-0.000178548
0.000119498
-8.35477e-06
-0.000211905
0.000118781
-8.94289e-06
-0.000244014
0.000116525
-9.96869e-06
-0.000273954
0.000111857
-1.1602e-05
-0.000300387
0.000103621
-1.40559e-05
-0.000321441
9.04339e-05
-1.75738e-05
-0.000334632
7.08239e-05
-2.23921e-05
-0.000336875
4.35324e-05
-2.86775e-05
-0.000324696
8.15026e-06
-3.6406e-05
-0.000294712
-3.49754e-05
-4.51132e-05
-0.000244951
-8.1456e-05
-5.35246e-05
-0.000177247
-0.000122465
-5.95101e-05
-0.000100309
-0.000143287
-6.01262e-05
-3.16147e-05
-0.000126508
-5.2289e-05
-5.07013e-05
-2.83103e-05
-1.61825e-05
7.36975e-05
-6.84592e-06
-4.482e-05
0.000130019
-8.9336e-06
-7.80366e-05
0.000149993
-9.32687e-06
-0.000112801
0.00015658
-9.27048e-06
-0.000148089
0.000158774
-9.33856e-06
-0.000183539
0.000159483
-9.66416e-06
-0.000218892
0.000159116
-1.03608e-05
-0.000253748
0.00015712
-1.15961e-05
-0.000287418
0.000152452
-1.36027e-05
-0.00031876
0.000143653
-1.66896e-05
-0.000345977
0.00012886
-2.1244e-05
-0.000366381
0.000105895
-2.77025e-05
-0.000376212
7.25827e-05
-3.64599e-05
-0.000370622
2.74652e-05
-4.76873e-05
-0.000344362
-2.96492e-05
-6.10953e-05
-0.000292636
-9.49335e-05
-7.49401e-05
-0.000215043
-0.000156634
-8.56451e-05
-0.000121011
-0.00019293
-8.76145e-05
-3.54985e-05
-0.000173826
-7.49261e-05
-6.50028e-05
-3.81121e-05
-1.59256e-05
9.24146e-05
-7.50655e-06
-4.45828e-05
0.000163077
-9.9479e-06
-7.80107e-05
0.000188143
-1.04458e-05
-0.000113166
0.000196504
-1.04225e-05
-0.000149126
0.000199599
-1.05356e-05
-0.000185721
0.000201205
-1.09538e-05
-0.000222952
0.000201992
-1.1827e-05
-0.000260746
0.000201452
-1.33757e-05
-0.000298787
0.000198462
-1.59164e-05
-0.000336312
0.000191336
-1.9894e-05
-0.000371807
0.000177748
-2.59126e-05
-0.000402599
0.000154711
-3.47401e-05
-0.000424374
0.000118763
-4.7213e-05
-0.000430777
6.66992e-05
-6.40125e-05
-0.000414318
-2.6691e-06
-8.53432e-05
-0.000365222
-8.95701e-05
-0.000108768
-0.000277933
-0.000180695
-0.000128276
-0.000158952
-0.000247296
-0.000133172
-4.43263e-05
-0.000234837
-0.000111985
-8.18202e-05
-5.29185e-05
-1.54554e-05
0.000110985
-8.1558e-06
-4.38282e-05
0.000196366
-1.09658e-05
-7.71377e-05
0.000226739
-1.15687e-05
-0.000112327
0.000237036
-1.15769e-05
-0.00014858
0.000241304
-1.1736e-05
-0.000185945
0.000244315
-1.22557e-05
-0.000224745
0.000247125
-1.33286e-05
-0.000265335
0.000249412
-1.52392e-05
-0.000307942
0.00025014
-1.84097e-05
-0.00035244
0.000247583
-2.34667e-05
-0.000397977
0.000239134
-3.13253e-05
-0.000442423
0.000221125
-4.32676e-05
-0.000481611
0.000188771
-6.09155e-05
-0.000508399
0.000136552
-8.59099e-05
-0.000511788
5.94284e-05
-0.000118876
-0.000477902
-4.74266e-05
-0.000157093
-0.000388652
-0.000182473
-0.000188878
-0.000236824
-0.000313526
-0.000196202
-6.94873e-05
-0.000334788
-0.00016311
-0.000117629
-7.40739e-05
-1.48315e-05
0.000129294
-8.85279e-06
-4.27034e-05
0.000229726
-1.20662e-05
-7.56012e-05
0.000265544
-1.27675e-05
-0.000110419
0.000277817
-1.27832e-05
-0.000146428
0.000283382
-1.29561e-05
-0.000183899
0.00028816
-1.35409e-05
-0.000223504
0.00029374
-1.47763e-05
-0.000266106
0.000300175
-1.70165e-05
-0.000312643
0.000306777
-2.08036e-05
-0.000363932
0.000312123
-2.69825e-05
-0.000420311
0.000313771
-3.6868e-05
-0.000481054
0.000307926
-5.24508e-05
-0.000543511
0.000289095
-7.64641e-05
-0.0006019
0.000249576
-0.00011171
-0.000644792
0.000177552
-0.000158446
-0.000652267
5.29036e-05
-0.000208691
-0.000585227
-0.00015609
-0.000240865
-0.000399808
-0.000425722
-0.000237991
-0.000139711
-0.000541836
-0.000200799
-0.000224518
-0.000101258
-1.41047e-05
0.000147298
-9.65122e-06
-4.13155e-05
0.000263089
-1.33212e-05
-7.34957e-05
0.000304338
-1.41041e-05
-0.000107426
0.000318398
-1.40778e-05
-0.000142425
0.000325102
-1.41952e-05
-0.000178954
0.000331688
-1.47583e-05
-0.000218021
0.000340436
-1.60498e-05
-0.000261008
0.000351979
-1.84867e-05
-0.000309641
0.000366299
-2.27216e-05
-0.000365933
0.000382782
-2.9813e-05
-0.000432018
0.000399952
-4.1491e-05
-0.000509807
0.000415055
-6.04533e-05
-0.000600492
0.000423264
-9.01931e-05
-0.000703336
0.000414564
-0.000132733
-0.000811597
0.000363491
-0.000181305
-0.000899367
0.00020988
-0.000210646
-0.000896523
-0.000138844
-0.000193455
-0.000688528
-0.000662529
-0.000161069
-0.00029279
-0.000951952
-0.000165754
-0.000504765
-0.000125873
-1.33859e-05
0.000165102
-1.06192e-05
-3.98887e-05
0.000296542
-1.48216e-05
-7.1067e-05
0.000342965
-1.56586e-05
-0.000103507
0.000358273
-1.5515e-05
-0.000136506
0.000365532
-1.547e-05
-0.000170664
0.000373465
-1.58739e-05
-0.00020724
0.000385167
-1.70431e-05
-0.000248039
0.000402033
-1.94335e-05
-0.000295489
0.000425011
-2.3759e-05
-0.000352788
0.000454823
-3.11911e-05
-0.000424066
0.000491845
-4.3633e-05
-0.000514659
0.000535669
-6.37271e-05
-0.000631805
0.000583234
-9.30173e-05
-0.000784291
0.000619258
-0.000124854
-0.000974243
0.000588988
-0.000131616
-0.00116956
0.000367158
-6.99622e-05
-0.00125279
-0.000206649
4.87598e-05
-0.00103367
-0.00105664
8.01087e-05
-0.000515198
-0.00154895
-4.81356e-05
-0.00105421
-0.000117626
-1.28972e-05
0.000183091
-1.18614e-05
-3.88724e-05
0.000330469
-1.66969e-05
-6.88703e-05
0.000381432
-1.75432e-05
-9.91925e-05
0.000396961
-1.71798e-05
-0.000129062
0.000403629
-1.68317e-05
-0.000159125
0.000411778
-1.68965e-05
-0.000190745
0.00042537
-1.77057e-05
-0.000225906
0.000446624
-1.97069e-05
-0.000267402
0.000477599
-2.35728e-05
-0.000319184
0.000520655
-3.0343e-05
-0.000386908
0.000578506
-4.14329e-05
-0.000478858
0.000653301
-5.74556e-05
-0.000607799
0.000741778
-7.24302e-05
-0.000792092
0.000815888
-6.03762e-05
-0.00104215
0.000780085
2.82467e-05
-0.00131784
0.000444721
0.000227167
-0.00146752
-0.000369473
0.000429807
-0.00125803
-0.00150887
0.000385954
-0.000702249
-0.00217385
0.000110773
-0.00182892
-3.3621e-05
-1.30835e-05
0.000202146
-1.35704e-05
-3.91162e-05
0.000365765
-1.92049e-05
-6.79492e-05
0.000420051
-2.00316e-05
-9.55582e-05
0.000434116
-1.93306e-05
-0.000121116
0.000438391
-1.85016e-05
-0.000145257
0.000444888
-1.80071e-05
-0.000169242
0.000458337
-1.81819e-05
-0.000194865
0.000481642
-1.94146e-05
-0.000224655
0.000517799
-2.22008e-05
-0.000262288
0.000570522
-2.70892e-05
-0.000313336
0.000644286
-3.40448e-05
-0.000386771
0.000742278
-3.92911e-05
-0.000498507
0.000858378
-2.6277e-05
-0.000674853
0.000948507
4.9916e-05
-0.000941752
0.00088593
0.000251684
-0.00126446
0.000446049
0.000572452
-0.00147742
-0.000529447
0.000799854
-0.00130259
-0.00184509
0.000606671
-0.000767161
-0.00267018
0.000217275
-0.00263233
4.96369e-05
-1.45268e-05
0.00022382
-1.59959e-05
-4.17364e-05
0.000403956
-2.25218e-05
-6.97998e-05
0.000459585
-2.31757e-05
-9.43748e-05
0.000469725
-2.19547e-05
-0.000114611
0.000469057
-2.048e-05
-0.000131125
0.000471263
-1.92624e-05
-0.000144962
0.000481628
-1.86052e-05
-0.000157372
0.000503359
-1.87845e-05
-0.000169989
0.000539879
-2.00315e-05
-0.000185267
0.000595519
-2.21785e-05
-0.000207372
0.000675544
-2.3264e-05
-0.000244076
0.000782534
-1.54557e-05
-0.000313914
0.000907975
2.7112e-05
-0.000453477
0.000998054
0.000162428
-0.000712803
0.000919157
0.000449252
-0.00106779
0.000434688
0.000833869
-0.00131718
-0.00059326
0.00100353
-0.0011902
-0.00197391
0.000634827
-0.000744095
-0.00297313
0.000195707
-0.00332844
7.23591e-06
-1.90995e-05
0.000251687
-1.98734e-05
-4.96658e-05
0.00044792
-2.78689e-05
-7.7237e-05
0.000500977
-2.84534e-05
-9.78378e-05
0.000503455
-2.65597e-05
-0.00011154
0.000494936
-2.41053e-05
-0.000119164
0.000490079
-2.17859e-05
-0.000121313
0.000494066
-1.99621e-05
-0.000118359
0.000509936
-1.88562e-05
-0.000110727
0.000541097
-1.8436e-05
-9.90383e-05
0.000591485
-1.79056e-05
-8.52661e-05
0.000666178
-1.40706e-05
-7.47597e-05
0.000766493
3.34937e-06
-8.75383e-05
0.000884325
6.50168e-05
-0.000166649
0.000967023
0.000228929
-0.000380984
0.000898282
0.000548117
-0.000708634
0.000437034
0.000916355
-0.000946042
-0.000559992
0.000985638
-0.000935891
-0.00191098
0.000504948
-0.00064894
-0.00310659
0.00010809
-0.00390436
-0.000105677
-2.53249e-05
0.000287876
-2.53473e-05
-6.14159e-05
0.000500591
-3.43621e-05
-9.07481e-05
0.000547274
-3.44836e-05
-0.000109556
0.000538218
-3.14969e-05
-0.000117342
0.000517308
-2.80065e-05
-0.000115472
0.000501334
-2.46523e-05
-0.000104818
0.000495088
-2.18166e-05
-8.52465e-05
0.000500783
-1.9621e-05
-5.61352e-05
0.000520965
-1.80283e-05
-1.60728e-05
0.000558148
-1.58733e-05
3.54072e-05
0.000616683
-9.6473e-06
9.59979e-05
0.000696423
1.07604e-05
0.000152541
0.000789091
7.27194e-05
0.000167589
0.000851718
0.000223759
6.98056e-05
0.000798728
0.000513719
-0.000162031
0.000420668
0.000813621
-0.000386876
-0.000465297
0.000808286
-0.00055614
-0.00168452
0.000369007
-0.000465723
-0.0030614
4.71473e-05
-0.00432317
-0.000209917
-5.89416e-05
0.000359934
-3.5493e-05
-0.000101857
0.000563637
-4.73647e-05
-0.000125101
0.000591133
-4.69696e-05
-0.000132201
0.000564788
-4.28103e-05
-0.000128311
0.000531264
-3.74547e-05
-0.000115241
0.000504254
-3.21243e-05
-9.27228e-05
0.000486632
-2.74927e-05
-5.89419e-05
0.000479264
-2.38028e-05
-1.16769e-05
0.000484037
-2.11875e-05
5.1818e-05
0.000501955
-1.83827e-05
0.0001343
0.000536687
-1.25988e-05
0.000237772
0.000585745
3.45791e-06
0.000354099
0.000643077
5.09472e-05
0.000459758
0.000673661
0.000160431
0.000494275
0.000629309
0.000371766
0.000388298
0.000356793
0.000599745
0.00016953
-0.000328802
0.000578919
-0.000158309
-0.00131405
0.00029097
-0.000235986
-0.0028699
2.22561e-05
-0.00455943
-0.000293749
-4.02885e-05
0.00041619
-5.39227e-05
-0.00011417
0.000664972
-6.63047e-05
-0.000156516
0.000660648
-6.2969e-05
-0.00017035
0.000604187
-5.44907e-05
-0.000163603
0.000547726
-4.70081e-05
-0.000141313
0.000502635
-3.99353e-05
-0.000105705
0.000469124
-3.39875e-05
-5.60373e-05
0.000445338
-2.94103e-05
9.38313e-06
0.000432061
-2.66372e-05
9.35151e-05
0.000427974
-2.46347e-05
0.000200142
0.000436248
-2.2037e-05
0.000332407
0.000451979
-1.29732e-05
0.000483863
0.000475944
1.51344e-05
0.000637965
0.00047745
7.88327e-05
0.000753196
0.000437588
0.000204593
0.000742762
0.000264949
0.000363581
0.000562509
-0.000194221
0.000359151
0.000216222
-0.000919334
0.0002225
5.33374e-05
-0.00262833
9.72496e-06
-0.00456747
-0.000358491
-0.000189251
0.000619964
-6.13117e-05
-0.000210911
0.000711929
-8.57851e-05
-0.000220193
0.000698852
-8.9861e-05
-0.00022058
0.000632864
-8.2785e-05
-0.000195439
0.00055016
-7.09691e-05
-0.000150899
0.000483797
-5.90498e-05
-9.0879e-05
0.000432367
-4.93288e-05
-1.51457e-05
0.000390446
-4.23914e-05
7.50942e-05
0.000360489
-3.87956e-05
0.000182974
0.000336232
-3.80679e-05
0.00030841
0.000324271
-3.91242e-05
0.000455005
0.000314281
-3.82326e-05
0.00061715
0.000315427
-2.83668e-05
0.000778164
0.000305055
2.03035e-06
0.000923243
0.00026834
5.8342e-05
0.000983052
0.000168408
0.000160423
0.000946991
-0.000157288
0.000153313
0.000773095
-0.000674894
0.000126305
0.000498555
-0.00231011
-3.99584e-06
-0.00420896
-0.00041249
-0.000665651
0.00128351
-0.000170078
-0.000622127
0.000702573
-0.000165963
-0.000475192
0.000588267
-0.000141375
-0.000272006
0.000470836
-0.000120301
-6.00315e-05
0.000379552
-0.00010445
0.000150577
0.000312948
-9.01804e-05
0.000353987
0.000266683
-7.92123e-05
0.000549934
0.00022978
-7.12616e-05
0.000739561
0.000204039
-6.64944e-05
0.000925458
0.000181279
-6.5066e-05
0.00111167
0.000167517
-6.67401e-05
0.00129856
0.000153772
-6.96706e-05
0.00149482
0.000144428
-7.29938e-05
0.00168988
0.000130831
-6.54657e-05
0.00188358
9.46508e-05
-5.23051e-05
0.00203451
3.7177e-05
-9.38129e-06
0.00208601
-0.000177595
1.82956e-05
0.00203043
-0.000547769
2.26578e-05
0.00138725
-0.00164328
-3.13807e-05
-0.00304252
-0.000464016
0.00126919
-0.000135269
0.0019688
-0.000159165
0.00255974
-0.000165322
0.00304135
-0.000160048
0.00343891
-0.00015031
0.00377372
-0.000139857
0.00406494
-0.000128981
0.00432083
-0.00012077
0.00455176
-0.000111623
0.0047605
-0.000107037
0.00495498
-0.000100285
0.00513666
-0.000100227
0.00530754
-9.40206e-05
0.00546807
-9.73487e-05
0.00559139
-8.49608e-05
0.00566466
-9.07222e-05
0.0055245
-6.8438e-05
0.00501884
-0.000104198
0.00336439
-0.00011404
-0.000516503
-6.04383e-06
6.61198e-06
-2.53167e-06
-1.92822e-05
1.43824e-05
-3.16786e-06
-3.51729e-05
1.72316e-05
-3.21932e-06
-5.18993e-05
1.81774e-05
-3.24691e-06
-6.88724e-05
1.8521e-05
-3.44026e-06
-8.59022e-05
1.87036e-05
-3.83375e-06
-0.000102793
1.87426e-05
-4.46144e-06
-0.000119195
1.84974e-05
-5.37936e-06
-0.000134535
1.77582e-05
-6.65943e-06
-0.000147971
1.62646e-05
-8.3792e-06