/*--------------------------------*- C++ -*----------------------------------*\
  =========                 |
  \\      /  F ield         | OpenFOAM: The Open Source CFD Toolbox
   \\    /   O peration     | Website:  https://openfoam.org
    \\  /    A nd           | Version:  10
     \\/     M anipulation  |
\*---------------------------------------------------------------------------*/
FoamFile
{
    format      ascii;
    class       volVectorField;
    location    "9";
    object      U;
}
// * * * * * * * * * * * * * * * * * * * * * * * * * * * * * * * * * * * * * //

dimensions      [0 1 -1 0 0 0 0];

internalField   nonuniform List<vector> 
8000
(
(-8.17267e-05 0.000112915 -4.42624e-05)
(-0.000566493 0.000234206 -7.34511e-06)
(-0.00136727 0.000272548 1.08049e-05)
(-0.00219507 0.000290069 2.03587e-05)
(-0.00307099 0.000305754 2.09504e-05)
(-0.00397465 0.000324943 1.56137e-05)
(-0.00489893 0.000346756 5.42744e-06)
(-0.00583108 0.000367944 -1.04299e-05)
(-0.00674632 0.000384011 -3.37625e-05)
(-0.00760464 0.000389307 -6.69062e-05)
(-0.00834745 0.00037708 -0.000112407)
(-0.008896 0.000340156 -0.000172471)
(-0.00915417 0.000273031 -0.000247908)
(-0.00901829 0.000174356 -0.000336663)
(-0.00839713 4.73077e-05 -0.000432027)
(-0.00723983 -9.53603e-05 -0.000518281)
(-0.00558643 -0.000220287 -0.000574244)
(-0.00363921 -0.000283679 -0.000575043)
(-0.00152583 -0.000244743 -0.000502502)
(-0.000210804 -2.29665e-05 -0.000261991)
(-0.000199641 0.000733812 -0.000134347)
(-0.0010661 0.00127195 -0.000121341)
(-0.00239715 0.00145536 -0.000111608)
(-0.00377394 0.0015364 -0.000103539)
(-0.00522025 0.00159325 -0.000102335)
(-0.00669871 0.00164852 -0.000106177)
(-0.008191 0.00170088 -0.000114595)
(-0.009672 0.00173902 -0.000128933)
(-0.0111002 0.00174614 -0.000151563)
(-0.0124127 0.00170116 -0.000185654)
(-0.0135209 0.00157978 -0.000234875)
(-0.0143079 0.00135722 -0.000302716)
(-0.0146325 0.00101336 -0.000390915)
(-0.0143475 0.000542358 -0.000497487)
(-0.0133257 -3.12187e-05 -0.000618479)
(-0.0114899 -0.000643463 -0.000726556)
(-0.008896 -0.00117166 -0.000793739)
(-0.00584083 -0.00144866 -0.000784501)
(-0.00251954 -0.00131292 -0.000668154)
(-0.00039309 -0.000474369 -0.000302954)
(-0.000236524 0.00176773 -0.000184896)
(-0.00124176 0.0029125 -0.000185426)
(-0.00276999 0.00330793 -0.000180348)
(-0.00434176 0.00347543 -0.000172302)
(-0.00598776 0.00357866 -0.000169567)
(-0.00766662 0.00366518 -0.000171122)
(-0.00935951 0.00373518 -0.000176955)
(-0.0110412 0.00376875 -0.000188889)
(-0.0126694 0.00373463 -0.000209959)
(-0.0141788 0.00359265 -0.000244401)
(-0.015475 0.00329639 -0.000297381)
(-0.0164308 0.00279823 -0.000374276)
(-0.0168871 0.00205957 -0.000479148)
(-0.0166602 0.00106932 -0.000612397)
(-0.0155757 -0.000127592 -0.000765529)
(-0.0135114 -0.00140105 -0.000908174)
(-0.0104975 -0.00252009 -0.00100037)
(-0.0068798 -0.00313414 -0.000989778)
(-0.0028947 -0.00289673 -0.000833089)
(-0.000401518 -0.00122576 -0.000358115)
(-0.000239816 0.00286137 -0.000220341)
(-0.00128156 0.00465351 -0.000232322)
(-0.00287008 0.0052667 -0.000231137)
(-0.00449999 0.00551826 -0.000223479)
(-0.00621081 0.0056671 -0.000220189)
(-0.00796347 0.00578856 -0.000220973)
(-0.0097452 0.00588613 -0.000226308)
(-0.0115382 0.0059334 -0.000238591)
(-0.0133084 0.00588669 -0.000261702)
(-0.014998 0.00568771 -0.000301253)
(-0.0165164 0.00526613 -0.000364645)
(-0.0177308 0.00454634 -0.000460275)
(-0.0184603 0.0034623 -0.000595529)
(-0.0184793 0.0019842 -0.000773692)
(-0.0175413 0.000156681 -0.000987112)
(-0.0154366 -0.0018389 -0.00120222)
(-0.0121098 -0.00365747 -0.00135061)
(-0.00793345 -0.00471537 -0.00135121)
(-0.00318518 -0.00441447 -0.00113392)
(-0.000328307 -0.00180643 -0.000477611)
(-0.000226841 0.00400816 -0.000244089)
(-0.00125611 0.00648739 -0.000265736)
(-0.002843 0.0073317 -0.000267757)
(-0.00447404 0.00767508 -0.000260942)
(-0.00619658 0.0078803 -0.000258483)
(-0.00797699 0.00805479 -0.00026086)
(-0.00981261 0.00820874 -0.000269171)
(-0.0116984 0.00831268 -0.000286638)
(-0.0136153 0.00831385 -0.000318381)
(-0.0155216 0.00813821 -0.000372004)
(-0.0173389 0.00769062 -0.000458163)
(-0.0189359 0.00686023 -0.000590281)
(-0.0201118 0.0055367 -0.000782072)
(-0.0205846 0.00364224 -0.00104181)
(-0.0200011 0.00119073 -0.00136153)
(-0.0180121 -0.00162355 -0.00171287)
(-0.0143953 -0.00432494 -0.00198132)
(-0.0095023 -0.00604251 -0.00202659)
(-0.00362001 -0.00579437 -0.00171047)
(-0.000203378 -0.00213814 -0.000711503)
(-0.000205185 0.00516301 -0.000261386)
(-0.00119552 0.00835313 -0.000291732)
(-0.00274764 0.00944049 -0.000296688)
(-0.00434915 0.00988612 -0.000291184)
(-0.0060535 0.0101643 -0.000290664)
(-0.0078339 0.01042 -0.000296521)
(-0.00970031 0.0106754 -0.000310675)
(-0.0116644 0.0109038 -0.000337486)
(-0.0137287 0.0110494 -0.000383831)
(-0.0158766 0.0110282 -0.000460165)
(-0.0180549 0.0107235 -0.000581891)
(-0.0201486 0.00998541 -0.000770284)
(-0.0219496 0.00864173 -0.00105055)
(-0.0231249 0.00653326 -0.00144288)
(-0.0232014 0.00358398 -0.00194791)
(-0.0216144 -6.7994e-05 -0.00255371)
(-0.0178448 -0.00384294 -0.00308447)
(-0.0120898 -0.00659078 -0.00327617)
(-0.00447944 -0.00670946 -0.00281726)
(-6.42611e-05 -0.00201122 -0.0011529)
(-0.000177236 0.00630268 -0.000276465)
(-0.00111045 0.0102191 -0.00031543)
(-0.00260378 0.01156 -0.000323187)
(-0.00414989 0.0121177 -0.000318986)
(-0.00580627 0.0124854 -0.00032061)
(-0.00755271 0.0128527 -0.0003306)
(-0.00941269 0.0132609 -0.000351976)
(-0.0114175 0.0136944 -0.000390607)
(-0.0135964 0.0141054 -0.000455689)
(-0.0159682 0.0144118 -0.000561622)
(-0.0185225 0.0144883 -0.000730701)
(-0.0211888 0.0141558 -0.000996239)
(-0.023786 0.013178 -0.00140357)
(-0.0259642 0.0112851 -0.00200298)
(-0.0271427 0.00824541 -0.00282999)
(-0.0264775 0.00400846 -0.00385138)
(-0.0230393 -0.00100213 -0.00492316)
(-0.0165507 -0.00537328 -0.00551847)
(-0.00649685 -0.00661916 -0.00492101)
(-0.00013483 -0.00131205 -0.00203105)
(-0.000143709 0.00741314 -0.000291647)
(-0.00100486 0.0120665 -0.000339635)
(-0.00241782 0.013667 -0.000349813)
(-0.00387996 0.0143404 -0.000346122)
(-0.0054505 0.014807 -0.000348962)
(-0.00711385 0.0153086 -0.000362274)
(-0.00890545 0.0159144 -0.000390424)
(-0.0108758 0.0166312 -0.000441117)
(-0.0130836 0.0174345 -0.000526445)
(-0.0155904 0.0182665 -0.000665696)
(-0.0184454 0.0190221 -0.000889973)
(-0.0216551 0.0195275 -0.00124884)
(-0.0251265 0.0195184 -0.00181677)
(-0.0285771 0.0186263 -0.00269103)
(-0.0314323 0.0164039 -0.00396347)
(-0.0326937 0.0123989 -0.0056524)
(-0.030783 0.00638784 -0.0075801)
(-0.0243702 -0.000655863 -0.00907097)
(-0.0114804 -0.00472357 -0.0085452)
(-0.00118067 -0.000175345 -0.00386969)
(-0.000106163 0.00848565 -0.000308564)
(-0.000884714 0.0138824 -0.000366237)
(-0.00219837 0.0157405 -0.000378057)
(-0.00354478 0.0165202 -0.000373163)
(-0.00498233 0.0170782 -0.000375031)
(-0.00649631 0.0177178 -0.000389246)
(-0.00812989 0.0185447 -0.000421684)
(-0.00994794 0.0196008 -0.000481978)
(-0.0120332 0.0209032 -0.000585133)
(-0.0144872 0.0224472 -0.000755419)
(-0.0174258 0.0241935 -0.00103309)
(-0.0209602 0.0260435 -0.00148433)
(-0.0251561 0.0278003 -0.00221173)
(-0.0299511 0.0290907 -0.00335626)
(-0.035017 0.0292238 -0.00507589)
(-0.0394889 0.0269397 -0.00747296)
(-0.0413737 0.0202611 -0.0104128)
(-0.0372748 0.00867145 -0.013234)
(-0.0224997 -0.0017139 -0.0133512)
(-0.00491253 0.000288641 -0.00749244)
(-6.86064e-05 0.00952007 -0.000329202)
(-0.000763675 0.015664 -0.000397364)
(-0.00196651 0.0177635 -0.000409651)
(-0.00316574 0.0186196 -0.000400908)
(-0.00441713 0.0192355 -0.000398319)
(-0.0057016 0.0199849 -0.000409339)
(-0.00706309 0.0210181 -0.000441401)
(-0.00857056 0.0224221 -0.000505796)
(-0.0103162 0.0242733 -0.000619589)
(-0.0124227 0.0266498 -0.000809804)
(-0.0150499 0.0296279 -0.00112016)
(-0.0183988 0.033267 -0.00161856)
(-0.0227282 0.0375591 -0.00239417)
(-0.0283635 0.0422125 -0.00353325)
(-0.0356577 0.0461485 -0.00510595)
(-0.0446592 0.0465452 -0.00725469)
(-0.0530982 0.0382104 -0.0104362)
(-0.0548534 0.0180827 -0.0143577)
(-0.0409538 -0.00362687 -0.0153659)
(-0.0125548 -0.00412494 -0.0121257)
(-3.91677e-05 0.0105325 -0.000356802)
(-0.000668216 0.0174258 -0.000436281)
(-0.00176385 0.0197291 -0.000447331)
(-0.00279082 0.0206025 -0.00043115)
(-0.00380326 0.0212069 -0.000419265)
(-0.00477206 0.0219952 -0.000421476)
(-0.00573437 0.0231645 -0.000446519)
(-0.0067476 0.02485 -0.000506488)
(-0.00788855 0.0271952 -0.000618404)
(-0.00926482 0.0303783 -0.000806514)
(-0.0110301 0.0346229 -0.00110358)
(-0.0134147 0.0401948 -0.00154146)
(-0.0168557 0.0473092 -0.00209072)
(-0.0221882 0.0556186 -0.00254304)
(-0.0308085 0.0631429 -0.00263056)
(-0.0444653 0.0643694 -0.00252842)
(-0.0620999 0.0504457 -0.00405915)
(-0.0740468 0.0160704 -0.00649427)
(-0.0614805 -0.0210843 -0.00651089)
(-0.0208068 -0.0236785 -0.0115213)
(-3.34343e-05 0.0115722 -0.000397211)
(-0.000646045 0.0192209 -0.000490835)
(-0.00166302 0.0216631 -0.000499721)
(-0.00250432 0.0224579 -0.000472105)
(-0.00323196 0.0229394 -0.000444706)
(-0.0038045 0.0236449 -0.000430996)
(-0.00424784 0.0248146 -0.000440997)
(-0.0045913 0.0266226 -0.000486563)
(-0.00486668 0.0292681 -0.000581874)
(-0.0051203 0.0330155 -0.000740388)
(-0.0054317 0.0382019 -0.000960357)
(-0.00597437 0.0452467 -0.00118459)
(-0.00734773 0.0544049 -0.00114362)
(-0.0110193 0.064933 -8.67032e-05)
(-0.0201388 0.0734399 0.00267628)
(-0.0397796 0.0718108 0.00687747)
(-0.0715354 0.0485309 0.0105887)
(-0.0950882 -0.007489 0.0157519)
(-0.0789396 -0.0651321 0.0159129)
(-0.0271554 -0.0654464 -0.00183757)
(-7.86891e-05 0.0127244 -0.000460272)
(-0.000770534 0.0211141 -0.00056652)
(-0.00177014 0.0235686 -0.000566623)
(-0.00243045 0.0241325 -0.000519706)
(-0.00284214 0.0243396 -0.000470225)
(-0.00295521 0.0248031 -0.000435483)
(-0.0027886 0.0257848 -0.000425277)
(-0.00233454 0.0274732 -0.000449043)
(-0.00155748 0.030088 -0.00051635)
(-0.000420581 0.0339285 -0.000627194)
(0.00111273 0.0393848 -0.000724557)
(0.0029382 0.0468644 -0.000652846)
(0.00425861 0.0565091 0.000166924)
(0.00275471 0.0670365 0.00303833)
(-0.00742335 0.0741468 0.00926759)
(-0.0361861 0.067832 0.0190367)
(-0.085608 0.0286952 0.0320761)
(-0.113803 -0.0646453 0.0421836)
(-0.0957912 -0.140519 0.0294569)
(-0.0354728 -0.132445 0.00576291)
(-0.000242745 0.014208 -0.000583422)
(-0.00120191 0.0234056 -0.000720425)
(-0.00227483 0.0257554 -0.000720974)
(-0.00274788 0.0259209 -0.000649318)
(-0.00280223 0.0256408 -0.000562034)
(-0.00241088 0.0256186 -0.000487466)
(-0.00159511 0.0261402 -0.000440966)
(-0.000306981 0.0273766 -0.000431936)
(0.00156184 0.0295569 -0.00046174)
(0.00416067 0.0329227 -0.000524219)
(0.00761646 0.0378441 -0.000533068)
(0.0119194 0.0446092 -0.000249629)
(0.0161035 0.0532843 0.00115134)
(0.0172851 0.06243 0.00543507)
(0.00724619 0.0678627 0.0148118)
(-0.0279815 0.0552954 0.0294913)
(-0.0860843 -0.00767778 0.0461467)
(-0.113747 -0.133568 0.0430321)
(-0.11167 -0.212258 0.0211045)
(-0.0429439 -0.215002 -0.000642563)
(-0.000572377 0.0165525 -0.000779236)
(-0.00199347 0.0259783 -0.000896635)
(-0.00327414 0.027666 -0.000866616)
(-0.00363248 0.0269555 -0.000743625)
(-0.00337741 0.0259813 -0.000617224)
(-0.00248161 0.0253959 -0.000510738)
(-0.00101669 0.0253975 -0.000441395)
(0.00110141 0.0260627 -0.000403701)
(0.0040145 0.0275557 -0.000423298)
(0.00794195 0.0300149 -0.000476449)
(0.01312 0.0337189 -0.000466477)
(0.0196992 0.038789 -0.000158239)
(0.0268078 0.045229 0.00137976)
(0.032154 0.0518617 0.00584206)
(0.0276212 0.0556617 0.0161367)
(0.000607764 0.038626 0.031176)
(-0.0534569 -0.0367892 0.0425685)
(-0.0875889 -0.163994 0.0294367)
(-0.113573 -0.256265 0.0126232)
(-0.0437136 -0.290876 -0.0158765)
(-0.00194482 0.0188134 -0.00127559)
(-0.00472418 0.0303463 -0.00151002)
(-0.00579152 0.0315444 -0.00143118)
(-0.00562795 0.0302014 -0.00122734)
(-0.00461361 0.0281506 -0.000987846)
(-0.00300097 0.0264278 -0.000773818)
(-0.000857533 0.0252841 -0.000619466)
(0.00196709 0.0247984 -0.000523696)
(0.00567722 0.0250612 -0.000519739)
(0.010586 0.0260972 -0.000596665)
(0.0169789 0.0280584 -0.000650994)
(0.0251599 0.0308344 -0.000491892)
(0.034449 0.0343132 0.000684757)
(0.0438175 0.0371864 0.00406711)
(0.046323 0.0383667 0.0124366)
(0.0360935 0.0222688 0.0247383)
(-0.00781208 -0.045968 0.0318727)
(-0.0497481 -0.160426 0.0228448)
(-0.102546 -0.277046 0.00814352)
(-0.0403516 -0.348054 -0.0308455)
(-0.00133192 0.0301887 -0.00228425)
(-0.00488018 0.0339626 -0.00219583)
(-0.00804004 0.0324462 -0.00199156)
(-0.00803706 0.0284356 -0.00152364)
(-0.00709585 0.0254237 -0.00118028)
(-0.00491157 0.0232347 -0.000889623)
(-0.00195478 0.0217723 -0.000691598)
(0.00181776 0.0208272 -0.000582144)
(0.00648559 0.0203854 -0.000603271)
(0.0123584 0.0203369 -0.000771231)
(0.0196471 0.0208021 -0.000974321)
(0.0287768 0.0214262 -0.00110638)
(0.0388546 0.0221394 -0.000571926)
(0.0503532 0.0212114 0.00129889)
(0.055771 0.0184303 0.00658995)
(0.0580631 0.00435287 0.0152037)
(0.0229372 -0.044443 0.0208215)
(-0.0125566 -0.141744 0.0196257)
(-0.0866962 -0.276215 0.00293615)
(-0.032185 -0.385326 -0.0442679)
(-0.0128796 0.0274658 -0.00304138)
(-0.0214699 0.0482362 -0.00388228)
(-0.0152097 0.0439264 -0.00378687)
(-0.0130151 0.0388621 -0.00328094)
(-0.00824872 0.0328109 -0.00251178)
(-0.00307032 0.027836 -0.00181634)
(0.00242856 0.0239425 -0.00131867)
(0.00835169 0.020915 -0.00102978)
(0.0146906 0.0187008 -0.000966479)
(0.0220319 0.016964 -0.00114971)
(0.0300762 0.0158361 -0.00146682)
(0.0399277 0.0146555 -0.00186743)
(0.0493985 0.0139005 -0.001919)
(0.0616214 0.0115231 -0.00112513)
(0.0655814 0.00822017 0.00160669)
(0.0755101 -0.00264651 0.00751324)
(0.0481957 -0.0326277 0.0114968)
(0.0394735 -0.113096 0.0163092)
(-0.0529303 -0.260788 -0.00121476)
(-0.0121062 -0.397199 -0.0554198)
(-0.0466784 0.0874774 -0.0125129)
(-0.0299253 0.0393822 -0.00904698)
(-0.0205201 0.0330184 -0.00702135)
(-0.000973955 0.0259179 -0.00510028)
(0.0155226 0.0194852 -0.00383176)
(0.0320508 0.0151522 -0.0028602)
(0.0464594 0.0123567 -0.00218099)
(0.0601695 0.0101831 -0.00178834)
(0.0719076 0.00875777 -0.00161112)
(0.0844413 0.00739062 -0.0017079)
(0.0944965 0.00677516 -0.00196569)
(0.108088 0.00567445 -0.00243121)
(0.116235 0.00515736 -0.00280341)
(0.133641 0.00289886 -0.00278228)
(0.133999 -0.00077345 -0.00194421)
(0.155912 -0.0112219 0.00165444)
(0.128495 -0.0366558 0.00482077)
(0.150892 -0.0985836 0.0104168)
(0.031374 -0.234161 -0.00408722)
(0.0356142 -0.364604 -0.0656872)
(0.1175 0.112305 -0.0111778)
(0.144062 0.0598922 -0.0118931)
(0.215898 0.0394866 -0.0118402)
(0.260761 0.0261813 -0.0107293)
(0.293408 0.0173438 -0.00932816)
(0.321122 0.011375 -0.0081351)
(0.341704 0.00765758 -0.00703882)
(0.361473 0.00510898 -0.00620822)
(0.374234 0.00361408 -0.0054484)
(0.390876 0.00241162 -0.00494748)
(0.397853 0.00183962 -0.00455309)
(0.415204 0.00118309 -0.00429881)
(0.415626 0.000884707 -0.00419673)
(0.436879 -5.90231e-06 -0.00390045)
(0.424972 -0.00141447 -0.00366721)
(0.449411 -0.00508185 -0.00279432)
(0.404738 -0.0136993 -0.00174011)
(0.414996 -0.0323859 -0.00183334)
(0.249424 -0.0724838 -0.0101051)
(0.167457 -0.137933 -0.0754533)
(-0.000137858 0.000168955 -0.000149689)
(-0.000965798 0.000419456 -0.000119034)
(-0.00234177 0.000506617 -9.38472e-05)
(-0.00375646 0.000537966 -8.01427e-05)
(-0.00522925 0.000557175 -8.44584e-05)
(-0.0067238 0.000578176 -0.000103523)
(-0.00822621 0.000600581 -0.000136978)
(-0.00971398 0.000618972 -0.00018792)
(-0.0111461 0.000625751 -0.000261375)
(-0.012459 0.000611434 -0.00036333)
(-0.0135629 0.000564835 -0.000499797)
(-0.0143404 0.000474247 -0.000675182)
(-0.0146507 0.000330822 -0.000889558)
(-0.0143449 0.000132442 -0.00113529)
(-0.0132904 -0.000118063 -0.00139074)
(-0.0114161 -0.000387327 -0.00161788)
(-0.00878574 -0.00061463 -0.00176458)
(-0.00569849 -0.000712245 -0.00177351)
(-0.00238197 -0.000586768 -0.00159253)
(-0.000333579 -0.00010364 -0.000954656)
(-0.00040803 0.00114695 -0.000345267)
(-0.00207975 0.00222856 -0.000378761)
(-0.00461629 0.00262051 -0.000371009)
(-0.00722922 0.00276193 -0.000358327)
(-0.00992556 0.0028259 -0.000361539)
(-0.0126293 0.0028684 -0.000380947)
(-0.0152985 0.00289136 -0.000418206)
(-0.017881 0.00287572 -0.000478527)
(-0.0202987 0.00279272 -0.000569372)
(-0.0224413 0.00260685 -0.000699646)
(-0.0241618 0.00227826 -0.000878493)
(-0.0252749 0.00176781 -0.00111289)
(-0.0255676 0.00104623 -0.0014037)
(-0.0248297 0.000110417 -0.0017428)
(-0.0228737 -0.000989475 -0.00210062)
(-0.0196018 -0.00212351 -0.00241743)
(-0.0151316 -0.00305865 -0.00261695)
(-0.00992334 -0.00346175 -0.0026098)
(-0.00434756 -0.00297497 -0.00229932)
(-0.000738648 -0.00109092 -0.00127121)
(-0.000518756 0.00280732 -0.000460194)
(-0.00256286 0.00508751 -0.000533527)
(-0.00561375 0.00591488 -0.000537074)
(-0.00873737 0.00620242 -0.00052358)
(-0.0119437 0.00630604 -0.00052293)
(-0.0151433 0.00634041 -0.000537979)
(-0.0182875 0.00631395 -0.000572054)
(-0.0213184 0.00619274 -0.000632261)
(-0.0241504 0.0059227 -0.000728552)
(-0.0266636 0.00543619 -0.000873308)
(-0.0286967 0.00465757 -0.00108002)
(-0.0300449 0.00351324 -0.0013608)
(-0.0304656 0.00195008 -0.00172229)
(-0.029692 -3.32401e-05 -0.00215765)
(-0.0274734 -0.00233406 -0.00263028)
(-0.0236536 -0.00470423 -0.00306427)
(-0.0183171 -0.00667671 -0.00334799)
(-0.0120018 -0.00756026 -0.00334263)
(-0.0051694 -0.00659897 -0.00290746)
(-0.000821647 -0.00275295 -0.00154005)
(-0.000551591 0.00457534 -0.000546854)
(-0.00273997 0.00813934 -0.000653758)
(-0.00600313 0.00941496 -0.000667142)
(-0.00933399 0.00984099 -0.000653955)
(-0.0127537 0.00997734 -0.000651517)
(-0.016174 0.0100028 -0.000665018)
(-0.0195543 0.00993462 -0.000699607)
(-0.022846 0.00972651 -0.000764691)
(-0.025974 0.0093012 -0.00087354)
(-0.0288272 0.00855894 -0.00104351)
(-0.0312462 0.00738385 -0.00129534)
(-0.0330136 0.00565764 -0.00165026)
(-0.0338499 0.00328692 -0.00212461)
(-0.0334211 0.00025047 -0.00271983)
(-0.0313689 -0.00333176 -0.00340187)
(-0.0273848 -0.00710928 -0.0040681)
(-0.0214166 -0.0103526 -0.00453672)
(-0.0140411 -0.0119036 -0.00456926)
(-0.00581569 -0.0104535 -0.00393044)
(-0.000762681 -0.00429808 -0.00199783)
(-0.000547795 0.00642837 -0.000612248)
(-0.00277313 0.0113539 -0.000748813)
(-0.00611343 0.0131027 -0.00077104)
(-0.00952633 0.0136783 -0.000759622)
(-0.0130452 0.0138621 -0.000758767)
(-0.0165909 0.0139046 -0.000776165)
(-0.02014 0.0138366 -0.000819204)
(-0.0236644 0.0136036 -0.000900386)
(-0.0271127 0.0131084 -0.0010377)
(-0.0303963 0.0122191 -0.00125584)
(-0.0333715 0.0107736 -0.00158683)
(-0.0358168 0.00859161 -0.00206804)
(-0.037412 0.00550643 -0.00273449)
(-0.0377247 0.00142773 -0.00360331)
(-0.0362382 -0.00355246 -0.00465428)
(-0.0323994 -0.00903287 -0.00575826)
(-0.0258641 -0.0139903 -0.00661292)
(-0.0171314 -0.0166365 -0.00677405)
(-0.0067922 -0.0147738 -0.00577174)
(-0.000633226 -0.00575081 -0.00277919)
(-0.000527726 0.00830195 -0.000666279)
(-0.00274087 0.0146409 -0.000830846)
(-0.00609746 0.0168871 -0.000861679)
(-0.00953811 0.0176301 -0.000853315)
(-0.013107 0.0178883 -0.000856711)
(-0.0167386 0.0179933 -0.000882409)
(-0.0204325 0.017997 -0.000940597)
(-0.0241904 0.0178441 -0.00104782)
(-0.0279967 0.0174236 -0.00122847)
(-0.0318026 0.0165755 -0.0015177)
(-0.0355003 0.0150884 -0.00196446)
(-0.0388867 0.0127032 -0.00263252)
(-0.0416173 0.00914036 -0.00359286)
(-0.0431659 0.00416998 -0.00490457)
(-0.0428396 -0.0022528 -0.00658914)
(-0.0397269 -0.00972123 -0.00849414)
(-0.0329448 -0.0170637 -0.0101343)
(-0.0225611 -0.0217211 -0.0106487)
(-0.00880724 -0.0198588 -0.00902319)
(-0.000510142 -0.00713758 -0.00406323)
(-0.000498656 0.0101679 -0.000717551)
(-0.00267381 0.0179605 -0.000910757)
(-0.00601352 0.0207272 -0.000950115)
(-0.00944759 0.0216567 -0.000944811)
(-0.0130291 0.0220195 -0.000952864)
(-0.0167076 0.0222399 -0.000988163)
(-0.02051 0.0224016 -0.00106434)
(-0.0244755 0.02246 -0.00120299)
(-0.0286374 0.0223032 -0.0014367)
(-0.0330072 0.021755 -0.00181483)
(-0.037546 0.0205624 -0.00241097)
(-0.0421163 0.0183852 -0.00333057)
(-0.046412 0.0148037 -0.00471121)
(-0.0498812 0.00937747 -0.00669937)
(-0.0516384 0.00179527 -0.00937622)
(-0.050442 -0.00783427 -0.0126126)
(-0.0446245 -0.0185781 -0.0156441)
(-0.0328518 -0.0272884 -0.0168601)
(-0.0138031 -0.026847 -0.0143075)
(-0.00080084 -0.00917657 -0.00618363)
(-0.000462567 0.0120123 -0.000771626)
(-0.00258228 0.0212936 -0.000995736)
(-0.00588007 0.0245996 -0.00104294)
(-0.00927269 0.0257275 -0.00103873)
(-0.0128196 0.026217 -0.00104893)
(-0.0164842 0.0265992 -0.00109126)
(-0.0203218 0.027003 -0.00118326)
(-0.0244141 0.0274109 -0.00135221)
(-0.0288544 0.0277312 -0.00164041)
(-0.0337367 0.0277983 -0.00211459)
(-0.03913 0.0273483 -0.00288032)
(-0.0450315 0.0259894 -0.00410095)
(-0.0512887 0.023182 -0.00601044)
(-0.0574911 0.0182461 -0.00888474)
(-0.0628527 0.0103953 -0.0129092)
(-0.0659499 -0.00125169 -0.0178305)
(-0.0639562 -0.0171681 -0.02228)
(-0.0524339 -0.0346489 -0.0239644)
(-0.0262823 -0.0395639 -0.0205216)
(-0.00284701 -0.014545 -0.00964563)
(-0.00042152 0.0138267 -0.00083307)
(-0.00247479 0.0246287 -0.00109169)
(-0.00570941 0.0284817 -0.00114512)
(-0.00901965 0.0298028 -0.00113776)
(-0.012468 0.0304202 -0.00114436)
(-0.0160279 0.0309879 -0.00118685)
(-0.0197805 0.0316957 -0.00128673)
(-0.0238487 0.0325731 -0.00147684)
(-0.0283885 0.0335776 -0.0018088)
(-0.0335899 0.0345961 -0.00236696)
(-0.039667 0.0354157 -0.00329128)
(-0.0468324 0.0356813 -0.00480758)
(-0.0552574 0.0348459 -0.0072428)
(-0.0650203 0.032039 -0.0109475)
(-0.0759438 0.0256174 -0.0159451)
(-0.0867896 0.012214 -0.0211842)
(-0.093108 -0.0132675 -0.0243059)
(-0.0846227 -0.0492548 -0.0238478)
(-0.0511131 -0.0675302 -0.021444)
(-0.00916631 -0.0302792 -0.014461)
(-0.000380688 0.0156129 -0.000907505)
(-0.00236901 0.0279653 -0.0012057)
(-0.00552784 0.032354 -0.00126279)
(-0.00871109 0.0338348 -0.00124573)
(-0.0119818 0.0345462 -0.00123966)
(-0.0153172 0.0352825 -0.00127101)
(-0.0188164 0.0363096 -0.00136481)
(-0.0226339 0.0377248 -0.00155791)
(-0.0269781 0.0395676 -0.00190795)
(-0.032126 0.0418306 -0.00250973)
(-0.0384379 0.0444376 -0.00352057)
(-0.0463752 0.047203 -0.00518051)
(-0.0565666 0.0497284 -0.00775096)
(-0.0699417 0.0508815 -0.0111984)
(-0.0875775 0.0470931 -0.014455)
(-0.108935 0.0297141 -0.0147718)
(-0.126251 -0.0142713 -0.00954699)
(-0.121437 -0.0821572 -0.00347252)
(-0.0829441 -0.121406 -0.00853894)
(-0.0210382 -0.0693161 -0.0168174)
(-0.000350903 0.0173925 -0.00100372)
(-0.00229978 0.0313217 -0.00134795)
(-0.00538906 0.0362022 -0.00140459)
(-0.00840447 0.0377661 -0.00136881)
(-0.0114107 0.0384881 -0.00133784)
(-0.0143802 0.0393177 -0.00134295)
(-0.0174193 0.0406064 -0.00141141)
(-0.0206942 0.0425332 -0.00158077)
(-0.0244352 0.0452449 -0.00190707)
(-0.0289662 0.0488888 -0.00247719)
(-0.0347445 0.0536102 -0.00341766)
(-0.0424227 0.0594996 -0.00484586)
(-0.0530607 0.0663021 -0.0065653)
(-0.0685045 0.0720233 -0.00727758)
(-0.0908991 0.0692979 -0.00380334)
(-0.120198 0.0420825 0.00801927)
(-0.145842 -0.0283769 0.0272699)
(-0.143821 -0.131811 0.0360204)
(-0.105175 -0.190099 0.0153948)
(-0.0324189 -0.141014 -0.00824816)
(-0.000355126 0.01923 -0.00113803)
(-0.00233484 0.0347759 -0.00154037)
(-0.00539284 0.0400717 -0.0015943)
(-0.00820887 0.041592 -0.00152967)
(-0.0108633 0.0421763 -0.00145805)
(-0.0133193 0.0429453 -0.00141782)
(-0.0156792 0.044339 -0.00143794)
(-0.0180938 0.0466181 -0.00155287)
(-0.0207678 0.0500399 -0.00180677)
(-0.0239945 0.0549165 -0.00225087)
(-0.0282098 0.0616235 -0.00290488)
(-0.0340732 0.070463 -0.00357717)
(-0.0428038 0.081009 -0.00322158)
(-0.0568712 0.0896149 0.00123196)
(-0.0794087 0.0847684 0.0148188)
(-0.111826 0.0450929 0.0417132)
(-0.144788 -0.0470721 0.0720433)
(-0.145708 -0.172218 0.0705964)
(-0.112889 -0.246146 0.0336839)
(-0.0358932 -0.225436 0.00490738)
(-0.000426048 0.0212092 -0.00133293)
(-0.00256082 0.0383484 -0.00179539)
(-0.00567351 0.0438589 -0.00183064)
(-0.00829036 0.0451151 -0.00171964)
(-0.010528 0.0453657 -0.00159274)
(-0.0123367 0.0458804 -0.0014939)
(-0.0138141 0.0471534 -0.00145)
(-0.0150747 0.049498 -0.00148709)
(-0.0162522 0.053251 -0.00163064)
(-0.0175329 0.0588313 -0.00187972)
(-0.019227 0.0667507 -0.00209588)
(-0.0218338 0.0773254 -0.00171765)
(-0.0265526 0.089775 0.00115667)
(-0.0362682 0.0989964 0.0110211)
(-0.0557423 0.0913851 0.0340423)
(-0.0891722 0.0435996 0.0713616)
(-0.128862 -0.0587035 0.100709)
(-0.128977 -0.195651 0.0792718)
(-0.111045 -0.287482 0.0348653)
(-0.0317667 -0.302024 0.00455273)
(-0.000669371 0.0236414 -0.00166461)
(-0.00324849 0.0426083 -0.00223942)
(-0.0065383 0.0482431 -0.00227198)
(-0.00889725 0.0490253 -0.00210167)
(-0.0106024 0.0486042 -0.0018852)
(-0.0116429 0.0484661 -0.00168777)
(-0.0121064 0.0491815 -0.00154465)
(-0.0120401 0.0510978 -0.00147877)
(-0.0114792 0.0545796 -0.00149306)
(-0.0104561 0.0600567 -0.00154328)
(-0.00910376 0.0680647 -0.00137998)
(-0.00762774 0.0788127 -0.000163278)
(-0.00707591 0.0913861 0.00447081)
(-0.0103023 0.100197 0.0177329)
(-0.0239138 0.0920416 0.0459084)
(-0.0535429 0.0427206 0.0846789)
(-0.0927096 -0.0615121 0.103692)
(-0.0914096 -0.20326 0.0668603)
(-0.0997798 -0.312431 0.0272059)
(-0.0230494 -0.368778 -0.00703639)
(-0.00104541 0.0269789 -0.00214432)
(-0.00415471 0.0467127 -0.0027483)
(-0.00792513 0.051551 -0.00272715)
(-0.0102474 0.0511403 -0.00245264)
(-0.0115681 0.0498698 -0.00214772)
(-0.0118252 0.0490971 -0.00186684)
(-0.0111797 0.049258 -0.00164766)
(-0.00966531 0.05059 -0.00149459)
(-0.00725099 0.0533983 -0.00143038)
(-0.0038068 0.0580331 -0.00136957)
(0.000718565 0.0649917 -0.00102914)
(0.00653091 0.0743577 0.000435615)
(0.0128401 0.0852992 0.00535488)
(0.0179521 0.0929684 0.0182643)
(0.0147595 0.0867937 0.0452687)
(-0.000695389 0.0435009 0.078047)
(-0.0343558 -0.0529251 0.0872201)
(-0.0391854 -0.183525 0.0509795)
(-0.0766792 -0.313674 0.0202265)
(-0.00949389 -0.419103 -0.0197874)
(-0.00314316 0.0298846 -0.00314321)
(-0.00848131 0.0541106 -0.00400482)
(-0.0117228 0.0587078 -0.00392079)
(-0.0131623 0.0575529 -0.0035249)
(-0.0132455 0.0545816 -0.00301872)
(-0.0123782 0.0520339 -0.00253283)
(-0.0106104 0.0504658 -0.00213659)
(-0.00782856 0.0501206 -0.00184598)
(-0.00386282 0.0512296 -0.00169741)
(0.00162646 0.053972 -0.00160586)
(0.00885826 0.0587346 -0.00132162)
(0.0183161 0.0654094 -0.000213135)
(0.0294052 0.0732459 0.00361445)
(0.0418951 0.078351 0.0131668)
(0.0486854 0.0743322 0.0335954)
(0.050926 0.0420995 0.0584123)
(0.0229478 -0.0377824 0.0632657)
(0.0138514 -0.149037 0.0402141)
(-0.0492963 -0.29998 0.0157239)
(0.00828941 -0.451707 -0.0319318)
(-0.00127107 0.0443157 -0.00511108)
(-0.00720264 0.0574019 -0.00570573)
(-0.0149837 0.0581657 -0.00529304)
(-0.0166763 0.0535233 -0.0044107)
(-0.0171198 0.0499172 -0.00371672)
(-0.0155355 0.0472824 -0.00308498)
(-0.0126362 0.0455991 -0.00258786)
(-0.00839045 0.0447349 -0.00223864)
(-0.00275351 0.0448216 -0.00210286)
(0.00467814 0.045895 -0.00212288)
(0.0141315 0.0483232 -0.00214066)
(0.0262151 0.0517837 -0.00170023)
(0.0401013 0.0558712 0.000480654)
(0.0572673 0.0573646 0.00595765)
(0.0685295 0.0528903 0.0183259)
(0.0834509 0.0307735 0.0353797)
(0.0602525 -0.0264015 0.039222)
(0.0574233 -0.111423 0.0314816)
(-0.0197252 -0.278169 0.0119713)
(0.034138 -0.466024 -0.043117)
(-0.0124732 0.0347924 -0.00597378)
(-0.0233863 0.0780231 -0.0079558)
(-0.020164 0.0763524 -0.00821235)
(-0.0231833 0.0704753 -0.00748291)
(-0.0213698 0.0624941 -0.00620264)
(-0.0178145 0.0557392 -0.00496413)
(-0.0124745 0.0503134 -0.00401044)
(-0.00560749 0.0460613 -0.00338464)
(0.0025926 0.0430379 -0.00314258)
(0.0125952 0.0409374 -0.00326391)
(0.0240318 0.0400531 -0.00360728)
(0.0380431 0.0397248 -0.00388358)
(0.0524707 0.0405597 -0.00332607)
(0.0715647 0.0395627 -0.000799258)
(0.0819835 0.036463 0.00487367)
(0.104043 0.0239233 0.0161436)
(0.0872741 -0.0108436 0.0177202)
(0.107272 -0.0715933 0.0203958)
(0.0360141 -0.251288 0.00753809)
(0.0774265 -0.45935 -0.053905)
(-0.0763084 0.099065 -0.0201525)
(-0.0610023 0.05977 -0.016559)
(-0.0599406 0.0590158 -0.013564)
(-0.0366511 0.0511174 -0.0109266)
(-0.0169608 0.0431355 -0.0091017)
(0.00492076 0.037248 -0.00755472)
(0.0252491 0.0330281 -0.00642603)
(0.0457335 0.029443 -0.00568121)
(0.0641493 0.0269245 -0.00529008)
(0.084165 0.0245226 -0.00530796)
(0.100731 0.0232926 -0.00563576)
(0.12245 0.0217995 -0.00620403)
(0.136219 0.0211304 -0.00673245)
(0.164085 0.0197575 -0.0062944)
(0.170371 0.0148566 -0.00489894)
(0.207122 0.0071487 4.21907e-05)
(0.190666 -0.0239972 0.00408831)
(0.231083 -0.0719206 0.00674401)
(0.155359 -0.230807 0.00221158)
(0.150397 -0.411672 -0.0649768)
(0.119077 0.140135 -0.0172003)
(0.151413 0.0854831 -0.0191277)
(0.228593 0.0630409 -0.0194254)
(0.283432 0.0475576 -0.018221)
(0.324629 0.0366741 -0.0165137)
(0.362742 0.0286246 -0.0150051)
(0.391274 0.0230149 -0.013522)
(0.422165 0.0187515 -0.0124544)
(0.441558 0.0157418 -0.0112879)
(0.469759 0.0133038 -0.0107288)
(0.481524 0.0115326 -0.00987873)
(0.510701 0.010118 -0.00990482)
(0.514474 0.00888281 -0.00909117)
(0.547251 0.00771982 -0.0095983)
(0.539719 0.00570853 -0.00786628)
(0.57411 0.00182036 -0.00870387)
(0.54101 -0.00669433 -0.0049462)
(0.553336 -0.0253797 -0.0098714)
(0.42396 -0.0674063 -0.0113514)
(0.302497 -0.144733 -0.0779727)
(-0.000151907 0.000159606 -0.000235158)
(-0.00110762 0.000458096 -0.000275766)
(-0.00270812 0.000565283 -0.000271759)
(-0.00434581 0.000601168 -0.000268899)
(-0.00603907 0.000619099 -0.00028343)
(-0.00774457 0.0006372 -0.000317025)
(-0.00944686 0.000655477 -0.000372156)
(-0.0111211 0.000667628 -0.00045393)
(-0.0127217 0.000664737 -0.000569219)
(-0.0141788 0.000635583 -0.000725618)
(-0.015394 0.000566865 -0.000930098)
(-0.0162377 0.000444651 -0.0011867)
(-0.0165551 0.000258205 -0.00149299)
(-0.016178 2.52747e-06 -0.00183627)
(-0.0149558 -0.000313373 -0.00218506)
(-0.0128059 -0.000648739 -0.00249234)
(-0.00979838 -0.00092469 -0.00269484)
(-0.00627997 -0.00102692 -0.00272618)
(-0.00253493 -0.000833632 -0.00250688)
(-0.000305907 -0.000187477 -0.001635)
(-0.000490365 0.00122071 -0.000437012)
(-0.00250842 0.00250497 -0.000568317)
(-0.00556931 0.00298115 -0.000585316)
(-0.00870454 0.00314018 -0.000583673)
(-0.0119139 0.00319348 -0.000600434)