/*--------------------------------*- C++ -*----------------------------------*\
  =========                 |
  \\      /  F ield         | OpenFOAM: The Open Source CFD Toolbox
   \\    /   O peration     | Website:  https://openfoam.org
    \\  /    A nd           | Version:  10
     \\/     M anipulation  |
\*---------------------------------------------------------------------------*/
FoamFile
{
    format      ascii;
    class       volScalarField;
    location    "1.6";
    object      p;
}
// * * * * * * * * * * * * * * * * * * * * * * * * * * * * * * * * * * * * * //

dimensions      [0 2 -2 0 0 0 0];

internalField   nonuniform List<scalar> 
8000
(
1.55226e-06
1.68666e-05
0.000105013
0.000249088
0.00044883
0.000700474
0.000998756
0.00133717
0.00170797
0.0021023
0.0025102
0.00292085
0.00332264
0.00370356
0.00405157
0.00435499
0.00460309
0.0047868
0.00490186
0.00492665
-1.26195e-05
9.66822e-07
8.92244e-05
0.000233303
0.000433273
0.000685455
0.000984675
0.0013245
0.00169724
0.00209405
0.00250492
0.00291912
0.00332486
0.00370999
0.00406224
0.0043697
0.00462135
0.00480792
0.00492529
0.0049501
-0.000103279
-9.07845e-05
-4.3339e-07
0.000147477
0.000353147
0.000612902
0.000921535
0.00127257
0.00165824
0.00206955
0.00249644
0.00292769
0.00335112
0.00375407
0.00412361
0.00444702
0.0047124
0.00490954
0.00503384
0.00505962
-0.000258618
-0.000246546
-0.000152257
2.46957e-06
0.000218061
0.000490841
0.000815555
0.00118563
0.00159315
0.00202889
0.0024824
0.00294217
0.00339525
0.00382809
0.00422667
0.00457696
0.00486555
0.0050807
0.00521684
0.00524536
-0.000483431
-0.000471607
-0.000371524
-0.000206882
2.30511e-05
0.000314587
0.00066239
0.00105975
0.00149853
0.0019692
0.00246086
0.00296152
0.00345726
0.00393331
0.00437412
0.00476375
0.00508658
0.00532853
0.0054824
0.00551542
-0.000783293
-0.000771756
-0.000664029
-0.000486332
-0.000237543
7.86354e-05
0.000456763
0.00088995
0.0013698
0.0018864
0.00242835
0.00298328
0.00353594
0.00407008
0.00456817
0.00501174
0.00538206
0.00566159
0.00584061
0.00588038
-0.00116519
-0.00115416
-0.00103695
-0.000843046
-0.000570798
-0.000223936
0.000191974
0.000669841
0.00120097
0.001775
0.00237988
0.00300369
0.00362898
0.00423799
0.00481087
0.00532587
0.00576007
0.00609097
0.00630488
0.00635456
-0.00163805
-0.00162798
-0.00149945
-0.00128613
-0.000985696
-0.000601907
-0.00014048
0.000391274
0.000984367
0.0016279
0.00230771
0.00301746
0.00373264
0.00443552
0.00510374
0.00571157
0.00623053
0.00663104
0.00689319
0.00695754
-0.00221294
-0.00220458
-0.0020629
-0.00182688
-0.00149334
-0.0010661
-0.000551076
4.41674e-05
0.000710516
0.00143754
0.00221461
0.00301864
0.00384104
0.00465902
0.00544686
0.006174
0.00680483
0.00729991
0.00762929
0.00771601
-0.00290355
-0.00289805
-0.00274134
-0.00247916
-0.00210725
-0.00162958
-0.00105244
-0.000383784
0.000366898
0.00118878
0.00206947
0.00299301
0.00394412
0.00490135
0.00583726
0.00671659
0.00749504
0.00811976
0.00854428
0.00866681
-0.0037269
-0.00372583
-0.00355208
-0.00325989
-0.00284373
-0.0023079
-0.00165934
-0.000906711
-6.00533e-05
0.00086963
0.00187028
0.00292825
0.00402842
0.00515045
0.00626674
0.00733857
0.00831196
0.00911675
0.0096786
0.00986182
-0.00470452
-0.00470984
-0.00451667
-0.0041898
-0.00372235
-0.00311926
-0.00238866
-0.00154049
-0.000585692
0.000464555
0.00159911
0.00280652
0.00407474
0.00538694
0.00671845
0.0080304
0.00926083
0.0103196
0.011084
0.0113774
-0.00586491
-0.00587813
-0.00566244
-0.00529453
-0.00476661
-0.00408468
-0.00325909
-0.00230205
-0.00122621
-4.32384e-05
0.00123687
0.00260581
0.00405717
0.00558134
0.00716205
0.0087671
0.0103322
0.0117548
0.0128241
0.0133303
-0.00725082
-0.00726917
-0.0070253
-0.00660631
-0.00600471
-0.00522784
-0.0042901
-0.00320777
-0.0019966
-0.000669557
0.00076452
0.00230137
0.00394304
0.00569162
0.00754725
0.00949701
0.0114867
0.0134351
0.014971
0.0159025
-0.0088998
-0.00892482
-0.00864921
-0.0081652
-0.00747011
-0.00657412
-0.00549976
-0.00427041
-0.00290697
-0.00142498
0.00016702
0.00186782
0.00369578
0.00566346
0.0077985
0.0101283
0.0126302
0.0153333
0.0175652
0.0194223
-0.0110817
-0.0109601
-0.0106166
-0.0100292
-0.00920347
-0.00814844
-0.00690124
-0.00549531
-0.00395848
-0.00230982
-0.000557631
0.00130457
0.00328823
0.0054402
0.00782293
0.0105281
0.0135821
0.017313
0.0204882
0.0243272
-0.0132757
-0.0133704
-0.0129731
-0.0122587
-0.0112476
-0.00996956
-0.00849554
-0.00687298
-0.00513712
-0.00331133
-0.00140833
0.000568338
0.00262166
0.00486337
0.00732386
0.0102583
0.0134775
0.0187856
0.0229761
0.0312463
-0.0184375
-0.0161662
-0.0157513
-0.014667
-0.0134187
-0.0119065
-0.0101934
-0.00833164
-0.00637361
-0.00435633
-0.00229322
-0.000166923
0.0020737
0.004494
0.0071043
0.0102782
0.0139622
0.0207088
0.0267595
0.0408013
-0.0210173
-0.0216257
-0.0203835
-0.018979
-0.0170261
-0.0147385
-0.0123898
-0.0100478
-0.00774358
-0.00548437
-0.00327832
-0.00112774
0.000932279
0.00295989
0.00461386
0.00788314
0.00747074
0.0179922
0.0186197
0.0505448
-0.0448946
-0.0213089
-0.0207004
-0.0188927
-0.0168034
-0.014723
-0.0125747
-0.010333
-0.00805637
-0.00579281
-0.00357284
-0.00137226
0.000744372
0.00303022
0.00517861
0.00881955
0.0131086
0.0272178
0.047842
0.10882
4.62307e-06
1.35435e-05
0.000100886
0.000244648
0.000444605
0.000696756
0.000995734
0.00133499
0.00170677
0.00210219
0.00251125
0.00292309
0.00332611
0.00370825
0.00405739
0.00436177
0.00461049
0.00479422
0.00490877
0.00492775
-5.00047e-06
2.9079e-06
9.04126e-05
0.000233837
0.000433488
0.000685539
0.00098473
0.0013246
0.00169749
0.00209451
0.00250567
0.00292021
0.00332635
0.0037119
0.00406457
0.00437238
0.00462415
0.00481034
0.00492707
0.00494576
-9.4499e-05
-8.7915e-05
1.69424e-06
0.000148881
0.00035416
0.000613684
0.000922177
0.00127315
0.00165883
0.00207023
0.0024973
0.00292878
0.00335251
0.00375581
0.0041257
0.0044494
0.00471483
0.00491152
0.0050351
0.00505422
-0.000248504
-0.000242727
-0.000149208
4.71487e-06
0.00021984
0.000492307
0.00081679
0.00118671
0.00159415
0.00202989
0.0024835
0.00294342
0.00339673
0.00382987
0.00422876
0.0045793
0.00486791
0.00508254
0.00521787
0.00523909
-0.000471907
-0.00046691
-0.000367645
-0.000203881
2.55242e-05
0.00031669
0.00066421
0.00106136
0.00150002
0.00197067
0.00246242
0.00296318
0.00345913
0.00393547
0.0043766
0.00476649
0.00508934
0.00533069
0.00548364
0.00550851
-0.000770067
-0.000766061
-0.00065921
-0.000482486
-0.00023429
8.14649e-05
0.000459263
0.000892211
0.00137192
0.00188852
0.00243062
0.0029856
0.00353844
0.0040729
0.00457137
0.00501527
0.00538564
0.00566451
0.00584246
0.00587291
-0.00114978
-0.00114718
-0.00103092
-0.000838113
-0.000566551
-0.000220188
0.000195333
0.00067292
0.00120391
0.00177802
0.00238334
0.00300694
0.00363238
0.00424177
0.00481513
0.00533059
0.00576495
0.00609515
0.00630782
0.00634661
-0.00161976
-0.00161925
-0.00149179
-0.00127975
-0.000980142
-0.00059697
-0.000136029
0.000395371
0.000988288
0.00163207
0.00231419
0.00302195
0.00373718
0.00444058
0.00510948
0.00571802
0.00623735
0.0066372
0.00689795
0.00694933
-0.00219082
-0.00219346
-0.00205301
-0.00181854
-0.00148606
-0.00105963
-0.000545253
4.94918e-05
0.000715447
0.00144187
0.0022161
0.0030234
0.00384684
0.00466572
0.0054546
0.00618288
0.00681453
0.00730918
0.00763704
0.00770812
-0.00287622
-0.00288355
-0.00272834
-0.00246815
-0.00209768
-0.00162116
-0.00104492
-0.000376947
0.000373281
0.00119495
0.00207594
0.00299977
0.00395173
0.00491017
0.00584767
0.00672886
0.00750898
0.00813393
0.00855702
0.00866079
-0.00369224
-0.00370646
-0.00353469
-0.00324523
-0.00283117
-0.00229704
-0.00164982
-0.000898174
-5.21368e-05
0.000877311
0.00187817
0.00293675
0.00403803
0.0051618
0.00628053
0.00735545
0.00833209
0.00913877
0.00969969
0.00986084
-0.00465917
-0.00468322
-0.00449299
-0.00417017
-0.00370598
-0.00310553
-0.00237697
-0.00153027
-0.000576388
0.000473469
0.00160817
0.00281651
0.00408627
0.00540097
0.00673622
0.00805328
0.00928976
0.0103541
0.011119
0.0113893
-0.00580298
-0.0058403
-0.0056296
-0.0052682
-0.00474562
-0.00406791
-0.00324547
-0.00229062
-0.00121612
-3.3724e-05
0.0012466
0.00261666
0.00407
0.0055976
0.00718376
0.00879685
0.0103727
0.0118085
0.0128815
0.0133727
-0.00716244
-0.00721398
-0.00697926
-0.00657139
-0.00597887
-0.00520882
-0.00427591
-0.00319673
-0.00198742
-0.000661156
0.000773162
0.00231139
0.00395527
0.00570803
0.00757092
0.00953203
0.011539
0.0135162
0.0150653
0.0160155
-0.00875451
-0.00883809
-0.00858294
-0.00812027
-0.0074414
-0.00655642
-0.00548922
-0.00426403
-0.00290282
-0.00142172
0.000170767
0.00187418
0.00370297
0.00567429
0.00781687
0.0101598
0.0126864
0.0154442
0.0177073
0.0196951
-0.0108701
-0.0108255
-0.0105263
-0.0099784
-0.00918167
-0.00814386
-0.00690583
-0.00550376
-0.00396815
-0.00231952
-0.000566944
0.00129417
0.0032792
0.0054307
0.00781254
0.0105222
0.0135938
0.0174127
0.0206088
0.0248821
-0.0128155
-0.0131899
-0.0128644
-0.0122344
-0.011272
-0.0100129
-0.00854345
-0.00691842
-0.00517813
-0.00334837
-0.00144332
0.000534351
0.00259468
0.00481962
0.0072466
0.0101266
0.0132878
0.0186674
0.0227676
0.0320115
-0.017617
-0.0156095
-0.0155017
-0.0145956
-0.0134725
-0.0120135
-0.0103165
-0.00845009
-0.00647912
-0.00444795
-0.00237477
-0.000246023
0.00197169
0.00436572
0.00687674
0.00988556
0.0132292
0.0197856
0.0254824
0.0409232
-0.0189438
-0.021443
-0.0205749
-0.0195302
-0.0176569
-0.015301
-0.0128477
-0.0104057
-0.00802171
-0.00570516
-0.00346497
-0.00130012
0.00073633
0.00268906
0.0041485
0.00674571
0.00646016
0.0159846
0.0147485
0.05064
-0.0422506
-0.0198301
-0.0200325
-0.0188844
-0.0170475
-0.0150243
-0.0128773
-0.0106041
-0.008286
-0.00598586
-0.00374953
-0.00153607
0.00051863
0.00275318
0.00457146
0.00794321
0.0116144
0.0260797
0.0509107
0.118423
7.02388e-06
1.44982e-05
0.000101325
0.000244716
0.000444509
0.000696635
0.000995693
0.00133511
0.00170713
0.00210281
0.00251222
0.00292447
0.00332789
0.00371043
0.00405991
0.00436456
0.00461338
0.00479698
0.00491126
0.00492889
-1.47462e-06
4.98853e-06
9.20283e-05
0.000235019
0.000434404
0.00068629
0.000985393
0.00132525
0.00169816
0.00209528
0.0025066
0.00292133
0.00332768
0.00371346
0.00406632
0.00437425
0.00462601
0.00481199
0.00492843
0.00494576
-9.04313e-05
-8.53234e-05
3.84017e-06
0.000150557
0.000355514
0.000614815
0.000923161
0.00127405
0.00165971
0.00207116
0.00249832
0.00292995
0.00335385
0.00375734
0.0041274
0.00445119
0.0047166
0.00491304
0.00503629
0.00505393
-0.000243656
-0.000239449
-0.000146395
7.01364e-06
0.000221756
0.000493933
0.0008182
0.00118797
0.00159533
0.00203106
0.00248472
0.00294473
0.00339818
0.00383147
0.00423051
0.00458113
0.00486969
0.00508405
0.00521901
0.00523863
-0.000466129
-0.00046285
-0.000364094
-0.000200911
2.80445e-05
0.000318852
0.00066609
0.00106303
0.00150156
0.00197216
0.00246393
0.00296476
0.00346082
0.00393731
0.0043786
0.00476859
0.0050914
0.00533245
0.005485
0.00550808
-0.000763128
-0.000761037
-0.000654765
-0.000478714
-0.000231059
8.42509e-05
0.000461689
0.000894364
0.0013739
0.00189042
0.00243254
0.00298755
0.0035405
0.00407513
0.0045738
0.00501785
0.00538823
0.00566681
0.00584434
0.00587277
-0.00114134
-0.00114091
-0.00102533
-0.000833332
-0.000562441
-0.000216646
0.000198407
0.000675631
0.00120638
0.00178041
0.00238581
0.00300937
0.00363491
0.00424452
0.00481817
0.0053339
0.00576836
0.00609832
0.00631058
0.00634707
-0.00160932
-0.00161133
-0.0014847
-0.00127366
-0.000974924
-0.000592505
-0.000132196
0.000398705
0.000991285
0.00163496
0.00231731
0.00302486
0.00374022
0.00444395
0.00511331
0.00572231
0.00624195
0.00664169
0.00690208
0.0069508
-0.00217769
-0.00218328
-0.0020439
-0.00181075
-0.00147944
-0.00105405
-0.000540555
5.34764e-05
0.000718885
0.00144489
0.00221877
0.00302642
0.00385029
0.00466974
0.00545934
0.00618841
0.00682074
0.00731559
0.00764326
0.00771129
-0.00285937
-0.00287028
-0.00271651
-0.00245813
-0.00208932
-0.00161426
-0.00103928
-0.000372316
0.000377157
0.00119832
0.00207901
0.00300309
0.00395554
0.00491477
0.00585336
0.00673587
0.00751731
0.00814309
0.00856636
0.00866641
-0.00367017
-0.00368884
-0.00351915
-0.0032323
-0.00282066
-0.00228869
-0.00164327
-0.000893063
-4.80792e-05
0.000880686
0.00188123
0.00293998
0.00404184
0.00516666
0.00628698
0.00736401
0.00834304
0.00915178
0.00971384
0.0098714
-0.00462954
-0.00465939
-0.00447234
-0.00415345
-0.00369294
-0.00309571
-0.00236978
-0.00152512
-0.000572723
0.000476178
0.0016104
0.00281887
0.00408927
0.00540518
0.0067427
0.00806297
0.00930353
0.0103723
0.0111401
0.0114083
-0.00576202
-0.00580739
-0.00560186
-0.00524666
-0.00472981
-0.00405695
-0.00323836
-0.00228639
-0.0012139
-3.27734e-05
0.0012469
0.00261698
0.00407087
0.00559983
0.00718861
0.0088062
0.0103885
0.0118329
0.0129124
0.0134072
-0.00710412
-0.00716772
-0.00694174
-0.00654396
-0.0059605
-0.00519778
-0.00427042
-0.00319517
-0.0019884
-0.00066369
0.000769801
0.00230772
0.0039518
0.00570546
0.00757054
0.00953724
0.0115535
0.0135462
0.0151085
0.016077
-0.00866634
-0.00877119
-0.0085316
-0.00808608
-0.00742173
-0.00654782
-0.00548842
-0.00426821
-0.00290991
-0.00143046
0.00016103
0.0018636
0.00369193
0.00566281
0.00780577
0.0101531
0.0126906
0.0154743
0.0177616
0.0198038
-0.01074
-0.0107281
-0.0104565
-0.0099377
-0.00916421
-0.00814294
-0.00691522
-0.00551889
-0.00398613
-0.00233887
-0.000587301
0.00127231
0.003256
0.00540446
0.00778221
0.0104916
0.0135718
0.0174252
0.0206537
0.0250579
-0.0126011
-0.0130557
-0.0127728
-0.0121942
-0.0112674
-0.0100312
-0.00857395
-0.00695407
-0.00521522
-0.0033855
-0.00148095
0.000494715
0.0025496
0.00476261
0.00716792
0.010024
0.0131665
0.0185858
0.0227234
0.0322226
-0.0172701
-0.0153532
-0.0153391
-0.0145236
-0.0134665
-0.0120478
-0.0103717
-0.00851298
-0.00654254
-0.0045093
-0.0024351
-0.000308805
0.00189934
0.00428149
0.00675177
0.00970366
0.0129419
0.0194721
0.0253071
0.0410233
-0.0183138
-0.0211678
-0.0204292
-0.0195523
-0.0177697
-0.0154453
-0.0129925
-0.0105373
-0.00813755
-0.00580758
-0.00356061
-0.00139795
0.00061848
0.00252374
0.00390771
0.00633342
0.0059759
0.0151354
0.0143321
0.0506947
-0.0415044
-0.0193343
-0.0197388
-0.0188169
-0.0170831
-0.0151091
-0.0129813
-0.0107092
-0.00838487
-0.0060783
-0.00384218
-0.00163562
0.000386812
0.00257943
0.0042954
0.00757706
0.0111518
0.0259049
0.0519625
0.12092
9.27071e-06
1.57576e-05
0.000102159
0.000245208
0.000444811
0.000696871
0.000995959
0.00133549
0.00170768
0.00210361
0.0025133
0.00292585
0.0033296
0.00371245
0.00406221
0.00436705
0.00461593
0.00479938
0.00491338
0.0049301
1.64509e-06
7.17823e-06
9.37919e-05
0.000236388
0.000435498
0.000687208
0.000986217
0.00132605
0.001699
0.00209621
0.00250767
0.00292258
0.00332913
0.00371511
0.00406815
0.00437618
0.00462792
0.00481369
0.00492982
0.00494616
-8.67044e-05
-8.25603e-05
6.15936e-06
0.000152448
0.000357083
0.000616152
0.000924341
0.00127514
0.00166078
0.00207226
0.0024995
0.00293125
0.00335531
0.00375896
0.00412916
0.00445303
0.00471838
0.0049146
0.00503751
0.00505406
-0.00023916
-0.000235977
-0.000143404
9.52169e-06
0.00022388
0.000495757
0.000819798
0.00118941
0.00159668
0.00203238
0.00248607
0.00294617
0.00339974
0.00383317
0.00423233
0.00458302
0.00487152
0.00508562
0.00522021
0.00523863
-0.000460713
-0.000458549
-0.000360329
-0.000197703
3.07907e-05
0.00032122
0.000668155
0.00106487
0.00150325
0.00197377
0.00246554
0.00296643
0.00346259
0.00393923
0.00438065
0.00477073
0.00509349
0.00533428
0.00548643
0.00550817
-0.00075656
-0.000755709
-0.000650055
-0.000474664
-0.000227575
8.72552e-05
0.000464297
0.000896664
0.00137599
0.0018924
0.00243449
0.00298953
0.0035426
0.00407739
0.00457625
0.00502044
0.00539082
0.00566914
0.00584626
0.00587316
-0.00113328
-0.00113426
-0.00101942
-0.000828224
-0.000558049
-0.000212877
0.000201649
0.000678457
0.00120892
0.00178278
0.00238814
0.00301172
0.00363739
0.00424724
0.00482116
0.00533714
0.00577171
0.00610147
0.00631333
0.00634807
-0.00159929
-0.00160292
-0.00147721
-0.0012672
-0.000969401
-0.000587817
-0.000128223
0.000402105
0.000994269
0.0016377
0.00232
0.00302756
0.0037431
0.00444717
0.00511697
0.00572641
0.00624636
0.00664606
0.00690612
0.00695291
-0.00216499
-0.00217252
-0.00203433
-0.00180254
-0.00147251
-0.00104826
-0.000535766
5.74595e-05
0.000722263
0.00144787
0.00222155
0.00302931
0.00385351
0.00467347
0.00546376
0.00619359
0.00682658
0.0073217
0.00764924
0.00771515
-0.00284302
-0.0028563
-0.00270415
-0.00244765
-0.00208064
-0.00160722
-0.00103363
-0.000367797
0.000380837
0.00120145
0.00208188
0.00300607
0.00395895
0.00491892
0.00585851
0.00674227
0.00752498
0.00815164
0.00857526
0.00867331
-0.0036487
-0.00367041
-0.00350302
-0.00321888
-0.00280987
-0.00228026
-0.00163683
-0.000888202
-4.43746e-05
0.000883646
0.00188384
0.00294269
0.00404508
0.005171
0.0062926
0.00737156
0.00835284
0.00916364
0.00972698
0.00988303
-0.00460074
-0.00463467
-0.0044511
-0.00413627
-0.00367968
-0.0030859
-0.00236284
-0.00152039
-0.000569574
0.000478297
0.00161201
0.00282048
0.00409146
0.00540877
0.006748
0.00807108
0.0093154
0.0103884
0.0111593
0.0114279
-0.00572245
-0.00577367
-0.00557365
-0.00522474
-0.00471386
-0.00404612
-0.00323162
-0.0022827
-0.00121238
-3.27157e-05
0.00124614
0.00261598
0.00407029
0.00560051
0.00719164
0.00881311
0.0104012
0.0118536
0.0129397
0.0134401
-0.00704828
-0.00712099
-0.00690404
-0.0065163
-0.00594206
-0.00518695
-0.00426538
-0.00319428
-0.00199044
-0.000667665
0.000764614
0.00230191
0.00394592
0.00570034
0.00756764
0.00953878
0.0115631
0.0135698
0.015145
0.0161328
-0.00858431
-0.00870521
-0.00848095
-0.00805187
-0.00740194
-0.00653929
-0.00548796
-0.00427325
-0.00291854
-0.00144141
0.000148489
0.00184979
0.003677
0.00564706
0.00779013
0.0101407
0.0126873
0.0154936
0.0178036
0.0198989
-0.0106212
-0.0106346
-0.0103889
-0.00989713
-0.00914621
-0.00814148
-0.00692451
-0.00553472
-0.00400577
-0.00236086
-0.00061112
0.00124668
0.0032276
0.00537223
0.00774503
0.0104523
0.0135384
0.0174241
0.0206799
0.0252107
-0.0124143
-0.0129258
-0.0126852
-0.012151
-0.0112594
-0.0100455
-0.0086009
-0.00698748
-0.00525166
-0.00342361
-0.00152106
0.00045055
0.00249677
0.00469794
0.00708311
0.00991924
0.0130381
0.0185061
0.0226533
0.0324217
-0.0169811
-0.0151306
-0.0151978
-0.0144561
-0.0134586
-0.0120768
-0.0104203
-0.00856987
-0.00660143
-0.00456789
-0.00249413
-0.000370952
0.00183137
0.00420768
0.00664255
0.0095506
0.012728
0.0192791
0.0251048
0.0412106
-0.0178886
-0.020956
-0.0203109
-0.0195491
-0.0178387
-0.0155456
-0.0131009
-0.010642
-0.00823412
-0.00589703
-0.00364749
-0.00149029
0.000504856
0.00236106
0.00368055
0.00601175
0.00552423
0.0147758
0.0135298
0.0510866
-0.0408824
-0.0188672
-0.0194501
-0.0187044
-0.0170889
-0.0151758
-0.0130721
-0.0108063
-0.00847956
-0.00616837
-0.00393162
-0.00172954
0.000272093
0.00243824
0.00409042
0.00731228
0.010818
0.0257227
0.0521982
0.122441
1.13922e-05
1.75185e-05
0.000103665
0.000246463
0.000445873
0.000697799
0.00099681
0.00133632
0.00170854
0.00210455
0.00251437
0.00292707
0.00333099
0.00371401
0.00406391
0.00436882
0.00461771
0.00480106
0.00491491
0.0049313
4.16573e-06
9.31807e-06
9.56592e-05
0.000237974
0.000436854
0.000688391
0.00098728
0.00132704
0.00169998
0.00209722
0.00250876
0.00292377
0.00333045
0.00371656
0.0040697
0.00437778
0.0046295
0.00481516
0.00493112
0.00494714
-8.37408e-05
-7.99963e-05
8.43267e-06
0.00015441
0.000358777
0.000617628
0.000925653
0.00127634
0.00166192
0.0020734
0.00250068
0.0029325
0.00335667
0.00376042
0.00413071
0.00445463
0.00471996
0.00491604
0.00503878
0.005055
-0.000235579
-0.000232828
-0.000140578
1.19879e-05
0.000226023
0.000497624
0.000821442
0.00119089
0.00159805
0.0020337
0.00248739
0.00294754
0.00340119
0.00383472
0.00423397
0.0045847
0.00487318
0.00508714
0.00522156
0.00523962
-0.000456343
-0.000454659
-0.000356814
-0.000194614
3.34814e-05
0.000323559
0.000670197
0.00106668
0.00150489
0.00197532
0.00246706
0.00296797
0.00346421
0.00394094
0.00438247
0.00477262
0.00509538
0.00533605
0.00548802
0.00550936
-0.000751176
-0.000750876
-0.00064567
-0.0004708
-0.000224214
9.01591e-05
0.000466806
0.000898852
0.00137794
0.0018942
0.00243623
0.00299128
0.00354442
0.00407935
0.00457836
0.00502267
0.0053931
0.00567134
0.0058483
0.00587478
-0.00112657
-0.0011282
-0.00101392
-0.000823384
-0.000553863
-0.000209298
0.000204695
0.000681064
0.00121119
0.00178484
0.0023901
0.00301368
0.00363944
0.00424947
0.00482363
0.00533984
0.00577456
0.00610433
0.00631607
0.00635036
-0.00159084
-0.00159525
-0.00147026
-0.00126112
-0.000964198
-0.000583437
-0.000124574
0.000405144
0.000996841
0.00163996
0.0023221
0.00302964
0.00374532
0.00444966
0.00511982
0.00572967
0.00624997
0.00664984
0.0069099
0.00695619
-0.00215421
-0.00216272
-0.00202549
-0.00179488
-0.00146605
-0.00104296
-0.000531475
6.08985e-05
0.000725036
0.00145017
0.00222357
0.00303133
0.00385572
0.00467608
0.00546694
0.00619745
0.00683111
0.00732671
0.0076545
0.00771995
-0.00282909
-0.00284362
-0.00269281
-0.00243798
-0.00207267
-0.00160087
-0.00102871
-0.000364072
0.000383627
0.00120358
0.00208365
0.00300775
0.00396085
0.00492131
0.00586178
0.00674663
0.00753053
0.00815823
0.00858257
0.00868038
-0.00363044
-0.00365381
-0.00348838
-0.00320664
-0.0028001
-0.0022728
-0.0016314
-0.000884454
-4.19332e-05
0.000885158
0.00188482
0.00294344
0.004046
0.00517232
0.00629539
0.00737603
0.0083593
0.0091721
0.009737
0.00989336
-0.00457643
-0.00461271
-0.00443207
-0.0041208
-0.00366784
-0.0030774
-0.00235722
-0.00151711
-0.000568108
0.000478473
0.0016114
0.00281953
0.00409065
0.00540855
0.00674935
0.00807477
0.00932219
0.0103988
0.0111728
0.0114431
-0.00568959
-0.00574428
-0.00554879
-0.00520527
-0.00469976
-0.00403687
-0.00322643
-0.00228075
-0.00121285
-3.48591e-05
0.00124291
0.00261215
0.00406643
0.00559725
0.00718991
0.00881423
0.0104068
0.0118653
0.0129571
0.0134624
-0.00700315
-0.00708127
-0.00687144
-0.00649196
-0.00592574
-0.00517762
-0.00426173
-0.00319497
-0.00199423
-0.000673624
0.000757158
0.00229347
0.00393698
0.00569155
0.00756005
0.00953424
0.0115642
0.0135808
0.0151656
0.0161656
-0.00852124
-0.0086511
-0.0084381
-0.00802179
-0.00738382
-0.00653117
-0.00548762
-0.00427852
-0.00292772
-0.0014533
0.000134617
0.00183435
0.0036602
0.00562931
0.00777226
0.0101252
0.0126783
0.0154991
0.0178235
0.0199464
-0.0105339
-0.0105611
-0.0103327
-0.00986056
-0.00912725
-0.00813657
-0.00693004
-0.0055473
-0.00402298
-0.00238124
-0.000633931
0.00122182
0.00320029
0.0053424
0.00771244
0.0104201
0.0135126
0.0174175
0.0206876
0.0252752
-0.0122912
-0.0128273
-0.0126127
-0.0121077
-0.0112414
-0.0100467
-0.00861557
-0.00701066
-0.00527999
-0.00345533
-0.00155583
0.000411636
0.00245096
0.00464532
0.00701905
0.00984891
0.0129646
0.0184674
0.0226086
0.0324886
-0.016806
-0.0149836
-0.0150924
-0.0143952
-0.0134355
-0.012082
-0.0104445
-0.0086051
-0.00664262
-0.00461235
-0.00254136
-0.000421536
0.00177869
0.00415861
0.00657364
0.00946959
0.0126506
0.0192537
0.0249803
0.0412385
-0.0176733
-0.0208023
-0.0201986
-0.0194951
-0.0178332
-0.015572
-0.0131458
-0.0106962
-0.00829209
-0.00595678
-0.00371016
-0.0015601
0.000418254
0.00223844
0.00353265
0.00584488
0.00537555
0.0149368
0.0129014
0.0511212
-0.0405773
-0.0186111
-0.0192719
-0.0186128
-0.0170628
-0.0151888
-0.0131111
-0.0108585
-0.00853762
-0.00622928
-0.0039963
-0.00180073
0.000187222
0.00233713
0.00396515
0.00717143
0.0106836
0.0257026
0.0521761
0.122863
1.33084e-05
1.92437e-05
0.000105203
0.000247803
0.000447042
0.000698836
0.000997759
0.00133722
0.00170944
0.00210549
0.00251536
0.00292815
0.00333217
0.00371529
0.00406527
0.00437024
0.00461912
0.00480241
0.00491617
0.0049324
6.31498e-06
1.12784e-05
9.74265e-05
0.00023953
0.000438219
0.000689599
0.000988371
0.00132806
0.00170096
0.00209821
0.00250978
0.00292486
0.00333162
0.00371781
0.00407101
0.00437913
0.00463084
0.00481643
0.0049323
0.00494815
-8.12392e-05
-7.7695e-05
1.05253e-05
0.000156267
0.000360412
0.000619072
0.000926945
0.00127752
0.00166304
0.00207448
0.00250178
0.00293365
0.00335787
0.0037617
0.00413205
0.004456
0.00472132
0.00491733
0.00503997
0.005056
-0.00023257
-0.000230039
-0.000138027
1.42645e-05
0.000228031
0.000499389
0.000823003
0.00119229
0.00159934
0.00203493
0.0024886
0.00294877
0.00340247
0.00383607
0.00423539
0.00458616
0.00487463
0.00508853
0.00522285
0.0052407
-0.000452667
-0.000451231
-0.000353667
-0.0001918
3.5959e-05
0.000325723
0.000672088
0.00106835
0.0015064
0.00197672
0.00246841
0.00296932
0.00346561
0.00394242
0.00438404
0.00477425
0.00509703
0.00533765
0.00548953
0.00551066
-0.000746633
-0.00074662
-0.000641759
-0.000467308
-0.000221154
9.28077e-05
0.000469087
0.000900827
0.00137968
0.00189578
0.00243772
0.00299277
0.00354596
0.00408099
0.00458012
0.00502455
0.00539505
0.00567329
0.00585018
0.00587643
-0.0011209
-0.00112287
-0.00100903
-0.000819037
-0.000550086
-0.000206072
0.000207422
0.000683368
0.00121316
0.00178658
0.00239171
0.00301526
0.0036411
0.00425127
0.00482562
0.00534204
0.00577693
0.00610677
0.00631851
0.00635257
-0.00158367
-0.00158852
-0.0014641
-0.00125569
-0.000959543
-0.000579536
-0.000121359
0.000407773
0.000999006
0.00164179
0.00232374
0.00303124
0.00374701
0.00445156
0.00512203
0.00573223
0.00625285
0.00665295
0.00691312
0.00695922
-0.00214507
-0.00215413
-0.00201769
-0.00178809
-0.00146033
-0.00103828
-0.000527753
6.38049e-05
0.000727294
0.00145196
0.00222507
0.00303277
0.00385729
0.00467795
0.00546927
0.00620033
0.00683457
0.00733066
0.00765877
0.00772412
-0.0028173
-0.00283257
-0.00268289
-0.00242946
-0.00206567
-0.00159533
-0.00102451
-0.000361006
0.000385798
0.00120511
0.00208481
0.00300876
0.00396197
0.00492287
0.005864
0.00674968
0.00753454
0.00816316
0.0085882
0.00868613
-0.00361507
-0.00363948
-0.00347567
-0.00319596
-0.00279159
-0.00226637
-0.00162685
-0.000881462
-4.01699e-05
0.000886036
0.00188514
0.00294353
0.00404622
0.00517314
0.00629696
0.00737885
0.00836365
0.00917806
0.00974429
0.00990125
-0.00455619
-0.00459397
-0.00441573
-0.00410743
-0.00365759
-0.00307013
-0.00235255
-0.0015146
-0.000567268
0.000478089
0.0016102
0.00281793
0.00408908
0.00540751
0.00674939
0.00807652
0.00932631
0.0104056
0.011182
0.0114538
-0.00566268
-0.00571961
-0.00552771
-0.00518857
-0.0046876
-0.00402893
-0.00322211
-0.00227935
-0.00121371
-3.73951e-05
0.00123923
0.0026078
0.0040619
0.00559313
0.00718698
0.00881348
0.0104093
0.0118722
0.0129681
0.013477
-0.00696705
-0.00704861
-0.00684421
-0.00647124
-0.0059116
-0.00516943
-0.00425851
-0.00319567
-0.00199791
-0.000679497
0.000749726
0.00228498
0.00392792
0.00568253
0.00755196
0.00952852
0.0115628
0.013586
0.0151775
0.0161852
-0.0084724
-0.00860775
-0.00840295
-0.00799627
-0.00736779
-0.00652347
-0.00548663
-0.00428266
-0.00293564
-0.001464
0.00012186
0.00182
0.00364465
0.00561307
0.00775603
0.0101108
0.0126688
0.0154992
0.0178331
0.0199727
-0.0104685
-0.0105038
-0.0102875
-0.00982946
-0.00910966
-0.00813043
-0.00693275
-0.00555648
-0.00403678
-0.00239837
-0.000653658
0.00119997
0.00317662
0.00531718
0.00768551
0.0103939
0.0134913
0.0174081
0.0206873
0.0253077
-0.0122032
-0.0127524
-0.0125552
-0.0120703
-0.011223
-0.0100435
-0.00862361
-0.00702653
-0.00530126
-0.00348048
-0.00158424
0.000379686
0.00241385
0.00460462
0.00697111
0.00979837
0.0129134
0.0184368
0.0225744
0.032518
-0.0166869
-0.0148797
-0.0150145
-0.0143459
-0.0134131
-0.0120808
-0.0104581
-0.00862841
-0.00667207
-0.00464592
-0.00257829
-0.000461468
0.00173855
0.00412639
0.00652628
0.00941611
0.0126017
0.0192254
0.0249072
0.0412426
-0.0175371
-0.0206915
-0.0201121
-0.0194454
-0.0178168
-0.0155797
-0.0131694
-0.0107294
-0.00833096
-0.00599954
-0.00375711
-0.00161383
0.00035109
0.0021426
0.00342661
0.00573634
0.00526663
0.0149141
0.0126437
0.0511221
-0.0403851
-0.0184397
-0.0191454
-0.0185373
-0.0170317
-0.0151908
-0.0131331
-0.0108922
-0.00857812
-0.00627411
-0.00404549
-0.00185572
0.00012296
0.00226305
0.00388126
0.00708319
0.0105975
0.0256614
0.0520987
0.123006
1.49562e-05
2.07971e-05
0.000106634
0.000249092
0.000448195
0.000699871
0.000998703
0.00133811
0.00171029
0.00210633
0.00251623
0.00292907
0.00333314
0.00371632
0.00406635
0.00437134
0.00462022
0.00480348
0.00491719
0.00493336
8.10647e-06
1.29725e-05
9.89906e-05
0.000240943
0.000439482
0.00069073
0.000989396
0.00132901
0.00170186
0.00209909
0.00251068
0.00292579
0.00333259
0.00371883
0.00407208
0.00438023
0.00463193
0.00481749
0.00493331
0.00494909
-7.91803e-05
-7.57409e-05
1.23347e-05
0.000157904
0.000361875
0.000620376
0.000928114
0.00127859
0.00166403
0.00207544
0.00250273
0.00293462
0.00335888
0.00376276
0.00413315
0.00445713
0.00472244
0.00491842
0.00504101
0.00505698
-0.000230111
-0.000227698
-0.000135854
1.62318e-05
0.000229784
0.000500942
0.000824378
0.00119352
0.00160046
0.00203599
0.00248963
0.00294981
0.00340354
0.00383719
0.00423655
0.00458737
0.00487584
0.00508972
0.00522399
0.00524178
-0.000449667
-0.000448368
-0.000351009
-0.000189397
3.8092e-05
0.000327595
0.000673724
0.00106979
0.00150768
0.0019779
0.00246953
0.00297044
0.00346676
0.00394363
0.0043853
0.00477558
0.00509839
0.005339
0.00549086
0.00551192
-0.000742921
-0.000743074
-0.000638472
-0.000464347
-0.000218545
9.50696e-05
0.000471031
0.000902499
0.00138114
0.00189708
0.00243894
0.00299396
0.00354719
0.00408229
0.00458152
0.00502605
0.00539663
0.0056749
0.00585179
0.00587799
-0.00111626
-0.00111844
-0.00100493
-0.00081537
-0.00054689
-0.000203344
0.000209717
0.000685288
0.00121478
0.00178798
0.00239298
0.00301649
0.00364236
0.00425264
0.00482715
0.00534374
0.00577879
0.00610874
0.00632053
0.00635456
-0.00157782
-0.00158293
-0.00145897
-0.00125114
-0.000955629
-0.000576264
-0.000118684
0.000409929
0.00100074
0.00164322
0.00232497
0.00303241
0.00374824
0.00445294
0.00512364
0.00573412
0.00625503
0.00665536
0.00691569
0.00696178
-0.00213761
-0.00214703
-0.00201122
-0.00178242
-0.00145555
-0.00103439
-0.000524692
6.61468e-05
0.000729051
0.00145328
0.00222609
0.00303372
0.00385832
0.00467916
0.00547081
0.00620233
0.00683706
0.00733358
0.00766202
0.00772744
-0.00280773
-0.00282349
-0.00267469
-0.00242239
-0.00205985
-0.00159077
-0.0010211
-0.000358587
0.000387411
0.00120612
0.00208544
0.00300921
0.00396248
0.00492362
0.00586517
0.00675158
0.00753723
0.00816661
0.00859225
0.00869042
-0.00360269
-0.0036278
-0.00346526