/*--------------------------------*- C++ -*----------------------------------*\
  =========                 |
  \\      /  F ield         | OpenFOAM: The Open Source CFD Toolbox
   \\    /   O peration     | Website:  https://openfoam.org
    \\  /    A nd           | Version:  10
     \\/     M anipulation  |
\*---------------------------------------------------------------------------*/
FoamFile
{
    format      ascii;
    class       volScalarField;
    location    "8.1";
    object      p;
}
// * * * * * * * * * * * * * * * * * * * * * * * * * * * * * * * * * * * * * //

dimensions      [0 2 -2 0 0 0 0];

internalField   nonuniform List<scalar> 
475
(
-0.0517064
-0.0770697
-0.106434
-0.13003
-0.152702
-0.0774761
-0.0907931
-0.107061
-0.126115
-0.143065
-0.075608
-0.0849436
-0.0998936
-0.117356
-0.13373
-0.0749689
-0.0857048
-0.100575
-0.116014
-0.129583
-0.0450935
-0.0720188
-0.0956397
-0.113277
-0.126047
-0.170997
-0.181793
-0.185719
-0.187244
-0.189138
-0.191981
-0.195448
-0.198275
-0.199081
-0.196896
-0.191298
-0.182227
-0.170266
-0.156544
-0.142209
-0.127987
-0.114146
-0.101973
-0.0938183
-0.0907399
-0.0918509
-0.0947713
-0.0972588
-0.0982801
-0.0974519
-0.0946307
-0.0902194
-0.0838597
-0.0765057
-0.0682364
-0.0594591
-0.0507132
-0.042557
-0.0351895
-0.0287301
-0.0230069
-0.0180407
-0.0137169
-0.0100695
-0.00716177
-0.00492794
-0.00341433
-0.00225267
-0.00131276
-0.000516706
-0.159681
-0.171226
-0.17699
-0.178619
-0.178675
-0.178378
-0.177809
-0.176623
-0.174306
-0.170624
-0.165485
-0.158995
-0.151513
-0.143467
-0.135046
-0.126242
-0.116597
-0.108259
-0.103366
-0.102774
-0.105676
-0.110032
-0.113246
-0.114242
-0.11268
-0.108568
-0.101969
-0.0939301
-0.0847955
-0.0746934
-0.0641232
-0.0536725
-0.0438808
-0.0349877
-0.0272288
-0.0205141
-0.0149385
-0.0103065
-0.0066601
-0.00402566
-0.00225074
-0.00141556
-0.000847617
-0.000596427
-0.000270387
-0.147098
-0.156596
-0.162153
-0.164269
-0.164005
-0.162158
-0.159269
-0.155562
-0.151269
-0.146637
-0.142412
-0.139571
-0.138525
-0.138306
-0.13465
-0.12566
-0.116815
-0.112758
-0.111685
-0.111616
-0.11328
-0.115722
-0.117375
-0.117275
-0.114945
-0.11028
-0.103786
-0.0955518
-0.0859824
-0.0754708
-0.0645069
-0.0536092
-0.0432635
-0.0338953
-0.0257357
-0.0187587
-0.0130101
-0.00830449
-0.00474225
-0.00227012
-0.000757447
-0.000127075
0.000267018
0.000230336
0.000284438
-0.140359
-0.148146
-0.152913
-0.15471
-0.153855
-0.150718
-0.145909
-0.139726
-0.132981
-0.12631
-0.121953
-0.1214
-0.127622
-0.140089
-0.141834
-0.127377
-0.108272
-0.100617
-0.104183
-0.111502
-0.117045
-0.120174
-0.120818
-0.119319
-0.115879
-0.110281
-0.103015
-0.0942784
-0.0844772
-0.073961
-0.0631341
-0.0524057
-0.0419848
-0.0326905
-0.0245362
-0.0175437
-0.0117855
-0.00716143
-0.00373373
-0.00135617
5.12063e-05
0.000703134
0.000988795
0.00078195
0.000579717
-0.135666
-0.142757
-0.147206
-0.148844
-0.147596
-0.143811
-0.137906
-0.130667
-0.122747
-0.11554
-0.110778
-0.110995
-0.119938
-0.134554
-0.141023
-0.135052
-0.12382
-0.114512
-0.111058
-0.111819
-0.114432
-0.116501
-0.117137
-0.11596
-0.112794
-0.10737
-0.100361
-0.0919435
-0.0824296
-0.0721976
-0.0616992
-0.0514502
-0.0405084
-0.0316229
-0.023668
-0.0168087
-0.0111338
-0.00661928
-0.00327353
-0.000954532
0.000420355
0.00111931
0.00131566
0.00110836
0.000751366
-0.196038
-0.196554
-0.197245
-0.198276
-0.199894
-0.202933
-0.207454
-0.212304
-0.215841
-0.215894
-0.210879
-0.199993
-0.183273
-0.16132
-0.135554
-0.108093
-0.0813423
-0.0572642
-0.0371665
-0.021915
-0.0117834
-0.00644466
-0.00508319
-0.00662867
-0.00998173
-0.014226
-0.0187107
-0.0229167
-0.0265455
-0.0295067
-0.0317808
-0.0334603
-0.0346962
-0.0354249
-0.0351804
-0.033639
-0.0309619
-0.0274877
-0.0235535
-0.0194038
-0.0151677
-0.0110963
-0.00738506
-0.00418586
-0.0012551
-0.190466
-0.192482
-0.193605
-0.195773
-0.199003
-0.203717
-0.209535
-0.215455
-0.219928
-0.220801
-0.216604
-0.206565
-0.190232
-0.168279
-0.142205
-0.114086
-0.0868006
-0.0622422
-0.0418245
-0.0262163
-0.0156767
-0.00994469
-0.00819247
-0.00934088
-0.0123206
-0.0162092
-0.02042
-0.02448
-0.0278581
-0.0303737
-0.0321216
-0.0334337
-0.0346211
-0.0354302
-0.0352805
-0.0337093
-0.0309528
-0.0274067
-0.0233887
-0.0190304
-0.0145906
-0.0105127
-0.00695125
-0.00399457
-0.0013973
-0.199453
-0.198061
-0.197596
-0.198085
-0.200816
-0.205884
-0.212412
-0.218786
-0.22427
-0.225293
-0.221119
-0.21097
-0.194766
-0.173185
-0.147676
-0.120405
-0.0940179
-0.0704351
-0.0509039
-0.0360644
-0.0261813
-0.0209314
-0.0194098
-0.0204333
-0.0229474
-0.0260966
-0.0292573
-0.0320336
-0.0341562
-0.0353151
-0.035709
-0.0357118
-0.0356937
-0.0354228
-0.0343165
-0.0320619
-0.0289788
-0.0254436
-0.02174
-0.017898
-0.0139092
-0.0100268
-0.00659587
-0.0036083
-0.0012193
-0.186838
-0.189351
-0.190615
-0.192933
-0.196809
-0.20242
-0.20921
-0.215834
-0.220826
-0.22224
-0.218559
-0.209099
-0.19379
-0.17372
-0.150424
-0.125852
-0.102314
-0.0815776
-0.0647698
-0.0525579
-0.0449906
-0.0414005
-0.0407026
-0.0416884
-0.0433802
-0.0449941
-0.046043
-0.0464037
-0.0459718
-0.0445518
-0.0423535
-0.0398518
-0.0374338
-0.0349907
-0.032235
-0.029109
-0.025799
-0.0224246
-0.0189158
-0.0152262
-0.0114909
-0.00803082
-0.00517089
-0.00280638
-0.000949665
-0.223117
-0.202855
-0.19901
-0.196848
-0.19786
-0.201926
-0.207463
-0.212509
-0.215698
-0.215473
-0.210802
-0.201224
-0.186925
-0.169119
-0.149303
-0.129014
-0.109852
-0.0934207
-0.0810862
-0.0734886
-0.070078
-0.0694349
-0.0701144
-0.0711069
-0.071632
-0.0709989
-0.0688829
-0.0662003
-0.062047
-0.0568978
-0.0512124
-0.045449
-0.0400452
-0.0350838
-0.0304732
-0.026046
-0.0218409
-0.017901
-0.0142802
-0.0110324
-0.00822433
-0.00583031
-0.00387841
-0.0021694
-0.000771485
)
;

boundaryField
{
    inlet
    {
        type            zeroGradient;
    }
    outlet
    {
        type            fixedValue;
        value           uniform 0;
    }
    upperWall
    {
        type            zeroGradient;
    }
    lowerWall
    {
        type            zeroGradient;
    }
    frontAndBack
    {
        type            empty;
    }
}


// ************************************************************************* //
