/*--------------------------------*- C++ -*----------------------------------*\
  =========                 |
  \\      /  F ield         | OpenFOAM: The Open Source CFD Toolbox
   \\    /   O peration     | Website:  https://openfoam.org
    \\  /    A nd           | Version:  10
     \\/     M anipulation  |
\*---------------------------------------------------------------------------*/
FoamFile
{
    format      ascii;
    class       volScalarField;
    location    "8.6";
    object      p;
}
// * * * * * * * * * * * * * * * * * * * * * * * * * * * * * * * * * * * * * //

dimensions      [0 2 -2 0 0 0 0];

internalField   nonuniform List<scalar> 
400
(
3.97773e-07
-2.62365e-05
3.10925e-05
0.00014172
0.00031376
0.000550176
0.000855523
0.00123556
0.00169595
0.00224073
0.00287058
0.00358017
0.00435446
0.00516516
0.00596631
0.0066956
0.00727968
0.00765618
0.00782794
0.00772669
3.06745e-05
3.32254e-06
6.81409e-05
0.000181222
0.000352168
0.000584763
0.000883985
0.00125571
0.00170564
0.00223819
0.0028548
0.00355133
0.00431321
0.00511656
0.00591547
0.00664693
0.00723324
0.00760767
0.0077777
0.00765773
-3.84692e-05
-7.48739e-05
-1.19475e-05
9.63692e-05
0.000260412
0.000484171
0.000773203
0.00113437
0.00157493
0.00210163
0.00271894
0.00342643
0.0042156
0.00506329
0.00592241
0.00672088
0.00736179
0.00775482
0.00790818
0.00772667
-0.000185297
-0.000227974
-0.000169223
-6.90033e-05
8.38417e-05
0.000293668
0.000566897
0.000911843
0.00133807
0.00185591
0.00247504
0.00320129
0.00403221
0.00494949
0.00590829
0.00682329
0.00756608
0.00799543
0.00811334
0.00782325
-0.000418532
-0.000466409
-0.000414766
-0.000326623
-0.000190027
-1.68335e-07
0.000250376
0.000571646
0.000976024
0.00147827
0.00209483
0.00284109
0.00372517
0.00473826
0.0058412
0.00693489
0.00784423
0.00833836
0.00838367
0.00790878
-0.000736573
-0.000789532
-0.000747954
-0.000676241
-0.000561915
-0.000399915
-0.000182019
0.00010333
0.00047122
0.000941019
0.00153681
0.00228642
0.00321476
0.00432935
0.00561309
0.00696281
0.00814126
0.00875608
0.00866557
0.00787385
-0.00113406
-0.0011926
-0.00116409
-0.00111374
-0.00102895
-0.000904912
-0.000733437
-0.00050244
-0.000195313
0.000210632
0.000746111
0.00145156
0.00237425
0.00355483
0.00500822
0.00667606
0.00827009
0.0091233
0.00882049
0.00753904
-0.00160369
-0.00166861
-0.00165615
-0.00163238
-0.00158523
-0.00151101
-0.00140293
-0.00125059
-0.0010389
-0.00074572
-0.000339145
0.000225961
0.00101155
0.00209242
0.00353999
0.00546476
0.00761854
0.00896386
0.00849418
0.00680292
-0.00213621
-0.00220833
-0.00221433
-0.0022218
-0.0022201
-0.00220786
-0.00218173
-0.00213593
-0.00206194
-0.00194681
-0.00177048
-0.00150259
-0.00110415
-0.000515572
0.000416641
0.00198047
0.00447682
0.00682022
0.00699278
0.00596829
-0.00272052
-0.00280045
-0.00282579
-0.00286727
-0.00291658
-0.00297624
-0.00304867
-0.00313661
-0.00324445
-0.0033797
-0.00355621
-0.00380466
-0.00421076
-0.00493594
-0.00595973
-0.00637667
-0.00444363
-0.000201408
0.00326149
0.00537427
-0.00334437
-0.00343233
-0.00347523
-0.00354987
-0.00365104
-0.00378676
-0.00396742
-0.00420794
-0.00453246
-0.0049822
-0.00563159
-0.00662167
-0.00825673
-0.0111747
-0.0156101
-0.0201597
-0.0199612
-0.0134285
-0.00523519
0.00193098
-0.0039956
-0.00409066
-0.00414433
-0.00424541
-0.00439186
-0.00459839
-0.00488417
-0.00527768
-0.00582608
-0.00661121
-0.00778438
-0.00963179
-0.0127077
-0.0181318
-0.0263415
-0.0354925
-0.0378379
-0.030107
-0.0186215
-0.00709516
-0.0046663
-0.00476769
-0.00482082
-0.00493505
-0.00511063
-0.0053698
-0.00573965
-0.00625933
-0.00699402
-0.00805522
-0.00964687
-0.0121451
-0.0162341
-0.0231168
-0.0333303
-0.0442216
-0.0481174
-0.0407023
-0.0302585
-0.0174338
-0.00534817
-0.00544575
-0.00547119
-0.00557286
-0.00575322
-0.00603866
-0.00645755
-0.00705391
-0.00789818
-0.00910695
-0.0108928
-0.0136173
-0.0179747
-0.0248296
-0.0348525
-0.0447966
-0.0488684
-0.042008
-0.0342493
-0.0222649
-0.00606818
-0.00616925
-0.00614326
-0.00620955
-0.00635534
-0.00661929
-0.00703157
-0.00763457
-0.00849392
-0.00971026
-0.0114712
-0.0140342
-0.018032
-0.0238912
-0.0319797
-0.0390822
-0.0420599
-0.0361362
-0.0318462
-0.020207
-0.00691054
-0.00681443
-0.00665541
-0.00659781
-0.00668124
-0.00691772
-0.00731827
-0.00790585
-0.00872974
-0.00986313
-0.0114265
-0.0136534
-0.0168842
-0.0212319
-0.0268693
-0.0313327
-0.0330585
-0.0276693
-0.025705
-0.0108382
-0.00737127
-0.0077715
-0.00743046
-0.00739122
-0.00733667
-0.00742903
-0.00768094
-0.00812568
-0.00880636
-0.00975876
-0.0111113
-0.0129608
-0.0155101
-0.0186734
-0.022573
-0.0251305
-0.025725
-0.020268
-0.0171731
0.00763613
-0.0107478
-0.00819606
-0.00749961
-0.00684012
-0.00670692
-0.00683437
-0.00716626
-0.00766583
-0.00835919
-0.00923967
-0.0104655
-0.0120489
-0.0141609
-0.0165869
-0.019344
-0.0205963
-0.0200439
-0.012992
-0.00333433
0.0397535
-0.00737134
-0.010331
-0.00916853
-0.0091033
-0.00857901
-0.00829022
-0.00819139
-0.0083102
-0.00869798
-0.00933741
-0.0103543
-0.011717
-0.0137266
-0.0160239
-0.018873
-0.0198203
-0.0183668
-0.00448193
0.0207404
0.0972497
-0.0326141
-0.00750033
-0.00587945
-0.00506738
-0.00482055
-0.00499079
-0.00546158
-0.00604319
-0.00682778
-0.00773667
-0.00901072
-0.0104971
-0.0124221
-0.0140907
-0.0152041
-0.0120559
-0.0016814
0.0323443
0.0983983
0.228847
)
;

boundaryField
{
    movingWall
    {
        type            zeroGradient;
    }
    fixedWalls
    {
        type            zeroGradient;
    }
    frontAndBack
    {
        type            empty;
    }
}


// ************************************************************************* //
