/*--------------------------------*- C++ -*----------------------------------*\
  =========                 |
  \\      /  F ield         | OpenFOAM: The Open Source CFD Toolbox
   \\    /   O peration     | Website:  https://openfoam.org
    \\  /    A nd           | Version:  10
     \\/     M anipulation  |
\*---------------------------------------------------------------------------*/
FoamFile
{
    format      ascii;
    class       volScalarField;
    location    "7.35";
    object      p;
}
// * * * * * * * * * * * * * * * * * * * * * * * * * * * * * * * * * * * * * //

dimensions      [0 2 -2 0 0 0 0];

internalField   nonuniform List<scalar> 
400
(
-1.50781e-08
-2.17874e-05
3.16624e-05
0.000134363
0.000293364
0.000510917
0.000790247
0.00113516
0.0015489
0.00203297
0.00258588
0.00320122
0.0038654
0.00455557
0.00523746
0.00586618
0.00638914
0.00675546
0.00695743
0.00691364
2.35828e-05
1.2495e-06
6.05076e-05
0.000164369
0.000321418
0.000534722
0.000808006
0.00114538
0.00155034
0.00202487
0.00256815
0.00317465
0.00383116
0.00451744
0.00519948
0.00583219
0.00636088
0.00673247
0.00694242
0.00688784
-3.85038e-05
-6.86364e-05
-1.11833e-05
8.8582e-05
0.000240045
0.00044656
0.000712466
0.00104283
0.00144254
0.00191535
0.00246263
0.00308131
0.00376221
0.00448517
0.00521526
0.00590247
0.00648183
0.00688627
0.00711039
0.00702043
-0.000166322
-0.000201996
-0.000148017
-5.47593e-05
8.80608e-05
0.000284256
0.000539096
0.000859085
0.00125117
0.00172204
0.00227674
0.00291653
0.00363548
0.0044174
0.00522774
0.00600941
0.00668036
0.00714518
0.00739661
0.00724946
-0.000366719
-0.000407279
-0.000358915
-0.000275028
-0.000144417
3.73058e-05
0.000276552
0.000581611
0.00096207
0.00142842
0.00199101
0.00265741
0.00342908
0.00429362
0.00522083
0.00614509
0.00696063
0.00752585
0.00782249
0.0075714
-0.000638505
-0.000684158
-0.000643617
-0.000572382
-0.000458481
-0.000296986
-8.03449e-05
0.000201607
0.00056138
0.0010139
0.001576
0.00226457
0.00309127
0.00405612
0.0051367
0.00626385
0.00730157
0.00803284
0.00840407
0.00796072
-0.000978196
-0.0010297
-0.000999346
-0.00094467
-0.000853169
-0.000719678
-0.00053584
-0.000289963
3.31295e-05
0.000452809
0.000993103
0.00168229
0.00254862
0.00360963
0.00486918
0.00626502
0.00763565
0.00865174
0.00914965
0.00837104
-0.00138127
-0.00143968
-0.001422
-0.00138828
-0.00132586
-0.00122994
-0.00109222
-0.000900509
-0.000638136
-0.000282514
0.000196699
0.000839576
0.00169605
0.0028175
0.00422894
0.00592373
0.00776342
0.00929402
0.00999725
0.00875389
-0.00184196
-0.00190843
-0.00190567
-0.0018972
-0.00187087
-0.00182306
-0.00174687
-0.00163154
-0.00146169
-0.00121505
-0.00085965
-0.000350222
0.000377004
0.00140223
0.00281482
0.00469668
0.00708511
0.00955082
0.0106155
0.00908456
-0.0023532
-0.0024288
-0.00244224
-0.00246231
-0.00247809
-0.0024884
-0.00248945
-0.00247449
-0.00243341
-0.00235103
-0.00220462
-0.00195913
-0.00156186
-0.00093957
1.19786e-05
0.00149914
0.00404922
0.00780952
0.00973617
0.0092568
-0.00290705
-0.00299257
-0.00302152
-0.00307096
-0.00313211
-0.00320757
-0.00329872
-0.00340593
-0.00352946
-0.00366988
-0.00382927
-0.00401429
-0.00424941
-0.00461684
-0.00523095
-0.00582064
-0.00475539
5.67626e-05
0.00471044
0.00800184
-0.00349581
-0.00359113
-0.00363101
-0.00370629
-0.00381091
-0.00395263
-0.00413949
-0.00438154
-0.00469427
-0.0051032
-0.00565353
-0.00643069
-0.00761092
-0.00959763
-0.0130389
-0.0178519
-0.0203711
-0.0152445
-0.00702972
0.0015812
-0.00411488
-0.00421969
-0.00426188
-0.00435406
-0.00449248
-0.00469181
-0.00496797
-0.00534143
-0.00584544
-0.00653603
-0.00751331
-0.00896574
-0.0112723
-0.0151702
-0.0219164
-0.0313294
-0.0386858
-0.0344832
-0.023985
-0.0106143
-0.00475915
-0.004864
-0.00488515
-0.00497426
-0.00512985
-0.00537111
-0.00571754
-0.00619859
-0.00686068
-0.00778218
-0.00910386
-0.0110763
-0.0142293
-0.0194332
-0.0281418
-0.0396844
-0.0496792
-0.046685
-0.0372114
-0.0221172
-0.00545811
-0.00557225
-0.00555277
-0.00562148
-0.00576084
-0.00600359
-0.00637488
-0.00690852
-0.00765556
-0.00869869
-0.0101906
-0.0123646
-0.0157899
-0.0211692
-0.0300833
-0.0408058
-0.0501829
-0.0473466
-0.0402336
-0.0249589
-0.00629327
-0.00621253
-0.00607203
-0.00603435
-0.00613242
-0.00637509
-0.00677083
-0.00733911
-0.00812213
-0.00918983
-0.0106875
-0.0127774
-0.0158993
-0.0206372
-0.027858
-0.0358482
-0.0422347
-0.0390955
-0.0345896
-0.0170955
-0.0067766
-0.0071985
-0.00689357
-0.00689169
-0.00687329
-0.00699332
-0.0072665
-0.00772577
-0.00841137
-0.00937062
-0.010733
-0.0125229
-0.0152315
-0.0189127
-0.0242204
-0.0293595
-0.0333166
-0.0290904
-0.0237571
0.00234369
-0.0101569
-0.00763298
-0.00698503
-0.00638624
-0.00630288
-0.00647659
-0.00685018
-0.00738677
-0.00810779
-0.00902781
-0.0102622
-0.0118714
-0.0141405
-0.0170038
-0.0208234
-0.0237572
-0.0251742
-0.0188923
-0.00725167
0.0360803
-0.00683471
-0.00982909
-0.00874351
-0.00874537
-0.00827959
-0.00803626
-0.00797981
-0.00813769
-0.00855446
-0.0092213
-0.0102443
-0.0116226
-0.0137551
-0.0163512
-0.0201215
-0.0224858
-0.0227046
-0.00902651
0.0176462
0.094633
-0.0320553
-0.00700311
-0.00546446
-0.00471021
-0.0045074
-0.00472116
-0.00523988
-0.0058606
-0.00668474
-0.00762736
-0.00893471
-0.0104789
-0.0125832
-0.0146555
-0.0164897
-0.0144443
-0.00519153
0.0285753
0.0962139
0.227695
)
;

boundaryField
{
    movingWall
    {
        type            zeroGradient;
    }
    fixedWalls
    {
        type            zeroGradient;
    }
    frontAndBack
    {
        type            empty;
    }
}


// ************************************************************************* //
