/*--------------------------------*- C++ -*----------------------------------*\
  =========                 |
  \\      /  F ield         | OpenFOAM: The Open Source CFD Toolbox
   \\    /   O peration     | Website:  https://openfoam.org
    \\  /    A nd           | Version:  10
     \\/     M anipulation  |
\*---------------------------------------------------------------------------*/
FoamFile
{
    format      ascii;
    class       surfaceScalarField;
    location    "6.575";
    object      phi;
}
// * * * * * * * * * * * * * * * * * * * * * * * * * * * * * * * * * * * * * //

dimensions      [0 3 -1 0 0 0 0];

internalField   nonuniform List<scalar> 
928
(
0.096077
0.00392299
0.103728
-0.00765101
0.106565
-0.00283727
-0.010179
0.116744
0.0948522
0.00907082
0.105917
-0.0187162
0.102347
0.000733251
-0.020153
0.112321
0.0957278
0.0133431
0.107276
-0.030264
0.103205
0.00480429
-0.0404203
0.123472
0.103353
0.00998972
0.0947933
-0.021704
0.09981
-0.000212406
0.146555
-0.0871649
0.111221
0.00552347
-0.0167888
0.12801
0.10806
0.00978408
-0.0423669
0.133638
0.12353
0.00972591
-0.0458319
0.126995
0.15628
0.110449
0.127784
0.000225164
0.128575
-0.000790447
0.13022
-0.00164475
-0.00134109
0.131561
0.133146
0.000717999
0.133741
-0.00138621
0.135655
-0.00355877
-0.00167235
0.135987
0.129744
-0.00203092
0.137602
-0.00924389
0.133371
0.000671616
0.000447179
0.131252
0.107073
0.00134471
0.11557
-0.0177407
0.113808
0.002433
0.101792
0.0124632
0.132317
-0.000756304
0.132276
4.06259e-05
0.132353
-7.69298e-05
0.131309
0.00104424
0.130604
0.000704969
0.129707
0.000897345
0.129049
0.000657471
0.128746
0.000303222
0.128483
0.000263054
0.128293
0.000189859
0.127157
0.00113596
0.126372
0.000785137
0.124932
0.00144049
0.123484
0.00144734
0.121374
0.00210999
0.119191
0.00218352
0.117206
0.00198516
0.115372
0.00183375
0.114254
0.00111828
0.113368
0.000885486
0.113446
-7.82875e-05
0.113495
-4.82489e-05
0.114102
-0.000607254
0.114741
-0.000638766
0.115268
-0.000527653
0.115998
-0.000730049
0.116256
-0.000257293
0.11634
-8.40629e-05
0.116025
0.00031462
0.115296
0.000728699
0.114
0.00129645
0.11178
0.00221976
0.109446
0.00233403
0.106203
0.00324318
0.103592
0.00261046
0.100645
0.00294797
0.0987976
0.00184697
0.0974006
0.00139694
0.0965195
0.000881156
-0.000697153
0.13629
-0.00105953
0.136626
-0.000296075
0.136646
-9.67687e-05
0.136704
0.000986862
0.136384
0.00102497
0.135548
0.00173331
0.135325
0.000880334
0.13532
0.000307604
0.13526
0.000323924
0.135154
0.000295756
0.134783
0.00150646
0.13476
0.000808265
0.133901
0.00229936
0.132862
0.00248647
0.131297
0.00367519
0.129686
0.00379473
0.127901
0.00376984
0.126325
0.00340979
0.125451
0.00199244
0.124967
0.00136955
0.125198
-0.000309507
0.125609
-0.000459342
0.126442
-0.00144005
0.127362
-0.00155901
0.128624
-0.00178932
0.129782
-0.00188824
0.13068
-0.00115581
0.131463
-0.000866859
0.132079
-0.000301425
0.132004
0.000803569
0.131383
0.00191829
0.129872
0.00373041
0.128243
0.00396266
0.125887
0.00559929
0.123925
0.00457313
0.121884
0.0049885
0.119516
0.00421521
0.117495
0.00341747
0.114478
0.00389801
0.000182861
0.1314
-0.00120799
0.132815
-0.00171132
0.133393
-0.000674336
0.133445
0.000934831
0.132828
0.00164224
0.133559
0.00100194
0.133271
0.00116828
0.132328
0.00125043
0.131381
0.00127151
0.131345
0.000331133
0.132678
0.000173513
0.133286
0.000200395
0.133547
0.00203849
0.133158
0.00287519
0.132259
0.00457448
0.131016
0.00503725
0.130003
0.00478325
0.129219
0.00419338
0.128524
0.00268797
0.128154
0.00173974
0.1274
0.000444286
0.126738
0.000202703
0.126572
-0.00127444
0.126637
-0.00162366
0.127451
-0.00260361
0.1278
-0.00223746
0.128803
-0.00215874
0.130246
-0.00230916
0.13173
-0.00178577
0.133415
-0.000881856
0.135342
-8.55302e-06
0.136803
0.00227006
0.137041
0.00372407
0.136138
0.00650301
0.133834
0.0068764
0.130329
0.0084936
0.125569
0.00897509
0.121085
0.00790155
0.116885
0.00809868
0.00242118
0.110926
-0.0103418
0.106461
0.00275376
0.111215
-0.00542824
0.107599
0.0045513
0.103925
0.00531578
0.108651
-0.00372435
0.106151
0.00366901
0.10046
0.00694062
0.0997551
0.0019767
0.0997114
0.000374887
0.100781
-0.000895609
0.101332
-0.000351416
0.103664
-0.000292993
0.105615
0.000924464
0.10669
0.00349883
0.108585
0.00314242
0.108848
0.00452013
0.107025
0.00601652
0.10456
0.00515287
0.100999
0.00530128
0.0968116
0.0046312
0.0934676
0.00354676
0.0903722
0.00182093
0.0882477
0.00050086
0.0858865
-0.000242431
0.0857002
-0.00205115
0.0873512
-0.00380975
0.0894503
-0.00440828
0.0925327
-0.00486813
0.0972196
-0.00556874
0.102336
-0.00512545
0.107835
-0.00322811
0.112898
-0.00133937
0.118738
0.000662783
0.123311
0.0023039
0.128127
0.00367722
0.132667
0.00443541
0.136131
0.00443774
0.138613
0.00561603
0.00392161
0.109252
0.000738119
0.0879859
-0.000438208
0.0864498
0.0013236
-0.000715071
0.111478
-0.01074
0.0887687
0.0222712
0.0902358
-0.000143467
0.0895207
-0.00603013
0.00737482
0.0196859
-0.0434567
0.0141043
0.00801464
0.0330188
-0.00645135
-0.00183127
0.0092061
-0.0245012
-0.0207867
-0.0218244
0.00533782
0.0125017
-0.00130727
0.0034335
-0.0202266
-0.00570057
0.0118878
0.00544698
-0.0165758
0.00297054
0.00702773
-0.00499252
0.0132788
0.00174953
-0.0104664
0.00733886
-0.00192032
0.0099881
0.00429138
0.00942968
0.00253511
0.0102396
-0.000435031
0.0140991
-0.0047551
0.0179894
-0.00424169
0.0204678
-0.00277146
0.0235238
-0.00213154
0.0265734
0.000449283
0.0279998
0.00171597
0.027393
0.005127
0.0274327
0.00597681
0.0282049
0.00438069
0.0268053
0.00670088
0.0260315
0.00540498
0.0272746
0.00230361
0.0263851
0.0027105
0.0256161
0.00126979
0.0275998
-0.00222614
0.0289168
-0.00336812
0.0289015
-0.00379444
0.0314292
-0.00693604
0.0355818
-0.0090207
0.0387235
-0.00871036
0.0416396
-0.00804157
0.0457098
-0.00729832
0.0492438
-0.00487339
0.0506937
-0.000787092
0.0518056
0.00119195
0.0522124
0.00327041
0.0500382
0.00660965
0.0478166
0.00665936
0.0450534
0.00837919
0.0058326
-0.00255849
-0.00516645
0.00399461
0.00533472
-0.0068748
-0.00570637
-0.00730353
0.00745647
0.00348825
0.00248707
-0.00432974
-0.00264841
-0.00580975
-0.000440298
-0.000918659
-0.000599714
0.00234518
-0.000728733
0.00659226
-0.00468211
0.00751424
-0.00567708
0.00853948
-0.00526693
0.00982901
-0.00406099
0.0111059
-0.00340842
0.0140341
-0.0024789
0.0153517
0.000398361
0.0186645
0.00181421
0.0225707
0.0020706
0.0240069
0.0029445
0.0267914
0.00391635
0.0299871
0.00220928
0.0313426
0.000948109
0.0321171
0.00193601
0.0332716
0.000115331
0.0335738
-0.00252833
0.0326617
-0.00245605
0.0322788
-0.0034116
0.0314023
-0.00605954
0.0299241
-0.00754252
0.0286331
-0.0074193
0.027852
-0.00726053
0.0277343
-0.00718062
0.0281105
-0.00524953
0.0290878
-0.00176442
0.0301178
0.000161987
0.0313298
0.00205841
0.0331627
0.00477673
0.0352612
0.00456084
0.0375027
0.00613768
0.00376772
0.102815
-0.0135554
0.0923506
0.032736
0.0975077
-0.00530058
0.0414672
0.145561
0.0955722
-0.00912768
0.109839
0.0184691
0.10406
0.000478373
0.0195875
0.12594
0.094878
-0.00400563
0.105822
0.00752501
0.103078
0.00322244
0.00958933
0.113076
0.0959944
0.103519
0.106742
0.116331
0.152946
-0.007385
0.0480964
0.10485
0.127437
-0.00888218
0.0415543
0.133979
0.109399
-0.00520454
0.0164575
0.134495
0.111127
0.127584
0.111309
0.00274657
0.0877485
0.00277401
0.0885131
0.0045732
0.000481499
0.0867244
0.136018
0.00070805
0.138383
0.000408694
0.141739
0.00121694
0.00320927
0.139012
0.135442
-0.000238591
0.135562
0.000288727
0.135426
0.00135306
0.0016457
0.136989
0.127346
0.127634
0.128987
0.130633
0.081943
-0.00038503
0.0848373
0.00244037
0.079257
-0.000126108
0.0832155
0.00349799
0.0839995
0.00170311
0.081823
-0.000471911
0.0831688
-0.00178612
0.0859985
-0.00342942
0.089372
-0.00410222
0.0893476
-0.00465775
0.0880583
-0.00438774
0.0866446
-0.0038532
0.0851817
-0.00259809
0.0833842
-0.00161098
0.0816571
-0.000751726
0.0823146
-0.00025923
0.0835371
0.000591742
0.0851059
0.000501817
0.0886895
-0.00063912
0.0926375
-3.1601e-05
0.0963128
-0.00146604
0.0996983
-0.0024374
0.104396
-0.00276174
0.10718
-0.00266898
0.108719
-0.00406721
0.110702
-0.00443834
0.111135
-0.00384506
0.108354
-0.0032787
0.103229
-0.00241756
0.0973196
-0.0015097
0.0906203
-0.000561228
0.0828916
0.000548035
0.0773154
0.000326684
0.0737431
0.00180792
0.072108
0.00179703
0.0723395
0.00182692
0.0747657
0.00235058
0.0780636
0.00126293
0.0825677
0.00163355
-0.000550244
0.1362
0.00242654
0.136629
0.00201155
0.136195
0.000307462
0.13933
0.000363767
0.141197
-0.000164765
0.140921
-0.000195959
0.140299
-0.00116322
0.139531
-0.00266213
0.138814
-0.0033854
0.138503
-0.00434592
0.137425
-0.00330973
0.13687
-0.00329885
0.135661
-0.00138899
0.135226
-0.0011758
0.134555
-8.06291e-05
0.13407
0.000225443
0.134619
4.2749e-05
0.134628
0.000492523
0.135183
-0.00119384
0.136352
-0.0012008
0.137326
-0.00243961
0.137533
-0.00264402
0.138155
-0.00338368
0.138779
-0.00329393
0.137864
-0.0031517
0.137011
-0.00358566
0.136124
-0.00295752
0.135392
-0.00254743
0.134366
-0.00139126
0.133204
-0.000347669
0.132286
0.000356559
0.130951
0.00188386
0.129361
0.00191621
0.1282
0.00296846
0.127492
0.00250548
0.126754
0.0025652
0.127186
0.00191795
0.12754
0.000909298
0.128682
0.000491739
-0.00167832
0.138347
0.00106932
0.139252
0.00110611
0.139306
0.000253836
0.139923
-0.000253723
0.140858
-0.00109952
0.14126
-0.000598339
0.140877
-0.000780399
0.13936
-0.00114437
0.137535
-0.00156034
0.135579
-0.00239073
0.134148
-0.00187782
0.132599
-0.00175026
0.131912
-0.000701978
0.131311
-0.000575195
0.131489
-0.000257975
0.131861
-0.00014653
0.132161
-0.000258024
0.132753
-9.8669e-05
0.132279
-0.000720526
0.131979
-0.000900828
0.131069
-0.00152884
0.130017
-0.00159271
0.128577
-0.00194386
0.12721
-0.00192652
0.125818
-0.0017597
0.124141
-0.00190818
0.122789
-0.00160565
0.121754
-0.00151246
0.121085
-0.00072267
0.12099
-0.000252801
0.121125
0.000222273
0.122093
0.00091517
0.122967
0.00104205
0.124358
0.00157773
0.125649
0.0012146
0.126842
0.00137263
0.128012
0.000747156
0.128711
0.00021103
0.129374
-0.000171788
-0.00131303
0.131702
0.132808
0.133062
0.132809
0.131709
0.131111
0.13033
0.129186
0.127626
0.125235
0.123357
0.121607
0.120905
0.12033
0.120072
0.119925
0.119667
0.119568
0.118848
0.117947
0.116418
0.114826
0.112882
0.110955
0.109195
0.107287
0.105682
0.104169
0.103446
0.103194
0.103416
0.104331
0.105373
0.106951
0.108165
0.109538
0.110285
0.110496
0.110325
)
;

boundaryField
{
    inlet
    {
        type            calculated;
        value           nonuniform List<scalar> 10(-0.1 -0.1 -0.1 -0.1 -0.1 -0.1 -0.1 -0.1 -0.1 -0.1);
    }
    outlet
    {
        type            calculated;
        value           nonuniform List<scalar> 10(0.0972166 0.113598 0.114646 0.137113 0.0431424 0.0395676 0.0868857 0.12981 0.129009 0.109011);
    }
    obstacle
    {
        type            calculated;
        value           uniform 0;
    }
    upperWall
    {
        type            calculated;
        value           uniform 0;
    }
    lowerWall
    {
        type            calculated;
        value           uniform 0;
    }
    frontAndBack
    {
        type            empty;
        value           nonuniform List<scalar> 0();
    }
}


// ************************************************************************* //
