/*--------------------------------*- C++ -*----------------------------------*\
  =========                 |
  \\      /  F ield         | OpenFOAM: The Open Source CFD Toolbox
   \\    /   O peration     | Website:  https://openfoam.org
    \\  /    A nd           | Version:  10
     \\/     M anipulation  |
\*---------------------------------------------------------------------------*/
FoamFile
{
    format      ascii;
    class       volVectorField;
    location    "5.675";
    object      U;
}
// * * * * * * * * * * * * * * * * * * * * * * * * * * * * * * * * * * * * * //

dimensions      [0 1 -1 0 0 0 0];

internalField   nonuniform List<vector> 
400
(
(-9.62032e-05 8.88752e-05 0)
(-0.000834836 0.000318887 0)
(-0.0020894 0.000394774 0)
(-0.00332664 0.000409332 0)
(-0.00456434 0.000407684 0)
(-0.00576358 0.000401464 0)
(-0.0069029 0.000389914 0)
(-0.00795871 0.00036927 0)
(-0.00889916 0.000335201 0)
(-0.00968356 0.000283167 0)
(-0.0102624 0.000208891 0)
(-0.0105785 0.000109291 0)
(-0.0105693 -1.88349e-05 0)
(-0.0101726 -0.000174609 0)
(-0.00933752 -0.000351431 0)
(-0.0080355 -0.000535768 0)
(-0.00628514 -0.000701858 0)
(-0.00421311 -0.000803281 0)
(-0.0018732 -0.000747818 0)
(-0.000311692 -0.000340694 0)
(-0.00034804 0.000843985 0)
(-0.00188643 0.00181382 0)
(-0.00421971 0.00211845 0)
(-0.00651157 0.00215551 0)
(-0.0087711 0.00210254 0)
(-0.0109239 0.00200814 0)
(-0.0129219 0.00187461 0)
(-0.014719 0.00169218 0)
(-0.0162605 0.00144829 0)
(-0.0174821 0.0011296 0)
(-0.0183096 0.000723364 0)
(-0.0186633 0.000218905 0)
(-0.0184581 -0.000387107 0)
(-0.0176102 -0.0010828 0)
(-0.0160557 -0.00183951 0)
(-0.0137653 -0.0026019 0)
(-0.0107834 -0.00327052 0)
(-0.00730209 -0.00366404 0)
(-0.00341894 -0.00343561 0)
(-0.000681542 -0.00183212 0)
(-0.000447419 0.00218575 0)
(-0.00231842 0.00419461 0)
(-0.00509766 0.00480044 0)
(-0.00780897 0.00484496 0)
(-0.0104679 0.00468723 0)
(-0.0129895 0.004427 0)
(-0.0153196 0.00407383 0)
(-0.0174071 0.0036134 0)
(-0.0191925 0.00302504 0)
(-0.0206072 0.00228605 0)
(-0.0215727 0.00137463 0)
(-0.022 0.000273591 0)
(-0.0217877 -0.00102042 0)
(-0.0208353 -0.00248709 0)
(-0.0190603 -0.00406905 0)
(-0.0164117 -0.00565502 0)
(-0.0129204 -0.00704428 0)
(-0.00879791 -0.007867 0)
(-0.00414941 -0.0074236 0)
(-0.000837846 -0.00418049 0)
(-0.000478199 0.00358361 0)
(-0.0024907 0.00668724 0)
(-0.00547613 0.00759632 0)
(-0.0083796 0.00763956 0)
(-0.0112294 0.00737155 0)
(-0.0139395 0.00694453 0)
(-0.0164586 0.00637474 0)
(-0.0187386 0.00564282 0)
(-0.0207223 0.00471894 0)
(-0.0223409 0.00356873 0)
(-0.0235126 0.00215781 0)
(-0.0241397 0.000458967 0)
(-0.0241044 -0.00153854 0)
(-0.0232728 -0.00381834 0)
(-0.021515 -0.00630311 0)
(-0.0187263 -0.008829 0)
(-0.0148909 -0.0110828 0)
(-0.0102263 -0.0124642 0)
(-0.0048429 -0.0118422 0)
(-0.000972948 -0.00676638 0)
(-0.000490865 0.00505612 0)
(-0.00259709 0.00932527 0)
(-0.00573508 0.0105546 0)
(-0.00878672 0.0106002 0)
(-0.0117936 0.0102262 0)
(-0.0146725 0.00964061 0)
(-0.017379 0.00886705 0)
(-0.0198725 0.00788095 0)
(-0.0221021 0.00664194 0)
(-0.0240028 0.00510058 0)
(-0.0254902 0.00320319 0)
(-0.0264541 0.000900576 0)
(-0.0267542 -0.00183846 0)
(-0.0262114 -0.00501438 0)
(-0.0246229 -0.00854551 0)
(-0.0217928 -0.0122219 0)
(-0.0176062 -0.0155988 0)
(-0.0122552 -0.0177757 0)
(-0.00585819 -0.0170454 0)
(-0.00117934 -0.00982485 0)
(-0.000502884 0.00658553 0)
(-0.00270654 0.0120925 0)
(-0.00600759 0.0136642 0)
(-0.00922095 0.013721 0)
(-0.0124024 0.0132527 0)
(-0.015473 0.0125278 0)
(-0.0183991 0.0115785 0)
(-0.0211518 0.0103754 0)
(-0.0236917 0.00886632 0)
(-0.025963 0.00698258 0)
(-0.0278841 0.00464293 0)
(-0.0293364 0.00176212 0)
(-0.0301564 -0.00173329 0)
(-0.0301069 -0.00589061 0)
(-0.0288828 -0.0106526 0)
(-0.0261463 -0.0157833 0)
(-0.0216077 -0.0206876 0)
(-0.015355 -0.02407 0)
(-0.00748579 -0.023397 0)
(-0.00153698 -0.0136137 0)
(-0.000518079 0.00817822 0)
(-0.00283667 0.0150034 0)
(-0.00632749 0.0169425 0)
(-0.00972684 0.0170209 0)
(-0.0131067 0.0164727 0)
(-0.0163943 0.0156332 0)
(-0.0195705 0.0145461 0)
(-0.0226234 0.0131784 0)
(-0.0255326 0.0114657 0)
(-0.0282613 0.00931717 0)
(-0.0307419 0.00661524 0)
(-0.0328574 0.00322043 0)
(-0.0344321 -0.00101519 0)
(-0.0351694 -0.00620738 0)
(-0.0346354 -0.0124014 0)
(-0.0322868 -0.0193857 0)
(-0.0275418 -0.0264246 0)
(-0.0202054 -0.031711 0)
(-0.0102417 -0.0314817 0)
(-0.00220969 -0.0186125 0)
(-0.000536738 0.00984767 0)
(-0.00299077 0.0180839 0)
(-0.00670034 0.0204163 0)
(-0.0103071 0.0205237 0)
(-0.0139023 0.0199082 0)
(-0.0174212 0.0189802 0)
(-0.0208632 0.0177993 0)
(-0.0242401 0.0163326 0)
(-0.0275603 0.0145064 0)
(-0.03082 0.0122075 0)
(-0.0339864 0.00927691 0)
(-0.0369719 0.00550436 0)
(-0.0395932 0.000635364 0)
(-0.0415316 -0.00557971 0)
(-0.0422366 -0.013377 0)
(-0.0408806 -0.0226853 0)
(-0.0364402 -0.0327195 0)
(-0.0281029 -0.0410825 0)
(-0.0153327 -0.0422175 0)
(-0.00362194 -0.0257715 0)
(-0.000559611 0.0116082 0)
(-0.00317206 0.0213607 0)
(-0.00712932 0.0241091 0)
(-0.0109585 0.0242452 0)
(-0.0147742 0.0235685 0)
(-0.0185214 0.0225746 0)
(-0.0222221 0.0213461 0)
(-0.0259189 0.0198571 0)
(-0.0296602 0.0180316 0)
(-0.0334932 0.0157407 0)
(-0.0374478 0.0127863 0)
(-0.0415033 0.0088806 0)
(-0.0455312 0.00363362 0)
(-0.0492535 -0.00344203 0)
(-0.0520571 -0.012842 0)
(-0.0528522 -0.0248756 0)
(-0.0500478 -0.038977 0)
(-0.0416642 -0.0523216 0)
(-0.0256334 -0.0570346 0)
(-0.00686703 -0.0371669 0)
(-0.000589722 0.0134773 0)
(-0.0033899 0.0248628 0)
(-0.00762586 0.0280406 0)
(-0.0116853 0.0281913 0)
(-0.0157124 0.0274462 0)
(-0.0196625 0.0263993 0)
(-0.0235842 0.0251647 0)
(-0.0275568 0.0237338 0)
(-0.031679 0.0220421 0)
(-0.0360683 0.0199619 0)
(-0.0408513 0.017274 0)
(-0.0461358 0.0136264 0)
(-0.0519552 0.00848247 0)
(-0.0581704 0.00108073 0)
(-0.0643277 -0.0094868 0)
(-0.0693674 -0.0241927 0)
(-0.0711551 -0.0433081 0)
(-0.065604 -0.0645465 0)
(-0.046595 -0.0780827 0)
(-0.0140853 -0.0571383 0)
(-0.000634352 0.0154823 0)
(-0.00366543 0.0286269 0)
(-0.00821772 0.0322291 0)
(-0.0125082 0.0323568 0)
(-0.0167211 0.0315147 0)
(-0.0208231 0.0304091 0)
(-0.0248913 0.0291949 0)
(-0.0290439 0.0278935 0)
(-0.0334348 0.0264713 0)
(-0.0382655 0.0248308 0)
(-0.0437917 0.0227736 0)
(-0.05032 0.0199364 0)
(-0.0581736 0.0156918 0)
(-0.0676162 0.00904262 0)
(-0.0788085 -0.00142122 0)
(-0.0913954 -0.0174983 0)
(-0.102897 -0.0416261 0)
(-0.104842 -0.0751776 0)
(-0.081922 -0.108791 0)
(-0.0258991 -0.0950258 0)
(-0.000708696 0.01767 0)
(-0.00404004 0.0327076 0)
(-0.00895943 0.0366979 0)
(-0.0134743 0.0367295 0)
(-0.017829 0.0357282 0)
(-0.0220036 0.0345274 0)
(-0.0261037 0.0333317 0)
(-0.0302832 0.0322045 0)
(-0.0347451 0.0311661 0)
(-0.0397716 0.0301912 0)
(-0.0457602 0.0291727 0)
(-0.0532726 0.0278495 0)
(-0.0630813 0.0256862 0)
(-0.076195 0.0217203 0)
(-0.0939117 0.0143391 0)
(-0.117447 0.000322068 0)
(-0.143146 -0.0278977 0)
(-0.152852 -0.0827594 0)
(-0.120275 -0.156543 0)
(-0.0371976 -0.161824 0)
(-0.000842203 0.0201095 0)
(-0.00458623 0.0371412 0)
(-0.00994445 0.0414034 0)
(-0.0146705 0.041214 0)
(-0.0191042 0.0399691 0)
(-0.0232415 0.038619 0)
(-0.0272182 0.0374071 0)
(-0.0312123 0.0364484 0)
(-0.0354511 0.0358395 0)
(-0.0402633 0.03567 0)
(-0.0461496 0.0360083 0)
(-0.0538922 0.0368588 0)
(-0.0647107 0.0380836 0)
(-0.0804742 0.0392256 0)
(-0.104005 0.0387562 0)
(-0.137335 0.0301797 0)
(-0.172433 -0.00487576 0)
(-0.179193 -0.0980289 0)
(-0.137051 -0.228914 0)
(-0.0444536 -0.256538 0)
(-0.00111194 0.0230396 0)
(-0.0054897 0.0423477 0)
(-0.0113581 0.0468172 0)
(-0.0162165 0.0462619 0)
(-0.0206145 0.0445449 0)
(-0.0245869 0.0428112 0)
(-0.0282776 0.041386 0)
(-0.0318533 0.0404487 0)
(-0.0355271 0.0401805 0)
(-0.0396109 0.0408191 0)
(-0.044601 0.0426977 0)
(-0.0513245 0.0462633 0)
(-0.0611476 0.0520757 0)
(-0.0761215 0.0602854 0)
(-0.0992787 0.0685621 0)
(-0.131153 0.0640069 0)
(-0.162847 0.01556 0)
(-0.160317 -0.120149 0)
(-0.129095 -0.298647 0)
(-0.0476332 -0.358728 0)
(-0.0014932 0.026645 0)
(-0.0065485 0.0471653 0)
(-0.0131877 0.0510888 0)
(-0.0183134 0.0496757 0)
(-0.0227319 0.047523 0)
(-0.0264109 0.0456438 0)
(-0.0295768 0.044233 0)
(-0.0324115 0.0434153 0)
(-0.0350691 0.0434091 0)
(-0.0377285 0.0445805 0)
(-0.0406855 0.0475378 0)
(-0.044451 0.0532037 0)
(-0.0499993 0.0628013 0)
(-0.0585055 0.0765368 0)
(-0.0718729 0.0907306 0)
(-0.0887856 0.0859305 0)
(-0.108799 0.0271054 0)
(-0.101886 -0.131197 0)
(-0.10353 -0.338465 0)
(-0.0359092 -0.450584 0)
(-0.00355173 0.0299759 0)
(-0.0108587 0.055872 0)
(-0.0169437 0.0596979 0)
(-0.0213664 0.0578108 0)
(-0.0249108 0.0543423 0)
(-0.0279375 0.0511625 0)
(-0.030513 0.0486304 0)
(-0.0326343 0.0469348 0)
(-0.034253 0.0462985 0)
(-0.0352882 0.0470955 0)
(-0.0356393 0.05004 0)
(-0.0351655 0.0562384 0)
(-0.0341052 0.0673177 0)
(-0.0316419 0.0829919 0)
(-0.0296412 0.0996105 0)
(-0.0238098 0.0941071 0)
(-0.028953 0.0350335 0)
(-0.0211968 -0.122133 0)
(-0.0599244 -0.348115 0)
(-0.0116118 -0.508874 0)
(-0.00120683 0.0440045 0)
(-0.00880873 0.0584103 0)
(-0.0198835 0.0588003 0)
(-0.0247741 0.05427 0)
(-0.0291433 0.051002 0)
(-0.0317836 0.0485769 0)
(-0.033424 0.0467785 0)
(-0.034151 0.0454869 0)
(-0.0339412 0.0448723 0)
(-0.0325608 0.0452225 0)
(-0.0296077 0.047248 0)
(-0.0241588 0.0517363 0)
(-0.0159404 0.0602949 0)
(-0.00167729 0.0724214 0)
(0.0148529 0.0855986 0)
(0.0424217 0.0812966 0)
(0.0481904 0.0311828 0)
(0.056487 -0.0975468 0)
(-0.00891943 -0.327792 0)
(0.0152433 -0.523027 0)
(-0.0123327 0.0330915 0)
(-0.0245051 0.0799377 0)
(-0.0243496 0.0786142 0)
(-0.0309472 0.0734141 0)
(-0.0333008 0.0661506 0)
(-0.0339452 0.0599371 0)
(-0.0328069 0.054754 0)
(-0.0302371 0.0505568 0)
(-0.0263693 0.047339 0)
(-0.0209721 0.04494 0)
(-0.0140847 0.0437833 0)
(-0.0043272 0.0440911 0)
(0.00797831 0.047358 0)
(0.0274702 0.0528379 0)
(0.0484992 0.0605163 0)
(0.0844109 0.0582181 0)
(0.0942201 0.0264215 0)
(0.12462 -0.0631788 0)
(0.0567726 -0.291545 0)
(0.0581591 -0.50816 0)
(-0.0770632 0.0969677 0)
(-0.0627847 0.0596881 0)
(-0.0651192 0.0599875 0)
(-0.0439672 0.0533194 0)
(-0.0269648 0.0464292 0)
(-0.00738063 0.0412644 0)
(0.0110927 0.0375323 0)
(0.0295876 0.0342881 0)
(0.0465413 0.0318723 0)
(0.0644558 0.029529 0)
(0.0797823 0.0280686 0)
(0.0989005 0.026893 0)
(0.112753 0.026749 0)
(0.139394 0.0274713 0)
(0.150887 0.0252022 0)
(0.198955 0.0200501 0)
(0.195911 -0.0137352 0)
(0.242011 -0.0806671 0)
(0.168649 -0.265533 0)
(0.128117 -0.444885 0)
(0.119848 0.140651 0)
(0.152479 0.0861256 0)
(0.229626 0.063572 0)
(0.284915 0.0481766 0)
(0.326284 0.0374988 0)
(0.364628 0.0297468 0)
(0.393218 0.024338 0)
(0.424847 0.0203323 0)
(0.444368 0.0174765 0)
(0.473435 0.0152995 0)
(0.485948 0.0135437 0)
(0.51554 0.0125651 0)
(0.521246 0.011391 0)
(0.554877 0.0111465 0)
(0.550613 0.00974634 0)
(0.587897 0.00616987 0)
(0.560008 -0.00292533 0)
(0.570806 -0.0268469 0)
(0.432502 -0.0726847 0)
(0.277356 -0.152024 0)
)
;

boundaryField
{
    movingWall
    {
        type            fixedValue;
        value           uniform (1 0 0);
    }
    fixedWalls
    {
        type            noSlip;
    }
    frontAndBack
    {
        type            empty;
    }
}


// ************************************************************************* //
