/*--------------------------------*- C++ -*----------------------------------*\
  =========                 |
  \\      /  F ield         | OpenFOAM: The Open Source CFD Toolbox
   \\    /   O peration     | Website:  https://openfoam.org
    \\  /    A nd           | Version:  10
     \\/     M anipulation  |
\*---------------------------------------------------------------------------*/
FoamFile
{
    format      ascii;
    class       surfaceScalarField;
    location    "1.95";
    object      phi;
}
// * * * * * * * * * * * * * * * * * * * * * * * * * * * * * * * * * * * * * //

dimensions      [0 3 -1 0 0 0 0];

internalField   nonuniform List<scalar> 
760
(
-1.41625e-05
1.41625e-05
-3.45223e-05
2.03599e-05
-5.48645e-05
2.03422e-05
-7.39621e-05
1.90976e-05
-9.12976e-05
1.73355e-05
-0.00010645
1.51526e-05
-0.000119043
1.25932e-05
-0.000128745
9.70187e-06
-0.000135273
6.52752e-06
-0.000138397
3.12415e-06
-0.000137949
-4.47753e-07
-0.000133828
-4.1208e-06
-0.000126022
-7.80612e-06
-0.000114616
-1.14061e-05
-9.98083e-05
-1.48077e-05
-8.19243e-05
-1.78841e-05
-6.14298e-05
-2.04945e-05
-3.89993e-05
-2.24305e-05
-1.61768e-05
-2.28225e-05
-1.61768e-05
-2.10267e-05
3.51892e-05
-4.9671e-05
4.90042e-05
-7.81539e-05
4.8825e-05
-0.000104845
4.57891e-05
-0.000129007
4.14971e-05
-0.000150046
3.61914e-05
-0.000167444
2.99911e-05
-0.000180755
2.30128e-05
-0.000189607
1.53797e-05
-0.000193702
7.21964e-06
-0.000192854
-1.29626e-06
-0.000186921
-1.00539e-05
-0.000175915
-1.8812e-05
-0.000159968
-2.73528e-05
-0.000139362
-3.5414e-05
-0.000114547
-4.26992e-05
-8.61646e-05
-4.88767e-05
-5.51423e-05
-5.34528e-05
-2.35e-05
-5.44648e-05
-3.96767e-05
-2.27397e-05
5.79288e-05
-5.36377e-05
7.99023e-05
-8.43119e-05
7.94992e-05
-0.000113032
7.45093e-05
-0.000139019
6.74836e-05
-0.000161646
5.88192e-05
-0.000180371
4.87162e-05
-0.000194727
3.73687e-05
-0.000204326
2.49781e-05
-0.000208865
1.17587e-05
-0.000208101
-2.06027e-06
-0.000201891
-1.62636e-05
-0.000190228
-3.04753e-05
-0.000173218
-4.43631e-05
-0.000151126
-5.75055e-05
-0.000124406
-6.94195e-05
-9.3725e-05
-7.95574e-05
-6.00752e-05
-8.71026e-05
-2.56459e-05
-8.88941e-05
-6.53227e-05
-2.42068e-05
8.21356e-05
-5.7147e-05
0.000112843
-8.98266e-05
0.000112179
-0.000120415
0.000105097
-0.000148097
9.51659e-05
-0.000172227
8.29492e-05
-0.000192247
6.87361e-05
-0.000207679
5.28011e-05
-0.000218123
3.54216e-05
-0.00022325
1.68862e-05
-0.000222812
-2.49833e-06
-0.000216593
-2.24827e-05
-0.00020454
-4.25286e-05
-0.000186707
-6.21959e-05
-0.000163308
-8.09046e-05
-0.000134763
-9.79648e-05
-0.000101746
-0.000112574
-6.53229e-05
-0.000123526
-2.79031e-05
-0.000126314
-9.32258e-05
-2.61869e-05
0.000108322
-6.18584e-05
0.000148514
-9.72225e-05
0.000147543
-0.000130306
0.000138181
-0.000160247
0.000125107
-0.000186377
0.000109078
-0.000208124
9.04837e-05
-0.000225006
6.96825e-05
-0.000236609
4.70249e-05
-0.000242585
2.28628e-05
-0.000242655
-2.42899e-06
-0.000236525
-2.86123e-05
-0.000224064
-5.49892e-05
-0.000205237
-8.10237e-05
-0.000180163
-0.000105978
-0.000149196
-0.000128932
-0.000112998
-0.000148771
-7.27253e-05
-0.000163799
-3.11133e-05
-0.000167926
-0.000124339
-2.88072e-05
0.00013713
-6.80704e-05
0.000187777
-0.000106947
0.00018642
-0.000143275
0.000174509
-0.000176135
0.000157967
-0.000204832
0.000137776
-0.000228795
0.000114446
-0.000247541
8.84289e-05
-0.000260658
6.01414e-05
-0.000267778
2.99828e-05
-0.000268595
-1.61173e-06
-0.000262703
-3.45043e-05
-0.000249867
-6.78254e-05
-0.000229907
-0.000100984
-0.000202792
-0.000133093
-0.000168742
-0.000162982
-0.000128364
-0.000189149
-8.29098e-05
-0.000209253
-3.55634e-05
-0.000215272
-0.000159902
-3.21529e-05
0.000169283
-7.59801e-05
0.000231604
-0.000119287
0.000229727
-0.000159667
0.000214889
-0.000196135
0.000194435
-0.000227983
0.000169624
-0.000254653
0.000141116
-0.000275688
0.000109464
-0.000290693
7.51469e-05
-0.000299291
3.85809e-05
-0.000301183
2.79464e-07
-0.000295783
-3.99036e-05
-0.00028274
-8.08688e-05
-0.000261651
-0.000122073
-0.000232238
-0.000162506
-0.000194482
-0.000200738
-0.000148837
-0.000234794
-9.662e-05
-0.000261469
-4.16116e-05
-0.000270281
-0.000201514
-3.63394e-05
0.000205622
-8.58472e-05
0.000281112
-0.000134607
0.000278486
-0.000179908
0.00026019
-0.000220697
0.000235224
-0.000256271
0.000205199
-0.000286121
0.000170965
-0.000309857
0.0001332
-0.000327145
9.24343e-05
-0.000337642
4.90778e-05
-0.000340934
3.57143e-06
-0.000336476
-4.43609e-05
-0.00032361
-9.37351e-05
-0.000301633
-0.00014405
-0.000269882
-0.000194257
-0.000227922
-0.000242698
-0.000175867
-0.00028685
-0.000114986
-0.00032235
-4.98301e-05
-0.000335437
-0.000251344
-4.15373e-05
0.000247159
-9.80426e-05
0.000337617
-0.000153416
0.00033386
-0.000204573
0.000311347
-0.000250398
0.000281048
-0.000290236
0.000245037
-0.000323684
0.000204413
-0.000350483
0.000159999
-0.000370418
0.000112369
-0.000383223
6.18826e-05
-0.000388475
8.82399e-06
-0.000385565
-4.72713e-05
-0.00037355
-0.00010575
-0.000351304
-0.000166296
-0.000317563
-0.000227998
-0.000271191
-0.000289071
-0.00021162
-0.00034642
-0.000139782
-0.000394188
-6.11786e-05
-0.00041404
-0.000312523
-4.80049e-05
0.000295164
-0.000113106
0.000402719
-0.000176433
0.000397186
-0.000234441
0.000369356
-0.000285989
0.000332596
-0.000330538
0.000289586
-0.000367884
0.00024176
-0.000397999
0.000190114
-0.000420881
0.000135251
-0.000436423
7.74252e-05
-0.000444282
1.66824e-05
-0.000443788
-4.77648e-05
-0.000433712
-0.000115826
-0.000412386
-0.000187622
-0.000377682
-0.000262703
-0.000327294
-0.000339458
-0.000259383
-0.000414332
-0.000173877
-0.000479694
-7.73539e-05
-0.000510563
-0.000389877
-5.61488e-05
0.000351313
-0.000131844
0.000478414
-0.000204684
0.000470027
-0.000270585
0.000435257
-0.00032845
0.00039046
-0.000377981
0.000339117
-0.000419317
0.000283095
-0.0004528
0.000223597
-0.000478781
0.000161232
-0.000497441
9.60854e-05
-0.000508619
2.78602e-05
-0.0005117
-4.46839e-05
-0.000505188
-0.000122337
-0.000486805
-0.000206005
-0.00045327
-0.000296239
-0.000400467
-0.00039226
-0.000324218
-0.000490581
-0.000222073
-0.000581839
-0.00010155
-0.000631086
-0.000491427
-6.66358e-05
0.000417949
-0.000155489
0.000567268
-0.000239675
0.000554213
-0.000314501
0.000510082
-0.000379083
0.000455043
-0.000433563
0.000393597
-0.000478626
0.000328158
-0.000515189
0.00026016
-0.000544144
0.000190188
-0.000566135
0.000118076
-0.000581355
4.30796e-05
-0.00058943
-3.66087e-05
-0.000588746
-0.000123021
-0.000576467
-0.000218284
-0.000547955
-0.00032475
-0.000496551
-0.000443665
-0.000414037
-0.000573095
-0.000292726
-0.00070315
-0.000140229
-0.000783583
-0.000631655
-8.06189e-05
0.000498568
-0.000185978
0.000672627
-0.000283637
0.000651872
-0.0003683
0.000594745
-0.000439633
0.000526376
-0.00049852
0.000452483
-0.000546493
0.000376131
-0.000585315
0.000298982
-0.00061666
0.000221533
-0.000641857
0.000143274
-0.000661685
6.29077e-05
-0.000676317
-2.19771e-05
-0.000684362
-0.000114976
-0.00068277
-0.000219876
-0.000665655
-0.000341866
-0.000623244
-0.000486076
-0.000541243
-0.000655096
-0.00040097
-0.000843423
-0.000207689
-0.000976864
-0.000839344
-0.000100253
0.000598821
-0.000226539
0.000798913
-0.000339959
0.000765291
-0.000434985
0.000689771
-0.000512449
0.000603841
-0.000574395
0.000514429
-0.000623632
0.000425368
-0.000663103
0.000338453
-0.000695543
0.000253972
-0.000723238
0.000170969
-0.000747811
8.74809e-05
-0.000770359
5.70367e-07
-0.000790424
-9.49102e-05
-0.000805581
-0.000204719
-0.000809599
-0.000337848
-0.000789847
-0.000505828
-0.000724666
-0.000720277
-0.00057463
-0.00099346
-0.000336073
-0.00121542
-0.00117542
-0.000127713
0.000726534
-0.000281094
0.000952295
-0.000413211
0.000897407
-0.000518671
0.00079523
-0.000600625
0.000685795
-0.000663069
0.000576873
-0.000710742
0.000473041
-0.000748168
0.000375879
-0.000779398
0.000285202
-0.000807916
0.000199487
-0.000836493
0.000116058
-0.000867567
3.16447e-05
-0.000902581
-5.98955e-05
-0.000941291
-0.00016601
-0.000979745
-0.000299394
-0.00100417
-0.000481406
-0.000989123
-0.000735321
-0.000856736
-0.00112585
-0.000582475
-0.00148968
-0.00175789
-0.000185349
0.000911883
-0.000365677
0.00113262
-0.000513348
0.00104508
-0.00062564
0.000907522
-0.000708163
0.000768318
-0.000766597
0.000635307
-0.0008081
0.000514544
-0.00083921
0.000406989
-0.000865555
0.000311547
-0.000891897
0.000225829
-0.000922658
0.000146819
-0.000961251
7.0237e-05
-0.00101121
-9.94121e-06
-0.00107861
-9.86016e-05
-0.00116511
-0.000212893
-0.00126032
-0.0003862
-0.00134871
-0.000646928
-0.0012948
-0.00117976
-0.00101397
-0.00177051
-0.00277186
-0.000204423
0.00111631
-0.00045357
0.00138177
-0.000638516
0.00123002
-0.000761514
0.00103052
-0.000838859
0.000845663
-0.000883774
0.000680222
-0.000909684
0.000540454
-0.000926253
0.000423559
-0.000940534
0.000325828
-0.000957708
0.000243003
-0.000982301
0.000171413
-0.00101973
0.000107661
-0.00107951
4.98446e-05
-0.00117018
-7.93211e-06
-0.00131102
-7.20537e-05
-0.00149318
-0.000204038
-0.00174529
-0.000394818
-0.00180893
-0.00111612
-0.001481
-0.00209845
-0.00425286
-0.00050688
0.00162319
-0.000699368
0.00157426
-0.000830655
0.00136131
-0.000910661
0.00111053
-0.000937939
0.000872941
-0.000935106
0.000677389
-0.000918577
0.000523925
-0.00089827
0.000403251
-0.000881375
0.000308933
-0.000873493
0.000235121
-0.00088058
0.0001785
-0.000907568
0.000134649
-0.000964662
0.000106938
-0.00105732
8.47227e-05
-0.00121338
8.40098e-05
-0.00140874
-8.67426e-06
-0.00164634
-0.00015722
-0.00173225
-0.00103021
-0.00124156
-0.00258913
-0.00549442
-0.00116719
0.00279037
-0.00107415
0.00148122
-0.000856779
0.00114394
-0.000596366
0.000850113
-0.000340891
0.000617466
-0.000113896
0.000450395
7.61749e-05
0.000333854
0.000228274
0.000251152
0.000346297
0.00019091
0.00043563
0.000145788
0.000500407
0.000113723
0.000547048
8.80088e-05
0.000581009
7.29769e-05
0.000604232
6.14998e-05
0.000649823
3.84186e-05
0.000637831
3.31767e-06
0.00073259
-0.000251979
0.000573093
-0.000870714
0.00048525
-0.00250129
-0.00500917
0.00279037
0.00427159
0.00541553
0.00626565
0.00688311
0.00733351
0.00766736
0.00791851
0.00810942
0.00825521
0.00836893
0.00845694
0.00852992
0.00859142
0.00862984
0.00863316
0.00838118
0.00751046
0.00500917
)
;

boundaryField
{
    movingWall
    {
        type            calculated;
        value           uniform 0;
    }
    fixedWalls
    {
        type            calculated;
        value           uniform 0;
    }
    frontAndBack
    {
        type            empty;
        value           nonuniform List<scalar> 0();
    }
}


// ************************************************************************* //
