/*--------------------------------*- C++ -*----------------------------------*\
  =========                 |
  \\      /  F ield         | OpenFOAM: The Open Source CFD Toolbox
   \\    /   O peration     | Website:  https://openfoam.org
    \\  /    A nd           | Version:  10
     \\/     M anipulation  |
\*---------------------------------------------------------------------------*/
FoamFile
{
    format      ascii;
    class       surfaceScalarField;
    location    "2";
    object      phi;
}
// * * * * * * * * * * * * * * * * * * * * * * * * * * * * * * * * * * * * * //

dimensions      [0 3 -1 0 0 0 0];

internalField   nonuniform List<scalar> 
760
(
-1.40981e-05
1.40981e-05
-3.45719e-05
2.04738e-05
-5.50746e-05
2.05026e-05
-7.434e-05
1.92655e-05
-9.18433e-05
1.75033e-05
-0.00010716
1.53165e-05
-0.000119908
1.27486e-05
-0.000129752
9.84305e-06
-0.000136399
6.64769e-06
-0.000139615
3.21595e-06
-0.000139223
-3.92002e-07
-0.000135114
-4.10881e-06
-0.00012727
-7.8441e-06
-0.000115772
-1.14984e-05
-0.000100816
-1.4956e-05
-8.27295e-05
-1.80864e-05
-6.19856e-05
-2.07439e-05
-3.92763e-05
-2.27093e-05
-1.62062e-05
-2.30701e-05
-1.62062e-05
-2.11392e-05
3.52373e-05
-5.01499e-05
4.94845e-05
-7.90526e-05
4.94054e-05
-0.000106159
4.63717e-05
-0.000130714
4.20585e-05
-0.000152115
3.67178e-05
-0.000169835
3.0468e-05
-0.000183416
2.34239e-05
-0.000192476
1.57078e-05
-0.000196706
7.4465e-06
-0.000195912
-1.18668e-06
-0.000189939
-1.00809e-05
-0.000178796
-1.89876e-05
-0.00016261
-2.76848e-05
-0.000141662
-3.59035e-05
-0.00011641
-4.33381e-05
-8.75097e-05
-4.96446e-05
-5.59162e-05
-5.43028e-05
-2.37358e-05
-5.52505e-05
-3.9942e-05
-2.28976e-05
5.81349e-05
-5.42323e-05
8.08192e-05
-8.5398e-05
8.0571e-05
-0.000114601
7.55746e-05
-0.000141044
6.85017e-05
-0.000164091
5.97649e-05
-0.000183187
4.95639e-05
-0.000197854
3.80908e-05
-0.000207692
2.55455e-05
-0.000212387
1.21419e-05
-0.000211685
-1.88814e-06
-0.000205432
-1.63346e-05
-0.000193611
-3.08079e-05
-0.000176327
-4.49697e-05
-0.000153842
-5.83876e-05
-0.000126617
-7.05633e-05
-9.53337e-05
-8.09281e-05
-6.10154e-05
-8.86211e-05
-2.59479e-05
-9.0318e-05
-6.58899e-05
-2.43691e-05
8.2504e-05
-5.77694e-05
0.00011422
-9.09681e-05
0.00011377
-0.000122068
0.000106674
-0.000150237
9.66707e-05
-0.000174817
8.43453e-05
-0.00019524
6.99863e-05
-0.000211015
5.38657e-05
-0.000221728
3.62587e-05
-0.000227039
1.74533e-05
-0.000226688
-2.23888e-06
-0.000220443
-2.25802e-05
-0.00020824
-4.30105e-05
-0.000190128
-6.30819e-05
-0.000166316
-8.21998e-05
-0.000137227
-9.96522e-05
-0.000103551
-0.000114604
-6.6385e-05
-0.000125787
-2.82488e-05
-0.000128454
-9.41387e-05
-2.63476e-05
0.000108852
-6.25004e-05
0.000150372
-9.84114e-05
0.000149681
-0.000132038
0.000140301
-0.0001625
0.000127133
-0.000189117
0.000110962
-0.000211307
9.21766e-05
-0.000228573
7.11314e-05
-0.000240488
4.8174e-05
-0.00024669
2.36546e-05
-0.000246883
-2.04511e-06
-0.000240758
-2.87058e-05
-0.000228167
-5.56012e-05
-0.000209062
-8.21866e-05
-0.000183557
-0.000107705
-0.000152001
-0.000131208
-0.000115069
-0.000151536
-7.39559e-05
-0.0001669
-3.15204e-05
-0.00017089
-0.000125659
-2.89647e-05
0.000137816
-6.8735e-05
0.000190143
-0.000108194
0.00018914
-0.000145104
0.000177211
-0.000178529
0.000160558
-0.000207763
0.000140197
-0.000232221
0.000116634
-0.000251408
9.03178e-05
-0.000264893
6.16599e-05
-0.000272295
3.10562e-05
-0.000273287
-1.05279e-06
-0.000267446
-3.45475e-05
-0.000254512
-6.85347e-05
-0.000234286
-0.000102412
-0.000206721
-0.000135271
-0.000172027
-0.000165902
-0.000130817
-0.000192746
-8.43854e-05
-0.000213332
-3.60626e-05
-0.000219213
-0.000161722
-3.23042e-05
0.00017012
-7.66687e-05
0.000234507
-0.000120599
0.00023307
-0.000161611
0.000218222
-0.0001987
0.000197647
-0.000231146
0.000172643
-0.000258377
0.000143866
-0.000279923
0.000111864
-0.000295373
7.71093e-05
-0.000304331
4.00142e-05
-0.00030646
1.07674e-06
-0.000301181
-3.98267e-05
-0.000288093
-8.16228e-05
-0.000266765
-0.00012374
-0.000236891
-0.000165145
-0.00019843
-0.000204364
-0.000151829
-0.000239346
-9.84485e-05
-0.000266712
-4.22482e-05
-0.000275413
-0.00020397
-3.6479e-05
0.000206599
-8.65567e-05
0.000284585
-0.000135989
0.000282502
-0.000181979
0.000264213
-0.000223454
0.000239122
-0.000259701
0.000208889
-0.000290194
0.000174359
-0.00031453
0.000136199
-0.000332353
9.49331e-05
-0.000343303
5.09638e-05
-0.000346938
4.71225e-06
-0.000342692
-4.40735e-05
-0.000329861
-9.44531e-05
-0.000307702
-0.0001459
-0.0002755
-0.000197347
-0.000232775
-0.000247088
-0.000179616
-0.000292506
-0.000117324
-0.000329003
-5.06744e-05
-0.000342063
-0.000254644
-4.16553e-05
0.000248255
-9.87628e-05
0.000341692
-0.000154862
0.000338601
-0.000206773
0.000316124
-0.000253362
0.000285711
-0.000293961
0.000249489
-0.000328151
0.000208549
-0.000355655
0.000163704
-0.00037624
0.000115518
-0.000389617
6.43409e-05
-0.000395344
1.04393e-05
-0.000392773
-4.66452e-05
-0.000380917
-0.000106309
-0.00035859
-0.000168227
-0.000324451
-0.000231486
-0.000277279
-0.00029426
-0.00021644
-0.000353345
-0.00014287
-0.000402574
-6.2348e-05
-0.000422585
-0.000316992
-4.80854e-05
0.00029634
-0.000113817
0.000407424
-0.000177923
0.000402707
-0.00023676
0.00037496
-0.000289162
0.000338114
-0.000334577
0.000294903
-0.000372781
0.000246754
-0.000403728
0.00019465
-0.000427396
0.000139186
-0.000443659
8.06041e-05
-0.00045215
1.89309e-05
-0.000452171
-4.66249e-05
-0.000442435
-0.000116044
-0.000421202
-0.00018946
-0.000386232
-0.000266457
-0.000335074
-0.000345418
-0.000265742
-0.000422676
-0.000178098
-0.000490218
-7.90595e-05
-0.000521623
-0.000396052
-5.61664e-05
0.000352507
-0.00013251
0.000483768
-0.000206186
0.000476382
-0.000272996
0.000441771
-0.000331821
0.000396938
-0.000382342
0.000345424
-0.000424671
0.000289083
-0.000459132
0.000229111
-0.000486056
0.000166111
-0.000505611
0.000100158
-0.000517616
3.09359e-05
-0.000521436
-4.28044e-05
-0.000515523
-0.000121958
-0.000497512
-0.000207471
-0.000463976
-0.000299993
-0.000410573
-0.000398821
-0.000332832
-0.000500418
-0.000228073
-0.000594976
-0.000104201
-0.000645496
-0.000500253
-6.65497e-05
0.000419056
-0.000156053
0.000573271
-0.000241126
0.000561456
-0.000316955
0.000517599
-0.000382622
0.000462606
-0.000438237
0.000401038
-0.000484452
0.000335298
-0.000522159
0.000266818
-0.000552233
0.000196185
-0.000575312
0.000123237
-0.000591583
4.72072e-05
-0.000600674
-3.37136e-05
-0.000600935
-0.000121697
-0.000589454
-0.000218951
-0.000561421
-0.000328027
-0.000509853
-0.000450388
-0.000426024
-0.000584246
-0.000301652
-0.000719349
-0.000144684
-0.000802463
-0.000644937
-8.03628e-05
0.000499419
-0.000186344
0.000679252
-0.000284937
0.000660049
-0.000370713
0.000603375
-0.000443287
0.00053518
-0.000503487
0.000461238
-0.000552798
0.000384609
-0.000592948
0.000306968
-0.000625598
0.000228835
-0.000652084
0.000149723
-0.000673203
6.83267e-05
-0.000689159
-1.77575e-05
-0.000698583
-0.000112274
-0.0006984
-0.000219134
-0.000682563
-0.000343864
-0.000640905
-0.000492046
-0.000558344
-0.000666807
-0.000414956
-0.000862738
-0.000215957
-0.00100146
-0.000860894
-9.97164e-05
0.000599136
-0.000226558
0.000806094
-0.000340949
0.00077444
-0.000437228
0.000699653
-0.000516136
0.000614088
-0.000579623
0.000524726
-0.000630419
0.000435406
-0.00067142
0.000347969
-0.000705349
0.000262764
-0.000734518
0.000178892
-0.000760611
9.44194e-05
-0.000784763
6.3947e-06
-0.000806692
-9.0345e-05
-0.000824059
-0.000201767
-0.000830589
-0.000337334
-0.000813304
-0.000509331
-0.000749507
-0.000730604
-0.000597639
-0.00101461
-0.000352332
-0.00124677
-0.00121323
-0.000126622
0.000725758
-0.000280448
0.00095992
-0.000413615
0.000907608
-0.000520539
0.000806578
-0.000604231
0.000697779
-0.000668528
0.000589022
-0.000718035
0.000484913
-0.000757205
0.000387138
-0.000790081
0.000295641
-0.000820201
0.000209012
-0.000850433
0.000124651
-0.000883328
3.92893e-05
-0.000920613
-5.30594e-05
-0.000962416
-0.000159964
-0.00100505
-0.000294699
-0.00103473
-0.000479656
-0.00102523
-0.000740099
-0.000894937
-0.0011449
-0.000614385
-0.00152732
-0.00182761
-0.000183781
0.000909539
-0.000364279
0.00114042
-0.000512851
0.00105618
-0.000626816
0.000920543
-0.000711515
0.000782478
-0.000772268
0.000649775
-0.000815959
0.000528605
-0.000849021
0.0004202
-0.0008771
0.00032372
-0.00090506
0.000236972
-0.000937526
0.000157117
-0.000978325
8.0089e-05
-0.00103017
-1.20985e-06
-0.00110135
-8.8787e-05
-0.00119372
-0.000202334
-0.00129769
-0.000375683
-0.00139764
-0.000640149
-0.00135317
-0.00118937
-0.00106477
-0.00181571
-0.00289239
-0.000199904
0.00110944
-0.000449691
0.0013902
-0.000636054
0.00124254
-0.000761773
0.00104626
-0.000842155
0.00086286
-0.000889857
0.000697476
-0.000918105
0.000556853
-0.000936549
0.000438644
-0.000952299
0.00033947
-0.000970607
0.00025528
-0.000996114
0.000182624
-0.0010342
0.00011818
-0.00109571
6.02999e-05
-0.00119007
5.57085e-06
-0.00133678
-5.56234e-05
-0.00153094
-0.000181521
-0.00179772
-0.000373374
-0.00187181
-0.00111528
-0.00152358
-0.00216395
-0.00441596
-0.000500567
0.00161001
-0.000692758
0.00158239
-0.000825618
0.0013754
-0.000908852
0.0011295
-0.000939289
0.000893297
-0.000938911
0.000697099
-0.000924011
0.000541952
-0.000904623
0.000419256
-0.000888059
0.000322906
-0.000880055
0.000247276
-0.00088687
0.00018944
-0.000913566
0.000144875
-0.000971172
0.000117906
-0.00106337
9.77718e-05
-0.00122077
0.000101769
-0.00141688
1.45948e-05
-0.00165433
-0.000135922
-0.00173999
-0.00102963
-0.00122952
-0.00267442
-0.00564548
-0.0011754
0.00278541
-0.0010816
0.00148859
-0.000861983
0.00115579
-0.000597035
0.000864547
-0.000336626
0.000632889
-0.000104312
0.000464784
9.12669e-05
0.000346374
0.00024884
0.000261683
0.000371981
0.000199765
0.000466107
0.00015315
0.000535365
0.000120181
0.00058658
9.36613e-05
0.00062597
7.85156e-05
0.000655727
6.80149e-05
0.000710928
4.65676e-05
0.00071289
1.26333e-05
0.000819795
-0.000242827
0.000670003
-0.000879836
0.000552019
-0.00255643
-0.00509346
0.00278541
0.004274
0.00542979
0.00629434
0.00692723
0.00739201
0.00773839
0.00800007
0.00819983
0.00835298
0.00847316
0.00856682
0.00864534
0.00871336
0.00875992
0.00877256
0.00852973
0.00764989
0.00509346
)
;

boundaryField
{
    movingWall
    {
        type            calculated;
        value           uniform 0;
    }
    fixedWalls
    {
        type            calculated;
        value           uniform 0;
    }
    frontAndBack
    {
        type            empty;
        value           nonuniform List<scalar> 0();
    }
}


// ************************************************************************* //
