/*--------------------------------*- C++ -*----------------------------------*\
  =========                 |
  \\      /  F ield         | OpenFOAM: The Open Source CFD Toolbox
   \\    /   O peration     | Website:  https://openfoam.org
    \\  /    A nd           | Version:  10
     \\/     M anipulation  |
\*---------------------------------------------------------------------------*/
FoamFile
{
    format      ascii;
    class       volVectorField;
    location    "2";
    object      U;
}
// * * * * * * * * * * * * * * * * * * * * * * * * * * * * * * * * * * * * * //

dimensions      [0 1 -1 0 0 0 0];

internalField   nonuniform List<vector> 
400
(
(-0.000294031 0.000291229 0)
(-0.00116535 0.000437857 0)
(-0.00225442 0.000439961 0)
(-0.00324891 0.000414053 0)
(-0.00417113 0.000377068 0)
(-0.00499484 0.000331042 0)
(-0.00569912 0.000276757 0)
(-0.00626612 0.000215025 0)
(-0.00668014 0.000146786 0)
(-0.006928 7.31468e-05 0)
(-0.00699936 -4.46988e-06 0)
(-0.00688703 -8.4964e-05 0)
(-0.00658771 -0.000166172 0)
(-0.0061029 -0.000245869 0)
(-0.00543944 -0.000321469 0)
(-0.00461021 -0.000390068 0)
(-0.00363573 -0.000448435 0)
(-0.00254865 -0.00049175 0)
(-0.0013342 -0.00049914 0)
(-0.00034312 -0.000341174 0)
(-0.000455821 0.00116792 0)
(-0.00171917 0.00166842 0)
(-0.00324936 0.00166863 0)
(-0.00465152 0.0015673 0)
(-0.00594785 0.00142296 0)
(-0.00710163 0.00124394 0)
(-0.0080836 0.00103398 0)
(-0.00886932 0.00079678 0)
(-0.00943782 0.000536359 0)
(-0.00977179 0.000257121 0)
(-0.00985865 -3.62457e-05 0)
(-0.00968958 -0.000337785 0)
(-0.00926078 -0.000640348 0)
(-0.00857554 -0.000936011 0)
(-0.00764396 -0.00121548 0)
(-0.00648417 -0.00146828 0)
(-0.00512476 -0.00168269 0)
(-0.00360973 -0.00184103 0)
(-0.00192658 -0.00187131 0)
(-0.000516431 -0.0013333 0)
(-0.000494327 0.00232505 0)
(-0.00186091 0.00324347 0)
(-0.00351228 0.00323559 0)
(-0.00502345 0.00303598 0)
(-0.00641977 0.00275266 0)
(-0.00766222 0.00240217 0)
(-0.00871998 0.00199241 0)
(-0.0095674 0.00153104 0)
(-0.0101826 0.00102612 0)
(-0.0105478 0.000486252 0)
(-0.0106487 -7.93142e-05 0)
(-0.0104751 -0.000659647 0)
(-0.0100224 -0.00124162 0)
(-0.00929292 -0.00181017 0)
(-0.00829545 -0.0023478 0)
(-0.0070477 -0.00283455 0)
(-0.00557895 -0.00324787 0)
(-0.00393613 -0.00355365 0)
(-0.00210479 -0.00361852 0)
(-0.00056539 -0.00263146 0)
(-0.00052542 0.00350291 0)
(-0.00198141 0.00485648 0)
(-0.0037419 0.00483929 0)
(-0.00535121 0.00453863 0)
(-0.00683828 0.00411372 0)
(-0.00816234 0.00358933 0)
(-0.00929164 0.00297752 0)
(-0.0102 0.00228983 0)
(-0.0108648 0.00153812 0)
(-0.0112674 0.000734843 0)
(-0.0113928 -0.000106331 0)
(-0.0112285 -0.000970895 0)
(-0.0107669 -0.00184014 0)
(-0.0100076 -0.00269213 0)
(-0.00895662 -0.00350099 0)
(-0.00762919 -0.00423668 0)
(-0.00605375 -0.00486451 0)
(-0.0042799 -0.00533198 0)
(-0.00229159 -0.00543943 0)
(-0.000615609 -0.00397993 0)
(-0.000567537 0.00476509 0)
(-0.00214298 0.00658715 0)
(-0.00404882 0.00655914 0)
(-0.00578902 0.00614971 0)
(-0.00739678 0.00557342 0)
(-0.0088292 0.00486416 0)
(-0.0100536 0.00403867 0)
(-0.0110433 0.00311252 0)
(-0.0117755 0.00210123 0)
(-0.0122306 0.00102061 0)
(-0.0123922 -0.0001125 0)
(-0.0122451 -0.00127991 0)
(-0.0117775 -0.00245826 0)
(-0.0109845 -0.00361945 0)
(-0.00986708 -0.00472902 0)
(-0.00843602 -0.00574565 0)
(-0.00671726 -0.00662007 0)
(-0.00476327 -0.00727697 0)
(-0.00255637 -0.00744056 0)
(-0.000687604 -0.00546454 0)
(-0.000623473 0.00614237 0)
(-0.00235642 0.00847736 0)
(-0.00445285 0.00843597 0)
(-0.00636374 0.00790673 0)
(-0.00812787 0.0071653 0)
(-0.00969979 0.00625618 0)
(-0.0110461 0.00520146 0)
(-0.0121404 0.00402106 0)
(-0.0129598 0.00273392 0)
(-0.0134842 0.00135854 0)
(-0.0136963 -8.59762e-05 0)
(-0.0135771 -0.00157971 0)
(-0.0131091 -0.00309567 0)
(-0.0122807 -0.00460072 0)
(-0.0110851 -0.00605195 0)
(-0.00952497 -0.00739545 0)
(-0.0076208 -0.00856391 0)
(-0.00542694 -0.00945256 0)
(-0.00292309 -0.00969451 0)
(-0.000788236 -0.00714295 0)
(-0.000695008 0.00766765 0)
(-0.00262859 0.0105717 0)
(-0.00496639 0.0105124 0)
(-0.00709139 0.00984795 0)
(-0.00904975 0.00892277 0)
(-0.0107934 0.00779409 0)
(-0.012289 0.00649055 0)
(-0.0135111 0.00503684 0)
(-0.0144383 0.00345501 0)
(-0.0150507 0.00176506 0)
(-0.0153307 -1.37087e-05 0)
(-0.015255 -0.00185946 0)
(-0.0147987 -0.00374655 0)
(-0.013941 -0.00563845 0)
(-0.0126623 -0.00748481 0)
(-0.0109522 -0.00921796 0)
(-0.00881966 -0.0107483 0)
(-0.0063178 -0.0119319 0)
(-0.003421 -0.0122882 0)
(-0.000926363 -0.0090857 0)
(-0.000784622 0.00937947 0)
(-0.00296864 0.0129221 0)
(-0.00560551 0.0128372 0)
(-0.00799204 0.0120158 0)
(-0.0101845 0.0108817 0)
(-0.0121322 0.00950785 0)
(-0.0138035 0.0079312 0)
(-0.0151761 0.00618191 0)
(-0.0162317 0.00428481 0)
(-0.016953 0.00226004 0)
(-0.0173208 0.000124854 0)
(-0.01731 -0.00210109 0)
(-0.0168881 -0.00439667 0)
(-0.016019 -0.00672619 0)
(-0.014665 -0.00903503 0)
(-0.0127938 -0.011242 0)
(-0.0103929 -0.0132304 0)
(-0.00750586 -0.0148039 0)
(-0.00409612 -0.0153335 0)
(-0.00111674 -0.0113875 0)
(-0.000896107 0.0113232 0)
(-0.00338993 0.015589 0)
(-0.00639281 0.015465 0)
(-0.00909316 0.014456 0)
(-0.0115609 0.0130787 0)
(-0.0137442 0.0114265 0)
(-0.015615 0.00954703 0)
(-0.0171576 0.00747702 0)
(-0.0183603 0.00524367 0)
(-0.0192107 0.00286552 0)
(-0.0196918 0.000355 0)
(-0.0197766 -0.00227749 0)
(-0.0194239 -0.005019 0)
(-0.0185794 -0.00784202 0)
(-0.0171787 -0.0106945 0)
(-0.0151545 -0.0134858 0)
(-0.0124558 -0.0160682 0)
(-0.00909865 -0.0181757 0)
(-0.00502399 -0.0189771 0)
(-0.00138543 -0.0141807 0)
(-0.00103549 0.0135541 0)
(-0.0039124 0.0186443 0)
(-0.00736079 0.0184583 0)
(-0.0104328 0.0172174 0)
(-0.0132177 0.0155502 0)
(-0.0156643 0.0135763 0)
(-0.0177532 0.0113577 0)
(-0.0194796 0.00893922 0)
(-0.0208433 0.0063499 0)
(-0.0218418 0.00360427 0)
(-0.0224639 0.000705357 0)
(-0.022684 -0.00235056 0)
(-0.0224527 -0.00556869 0)
(-0.0216947 -0.00894034 0)
(-0.0203095 -0.0124286 0)
(-0.0181764 -0.0159444 0)
(-0.0151778 -0.0193117 0)
(-0.0112648 -0.0221756 0)
(-0.00633419 -0.0234155 0)
(-0.00178158 -0.017663 0)
(-0.00121283 0.016143 0)
(-0.00456683 0.0221764 0)
(-0.00855699 0.0218895 0)
(-0.0120645 0.0203523 0)
(-0.0152064 0.01833 0)
(-0.0179372 0.0159772 0)
(-0.0202524 0.0133751 0)
(-0.0221657 0.0105781 0)
(-0.0236955 0.00761669 0)
(-0.0248555 0.00449849 0)
(-0.0256468 0.00121204 0)
(-0.0260508 -0.00226804 0)
(-0.0260138 -0.00597668 0)
(-0.0254394 -0.0099403 0)
(-0.0241837 -0.0141584 0)
(-0.0220494 -0.0185677 0)
(-0.0188096 -0.0229825 0)
(-0.0142747 -0.0269499 0)
(-0.00826073 -0.028916 0)
(-0.0024043 -0.0221502 0)
(-0.00144587 0.019186 0)
(-0.00540235 0.0262969 0)
(-0.0100524 0.0258436 0)
(-0.0140649 0.0239143 0)
(-0.0175976 0.0214458 0)
(-0.0206199 0.0186381 0)
(-0.0231528 0.0155973 0)
(-0.0252384 0.0123899 0)
(-0.0269233 0.00904666 0)
(-0.0282468 0.00556511 0)
(-0.0292307 0.00191369 0)
(-0.0298731 -0.00196332 0)
(-0.0301252 -0.00614379 0)
(-0.0298766 -0.0107113 0)
(-0.0289382 -0.015735 0)
(-0.0270164 -0.0212228 0)
(-0.0237209 -0.0270292 0)
(-0.0185721 -0.0326427 0)
(-0.0112504 -0.03584 0)
(-0.00346748 -0.0281844 0)
(-0.00176813 0.0228252 0)
(-0.00650068 0.0311549 0)
(-0.0119545 0.0304219 0)
(-0.0165446 0.0279559 0)
(-0.020488 0.0249126 0)
(-0.0237866 0.0215481 0)
(-0.0265012 0.0180003 0)
(-0.0287169 0.0143489 0)
(-0.0305207 0.0106236 0)
(-0.031989 0.00680813 0)
(-0.0331757 0.00284516 0)
(-0.0341088 -0.0013592 0)
(-0.0347622 -0.00593709 0)
(-0.0350312 -0.011056 0)
(-0.034697 -0.016902 0)
(-0.0333658 -0.0236294 0)
(-0.0304459 -0.0312421 0)
(-0.0248991 -0.0393248 0)
(-0.0161972 -0.0446359 0)
(-0.00545551 -0.0367838 0)
(-0.00224736 0.0271919 0)
(-0.00800878 0.0369044 0)
(-0.0144329 0.0357272 0)
(-0.0196665 0.0325173 0)
(-0.0240114 0.0287215 0)
(-0.0275334 0.0246656 0)
(-0.0303527 0.0205269 0)
(-0.0326156 0.0163971 0)
(-0.0344646 0.0123014 0)
(-0.0360257 0.00820649 0)
(-0.0373985 0.00402615 0)
(-0.0386558 -0.000376554 0)
(-0.0398226 -0.00519502 0)
(-0.0408421 -0.0107023 0)
(-0.0415141 -0.0172552 0)
(-0.0413889 -0.0252688 0)
(-0.0397135 -0.0350919 0)
(-0.0344759 -0.0467817 0)
(-0.0249411 -0.0556066 0)
(-0.00953562 -0.0500614 0)
(-0.00295325 0.033189 0)
(-0.0100757 0.0439872 0)
(-0.0177053 0.0419489 0)
(-0.0236525 0.0376285 0)
(-0.0283463 0.0328277 0)
(-0.0319826 0.0279049 0)
(-0.0347699 0.0230736 0)
(-0.0369415 0.0184316 0)
(-0.0387095 0.013992 0)
(-0.0402613 0.00969898 0)
(-0.0417548 0.00543567 0)
(-0.0433246 0.00101654 0)
(-0.0450812 -0.00381017 0)
(-0.0470825 -0.00937495 0)
(-0.0492538 -0.0162744 0)
(-0.0512329 -0.0253174 0)
(-0.0523323 -0.0374032 0)
(-0.0490248 -0.0540193 0)
(-0.0410284 -0.0683302 0)
(-0.0183564 -0.0719796 0)
(-0.00475003 0.0384683 0)
(-0.0139797 0.0520946 0)
(-0.0223656 0.0490447 0)
(-0.028898 0.0433355 0)
(-0.0337376 0.0371927 0)
(-0.0372806 0.0311339 0)
(-0.039809 0.0254702 0)
(-0.0416687 0.0202843 0)
(-0.0431561 0.0155524 0)
(-0.0445276 0.0111837 0)
(-0.0460121 0.00704984 0)
(-0.0478162 0.00297848 0)
(-0.050108 -0.00127746 0)
(-0.0531709 -0.00620171 0)
(-0.0572724 -0.0125237 0)
(-0.0623001 -0.0216287 0)
(-0.0683744 -0.0350318 0)
(-0.0696192 -0.0587152 0)
(-0.068181 -0.0821898 0)
(-0.0337119 -0.110797 0)
(-0.0047165 0.0547242 0)
(-0.0160839 0.0609102 0)
(-0.0281464 0.0560022 0)
(-0.035594 0.0477887 0)
(-0.0404626 0.0402675 0)
(-0.0435086 0.0333005 0)
(-0.0452863 0.0270517 0)
(-0.0463827 0.021519 0)
(-0.0471908 0.0166521 0)
(-0.0480046 0.0123495 0)
(-0.0490602 0.00846897 0)
(-0.050601 0.00479989 0)
(-0.0530277 0.00107788 0)
(-0.0568286 -0.00325169 0)
(-0.0627268 -0.00865495 0)
(-0.0708701 -0.0173538 0)
(-0.0847286 -0.0307172 0)
(-0.0917758 -0.0613433 0)
(-0.101079 -0.100773 0)
(-0.0426729 -0.178425 0)
(-0.0138851 0.0522209 0)
(-0.0340316 0.0818033 0)
(-0.0372432 0.0711878 0)
(-0.0446268 0.0597555 0)
(-0.0465747 0.0484031 0)
(-0.047111 0.0382011 0)
(-0.0465749 0.0298143 0)
(-0.0456421 0.0230744 0)
(-0.044701 0.0177191 0)
(-0.0440569 0.0134368 0)
(-0.043996 0.0100265 0)
(-0.0447696 0.00730707 0)
(-0.0468271 0.00530504 0)
(-0.0503241 0.00392883 0)
(-0.0568211 0.00377643 0)
(-0.0644129 0.000684297 0)
(-0.0808115 -0.00418708 0)
(-0.0811495 -0.0466131 0)
(-0.100946 -0.109757 0)
(-0.0111101 -0.265133 0)
(-0.068247 0.118894 0)
(-0.0537388 0.069797 0)
(-0.0512329 0.0608077 0)
(-0.0364376 0.0479778 0)
(-0.022736 0.0365831 0)
(-0.0104552 0.0281318 0)
(0.000234687 0.0218691 0)
(0.00899801 0.0170178 0)
(0.0159526 0.013225 0)
(0.0213353 0.0102769 0)
(0.0253172 0.00811753 0)
(0.0284166 0.00646327 0)
(0.0302189 0.00575193 0)
(0.0330234 0.00494189 0)
(0.0318777 0.0052229 0)
(0.0406047 0.000243908 0)
(0.0268074 -0.0122009 0)
(0.0592138 -0.0653985 0)
(-0.000386948 -0.178467 0)
(0.06635 -0.329935 0)
(0.12927 0.142603 0)
(0.166255 0.0853564 0)
(0.246404 0.0596893 0)
(0.297532 0.0427828 0)
(0.33314 0.0301573 0)
(0.359561 0.0209452 0)
(0.379514 0.0146427 0)
(0.394483 0.0104848 0)
(0.40565 0.00771213 0)
(0.414474 0.00575298 0)
(0.420613 0.00444755 0)
(0.427156 0.0033982 0)
(0.428417 0.00256118 0)
(0.43777 0.00249488 0)
(0.428938 8.62977e-05 0)
(0.449356 0.00151562 0)
(0.413647 -0.00835681 0)
(0.435485 -0.0128767 0)
(0.307253 -0.0512954 0)
(0.242365 -0.134535 0)
)
;

boundaryField
{
    movingWall
    {
        type            fixedValue;
        value           uniform (1 0 0);
    }
    fixedWalls
    {
        type            noSlip;
    }
    frontAndBack
    {
        type            empty;
    }
}


// ************************************************************************* //
