/*--------------------------------*- C++ -*----------------------------------*\
  =========                 |
  \\      /  F ield         | OpenFOAM: The Open Source CFD Toolbox
   \\    /   O peration     | Website:  https://openfoam.org
    \\  /    A nd           | Version:  10
     \\/     M anipulation  |
\*---------------------------------------------------------------------------*/
FoamFile
{
    format      ascii;
    class       surfaceScalarField;
    location    "4.8";
    object      phi;
}
// * * * * * * * * * * * * * * * * * * * * * * * * * * * * * * * * * * * * * //

dimensions      [0 3 -1 0 0 0 0];

internalField   nonuniform List<scalar> 
760
(
-8.51665e-06
8.51664e-06
-2.81129e-05
1.95962e-05
-5.07197e-05
2.26068e-05
-7.33848e-05
2.26651e-05
-9.5194e-05
2.18092e-05
-0.000115703
2.05091e-05
-0.00013448
1.87765e-05
-0.000151009
1.6529e-05
-0.00016468
1.36712e-05
-0.000174791
1.01108e-05
-0.000180562
5.77119e-06
-0.000181178
6.16056e-07
-0.000175817
-5.36108e-06
-0.000163822
-1.19948e-05
-0.000144806
-1.90163e-05
-0.000118841
-2.59645e-05
-8.67903e-05
-3.2051e-05
-5.10132e-05
-3.57771e-05
-1.73399e-05
-3.36733e-05
-1.73399e-05
-2.04398e-05
2.89565e-05
-5.75165e-05
5.66729e-05
-9.87865e-05
6.38768e-05
-0.000139672
6.35506e-05
-0.000178515
6.06523e-05
-0.000214379
5.63734e-05
-0.000246422
5.08191e-05
-0.000273755
4.3862e-05
-0.000295415
3.53312e-05
-0.000310362
2.50579e-05
-0.000317459
1.28687e-05
-0.000315725
-1.11817e-06
-0.000303991
-1.70951e-05
-0.000281485
-3.45011e-05
-0.000247831
-5.26699e-05
-0.000203346
-7.04499e-05
-0.000149486
-8.59107e-05
-8.99258e-05
-9.53375e-05
-3.32116e-05
-9.03875e-05
-5.05515e-05
-2.48573e-05
5.38138e-05
-6.86143e-05
0.00010043
-0.000116849
0.000112111
-0.000164388
0.000111089
-0.000209388
0.000105652
-0.000250805
9.77909e-05
-0.000287707
8.77206e-05
-0.000319123
7.52783e-05
-0.000344013
6.02217e-05
-0.000361255
4.22996e-05
-0.000369701
2.13148e-05
-0.000368012
-2.80748e-06
-0.000354953
-3.01543e-05
-0.000329517
-5.9937e-05
-0.000291098
-9.10892e-05
-0.000239824
-0.000121724
-0.000177155
-0.00014858
-0.00010721
-0.000165282
-3.99825e-05
-0.000157615
-9.0534e-05
-2.6587e-05
8.04008e-05
-7.34673e-05
0.00014731
-0.000125038
0.000163682
-0.000175849
0.000161901
-0.00022404
0.000153843
-0.000268586
0.000142337
-0.000308576
0.000127711
-0.000343055
0.000109757
-0.000370973
8.81392e-05
-0.000391156
6.24823e-05
-0.000402297
3.24559e-05
-0.000403012
-2.09205e-06
-0.000391544
-4.16227e-05
-0.000366424
-8.50572e-05
-0.000326447
-0.000131066
-0.000271193
-0.000176977
-0.000201851
-0.000217922
-0.000122886
-0.000244248
-4.59677e-05
-0.000234533
-0.000136502
-2.78837e-05
0.000108285
-7.74118e-05
0.000196838
-0.00013194
0.00021821
-0.000185772
0.000215733
-0.000237059
0.00020513
-0.000284844
0.000190122
-0.000328288
0.000171155
-0.000366495
0.000147964
-0.000398442
0.000120087
-0.000422916
8.69559e-05
-0.000438449
4.79893e-05
-0.000443398
2.85625e-06
-0.000435487
-4.95329e-05
-0.000412497
-0.000108048
-0.000372233
-0.00017133
-0.000313196
-0.000236014
-0.000235816
-0.000295302
-0.000144907
-0.000335157
-5.46013e-05
-0.000324838
-0.000191103
-2.9407e-05
0.000137692
-8.20289e-05
0.00024946
-0.000140045
0.000276226
-0.000197462
0.000273151
-0.000252454
0.000260122
-0.000304164
0.000241832
-0.00035187
0.000218861
-0.000394794
0.000190888
-0.000431998
0.000157291
-0.000462286
0.000117244
-0.000484087
6.97906e-05
-0.000495291
1.40606e-05
-0.000493297
-5.15275e-05
-0.00047462
-0.000126725
-0.000435605
-0.000210344
-0.000372955
-0.000298665
-0.000285497
-0.00038276
-0.000177993
-0.000442661
-6.81135e-05
-0.000434717
-0.000259216
-3.1299e-05
0.000168991
-8.76764e-05
0.000305837
-0.000149886
0.000338436
-0.00021157
0.000334834
-0.000270936
0.000319488
-0.000327271
0.000298167
-0.000380035
0.000271624
-0.000428643
0.000239496
-0.000472344
0.000200992
-0.000510068
0.000154968
-0.000540226
9.99486e-05
-0.00056045
3.42852e-05
-0.000567575
-4.44031e-05
-0.000556695
-0.000137604
-0.00052204
-0.000244999
-0.000457381
-0.000363324
-0.000358411
-0.00048173
-0.000228512
-0.00057256
-9.00234e-05
-0.000573206
-0.00034924
-3.35903e-05
0.000202581
-9.44369e-05
0.000366684
-0.000161547
0.000405546
-0.000228121
0.000401408
-0.000292422
0.000383789
-0.000353934
0.000359679
-0.000412378
0.000330068
-0.000467479
0.000294596
-0.000518817
0.00025233
-0.000565639
0.00020179
-0.000606573
0.000140882
-0.000639217
6.693e-05
-0.000659999
-2.36218e-05
-0.000662502
-0.000135101
-0.00063815
-0.000269351
-0.000576236
-0.000425238
-0.000466689
-0.000591277
-0.000308299
-0.00073095
-0.000127926
-0.000753579
-0.000477166
-3.63276e-05
0.000238908
-0.000102404
0.00043276
-0.000175094
0.000478236
-0.000247069
0.000473383
-0.000316681
0.000453401
-0.000383675
0.000426673
-0.000448129
0.000394523
-0.000510217
0.000356683
-0.000570052
0.000312166
-0.000627478
0.000259216
-0.000681716
0.000195121
-0.000730775
0.000115988
-0.000771384
1.69874e-05
-0.000795753
-0.000110732
-0.000792266
-0.000272838
-0.000744041
-0.000473463
-0.00063124
-0.000704079
-0.000441707
-0.000920484
-0.000199871
-0.000995415
-0.000677036
-3.9629e-05
0.000278538
-0.000111798
0.000504929
-0.000190723
0.000557162
-0.000268469
0.000551129
-0.000343515
0.000528446
-0.000415947
0.000499105
-0.000486305
0.000464881
-0.00055536
0.000425739
-0.000623998
0.000380803
-0.00069304
0.000328258
-0.000762908
0.000264989
-0.00083298
0.00018606
-0.000900133
8.41405e-05
-0.000958641
-5.22235e-05
-0.000993867
-0.000237613
-0.00098214
-0.00048519
-0.00088935
-0.000796868
-0.000680399
-0.00112944
-0.000349951
-0.00132586
-0.00102699
-4.3746e-05
0.000322284
-0.000123074
0.000584257
-0.000208891
0.000642979
-0.000292597
0.000634835
-0.000372879
0.000608728
-0.000450249
0.000576476
-0.000525805
0.000540438
-0.000601039
0.000500973
-0.000677817
0.000457581
-0.000758325
0.000408766
-0.000844867
0.000351531
-0.000939311
0.000280505
-0.00104177
0.000186596
-0.00114983
5.58391e-05
-0.00125135
-0.000136095
-0.00131958
-0.000416953
-0.00130334
-0.000813114
-0.00112034
-0.00131243
-0.000670314
-0.00177589
-0.0016973
-4.9171e-05
0.000371455
-0.000137088
0.000672174
-0.000230472
0.000736363
-0.0003201
0.000724463
-0.000405017
0.000693645
-0.000486276
0.000657735
-0.000565591
0.000619752
-0.000645219
0.0005806
-0.000728108
0.00054047
-0.000818122
0.00049878
-0.000920241
0.000453649
-0.00104053
0.000400791
-0.00118538
0.000331444
-0.00135886
0.000229325
-0.0015634
6.84441e-05
-0.00178058
-0.000199775
-0.00194196
-0.000651731
-0.00185915
-0.00139524
-0.0012185
-0.00241654
-0.0029158
-5.68368e-05
0.000428291
-0.000155363
0.0007707
-0.000256991
0.000837991
-0.00035219
0.000819662
-0.000440636
0.00078209
-0.000524091
0.000741191
-0.000604915
0.000700576
-0.000685997
0.000661682
-0.000771176
0.000625649
-0.000865861
0.000593465
-0.000977885
0.000565674
-0.00111864
0.000541551
-0.00130435
0.000517148
-0.00155661
0.000481583
-0.00189841
0.000410248
-0.0023337
0.000235519
-0.00275364
-0.000231791
-0.00275554
-0.00139334
-0.00179326
-0.00337882
-0.00470907
-6.8947e-05
0.000497238
-0.000181033
0.000882786
-0.000290962
0.000947921
-0.000390349
0.000919049
-0.000480566
0.000872307
-0.000564134
0.000824759
-0.000643681
0.000780123
-0.000722356
0.000740357
-0.000804444
0.000707738
-0.000896268
0.000685288
-0.00100782
0.000677226
-0.00115542
0.00068915
-0.00136589
0.000727616
-0.00167899
0.000794689
-0.00214038
0.00087163
-0.00274142
0.000836564
-0.00328279
0.000309574
-0.00321135
-0.00146478
-0.00197876
-0.00461141
-0.00668782
-8.39456e-05
0.000581184
-0.000213213
0.00101205
-0.00033405
0.00106876
-0.0004396
0.0010246
-0.000530419
0.000963126
-0.000610657
0.000904997
-0.000684245
0.000853712
-0.000754676
0.000810787
-0.000825589
0.000778651
-0.000902028
0.000761728
-0.000993207
0.000768404
-0.00111573
0.000811678
-0.00130063
0.000912514
-0.0015922
0.00108626
-0.00203719
0.00131662
-0.00258415
0.00138353
-0.0030335
0.000758922
-0.00287709
-0.00162119
-0.00179837
-0.00569014
-0.00848619
-0.000148607
0.000729791
-0.000290862
0.00115431
-0.000403701
0.0011816
-0.000495727
0.00111662
-0.000576978
0.00104438
-0.000650699
0.000978719
-0.000718101
0.000921114
-0.000779616
0.000872302
-0.000836136
0.000835171
-0.000888934
0.000814526
-0.000941778
0.000821248
-0.00100216
0.000872055
-0.00108917
0.000999528
-0.00121985
0.00121694
-0.00142891
0.00152567
-0.00165249
0.00160711
-0.00185623
0.000962659
-0.00184699
-0.00163043
-0.00133023
-0.0062069
-0.00981642
-9.92685e-05
0.00082906
-0.000305701
0.00136074
-0.000463679
0.00133958
-0.000580309
0.00123325
-0.000665465
0.00112953
-0.000728601
0.00104185
-0.000775657
0.00096817
-0.000809318
0.000905962
-0.00082994
0.000855793
-0.000834076
0.000818661
-0.000817235
0.000804407
-0.000768707
0.000823528
-0.000683184
0.000914005
-0.000539618
0.00107337
-0.000350206
0.00133626
-0.000174048
0.00143096
-0.000102864
0.000891475
-0.000348654
-0.00138464
-0.000392163
-0.00616339
-0.0102086
-0.000389467
0.00121853
-0.000488564
0.00145984
-0.000585182
0.00143619
-0.000674282
0.00132235
-0.00072012
0.00117537
-0.000730938
0.00105267
-0.000715325
0.000952557
-0.000676162
0.0008668
-0.000618553
0.000798184
-0.000536888
0.000736997
-0.000429502
0.00069702
-0.000276956
0.000670982
-5.45962e-05
0.000691645
0.000264304
0.000754473
0.000728089
0.000872476
0.00125294
0.000906103
0.00176264
0.000381782
0.00162711
-0.00124911
0.000899724
-0.00543601
-0.00930885
-0.00133981
0.00255834
-0.00129686
0.00141688
-0.00105353
0.00119287
-0.000703864
0.000972684
-0.000332413
0.00080392
3.91796e-05
0.00068108
0.000397921
0.000593816
0.000738409
0.000526311
0.00106255
0.000474047
0.00137074
0.000428803
0.00167061
0.000397147
0.00197131
0.000370281
0.00230292
0.000360036
0.00269273
0.00036467
0.00322832
0.000336884
0.00386368
0.000270741
0.00440621
-0.000160745
0.00434367
-0.00118658
0.0026909
-0.00378324
-0.00661795
0.00255834
0.00397523
0.00516809
0.00614078
0.00694469
0.00762577
0.00821959
0.0087459
0.00921995
0.00964875
0.0100459
0.0104162
0.0107762
0.0111409
0.0114778
0.0117485
0.0115878
0.0104012
0.00661795
)
;

boundaryField
{
    movingWall
    {
        type            calculated;
        value           uniform 0;
    }
    fixedWalls
    {
        type            calculated;
        value           uniform 0;
    }
    frontAndBack
    {
        type            empty;
        value           nonuniform List<scalar> 0();
    }
}


// ************************************************************************* //
