/*--------------------------------*- C++ -*----------------------------------*\
  =========                 |
  \\      /  F ield         | OpenFOAM: The Open Source CFD Toolbox
   \\    /   O peration     | Website:  https://openfoam.org
    \\  /    A nd           | Version:  10
     \\/     M anipulation  |
\*---------------------------------------------------------------------------*/
FoamFile
{
    format      ascii;
    class       volVectorField;
    location    "9.1";
    object      U;
}
// * * * * * * * * * * * * * * * * * * * * * * * * * * * * * * * * * * * * * //

dimensions      [0 1 -1 0 0 0 0];

internalField   nonuniform List<vector> 
400
(
(-0.000166581 0.000144625 0)
(-0.00124924 0.000461154 0)
(-0.00308265 0.000576422 0)
(-0.0049699 0.000616113 0)
(-0.00693378 0.000639557 0)
(-0.00893707 0.00066573 0)
(-0.0109688 0.000693864 0)
(-0.0130077 0.000715687 0)
(-0.0150058 0.00071904 0)
(-0.0168814 0.000687636 0)
(-0.0185119 0.000601267 0)
(-0.0197257 0.000438053 0)
(-0.0203061 0.000180113 0)
(-0.0200014 -0.000192089 0)
(-0.0185734 -0.000657041 0)
(-0.0158826 -0.00115194 0)
(-0.0120276 -0.00155019 0)
(-0.00750956 -0.00167787 0)
(-0.00279719 -0.00135912 0)
(-0.000208933 -0.000395183 0)
(-0.000545082 0.00127642 0)
(-0.00283504 0.00266081 0)
(-0.00634768 0.00318417 0)
(-0.0099655 0.00336897 0)
(-0.013691 0.00344615 0)
(-0.017435 0.00349108 0)
(-0.0211478 0.0035035 0)
(-0.0247672 0.00345166 0)
(-0.028193 0.00328721 0)
(-0.0312766 0.00294774 0)
(-0.0338101 0.0023605 0)
(-0.0355209 0.00144956 0)
(-0.0360936 0.000150714 0)
(-0.0351664 -0.00154753 0)
(-0.0324008 -0.00354662 0)
(-0.0276241 -0.00558557 0)
(-0.0210148 -0.00718203 0)
(-0.0133386 -0.00767219 0)
(-0.0053754 -0.00639227 0)
(-0.000695079 -0.00256594 0)
(-0.000716901 0.00332663 0)
(-0.00358286 0.00627499 0)
(-0.00789191 0.00738687 0)
(-0.0122992 0.00776648 0)
(-0.016809 0.00788568 0)
(-0.0213127 0.0078985 0)
(-0.0257501 0.00780896 0)
(-0.0300504 0.00755752 0)
(-0.034104 0.00705073 0)
(-0.0377501 0.00616822 0)
(-0.040764 0.00477027 0)
(-0.0428515 0.00271427 0)
(-0.0436393 -0.000114456 0)
(-0.0426801 -0.00372362 0)
(-0.0395252 -0.00793969 0)
(-0.0338629 -0.0122437 0)
(-0.0257891 -0.0156514 0)
(-0.0162126 -0.0167141 0)
(-0.00624318 -0.0139813 0)
(-0.00065781 -0.00596891 0)
(-0.000774376 0.00553069 0)
(-0.00388254 0.0101629 0)
(-0.00854519 0.0118812 0)
(-0.0132971 0.012444 0)
(-0.0181578 0.0125938 0)
(-0.0230221 0.0125703 0)
(-0.0278418 0.0123848 0)
(-0.0325629 0.0119529 0)
(-0.0370967 0.0111386 0)
(-0.0413028 0.0097621 0)
(-0.0449679 0.00760616 0)
(-0.0477868 0.00443846 0)
(-0.049338 6.34665e-05 0)
(-0.0490625 -0.00559287 0)
(-0.0462818 -0.0123518 0)
(-0.0403438 -0.0194634 0)
(-0.0310003 -0.025323 0)
(-0.0191839 -0.0272916 0)
(-0.00660885 -0.0225773 0)
(-0.000255964 -0.00923213 0)
(-0.000776076 0.00782951 0)
(-0.00396064 0.0142396 0)
(-0.00876639 0.0165956 0)
(-0.0136689 0.0173567 0)
(-0.0187067 0.0175589 0)
(-0.0237905 0.017538 0)
(-0.0289006 0.0173183 0)
(-0.0340195 0.0167968 0)
(-0.0391028 0.0157979 0)
(-0.0440589 0.01408 0)
(-0.0487168 0.0113334 0)
(-0.0527807 0.00719382 0)
(-0.0557785 0.00130324 0)
(-0.0570219 -0.00658088 0)
(-0.0555091 -0.0164176 0)
(-0.0499935 -0.0273394 0)
(-0.039421 -0.0370022 0)
(-0.0242574 -0.040823 0)
(-0.00714871 -0.0332147 0)
(0.000506874 -0.0123883 0)
(-0.000752217 0.010131 0)
(-0.0039342 0.0183771 0)
(-0.00878475 0.0214028 0)
(-0.0137521 0.0223894 0)
(-0.0188924 0.0226865 0)
(-0.0241404 0.0227387 0)
(-0.029516 0.0225951 0)
(-0.035055 0.0221444 0)
(-0.0407807 0.0211811 0)
(-0.0466842 0.0194051 0)
(-0.0526845 0.0164032 0)
(-0.0585567 0.0116408 0)
(-0.0638466 0.00449512 0)
(-0.0678073 -0.00563149 0)
(-0.0691049 -0.0190502 0)
(-0.0655781 -0.0352086 0)
(-0.0544386 -0.0511981 0)
(-0.0343959 -0.0593018 0)
(-0.00918999 -0.0475239 0)
(0.00162392 -0.0153981 0)
(-0.000714069 0.0123871 0)
(-0.00385093 0.0225058 0)
(-0.00869197 0.0262324 0)
(-0.0136713 0.0274764 0)
(-0.0188599 0.0279193 0)
(-0.0242196 0.0281307 0)
(-0.0298175 0.028201 0)
(-0.035757 0.0280295 0)
(-0.0421544 0.0274017 0)
(-0.0491267 0.0259777 0)
(-0.0567556 0.0232518 0)
(-0.065016 0.0185091 0)
(-0.0736721 0.0108015 0)
(-0.0821208 -0.000999313 0)
(-0.088916 -0.0180328 0)
(-0.0905606 -0.041213 0)
(-0.0806869 -0.0680085 0)
(-0.054356 -0.0858254 0)
(-0.0168761 -0.0691237 0)
(0.00242191 -0.0195997 0)
(-0.00066454 0.0145699 0)
(-0.00372597 0.0265858 0)
(-0.00851534 0.0310396 0)
(-0.0134536 0.0325658 0)
(-0.0186222 0.0331981 0)
(-0.0240082 0.0336509 0)
(-0.0297272 0.0340764 0)
(-0.0359584 0.0344128 0)
(-0.0429342 0.0344751 0)
(-0.0509437 0.0339351 0)
(-0.0603236 0.0322578 0)
(-0.0714307 0.0286202 0)
(-0.0845783 0.0218191 0)
(-0.0998277 0.0100131 0)
(-0.116024 -0.00990396 0)
(-0.127041 -0.042115 0)
(-0.120259 -0.0868887 0)
(-0.087861 -0.123146 0)
(-0.0388732 -0.104131 0)
(0.000122002 -0.0299836 0)
(-0.000605528 0.016656 0)
(-0.00356777 0.0305834 0)
(-0.00826621 0.0357774 0)
(-0.0130998 0.037591 0)
(-0.018154 0.0384319 0)
(-0.0234341 0.0391812 0)
(-0.0290975 0.0400784 0)
(-0.0353947 0.0411351 0)
(-0.0426756 0.0422506 0)
(-0.0514289 0.0431989 0)
(-0.0623325 0.0435638 0)
(-0.0763225 0.0426521 0)
(-0.0947171 0.0392798 0)
(-0.118824 0.030669 0)
(-0.146785 0.00973895 0)
(-0.1679 -0.0352331 0)
(-0.164137 -0.107104 0)
(-0.131507 -0.168729 0)
(-0.0807318 -0.156418 0)
(-0.010622 -0.0567132 0)
(-0.000542283 0.0186288 0)
(-0.00339403 0.0344711 0)
(-0.00796944 0.0403953 0)
(-0.0126265 0.0424678 0)
(-0.0174474 0.0434929 0)
(-0.0224433 0.0445413 0)
(-0.0277962 0.0459645 0)
(-0.0338054 0.0478856 0)
(-0.0409089 0.0503542 0)
(-0.049761 0.053366 0)
(-0.0613467 0.0568403 0)
(-0.0771438 0.0605216 0)
(-0.0993991 0.0633689 0)
(-0.130356 0.0607641 0)
(-0.166669 0.0386156 0)
(-0.192298 -0.0235442 0)
(-0.190638 -0.125744 0)
(-0.167321 -0.21274 0)
(-0.124432 -0.223001 0)
(-0.0314399 -0.115343 0)
(-0.000486284 0.0204876 0)
(-0.00324178 0.038234 0)
(-0.00768155 0.044838 0)
(-0.0120917 0.0470895 0)
(-0.0165475 0.0482118 0)
(-0.0210483 0.0494832 0)
(-0.025774 0.0513809 0)
(-0.031026 0.0541638 0)
(-0.0372535 0.0580835 0)
(-0.0451501 0.0634619 0)
(-0.0558065 0.0707346 0)
(-0.0708337 0.0802211 0)
(-0.0923664 0.0905249 0)
(-0.122307 0.0935962 0)
(-0.155565 0.0681001 0)
(-0.1767 -0.0096157 0)
(-0.176755 -0.133757 0)
(-0.164345 -0.245489 0)
(-0.136806 -0.29646 0)
(-0.0486437 -0.215324 0)
(-0.000461474 0.0222714 0)
(-0.00318536 0.0419172 0)
(-0.007514 0.0491167 0)
(-0.0116174 0.0514109 0)
(-0.0155779 0.0524637 0)
(-0.0193689 0.0537763 0)
(-0.0231402 0.0559519 0)
(-0.027135 0.0593769 0)
(-0.0317003 0.0644992 0)
(-0.0373505 0.0719541 0)
(-0.044856 0.0826221 0)
(-0.0552079 0.0971039 0)
(-0.0692644 0.11302 0)
(-0.0880436 0.118766 0)
(-0.107273 0.0895438 0)
(-0.119006 0.00185327 0)
(-0.121774 -0.130115 0)
(-0.119685 -0.258028 0)
(-0.116256 -0.347491 0)
(-0.0460364 -0.316311 0)
(-0.00049896 0.0240325 0)
(-0.0033114 0.0454759 0)
(-0.00761098 0.0530307 0)
(-0.0113937 0.0551232 0)
(-0.0147677 0.0558878 0)
(-0.0176681 0.0570064 0)
(-0.020207 0.0591518 0)
(-0.0225282 0.0627847 0)
(-0.0247885 0.0684496 0)
(-0.0271683 0.0769047 0)
(-0.0298649 0.089135 0)
(-0.0329348 0.105566 0)
(-0.0360831 0.123259 0)
(-0.0397787 0.129002 0)
(-0.0436164 0.0989335 0)
(-0.0456054 0.00860363 0)
(-0.0526128 -0.118288 0)
(-0.0616911 -0.24729 0)
(-0.0843413 -0.364101 0)
(-0.0318868 -0.385033 0)
(-0.000707782 0.0261032 0)
(-0.00392106 0.0495586 0)
(-0.00831851 0.0573894 0)
(-0.0116884 0.0590587 0)
(-0.0143356 0.0591361 0)
(-0.0162174 0.0595702 0)
(-0.0173891 0.0611188 0)
(-0.0178721 0.0642654 0)
(-0.017633 0.0695344 0)
(-0.0165144 0.0775953 0)
(-0.0142311 0.0892616 0)
(-0.00997841 0.104576 0)
(-0.0031274 0.120858 0)
(0.00689001 0.125804 0)
(0.0147718 0.0979176 0)
(0.0200923 0.0137704 0)
(0.00599242 -0.102303 0)
(-0.0135779 -0.222619 0)
(-0.0584001 -0.362622 0)
(-0.0203059 -0.434328 0)
(-0.0010494 0.0286668 0)
(-0.004697 0.0528283 0)
(-0.00954023 0.0598797 0)
(-0.0127795 0.0603672 0)
(-0.0149091 0.0596383 0)
(-0.0157849 0.0594759 0)
(-0.0155323 0.0604566 0)
(-0.0141423 0.0628987 0)
(-0.011479 0.0671885 0)
(-0.00716029 0.0737785 0)
(-0.000707723 0.0831742 0)
(0.0091561 0.095144 0)
(0.0229498 0.107376 0)
(0.0414205 0.110505 0)
(0.056197 0.087178 0)
(0.0666314 0.0178438 0)
(0.0474807 -0.0810721 0)
(0.0248989 -0.186152 0)
(-0.039095 -0.34558 0)
(-0.00946141 -0.467709 0)
(-0.00313418 0.0307212 0)
(-0.00914598 0.0596964 0)
(-0.0132807 0.0666072 0)
(-0.0154095 0.0664382 0)
(-0.0160787 0.0638764 0)
(-0.0156306 0.0617651 0)
(-0.0140503 0.0607968 0)
(-0.0111638 0.0612756 0)
(-0.00668601 0.0634481 0)
(-8.7797e-05 0.0674976 0)
(0.00917517 0.073671 0)
(0.0222698 0.0815029 0)
(0.0390713 0.0890221 0)
(0.0608877 0.0897069 0)
(0.0779139 0.0725295 0)
(0.0918394 0.0218788 0)
(0.0704475 -0.0545372 0)
(0.0484398 -0.142999 0)
(-0.0273484 -0.323879 0)
(0.00243179 -0.49087 0)
(-0.000930967 0.0440386 0)
(-0.00749305 0.0609576 0)
(-0.0166663 0.0635613 0)
(-0.018748 0.0597909 0)
(-0.0196906 0.0567544 0)
(-0.0184077 0.0547587 0)
(-0.0156377 0.0537879 0)
(-0.0112435 0.0537413 0)
(-0.00506145 0.0547155 0)
(0.00345953 0.0567299 0)
(0.0147227 0.0600633 0)
(0.0295782 0.0641605 0)
(0.0472081 0.0677796 0)
(0.0697607 0.0667617 0)
(0.0860156 0.0548665 0)
(0.101798 0.0218786 0)
(0.0799875 -0.0322977 0)
(0.0638626 -0.103584 0)
(-0.010033 -0.301355 0)
(0.0209793 -0.500749 0)
(-0.0125705 0.0321928 0)
(-0.0230845 0.0805314 0)
(-0.020749 0.0807294 0)
(-0.0247057 0.0758052 0)
(-0.0242101 0.0683861 0)
(-0.0218945 0.0622732 0)
(-0.0174734 0.0574249 0)
(-0.0111172 0.0537429 0)
(-0.00290022 0.0512367 0)
(0.00764012 0.0496848 0)
(0.0204183 0.0492535 0)
(0.0361635 0.0493236 0)
(0.05313 0.0501352 0)
(0.0746075 0.0486597 0)
(0.0879196 0.0432006 0)
(0.10614 0.0267206 0)
(0.090419 -0.00628299 0)
(0.0987447 -0.06393 0)
(0.0394177 -0.273177 0)
(0.0570968 -0.488946 0)
(-0.0776756 0.0957986 0)
(-0.0632369 0.0587499 0)
(-0.065121 0.060017 0)
(-0.0424402 0.0534034 0)
(-0.0245094 0.0464219 0)
(-0.00373443 0.0412516 0)
(0.01588 0.0374879 0)
(0.0358981 0.0343039 0)
(0.054495 0.0320063 0)
(0.0747625 0.0299474 0)
(0.0924283 0.0288016 0)
(0.114979 0.0276794 0)
(0.130761 0.026957 0)
(0.159408 0.0256964 0)
(0.168946 0.0202244 0)
(0.20263 0.0112913 0)
(0.190281 -0.0214991 0)
(0.222017 -0.0737549 0)
(0.153834 -0.251619 0)
(0.124744 -0.432985 0)
(0.119355 0.140733 0)
(0.1519 0.0860197 0)
(0.228317 0.0634573 0)
(0.283793 0.0480158 0)
(0.325248 0.0374004 0)
(0.363582 0.0296541 0)
(0.392342 0.0242478 0)
(0.423579 0.0201866 0)
(0.443577 0.0173063 0)
(0.472168 0.0149967 0)
(0.485077 0.013303 0)
(0.514426 0.0119475 0)
(0.519972 0.0108287 0)
(0.552107 0.0095358 0)
(0.546989 0.00752576 0)
(0.578837 0.00305799 0)
(0.547076 -0.00582857 0)
(0.552692 -0.0269237 0)
(0.419482 -0.0730408 0)
(0.274951 -0.151704 0)
)
;

boundaryField
{
    movingWall
    {
        type            fixedValue;
        value           uniform (1 0 0);
    }
    fixedWalls
    {
        type            noSlip;
    }
    frontAndBack
    {
        type            empty;
    }
}


// ************************************************************************* //
