/*--------------------------------*- C++ -*----------------------------------*\
  =========                 |
  \\      /  F ield         | OpenFOAM: The Open Source CFD Toolbox
   \\    /   O peration     | Website:  https://openfoam.org
    \\  /    A nd           | Version:  10
     \\/     M anipulation  |
\*---------------------------------------------------------------------------*/
FoamFile
{
    format      ascii;
    class       volScalarField;
    location    "1.05";
    object      p;
}
// * * * * * * * * * * * * * * * * * * * * * * * * * * * * * * * * * * * * * //

dimensions      [0 2 -2 0 0 0 0];

internalField   nonuniform List<scalar> 
400
(
-9.63254e-10
3.42809e-05
0.000155568
0.000348801
0.000610173
0.000933555
0.00131121
0.00173403
0.00219171
0.00267293
0.00316551
0.00365666
0.00413324
0.00458207
0.00499024
0.00534558
0.00563705
0.00585538
0.00599417
0.00603628
-3.44737e-05
-3.02826e-07
0.000122255
0.000317242
0.000581042
0.000907549
0.001289
0.00171625
0.00217896
0.0026657
0.00316419
0.00366157
0.00414451
0.00459962
0.0050138
0.0053746
0.00567074
0.00589271
0.0060341
0.00607665
-0.000157875
-0.000123095
3.93502e-06
0.000206135
0.000479798
0.000818625
0.00121462
0.00165838
0.00213925
0.00264552
0.0031646
0.00368307
0.00418718
0.00466298
0.0050967
0.00547516
0.00578628
0.00601981
0.00616874
0.00621325
-0.000362494
-0.000326085
-0.000191538
2.2733e-05
0.000312839
0.000672135
0.00109221
0.00156324
0.00207407
0.00261248
0.00316526
0.0037184
0.00425732
0.00476716
0.00523309
0.00564071
0.00597666
0.0062294
0.00639091
0.00643932
-0.00065332
-0.000614428
-0.000469134
-0.000237657
7.58217e-05
0.000464144
0.000918311
0.00142785
0.00198095
0.00256467
0.00316504
0.00376719
0.00435547
0.00491377
0.00542575
0.00587531
0.00624718
0.00652788
0.0067078
0.00676215
-0.00103778
-0.000995568
-0.000836023
-0.000581796
-0.000237488
0.000189022
0.000687931
0.00124793
0.00185636
0.0024994
0.00316217
0.00382876
0.00448222
0.00510488
0.00567849
0.00618462
0.00660535
0.00692441
0.00712981
0.0071926
-0.00152552
-0.00147911
-0.00130144
-0.00101835
-0.000635056
-0.000160406
0.000394735
0.00101799
0.0016957
0.00241302
0.00315404
0.00390179
0.00463782
0.00534266
0.00599572
0.00657559
0.00706077
0.00743104
0.00767084
0.00774533
-0.00212893
-0.0020774
-0.00187717
-0.00155833
-0.00112692
-0.000593124
3.08017e-05
0.000731175
0.00149313
0.00230075
0.00313708
0.00398411
0.00482193
0.0056291
0.00638232
0.00705653
0.00762548
0.00806337
0.00834932
0.00844005
-0.00286362
-0.00280591
-0.00257793
-0.00221533
-0.00172535
-0.00112003
-0.000413429
0.000379149
0.00124147
0.0021565
0.00310637
0.00407226
0.00503303
0.00596535
0.00684304
0.00763668
0.00831392
0.00884115
0.00918934
0.00930305
-0.00374916
-0.00368395
-0.00342191
-0.00300593
-0.00244511
-0.00175404
-0.000949162
-4.78351e-05
0.00093217
0.00197277
0.00305541
0.00416096
0.00526763
0.0063508
0.00738149
0.00832546
0.00914274
0.00978891
0.0102223
0.0103697
-0.00481018
-0.00473562
-0.0044315
-0.0039502
-0.00330366
-0.00251007
-0.00158915
-0.000560814
0.000555421
0.00174056
0.00297581
0.00424253
0.00551936
0.00678159
0.0079985
0.00913098
0.01013
0.0109366
0.011489
0.0116884
-0.00607824
-0.0059912
-0.00563451
-0.00507233
-0.00432139
-0.00340502
-0.00234736
-0.00117166
0.000100548
0.00144959
0.00285714
0.00430625
0.00577771
0.00724881
0.00868937
0.0100571
0.0112931
0.0123197
0.0130426
0.013328
-0.00759507
-0.00748936
-0.0070658
-0.00640157
-0.00552194
-0.00445736
-0.00323814
-0.00189202
-0.00044303
0.00108896
0.00268726
0.00433782
0.00602647
0.00773583
0.00944014
0.0110983
0.0126439
0.013978
0.0149521
0.0153895
-0.00941961
-0.00928109
-0.00877024
-0.00797357
-0.00693229
-0.00568617
-0.00427466
-0.00273175
-0.00108423
0.000648374
0.00245308
0.00431914
0.00624229
0.00821483
0.0102219
0.0122314
0.0141784
0.0159518
0.0173061
0.0180257
-0.011622
-0.0114305
-0.0108064
-0.00983219
-0.00858244
-0.00710965
-0.00546722
-0.0036968
-0.00182821
0.000120079
0.00213954
0.004229
0.00639387
0.00864322
0.0109828
0.0134033
0.0158583
0.0182663
0.0201953
0.0215086
-0.0144525
-0.0140734
-0.0132692
-0.0120333
-0.0105048
-0.00874281
-0.00681938
-0.00478512
-0.00267226
-0.000496667
0.00173967
0.00404658
0.00644302
0.00896124
0.0116383
0.0145064
0.0175618
0.0208601
0.0236239
0.026269
-0.0173808
-0.0171352
-0.0162045
-0.0146299
-0.0127284
-0.010591
-0.00832185
-0.00598088
-0.00360111
-0.00119285
0.00125232
0.00375558
0.00634799
0.00908796
0.0120478
0.0153252
0.0189694
0.0235283
0.0272986
0.0330011
-0.0239556
-0.0212382
-0.0200086
-0.0177439
-0.0152761
-0.0126284
-0.00992717
-0.00723343
-0.0045704
-0.00193444
0.000699747
0.00338579
0.00610898
0.00902104
0.0122471
0.0160572
0.0204731
0.0269381
0.0326112
0.0430804
-0.0275585
-0.0272951
-0.0251029
-0.0220417
-0.0185954
-0.0150729
-0.0117213
-0.00856869
-0.00558255
-0.00272396
4.63971e-05
0.00276213
0.0055383
0.00837721
0.0112709
0.014836
0.0174027
0.0260649
0.0282689
0.052072
-0.053048
-0.0288824
-0.0272645
-0.0234944
-0.0194327
-0.0157474
-0.0123139
-0.00906267
-0.00598932
-0.0030659
-0.000249712
0.00251173
0.00528057
0.00820135
0.0113414
0.0157623
0.0210262
0.0340398
0.050798
0.101482
)
;

boundaryField
{
    movingWall
    {
        type            zeroGradient;
    }
    fixedWalls
    {
        type            zeroGradient;
    }
    frontAndBack
    {
        type            empty;
    }
}


// ************************************************************************* //
