/*--------------------------------*- C++ -*----------------------------------*\
  =========                 |
  \\      /  F ield         | OpenFOAM: The Open Source CFD Toolbox
   \\    /   O peration     | Website:  https://openfoam.org
    \\  /    A nd           | Version:  10
     \\/     M anipulation  |
\*---------------------------------------------------------------------------*/
FoamFile
{
    format      ascii;
    class       volVectorField;
    location    "1.05";
    object      U;
}
// * * * * * * * * * * * * * * * * * * * * * * * * * * * * * * * * * * * * * //

dimensions      [0 1 -1 0 0 0 0];

internalField   nonuniform List<vector> 
400
(
(-0.000305505 0.000300805 0)
(-0.00101566 0.000363482 0)
(-0.00179464 0.000351061 0)
(-0.00251544 0.000325315 0)
(-0.00317221 0.000291365 0)
(-0.00374885 0.000250351 0)
(-0.00423138 0.000203335 0)
(-0.00460836 0.000151436 0)
(-0.00487073 9.58031e-05 0)
(-0.00501193 3.76031e-05 0)
(-0.00502785 -2.19675e-05 0)
(-0.00491696 -8.1674e-05 0)
(-0.0046804 -0.000140182 0)
(-0.00432217 -0.000196078 0)
(-0.00384937 -0.000247854 0)
(-0.00327233 -0.000293934 0)
(-0.00260492 -0.00033274 0)
(-0.00186419 -0.000362587 0)
(-0.00105825 -0.000377657 0)
(-0.000319336 -0.000314159 0)
(-0.000383901 0.00102139 0)
(-0.00126475 0.0012219 0)
(-0.0022221 0.0011795 0)
(-0.00310835 0.00109251 0)
(-0.0039152 0.000977811 0)
(-0.00462281 0.000839423 0)
(-0.00521417 0.000681047 0)
(-0.00567546 0.000506509 0)
(-0.0059959 0.000319687 0)
(-0.0061677 0.00012447 0)
(-0.00618607 -7.52135e-05 0)
(-0.00604924 -0.00027517 0)
(-0.00575862 -0.000471096 0)
(-0.00531906 -0.000658321 0)
(-0.00473908 -0.000831833 0)
(-0.00403115 -0.00098637 0)
(-0.00321209 -0.00111659 0)
(-0.00230281 -0.0012167 0)
(-0.00131423 -0.00126754 0)
(-0.000399984 -0.00106439 0)
(-0.000406459 0.00186646 0)
(-0.00133922 0.00221947 0)
(-0.00235238 0.00214126 0)
(-0.00328907 0.00198245 0)
(-0.00414096 0.00177329 0)
(-0.00488734 0.00152137 0)
(-0.00551069 0.00123358 0)
(-0.00599693 0.000916943 0)
(-0.00633515 0.000578466 0)
(-0.0065175 0.000225105 0)
(-0.00653892 -0.000136156 0)
(-0.00639743 -0.000498016 0)
(-0.0060942 -0.00085282 0)
(-0.00563363 -0.00119226 0)
(-0.00502393 -0.00150733 0)
(-0.00427752 -0.00178845 0)
(-0.00341155 -0.00202579 0)
(-0.00244788 -0.0022085 0)
(-0.00139783 -0.00230212 0)
(-0.000425493 -0.00194442 0)
(-0.000435061 0.00274586 0)
(-0.00143359 0.0032589 0)
(-0.00251752 0.00314226 0)
(-0.00351807 0.00290758 0)
(-0.00442658 0.00259928 0)
(-0.00522139 0.00222885 0)
(-0.00588454 0.00180666 0)
(-0.00640188 0.00134308 0)
(-0.00676259 0.000848242 0)
(-0.00695885 0.000332059 0)
(-0.00698549 -0.00019562 0)
(-0.0068401 -0.000724708 0)
(-0.00652315 -0.00124433 0)
(-0.00603822 -0.00174264 0)
(-0.00539271 -0.00220657 0)
(-0.00459849 -0.00262193 0)
(-0.00367282 -0.00297383 0)
(-0.00263857 -0.0032457 0)
(-0.00150802 -0.00338645 0)
(-0.00045921 -0.00286632 0)
(-0.000475208 0.00369599 0)
(-0.00156551 0.00438176 0)
(-0.00274767 0.00422199 0)
(-0.00383638 0.00390355 0)
(-0.00482249 0.00348674 0)
(-0.00568312 0.00298775 0)
(-0.00639999 0.00242097 0)
(-0.00695914 0.00180038 0)
(-0.00735013 0.00113933 0)
(-0.00756538 0.000450477 0)
(-0.00759967 -0.00025382 0)
(-0.00744999 -0.000960943 0)
(-0.00711576 -0.0016572 0)
(-0.00659918 -0.00232737 0)
(-0.00590616 -0.00295415 0)
(-0.00504738 -0.00351825 0)
(-0.0040398 -0.00399879 0)
(-0.00290748 -0.00437205 0)
(-0.00166408 -0.00456767 0)
(-0.000507176 -0.0038719 0)
(-0.000528682 0.00474351 0)
(-0.00174075 0.0056187 0)
(-0.00305239 0.00540873 0)
(-0.00425626 0.00499508 0)
(-0.00534261 0.00445642 0)
(-0.00628731 0.00381482 0)
(-0.00707207 0.00308951 0)
(-0.00768369 0.00229855 0)
(-0.00811267 0.00145845 0)
(-0.00835217 0.00058436 0)
(-0.00839708 -0.000309421 0)
(-0.00824365 -0.00120844 0)
(-0.00788972 -0.00209675 0)
(-0.00733531 -0.0029561 0)
(-0.00658373 -0.00376494 0)
(-0.00564339 -0.00449819 0)
(-0.00453006 -0.00512764 0)
(-0.00326874 -0.00562031 0)
(-0.00187478 -0.0058826 0)
(-0.000572188 -0.00499396 0)
(-0.000597817 0.00591798 0)
(-0.00196662 0.00700353 0)
(-0.00344345 0.00673295 0)
(-0.00479231 0.00620791 0)
(-0.0060029 0.00552901 0)
(-0.00705004 0.00472607 0)
(-0.00791628 0.00382431 0)
(-0.00859021 0.00284638 0)
(-0.00906432 0.00181193 0)
(-0.00933326 0.000737979 0)
(-0.00939248 -0.000360105 0)
(-0.00923733 -0.00146718 0)
(-0.00886342 -0.00256606 0)
(-0.00826738 -0.00363622 0)
(-0.00744827 -0.00465206 0)
(-0.00641029 -0.00558204 0)
(-0.00516627 -0.0063888 0)
(-0.00374126 -0.00702697 0)
(-0.00215227 -0.00737374 0)
(-0.000658226 -0.00627087 0)
(-0.000686068 0.00725478 0)
(-0.00225371 0.00857615 0)
(-0.00393751 0.00822949 0)
(-0.00546465 0.00757018 0)
(-0.00682463 0.00672597 0)
(-0.00799202 0.00573707 0)
(-0.00895177 0.00463635 0)
(-0.00969608 0.00345166 0)
(-0.0102211 0.00220552 0)
(-0.0105242 0.000915872 0)
(-0.0106022 -0.000402278 0)
(-0.0104496 -0.00173487 0)
(-0.0100588 -0.00306529 0)
(-0.00942131 -0.00437213 0)
(-0.00852957 -0.00562646 0)
(-0.0073804 -0.00678977 0)
(-0.00598048 -0.0078133 0)
(-0.00435264 -0.00863476 0)
(-0.00251481 -0.00909322 0)
(-0.000771433 -0.0077509 0)
(-0.00079868 0.00879763 0)
(-0.00261769 0.0103847 0)
(-0.00455849 0.00993862 0)
(-0.0063012 0.00911246 0)
(-0.00783623 0.00806862 0)
(-0.00913969 0.00686162 0)
(-0.0102017 0.00553415 0)
(-0.0110211 0.00411987 0)
(-0.0116001 0.00264357 0)
(-0.0119411 0.00112257 0)
(-0.0120432 -0.00043068 0)
(-0.0119004 -0.00200586 0)
(-0.0115007 -0.00358985 0)
(-0.0108285 -0.0051629 0)
(-0.00986593 -0.0066944 0)
(-0.00859746 -0.00813901 0)
(-0.00701812 -0.00943407 0)
(-0.00514368 -0.0104941 0)
(-0.00299053 -0.0111066 0)
(-0.000921581 -0.00949719 0)
(-0.000943891 0.0106028 0)
(-0.00308229 0.012489 0)
(-0.00534117 0.0119075 0)
(-0.00734106 0.0108674 0)
(-0.00907573 0.00957661 0)
(-0.0105265 0.00810962 0)
(-0.0116935 0.00652154 0)
(-0.0125867 0.00485231 0)
(-0.0132184 0.00312773 0)
(-0.0135985 0.00136207 0)
(-0.0137307 -0.000438019 0)
(-0.0136088 -0.00226974 0)
(-0.0132158 -0.0041278 0)
(-0.0125259 -0.00599863 0)
(-0.0115057 -0.00785342 0)
(-0.0101205 -0.00964146 0)
(-0.00834414 -0.0112842 0)
(-0.00617579 -0.012665 0)
(-0.00362413 -0.0134991 0)
(-0.00112495 -0.0115964 0)
(-0.00113527 0.012746 0)
(-0.00368464 0.0149653 0)
(-0.00633723 0.014192 0)
(-0.00863966 0.0128685 0)
(-0.0105943 0.0112651 0)
(-0.0121948 0.00948351 0)
(-0.0134591 0.00759412 0)
(-0.0144149 0.00564303 0)
(-0.0150904 0.00365479 0)
(-0.0155069 0.00163683 0)
(-0.0156751 -0.000414748 0)
(-0.0155902 -0.00250979 0)
(-0.0152296 -0.00465685 0)
(-0.0145542 -0.00685537 0)
(-0.0135088 -0.00908554 0)
(-0.0120287 -0.0112961 0)
(-0.0100523 -0.0133924 0)
(-0.00754337 -0.0152177 0)
(-0.00448953 -0.0163834 0)
(-0.00141028 -0.0141743 0)
(-0.0013964 0.0153348 0)
(-0.00448498 0.0179138 0)
(-0.00762506 0.016858 0)
(-0.0102768 0.0151474 0)
(-0.0124611 0.0131397 0)
(-0.0141976 0.0109722 0)
(-0.0155341 0.00873373 0)
(-0.0165261 0.00647473 0)
(-0.0172247 0.00421392 0)
(-0.0176681 0.00194623 0)
(-0.0178773 -0.000349082 0)
(-0.0178509 -0.0027012 0)
(-0.0175614 -0.00514043 0)
(-0.0169546 -0.00768888 0)
(-0.0159465 -0.0103473 0)
(-0.0144279 -0.0130767 0)
(-0.012279 -0.0157725 0)
(-0.00939459 -0.0182315 0)
(-0.00571447 -0.0199118 0)
(-0.00183163 -0.0174239 0)
(-0.00177084 0.0185311 0)
(-0.00558511 0.0214684 0)
(-0.00932579 0.0199825 0)
(-0.0123684 0.0177271 0)
(-0.01477 0.0151862 0)
(-0.0166009 0.0125422 0)
(-0.0179566 0.00990208 0)
(-0.0189348 0.00731415 0)
(-0.019619 0.00478327 0)
(-0.0200699 0.00228445 0)
(-0.0203225 -0.000227421 0)
(-0.0203816 -0.00280928 0)
(-0.0202173 -0.00552266 0)
(-0.0197611 -0.00842548 0)
(-0.0188966 -0.0115565 0)
(-0.0174547 -0.0149111 0)
(-0.0152239 -0.0184006 0)
(-0.0119663 -0.0217853 0)
(-0.00753001 -0.0242854 0)
(-0.00249743 -0.021664 0)
(-0.00234426 0.0225767 0)
(-0.00716506 0.0258016 0)
(-0.0116298 0.0236482 0)
(-0.015085 0.0206071 0)
(-0.0176467 0.017356 0)
(-0.019482 0.0141257 0)
(-0.0207623 0.0110315 0)
(-0.021645 0.00810516 0)
(-0.0222544 0.00532542 0)
(-0.0226788 0.00263721 0)
(-0.0229711 -3.73426e-05 0)
(-0.0231462 -0.00278921 0)
(-0.0231777 -0.00572391 0)
(-0.0229885 -0.00895068 0)
(-0.0224321 -0.012571 0)
(-0.0212729 -0.0166514 0)
(-0.0191745 -0.0211694 0)
(-0.0156399 -0.0259219 0)
(-0.0103766 -0.0297336 0)
(-0.00364543 -0.0274917 0)
(-0.0032804 0.0280791 0)
(-0.00953708 0.0311927 0)
(-0.0148321 0.0279413 0)
(-0.018675 0.0237345 0)
(-0.0212522 0.0195415 0)
(-0.0229256 0.0156019 0)
(-0.0239773 0.0120111 0)
(-0.024641 0.00875972 0)
(-0.0250869 0.00578145 0)
(-0.0254326 0.00297871 0)
(-0.0257489 0.000233365 0)
(-0.026068 -0.00258727 0)
(-0.0263787 -0.00563932 0)
(-0.0266081 -0.00909931 0)
(-0.026597 -0.0131618 0)
(-0.0260538 -0.0180185 0)
(-0.0245205 -0.0237988 0)
(-0.0210057 -0.030527 0)
(-0.0151661 -0.0364106 0)
(-0.00587629 -0.0360038 0)
(-0.00511093 0.0342706 0)
(-0.0135313 0.0374411 0)
(-0.0194542 0.0327632 0)
(-0.0235021 0.0269345 0)
(-0.0257793 0.0215309 0)
(-0.0270111 0.0167665 0)
(-0.0276021 0.0126705 0)
(-0.0278716 0.00914975 0)
(-0.0280318 0.00606711 0)
(-0.0282227 0.00326746 0)
(-0.0285323 0.00058728 0)
(-0.0290135 -0.00215074 0)
(-0.0296836 -0.0051461 0)
(-0.0305039 -0.00865122 0)
(-0.0313426 -0.0129813 0)
(-0.0319003 -0.0185252 0)
(-0.0316972 -0.0257126 0)
(-0.028894 -0.0353052 0)
(-0.0236932 -0.0442765 0)
(-0.0105525 -0.0492798 0)
(-0.00726089 0.0498756 0)
(-0.018692 0.0464364 0)
(-0.0257517 0.0386181 0)
(-0.0299172 0.0300079 0)
(-0.0313837 0.0229698 0)
(-0.0317303 0.0172882 0)
(-0.0315228 0.0127519 0)
(-0.0311604 0.00909473 0)
(-0.0308744 0.00606372 0)
(-0.0308078 0.00343223 0)
(-0.0310529 0.0009928 0)
(-0.031677 -0.0014619 0)
(-0.0327425 -0.00414994 0)
(-0.0342897 -0.00741724 0)
(-0.0362906 -0.0117404 0)
(-0.0385607 -0.0178866 0)
(-0.0410069 -0.0267068 0)
(-0.0400666 -0.0406234 0)
(-0.0386158 -0.0547994 0)
(-0.0195966 -0.0725624 0)
(-0.0179263 0.0537123 0)
(-0.035596 0.0549294 0)
(-0.035916 0.0435507 0)
(-0.0384719 0.032355 0)
(-0.0373895 0.0235625 0)
(-0.0358163 0.0169588 0)
(-0.034154 0.0121132 0)
(-0.0327451 0.00850377 0)
(-0.0317435 0.00571855 0)
(-0.0312285 0.0034538 0)
(-0.031256 0.00147342 0)
(-0.031878 -0.000431083 0)
(-0.0332358 -0.0024773 0)
(-0.0355225 -0.00492352 0)
(-0.0389846 -0.00814859 0)
(-0.0435859 -0.0131231 0)
(-0.050291 -0.0199736 0)
(-0.052162 -0.0373818 0)
(-0.0586879 -0.0531501 0)
(-0.0269432 -0.104735 0)
(-0.043066 0.119294 0)
(-0.04449 0.0567281 0)
(-0.0378058 0.0423801 0)
(-0.0311391 0.0280615 0)
(-0.0231517 0.0185411 0)
(-0.0167735 0.0127561 0)
(-0.0117997 0.00890842 0)
(-0.00815452 0.00619724 0)
(-0.0056264 0.0042196 0)
(-0.00403959 0.00270376 0)
(-0.00328861 0.00145733 0)
(-0.00333672 0.00032181 0)
(-0.00419819 -0.000890305 0)
(-0.00584608 -0.00246084 0)
(-0.00864966 -0.00489469 0)
(-0.0109083 -0.0100983 0)
(-0.0195757 -0.0197808 0)
(-0.0133361 -0.0455099 0)
(-0.0392844 -0.0865648 0)
(0.00583034 -0.183329 0)
(0.12719 0.115323 0)
(0.140329 0.0539664 0)
(0.207087 0.0324733 0)
(0.233761 0.0196388 0)
(0.250408 0.0114857 0)
(0.262184 0.00700201 0)
(0.270107 0.00452516 0)
(0.275471 0.0030325 0)
(0.27917 0.00206877 0)
(0.281671 0.00140857 0)
(0.283237 0.000924299 0)
(0.284019 0.000543599 0)
(0.283951 0.000217049 0)
(0.283255 -0.000221502 0)
(0.28004 -0.000824216 0)
(0.278367 -0.00269041 0)
(0.259606 -0.0064334 0)
(0.262516 -0.0167962 0)
(0.169521 -0.0374243 0)
(0.167447 -0.104081 0)
)
;

boundaryField
{
    movingWall
    {
        type            fixedValue;
        value           uniform (1 0 0);
    }
    fixedWalls
    {
        type            noSlip;
    }
    frontAndBack
    {
        type            empty;
    }
}


// ************************************************************************* //
