/*--------------------------------*- C++ -*----------------------------------*\
  =========                 |
  \\      /  F ield         | OpenFOAM: The Open Source CFD Toolbox
   \\    /   O peration     | Website:  https://openfoam.org
    \\  /    A nd           | Version:  10
     \\/     M anipulation  |
\*---------------------------------------------------------------------------*/
FoamFile
{
    format      ascii;
    class       volVectorField;
    location    "6.15";
    object      U;
}
// * * * * * * * * * * * * * * * * * * * * * * * * * * * * * * * * * * * * * //

dimensions      [0 1 -1 0 0 0 0];

internalField   nonuniform List<vector> 
475
(
(0.974105 0.0159651 0)
(0.976271 0.00651717 0)
(0.949957 0.0314135 0)
(0.95521 0.000858751 0)
(0.919754 0.0301439 0)
(0.998445 0.0086852 0)
(1.01416 0.0145311 0)
(1.02539 0.0155481 0)
(1.04355 0.00818488 0)
(1.05548 0.00194708 0)
(1.00011 0.000135247 0)
(1.00945 -0.00315568 0)
(1.02462 -0.00447076 0)
(1.04078 -0.0094343 0)
(1.05675 -0.0143431 0)
(0.999885 -0.0101498 0)
(1.01007 -0.019412 0)
(1.02266 -0.0222572 0)
(1.03503 -0.0227963 0)
(1.04502 -0.0259967 0)
(0.980437 -0.00958754 0)
(0.969515 -0.0190898 0)
(0.953215 -0.0220989 0)
(0.933641 -0.0219035 0)
(0.907435 -0.0234988 0)
(0.926278 -0.0168836 0)
(0.932683 -0.0348692 0)
(0.937016 -0.0453079 0)
(0.944413 -0.0541682 0)
(0.955262 -0.062564 0)
(0.973975 -0.076495 0)
(0.996731 -0.0968369 0)
(1.02172 -0.122952 0)
(1.04537 -0.15359 0)
(1.0659 -0.185884 0)
(1.08167 -0.217809 0)
(1.08974 -0.246113 0)
(1.08969 -0.267341 0)
(1.08148 -0.278472 0)
(1.06479 -0.279294 0)
(1.04017 -0.269454 0)
(1.00824 -0.250361 0)
(0.974545 -0.223869 0)
(0.942195 -0.189754 0)
(0.908833 -0.15097 0)
(0.878123 -0.111003 0)
(0.848619 -0.0713513 0)
(0.817476 -0.035102 0)
(0.789388 -0.00391565 0)
(0.768003 0.021375 0)
(0.751693 0.0401564 0)
(0.737205 0.0550319 0)
(0.722881 0.067355 0)
(0.708891 0.0748561 0)
(0.695945 0.0759446 0)
(0.684517 0.0735559 0)
(0.67494 0.0725474 0)
(0.667547 0.0747733 0)
(0.662373 0.0778511 0)
(0.658865 0.0780769 0)
(0.656081 0.0733118 0)
(0.653248 0.0639535 0)
(0.650098 0.0517849 0)
(0.646865 0.0391049 0)
(0.643941 0.0273919 0)
(0.64154 0.0178446 0)
(0.639814 0.0105174 0)
(0.638566 0.00547811 0)
(0.637908 0.00235831 0)
(0.637272 0.000238402 0)
(1.06869 -0.00939732 0)
(1.0777 -0.0211364 0)
(1.08324 -0.032313 0)
(1.08603 -0.0436305 0)
(1.08868 -0.0557711 0)
(1.09219 -0.0725737 0)
(1.09576 -0.0937114 0)
(1.09716 -0.121265 0)
(1.0942 -0.151254 0)
(1.08683 -0.183103 0)
(1.07147 -0.212723 0)
(1.04966 -0.237258 0)
(1.01928 -0.252602 0)
(0.983328 -0.25395 0)
(0.940613 -0.246495 0)
(0.888877 -0.232262 0)
(0.833893 -0.210151 0)
(0.779624 -0.178414 0)
(0.729066 -0.14045 0)
(0.681859 -0.10204 0)
(0.640303 -0.0662448 0)
(0.602797 -0.0320674 0)
(0.567339 -0.00247005 0)
(0.538058 0.0191534 0)
(0.515404 0.0363917 0)
(0.497018 0.0542622 0)
(0.482905 0.0717727 0)
(0.475285 0.0842356 0)
(0.475291 0.0882205 0)
(0.48139 0.0848626 0)
(0.490734 0.0788867 0)
(0.501381 0.0746442 0)
(0.513046 0.0733401 0)
(0.526164 0.0730794 0)
(0.540755 0.0710546 0)
(0.556045 0.0654595 0)
(0.570907 0.0563822 0)
(0.58436 0.0450753 0)
(0.595806 0.0334474 0)
(0.605035 0.0227742 0)
(0.612086 0.014216 0)
(0.617191 0.0077202 0)
(0.620757 0.00352259 0)
(0.622874 0.000914067 0)
(0.624611 -0.00050851 0)
(1.06801 -0.0229087 0)
(1.07673 -0.0320728 0)
(1.08092 -0.0441885 0)
(1.082 -0.0554662 0)
(1.08023 -0.0683585 0)
(1.07599 -0.0829059 0)
(1.06977 -0.100726 0)
(1.05864 -0.122714 0)
(1.04354 -0.145815 0)
(1.02128 -0.17291 0)
(0.992944 -0.195003 0)
(0.958473 -0.214033 0)
(0.913693 -0.218274 0)
(0.863754 -0.204353 0)
(0.797428 -0.189525 0)
(0.720015 -0.177062 0)
(0.645101 -0.160321 0)
(0.569082 -0.133311 0)
(0.498348 -0.0987518 0)
(0.437388 -0.0595828 0)
(0.387204 -0.0228199 0)
(0.348866 0.00670202 0)
(0.318494 0.031315 0)
(0.295799 0.0512758 0)
(0.282252 0.06566 0)
(0.278982 0.0742608 0)
(0.286106 0.0775713 0)
(0.302385 0.076044 0)
(0.324654 0.0705631 0)
(0.349096 0.0631993 0)
(0.373027 0.0566632 0)
(0.395773 0.0527357 0)
(0.418227 0.0512552 0)
(0.441499 0.0504031 0)
(0.465818 0.0481105 0)
(0.490271 0.0432041 0)
(0.513353 0.0359116 0)
(0.53366 0.0272723 0)
(0.550255 0.0187692 0)
(0.562926 0.0113211 0)
(0.571791 0.00576431 0)
(0.577653 0.00181512 0)
(0.580977 -0.000242248 0)
(0.582892 -0.00151971 0)
(0.583572 -0.00157011 0)
(1.04925 -0.0303115 0)
(1.05191 -0.0360399 0)
(1.04693 -0.0434391 0)
(1.0411 -0.0502645 0)
(1.02595 -0.0588259 0)
(1.0096 -0.0671505 0)
(0.984 -0.0793478 0)
(0.953162 -0.0923564 0)
(0.912778 -0.109123 0)
(0.860762 -0.12688 0)
(0.802277 -0.142721 0)
(0.725554 -0.158884 0)
(0.647433 -0.152886 0)
(0.565312 -0.13074 0)
(0.441136 -0.102331 0)
(0.29397 -0.0605073 0)
(0.182704 -0.0244732 0)
(0.107415 -0.0094182 0)
(0.0608974 -0.00194512 0)
(0.0381368 0.0074266 0)
(0.0293672 0.0197828 0)
(0.0330946 0.032412 0)
(0.0474807 0.042664 0)
(0.0691296 0.0485746 0)
(0.0959197 0.0503548 0)
(0.126541 0.0493099 0)
(0.159743 0.0467012 0)
(0.193737 0.0429633 0)
(0.226707 0.0384784 0)
(0.257198 0.0339457 0)
(0.284795 0.0301768 0)
(0.310221 0.0275566 0)
(0.334624 0.0257501 0)
(0.358726 0.0239113 0)
(0.382363 0.0212374 0)
(0.404496 0.0174385 0)
(0.423811 0.0128941 0)
(0.43929 0.00829867 0)
(0.450566 0.00437233 0)
(0.457954 0.00143817 0)
(0.462096 -0.00037741 0)
(0.464025 -0.00140134 0)
(0.464194 -0.00161294 0)
(0.46405 -0.00169396 0)
(0.462696 -0.00117301 0)
(0.879622 -0.0236636 0)
(0.848598 -0.0269357 0)
(0.813733 -0.0280241 0)
(0.776661 -0.0315571 0)
(0.730312 -0.0335936 0)
(0.684376 -0.0372865 0)
(0.623095 -0.0428481 0)
(0.562515 -0.0470846 0)
(0.480985 -0.0584356 0)
(0.394437 -0.0614062 0)
(0.290616 -0.0807379 0)
(0.153044 -0.0758023 0)
(0.047281 -0.0181693 0)
(-0.0178475 0.0337793 0)
(-0.0472853 0.0570573 0)
(-0.0579782 0.0425528 0)
(-0.0639212 0.00784186 0)
(-0.0748375 -0.0184935 0)
(-0.0908739 -0.0263179 0)
(-0.103501 -0.0226401 0)
(-0.106502 -0.0142591 0)
(-0.0988276 -0.00480192 0)
(-0.0817724 0.0024207 0)
(-0.057991 0.00663899 0)
(-0.0307041 0.00850553 0)
(-0.00229968 0.00897557 0)
(0.0255578 0.00868839 0)
(0.0517218 0.00798388 0)
(0.0755274 0.00706301 0)
(0.0966339 0.00604972 0)
(0.115224 0.00509361 0)
(0.131852 0.00427681 0)
(0.147112 0.00357441 0)
(0.161237 0.00290457 0)
(0.173967 0.00219402 0)
(0.184729 0.00145604 0)
(0.193028 0.000783959 0)
(0.198691 0.000261932 0)
(0.201966 -7.44997e-05 0)
(0.203343 -0.000255315 0)
(0.20346 -0.000333002 0)
(0.202862 -0.000349936 0)
(0.201948 -0.00031037 0)
(0.201105 -0.000263222 0)
(0.19993 -0.000163536 0)
(0.00497607 -0.0316041 0)
(0.006799 -0.0304765 0)
(-0.00652966 -0.010168 0)
(-0.0490222 0.0228591 0)
(-0.121795 0.0411425 0)
(-0.197415 0.0426556 0)
(-0.261989 0.0373857 0)
(-0.312739 0.0301942 0)
(-0.345771 0.0220696 0)
(-0.361085 0.0131898 0)
(-0.359251 0.00363117 0)
(-0.340512 -0.00609313 0)
(-0.306249 -0.015065 0)
(-0.258348 -0.022502 0)
(-0.199729 -0.028073 0)
(-0.134816 -0.0301356 0)
(-0.0673794 -0.0306556 0)
(8.2912e-05 -0.029412 0)
(0.0645208 -0.0263892 0)
(0.122653 -0.0222923 0)
(0.172511 -0.0176169 0)
(0.212961 -0.0127319 0)
(0.243895 -0.00801902 0)
(0.266014 -0.00377172 0)
(0.279758 0.00082137 0)
(0.284703 0.00759805 0)
(0.280708 0.0164491 0)
(0.268315 0.022017 0)
(0.249877 0.0203851 0)
(0.228901 0.0132917 0)
(0.208888 0.00496661 0)
(0.192124 -0.00094819 0)
(0.179739 -0.00346793 0)
(0.171893 -0.0036943 0)
(0.168125 -0.00315337 0)
(0.167688 -0.00267122 0)
(0.169746 -0.00243304 0)
(0.173387 -0.00225161 0)
(0.177758 -0.00201285 0)
(0.182176 -0.00169655 0)
(0.186137 -0.00133103 0)
(0.18942 -0.000987631 0)
(0.191996 -0.00068407 0)
(0.193791 -0.000474066 0)
(0.195601 -0.000254554 0)
(-0.00481841 0.022067 0)
(-0.0385464 0.0444297 0)
(-0.0938974 0.071915 0)
(-0.140763 0.094729 0)
(-0.184628 0.100397 0)
(-0.215672 0.0915658 0)
(-0.237605 0.0733029 0)
(-0.247177 0.0517149 0)
(-0.244729 0.0269279 0)
(-0.229568 0.00135857 0)
(-0.20112 -0.0248602 0)
(-0.160355 -0.0497573 0)
(-0.106867 -0.0717706 0)
(-0.0437468 -0.0897836 0)
(0.0275975 -0.101592 0)
(0.103917 -0.107241 0)
(0.179108 -0.10772 0)
(0.251946 -0.103624 0)
(0.320289 -0.0952114 0)
(0.38122 -0.0835907 0)
(0.433329 -0.0699362 0)
(0.475853 -0.0554147 0)
(0.508175 -0.0415196 0)
(0.530593 -0.0288448 0)
(0.544222 -0.0175003 0)
(0.552047 -0.00799205 0)
(0.556101 0.000511876 0)
(0.5568 0.00907869 0)
(0.556226 0.0180723 0)
(0.554255 0.0265621 0)
(0.54767 0.0318026 0)
(0.533664 0.0311121 0)
(0.512691 0.0247281 0)
(0.488879 0.0157915 0)
(0.467231 0.00727181 0)
(0.451106 0.000600408 0)
(0.441583 -0.00394752 0)
(0.437838 -0.00651295 0)
(0.438077 -0.0073723 0)
(0.440535 -0.00710464 0)
(0.443929 -0.00610446 0)
(0.44722 -0.00495468 0)
(0.450402 -0.00364288 0)
(0.452419 -0.00281575 0)
(0.45518 -0.00163162 0)
(-0.0317697 0.00253711 0)
(-0.0621065 0.0525709 0)
(-0.0645946 0.079801 0)
(-0.0595594 0.10105 0)
(-0.0471588 0.105681 0)
(-0.028799 0.0921959 0)
(-0.00793438 0.0669865 0)
(0.0151458 0.0375389 0)
(0.044505 0.00599303 0)
(0.0819419 -0.0277929 0)
(0.129675 -0.0640758 0)
(0.184642 -0.0995865 0)
(0.245554 -0.131169 0)
(0.31129 -0.157365 0)
(0.378106 -0.173525 0)
(0.444453 -0.180499 0)
(0.507467 -0.179791 0)
(0.565615 -0.17185 0)
(0.618114 -0.156607 0)
(0.663096 -0.135997 0)
(0.69883 -0.112921 0)
(0.72531 -0.0882766 0)
(0.74346 -0.0630487 0)
(0.753634 -0.0408364 0)
(0.756409 -0.0234494 0)
(0.753843 -0.00732513 0)
(0.746923 0.008679 0)
(0.736276 0.0208179 0)
(0.723791 0.0262003 0)
(0.713023 0.0270373 0)
(0.705898 0.0290473 0)
(0.700224 0.034662 0)
(0.691582 0.0403094 0)
(0.676821 0.0407852 0)
(0.656394 0.0342137 0)
(0.634099 0.022861 0)
(0.613965 0.010867 0)
(0.598332 0.0012181 0)
(0.587706 -0.00480341 0)
(0.581305 -0.00764255 0)
(0.578121 -0.00804962 0)
(0.576783 -0.00749559 0)
(0.576874 -0.00598294 0)
(0.577051 -0.00506601 0)
(0.578283 -0.00316998 0)
(-0.0248455 0.138493 0)
(-0.0122979 0.0946196 0)
(0.014232 0.0872212 0)
(0.0563375 0.088061 0)
(0.106283 0.0832178 0)
(0.161198 0.06722 0)
(0.217445 0.0419138 0)
(0.272438 0.0074785 0)
(0.328952 -0.0328492 0)
(0.388058 -0.0753504 0)
(0.449618 -0.118943 0)
(0.511234 -0.159619 0)
(0.572947 -0.194138 0)
(0.633248 -0.221165 0)
(0.689214 -0.237138 0)
(0.740118 -0.241224 0)
(0.78463 -0.236318 0)
(0.821766 -0.222143 0)
(0.851766 -0.199045 0)
(0.875006 -0.169497 0)
(0.890826 -0.135893 0)
(0.898733 -0.10208 0)
(0.900098 -0.0700938 0)
(0.896365 -0.0408852 0)
(0.888018 -0.0165948 0)
(0.875749 0.00254695 0)
(0.86073 0.0183314 0)
(0.844347 0.031127 0)
(0.827029 0.038577 0)
(0.809359 0.0403063 0)
(0.793487 0.0403524 0)
(0.780847 0.0434171 0)
(0.770081 0.0494786 0)
(0.758403 0.0539571 0)
(0.743568 0.0526322 0)
(0.725151 0.0446785 0)
(0.704629 0.0326909 0)
(0.684368 0.0201905 0)
(0.666515 0.00993597 0)
(0.652173 0.00275088 0)
(0.641481 -0.00128357 0)
(0.634079 -0.00345137 0)
(0.629259 -0.00376513 0)
(0.626577 -0.00393473 0)
(0.624676 -0.00285098 0)
(0.0832429 0.000953489 0)
(0.117134 -0.00591916 0)
(0.206013 -0.00595593 0)
(0.278113 -0.00790585 0)
(0.349712 -0.0138886 0)
(0.426527 -0.0293697 0)
(0.501734 -0.0518862 0)
(0.573535 -0.0813875 0)
(0.642932 -0.116831 0)
(0.70898 -0.153779 0)
(0.771466 -0.192561 0)
(0.826652 -0.2292 0)
(0.874581 -0.257125 0)
(0.915059 -0.276358 0)
(0.945934 -0.285355 0)
(0.966941 -0.281142 0)
(0.97875 -0.26823 0)
(0.984525 -0.247992 0)
(0.984456 -0.217237 0)
(0.97872 -0.180112 0)
(0.969722 -0.140953 0)
(0.956884 -0.100525 0)
(0.940596 -0.0623075 0)
(0.922231 -0.0297417 0)
(0.903922 -0.00334836 0)
(0.88548 0.0183524 0)
(0.865662 0.0374037 0)
(0.845397 0.0529688 0)
(0.826248 0.0614712 0)
(0.808788 0.0618312 0)
(0.792848 0.0583385 0)
(0.778637 0.057042 0)
(0.766384 0.0602382 0)
(0.755224 0.0648488 0)
(0.743451 0.0660108 0)
(0.729867 0.0612148 0)
(0.714503 0.0514943 0)
(0.69835 0.0394335 0)
(0.682853 0.0277179 0)
(0.669284 0.0176546 0)
(0.658313 0.0101495 0)
(0.650267 0.0047643 0)
(0.644475 0.00158965 0)
(0.641139 -0.000367073 0)
(0.638163 -0.00115955 0)
)
;

boundaryField
{
    inlet
    {
        type            fixedValue;
        value           uniform (1 0 0);
    }
    outlet
    {
        type            zeroGradient;
    }
    upperWall
    {
        type            noSlip;
    }
    lowerWall
    {
        type            noSlip;
    }
    frontAndBack
    {
        type            empty;
    }
}


// ************************************************************************* //
