/*--------------------------------*- C++ -*----------------------------------*\
  =========                 |
  \\      /  F ield         | OpenFOAM: The Open Source CFD Toolbox
   \\    /   O peration     | Website:  https://openfoam.org
    \\  /    A nd           | Version:  10
     \\/     M anipulation  |
\*---------------------------------------------------------------------------*/
FoamFile
{
    format      ascii;
    class       surfaceScalarField;
    location    "5.175";
    object      phi;
}
// * * * * * * * * * * * * * * * * * * * * * * * * * * * * * * * * * * * * * //

dimensions      [0 3 -1 0 0 0 0];

internalField   nonuniform List<scalar> 
890
(
0.00984458
0.00015542
0.00971193
0.00013265
0.0094716
0.00024033
0.00941183
5.97675e-05
0.000145338
0.0092665
0.0101187
3.66932e-05
0.0102013
5.00721e-05
0.0104063
3.53218e-05
0.010469
-2.9556e-06
-6.83567e-05
0.0106827
0.0100722
-3.55126e-05
0.0102193
-9.69867e-05
0.0103752
-0.000120566
0.0105244
-0.000152217
-0.000187394
0.0106435
0.0100921
-0.000127659
0.0102168
-0.000221609
0.0103298
-0.000233618
0.0104197
-0.000242104
-0.000245509
0.0104778
0.00987234
0.00965073
0.00941711
0.00917501
0.0089295
0.00926013
-9.49381e-05
0.000101301
0.00928145
-0.000246836
0.000225517
0.00938202
-0.000361045
0.000260472
0.0095553
-0.000457069
0.000283795
0.00977952
-0.000591519
0.000367299
0.0100222
-0.000806407
0.000563724
0.0102713
-0.00110514
0.000856064
0.010495
-0.00143479
0.00121109
0.0106856
-0.00180444
0.00161383
0.0108218
-0.00217143
0.00203524
0.0108728
-0.00249519
0.00244419
0.0108548
-0.00275689
0.00277488
0.0107517
-0.00285754
0.00296065
0.0105321
-0.00281857
0.00303819
0.010239
-0.00268112
0.00297422
0.00990179
-0.00242498
0.00276214
0.00952247
-0.00209918
0.0024785
0.00910902
-0.00169565
0.0021091
0.00866391
-0.00120969
0.0016548
0.00822383
-0.000766651
0.00120673
0.00781813
-0.000385425
0.000791133
0.00741929
1.63436e-05
0.000382496
0.0070193
0.00038696
1.30227e-05
0.00665052
0.00066682
-0.000298031
0.00633747
0.000777922
-0.00046488
0.00612133
0.000785723
-0.00056958
0.00601342
0.000788672
-0.000680756
0.00600025
0.000831183
-0.000818016
0.00604816
0.00088396
-0.000931871
0.00611773
0.000895789
-0.000965363
0.00617965
0.000840851
-0.000902772
0.00622056
0.000728125
-0.000769029
0.00624032
0.000584397
-0.00060416
0.0062454
0.000437071
-0.000442149
0.006243
0.000305461
-0.000303059
0.00623826
0.000199086
-0.000194351
0.00623383
0.000120009
-0.000115575
0.00623054
6.53067e-05
-6.20163e-05
0.00622844
3.03268e-05
-2.82294e-05
0.00622726
9.42635e-06
-8.24072e-06
0.00622654
-1.36283e-06
2.07775e-06
0.00622602
-6.61663e-06
7.13706e-06
0.00622562
-7.46126e-06
7.86026e-06
0.00622524
-7.73066e-06
8.11131e-06
-5.45629e-06
5.70907e-06
0.0107441
-0.000156313
0.0107862
-0.000288881
0.0108316
-0.000406521
0.0109061
-0.000531507
0.0109917
-0.000677159
0.0110395
-0.000854217
0.0110486
-0.00111418
0.0109971
-0.00138334
0.0108947
-0.00170206
0.0107104
-0.0019871
0.0104612
-0.00224602
0.0101508
-0.00244651
0.00974699
-0.0024537
0.00925489
-0.00232647
0.00871353
-0.00213976
0.00815425
-0.0018657
0.00758012
-0.00152505
0.0070012
-0.00111674
0.0064493
-0.000657785
0.00592211
-0.000239465
0.0054078
0.000128886
0.00493367
0.000490475
0.00454597
0.000774654
0.00432394
0.000888849
0.00425931
0.000842561
0.00431014
0.000734885
0.00444092
0.000657895
0.00463193
0.000640177
0.00486315
0.000652735
0.00510894
0.00065
0.0053436
0.000606189
0.00554937
0.000522359
0.00571847
0.00041529
0.00585063
0.000304916
0.00594961
0.000206477
0.00602089
0.000127813
0.00607021
7.06882e-05
0.00610288
3.26364e-05
0.00612351
9.6928e-06
0.00613582
-2.88327e-06
0.0061427
-8.24395e-06
0.00614613
-1.00402e-05
0.00614761
-8.94171e-06
0.006148
-8.12625e-06
-5.29992e-06
0.0107323
-0.000245145
0.0107854
-0.000342004
0.010807
-0.000428077
0.0108216
-0.000546168
0.010802
-0.000657575
0.0107549
-0.000807103
0.0106341
-0.000993347
0.0104594
-0.00120866
0.0102317
-0.00147435
0.00993982
-0.00169522
0.00962588
-0.00193209
0.00914248
-0.00196311
0.00851273
-0.00182394
0.00788063
-0.00169436
0.00717405
-0.00143318
0.00638218
-0.00107382
0.00559534
-0.000738212
0.00489299
-0.000414378
0.0043097
-7.4493e-05
0.00382908
0.00024115
0.00344608
0.000511882
0.00322008
0.000716476
0.00318963
0.000805107
0.00331023
0.000768252
0.00350124
0.000651548
0.00370655
0.000529575
0.00391638
0.000448061
0.00414415
0.000412409
0.0043972
0.000399687
0.0046652
0.000382002
0.00492751
0.000343875
0.00516445
0.000285424
0.00536307
0.000216671
0.00551861
0.000149369
0.00563292
9.21718e-05
0.00571174
4.89879e-05
0.0057626
1.98276e-05
0.00579297
2.26631e-06
0.0058096
-6.92936e-06
0.00581733
-1.06132e-05
0.00581996
-1.08733e-05
0.00581973
-9.81772e-06
0.00581845
-7.65732e-06
0.0058166
-6.28125e-06
-3.83568e-06
0.0105172
-0.00028448
0.0104977
-0.000322518
0.0104421
-0.000372482
0.0103277
-0.000431746
0.0101538
-0.000483698
0.00992912
-0.00058245
0.0095932
-0.000657421
0.00918752
-0.000802977
0.00864431
-0.000931145
0.00803221
-0.00108312
0.00738733
-0.0012872
0.00655611
-0.00113188
0.00546395
-0.000731781
0.0041715
-0.00040192
0.00293467
-0.00019635
0.00195536
-9.45095e-05
0.00129707
-7.99231e-05
0.000929492
-4.68013e-05
0.000799022
5.59778e-05
0.000861413
0.000178759
0.00107831
0.000294987
0.00142229
0.000372498
0.00183951
0.000387887
0.00225665
0.000351109
0.00262083
0.000287367
0.00292247
0.000227935
0.00318231
0.00018822
0.00342755
0.000167167
0.00367255
0.000154689
0.00391409
0.000140462
0.00413826
0.000119711
0.00433111
9.25682e-05
0.00448391
6.38709e-05
0.00459509
3.81935e-05
0.00466899
1.82676e-05
0.0047133
4.68049e-06
0.00473617
-3.04816e-06
0.00474509
-6.64565e-06
0.00474584
-7.68498e-06
0.00474253
-7.29694e-06
0.00473781
-6.16294e-06
0.00473292
-4.91901e-06
0.00472884
-3.58581e-06
0.00472529
-2.73173e-06
-1.57421e-06
0.00864502
0.0083225
0.00795002
0.00751828
0.00703458
0.00645213
0.00579471
0.00499173
0.00406058
0.00297747
0.00169026
0.000558377
-0.000173405
-0.000575325
-0.000771675
-0.000866184
-0.000946107
-0.000992909
-0.000936931
-0.000758171
-0.000463184
-9.06863e-05
0.0002972
0.000648309
0.000935676
0.00116361
0.00135183
0.001519
0.00167369
0.00181415
0.00193386
0.00202643
0.0020903
0.00212849
0.00214676
0.00215144
0.00214839
0.00214175
0.00213406
0.00212677
0.0021206
0.00211568
0.0021121
0.00210937
3.95501e-05
-3.95501e-05
-7.06118e-05
0.000110162
-0.00049104
0.000420428
-0.0012402
0.000749155
-0.00211117
0.000870972
-0.0028955
0.000784334
-0.00350067
0.000605166
-0.00389959
0.000398927
-0.00407109
0.0001715
-0.00401796
-5.3131e-05
-0.00376165
-0.00025631
-0.00331953
-0.000442127
-0.00271847
-0.000601055
-0.00200293
-0.000715543
-0.00122906
-0.000773866
-0.000435028
-0.000794033
0.000349631
-0.000784659
0.00109018
-0.000740553
0.00176182
-0.000671633
0.00234627
-0.000584455
0.00282332
-0.000477048
0.00316905
-0.000345727
0.00336159
-0.000192548
0.0033823
-2.07075e-05
0.00324597
0.000136335
0.00298781
0.00025816
0.00268052
0.000307286
0.00239786
0.000282661
0.00218252
0.000215343
0.00204316
0.000139352
0.00196937
7.37962e-05
0.00194364
2.57251e-05
0.00194804
-4.39373e-06
0.00196727
-1.92375e-05
0.00199198
-2.47079e-05
0.00201644
-2.44591e-05
0.00203794
-2.14982e-05
0.00205561
-1.76717e-05
0.00206946
-1.38453e-05
0.00207996
-1.05048e-05
0.00208767
-7.70886e-06
0.00209328
-5.60583e-06
0.00209714
-3.86065e-06
0.00209996
-2.81987e-06
-1.59502e-06
-0.000296465
0.000256914
-0.000862113
0.000675811
-0.00144463
0.00100295
-0.00192672
0.00123124
-0.00230798
0.00125223
-0.00258061
0.00105696
-0.00271505
0.000739608
-0.00270246
0.000386339
-0.00253001
-9.50703e-07
-0.00222777
-0.000355373
-0.00175971
-0.000724376
-0.00114911
-0.00105273
-0.000421467
-0.00132869
0.000381771
-0.00151878
0.00121083
-0.00160293
0.00203177
-0.00161497
0.00282276
-0.00157564
0.00354811
-0.00146591
0.00417511
-0.00129863
0.00470375
-0.0011131
0.00513799
-0.00091129
0.00546952
-0.000677258
0.00571464
-0.000437666
0.00591581
-0.000221871
0.00606545
-1.33062e-05
0.00611347
0.000210141
0.00601131
0.000409444
0.00577127
0.000522702
0.00546436
0.000522247
0.00517123
0.00043249
0.00494173
0.000303295
0.00478826
0.000179197
0.00469985
8.40113e-05
0.00465818
2.24345e-05
0.00464458
-1.11127e-05
0.00464603
-2.59092e-05
0.00465448
-2.99464e-05
0.00466534
-2.85278e-05
0.00467609
-2.45971e-05
0.0046857
-2.01117e-05
0.00469363
-1.56459e-05
0.00470009
-1.20604e-05
0.00470485
-8.62276e-06
0.0047087
-6.66576e-06
-3.95776e-06
-0.00046263
0.000719545
-0.000595915
0.000809096
-0.000550915
0.000957948
-0.000420971
0.0011013
-0.000246253
0.00107752
-3.84709e-05
0.000849182
0.000204564
0.000496573
0.000501342
8.95608e-05
0.000874607
-0.000374216
0.00136366
-0.000844427
0.00194076
-0.00130147
0.00258056
-0.00169252
0.00325631
-0.00200445
0.00395968
-0.00222215
0.00465109
-0.00229434
0.00529057
-0.00225445
0.00587134
-0.00215641
0.00637389
-0.00196846
0.00676631
-0.00169105
0.00704558
-0.00139236
0.00723238
-0.00109809
0.00733483
-0.000779708
0.0073522
-0.000455042
0.00731902
-0.000188689
0.00730245
3.25872e-06
0.00731049
0.000202106
0.00729551
0.00042442
0.00719639
0.000621824
0.00700133
0.00071731
0.00674639
0.000687433
0.00648566
0.00056402
0.00626013
0.000404733
0.00608742
0.000256715
0.00596669
0.000143167
0.00588844
6.71396e-05
0.00584096
2.15672e-05
0.0058141
-3.09104e-06
0.00580071
-1.51293e-05
0.00579514
-1.90267e-05
0.00579407
-1.90445e-05
0.00579522
-1.6797e-05
0.00579745
-1.42956e-05
0.00579973
-1.09018e-05
0.00580205
-8.98579e-06
-5.58562e-06
-0.000126244
0.000845788
0.000149735
0.000533117
0.000583568
0.000524115
0.0011352
0.000549664
0.00173403
0.000478685
0.00232542
0.000257797
0.00290502
-8.30339e-05
0.00348609
-0.000491503
0.00406492
-0.000953054
0.00465339
-0.00143289
0.00526113
-0.00190922
0.00587124
-0.00230263
0.0064466
-0.0025798
0.00699032
-0.00276587
0.00749126
-0.00279528
0.00791029
-0.00267348
0.00823696
-0.00248309
0.00847147
-0.00220296
0.00861044
-0.00183001
0.00865482
-0.00143675
0.00861837
-0.00106164
0.00852554
-0.000686876
0.00838601
-0.000315518
0.00820565
-8.32229e-06
0.00801238
0.000196524
0.00786537
0.000349122
0.00776437
0.000525419
0.00766886
0.000717333
0.0075339
0.000852262
0.00734634
0.000874995
0.0071225
0.000787864
0.00689246
0.000634776
0.00668368
0.000465494
0.00651221
0.000314635
0.00638229
0.000197059
0.00629031
0.000113546
0.00622886
5.83593e-05
0.00618973
2.40014e-05
0.00616624
4.46497e-06
0.00615301
-5.81962e-06
0.00614614
-9.92676e-06
0.00614305
-1.11972e-05
0.00614192
-9.77961e-06
0.00614185
-8.91484e-06
-5.91749e-06
0.00094709
0.00170572
0.00249031
0.00332377
0.00416975
0.00499128
0.00576431
0.0064839
0.00714467
0.00774702
0.00828199
0.00875425
0.00913509
0.00940741
0.00958635
0.009675
0.00967041
0.00957655
0.00940134
0.00917132
0.00890081
0.00859643
0.00829393
0.00798758
0.00771922
0.00749877
0.00734343
0.00724275
0.00716314
0.00707277
0.00695786
0.00682361
0.00668494
0.00655743
0.00645143
0.00637062
0.00631341
0.00627539
0.00625163
0.00623757
0.00622972
0.00622566
0.00622374
0.00622293
)
;

boundaryField
{
    inlet
    {
        type            calculated;
        value           nonuniform List<scalar> 5(-0.01 -0.01 -0.01 -0.01 -0.01);
    }
    outlet
    {
        type            calculated;
        value           nonuniform List<scalar> 10(0.00622499 0.00614785 0.00581514 0.00472303 0.00210779 0.00210155 0.00471106 0.00580368 0.00614218 0.00622273);
    }
    upperWall
    {
        type            calculated;
        value           uniform 0;
    }
    lowerWall
    {
        type            calculated;
        value           uniform 0;
    }
    frontAndBack
    {
        type            empty;
        value           nonuniform List<scalar> 0();
    }
}


// ************************************************************************* //
