/*--------------------------------*- C++ -*----------------------------------*\
  =========                 |
  \\      /  F ield         | OpenFOAM: The Open Source CFD Toolbox
   \\    /   O peration     | Website:  https://openfoam.org
    \\  /    A nd           | Version:  10
     \\/     M anipulation  |
\*---------------------------------------------------------------------------*/
FoamFile
{
    format      ascii;
    class       surfaceScalarField;
    location    "2.35";
    object      phi;
}
// * * * * * * * * * * * * * * * * * * * * * * * * * * * * * * * * * * * * * //

dimensions      [0 3 -1 0 0 0 0];

internalField   nonuniform List<scalar> 
22800
(
-4.55481e-06
4.67557e-06
-1.26217e-07
-1.1639e-05
6.95372e-06
1.3051e-07
-1.88751e-05
7.04368e-06
1.92336e-07
-2.57749e-05
6.68118e-06
2.18709e-07
-3.21274e-05
6.13913e-06
2.1334e-07
-3.77685e-05
5.45276e-06
1.88348e-07
-4.25503e-05
4.6318e-06
1.49987e-07
-4.63363e-05
3.68516e-06
1.00789e-07
-4.9002e-05
2.62377e-06
4.19542e-08
-5.04397e-05
1.46117e-06
-2.33992e-08
-5.05594e-05
2.1756e-07
-9.78823e-08
-4.92906e-05
-1.09268e-06
-1.76132e-07
-4.66024e-05
-2.43112e-06
-2.57126e-07
-4.25029e-05
-3.76224e-06
-3.37271e-07
-3.70512e-05
-5.04003e-06
-4.11617e-07
-3.03675e-05
-6.21072e-06
-4.72959e-07
-2.26466e-05
-7.21189e-06
-5.09009e-07
-1.41982e-05
-7.9483e-06
-5.00101e-07
-5.69307e-06
-8.07021e-06
-4.34961e-07
-5.59288e-06
-1.00196e-07
-6.9798e-06
1.21123e-05
-4.56947e-07
-1.71224e-05
1.7294e-05
-1.97642e-07
-2.7408e-05
1.74472e-05
-1.17905e-07
-3.71829e-05
1.65179e-05
-6.18279e-08
-4.6147e-05
1.51369e-05
-3.36409e-08
-5.4067e-05
1.33951e-05
-2.24106e-08
-6.07369e-05
1.13232e-05
-2.13842e-08
-6.59721e-05
8.94903e-06
-2.87326e-08
-6.96082e-05
6.30408e-06
-4.41671e-08
-7.15017e-05
3.42273e-06
-6.80509e-08
-7.15513e-05
3.65782e-07
-9.86876e-08
-6.96615e-05
-2.84457e-06
-1.37851e-07
-6.58009e-05
-6.11089e-06
-1.80858e-07
-5.99901e-05
-9.34715e-06
-2.25895e-07
-5.23159e-05
-1.24458e-05
-2.68444e-07
-4.29464e-05
-1.52791e-05
-3.01121e-07
-3.21496e-05
-1.76984e-05
-3.10335e-07
-2.03473e-05
-1.94757e-05
-2.74914e-07
-8.42522e-06
-1.98042e-05
-1.88106e-07
-1.41902e-05
1.72067e-07
-7.57737e-06
2.0272e-05
-5.82277e-07
-1.85558e-05
2.85933e-05
-3.20946e-07
-2.96683e-05
2.87936e-05
-2.33926e-07
-4.02207e-05
2.72373e-05
-1.6694e-07
-4.98968e-05
2.49404e-05
-1.27465e-07
-5.84507e-05
2.20523e-05
-1.03311e-07
-6.56657e-05
1.86267e-05
-8.86027e-08
-7.13467e-05
1.4712e-05
-8.19957e-08
-7.53204e-05
1.03612e-05
-8.344e-08
-7.74396e-05
5.63504e-06
-9.31224e-08
-7.7576e-05
6.13187e-07
-1.1092e-07
-7.56251e-05
-4.65893e-06
-1.36592e-07
-7.15464e-05
-1.00207e-05
-1.68918e-07
-6.5345e-05
-1.53436e-05
-2.05029e-07
-5.70962e-05
-2.04545e-05
-2.40099e-07
-4.69649e-05
-2.5144e-05
-2.66345e-07
-3.52296e-05
-2.91646e-05
-2.69054e-07
-2.23431e-05
-3.2137e-05
-2.25179e-07
-9.27262e-06
-3.27459e-05
-1.28755e-07
-2.37164e-05
2.53628e-07
-8.02738e-06
2.89918e-05
-6.92495e-07
-1.96907e-05
4.06829e-05
-4.26265e-07
-3.14935e-05
4.09293e-05
-3.32963e-07
-4.27064e-05
3.87073e-05
-2.57092e-07
-5.30009e-05
3.54435e-05
-2.08608e-07
-6.21241e-05
3.13506e-05
-1.75057e-07
-6.9853e-05
2.65062e-05
-1.50589e-07
-7.59865e-05
2.09796e-05
-1.34092e-07
-8.03429e-05
1.48434e-05
-1.2576e-07
-8.27605e-05
8.17845e-06
-1.25863e-07
-8.31049e-05
1.091e-06
-1.33331e-07
-8.12389e-05
-6.37037e-06
-1.5459e-07
-7.70908e-05
-1.39873e-05
-1.81495e-07
-7.06378e-05
-2.15831e-05
-2.13389e-07
-6.19271e-05
-2.89194e-05
-2.45757e-07
-5.11029e-05
-3.56981e-05
-2.70093e-07
-3.84435e-05
-4.15541e-05
-2.70004e-07
-2.44368e-05
-4.59241e-05
-2.19539e-07
-1.01531e-05
-4.6917e-05
-1.1262e-07
-3.41724e-05
3.02878e-07
-8.62091e-06
3.84165e-05
-8.03716e-07
-2.11816e-05
5.37698e-05
-5.26137e-07
-3.38929e-05
5.40664e-05
-4.25816e-07
-4.59755e-05
5.11314e-05
-3.41429e-07
-5.70853e-05
4.68387e-05
-2.85382e-07
-6.69609e-05
4.14709e-05
-2.44692e-07
-7.5374e-05
3.51328e-05
-2.1339e-07
-8.2118e-05
2.79142e-05
-1.90545e-07
-8.70031e-05
1.99051e-05
-1.76613e-07
-8.98537e-05
1.12013e-05
-1.72292e-07
-9.05087e-05
1.92437e-06
-1.7835e-07
-8.88081e-05
-7.8752e-06
-1.95756e-07
-8.46299e-05
-1.79435e-05
-2.22023e-07
-7.79004e-05
-2.80575e-05
-2.55259e-07
-6.8617e-05
-3.79122e-05
-2.90566e-07
-5.68848e-05
-4.71118e-05
-3.184e-07
-4.29708e-05
-5.51484e-05
-3.19712e-07
-2.7407e-05
-6.12241e-05
-2.63894e-07
-1.14155e-05
-6.27653e-05
-1.43235e-07
-4.59136e-05
3.25739e-07
-9.40397e-06
4.87546e-05
-9.34195e-07
-2.31399e-05
6.8145e-05
-6.3937e-07
-3.70369e-05
6.84938e-05
-5.3041e-07
-5.02491e-05
6.47797e-05
-4.36105e-07
-6.24126e-05
5.9374e-05
-3.71787e-07
-7.32579e-05
5.264e-05
-3.23825e-07
-8.25533e-05
4.47143e-05
-2.8612e-07
-9.00895e-05
3.57083e-05
-2.57934e-07
-9.56704e-05
2.5726e-05
-2.40012e-07
-9.91065e-05
1.48708e-05
-2.33421e-07
-0.000100211
3.2676e-06
-2.39181e-07
-9.8784e-05
-9.04379e-06
-2.57923e-07
-9.46404e-05
-2.17993e-05
-2.87721e-07
-8.76305e-05
-3.47401e-05
-3.27313e-07
-7.76697e-05
-4.75017e-05
-3.71379e-07
-6.47911e-05
-5.95814e-05
-4.0901e-07
-4.92251e-05
-7.02971e-05
-4.1724e-07
-3.15483e-05
-7.85426e-05
-3.58277e-07
-1.31943e-05
-8.08985e-05
-2.20654e-07
-5.94347e-05
3.26742e-07
-1.03974e-05
6.02515e-05
-1.09941e-06
-2.56184e-05
8.41485e-05
-7.82531e-07
-4.10041e-05
8.45419e-05
-6.62355e-07
-5.56238e-05
7.99543e-05
-5.54861e-07
-6.90908e-05
7.33203e-05
-4.79364e-07
-8.11297e-05
6.51006e-05
-4.21675e-07
-9.15107e-05
5.54709e-05
-3.757e-07
-0.000100028
4.45668e-05
-3.41011e-07
-0.000106487
3.25031e-05
-3.18701e-07
-0.000110686
1.9381e-05
-3.1023e-07
-0.000112414
5.31212e-06
-3.17055e-07
-0.000111427
-9.691e-06
-3.40172e-07
-0.000107451
-2.53969e-05
-3.77802e-07
-0.000100231
-4.15309e-05
-4.29695e-07
-8.95499e-05
-5.76921e-05
-4.90307e-07
-7.53151e-05
-7.32692e-05
-5.47053e-07
-5.76683e-05
-8.73723e-05
-5.71577e-07
-3.72107e-05
-9.84852e-05
-5.15075e-07
-1.56595e-05
-0.000102091
-3.58336e-07
-7.53928e-05
2.98632e-07
-1.16279e-05
7.31941e-05
-1.31473e-06
-2.86823e-05
0.000102174
-9.71483e-07
-4.58887e-05
0.000102584
-8.36049e-07
-6.22106e-05
9.69859e-05
-7.09702e-07
-7.72372e-05
8.89644e-05
-6.175e-07
-9.06929e-05
7.91014e-05
-5.45072e-07
-0.000102359
6.76242e-05
-4.86661e-07
-0.000112048
5.46973e-05
-4.42354e-07
-0.000119575
4.04438e-05
-4.13696e-07
-0.000124742
2.49509e-05
-4.02635e-07
-0.000127315
8.29605e-06
-4.113e-07
-0.000127005
-9.55812e-06
-4.42109e-07
-0.000123432
-2.84773e-05
-4.92816e-07
-0.00011619
-4.82078e-05
-5.65273e-07
-0.000104865
-6.83629e-05
-6.54321e-07
-8.91412e-05
-8.82472e-05
-7.45506e-07
-6.89768e-05
-0.000106733
-8.0355e-07
-4.49302e-05
-0.000121769
-7.62987e-07
-1.90874e-05
-0.000127346
-5.88471e-07
-9.4697e-05
2.16731e-07
-1.31367e-05
8.79312e-05
-1.6004e-06
-3.24274e-05
0.000122692
-1.22653e-06
-5.1824e-05
0.00012305
-1.06916e-06
-7.01604e-05
0.000116237
-9.14407e-07
-8.70035e-05
0.000106603
-7.95923e-07
-0.000102089
9.48864e-05
-7.00025e-07
-0.000115225
8.1383e-05
-6.21877e-07
-0.000126261
6.62954e-05
-5.62368e-07
-0.000135047
4.9753e-05
-5.23616e-07
-0.000141405
3.18169e-05
-5.0823e-07
-0.000145094
1.25049e-05
-5.19431e-07
-0.000145794
-8.29648e-06
-5.61291e-07
-0.000142996
-3.06444e-05
-6.31588e-07
-0.000136102
-5.43646e-05
-7.36343e-07
-0.00012441
-7.91828e-05
-8.72245e-07
-0.000107233
-0.000104401
-1.02373e-06
-8.41643e-05
-0.000128655
-1.14681e-06
-5.55562e-05
-0.000149225
-1.15239e-06
-2.3951e-05
-0.000157981
-9.70062e-07
-0.000118674
2.57492e-08
-1.49902e-05
0.000104908
-1.98679e-06
-3.69984e-05
0.000146277
-1.57725e-06
-5.90043e-05
0.000146442
-1.38618e-06
-7.96847e-05
0.000138104
-1.18658e-06
-9.85921e-05
0.000126536
-1.02542e-06
-0.000115492
0.000112678
-8.91368e-07
-0.000130248
9.69205e-05
-7.8145e-07
-0.000142773
7.95182e-05
-6.9762e-07
-0.000152985
6.06074e-05
-6.42511e-07
-0.00016076
4.02111e-05
-6.19333e-07
-0.000165881
1.82591e-05
-6.32774e-07
-0.000168028
-5.45998e-06
-6.8963e-07
-0.000166557
-3.13288e-05
-7.87262e-07
-0.000160648
-5.93323e-05
-9.40426e-07
-0.0001492
-8.94807e-05
-1.15084e-06
-0.000130939
-0.000121256
-1.40525e-06
-0.000104769
-0.000153174
-1.65051e-06
-7.04732e-05
-0.000181753
-1.76727e-06
-3.10978e-05
-0.000195747
-1.609e-06
-0.000149427
-3.44425e-07
-1.73013e-05
0.000124732
-2.52262e-06
-4.26228e-05
0.000173668
-2.06944e-06
-6.77205e-05
0.000173363
-1.82272e-06
-9.10861e-05
0.000163019
-1.54926e-06
-0.000112279
0.000149046
-1.31716e-06
-0.000131126
0.000132645
-1.1206e-06
-0.000147582
0.000114337
-9.59657e-07
-0.00016167
9.4443e-05
-8.3735e-07
-0.000173418
7.31125e-05
-7.56194e-07
-0.000182808
5.03204e-05
-7.19319e-07
-0.000189696
2.58796e-05
-7.32742e-07
-0.00019383
-5.16842e-07
-8.09046e-07
-0.000194453
-2.97655e-05
-9.40641e-07
-0.000190534
-6.20891e-05
-1.1625e-06
-0.000180463
-9.80656e-05
-1.4859e-06
-0.00016211
-0.0001377
-1.90945e-06
-0.000133151
-0.000179755
-2.37844e-06
-9.20157e-05
-0.000220149
-2.74002e-06
-4.21709e-05
-0.000242907
-2.68463e-06
-0.000190399
-1.19872e-06
-2.027e-05
0.000148293
-3.29058e-06
-4.96679e-05
0.000205842
-2.77659e-06
-7.84185e-05
0.000204545
-2.4316e-06
-0.000104808
0.000191439
-2.03165e-06
-0.000128449
0.000174367
-1.67951e-06
-0.000149281
0.000154857
-1.38025e-06
-0.000167406
0.0001336
-1.13829e-06
-0.000183009
0.000111003
-9.56706e-07
-0.000196295
8.7234e-05
-8.3578e-07
-0.000207418
6.22191e-05
-7.761e-07
-0.000216401
3.56437e-05
-7.81319e-07
-0.000223063
7.00045e-06
-8.55032e-07
-0.000226798
-2.49835e-05
-1.04653e-06
-0.000226347
-6.11808e-05
-1.35982e-06
-0.000219574
-0.000102997
-1.84167e-06
-0.000203202
-0.000151546
-2.52561e-06
-0.000172929
-0.000206644
-3.38389e-06
-0.000124245
-0.000264576
-4.25691e-06
-6.04909e-05
-0.000302162
-4.49969e-06
-0.00024781
-3.08059e-06
-2.42751e-05
0.000177009
-4.44081e-06
-5.8746e-05
0.000244139
-3.82521e-06
-9.17933e-05
0.000240885
-3.2933e-06
-0.000121506
0.00022382
-2.66742e-06
-0.000147651
0.00020262
-2.10833e-06
-0.000170353
0.000179201
-1.64059e-06
-0.000189936
0.000154455
-1.27259e-06
-0.000206819
0.00012889
-1.00355e-06
-0.000221454
0.000102695
-8.261e-07
-0.000234252
7.57501e-05
-7.33172e-07
-0.000245507
4.76198e-05
-7.21243e-07
-0.000255264
1.75464e-05
-7.8826e-07
-0.000263263
-1.59579e-05
-1.02701e-06
-0.000268273
-5.47359e-05
-1.43447e-06
-0.000267799
-0.000101368
-2.10299e-06
-0.000257276
-0.000158932
-3.13717e-06
-0.000229541
-0.000229767
-4.61102e-06
-0.000174451
-0.000313186
-6.48024e-06
-9.36898e-05
-0.000375393
-7.53012e-06
-0.000334185
-7.3147e-06
-3.01029e-05
0.000213338
-6.22658e-06
-7.09639e-05
0.000290395
-5.39524e-06
-0.000108972
0.000283404
-4.5108e-06
-0.00014217
0.000260496
-3.47764e-06
-0.000170669
0.000233678
-2.55911e-06
-0.000194881
0.00020523
-1.81753e-06
-0.000215444
0.000176278
-1.25983e-06
-0.000233094
0.000147409
-8.70093e-07
-0.000248604
0.000118827
-6.21032e-07
-0.000262731
9.03657e-05
-4.88263e-07
-0.000276156
6.15037e-05
-4.5948e-07
-0.000289389
3.13192e-05
-5.39583e-07
-0.000302645
-1.99352e-06
-7.08847e-07
-0.000315535
-4.0677e-05
-1.16824e-06
-0.000325666
-8.92774e-05
-1.96022e-06
-0.000327564
-0.000153721
-3.3133e-06
-0.000310846
-0.000240904
-5.58063e-06
-0.000255272
-0.000359604
-9.15566e-06
-0.000156212
-0.000462222
-1.22304e-05
-0.000473515
-1.6882e-05
-3.86075e-05
0.000261446
-9.5004e-06
-8.76622e-05
0.00034741
-7.96025e-06
-0.000131497
0.000333515
-6.27588e-06
-0.000168204
0.000301631
-4.42874e-06
-0.000198601
0.000266947
-2.87109e-06
-0.000223589
0.000231912
-1.69451e-06
-0.000244273
0.000197828
-8.65742e-07
-0.000261793
0.000165253
-3.24164e-07
-0.000277309
0.00013433
1.21447e-08
-0.000291966
0.00010486
1.62765e-07
-0.000306907
7.62225e-05
2.22758e-07
-0.000323221
4.74172e-05
2.16026e-07
-0.000342651
1.73227e-05
1.13972e-07
-0.000365608
-1.75208e-05
-1.99261e-07
-0.000391558
-6.25847e-05
-7.42962e-07
-0.000415668
-0.000127677
-1.93394e-06
-0.000426737
-0.00022527
-4.56626e-06
-0.000385266
-0.000390941
-1.01338e-05
-0.00027467
-0.000556096
-1.67224e-05
-0.000712959
-3.52259e-05
-5.8521e-05
0.000334
-1.40332e-05
-0.000115067
0.000416151
-1.21946e-05
-0.000163273
0.000390578
-8.85763e-06
-0.000201905
0.000345837
-5.57413e-06
-0.000232862
0.000300691
-2.78703e-06
-0.000257274
0.000257139
-8.15075e-07
-0.00027665
0.000216797
4.06994e-07
-0.000292589
0.000180096
1.09562e-06
-0.000306707
0.00014703
1.41902e-06
-0.000320636
0.000117253
1.53466e-06
-0.000336226
9.02626e-05
1.55068e-06
-0.000355511
6.51605e-05
1.54174e-06
-0.000380494
4.0648e-05
1.65732e-06
-0.000413509
1.32223e-05
2.27157e-06
-0.000459193
-2.00583e-05
3.15793e-06
-0.000516067
-7.49959e-05
4.19353e-06
-0.000577746
-0.000168271
4.68095e-06
-0.000580653
-0.000388638
6.03879e-07
-0.000473624
-0.000656652
-6.47428e-06
-0.00113346
-5.31227e-05
-6.51939e-05
0.000424402
-2.52078e-05
-0.000143979
0.000510661
-1.57249e-05
-0.000202967
0.00045997
-1.0403e-05
-0.000245642
0.000392375
-3.86376e-06
-0.000275569
0.000330247
3.71398e-07
-0.000295941
0.00027464
2.87043e-06
-0.000310299
0.000227053
4.10301e-06
-0.000321278
0.000186539
4.53604e-06
-0.000330866
0.000152056
4.56112e-06
-0.000340666
0.000122606
4.44776e-06
-0.000352436
9.75908e-05
4.44208e-06
-0.000368396
7.63628e-05
4.75722e-06
-0.00039298
5.945e-05
5.78202e-06
-0.000432845
4.51318e-05
7.95612e-06
-0.000499518
3.43098e-05
1.23048e-05
-0.000599035
4.10627e-06
2.04147e-05
-0.000740882
-6.07216e-05
3.42969e-05
-0.000806968
-0.000367883
4.53316e-05
-0.000698325
-0.000813966
4.86717e-05
-0.00177866
-5.31295e-05
-0.000195517
0.000660631
-4.07124e-05
-0.00023984
0.000591496
-3.65121e-05
-0.00026799
0.000508573
-2.04534e-05
-0.00028855
0.000420694
-7.75823e-06
-0.000298072
0.000337933
1.83499e-06
-0.00030124
0.000270649
7.15974e-06
-0.000301225
0.000217427
9.61037e-06
-0.000299738
0.000174814
1.02383e-05
-0.00029842
0.000140814
9.92337e-06
-0.000298816
0.000113768
9.23425e-06
-0.000303395
9.34623e-05
8.70726e-06
-0.000314042
7.83274e-05
8.68247e-06
-0.0003362
7.13779e-05
1.02299e-05
-0.000374235
6.84563e-05
1.47109e-05
-0.000443724
7.75452e-05
2.62533e-05
-0.000545567
5.58954e-05
5.00536e-05
-0.000689263
-1.22218e-05
9.51963e-05
-0.000796291
-0.000395662
0.000134808
-0.000669125
-0.00108708
0.000145947
-0.00237711
-7.06707e-05
-0.000391772
0.00114112
-8.87167e-05
-0.000321769
0.000548888
-2.7395e-05
-0.00021945
0.000409448
-3.19381e-06
-0.000117892
0.000298728
2.04083e-05
-2.73972e-05
0.000216774
3.06643e-05
4.83705e-05
0.000161395
3.34859e-05
0.000109877
0.000124125
3.17954e-05
0.000158909
9.77112e-05
2.80707e-05
0.000197374
7.83491e-05
2.40004e-05
0.000227718
6.32496e-05
2.01742e-05
0.000251068
5.26047e-05
1.75073e-05
0.000270061
4.35209e-05
1.58141e-05
0.000285693
3.87998e-05
1.69461e-05
0.0002975
3.50578e-05
2.15911e-05
0.00031113
2.77877e-05
3.61276e-05
0.000289004
1.16952e-05
6.63256e-05
0.000254759
-0.000104113
0.000126137
4.83332e-05
-0.000392123
0.000202886
-4.89494e-05
-0.00113268
0.000142884
-0.00223832
-0.000187738
0.00125617
-0.000115052
0.0019042
-9.91426e-05
0.00239075
-7.70991e-05
0.00273518
-4.57073e-05
0.00297037
-1.8407e-05
0.00313229
-5.2897e-07
0.00324547
1.09455e-05
0.00332673
1.64475e-05
0.00338661
1.84723e-05
0.00343285
1.70134e-05
0.00346879
1.66607e-05
0.00349996
1.23502e-05
0.00352386
1.48987e-05
0.00354785
1.10732e-05
0.00355646
1.91762e-05
0.00353526
3.28977e-05
0.00338737
4.37751e-05
0.00290216
9.30836e-05
0.00177132
-1.84334e-06
-0.000466998
-6.64239e-06
6.70046e-06
-1.84287e-07
-1.67761e-05
1.02716e-05
-7.31998e-09
-2.70632e-05
1.04296e-05
4.98124e-08
-3.67867e-05
9.85857e-06
8.35713e-08
-4.56736e-05
9.00865e-06
9.16539e-08
-5.35093e-05
7.94234e-06
8.16706e-08
-6.00962e-05
6.67851e-06
5.83888e-08
-6.52541e-05
5.23436e-06
2.43113e-08
-6.88216e-05
3.63022e-06
-2.07659e-08
-7.0659e-05
1.88982e-06
-7.58113e-08
-7.06601e-05
3.89404e-08
-1.35695e-07
-6.87471e-05
-1.88886e-06
-2.00359e-07
-6.4889e-05
-3.84662e-06
-2.68522e-07
-5.91101e-05
-5.78038e-06
-3.35787e-07
-5.1499e-05
-7.62591e-06
-3.96905e-07
-4.22184e-05
-9.30877e-06
-4.44724e-07
-3.15172e-05
-1.07417e-05
-4.68513e-07
-1.9783e-05
-1.17807e-05
-4.53557e-07
-7.96703e-06
-1.18571e-05
-3.93858e-07
-7.92068e-06
-1.46539e-07
-1.05345e-05
1.72204e-05
-4.42441e-07
-2.54888e-05
2.53099e-05
-2.81707e-07
-4.05663e-05
2.55928e-05
-2.03581e-07
-5.47805e-05
2.4153e-05
-1.41957e-07
-6.77225e-05
2.20223e-05
-1.05332e-07
-7.90731e-05
1.93566e-05
-8.6118e-08
-8.85475e-05
1.62111e-05
-7.94955e-08
-9.58935e-05
1.26352e-05
-8.36159e-08
-0.000100893
8.68292e-06
-9.76083e-08
-0.000103362
4.41228e-06
-1.21011e-07
-0.00010318
-8.83506e-08
-1.53604e-07
-0.000100233
-4.78135e-06
-1.92237e-07
-9.45047e-05
-9.51999e-06
-2.35987e-07
-8.60422e-05
-1.41877e-05
-2.81064e-07
-7.49812e-05
-1.86334e-05
-3.21928e-07
-6.15596e-05
-2.26808e-05
-3.50694e-07
-4.6134e-05
-2.61226e-05
-3.55124e-07
-2.92539e-05
-2.86165e-05
-3.19141e-07
-1.21977e-05
-2.88617e-05
-2.39758e-07
-1.99841e-05
3.78038e-08
-1.15293e-05
2.87311e-05
-5.63636e-07
-2.78255e-05
4.16931e-05
-4.07957e-07
-4.42223e-05
4.20782e-05
-3.22506e-07
-5.96638e-05
3.96785e-05
-2.51004e-07
-7.37169e-05
3.61504e-05
-2.02491e-07
-8.60422e-05
3.17488e-05
-1.70241e-07
-9.63384e-05
2.65685e-05
-1.49814e-07
-0.000104339
2.0694e-05
-1.398e-07
-0.000109815
1.42149e-05
-1.39829e-07
-0.000112576
7.2301e-06
-1.49808e-07
-0.000112468
-1.38119e-07
-1.69395e-07
-0.000109373
-7.81591e-06
-1.97008e-07
-0.000103259
-1.5572e-05
-2.3114e-07
-9.41568e-05
-2.32263e-05
-2.68235e-07
-8.21915e-05
-3.05362e-05
-3.02552e-07
-6.76001e-05
-3.72129e-05
-3.25712e-07
-5.07549e-05
-4.29124e-05
-3.24403e-07
-3.2248e-05
-4.70675e-05
-2.81052e-07
-1.34788e-05
-4.75658e-05
-1.93884e-07
-3.33053e-05
9.60286e-08
-1.22606e-05
4.0981e-05
-6.81818e-07
-2.96197e-05
5.91569e-05
-5.30949e-07
-4.70762e-05
5.964e-05
-4.38263e-07
-6.35168e-05
5.62177e-05
-3.55664e-07
-7.84906e-05
5.12121e-05
-2.96439e-07
-9.16479e-05
4.4984e-05
-2.52984e-07
-0.000102679
3.76703e-05
-2.21093e-07
-0.000111311
2.93913e-05
-1.99654e-07
-0.000117303
2.02697e-05
-1.88638e-07
-0.000120448
1.04373e-05
-1.88391e-07
-0.000120591
7.22275e-08
-2.00012e-07
-0.000117558
-1.07838e-05
-2.19791e-07
-0.00011129
-2.17735e-05
-2.48621e-07
-0.000101779
-3.26677e-05
-2.82176e-07
-8.91156e-05
-4.31312e-05
-3.14567e-07
-7.35097e-05
-5.27522e-05
-3.3663e-07
-5.53345e-05
-6.10243e-05
-3.33417e-07
-3.52271e-05
-6.71094e-05
-2.84992e-07
-1.47348e-05
-6.79807e-05
-1.90007e-07
-4.78608e-05
1.23555e-07
-1.32144e-05
5.42005e-05
-8.08784e-07
-3.19528e-05
7.8029e-05
-6.59798e-07
-5.07895e-05
7.86093e-05
-5.58493e-07
-6.85315e-05
7.40828e-05
-4.64512e-07
-8.47054e-05
6.74948e-05
-3.94144e-07
-9.89504e-05
5.93241e-05
-3.39824e-07
-0.00011095
4.97545e-05
-2.97497e-07
-0.000120426
3.89429e-05
-2.66454e-07
-0.000127129
2.70426e-05
-2.46991e-07
-0.000130836
1.42113e-05
-2.39233e-07
-0.000131352
6.51773e-07
-2.41162e-07
-0.000128485
-1.35843e-05
-2.63283e-07
-0.000122102
-2.80853e-05
-2.92712e-07
-0.000112136
-4.25607e-05
-3.28669e-07
-9.86094e-05
-5.65825e-05
-3.65402e-07
-8.16848e-05
-6.96027e-05
-3.92561e-07
-6.17195e-05
-8.09167e-05
-3.92592e-07
-3.94072e-05
-8.93441e-05
-3.4155e-07
-1.65125e-05
-9.07817e-05
-2.3694e-07
-6.41651e-05
1.17468e-07
-1.4473e-05
6.87e-05
-9.60666e-07
-3.50177e-05
9.87457e-05
-8.11453e-07
-5.56546e-05
9.94148e-05
-6.98944e-07
-7.50847e-05
9.36676e-05
-5.90799e-07
-9.2807e-05
8.53524e-05
-5.06999e-07
-0.00010845
7.50833e-05
-4.40099e-07
-0.000121695
6.30998e-05
-3.86332e-07
-0.000132262
4.95975e-05
-3.4544e-07
-0.000139897
3.4756e-05
-3.1825e-07
-0.000144363
1.8749e-05
-3.05712e-07
-0.000145427
1.78619e-06
-3.08905e-07
-0.000142852
-1.60892e-05
-3.28203e-07
-0.000136422
-3.44419e-05
-3.61334e-07
-0.000125969
-5.29353e-05
-4.05279e-07
-0.000111413
-7.10572e-05
-4.53356e-07
-9.28199e-05
-8.81111e-05
-4.93415e-07
-7.05004e-05
-0.000103149
-5.03996e-07
-4.52047e-05
-0.000114543
-4.54766e-07
-1.90004e-05
-0.000116866
-3.40228e-07
-8.29155e-05
7.67387e-08
-1.60759e-05
8.48302e-05
-1.15367e-06
-3.89085e-05
0.000121799
-1.00359e-06
-6.18092e-05
0.000122529
-8.75812e-07
-8.3344e-05
0.000115396
-7.48239e-07
-0.000102981
0.000105155
-6.45903e-07
-0.000120341
9.25842e-05
-5.61831e-07
-0.000135114
7.79893e-05
-4.92843e-07
-0.000147028
6.16098e-05
-4.39345e-07
-0.000155835
4.36472e-05
-4.02791e-07
-0.000161288
2.42768e-05
-3.84809e-07
-0.000163123
3.69172e-06
-3.87049e-07
-0.000161043
-1.81005e-05
-4.09501e-07
-0.00015472
-4.0691e-05
-4.51311e-07
-0.000143846
-6.37286e-05
-5.1023e-07
-0.00012817
-8.66446e-05
-5.79109e-07
-0.000107593
-0.000108592
-6.43675e-07
-8.23065e-05
-0.00012833
-6.76974e-07
-5.30921e-05
-0.000143634
-6.38712e-07
-2.2425e-05
-0.000147376
-5.16029e-07
-0.000105037
-5.32246e-09
-1.80733e-05
0.000102995
-1.40607e-06
-4.37407e-05
0.000147751
-1.25574e-06
-6.94171e-05
0.000148476
-1.10625e-06
-9.35008e-05
0.00013972
-9.50512e-07
-0.000115427
0.000127285
-8.20812e-07
-0.000134823
0.000112146
-7.11373e-07
-0.000151397
9.46977e-05
-6.20147e-07
-0.000164912
7.52302e-05
-5.48524e-07
-0.000175141
5.39619e-05
-4.98703e-07
-0.000181846
3.10516e-05
-4.72972e-07
-0.000184738
6.64576e-06
-4.73565e-07
-0.000183454
-1.93241e-05
-5.02357e-07
-0.000177529
-4.65499e-05
-5.58436e-07
-0.000166457
-7.47243e-05
-6.4152e-07
-0.000149725
-0.000103286
-7.44911e-07
-0.000126944
-0.000131266
-8.52306e-07
-9.80592e-05
-0.000157089
-9.29512e-07
-6.37936e-05
-0.000177742
-9.2087e-07
-2.71593e-05
-0.000183802
-7.96811e-07
-0.000131795
-1.83781e-07
-2.05401e-05
0.000123677
-1.74252e-06
-4.96798e-05
0.000177258
-1.59363e-06
-7.87061e-05
0.000177845
-1.41188e-06
-0.000105811
0.000167125
-1.21365e-06
-0.000130404
0.000152124
-1.04199e-06
-0.000152133
0.000134069
-8.93692e-07
-0.00017076
0.000113472
-7.68738e-07
-0.000186107
9.06845e-05
-6.69906e-07
-0.000198006
6.59378e-05
-6.00251e-07
-0.000206253
3.93531e-05
-5.6276e-07
-0.000210556
1.099e-05
-5.60639e-07
-0.000210499
-1.93445e-05
-5.9752e-07
-0.000205454
-5.15535e-05
-6.73813e-07
-0.000194652
-8.54694e-05
-7.92905e-07
-0.000177196
-0.000120664
-9.50491e-07
-0.000152208
-0.000156148
-1.1296e-06
-0.000119149
-0.000190007
-1.28758e-06
-7.84636e-05
-0.000218233
-1.34649e-06
-3.3835e-05
-0.000228157
-1.24305e-06
-0.000165112
-4.92318e-07
-2.35923e-05
0.000147482
-2.19955e-06
-5.69704e-05
0.000211113
-2.05423e-06
-9.00005e-05
0.000211311
-1.82221e-06
-0.000120627
0.000198122
-1.55767e-06
-0.000148246
0.000180037
-1.32008e-06
-0.000172564
0.000158607
-1.11128e-06
-0.000193437
0.000134498
-9.34601e-07
-0.000210796
0.000108141
-7.94612e-07
-0.00022458
7.97749e-05
-6.95e-07
-0.000234669
4.94611e-05
-6.39081e-07
-0.000240806
1.71257e-05
-6.31001e-07
-0.000242559
-1.76046e-05
-6.76528e-07
-0.000239128
-5.49933e-05
-7.78612e-07
-0.000229431
-9.51588e-05
-9.47777e-07
-0.000212033
-0.000138027
-1.18626e-06
-0.000185279
-0.000182826
-1.48098e-06
-0.000147711
-0.000227443
-1.78248e-06
-9.90095e-05
-0.000266718
-1.98398e-06
-4.36229e-05
-0.000283202
-1.95143e-06
-0.000208035
-1.04427e-06
-2.74163e-05
0.00017521
-2.83407e-06
-6.5983e-05
0.000250303
-2.69303e-06
-0.000103771
0.000249655
-2.37893e-06
-0.000138435
0.000233245
-2.00775e-06
-0.000169396
0.000211346
-1.66477e-06
-0.000196473
0.000185925
-1.3611e-06
-0.000219682
0.000157852
-1.10528e-06
-0.000239132
0.000127657
-9.03643e-07
-0.00025494
9.55861e-05
-7.59418e-07
-0.000267138
6.16143e-05
-6.74892e-07
-0.000275578
2.54871e-05
-6.54191e-07
-0.000279882
-1.34036e-05
-7.05611e-07
-0.000279122
-5.58579e-05
-8.36218e-07
-0.000271886
-0.000102488
-1.0689e-06
-0.000256054
-0.000153925
-1.42014e-06
-0.000228817
-0.00021008
-1.89215e-06
-0.000187074
-0.000269125
-2.43938e-06
-0.000128705
-0.000324899
-2.92835e-06
-5.87975e-05
-0.000352715
-3.07834e-06
-0.000265963
-2.06808e-06
-3.23236e-05
0.000207981
-3.73854e-06
-7.72928e-05
0.000296091
-3.59559e-06
-0.000120716
0.000293788
-3.14162e-06
-0.000159926
0.000273017
-2.59432e-06
-0.00019445
0.00024627
-2.0806e-06
-0.000224308
0.000216031
-1.62799e-06
-0.00024977
0.000183428
-1.25233e-06
-0.000271218
0.000149109
-9.60451e-07
-0.000289037
0.000113322
-7.52131e-07
-0.000303513
7.59387e-05
-6.25005e-07
-0.000314713
3.64853e-05
-5.79523e-07
-0.000322431
-5.91752e-06
-6.22625e-07
-0.000325761
-5.2795e-05
-7.80069e-07
-0.000323036
-0.000105492
-1.08115e-06
-0.000311393
-0.000165838
-1.57203e-06
-0.00028647
-0.000235234
-2.29439e-06
-0.000242483
-0.000313256
-3.23964e-06
-0.000173436
-0.000393921
-4.28212e-06
-8.42001e-05
-0.000441592
-4.85882e-06
-0.000349239
-4.00518e-06
-3.88635e-05
0.000247474
-5.06976e-06
-9.181e-05
0.000350112
-4.89918e-06
-0.000141874
0.000344756
-4.19632e-06
-0.000186078
0.000317904
-3.35027e-06
-0.000224212
0.000284853
-2.55664e-06
-0.000256635
0.000248683
-1.87086e-06
-0.000283999
0.000210837
-1.31698e-06
-0.000307081
0.000172084
-8.97898e-07
-0.000326649
0.000132667
-6.02804e-07
-0.000343362
9.23346e-05
-4.16778e-07
-0.000357639
5.03703e-05
-3.29262e-07
-0.000369684
5.67152e-06
-3.31936e-07
-0.000378822
-4.41835e-05
-5.008e-07
-0.00038347
-0.000101434
-8.43568e-07
-0.000380233
-0.000169713
-1.46454e-06
-0.000363003
-0.000253116
-2.48498e-06
-0.000322134
-0.000354723
-4.0132e-06
-0.000244223
-0.000472262
-6.05029e-06
-0.0001313
-0.000554439
-7.60634e-06
-0.000480028
-7.82606e-06
-4.81141e-05
0.000296446
-7.08472e-06
-0.000111122
0.000414525
-6.80098e-06
-0.000168868
0.000403644
-5.65342e-06
-0.000218304
0.000368159
-4.296e-06
-0.000259781
0.000326812
-3.0415e-06
-0.000294174
0.000283253
-1.99383e-06
-0.000322697
0.000239283
-1.18253e-06
-0.000346655
0.000195768
-5.951e-07
-0.00036733
0.000152917
-1.96706e-07
-0.00038589
0.00011035
5.66668e-08
-0.000403318
6.7132e-05
2.0706e-07
-0.000420189
2.17595e-05
2.43331e-07
-0.000436989
-2.82728e-05
1.80808e-07
-0.000452605
-8.68686e-05
-1.18581e-07
-0.000463985
-0.000159562
-7.31272e-07
-0.000463849
-0.00025462
-1.94559e-06
-0.000438314
-0.000381684
-4.1544e-06
-0.000360879
-0.000551072
-7.77978e-06
-0.000223257
-0.000692849
-1.14419e-05
-0.000704399
-1.57685e-05
-6.07111e-05
0.000358104
-1.04473e-05
-0.000136717
0.000492276
-9.70602e-06
-0.000203688
0.000472027
-7.68701e-06
-0.000258481
0.000423928
-5.40444e-06
-0.000302603
0.000371447
-3.38447e-06
-0.000337822
0.000318564
-1.78632e-06
-0.000366203
0.00026742
-6.21756e-07
-0.000389738
0.000218806
1.72787e-07
-0.000410323
0.000172804
7.1023e-07
-0.000429738
0.000128879
1.04816e-06
-0.000449573
8.5915e-05
1.27476e-06
-0.000471405
4.23556e-05
1.45155e-06
-0.000497314
-3.81788e-06
1.5679e-06
-0.000527348
-5.86354e-05
1.6022e-06
-0.000561181
-0.000127868
1.39653e-06
-0.000592228
-0.000225971
4.63069e-07
-0.000605741
-0.000370767
-1.97011e-06
-0.000551189
-0.000608341
-7.41722e-06
-0.000397188
-0.000848884
-1.46881e-05
-0.00110678
-3.00282e-05
-8.98732e-05
0.000449104
-1.51598e-05
-0.000178069
0.00058245
-1.41724e-05
-0.000251708
0.00054735
-1.05409e-05
-0.000309453
0.000482815
-6.71693e-06
-0.000354293
0.000416874
-3.37365e-06
-0.000388402
0.000352726
-8.68578e-07
-0.000414607
0.00029321
8.22596e-07
-0.000435662
0.000239097
1.85989e-06
-0.000454216
0.000190322
2.4542e-06
-0.000472769
0.000146165
2.80237e-06
-0.000493956
0.000105587
3.06442e-06
-0.000520303
6.68767e-05
3.36856e-06
-0.000554077
2.76952e-05
3.91799e-06
-0.000599516
-1.58298e-05
4.90477e-06
-0.000661604
-6.87846e-05
6.1623e-06
-0.000737713
-0.000153097
7.42882e-06
-0.000819023
-0.000292339
7.56421e-06
-0.000821256
-0.000608287
2.7828e-06
-0.000652874
-0.00101677
-6.96741e-06
-0.00176812
-4.46569e-05
-9.27327e-05
0.00054134
-2.47109e-05
-0.000216412
0.000709118
-1.87134e-05
-0.000309588
0.000643036
-1.29135e-05
-0.000374747
0.000550121
-6.01165e-06
-0.000418473
0.00046186
-8.88405e-07
-0.00044646
0.000381229
2.354e-06
-0.000464879
0.00031149
4.24157e-06
-0.000478253
0.000251816
5.19073e-06
-0.00048993
0.000200952
5.60825e-06
-0.000502468
0.000157331
5.82027e-06
-0.00051853
0.00011995
6.14111e-06
-0.000541131
8.73795e-05
6.85619e-06
-0.000576181
6.01469e-05
8.38016e-06
-0.000631011
3.5811e-05
1.11455e-05
-0.000719363
1.58908e-05
1.59809e-05
-0.000841483
-3.42448e-05
2.36819e-05
-0.00100127
-0.000132272
3.40143e-05
-0.00104919
-0.000554498
3.94695e-05
-0.000813918
-0.00123595
3.25696e-05
-0.00258511
-5.00628e-05
-0.000240735
0.000779124
-3.77616e-05
-0.00033454
0.000801727
-3.53165e-05
-0.000400399
0.000710132
-2.16905e-05
-0.000443553
0.000595182
-9.66467e-06
-0.000460507
0.000480706
-5.66225e-08
-0.000462418
0.000384591
5.70889e-06
-0.000456912
0.000306746
8.8477e-06
-0.000448716
0.000243737
1.01222e-05
-0.000441386
0.000193189
1.03561e-05
-0.000437565
0.000152585
1.01596e-05
-0.000440834
0.000121804
1.01226e-05
-0.000453139
9.76548e-05
1.07124e-05
-0.000480891
8.52092e-05
1.29192e-05
-0.000525507
7.72372e-05
1.79011e-05
-0.000599556
8.75458e-05
2.8647e-05
-0.000690813
5.92252e-05
4.78404e-05
-0.000784009
-2.43044e-05
8.04246e-05
-0.000808635
-0.000502443
0.000107379
-0.000510696
-0.00148824
0.000100299
-0.00309152
-7.49612e-05
-0.000616911
0.00137557
-6.82522e-05
-0.000568455
0.000757526
-3.16503e-05
-0.000450458
0.000601053
-1.21112e-05
-0.000301561
0.000458095
8.59828e-06
-0.000154184
0.000344756
1.92368e-05
-2.15518e-05
0.000261326
2.41185e-05
9.14916e-05
0.000200514
2.49845e-05
0.000184687
0.000155123
2.34884e-05
0.000259313
0.000121368
2.11951e-05
0.000318431
9.49027e-05
1.87393e-05
0.00036402
7.66528e-05
1.70685e-05
0.00040016
6.1037e-05
1.62925e-05
0.000431688
5.24838e-05
1.81433e-05
0.000460219
4.70999e-05
2.31971e-05
0.000509787
3.75071e-05
3.6599e-05
0.000549365
2.42917e-05
6.16808e-05
0.000642533
-9.92299e-05
0.000107894
0.000621907
-0.000438872
0.000159941
0.000489808
-0.00132124
0.000107988
-0.00262872
-0.00016073
0.00134784
-8.73195e-05
0.00208784
-8.16182e-05
0.00267969
-6.79005e-05
0.00313776
-4.56814e-05
0.00348789
-2.37824e-05
0.00375509
-6.39497e-06
0.00396115
5.39687e-06
0.0041206
1.21198e-05
0.00424494
1.55034e-05
0.00434138
1.54685e-05
0.00441885
1.58433e-05
0.00447941
1.28279e-05
0.00453176
1.5037e-05
0.00457707
1.28626e-05
0.00461517
1.85878e-05
0.00464259
2.97626e-05
0.00455183
3.53068e-05
0.00413885
6.71945e-05
0.00279483
2.09342e-05
-0.000300885
-6.92191e-06
6.94123e-06
-2.03613e-07
-1.75133e-05
1.0728e-05
-1.43957e-07
-2.82624e-05
1.09007e-05
-1.01762e-07
-3.84101e-05
1.02991e-05
-6.78419e-08
-4.76728e-05
9.40337e-06
-4.89414e-08