/*--------------------------------*- C++ -*----------------------------------*\
  =========                 |
  \\      /  F ield         | OpenFOAM: The Open Source CFD Toolbox
   \\    /   O peration     | Website:  https://openfoam.org
    \\  /    A nd           | Version:  10
     \\/     M anipulation  |
\*---------------------------------------------------------------------------*/
FoamFile
{
    format      ascii;
    class       volScalarField;
    location    "3.325";
    object      p;
}
// * * * * * * * * * * * * * * * * * * * * * * * * * * * * * * * * * * * * * //

dimensions      [0 2 -2 0 0 0 0];

internalField   nonuniform List<scalar> 
400
(
-9.93745e-09
-3.20095e-05
-1.12289e-05
3.54106e-05
0.000113366
0.000223001
0.000364083
0.000535981
0.000737176
0.000964908
0.00121487
0.00148092
0.00175488
0.00202649
0.00228371
0.00251322
0.00270104
0.00283424
0.00291153
0.00289003
3.17614e-05
-1.52546e-06
1.96321e-05
6.36865e-05
0.000137384
0.000241643
0.000376602
0.000541986
0.00073662
0.000958094
0.00120242
0.00146358
0.00173397
0.00200339
0.00225973
0.0024895
0.00267835
0.00281323
0.00289385
0.00287097
7.66555e-06
-3.01609e-05
-1.05592e-05
3.11611e-05
0.000102451
0.000204464
0.000337701
0.00050234
0.000697689
0.000921807
0.00117114
0.00144053
0.00172185
0.00200473
0.00227647
0.00252237
0.0027263
0.002873
0.00296153
0.0029349
-4.68874e-05
-8.88927e-05
-7.13541e-05
-3.25831e-05
3.57574e-05
0.000135228
0.000266916
0.000431696
0.000629637
0.000859577
0.00111868
0.00140214
0.00170263
0.0020093
0.00230817
0.00258249
0.00281325
0.00298139
0.00308447
0.00305601
-0.000137546
-0.000184351
-0.00016945
-0.000134236
-6.9283e-05
2.75177e-05
0.00015804
0.000324094
0.000526798
0.000766097
0.00104023
0.00134521
0.00167428
0.00201636
0.00235622
0.00267433
0.00294711
0.00314947
0.00327606
0.00324712
-0.000264985
-0.000317754
-0.000306281
-0.000275671
-0.000215169
-0.000121968
6.80413e-06
0.00017417
0.000382634
0.000633648
0.000926992
0.00126008
0.00162749
0.00201808
0.00241528
0.00279618
0.00313097
0.0033853
0.00354841
0.00352123
-0.000429917
-0.000490103
-0.000483159
-0.000458816
-0.000404698
-0.000317143
-0.000192055
-2.48869e-05
0.000188646
0.000452004
0.000767124
0.00113359
0.00154869
0.00200174
0.0024754
0.00294313
0.00336712
0.00369925
0.00391866
0.0038986
-0.000633497
-0.000702839
-0.000701911
-0.000686213
-0.000641435
-0.000562921
-0.000445115
-0.000281624
-6.59556e-05
0.000207932
0.000544822
0.000947342
0.00141836
0.00194801
0.00251988
0.00310463
0.00365525
0.00410401
0.00441101
0.00441113
-0.000877081
-0.000957607
-0.000964567
-0.000960675
-0.000929348
-0.000864838
-0.000759919
-0.000606044
-0.000394075
-0.00011477
0.000240073
0.00067452
0.00120904
0.00182758
0.00252071
0.00325925
0.0039873
0.00461247
0.00505787
0.00511018
-0.00116218
-0.00125619
-0.00127321
-0.00128506
-0.00127254
-0.00122873
-0.00114459
-0.00100921
-0.000810412
-0.000534876
-0.000167913
0.000307915
0.000886655
0.00159705
0.00243174
0.00336578
0.00433819
0.00523128
0.00589981
0.00608268
-0.0014906
-0.00160059
-0.00162989
-0.00166207
-0.00167487
-0.00166026
-0.00160725
-0.00150254
-0.00133105
-0.00107579
-0.000717556
-0.000235489
0.000390223
0.00119079
0.00217859
0.00334785
0.00464663
0.00594178
0.00698239
0.00748185
-0.00186483
-0.00199326
-0.00203653
-0.00209391
-0.00213958
-0.0021643
-0.00215508
-0.00209635
-0.00197051
-0.00175743
-0.00143344
-0.000970669
-0.000338763
0.000524163
0.00164736
0.0030684
0.00477719
0.00665983
0.00832726
0.00957447
-0.00228929
-0.00243762
-0.00249487
-0.002582
-0.00266862
-0.00274414
-0.00279326
-0.00279835
-0.00274008
-0.00259663
-0.00234174
-0.00194113
-0.00134559
-0.000518948
0.000663917
0.00228869
0.00444406
0.00712246
0.00980802
0.0128551
-0.00277302
-0.00293911
-0.00300491
-0.00312507
-0.00326158
-0.00340086
-0.0035242
-0.00361212
-0.00364492
-0.00360171
-0.00345842
-0.00318306
-0.00272746
-0.00201532
-0.000934526
0.000673054
0.00309981
0.00661171
0.0107544
0.0172115
-0.00332971
-0.00351986
-0.0035859
-0.00374331
-0.0039307
-0.00413864
-0.00434769
-0.00453551
-0.00468127
-0.0047673
-0.00477972
-0.00470428
-0.00451844
-0.00417623
-0.00359038
-0.00256046
-0.000691206
0.00324356
0.00845655
0.0201605
-0.00405223
-0.00405068
-0.00408131
-0.00424216
-0.00451536
-0.00484923
-0.00520177
-0.00553524
-0.00582497
-0.00605994
-0.00624597
-0.006401
-0.00655734
-0.00675381
-0.00704285
-0.00739772
-0.00766552
-0.00566794
-0.00230096
0.0160257
-0.00457738
-0.00511775
-0.00506138
-0.00537756
-0.00568056
-0.00603933
-0.00642752
-0.00681538
-0.00718458
-0.00752716
-0.00786522
-0.00825448
-0.0088144
-0.00974931
-0.0114452
-0.0142335
-0.0200299
-0.0222378
-0.0203161
0.0076078
-0.00765214
-0.00523067
-0.00503777
-0.00503177
-0.00550601
-0.0061512
-0.00686406
-0.00754807
-0.00816917
-0.00870078
-0.00919943
-0.00973027
-0.0105385
-0.0118841
-0.0147699
-0.0189143
-0.0289175
-0.0343608
-0.0323035
0.0159413
-0.00462486
-0.0076258
-0.00715841
-0.0078937
-0.00824501
-0.00871471
-0.0092421
-0.00974211
-0.0102096
-0.0106031
-0.0109383
-0.0113759
-0.0120997
-0.0135064
-0.0171875
-0.0218298
-0.0329822
-0.034755
-0.0171394
0.0616581
-0.0285339
-0.00404201
-0.00352685
-0.00369269
-0.00440754
-0.00548179
-0.00669993
-0.00776982
-0.00876811
-0.00947789
-0.0102241
-0.0108013
-0.0118908
-0.0131702
-0.0155162
-0.016827
-0.0151892
0.00443353
0.0628157
0.194998
)
;

boundaryField
{
    movingWall
    {
        type            zeroGradient;
    }
    fixedWalls
    {
        type            zeroGradient;
    }
    frontAndBack
    {
        type            empty;
    }
}


// ************************************************************************* //
