/*--------------------------------*- C++ -*----------------------------------*\
  =========                 |
  \\      /  F ield         | OpenFOAM: The Open Source CFD Toolbox
   \\    /   O peration     | Website:  https://openfoam.org
    \\  /    A nd           | Version:  10
     \\/     M anipulation  |
\*---------------------------------------------------------------------------*/
FoamFile
{
    format      ascii;
    class       volScalarField;
    location    "7.45";
    object      p;
}
// * * * * * * * * * * * * * * * * * * * * * * * * * * * * * * * * * * * * * //

dimensions      [0 2 -2 0 0 0 0];

internalField   nonuniform List<scalar> 
400
(
-4.97164e-09
-2.21521e-05
3.16283e-05
0.00013504
0.000295209
0.000514453
0.000796109
0.00114415
0.00156198
0.00205133
0.00261088
0.00323429
0.00390792
0.00460852
0.00530104
0.00593939
0.00646946
0.00683924
0.00704148
0.00699407
2.40405e-05
1.33792e-06
6.10562e-05
0.000165723
0.000323996
0.00053901
0.000814598
0.00115501
0.00156394
0.00204354
0.00259317
0.00320742
0.00387302
0.00456951
0.00526204
0.0059043
0.00643998
0.00681474
0.00702461
0.00696573
-3.86344e-05
-6.92266e-05
-1.13234e-05
8.9188e-05
0.000241764
0.000449823
0.000717807
0.00105094
0.00145429
0.00193185
0.00248522
0.00311152
0.0038017
0.00453543
0.00527698
0.00597482
0.00656186
0.00696911
0.00719201
0.00709562
-0.000167947
-0.000204135
-0.000149763
-5.58871e-05
8.78424e-05
0.000285295
0.000541844
0.000864149
0.00125937
0.00173448
0.00229485
0.00294203
0.0036702
0.00446401
0.00528735
0.00608151
0.00676154
0.00722864
0.00747657
0.00731876
-0.000370862
-0.00041196
-0.000363319
-0.000279023
-0.000147817
3.47388e-05
0.000275149
0.000581862
0.000964697
0.00143449
0.00200205
0.00267555
0.00345691
0.00433396
0.00527613
0.00621577
0.00704289
0.00760984
0.00789862
0.00762893
-0.000646155
-0.000692345
-0.000651695
-0.000580338
-0.000466265
-0.00030452
-8.74747e-05
0.000195175
0.000556169
0.0010108
0.00157649
0.00227093
0.00310686
0.00408456
0.0051823
0.00632906
0.00738313
0.00811633
0.00847134
0.00799536
-0.000990203
-0.00104222
-0.00101197
-0.000957533
-0.000866398
-0.000733411
-0.000550187
-0.000304958
1.76249e-05
0.000437266
0.000978574
0.00167079
0.00254346
0.00361502
0.00489277
0.00631381
0.0077093
0.00873081
0.00919473
0.00836268
-0.00139828
-0.00145717
-0.00143984
-0.00140677
-0.00134536
-0.00125085
-0.00111504
-0.000925778
-0.000666388
-0.000314133
0.000161725
0.000802069
0.00165833
0.00278409
0.00420606
0.00592923
0.00780406
0.00935221
0.00998792
0.00867426
-0.00186437
-0.00193125
-0.0019291
-0.00192173
-0.00189709
-0.00185175
-0.00177897
-0.0016683
-0.00150471
-0.00126627
-0.000921281
-0.000424454
0.00028838
0.00129938
0.0026997
0.00458409
0.00700358
0.00951329
0.0104658
0.0089031
-0.00238112
-0.00245703
-0.00247131
-0.00249288
-0.00251102
-0.00252483
-0.0025309
-0.00252309
-0.00249212
-0.00242404
-0.00229783
-0.00208106
-0.00172533
-0.00116406
-0.000297586
0.00108967
0.00361045
0.00742609
0.00928968
0.00895743
-0.00294028
-0.00302595
-0.00305588
-0.0031071
-0.00317112
-0.0032509
-0.00334847
-0.00346518
-0.00360284
-0.00376444
-0.003956
-0.00419082
-0.00450713
-0.00501676
-0.00586292
-0.00674987
-0.00584115
-0.000954108
0.00386948
0.00750012
-0.00353379
-0.00362905
-0.0036699
-0.00374701
-0.00385463
-0.00400105
-0.0041951
-0.00444818
-0.00477802
-0.00521398
-0.00580812
-0.00665845
-0.00796572
-0.0101857
-0.0140095
-0.0192926
-0.0220003
-0.0167157
-0.00812829
0.000805594
-0.00415682
-0.00426134
-0.00430429
-0.00439802
-0.0045391
-0.00474279
-0.00502587
-0.00541029
-0.0059319
-0.00665134
-0.00767721
-0.00921316
-0.0116669
-0.0158285
-0.0229622
-0.0327653
-0.0400836
-0.0356608
-0.0249399
-0.011477
-0.00480399
-0.00490826
-0.00492967
-0.00501959
-0.00517689
-0.00542128
-0.00577301
-0.00626276
-0.00693909
-0.00788422
-0.00924649
-0.0112881
-0.014558
-0.019943
-0.0288948
-0.0405612
-0.0501147
-0.0467156
-0.0372134
-0.0223718
-0.00550458
-0.00561769
-0.00559762
-0.00566599
-0.00580558
-0.00604958
-0.00642349
-0.00696177
-0.00771663
-0.00877283
-0.0102887
-0.0125058
-0.0160172
-0.0214206
-0.0304736
-0.0410965
-0.0497946
-0.0464747
-0.0394767
-0.0245975
-0.00634027
-0.00625836
-0.00611632
-0.00607691
-0.0061735
-0.00641512
-0.0068103
-0.00737855
-0.00816209
-0.00923026
-0.0107304
-0.0128249
-0.0160522
-0.0207529
-0.0278896
-0.0356218
-0.041519
-0.0380029
-0.0336293
-0.0164751
-0.00682175
-0.00724203
-0.00693419
-0.00692924
-0.00690756
-0.00702465
-0.00729495
-0.00775106
-0.00843246
-0.00938304
-0.0107269
-0.0125829
-0.0152944
-0.0189356
-0.0241374
-0.0290502
-0.0326261
-0.0281549
-0.0230045
0.00291143
-0.0102018
-0.0076759
-0.00702386
-0.00642001
-0.00633225
-0.00650146
-0.00687058
-0.00740258
-0.00811898
-0.00903592
-0.0102611
-0.0118947
-0.0141627
-0.0169968
-0.0207283
-0.0235056
-0.0246934
-0.0182472
-0.00679313
0.0364606
-0.00687487
-0.00986708
-0.00877535
-0.0087719
-0.00830108
-0.00805305
-0.0079923
-0.00814636
-0.00855904
-0.00922336
-0.010248
-0.0116323
-0.013766
-0.0163468
-0.0200363
-0.0222758
-0.022318
-0.00858232
0.0179898
0.0948926
-0.0320984
-0.00704156
-0.00549546
-0.00473661
-0.00453028
-0.0047394
-0.00525373
-0.00587114
-0.00669059
-0.00763134
-0.00893847
-0.0104824
-0.0125786
-0.0146224
-0.0163933
-0.0142442
-0.00487388
0.0289505
0.0964466
0.227785
)
;

boundaryField
{
    movingWall
    {
        type            zeroGradient;
    }
    fixedWalls
    {
        type            zeroGradient;
    }
    frontAndBack
    {
        type            empty;
    }
}


// ************************************************************************* //
