/*--------------------------------*- C++ -*----------------------------------*\
  =========                 |
  \\      /  F ield         | OpenFOAM: The Open Source CFD Toolbox
   \\    /   O peration     | Website:  https://openfoam.org
    \\  /    A nd           | Version:  10
     \\/     M anipulation  |
\*---------------------------------------------------------------------------*/
FoamFile
{
    format      ascii;
    class       volVectorField;
    location    "7.45";
    object      U;
}
// * * * * * * * * * * * * * * * * * * * * * * * * * * * * * * * * * * * * * //

dimensions      [0 1 -1 0 0 0 0];

internalField   nonuniform List<vector> 
400
(
(-0.000136346 0.000123251 0)
(-0.00103848 0.000389875 0)
(-0.00256415 0.000486179 0)
(-0.0041165 0.000514624 0)
(-0.00570596 0.000525674 0)
(-0.00729288 0.000534881 0)
(-0.00885904 0.000541435 0)
(-0.01038 0.000539185 0)
(-0.0118151 0.000520041 0)
(-0.0131043 0.000474497 0)
(-0.0141658 0.000391947 0)
(-0.0148943 0.000261976 0)
(-0.0151645 7.71425e-05 0)
(-0.0148393 -0.000169627 0)
(-0.0137921 -0.000467653 0)
(-0.0119419 -0.000788252 0)
(-0.00931249 -0.00107255 0)
(-0.00615067 -0.00122582 0)
(-0.00263113 -0.00111063 0)
(-0.000387175 -0.00046734 0)
(-0.000440307 0.00105483 0)
(-0.0023178 0.00220676 0)
(-0.00519063 0.00262346 0)
(-0.00810429 0.00273644 0)
(-0.0110497 0.00274501 0)
(-0.0139423 0.00271296 0)
(-0.0167309 0.00264222 0)
(-0.01936 0.00251301 0)
(-0.0217536 0.00229718 0)
(-0.0238108 0.00196161 0)
(-0.0254017 0.00147053 0)
(-0.0263672 0.000789384 0)
(-0.0265304 -0.0001083 0)
(-0.0256994 -0.00121973 0)
(-0.0236988 -0.00249501 0)
(-0.0204299 -0.00381423 0)
(-0.0159537 -0.00495032 0)
(-0.0106467 -0.00553876 0)
(-0.0047988 -0.00506115 0)
(-0.000868804 -0.00252108 0)
(-0.00057156 0.00271688 0)
(-0.00289381 0.00514693 0)
(-0.00637721 0.00600975 0)
(-0.00988274 0.00622094 0)
(-0.013404 0.00618902 0)
(-0.0168413 0.00604553 0)
(-0.0201353 0.00580017 0)
(-0.0232244 0.00541928 0)
(-0.026026 0.00485167 0)
(-0.0284315 0.00403575 0)
(-0.030302 0.00290497 0)
(-0.0314666 0.00139626 0)
(-0.0317163 -0.000534868 0)
(-0.0308144 -0.00288424 0)
(-0.0285367 -0.00555637 0)
(-0.024724 -0.00831264 0)
(-0.0193973 -0.0106932 0)
(-0.0129824 -0.0119356 0)
(-0.00581213 -0.0109687 0)
(-0.00101803 -0.00573834 0)
(-0.000613448 0.00448317 0)
(-0.00312217 0.0082789 0)
(-0.00687912 0.00959655 0)
(-0.0106459 0.00989388 0)
(-0.0144297 0.00981122 0)
(-0.0181321 0.00955221 0)
(-0.0217008 0.00913507 0)
(-0.025083 0.00851315 0)
(-0.0282054 0.00761229 0)
(-0.0309667 0.00633989 0)
(-0.0332286 0.00459178 0)
(-0.0348075 0.00226607 0)
(-0.0354696 -0.000714033 0)
(-0.0349139 -0.00437633 0)
(-0.0328034 -0.00860507 0)
(-0.0288365 -0.013055 0)
(-0.0228938 -0.0169989 0)
(-0.0154141 -0.0191525 0)
(-0.00675906 -0.0176889 0)
(-0.00106491 -0.00921702 0)
(-0.000619702 0.00632961 0)
(-0.00321174 0.0115726 0)
(-0.00711522 0.0133692 0)
(-0.0110304 0.0137619 0)
(-0.0149803 0.0136414 0)
(-0.0188753 0.0132894 0)
(-0.0226796 0.0127355 0)
(-0.0263595 0.0119214 0)
(-0.0298625 0.0107499 0)
(-0.0331064 0.00909326 0)
(-0.0359624 0.00679816 0)
(-0.0382392 0.00369826 0)
(-0.0396699 -0.000357484 0)
(-0.0398652 -0.0054451 0)
(-0.0383212 -0.0115049 0)
(-0.0344952 -0.0181112 0)
(-0.0279804 -0.0242209 0)
(-0.0191071 -0.0278187 0)
(-0.00817193 -0.0259024 0)
(-0.00107663 -0.0132188 0)
(-0.000614661 0.00820612 0)
(-0.00325777 0.0149627 0)
(-0.00727117 0.0172661 0)
(-0.0113063 0.0177726 0)
(-0.0154021 0.0176412 0)
(-0.0194821 0.0172401 0)
(-0.0235337 0.0166145 0)
(-0.0275518 0.0156986 0)
(-0.0315169 0.0143731 0)
(-0.0353821 0.0124725 0)
(-0.0390498 0.00978231 0)
(-0.0423405 0.0060439 0)
(-0.0449469 0.000984948 0)
(-0.0464087 -0.00560703 0)
(-0.0460256 -0.013819 0)
(-0.0428688 -0.0232416 0)
(-0.0360128 -0.0325167 0)
(-0.0253437 -0.0386212 0)
(-0.0106927 -0.0365185 0)
(-0.00108389 -0.0180337 0)
(-0.00060547 0.0100962 0)
(-0.00329189 0.0184283 0)
(-0.00740811 0.0212684 0)
(-0.011556 0.0219105 0)
(-0.01579 0.0218011 0)
(-0.0200503 0.0214055 0)
(-0.0243533 0.0207927 0)
(-0.0287323 0.0198959 0)
(-0.0332158 0.0185799 0)
(-0.0378147 0.0166433 0)
(-0.0424955 0.0138046 0)
(-0.0471313 0.00969047 0)
(-0.0514349 0.00384702 0)
(-0.0549142 -0.00420681 0)
(-0.0566867 -0.0148073 0)
(-0.0553633 -0.0278235 0)
(-0.049149 -0.0417996 0)
(-0.0366082 -0.0525622 0)
(-0.0159491 -0.0512069 0)
(-0.00128637 -0.0244351 0)
(-0.000593064 0.0119957 0)
(-0.00332107 0.0219675 0)
(-0.00753837 0.0253728 0)
(-0.0117885 0.026168 0)
(-0.0161418 0.0261103 0)
(-0.020556 0.0257754 0)
(-0.0250814 0.0252673 0)
(-0.029799 0.024531 0)
(-0.034802 0.0234297 0)
(-0.0401879 0.0217397 0)
(-0.0460339 0.0191204 0)
(-0.0523461 0.0150771 0)
(-0.0589769 0.00892901 0)
(-0.0655163 -0.000155641 0)
(-0.0711141 -0.0129837 0)
(-0.0740499 -0.0302013 0)
(-0.0711099 -0.0510449 0)
(-0.0574265 -0.070761 0)
(-0.0276715 -0.0730716 0)
(-0.00251233 -0.0344616 0)
(-0.000578134 0.0139016 0)
(-0.00334888 0.02558 0)
(-0.007665 0.0295718 0)
(-0.0119969 0.0305254 0)
(-0.0164306 0.0305359 0)
(-0.0209404 0.0303057 0)
(-0.0256122 0.0299885 0)
(-0.0305804 0.0295595 0)
(-0.0360177 0.0289056 0)
(-0.0421377 0.027814 0)
(-0.0491854 0.0259245 0)
(-0.0574081 0.0226583 0)
(-0.0669764 0.0171401 0)
(-0.077894 0.00815627 0)
(-0.0899253 -0.00587246 0)
(-0.101317 -0.026952 0)
(-0.106161 -0.0575556 0)
(-0.0921051 -0.0941792 0)
(-0.0506533 -0.107582 0)
(-0.0068415 -0.0529029 0)
(-0.000564169 0.0158146 0)
(-0.00338655 0.0292678 0)
(-0.00780168 0.033852 0)
(-0.0121845 0.0349465 0)
(-0.0166379 0.0350165 0)
(-0.0211493 0.03491 0)
(-0.0258369 0.0348467 0)
(-0.0308873 0.0348551 0)
(-0.0365544 0.034881 0)
(-0.0431841 0.0347775 0)
(-0.0512405 0.0342504 0)
(-0.0613312 0.0327709 0)
(-0.0742296 0.029472 0)
(-0.0909079 0.0229876 0)
(-0.112158 0.0107765 0)
(-0.136323 -0.0128755 0)
(-0.151704 -0.0580226 0)
(-0.135096 -0.124566 0)
(-0.0849141 -0.160668 0)
(-0.0181994 -0.0881827 0)
(-0.000560006 0.0177472 0)
(-0.00346113 0.0330423 0)
(-0.00798612 0.0381963 0)
(-0.0123827 0.039378 0)
(-0.0167754 0.0394599 0)
(-0.021159 0.0394534 0)
(-0.0256757 0.0396597 0)
(-0.030551 0.0401833 0)
(-0.0361029 0.0410688 0)
(-0.0427913 0.042306 0)
(-0.0512914 0.0437943 0)
(-0.0626044 0.045286 0)
(-0.0782232 0.046299 0)
(-0.100384 0.0456593 0)
(-0.131255 0.0389246 0)
(-0.166846 0.0124055 0)
(-0.186877 -0.0561804 0)
(-0.165801 -0.164348 0)
(-0.121193 -0.227964 0)
(-0.0376865 -0.151151 0)
(-0.000584492 0.0197388 0)
(-0.00362772 0.0369483 0)
(-0.00829575 0.0426157 0)
(-0.0126663 0.0437839 0)
(-0.0169026 0.0437725 0)
(-0.0210018 0.043777 0)
(-0.0251166 0.0441919 0)
(-0.0294849 0.045213 0)
(-0.0344446 0.0470206 0)
(-0.0405029 0.049818 0)
(-0.048445 0.0538468 0)
(-0.0594976 0.0593992 0)
(-0.0755188 0.066645 0)
(-0.0992043 0.0741291 0)
(-0.132426 0.0733035 0)
(-0.168286 0.0398828 0)
(-0.183717 -0.0552313 0)
(-0.163296 -0.200185 0)
(-0.13886 -0.295108 0)
(-0.0507416 -0.250946 0)
(-0.000668223 0.0218435 0)
(-0.00396538 0.0409705 0)
(-0.00884655 0.0469739 0)
(-0.0131669 0.0479477 0)
(-0.017153 0.0477009 0)
(-0.0207959 0.0475905 0)
(-0.0242514 0.0480767 0)
(-0.0277332 0.0494443 0)
(-0.0315215 0.0520113 0)
(-0.0360387 0.0562113 0)
(-0.041946 0.0626727 0)
(-0.0502652 0.072248 0)
(-0.0624287 0.0855542 0)
(-0.0799383 0.0997949 0)
(-0.10381 0.101708 0)
(-0.127133 0.0602113 0)
(-0.13598 -0.0510948 0)
(-0.124197 -0.2161 0)
(-0.123961 -0.347482 0)
(-0.045123 -0.3572 0)
(-0.000906137 0.0243595 0)
(-0.00472226 0.0456743 0)
(-0.0099054 0.051951 0)
(-0.0140717 0.0525456 0)
(-0.017657 0.0517435 0)
(-0.020683 0.0511509 0)
(-0.0232732 0.0513271 0)
(-0.0255628 0.0526323 0)
(-0.0277096 0.0554783 0)
(-0.0299229 0.0604496 0)
(-0.0325097 0.0684134 0)
(-0.0358094 0.0804239 0)
(-0.0402762 0.0971063 0)
(-0.0456885 0.114165 0)
(-0.0533758 0.116422 0)
(-0.0586001 0.0709535 0)
(-0.0622831 -0.0428743 0)
(-0.0599402 -0.210101 0)
(-0.0863222 -0.369415 0)
(-0.0299055 -0.430788 0)
(-0.00126226 0.0274368 0)
(-0.00562033 0.0497295 0)
(-0.0114028 0.0553396 0)
(-0.015627 0.0549139 0)
(-0.0189361 0.053508 0)
(-0.0212566 0.0525903 0)
(-0.0227766 0.0525694 0)
(-0.023598 0.0537076 0)
(-0.0237439 0.0563944 0)
(-0.0231592 0.0612252 0)
(-0.0217661 0.0690848 0)
(-0.0190828 0.0808188 0)
(-0.0148858 0.0968102 0)
(-0.00719786 0.112504 0)
(0.00076426 0.114115 0)
(0.0126339 0.0705721 0)
(0.00849484 -0.036417 0)
(0.00181968 -0.185404 0)
(-0.0525664 -0.361862 0)
(-0.0144319 -0.476409 0)
(-0.00333978 0.0301255 0)
(-0.0100442 0.0575459 0)
(-0.0151911 0.0630819 0)
(-0.0184417 0.0620974 0)
(-0.0205065 0.0591017 0)
(-0.0217492 0.056551 0)
(-0.0221943 0.0549846 0)
(-0.0217334 0.0546894 0)
(-0.020143 0.0559781 0)
(-0.0170573 0.0592915 0)
(-0.0121143 0.0653402 0)
(-0.00424591 0.0745296 0)
(0.00694684 0.087158 0)
(0.0241228 0.0990189 0)
(0.0417332 0.0998822 0)
(0.0624396 0.0644975 0)
(0.0597919 -0.0262257 0)
(0.050615 -0.148751 0)
(-0.0273433 -0.338746 0)
(0.00226116 -0.50154 0)
(-0.00103983 0.0438258 0)
(-0.00815537 0.0595308 0)
(-0.0183092 0.0610622 0)
(-0.0217506 0.0568578 0)
(-0.0243534 0.0537204 0)
(-0.0249603 0.0516152 0)
(-0.0242966 0.0503974 0)
(-0.0222893 0.0499752 0)
(-0.0187624 0.0505231 0)
(-0.0132375 0.0522813 0)
(-0.00534686 0.0558244 0)
(0.00644005 0.0613421 0)
(0.0220623 0.0689175 0)
(0.0445129 0.0754537 0)
(0.0659938 0.0741947 0)
(0.0928229 0.0487978 0)
(0.088667 -0.017515 0)
(0.0784652 -0.109367 0)
(-0.00333603 -0.310239 0)
(0.0228989 -0.508297 0)
(-0.0125287 0.0324006 0)
(-0.0237306 0.0800487 0)
(-0.0224737 0.0795781 0)
(-0.0277841 0.0745085 0)
(-0.0287429 0.0671524 0)
(-0.0279091 0.0610429 0)
(-0.0250615 0.056098 0)
(-0.0204357 0.052258 0)
(-0.014085 0.0495344 0)
(-0.00562716 0.0477608 0)
(0.00490876 0.0472678 0)
(0.0189421 0.0480519 0)
(0.0355507 0.0505207 0)
(0.0583464 0.052359 0)
(0.077002 0.052023 0)
(0.10517 0.0383111 0)
(0.100878 -0.001248 0)
(0.111021 -0.0694684 0)
(0.0439491 -0.278616 0)
(0.0588079 -0.494396 0)
(-0.0775435 0.0961838 0)
(-0.0632399 0.0589535 0)
(-0.0655836 0.0598944 0)
(-0.0436248 0.0532327 0)
(-0.0262756 0.0462949 0)
(-0.0061002 0.0411455 0)
(0.0129407 0.0373881 0)
(0.0322886 0.0341866 0)
(0.0501854 0.0318687 0)
(0.0695347 0.0297025 0)
(0.0864062 0.0284878 0)
(0.107826 0.0275549 0)
(0.123303 0.0272168 0)
(0.152852 0.0270649 0)
(0.163425 0.0226251 0)
(0.204151 0.0144616 0)
(0.195744 -0.0197047 0)
(0.227979 -0.076573 0)
(0.156776 -0.253946 0)
(0.126167 -0.435827 0)
(0.119497 0.140817 0)
(0.152229 0.0861781 0)
(0.22876 0.0635806 0)
(0.284216 0.0481054 0)
(0.325556 0.0374313 0)
(0.363806 0.0296458 0)
(0.392476 0.024212 0)
(0.423668 0.0201544 0)
(0.443463 0.0172195 0)
(0.472117 0.0150078 0)
(0.484715 0.013208 0)
(0.514312 0.0120642 0)
(0.519635 0.0109344 0)
(0.552743 0.00996544 0)
(0.547958 0.00823194 0)
(0.581777 0.0037966 0)
(0.551499 -0.00554461 0)
(0.55756 -0.0274793 0)
(0.42252 -0.0734953 0)
(0.275754 -0.15209 0)
)
;

boundaryField
{
    movingWall
    {
        type            fixedValue;
        value           uniform (1 0 0);
    }
    fixedWalls
    {
        type            noSlip;
    }
    frontAndBack
    {
        type            empty;
    }
}


// ************************************************************************* //
