/*--------------------------------*- C++ -*----------------------------------*\
  =========                 |
  \\      /  F ield         | OpenFOAM: The Open Source CFD Toolbox
   \\    /   O peration     | Website:  https://openfoam.org
    \\  /    A nd           | Version:  10
     \\/     M anipulation  |
\*---------------------------------------------------------------------------*/
FoamFile
{
    format      ascii;
    class       volVectorField;
    location    "7.675";
    object      U;
}
// * * * * * * * * * * * * * * * * * * * * * * * * * * * * * * * * * * * * * //

dimensions      [0 1 -1 0 0 0 0];

internalField   nonuniform List<vector> 
400
(
(-0.00014144 0.000127373 0)
(-0.00106821 0.000400249 0)
(-0.00263463 0.000499124 0)
(-0.00423204 0.000529209 0)
(-0.00587169 0.000541935 0)
(-0.00751406 0.000553306 0)
(-0.00914162 0.000562509 0)
(-0.0107301 0.000563092 0)
(-0.0122377 0.000546437 0)
(-0.0136017 0.000502247 0)
(-0.0147353 0.000418861 0)
(-0.0155257 0.000284627 0)
(-0.0158374 9.10662e-05 0)
(-0.0155206 -0.000170067 0)
(-0.0144358 -0.00048741 0)
(-0.0124943 -0.000829232 0)
(-0.0097235 -0.00113024 0)
(-0.0063943 -0.00128724 0)
(-0.00270437 -0.00115663 0)
(-0.000381454 -0.000473147 0)
(-0.000454342 0.00108578 0)
(-0.00238441 0.00226658 0)
(-0.00533853 0.0026975 0)
(-0.00834278 0.00282022 0)
(-0.0113883 0.00283754 0)
(-0.0143894 0.00281488 0)
(-0.017295 0.00275396 0)
(-0.0200484 0.00263356 0)
(-0.0225706 0.00242311 0)
(-0.024755 0.00208621 0)
(-0.026463 0.00158313 0)
(-0.0275226 0.000874978 0)
(-0.0277415 -6.88245e-05 0)
(-0.026909 -0.00124715 0)
(-0.0248314 -0.00260604 0)
(-0.0213993 -0.00401274 0)
(-0.0166804 -0.00521563 0)
(-0.0110882 -0.00581834 0)
(-0.00494937 -0.00527921 0)
(-0.000872135 -0.00257992 0)
(-0.000590375 0.00279722 0)
(-0.00298109 0.00529161 0)
(-0.00656862 0.00618737 0)
(-0.010189 0.00642078 0)
(-0.0138356 0.00640759 0)
(-0.0174073 0.00628261 0)
(-0.0208443 0.00605516 0)
(-0.0240836 0.00568856 0)
(-0.0270395 0.00512675 0)
(-0.0295972 0.00430162 0)
(-0.0316081 0.00313878 0)
(-0.0328876 0.00156688 0)
(-0.0332087 -0.00046579 0)
(-0.0323115 -0.00295842 0)
(-0.0299473 -0.00580758 0)
(-0.0259385 -0.00874949 0)
(-0.0203085 -0.0112745 0)
(-0.0135279 -0.0125498 0)
(-0.00597776 -0.0114515 0)
(-0.00100706 -0.00587914 0)
(-0.000634022 0.00461899 0)
(-0.0032178 0.00851871 0)
(-0.00708852 0.00988911 0)
(-0.0109801 0.010221 0)
(-0.0148999 0.0101667 0)
(-0.018748 0.00993516 0)
(-0.0224724 0.00954425 0)
(-0.02602 0.00894301 0)
(-0.0293155 0.00805022 0)
(-0.0322528 0.00676355 0)
(-0.0346848 0.00496661 0)
(-0.036414 0.00254374 0)
(-0.0371872 -0.000595132 0)
(-0.0366747 -0.0044808 0)
(-0.0345023 -0.00899529 0)
(-0.0303331 -0.0137559 0)
(-0.024031 -0.0179542 0)
(-0.0160824 -0.0201769 0)
(-0.00691225 -0.018486 0)
(-0.00101326 -0.00941367 0)
(-0.00063956 0.00652228 0)
(-0.00330546 0.0119104 0)
(-0.00732196 0.0137805 0)
(-0.011362 0.0142209 0)
(-0.015449 0.0141395 0)
(-0.019493 0.013826 0)
(-0.0234597 0.0133099 0)
(-0.0273172 0.0125278 0)
(-0.0310135 0.0113735 0)
(-0.0344645 0.00970643 0)
(-0.0375361 0.0073562 0)
(-0.0400249 0.00413528 0)
(-0.0416385 -0.000129012 0)
(-0.0419561 -0.00552939 0)
(-0.0404233 -0.012009 0)
(-0.0364264 -0.0191007 0)
(-0.0295022 -0.0256434 0)
(-0.0200057 -0.0293991 0)
(-0.00830153 -0.0271177 0)
(-0.000944281 -0.0134301 0)
(-0.000632133 0.00845202 0)
(-0.00334234 0.0153938 0)
(-0.00746068 0.017792 0)
(-0.011614 0.0183606 0)
(-0.0158418 0.0182811 0)
(-0.0200687 0.0179328 0)
(-0.0242856 0.0173623 0)
(-0.0284918 0.0164979 0)
(-0.0326722 0.0152105 0)
(-0.0367828 0.0133188 0)
(-0.0407262 0.0105864 0)
(-0.0443146 0.00672486 0)
(-0.0472216 0.00142646 0)
(-0.04895 -0.00556188 0)
(-0.0487297 -0.0143521 0)
(-0.045523 -0.0245043 0)
(-0.0382656 -0.0345179 0)
(-0.0267555 -0.0410129 0)
(-0.0108434 -0.0383473 0)
(-0.000811076 -0.0181923 0)
(-0.000619384 0.0103881 0)
(-0.0033621 0.0189424 0)
(-0.00756968 0.021899 0)
(-0.0118238 0.0226187 0)
(-0.0161795 0.0225765 0)
(-0.0205793 0.0222523 0)
(-0.0250455 0.0217184 0)
(-0.0296191 0.0209032 0)
(-0.0343377 0.0196616 0)
(-0.0392226 0.0177754 0)
(-0.0442494 0.0149366 0)
(-0.0492954 0.0107323 0)
(-0.0540661 0.00465109 0)
(-0.058049 -0.00385552 0)
(-0.0602916 -0.0151739 0)
(-0.0592515 -0.0292239 0)
(-0.0528418 -0.044455 0)
(-0.039173 -0.0562079 0)
(-0.0163567 -0.0540577 0)
(-0.000819744 -0.0244982 0)
(-0.000602429 0.0123234 0)
(-0.0033725 0.0225497 0)
(-0.0076628 0.0260931 0)
(-0.0120023 0.0269829 0)
(-0.0164612 0.0270097 0)
(-0.0210008 0.0267685 0)
(-0.0256793 0.0263694 0)
(-0.030589 0.0257557 0)
(-0.0358383 0.0247831 0)
(-0.0415441 0.0232128 0)
(-0.047808 0.0206779 0)
(-0.0546648 0.0166392 0)
(-0.0619937 0.0103473 0)
(-0.0693895 0.000871877 0)
(-0.0760099 -0.0127308 0)
(-0.07997 -0.0312818 0)
(-0.0773779 -0.0542725 0)
(-0.062048 -0.0763913 0)
(-0.0288737 -0.077816 0)
(-0.00191498 -0.034554 0)
(-0.00058203 0.0142525 0)
(-0.00337747 0.0262116 0)
(-0.00774364 0.0303623 0)
(-0.0121426 0.0314277 0)
(-0.0166592 0.0315409 0)
(-0.0212717 0.0314288 0)
(-0.0260751 0.0312556 0)
(-0.0312179 0.0309991 0)
(-0.0368934 0.0305446 0)
(-0.0433449 0.0296716 0)
(-0.0508601 0.0280029 0)
(-0.0597467 0.0249264 0)
(-0.0702669 0.0195108 0)
(-0.0825673 0.0104417 0)
(-0.0964918 -0.00412399 0)
(-0.109994 -0.026872 0)
(-0.115589 -0.061296 0)
(-0.0985394 -0.103004 0)
(-0.053258 -0.1156 0)
(-0.00662052 -0.0535664 0)
(-0.000561818 0.0161738 0)
(-0.00338879 0.029926 0)
(-0.00782677 0.0346884 0)
(-0.0122491 0.0359108 0)
(-0.0167552 0.0361006 0)
(-0.0213362 0.0361359 0)
(-0.0261194 0.0362525 0)
(-0.0313063 0.0364879 0)
(-0.0371741 0.0367952 0)
(-0.0441054 0.0370345 0)
(-0.0526243 0.0369173 0)
(-0.0634389 0.0359193 0)
(-0.077497 0.033181 0)
(-0.0960452 0.0272745 0)
(-0.12004 0.0150719 0)
(-0.146733 -0.0110271 0)
(-0.161389 -0.0633226 0)
(-0.140319 -0.138063 0)
(-0.0895792 -0.171855 0)
(-0.0195572 -0.0905219 0)
(-0.000550908 0.0180979 0)
(-0.00343454 0.0337011 0)
(-0.00795183 0.0390492 0)
(-0.0123556 0.0403722 0)
(-0.0167637 0.0405868 0)
(-0.021173 0.040741 0)
(-0.0257327 0.0411579 0)
(-0.0306809 0.041958 0)
(-0.0363563 0.0432055 0)
(-0.0432545 0.0449178 0)
(-0.0521133 0.0470379 0)
(-0.0640411 0.0493911 0)
(-0.0807156 0.0515782 0)
(-0.104652 0.0522358 0)
(-0.137738 0.0453974 0)
(-0.17389 0.0141045 0)
(-0.190476 -0.0651797 0)
(-0.166948 -0.180379 0)
(-0.126573 -0.239167 0)
(-0.0398358 -0.158257 0)
(-0.000568733 0.0200636 0)
(-0.00357205 0.0375808 0)
(-0.00820008 0.0434552 0)
(-0.012542 0.0447739 0)
(-0.0167507 0.0449011 0)
(-0.0208225 0.0450754 0)
(-0.0249132 0.0457183 0)
(-0.0292667 0.0470484 0)
(-0.0342316 0.0492766 0)
(-0.0403338 0.0526552 0)
(-0.048393 0.0575097 0)
(-0.0596889 0.0642578 0)
(-0.0761177 0.0731051 0)
(-0.100322 0.0818983 0)
(-0.133323 0.0795585 0)
(-0.166668 0.0390196 0)
(-0.178116 -0.066112 0)
(-0.159263 -0.212929 0)
(-0.139379 -0.305194 0)
(-0.0504944 -0.262852 0)
(-0.000645922 0.0221242 0)
(-0.0038812 0.041545 0)
(-0.00869078 0.0477601 0)
(-0.0129468 0.0488854 0)
(-0.0168604 0.0487737 0)
(-0.020418 0.0488293 0)
(-0.0237733 0.0495418 0)
(-0.0271364 0.0512208 0)
(-0.0307813 0.0542174 0)
(-0.035118 0.0590185 0)
(-0.0407821 0.0663369 0)
(-0.0487241 0.0771037 0)
(-0.0601862 0.0917786 0)
(-0.0763933 0.106428 0)
(-0.0977024 0.105379 0)
(-0.117148 0.0564504 0)
(-0.123362 -0.0617593 0)
(-0.114595 -0.224584 0)
(-0.117985 -0.354115 0)
(-0.0430475 -0.365045 0)
(-0.000879501 0.0245827 0)
(-0.00461771 0.0461718 0)
(-0.00970166 0.0526632 0)
(-0.0137676 0.053405 0)
(-0.0172344 0.0527232 0)
(-0.0201176 0.0522753 0)
(-0.0225337 0.0526499 0)
(-0.0246062 0.0542278 0)
(-0.0264727 0.0574444 0)
(-0.0283041 0.0629158 0)
(-0.0303411 0.0715469 0)
(-0.0327714 0.0843582 0)
(-0.0358206 0.101708 0)
(-0.0390764 0.11811 0)
(-0.0437816 0.11708 0)
(-0.0458987 0.065103 0)
(-0.0488602 -0.0529912 0)
(-0.049562 -0.214427 0)
(-0.0801286 -0.369839 0)
(-0.02806 -0.432373 0)
(-0.00123298 0.0275915 0)
(-0.00549735 0.0501249 0)
(-0.0111587 0.0559348 0)
(-0.0152559 0.0556347 0)
(-0.0184109 0.0543237 0)
(-0.0205419 0.0535183 0)
(-0.0218294 0.0536526 0)
(-0.0223612 0.0550012 0)
(-0.0221382 0.0579625 0)
(-0.0210607 0.0631329 0)
(-0.0189913 0.0713819 0)
(-0.015274 0.0834249 0)
(-0.00966067 0.099394 0)
(0.000143014 0.113916 0)
(0.0102281 0.112324 0)
(0.0228622 0.0637852 0)
(0.0178769 -0.0448249 0)
(0.00837277 -0.187137 0)
(-0.0497305 -0.359619 0)
(-0.01302 -0.475657 0)
(-0.00331141 0.0301951 0)
(-0.00992654 0.0578174 0)
(-0.0149421 0.0635478 0)
(-0.0180418 0.062676 0)
(-0.0199163 0.0597402 0)
(-0.0209278 0.0572574 0)
(-0.0210945 0.0557894 0)
(-0.0202967 0.0556292 0)
(-0.0182949 0.0570878 0)
(-0.0146901 0.0605856 0)
(-0.00911592 0.066781 0)
(-0.000381086 0.0759788 0)
(0.0118631 0.0881136 0)
(0.0301225 0.0986862 0)
(0.0484101 0.0967068 0)
(0.068762 0.0580029 0)
(0.0638842 -0.0323283 0)
(0.0522313 -0.149083 0)
(-0.0264806 -0.336208 0)
(0.00273767 -0.499536 0)
(-0.00102249 0.0438455 0)
(-0.00806701 0.0597114 0)
(-0.018093 0.0613873 0)
(-0.0213488 0.0572368 0)
(-0.0237246 0.0541132 0)
(-0.0240713 0.0520304 0)
(-0.0231147 0.0508596 0)
(-0.0207691 0.0505088 0)
(-0.0168502 0.0511463 0)
(-0.010866 0.0529925 0)
(-0.00242331 0.056565 0)
(0.00993537 0.0620132 0)
(0.0260449 0.0691013 0)
(0.048799 0.074587 0)
(0.0698907 0.0715866 0)
(0.0953893 0.0444084 0)
(0.0885232 -0.0211654 0)
(0.0765191 -0.108941 0)
(-0.00458217 -0.308499 0)
(0.0226482 -0.506784 0)
(-0.0125366 0.0323602 0)
(-0.0236389 0.0801025 0)
(-0.0222377 0.0797259 0)
(-0.0273694 0.0746733 0)
(-0.0281366 0.0673062 0)
(-0.0271057 0.0611992 0)
(-0.0240433 0.0562734 0)
(-0.0191733 0.0524623 0)
(-0.0125426 0.049778 0)
(-0.00376968 0.0480553 0)
(0.00714629 0.047604 0)
(0.0215251 0.0483249 0)
(0.0383202 0.0506079 0)
(0.0611124 0.0519575 0)
(0.0791133 0.0507573 0)
(0.105807 0.0363743 0)
(0.0996271 -0.00275186 0)
(0.108646 -0.0688871 0)
(0.0425911 -0.277589 0)
(0.0588518 -0.493413 0)
(-0.0775688 0.09612 0)
(-0.0632524 0.0589116 0)
(-0.0655485 0.0599031 0)
(-0.0434923 0.0532461 0)
(-0.026077 0.0463024 0)
(-0.00582414 0.04115 0)
(0.0132891 0.0373935 0)
(0.0327274 0.0341924 0)
(0.0507249 0.031877 0)
(0.0702097 0.0297286 0)
(0.0872157 0.0285346 0)
(0.108838 0.0275814 0)
(0.124387 0.0271996 0)
(0.153946 0.0268902 0)
(0.164445 0.0222761 0)
(0.203971 0.0139196 0)
(0.195126 -0.0200832 0)
(0.226894 -0.0760817 0)
(0.156067 -0.253303 0)
(0.125944 -0.43511 0)
(0.119472 0.140812 0)
(0.152185 0.0861646 0)
(0.228691 0.063569 0)
(0.284145 0.0480969 0)
(0.325508 0.0374315 0)
(0.363765 0.0296443 0)
(0.392428 0.0242147 0)
(0.423643 0.0201668 0)
(0.443451 0.0172204 0)
(0.472078 0.0150036 0)
(0.484743 0.0132247 0)
(0.514278 0.01202 0)
(0.519633 0.0109276 0)
(0.552596 0.00988737 0)
(0.547792 0.00807523 0)
(0.581232 0.00367589 0)
(0.550755 -0.00569689 0)
(0.556608 -0.0274083 0)
(0.421894 -0.0735277 0)
(0.275606 -0.152192 0)
)
;

boundaryField
{
    movingWall
    {
        type            fixedValue;
        value           uniform (1 0 0);
    }
    fixedWalls
    {
        type            noSlip;
    }
    frontAndBack
    {
        type            empty;
    }
}


// ************************************************************************* //
