/*--------------------------------*- C++ -*----------------------------------*\
  =========                 |
  \\      /  F ield         | OpenFOAM: The Open Source CFD Toolbox
   \\    /   O peration     | Website:  https://openfoam.org
    \\  /    A nd           | Version:  10
     \\/     M anipulation  |
\*---------------------------------------------------------------------------*/
FoamFile
{
    format      ascii;
    class       volVectorField;
    location    "7.975";
    object      U;
}
// * * * * * * * * * * * * * * * * * * * * * * * * * * * * * * * * * * * * * //

dimensions      [0 1 -1 0 0 0 0];

internalField   nonuniform List<vector> 
400
(
(-0.000147768 0.000132268 0)
(-0.00110756 0.000413857 0)
(-0.00272921 0.000516177 0)
(-0.00438725 0.000548402 0)
(-0.00609452 0.000563379 0)
(-0.00781174 0.000577715 0)
(-0.00952247 0.000590597 0)
(-0.0112028 0.000595176 0)
(-0.0128094 0.000582124 0)
(-0.0142759 0.000540027 0)
(-0.0155088 0.000455718 0)
(-0.0163843 0.000315774 0)
(-0.0167526 0.000110215 0)
(-0.0164455 -0.000171328 0)
(-0.0153055 -0.000515986 0)
(-0.0132327 -0.000887416 0)
(-0.010262 -0.00121065 0)
(-0.00670054 -0.00137018 0)
(-0.0027826 -0.00121423 0)
(-0.000365389 -0.000474298 0)
(-0.000473261 0.00112684 0)
(-0.00247555 0.0023478 0)
(-0.00554135 0.00279783 0)
(-0.00866938 0.00293358 0)
(-0.0118517 0.00296288 0)
(-0.0150017 0.00295328 0)
(-0.0180679 0.0029062 0)
(-0.0209926 0.00279838 0)
(-0.0236926 0.00259591 0)
(-0.0260533 0.0022577 0)
(-0.0279236 0.0017383 0)
(-0.0291131 0.000992438 0)
(-0.0294079 -1.64186e-05 0)
(-0.0285701 -0.00128959 0)
(-0.0263792 -0.00276683 0)
(-0.0227119 -0.00429576 0)
(-0.0176481 -0.00558791 0)
(-0.0116568 -0.00620034 0)
(-0.00512404 -0.00556069 0)
(-0.000864575 -0.00263727 0)
(-0.000616008 0.0029061 0)
(-0.003101 0.00548978 0)
(-0.00683176 0.00642989 0)
(-0.0106094 0.00669331 0)
(-0.014428 0.00670602 0)
(-0.0181844 0.00660709 0)
(-0.0218185 0.00640512 0)
(-0.0252657 0.00605921 0)
(-0.0284355 0.00550642 0)
(-0.0312046 0.00466929 0)
(-0.0334107 0.00346212 0)
(-0.0348498 0.00180155 0)
(-0.0352688 -0.000374725 0)
(-0.0343745 -0.00307132 0)
(-0.0318826 -0.00617187 0)
(-0.0275896 -0.00937427 0)
(-0.0215245 -0.012094 0)
(-0.0142263 -0.0133944 0)
(-0.00615883 -0.0120791 0)
(-0.000974726 -0.00602311 0)
(-0.00066216 0.00480402 0)
(-0.00334942 0.00884779 0)
(-0.00737677 0.0102894 0)
(-0.0114396 0.0106682 0)
(-0.015546 0.0106533 0)
(-0.0195946 0.0104606 0)
(-0.023534 0.0101072 0)
(-0.0273106 0.00953611 0)
(-0.0308464 0.008656 0)
(-0.0340286 0.00735067 0)
(-0.0366978 0.00548604 0)
(-0.0386365 0.00292621 0)
(-0.0395652 -0.000437783 0)
(-0.0391112 -0.0046416 0)
(-0.0368452 -0.00956333 0)
(-0.0323798 -0.0147632 0)
(-0.0255555 -0.0193096 0)
(-0.0169295 -0.0215955 0)
(-0.00704837 -0.0195194 0)
(-0.000914547 -0.00959634 0)
(-0.000666787 0.00678556 0)
(-0.00343467 0.0123746 0)
(-0.00760689 0.0143439 0)
(-0.0118183 0.0148491 0)
(-0.0160936 0.0148222 0)
(-0.0203426 0.0145632 0)
(-0.0245335 0.0141012 0)
(-0.0286368 0.0133656 0)
(-0.0326015 0.0122374 0)
(-0.0363413 0.0105578 0)
(-0.0397148 0.00813181 0)
(-0.0425019 0.00474088 0)
(-0.0443736 0.000180244 0)
(-0.0448646 -0.00566547 0)
(-0.0433461 -0.012746 0)
(-0.0390984 -0.0205307 0)
(-0.031573 -0.0276798 0)
(-0.0211498 -0.0316137 0)
(-0.00836217 -0.0286879 0)
(-0.000719693 -0.0135756 0)
(-0.000656097 0.00878867 0)
(-0.00345899 0.0159867 0)
(-0.00772184 0.018513 0)
(-0.0120372 0.0191658 0)
(-0.0164461 0.0191587 0)
(-0.0208748 0.0188852 0)
(-0.0253195 0.018393 0)
(-0.0297858 0.0176031 0)
(-0.0342648 0.0163718 0)
(-0.0387179 0.0144962 0)
(-0.0430484 0.0117083 0)
(-0.0470586 0.00767654 0)
(-0.0503951 0.00204128 0)
(-0.0525101 -0.00550997 0)
(-0.0525344 -0.0151307 0)
(-0.0492655 -0.0263349 0)
(-0.0414176 -0.0374118 0)
(-0.0286077 -0.0444239 0)
(-0.0108778 -0.0407084 0)
(-0.000378459 -0.0181757 0)
(-0.000638429 0.010788 0)
(-0.00345882 0.0196497 0)
(-0.00779196 0.0227634 0)
(-0.0121913 0.0235889 0)
(-0.0167134 0.0236402 0)
(-0.0213042 0.0234166 0)
(-0.0259945 0.0229944 0)
(-0.0308362 0.0222962 0)
(-0.0358805 0.021163 0)
(-0.0411638 0.0193529 0)
(-0.0466768 0.016521 0)
(-0.0523051 0.0121976 0)
(-0.0577484 0.00578944 0)
(-0.0624772 -0.00335155 0)
(-0.0654411 -0.0156876 0)
(-0.0648583 -0.0312433 0)
(-0.0581461 -0.0483438 0)
(-0.0426207 -0.061528 0)
(-0.0166896 -0.0577838 0)
(-0.000126886 -0.0242312 0)
(-0.000615178 0.0127726 0)
(-0.00344315 0.0233508 0)
(-0.00783331 0.0270802 0)
(-0.0122941 0.0280986 0)
(-0.0168966 0.0282427 0)
(-0.0216069 0.0281329 0)
(-0.0264943 0.0278878 0)
(-0.0316671 0.0274485 0)
(-0.0372556 0.0266611 0)
(-0.0434055 0.0252673 0)
(-0.0502557 0.0228637 0)
(-0.057887 0.0188502 0)
(-0.0662274 0.0123822 0)
(-0.0748983 0.00238757 0)
(-0.0830923 -0.0122914 0)
(-0.0885999 -0.0328322 0)
(-0.0862977 -0.0591614 0)
(-0.0680671 -0.084799 0)
(-0.0303169 -0.0841194 0)
(-0.001142 -0.03423 0)
(-0.000587243 0.0147335 0)
(-0.00341648 0.0270801 0)
(-0.0078505 0.0314447 0)
(-0.0123396 0.0326617 0)
(-0.0169676 0.032917 0)
(-0.0217184 0.0329698 0)
(-0.0266993 0.0329988 0)
(-0.0320785 0.0329863 0)
(-0.0380781 0.0328166 0)
(-0.0449847 0.0322615 0)
(-0.05315 0.0309238 0)
(-0.0629764 0.0281532 0)
(-0.0748793 0.0229555 0)
(-0.0892352 0.0138768 0)
(-0.105967 -0.00141501 0)
(-0.122276 -0.0268771 0)
(-0.128001 -0.0674828 0)
(-0.10617 -0.116215 0)
(-0.0571473 -0.125986 0)
(-0.0066963 -0.0540698 0)
(-0.000558487 0.016666 0)
(-0.00339148 0.0308306 0)
(-0.00785955 0.035832 0)
(-0.0123336 0.0372277 0)
(-0.0169089 0.0375823 0)
(-0.0215812 0.0378143 0)
(-0.0264901 0.0381817 0)
(-0.031857 0.0387357 0)
(-0.0379913 0.0394419 0)
(-0.0453272 0.0401744 0)
(-0.0544745 0.0406613 0)
(-0.0662875 0.040403 0)
(-0.0819707 0.038568 0)
(-0.103161 0.033571 0)
(-0.130818 0.0210632 0)
(-0.159975 -0.00961348 0)
(-0.172079 -0.0730441 0)
(-0.146186 -0.156861 0)
(-0.0970274 -0.184961 0)
(-0.0218053 -0.0939202 0)
(-0.00053843 0.0185782 0)
(-0.00339777 0.0346054 0)
(-0.00790296 0.0402135 0)
(-0.0123138 0.0417271 0)
(-0.0167392 0.0421233 0)
(-0.0211784 0.0424986 0)
(-0.0257891 0.0432061 0)
(-0.0308253 0.0443903 0)
(-0.0366529 0.046145 0)
(-0.0438142 0.0485325 0)
(-0.0531307 0.0515697 0)
(-0.0658525 0.0551995 0)
(-0.0838918 0.0591056 0)
(-0.110034 0.0613871 0)
(-0.145275 0.0533444 0)
(-0.180597 0.0139176 0)
(-0.192042 -0.0793417 0)
(-0.168113 -0.199419 0)
(-0.133093 -0.252233 0)
(-0.0422722 -0.169106 0)
(-0.000547334 0.0205084 0)
(-0.00349581 0.0384483 0)
(-0.00806746 0.0445989 0)
(-0.0123675 0.0461198 0)
(-0.0165344 0.0464354 0)
(-0.020563 0.0468407 0)
(-0.024611 0.0477943 0)
(-0.0289285 0.0495468 0)
(-0.0338743 0.0523533 0)
(-0.0399927 0.0565385 0)
(-0.0481357 0.0625503 0)
(-0.0596194 0.0709632 0)
(-0.0762989 0.0818961 0)
(-0.100623 0.0918567 0)
(-0.132216 0.0860838 0)
(-0.161257 0.0352407 0)
(-0.168356 -0.080989 0)
(-0.153209 -0.226996 0)
(-0.137414 -0.317719 0)
(-0.0498398 -0.277896 0)
(-0.000615883 0.0225089 0)
(-0.00376665 0.0423328 0)
(-0.00847694 0.0488291 0)
(-0.0126427 0.050157 0)
(-0.0164541 0.0502274 0)
(-0.0198902 0.0505057 0)
(-0.0230996 0.0515212 0)
(-0.026285 0.0536164 0)
(-0.0297067 0.0571866 0)
(-0.0337479 0.062788 0)
(-0.0389899 0.0712359 0)
(-0.046242 0.0835078 0)
(-0.0564213 0.0996904 0)
(-0.070494 0.114085 0)
(-0.0879433 0.108083 0)
(-0.10233 0.0493393 0)
(-0.106261 -0.0755517 0)
(-0.101571 -0.233441 0)
(-0.109443 -0.360314 0)
(-0.0406209 -0.37268 0)
(-0.000843811 0.0248894 0)
(-0.00447599 0.0468529 0)
(-0.00942365 0.0536281 0)
(-0.0133515 0.054566 0)
(-0.0166554 0.0540447 0)
(-0.0193412 0.053788 0)
(-0.0215148 0.0544226 0)
(-0.0232822 0.0563553 0)
(-0.0247506 0.0600495 0)
(-0.0260336 0.0661544 0)
(-0.0272781 0.0756067 0)
(-0.0284451 0.0893112 0)
(-0.0294649 0.107185 0)
(-0.0298128 0.122168 0)
(-0.0306769 0.116054 0)
(-0.0293308 0.0556937 0)
(-0.0328811 -0.0658538 0)
(-0.0379476 -0.218524 0)
(-0.0735607 -0.368902 0)
(-0.0257069 -0.433629 0)
(-0.00119408 0.027806 0)
(-0.00533187 0.0506673 0)
(-0.0108281 0.056741 0)
(-0.0147521 0.056608 0)
(-0.0176979 0.0554225 0)
(-0.0195719 0.0547624 0)
(-0.0205436 0.0550948 0)
(-0.0206815 0.0567083 0)
(-0.0199565 0.0600094 0)
(-0.018207 0.0655856 0)
(-0.0152346 0.0742743 0)
(-0.0101443 0.0865453 0)
(-0.00259795 0.102224 0)
(0.00960501 0.114832 0)
(0.0218959 0.10878 0)
(0.0350337 0.0540408 0)
(0.0279339 -0.0551701 0)
(0.0148422 -0.188521 0)
(-0.0465804 -0.356591 0)
(-0.0115083 -0.474387 0)
(-0.00327367 0.0302953 0)
(-0.0097668 0.0581917 0)
(-0.0146037 0.0641766 0)
(-0.017501 0.0634542 0)
(-0.0191218 0.0605981 0)
(-0.0198247 0.0582015 0)
(-0.01962 0.056856 0)
(-0.0183738 0.0568609 0)
(-0.0158286 0.0585206 0)
(-0.0115395 0.0622216 0)
(-0.00518826 0.0685384 0)
(0.00462696 0.0776311 0)
(0.0181803 0.0889722 0)
(0.0375782 0.0976031 0)
(0.0563441 0.0920793 0)
(0.0759 0.0494571 0)
(0.0676057 -0.039281 0)
(0.0529356 -0.148657 0)
(-0.0258328 -0.333023 0)
(0.00292924 -0.496997 0)
(-0.00100076 0.043878 0)
(-0.00794817 0.0599601 0)
(-0.0178005 0.061829 0)
(-0.0208088 0.0577531 0)
(-0.0228819 0.0546475 0)
(-0.0228824 0.0525901 0)
(-0.0215371 0.0514741 0)
(-0.0187457 0.0512072 0)
(-0.0143163 0.0519458 0)
(-0.00774507 0.0538753 0)
(0.00136411 0.0574497 0)
(0.0144036 0.0627654 0)
(0.0310653 0.0691444 0)
(0.0540357 0.0732108 0)
(0.0744166 0.0680584 0)
(0.097994 0.0388811 0)
(0.0874878 -0.0250695 0)
(0.0735786 -0.108103 0)
(-0.00631923 -0.30653 0)
(0.0224375 -0.505158 0)
(-0.0125454 0.0323141 0)
(-0.0235189 0.0801812 0)
(-0.0219239 0.0799276 0)
(-0.026814 0.0748984 0)
(-0.027322 0.0675178 0)
(-0.0260257 0.061412 0)
(-0.0226771 0.0565071 0)
(-0.0174862 0.0527309 0)
(-0.0104986 0.0500936 0)
(-0.00131346 0.0484233 0)
(0.0100604 0.0480106 0)
(0.0248277 0.0486414 0)
(0.0418037 0.0506442 0)
(0.0644794 0.0513609 0)
(0.0815596 0.0490857 0)
(0.106345 0.0339797 0)
(0.0977243 -0.00420357 0)
(0.10584 -0.0679199 0)
(0.041315 -0.276415 0)
(0.0586819 -0.492187 0)
(-0.0775974 0.096042 0)
(-0.0632612 0.0588645 0)
(-0.0654847 0.0599187 0)
(-0.0432982 0.0532686 0)
(-0.0257886 0.0463174 0)
(-0.0054314 0.0411604 0)
(0.0137815 0.037403 0)
(0.0333379 0.0342052 0)
(0.0514664 0.0318921 0)
(0.0711243 0.0297663 0)
(0.0882872 0.0285886 0)
(0.110158 0.0276119 0)
(0.125789 0.0271653 0)
(0.155262 0.0266442 0)
(0.165652 0.021822 0)
(0.203688 0.0132581 0)
(0.194188 -0.0205223 0)
(0.22558 -0.075422 0)
(0.155383 -0.252676 0)
(0.125548 -0.434396 0)
(0.119442 0.140801 0)
(0.152126 0.0861418 0)
(0.228605 0.0635504 0)
(0.284057 0.0480821 0)
(0.325442 0.0374302 0)
(0.363718 0.0296464 0)
(0.392381 0.0242141 0)
(0.423603 0.0201793 0)
(0.443457 0.0172343 0)
(0.472047 0.0149897 0)
(0.484776 0.0132536 0)
(0.514269 0.0119854 0)
(0.519654 0.0108981 0)
(0.552409 0.00980913 0)
(0.547598 0.00789634 0)
(0.580575 0.00352697 0)
(0.549839 -0.00581988 0)
(0.5555 -0.0273378 0)
(0.421201 -0.0734553 0)
(0.27548 -0.152245 0)
)
;

boundaryField
{
    movingWall
    {
        type            fixedValue;
        value           uniform (1 0 0);
    }
    fixedWalls
    {
        type            noSlip;
    }
    frontAndBack
    {
        type            empty;
    }
}


// ************************************************************************* //
