/*--------------------------------*- C++ -*----------------------------------*\
  =========                 |
  \\      /  F ield         | OpenFOAM: The Open Source CFD Toolbox
   \\    /   O peration     | Website:  https://openfoam.org
    \\  /    A nd           | Version:  10
     \\/     M anipulation  |
\*---------------------------------------------------------------------------*/
FoamFile
{
    format      ascii;
    class       volScalarField;
    location    "4.725";
    object      p;
}
// * * * * * * * * * * * * * * * * * * * * * * * * * * * * * * * * * * * * * //

dimensions      [0 2 -2 0 0 0 0];

internalField   nonuniform List<scalar> 
400
(
-1.38591e-08
-2.58054e-05
2.61383e-06
6.17333e-05
0.000157775
0.000291533
0.000463941
0.000675825
0.000927199
0.00121667
0.00154079
0.0018934
0.0022653
0.00264286
0.00300887
0.00334286
0.00362197
0.00382365
0.00394303
0.00392911
2.64137e-05
-2.49759e-07
3.06141e-05
8.8452e-05
0.00018102
0.000309781
0.000476124
0.000681261
0.000925587
0.00120814
0.00152595
0.00187303
0.00224106
0.00261681
0.00298317
0.00331949
0.00360223
0.00380853
0.00393472
0.00391936
-6.14846e-06
-3.84639e-05
-9.22949e-06
4.56611e-05
0.000134768
0.000259812
0.00042264
0.000625111
0.000868403
0.00115242
0.0014751
0.00183197
0.00221462
0.00261008
0.0030006
0.00336369
0.00367258
0.00389979
0.00404007
0.0040188
-7.65436e-05
-0.000113278
-8.64402e-05
-3.56025e-05
4.87314e-05
0.000168694
0.000326864
0.000526097
0.000768791
0.0010563
0.00138814
0.00176096
0.00216793
0.00259687
0.00302906
0.00343887
0.0037939
0.00405886
0.00422507
0.00420117
-0.00019047
-0.000231751
-0.000208252
-0.000162665
-8.44513e-05
2.90559e-05
0.000181376
0.000376677
0.000619028
0.000911809
0.00125688
0.0016536
0.00209541
0.00257306
0.00306673
0.0035472
0.00397448
0.0043002
0.00450874
0.00448506
-0.000347705
-0.00039432
-0.000375236
-0.000336503
-0.000266455
-0.000161823
-1.79803e-05
0.000170827
0.000410773
0.000707905
0.00106722
0.00149122
0.00197837
0.00252063
0.00309881
0.00367999
0.00421433
0.0046342
0.00490993
0.00489203
-0.000547718
-0.000600776
-0.00058739
-0.000557673
-0.000498768
-0.00040681
-0.000275985
-9.87505e-05
0.000133566
0.000430387
0.000801046
0.00125313
0.00179109
0.00241199
0.00309949
0.00381848
0.00450757
0.00507268
0.00545556
0.00545816
-0.000790138
-0.000850979
-0.000844793
-0.000826808
-0.000782975
-0.000708979
-0.000597884
-0.000440318
-0.000224863
6.1896e-05
0.000434938
0.000909409
0.00149742
0.00220498
0.00302554
0.00392622
0.00483475
0.00562455
0.00618178
0.00624433
-0.0010745
-0.00114459
-0.00114716
-0.00114399
-0.00111997
-0.00107065
-0.000988266
-0.000861869
-0.000677392
-0.000417232
-6.00068e-05
0.000418744
0.00104478
0.00183454
0.0028045
0.00393287
0.00514491
0.0062807
0.00713233
0.00735683
-0.00140024
-0.00148105
-0.00149363
-0.00150834
-0.00150925
-0.00149238
-0.00144974
-0.00136942
-0.0012354
-0.0010264
-0.000714856
-0.00026586
0.000361615
0.00121069
0.00232047
0.00370609
0.00531786
0.00698187
0.00835289
0.00898724
-0.00176694
-0.00185976
-0.00188264
-0.00191754
-0.00194818
-0.00197181
-0.00198118
-0.00196462
-0.00190559
-0.00178102
-0.00155908
-0.00119622
-0.000634333
0.000200898
0.00138041
0.00299275
0.00507582
0.00751869
0.00981983
0.011442
-0.0021751
-0.00228064
-0.00231204
-0.00236759
-0.00243118
-0.00250234
-0.00257577
-0.00264157
-0.00268504
-0.00268476
-0.00260944
-0.00241308
-0.00202716
-0.00135393
-0.000270281
0.00136788
0.00380581
0.00720786
0.0110618
0.0146232
-0.00262782
-0.00274555
-0.00277985
-0.00285296
-0.00294928
-0.00307202
-0.0032192
-0.00338431
-0.00355732
-0.0037233
-0.0038596
-0.00393133
-0.00388375
-0.00363028
-0.00304672
-0.00194642
0.000110312
0.00404318
0.00976286
0.0164939
-0.00313088
-0.00325249
-0.0032743
-0.00335588
-0.00348238
-0.00365928
-0.00388671
-0.0041631
-0.00448618
-0.00485264
-0.00525773
-0.00569496
-0.00615803
-0.00664822
-0.00721925
-0.0079437
-0.00841847
-0.00628814
-5.17076e-05
0.010911
-0.00371715
-0.00385496
-0.00385213
-0.0039357
-0.00407301
-0.00428208
-0.0045723
-0.00495085
-0.00542584
-0.00600985
-0.00672559
-0.00761236
-0.00875241
-0.0103103
-0.0127168
-0.0166261
-0.0225354
-0.0244188
-0.0187604
-0.0024957
-0.00446469
-0.00440012
-0.0042988
-0.0043091
-0.0044497
-0.00471744
-0.00510601
-0.00561423
-0.006253
-0.00704605
-0.00804331
-0.00933986
-0.0111371
-0.0137486
-0.0180986
-0.0251631
-0.0370112
-0.0437363
-0.0398447
-0.0163968
-0.0049423
-0.0053781
-0.00514743
-0.00522895
-0.0053133
-0.00552616
-0.00588042
-0.0063945
-0.00708727
-0.00798553
-0.00915218
-0.0106902
-0.012905
-0.0160808
-0.0217289
-0.0297948
-0.0449223
-0.0535443
-0.0500982
-0.0140006
-0.00824954
-0.00572924
-0.00519869
-0.00475833
-0.00482849
-0.00516783
-0.00571467
-0.00641889
-0.00728954
-0.00833139
-0.00963114
-0.0112314
-0.0135626
-0.0166482
-0.022209
-0.0300417
-0.0422536
-0.0473083
-0.0371737
0.016087
-0.00504583
-0.00796747
-0.00704023
-0.00719664
-0.00694878
-0.00693026
-0.00711436
-0.00753384
-0.00820356
-0.00907608
-0.0102473
-0.0116559
-0.0138026
-0.0166422
-0.0217447
-0.0281623
-0.036475
-0.0314403
-0.00427777
0.0808995
-0.0299327
-0.00496321
-0.0037053
-0.00310424
-0.0030792
-0.00352458
-0.0043218
-0.00521908
-0.0063358
-0.00751101
-0.00902162
-0.0107565
-0.0131046
-0.0159759
-0.0195027
-0.0211906
-0.0179422
0.0104222
0.0799679
0.219041
)
;

boundaryField
{
    movingWall
    {
        type            zeroGradient;
    }
    fixedWalls
    {
        type            zeroGradient;
    }
    frontAndBack
    {
        type            empty;
    }
}


// ************************************************************************* //
