/*--------------------------------*- C++ -*----------------------------------*\
  =========                 |
  \\      /  F ield         | OpenFOAM: The Open Source CFD Toolbox
   \\    /   O peration     | Website:  https://openfoam.org
    \\  /    A nd           | Version:  10
     \\/     M anipulation  |
\*---------------------------------------------------------------------------*/
FoamFile
{
    format      ascii;
    class       volScalarField;
    location    "1.85";
    object      p;
}
// * * * * * * * * * * * * * * * * * * * * * * * * * * * * * * * * * * * * * //

dimensions      [0 2 -2 0 0 0 0];

internalField   nonuniform List<scalar> 
400
(
3.94767e-09
-5.18289e-06
6.31336e-05
0.000180496
0.000348048
0.000562939
0.000821018
0.00111708
0.00144473
0.00179639
0.0021633
0.00253558
0.00290237
0.00325209
0.00357285
0.00385288
0.00408104
0.00424775
0.00434957
0.00435589
3.77676e-06
-2.63042e-06
6.54619e-05
0.000181496
0.000347311
0.000560347
0.00081665
0.00111119
0.00143773
0.0017888
0.00215564
0.00252862
0.00289672
0.00324828
0.00357124
0.00385362
0.004084
0.00425263
0.00435644
0.0043621
-6.65488e-05
-7.51064e-05
-6.07613e-06
0.000111909
0.000281018
0.000498811
0.000761444
0.00106398
0.00140024
0.00176273
0.00214279
0.00253039
0.00291412
0.00328187
0.00362092
0.00391841
0.00416193
0.00434065
0.00445101
0.00445623
-0.000192442
-0.000203039
-0.000131995
-1.00866e-05
0.000165298
0.000391909
0.000666051
0.00098291
0.00133636
0.00171887
0.00212153
0.00253423
0.00294487
0.00334046
0.00370717
0.00403072
0.004297
0.00449337
0.00461525
0.00462153
-0.000378256
-0.000391281
-0.000317173
-0.000189354
-4.63193e-06
0.000234998
0.000526042
0.00086384
0.00124233
0.00165396
0.00208956
0.0025387
0.00298852
0.00342489
0.00383239
0.00419467
0.00449507
0.00471816
0.00485761
0.00486629
-0.000628101
-0.000644294
-0.00056621
-0.000430683
-0.00023375
2.29427e-05
0.000336179
0.000701517
0.00111302
0.00156311
0.00204239
0.00254015
0.00304259
0.00353427
0.00399771
0.00441378
0.00476224
0.00502349
0.00518839
0.00520119
-0.00094694
-0.000967355
-0.00088461
-0.000739884
-0.000528183
-0.000250673
8.98131e-05
0.000489152
0.000941633
0.00143977
0.00197397
0.00253318
0.00310291
0.00366634
0.00420351
0.00469172
0.00510589
0.00542034
0.00562138
0.00564097
-0.00134108
-0.00136719
-0.00127943
-0.00112443
-0.00089582
-0.000594121
-0.000221638
0.000217937
0.00071924
0.00127509
0.0018764
0.00251006
0.00316308
0.0038169
0.00444893
0.00503209
0.00553494
0.00592311
0.00617543
0.00620636
-0.00181817
-0.00185204
-0.00175935
-0.00159356
-0.00134647
-0.0010177
-0.000608875
-0.000123163
0.000434493
0.00105725
0.00173611
0.00245953
0.00321336
0.00397857
0.00473045
0.00543717
0.00605919
0.00655002
0.00687589
0.0069265
-0.00238726
-0.00243178
-0.0023349
-0.00215857
-0.00189212
-0.00153397
-0.00108494
-0.000547587
7.3621e-05
0.000772355
0.00154032
0.00236728
0.00323973
0.00413909
0.00503972
0.00590571
0.00668781
0.0073232
0.00775649
0.00784314
-0.00305897
-0.00311824
-0.00301882
-0.00283319
-0.00254735
-0.00215815
-0.00166547
-0.00107134
-0.000379849
0.000403278
0.00127086
0.00221408
0.00322217
0.00427896
0.0053604
0.0064289
0.00742596
0.00826795
0.00886143
0.00901828
-0.00384582
-0.00392566
-0.00382662
-0.00363422
-0.00332993
-0.00290852
-0.00236895
-0.00171307
-0.000945011
-7.01906e-05
0.000905403
0.00197527
0.00313311
0.00436839
0.00566329
0.00698397
0.00826721
0.00940904
0.0102465
0.0105483
-0.00476298
-0.00487142
-0.00477758
-0.00458261
-0.00426179
-0.00380714
-0.00321696
-0.00249379
-0.00164286
-0.000670171
0.000419101
0.00162138
0.0029365
0.00436391
0.00589949
0.00752344
0.00917887
0.0107596
0.0119778
0.0125898
-0.00583255
-0.00597944
-0.00589717
-0.00570542
-0.00537069
-0.00488081
-0.00423429
-0.00343612
-0.00249478
-0.00141868
-0.000213273
0.00112079
0.00258844
0.00420539
0.00599099
0.00795644
0.010075
0.0122917
0.0141187
0.0154055
-0.00705002
-0.00726888
-0.0072145
-0.00703744
-0.00669239
-0.00616246
-0.00544898
-0.0045629
-0.00351977
-0.0023338
-0.00101337
0.000441534
0.00204026
0.0038174
0.00582407
0.00812645
0.0107732
0.0138793
0.016644
0.0194581
-0.008654
-0.00881541
-0.00878954
-0.00863011
-0.00827611
-0.00769499
-0.00689353
-0.00589569
-0.00473093
-0.00342361
-0.00198816
-0.000422553
0.00129566
0.00317381
0.00531784
0.00786823
0.0109675
0.0151406
0.0190934
0.0250973
-0.00998461
-0.0106934
-0.0107033
-0.0106211
-0.0102451
-0.00955747
-0.00861016
-0.00745273
-0.00613236
-0.00468673
-0.00314753
-0.00153875
0.000121966
0.00187354
0.00383657
0.00623548
0.00912741
0.0146628
0.0197586
0.031935
-0.0137349
-0.0119851
-0.0123841
-0.0123066
-0.0120448
-0.0113975
-0.0104027
-0.00912526
-0.00764395
-0.00603206
-0.00434747
-0.00261713
-0.000868695
0.000967513
0.00281281
0.0051087
0.00722698
0.0130526
0.0191772
0.0396678
-0.0134852
-0.0171964
-0.0170649
-0.0173045
-0.0165939
-0.0151903
-0.013444
-0.0115401
-0.00958951
-0.00764369
-0.00576229
-0.00397706
-0.00240125
-0.00107828
-0.000461247
-7.81757e-05
-0.00147626
0.00469412
0.00803052
0.050601
-0.0358761
-0.013977
-0.0149343
-0.015386
-0.0150296
-0.0141808
-0.0129644
-0.0114206
-0.00966279
-0.00780326
-0.00598349
-0.00415642
-0.00264765
-0.00100863
-0.000200416
0.00205337
0.00480037
0.0205236
0.0536124
0.134834
)
;

boundaryField
{
    movingWall
    {
        type            zeroGradient;
    }
    fixedWalls
    {
        type            zeroGradient;
    }
    frontAndBack
    {
        type            empty;
    }
}


// ************************************************************************* //
