/*--------------------------------*- C++ -*----------------------------------*\
  =========                 |
  \\      /  F ield         | OpenFOAM: The Open Source CFD Toolbox
   \\    /   O peration     | Website:  https://openfoam.org
    \\  /    A nd           | Version:  10
     \\/     M anipulation  |
\*---------------------------------------------------------------------------*/
FoamFile
{
    format      ascii;
    class       volScalarField;
    location    "1";
    object      p;
}
// * * * * * * * * * * * * * * * * * * * * * * * * * * * * * * * * * * * * * //

dimensions      [0 2 -2 0 0 0 0];

internalField   nonuniform List<scalar> 
475
(
0.0313942
0.00843581
-0.0195168
-0.0509295
-0.082006
0.0104582
-0.0112209
-0.0241501
-0.0459543
-0.0708881
0.0115776
0.0018547
-0.0116883
-0.0294223
-0.0518527
0.0143806
0.00359302
-0.00965287
-0.0250909
-0.0377532
0.0446101
0.0186277
-0.00308329
-0.0182022
-0.0259975
-0.122232
-0.224581
-0.235942
-0.14416
-0.0527233
-0.00433705
0.0309407
0.0665223
0.0901655
0.100063
0.101674
0.0998652
0.0970153
0.094008
0.0910799
0.0882235
0.0853809
0.0825173
0.0796248
0.0767049
0.0737616
0.0707996
0.067823
0.0648351
0.0618389
0.0588365
0.0558297
0.0528197
0.0498071
0.0467926
0.0437766
0.0407595
0.0377417
0.0347233
0.0317046
0.0286855
0.0256666
0.0226472
0.0196277
0.0166082
0.0135881
0.0105686
0.00754886
0.00452847
0.0015093
-0.09299
-0.120721
-0.110246
-0.0441948
0.00227428
0.00764786
0.0152293
0.0418663
0.0659248
0.0788629
0.0849425
0.0878797
0.0890182
0.0888696
0.0877791
0.0860353
0.0838676
0.0814382
0.0788429
0.0761326
0.0733406
0.0704891
0.0675934
0.0646655
0.0617136
0.0587442
0.0557617
0.0527696
0.0497704
0.0467657
0.0437569
0.0407451
0.0377311
0.0347157
0.0316988
0.0286815
0.0256636
0.0226451
0.0196262
0.0166071
0.0135874
0.0105681
0.00754845
0.00452826
0.00150926
-0.0605243
-0.0636333
-0.0658163
-0.0474201
-0.00472277
0.0312234
0.0582771
0.0752418
0.0839636
0.0879065
0.0895285
0.0898265
0.089234
0.0880659
0.086551
0.0847945
0.0828087
0.0806028
0.0782034
0.0756511
0.0729812
0.070222
0.0673947
0.0645182
0.0616049
0.058664
0.0557028
0.0527263
0.0497384
0.0467421
0.0437394
0.0407321
0.0377214
0.0347083
0.031694
0.028678
0.0256611
0.0226433
0.0196249
0.0166062
0.0135867
0.0105677
0.00754822
0.00452818
0.00150926
-0.0386061
-0.035433
-0.0308961
-0.0132013
0.00856077
0.0246004
0.033714
0.0446862
0.0571562
0.0674071
0.0747227
0.0796229
0.0825652
0.0839314
0.0840701
0.0832725
0.0818086
0.079912
0.0777121
0.0752956
0.072722
0.0700328
0.0672535
0.0644144
0.0615289
0.0586085
0.0556622
0.0526966
0.0497167
0.0467262
0.0437278
0.0407237
0.0377154
0.0347041
0.0316908
0.0286757
0.0256594
0.022642
0.019624
0.0166056
0.0135863
0.0105674
0.00754808
0.00452816
0.00150927
-0.0258708
-0.0215627
-0.0152499
-0.00525223
0.00708075
0.0197031
0.0338511
0.0492402
0.0623971
0.0718096
0.0778984
0.0815315
0.0834109
0.0840272
0.0837283
0.0827836
0.0813659
0.0795503
0.0774298
0.07508
0.0725585
0.0699095
0.0671709
0.0643563
0.0614872
0.0585784
0.0556403
0.0526807
0.0497051
0.0467178
0.0437217
0.0407193
0.0377123
0.0347019
0.0316891
0.0286745
0.0256585
0.0226414
0.0196235
0.0166052
0.0135862
0.0105673
0.00754797
0.0045283
0.00150933
-0.130093
-0.129311
-0.103869
-0.0546999
0.00589628
0.0650071
0.101352
0.120763
0.127703
0.12719
0.122945
0.117227
0.111214
0.105434
0.100075
0.095165
0.0906599
0.0864948
0.0826026
0.078924
0.0754098
0.0720211
0.0687274
0.0655042
0.0623287
0.0591958
0.0560932
0.0530127
0.0499484
0.0468962
0.0438526
0.0408153
0.0377826
0.0347532
0.0317263
0.0287013
0.0256777
0.0226552
0.0196334
0.0166122
0.0135911
0.0105706
0.00755005
0.00452936
0.00150959
-0.136313
-0.14883
-0.11971
-0.0731492
-0.00582646
0.0573509
0.0984328
0.119212
0.126142
0.125375
0.121045
0.11545
0.109683
0.104187
0.0990973
0.0944167
0.0900971
0.086076
0.0822929
0.0786955
0.0752413
0.0718964
0.0686339
0.0654334
0.0622829
0.059164
0.0560705
0.0529964
0.0499367
0.0468877
0.0438465
0.0408109
0.0377794
0.0347509
0.0317246
0.0287
0.0256769
0.0226546
0.019633
0.016612
0.0135908
0.0105704
0.00754999
0.00452915
0.0015095
-0.183781
-0.206436
-0.193039
-0.125348
-0.0349067
0.0437941
0.0933895
0.116842
0.123931
0.12273
0.118199
0.112761
0.107363
0.102294
0.0976069
0.0932707
0.0892294
0.0854256
0.0818087
0.0783368
0.0749767
0.0717018
0.0684916
0.06533
0.0622054
0.0591072
0.0560291
0.0529663
0.0499149
0.0468719
0.0438349
0.0408024
0.0377733
0.0347466
0.0317213
0.0286976
0.0256752
0.0226534
0.0196321
0.0166114
0.0135904
0.0105701
0.0075498
0.004529
0.00150946
-0.226946
-0.283049
-0.270048
-0.187968
-0.0682596
0.0304077
0.0873907
0.111976
0.119214
0.118309
0.114131
0.109164
0.104329
0.0998352
0.0956704
0.0917728
0.088085
0.0845591
0.0811572
0.0778496
0.074614
0.0714328
0.0682924
0.0651827
0.0620961
0.0590264
0.0559697
0.0529226
0.0498828
0.0468483
0.0438175
0.0407895
0.0377635
0.034739
0.0317164
0.0286942
0.0256727
0.0226516
0.0196308
0.0166104
0.0135897
0.0105697
0.00754954
0.00452884
0.00150941
-0.236072
-0.327001
-0.317422
-0.218264
-0.0893742
0.0131325
0.0739958
0.100506
0.108905
0.108809
0.106193
0.103049
0.0998042
0.0965223
0.0932311
0.0899618
0.0867331
0.0835491
0.0804036
0.0772884
0.0741968
0.0711233
0.0680632
0.0650132
0.0619706
0.0589338
0.0559014
0.0528725
0.049846
0.0468213
0.0437977
0.040775
0.0377529
0.0347314
0.0317106
0.0286901
0.0256698
0.0226495
0.0196293
0.0166094
0.0135889
0.0105691
0.00754911
0.00452861
0.00150935
)
;

boundaryField
{
    inlet
    {
        type            zeroGradient;
    }
    outlet
    {
        type            fixedValue;
        value           uniform 0;
    }
    upperWall
    {
        type            zeroGradient;
    }
    lowerWall
    {
        type            zeroGradient;
    }
    frontAndBack
    {
        type            empty;
    }
}


// ************************************************************************* //
