/*--------------------------------*- C++ -*----------------------------------*\
  =========                 |
  \\      /  F ield         | OpenFOAM: The Open Source CFD Toolbox
   \\    /   O peration     | Website:  https://openfoam.org
    \\  /    A nd           | Version:  10
     \\/     M anipulation  |
\*---------------------------------------------------------------------------*/
FoamFile
{
    format      ascii;
    class       surfaceScalarField;
    location    "1";
    object      phi;
}
// * * * * * * * * * * * * * * * * * * * * * * * * * * * * * * * * * * * * * //

dimensions      [0 3 -1 0 0 0 0];

internalField   nonuniform List<scalar> 
890
(
0.00965907
0.000340931
0.00969747
-3.84027e-05
0.00955555
0.000141919
0.00959166
-3.61085e-05
7.21709e-06
0.00958444
0.0102438
9.71305e-05
0.0102353
-2.99086e-05
0.0104726
-9.53972e-05
0.0105568
-0.000120281
-0.000385987
0.01095
0.0101153
-1.82178e-05
0.0102224
-0.000136924
0.0103201
-0.000193095
0.0104701
-0.000270349
-0.000481393
0.0105655
0.0100963
-0.000114486
0.0102057
-0.00024633
0.0103257
-0.000313093
0.0103306
-0.000275229
-0.000386079
0.0102352
0.00988551
0.00963918
0.00932609
0.00905086
0.00866478
0.0105642
-0.000401357
-0.000578428
0.0110093
-0.00152084
0.00107575
0.0111217
-0.00278055
0.00266815
0.0106178
-0.00374886
0.00425282
0.0097672
-0.00394219
0.00479275
0.00897465
-0.00323985
0.0040324
0.00827701
-0.0020969
0.00279454
0.00751621
-0.00108498
0.00184577
0.00679704
-0.000532013
0.00125119
0.00624215
-0.000318291
0.000873183
0.00587106
-0.000243666
0.000614754
0.00564437
-0.000203738
0.00043043
0.00551338
-0.000167691
0.000298684
0.00544017
-0.000132518
0.000205721
0.00539994
-0.000100809
0.000141046
0.00537778
-7.434e-05
9.64995e-05
0.00536531
-5.35105e-05
6.59744e-05
0.00535807
-3.784e-05
4.50799e-05
0.00535373
-2.64042e-05
3.07432e-05
0.00535106
-1.82295e-05
2.09016e-05
0.00534938
-1.24744e-05
1.41555e-05
0.00534831
-8.46766e-06
9.54301e-06
0.00534761
-5.70165e-06
6.39903e-06
0.00534715
-3.8057e-06
4.26348e-06
0.00534685
-2.51573e-06
2.81889e-06
0.00534665
-1.64536e-06
1.8468e-06
0.00534651
-1.06341e-06
1.19701e-06
0.00534642
-6.77766e-07
7.66035e-07
0.00534637
-4.24267e-07
4.82437e-07
0.00534633
-2.58819e-07
2.97287e-07
0.0053463
-1.51733e-07
1.77487e-07
0.00534628
-8.34446e-08
1.00913e-07
0.00534627
-4.1036e-08
5.27688e-08
0.00534627
-1.58986e-08
2.33032e-08
0.00534626
-1.64381e-09
6.21432e-09
0.00534626
5.3908e-09
-2.71026e-09
0.00534626
8.53714e-09
-7.03887e-09
0.00534626
9.21524e-09
-8.51168e-09
0.00534626
8.35571e-09
-7.96725e-09
0.00534626
6.80757e-09
-6.24633e-09
0.00534625
5.70141e-09
-5.33391e-09
0.00534625
2.1009e-09
-1.71725e-09
0.00534625
1.39932e-10
2.51324e-10
0.00534625
-1.49394e-09
1.63874e-09
-9.02115e-09
8.43067e-09
0.0110179
-0.000469217
0.0106845
-0.00118753
0.00995331
-0.00204931
0.00828367
-0.00207922
0.00617148
-0.00183
0.00488882
-0.00195719
0.00463012
-0.0018382
0.0048826
-0.00133745
0.00517479
-0.000824206
0.00535499
-0.000498492
0.00543425
-0.000322929
0.0054545
-0.000223983
0.00544699
-0.00016018
0.00542922
-0.00011475
0.00540982
-8.141e-05
0.00539264
-5.71575e-05
0.00537899
-3.98664e-05
0.00536889
-2.77324e-05
0.00536169
-1.92092e-05
0.00535667
-1.32107e-05
0.00535321
-9.01058e-06
0.00535083
-6.09032e-06
0.0053492
-4.07493e-06
0.00534809
-2.69495e-06
0.00534734
-1.75964e-06
0.00534683
-1.13277e-06
0.00534648
-7.17198e-07
0.00534625
-4.44382e-07
0.00534609
-2.66992e-07
0.00534598
-1.52977e-07
0.00534591
-8.08845e-08
0.00534587
-3.65233e-08
0.00534583
-1.05444e-08
0.00534582
2.69841e-09
0.0053458
1.02766e-08
0.0053458
1.27947e-08
0.00534579
1.31747e-08
0.00534579
1.21589e-08
0.00534579
1.0389e-08
0.00534579
8.6528e-09
0.00534578
6.51873e-09
0.00534578
2.99325e-09
0.00534578
8.93401e-10
0.00534578
-1.64481e-09
-8.7949e-09
0.0106782
-0.000581853
0.0104693
-0.000978659
0.00995599
-0.001536
0.00951609
-0.00163932
0.00903811
-0.00135202
0.00820638
-0.00112546
0.00731771
-0.000949534
0.00665636
-0.000676099
0.00624204
-0.000409882
0.00597626
-0.000232718
0.00578943
-0.000136098
0.00565222
-8.6774e-05
0.00555261
-6.05726e-05
0.00548271
-4.48491e-05
0.00543523
-3.39217e-05
0.00540351
-2.54418e-05
0.0053823
-1.86546e-05
0.00536792
-1.33576e-05
0.00535807
-9.35648e-06
0.00535128
-6.42365e-06
0.0053466
-4.32934e-06
0.00534338
-2.86544e-06
0.00534116
-1.85901e-06
0.00533964
-1.1757e-06
0.0053386
-7.22212e-07
0.0053379
-4.27343e-07
0.00533742
-2.3941e-07
0.0053371
-1.22161e-07
0.00533688
-5.08629e-08
0.00533674
-9.03663e-09
0.00533664
1.40467e-08
0.00533658
2.53056e-08
0.00533654
2.9126e-08
0.00533652
2.8136e-08
0.0053365
2.59375e-08
0.00533649
2.19088e-08
0.00533649
1.91222e-08
0.00533648
1.52238e-08
0.00533648
1.23964e-08
0.00533648
1.08027e-08
0.00533648
6.15597e-09
0.00533648
4.42387e-09
0.00533648
2.56188e-09
0.00533648
-1.95311e-09
-7.54843e-09
0.0102242
-0.000570829
0.00991153
-0.000665979
0.00913822
-0.000762682
0.00835738
-0.000858482
0.00780265
-0.000797294
0.00726251
-0.000585314
0.00663826
-0.000325287
0.00611128
-0.000149114
0.00576648
-6.50898e-05
0.00556669
-3.29287e-05
0.00545224
-2.16478e-05
0.005382
-1.6528e-05
0.00533425
-1.28261e-05
0.005299
-9.5941e-06
0.00527185
-6.77896e-06
0.00525085
-4.43976e-06
0.00523504
-2.83779e-06
0.00522347
-1.78726e-06
0.00521517
-1.06263e-06
0.00520932
-5.70749e-07
0.00520524
-2.48362e-07
0.00520242
-5.00541e-08
0.0052005
6.43181e-08
0.00519919
1.34086e-07
0.00519831
1.60254e-07
0.00519772
1.61447e-07
0.00519733
1.49833e-07
0.00519707
1.32751e-07
0.00519691
1.14257e-07
0.0051968
9.63664e-08
0.00519674
7.98757e-08
0.0051967
6.4913e-08
0.00519667
5.1855e-08
0.00519666
4.03649e-08
0.00519666
3.18116e-08
0.00519665
2.39098e-08
0.00519665
1.9872e-08
0.00519665
1.46668e-08
0.00519665
1.17301e-08
0.00519666
1.07319e-08
0.00519666
4.14936e-09
0.00519666
5.18823e-09
0.00519666
3.56128e-09
0.00519666
-2.78396e-09
-5.2169e-09
0.00809395
0.00742797
0.00666529
0.00580681
0.00500952
0.0044242
0.00409892
0.0039498
0.00388471
0.00385178
0.00383014
0.00381361
0.00380078
0.00379119
0.00378441
0.00377997
0.00377713
0.00377534
0.00377428
0.00377371
0.00377346
0.00377341
0.00377348
0.00377361
0.00377377
0.00377393
0.00377408
0.00377421
0.00377433
0.00377443
0.0037745
0.00377457
0.00377462
0.00377466
0.00377469
0.00377472
0.00377474
0.00377475
0.00377476
0.00377477
0.00377478
0.00377478
0.00377479
0.00377478
-0.000795942
0.000795942
-0.00130274
0.000506798
-0.00135865
5.59102e-05
-0.000833688
-0.000524962
2.87098e-05
-0.000862398
0.000959139
-0.000930429
0.00179299
-0.000833854
0.00244932
-0.000656327
0.00292219
-0.000472874
0.00324209
-0.000319901
0.00344907
-0.000206971
0.00357895
-0.000129887
0.00365881
-7.98615e-05
0.00370722
-4.84064e-05
0.00373623
-2.90141e-05
0.00375345
-1.72142e-05
0.00376355
-1.00998e-05
0.00376939
-5.8388e-06
0.00377269
-3.29854e-06
0.00377448
-1.79116e-06
0.00377538
-9.05793e-07
0.00377578
-3.97519e-07
0.0037759
-1.17822e-07
0.00377588
1.97444e-08
0.00377578
9.93698e-08
0.00377565
1.30129e-07
0.00377551
1.36068e-07
0.00377538
1.28447e-07
0.00377527
1.13228e-07
0.00377518
9.49046e-08
0.0037751
7.69701e-08
0.00377504
6.16212e-08
0.00377499
4.92639e-08
0.00377495
4.01587e-08
0.00377492
3.23784e-08
0.00377489
2.69697e-08
0.00377487
2.00047e-08
0.00377485
1.59733e-08
0.00377484
1.12862e-08
0.00377484
5.99098e-09
0.00377483
7.57286e-09
0.00377483
2.53038e-09
0.00377483
5.03978e-10
0.00377482
4.96055e-09
1.97155e-09
-0.000677787
0.00147373
-0.00142986
0.00125888
-0.00136876
-5.1972e-06
-0.000696294
-0.00119742
0.000383132
-0.00194182
0.00155115
-0.00209845
0.00258206
-0.00186476
0.00338875
-0.00146303
0.00397405
-0.00105817
0.00437954
-0.000725397
0.00465329
-0.000480715
0.00483576
-0.000312362
0.00495679
-0.000200893
0.00503699
-0.000128606
0.0050902
-8.22197e-05
0.00512558
-5.25979e-05
0.00514918
-3.36942e-05
0.00516495
-2.16077e-05
0.0051755
-1.38539e-05
0.00518257
-8.8632e-06
0.00518731
-5.64593e-06
0.00519049
-3.57381e-06
0.00519261
-2.24252e-06
0.00519402
-1.38956e-06
0.00519496
-8.39454e-07
0.00519558
-4.89039e-07
0.00519599
-2.69466e-07
0.00519625
-1.35664e-07
0.00519642
-5.73681e-08
0.00519653
-1.37457e-08
0.0051966
9.41148e-09
0.00519664
2.11009e-08
0.00519666
2.62435e-08
0.00519667
2.78341e-08
0.00519668
2.67411e-08
0.00519668
2.46676e-08
0.00519668
1.99135e-08
0.00519668
1.63143e-08
0.00519668
1.20112e-08
0.00519668
7.37846e-09
0.00519668
7.52971e-09
0.00519668
3.29655e-09
0.00519668
9.24608e-10
0.00519668
3.15328e-09
-1.21093e-09
-0.00139666
0.00287039
-0.00168004
0.00154225
-0.0012024
-0.000482831
-0.000229221
-0.00217061
0.000970992
-0.00314204
0.00213712
-0.00326458
0.00309751
-0.00282515
0.00381999
-0.0021855
0.00432522
-0.0015634
0.00466207
-0.00106225
0.00488294
-0.000701579
0.00502859
-0.000458019
0.00512601
-0.000298309
0.005192
-0.000194599
0.0052371
-0.000127317
0.0052681
-8.35943e-05
0.00528946
-5.50556e-05
0.00530419
-3.63423e-05
0.00531435
-2.40153e-05
0.00532136
-1.58645e-05
0.00532617
-1.04635e-05
0.00532948
-6.88226e-06
0.00533175
-4.50807e-06
0.00533329
-2.93448e-06
0.00533434
-1.89147e-06
0.00533506
-1.20302e-06
0.00533554
-7.52446e-07
0.00533587
-4.61176e-07
0.00533609
-2.75543e-07
0.00533623
-1.58719e-07
0.00533633
-8.58797e-08
0.00533639
-4.07269e-08
0.00533643
-1.31822e-08
0.00533645
2.13793e-09
0.00533647
1.11062e-08
0.00533648
1.47569e-08
0.00533648
1.43333e-08
0.00533649
1.27869e-08
0.00533649
1.01065e-08
0.00533649
7.033e-09
0.00533649
6.10092e-09
0.00533649
2.84412e-09
0.00533649
7.4947e-10
0.00533649
9.22529e-10
-4.64471e-09
-0.000590699
0.00346109
0.000318643
0.000632908
0.00125397
-0.00141816
0.00235301
-0.00326965
0.00339132
-0.00418035
0.00412159
-0.00399484
0.00453077
-0.00323433
0.00477776
-0.0024325
0.00494891
-0.00173455
0.00506882
-0.00118215
0.00514963
-0.00078239
0.00520424
-0.000512636
0.00524251
-0.000336572
0.00527032
-0.000222417
0.00529094
-0.000147932
0.00530623
-9.88846e-05
0.0053175
-6.63234e-05
0.00532572
-4.45681e-05
0.00533167
-2.99585e-05
0.00533592
-2.01173e-05
0.00533894
-1.34809e-05
0.00534106
-9.00663e-06
0.00534255
-5.99249e-06
0.00534358
-3.96423e-06
0.00534429
-2.60211e-06
0.00534477
-1.69143e-06
0.00534511
-1.087e-06
0.00534534
-6.89501e-07
0.00534549
-4.30404e-07
0.0053456
-2.627e-07
0.00534567
-1.54773e-07
0.00534571
-8.58033e-08
0.00534574
-4.24403e-08
0.00534576
-1.61957e-08
0.00534577
-1.19401e-09
0.00534578
6.41266e-09
0.00534578
9.12023e-09
0.00534579
9.46897e-09
0.00534579
8.20077e-09
0.00534579
6.11627e-09
0.00534579
5.31314e-09
0.00534579
2.1986e-09
0.00534579
1.65131e-10
0.00534579
-4.3451e-10
-6.97638e-09
0.00288266
0.00459132
0.00584131
0.00682448
0.00743688
0.00747445
0.00703465
0.00644793
0.00596456
0.00565559
0.00548796
0.00540575
0.00536786
0.00535117
0.00534428
0.00534189
0.00534155
0.00534206
0.00534284
0.00534363
0.0053443
0.00534484
0.00534524
0.00534554
0.00534576
0.00534592
0.00534603
0.0053461
0.00534615
0.00534619
0.00534621
0.00534623
0.00534624
0.00534624
0.00534625
0.00534625
0.00534625
0.00534626
0.00534626
0.00534626
0.00534626
0.00534626
0.00534626
0.00534626
)
;

boundaryField
{
    inlet
    {
        type            calculated;
        value           nonuniform List<scalar> 5(-0.01 -0.01 -0.01 -0.01 -0.01);
    }
    outlet
    {
        type            calculated;
        value           nonuniform List<scalar> 10(0.00534625 0.00534578 0.00533648 0.00519665 0.00377478 0.00377482 0.00519668 0.0053365 0.0053458 0.00534626);
    }
    upperWall
    {
        type            calculated;
        value           uniform 0;
    }
    lowerWall
    {
        type            calculated;
        value           uniform 0;
    }
    frontAndBack
    {
        type            empty;
        value           nonuniform List<scalar> 0();
    }
}


// ************************************************************************* //
