/*--------------------------------*- C++ -*----------------------------------*\
  =========                 |
  \\      /  F ield         | OpenFOAM: The Open Source CFD Toolbox
   \\    /   O peration     | Website:  https://openfoam.org
    \\  /    A nd           | Version:  10
     \\/     M anipulation  |
\*---------------------------------------------------------------------------*/
FoamFile
{
    format      ascii;
    class       volVectorField;
    location    "1";
    object      U;
}
// * * * * * * * * * * * * * * * * * * * * * * * * * * * * * * * * * * * * * //

dimensions      [0 1 -1 0 0 0 0];

internalField   nonuniform List<vector> 
475
(
(0.965815 0.0411266 0)
(0.960916 -0.0166083 0)
(0.9591 0.0350915 0)
(0.957649 -0.0207697 0)
(0.969673 0.0209688 0)
(0.987747 0.0195588 0)
(1.03821 0.00542333 0)
(1.03024 -0.010582 0)
(1.03985 0.0126978 0)
(1.08859 -0.0194459 0)
(0.996499 0.00266686 0)
(1.02146 -0.00863903 0)
(1.01825 -0.00497133 0)
(1.03063 -0.0329021 0)
(1.06138 -0.0557021 0)
(0.999443 -0.00778728 0)
(1.01176 -0.0227566 0)
(1.01985 -0.0373962 0)
(1.03571 -0.025752 0)
(1.03517 -0.0402096 0)
(0.980009 -0.00971257 0)
(0.972594 -0.0206881 0)
(0.946894 -0.0212279 0)
(0.921502 -0.0256916 0)
(0.897646 -0.0328306 0)
(0.956551 -0.0438251 0)
(1.07011 -0.150237 0)
(1.16673 -0.271309 0)
(1.12616 -0.404691 0)
(1.00165 -0.478057 0)
(0.927147 -0.41896 0)
(0.866536 -0.267231 0)
(0.786775 -0.135153 0)
(0.707385 -0.0672557 0)
(0.644526 -0.0421356 0)
(0.600642 -0.0326731 0)
(0.572711 -0.0267006 0)
(0.556128 -0.0212753 0)
(0.546703 -0.0163057 0)
(0.541474 -0.0120806 0)
(0.538595 -0.00872124 0)
(0.536993 -0.00617933 0)
(0.536077 -0.00432104 0)
(0.535537 -0.00299272 0)
(0.535208 -0.0020569 0)
(0.535002 -0.00140429 0)
(0.534871 -0.000952656 0)
(0.534786 -0.000641997 0)
(0.534731 -0.000429489 0)
(0.534696 -0.000284982 0)
(0.534672 -0.000187377 0)
(0.534657 -0.000121942 0)
(0.534646 -7.84042e-05 0)
(0.534638 -4.96328e-05 0)
(0.534634 -3.07401e-05 0)
(0.534631 -1.84325e-05 0)
(0.534629 -1.05251e-05 0)
(0.534628 -5.55043e-06 0)
(0.534627 -2.52305e-06 0)
(0.534627 -7.50505e-07 0)
(0.534625 2.1251e-07 0)
(0.534627 6.41844e-07 0)
(0.534623 7.95814e-07 0)
(0.534628 7.59534e-07 0)
(0.534621 6.11635e-07 0)
(0.534629 5.25698e-07 0)
(0.534624 1.62812e-07 0)
(0.534625 -2.01322e-08 0)
(0.534629 -1.83214e-07 0)
(0.534625 -9.05009e-07 0)
(1.08738 -0.0500811 0)
(1.07784 -0.133287 0)
(1.08622 -0.242399 0)
(0.950815 -0.296446 0)
(0.690069 -0.280018 0)
(0.519352 -0.237817 0)
(0.466145 -0.170844 0)
(0.472367 -0.0975308 0)
(0.501617 -0.0502242 0)
(0.527168 -0.0297497 0)
(0.540412 -0.0224278 0)
(0.544885 -0.0187576 0)
(0.54513 -0.0154423 0)
(0.543698 -0.0121311 0)
(0.541791 -0.00914813 0)
(0.539964 -0.00670365 0)
(0.538445 -0.00481605 0)
(0.537286 -0.0034083 0)
(0.536449 -0.00238258 0)
(0.535861 -0.00164848 0)
(0.535454 -0.0011302 0)
(0.535173 -0.000768185 0)
(0.534981 -0.000517538 0)
(0.53485 -0.000345356 0)
(0.534761 -0.000228072 0)
(0.534701 -0.000148891 0)
(0.534661 -9.59106e-05 0)
(0.534633 -6.07694e-05 0)
(0.534614 -3.76699e-05 0)
(0.534601 -2.26403e-05 0)
(0.534593 -1.29846e-05 0)
(0.534588 -6.88459e-06 0)
(0.534585 -3.13253e-06 0)
(0.534582 -9.24004e-07 0)
(0.534581 2.71768e-07 0)
(0.534579 8.4086e-07 0)
(0.53458 1.04187e-06 0)
(0.534576 1.05689e-06 0)
(0.534582 9.27112e-07 0)
(0.534574 7.64278e-07 0)
(0.534582 6.01413e-07 0)
(0.534577 2.3942e-07 0)
(0.534578 3.98631e-08 0)
(0.534581 -1.55658e-07 0)
(0.534578 -9.10513e-07 0)
(1.06452 -0.0423369 0)
(1.05459 -0.116583 0)
(1.02499 -0.195969 0)
(0.987167 -0.156878 0)
(0.940726 -0.103212 0)
(0.864319 -0.129639 0)
(0.768605 -0.163343 0)
(0.689126 -0.142857 0)
(0.638438 -0.096678 0)
(0.60757 -0.0582707 0)
(0.586519 -0.0343636 0)
(0.570903 -0.0208821 0)
(0.559342 -0.0133555 0)
(0.551091 -0.0089663 0)
(0.545411 -0.00621709 0)
(0.541596 -0.00437467 0)
(0.539055 -0.00308677 0)
(0.537349 -0.0021671 0)
(0.536187 -0.00150774 0)
(0.535388 -0.0010385 0)
(0.534838 -0.000707944 0)
(0.534459 -0.000477384 0)
(0.534198 -0.00031798 0)
(0.534019 -0.000208672 0)
(0.533898 -0.000134727 0)
(0.533815 -8.54244e-05 0)
(0.533759 -5.3024e-05 0)
(0.533721 -3.19977e-05 0)
(0.533695 -1.84908e-05 0)
(0.533678 -9.90371e-06 0)
(0.533667 -4.5364e-06 0)
(0.53366 -1.30312e-06 0)
(0.533656 5.1043e-07 0)
(0.533653 1.38386e-06 0)
(0.533651 1.67776e-06 0)
(0.533649 1.6341e-06 0)
(0.53365 1.5078e-06 0)
(0.533646 1.28886e-06 0)
(0.533651 1.0776e-06 0)
(0.533644 9.04357e-07 0)
(0.533651 6.57626e-07 0)
(0.533646 3.4938e-07 0)
(0.533647 1.41687e-07 0)
(0.533651 -1.49772e-07 0)
(0.533648 -8.25564e-07 0)
(1.02173 -0.0765357 0)
(1.01528 -0.0825206 0)
(0.968267 -0.0988006 0)
(0.876863 -0.148431 0)
(0.802266 -0.159928 0)
(0.751665 -0.11042 0)
(0.695703 -0.0472259 0)
(0.634785 -0.0100167 0)
(0.589455 0.00261627 0)
(0.563314 0.00400151 0)
(0.549026 0.00220523 0)
(0.540622 0.000337318 0)
(0.535134 -0.000800498 0)
(0.531202 -0.00124553 0)
(0.528212 -0.00125025 0)
(0.525887 -0.00105249 0)
(0.524106 -0.000801655 0)
(0.522783 -0.000572844 0)
(0.521827 -0.000391201 0)
(0.521148 -0.000256733 0)
(0.520672 -0.000161476 0)
(0.520343 -9.61547e-05 0)
(0.520117 -5.28826e-05 0)
(0.519964 -2.55838e-05 0)
(0.51986 -9.05122e-06 0)
(0.519791 3.77799e-07 0)
(0.519745 5.30618e-06 0)
(0.519715 7.53388e-06 0)
(0.519695 8.22416e-06 0)
(0.519683 8.05814e-06 0)
(0.519675 7.41203e-06 0)
(0.51967 6.48333e-06 0)
(0.519668 5.45776e-06 0)
(0.519666 4.40866e-06 0)
(0.519666 3.58539e-06 0)
(0.519664 2.77176e-06 0)
(0.519666 2.33297e-06 0)
(0.519663 1.773e-06 0)
(0.519668 1.42134e-06 0)
(0.519661 1.30205e-06 0)
(0.519669 5.88044e-07 0)
(0.519664 5.61668e-07 0)
(0.519665 3.93011e-07 0)
(0.519669 -2.75961e-07 0)
(0.519665 -6.85646e-07 0)
(0.84198 -0.0361312 0)
(0.773323 -0.0526925 0)
(0.710476 -0.0587981 0)
(0.62982 -0.0324847 0)
(0.537462 -0.00711684 0)
(0.464615 -0.00410167 0)
(0.421353 -0.0115844 0)
(0.399682 -0.0144894 0)
(0.390066 -0.0121595 0)
(0.385806 -0.00835679 0)
(0.383465 -0.0049866 0)
(0.381767 -0.00254277 0)
(0.380412 -0.00102101 0)
(0.379365 -0.000218354 0)
(0.378603 0.000120357 0)
(0.378086 0.000214028 0)
(0.377756 0.000213301 0)
(0.377551 0.000185832 0)
(0.377428 0.000153849 0)
(0.377361 0.000124749 0)
(0.37733 0.000100337 0)
(0.377323 8.04732e-05 0)
(0.37733 6.41899e-05 0)
(0.377344 5.0426e-05 0)
(0.377362 3.92882e-05 0)
(0.37738 3.04516e-05 0)
(0.377397 2.35183e-05 0)
(0.377412 1.8121e-05 0)
(0.377425 1.39404e-05 0)
(0.377436 1.07001e-05 0)
(0.377446 8.18092e-06 0)
(0.377453 6.21311e-06 0)
(0.377459 4.69987e-06 0)
(0.377464 3.51556e-06 0)
(0.377468 2.66845e-06 0)
(0.37747 1.94818e-06 0)
(0.377473 1.56731e-06 0)
(0.377473 1.11553e-06 0)
(0.377477 8.90223e-07 0)
(0.377474 7.75757e-07 0)
(0.37748 2.75284e-07 0)
(0.377476 4.40946e-07 0)
(0.377479 2.89614e-07 0)
(0.377481 -2.14341e-07 0)
(0.377478 -3.26658e-07 0)
(-0.0514595 -0.00613196 0)
(-0.116466 0.00861297 0)
(-0.142729 -0.00523793 0)
(-0.119634 -0.0228344 0)
(-0.0408783 -0.0372012 0)
(0.0492245 -0.0408705 0)
(0.138898 -0.036651 0)
(0.213802 -0.0284086 0)
(0.270287 -0.0198773 0)
(0.309768 -0.012882 0)
(0.335848 -0.00786097 0)
(0.352393 -0.00456206 0)
(0.362607 -0.00252544 0)
(0.368804 -0.00132471 0)
(0.372517 -0.000643087 0)
(0.374719 -0.000270555 0)
(0.376009 -7.63072e-05 0)
(0.376754 1.82162e-05 0)
(0.377176 5.90103e-05 0)
(0.377408 7.21132e-05 0)
(0.377528 7.15874e-05 0)
(0.377583 6.47721e-05 0)
(0.377601 5.55843e-05 0)
(0.3776 4.61988e-05 0)
(0.37759 3.70274e-05 0)
(0.377577 2.92967e-05 0)
(0.377562 2.30706e-05 0)
(0.377548 1.80669e-05 0)
(0.377535 1.39942e-05 0)
(0.377524 1.06769e-05 0)
(0.377514 8.04886e-06 0)
(0.377507 6.05215e-06 0)
(0.377501 4.57016e-06 0)
(0.377497 3.52588e-06 0)
(0.377494 2.71375e-06 0)
(0.37749 2.15593e-06 0)
(0.377489 1.53935e-06 0)
(0.377485 1.19482e-06 0)
(0.377486 8.0077e-07 0)
(0.377482 4.35478e-07 0)
(0.377485 5.55687e-07 0)
(0.377481 1.54093e-07 0)
(0.377482 6.02567e-08 0)
(0.377485 4.37773e-07 0)
(0.377482 2.47497e-07 0)
(-0.0281567 0.177064 0)
(-0.120511 0.099241 0)
(-0.153853 0.0193464 0)
(-0.115696 -0.0761847 0)
(-0.0159356 -0.132518 0)
(0.097539 -0.146027 0)
(0.208051 -0.131401 0)
(0.300438 -0.104228 0)
(0.370202 -0.075964 0)
(0.419647 -0.0521658 0)
(0.453334 -0.0343873 0)
(0.475791 -0.0220722 0)
(0.490627 -0.0139334 0)
(0.500411 -0.00870516 0)
(0.506873 -0.00540291 0)
(0.511152 -0.00333844 0)
(0.513992 -0.00205532 0)
(0.515884 -0.00126 0)
(0.517146 -0.000767149 0)
(0.517992 -0.000461539 0)
(0.518557 -0.000272356 0)
(0.518935 -0.000156068 0)
(0.519186 -8.54556e-05 0)
(0.519353 -4.31979e-05 0)
(0.519464 -1.87408e-05 0)
(0.519538 -4.74671e-06 0)
(0.519587 2.92783e-06 0)
(0.519618 6.65943e-06 0)
(0.519638 7.93206e-06 0)
(0.51965 7.78797e-06 0)
(0.519658 6.98676e-06 0)
(0.519663 6.02598e-06 0)
(0.519666 5.10537e-06 0)
(0.519667 4.34891e-06 0)
(0.519669 3.63922e-06 0)
(0.519668 3.12598e-06 0)
(0.51967 2.39724e-06 0)
(0.519666 1.94276e-06 0)
(0.519671 1.41168e-06 0)
(0.519665 7.88995e-07 0)
(0.519671 9.02144e-07 0)
(0.519667 3.5334e-07 0)
(0.519667 5.18242e-08 0)
(0.519671 4.75594e-07 0)
(0.519668 1.16632e-07 0)
(-0.107377 0.099716 0)
(-0.191507 0.143884 0)
(-0.145991 -0.0225386 0)
(-0.0819556 -0.173577 0)
(0.041144 -0.26277 0)
(0.158031 -0.275685 0)
(0.262361 -0.239694 0)
(0.346709 -0.185746 0)
(0.408671 -0.133756 0)
(0.450999 -0.0918867 0)
(0.478701 -0.0612886 0)
(0.496691 -0.0402121 0)
(0.508539 -0.0261846 0)
(0.516481 -0.0170116 0)
(0.521873 -0.0110583 0)
(0.52556 -0.00720185 0)
(0.528092 -0.00470118 0)
(0.529835 -0.00307498 0)
(0.531037 -0.00201316 0)
(0.531865 -0.0013173 0)
(0.532434 -0.000860396 0)
(0.532824 -0.000560338 0)
(0.53309 -0.000363349 0)
(0.533272 -0.000233995 0)
(0.533396 -0.000148749 0)
(0.533481 -9.28974e-05 0)
(0.533538 -5.67053e-05 0)
(0.533577 -3.36663e-05 0)
(0.533602 -1.92984e-05 0)
(0.533618 -1.04751e-05 0)
(0.533629 -5.09079e-06 0)
(0.533636 -1.80263e-06 0)
(0.533641 1.7362e-07 0)
(0.533645 1.30519e-06 0)
(0.533647 1.77367e-06 0)
(0.533647 1.86993e-06 0)
(0.53365 1.63939e-06 0)
(0.533646 1.37475e-06 0)
(0.533652 1.04155e-06 0)
(0.533645 7.04863e-07 0)
(0.533652 6.38374e-07 0)
(0.533648 3.13969e-07 0)
(0.533649 1.24203e-07 0)
(0.533652 1.85264e-07 0)
(0.53365 -3.4004e-07 0)
(-0.130808 0.46901 0)
(-0.00642994 0.146009 0)
(0.0737426 -0.0842263 0)
(0.192173 -0.27963 0)
(0.301198 -0.376225 0)
(0.380441 -0.374718 0)
(0.430226 -0.320715 0)
(0.461758 -0.24719 0)
(0.484065 -0.175173 0)
(0.500225 -0.117601 0)
(0.511063 -0.0771198 0)
(0.518006 -0.0503714 0)
(0.522612 -0.0330353 0)
(0.525858 -0.0217858 0)
(0.528234 -0.0144333 0)
(0.529993 -0.00959465 0)
(0.53129 -0.00639421 0)
(0.53224 -0.0042687 0)
(0.53293 -0.00285147 0)
(0.533426 -0.00190363 0)
(0.533777 -0.00126877 0)
(0.534025 -0.000843453 0)
(0.534198 -0.000558622 0)
(0.534318 -0.000367966 0)
(0.534402 -0.000240452 0)
(0.53446 -0.000155502 0)
(0.5345 -9.93035e-05 0)
(0.534526 -6.24755e-05 0)
(0.534544 -3.8586e-05 0)
(0.534556 -2.32313e-05 0)
(0.534564 -1.34399e-05 0)
(0.534569 -7.23251e-06 0)
(0.534573 -3.34085e-06 0)
(0.534575 -9.61904e-07 0)
(0.534577 3.44789e-07 0)
(0.534577 9.75888e-07 0)
(0.53458 1.12978e-06 0)
(0.534576 1.08583e-06 0)
(0.534582 9.01094e-07 0)
(0.534575 6.47151e-07 0)
(0.534582 5.42495e-07 0)
(0.534578 2.39605e-07 0)
(0.534579 2.73248e-08 0)
(0.534582 3.61636e-09 0)
(0.53458 -5.99401e-07 0)
(0.139286 0.183232 0)
(0.385659 -0.0366708 0)
(0.547827 -0.227513 0)
(0.66453 -0.408565 0)
(0.730758 -0.47789 0)
(0.753002 -0.411983 0)
(0.723325 -0.311879 0)
(0.666109 -0.236087 0)
(0.612573 -0.176063 0)
(0.575508 -0.124349 0)
(0.554062 -0.0836619 0)
(0.543098 -0.0548868 0)
(0.537923 -0.0357972 0)
(0.535606 -0.0234775 0)
(0.534621 -0.0155553 0)
(0.534246 -0.0104079 0)
(0.534149 -0.00701111 0)
(0.534175 -0.00473928 0)
(0.534248 -0.00320669 0)
(0.53433 -0.00216794 0)
(0.534404 -0.00146258 0)
(0.534463 -0.000983563 0)
(0.534508 -0.000658588 0)
(0.534542 -0.000438506 0)
(0.534568 -0.000289879 0)
(0.534586 -0.000189971 0)
(0.534599 -0.00012325 0)
(0.534608 -7.90388e-05 0)
(0.534614 -4.99635e-05 0)
(0.534617 -3.09687e-05 0)
(0.53462 -1.8636e-05 0)
(0.534622 -1.06948e-05 0)
(0.534624 -5.65377e-06 0)
(0.534624 -2.54868e-06 0)
(0.534625 -7.22049e-07 0)
(0.534625 2.66714e-07 0)
(0.534627 6.94917e-07 0)
(0.534623 8.25712e-07 0)
(0.534628 7.60677e-07 0)
(0.534622 5.84547e-07 0)
(0.534629 5.06901e-07 0)
(0.534624 1.81958e-07 0)
(0.534625 -2.39301e-09 0)
(0.534629 -1.14776e-07 0)
(0.534626 -7.94986e-07 0)
)
;

boundaryField
{
    inlet
    {
        type            fixedValue;
        value           uniform (1 0 0);
    }
    outlet
    {
        type            zeroGradient;
    }
    upperWall
    {
        type            noSlip;
    }
    lowerWall
    {
        type            noSlip;
    }
    frontAndBack
    {
        type            empty;
    }
}


// ************************************************************************* //
