/*--------------------------------*- C++ -*----------------------------------*\
  =========                 |
  \\      /  F ield         | OpenFOAM: The Open Source CFD Toolbox
   \\    /   O peration     | Website:  https://openfoam.org
    \\  /    A nd           | Version:  10
     \\/     M anipulation  |
\*---------------------------------------------------------------------------*/
FoamFile
{
    format      ascii;
    class       surfaceScalarField;
    location    "1.65";
    object      phi;
}
// * * * * * * * * * * * * * * * * * * * * * * * * * * * * * * * * * * * * * //

dimensions      [0 3 -1 0 0 0 0];

internalField   nonuniform List<scalar> 
760
(
-1.43057e-05
1.43057e-05
-3.36719e-05
1.93661e-05
-5.27734e-05
1.91015e-05
-7.06159e-05
1.78426e-05
-8.67298e-05
1.61139e-05
-0.000100723
1.39934e-05
-0.000112252
1.15289e-05
-0.000121022
8.77016e-06
-0.000126792
5.76975e-06
-0.000129376
2.58366e-06
-0.000128648
-7.27641e-07
-0.00012455
-4.09837e-06
-0.0001171
-7.44987e-06
-0.000106404
-1.06963e-05
-9.2663e-05
-1.37407e-05
-7.61856e-05
-1.64773e-05
-5.73924e-05
-1.87933e-05
-3.68552e-05
-2.05372e-05
-1.57736e-05
-2.10816e-05
-1.57736e-05
-2.00378e-05
3.43436e-05
-4.61285e-05
4.54568e-05
-7.17866e-05
4.47596e-05
-9.57231e-05
4.17791e-05
-0.000117297
3.7688e-05
-0.000135982
3.2678e-05
-0.000151323
2.68696e-05
-0.000162937
2.03849e-05
-0.000170518
1.33504e-05
-0.000173829
5.89508e-06
-0.000172731
-1.82551e-06
-0.000167144
-9.6856e-06
-0.000157108
-1.74861e-05
-0.000142768
-2.50362e-05
-0.000124394
-3.21145e-05
-0.000102394
-3.84772e-05
-7.73262e-05
-4.38614e-05
-4.99513e-05
-4.79121e-05
-2.18067e-05
-4.92263e-05
-3.75803e-05
-2.14844e-05
5.5828e-05
-4.94224e-05
7.33948e-05
-7.68597e-05
7.21969e-05
-0.000102434
6.73539e-05
-0.000125472
6.07259e-05
-0.000145421
5.26265e-05
-0.000161807
4.32555e-05
-0.000174234
3.28123e-05
-0.000182384
2.15006e-05
-0.00018602
9.53058e-06
-0.00018496
-2.88525e-06
-0.000179129
-1.55167e-05
-0.000168549
-2.80661e-05
-0.000153347
-4.02381e-05
-0.000133783
-5.16787e-05
-0.000110267
-6.19931e-05
-8.33788e-05
-7.07497e-05
-5.39277e-05
-7.73631e-05
-2.35676e-05
-7.95863e-05
-6.11479e-05
-2.29079e-05
7.87358e-05
-5.27261e-05
0.000103213
-8.19856e-05
0.000101456
-0.00010924
9.46081e-05
-0.000133781
8.52674e-05
-0.000155038
7.38832e-05
-0.000172526
6.07433e-05
-0.000185842
4.6129e-05
-0.000194662
3.03201e-05
-0.000198731
1.35996e-05
-0.000197863
-3.75289e-06
-0.000191935
-2.14452e-05
-0.000180937
-3.90636e-05
-0.000164959
-5.62169e-05
-0.000144222
-7.24151e-05
-0.000119119
-8.70966e-05
-9.02377e-05
-9.96306e-05
-5.84454e-05
-0.000109155
-2.55565e-05
-0.000112475
-8.67044e-05
-2.48648e-05
0.000103601
-5.72451e-05
0.000135593
-8.89845e-05
0.000133196
-0.000118515
0.000124139
-0.000145085
0.000111837
-0.000168099
9.68979e-05
-0.000187067
7.97108e-05
-0.000201583
6.0645e-05
-0.000211318
4.00554e-05
-0.000216008
1.82894e-05
-0.000215445
-4.31612e-06
-0.000209452
-2.74384e-05
-0.000197965
-5.05504e-05
-0.000181007
-7.31747e-05
-0.000158737
-9.46852e-05
-0.000131501
-0.000114333
-9.98858e-05
-0.000131245
-6.48314e-05
-0.00014421
-2.83872e-05
-0.000148919
-0.000115092
-2.74598e-05
0.00013106
-6.32187e-05
0.000171352
-9.82093e-05
0.000168186
-0.000130702
0.000156631
-0.000159889
0.000141024
-0.000185156
0.000122165
-0.000206012
0.000100566
-0.000222061
7.6694e-05
-0.000232981
5.09758e-05
-0.000238503
2.38109e-05
-0.000238396
-4.42294e-06
-0.000232411
-3.34236e-05
-0.000220404
-6.25571e-05
-0.000202296
-9.1283e-05
-0.000178134
-0.000118847
-0.000148175
-0.000144292
-0.000112975
-0.000166445
-7.35517e-05
-0.000183633
-3.22764e-05
-0.000190195
-0.000147368
-3.07853e-05
0.000161846
-7.0852e-05
0.000211419
-0.000109952
0.000207287
-0.000146148
0.000192827
-0.000178569
0.000173445
-0.000206589
0.000150186
-0.000229737
0.000123714
-0.000247651
9.46075e-05
-0.000260035
6.33602e-05
-0.000266628
3.04037e-05
-0.000267187
-3.86431e-06
-0.000261364
-3.92464e-05
-0.000248906
-7.50156e-05
-0.000229575
-0.000110614
-0.00020324
-0.000145182
-0.000169987
-0.000177545
-0.000130275
-0.000206157
-8.51818e-05
-0.000228727
-3.75041e-05
-0.000237872
-0.000184872
-3.49715e-05
0.000196817
-8.0427e-05
0.000256874
-0.000124605
0.000251464
-0.000165305
0.000233527
-0.000201593
0.000209733
-0.000232855
0.000181448
-0.000258675
0.000149534
-0.000278762
0.000114695
-0.000292886
7.74839e-05
-0.000300817
3.83352e-05
-0.000302323
-2.35825e-06
-0.000296933
-4.46372e-05
-0.000284246
-8.77023e-05
-0.000263792
-0.000131067
-0.000235152
-0.000173822
-0.000198112
-0.000214584
-0.000152902
-0.000251367
-0.000100588
-0.000281041
-4.45094e-05
-0.000293951
-0.000229382
-4.02113e-05
0.000237029
-9.23483e-05
0.000309011
-0.000142714
0.000301831
-0.000188784
0.000279596
-0.000229571
0.00025052
-0.000264519
0.000216396
-0.000293327
0.000178342
-0.000315841
0.000137209
-0.000331952
9.35945e-05
-0.0003415
4.78837e-05
-0.000344331
4.72818e-07
-0.00033979
-4.9178e-05
-0.000327328
-0.000100164
-0.00030613
-0.000152266
-0.00027533
-0.000204622
-0.000234202
-0.000255712
-0.000182507
-0.000303063
-0.000121108
-0.000342439
-5.4009e-05
-0.00036105
-0.000283391
-4.67975e-05
0.000283826
-0.000107207
0.000369421
-0.000165055
0.000359678
-0.000217417
0.000331958
-0.000263296
0.0002964
-0.000302273
0.000255373
-0.000334262
0.000210331
-0.000359345
0.000162292
-0.000377628
0.000111878
-0.00038912
5.9376e-05
-0.000393609
4.96137e-06
-0.000390589
-5.21977e-05
-0.000379139
-0.000111614
-0.000358014
-0.000173391
-0.00032568
-0.000236956
-0.000280574
-0.000300818
-0.000221559
-0.000362078
-0.000148865
-0.000415134
-6.72292e-05
-0.000442686
-0.00035062
-5.51913e-05
0.000339017
-0.000125889
0.000440119
-0.000192738
0.000426527
-0.000252349
0.000391568
-0.000303806
0.000347856
-0.000346964
0.000298532
-0.000382105
0.000245472
-0.000409695
0.000189881
-0.000430179
0.000132362
-0.000443822
7.30191e-05
-0.000450546
1.16855e-05
-0.000449888
-5.28554e-05
-0.000440658
-0.000120844
-0.000421068
-0.000192981
-0.000388648
-0.000269376
-0.000340482
-0.000348985
-0.000273822
-0.000428737
-0.000187332
-0.000501624
-8.63939e-05
-0.000543624
-0.000437014
-6.61519e-05
0.000405169
-0.000149752
0.000523719
-0.000227397
0.000504173
-0.00029518
0.000459351
-0.000352469
0.000405145
-0.000399627
0.000345689
-0.000437531
0.000283377
-0.000467231
0.000219582
-0.000489691
0.000154822
-0.00050558
8.89081e-05
-0.000515103
2.12085e-05
-0.00051792
-5.00387e-05
-0.000512664
-0.0001261
-0.000496977
-0.000208669
-0.000467218
-0.000299135
-0.000418461
-0.000397742
-0.000345111
-0.000502087
-0.0002424
-0.000604335
-0.000115823
-0.000670201
-0.000552836
-8.0991e-05
0.00048616
-0.000180937
0.000623665
-0.000271462
0.000594698
-0.000348164
0.000536053
-0.000411109
0.000468091
-0.000461531
0.000396111
-0.000501231
0.000323077
-0.000532128
0.000250479
-0.000555935
0.000178628
-0.000573912
0.000106885
-0.000586707
3.40041e-05
-0.000594316
-4.24299e-05
-0.000595401
-0.000125016
-0.000587171
-0.000216899
-0.000564748
-0.000321558
-0.000520587
-0.000441903
-0.000444518
-0.000578156
-0.00032442
-0.000724432
-0.000164596
-0.000830025
-0.000717432
-0.000102148
0.000588309
-0.000222974
0.00074449
-0.000328616
0.00070034
-0.000414498
0.000621934
-0.000482149
0.000535743
-0.000534198
0.000448159
-0.000573869
0.000362747
-0.000604301
0.000280911
-0.000628204
0.000202531
-0.000647664
0.000126345
-0.000663952
5.02919e-05
-0.000677692
-2.86891e-05
-0.000688013
-0.000114695
-0.000692163
-0.000212749
-0.000684446
-0.000329275
-0.000654471
-0.000471878
-0.000586105
-0.000646522
-0.00045213
-0.000858407
-0.000253937
-0.00102822
-0.00097137
-0.000132909
0.000721217
-0.000280768
0.00089235
-0.000404107
0.000823678
-0.000498625
0.000716452
-0.000568731
0.000605849
-0.00061939
0.000498818
-0.000655977
0.000399334
-0.000683259
0.000308193
-0.000705161
0.000224433
-0.000724757
0.000145941
-0.000744208
6.97428e-05
-0.000765083
-7.81422e-06
-0.000787636
-9.21409e-05
-0.000810235
-0.00019015
-0.000827857
-0.000311654
-0.00082787
-0.000471864
-0.000789353
-0.000685039
-0.000656717
-0.000991043
-0.000422245
-0.00126269
-0.00139361
-0.000193756
0.000914973
-0.000369019
0.00106761
-0.000508103
0.000962763
-0.000607125
0.000815475
-0.000674837
0.00067356
-0.000718869
0.000542851
-0.000747531
0.000427997
-0.000767601
0.000328263
-0.000784324
0.000241156
-0.000801761
0.000163378
-0.00082319
9.11713e-05
-0.000850639
1.96353e-05
-0.000887532
-5.5248e-05
-0.000934218
-0.000143464
-0.000989923
-0.000255948
-0.00104095
-0.000420838
-0.0010734
-0.000652585
-0.000979283
-0.00108516
-0.000738793
-0.00150318
-0.00213241
-0.000231149
0.00114612
-0.000470817
0.00130728
-0.000642018
0.00113396
-0.000745621
0.000919078
-0.000803005
0.000730944
-0.000830938
0.000570784
-0.000843355
0.000440414
-0.000849547
0.000334455
-0.000855784
0.000247393
-0.000866533
0.000174127
-0.000885366
0.000110005
-0.000916789
5.10584e-05
-0.000966023
-6.01372e-06
-0.00103559
-7.38954e-05
-0.00114013
-0.000151409
-0.00125878
-0.00030219
-0.00142704
-0.000484328
-0.00142467
-0.00108754
-0.00119302
-0.00173482
-0.00332543
-0.000543659
0.00168978
-0.000731403
0.00149503
-0.000846917
0.00124948
-0.000903979
0.00097614
-0.000910981
0.000737947
-0.000893777
0.000553579
-0.000868416
0.000415053
-0.000843757
0.000309797
-0.000825744
0.00022938
-0.000818683
0.000167066
-0.000826807
0.000118128
-0.000854275
7.85267e-05
-0.000907501
4.72122e-05
-0.000993825
1.24288e-05
-0.0011314
-1.38354e-05
-0.0013121
-0.00012149
-0.00153057
-0.000265854
-0.00160021
-0.0010179
-0.00123969
-0.00209534
-0.00456512
-0.00110441
0.00279419
-0.00101996
0.00141057
-0.000821012
0.00105053
-0.000590462
0.000745591
-0.000367392
0.000514877
-0.0001747
0.000360887
-1.93665e-05
0.000259719
0.000100002
0.000190428
0.000188517
0.000140866
0.000251088
0.000104495
0.000291384
7.7832e-05
0.000313408
5.6503e-05
0.000319312
4.13082e-05
0.000306567
2.51732e-05
0.000295222
-2.49037e-06
0.000234895
-6.11624e-05
0.000261347
-0.000292306
5.22785e-05
-0.000808831
0.00011938
-0.00216244
-0.00444574
0.00279419
0.00420476
0.00525529
0.00600088
0.00651576
0.00687665
0.00713637
0.0073268
0.00746766
0.00757216
0.00764999
0.00770649
0.0077478
0.00777297
0.00777048
0.00770932
0.00741701
0.00660818
0.00444574
)
;

boundaryField
{
    movingWall
    {
        type            calculated;
        value           uniform 0;
    }
    fixedWalls
    {
        type            calculated;
        value           uniform 0;
    }
    frontAndBack
    {
        type            empty;
        value           nonuniform List<scalar> 0();
    }
}


// ************************************************************************* //
