/*--------------------------------*- C++ -*----------------------------------*\
  =========                 |
  \\      /  F ield         | OpenFOAM: The Open Source CFD Toolbox
   \\    /   O peration     | Website:  https://openfoam.org
    \\  /    A nd           | Version:  10
     \\/     M anipulation  |
\*---------------------------------------------------------------------------*/
FoamFile
{
    format      ascii;
    class       volVectorField;
    location    "1.65";
    object      U;
}
// * * * * * * * * * * * * * * * * * * * * * * * * * * * * * * * * * * * * * //

dimensions      [0 1 -1 0 0 0 0];

internalField   nonuniform List<vector> 
400
(
(-0.000315303 0.000311625 0)
(-0.0011623 0.000430068 0)
(-0.00217181 0.000424901 0)
(-0.0030968 0.000397256 0)
(-0.0039484 0.000359278 0)
(-0.00470375 0.000312605 0)
(-0.00534399 0.000258216 0)
(-0.00585322 0.000197152 0)
(-0.00621805 0.000130543 0)
(-0.00642777 5.96217e-05 0)
(-0.00647461 -1.4185e-05 0)
(-0.00635392 -8.9581e-05 0)
(-0.00606461 -0.000164689 0)
(-0.00560977 -0.00023754 0)
(-0.00499699 -0.000305929 0)
(-0.0042389 -0.000367452 0)
(-0.00335412 -0.00041956 0)
(-0.0023691 -0.000458878 0)
(-0.00127832 -0.000470866 0)
(-0.000350564 -0.000346658 0)
(-0.000449768 0.00116571 0)
(-0.00161007 0.00156036 0)
(-0.00296308 0.00153793 0)
(-0.00420571 0.00143622 0)
(-0.00534751 0.00129651 0)
(-0.00635784 0.00112519 0)
(-0.0072116 0.000926247 0)
(-0.00788795 0.000703764 0)
(-0.00836965 0.000462048 0)
(-0.00864313 0.000205627 0)
(-0.00869901 -6.08109e-05 0)
(-0.00853173 -0.000331615 0)
(-0.00814022 -0.000600652 0)
(-0.00752905 -0.000861101 0)
(-0.00670849 -0.00110523 0)
(-0.00569533 -0.0013246 0)
(-0.00451422 -0.00151015 0)
(-0.00319987 -0.00164974 0)
(-0.00174961 -0.00169402 0)
(-0.000492305 -0.00128046 0)
(-0.000482363 0.00224513 0)
(-0.00172583 0.00295852 0)
(-0.00317388 0.00291158 0)
(-0.00450204 0.00271712 0)
(-0.00572166 0.00245048 0)
(-0.0068004 0.00212421 0)
(-0.00771202 0.00174624 0)
(-0.00843489 0.00132458 0)
(-0.00895121 0.000867476 0)
(-0.00924712 0.000383458 0)
(-0.00931213 -0.000118599 0)
(-0.00913977 -0.000628603 0)
(-0.00872867 -0.0011353 0)
(-0.00808242 -0.00162605 0)
(-0.00721055 -0.00208652 0)
(-0.00612959 -0.00250084 0)
(-0.00486478 -0.00285183 0)
(-0.00345286 -0.00311626 0)
(-0.00189027 -0.00320369 0)
(-0.000532398 -0.00245597 0)
(-0.000513953 0.00335212 0)
(-0.00184075 0.00439829 0)
(-0.0033862 0.00432495 0)
(-0.00480195 0.00403425 0)
(-0.00610131 0.00363694 0)
(-0.00725044 0.00315188 0)
(-0.00822232 0.00259114 0)
(-0.00899496 0.00196668 0)
(-0.00955025 0.00129057 0)
(-0.00987379 0.00057506 0)
(-0.00995461 -0.000166917 0)
(-0.00978486 -0.000921843 0)
(-0.00936116 -0.00167354 0)
(-0.00868535 -0.00240368 0)
(-0.00776499 -0.00309122 0)
(-0.00661508 -0.00371241 0)
(-0.00526057 -0.00424096 0)
(-0.00374013 -0.00464117 0)
(-0.0020498 -0.00477831 0)
(-0.000577451 -0.0036794 0)
(-0.000557635 0.00454133 0)
(-0.00199839 0.00594634 0)
(-0.00367634 0.00584337 0)
(-0.00521111 0.00544811 0)
(-0.00661827 0.00490985 0)
(-0.00786211 0.0042547 0)
(-0.00891487 0.00349939 0)
(-0.0097544 0.00266011 0)
(-0.0103625 0.00175269 0)
(-0.0107245 0.000792796 0)
(-0.0108287 -0.00020353 0)
(-0.0106653 -0.00121929 0)
(-0.0102282 -0.00223418 0)
(-0.00951626 -0.00322456 0)
(-0.00853355 -0.00416249 0)
(-0.0072922 -0.00501538 0)
(-0.00581583 -0.00574604 0)
(-0.00414524 -0.00630334 0)
(-0.00227628 -0.00650171 0)
(-0.000641961 -0.00502044 0)
(-0.000615725 0.00584432 0)
(-0.0022072 0.00764288 0)
(-0.00405944 0.00750524 0)
(-0.00574965 0.0069933 0)
(-0.00729649 0.00629944 0)
(-0.00866204 0.00545839 0)
(-0.00981813 0.00449242 0)
(-0.010743 0.00342231 0)
(-0.0114189 0.00226758 0)
(-0.0118313 0.00104679 0)
(-0.011968 -0.000221663 0)
(-0.0118167 -0.00151868 0)
(-0.0113676 -0.0028207 0)
(-0.0106147 -0.00409947 0)
(-0.00955678 -0.00532013 0)
(-0.00820065 -0.0064402 0)
(-0.00656655 -0.00740904 0)
(-0.00469688 -0.00815556 0)
(-0.00258685 -0.00843348 0)
(-0.00073102 -0.00652835 0)
(-0.000690328 0.00729438 0)
(-0.00247462 0.00953047 0)
(-0.00454831 0.00935035 0)
(-0.00643389 0.00870475 0)
(-0.00815425 0.0078353 0)
(-0.00966926 0.00678746 0)
(-0.010951 0.0055903 0)
(-0.0119793 0.00426974 0)
(-0.0127381 0.00284885 0)
(-0.0132139 0.00134825 0)
(-0.0133943 -0.000212595 0)
(-0.0132644 -0.00181441 0)
(-0.0128091 -0.00343211 0)
(-0.0120158 -0.00503436 0)
(-0.0108744 -0.00657993 0)
(-0.00938284 -0.00801547 0)
(-0.00755398 -0.00927364 0)
(-0.00542976 -0.0102567 0)
(-0.00300335 -0.010643 0)
(-0.000851416 -0.00826145 0)
(-0.000784491 0.00893088 0)
(-0.00281104 0.0116589 0)
(-0.00516043 0.0114242 0)
(-0.00728547 0.0106211 0)
(-0.00921502 0.00954889 0)
(-0.0109071 0.00826694 0)
(-0.0123359 0.00681294 0)
(-0.0134844 0.00521871 0)
(-0.0143404 0.00351055 0)
(-0.0148928 0.00170993 0)
(-0.0151307 -0.000164398 0)
(-0.0150363 -0.00209627 0)
(-0.0145875 -0.00406154 0)
(-0.0137625 -0.00602898 0)
(-0.0125381 -0.00795277 0)
(-0.0108965 -0.0097683 0)
(-0.0088369 -0.0113878 0)
(-0.00639529 -0.0126776 0)
(-0.00355953 -0.0132182 0)
(-0.00101409 -0.010296 0)
(-0.000902847 0.010801 0)
(-0.00323166 0.0140871 0)
(-0.00592059 0.0137785 0)
(-0.00833413 0.0127841 0)
(-0.0105099 0.0114722 0)
(-0.0124053 0.00992065 0)
(-0.0139994 0.00817824 0)
(-0.0152818 0.00628372 0)
(-0.016247 0.00426606 0)
(-0.0168889 0.00214561 0)
(-0.0172005 -6.3412e-05 0)
(-0.0171616 -0.00234764 0)
(-0.0167418 -0.00469286 0)
(-0.015907 -0.00707211 0)
(-0.014614 -0.00943912 0)
(-0.0128206 -0.0117194 0)
(-0.0105001 -0.0138012 0)
(-0.00767123 -0.0155027 0)
(-0.00430929 -0.0162723 0)
(-0.00123757 -0.0127358 0)
(-0.0010527 0.0129636 0)
(-0.00375927 0.0168861 0)
(-0.00686449 0.0164732 0)
(-0.00962122 0.0152388 0)
(-0.0120802 0.0136367 0)
(-0.0142013 0.0117691 0)
(-0.0159729 0.00969966 0)
(-0.0173967 0.00747526 0)
(-0.0184786 0.00512668 0)
(-0.0192224 0.00267063 0)
(-0.0196239 0.00011308 0)
(-0.0196658 -0.00254208 0)
(-0.019312 -0.00529629 0)
(-0.0185088 -0.00813527 0)
(-0.0171856 -0.0110209 0)
(-0.0152622 -0.0138751 0)
(-0.0126666 -0.0165606 0)
(-0.00937746 -0.0188332 0)
(-0.00534221 -0.0199551 0)
(-0.00155501 -0.0157303 0)
(-0.00124614 0.0154956 0)
(-0.00442917 0.0201449 0)
(-0.00804459 0.0195786 0)
(-0.0112051 0.0180331 0)
(-0.0139817 0.0160703 0)
(-0.0163426 0.0138257 0)
(-0.0182933 0.0113823 0)
(-0.019855 0.00879601 0)
(-0.0210518 0.00609829 0)
(-0.0219026 0.00329884 0)
(-0.0224132 0.000390931 0)
(-0.0225711 -0.0026425 0)
(-0.0223351 -0.00582371 0)
(-0.0216317 -0.00916421 0)
(-0.0203541 -0.0126491 0)
(-0.0183649 -0.0162119 0)
(-0.0155173 -0.0196976 0)
(-0.0117029 -0.0227871 0)
(-0.00681413 -0.0244691 0)
(-0.00202997 -0.019509 0)
(-0.00150433 0.018503 0)
(-0.00529786 0.0239776 0)
(-0.00953946 0.0231778 0)
(-0.0131693 0.0212155 0)
(-0.0162899 0.0187935 0)
(-0.0188897 0.0160915 0)
(-0.0210029 0.0132166 0)
(-0.022681 0.0102352 0)
(-0.023976 0.0071765 0)
(-0.0249299 0.00403841 0)
(-0.0255654 0.000794156 0)
(-0.0258806 -0.00260068 0)
(-0.0258339 -0.00620319 0)
(-0.0253343 -0.0100675 0)
(-0.0242336 -0.0142252 0)
(-0.0223167 -0.0186508 0)
(-0.0193179 -0.0232005 0)
(-0.0149512 -0.0274903 0)
(-0.00901059 -0.030088 0)
(-0.00279289 -0.0244481 0)
(-0.00186673 0.0221439 0)
(-0.0064596 0.0285362 0)
(-0.0114689 0.0273699 0)
(-0.0156349 0.024831 0)
(-0.0191084 0.021811 0)
(-0.02192 0.018545 0)
(-0.02415 0.0151701 0)
(-0.0258954 0.011761 0)
(-0.0272488 0.00834039 0)
(-0.0282852 0.00488813 0)
(-0.0290526 0.00134958 0)
(-0.0295687 -0.00235584 0)
(-0.0298021 -0.00633342 0)
(-0.0296539 -0.010702 0)
(-0.0289379 -0.0155739 0)
(-0.0273483 -0.021016 0)
(-0.0244563 -0.0269601 0)
(-0.0196218 -0.0330471 0)
(-0.0124801 -0.0371702 0)
(-0.00412655 -0.0312115 0)
(-0.00241243 0.0266028 0)
(-0.00808195 0.0339952 0)
(-0.0140202 0.0322609 0)
(-0.0187797 0.0289094 0)
(-0.022579 0.0250987 0)
(-0.0255314 0.0211307 0)
(-0.0277875 0.0171758 0)
(-0.029511 0.013311 0)
(-0.0308491 0.00954382 0)
(-0.031921 0.00582854 0)
(-0.0328097 0.00207594 0)
(-0.0335639 -0.0018398 0)
(-0.0341804 -0.00608322 0)
(-0.0345752 -0.0108604 0)
(-0.0345482 -0.0164089 0)
(-0.0337139 -0.0229694 0)
(-0.0314808 -0.0306671 0)
(-0.0265362 -0.0394166 0)
(-0.0183179 -0.0460307 0)
(-0.00668275 -0.0411455 0)
(-0.003256 0.0327102 0)
(-0.0103939 0.0407664 0)
(-0.0174568 0.0380223 0)
(-0.0228554 0.0334588 0)
(-0.0268907 0.0285861 0)
(-0.0298437 0.02374 0)
(-0.0319699 0.0191174 0)
(-0.0335271 0.0147806 0)
(-0.0347305 0.0107062 0)
(-0.0357519 0.00681227 0)
(-0.0367195 0.00297018 0)
(-0.037726 -0.000996625 0)
(-0.0388205 -0.0053015 0)
(-0.0399769 -0.0102656 0)
(-0.0410434 -0.0162872 0)
(-0.0416172 -0.0238943 0)
(-0.0410673 -0.0335568 0)
(-0.0369087 -0.0461004 0)
(-0.0288156 -0.0565728 0)
(-0.0121395 -0.0567999 0)
(-0.00514481 0.0384836 0)
(-0.014509 0.0484286 0)
(-0.0223718 0.044519 0)
(-0.0282803 0.0383728 0)
(-0.0322983 0.0321093 0)
(-0.0349951 0.0261747 0)
(-0.0367363 0.0208021 0)
(-0.0379062 0.0160045 0)
(-0.0387959 0.0117005 0)
(-0.0396298 0.00775719 0)
(-0.0405854 0.00400843 0)
(-0.0417956 0.000251057 0)
(-0.043401 -0.00379368 0)
(-0.0455012 -0.00852982 0)
(-0.0480976 -0.0144747 0)
(-0.0508947 -0.0226675 0)
(-0.0536976 -0.0338478 0)
(-0.0520609 -0.0520266 0)
(-0.0475849 -0.0684117 0)
(-0.0232252 -0.0835604 0)
(-0.00596686 0.0553999 0)
(-0.0179506 0.0585302 0)
(-0.0286542 0.0520727 0)
(-0.0353265 0.0430044 0)
(-0.039015 0.0349737 0)
(-0.0409996 0.0278968 0)
(-0.0419081 0.0218414 0)
(-0.0423203 0.0166948 0)
(-0.0425982 0.0123028 0)
(-0.0429973 0.00847841 0)
(-0.0437126 0.00500867 0)
(-0.0449437 0.00163721 0)
(-0.0469301 -0.00195821 0)
(-0.0498626 -0.00622887 0)
(-0.0541796 -0.0117764 0)
(-0.0596163 -0.020313 0)
(-0.0683584 -0.0328254 0)
(-0.0712141 -0.0575018 0)
(-0.075725 -0.0837661 0)
(-0.0370943 -0.130195 0)
(-0.0159579 0.055243 0)
(-0.0362849 0.0752346 0)
(-0.0389203 0.0634475 0)
(-0.0448542 0.0510614 0)
(-0.0456034 0.0397847 0)
(-0.0451847 0.0302836 0)
(-0.0440163 0.0228404 0)
(-0.0427219 0.017074 0)
(-0.0416329 0.0125859 0)
(-0.0409895 0.00901687 0)
(-0.0409954 0.00610109 0)
(-0.0418446 0.00362572 0)
(-0.0438206 0.00148593 0)
(-0.047151 -0.000640092 0)
(-0.0529097 -0.00231149 0)
(-0.0601061 -0.00830388 0)
(-0.0738492 -0.0127041 0)
(-0.0757586 -0.0477524 0)
(-0.0903617 -0.0822726 0)
(-0.0247837 -0.200357 0)
(-0.0626156 0.123723 0)
(-0.0518637 0.068026 0)
(-0.0473922 0.0566072 0)
(-0.0352477 0.0422036 0)
(-0.0232277 0.0305361 0)
(-0.0129689 0.0225205 0)
(-0.00434382 0.0168583 0)
(0.00243594 0.0126389 0)
(0.00756885 0.00944802 0)
(0.0112903 0.00702607 0)
(0.013811 0.0051979 0)
(0.0153949 0.00377629 0)
(0.0158246 0.00280533 0)
(0.0165974 0.00160545 0)
(0.0130709 0.000419783 0)
(0.0179369 -0.00551135 0)
(0.00308586 -0.017568 0)
(0.0261022 -0.0614575 0)
(-0.0229774 -0.145009 0)
(0.0394419 -0.280951 0)
(0.13215 0.138801 0)
(0.164109 0.0786665 0)
(0.241652 0.0524495 0)
(0.286194 0.0357103 0)
(0.315202 0.0235652 0)
(0.336085 0.0154268 0)
(0.351321 0.0103781 0)
(0.362305 0.0072566 0)
(0.370328 0.00522539 0)
(0.376348 0.00383895 0)
(0.380665 0.00289281 0)
(0.38432 0.00215528 0)
(0.385584 0.00160956 0)
(0.389692 0.00124095 0)
(0.383905 -0.000479195 0)
(0.395036 0.000441211 0)
(0.363776 -0.00798462 0)
(0.381297 -0.0119099 0)
(0.258555 -0.0497923 0)
(0.220462 -0.126216 0)
)
;

boundaryField
{
    movingWall
    {
        type            fixedValue;
        value           uniform (1 0 0);
    }
    fixedWalls
    {
        type            noSlip;
    }
    frontAndBack
    {
        type            empty;
    }
}


// ************************************************************************* //
