/*--------------------------------*- C++ -*----------------------------------*\
  =========                 |
  \\      /  F ield         | OpenFOAM: The Open Source CFD Toolbox
   \\    /   O peration     | Website:  https://openfoam.org
    \\  /    A nd           | Version:  10
     \\/     M anipulation  |
\*---------------------------------------------------------------------------*/
FoamFile
{
    format      ascii;
    class       volVectorField;
    location    "8.525";
    object      U;
}
// * * * * * * * * * * * * * * * * * * * * * * * * * * * * * * * * * * * * * //

dimensions      [0 1 -1 0 0 0 0];

internalField   nonuniform List<vector> 
400
(
(-0.000157912 0.000139515 0)
(-0.00117821 0.000437851 0)
(-0.00290289 0.000546506 0)
(-0.00467298 0.000582498 0)
(-0.00650549 0.00060162 0)
(-0.0083619 0.000621607 0)
(-0.0102282 0.000641655 0)
(-0.0120813 0.000654207 0)
(-0.0138756 0.000648583 0)
(-0.0155376 0.00061113 0)
(-0.0169602 0.00052555 0)
(-0.017998 0.000374701 0)
(-0.0184709 0.000145252 0)
(-0.0181734 -0.00017753 0)
(-0.0169111 -0.000577152 0)
(-0.0145641 -0.0010065 0)
(-0.0111894 -0.00136885 0)
(-0.00717654 -0.00152267 0)
(-0.00285107 -0.00130218 0)
(-0.000307927 -0.000452985 0)
(-0.000508286 0.0012011 0)
(-0.0026483 0.00249979 0)
(-0.00592759 0.00298534 0)
(-0.00929049 0.00314503 0)
(-0.0127329 0.00319717 0)
(-0.0161667 0.00321312 0)
(-0.0195408 0.0031936 0)
(-0.0227952 0.00311137 0)
(-0.0258387 0.00292586 0)
(-0.0285411 0.00258634 0)
(-0.0307255 0.00203527 0)
(-0.0321643 0.00121377 0)
(-0.0325983 7.29423e-05 0)
(-0.0317338 -0.00139272 0)
(-0.029296 -0.00310844 0)
(-0.0251362 -0.00487685 0)
(-0.01937 -0.00632719 0)
(-0.0125916 -0.00691811 0)
(-0.00533825 -0.00602403 0)
(-0.000810052 -0.00266402 0)
(-0.000664446 0.00310985 0)
(-0.00333056 0.00586647 0)
(-0.00733625 0.00688944 0)
(-0.0114142 0.00720892 0)
(-0.0155618 0.00727185 0)
(-0.019673 0.00722473 0)
(-0.0236874 0.00707433 0)
(-0.0275372 0.00677122 0)
(-0.0311232 0.00623858 0)
(-0.0343048 0.00537965 0)
(-0.0368918 0.00408484 0)
(-0.0386395 0.00224493 0)
(-0.0392401 -0.000226047 0)
(-0.0383324 -0.00333673 0)
(-0.0355586 -0.00694624 0)
(-0.0306638 -0.0106631 0)
(-0.0236981 -0.0137345 0)
(-0.0153547 -0.0150002 0)
(-0.00633305 -0.0131266 0)
(-0.000857954 -0.00612463 0)
(-0.000715725 0.00515349 0)
(-0.00360245 0.00947607 0)
(-0.00793111 0.0110509 0)
(-0.0123216 0.011518 0)
(-0.0167862 0.0115803 0)
(-0.0212211 0.0114656 0)
(-0.0255762 0.0111888 0)
(-0.0297976 0.0106806 0)
(-0.033802 0.00982916 0)
(-0.037464 0.00848979 0)
(-0.0405991 0.00649137 0)
(-0.0429505 0.00365529 0)
(-0.0441773 -0.000165657 0)
(-0.0438214 -0.00502449 0)
(-0.0413419 -0.0107788 0)
(-0.0362378 -0.0168594 0)
(-0.0283065 -0.0220558 0)
(-0.0182585 -0.0243277 0)
(-0.00703921 -0.0212268 0)
(-0.000644018 -0.00964248 0)
(-0.000718819 0.00728552 0)
(-0.00368377 0.0132633 0)
(-0.00815603 0.0154186 0)
(-0.0126957 0.0160463 0)
(-0.0173327 0.0161265 0)
(-0.0219768 0.0159771 0)
(-0.0266014 0.0156257 0)
(-0.0311825 0.0149867 0)
(-0.0356716 0.0139156 0)
(-0.0399793 0.0122162 0)
(-0.0439502 0.0096419 0)
(-0.0473287 0.00590904 0)
(-0.0497189 0.000745229 0)
(-0.0505576 -0.00601889 0)
(-0.0490522 -0.0143375 0)
(-0.0442589 -0.0235401 0)
(-0.0354285 -0.0318764 0)
(-0.0229593 -0.0359691 0)
(-0.00806585 -0.0312491 0)
(-0.00018005 -0.0133597 0)
(-0.000701887 0.00942999 0)
(-0.00368401 0.017124 0)
(-0.0082252 0.0198903 0)
(-0.0128505 0.0207027 0)
(-0.0176066 0.0208378 0)
(-0.0224234 0.0207144 0)
(-0.0273078 0.0203816 0)
(-0.0322789 0.0197454 0)
(-0.0373418 0.0186337 0)
(-0.0424701 0.0167994 0)
(-0.0475722 0.0139092 0)
(-0.052435 0.00954117 0)
(-0.0566531 0.00322013 0)
(-0.0595789 -0.00549419 0)
(-0.0601418 -0.01682 0)
(-0.0567638 -0.0302188 0)
(-0.0475918 -0.0434998 0)
(-0.0317344 -0.051331 0)
(-0.0103752 -0.0445618 0)
(0.000562481 -0.0173657 0)
(-0.000674636 0.0115511 0)
(-0.00364491 0.0210075 0)
(-0.00821909 0.0244158 0)
(-0.0128949 0.0254413 0)
(-0.0177344 0.0256759 0)
(-0.0226907 0.0256533 0)
(-0.0278112 0.025457 0)
(-0.0331708 0.0249983 0)
(-0.0388497 0.024092 0)
(-0.0449183 0.02245 0)
(-0.0514039 0.0196531 0)
(-0.0582218 0.015118 0)
(-0.0650862 0.00808735 0)
(-0.071422 -0.00229165 0)
(-0.0760148 -0.0167222 0)
(-0.0764888 -0.0355272 0)
(-0.0688326 -0.0567814 0)
(-0.0486793 -0.0726546 0)
(-0.0167567 -0.0640337 0)
(0.00121387 -0.0226318 0)
(-0.000639102 0.0136301 0)
(-0.00357816 0.0248886 0)
(-0.00815871 0.0289664 0)
(-0.0128485 0.0302277 0)
(-0.0177222 0.0306008 0)
(-0.0227559 0.0307519 0)
(-0.0280402 0.0308156 0)
(-0.0337161 0.0307307 0)
(-0.0399595 0.0303267 0)
(-0.0469786 0.0293099 0)
(-0.054996 0.0272104 0)
(-0.0642026 0.0233138 0)
(-0.0746629 0.0165985 0)
(-0.0861655 0.00569318 0)
(-0.0979185 -0.0112096 0)
(-0.106477 -0.0363897 0)
(-0.103369 -0.070583 0)
(-0.0781157 -0.102675 0)
(-0.0333317 -0.0949384 0)
(-8.89842e-05 -0.0325067 0)
(-0.00059657 0.0156513 0)
(-0.00348985 0.0287462 0)
(-0.0080513 0.0335102 0)
(-0.0127076 0.0350132 0)
(-0.0175424 0.0355442 0)
(-0.02255 0.0359216 0)
(-0.0278614 0.0363527 0)
(-0.0336834 0.0368312 0)
(-0.0402965 0.0372448 0)
(-0.0480775 0.0373588 0)
(-0.0575204 0.036753 0)
(-0.0692519 0.0347328 0)
(-0.0840697 0.0302207 0)
(-0.102858 0.0213802 0)
(-0.125272 0.00428619 0)
(-0.145574 -0.0285358 0)
(-0.148114 -0.0836652 0)
(-0.118224 -0.142857 0)
(-0.0670345 -0.142607 0)
(-0.00797393 -0.0546982 0)
(-0.000551469 0.0176041 0)
(-0.00339469 0.0325636 0)
(-0.0079165 0.0380102 0)
(-0.0124823 0.0397312 0)
(-0.0171805 0.0404032 0)
(-0.0220153 0.0410185 0)
(-0.0271472 0.0418787 0)
(-0.0328356 0.0430656 0)
(-0.0394514 0.0445781 0)
(-0.0475312 0.0463337 0)
(-0.05786 0.0481266 0)
(-0.0715893 0.0495585 0)
(-0.0904446 0.0498363 0)
(-0.116679 0.0465626 0)
(-0.150088 0.0315109 0)
(-0.179919 -0.0121221 0)
(-0.184595 -0.0974574 0)
(-0.156551 -0.188518 0)
(-0.112292 -0.204294 0)
(-0.0263922 -0.102352 0)
(-0.000514182 0.0194922 0)
(-0.00332559 0.0363351 0)
(-0.00780296 0.0424249 0)
(-0.012219 0.0442946 0)
(-0.0166663 0.045037 0)
(-0.0211462 0.0458372 0)
(-0.0258292 0.0471065 0)
(-0.0309955 0.0490407 0)
(-0.0370561 0.0518007 0)
(-0.0446343 0.0555574 0)
(-0.0546986 0.0605109 0)
(-0.0687316 0.0668428 0)
(-0.0889278 0.0741027 0)
(-0.118057 0.0782418 0)
(-0.154268 0.0641364 0)
(-0.184216 0.00630944 0)
(-0.187806 -0.107354 0)
(-0.168934 -0.226042 0)
(-0.139049 -0.27445 0)
(-0.045667 -0.19188 0)
(-0.000506654 0.0213538 0)
(-0.00334935 0.0401044 0)
(-0.00780861 0.0467642 0)
(-0.0120204 0.0486601 0)
(-0.0160966 0.0493304 0)
(-0.0200243 0.0501717 0)
(-0.0239611 0.0517123 0)
(-0.0281596 0.0542666 0)
(-0.0329839 0.0581796 0)
(-0.0389854 0.0639242 0)
(-0.0470227 0.0721834 0)
(-0.0583501 0.0837042 0)
(-0.074435 0.0978345 0)
(-0.0971359 0.10758 0)
(-0.123504 0.0918982 0)
(-0.1436 0.0217493 0)
(-0.146423 -0.106999 0)
(-0.138595 -0.246026 0)
(-0.128149 -0.336556 0)
(-0.0485223 -0.300487 0)
(-0.000559716 0.0232404 0)
(-0.0035495 0.0438351 0)
(-0.00806663 0.0508471 0)
(-0.012054 0.0525479 0)
(-0.0156623 0.052956 0)
(-0.0188522 0.0536449 0)
(-0.0217581 0.0552153 0)
(-0.0245598 0.0580694 0)
(-0.0274767 0.0626797 0)
(-0.0308108 0.0697165 0)
(-0.0349867 0.0801315 0)
(-0.0404887 0.0947971 0)
(-0.0475014 0.112545 0)
(-0.0567958 0.124155 0)
(-0.0670419 0.107044 0)
(-0.0736605 0.0315856 0)
(-0.0770062 -0.0983951 0)
(-0.0792299 -0.243142 0)
(-0.0954442 -0.364513 0)
(-0.0362525 -0.380669 0)
(-0.000777826 0.0254728 0)
(-0.00420945 0.0481487 0)
(-0.00889576 0.0554404 0)
(-0.0125587 0.0567366 0)
(-0.0155504 0.0565092 0)
(-0.0178553 0.0565959 0)
(-0.0195567 0.0576902 0)
(-0.0207225 0.0602408 0)
(-0.0213961 0.0647497 0)
(-0.0215671 0.0718972 0)
(-0.0211718 0.0826044 0)
(-0.0198321 0.097481 0)
(-0.0168853 0.11516 0)
(-0.0119389 0.126132 0)
(-0.00702025 0.109582 0)
(-0.00197995 0.0357094 0)
(-0.00996987 -0.0862046 0)
(-0.0231676 -0.222074 0)
(-0.0651187 -0.365787 0)
(-0.0220714 -0.434626 0)
(-0.00112316 0.0282185 0)
(-0.00502437 0.0517018 0)
(-0.0102079 0.0582545 0)
(-0.0138038 0.0584261 0)
(-0.0163566 0.0574668 0)
(-0.0177489 0.0570597 0)
(-0.0181293 0.0577277 0)
(-0.017529 0.059779 0)
(-0.0158654 0.0636191 0)
(-0.0128681 0.069789 0)
(-0.00816061 0.0789752 0)
(-0.000736239 0.0913649 0)
(0.0102224 0.105782 0)
(0.026059 0.114068 0)
(0.0404832 0.0995695 0)
(0.0531104 0.0355546 0)
(0.0404452 -0.0705929 0)
(0.0216808 -0.188739 0)
(-0.0420328 -0.351145 0)
(-0.0100557 -0.471184 0)
(-0.00320502 0.0304964 0)
(-0.00946704 0.0589101 0)
(-0.0139666 0.0653518 0)
(-0.0164903 0.0649012 0)
(-0.0176458 0.06219 0)
(-0.0177846 0.0599407 0)
(-0.0169035 0.0587959 0)
(-0.0148467 0.0590612 0)
(-0.0113357 0.0610185 0)
(-0.00589381 0.0649743 0)
(0.00195049 0.07132 0)
(0.0135024 0.0799252 0)
(0.0289395 0.0896315 0)
(0.0498801 0.0942949 0)
(0.0683743 0.0827731 0)
(0.0856309 0.0349123 0)
(0.0706311 -0.0486605 0)
(0.0515222 -0.146296 0)
(-0.0261677 -0.32782 0)
(0.00279886 -0.493291 0)
(-0.00096458 0.0439514 0)
(-0.00772733 0.0604368 0)
(-0.0172527 0.0626625 0)
(-0.0198076 0.0587313 0)
(-0.0213266 0.055659 0)
(-0.0206964 0.0536378 0)
(-0.0186473 0.0526045 0)
(-0.015058 0.0524642 0)
(-0.00973472 0.053348 0)
(-0.00217566 0.0553612 0)
(0.0080658 0.058891 0)
(0.0221389 0.0636829 0)
(0.039476 0.0687642 0)
(0.0624465 0.0702364 0)
(0.0810358 0.0615487 0)
(0.100857 0.0297965 0)
(0.0841996 -0.029839 0)
(0.0682635 -0.106166 0)
(-0.00886199 -0.303787 0)
(0.0219133 -0.502859 0)
(-0.0125585 0.0322473 0)
(-0.0233039 0.0803433 0)
(-0.0213497 0.0803115 0)
(-0.0257879 0.0753292 0)
(-0.0258105 0.0679279 0)
(-0.0240204 0.0618213 0)
(-0.0201466 0.0569469 0)
(-0.0143772 0.0532244 0)
(-0.00677022 0.050664 0)
(0.00311491 0.0490607 0)
(0.0152421 0.0486849 0)
(0.0305738 0.0490706 0)
(0.047672 0.050515 0)
(0.0698846 0.0501117 0)
(0.0851586 0.0461135 0)
(0.106623 0.0300925 0)
(0.0940582 -0.00570876 0)
(0.101789 -0.0659401 0)
(0.0401901 -0.274616 0)
(0.0578312 -0.490311 0)
(-0.0776395 0.0959157 0)
(-0.0632582 0.0587987 0)
(-0.0653271 0.05996 0)
(-0.0429001 0.0533249 0)
(-0.0251968 0.0463595 0)
(-0.00464272 0.0411959 0)
(0.0147627 0.0374342 0)
(0.0345402 0.0342438 0)
(0.0528995 0.0319388 0)
(0.0728661 0.0298503 0)
(0.090289 0.0286948 0)
(0.112541 0.0276575 0)
(0.128289 0.0270818 0)
(0.157414 0.0261747 0)
(0.167491 0.0210144 0)
(0.203156 0.01221 0)
(0.1923 -0.0211424 0)
(0.223586 -0.0744251 0)
(0.154498 -0.251969 0)
(0.125032 -0.4336 0)
(0.119396 0.140771 0)
(0.152016 0.0860882 0)
(0.228459 0.0635095 0)
(0.283921 0.0480504 0)
(0.325334 0.0374182 0)
(0.363644 0.0296559 0)
(0.392347 0.0242233 0)
(0.423561 0.0201817 0)
(0.443494 0.0172779 0)
(0.472079 0.0149805 0)
(0.484886 0.0132817 0)
(0.51431 0.0119727 0)
(0.519802 0.0108499 0)
(0.552186 0.00967388 0)
(0.547295 0.00766872 0)
(0.579609 0.00326467 0)
(0.54837 -0.00585674 0)
(0.553928 -0.0271909 0)
(0.420197 -0.073253 0)
(0.275294 -0.152038 0)
)
;

boundaryField
{
    movingWall
    {
        type            fixedValue;
        value           uniform (1 0 0);
    }
    fixedWalls
    {
        type            noSlip;
    }
    frontAndBack
    {
        type            empty;
    }
}


// ************************************************************************* //
