/*--------------------------------*- C++ -*----------------------------------*\
  =========                 |
  \\      /  F ield         | OpenFOAM: The Open Source CFD Toolbox
   \\    /   O peration     | Website:  https://openfoam.org
    \\  /    A nd           | Version:  10
     \\/     M anipulation  |
\*---------------------------------------------------------------------------*/
FoamFile
{
    format      ascii;
    class       volVectorField;
    location    "2.25";
    object      U;
}
// * * * * * * * * * * * * * * * * * * * * * * * * * * * * * * * * * * * * * //

dimensions      [0 1 -1 0 0 0 0];

internalField   nonuniform List<vector> 
400
(
(-0.000271856 0.000269507 0)
(-0.00114237 0.00043321 0)
(-0.00226785 0.000441321 0)
(-0.00329435 0.000417552 0)
(-0.00425144 0.000382326 0)
(-0.00511085 0.000338033 0)
(-0.00585055 0.000285281 0)
(-0.00645154 0.000224656 0)
(-0.00689665 0.000156899 0)
(-0.00717093 8.29718e-05 0)
(-0.0072621 4.2414e-06 0)
(-0.00716088 -7.8502e-05 0)
(-0.00686203 -0.000162836 0)
(-0.00636549 -0.000246398 0)
(-0.00567708 -0.000326351 0)
(-0.00480939 -0.000399421 0)
(-0.00378403 -0.000461818 0)
(-0.00263818 -0.000507463 0)
(-0.00135126 -0.000510641 0)
(-0.000330602 -0.000330362 0)
(-0.000450009 0.00114464 0)
(-0.00176415 0.00171329 0)
(-0.00339774 0.00173313 0)
(-0.00489398 0.00163527 0)
(-0.00628352 0.00149112 0)
(-0.00752566 0.0013107 0)
(-0.00858847 0.00109747 0)
(-0.00944516 0.000854668 0)
(-0.0100722 0.000585901 0)
(-0.0104495 0.000295278 0)
(-0.0105621 -1.26841e-05 0)
(-0.0103984 -0.000332121 0)
(-0.00995202 -0.000655209 0)
(-0.00922486 -0.000973295 0)
(-0.0082263 -0.00127599 0)
(-0.00697494 -0.00155127 0)
(-0.00550183 -0.00178522 0)
(-0.00385805 -0.00195527 0)
(-0.00202476 -0.0019718 0)
(-0.000523817 -0.00134802 0)
(-0.0004928 0.00233627 0)
(-0.00192525 0.00339081 0)
(-0.00369994 0.00341789 0)
(-0.0053232 0.00322054 0)
(-0.00682974 0.00293158 0)
(-0.00817616 0.00257103 0)
(-0.00932861 0.00214659 0)
(-0.0102588 0.00166533 0)
(-0.010942 0.0011348 0)
(-0.0113575 0.000563318 0)
(-0.0114883 -3.99321e-05 0)
(-0.0113206 -0.00066388 0)
(-0.0108474 -0.00129421 0)
(-0.0100691 -0.00191424 0)
(-0.00899353 -0.00250415 0)
(-0.00763862 -0.0030409 0)
(-0.00603619 -0.00349745 0)
(-0.00424095 -0.00383006 0)
(-0.00223131 -0.00387138 0)
(-0.000579165 -0.00271541 0)
(-0.000523032 0.00354367 0)
(-0.002048 0.00510331 0)
(-0.00393891 0.00513688 0)
(-0.00566673 0.0048378 0)
(-0.00727096 0.0044023 0)
(-0.00870637 0.0038603 0)
(-0.00993808 0.00322362 0)
(-0.0109371 0.00250297 0)
(-0.0116779 0.00170952 0)
(-0.0121383 0.000855325 0)
(-0.0123007 -4.57758e-05 0)
(-0.0121484 -0.000979433 0)
(-0.0116701 -0.00192515 0)
(-0.010863 -0.00285877 0)
(-0.00973138 -0.00375088 0)
(-0.00828978 -0.00456662 0)
(-0.00656861 -0.00526435 0)
(-0.00462585 -0.00577653 0)
(-0.0024374 -0.00585174 0)
(-0.000632643 -0.00413513 0)
(-0.000563077 0.00483569 0)
(-0.00220894 0.00693847 0)
(-0.00425153 0.00697844 0)
(-0.00611634 0.00657057 0)
(-0.00784846 0.00597936 0)
(-0.00940048 0.00524556 0)
(-0.0107365 0.0043855 0)
(-0.011827 0.00341364 0)
(-0.0126458 0.0023445 0)
(-0.0131694 0.00119316 0)
(-0.0133787 -2.38664e-05 0)
(-0.0132533 -0.00128685 0)
(-0.0127765 -0.00257214 0)
(-0.0119399 -0.00384868 0)
(-0.0107411 -0.00507723 0)
(-0.00918879 -0.00620972 0)
(-0.0073098 -0.0071868 0)
(-0.00516543 -0.0079115 0)
(-0.00272896 -0.00803561 0)
(-0.000709306 -0.00570406 0)
(-0.00061621 0.00624125 0)
(-0.00242097 0.00893769 0)
(-0.00466188 0.00898361 0)
(-0.00670498 0.00845707 0)
(-0.0086026 0.00769758 0)
(-0.0103048 0.00675816 0)
(-0.0117748 0.00566029 0)
(-0.0129831 0.00442234 0)
(-0.0139035 0.00306184 0)
(-0.0145118 0.00159609 0)
(-0.0147856 4.32129e-05 0)
(-0.0147013 -0.00157433 0)
(-0.0142362 -0.00323081 0)
(-0.0133719 -0.00488959 0)
(-0.0120962 -0.00650211 0)
(-0.0104073 -0.00800555 0)
(-0.00832435 -0.00931871 0)
(-0.00591083 -0.0103066 0)
(-0.00313578 -0.0105047 0)
(-0.000817517 -0.0074854 0)
(-0.000683987 0.00779221 0)
(-0.00269054 0.0111459 0)
(-0.00518192 0.0111961 0)
(-0.00744823 0.0105371 0)
(-0.00955129 0.00959238 0)
(-0.0114384 0.00842935 0)
(-0.0130728 0.00707568 0)
(-0.0144259 0.00555398 0)
(-0.0154725 0.00388441 0)
(-0.0161885 0.00208533 0)
(-0.0165494 0.00017498 0)
(-0.0165277 -0.00182581 0)
(-0.0160921 -0.00389059 0)
(-0.0152115 -0.00598027 0)
(-0.0138579 -0.00803871 0)
(-0.0120126 -0.00998744 0)
(-0.00967939 -0.0117183 0)
(-0.00691932 -0.0130458 0)
(-0.00369354 -0.0133595 0)
(-0.00096792 -0.00955902 0)
(-0.000768463 0.00952582 0)
(-0.00302575 0.0136155 0)
(-0.00582628 0.0136657 0)
(-0.00836444 0.0128548 0)
(-0.0107147 0.011702 0)
(-0.0128218 0.010292 0)
(-0.0146503 0.00866043 0)
(-0.0161745 0.00683463 0)
(-0.0173722 0.00483695 0)
(-0.0182213 0.00268527 0)
(-0.0186967 0.000394998 0)
(-0.018767 -0.00201754 0)
(-0.0183907 -0.00453082 0)
(-0.0175202 -0.00710815 0)
(-0.0161042 -0.00969014 0)
(-0.014096 -0.0121839 0)
(-0.0114712 -0.0144488 0)
(-0.00827701 -0.016232 0)
(-0.00445911 -0.0167309 0)
(-0.00117871 -0.0120342 0)
(-0.000872823 0.0114851 0)
(-0.0034384 0.0164064 0)
(-0.00661544 0.0164478 0)
(-0.00947855 0.0154574 0)
(-0.0121192 0.0140654 0)
(-0.0144804 0.0123783 0)
(-0.0165303 0.0104419 0)
(-0.0182495 0.00828937 0)
(-0.019622 0.00594482 0)
(-0.0206305 0.00342368 0)
(-0.0212523 0.000735032 0)
(-0.0214536 -0.00211421 0)
(-0.0211828 -0.00511491 0)
(-0.020371 -0.00824125 0)
(-0.0189348 -0.0114395 0)
(-0.0167833 -0.0146086 0)
(-0.0138411 -0.0175726 0)
(-0.0101177 -0.0199896 0)
(-0.00552793 -0.0207925 0)
(-0.0014832 -0.0150675 0)
(-0.00100221 0.0137221 0)
(-0.0039462 0.0195892 0)
(-0.00757887 0.0196049 0)
(-0.0108251 0.018395 0)
(-0.0137996 0.0167212 0)
(-0.0164459 0.0147178 0)
(-0.0187395 0.0124438 0)
(-0.0206719 0.00994002 0)
(-0.0222382 0.00723197 0)
(-0.0234312 0.00433048 0)
(-0.0242347 0.00123411 0)
(-0.024617 -0.00206646 0)
(-0.0245178 -0.00558434 0)
(-0.0238449 -0.00931801 0)
(-0.022473 -0.0132355 0)
(-0.0202451 -0.0172438 0)
(-0.0169989 -0.0211387 0)
(-0.0126542 -0.024467 0)
(-0.00706802 -0.025779 0)
(-0.00194649 -0.0188989 0)
(-0.00116533 0.0163022 0)
(-0.00457657 0.0232496 0)
(-0.00875973 0.0232086 0)
(-0.0124528 0.0217208 0)
(-0.0158031 0.019706 0)
(-0.0187585 0.0173342 0)
(-0.0213085 0.0146824 0)
(-0.0234618 0.0118011 0)
(-0.0252319 0.00871724 0)
(-0.0266287 0.0054348 0)
(-0.0276494 0.00193715 0)
(-0.0282723 -0.00180912 0)
(-0.0284345 -0.00585198 0)
(-0.0280224 -0.0102337 0)
(-0.0268626 -0.0149713 0)
(-0.0247076 -0.0200123 0)
(-0.0212561 -0.0251533 0)
(-0.0162327 -0.0298287 0)
(-0.00939209 -0.0320107 0)
(-0.00270499 -0.0239242 0)
(-0.00137778 0.0193134 0)
(-0.00537345 0.0274946 0)
(-0.0102226 0.027342 0)
(-0.0144313 0.0254895 0)
(-0.0181938 0.0230506 0)
(-0.0214704 0.0202408 0)
(-0.0242731 0.017161 0)
(-0.0266376 0.013874 0)
(-0.028605 0.0104084 0)
(-0.0302118 0.00675952 0)
(-0.0314791 0.00289129 0)
(-0.0324066 -0.00126123 0)
(-0.0329429 -0.00579639 0)
(-0.0329646 -0.010824 0)
(-0.0322543 -0.0164515 0)
(-0.0304562 -0.0227271 0)
(-0.0270717 -0.0295209 0)
(-0.0214302 -0.0362174 0)
(-0.0131164 -0.039919 0)
(-0.00406272 -0.0308469 0)
(-0.00166967 0.0228859 0)
(-0.00641038 0.032467 0)
(-0.012065 0.0321038 0)
(-0.0168613 0.0297549 0)
(-0.0210602 0.0267746 0)
(-0.0246493 0.0234331 0)
(-0.0276761 0.0198618 0)
(-0.0302151 0.0161382 0)
(-0.032347 0.0122932 0)
(-0.0341465 0.00831207 0)
(-0.0356709 0.00413546 0)
(-0.0369606 -0.000340914 0)
(-0.0379981 -0.00526113 0)
(-0.0386785 -0.0108464 0)
(-0.0387699 -0.0173458 0)
(-0.0378193 -0.0250049 0)
(-0.0351 -0.0339229 0)
(-0.0292226 -0.0436344 0)
(-0.0195079 -0.049989 0)
(-0.00672815 -0.0410743 0)
(-0.00210201 0.0271217 0)
(-0.00782149 0.0383031 0)
(-0.0144429 0.0375894 0)
(-0.0198909 0.0345597 0)
(-0.0245246 0.0308768 0)
(-0.0283847 0.0268788 0)
(-0.031569 0.0227355 0)
(-0.0342069 0.0185405 0)
(-0.0364317 0.014327 0)
(-0.0383701 0.0100709 0)
(-0.0401326 0.00569152 0)
(-0.0418036 0.00105026 0)
(-0.0434491 -0.00405566 0)
(-0.0450505 -0.00997519 0)
(-0.046419 -0.0171434 0)
(-0.0470968 -0.0261486 0)
(-0.0462031 -0.0375934 0)
(-0.0411904 -0.0516377 0)
(-0.0312026 -0.0624716 0)
(-0.0124597 -0.0574821 0)
(-0.00272143 0.0329299 0)
(-0.00970715 0.0454277 0)
(-0.0175407 0.0439715 0)
(-0.0237167 0.039921 0)
(-0.0287506 0.0353141 0)
(-0.0327923 0.0305046 0)
(-0.0360145 0.0256913 0)
(-0.0386222 0.0209841 0)
(-0.0408136 0.0164193 0)
(-0.042777 0.0119635 0)
(-0.0446845 0.00751615 0)
(-0.0466978 0.00289548 0)
(-0.0490101 -0.00217189 0)
(-0.0517485 -0.00804611 0)
(-0.054926 -0.0153789 0)
(-0.0583282 -0.0252433 0)
(-0.0612298 -0.0389915 0)
(-0.0594403 -0.0586554 0)
(-0.0526331 -0.0765495 0)
(-0.024437 -0.0852877 0)
(-0.00446315 0.0379111 0)
(-0.0134578 0.0538154 0)
(-0.0219481 0.0514205 0)
(-0.0287029 0.0461511 0)
(-0.033947 0.0402555 0)
(-0.0380002 0.0342983 0)
(-0.0410682 0.0286123 0)
(-0.0434408 0.0233172 0)
(-0.0453945 0.0184256 0)
(-0.0471938 0.0138826 0)
(-0.0490976 0.0095977 0)
(-0.0513613 0.00543024 0)
(-0.0542257 0.00116124 0)
(-0.0580426 -0.00363739 0)
(-0.06332 -0.00980349 0)
(-0.0703389 -0.0190498 0)
(-0.0794803 -0.033713 0)
(-0.0840108 -0.0612722 0)
(-0.0858682 -0.0917971 0)
(-0.0412679 -0.135876 0)
(-0.00389247 0.053556 0)
(-0.0146895 0.0613728 0)
(-0.0273072 0.0574974 0)
(-0.0349839 0.050057 0)
(-0.0405105 0.0431522 0)
(-0.044217 0.0365608 0)
(-0.0466022 0.0304565 0)
(-0.0482169 0.0248904 0)
(-0.0494482 0.019876 0)
(-0.0505945 0.0153764 0)
(-0.0519118 0.011325 0)
(-0.0536791 0.00757726 0)
(-0.0563468 0.00397641 0)
(-0.0605737 5.72075e-05 0)
(-0.0674781 -0.00467418 0)
(-0.0777779 -0.0125066 0)
(-0.0955222 -0.0260166 0)
(-0.105594 -0.0612467 0)
(-0.117949 -0.114462 0)
(-0.0412923 -0.220845 0)
(-0.012691 0.049515 0)
(-0.0322271 0.084257 0)
(-0.0354599 0.0748413 0)
(-0.0434868 0.0644896 0)
(-0.0461368 0.053536 0)
(-0.0472935 0.0433434 0)
(-0.0472234 0.0346583 0)
(-0.0465955 0.0274904 0)
(-0.045811 0.0216729 0)
(-0.0451869 0.0169634 0)
(-0.0450501 0.0132532 0)
(-0.0456456 0.0104051 0)
(-0.0474847 0.00861895 0)
(-0.0507411 0.00796029 0)
(-0.0571097 0.00912186 0)
(-0.0644087 0.0083327 0)
(-0.0815842 0.00414154 0)
(-0.0787181 -0.04529 0)
(-0.102194 -0.133746 0)
(0.00241394 -0.31134 0)
(-0.0706217 0.114836 0)
(-0.054796 0.0697824 0)
(-0.0533107 0.0624089 0)
(-0.0370173 0.0508804 0)
(-0.0224647 0.0401016 0)
(-0.0089198 0.0317344 0)
(0.003088 0.0253174 0)
(0.0132278 0.0201967 0)
(0.0214918 0.0160904 0)
(0.0281752 0.0127987 0)
(0.0333026 0.0104311 0)
(0.0376962 0.00856383 0)
(0.040633 0.00802246 0)
(0.0450928 0.0074039 0)
(0.0456885 0.00868012 0)
(0.0588626 0.00465176 0)
(0.0465191 -0.00754748 0)
(0.0862906 -0.0656647 0)
(0.0216533 -0.200034 0)
(0.0824756 -0.35898 0)
(0.126942 0.143136 0)
(0.165246 0.0876338 0)
(0.246222 0.0628344 0)
(0.30017 0.0462136 0)
(0.339367 0.0338395 0)
(0.3693 0.0244805 0)
(0.392461 0.0177133 0)
(0.410394 0.0129673 0)
(0.423903 0.00970861 0)
(0.435119 0.00730951 0)
(0.442413 0.00571958 0)
(0.45172 0.00446279 0)
(0.452485 0.00330078 0)
(0.466231 0.00344896 0)
(0.455263 0.000631939 0)
(0.481356 0.00290892 0)
(0.444429 -0.00831342 0)
(0.467483 -0.0156865 0)
(0.338264 -0.0530946 0)
(0.253304 -0.138947 0)
)
;

boundaryField
{
    movingWall
    {
        type            fixedValue;
        value           uniform (1 0 0);
    }
    fixedWalls
    {
        type            noSlip;
    }
    frontAndBack
    {
        type            empty;
    }
}


// ************************************************************************* //
