/*--------------------------------*- C++ -*----------------------------------*\
  =========                 |
  \\      /  F ield         | OpenFOAM: The Open Source CFD Toolbox
   \\    /   O peration     | Website:  https://openfoam.org
    \\  /    A nd           | Version:  10
     \\/     M anipulation  |
\*---------------------------------------------------------------------------*/
FoamFile
{
    format      ascii;
    class       surfaceScalarField;
    location    "8.175";
    object      phi;
}
// * * * * * * * * * * * * * * * * * * * * * * * * * * * * * * * * * * * * * //

dimensions      [0 3 -1 0 0 0 0];

internalField   nonuniform List<scalar> 
928
(
0.0956097
0.00439033
0.103419
-0.00780888
0.106533
-0.00311483
-0.00986353
0.116397
0.0943597
0.0100306
0.105928
-0.0193772
0.101717
0.00109621
-0.020078
0.111932
0.0955798
0.0144508
0.107677
-0.0314741
0.102821
0.0059523
-0.0409209
0.123664
0.104492
0.00995926
0.0951301
-0.0221127
0.100897
0.000185319
0.147426
-0.0874496
0.111099
0.00529786
-0.0166136
0.127713
0.107707
0.00952275
-0.0420016
0.133095
0.123594
0.00959257
-0.0462348
0.127827
0.157018
0.110783
0.127413
0.000299817
0.12817
-0.000757587
0.129249
-0.00107833
-0.00155631
0.130805
0.132934
0.00045998
0.132917
-0.000739852
0.134333
-0.00249505
-0.00218094
0.134958
0.130547
-0.00225983
0.13482
-0.00501329
0.132063
0.000262595
0.00068723
0.129194
0.10874
-0.000216081
0.119064
-0.0153373
0.115078
0.00424819
0.103462
0.0123036
0.131857
-0.00105212
0.132488
-0.000631096
0.132671
-0.000182984
0.132429
0.000242435
0.132339
8.95225e-05
0.131251
0.00108852
0.130678
0.000572478
0.129477
0.00120115
0.128378
0.00109914
0.126954
0.00142383
0.125338
0.00161584
0.124184
0.00115467
0.122742
0.00144154
0.122522
0.000219933
0.122126
0.00039668
0.12223
-0.000104682
0.121576
0.000654125
0.120554
0.00102179
0.119161
0.00139346
0.11679
0.00237097
0.114758
0.00203144
0.111858
0.00290068
0.109982
0.0018759
0.107704
0.00227793
0.106677
0.00102727
0.106143
0.000533274
0.10654
-0.000396941
0.10781
-0.00126931
0.109248
-0.00143797
0.111063
-0.0018151
0.112429
-0.00136608
0.11341
-0.000981232
0.113429
-1.86878e-05
0.112598
0.000830284
0.110675
0.00192332
0.107973
0.0027026
0.104566
0.00340644
0.101246
0.00332042
0.0977204
0.00352527
0.00230327
0.135264
-0.00135806
0.135845
-0.00121187
0.136277
-0.000615276
0.136916
-0.000396423
0.137019
-1.36821e-05
0.136539
0.00156845
0.136479
0.000632578
0.13598
0.00169982
0.135107
0.00197261
0.133739
0.00279184
0.132334
0.00302042
0.131285
0.0022045
0.130404
0.00232256
0.130801
-0.000177865
0.130987
0.000210566
0.131704
-0.000821118
0.131861
0.00049694
0.131618
0.00126439
0.131095
0.00191736
0.129499
0.0039663
0.128084
0.00344631
0.125641
0.00534449
0.124012
0.00350484
0.121901
0.00438866
0.120721
0.00220704
0.120473
0.000781472
0.120573
-0.000496857
0.122083
-0.00277955
0.123195
-0.00254958
0.125317
-0.00393757
0.126689
-0.0027382
0.12863
-0.00292212
0.129593
-0.000981813
0.129891
0.000532735
0.129063
0.00275121
0.12739
0.00437523
0.125185
0.0056122
0.122726
0.00577899
0.120145
0.0061062
0.00457359
0.129821
-0.00198492
0.130091
-0.00148114
0.1322
-0.00272471
0.132601
-0.00079752
0.131315
0.00127193
0.133059
-0.000174676
0.133648
4.35919e-05
0.132999
0.00234883
0.131084
0.00388735
0.129955
0.00392071
0.129214
0.00376162
0.12878
0.00263855
0.128993
0.00210914
0.128525
0.000290054
0.12874
-4.5561e-06
0.129068
-0.00114867
0.130261
-0.000696646
0.13162
-9.36526e-05
0.132311
0.00122613
0.132295
0.00398209
0.131437
0.00430458
0.130313
0.00646768
0.12862
0.00519787
0.127634
0.00537479
0.126444
0.00339716
0.12523
0.00199605
0.124252
0.00048109
0.123784
-0.00231224
0.123292
-0.0020576
0.12351
-0.00415537
0.124028
-0.00325568
0.125389
-0.00428355
0.126597
-0.00218982
0.129167
-0.00203706
0.130728
0.00119057
0.132428
0.00267474
0.133175
0.00486566
0.132705
0.0062488
0.131434
0.00737717
0.00674172
0.113193
-0.0117166
0.10615
0.00556266
0.110127
-0.00670207
0.107764
0.00156544
0.10398
0.0050554
0.109619
-0.00581286
0.109931
-0.000268829
0.106652
0.0056279
0.107899
0.00264044
0.107266
0.00455349
0.106544
0.00448409
0.104619
0.00456347
0.101424
0.00530396
0.0985672
0.00314684
0.0975983
0.00096427
0.0965963
-0.000146626
0.0985497
-0.00265002
0.100823
-0.00236749
0.103504
-0.00145411
0.107714
-0.000228142
0.110735
0.00128305
0.113599
0.00360465
0.114409
0.00438698
0.1141
0.00568435
0.110541
0.0069557
0.105572
0.00696532
0.0993285
0.00672467
0.0918925
0.00512375
0.086204
0.00363085
0.0818458
0.000202888
0.08162
-0.00302988
0.0819474
-0.00461096
0.0858202
-0.00606266
0.0905439
-0.00676078
0.0958154
-0.0040809
0.101664
-0.00317368
0.107021
-0.000491886
0.111716
0.00155425
0.116416
0.0026772
0.00355019
0.109497
0.000461985
0.0875889
-0.00020431
0.0870416
0.000732643
-0.000407981
0.111122
-0.0106602
0.0885927
0.0223252
0.0895521
-0.000226733
0.0891441
-0.00408084
0.00386475
0.0174804
-0.0368985
0.0123229
0.0094057
0.0417448
-0.0171183
-0.00484477
0.00870953
-0.0235432
-0.0182001
-0.0192149
0.00507742
0.0179997
0.00453018
-0.00885169
-0.0199831
-0.00652587
0.00323684
0.00278865
-0.0160166
0.00314618
0.00120791
-0.00323616
0.0114377
-0.00229079
-0.00675824
0.00816464
-0.0107243
0.0129131
0.000879464
0.0117856
0.00376793
0.0094987
0.00684041
0.00990186
0.00408093
0.0122225
0.00224288
0.0149793
0.00254713
0.0172651
0.000861057
0.0198469
-0.00161755
0.023522
-0.0038217
0.0263265
-0.00545459
0.0299675
-0.00600843
0.0339195
-0.00540618
0.0365367
-0.00284532
0.0386134
-0.000793602
0.0397763
0.0024417
0.0395203
0.00464302
0.038068
0.00713667
0.0360242
0.00899947
0.0341885
0.00880105
0.0324685
0.00844464
0.0310264
0.00656581
0.0310934
0.00356385
0.0319519
-0.000655585
0.0325453
-0.00362329
0.0346915
-0.00675709
0.0377381
-0.00910934
0.0416052
-0.0106279
0.0453223
-0.00779797
0.0495491
-0.00740052
0.0535541
-0.00449685
0.0561346
-0.00102624
0.0594642
-0.000652462
0.00115256
0.00231198
-0.00429544
0.00516917
0.000379657
-0.00724658
-0.00360085
-0.0090353
0.00299662
0.00244795
-4.55014e-05
-0.000996727
-0.00331357
-0.00687745
-0.00484355
-0.00489612
-0.00110186
-0.00185754
0.000729342
0.00472754
0.000255326
0.00802322
0.000785247
0.0103584
-9.23536e-05
0.013068
-0.000162428
0.015472
-0.00154288
0.0174757
-0.00362127
0.019407
-0.00575307
0.0202239
-0.00627152
0.0209254
-0.00670987
0.0223151
-0.00679587
0.0233492
-0.00387943
0.0245492
-0.00199366
0.026393
0.000597976
0.0281126
0.00292336
0.0304573
0.00479199
0.0330716
0.0063852
0.0357267
0.0061459
0.0377356
0.00643578
0.0401739
0.00412749
0.0422824
0.00145532
0.0428384
-0.00121157
0.0420525
-0.00283737
0.0413811
-0.00608571
0.0398745
-0.00760281
0.0372141
-0.00796745
0.0372379
-0.00782173
0.0370297
-0.00719236
0.0371627
-0.00462985
0.0391401
-0.00300365
0.0407422
-0.00225451
-0.000765104
0.103154
-0.0138147
0.0931698
0.0323098
0.0980967
-0.00515363
0.0408353
0.146406
0.095769
-0.00958368
0.109165
0.0189134
0.104006
5.57409e-06
0.0195942
0.125247
0.0947337
-0.00431737
0.105626
0.00802153
0.102703
0.00292832
0.00976709
0.11253
0.0956826
0.103704
0.106632
0.1164
0.153961
-0.0075552
0.0466952
0.107266
0.126615
-0.00892234
0.0412058
0.132104
0.108868
-0.00526037
0.0162995
0.133774
0.111139
0.127439
0.113461
0.00251357
0.0930819
0.00217943
0.0916172
0.00654215
0.00139718
0.0947502
0.134069
0.000548854
0.136117
0.000130697
0.14066
0.00199965
0.00321852
0.138839
0.134507
-0.000184269
0.134552
8.64893e-05
0.134867
0.00168463
0.00162651
0.136459
0.127254
0.127341
0.129026
0.130652
0.0910116
-0.000556841
0.09122
0.000171238
0.08745
0.000169176
0.0894522
0.000994415
0.0886873
0.000719405
0.0856479
-0.000274225
0.0818931
-0.00108869
0.0819909
-0.00119971
0.0829772
-0.000256973
0.0833313
-9.8746e-05
0.0851648
-0.00104827
0.0875982
-0.00252577
0.0907482
-0.0033124
0.0938104
-0.0046051
0.09509
-0.00490081
0.0947346
-0.00539771
0.093033
-0.00456991
0.0896511
-0.00332793
0.0855967
-0.00274146
0.0827515
-0.00103424
0.0815623
-0.000804508
0.08014
0.00202027
0.0816
0.0014634
0.0833375
0.00305446
0.087628
0.00209467
0.0927051
0.00106883
0.0987295
0.000411427
0.105319
-0.00246255
0.110355
-0.00358061
0.116147
-0.00700276
0.119986
-0.00667631
0.121193
-0.00729283
0.118997
-0.00540726
0.11439
-0.00336018
0.10795
-0.001382
0.099674
0.00108377
0.0939342
0.00110999
0.0890943
0.00183627
0.0860881
0.000751671
-0.000364149
0.136098
0.0021838
0.135502
0.000767499
0.135717
-4.62347e-05
0.136843
-0.000131364
0.138486
-0.000923702
0.137744
0.000468097
0.137007
-0.00035194
0.135858
-5.09578e-05
0.136488
-0.000886855
0.137478
-0.00108917
0.137714
-0.00128385
0.138307
-0.00311881
0.137895
-0.00290033
0.137905
-0.0046156
0.136732
-0.00372724
0.136053
-0.00471838
0.135051
-0.00356841
0.134075
-0.00235173
0.133367
-0.002034
0.131872
0.000461227
0.131184
-0.000116975
0.130988
0.00221712
0.131229
0.00122171
0.132378
0.00190536
0.133408
0.00106529
0.135239
-0.000762388
0.137168
-0.00151774
0.138937
-0.00423158
0.13916
-0.00380395
0.138109
-0.00595138
0.136382
-0.00494913
0.134136
-0.00504661
0.13245
-0.00372122
0.130576
-0.00148658
0.129421
-0.000227157
0.128512
0.00199291
0.127561
0.00206151
0.127468
0.00192895
0.126733
0.00148666
4.53253e-05
0.137316
0.00132624
0.137602
0.000481464
0.137707
-0.000151007
0.137848
-0.000272245
0.137991
-0.00106674
0.138928
-0.000469204
0.13908
-0.000503354
0.139042
-1.38712e-05
0.138521
-0.000365798
0.138254
-0.000822129
0.13808
-0.00110954
0.136877
-0.00191578
0.135576
-0.00159901
0.133526
-0.0025659
0.131879
-0.00208032
0.1297
-0.00253912
0.128125
-0.00199381
0.126974
-0.00120078
0.12582
-0.000879966
0.12611
0.000171217
0.126248
-0.000254827
0.127551
0.000914116
0.128442
0.000330546
0.129661
0.000686415
0.130691
3.59471e-05
0.13049
-0.000561905
0.130109
-0.0011362
0.12815
-0.00227257
0.126663
-0.00231722
0.123955
-0.003244
0.121709
-0.00270303
0.119348
-0.00268577
0.117349
-0.00172207
0.116344
-0.000481761
0.116059
5.87682e-05
0.116918
0.00113364
0.117929
0.00105033
0.119027
0.000830762
0.120102
0.0004117
-0.00035236
0.131978
0.13246
0.132309
0.132036
0.13097
0.130501
0.129997
0.129983
0.129617
0.128795
0.127686
0.12577
0.124171
0.121605
0.119525
0.116986
0.114992
0.113791
0.112911
0.113082
0.112828
0.113742
0.114072
0.114759
0.114795
0.114233
0.113096
0.110824
0.108507
0.105263
0.10256
0.0998739
0.0981518
0.09767
0.0977288
0.0988624
0.0999128
0.100744
0.101155
)
;

boundaryField
{
    inlet
    {
        type            calculated;
        value           nonuniform List<scalar> 10(-0.1 -0.1 -0.1 -0.1 -0.1 -0.1 -0.1 -0.1 -0.1 -0.1);
    }
    outlet
    {
        type            calculated;
        value           nonuniform List<scalar> 10(0.0954171 0.117875 0.129266 0.119607 0.0618619 0.0426599 0.0856871 0.126323 0.1205 0.100803);
    }
    obstacle
    {
        type            calculated;
        value           uniform 0;
    }
    upperWall
    {
        type            calculated;
        value           uniform 0;
    }
    lowerWall
    {
        type            calculated;
        value           uniform 0;
    }
    frontAndBack
    {
        type            empty;
        value           nonuniform List<scalar> 0();
    }
}


// ************************************************************************* //
