/*--------------------------------*- C++ -*----------------------------------*\
  =========                 |
  \\      /  F ield         | OpenFOAM: The Open Source CFD Toolbox
   \\    /   O peration     | Website:  https://openfoam.org
    \\  /    A nd           | Version:  10
     \\/     M anipulation  |
\*---------------------------------------------------------------------------*/
FoamFile
{
    format      ascii;
    class       volVectorField;
    location    "2.35";
    object      U;
}
// * * * * * * * * * * * * * * * * * * * * * * * * * * * * * * * * * * * * * //

dimensions      [0 1 -1 0 0 0 0];

internalField   nonuniform List<vector> 
400
(
(-0.00026196 0.000259737 0)
(-0.00112883 0.000429498 0)
(-0.0022648 0.000440132 0)
(-0.00330072 0.000417375 0)
(-0.0042687 0.000383036 0)
(-0.00513982 0.000339663 0)
(-0.00589164 0.000287791 0)
(-0.00650479 0.000227903 0)
(-0.00696152 0.000160651 0)
(-0.0072462 8.69326e-05 0)
(-0.00734573 8.09583e-06 0)
(-0.00724998 -7.53095e-05 0)
(-0.00695284 -0.000160668 0)
(-0.00645352 -0.000245587 0)
(-0.00575735 -0.000327142 0)
(-0.0048767 -0.000401907 0)
(-0.0038335 -0.000465849 0)
(-0.00266683 -0.000512329 0)
(-0.00135405 -0.000513655 0)
(-0.000324449 -0.000324942 0)
(-0.0004459 0.00113105 0)
(-0.00177575 0.00172491 0)
(-0.00344568 0.00175322 0)
(-0.0049754 0.00165736 0)
(-0.00639855 0.00151396 0)
(-0.00767302 0.00133378 0)
(-0.00876585 0.00112015 0)
(-0.00964937 0.000876086 0)
(-0.010299 0.000604988 0)
(-0.0106937 0.000310805 0)
(-0.0108174 -2.04512e-06 0)
(-0.0106573 -0.000327812 0)
(-0.0102058 -0.000658415 0)
(-0.00946423 -0.000984935 0)
(-0.00844154 -0.00129654 0)
(-0.00715634 -0.0015806 0)
(-0.00564063 -0.0018222 0)
(-0.00394836 -0.0019966 0)
(-0.0020585 -0.00200689 0)
(-0.000524976 -0.00134985 0)
(-0.000490417 0.00233239 0)
(-0.00194474 0.00343831 0)
(-0.003764 0.00348068 0)
(-0.00542819 0.00328546 0)
(-0.0069754 0.0029955 0)
(-0.00836062 0.00263239 0)
(-0.00954885 0.00220372 0)
(-0.0105108 0.00171626 0)
(-0.0112206 0.00117727 0)
(-0.0116564 0.000594856 0)
(-0.0118 -2.18569e-05 0)
(-0.0116362 -0.000661822 0)
(-0.0111568 -0.00131033 0)
(-0.0103612 -0.00195011 0)
(-0.00925695 -0.00256042 0)
(-0.00786174 -0.00311688 0)
(-0.00620835 -0.00359054 0)
(-0.0043547 -0.00393331 0)
(-0.0022767 -0.0039637 0)
(-0.000582883 -0.00274132 0)
(-0.000520244 0.00354767 0)
(-0.00206815 0.00518558 0)
(-0.00400622 0.00524146 0)
(-0.00577733 0.0049448 0)
(-0.00742484 0.0045069 0)
(-0.00890188 0.00395998 0)
(-0.0101724 0.00331573 0)
(-0.0112063 0.00258445 0)
(-0.0119769 0.00177688 0)
(-0.0124608 0.000904751 0)
(-0.0126389 -1.8373e-05 0)
(-0.0124932 -0.000977291 0)
(-0.0120105 -0.00195192 0)
(-0.0111869 -0.00291708 0)
(-0.0100258 -0.00384187 0)
(-0.00854121 -0.00468943 0)
(-0.00676427 -0.00541503 0)
(-0.00475638 -0.0059444 0)
(-0.00249056 -0.00600446 0)
(-0.000637598 -0.00418612 0)
(-0.000559316 0.00484748 0)
(-0.00222822 0.00705718 0)
(-0.00431994 0.00712706 0)
(-0.00622999 0.00672221 0)
(-0.00800784 0.00612749 0)
(-0.00960444 0.00538673 0)
(-0.0109827 0.00451605 0)
(-0.012112 0.00352935 0)
(-0.012965 0.00244058 0)
(-0.0135169 0.00126436 0)
(-0.0137461 1.69004e-05 0)
(-0.0136311 -0.00128168 0)
(-0.0131537 -0.00260771 0)
(-0.0123029 -0.00392905 0)
(-0.0110749 -0.00520459 0)
(-0.00947724 -0.00638342 0)
(-0.00753684 -0.00740177 0)
(-0.0053187 -0.00815295 0)
(-0.00279281 -0.00825825 0)
(-0.000716023 -0.00578536 0)
(-0.000611138 0.00625977 0)
(-0.00243885 0.00909399 0)
(-0.00473116 0.0091783 0)
(-0.00682186 0.0086559 0)
(-0.00876827 0.00789235 0)
(-0.0105188 0.00694451 0)
(-0.0120355 0.00583355 0)
(-0.0132878 0.00457707 0)
(-0.0142481 0.00319185 0)
(-0.0148905 0.00169454 0)
(-0.0151908 0.000103006 0)
(-0.0151234 -0.00156124 0)
(-0.014663 -0.00327148 0)
(-0.0137884 -0.00499018 0)
(-0.0124846 -0.00666668 0)
(-0.0107479 -0.0082345 0)
(-0.00859654 -0.00960636 0)
(-0.00609746 -0.0106337 0)
(-0.00321587 -0.0108105 0)
(-0.000827185 -0.00760442 0)
(-0.000677185 0.00781588 0)
(-0.00270634 0.0113409 0)
(-0.0052517 0.0114391 0)
(-0.00756836 0.0107861 0)
(-0.0097239 0.00983755 0)
(-0.011664 0.00866548 0)
(-0.0133507 0.00729707 0)
(-0.0147543 0.00575389 0)
(-0.0158481 0.00405507 0)
(-0.0166062 0.00221805 0)
(-0.0170023 0.00026027 0)
(-0.0170061 -0.00179808 0)
(-0.0165831 -0.00393061 0)
(-0.0156986 -0.00609743 0)
(-0.0143203 -0.00824028 0)
(-0.0124256 -0.0102763 0)
(-0.0100157 -0.0120893 0)
(-0.00715455 -0.0134749 0)
(-0.00379829 -0.0137673 0)
(-0.000982539 -0.00972711 0)
(-0.000759352 0.0095524 0)
(-0.00303836 0.0138501 0)
(-0.00589555 0.0139595 0)
(-0.00848706 0.0131574 0)
(-0.0108941 0.0120021 0)
(-0.0130597 0.0105836 0)
(-0.0149472 0.00893666 0)
(-0.01653 0.00708744 0)
(-0.017784 0.00505691 0)
(-0.0186854 0.00286162 0)
(-0.019207 0.000515731 0)
(-0.0193143 -0.00196543 0)
(-0.0189624 -0.00456137 0)
(-0.0180982 -0.00723532 0)
(-0.0166647 -0.0099263 0)
(-0.0146082 -0.012537 0)
(-0.0118982 -0.0149161 0)
(-0.0085833 -0.0167854 0)
(-0.00460192 -0.0172678 0)
(-0.00120189 -0.0122691 0)
(-0.000860597 0.0115114 0)
(-0.00344609 0.0166813 0)
(-0.00668228 0.0167948 0)
(-0.00960176 0.0158174 0)
(-0.0123038 0.0144256 0)
(-0.01473 0.0127319 0)
(-0.016847 0.010781 0)
(-0.0186342 0.00860454 0)
(-0.0200741 0.0062248 0)
(-0.0211475 0.00365559 0)
(-0.0218294 0.000904228 0)
(-0.0220832 -0.00202422 0)
(-0.021853 -0.0051228 0)
(-0.0210636 -0.00836714 0)
(-0.0196234 -0.0117034 0)
(-0.0174302 -0.0150272 0)
(-0.0143972 -0.0181505 0)
(-0.0105295 -0.0206969 0)
(-0.00573151 -0.021497 0)
(-0.00152203 -0.0153975 0)
(-0.000985746 0.0137434 0)
(-0.00394637 0.0199041 0)
(-0.00764008 0.0200073 0)
(-0.0109455 0.0188164 0)
(-0.0139865 0.0171474 0)
(-0.0167049 0.0151412 0)
(-0.019075 0.0128554 0)
(-0.0210865 0.0103288 0)
(-0.0227332 0.00758489 0)
(-0.0240062 0.00463263 0)
(-0.0248869 0.00146824 0)
(-0.0253415 -0.00192042 0)
(-0.0253054 -0.00555037 0)
(-0.024679 -0.00942405 0)
(-0.0233267 -0.0135128 0)
(-0.0210748 -0.0177232 0)
(-0.0177403 -0.0218398 0)
(-0.0132263 -0.0253656 0)
(-0.00737357 -0.0267061 0)
(-0.00201596 -0.0193719 0)
(-0.00114304 0.0163116 0)
(-0.00456537 0.0236028 0)
(-0.00881035 0.0236677 0)
(-0.0125648 0.0222075 0)
(-0.015987 0.0202046 0)
(-0.0190228 0.0178362 0)
(-0.0216599 0.0151775 0)
(-0.0239052 0.0122765 0)
(-0.0257706 0.00915822 0)
(-0.0272645 0.00582461 0)
(-0.0283827 0.00225642 0)
(-0.0291021 -0.00158358 0)
(-0.0293569 -0.00574909 0)
(-0.0290264 -0.0102906 0)
(-0.0279251 -0.0152341 0)
(-0.0257835 -0.0205341 0)
(-0.0222662 -0.0259819 0)
(-0.0170554 -0.0309623 0)
(-0.00987971 -0.0332386 0)
(-0.00283895 -0.024626 0)
(-0.00134737 0.0193011 0)
(-0.0053452 0.0278821 0)
(-0.010255 0.0278578 0)
(-0.0145264 0.026045 0)
(-0.0183666 0.0236287 0)
(-0.021733 0.0208318 0)
(-0.0246353 0.0177525 0)
(-0.0271065 0.014451 0)
(-0.0291858 0.0109545 0)
(-0.0309086 0.00725683 0)
(-0.0322956 0.00331939 0)
(-0.0333475 -0.000927992 0)
(-0.0340129 -0.00558803 0)
(-0.0341646 -0.0107873 0)
(-0.0335738 -0.0166507 0)
(-0.0318591 -0.0232473 0)
(-0.0284736 -0.0304587 0)
(-0.022657 -0.0376237 0)
(-0.0139518 -0.041554 0)
(-0.00434129 -0.031942 0)
(-0.00162785 0.0228373 0)
(-0.00635661 0.0328817 0)
(-0.012068 0.0326745 0)
(-0.0169268 0.0303827 0)
(-0.0212099 0.0274406 0)
(-0.0249005 0.0241254 0)
(-0.0280416 0.0205645 0)
(-0.0307039 0.0168336 0)
(-0.0329656 0.012963 0)
(-0.0349004 0.00893808 0)
(-0.0365684 0.00469872 0)
(-0.0380103 0.000137061 0)
(-0.0392173 -0.00490036 0)
(-0.0400904 -0.0106522 0)
(-0.0403909 -0.0173989 0)
(-0.0396451 -0.0254303 0)
(-0.0370683 -0.0348961 0)
(-0.0311178 -0.0453087 0)
(-0.0210463 -0.0521414 0)
(-0.00734852 -0.0429278 0)
(-0.00204343 0.0270138 0)
(-0.00772964 0.0387313 0)
(-0.0143998 0.0382097 0)
(-0.0199081 0.0352633 0)
(-0.0246343 0.0316412 0)
(-0.0286108 0.0276877 0)
(-0.0319282 0.0235674 0)
(-0.0347089 0.0193731 0)
(-0.0370819 0.0151395 0)
(-0.0391734 0.0108459 0)
(-0.0410972 0.00641447 0)
(-0.0429471 0.00170856 0)
(-0.0448029 -0.00348203 0)
(-0.0466648 -0.00953734 0)
(-0.0483607 -0.0169196 0)
(-0.0494381 -0.0262999 0)
(-0.0489654 -0.038408 0)
(-0.0441811 -0.0534511 0)
(-0.0341868 -0.065213 0)
(-0.0139161 -0.0608076 0)
(-0.00263416 0.0327317 0)
(-0.00954857 0.0458371 0)
(-0.0174228 0.0446185 0)
(-0.0236565 0.0406882 0)
(-0.0287964 0.0361806 0)
(-0.0329761 0.0314465 0)
(-0.0363562 0.0266746 0)
(-0.0391303 0.0219756 0)
(-0.0414893 0.017393 0)
(-0.0436196 0.0129025 0)
(-0.045697 0.00841126 0)
(-0.0478943 0.00374024 0)
(-0.0504458 -0.00138912 0)
(-0.0535054 -0.00734647 0)
(-0.0571324 -0.0147889 0)
(-0.0612097 -0.0249156 0)
(-0.0650064 -0.0392853 0)
(-0.0640834 -0.0601827 0)
(-0.0580515 -0.0797522 0)
(-0.0272597 -0.0914235 0)
(-0.00436253 0.0376121 0)
(-0.0132503 0.0543392 0)
(-0.0217254 0.0522064 0)
(-0.0285213 0.0471238 0)
(-0.0338839 0.0413462 0)
(-0.0381097 0.0354618 0)
(-0.0413764 0.029804 0)
(-0.0439485 0.0245026 0)
(-0.0460902 0.0195823 0)
(-0.0480647 0.015002 0)
(-0.050141 0.0106884 0)
(-0.0525963 0.00651571 0)
(-0.0556969 0.00228463 0)
(-0.0598118 -0.00239133 0)
(-0.065579 -0.0084201 0)
(-0.0734844 -0.0175447 0)
(-0.0840232 -0.0325602 0)
(-0.0901081 -0.061688 0)
(-0.0934418 -0.0956799 0)
(-0.0439198 -0.147644 0)
(-0.00359479 0.0530241 0)
(-0.0141596 0.0613871 0)
(-0.0269153 0.0578805 0)
(-0.0346228 0.0507425 0)
(-0.040362 0.0441079 0)
(-0.0442933 0.0377103 0)
(-0.046902 0.0317165 0)
(-0.0487176 0.026189 0)
(-0.0501192 0.0211618 0)
(-0.0514006 0.0166219 0)
(-0.052822 0.0125369 0)
(-0.0546703 0.00879565 0)
(-0.0574078 0.00530186 0)
(-0.0617907 0.00163973 0)
(-0.0690105 -0.00268031 0)
(-0.0800996 -0.0100151 0)
(-0.099417 -0.0233694 0)
(-0.110522 -0.0606781 0)
(-0.123841 -0.120754 0)
(-0.0392795 -0.239273 0)
(-0.0123081 0.0484064 0)
(-0.0315314 0.0848199 0)
(-0.03471 0.0759209 0)
(-0.0429079 0.0660259 0)
(-0.0457865 0.0552985 0)
(-0.0471579 0.0452093 0)
(-0.0472581 0.0364966 0)
(-0.0467487 0.0292299 0)
(-0.0460292 0.0232778 0)
(-0.045412 0.018427 0)
(-0.0452348 0.0146154 0)
(-0.0457295 0.0117287 0)
(-0.0474292 0.0100458 0)
(-0.0504882 0.0097057 0)
(-0.0566914 0.0115084 0)
(-0.0635786 0.0116547 0)
(-0.0806247 0.00779977 0)
(-0.0761822 -0.0448338 0)
(-0.100891 -0.144332 0)
(0.00808004 -0.328936 0)
(-0.0713119 0.113261 0)
(-0.0551936 0.0695726 0)
(-0.0540302 0.0627926 0)
(-0.0372299 0.0517708 0)
(-0.0223972 0.0412898 0)
(-0.00838727 0.0330321 0)
(0.0041037 0.0266183 0)
(0.0147698 0.0214388 0)
(0.0235434 0.0172447 0)
(0.0307597 0.0138303 0)
(0.0363538 0.01139 0)
(0.041301 0.00942844 0)
(0.0447147 0.00894043 0)
(0.0499164 0.00837851 0)
(0.0512255 0.00996873 0)
(0.066389 0.00633659 0)
(0.0546968 -0.00582204 0)
(0.0973856 -0.0652426 0)
(0.0315217 -0.207821 0)
(0.0877833 -0.3692 0)
(0.126081 0.143076 0)
(0.164534 0.0881298 0)
(0.245668 0.0636953 0)
(0.300374 0.0472239 0)
(0.340701 0.0350192 0)
(0.371865 0.0257126 0)
(0.396203 0.0188707 0)
(0.415306 0.0139552 0)
(0.429729 0.0105352 0)
(0.441995 0.00796683 0)
(0.449687 0.00625651 0)
(0.460247 0.00493116 0)
(0.460735 0.00361421 0)
(0.476259 0.00386062 0)
(0.464552 0.000761336 0)
(0.492483 0.00336061 0)
(0.455654 -0.00819427 0)
(0.478894 -0.0172524 0)
(0.349578 -0.0541067 0)
(0.256784 -0.140526 0)
)
;

boundaryField
{
    movingWall
    {
        type            fixedValue;
        value           uniform (1 0 0);
    }
    fixedWalls
    {
        type            noSlip;
    }
    frontAndBack
    {
        type            empty;
    }
}


// ************************************************************************* //
