/*--------------------------------*- C++ -*----------------------------------*\
  =========                 |
  \\      /  F ield         | OpenFOAM: The Open Source CFD Toolbox
   \\    /   O peration     | Website:  https://openfoam.org
    \\  /    A nd           | Version:  10
     \\/     M anipulation  |
\*---------------------------------------------------------------------------*/
FoamFile
{
    format      ascii;
    class       surfaceScalarField;
    location    "3.325";
    object      phi;
}
// * * * * * * * * * * * * * * * * * * * * * * * * * * * * * * * * * * * * * //

dimensions      [0 3 -1 0 0 0 0];

internalField   nonuniform List<scalar> 
760
(
-1.0651e-05
1.0651e-05
-3.09653e-05
2.03143e-05
-5.27923e-05
2.1827e-05
-7.38972e-05
2.1105e-05
-9.35785e-05
1.96812e-05
-0.00011138
1.78016e-05
-0.000126865
1.54853e-05
-0.00013959
1.2725e-05
-0.000149108
9.51757e-06
-0.000154979
5.871e-06
-0.000156787
1.80861e-06
-0.000154161
-2.6264e-06
-0.000146821
-7.33978e-06
-0.000134625
-1.21959e-05
-0.000117618
-1.70079e-05
-9.60869e-05
-2.15306e-05
-7.06637e-05
-2.54232e-05
-4.26304e-05
-2.80332e-05
-1.5407e-05
-2.72234e-05
-1.5407e-05
-2.09798e-05
3.16308e-05
-5.52464e-05
5.45808e-05
-9.1338e-05
5.79186e-05
-0.000126014
5.57805e-05
-0.000158099
5.17664e-05
-0.000186801
4.65034e-05
-0.0002114
4.00849e-05
-0.000231212
3.25366e-05
-0.000245582
2.3888e-05
-0.000253897
1.41855e-05
-0.000255607
3.51876e-06
-0.000250263
-7.96988e-06
-0.00023752
-2.00835e-05
-0.000217265
-3.24504e-05
-0.000189657
-4.46165e-05
-0.000155204
-5.59832e-05
-0.000114903
-6.57237e-05
-7.06899e-05
-7.22468e-05
-2.73624e-05
-7.05509e-05
-4.27695e-05
-2.40091e-05
5.564e-05
-6.26277e-05
9.31994e-05
-0.000103109
9.84001e-05
-0.000141914
9.45854e-05
-0.000177775
8.76276e-05
-0.000209833
7.85608e-05
-0.000237308
6.75602e-05
-0.000259463
5.46914e-05
-0.000275595
4.00205e-05
-0.000285051
2.36412e-05
-0.000287243
5.71032e-06
-0.000281561
-1.36513e-05
-0.000267651
-3.39937e-05
-0.000245324
-5.47777e-05
-0.000214665
-7.52756e-05
-0.000176153
-9.4495e-05
-0.000130826
-0.000111051
-8.08073e-05
-0.000122265
-3.14918e-05
-0.000119866
-7.42612e-05
-2.55124e-05
8.11523e-05
-6.66539e-05
0.000134341
-0.000109746
0.000141492
-0.000151073
0.000135912
-0.000189336
0.000125891
-0.000223663
0.000112888
-0.000253264
9.71608e-05
-0.00027738
7.88079e-05
-0.00029528
5.79199e-05
-0.000306253
3.46141e-05
-0.000309634
9.09154e-06
-0.000304731
-1.85539e-05
-0.000290965
-4.77596e-05
-0.000267961
-7.77818e-05
-0.000235624
-0.000107613
-0.000194279
-0.00013584
-0.000144906
-0.000160424
-8.98029e-05
-0.000177368
-3.50487e-05
-0.000174621
-0.00010931
-2.71737e-05
0.000108326
-7.11661e-05
0.000178333
-0.000117262
0.000187588
-0.000161529
0.00018018
-0.000202641
0.000167002
-0.00023972
0.000149967
-0.000271974
0.000129416
-0.000298638
0.000105472
-0.00031895
7.82314e-05
-0.000332137
4.78015e-05
-0.000337414
1.43684e-05
-0.000333949
-2.2019e-05
-0.000320904
-6.08043e-05
-0.000297592
-0.000101094
-0.000263567
-0.000141639
-0.000218846
-0.00018056
-0.000164258
-0.000215013
-0.000102305
-0.000239321
-4.0065e-05
-0.00023686
-0.000149375
-2.93243e-05
0.00013765
-7.69587e-05
0.000225968
-0.000126887
0.000237516
-0.000174902
0.000228194
-0.000219637
0.000211737
-0.000260221
0.000190552
-0.000295876
0.000165071
-0.000325842
0.000135438
-0.000349341
0.00010173
-0.000365543
6.40036e-05
-0.000373541
2.23664e-05
-0.000372317
-2.32434e-05
-0.000360673
-7.24485e-05
-0.000337483
-0.000124283
-0.000301756
-0.000177366
-0.000252955
-0.000229361
-0.000191545
-0.000276423
-0.000120187
-0.000310678
-4.73806e-05
-0.000309667
-0.000196756
-3.20375e-05
0.000169688
-8.42211e-05
0.000278151
-0.000138906
0.000292202
-0.000191538
0.000280826
-0.000240714
0.000260912
-0.000285586
0.000235423
-0.000325413
0.000204898
-0.000359473
0.000169499
-0.000387005
0.000129262
-0.000407146
8.41448e-05
-0.000418877
3.4097e-05
-0.000420993
-2.11269e-05
-0.000411835
-8.16073e-05
-0.000389677
-0.000146441
-0.000352704
-0.000214338
-0.000299425
-0.00028264
-0.000229517
-0.000346331
-0.000145578
-0.000394617
-5.80478e-05
-0.000397198
-0.000254803
-3.53623e-05
0.00020505
-9.30817e-05
0.000335871
-0.000153496
0.000352616
-0.000211631
0.000338961
-0.000266053
0.000315334
-0.000315966
0.000285336
-0.000360711
0.000249643
-0.000399653
0.000208441
-0.000432106
0.000161714
-0.000457232
0.000109271
-0.000473946
5.08106e-05
-0.00048091
-1.41625e-05
-0.000475911
-8.66068e-05
-0.000456471
-0.000165881
-0.000419581
-0.000251228
-0.000362178
-0.000340043
-0.000282324
-0.000426186
-0.000181933
-0.000495008
-7.39681e-05
-0.000505162
-0.000328771
-3.93767e-05
0.000244427
-0.000103723
0.000400217
-0.000170894
0.000419788
-0.000235418
0.000403485
-0.00029585
0.000375766
-0.000351489
0.000340975
-0.000401818
0.000299971
-0.000446369
0.000252992
-0.00048462
0.000199965
-0.000515863
0.000140515
-0.000539027
7.39744e-05
-0.000552843
-3.46634e-07
-0.000554446
-8.50039e-05
-0.00054056
-0.000179766
-0.000506543
-0.000285246
-0.000446874
-0.000399712
-0.00035655
-0.000516511
-0.000235263
-0.000616295
-9.8901e-05
-0.000641524
-0.000427673
-4.42173e-05
0.000288644
-0.000116437
0.000472436
-0.000191462
0.000494813
-0.000263246
0.000475269
-0.000330369
0.000442889
-0.00039229
0.000402897
-0.000448717
0.000356398
-0.000499452
0.000303727
-0.000544271
0.000244785
-0.000582772
0.000179015
-0.000614164
0.000105366
-0.000636939
2.24282e-05
-0.000648689
-7.32538e-05
-0.000644835
-0.00018362
-0.000618832
-0.000311249
-0.00056161
-0.000456933
-0.000462814
-0.000615307
-0.000316591
-0.000762518
-0.000140862
-0.000817252
-0.000568535
-5.01259e-05
0.00033877
-0.0001317
0.000554011
-0.000215763
0.000578876
-0.000295632
0.000555138
-0.000369988
0.000517245
-0.000438541
0.000471451
-0.000501327
0.000419184
-0.000558542
0.000360942
-0.000610418
0.000296662
-0.00065707
0.000225667
-0.000698247
0.000146543
-0.000732865
5.70465e-05
-0.000759112
-4.70072e-05
-0.000771793
-0.000170938
-0.000762533
-0.000320509
-0.000717689
-0.000501777
-0.000618338
-0.000714658
-0.000447317
-0.000933539
-0.0002183
-0.00104627
-0.000786835
-5.75394e-05
0.000396309
-0.000150303
0.000646774
-0.000244677
0.00067325
-0.000333359
0.000643819
-0.00041527
0.000599156
-0.000490496
0.000546677
-0.000559522
0.000488209
-0.000623068
0.000424488
-0.000681995
0.000355588
-0.000737184
0.000280856
-0.00078934
0.000198699
-0.000838522
0.000106228
-0.000884206
-1.32289e-06
-0.000922179
-0.000132965
-0.00094348
-0.000299208
-0.000930011
-0.000515246
-0.000851038
-0.000793631
-0.000669608
-0.00111497
-0.000376785
-0.00133909
-0.00116362
-6.72934e-05
0.000463603
-0.000173574
0.000753055
-0.00027957
0.000779246
-0.000377596
0.000741845
-0.000467052
0.000688612
-0.000548565
0.00062819
-0.000623194
0.000562838
-0.000692299
0.000493593
-0.000757498
0.000420787
-0.00082067
0.000344028
-0.00088393
0.000261959
-0.000949381
0.000171679
-0.00101897
6.82664e-05
-0.00109275
-5.9184e-05
-0.00116414
-0.000227818
-0.00121508
-0.000464303
-0.00120263
-0.000806091
-0.00105587
-0.00126172
-0.000698582
-0.00169638
-0.0018622
-8.10551e-05
0.000544658
-0.000203986
0.000875986
-0.000322621
0.000897881
-0.000430031
0.000849255
-0.00052653
0.000785111
-0.000613408
0.000715069
-0.000692374
0.000641804
-0.00076549
0.000566709
-0.00083518
0.000490477
-0.000904448
0.000413296
-0.000977245
0.000334756
-0.00105869
0.000253128
-0.00115442
0.000163994
-0.00127097
5.73604e-05
-0.00141505
-8.37357e-05
-0.00157907
-0.000300278
-0.00171459
-0.000670575
-0.00168628
-0.00129003
-0.00126368
-0.00211899
-0.00312588
-9.89585e-05
0.000643616
-0.000242797
0.00101982
-0.000376124
0.00103121
-0.000493417
0.000966547
-0.000595917
0.000887612
-0.000686264
0.000805415
-0.00076734
0.000722881
-0.000841904
0.000641273
-0.000912899
0.000561473
-0.00098391
0.000484306
-0.00106008
0.000410926
-0.00114947
0.000342515
-0.00126546
0.000279989
-0.00142795
0.000219848
-0.00165997
0.000148281
-0.00197972
1.94796e-05
-0.00234772
-0.000302577
-0.00247217
-0.00116557
-0.00187843
-0.00271273
-0.00500431
-0.000156173
0.000799789
-0.0003144
0.00117805
-0.000450132
0.00116694
-0.000567192
0.00108361
-0.000671112
0.000991531
-0.000763352
0.000897655
-0.000845501
0.00080503
-0.000919449
0.000715221
-0.000988159
0.000630183
-0.00105555
0.000551698
-0.00112819
0.000483563
-0.00121564
0.000429965
-0.00133561
0.000399962
-0.00151703
0.000401264
-0.00180408
0.000435336
-0.00221385
0.000429245
-0.00270665
0.000190229
-0.00285791
-0.00101432
-0.00198884
-0.0035818
-0.00699315
-0.000118826
0.000918615
-0.000346487
0.00140571
-0.00052795
0.0013484
-0.000670308
0.00122597
-0.000780562
0.00110178
-0.000866093
0.000983186
-0.000934056
0.000872993
-0.000989824
0.00077099
-0.00103784
0.0006782
-0.00108048
0.000594338
-0.00112246
0.000525544
-0.00116966
0.000477166
-0.00123718
0.00046748
-0.00134994
0.000514021
-0.00155928
0.000644675
-0.00186277
0.000732736
-0.00228426
0.000611725
-0.00235412
-0.000944468
-0.00145172
-0.00448419
-0.00844487
-0.000399788
0.0013184
-0.000540548
0.00154647
-0.000662983
0.00147084
-0.000770533
0.00133352
-0.000833933
0.00116519
-0.000864961
0.00101421
-0.000874616
0.000882647
-0.000869203
0.000765578
-0.000856009
0.000665006
-0.000835641
0.000573969
-0.000814805
0.000504708
-0.00078972
0.000452082
-0.000765348
0.000443108
-0.000727726
0.000476399
-0.000678941
0.00059589
-0.000599621
0.000653416
-0.000443135
0.000455239
-0.000448078
-0.000939526
-0.000135892
-0.00479638
-0.00858077
-0.00128941
0.00260781
-0.00121531
0.00147238
-0.000971935
0.00122746
-0.000636975
0.000998555
-0.000290104
0.000818314
4.34039e-05
0.000680706
0.000349842
0.000576209
0.000627488
0.000487933
0.000874529
0.000417964
0.00109391
0.000354588
0.00129503
0.000303588
0.00147716
0.000269953
0.00168268
0.000237589
0.0019135
0.000245577
0.00228333
0.000226064
0.00275319
0.000183549
0.00327602
-6.75879e-05
0.0033645
-0.00102801
0.00215822
-0.0035901
-0.00642254
0.00260781
0.00408019
0.00530765
0.0063062
0.00712452
0.00780522
0.00838143
0.00886937
0.00928733
0.00964192
0.00994551
0.0102155
0.010453
0.0106986
0.0109247
0.0111082
0.0110406
0.0100126
0.00642254
)
;

boundaryField
{
    movingWall
    {
        type            calculated;
        value           uniform 0;
    }
    fixedWalls
    {
        type            calculated;
        value           uniform 0;
    }
    frontAndBack
    {
        type            empty;
        value           nonuniform List<scalar> 0();
    }
}


// ************************************************************************* //
