/*--------------------------------*- C++ -*----------------------------------*\
  =========                 |
  \\      /  F ield         | OpenFOAM: The Open Source CFD Toolbox
   \\    /   O peration     | Website:  https://openfoam.org
    \\  /    A nd           | Version:  10
     \\/     M anipulation  |
\*---------------------------------------------------------------------------*/
FoamFile
{
    format      ascii;
    class       surfaceScalarField;
    location    "8.65";
    object      phi;
}
// * * * * * * * * * * * * * * * * * * * * * * * * * * * * * * * * * * * * * //

dimensions      [0 3 -1 0 0 0 0];

internalField   nonuniform List<scalar> 
760
(
-1.29736e-05
1.29736e-05
-4.18231e-05
2.88495e-05
-7.65622e-05
3.47391e-05
-0.000113257
3.66946e-05
-0.000150699
3.74421e-05
-0.000188565
3.78658e-05
-0.000226526
3.79618e-05
-0.000263906
3.73792e-05
-0.000299505
3.5599e-05
-0.000331468
3.19633e-05
-0.000357179
2.57108e-05
-0.000373232
1.6053e-05
-0.00037559
2.35813e-06
-0.000359951
-1.56387e-05
-0.000322974
-3.69773e-05
-0.000263844
-5.913e-05
-0.000186597
-7.72468e-05
-0.000102268
-8.4329e-05
-2.98096e-05
-7.24586e-05
-2.98096e-05
-3.11536e-05
4.41272e-05
-8.78609e-05
8.55568e-05
-0.000154171
0.000101049
-0.000223562
0.000106086
-0.000293548
0.000107429
-0.000362981
0.000107298
-0.000430784
0.000105765
-0.000495428
0.000102023
-0.000554665
9.48359e-05
-0.000605341
8.2639e-05
-0.000643282
6.3652e-05
-0.000663209
3.59799e-05
-0.000659695
-1.15535e-06
-0.000626295
-4.90388e-05
-0.000558669
-0.000104603
-0.000456154
-0.000161646
-0.000325207
-0.000208194
-0.000183096
-0.00022644
-5.92026e-05
-0.000196352
-8.90122e-05
-3.95343e-05
8.36615e-05
-0.000109378
0.000155401
-0.000190176
0.000181847
-0.000274117
0.000190027
-0.000358251
0.000191562
-0.00044119
0.000190237
-0.000521678
0.000186253
-0.000598023
0.000178368
-0.000667799
0.000164613
-0.000727619
0.000142458
-0.000772926
0.00010896
-0.00079808
6.11338e-05
-0.000795986
-3.24917e-06
-0.000758929
-8.60964e-05
-0.000680394
-0.000183138
-0.000557784
-0.000284255
-0.000397464
-0.000368514
-0.000221113
-0.000402791
-6.87621e-05
-0.000348703
-0.000157774
-4.27611e-05
0.000126423
-0.000118323
0.000230963
-0.000205475
0.000268999
-0.000295861
0.000280413
-0.000386525
0.000282226
-0.000476245
0.000279957
-0.000564009
0.000274016
-0.00064843
0.000262789
-0.00072742
0.000243603
-0.000797864
0.000212902
-0.000855234
0.00016633
-0.000893199
9.90986e-05
-0.000903707
7.25971e-06
-0.000875853
-0.00011395
-0.000798563
-0.000260428
-0.00066381
-0.000419007
-0.000474366
-0.000557959
-0.000257163
-0.000619994
-7.21065e-05
-0.000533759
-0.000229881
-4.357e-05
0.000169993
-0.000121414
0.000308807
-0.000211419
0.000359004
-0.000305036
0.00037403
-0.000399522
0.000376712
-0.000494064
0.000374499
-0.000588199
0.000368152
-0.000681212
0.000355802
-0.000771761
0.000334152
-0.000857441
0.000298582
-0.000934157
0.000243046
-0.000995268
0.00016021
-0.00103061
4.25995e-05
-0.00102627
-0.000118293
-0.000963212
-0.000323482
-0.00082282
-0.000559399
-0.000597149
-0.000783631
-0.000314651
-0.000902491
-7.53736e-05
-0.000773037
-0.000305254
-4.33336e-05
0.000213326
-0.000121963
0.000387437
-0.000213379
0.00045042
-0.000308965
0.000469616
-0.000406292
0.000474039
-0.000505124
0.000473331
-0.000605786
0.000468814
-0.000708572
0.000458587
-0.000813357
0.000438937
-0.000919073
0.000404297
-0.00102285
0.000346824
-0.00111869
0.000256053
-0.00119546
0.000119365
-0.00123603
-7.77179e-05
-0.00121153
-0.000347983
-0.00108413
-0.000686803
-0.000817755
-0.00105001
-0.00042783
-0.00129242
-8.81129e-05
-0.00111275
-0.000393367
-4.25709e-05
0.000255897
-0.000121246
0.000466112
-0.000213308
0.000542483
-0.000310087
0.000566395
-0.000409497
0.000573448
-0.000511974
0.000575808
-0.00061884
0.00057568
-0.000731746
0.000571493
-0.000852362
0.000559553
-0.00098188
0.000533815
-0.0011201
0.000485044
-0.00126387
0.000399823
-0.00140433
0.000259826
-0.00152527
4.32177e-05
-0.0015873
-0.000285952
-0.00151962
-0.00075448
-0.00122211
-0.00134751
-0.000668696
-0.00184583
-0.00014352
-0.00163793
-0.000536887
-4.14234e-05
0.000297321
-0.000119617
0.000544305
-0.000211645
0.000634511
-0.0003087
0.000663449
-0.000409006
0.000673754
-0.000513697
0.0006805
-0.000625207
0.00068719
-0.000746859
0.000693145
-0.000882762
0.000695456
-0.00103759
0.000688639
-0.00121603
0.000663483
-0.00142164
0.00060544
-0.00165473
0.000492911
-0.00190384
0.00029233
-0.00213167
-5.8121e-05
-0.00219806
-0.000688095
-0.0018925
-0.00165307
-0.00114112
-0.00259721
-0.000327532
-0.00245152
-0.000864419
-3.99667e-05
0.000337287
-0.000117227
0.000621565
-0.000208448
0.000725732
-0.000304519
0.000759521
-0.00040387
0.000773106
-0.000508262
0.000784891
-0.000621207
0.000800135
-0.000747763
0.000819701
-0.00089484
0.000842533
-0.00107172
0.000865522
-0.00129066
0.000882417
-0.0015674
0.000882181
-0.00192033
0.000845844
-0.00235442
0.000726418
-0.00280036
0.000387821
-0.00304768
-0.000440773
-0.00276178
-0.00193897
-0.00189311
-0.00346588
-0.000763673
-0.00358096
-0.00162809
-3.8393e-05
0.00037568
-0.000114446
0.000697618
-0.000204039
0.000815325
-0.000297544
0.000853026
-0.000393415
0.000868976
-0.000493849
0.000885325
-0.000603189
0.000909476
-0.00072794
0.000944452
-0.00087758
0.000992173
-0.00106608
0.00105402
-0.00131438
0.00113072
-0.00165317
0.00122097
-0.00211897
0.00131164
-0.00272208
0.00132953
-0.00334641
0.00101215
-0.00369203
-9.51585e-05
-0.00350005
-0.00213096
-0.00274733
-0.0042186
-0.00143133
-0.00489695
-0.00305943
-3.71323e-05
0.000412812
-0.000112128
0.000772614
-0.00019941
0.000902607
-0.000288608
0.000942224
-0.000377972
0.000958341
-0.000469835
0.000977188
-0.000568848
0.00100849
-0.000682103
0.00105771
-0.000820361
0.00113043
-0.00100033
0.00123399
-0.0012483
0.00137868
-0.00160248
0.00157515
-0.00209998
0.00180913
-0.00272533
0.00195488
-0.00333128
0.00161811
-0.00366104
0.000234605
-0.00360161
-0.00219039
-0.0031147
-0.0047055
-0.00190468
-0.00610697
-0.00496411
-3.70695e-05
0.000449882
-0.000111993
0.000847538
-0.000196622
0.000987236
-0.000279737
0.00102534
-0.000359362
0.00103797
-0.000437634
0.00105546
-0.000518744
0.0010896
-0.000608923
0.00114789
-0.000717537
0.00123905
-0.000858873
0.00137533
-0.00105424
0.00157405
-0.0013305
0.00185142
-0.00170407
0.0021827
-0.00213622
0.00238703
-0.00252477
0.00200665
-0.00275139
0.000461234
-0.00281871
-0.00212307
-0.00264795
-0.00487627
-0.00180543
-0.00694948
-0.00676954
-3.93208e-05
0.000489203
-0.000116267
0.000924484
-0.00019872
0.00106969
-0.000274607
0.00110122
-0.000341628
0.00110499
-0.000401524
0.00111535
-0.000457476
0.00114555
-0.000513305
0.00120372
-0.000574134
0.00129987
-0.00064672
0.00144792
-0.000739185
0.00166651
-0.000856307
0.00196854
-0.000995679
0.00232208
-0.00112744
0.00251878
-0.00124455
0.00212377
-0.00134573
0.000562412
-0.0015131
-0.0019557
-0.0016946
-0.00469476
-0.00134873
-0.00729535
-0.00811828
-4.77751e-05
0.000536978
-0.000131178
0.00100789
-0.000211428
0.00114994
-0.000277499
0.0011673
-0.000328907
0.0011564
-0.000367343
0.00115379
-0.000394022
0.00117223
-0.000409883
0.00121958
-0.000415019
0.00130501
-0.000407617
0.00144051
-0.000382441
0.00164134
-0.000325336
0.00191144
-0.000224273
0.00222101
-8.76506e-05
0.00238216
1.96214e-05
0.00201649
-1.74371e-05
0.00059947
-0.000293692
-0.00167945
-0.000818735
-0.00416972
-0.000909361
-0.00720473
-0.00902764
-5.88944e-05
0.000595872
-0.000152805
0.0011018
-0.000235901
0.00123304
-0.000297482
0.00122888
-0.000334756
0.00119367
-0.000350301
0.00116934
-0.000345491
0.00116742
-0.000319519
0.00119361
-0.000268778
0.00125427
-0.000185321
0.00135706
-5.45881e-05
0.00151061
0.000141605
0.00171524
0.000421021
0.0019416
0.000760583
0.0020426
0.00103358
0.0017435
0.00102255
0.000610502
0.000612091
-0.00126899
-0.000166544
-0.00339108
-0.000561658
-0.00680961
-0.0095893
-0.000126612
0.000722484
-0.000234856
0.00121004
-0.000301963
0.00130014
-0.000336103
0.00126302
-0.000346677
0.00120424
-0.000336865
0.00115952
-0.000304731
0.00113529
-0.000245371
0.00113425
-0.000151563
0.00116046
-1.20276e-05
0.00121752
0.000186556
0.00131202
0.000463785
0.00143801
0.000831476
0.00157391
0.00125627
0.00161781
0.00160275
0.00139702
0.00162081
0.000592436
0.00116447
-0.000812644
0.00027845
-0.00250507
-0.000280154
-0.00625101
-0.00986945
-8.16828e-05
0.000804167
-0.000255715
0.00138407
-0.000362332
0.00140676
-0.000408856
0.00130954
-0.000412336
0.00120772
-0.000383115
0.0011303
-0.00032353
0.0010757
-0.000230564
0.00104128
-9.81685e-05
0.00102807
8.5041e-05
0.00103431
0.00033021
0.00106685
0.000651356
0.00111687
0.00104887
0.00117639
0.00148916
0.00117753
0.00184997
0.00103621
0.00188637
0.000556031
0.00145254
-0.000378811
0.000640799
-0.00169333
9.24272e-05
-0.00570264
-0.00977702
-0.000377742
0.00118191
-0.000431564
0.0014379
-0.000474466
0.00144966
-0.000505273
0.00134035
-0.000488385
0.00119084
-0.000429934
0.00107185
-0.000333256
0.000979022
-0.000196264
0.000904288
-1.92164e-05
0.000851018
0.000204264
0.000810831
0.000478527
0.00079259
0.000811873
0.000783522
0.00119584
0.000792417
0.0015923
0.000781068
0.00193461
0.000693904
0.00204385
0.000446791
0.00190342
-0.000238387
0.00151604
-0.00130594
0.000850916
-0.00503751
-0.00892611
-0.00136287
0.00254478
-0.00132441
0.00139943
-0.00106256
0.00118781
-0.000688214
0.000966
-0.000293754
0.000796377
0.000104799
0.000673298
0.000496658
0.000587163
0.000881381
0.000519565
0.00126092
0.000471475
0.00164109
0.000430666
0.00202888
0.0004048
0.0024294
0.000382999
0.00285606
0.000365755
0.00329603
0.000341098
0.00372595
0.000263989
0.00404232
0.000130417
0.00412456
-0.000320623
0.00396674
-0.00114812
0.00251506
-0.00358583
-0.00641105
0.00254478
0.00394421
0.00513203
0.00609803
0.0068944
0.0075677
0.00815487
0.00867443
0.0091459
0.00957657
0.00998137
0.0103644
0.0107301
0.0110712
0.0113352
0.0114656
0.011145
0.00999688
0.00641105
)
;

boundaryField
{
    movingWall
    {
        type            calculated;
        value           uniform 0;
    }
    fixedWalls
    {
        type            calculated;
        value           uniform 0;
    }
    frontAndBack
    {
        type            empty;
        value           nonuniform List<scalar> 0();
    }
}


// ************************************************************************* //
