/*--------------------------------*- C++ -*----------------------------------*\
  =========                 |
  \\      /  F ield         | OpenFOAM: The Open Source CFD Toolbox
   \\    /   O peration     | Website:  https://openfoam.org
    \\  /    A nd           | Version:  10
     \\/     M anipulation  |
\*---------------------------------------------------------------------------*/
FoamFile
{
    format      ascii;
    class       volScalarField;
    location    "6.4";
    object      p;
}
// * * * * * * * * * * * * * * * * * * * * * * * * * * * * * * * * * * * * * //

dimensions      [0 2 -2 0 0 0 0];

internalField   nonuniform List<scalar> 
400
(
2.9708e-07
-1.97732e-05
2.74061e-05
0.000118375
0.000259589
0.000452703
0.000699973
0.00100389
0.00136615
0.00178687
0.0022634
0.00278902
0.00335145
0.00393144
0.0045017
0.00502764
0.00546933
0.00578686
0.00597096
0.00595142
2.22501e-05
1.36672e-06
5.3104e-05
0.000144349
0.000283096
0.000471772
0.000713137
0.00101004
0.00136455
0.00177721
0.00224598
0.00276483
0.00332188
0.00389963
0.00447098
0.00500115
0.00544892
0.00577315
0.00596648
0.00594177
-3.1076e-05
-5.89958e-05
-8.99352e-06
7.86637e-05
0.000212787
0.000396089
0.000631909
0.000923967
0.00127549
0.00168843
0.00216239
0.00269317
0.00327173
0.00388025
0.00449085
0.00506537
0.0055561
0.00591246
0.00612458
0.00608197
-0.000140534
-0.000173517
-0.000126482
-4.42052e-05
8.30465e-05
0.00025845
0.000486235
0.000771436
0.00111907
0.00153341
0.00201678
0.00256799
0.00318024
0.00383928
0.00451607
0.00516757
0.00573484
0.0061497
0.00639721
0.0063319
-0.000312091
-0.000349748
-0.000307282
-0.000232504
-0.000114709
4.98725e-05
0.000266594
0.000542171
0.000883964
0.00129941
0.00179488
0.00237373
0.00303354
0.00376452
0.0045378
0.00530471
0.00599148
0.00650196
0.00680876
0.00670664
-0.000544909
-0.000587651
-0.000551467
-0.000486745
-0.000381859
-0.000232425
-3.18671e-05
0.000228419
0.000558554
0.000969901
0.00147419
0.00208101
0.00279324
0.00361706
0.00451981
0.00545048
0.00631638
0.00697947
0.00738512
0.00721851
-0.000836759
-0.000885485
-0.000857494
-0.000806011
-0.000718619
-0.000590467
-0.000413888
-0.000178432
0.000128933
0.000524049
0.0010254
0.00165313
0.00242634
0.00334048
0.00439903
0.00554915
0.00667715
0.00758504
0.00816275
0.00788482
-0.00118491
-0.0012408
-0.0012231
-0.00118859
-0.00112432
-0.00102536
-0.000883436
-0.000686736
-0.000419765
-6.24743e-05
0.00041041
0.00102953
0.00182782
0.00283086
0.0040612
0.00548559
0.00698583
0.00829352
0.00918607
0.00873645
-0.00158584
-0.00165023
-0.00164483
-0.00163118
-0.00159621
-0.00153562
-0.00144142
-0.00130163
-0.0010996
-0.000812535
-0.00040958
0.00015051
0.000920693
0.0019612
0.00331342
0.00501973
0.00700831
0.00897879
0.0104428
0.00984672
-0.00203521
-0.00210937
-0.00211764
-0.00212818
-0.00212841
-0.00211559
-0.00208337
-0.0020214
-0.00191464
-0.00174119
-0.00146928
-0.00105307
-0.000427458
0.000494376
0.00181225
0.00363469
0.00610776
0.00911833
0.0116098
0.0112012
-0.00252811
-0.00261313
-0.00263488
-0.00267123
-0.00271087
-0.00275382
-0.00279704
-0.00283421
-0.00285543
-0.00284561
-0.00278198
-0.00263004
-0.00233556
-0.00181816
-0.000970564
0.000391914
0.00277651
0.00685347
0.010977
0.0122528
-0.00306012
-0.00315636
-0.00318826
-0.00324868
-0.00332838
-0.00343133
-0.00355949
-0.00371314
-0.00389184
-0.00409455
-0.00432029
-0.00457045
-0.00485505
-0.00522217
-0.00580438
-0.00657511
-0.00636784
-0.00234524
0.00403575
0.00943059
-0.00362945
-0.0037367
-0.00377158
-0.00384962
-0.00396362
-0.00412346
-0.00433786
-0.00461552
-0.00496939
-0.00542004
-0.00600294
-0.00678458
-0.0078989
-0.00963776
-0.0126954
-0.017429
-0.0220632
-0.0193168
-0.0111257
-0.000249587
-0.00423405
-0.00434331
-0.00436066
-0.0044404
-0.00457751
-0.00478602
-0.0050786
-0.00547308
-0.00599646
-0.00669301
-0.00764119
-0.00898795
-0.0110335
-0.0143213
-0.0201511
-0.0289493
-0.0393123
-0.0393336
-0.0307863
-0.0149956
-0.00490598
-0.0050281
-0.0050115
-0.00507982
-0.00521173
-0.00543526
-0.00577107
-0.00624516
-0.00689531
-0.00778243
-0.00901384
-0.0107755
-0.0134978
-0.0177911
-0.0253452
-0.036138
-0.049784
-0.0511821
-0.0436017
-0.0255437
-0.00572556
-0.00565304
-0.0055235
-0.00549732
-0.0056025
-0.00584559
-0.00623258
-0.00677914
-0.00752012
-0.00851649
-0.00988195
-0.0117821
-0.0147147
-0.0190849
-0.0267595
-0.036844
-0.0486709
-0.0500861
-0.0439931
-0.0228958
-0.00621833
-0.00665116
-0.00636947
-0.00639087
-0.00639742
-0.00653728
-0.00682688
-0.00729891
-0.00799041
-0.00894956
-0.0102824
-0.0120658
-0.0148009
-0.0187156
-0.0250822
-0.0326421
-0.0407328
-0.0404134
-0.0333319
-0.00425662
-0.00959251
-0.00708244
-0.00647045
-0.00591559
-0.00586983
-0.00608103
-0.00649245
-0.00707045
-0.00783303
-0.00880098
-0.0101132
-0.0116464
-0.0140713
-0.017277
-0.0219942
-0.0267014
-0.0310845
-0.0270932
-0.0142634
0.0313487
-0.0063161
-0.0093199
-0.00828578
-0.00833138
-0.00791487
-0.00771355
-0.00769637
-0.00790612
-0.00837646
-0.00908958
-0.0101535
-0.0115555
-0.0137654
-0.0165949
-0.0211446
-0.0249026
-0.0273487
-0.0147521
0.012992
0.0915049
-0.0314897
-0.00647648
-0.00501263
-0.00429516
-0.00412743
-0.00438353
-0.00494123
-0.00562238
-0.00650476
-0.00749299
-0.00887479
-0.0104744
-0.0127527
-0.0152043
-0.0177094
-0.0168122
-0.00905205
0.0237465
0.0930225
0.226623
)
;

boundaryField
{
    movingWall
    {
        type            zeroGradient;
    }
    fixedWalls
    {
        type            zeroGradient;
    }
    frontAndBack
    {
        type            empty;
    }
}


// ************************************************************************* //
