/*--------------------------------*- C++ -*----------------------------------*\
  =========                 |
  \\      /  F ield         | OpenFOAM: The Open Source CFD Toolbox
   \\    /   O peration     | Website:  https://openfoam.org
    \\  /    A nd           | Version:  10
     \\/     M anipulation  |
\*---------------------------------------------------------------------------*/
FoamFile
{
    format      ascii;
    class       volVectorField;
    location    "6.4";
    object      U;
}
// * * * * * * * * * * * * * * * * * * * * * * * * * * * * * * * * * * * * * //

dimensions      [0 1 -1 0 0 0 0];

internalField   nonuniform List<vector> 
400
(
(-0.000111251 0.000101902 0)
(-0.000907023 0.000343691 0)
(-0.00225839 0.000428086 0)
(-0.00361282 0.000448561 0)
(-0.00498193 0.000452032 0)
(-0.00632617 0.000451856 0)
(-0.00762501 0.000447246 0)
(-0.00885425 0.00043346 0)
(-0.00997841 0.000404729 0)
(-0.0109495 0.00035472 0)
(-0.0117058 0.00027695 0)
(-0.0121731 0.00016575 0)
(-0.0122667 1.69425e-05 0)
(-0.0118984 -0.000171369 0)
(-0.0109914 -0.000391314 0)
(-0.0094984 -0.000624575 0)
(-0.00743689 -0.000834823 0)
(-0.00497104 -0.000959245 0)
(-0.00219599 -0.000888615 0)
(-0.000360186 -0.000402742 0)
(-0.000380111 0.000918644 0)
(-0.00203797 0.00195252 0)
(-0.00456759 0.00230354 0)
(-0.00709135 0.00237149 0)
(-0.00960681 0.00234216 0)
(-0.0120348 0.00227099 0)
(-0.0143257 0.00216036 0)
(-0.0164293 0.00199671 0)
(-0.018283 0.0017618 0)
(-0.0198089 0.00143536 0)
(-0.0209129 0.000996799 0)
(-0.0214871 0.000427633 0)
(-0.0214146 -0.000283258 0)
(-0.0205749 -0.00112642 0)
(-0.0188658 -0.00206648 0)
(-0.0162333 -0.00302772 0)
(-0.0127236 -0.00386995 0)
(-0.00858651 -0.00434932 0)
(-0.00398513 -0.00405357 0)
(-0.00077936 -0.00213571 0)
(-0.000491491 0.00237372 0)
(-0.00252576 0.00453619 0)
(-0.00556623 0.00524763 0)
(-0.00857669 0.00535844 0)
(-0.0115595 0.00524755 0)
(-0.0144231 0.00502918 0)
(-0.017111 0.00471353 0)
(-0.0195676 0.00427924 0)
(-0.0217247 0.00369472 0)
(-0.0234989 0.00292383 0)
(-0.0247902 0.00192965 0)
(-0.025481 0.000680033 0)
(-0.0254325 -0.000841874 0)
(-0.0244976 -0.00262093 0)
(-0.0225463 -0.00458715 0)
(-0.0194907 -0.00658926 0)
(-0.0153549 -0.00834353 0)
(-0.0104147 -0.00934836 0)
(-0.00485162 -0.00876343 0)
(-0.000950543 -0.00485717 0)
(-0.000526253 0.00390498 0)
(-0.00271906 0.00726446 0)
(-0.00599156 0.00834058 0)
(-0.00922044 0.00848366 0)
(-0.0124212 0.00828341 0)
(-0.0155021 0.00791526 0)
(-0.018411 0.00739714 0)
(-0.0210975 0.00669978 0)
(-0.0234978 0.00577752 0)
(-0.0255309 0.00457576 0)
(-0.0270941 0.00303661 0)
(-0.0280594 0.00110814 0)
(-0.0282689 -0.00124122 0)
(-0.0275317 -0.00400949 0)
(-0.0256486 -0.00710623 0)
(-0.0224505 -0.0103105 0)
(-0.0178857 -0.0131784 0)
(-0.0122353 -0.0148862 0)
(-0.00569454 -0.0140477 0)
(-0.00108965 -0.00786171 0)
(-0.000536095 0.00551202 0)
(-0.00281817 0.0101436 0)
(-0.00624077 0.0116044 0)
(-0.00961795 0.0117856 0)
(-0.0129795 0.0115036 0)
(-0.0162386 0.0109994 0)
(-0.0193536 0.0102999 0)
(-0.0222856 0.00936821 0)
(-0.024982 0.00814348 0)
(-0.02737 0.00654876 0)
(-0.029348 0.00449647 0)
(-0.0307761 0.00189962 0)
(-0.0314692 -0.00130978 0)
(-0.0311758 -0.00516492 0)
(-0.0295931 -0.00957916 0)
(-0.0264152 -0.0142757 0)
(-0.0214351 -0.0186233 0)
(-0.0148816 -0.0213703 0)
(-0.00694818 -0.0203643 0)
(-0.0012963 -0.0114189 0)
(-0.000541438 0.00716532 0)
(-0.00290341 0.0131394 0)
(-0.00646967 0.0150094 0)
(-0.00999393 0.0152416 0)
(-0.0135206 0.0148957 0)
(-0.0169706 0.014284 0)
(-0.0203176 0.0134451 0)
(-0.0235401 0.0123356 0)
(-0.0266044 0.0108787 0)
(-0.0294551 0.00897116 0)
(-0.0320009 0.00648538 0)
(-0.0340966 0.00327821 0)
(-0.0355366 -0.000790487 0)
(-0.0359951 -0.00580928 0)
(-0.0350259 -0.0117714 0)
(-0.0321141 -0.0183776 0)
(-0.026778 -0.0247885 0)
(-0.0190551 -0.0291782 0)
(-0.00902814 -0.0282439 0)
(-0.0016599 -0.0158405 0)
(-0.000547339 0.00886312 0)
(-0.00299776 0.0162538 0)
(-0.00672248 0.0185607 0)
(-0.0104071 0.0188588 0)
(-0.014112 0.0184707 0)
(-0.0177683 0.0177881 0)
(-0.0213694 0.0168652 0)
(-0.0249186 0.0156554 0)
(-0.028411 0.0140673 0)
(-0.0318234 0.0119693 0)
(-0.0350943 0.0091852 0)
(-0.0380983 0.00549405 0)
(-0.0406025 0.000647091 0)
(-0.0422375 -0.00556993 0)
(-0.0424106 -0.0133118 0)
(-0.0402893 -0.0223595 0)
(-0.0349474 -0.0317127 0)
(-0.0259213 -0.0388204 0)
(-0.0127971 -0.0385947 0)
(-0.00239221 -0.0217528 0)
(-0.00055421 0.0106125 0)
(-0.00310547 0.0195029 0)
(-0.00700653 0.0222743 0)
(-0.0108615 0.0226501 0)
(-0.0147488 0.0222394 0)
(-0.0186116 0.0215237 0)
(-0.0224677 0.0205796 0)
(-0.0263531 0.0193638 0)
(-0.0303046 0.0177766 0)
(-0.0343501 0.0156619 0)
(-0.0384878 0.0127929 0)
(-0.0426473 0.00885766 0)
(-0.0466283 0.00345877 0)
(-0.0500599 -0.00386241 0)
(-0.052232 -0.0135041 0)
(-0.0519763 -0.0255516 0)
(-0.0477174 -0.0390634 0)
(-0.0378729 -0.0507947 0)
(-0.0204139 -0.0529286 0)
(-0.0040945 -0.0305423 0)
(-0.000562677 0.0124214 0)
(-0.00322949 0.0229033 0)
(-0.00732415 0.0261624 0)
(-0.0113512 0.0266184 0)
(-0.0154099 0.0261959 0)
(-0.0194561 0.0254791 0)
(-0.0235362 0.0245768 0)
(-0.0277262 0.0234599 0)
(-0.0321175 0.0220336 0)
(-0.0368121 0.020131 0)
(-0.0419052 0.0174862 0)
(-0.0474477 0.0136968 0)
(-0.0533786 0.00818437 0)
(-0.0594261 0.000189743 0)
(-0.0649483 -0.0110921 0)
(-0.0686398 -0.0263944 0)
(-0.068123 -0.0454403 0)
(-0.05941 -0.0650731 0)
(-0.0364203 -0.0737891 0)
(-0.00819393 -0.0452954 0)
(-0.000575855 0.0143008 0)
(-0.00337956 0.0264738 0)
(-0.00768689 0.0302321 0)
(-0.011879 0.0307535 0)
(-0.0160803 0.030313 0)
(-0.0202592 0.0296124 0)
(-0.0244921 0.0288045 0)
(-0.0288994 0.0278895 0)
(-0.033637 0.0267985 0)
(-0.0389029 0.025384 0)
(-0.0449339 0.0233787 0)
(-0.0519866 0.0203308 0)
(-0.060277 0.0155172 0)
(-0.0698814 0.00787814 0)
(-0.08071 -0.00397277 0)
(-0.0918792 -0.0216928 0)
(-0.0999873 -0.0473704 0)
(-0.0957205 -0.0804981 0)
(-0.0653997 -0.105646 0)
(-0.0163296 -0.072672 0)
(-0.000601572 0.016272 0)
(-0.00357883 0.0302414 0)
(-0.00812561 0.0344881 0)
(-0.0124681 0.035032 0)
(-0.0167646 0.0345395 0)
(-0.0209949 0.0338458 0)
(-0.0252643 0.0331599 0)
(-0.0297352 0.0325281 0)
(-0.0346268 0.0319352 0)
(-0.0402388 0.0312971 0)
(-0.0469791 0.0304155 0)
(-0.0553923 0.0288986 0)
(-0.0661756 0.0260444 0)
(-0.0801891 0.0207131 0)
(-0.0984359 0.0110925 0)
(-0.121291 -0.00640312 0)
(-0.142725 -0.0395449 0)
(-0.142738 -0.0967262 0)
(-0.101637 -0.155367 0)
(-0.0283842 -0.121952 0)
(-0.000656327 0.0183785 0)
(-0.00387356 0.0342554 0)
(-0.00870276 0.0389469 0)
(-0.0131745 0.0394302 0)
(-0.0175003 0.0388086 0)
(-0.0216708 0.038069 0)
(-0.0258153 0.0374875 0)
(-0.0301277 0.0371717 0)
(-0.0348729 0.0371906 0)
(-0.0404333 0.0375811 0)
(-0.0473723 0.0383168 0)
(-0.0565347 0.0392465 0)
(-0.0691807 0.0400066 0)
(-0.0871866 0.0398386 0)
(-0.113177 0.0365576 0)
(-0.147685 0.0218937 0)
(-0.17859 -0.0238842 0)
(-0.174637 -0.121787 0)
(-0.127154 -0.225976 0)
(-0.0427054 -0.199783 0)
(-0.00077033 0.0206817 0)
(-0.00433929 0.038529 0)
(-0.00952062 0.0435252 0)
(-0.0141015 0.0438018 0)
(-0.0183778 0.0429469 0)
(-0.0223494 0.0420844 0)
(-0.0261675 0.041541 0)
(-0.0300363 0.0414935 0)
(-0.034223 0.0421166 0)
(-0.0391265 0.0436158 0)
(-0.0453738 0.0462416 0)
(-0.0539721 0.0502967 0)
(-0.0665087 0.0560965 0)
(-0.0853443 0.0633654 0)
(-0.113706 0.0684112 0)
(-0.150255 0.0547334 0)
(-0.177954 -0.00970364 0)
(-0.165473 -0.152495 0)
(-0.133075 -0.296632 0)
(-0.0520151 -0.301009 0)
(-0.00102835 0.0234503 0)
(-0.00518761 0.0435539 0)
(-0.0107964 0.0487945 0)
(-0.0153927 0.0487041 0)
(-0.0194848 0.0473499 0)
(-0.0231099 0.0460771 0)
(-0.0264114 0.0453048 0)
(-0.0295568 0.0452869 0)
(-0.0327602 0.0463023 0)
(-0.0363348 0.0487383 0)
(-0.0407782 0.0531679 0)
(-0.0469023 0.0604079 0)
(-0.056007 0.071461 0)
(-0.0695157 0.0857972 0)
(-0.089646 0.0968028 0)
(-0.113003 0.0802851 0)
(-0.131056 0.000172852 0)
(-0.118938 -0.16861 0)
(-0.117471 -0.343747 0)
(-0.0435887 -0.401913 0)
(-0.00139872 0.026841 0)
(-0.00617779 0.0480657 0)
(-0.0124889 0.0527089 0)
(-0.0172684 0.0516957 0)
(-0.0212584 0.0498444 0)
(-0.0244155 0.0483706 0)
(-0.0269565 0.047557 0)
(-0.0290392 0.0475908 0)
(-0.0307774 0.0487763 0)
(-0.0322822 0.0516129 0)
(-0.0337318 0.0569 0)
(-0.0353388 0.0657391 0)
(-0.0376545 0.0794152 0)
(-0.0404086 0.0965653 0)
(-0.0451825 0.109415 0)
(-0.0480282 0.0905406 0)
(-0.0558982 0.00635204 0)
(-0.0487907 -0.163646 0)
(-0.0796365 -0.362157 0)
(-0.0235869 -0.473768 0)
(-0.00346957 0.0299162 0)
(-0.0105565 0.0564293 0)
(-0.0162794 0.0610022 0)
(-0.0202251 0.0594854 0)
(-0.0231703 0.0562093 0)
(-0.0254806 0.0533071 0)
(-0.0272092 0.0512108 0)
(-0.02831 0.0501581 0)
(-0.0286582 0.0504276 0)
(-0.0280546 0.052467 0)
(-0.0262501 0.0570692 0)
(-0.0226738 0.0652321 0)
(-0.0173361 0.078284 0)
(-0.00797881 0.0942462 0)
(0.00231022 0.106682 0)
(0.0194913 0.0891768 0)
(0.0203831 0.0113775 0)
(0.0225831 -0.139384 0)
(-0.0385491 -0.350599 0)
(-0.00436174 -0.509425 0)
(-0.00113272 0.0438304 0)
(-0.00855248 0.0587848 0)
(-0.019269 0.0596413 0)
(-0.0235712 0.0552183 0)
(-0.0272261 0.0520107 0)
(-0.0290431 0.0497526 0)
(-0.0297503 0.0482455 0)
(-0.0293604 0.047387 0)
(-0.0277732 0.0473577 0)
(-0.0246407 0.0484664 0)
(-0.0194957 0.0514351 0)
(-0.0110413 0.0567424 0)
(0.000850039 0.0656631 0)
(0.0198982 0.0765174 0)
(0.0408231 0.0842231 0)
(0.0711809 0.0706516 0)
(0.0762848 0.00835804 0)
(0.0774829 -0.106296 0)
(-0.00129547 -0.320278 0)
(0.0215093 -0.518472 0)
(-0.0124566 0.0326974 0)
(-0.0241771 0.0798886 0)
(-0.0235792 0.0789447 0)
(-0.0296797 0.0738013 0)
(-0.0314928 0.0665031 0)
(-0.0315489 0.0603519 0)
(-0.0297047 0.0552936 0)
(-0.0262638 0.0512883 0)
(-0.0213089 0.0483224 0)
(-0.0145239 0.0462514 0)
(-0.00602965 0.0454861 0)
(0.00585863 0.0461404 0)
(0.0206568 0.0492662 0)
(0.0422847 0.0534879 0)
(0.0632837 0.0576932 0)
(0.0975825 0.0493589 0)
(0.102095 0.0119115 0)
(0.123154 -0.0687301 0)
(0.0527597 -0.285629 0)
(0.0602743 -0.501237 0)
(-0.0773444 0.0965701 0)
(-0.0630775 0.0592689 0)
(-0.0655205 0.0599004 0)
(-0.0440261 0.0532263 0)
(-0.0269264 0.0463204 0)
(-0.00708829 0.0411649 0)
(0.011618 0.0374199 0)
(0.030514 0.03423 0)
(0.047914 0.0318542 0)
(0.0665178 0.0296084 0)
(0.0826098 0.0282931 0)
(0.102874 0.0273059 0)
(0.117704 0.0271699 0)
(0.14617 0.0276041 0)
(0.15734 0.0242864 0)
(0.203757 0.0175705 0)
(0.197266 -0.0166277 0)
(0.235156 -0.078758 0)
(0.162859 -0.260132 0)
(0.126389 -0.440015 0)
(0.119674 0.140782 0)
(0.152397 0.0861871 0)
(0.229181 0.0635904 0)
(0.284593 0.0481278 0)
(0.325829 0.0374512 0)
(0.364197 0.0296514 0)
(0.392714 0.0242019 0)
(0.424001 0.020196 0)
(0.443866 0.0172644 0)
(0.472376 0.0150702 0)
(0.485102 0.0133187 0)
(0.514787 0.012247 0)
(0.519921 0.0111161 0)
(0.554042 0.0106181 0)
(0.549044 0.00896875 0)
(0.585099 0.00499322 0)
(0.556048 -0.00445441 0)
(0.564089 -0.0276992 0)
(0.427595 -0.0727493 0)
(0.276109 -0.152141 0)
)
;

boundaryField
{
    movingWall
    {
        type            fixedValue;
        value           uniform (1 0 0);
    }
    fixedWalls
    {
        type            noSlip;
    }
    frontAndBack
    {
        type            empty;
    }
}


// ************************************************************************* //
