/*--------------------------------*- C++ -*----------------------------------*\
  =========                 |
  \\      /  F ield         | OpenFOAM: The Open Source CFD Toolbox
   \\    /   O peration     | Website:  https://openfoam.org
    \\  /    A nd           | Version:  10
     \\/     M anipulation  |
\*---------------------------------------------------------------------------*/
FoamFile
{
    format      ascii;
    class       volScalarField;
    location    "1.9";
    object      p;
}
// * * * * * * * * * * * * * * * * * * * * * * * * * * * * * * * * * * * * * //

dimensions      [0 2 -2 0 0 0 0];

internalField   nonuniform List<scalar> 
400
(
3.5877e-09
-7.05346e-06
5.84595e-05
0.000171709
0.000334091
0.000542939
0.000794302
0.0010832
0.00140347
0.00174776
0.00210752
0.00247306
0.00283364
0.00317781
0.00349371
0.0037696
0.0039943
0.00415821
0.00425807
0.00426258
5.64694e-06
-2.66601e-06
6.25793e-05
0.000174369
0.000334821
0.000541574
0.000790884
0.00107796
0.0013968
0.00174018
0.00209955
0.0024655
0.00282713
0.0031729
0.0034908
0.00376888
0.00399569
0.00416144
0.00426329
0.00426708
-6.19218e-05
-7.25153e-05
-6.49671e-06
0.000106988
0.000270404
0.000481525
0.000736732
0.00103134
0.00135944
0.00171379
0.00208597
0.00246617
0.00284314
0.00320486
0.00353868
0.00383175
0.00407162
0.00424741
0.00435577
0.00435897
-0.00018359
-0.000196379
-0.00012861
-1.16098e-05
0.000157557
0.000376875
0.000642905
0.000951115
0.00129567
0.00166933
0.00206345
0.0024682
0.00287162
0.00326084
0.00362208
0.00394107
0.00420362
0.004397
0.00451684
0.00452095
-0.000363747
-0.000379166
-0.000308701
-0.000186352
-8.5735e-06
0.000222911
0.000504901
0.000833059
0.00120166
0.00160347
0.00202965
0.0024701
0.00291211
0.00334168
0.00374343
0.00410099
0.00439762
0.00461769
0.0047551
0.00476141
-0.000606325
-0.000625172
-0.000551216
-0.000421903
-0.000232871
1.45531e-05
0.000317496
0.000671895
0.0010722
0.00151121
0.00197987
0.00246802
0.00296191
0.00344626
0.00390364
0.00431489
0.00465961
0.00491791
0.00508083
0.00509102
-0.000916049
-0.000939442
-0.000861451
-0.000723896
-0.000521331
-0.000254539
7.40624e-05
0.000460802
0.000900422
0.00138584
0.00190767
0.00245634
0.0030166
0.00357204
0.00410283
0.0045862
0.00499681
0.00530855
0.00550782
0.00552455
-0.00129892
-0.00132841
-0.00124619
-0.00109958
-0.000881686
-0.000592548
-0.00023397
0.000190911
0.0006773
0.00121862
0.00180653
0.00242728
0.0030694
0.00371439
0.00433971
0.00491815
0.00541791
0.00580394
0.00605498
0.00608282
-0.0017622
-0.00179992
-0.00171379
-0.00155793
-0.00132354
-0.00100966
-0.000617299
-0.000148936
0.000391162
0.000996814
0.00165964
0.00236849
0.00310992
0.00386529
0.00461011
0.00531246
0.00593231
0.00642214
0.00674774
0.00679524
-0.00231443
-0.0023634
-0.00227433
-0.00210986
-0.00185863
-0.00151832
-0.00108896
-0.000572275
2.80637e-05
0.000706516
0.00145553
0.00226538
0.00312344
0.00401166
0.0049048
0.00576704
0.00654853
0.00718506
0.00761997
0.00770413
-0.00296563
-0.00303004
-0.00293998
-0.00276865
-0.00250121
-0.00213355
-0.00166456
-0.00109524
-0.000428728
0.00033016
0.00117508
0.00209797
0.00308902
0.00413284
0.0052061
0.00627162
0.00727056
0.00811745
0.00871602
0.0088727
-0.00372748
-0.00381327
-0.00372552
-0.0035505
-0.00326864
-0.00287345
-0.00236258
-0.00173664
-0.000998609
-0.000152899
0.000795434
0.00184078
0.00297795
0.00419751
0.00548289
0.00680127
0.00808969
0.00924279
0.0100916
0.0103999
-0.00461412
-0.00472943
-0.00464925
-0.00447558
-0.00418234
-0.00375983
-0.00320463
-0.00251768
-0.00170292
-0.000765234
0.000291114
0.00146344
0.00275292
0.00416029
0.00568351
0.00730496
0.00896933
0.010571
0.0118121
0.012447
-0.00564624
-0.00580109
-0.00573532
-0.00556987
-0.00526939
-0.00481927
-0.00421561
-0.00346135
-0.00256346
-0.00152929
-0.000363551
0.000933749
0.00236887
0.00395874
0.00572605
0.00768579
0.00981588
0.0120654
0.0139356
0.0152883
-0.00681757
-0.0070455
-0.007011
-0.00686666
-0.00656468
-0.00608453
-0.0054239
-0.00459104
-0.0035998
-0.00246356
-0.00119033
0.000219954
0.00177574
0.00351431
0.0054909
0.00777702
0.0104323
0.0135829
0.016424
0.0193981
-0.00836127
-0.00853266
-0.00853207
-0.00841324
-0.00811532
-0.00759844
-0.00686297
-0.00592941
-0.00482583
-0.00357636
-0.0021957
-0.000681783
0.000990178
0.00281614
0.00491198
0.00742393
0.0105025
0.0147062
0.0187556
0.0250662
-0.00963182
-0.0103567
-0.0103879
-0.0103635
-0.0100585
-0.00944911
-0.00858006
-0.00749749
-0.00624729
-0.00486757
-0.00339171
-0.0018468
-0.000260059
0.00140884
0.00329042
0.00558974
0.00839773
0.0139004
0.0190555
0.0317298
-0.0132798
-0.0115159
-0.0119364
-0.0119343
-0.0117729
-0.0112369
-0.0103499
-0.00917025
-0.00777504
-0.0062384
-0.00462235
-0.00295807
-0.00127848
0.000483795
0.00221282
0.00437001
0.00618569
0.0118282
0.0177793
0.0392543
-0.0128336
-0.0165907
-0.0165136
-0.0168955
-0.0163272
-0.0150704
-0.0134453
-0.0116421
-0.00977414
-0.00789793
-0.00608124
-0.00435996
-0.00286227
-0.00165863
-0.00120339
-0.00119333
-0.00280264
0.00311106
0.00663123
0.0504827
-0.0352021
-0.0132397
-0.0142129
-0.0147944
-0.0146146
-0.0139379
-0.0128726
-0.0114563
-0.00980309
-0.00802577
-0.00628251
-0.00451821
-0.00309313
-0.00153118
-0.000840148
0.00126455
0.0037945
0.0196861
0.0538468
0.137242
)
;

boundaryField
{
    movingWall
    {
        type            zeroGradient;
    }
    fixedWalls
    {
        type            zeroGradient;
    }
    frontAndBack
    {
        type            empty;
    }
}


// ************************************************************************* //
