/*--------------------------------*- C++ -*----------------------------------*\
  =========                 |
  \\      /  F ield         | OpenFOAM: The Open Source CFD Toolbox
   \\    /   O peration     | Website:  https://openfoam.org
    \\  /    A nd           | Version:  10
     \\/     M anipulation  |
\*---------------------------------------------------------------------------*/
FoamFile
{
    format      ascii;
    class       volScalarField;
    location    "7.2";
    object      p;
}
// * * * * * * * * * * * * * * * * * * * * * * * * * * * * * * * * * * * * * //

dimensions      [0 2 -2 0 0 0 0];

internalField   nonuniform List<scalar> 
400
(
3.84886e-07
-2.08181e-05
3.1649e-05
0.000132351
0.000288249
0.000501508
0.000775196
0.00111291
0.00151761
0.00199061
0.00253024
0.00313007
0.00377684
0.00444841
0.00511175
0.00572377
0.00623406
0.00659348
0.00679373
0.00675465
2.40795e-05
2.07827e-06
6.00847e-05
0.000161781
0.000315634
0.000524609
0.000792269
0.00112251
0.00151861
0.00198228
0.00251254
0.00310381
0.00374322
0.00441117
0.00507483
0.00569091
0.0062071
0.00657222
0.00678088
0.00673203
-3.61927e-05
-6.59335e-05
-9.76189e-06
8.79055e-05
0.000236331
0.000438758
0.000699354
0.00102296
0.00141416
0.00187641
0.00241076
0.00301398
0.0036771
0.00438069
0.00509093
0.0057599
0.00632572
0.00672408
0.00694838
0.00686733
-0.000160585
-0.000195807
-0.000143038
-5.16875e-05
8.84061e-05
0.000280941
0.000531005
0.000844844
0.00122906
0.00168989
0.00223185
0.00285568
0.00355547
0.00431685
0.00510507
0.00586568
0.00652096
0.00698034
0.0072348
0.00710286
-0.000355754
-0.000395827
-0.000348487
-0.000266171
-0.000137791
4.09307e-05
0.000276216
0.000576077
0.000949702
0.00140702
0.00195754
0.00260762
0.00335586
0.00420086
0.00510258
0.00600124
0.00679738
0.00735783
0.00766296
0.00743916
-0.000620565
-0.000665716
-0.000625915
-0.000555773
-0.000443407
-0.000283986
-7.01313e-05
0.000208051
0.000562654
0.001008
0.00156015
0.00223523
0.00304591
0.00398113
0.00502978
0.0061245
0.0071361
0.00786233
0.00825242
0.00785842
-0.000951755
-0.00100276
-0.000972769
-0.00091857
-0.0008277
-0.000695051
-0.000512379
-0.000268208
5.22673e-05
0.000467802
0.00100145
0.00168002
0.00252964
0.00356453
0.00478734
0.00614323
0.0074767
0.0084831
0.00902151
0.00832702
-0.00134512
-0.00140305
-0.00138529
-0.0013513
-0.00128841
-0.00119179
-0.00105313
-0.000860292
-0.00059679
-0.000240491
0.000237999
0.000876884
0.00172243
0.00282045
0.00419523
0.00585376
0.00764453
0.00914779
0.00993534
0.00880985
-0.0017953
-0.00186134
-0.00185801
-0.00184846
-0.00182039
-0.00177009
-0.00169041
-0.00157036
-0.00139427
-0.00113964
-0.000774587
-0.000254573
0.000481724
0.00150688
0.00288587
0.00478951
0.00713003
0.009522
0.0107367
0.00929131
-0.00229573
-0.00237098
-0.00238337
-0.00240155
-0.00241432
-0.00242023
-0.00241499
-0.00239116
-0.00233762
-0.0022378
-0.00206687
-0.00178657
-0.00133826
-0.000636818
0.000447785
0.00200556
0.00457185
0.00823376
0.010295
0.00965819
-0.00283899
-0.00292428
-0.00295181
-0.00299869
-0.00305574
-0.00312509
-0.00320728
-0.00330142
-0.0034058
-0.00351786
-0.0036345
-0.00375348
-0.0038807
-0.00405775
-0.00435517
-0.00454874
-0.00325977
0.00143866
0.00589996
0.00876096
-0.00341794
-0.00351326
-0.00355155
-0.00362393
-0.00372383
-0.0038583
-0.00403428
-0.00426003
-0.00454805
-0.00491877
-0.00540829
-0.00608506
-0.00709164
-0.00875964
-0.011664
-0.0157893
-0.0179881
-0.0130983
-0.00536661
0.00276598
-0.00402847
-0.00413354
-0.00417426
-0.00426363
-0.00439738
-0.00458932
-0.00485407
-0.00521005
-0.00568687
-0.00633427
-0.00724087
-0.00857415
-0.0106711
-0.0141912
-0.0203728
-0.029183
-0.0365232
-0.0325849
-0.0223856
-0.00921338
-0.00466593
-0.00477139
-0.00479165
-0.00487874
-0.00503065
-0.00526564
-0.00560209
-0.00606748
-0.00670506
-0.00758773
-0.00884615
-0.0107157
-0.0136968
-0.0186057
-0.0269787
-0.038353
-0.0491123
-0.0464787
-0.0369286
-0.0215514
-0.00536026
-0.0054756
-0.00545633
-0.00552453
-0.00566202
-0.00590078
-0.00626517
-0.00678774
-0.00751738
-0.00853345
-0.00998131
-0.0120872
-0.0154125
-0.0206389
-0.0293706
-0.0402041
-0.0516606
-0.0484191
-0.0410584
-0.0253997
-0.00619272
-0.00611333
-0.00597437
-0.00593811
-0.00603667
-0.0062785
-0.00667161
-0.00723481
-0.00800909
-0.00906317
-0.0105374
-0.01259
-0.0157237
-0.0204344
-0.0277985
-0.0362776
-0.0436937
-0.0409098
-0.0360033
-0.0180253
-0.00667734
-0.00710121
-0.00679983
-0.00680132
-0.00678614
-0.00690826
-0.00718251
-0.00764173
-0.00832571
-0.00928172
-0.0106333
-0.0124385
-0.0151627
-0.0188987
-0.0243953
-0.0299289
-0.0345236
-0.0306995
-0.0249649
0.00143571
-0.0100567
-0.00753541
-0.00689286
-0.0063005
-0.00622225
-0.00640079
-0.00677868
-0.00731935
-0.00804412
-0.00896703
-0.0102096
-0.0118272
-0.0141226
-0.0170448
-0.0210198
-0.0242177
-0.0260323
-0.0200059
-0.00805285
0.0354512
-0.00674117
-0.00973819
-0.00866101
-0.00866962
-0.00821028
-0.00797264
-0.00792087
-0.00808359
-0.00850685
-0.00917953
-0.010208
-0.0115989
-0.0137488
-0.0163866
-0.0202957
-0.0228631
-0.0233739
-0.00979212
0.0170482
0.0941959
-0.0319566
-0.00691077
-0.0053829
-0.00463441
-0.0044358
-0.00465557
-0.00517948
-0.00580537
-0.0066385
-0.00758758
-0.00890516
-0.0104661
-0.0125998
-0.0147335
-0.0166797
-0.0148052
-0.00574708
0.0279205
0.0957907
0.227526
)
;

boundaryField
{
    movingWall
    {
        type            zeroGradient;
    }
    fixedWalls
    {
        type            zeroGradient;
    }
    frontAndBack
    {
        type            empty;
    }
}


// ************************************************************************* //
