/*--------------------------------*- C++ -*----------------------------------*\
  =========                 |
  \\      /  F ield         | OpenFOAM: The Open Source CFD Toolbox
   \\    /   O peration     | Website:  https://openfoam.org
    \\  /    A nd           | Version:  10
     \\/     M anipulation  |
\*---------------------------------------------------------------------------*/
FoamFile
{
    format      ascii;
    class       volScalarField;
    location    "1.825";
    object      p;
}
// * * * * * * * * * * * * * * * * * * * * * * * * * * * * * * * * * * * * * //

dimensions      [0 2 -2 0 0 0 0];

internalField   nonuniform List<scalar> 
400
(
4.12752e-09
-4.22448e-06
6.55137e-05
0.00018496
0.000355127
0.000573072
0.00083454
0.00113421
0.00146558
0.00182096
0.00219146
0.00256714
0.00293705
0.00328958
0.00361279
0.00389491
0.00412481
0.00429293
0.00439574
0.00440298
2.8209e-06
-2.60899e-06
6.69294e-05
0.000185116
0.000353646
0.000569858
0.000829691
0.00112799
0.00145841
0.00181336
0.00218396
0.00256049
0.00293184
0.00328632
0.00361183
0.00389638
0.00412857
0.00429865
0.00440346
0.00441007
-6.89024e-05
-7.64159e-05
-5.85504e-06
0.000114413
0.000286404
0.00050757
0.000773952
0.00108048
0.00142085
0.00178745
0.00217148
0.0025628
0.00294994
0.00332073
0.00366242
0.00396214
0.0042075
0.00438771
0.00449909
0.00450533
-0.000196934
-0.000206406
-0.000133696
-9.2976e-06
0.000169236
0.000399532
0.00067777
0.000998989
0.00135692
0.00174389
0.00215084
0.00256755
0.00298182
0.00338063
0.0037501
0.00407596
0.00434413
0.00454201
0.00466493
0.00467232
-0.000385609
-0.000397403
-0.000321443
-0.000190848
-2.60915e-06
0.000241138
0.000536753
0.000879411
0.00126289
0.00167945
0.00211979
0.0025733
0.00302706
0.00346687
0.00387727
0.00424193
0.00454426
0.00476887
0.00490937
0.00491925
-0.000639129
-0.000653957
-0.000573772
-0.00043509
-0.000234153
2.72274e-05
0.00034566
0.000716512
0.00113366
0.00158932
0.00207391
0.00257652
0.00308327
0.00357866
0.00404516
0.00446367
0.00481404
0.00507679
0.0052427
0.00525682
-0.000962583
-0.000981462
-0.000896294
-0.000747923
-0.000531588
-0.000248655
9.78351e-05
0.000503527
0.00096248
0.00146699
0.00200733
0.00257192
0.00314644
0.0037139
0.00425429
0.00474495
0.00516093
0.00547676
0.00567871
0.00569975
-0.00136243
-0.0013868
-0.0012962
-0.00113693
-0.000902882
-0.000594821
-0.00021531
0.000231679
0.000740498
0.00130368
0.00191182
0.00255185
0.00321031
0.00386858
0.00450399
0.00508954
0.00559397
0.00598325
0.00623623
0.00626873
-0.00184652
-0.00187838
-0.00178234
-0.00161149
-0.00135794
-0.00102162
-0.000604476
-0.00011001
0.000456491
0.00108785
0.00177478
0.00250548
0.0032655
0.00403564
0.00479106
0.00549999
0.00612314
0.00661452
0.00694058
0.00699277
-0.00242415
-0.00246636
-0.00236548
-0.00218309
-0.00190888
-0.00154169
-0.00108271
-0.000534918
9.6793e-05
0.000805709
0.00158317
0.00241867
0.0032983
0.00420323
0.00510761
0.00597549
0.00675794
0.00739284
0.0078254
0.00791335
-0.00310629
-0.00316287
-0.00305863
-0.00286567
-0.00257044
-0.0021703
-0.00166563
-0.00105898
-0.000354925
0.000440353
0.00131925
0.00227261
0.00328919
0.00435242
0.00543792
0.00650791
0.0075041
0.00834377
0.0089348
0.00909187
-0.00390587
-0.00398256
-0.00387767
-0.00367633
-0.00336057
-0.00292583
-0.00237173
-0.00170075
-0.000917593
-2.81976e-05
0.000960995
0.00204305
0.00321113
0.00445416
0.00575376
0.00707556
0.00835629
0.00949265
0.0103246
0.0106236
-0.0048386
-0.00494333
-0.00484238
-0.00463641
-0.00430147
-0.00383044
-0.00322255
-0.0024811
-0.00161202
-0.000621823
0.000483842
0.00170096
0.00302873
0.00446596
0.00600756
0.00763268
0.00928369
0.0108542
0.0120612
0.0126625
-0.00592734
-0.00606982
-0.00597889
-0.00577349
-0.00542117
-0.00491102
-0.00424279
-0.00342249
-0.00245935
-0.0013623
-0.000137179
0.00121502
0.00269869
0.0043288
0.00612322
0.00809131
0.0102041
0.0124046
0.0142104
0.0154663
-0.00716863
-0.00738214
-0.00731721
-0.0071231
-0.00675588
-0.00620054
-0.00546029
-0.00454741
-0.00347826
-0.00226749
-0.000923609
0.000553388
0.00217304
0.0039687
0.00598977
0.00829976
0.0109419
0.0140258
0.0167529
0.0194914
-0.00880374
-0.00895864
-0.0089193
-0.00873859
-0.00835569
-0.00774181
-0.00690698
-0.00587685
-0.00468149
-0.00334534
-0.00188269
-0.000291431
0.00145
0.00335259
0.00551964
0.00808828
0.0111964
0.0153534
0.0192562
0.0251118
-0.0101663
-0.0108657
-0.0108636
-0.0107506
-0.0103375
-0.00960978
-0.00862279
-0.00742775
-0.00607231
-0.00459389
-0.00302335
-0.00138343
0.00031222
0.00210206
0.00410501
0.00655344
0.00948463
0.0150344
0.0200912
0.0320251
-0.0139716
-0.0122275
-0.0126128
-0.0124941
-0.0121793
-0.0114748
-0.0104253
-0.00909888
-0.00757471
-0.00592551
-0.00420689
-0.0024434
-0.000659758
0.00121568
0.00311744
0.00548556
0.00774119
0.0136489
0.0198534
0.0398617
-0.013823
-0.0175046
-0.0173426
-0.0175065
-0.0167217
-0.0152441
-0.0134376
-0.011484
-0.0094928
-0.00751269
-0.00559935
-0.00378255
-0.00216823
-0.000785881
-9.42625e-05
0.000456995
-0.000829214
0.0054791
0.00873304
0.0506645
-0.0362304
-0.0143577
-0.0153025
-0.0156823
-0.0152332
-0.0142964
-0.0130039
-0.0113967
-0.00958735
-0.00768718
-0.00582954
-0.00397065
-0.00241854
-0.000738514
0.000134303
0.00247371
0.00531538
0.0209464
0.0534949
0.133637
)
;

boundaryField
{
    movingWall
    {
        type            zeroGradient;
    }
    fixedWalls
    {
        type            zeroGradient;
    }
    frontAndBack
    {
        type            empty;
    }
}


// ************************************************************************* //
