/*--------------------------------*- C++ -*----------------------------------*\
  =========                 |
  \\      /  F ield         | OpenFOAM: The Open Source CFD Toolbox
   \\    /   O peration     | Website:  https://openfoam.org
    \\  /    A nd           | Version:  10
     \\/     M anipulation  |
\*---------------------------------------------------------------------------*/
FoamFile
{
    format      ascii;
    class       volVectorField;
    location    "5.725";
    object      U;
}
// * * * * * * * * * * * * * * * * * * * * * * * * * * * * * * * * * * * * * //

dimensions      [0 1 -1 0 0 0 0];

internalField   nonuniform List<vector> 
475
(
(0.974607 0.0158151 0)
(0.975874 0.00674113 0)
(0.950464 0.0313183 0)
(0.955016 0.00141784 0)
(0.919242 0.0300161 0)
(0.998842 0.00849077 0)
(1.01372 0.0148653 0)
(1.02527 0.0149902 0)
(1.04417 0.00864317 0)
(1.05546 0.00271388 0)
(1.00008 4.15e-05 0)
(1.00946 -0.00257721 0)
(1.02414 -0.00525748 0)
(1.04104 -0.00904359 0)
(1.0568 -0.0139015 0)
(0.99974 -0.00997913 0)
(1.01037 -0.0194014 0)
(1.02232 -0.0223174 0)
(1.03565 -0.0228226 0)
(1.04438 -0.0257952 0)
(0.980784 -0.00948539 0)
(0.9694 -0.0195084 0)
(0.953357 -0.0214957 0)
(0.933851 -0.0225573 0)
(0.906848 -0.0229859 0)
(0.925774 -0.0162722 0)
(0.932212 -0.0341727 0)
(0.936863 -0.0450866 0)
(0.944619 -0.0518457 0)
(0.957423 -0.0614217 0)
(0.976815 -0.0779547 0)
(1.00191 -0.0999256 0)
(1.02766 -0.129422 0)
(1.05217 -0.16225 0)
(1.07317 -0.196818 0)
(1.08575 -0.230759 0)
(1.09211 -0.258072 0)
(1.08947 -0.278857 0)
(1.07772 -0.28769 0)
(1.05814 -0.282207 0)
(1.02805 -0.268951 0)
(0.994051 -0.246205 0)
(0.958882 -0.212406 0)
(0.922706 -0.173966 0)
(0.889832 -0.133525 0)
(0.855194 -0.0906842 0)
(0.817992 -0.0504223 0)
(0.785886 -0.0166986 0)
(0.759026 0.0115223 0)
(0.734529 0.0347269 0)
(0.710642 0.0541427 0)
(0.687872 0.0679228 0)
(0.668351 0.0741071 0)
(0.653558 0.0760176 0)
(0.643815 0.0790784 0)
(0.638758 0.0846187 0)
(0.637394 0.0892597 0)
(0.638061 0.0888951 0)
(0.639057 0.082046 0)
(0.639298 0.0700759 0)
(0.638515 0.0556101 0)
(0.63704 0.0411911 0)
(0.63538 0.0284531 0)
(0.633905 0.0182684 0)
(0.632772 0.0106803 0)
(0.631975 0.00556545 0)
(0.631493 0.00221924 0)
(0.631173 0.000442064 0)
(0.631017 -0.00057159 0)
(0.630835 -0.000814254 0)
(1.06817 -0.00925331 0)
(1.07858 -0.0209077 0)
(1.08358 -0.0325174 0)
(1.08702 -0.0425712 0)
(1.09144 -0.0565051 0)
(1.09474 -0.07463 0)
(1.09882 -0.0981351 0)
(1.09972 -0.127831 0)
(1.09708 -0.159735 0)
(1.08715 -0.194346 0)
(1.06902 -0.224736 0)
(1.04483 -0.247951 0)
(1.01115 -0.261427 0)
(0.9717 -0.259886 0)
(0.925455 -0.248705 0)
(0.871498 -0.231278 0)
(0.815012 -0.201396 0)
(0.759884 -0.16251 0)
(0.708023 -0.123423 0)
(0.660996 -0.0823237 0)
(0.617688 -0.0421121 0)
(0.575762 -0.0107429 0)
(0.538433 0.0133861 0)
(0.505305 0.0381432 0)
(0.476605 0.0641467 0)
(0.456779 0.0832905 0)
(0.448947 0.0902743 0)
(0.451518 0.0873018 0)
(0.460604 0.0812578 0)
(0.473321 0.0777694 0)
(0.488661 0.0777393 0)
(0.506321 0.0782797 0)
(0.525508 0.0759954 0)
(0.544789 0.0693041 0)
(0.562677 0.0587978 0)
(0.578153 0.0462881 0)
(0.59079 0.0337969 0)
(0.600606 0.0227637 0)
(0.607876 0.014023 0)
(0.613025 0.00761655 0)
(0.616458 0.00343999 0)
(0.618653 0.000823432 0)
(0.619929 -0.000402511 0)
(0.620634 -0.0010948 0)
(0.620973 -0.00103314 0)
(1.06833 -0.0224101 0)
(1.07789 -0.032703 0)
(1.08075 -0.0445928 0)
(1.08302 -0.0553034 0)
(1.08103 -0.0698057 0)
(1.07735 -0.0846615 0)
(1.07027 -0.104945 0)
(1.0585 -0.127694 0)
(1.04293 -0.153732 0)
(1.01807 -0.181324 0)
(0.988517 -0.20395 0)
(0.950186 -0.222403 0)
(0.902656 -0.221766 0)
(0.849638 -0.205802 0)
(0.777911 -0.189677 0)
(0.700092 -0.175064 0)
(0.626077 -0.152682 0)
(0.551648 -0.118657 0)
(0.482933 -0.0785276 0)
(0.424144 -0.0367149 0)
(0.378851 -0.000333303 0)
(0.342195 0.0302176 0)
(0.312561 0.0558824 0)
(0.293602 0.0745946 0)
(0.288991 0.0838865 0)
(0.298357 0.0837144 0)
(0.317557 0.0763569 0)
(0.340926 0.0661934 0)
(0.364613 0.0577572 0)
(0.387742 0.0533712 0)
(0.411324 0.0523422 0)
(0.436368 0.0520575 0)
(0.462665 0.0499179 0)
(0.48882 0.0447377 0)
(0.513049 0.0369538 0)
(0.533896 0.0279134 0)
(0.550593 0.0191218 0)
(0.563069 0.01163 0)
(0.571735 0.00599765 0)
(0.577323 0.00215581 0)
(0.580571 -6.08322e-05 0)
(0.582341 -0.00125698 0)
(0.582975 -0.00152958 0)
(0.583258 -0.00165356 0)
(0.582911 -0.00117812 0)
(1.05058 -0.0297856 0)
(1.05173 -0.0369415 0)
(1.04754 -0.0430153 0)
(1.04094 -0.0506357 0)
(1.02572 -0.0594793 0)
(1.01015 -0.0687254 0)
(0.981653 -0.0822918 0)
(0.951426 -0.0956909 0)
(0.906926 -0.114839 0)
(0.853816 -0.132237 0)
(0.791009 -0.150604 0)
(0.709273 -0.164533 0)
(0.631469 -0.152194 0)
(0.540871 -0.129735 0)
(0.401124 -0.0969597 0)
(0.26203 -0.0509924 0)
(0.164854 -0.0183538 0)
(0.10014 -0.00347431 0)
(0.065051 0.00701461 0)
(0.0490344 0.0202788 0)
(0.0487774 0.0349736 0)
(0.0619313 0.0476433 0)
(0.0848256 0.055638 0)
(0.114749 0.0583843 0)
(0.149736 0.0563583 0)
(0.187051 0.0510155 0)
(0.223155 0.044008 0)
(0.255689 0.0372397 0)
(0.284262 0.0321135 0)
(0.310099 0.0290142 0)
(0.334951 0.0272532 0)
(0.359758 0.0255349 0)
(0.384203 0.0228089 0)
(0.407074 0.0187956 0)
(0.426942 0.0139591 0)
(0.44278 0.00909902 0)
(0.454293 0.00494504 0)
(0.461839 0.00187314 0)
(0.466198 -8.45206e-05 0)
(0.468242 -0.0011546 0)
(0.468759 -0.00153629 0)
(0.468506 -0.00156664 0)
(0.467759 -0.00131052 0)
(0.467197 -0.00111628 0)
(0.466167 -0.000684156 0)
(0.880705 -0.0240054 0)
(0.847491 -0.0269947 0)
(0.814981 -0.0276426 0)
(0.775104 -0.0323348 0)
(0.73124 -0.0332107 0)
(0.682271 -0.0393472 0)
(0.620387 -0.0428149 0)
(0.558192 -0.0502789 0)
(0.470405 -0.0602633 0)
(0.384594 -0.0649162 0)
(0.267452 -0.0870365 0)
(0.127801 -0.0675165 0)
(0.0296319 -0.00479472 0)
(-0.0283728 0.0390123 0)
(-0.0562857 0.0512644 0)
(-0.0686655 0.0288788 0)
(-0.0779588 -0.00360478 0)
(-0.0903466 -0.0202592 0)
(-0.101827 -0.0220496 0)
(-0.105053 -0.015522 0)
(-0.0973341 -0.00565525 0)
(-0.0787596 0.00275961 0)
(-0.0517517 0.00789413 0)
(-0.0200953 0.00994044 0)
(0.0127147 0.0100304 0)
(0.0437267 0.00903258 0)
(0.0710897 0.00760547 0)
(0.0944052 0.00623231 0)
(0.114233 0.0051551 0)
(0.131644 0.00441141 0)
(0.147621 0.00383345 0)
(0.162559 0.00320844 0)
(0.176171 0.00246556 0)
(0.187762 0.00164877 0)
(0.19673 0.000878503 0)
(0.202884 0.000269087 0)
(0.206488 -0.000132583 0)
(0.208085 -0.000347244 0)
(0.208333 -0.000433434 0)
(0.207806 -0.000445899 0)
(0.206951 -0.000403178 0)
(0.206024 -0.000332455 0)
(0.20517 -0.000249117 0)
(0.204522 -0.000184554 0)
(0.203794 -0.000103395 0)
(0.00495483 -0.0330202 0)
(0.00594205 -0.0307957 0)
(-0.00984481 -0.00726038 0)
(-0.060094 0.0281786 0)
(-0.14144 0.0458286 0)
(-0.222547 0.0455708 0)
(-0.290122 0.0386898 0)
(-0.340618 0.0301511 0)
(-0.370843 0.0208933 0)
(-0.381265 0.0111114 0)
(-0.373588 0.000308223 0)
(-0.347939 -0.0100337 0)
(-0.30614 -0.0192645 0)
(-0.25088 -0.0263355 0)
(-0.185995 -0.0310281 0)
(-0.115766 -0.0327398 0)
(-0.0440966 -0.0325555 0)
(0.0259471 -0.0307196 0)
(0.0918645 -0.0270519 0)
(0.150871 -0.0224144 0)
(0.200999 -0.0172825 0)
(0.241797 -0.0121647 0)
(0.273492 -0.00694906 0)
(0.295614 -0.000117239 0)
(0.306552 0.009654 0)
(0.305396 0.0200524 0)
(0.292623 0.0248699 0)
(0.271372 0.0211206 0)
(0.246457 0.0125837 0)
(0.222737 0.00447433 0)
(0.203372 -0.000511945 0)
(0.189745 -0.00246597 0)
(0.181793 -0.0028303 0)
(0.178613 -0.00269449 0)
(0.178913 -0.00255366 0)
(0.181385 -0.00238146 0)
(0.184888 -0.00207862 0)
(0.188615 -0.00171856 0)
(0.192052 -0.00134837 0)
(0.194957 -0.00100693 0)
(0.197255 -0.000718632 0)
(0.198996 -0.00049757 0)
(0.200281 -0.000328423 0)
(0.20114 -0.000220274 0)
(0.20198 -0.000116734 0)
(-0.0060577 0.0242579 0)
(-0.044201 0.0486213 0)
(-0.103112 0.0797828 0)
(-0.152695 0.103979 0)
(-0.198658 0.108275 0)
(-0.230259 0.0963191 0)
(-0.25208 0.0745175 0)
(-0.259563 0.04942 0)
(-0.253584 0.0213582 0)
(-0.234886 -0.00700286 0)
(-0.201722 -0.0351872 0)
(-0.155347 -0.0612322 0)
(-0.0961476 -0.0836364 0)
(-0.0274635 -0.100429 0)
(0.0487708 -0.110616 0)
(0.127995 -0.114443 0)
(0.205122 -0.112859 0)
(0.278451 -0.107022 0)
(0.346157 -0.0974252 0)
(0.405823 -0.0847509 0)
(0.455701 -0.0707128 0)
(0.494983 -0.0569188 0)
(0.524836 -0.0433378 0)
(0.546381 -0.0300881 0)
(0.560552 -0.0179949 0)
(0.569891 -0.00566997 0)
(0.576419 0.00875857 0)
(0.580949 0.0241041 0)
(0.579762 0.0361513 0)
(0.567606 0.0400931 0)
(0.544506 0.0350127 0)
(0.516295 0.0247069 0)
(0.490029 0.0138074 0)
(0.470023 0.00505134 0)
(0.457332 -0.000884334 0)
(0.451132 -0.00427085 0)
(0.449433 -0.00569962 0)
(0.45028 -0.00579896 0)
(0.452317 -0.00518501 0)
(0.454682 -0.0042874 0)
(0.456941 -0.00332352 0)
(0.458813 -0.00251122 0)
(0.46045 -0.00176547 0)
(0.461451 -0.00132072 0)
(0.462752 -0.000754826 0)
(-0.0311035 0.00733878 0)
(-0.0606865 0.0598044 0)
(-0.0619994 0.0884068 0)
(-0.0558202 0.110222 0)
(-0.0426647 0.113512 0)
(-0.0231453 0.0962271 0)
(-0.00166587 0.0665795 0)
(0.0217273 0.0330695 0)
(0.0532863 -0.0017333 0)
(0.0931833 -0.0389643 0)
(0.143877 -0.0776991 0)
(0.201362 -0.114467 0)
(0.265334 -0.146711 0)
(0.332982 -0.170948 0)
(0.401022 -0.184628 0)
(0.466949 -0.189029 0)
(0.529248 -0.184452 0)
(0.586369 -0.172398 0)
(0.635671 -0.155331 0)
(0.676044 -0.133428 0)
(0.707814 -0.107394 0)
(0.730122 -0.0822011 0)
(0.742915 -0.0609034 0)
(0.748426 -0.0399913 0)
(0.748183 -0.0173047 0)
(0.741934 0.00214634 0)
(0.732114 0.0136869 0)
(0.724173 0.0210617 0)
(0.720423 0.0302752 0)
(0.717153 0.0420937 0)
(0.708437 0.0512028 0)
(0.691436 0.0518172 0)
(0.66808 0.0433242 0)
(0.643113 0.0297124 0)
(0.620977 0.0160048 0)
(0.603909 0.00538879 0)
(0.592181 -0.00133113 0)
(0.58492 -0.00474134 0)
(0.580889 -0.00581208 0)
(0.578975 -0.00566079 0)
(0.578368 -0.00486561 0)
(0.578361 -0.00402847 0)
(0.578836 -0.00301547 0)
(0.57916 -0.00243546 0)
(0.579951 -0.00148654 0)
(-0.0245693 0.139593 0)
(-0.00803482 0.0978611 0)
(0.0220219 0.0925604 0)
(0.0670881 0.0956918 0)
(0.119953 0.0905084 0)
(0.176869 0.0715958 0)
(0.234616 0.0423207 0)
(0.290124 0.00329467 0)
(0.347316 -0.0416222 0)
(0.407639 -0.0884528 0)
(0.469749 -0.133854 0)
(0.531607 -0.175544 0)
(0.592385 -0.211308 0)
(0.651005 -0.235188 0)
(0.706387 -0.247207 0)
(0.755009 -0.248963 0)
(0.795365 -0.23892 0)
(0.829049 -0.219079 0)
(0.855818 -0.192249 0)
(0.873761 -0.160587 0)
(0.883614 -0.126465 0)
(0.886734 -0.0917962 0)
(0.883081 -0.0604492 0)
(0.873739 -0.0348276 0)
(0.861267 -0.011258 0)
(0.845896 0.0100242 0)
(0.827431 0.024609 0)
(0.808731 0.0323237 0)
(0.793439 0.0389414 0)
(0.782514 0.0490122 0)
(0.772866 0.0604218 0)
(0.760541 0.0669199 0)
(0.743735 0.0645027 0)
(0.723006 0.0540131 0)
(0.700594 0.0394883 0)
(0.679245 0.0251615 0)
(0.660992 0.01371 0)
(0.646778 0.00578595 0)
(0.636511 0.00105913 0)
(0.629501 -0.00148002 0)
(0.625054 -0.00248856 0)
(0.622395 -0.00280983 0)
(0.620989 -0.00247145 0)
(0.62027 -0.0022837 0)
(0.620011 -0.00153822 0)
(0.0818942 0.00137099 0)
(0.118426 -0.00596123 0)
(0.208121 -0.00495564 0)
(0.281809 -0.00510285 0)
(0.357253 -0.0119744 0)
(0.436782 -0.0294181 0)
(0.514572 -0.0546167 0)
(0.588566 -0.0875172 0)
(0.659218 -0.125549 0)
(0.725557 -0.16752 0)
(0.786102 -0.20842 0)
(0.840877 -0.242633 0)
(0.887524 -0.271926 0)
(0.92404 -0.289456 0)
(0.950856 -0.292157 0)
(0.968252 -0.286026 0)
(0.97738 -0.26809 0)
(0.978177 -0.23923 0)
(0.973737 -0.20591 0)
(0.965357 -0.167216 0)
(0.950309 -0.123795 0)
(0.93116 -0.0831512 0)
(0.909699 -0.0486046 0)
(0.886968 -0.0175608 0)
(0.863916 0.011151 0)
(0.839481 0.0348328 0)
(0.815786 0.0494275 0)
(0.794929 0.0547622 0)
(0.77728 0.0568327 0)
(0.762946 0.0619812 0)
(0.751513 0.0706606 0)
(0.741318 0.0780386 0)
(0.730242 0.0789408 0)
(0.717063 0.0719225 0)
(0.702031 0.059332 0)
(0.686398 0.0447597 0)
(0.6717 0.0311296 0)
(0.659145 0.0199227 0)
(0.649296 0.011585 0)
(0.642125 0.00579754 0)
(0.637268 0.00221927 0)
(0.634176 4.29556e-05 0)
(0.63229 -0.000872537 0)
(0.63129 -0.00139901 0)
(0.630621 -0.00120291 0)
)
;

boundaryField
{
    inlet
    {
        type            fixedValue;
        value           uniform (1 0 0);
    }
    outlet
    {
        type            zeroGradient;
    }
    upperWall
    {
        type            noSlip;
    }
    lowerWall
    {
        type            noSlip;
    }
    frontAndBack
    {
        type            empty;
    }
}


// ************************************************************************* //
