/*--------------------------------*- C++ -*----------------------------------*\
  =========                 |
  \\      /  F ield         | OpenFOAM: The Open Source CFD Toolbox
   \\    /   O peration     | Website:  https://openfoam.org
    \\  /    A nd           | Version:  10
     \\/     M anipulation  |
\*---------------------------------------------------------------------------*/
FoamFile
{
    format      ascii;
    class       surfaceScalarField;
    location    "5.975";
    object      phi;
}
// * * * * * * * * * * * * * * * * * * * * * * * * * * * * * * * * * * * * * //

dimensions      [0 3 -1 0 0 0 0];

internalField   nonuniform List<scalar> 
22800
(
-2.31566e-06
2.78402e-06
-4.75792e-07
-7.56385e-06
5.30116e-06
-5.29738e-08
-1.3775e-05
6.06085e-06
1.50323e-07
-2.02845e-05
6.25354e-06
2.55954e-07
-2.68247e-05
6.28015e-06
2.60014e-07
-3.32659e-05
6.24428e-06
1.96894e-07
-3.94818e-05
6.1363e-06
7.96875e-08
-4.53101e-05
5.91205e-06
-8.38177e-08
-5.05328e-05
5.52025e-06
-2.97501e-07
-5.48611e-05
4.90785e-06
-5.79614e-07
-5.79473e-05
4.02088e-06
-9.34631e-07
-5.93959e-05
2.81417e-06
-1.36552e-06
-5.87883e-05
1.26836e-06
-1.87602e-06
-5.57303e-05
-6.19114e-07
-2.43888e-06
-4.9963e-05
-2.7586e-06
-3.00868e-06
-4.14482e-05
-4.99157e-06
-3.52329e-06
-3.05433e-05
-7.03058e-06
-3.87427e-06
-1.8238e-05
-8.39417e-06
-3.91112e-06
-6.45157e-06
-8.26715e-06
-3.51927e-06
-4.57225e-06
-1.87932e-06
-4.71564e-06
8.94274e-06
-1.44308e-06
-1.37014e-05
1.54254e-05
-1.13847e-06
-2.40491e-05
1.73565e-05
-9.47964e-07
-3.47575e-05
1.77503e-05
-7.88327e-07
-4.53911e-05
1.76283e-05
-7.14512e-07
-5.5706e-05
1.72591e-05
-6.99945e-07
-6.54782e-05
1.6641e-05
-7.32568e-07
-7.444e-05
1.56915e-05
-8.17567e-07
-8.22557e-05
1.43014e-05
-9.65426e-07
-8.85113e-05
1.23513e-05
-1.18789e-06
-9.27111e-05
9.7167e-06
-1.49602e-06
-9.43038e-05
6.30471e-06
-1.89778e-06
-9.27474e-05
2.10587e-06
-2.39395e-06
-8.75108e-05
-2.88868e-06
-2.967e-06
-7.822e-05
-8.4894e-06
-3.56e-06
-6.48617e-05
-1.42484e-05
-4.10147e-06
-4.7976e-05
-1.94665e-05
-4.44973e-06
-2.90065e-05
-2.29486e-05
-4.41512e-06
-1.07495e-05
-2.26555e-05
-3.86865e-06
-1.35325e-05
-1.78921e-06
-5.53208e-06
1.64244e-05
-1.94959e-06
-1.5881e-05
2.75136e-05
-1.73924e-06
-2.77005e-05
3.07313e-05
-1.55533e-06
-3.98703e-05
3.12793e-05
-1.35924e-06
-5.19175e-05
3.09171e-05
-1.24168e-06
-6.35821e-05
3.01022e-05
-1.17843e-06
-7.46283e-05
2.88475e-05
-1.1603e-06
-8.4774e-05
2.70335e-05
-1.19625e-06
-9.36648e-05
2.44934e-05
-1.30122e-06
-0.000100859
2.10376e-05
-1.49252e-06
-0.000105827
1.64721e-05
-1.78705e-06
-0.000107958
1.0634e-05
-2.19804e-06
-0.000106566
3.4488e-06
-2.73551e-06
-0.000100986
-5.09921e-06
-3.3696e-06
-9.07284e-05
-1.46879e-05
-4.0586e-06
-7.56481e-05
-2.46191e-05
-4.70955e-06
-5.62542e-05
-3.37132e-05
-5.14725e-06
-3.41612e-05
-3.99102e-05
-5.13137e-06
-1.26884e-05
-3.9631e-05
-4.49728e-06
-2.41975e-05
-2.02341e-06
-5.76021e-06
2.45247e-05
-2.34011e-06
-1.6636e-05
4.06103e-05
-2.22092e-06
-2.90467e-05
4.51923e-05
-2.0503e-06
-4.18339e-05
4.59037e-05
-1.83721e-06
-5.45326e-05
4.53102e-05
-1.69444e-06
-6.69042e-05
4.40763e-05
-1.6025e-06
-7.87375e-05
4.22345e-05
-1.55371e-06
-8.97734e-05
3.96322e-05
-1.56284e-06
-9.96706e-05
3.60422e-05
-1.65152e-06
-0.000107983
3.11928e-05
-1.84268e-06
-0.000114143
2.47927e-05
-2.16047e-06
-0.000117455
1.65737e-05
-2.62772e-06
-0.000117116
6.37262e-06
-3.26329e-06
-0.000112249
-5.90104e-06
-4.06461e-06
-0.000102033
-1.99533e-05
-4.9512e-06
-8.60398e-05
-3.47914e-05
-5.82064e-06
-6.46036e-05
-4.87056e-05
-6.44378e-06
-3.94918e-05
-5.85167e-05
-6.5053e-06
-1.46737e-05
-5.86743e-05
-5.77483e-06
-3.61583e-05
-2.71289e-06
-5.81465e-06
3.30066e-05
-2.66723e-06
-1.70003e-05
5.44244e-05
-2.6285e-06
-2.98053e-05
6.047e-05
-2.47265e-06
-4.30472e-05
6.13965e-05
-2.2508e-06
-5.62812e-05
6.06424e-05
-2.09821e-06
-6.93077e-05
5.91017e-05
-1.99895e-06
-8.19611e-05
5.68372e-05
-1.94922e-06
-9.40285e-05
5.3666e-05
-1.96642e-06
-0.000105207
4.92999e-05
-2.07905e-06
-0.000115067
4.3372e-05
-2.31973e-06
-0.000123009
3.54594e-05
-2.72416e-06
-0.000128239
2.5131e-05
-3.32746e-06
-0.000129749
1.20369e-05
-4.15463e-06
-0.000126379
-4.02512e-06
-5.24547e-06
-0.000116838
-2.30022e-05
-6.49233e-06
-0.000100184
-4.36759e-05
-7.7692e-06
-7.63706e-05
-6.37545e-05
-8.76491e-06
-4.72192e-05
-7.86542e-05
-9.01385e-06
-1.76544e-05
-8.00949e-05
-8.1442e-06
-4.97161e-05
-4.09665e-06
-5.83377e-06
4.18354e-05
-2.99506e-06
-1.73114e-05
6.89384e-05
-3.03637e-06
-3.0512e-05
7.65686e-05
-2.89808e-06
-4.42235e-05
7.77815e-05
-2.67341e-06
-5.80265e-05
7.69656e-05
-2.52031e-06
-7.17747e-05
7.52764e-05
-2.4265e-06
-8.5368e-05
7.28235e-05
-2.393e-06
-9.86647e-05
6.94057e-05
-2.44298e-06
-0.000111431
6.46781e-05
-2.61153e-06
-0.000123288
5.81724e-05
-2.94374e-06
-0.000133639
4.93039e-05
-3.49316e-06
-0.000141599
3.74088e-05
-4.31786e-06
-0.000145924
2.18386e-05
-5.47736e-06
-0.000145123
2.21555e-06
-7.04091e-06
-0.000137153
-2.20815e-05
-8.89118e-06
-0.000120274
-4.96697e-05
-1.08856e-05
-9.36771e-05
-7.77663e-05
-1.25846e-05
-5.89873e-05
-0.000100073
-1.3271e-05
-2.24359e-05
-0.000104414
-1.22318e-05
-6.55805e-05
-6.57137e-06
-5.84578e-06
5.10521e-05
-3.37092e-06
-1.76422e-05
8.42382e-05
-3.5034e-06
-3.12689e-05
9.35814e-05
-3.38602e-06
-4.54732e-05
9.51448e-05
-3.15903e-06
-5.98654e-05
9.43641e-05
-3.00631e-06
-7.43667e-05
9.26983e-05
-2.92059e-06
-8.89654e-05
9.03316e-05
-2.90937e-06
-0.000103624
8.70685e-05
-3.00419e-06
-0.000118222
8.2527e-05
-3.25066e-06
-0.000132487
7.61476e-05
-3.71058e-06
-0.000145894
6.71754e-05
-4.46398e-06
-0.000157539
5.4661e-05
-5.60721e-06
-0.000165981
3.75321e-05
-7.25154e-06
-0.0001691
1.48038e-05
-9.46922e-06
-0.000164313
-1.44728e-05
-1.23963e-05
-0.000148383
-4.99364e-05
-1.56632e-05
-0.000119084
-8.83522e-05
-1.87133e-05
-7.71766e-05
-0.000121537
-2.04431e-05
-3.04209e-05
-0.00013179
-1.93805e-05
-8.4927e-05
-1.10745e-05
-5.85243e-06
6.07307e-05
-3.82616e-06
-1.79981e-05
0.000100454
-4.07e-06
-3.20655e-05
0.000111624
-3.9747e-06
-4.67441e-05
0.000113563
-3.7398e-06
-6.1678e-05
0.000112877
-3.57913e-06
-7.687e-05
0.000111384
-3.49379e-06
-9.24213e-05
0.000109383
-3.49986e-06
-0.000108436
0.000106724
-3.64003e-06
-0.000124965
0.000103031
-3.97561e-06
-0.000141921
9.76966e-05
-4.59284e-06
-0.000158958
8.98248e-05
-5.61172e-06
-0.000175278
7.81735e-05
-7.19331e-06
-0.00018935
6.11359e-05
-9.53162e-06
-0.000198609
3.68786e-05
-1.28157e-05
-0.00019963
3.9709e-06
-1.74225e-05
-0.000187122
-3.958e-05
-2.28646e-05
-0.000156453
-9.05041e-05
-2.85173e-05
-0.000106063
-0.000139283
-3.26428e-05
-4.46311e-05
-0.000160946
-3.22761e-05
-0.000109618
-1.99399e-05
-5.86602e-06
7.09879e-05
-4.39114e-06
-1.83991e-05
0.000117764
-4.7766e-06
-3.28999e-05
0.000130825
-4.70098e-06
-4.79785e-05
0.000133085
-4.44355e-06
-6.33154e-05
0.000132469
-4.25516e-06
-7.90068e-05
0.000131225
-4.14942e-06
-9.52884e-05
0.000129818
-4.154e-06
-0.000112443
0.000128204
-4.32541e-06
-0.000130752
0.000126085
-4.74525e-06
-0.000150418
0.000122897
-5.53339e-06
-0.000171431
0.000117705
-6.86726e-06
-0.000193325
0.000109072
-9.00508e-06
-0.000214806
9.49134e-05
-1.2296e-05
-0.000233174
7.24234e-05
-1.7177e-05
-0.000243514
3.83801e-05
-2.4069e-05
-0.00023952
-1.01257e-05
-3.3449e-05
-0.000211718
-7.42451e-05
-4.40604e-05
-0.000153656
-0.000143783
-5.35624e-05
-7.17219e-05
-0.000186654
-5.62256e-05
-0.000142285
-3.90547e-05
-5.9309e-06
8.20254e-05
-5.10661e-06
-1.89257e-05
0.000136433
-5.67452e-06
-3.3843e-05
0.000151354
-5.61095e-06
-4.919e-05
0.000153736
-5.30359e-06
-6.46865e-05
0.000153018
-5.0522e-06
-8.05309e-05
0.000151957
-4.88729e-06
-9.71052e-05
0.000151245
-4.85192e-06
-0.000114893
0.000151011
-5.01928e-06
-0.000134456
0.000151143
-5.49487e-06
-0.000156389
0.000151269
-6.43944e-06
-0.000181201
0.000150622
-8.10574e-06
-0.000209071
0.000147832
-1.08894e-05
-0.000239383
0.000140609
-1.53839e-05
-0.000269962
0.000125393
-2.23897e-05
-0.000295882
9.71436e-05
-3.28434e-05
-0.000308061
4.99353e-05
-4.78829e-05
-0.000293294
-2.16243e-05
-6.73871e-05
-0.000234163
-0.000115257
-8.76578e-05
-0.000125816
-0.000195767
-9.92343e-05
-0.000188079
-8.00228e-05
-6.15132e-06
9.42137e-05
-6.03694e-06
-1.97689e-05
0.00015689
-6.8396e-06
-3.50994e-05
0.000173456
-6.7716e-06
-5.0531e-05
0.000175536
-6.36832e-06
-6.5832e-05
0.000174316
-5.99676e-06
-8.1313e-05
0.000173147
-5.70961e-06
-9.74984e-05
0.000172999
-5.56909e-06
-0.000115062
0.00017424
-5.66638e-06
-0.000134842
0.000177056
-6.13233e-06
-0.00015787
0.000181466
-7.16988e-06
-0.000185336
0.000187205
-9.11718e-06
-0.00021842
0.000193449
-1.25332e-05
-0.000257862
0.000198368
-1.83165e-05
-0.000303167
0.000198493
-2.77956e-05
-0.000351181
0.000187797
-4.26397e-05
-0.000393016
0.00015635
-6.45791e-05
-0.000409185
8.97277e-05
-9.51827e-05
-0.000367658
-2.67986e-05
-0.000129986
-0.000230628
-0.000178301
-0.000154496
-0.000271257
-0.000147449
-6.74008e-06
0.000108247
-7.29291e-06
-2.13049e-05
0.000179852
-8.39735e-06
-3.70879e-05
0.000197535
-8.29645e-06
-5.2375e-05
0.000198545
-7.72175e-06
-6.70113e-05
0.00019609
-7.13756e-06
-8.14421e-05
0.000194208
-6.62969e-06
-9.63135e-05
0.000194155
-6.28409e-06
-0.00011243
0.000196564
-6.20707e-06
-0.00013083
0.000202009
-6.55274e-06
-0.0001529
0.000211094
-7.5583e-06
-0.000180493
0.000224427
-9.62814e-06
-0.000215992
0.00024241
-1.34621e-05
-0.000262247
0.00026484
-2.02164e-05
-0.000322023
0.000289834
-3.15653e-05
-0.000396712
0.000311789
-4.93028e-05
-0.000481822
0.000315593
-7.41333e-05
-0.000556358
0.000267215
-0.000102952
-0.000557973
9.93033e-05
-0.000124487
-0.000398242
-0.000200635
-0.000137396
-0.000488448
-0.000181051
-8.11227e-06
0.00012542
-9.06102e-06
-2.4221e-05
0.000206464
-1.05028e-05
-4.05589e-05
0.000224154
-1.02813e-05
-5.54111e-05
0.0002228
-9.40311e-06
-6.88008e-05
0.00021796
-8.48028e-06
-8.13384e-05
0.000214378
-7.6324e-06
-9.37703e-05
0.000213545
-6.95816e-06
-0.000106904
0.000216261
-6.56393e-06
-0.000121776
0.000223496
-6.61565e-06
-0.000139851
0.000236534
-7.3651e-06
-0.000163336
0.000257113
-9.20057e-06
-0.000195515
0.000287375
-1.27875e-05
-0.000241394
0.000329778
-1.90586e-05
-0.000308133
0.000385094
-2.85204e-05
-0.000405592
0.000448143
-3.88941e-05
-0.000539323
0.000489923
-4.05998e-05
-0.000697382
0.000439759
-1.44849e-05
-0.000789446
0.000136919
5.44484e-05
-0.000612187
-0.000475055
9.71604e-05
-0.00101942
-8.12124e-05
-1.12137e-05
0.00014848
-1.18467e-05
-2.98571e-05
0.00023899
-1.38828e-05
-4.67582e-05
0.0002546
-1.35446e-05
-6.06211e-05
0.000248825
-1.21618e-05
-7.20115e-05
0.000239921
-1.05711e-05
-8.17935e-05
0.000233192
-9.03193e-06
-9.06438e-05
0.000230114
-7.71856e-06
-9.9209e-05
0.000231595
-6.76885e-06
-0.000108259
0.000238857
-6.31083e-06
-0.000118868
0.000253698
-6.55555e-06
-0.000132939
0.000278937
-7.75326e-06
-0.000153661
0.00031825
-1.01519e-05
-0.000187522
0.000377012
-1.33735e-05
-0.000245961
0.000456968
-1.34351e-05
-0.000354884
0.000553374
3.69126e-06
-0.00054835
0.00061294
7.045e-05
-0.000842665
0.000511132
0.000222941
-0.00106088
-6.79605e-05
0.000423092
-0.000815343
-0.00116168
0.000441095
-0.00186317
2.84046e-05
-1.65601e-05
0.000180928
-1.58875e-05
-3.89782e-05
0.000279063
-1.76552e-05
-5.67927e-05
0.000289147
-1.67324e-05
-6.98907e-05
0.000276317
-1.43941e-05
-7.88714e-05
0.000260926
-1.20241e-05
-8.49195e-05
0.000249024
-9.7845e-06
-8.88502e-05
0.000241873
-7.82897e-06
-9.1082e-05
0.000240083
-6.25607e-06
-9.18069e-05
0.000244741
-5.15852e-06
-9.11043e-05
0.000257614
-4.61871e-06
-8.97068e-05
0.000282182
-4.64211e-06
-8.93683e-05
0.000322332
-4.42043e-06
-9.78452e-05
0.000386639
-1.15036e-06
-0.000132403
0.000475159
1.63665e-05
-0.000247607
0.000590862
7.77161e-05
-0.00051998
0.00064924
0.000236073
-0.000980669
0.000459673
0.000512148
-0.00125632
-0.000523089
0.000730781
-0.000946468
-0.00200677
0.000535235
-0.00275457
-5.50698e-05
-3.74735e-05
0.000242426
-2.40246e-05
-6.31396e-05
0.000332509
-2.77797e-05
-7.78978e-05
0.000329674
-2.57691e-05
-8.47214e-05
0.000304991
-2.18502e-05
-8.76723e-05
0.000281177
-1.73004e-05
-8.82592e-05
0.000262612
-1.30009e-05
-8.67477e-05
0.000249623
-9.26119e-06
-8.25282e-05
0.000242089
-6.22564e-06
-7.47057e-05
0.000240872
-3.95318e-06
-6.16314e-05
0.000246915
-2.37511e-06
-4.21155e-05
0.000263912
-1.24547e-06
-1.5612e-05
0.000294467
1.36174e-06
1.19014e-05
0.000348943
1.01824e-05
1.55092e-05
0.000427746
4.3806e-05
-7.1742e-05
0.000540065
0.000138048
-0.000358193
0.000585513
0.000350179
-0.000864498
0.000310661
0.000655317
-0.00118626
-0.000955326
0.000753999
-0.000975904
-0.00257184
0.000354708
-0.00348533
-0.000245141
-3.13895e-05
0.000313384
-3.95687e-05
-7.4318e-05
0.000413545
-3.81076e-05
-9.70613e-05
0.000385792
-3.33747e-05
-0.000107894
0.00034071
-2.48871e-05
-0.000108396
0.000299785
-1.81062e-05
-0.00010226
0.000268381
-1.19049e-05
-9.15047e-05
0.000245513
-6.64542e-06
-7.63283e-05
0.000229367
-2.45381e-06
-5.59988e-05
0.000219975
5.67225e-07
-2.77565e-05
0.000216068
2.60453e-06
1.1849e-05
0.000220712
3.59411e-06
6.57046e-05
0.000234189
6.42168e-06
0.000133923
0.000264764
1.59608e-05
0.000204752
0.000309486
4.74297e-05
0.000223346
0.00038016
0.000141311
6.92298e-05
0.000407378
0.000332251
-0.00033279
0.000133575
0.000579106
-0.000782028
-0.00109476
0.000588672
-0.000844694
-0.00271285
0.000203683
-0.00390134
-0.000428682
-0.000179531
0.000542688
-4.97727e-05
-0.000180183
0.000474643
-6.04456e-05
-0.000157438
0.000419666
-5.66188e-05
-0.000132573
0.00036141
-4.55652e-05
-0.000100337
0.000298671
-3.11217e-05
-6.56913e-05
0.000251709
-1.79732e-05
-3.04514e-05
0.000217887
-7.61425e-06
6.8298e-06
0.000192237
-1.51144e-07
4.67791e-05
0.000174899
5.12674e-06
9.33291e-05
0.000161717
7.80063e-06
0.000149588
0.000156619
7.83403e-06
0.000223166
0.000154024
6.58734e-06
0.000315244
0.000163546
9.13936e-06
0.000428393
0.000171897
2.44398e-05
0.000539231
0.000191214
7.81082e-05
0.000581064
0.000162249
0.000203296
0.000431993
-6.31519e-05
0.000345798
-8.09803e-05
-0.000967441
0.000385654
-0.000448568
-0.00246061
0.000115341
-0.00377248
-0.000577434
-0.000370585
0.00107948
-0.000166211
-0.000262341
0.000484912
-0.000118513
-0.000110644
0.000355131
-8.71621e-05
5.40495e-05
0.000253841
-5.71236e-05
0.000209125
0.000180769
-3.71734e-05
0.000349516
0.000132807
-2.14898e-05
0.000473279
0.00010327
-9.14622e-06
0.000583072
8.26779e-05
-2.34296e-07
0.000680429
7.0377e-05
7.16557e-06
0.000770813
6.00924e-05
1.12405e-05
0.000858386
5.71269e-05
1.19193e-05
0.00095134
5.24572e-05
8.61278e-06
0.00105524
5.54379e-05
4.21097e-06
0.00117506
4.99616e-05
2.11002e-06
0.0013208
3.88402e-05
6.63316e-06
0.00144013
-1.64577e-05
5.93828e-05
0.00145475
-0.000190521
0.000112747
0.00105752
-0.000718336
0.00014813
0.000279564
-0.00170901
2.63512e-05
-0.00277363
-0.000719281
0.00122738
-0.000147897
0.00186966
-0.000157363
0.00237928
-0.00015449
0.00277194
-0.000138818
0.00307304
-0.000120331
0.00331019
-0.000104346
0.00350304
-8.95771e-05
0.00366237
-7.6652e-05
0.00379801
-6.52697e-05
0.00391427
-5.61655e-05
0.00401879
-4.73967e-05
0.00411458
-4.33251e-05
0.00420645
-3.6432e-05
0.00429279
-3.63828e-05
0.00435848
-2.68442e-05
0.00436852
-2.65037e-05
0.00418399
-5.98506e-06
0.00350396
-3.83085e-05
0.0018976
-0.000102648
-0.000876036
-4.11585e-06
4.54793e-06
-9.07873e-07
-1.31845e-05
9.67375e-06
-6.58096e-07
-2.38385e-05
1.1266e-05
-4.61707e-07
-3.47628e-05
1.15187e-05
-3.384e-07
-4.55107e-05
1.13351e-05
-3.27106e-07
-5.58789e-05
1.09687e-05
-4.03605e-07
-6.56697e-05
1.04265e-05
-5.56061e-07
-7.46196e-05
9.65359e-06
-7.87445e-07
-8.23874e-05
8.57799e-06
-1.1077e-06
-8.85603e-05
7.12056e-06
-1.52726e-06
-9.26479e-05
5.20736e-06
-2.05443e-06
-9.41034e-05
2.78097e-06
-2.69097e-06
-9.23706e-05
-1.8064e-07
-3.42814e-06
-8.69437e-05
-3.63389e-06
-4.23196e-06
-7.74799e-05
-7.42735e-06
-5.04506e-06
-6.39531e-05
-1.12747e-05
-5.7754e-06
-4.68786e-05
-1.4663e-05
-6.28582e-06
-2.77195e-05
-1.66661e-05
-6.40414e-06
-9.69513e-06
-1.55747e-05
-5.96891e-06
-7.70126e-06
-3.87318e-06
-9.48108e-06
1.46066e-05
-2.02064e-06
-2.65173e-05
2.7613e-05
-2.04148e-06
-4.59165e-05
3.15649e-05
-1.84769e-06
-6.55778e-05
3.20347e-05
-1.64311e-06
-8.46838e-05
3.12704e-05
-1.54382e-06
-0.000102785
2.99073e-05
-1.53765e-06
-0.000119472
2.79985e-05
-1.61774e-06
-0.00013428
2.54385e-05
-1.79375e-06
-0.000146665
2.20796e-05
-2.08204e-06
-0.000155991
1.77586e-05
-2.5004e-06
-0.000161533
1.23167e-05
-3.06323e-06
-0.000162518
5.64517e-06
-3.77698e-06
-0.000158215
-2.23663e-06
-4.64044e-06
-0.000147909
-1.1307e-05
-5.5999e-06
-0.000131201
-2.11122e-05
-6.58355e-06
-0.000108159
-3.09465e-05
-7.47166e-06
-7.96462e-05
-3.95477e-05
-8.07787e-06
-4.79245e-05
-4.46272e-05
-8.17574e-06
-1.78393e-05
-4.19996e-05
-7.52896e-06
-2.273e-05
-4.59981e-06
-1.16031e-05
2.69155e-05
-2.65542e-06
-3.19092e-05
4.90334e-05
-2.85357e-06
-5.4803e-05
5.55752e-05
-2.6718e-06
-7.78634e-05
5.61575e-05
-2.42151e-06
-0.000100172
5.46028e-05
-2.26593e-06
-0.000121222
5.19796e-05
-2.2007e-06
-0.000140558
4.83984e-05
-2.22378e-06
-0.000157676
4.37109e-05
-2.35095e-06
-0.000171985
3.76933e-05
-2.60562e-06
-0.000182798
3.00923e-05
-3.01374e-06
-0.000189331
2.06616e-05
-3.59874e-06
-0.000190727
9.21978e-06
-4.3766e-06
-0.000186035
-4.31718e-06
-5.34731e-06
-0.000174421
-1.98283e-05
-6.46165e-06
-0.000155298
-3.66504e-05
-7.64326e-06
-0.000128586
-5.36224e-05
-8.74634e-06
-9.51314e-05
-6.86136e-05
-9.53562e-06
-5.75062e-05
-7.767e-05
-9.71376e-06
-2.1513e-05
-7.35197e-05
-8.97037e-06
-4.0833e-05
-5.43333e-06
-1.24048e-05
4.01701e-05
-3.1899e-06
-3.41551e-05
7.21195e-05
-3.55674e-06
-5.86207e-05
8.13865e-05
-3.39598e-06
-8.32491e-05
8.20674e-05
-3.11878e-06
-0.000107114
7.97004e-05
-2.92718e-06
-0.00012973
7.58176e-05
-2.82419e-06
-0.000150666
7.05945e-05
-2.81352e-06
-0.000169439
6.38396e-05
-2.91839e-06
-0.000185472
5.5245e-05
-3.17115e-06
-0.000198059
4.44458e-05
-3.60862e-06
-0.000206354
3.10634e-05
-4.26695e-06
-0.000209368
1.47841e-05
-5.17805e-06
-0.000205998
-4.58576e-06
-6.36472e-06
-0.000195006
-2.71058e-05
-7.77888e-06
-0.000175399
-5.18783e-05
-9.33045e-06
-0.000146675
-7.73272e-05
-1.08404e-05
-0.000109443
-0.000100295
-1.19944e-05
-6.65343e-05
-0.000114703
-1.23807e-05
-2.4892e-05
-0.000109386
-1.15508e-05
-6.13532e-05
-7.08476e-06
-1.28493e-05
5.40345e-05
-3.68241e-06
-3.55907e-05
9.64485e-05
-4.21607e-06
-6.12081e-05
0.000108611
-4.07988e-06
-8.70541e-05
0.00010945
-3.78724e-06
-0.000112223
0.000106348
-3.57737e-06
-0.000136283
0.00010134
-3.46089e-06
-0.000158866
9.46767e-05
-3.44822e-06
-0.000179549
8.61269e-05
-3.57126e-06
-0.000197798
7.52888e-05
-3.8741e-06
-0.000212917
6.16548e-05
-4.40926e-06
-0.000223997
4.46527e-05
-5.23314e-06
-0.000229871
2.373e-05
-6.40037e-06
-0.000229162
-1.4949e-06
-7.95452e-06
-0.000220113
-3.15209e-05
-9.87875e-06
-0.000201055
-6.53559e-05
-1.20728e-05
-0.000170717
-0.000101122
-1.43124e-05
-0.000129135
-0.000134481
-1.61615e-05
-7.92856e-05
-0.00015658
-1.69854e-05
-2.98069e-05
-0.000150954
-1.60545e-05
-8.52367e-05
-1.00201e-05
-1.32877e-05
6.85286e-05
-4.20148e-06
-3.70535e-05
0.000122093
-4.91507e-06
-6.38932e-05
0.00013736
-4.80727e-06
-9.10545e-05
0.000138443
-4.50465e-06
-0.000117662
0.000134721
-4.28558e-06
-0.000143363
0.000128783
-4.16952e-06
-0.000167883
0.000120979
-4.17536e-06
-0.000190898
0.000111046
-4.34614e-06
-0.000211966
9.84863e-05
-4.74121e-06
-0.000230445
8.26246e-05
-5.43472e-06
-0.000245402
6.26301e-05
-6.51315e-06
-0.000255509
3.75873e-05
-8.06876e-06
-0.000259014
6.71268e-06
-1.01798e-05
-0.000253555
-3.10888e-05
-1.29323e-05
-0.000236384
-7.52401e-05
-1.61772e-05
-0.00020497
-0.000123758
-1.96642e-05
-0.000158178
-0.000171081
-2.27766e-05
-9.87599e-05
-0.00020477
-2.44992e-05
-3.77092e-05
-0.00020073
-2.35066e-05
-0.000114624
-1.48929e-05
-1.3811e-05
8.37738e-05
-4.8051e-06
-3.87668e-05
0.000149274
-5.72901e-06
-6.70091e-05
0.000167869
-5.65283e-06
-9.56555e-05
0.000169267
-5.33722e-06
-0.00012387
0.000165035
-5.10576e-06
-0.000151401
0.000158383
-4.98913e-06
-0.000178108
0.000149795
-5.01745e-06
-0.000203823
0.000139005
-5.24848e-06
-0.000228261
0.000125435
-5.76217e-06
-0.000250919
0.000108236
-6.66326e-06
-0.000270939
8.62691e-05
-8.08332e-06
-0.000286917
5.81309e-05
-1.0173e-05
-0.00029668
2.23092e-05
-1.30845e-05
-0.00029725
-2.29344e-05
-1.70539e-05
-0.000284408
-7.84873e-05
-2.19916e-05
-0.000253602
-0.000142637
-2.75895e-05
-0.000201441
-0.000208945
-3.30099e-05
-0.000129406
-0.000260634
-3.66131e-05
-5.11919e-05
-0.000262508
-3.58177e-05
-0.000153889
-2.30022e-05
-1.4439e-05
9.9927e-05
-5.54042e-06
-4.07813e-05
0.000178268
-6.72084e-06
-7.06057e-05
0.000200395
-6.67623e-06
-0.000100866
0.000202122
-6.33403e-06
-0.000130774
0.000197435
-6.07264e-06
-0.000160206
0.000190259
-5.93758e-06
-0.000189202
0.000181264
-5.9736e-06
-0.000217813
0.000170233
-6.25729e-06
-0.00024601
0.000156553
-6.89576e-06
-0.000273565
0.000139233
-8.03589e-06
-0.000299856
0.000116824
-9.87569e-06
-0.000323593
8.73457e-05
-1.26704e-05
-0.00034238
4.83053e-05
-1.67408e-05
-0.00035272
-2.98263e-06
-2.2428e-05
-0.000348547
-7.01438e-05
-2.99391e-05
-0.000322484
-0.000152533
-3.90315e-05
-0.00026711
-0.000244181
-4.86553e-05
-0.00018017
-0.000324015
-5.62027e-05
-7.6391e-05
-0.000341992
-5.65705e-05
-0.000213184
-3.70351e-05
-1.51987e-05
0.000117193
-6.45867e-06
-4.3148e-05
0.000209399
-7.95892e-06
-7.47123e-05
0.000235198
-7.94019e-06
-0.000106641
0.000237151
-7.54366e-06
-0.000138199
0.000231955
-7.21656e-06
-0.000169423
0.000224357
-7.02378e-06
-0.000200576
0.000215292
-7.02855e-06
-0.000232004
0.000204666
-7.33017e-06
-0.000264052
0.000191925
-8.06878e-06
-0.000296941
0.000176034
-9.44493e-06
-0.000330559
0.000155321
-1.17465e-05
-0.000364102
0.000127262
-1.53784e-05
-0.0003955
8.82768e-05
-2.08699e-05
-0.000420684
3.38195e-05
-2.87946e-05
-0.00043267
-4.20443e-05
-4.0183e-05
-0.000420379
-0.000143293
-5.498e-05
-0.000369983
-0.000266564
-7.20726e-05
-0.00027034
-0.0003896
-8.76212e-05
-0.00012863
-0.000448008
-9.19192e-05
-0.000318172
-6.26963e-05
-1.61615e-05
0.000135877
-7.62905e-06
-4.59983e-05
0.000243094
-9.53263e-06
-7.94497e-05
0.000272564
-9.52497e-06
-0.000113016
0.00027444
-9.02669e-06
-0.000146024
0.000268484
-8.57337e-06
-0.000178696
0.000260397
-8.25501e-06
-0.000211562
0.000251463
-8.15718e-06
-0.000245327
0.000241816
-8.40423e-06
-0.000280828
0.000231103
-9.17232e-06
-0.000318947
0.000218437
-1.07226e-05
-0.00036044
0.00020216
-1.34526e-05
-0.000405559
0.000179458
-1.79661e-05
-0.00045337
0.000145844
-2.51399e-05
-0.000500443
9.46965e-05
-3.61939e-05
-0.000540581
1.78034e-05
-5.25531e-05
-0.000559578
-9.66844e-05
-7.54939e-05
-0.00053541
-0.000253718
-0.000104402
-0.00043769
-0.000441417
-0.000133561
-0.000243266
-0.000595436
-0.000146229
-0.000533921
-0.000107541
-1.74816e-05
0.000156478
-9.15598e-06
-4.9615e-05
0.000279959
-1.15712e-05
-8.51178e-05
0.00031284
-1.15447e-05
-0.0001202
0.000314023
-1.08688e-05
-0.000154276
0.000306758
-1.01947e-05
-0.000187783
0.000297839
-9.64483e-06
-0.000221536
0.000288977
-9.33075e-06
-0.000256631
0.000280646
-9.40077e-06
-0.000294464
0.000272866
-1.00632e-05
-0.000336756
0.000265194
-1.16349e-05
-0.00038552
0.000256429
-1.46216e-05
-0.000442833
0.000244079
-1.98401e-05
-0.000510276
0.000223544
-2.85751e-05
-0.00058787
0.000187151
-4.26558e-05
-0.000671659
0.000123234
-6.42808e-05
-0.000751879
1.51569e-05
-9.62011e-05
-0.00079293
-0.000171269
-0.00013658
-0.000725687
-0.0004635
-0.000175146
-0.000456355
-0.000829168
-0.000190097
-0.000977795
-0.00015993
-1.94611e-05
0.000179853
-1.1207e-05
-5.45331e-05
0.000320911
-1.4277e-05
-9.22997e-05
0.000356493
-1.41825e-05
-0.000128685
0.000355897
-1.32105e-05
-0.000163249
0.000346354
-1.2169e-05
-0.00019668
0.000335868
-1.12276e-05
-0.000230078
0.00032662
-1.05291e-05
-0.000264896
0.000319496
-1.024e-05
-0.000303059
0.000315063
-1.05865e-05
-0.00034717
0.000313662
-1.19155e-05
-0.000400747
0.000315173
-1.47952e-05
-0.000468447
0.000318496
-2.0179e-05
-0.00055614
0.00032063
-2.96095e-05
-0.000670377
0.000315022
-4.51995e-05
-0.000815648
0.000287793
-6.85905e-05
-0.000981988
0.000204745
-9.73817e-05
-0.00111903
-1.65323e-05
-0.000120647
-0.00108904
-0.000500468
-0.000117512
-0.000716759
-0.00123692
-0.00010192
-0.00172589
-0.000149712
-2.26231e-05
0.000207459
-1.4044e-05
-6.16502e-05
0.000367341
-1.7906e-05
-0.000101999
0.000404175
-1.76152e-05
-0.000139402
0.000400052
-1.61554e-05
-0.000173665
0.000386688
-1.45515e-05
-0.000205795
0.000373386
-1.30198e-05
-0.000237166
0.000362758
-1.17246e-05
-0.000269467
0.000356067
-1.08339e-05
-0.000304921
0.000354468
-1.05664e-05
-0.00034676
0.000359374
-1.12378e-05
-0.000399817
0.000372374
-1.33452e-05
-0.000471377
0.000394941
-1.7672e-05
-0.000572226
0.000427638
-2.52178e-05
-0.000716446
0.000466657
-3.59354e-05
-0.00091588
0.000492598
-4.42646e-05
-0.0011554
0.000434456
-3.07891e-05
-0.00135932
0.000131996
4.09089e-05
-0.00134046
-0.00064021
0.000175323
-0.000863594
-0.00182414
0.000207514
-0.00262474
-4.59627e-05
-2.8428e-05
0.000242296
-1.82559e-05
-7.3023e-05
0.000421376
-2.33226e-05
-0.000115955
0.000456339
-2.27766e-05
-0.000153456
0.00044594
-2.05485e-05
-0.000186243
0.000426866
-1.79627e-05
-0.000215741
0.000409244
-1.53922e-05
-0.000243345
0.00039573
-1.30864e-05
-0.000270643
0.00038783
-1.12338e-05
-0.000299807
0.000387316
-9.99478e-06
-0.000334078
0.000396651
-9.56198e-06
-0.000378711
0.000419408
-1.01547e-05
-0.000442133
0.000460007
-1.17962e-05
-0.000537693
0.000523089
-1.32639e-05
-0.000681551
0.000605049
-7.96899e-06
-0.000887647
0.000675391
2.69946e-05
-0.00114129
0.000618672
0.000139877
-0.00138241
0.000220695
0.000375363
-0.00138409
-0.0008398
0.000624359
-0.000860785
-0.00239683
0.000490483
-0.00344266
-1.44563e-05
-3.57257e-05
0.000286276
-2.41415e-05
-8.78333e-05
0.000485709
-2.98805e-05
-0.000134981
0.000515341
-2.85868e-05
-0.00017382
0.000495416
-2.50317e-05
-0.00020474
0.000466972
-2.12092e-05
-0.000229911
0.000442067
-1.74369e-05
-0.000251217
0.000423172
-1.39657e-05
-0.000270202
0.000411499
-1.09394e-05
-0.000288404
0.000408798
-8.43832e-06
-0.000307889
0.000417958
-6.44078e-06
-0.000332626
0.000444137
-4.63316e-06
-0.00036906
0.000493592
-1.57165e-06
-0.000429699
0.000574997
7.58064e-06
-0.000529918
0.000682409
3.92251e-05
-0.000693658
0.000782465
0.000134383
-0.000921528
0.000722789
0.000359826
-0.00119302
0.000284007
0.00072033
-0.00122232
-0.000982049
0.000902327
-0.000757522
-0.00275795
0.000431559
-0.0041136
-0.000141654
-6.89944e-05
0.00036544
-3.41948e-05
-0.000127756
0.000559265
-4.25747e-05
-0.000170454
0.000572459
-4.01884e-05
-0.000200627
0.00053859
-3.48509e-05
-0.000223976
0.000501567
-2.85468e-05
-0.000242555
0.00046988
-2.22351e-05
-0.000257039
0.000444787
-1.63927e-05
-0.00026732
0.000426815
-1.126e-05
-0.000273308
0.000417699
-6.8672e-06
-0.000274627
0.000419874
-2.97195e-06
-0.000272129
0.000439211
1.18254e-06
-0.000267309
0.000481537
8.59723e-06
-0.000268585
0.000559311
2.71438e-05
-0.000284051
0.00066202
7.96611e-05
-0.000353524
0.000776945
0.00021304
-0.000490819
0.00072589
0.000484372
-0.000706877
0.000320384
0.000834998
-0.000793891
-0.000981979
0.000840943
-0.000525208
-0.00286839
0.000196468
-0.00458166
-0.000302284
-4.88809e-05
0.000426556
-5.18035e-05
-0.000138252
0.000669347
-5.88195e-05
-0.00020124
0.000655051
-5.29786e-05
-0.000241093
0.000596202
-4.26456e-05
-0.000264001
0.000539563
-3.3194e-05
-0.000274944
0.000492973
-2.40549e-05
-0.000277011
0.000455988
-1.57795e-05
-0.000271167
0.000427073
-8.55597e-06
-0.000257363
0.000406938
-2.47471e-06
-0.00023287
0.000395377
2.60834e-06
-0.000195633
0.000397873
7.69558e-06
-0.000139776
0.000415633
1.64682e-05
-6.33998e-05
0.000462739
3.61565e-05
2.68171e-05
0.000531057
8.81758e-05
0.000125464
0.000612236
0.000207374
0.00015018
0.000594466
0.000438959
7.44011e-05
0.000286264
0.000689005
-0.000143254
-0.000794508
0.000618856
-0.000114389
-0.00277188
7.83075e-05
-0.0047002
-0.000424537
-0.000194952
0.000632948
-6.12124e-05
-0.000234371
0.000727619
-7.92984e-05
-0.000266325
0.000707403
-7.70162e-05
-0.000290405
0.000639292
-6.45743e-05
-0.000290265
0.000556695
-4.83938e-05
-0.00027227
0.00048973
-3.27251e-05
-0.000241862
0.000437035
-1.90685e-05
-0.00020036
0.000393331
-7.91158e-06
-0.00014975
0.000360717
7.36749e-07
-8.7035e-05
0.000333622
6.84102e-06
-1.10214e-05
0.000318847
1.08463e-05
8.41393e-05
0.000311091
1.59691e-05
0.000207149
0.000322654
2.62152e-05
0.00036419
0.000343032
5.54244e-05
0.000559401
0.000372443
0.00012269
0.00074119
0.000352379
0.000263594
0.000895954
9.54948e-05
0.000381803
0.000760748
-0.000629648
0.000356
0.000481249
-0.00241691
3.98701e-05
-0.00430922
-0.000487165
-0.000666902
0.00128959
-0.000155955
-0.00062912
0.000711473
-0.000140148
-0.000491993
0.000594602
-0.000111489
-0.000300815
0.000476482
-8.54921e-05
-0.000100566
0.000384673
-6.54007e-05
9.7317e-05
0.000317614
-4.72569e-05
0.000285738
0.000271031
-3.15632e-05
0.000463491
0.00023365
-1.83058e-05
0.000631315
0.000207311
-7.25227e-06
0.000790778
0.000184282
1.11843e-06
0.000945854
0.000169906
5.78322e-06
0.00109988
0.000158339
7.33616e-06
0.00126615
0.000152926
7.67409e-06
0.00144664
0.000151349
1.3295e-05
0.00167531
0.000131625
1.8787e-05
0.00191838
9.2511e-05
7.61836e-05
0.00211566
-0.000100772
0.000111729
0.00209397
-0.000545023
8.51917e-05
0.00141643
-0.00169481
-1.8201e-05
-0.00308992
-0.00052215
0.00127028
-0.000128584
0.00197172
-0.000147334
0.00256187
-0.000150038
0.00304207
-0.000142532
0.00343772
-0.000131304
0.00377027
-0.000119288
0.00405912
-0.000107393
0.00431189
-9.57731e-05
0.00453863
-8.46949e-05
0.00474211
-7.53651e-05
0.00492928
-6.46664e-05
0.00510379
-5.94971e-05
0.00526961
-4.9318e-05
0.00543418
-4.96092e-05
0.00557516
-3.61977e-05
0.00568662
-4.54486e-05
0.00559993
-2.00665e-05
0.00509313
-7.65397e-05
0.00339552
-9.98454e-05
-0.000570434
-4.66511e-06
4.87274e-06
-1.1155e-06
-1.50147e-05
1.09e-05
-1.20848e-06
-2.71515e-05
1.2787e-05
-1.11185e-06
-3.95111e-05
1.30432e-05
-1.02203e-06
-5.15798e-05
1.27551e-05
-1.01353e-06
-6.31353e-05
1.2237e-05
-1.08505e-06
-7.39597e-05
1.15042e-05
-1.23583e-06
-8.37698e-05
1.04957e-05
-1.47306e-06
-9.22043e-05
9.1345e-06