/*--------------------------------*- C++ -*----------------------------------*\
  =========                 |
  \\      /  F ield         | OpenFOAM: The Open Source CFD Toolbox
   \\    /   O peration     | Website:  https://openfoam.org
    \\  /    A nd           | Version:  10
     \\/     M anipulation  |
\*---------------------------------------------------------------------------*/
FoamFile
{
    format      ascii;
    class       surfaceScalarField;
    location    "7.75";
    object      phi;
}
// * * * * * * * * * * * * * * * * * * * * * * * * * * * * * * * * * * * * * //

dimensions      [0 3 -1 0 0 0 0];

internalField   nonuniform List<scalar> 
760
(
-1.17013e-05
1.17013e-05
-3.77763e-05
2.60751e-05
-6.90769e-05
3.13005e-05
-0.000101895
3.28179e-05
-0.000135035
3.31402e-05
-0.000168107
3.3072e-05
-0.000200727
3.26204e-05
-0.000232236
3.15082e-05
-0.000261578
2.93426e-05
-0.000287231
2.56532e-05
-0.00030715
1.9919e-05
-0.000318775
1.16249e-05
-0.00031916
3.84919e-07
-0.000305245
-1.39147e-05
-0.000274638
-3.0608e-05
-0.000226598
-4.80391e-05
-0.000163602
-6.29966e-05
-9.3154e-05
-7.04479e-05
-2.95981e-05
-6.35559e-05
-2.95981e-05
-2.78576e-05
3.95589e-05
-7.86686e-05
7.68861e-05
-0.000137797
9.04285e-05
-0.000199123
9.41447e-05
-0.00026027
9.42872e-05
-0.000320089
9.28902e-05
-0.000377533
9.00644e-05
-0.000431235
8.52103e-05
-0.00047932
7.74277e-05
-0.000519293
6.56267e-05
-0.000547984
4.86099e-05
-0.000561528
2.51688e-05
-0.000555983
-5.1604e-06
-0.000526876
-4.30218e-05
-0.000471116
-8.6368e-05
-0.000388066
-0.000131088
-0.000281806
-0.000169257
-0.000164032
-0.000188222
-5.65893e-05
-0.000170999
-8.61874e-05
-3.51196e-05
7.46785e-05
-9.73182e-05
0.000139085
-0.000168898
0.000162008
-0.000242591
0.000167837
-0.000315613
0.00016731
-0.000386612
0.000163889
-0.000454389
0.000157841
-0.000517442
0.000148264
-0.000573759
0.000133744
-0.000620658
0.000112526
-0.000654698
8.265e-05
-0.000671753
4.2223e-05
-0.000666705
-1.02078e-05
-0.000634199
-7.55285e-05
-0.000569784
-0.000150783
-0.000471589
-0.000229284
-0.000343499
-0.000297347
-0.000199535
-0.000332186
-6.77031e-05
-0.00030283
-0.000153891
-3.78906e-05
0.000112569
-0.000105061
0.000206255
-0.000182132
0.000239079
-0.000261349
0.000247055
-0.00033992
0.000245881
-0.000416617
0.000240586
-0.000490417
0.000231641
-0.000560026
0.000217873
-0.00062364
0.000197359
-0.000678723
0.000167609
-0.000721757
0.000125684
-0.000748055
6.85211e-05
-0.000751866
-6.39704e-06
-0.000725525
-0.00010187
-0.000661716
-0.000214591
-0.000555171
-0.000335828
-0.000407543
-0.000444975
-0.000235369
-0.00050436
-7.62338e-05
-0.000461966
-0.000230124
-3.87859e-05
0.000151355
-0.000108304
0.000275773
-0.000188237
0.000319012
-0.000270619
0.000329436
-0.000352812
0.000328073
-0.000433896
0.000321671
-0.000513245
0.000310989
-0.000590017
0.000294646
-0.000662883
0.000270224
-0.000729704
0.00023443
-0.000787117
0.000183097
-0.000829981
0.000111386
-0.000851139
1.4761e-05
-0.000840383
-0.000112626
-0.000785426
-0.000269548
-0.000674712
-0.000446543
-0.00050401
-0.000615677
-0.000290157
-0.000718213
-8.79807e-05
-0.000664142
-0.000318105
-3.90301e-05
0.000190385
-0.00011
0.000346743
-0.000191979
0.000400992
-0.000276861
0.000414318
-0.000362239
0.000413452
-0.000447626
0.000407058
-0.000532965
0.000396328
-0.000618113
0.000379794
-0.000702531
0.000354642
-0.000784879
0.000316778
-0.000862411
0.000260629
-0.000930073
0.000179048
-0.000979195
6.38828e-05
-0.000997283
-9.45378e-05
-0.000964981
-0.000301851
-0.000860114
-0.000551409
-0.000664613
-0.000811178
-0.000386608
-0.000996218
-0.00010981
-0.00094094
-0.000427915
-3.90353e-05
0.00022942
-0.000111169
0.000418876
-0.000194916
0.000484739
-0.000282011
0.000501413
-0.000370312
0.000501753
-0.000459858
0.000496604
-0.000551331
0.0004878
-0.000645554
0.000474018
-0.000743198
0.000452286
-0.000844338
0.000417917
-0.0009477
0.000363991
-0.00104942
0.000280765
-0.00114101
0.000155478
-0.00120904
-2.65053e-05
-0.00122635
-0.000284543
-0.00115518
-0.000622585
-0.000946553
-0.0010198
-0.000573536
-0.00136923
-0.000161929
-0.00135255
-0.000589844
-3.88907e-05
0.000268311
-0.000112043
0.000492029
-0.000197311
0.000570007
-0.000286193
0.000590295
-0.000376804
0.000592363
-0.000469762
0.000589562
-0.000566632
0.000584671
-0.000669484
0.00057687
-0.000780687
0.000563488
-0.000902583
0.000539813
-0.00103681
0.000498214
-0.00118299
0.000426945
-0.00133646
0.000308951
-0.00148492
0.000121952
-0.00160262
-0.000166838
-0.00162682
-0.000598381
-0.00144354
-0.00120309
-0.000940326
-0.00187244
-0.000294594
-0.00199828
-0.000884437
-3.86421e-05
0.000306953
-0.000112706
0.000566093
-0.000199141
0.000656442
-0.000289074
0.000680228
-0.00038083
0.000684118
-0.000475607
0.000684339
-0.000575904
0.000684968
-0.000685214
0.000686179
-0.000808059
0.000686334
-0.00094999
0.000681744
-0.00111731
0.000665538
-0.00131648
0.000626108
-0.00155283
0.000545302
-0.0018261
0.000395219
-0.00211846
0.000125525
-0.00232885
-0.000387988
-0.00222003
-0.00131191
-0.0015598
-0.00253268
-0.000585474
-0.00297261
-0.00146991
-3.84408e-05
0.000345394
-0.000113435
0.000641087
-0.000200608
0.000743615
-0.000290536
0.000770156
-0.000381667
0.00077525
-0.000475707
0.000778378
-0.000576013
0.000785274
-0.000687455
0.000797621
-0.000816811
0.00081569
-0.000973436
0.000838369
-0.00117021
0.000862314
-0.00142474
0.000880635
-0.00176017
0.000880732
-0.00219859
0.000833641
-0.00271386
0.000640792
-0.0031417
3.98522e-05
-0.00310722
-0.00134639
-0.00233964
-0.00330025
-0.0010943
-0.00421795
-0.00256421
-3.86527e-05
0.000384047
-0.000114932
0.000717367
-0.000202465
0.000831148
-0.000291102
0.000858793
-0.000379292
0.00086344
-0.000469102
0.000868188
-0.000564481
0.000880654
-0.000671275
0.000904415
-0.000798033
0.000942449
-0.000957474
0.00099781
-0.00116896
0.0010738
-0.00146213
0.00117381
-0.00187792
0.00129653
-0.00244921
0.00140492
-0.00312157
0.00131316
-0.00363363
0.000551908
-0.00363887
-0.00134115
-0.00297996
-0.00395916
-0.0017216
-0.00547631
-0.00428581
-4.00358e-05
0.000424082
-0.000118631
0.000795961
-0.000206351
0.000918868
-0.000292264
0.000944706
-0.000374824
0.000945999
-0.000456267
0.000949632
-0.000540682
0.000965068
-0.000634054
0.000997787
-0.000745367
0.00105376
-0.000888512
0.00114096
-0.00108538
0.00127067
-0.00136931
0.00145774
-0.00178158
0.0017088
-0.00233359
0.00195693
-0.00293613
0.0019157
-0.0033542
0.000969978
-0.00339549
-0.00129987
-0.00301497
-0.00433967
-0.00196035
-0.00653094
-0.00624615
-4.36681e-05
0.000467751
-0.000126564
0.000878857
-0.000214852
0.00100716
-0.000296882
0.00102674
-0.000371069
0.00102019
-0.000439669
0.00101823
-0.000506468
0.00103187
-0.000576254
0.00106757
-0.000655999
0.00113351
-0.000756302
0.00124126
-0.000893241
0.00140761
-0.00108803
0.00165253
-0.00136171
0.00198248
-0.00170036
0.00229558
-0.00203773
0.00225307
-0.00226011
0.00119236
-0.00235995
-0.00120002
-0.00231363
-0.00438599
-0.00166117
-0.0071834
-0.00790733
-5.30776e-05
0.000520828
-0.000144229
0.000970009
-0.000232804
0.00109573
-0.00030827
0.0011022
-0.000370889
0.0010828
-0.000423108
0.00107045
-0.000467136
0.00107589
-0.000505592
0.00110603
-0.000541527
0.00116944
-0.000578673
0.0012784
-0.000621621
0.00145055
-0.000671206
0.00170211
-0.000725684
0.00203696
-0.000760815
0.00233071
-0.000789466
0.00228172
-0.000819128
0.00122202
-0.000953557
-0.0010656
-0.00125783
-0.00408171
-0.00112878
-0.00731245
-0.0090361
-6.49415e-05
0.00058577
-0.000168075
0.00107314
-0.000261379
0.00118903
-0.000334766
0.00117559
-0.000386292
0.00113433
-0.000419309
0.00110347
-0.000436189
0.00109278
-0.000437728
0.00110757
-0.000422943
0.00115466
-0.000388355
0.00124382
-0.000327378
0.00138958
-0.000224396
0.00159913
-5.87035e-05
0.00187127
0.000165739
0.00210626
0.000411846
0.00203561
0.000497623
0.00113624
0.000284133
-0.000852106
-0.00036455
-0.00343303
-0.000673925
-0.00700308
-0.00971003
-0.000132486
0.000718256
-0.000250196
0.00119085
-0.000328767
0.00126761
-0.000376592
0.00122341
-0.00040401
0.00116175
-0.000414541
0.001114
-0.000406852
0.00108509
-0.000376929
0.00107765
-0.000318804
0.00109653
-0.000222889
0.0011479
-7.58215e-05
0.00124251
0.000141212
0.0013821
0.000447081
0.0015654
0.000843052
0.00171029
0.00123613
0.00164253
0.00140249
0.000969883
0.00112623
-0.000575847
0.000293296
-0.00260009
-0.00027879
-0.00643099
-0.00998882
-8.57668e-05
0.000804022
-0.0002684
0.00137349
-0.000387478
0.00138668
-0.000450703
0.00128664
-0.000473573
0.00118462
-0.000466196
0.00110662
-0.000431243
0.00105013
-0.00036629
0.00101269
-0.00026549
0.000995732
-0.000117024
0.000999436
9.37564e-05
0.00103173
0.000382772
0.00109308
0.000766231
0.00118194
0.00123391
0.00124261
0.00168967
0.00118677
0.00189482
0.000764729
0.00158846
-0.000269489
0.000770547
-0.00178218
0.0001362
-0.00579665
-0.00985262
-0.000381117
0.00118514
-0.000444291
0.00143666
-0.000500664
0.00144306
-0.000546643
0.00133262
-0.000545766
0.00118374
-0.000503995
0.00106485
-0.000425393
0.000971532
-0.000308478
0.000895777
-0.000153825
0.000841079
4.67718e-05
0.000798839
0.000298984
0.000779516
0.000617516
0.000774548
0.00100511
0.000794352
0.00144036
0.000807359
0.00187053
0.000756607
0.00210268
0.000532578
0.00203535
-0.000202163
0.00160417
-0.001351
0.00088349
-0.00507596
-0.00896913
-0.00136219
0.00254733
-0.00132679
0.00140126
-0.00107141
0.00118767
-0.000704246
0.000965459
-0.000316195
0.00079569
7.62282e-05
0.000672428
0.000461405
0.000586355
0.000838518
0.000518664
0.00120963
0.000469965
0.00157911
0.000429357
0.00195611
0.00040252
0.00234785
0.000382813
0.00277391
0.000368285
0.00322963
0.000351646
0.00370539
0.000280839
0.00408746
0.00015051
0.00419389
-0.000308588
0.00401165
-0.00116876
0.00253873
-0.00360304
-0.0064304
0.00254733
0.00394859
0.00513626
0.00610172
0.00689741
0.00756984
0.00815619
0.00867486
0.00914482
0.00957418
0.0099767
0.0103595
0.0107278
0.0110794
0.0113603
0.0115108
0.0112022
0.0100334
0.0064304
)
;

boundaryField
{
    movingWall
    {
        type            calculated;
        value           uniform 0;
    }
    fixedWalls
    {
        type            calculated;
        value           uniform 0;
    }
    frontAndBack
    {
        type            empty;
        value           nonuniform List<scalar> 0();
    }
}


// ************************************************************************* //
