/*--------------------------------*- C++ -*----------------------------------*\
  =========                 |
  \\      /  F ield         | OpenFOAM: The Open Source CFD Toolbox
   \\    /   O peration     | Website:  https://openfoam.org
    \\  /    A nd           | Version:  10
     \\/     M anipulation  |
\*---------------------------------------------------------------------------*/
FoamFile
{
    format      ascii;
    class       volScalarField;
    location    "1.675";
    object      p;
}
// * * * * * * * * * * * * * * * * * * * * * * * * * * * * * * * * * * * * * //

dimensions      [0 2 -2 0 0 0 0];

internalField   nonuniform List<scalar> 
8000
(
-8.65552e-10
9.74759e-06
9.26081e-05
0.000230161
0.000422184
0.000665067
0.000953806
0.0012822
0.00164284
0.00202716
0.0024255
0.00282724
0.00322096
0.00359475
0.0039366
0.00423483
0.00447864
0.00465892
0.00477158
0.00479425
-1.46079e-05
-4.57925e-06
7.8854e-05
0.000216372
0.000408397
0.000651495
0.000940792
0.00127018
0.00163234
0.00201873
0.00241963
0.00282458
0.00322194
0.00359967
0.00394556
0.00424767
0.00449494
0.00467799
0.00479297
0.00481561
-0.000102588
-9.32727e-05
-7.69397e-06
0.000133397
0.000330673
0.000580777
0.00087885
0.00121879
0.00159321
0.00199348
0.00240985
0.00283138
0.00324605
0.00364134
0.00400435
0.00432233
0.00458329
0.00477691
0.00489882
0.00492231
-0.000252582
-0.000243763
-0.000154526
-7.17444e-06
0.000199254
0.000461463
0.000774602
0.00113253
0.00152778
0.00195151
0.00239363
0.00284296
0.00328674
0.00371154
0.00410338
0.00444817
0.00473235
0.00494402
0.00507782
0.00510393
-0.000469743
-0.000461445
-0.000366956
-0.000210544
9.11425e-06
0.000288781
0.000623599
0.00100737
0.00143247
0.00188983
0.00236896
0.00285821
0.00334392
0.00381147
0.00424532
0.00462943
0.00494798
0.00518659
0.00533825
0.00536873
-0.000759516
-0.000751925
-0.000650577
-0.000482301
-0.000245296
5.72729e-05
0.00042054
0.000838231
0.00130256
0.00180419
0.00233216
0.00287439
0.00341606
0.00394115
0.00443211
0.00487028
0.00523661
0.00551313
0.00569022
0.00572733
-0.00112858
-0.00112206
-0.00101229
-0.000829378
-0.000570898
-0.000239919
0.000158693
0.000618592
0.00113185
0.00168887
0.00227817
0.00288739
0.00350042
0.00409974
0.00466537
0.00517531
0.00560614
0.00593468
0.0061472
0.00619414
-0.00158541
-0.00158057
-0.00146087
-0.00126059
-0.000976485
-0.000611503
-0.000170502
0.00034011
0.000912297
0.00153638
0.00220105
0.00289137
0.00359255
0.00428503
0.00494606
0.00554949
0.00606617
0.00646552
0.00672727
0.00678893
-0.00214048
-0.00213828
-0.0020072
-0.00178686
-0.00147293
-0.00106822
-0.000577593
-7.55233e-06
0.000633758
0.00133654
0.00208915
0.0028775
0.00368544
0.00449248
0.00527337
0.00599725
0.00662764
0.00712362
0.00745436
0.00753878
-0.00280668
-0.00280851
-0.0026647
-0.00242157
-0.00207346
-0.00162304
-0.00107527
-0.000436812
0.000284037
0.00107749
0.00193209
0.00283451
0.00376869
0.00471389
0.00564312
0.00652092
0.00730184
0.00793094
0.00835989
0.00848129
-0.00359997
-0.00360776
-0.00344986
-0.00318108
-0.00279406
-0.00229142
-0.00167843
-0.000962181
-0.000151232
0.000744726
0.00171492
0.00274715
0.00382716
0.00493551
0.00604531
0.00711792
0.00809821
0.00891318
0.00948469
0.00967002
-0.00454055
-0.0045567
-0.00438324
-0.0040854
-0.00365392
-0.00309151
-0.00240419
-0.00159998
-0.000688117
0.000321737
0.00141984
0.0025961
0.00383985
0.00513574
0.0064605
0.007776
0.00901953
0.0100979
0.0108806
0.0111827
-0.00565503
-0.00568178
-0.00549083
-0.00515933
-0.00467612
-0.0040443
-0.00327151
-0.00236767
-0.00134349
-0.000209038
0.00102714
0.00235813
0.00377894
0.00528236
0.00685472
0.00846586
0.0100519
0.0115089
0.0126112
0.0131413
-0.00698381
-0.00701946
-0.00680693
-0.00643409
-0.00588846
-0.00517358
-0.00430035
-0.00328226
-0.00213302
-0.000864065
0.000517166
0.00200792
0.00361004
0.00533012
0.0071727
0.00912908
0.011148
0.0131525
0.0147464
0.0157359
-0.00855975
-0.00860851
-0.00837306
-0.00794844
-0.00732402
-0.00650511
-0.00550953
-0.00435731
-0.00306746
-0.00165439
-0.000125479
0.00152095
0.00329543
0.00522158
0.00733281
0.00966381
0.0122004
0.0149886
0.0173185
0.0193074
-0.0106494
-0.0105594
-0.0102684
-0.00975921
-0.00902355
-0.00806484
-0.00691333
-0.00559897
-0.00414833
-0.00258038
-0.000903771
0.000887376
0.00281583
0.00490659
0.00724711
0.00993735
0.0130238
0.0168615
0.0201869
0.0242929
-0.0127341
-0.0128838
-0.0125455
-0.0119311
-0.0110354
-0.0098757
-0.00851522
-0.00699878
-0.00536156
-0.00362806
-0.00181371
7.53656e-05
0.00205075
0.00417428
0.00655013
0.00942773
0.0126374
0.0180871
0.0225063
0.0312709
-0.0177048
-0.0154626
-0.0151429
-0.0142045
-0.0131211
-0.0117722
-0.0102079
-0.00847685
-0.00663284
-0.00471709
-0.00275033
-0.000725169
0.00138238
0.00367633
0.00623314
0.00925748
0.0129128
0.019604
0.0259895
0.0407439
-0.0200608
-0.0208686
-0.0197377
-0.0185292
-0.0167789
-0.0146694
-0.012471
-0.0102558
-0.00806068
-0.00590026
-0.00379004
-0.00173929
0.000208221
0.0021169
0.00340188
0.00616838
0.00626453
0.0163173
0.0176867
0.0507002
-0.0437536
-0.0202221
-0.0197333
-0.0181901
-0.0163704
-0.014524
-0.012572
-0.0104913
-0.00834634
-0.0061929
-0.00407459
-0.00196835
3.31518e-05
0.00219899
0.00415861
0.00760094
0.0119032
0.0261556
0.0479287
0.11096
2.35789e-07
5.3849e-06
8.79859e-05
0.000225382
0.000417693
0.000661134
0.000950615
0.0012799
0.00164157
0.00202704
0.0024266
0.00282961
0.00322463
0.00359972
0.00394278
0.00424204
0.00448652
0.0046668
0.00477894
0.00479546
-7.44496e-06
-2.92994e-06
7.99659e-05
0.000216892
0.00040862
0.000651599
0.00094087
0.00127033
0.00163262
0.00201922
0.00242043
0.00282574
0.00322352
0.00360171
0.00394805
0.00425054
0.00449794
0.0046806
0.00479492
0.00481108
-9.36358e-05
-9.04279e-05
-5.52195e-06
0.000134853
0.000331741
0.00058161
0.000879537
0.00121941
0.00159384
0.0019942
0.00241075
0.00283253
0.00324754
0.00364322
0.00400661
0.00432492
0.00458595
0.0047791
0.00490027
0.00491668
-0.000242036
-0.000239804
-0.000151321
-4.79555e-06
0.000201152
0.000463031
0.000775925
0.00113368
0.00152884
0.00195257
0.00239479
0.00284429
0.00328833
0.00371347
0.00410566
0.00445073
0.00473495
0.00494608
0.00507904
0.0050974
-0.000457647
-0.000456511
-0.000362838
-0.000207344
1.17621e-05
0.000291035
0.000625547
0.00100909
0.00143404
0.00189136
0.00237057
0.00285996
0.00334592
0.00381381
0.00424803
0.00463246
0.00495104
0.00518903
0.00533973
0.00536154
-0.000745606
-0.000745914
-0.000645446
-0.000478189
-0.000241807
6.03095e-05
0.000423218
0.000840636
0.00130479
0.00180635
0.00233442
0.00287677
0.00341873
0.00394421
0.00443562
0.00487418
0.00524061
0.00551644
0.00569242
0.00571959
-0.00111237
-0.00111468
-0.00100586
-0.000824101
-0.000566341
-0.000235893
0.000162295
0.000621867
0.0011349
0.00169181
0.00228127
0.00289061
0.00350402
0.00410385
0.00467007
0.00518056
0.00561161
0.00593943
0.00615067
0.00618598
-0.00156618
-0.00157135
-0.00145271
-0.00125376
-0.000970525
-0.000606196
-0.000165719
0.000344488
0.000916378
0.00154021
0.00220437
0.00289557
0.00359738
0.00429057
0.00495242
0.00555669
0.00607384
0.00647253
0.00673283
0.00678063
-0.00211724
-0.00212653
-0.00199667
-0.00177794
-0.00146511
-0.00106126
-0.000571317
-1.79386e-06
0.000639169
0.00134174
0.00209427
0.00288321
0.00369189
0.0044999
0.00528198
0.00600718
0.00663858
0.00713418
0.00746338
0.00753105
-0.00277801
-0.00279322
-0.00265088
-0.00240982
-0.00206321
-0.00161398
-0.00106715
-0.000429392
0.000291066
0.00108455
0.00193986
0.00284227
0.00377716
0.00472367
0.00565472
0.00653468
0.0073176
0.00794714
0.00837464
0.00847589
-0.00356371
-0.00358738
-0.00343143
-0.00316547
-0.00278062
-0.00227976
-0.00166817
-0.000952937
-0.000142596
0.000753204
0.00172368
0.00275657
0.00383775
0.00494806
0.00606068
0.00713691
0.00812103
0.00893837
0.00950901
0.00967024
-0.00449322
-0.00452879
-0.0043582
-0.00406453
-0.00363643
-0.00307678
-0.00239161
-0.00158894
-0.000678036
0.000331434
0.00142975
0.00260695
0.00385243
0.00515121
0.0064803
0.00780176
0.0090524
0.0101375
0.0109211
0.011199
-0.00559064
-0.00564227
-0.00545621
-0.00513138
-0.00465372
-0.00402632
-0.00325687
-0.00235535
-0.00133261
-0.00019882
0.0010375
0.00236957
0.00379269
0.00530015
0.00687886
0.00849935
0.0100979
0.0115705
0.012678
0.0131943
-0.00689226
-0.00696214
-0.00675852
-0.00639705
-0.00586088
-0.00515317
-0.00428508
-0.00327038
-0.00212317
-0.000855218
0.000525898
0.00201735
0.00362243
0.00534773
0.00719893
0.00916838
0.0112075
0.0132452
0.0148566
0.0158732
-0.00840986
-0.00851908
-0.00830348
-0.00790071
-0.00729322
-0.00648601
-0.00549814
-0.00435049
-0.00306316
-0.00165131
-0.000122769
0.00152266
0.00330082
0.00523242
0.007353
0.00969873
0.0122635
0.0151127
0.0174865
0.0196339
-0.0104296
-0.0104206
-0.0101726
-0.00970395
-0.00899913
-0.00805942
-0.00691823
-0.0056083
-0.00415912
-0.00259128
-0.000914282
0.000877285
0.00279879
0.0048919
0.00723373
0.00992867
0.0130307
0.0169613
0.0203344
0.0249395
-0.0122639
-0.0126992
-0.0124299
-0.0119041
-0.0110605
-0.00992227
-0.00856764
-0.007049
-0.00540704
-0.00366911
-0.00185267
3.41199e-05
0.00199135
0.00411344
0.00646559
0.0092816
0.0124205
0.0178904
0.0222797
0.032091
-0.0168596
-0.0148755
-0.0148613
-0.0141134
-0.013167
-0.0118798
-0.0103369
-0.00860361
-0.00674719
-0.00481659
-0.00283742
-0.000802851
0.0013146
0.00358513
0.00599785
0.00884885
0.0119901
0.0183681
0.024538
0.0408384
-0.0178765
-0.0206104
-0.0198805
-0.0190758
-0.0174307
-0.0152674
-0.0129668
-0.0106479
-0.00836751
-0.00614359
-0.00399411
-0.00192471
-3.89954e-06
0.00178838
0.00299643
0.00523022
0.00486071
0.0129716
0.0146223
0.0507005
-0.0410359
-0.0186688
-0.0189845
-0.0181377
-0.016601
-0.0148269
-0.0128853
-0.0107775
-0.00859147
-0.00639846
-0.0042618
-0.00213488
-0.000192514
0.00194253
0.00355355
0.00669911
0.010228
0.0248056
0.0515511
0.121592
1.5337e-06
5.72498e-06
8.81181e-05
0.000225282
0.000417497
0.000660951
0.000950537
0.00128001
0.00164194
0.0020277
0.00242764
0.00283108
0.00322656
0.00360208
0.00394553
0.00424508
0.00448969
0.00466984
0.00478169
0.00479674
-4.34367e-06
-1.14004e-06
8.14562e-05
0.00021803
0.000409535
0.000652365
0.000941556
0.00127099
0.00163333
0.00202003
0.00242141
0.00282693
0.00322496
0.0036034
0.00394996
0.0042526
0.0045
0.00468244
0.00479646
0.00481114
-8.96181e-05
-8.79106e-05
-3.38342e-06
0.000136553
0.000333135
0.000582787
0.000880567
0.00122035
0.00159477
0.00199517
0.00241183
0.00283377
0.00324899
0.00364488
0.00400847
0.0043269
0.00458792
0.00478083
0.00490166
0.00491647
-0.00023702
-0.000236444
-0.000148407
-2.39604e-06
0.000203165
0.000464747
0.000777412
0.00113501
0.00153007
0.00195378
0.00239606
0.00284567
0.00328988
0.00371522
0.00410759
0.00445278
0.00473698
0.00494782
0.00508041
0.00509703
-0.000451561
-0.000452256
-0.000359097
-0.000204203
1.44348e-05
0.00029333
0.000627538
0.00101085
0.00143565
0.00189289
0.00237212
0.0028616
0.00334772
0.00381582
0.00425025
0.00463482
0.0049534
0.00519109
0.00534139
0.00536126
-0.000738245
-0.000740601
-0.000640727
-0.000474176
-0.000238364
6.32786e-05
0.000425795
0.0008429
0.00130683
0.00180826
0.00233632
0.00287876
0.00342091
0.00394665
0.00443833
0.00487712
0.00524359
0.00551915
0.0056947
0.00571971
-0.00110339
-0.00110802
-0.000999907
-0.000818997
-0.000561946
-0.000232105
0.00016557
0.000624725
0.00113744
0.00169414
0.00228352
0.002893
0.00350668
0.00410687
0.00467349
0.00518433
0.00561556
0.00594317
0.00615401
0.0061869
-0.00155507
-0.00156292
-0.00144513
-0.00124725
-0.000964934
-0.000601406
-0.000161614
0.000348029
0.000919471
0.00154293
0.0022067
0.00289834
0.00360059
0.00429429
0.00495673
0.00556159
0.00607918
0.00647783
0.00673782
0.00678276
-0.00210327
-0.00211571
-0.00198695
-0.00176961
-0.00145801
-0.00105525
-0.000566254
2.50299e-06
0.000642866
0.00134487
0.00209584
0.00288637
0.00369567
0.00450438
0.00528735
0.00601354
0.00664581
0.00714178
0.00747088
0.0075353
-0.00276011
-0.00277912
-0.00263826
-0.00239909
-0.00205422
-0.00160655
-0.00106105
-0.000424345
0.000295381
0.00108863
0.00194522
0.00284631
0.00378146
0.00472883
0.00566117
0.00654275
0.00732733
0.007958
0.00838594
0.00848339
-0.0035403
-0.00356868
-0.00341485
-0.00315161
-0.00276932
-0.00227074
-0.00166108
-0.000947363
-0.000138111
0.000757073
0.00172747
0.00276025
0.00384196
0.00495345
0.00606794
0.00714673
0.00813382
0.00895382
0.00952609
0.00968385
-0.00446184
-0.00450352
-0.00433618
-0.00404661
-0.00362238
-0.00306615
-0.00238381
-0.00158335
-0.00067404
0.000334393
0.00143218
0.00260939
0.00385553
0.00515583
0.00648749
0.0078128
0.00906846
0.0101591
0.0109467
0.0112228
-0.00554734
-0.0056074
-0.00542662
-0.00510824
-0.00463662
-0.0040144
-0.00324911
-0.00235074
-0.00133026
-0.000197945
0.00103751
0.00236934
0.003793
0.00530205
0.00688385
0.00850975
0.0101162
0.0115995
0.0127155
0.0132372
-0.0068307
-0.00691317
-0.00671843
-0.00636747
-0.00584087
-0.00514105
-0.004279
-0.00326866
-0.00212439
-0.000858307
0.000521578
0.00201225
0.0036173
0.00534355
0.00719728
0.0091734
0.0112237
0.0132804
0.0149096
0.0159493
-0.00831696
-0.00844834
-0.00824841
-0.00786346
-0.00727144
-0.00647625
-0.00549696
-0.00435492
-0.003071
-0.00166126
-0.000134368
0.00150924
0.0032861
0.00521695
0.00733824
0.00968884
0.0122661
0.0151462
0.0175556
0.0197677
-0.0102918
-0.0103172
-0.0100968
-0.00965848
-0.00897877
-0.0080574
-0.00692787
-0.00562457
-0.0041788
-0.0026128
-0.000937407
0.000851698
0.00276836
0.00485722
0.00719619
0.00989033
0.0129988
0.0169666
0.0203993
0.0251521
-0.0120383
-0.0125547
-0.0123289
-0.0118582
-0.0110534
-0.00994079
-0.00860017
-0.00708763
-0.00544758
-0.00371002
-0.00189487
-1.31293e-05
0.00193013
0.00403361
0.00637058
0.0091609
0.0122725
0.0177652
0.0222545
0.032329
-0.016496
-0.0146007
-0.0146799
-0.0140288
-0.0131544
-0.0119127
-0.0103943
-0.00867068
-0.00681564
-0.00488303
-0.00290241
-0.000869901
0.00123336
0.00343219
0.00585338
0.00864733
0.011648
0.0179809
0.0242704
0.0409305
-0.0172037
-0.0202913
-0.0196994
-0.0190831
-0.0175417
-0.0154196
-0.0131238
-0.0107919
-0.00849492
-0.00625574
-0.0040972
-0.00202595
-0.000113343
0.00168994
0.00275693
0.00480307
0.00428329
0.0118855
0.01428
0.0507565
-0.0402596
-0.0181358
-0.018656
-0.0180475
-0.016625
-0.0149109
-0.0129941
-0.0108895
-0.00869727
-0.00649653
-0.00435837
-0.00223398
-0.00031838
0.00178338
0.00328066
0.00630245
0.00970169
0.0246337
0.0528388
0.124436
3.30489e-06
6.62891e-06
8.87452e-05
0.000225655
0.000417733
0.000661152
0.000950789
0.00128039
0.00164251
0.00202853
0.00242878
0.00283256
0.00322839
0.00360426
0.00394802
0.00424779
0.00449248
0.00467248
0.00478405
0.00479812
-1.45892e-06
8.63575e-07
8.31256e-05
0.000219363
0.000410626
0.000653299
0.000942404
0.00127182
0.0016342
0.00202101
0.00242255
0.00282826
0.00322651
0.00360519
0.00395195
0.00425471
0.00450211
0.00468435
0.00479805
0.00481167
-8.59289e-05
-8.51923e-05
-1.06603e-06
0.000138468
0.000334744
0.00058417
0.000881791
0.00122149
0.00159587
0.00199632
0.00241307
0.00283516
0.00325055
0.00364664
0.00401041
0.00432894
0.00458993
0.0047826
0.00490309
0.00491674
-0.000232404
-0.00023289
-0.000145321
2.07464e-07
0.000205382
0.000466656
0.000779083
0.00113651
0.00153147
0.00195515
0.00239747
0.00284718
0.00329155
0.00371706
0.0041096
0.00445489
0.00473905
0.00494964
0.00508186
0.00509719
-0.000445903
-0.000447767
-0.000355149
-0.00020083
1.73292e-05
0.000295826
0.000629708
0.00101277
0.00143739
0.00189454
0.00237377
0.00286333
0.00334961
0.0038179
0.00425253
0.00463724
0.0049558
0.00519323
0.00534313
0.00536156
-0.000731326
-0.000734987
-0.000635748
-0.000469885
-0.000234669
6.64612e-05
0.000428545
0.000845303
0.00130897
0.00181025
0.00233826
0.00288079
0.00342313
0.00394912
0.00444106
0.00488006
0.00524659
0.00552191
0.00569705
0.0057204
-0.00109486
-0.00110098
-0.000993627
-0.000813564
-0.000557271
-0.000228097
0.000169004
0.000627686
0.00114003
0.00169649
0.00228577
0.00289537
0.0035093
0.00410983
0.00467683
0.00518804
0.00561945
0.00594692
0.00615736
0.00618825
-0.00154444
-0.00155401
-0.00143717
-0.00124037
-0.000959038
-0.000596402
-0.000157384
0.000351616
0.000922551
0.00154563
0.00220919
0.00290103
0.00360364
0.00429783
0.00496085
0.00556631
0.00608434
0.00648305
0.00674276
0.00678563
-0.00208982
-0.00210429
-0.00197675
-0.00176084
-0.0014506
-0.00104906
-0.000561125
6.75817e-06
0.000646446
0.00134795
0.00209859
0.00288938
0.00369915
0.00450851
0.00529234
0.0060195
0.00665267
0.00714909
0.00747821
0.00754039
-0.00274279
-0.00276429
-0.00262509
-0.0023879
-0.00204492
-0.00159898
-0.00105497
-0.000419465
0.0002994
0.00109218
0.00194871
0.0028497
0.00378522
0.0047334
0.00566697
0.00655012
0.00733634
0.00796826
0.00839683
0.00849218
-0.00351758
-0.00354912
-0.00339767
-0.00313727
-0.00275774
-0.00226167
-0.00165414
-0.000942107
-0.000134073
0.000760373
0.00173049
0.00276323
0.0038454
0.00495794
0.00607419
0.00715539
0.00814534
0.00896808
0.0095422
0.0096987
-0.00443141
-0.00447731
-0.00431356
-0.00402823
-0.00360813
-0.00305558
-0.00237631
-0.00157824
-0.000670672
0.000336627
0.00143384
0.0026109
0.00385756
0.00515915
0.00649318
0.007822
0.00908237
0.0101784
0.0109703
0.0112476
-0.00550558
-0.00557168
-0.00539655
-0.00508475
-0.00461943
-0.00400269
-0.00324182
-0.0023468
-0.00132874
-0.000198127
0.00103628
0.00236766
0.00379164
0.00530205
0.00688671
0.00851735
0.010131
0.0116244
0.0127492
0.0132785
-0.00677181
-0.0068637
-0.0066782
-0.0063377
-0.00582086
-0.00512922
-0.00427347
-0.00326772
-0.00212677
-0.000863037
0.000515203
0.00200478
0.00360948
0.00533649
0.00719288
0.00917426
0.0112345
0.0133087
0.0149553
0.0160193
-0.00823059
-0.00837856
-0.00819422
-0.00782638
-0.00724967
-0.00646666
-0.00549623
-0.00436034
-0.00308057
-0.00167371
-0.000149065
0.00149233
0.00326739
0.00519697
0.00731829
0.00967244
0.0122607
0.0151686
0.0176101
0.0198863
-0.0101663
-0.0102182
-0.0100239
-0.00961373
-0.00895819
-0.00805493
-0.00693744
-0.00564156
-0.00420028
-0.00263725
-0.000964467
0.000821737
0.00273421
0.0048183
0.00715121
0.00984177
0.0129557
0.0169615
0.0204414
0.0253403
-0.0118424
-0.0124165
-0.0122337
-0.01181
-0.0110431
-0.00995494
-0.00862863
-0.00712356
-0.00548719
-0.0037519
-0.00193971
-6.40252e-05
0.00186651
0.00395906
0.00626926
0.00903387
0.0121172
0.0176546
0.022197
0.0325636
-0.0161919
-0.0143613
-0.0145227
-0.0139501
-0.0131402
-0.0119399
-0.0104444
-0.0087309
-0.00687893
-0.00494642
-0.00296651
-0.000937932
0.00115549
0.0033376
0.00572517
0.00846366
0.0113778
0.0177012
0.0240652
0.0411432
-0.0167536
-0.0200571
-0.0195602
-0.01907
-0.0176082
-0.0155236
-0.0132395
-0.0109044
-0.00859972
-0.00635272
-0.00419034
-0.00212212
-0.000226476
0.00153201
0.00248783
0.00442311
0.00376539
0.0112357
0.0136652
0.0511609
-0.0396087
-0.0176364
-0.0183368
-0.017914
-0.0166214
-0.0149748
-0.0130878
-0.0109918
-0.00879818
-0.00659237
-0.00445256
-0.00233045
-0.000435861
0.00163509
0.00307704
0.00600322
0.00930907
0.0243907
0.0531771
0.126185
5.20899e-06
8.21702e-06
9.01449e-05
0.000226853
0.00041877
0.000662077
0.00095165
0.00128124
0.0016434
0.00202952
0.0024299
0.00283386
0.00322988
0.00360595
0.00394987
0.00424975
0.00449445
0.00467436
0.00478579
0.00479951
9.37789e-07
2.90345e-06
8.49403e-05
0.000220932
0.000411989
0.000654501
0.000943494
0.00127285
0.00163522
0.00202207
0.00242369
0.00282953
0.00322793
0.00360675
0.00395365
0.00425649
0.00450388
0.00468601
0.00479955
0.00481283
-8.29845e-05
-8.26437e-05
1.21731e-06
0.000140458
0.000336476
0.000585689
0.000883147
0.00122273
0.00159706
0.0019975
0.0024143
0.00283648
0.003252
0.00364823
0.00401212
0.00433072
0.00459171
0.00478426
0.00490457
0.00491787
-0.000228738
-0.000229665
-0.000142413
2.75805e-06
0.000207606
0.000468598
0.000780791
0.00113804
0.00153288
0.0019565
0.00239883
0.00284862
0.00329309
0.00371874
0.00411141
0.00445679
0.00474095
0.00495142
0.00508347
0.00509841
-0.000441352
-0.000443717
-0.000351478
-0.000197596
2.015e-05
0.000298277
0.00063184
0.00101464
0.00143907
0.00189611
0.00237531
0.00286492
0.00335132
0.00381977
0.00425456
0.00463938
0.00495799
0.00519532
0.00534506
0.00536307
-0.000725668
-0.000729905
-0.000631129
-0.000465811
-0.000231123
6.95198e-05
0.000431174
0.000847571
0.00131096
0.00181205
0.00233999
0.00288257
0.00342505
0.00395124
0.00444341
0.00488261
0.00524925
0.00552453
0.00569955
0.00572245
-0.00108778
-0.00109458
-0.000987806
-0.000808437
-0.000552835
-0.00022431
0.000172209
0.000630395
0.00114234
0.00169851
0.00228765
0.0028973
0.00351144
0.00411226
0.00467961
0.00519114
0.00562281
0.00595035
0.00616074
0.00619121
-0.0015355
-0.00154589
-0.00142979
-0.00123391
-0.000953506
-0.00059175
-0.000153526
0.000354794
0.000925171
0.00154782
0.0022111
0.00290306
0.00360595
0.00430054
0.00496408
0.00557009
0.00608861
0.00648761
0.00674743
0.0067898
-0.00207841
-0.00209389
-0.00196736
-0.00175269
-0.00144372
-0.0010434
-0.000556559
1.03944e-05
0.000649328
0.00135023
0.00210025
0.00289138
0.0037015
0.00451139
0.00529596
0.00602401
0.00665807
0.00715519
0.00748472
0.00754648
-0.00272804
-0.00275083
-0.00261304
-0.00237758
-0.00203641
-0.00159219
-0.00104971
-0.000415476
0.000302412
0.00109458
0.00195104
0.00285161
0.00378729
0.00473611
0.00567072
0.00655523
0.007343
0.00797633
0.00840591
0.00850115
-0.00349823
-0.00353151
-0.0033821
-0.00312421
-0.00274729
-0.00225368
-0.00164831
-0.000938085
-0.00013144
0.00076205
0.00173163
0.00276402
0.00384637
0.00495974
0.0060774
0.00716065
0.00815314
0.00897851
0.00955477
0.00971189
-0.00440567
-0.00445401
-0.0042933
-0.0040117
-0.00359543
-0.00304645
-0.00237028
-0.00157475
-0.000669161
0.000336703
0.00143299
0.00260959
0.00385636
0.00515879
0.00649454
0.00782627
0.00909061
0.0101914
0.0109873
0.0112671
-0.0054708
-0.0055405
-0.00537005
-0.00506388
-0.00460425
-0.00399269
-0.00323623
-0.00234476
-0.0013294
-0.000200744
0.00103231
0.00236285
0.00378666
0.00529772
0.00688421
0.00851841
0.0101379
0.0116393
0.0127717
0.0133075
-0.00672407
-0.00682154
-0.00664339
-0.00631151
-0.00580318
-0.00511904
-0.00426947
-0.00326852
-0.0021311
-0.000869968
0.000506317
0.00199444
0.0035983
0.00532533
0.00718312
0.00916825
0.0112358
0.013323
0.014983
0.0160626
-0.00816389
-0.0083211
-0.00814831
-0.00779379
-0.00722979
-0.00645757
-0.00549566
-0.00436603
-0.00309076
-0.0016872
-0.000165235
0.00147365
0.00324676
0.00517491
0.00729581
0.00965246
0.0122489
0.0151764
0.0176402
0.0199508
-0.0100737
-0.0101399
-0.00996343
-0.00957363
-0.0089369
-0.00804893
-0.00694296
-0.00565501
-0.0042191
-0.00265996
-0.000990425
0.000792779
0.00270182
0.00478254
0.00711135
0.00980052
0.0129207
0.0169525
0.0204647
0.0254319
-0.0117123
-0.0123112
-0.012155
-0.0117622
-0.0110224
-0.00995519
-0.00864374
-0.00714823
-0.00551787
-0.00378678
-0.0019787
-0.000108965
0.00181111
0.00389761
0.00619067
0.00894229
0.0120166
0.0175938
0.0221807
0.032672
-0.0160064
-0.014203
-0.0144064
-0.0138811
-0.0131122
-0.011943
-0.0104687
-0.00876785
-0.00692296
-0.00499452
-0.00301813
-0.000994242
0.00109327
0.00326486
0.00563944
0.0083492
0.0112346
0.0175755
0.0240305
0.041244
-0.0165264
-0.0198907
-0.0194346
-0.0190074
-0.0175982
-0.0155499
-0.0132867
-0.0109616
-0.00866184
-0.00641696
-0.00425741
-0.0021956
-0.000315213
0.00140989
0.00227997
0.00419621
0.00347829
0.0109619
0.0134823
0.0513236
-0.0392875
-0.0173618
-0.0181414
-0.0178096
-0.0165888
-0.0149883
-0.0131277
-0.0110465
-0.00885966
-0.006657
-0.00452096
-0.00240534
-0.000526524
0.0015248
0.00295266
0.00582006
0.00909522
0.0242646
0.0532889
0.126765
7.0251e-06
9.86041e-06
9.16323e-05
0.00022817
0.000419935
0.000663123
0.000952617
0.00128217
0.00164433
0.00203049
0.00243095
0.00283501
0.00323116
0.00360734
0.00395137
0.00425131
0.00449603
0.00467589
0.00478722
0.00480078
3.02927e-06
4.81826e-06
8.66857e-05
0.000222486
0.000413366
0.000655731
0.000944611
0.00127389
0.00163623
0.0020231
0.00242477
0.00283068
0.00322918
0.00360811
0.00395509
0.00425799
0.00450539
0.00468746
0.00480091
0.00481401
-8.04802e-05
-8.03353e-05
3.33039e-06
0.000142347
0.000338149
0.000587173
0.000884475
0.00122394
0.0015982
0.00199862
0.00241544
0.00283768
0.00325329
0.00364962
0.0040136
0.00433226
0.00459325
0.00478574
0.00490597
0.00491907
-0.000225657
-0.000226807
-0.000139787
5.10899e-06
0.000209685
0.000470427
0.000782406
0.00113948
0.0015342
0.00195776
0.00240007
0.0028499
0.00329446
0.00372021
0.00411298
0.00445843
0.00474262
0.00495304
0.005085
0.00509974
-0.000437531
-0.000440151
-0.000348198
-0.000194659
2.27385e-05
0.000300535
0.000633805
0.00101636
0.0014406
0.00189752
0.00237666
0.00286631
0.00335279
0.00382137
0.00425629
0.00464124
0.0049599
0.00519722
0.00534688
0.00536468
-0.000720902
-0.000725439
-0.000627019
-0.000462139
-0.000227906
7.22977e-05
0.000433551
0.000849602
0.00131271
0.0018136
0.00234144
0.00288404
0.00342664
0.00395301
0.00444538
0.00488477
0.00525154
0.00552687
0.00570185
0.00572453
-0.0010818
-0.00108896
-0.000982641
-0.000803842
-0.000548846
-0.000220913
0.00017506
0.000632764
0.00114431
0.00170016
0.00228911
0.00289882
0.00351313
0.0041142
0.00468185
0.00519369
0.00562562
0.00595331
0.00616375
0.00619403
-0.00152793
-0.00153876
-0.00142327
-0.00122815
-0.000948571
-0.000587623
-0.000150147
0.00035751
0.000927319
0.00154948
0.00221239
0.0029045
0.00360766
0.00430261
0.00496658
0.00557307
0.00609207
0.00649142
0.00675144
0.00679366
-0.00206872
-0.00208479
-0.00195909
-0.00174546
-0.00143763
-0.00103843
-0.000552622
1.34335e-05
0.00065161
0.00135182
0.00210086
0.00289261
0.00370308
0.00451342
0.00529861
0.00602741
0.00666226
0.00716007
0.00749009
0.00755182
-0.00271554
-0.0027391
-0.00260249
-0.00236851
-0.00202894
-0.00158629
-0.00104524
-0.00041221
0.000304757
0.0010964
0.00195312
0.00285287
0.00378854
0.0047378
0.00567321
0.00655886
0.00734791
0.0079825
0.00841307
0.00850856
-0.00348194
-0.0035163
-0.00336857
-0.00311281
-0.00273819
-0.0022468
-0.00164344
-0.000934889
-0.000129538
0.000763082
0.0017322
0.00276414
0.00384651
0.00496039
0.00607913
0.00716403
0.00815854
0.00898609
0.00956419
0.0097222
-0.00438422
-0.0044341
-0.00427589
-0.0039974
-0.00358445
-0.00303864
-0.00236528
-0.0015721
-0.000668333
0.000336189
0.00143156
0.00260759
0.00385431
0.00515733
0.00649444
0.00782835
0.00909577
0.0102002
0.0109995
0.0112814
-0.00544227
-0.00551427
-0.00534757
-0.00504599
-0.00459117
-0.00398414
-0.00323159
-0.00234333
-0.00133051
-0.000203782
0.00102787
0.00235749
0.00378097
0.00529247
0.00688042
0.00851743
0.0101412
0.0116487
0.0127868
0.0133274
-0.00668578
-0.00678679
-0.00661428
-0.00628921
-0.00578787
-0.00511013
-0.00426597
-0.00326936
-0.00213533
-0.000876801
0.000497487
0.0019841
0.00358708
0.00531403
0.00717292
0.00916107
0.0112344
0.0133311
0.0150005
0.0160905
-0.00811209
-0.00827495
-0.00811062
-0.00776617
-0.00721226
-0.00644901
-0.00549444
-0.00437053
-0.0030996
-0.00169939
-0.00018015
0.0014563
0.00322765
0.00515468
0.00727545
0.00963423
0.0122371
0.0151786
0.0176577
0.0199903
-0.0100041
-0.0100788
-0.00991471
-0.00953967
-0.00891734
-0.00804178
-0.00694554
-0.00566483
-0.00423424
-0.00267915
-0.00101301
0.000767238
0.00267334
0.00475173
0.00707821
0.00976687
0.0128924
0.0169426
0.0204764
0.0254864
-0.0116191
-0.0122312
-0.0120928
-0.0117211
-0.0110016
-0.00995089
-0.00865181
-0.00716507
-0.00554092
-0.00381456
-0.00201087
-0.000146561
0.00176457
0.00384791
0.00613176
0.00887532
0.0119452
0.0175524
0.0221655
0.0327373
-0.0158798
-0.0140909
-0.0143208
-0.0138258
-0.0130857
-0.0119399
-0.0104822
-0.0087922
-0.00695446
-0.00503098
-0.00305886
-0.00103935
0.00104504
0.00321069
0.00558691
0.0082719
0.0111404
0.0174985
0.0240078
0.0413108
-0.0163828
-0.0197719
-0.019339
-0.0189512
-0.0175777
-0.015556
-0.0133108
-0.0109962
-0.00870328
-0.00646293
-0.00430793
-0.00225274
-0.000384088
0.00132206
0.00216354
0.00405026
0.00328119
0.0108099
0.0133501
0.0514216
-0.0390846
-0.0171779
-0.0180029
-0.0177247
-0.0165514
-0.0149862
-0.0131491
-0.0110814
-0.0089025
-0.00670479
-0.00457363
-0.00246477
-0.00059882
0.00143271
0.00281413
0.00568704
0.00894899
0.0241648
0.0532701
0.127014
8.62752e-06
1.13776e-05
9.30414e-05
0.000229452
0.000421093
0.000664171
0.000953577
0.00128307
0.0016452
0.00203137
0.00243186
0.00283598
0.0032322
0.00360846
0.00395255
0.00425254
0.00449727
0.00467711
0.0047884
0.00480189
4.79687e-06
6.49536e-06
8.82444e-05
0.000223904
0.000414644
0.000656881
0.000945657
0.00127486
0.00163716
0.00202401
0.0024257
0.00283166
0.00323022
0.00360922
0.00395627
0.00425921
0.00450662
0.00468867
0.00480207
0.00481511
-7.84085e-05
-7.83648e-05
5.16302e-06
0.000144013
0.000339644
0.000588509
0.000885675
0.00122504
0.00159922
0.0019996
0.00241643
0.0028387
0.00325437
0.00365076
0.00401481
0.00433353
0.00459453
0.00478701
0.00490719
0.00492023
-0.000223138
-0.000224405
-0.000137553
7.13723e-06
0.000211497
0.000472031
0.000783824
0.00114075
0.00153535
0.00195883
0.00240112
0.00285097
0.00329559
0.00372142
0.00411427
0.00445979
0.00474401
0.00495443
0.00508636
0.00510104
-0.000434418
-0.000437177
-0.000345433
-0.000192155
2.49601e-05
0.000302481
0.000635496
0.00101783
0.0014419
0.00189869
0.00237778
0.00286743
0.00335399
0.00382267
0.0042577
0.00464275
0.00496149
0.00519883
0.00534849
0.00536623
-0.000717016
-0.000721724
-0.000623572
-0.000459032
-0.000225172
7.46606e-05
0.000435566
0.000851307
0.00131416
0.00181485
0.00234257
0.0028852
0.00342789
0.00395441
0.00444694
0.00488649
0.00525341
0.00552882
0.00570383
0.00572647
-0.00107691
-0.00108429
-0.000978321
-0.000799976
-0.000545479
-0.00021805
0.000177444
0.000634717
0.00114588
0.00170141
0.00229014
0.00289991
0.00351438
0.00411567
0.00468356
0.00519567
0.00562784
0.00595571
0.00616627
0.00619652
-0.00152174
-0.00153285
-0.00141784
-0.00122333
-0.000944432
-0.000584175
-0.000147355
0.000359706
0.000928972
0.0015506
0.00221298
0.00290537
0.00360881
0.00430407
0.0049684
0.0055753
0.00609471
0.00649441
0.00675467
0.00679692
-0.00206083
-0.00207727
-0.00195222
-0.00173945
-0.00143256
-0.00103432
-0.000549401
1.58509e-05
0.000653304
0.00135269
0.0021
0.00289309
0.003704
0.00451472
0.00530039
0.0060298
0.00666532
0.00716374
0.00749423
0.0075561
-0.0027054
-0.00272947
-0.00259377
-0.002361
-0.00202276
-0.00158143
-0.00104161
-0.00040964
0.00030653
0.00109785
0.00195559
0.0028537
0.0037891