/*--------------------------------*- C++ -*----------------------------------*\
  =========                 |
  \\      /  F ield         | OpenFOAM: The Open Source CFD Toolbox
   \\    /   O peration     | Website:  https://openfoam.org
    \\  /    A nd           | Version:  10
     \\/     M anipulation  |
\*---------------------------------------------------------------------------*/
FoamFile
{
    format      ascii;
    class       surfaceScalarField;
    location    "1.675";
    object      phi;
}
// * * * * * * * * * * * * * * * * * * * * * * * * * * * * * * * * * * * * * //

dimensions      [0 3 -1 0 0 0 0];

internalField   nonuniform List<scalar> 
22800
(
-5.38435e-06
5.442e-06
-5.76527e-08
-1.26751e-05
7.20054e-06
9.01861e-08
-1.98876e-05
7.09051e-06
1.22027e-07
-2.66551e-05
6.63398e-06
1.33461e-07
-3.27897e-05
6.00614e-06
1.28496e-07
-3.81366e-05
5.23353e-06
1.13339e-07
-4.25605e-05
4.33266e-06
9.12792e-08
-4.59453e-05
3.32091e-06
6.38656e-08
-4.81943e-05
2.21702e-06
3.20248e-08
-4.92319e-05
1.04093e-06
-3.32057e-09
-4.90053e-05
-1.8524e-07
-4.13463e-08
-4.74866e-05
-1.43755e-06
-8.12073e-08
-4.46787e-05
-2.68637e-06
-1.21526e-07
-4.06187e-05
-3.89928e-06
-1.60711e-07
-3.53827e-05
-5.03944e-06
-1.96535e-07
-2.90906e-05
-6.06636e-06
-2.25785e-07
-2.19107e-05
-6.93683e-06
-2.43107e-07
-1.40756e-05
-7.59526e-06
-2.39783e-07
-6.03743e-06
-7.82931e-06
-2.08874e-07
-6.00038e-06
-3.70515e-08
-7.36657e-06
1.30405e-05
-2.31933e-07
-1.69951e-05
1.69076e-05
-7.85269e-08
-2.64937e-05
1.66254e-05
-3.62076e-08
-3.53928e-05
1.55424e-05
-9.40838e-09
-4.34432e-05
1.40544e-05
2.18785e-09
-5.0442e-05
1.22262e-05
6.11057e-09
-5.62143e-05
1.01002e-05
4.79304e-09
-6.0612e-05
7.71925e-06
-6.58587e-10
-6.35143e-05
5.12822e-06
-8.93522e-09
-6.48258e-05
2.37367e-06
-2.12587e-08
-6.44884e-05
-4.86062e-07
-3.65558e-08
-6.24632e-05
-3.409e-06
-5.37393e-08
-5.87598e-05
-6.31714e-06
-7.26221e-08
-5.34278e-05
-9.13933e-06
-9.18995e-08
-4.65663e-05
-1.17914e-05
-1.09594e-07
-3.83301e-05
-1.418e-05
-1.22597e-07
-2.89371e-05
-1.62046e-05
-1.25285e-07
-1.86891e-05
-1.77348e-05
-1.08462e-07
-8.1594e-06
-1.82922e-05
-6.67287e-08
-1.42757e-05
1.15912e-07
-7.86875e-06
2.12054e-05
-2.96158e-07
-1.81479e-05
2.73256e-05
-1.38861e-07
-2.82756e-05
2.68453e-05
-9.22785e-08
-3.77568e-05
2.5084e-05
-6.03309e-08
-4.63309e-05
2.26708e-05
-4.24489e-08
-5.37852e-05
1.97129e-05
-3.22884e-08
-5.9938e-05
1.62799e-05
-2.67863e-08
-6.46361e-05
1.24423e-05
-2.49747e-08
-6.77538e-05
8.27249e-06
-2.65923e-08
-6.9195e-05
3.84631e-06
-3.14504e-08
-6.88846e-05
-7.57101e-07
-3.93455e-08
-6.6785e-05
-5.45874e-06
-4.98501e-08
-6.28978e-05
-1.01418e-05
-6.26053e-08
-5.72645e-05
-1.46963e-05
-7.63355e-08
-4.99792e-05
-1.89876e-05
-8.91058e-08
-4.11969e-05
-2.28645e-05
-9.77439e-08
-3.11434e-05
-2.61618e-05
-9.63213e-08
-2.01391e-05
-2.86641e-05
-7.50175e-08
-8.80025e-06
-2.96025e-05
-2.85675e-08
-2.32395e-05
1.63565e-07
-8.37916e-06
2.99356e-05
-3.51002e-07
-1.93388e-05
3.84721e-05
-1.86912e-07
-3.01294e-05
3.77723e-05
-1.36361e-07
-4.0226e-05
3.52805e-05
-9.99607e-08
-4.9355e-05
3.18777e-05
-7.78183e-08
-5.72963e-05
2.77174e-05
-6.32704e-08
-6.38636e-05
2.29005e-05
-5.32148e-08
-6.89007e-05
1.75261e-05
-4.67444e-08
-7.22785e-05
1.1694e-05
-4.36789e-08
-7.3894e-05
5.50589e-06
-4.40432e-08
-7.36703e-05
-9.32878e-07
-4.79191e-08
-7.1549e-05
-7.52558e-06
-5.44932e-08
-6.75193e-05
-1.41076e-05
-6.3839e-08
-6.16071e-05
-2.05337e-05
-7.479e-08
-5.38917e-05
-2.66176e-05
-8.53369e-08
-4.45199e-05
-3.21442e-05
-9.20928e-08
-3.37214e-05
-3.68717e-05
-8.8583e-08
-2.18394e-05
-4.04821e-05
-6.39643e-08
-9.55026e-06
-4.1879e-05
-1.26637e-08
-3.29841e-05
1.94326e-07
-9.08348e-06
3.94269e-05
-4.07843e-07
-2.09742e-05
5.05955e-05
-2.32641e-07
-3.26706e-05
4.96462e-05
-1.77444e-07
-4.36046e-05
4.6351e-05
-1.36518e-07
-5.34853e-05
4.18689e-05
-1.10564e-07
-6.20838e-05
3.64084e-05
-9.24821e-08
-6.92101e-05
3.01059e-05
-7.90322e-08
-7.47064e-05
2.30917e-05
-6.93261e-08
-7.84414e-05
1.54922e-05
-6.32543e-08
-8.03066e-05
7.4321e-06
-6.09666e-08
-8.02165e-05
-9.60264e-07
-6.27014e-08
-7.80907e-05
-9.58403e-06
-6.73196e-08
-7.38963e-05
-1.82267e-05
-7.53489e-08
-6.76329e-05
-2.67115e-05
-8.5675e-08
-5.93536e-05
-3.48008e-05
-9.61455e-08
-4.91872e-05
-4.22075e-05
-1.03004e-07
-3.7363e-05
-4.8597e-05
-9.89122e-08
-2.42534e-05
-5.35203e-05
-7.14172e-08
-1.06226e-05
-5.54957e-05
-1.40777e-08
-4.38228e-05
2.16115e-07
-1.00175e-05
4.992e-05
-4.7559e-07
-2.31363e-05
6.39991e-05
-2.84865e-07
-3.6021e-05
6.27547e-05
-2.23821e-07
-4.80453e-05
5.85528e-05
-1.77423e-07
-5.88972e-05
5.28678e-05
-1.47117e-07
-6.8339e-05
4.59754e-05
-1.25254e-07
-7.61799e-05
3.80553e-05
-1.08415e-07
-8.22646e-05
2.92721e-05
-9.57152e-08
-8.64629e-05
1.97776e-05
-8.71041e-08
-8.86628e-05
9.71482e-06
-8.28573e-08
-8.87705e-05
-7.69048e-07
-8.3486e-08
-8.66744e-05
-1.1593e-05
-8.71757e-08
-8.23105e-05
-2.24953e-05
-9.52721e-08
-7.56374e-05
-3.3278e-05
-1.06612e-07
-6.66642e-05
-4.36551e-05
-1.18885e-07
-5.54839e-05
-5.32599e-05
-1.27803e-07
-4.23135e-05
-6.16427e-05
-1.24774e-07
-2.75572e-05
-6.81817e-05
-9.494e-08
-1.20999e-05
-7.09227e-05
-3.03471e-08
-5.61555e-05
2.32823e-07
-1.12136e-05
6.16958e-05
-5.62163e-07
-2.58978e-05
7.90347e-05
-3.51411e-07
-4.02843e-05
7.7424e-05
-2.82712e-07
-5.36723e-05
7.21697e-05
-2.28954e-07
-6.57247e-05
6.5113e-05
-1.92724e-07
-7.61987e-05
5.66152e-05
-1.65768e-07
-8.49093e-05
4.69104e-05
-1.44508e-07
-9.17115e-05
3.62023e-05
-1.28073e-07
-9.6484e-05
2.46666e-05
-1.1647e-07
-9.91153e-05
1.24562e-05
-1.1009e-07
-9.9507e-05
-2.67457e-07
-1.09884e-07
-9.75066e-05
-1.34801e-05
-1.13318e-07
-9.30077e-05
-2.68715e-05
-1.22675e-07
-8.5906e-05
-4.02431e-05
-1.36675e-07
-7.61393e-05
-5.32689e-05
-1.52947e-07
-6.3734e-05
-6.54987e-05
-1.6654e-07
-4.88689e-05
-7.63407e-05
-1.6711e-07
-3.19732e-05
-8.4941e-05
-1.36262e-07
-1.4091e-05
-8.87416e-05
-6.33948e-08
-7.0491e-05
2.44492e-07
-1.27179e-05
7.50897e-05
-6.76042e-07
-2.93594e-05
9.61164e-05
-4.40231e-07
-4.56013e-05
9.40271e-05
-3.61145e-07
-6.06482e-05
8.75135e-05
-2.96871e-07
-7.41374e-05
7.8854e-05
-2.51849e-07
-8.58285e-05
6.85235e-05
-2.17273e-07
-9.5555e-05
5.68264e-05
-1.89483e-07
-0.000103197
4.40116e-05
-1.67659e-07
-0.000108654
3.02757e-05
-1.51822e-07
-0.000111826
1.57702e-05
-1.42313e-07
-0.000112613
6.60029e-07
-1.39856e-07
-0.00011082
-1.51285e-05
-1.44843e-07
-0.000106281
-3.12536e-05
-1.57047e-07
-9.87983e-05
-4.75497e-05
-1.75889e-07
-8.81977e-05
-6.36702e-05
-1.99284e-07
-7.43875e-05
-7.90872e-05
-2.21685e-07
-5.74579e-05
-9.30399e-05
-2.30392e-07
-3.78352e-05
-0.000104362
-2.01819e-07
-1.67662e-05
-0.00010969
-1.20564e-07
-8.7504e-05
2.46819e-07
-1.45992e-05
9.05177e-05
-8.28868e-07
-3.36666e-05
0.000115746
-5.61926e-07
-5.21694e-05
0.000112998
-4.68053e-07
-6.91942e-05
0.000104926
-3.87993e-07
-8.43565e-05
9.43456e-05
-3.29267e-07
-9.74338e-05
8.18836e-05
-2.82745e-07
-0.0001083
6.79374e-05
-2.44861e-07
-0.000116883
5.28095e-05
-2.14874e-07
-0.000123127
3.67127e-05
-1.92724e-07
-0.000126962
1.97829e-05
-1.77958e-07
-0.000128273
2.13782e-06
-1.66695e-07
-0.000126864
-1.63576e-05
-1.79882e-07
-0.000122468
-3.54522e-05
-1.97301e-07
-0.000114761
-5.50331e-05
-2.23995e-07
-0.000103393
-7.4779e-05
-2.59159e-07
-8.80737e-05
-9.41091e-05
-2.9711e-07
-6.87115e-05
-0.00011208
-3.22212e-07
-4.56564e-05
-0.000127114
-3.03388e-07
-2.04023e-05
-0.000134728
-2.15988e-07
-0.000108135
2.28853e-07
-1.69639e-05
0.00010852
-1.03856e-06
-3.90348e-05
0.000138549
-7.32441e-07
-6.02709e-05
0.00013485
-6.16137e-07
-7.96146e-05
0.000124781
-5.1123e-07
-9.66726e-05
0.000111834
-4.304e-07
-0.000111269
9.68449e-05
-3.64748e-07
-0.000123353
8.03326e-05
-3.11052e-07
-0.000132937
6.26621e-05
-2.68692e-07
-0.000140042
4.40551e-05
-2.37686e-07
-0.000144651
2.46105e-05
-2.18288e-07
-0.000146668
4.36623e-06
-2.11847e-07
-0.000145886
-1.69198e-05
-2.19188e-07
-0.000141938
-3.91597e-05
-2.41096e-07
-0.000134327
-6.23652e-05
-2.79075e-07
-0.000122444
-8.6329e-05
-3.32851e-07
-0.000105671
-0.000110485
-3.97081e-07
-8.35694e-05
-0.000133728
-4.53361e-07
-5.62459e-05
-0.000153977
-4.60411e-07
-2.5469e-05
-0.000165131
-3.74436e-07
-0.00013377
1.66376e-07
-1.99829e-05
0.000129838
-1.33456e-06
-4.57907e-05
0.000165334
-9.77199e-07
-7.03178e-05
0.000160201
-8.2421e-07
-9.23339e-05
0.000147476
-6.78369e-07
-0.000111471
0.000131532
-5.60949e-07
-0.000127649
0.000113488
-4.64335e-07
-0.000140948
9.40176e-05
-3.85852e-07
-0.000151517
7.35558e-05
-3.24723e-07
-0.000159501
5.23192e-05
-2.80512e-07
-0.000164978
3.03405e-05
-2.53203e-07
-0.000167903
7.53593e-06
-2.43949e-07
-0.000168082
-1.6489e-05
-2.51785e-07
-0.000165048
-4.19136e-05
-2.80682e-07
-0.000158097
-6.89809e-05
-3.34726e-07
-0.000146263
-9.77466e-05
-4.16676e-07
-0.000128401
-0.000127824
-5.2387e-07
-0.000103451
-0.000158041
-6.36854e-07
-7.0915e-05
-0.00018581
-7.03454e-07
-3.28074e-05
-0.000202601
-6.377e-07
-0.000166581
3.1001e-09
-2.39451e-05
0.000155551
-1.76777e-06
-5.4446e-05
0.000197173
-1.33815e-06
-8.29239e-05
0.0001898
-1.12035e-06
-0.000107954
0.00017341
-9.04208e-07
-0.000129268
0.000153571
-7.24977e-07
-0.000146967
0.000131764
-5.78124e-07
-0.000161342
0.000108854
-4.61246e-07
-0.000172754
8.53404e-05
-3.72388e-07
-0.000181537
6.1411e-05
-3.09265e-07
-0.00018792
3.69934e-05
-2.70122e-07
-0.000191964
1.18348e-05
-2.54788e-07
-0.000193525
-1.46639e-05
-2.63628e-07
-0.000192072
-4.30664e-05
-3.00965e-07
-0.000186685
-7.39917e-05
-3.75477e-07
-0.00017595
-0.000107986
-4.96894e-07
-0.000157948
-0.000145154
-6.70621e-07
-0.000130529
-0.000184578
-8.82079e-07
-9.1856e-05
-0.000223406
-1.07624e-06
-4.40181e-05
-0.000249365
-1.07324e-06
-0.000210237
-3.62301e-07
-2.93664e-05
0.000187349
-2.4317e-06
-6.58258e-05
0.00023552
-1.88728e-06
-9.90219e-05
0.000224542
-1.54586e-06
-0.000127337
0.000202929
-1.20417e-06
-0.000150764
0.000177917
-9.18915e-07
-0.000169713
0.000151404
-6.9122e-07
-0.00018481
0.000124468
-5.16722e-07
-0.000196727
9.76467e-05
-3.89215e-07
-0.00020607
7.10562e-05
-3.01372e-07
-0.000213294
4.44636e-05
-2.47155e-07
-0.000218625
1.739e-05
-2.23312e-07
-0.000222056
-1.10032e-05
-2.29877e-07
-0.00022307
-4.17797e-05
-2.73002e-07
-0.00022059
-7.61036e-05
-3.67808e-07
-0.000212724
-0.000115316
-5.35923e-07
-0.000196538
-0.000160538
-8.0166e-07
-0.00016815
-0.000211794
-1.17202e-06
-0.000122855
-0.000267075
-1.62609e-06
-6.24175e-05
-0.000308024
-1.7787e-06
-0.000271426
-1.22833e-06
-3.72485e-05
0.000228081
-3.4843e-06
-8.13298e-05
0.000282334
-2.73241e-06
-0.00012006
0.000265423
-2.15122e-06
-0.000151735
0.000236186
-1.58227e-06
-0.000176907
0.000204204
-1.11479e-06
-0.000196494
0.000171752
-7.60534e-07
-0.00021163
0.000140108
-5.04721e-07
-0.000223425
0.000109771
-3.28782e-07
-0.00023285
8.06953e-05
-2.134e-07
-0.000240668
5.24236e-05
-1.42805e-07
-0.000247351
2.41811e-05
-1.07642e-07
-0.00025313
-5.12104e-06
-1.03534e-07
-0.000257679
-3.70905e-05
-1.39632e-07
-0.000259945
-7.35992e-05
-2.38571e-07
-0.000257717
-0.000117104
-4.40646e-07
-0.000246923
-0.000170528
-8.04528e-07
-0.000221417
-0.000235902
-1.39779e-06
-0.000170588
-0.000315541
-2.36312e-06
-9.54564e-05
-0.000380257
-2.89832e-06
-0.000363703
-3.1794e-06
-4.90822e-05
0.000282661
-5.49724e-06
-0.000103001
0.000340418
-4.16525e-06
-0.00014816
0.000313607
-3.02562e-06
-0.00018292
0.000272951
-2.00482e-06
-0.000208955
0.000231457
-1.21799e-06
-0.000228029
0.000191501
-6.7507e-07
-0.000242044
0.000154441
-3.18148e-07
-0.000252698
0.00012052
-9.49343e-08
-0.000261403
8.9363e-05
3.73551e-08
-0.000269278
6.01898e-05
1.08278e-07
-0.000277144
3.18994e-05
1.48315e-07
-0.000285629
3.19446e-06
1.69591e-07
-0.000294787
-2.81115e-05
1.78883e-07
-0.000304038
-6.44893e-05
1.41144e-07
-0.000311442
-0.000109717
1.64513e-08
-0.000311895
-0.000169699
-3.75469e-07
-0.000297464
-0.000249157
-1.17622e-06
-0.000246206
-0.000363793
-3.00666e-06
-0.00015646
-0.000465752
-4.25099e-06
-0.000512646
-7.51669e-06
-7.3258e-05
0.000363878
-7.95953e-06
-0.000136744
0.000410094
-6.19038e-06
-0.000187514
0.000368392
-4.01473e-06
-0.000223609
0.000311281
-2.23453e-06
-0.000248524
0.000257307
-9.35871e-07
-0.000265035
0.000208168
-1.55663e-07
-0.000276083
0.000165222
2.66938e-07
-0.000284057
0.000128011
4.82875e-07
-0.00029083
9.55532e-05
5.8232e-07
-0.000297887
6.66165e-05
6.30557e-07
-0.000306474
3.9816e-05
6.70702e-07
-0.000317406
1.33974e-05
7.28339e-07
-0.000331933
-1.4459e-05
8.75127e-07
-0.000350335
-4.71103e-05
1.02264e-06
-0.000372244
-8.90008e-05
1.1932e-06
-0.000391836
-0.000151315
1.20777e-06
-0.000403707
-0.000238103
8.16683e-07
-0.000364936
-0.000400589
-1.97414e-06
-0.000271665
-0.000555347
-3.67533e-06
-0.000768809
-1.5502e-05
-9.20666e-05
0.000472064
-1.61187e-05
-0.000177748
0.000505099
-9.32383e-06
-0.000239149
0.000434835
-5.04251e-06
-0.000275922
0.000349537
-1.48308e-06
-0.000296417
0.000277242
5.61402e-07
-0.000306765
0.000217047
1.46937e-06
-0.000311781
0.00016845
1.78772e-06
-0.000314649
0.000129062
1.81753e-06
-0.000317565
9.67189e-05
1.74977e-06
-0.000322158
6.95179e-05
1.6924e-06
-0.000329774
4.57067e-05
1.7253e-06
-0.000342079
2.37972e-05
1.90523e-06
-0.000361576
2.84264e-06
2.19518e-06
-0.000388768
-2.2841e-05
2.92281e-06
-0.000429872
-5.21312e-05
4.23449e-06
-0.000475252
-0.000112012
6.07672e-06
-0.000540746
-0.000181024
8.41504e-06
-0.000537903
-0.000408911
5.47918e-06
-0.000457287
-0.000641097
5.13265e-06
-0.00120156
-2.45322e-05
-0.000225795
0.000722712
-2.48543e-05
-0.000284513
0.000582715
-1.88975e-05
-0.000318857
0.000476259
-7.07972e-06
-0.000334871
0.000366264
-7.13702e-07
-0.000335677
0.000274854
3.1942e-06
-0.00032954
0.000206305
4.605e-06
-0.000321272
0.000155353
4.82913e-06
-0.000313516
0.000116811
4.49454e-06
-0.000308223
8.74072e-05
4.0194e-06
-0.000306928
6.45922e-05
3.63068e-06
-0.000311322
4.66486e-05
3.45204e-06
-0.000323246
3.21243e-05
3.59651e-06
-0.000345197
2.04569e-05
4.33692e-06
-0.000380862
7.08111e-06
5.74328e-06
-0.000438141
-4.31243e-06
9.45974e-06
-0.000515529
-4.93891e-05
1.47654e-05
-0.000617231
-0.000104524
2.52012e-05
-0.000659232
-0.000394998
2.80884e-05
-0.000553374
-0.00078247
3.55148e-05
-0.00172843
-2.65033e-05
-0.000396378
0.00116815
-4.90546e-05
-0.000351241
0.000542532
-4.9544e-06
-0.000272463
0.000389425
8.05597e-06
-0.000190876
0.000266813
1.78636e-05
-0.000115701
0.000180033
1.96457e-05
-5.26195e-05
0.000125916
1.73077e-05
-2.84635e-06
9.14218e-05
1.41577e-05
3.48538e-05
6.78546e-05
1.12564e-05
6.23857e-05
5.0867e-05
9.00829e-06
8.12335e-05
3.82657e-05
7.47867e-06
9.23863e-05
2.88003e-05
6.69561e-06
9.66297e-05
2.1144e-05
6.73686e-06
9.37819e-05
1.51966e-05
8.10812e-06
8.07535e-05
8.63982e-06
1.14697e-05
6.25642e-05
-4.61226e-06
1.84891e-05
1.32868e-05
-3.08282e-05
3.07165e-05
-1.73332e-05
-0.000128858
5.49537e-05
-0.000134283
-0.000342645
6.45975e-05
-0.000148336
-0.000859241
9.08237e-05
-0.00181356
-6.32143e-05
0.00124215
-7.40001e-05
0.00184011
-5.54346e-05
0.00226084
-3.13043e-05
0.0025353
-7.64834e-06
0.00271032
5.01361e-06
0.00282618
1.00596e-05
0.00290637
1.12282e-05
0.00296371
1.05143e-05
0.00300549
9.08956e-06
0.00303613
7.6249e-06
0.00305818
6.74922e-06
0.00307343
5.89478e-06
0.00308139
7.2392e-06
0.00308315
6.88004e-06
0.00306362
1.49121e-05
0.00301527
1.75221e-05
0.00285093
3.5484e-05
0.00245955
4.87353e-05
0.00161403
-1.37174e-05
-0.000199527
-7.10475e-06
7.1282e-06
-8.11039e-08
-1.66582e-05
9.62802e-06
1.55709e-08
-2.60747e-05
9.49426e-06
4.43501e-08
-3.48696e-05
8.86844e-06
5.98549e-08
-4.28128e-05
8.00911e-06
6.26206e-08
-4.97114e-05
6.95539e-06
5.65109e-08
-5.53953e-05
5.73126e-06
4.39213e-08
-5.9719e-05
4.36144e-06
2.62005e-08
-6.25637e-05
2.87214e-06
4.50292e-09
-6.38361e-05
1.29164e-06
-2.24742e-08
-6.34762e-05
-3.50812e-07
-5.04433e-08
-6.14547e-05
-2.0224e-06
-8.03619e-08
-5.7781e-05
-3.68424e-06
-1.10984e-07
-5.25073e-05
-5.29382e-06
-1.40523e-07
-4.57339e-05
-6.80322e-06
-1.66776e-07
-3.76128e-05
-8.16013e-06
-1.86774e-07
-2.83511e-05
-9.3086e-06
-1.9615e-07
-1.82289e-05
-1.01732e-05
-1.88827e-07
-7.8319e-06
-1.04446e-05
-1.61292e-07
-7.82296e-06
-4.59955e-08
-9.94126e-06
1.7041e-05
-2.03447e-07
-2.28094e-05
2.25277e-05
-1.10005e-07
-3.54606e-05
2.21803e-05
-7.10085e-08
-4.72617e-05
2.07029e-05
-4.27479e-08
-5.78992e-05
1.86755e-05
-2.67777e-08
-6.71127e-05
1.61941e-05
-1.90946e-08
-7.46778e-05
1.33185e-05
-1.73498e-08
-8.04057e-05
1.01091e-05
-2.03934e-08
-8.41438e-05
6.62881e-06
-2.7522e-08
-8.57767e-05
2.94145e-06
-3.82399e-08
-8.52344e-05
-8.77675e-07
-5.19101e-08
-8.24789e-05
-4.76396e-06
-6.77163e-08
-7.75296e-05
-8.62116e-06
-8.50362e-08
-7.04584e-05
-1.23546e-05
-1.02231e-07
-6.1399e-05
-1.58551e-05
-1.17126e-07
-5.05531e-05
-1.90021e-05
-1.26627e-07
-3.81952e-05
-2.16657e-05
-1.25995e-07
-2.46984e-05
-2.36698e-05
-1.08702e-07
-1.08165e-05
-2.4321e-05
-7.21854e-08
-1.85762e-05
5.26044e-08
-1.0661e-05
2.76672e-05
-2.61353e-07
-2.44451e-05
3.634e-05
-1.67186e-07
-3.79784e-05
3.57455e-05
-1.2419e-07
-5.05913e-05
3.33471e-05
-9.17209e-08
-6.19535e-05
3.00656e-05
-7.03159e-08
-7.17928e-05
2.60576e-05
-5.65729e-08
-7.98751e-05
2.14223e-05
-4.8286e-08
-8.60048e-05
1.62584e-05
-4.44957e-08
-9.00244e-05
1.06666e-05
-4.47408e-08
-9.18162e-05
4.75043e-06
-4.87103e-08
-9.12928e-05
-1.38444e-06
-5.59276e-08
-8.84162e-05
-7.6246e-06
-6.58446e-08
-8.31971e-05
-1.38252e-05
-7.77423e-08
-7.56987e-05
-1.98393e-05
-9.0087e-08
-6.60497e-05
-2.54924e-05
-1.00708e-07
-5.44532e-05
-3.059e-05
-1.06414e-07
-4.11943e-05
-3.49187e-05
-1.02187e-07
-2.66698e-05
-3.81883e-05
-8.103e-08
-1.16912e-05
-3.92875e-05
-4.07037e-08
-3.01925e-05
8.86894e-08
-1.13704e-05
3.90035e-05
-3.16845e-07
-2.60838e-05
5.10875e-05
-2.2104e-07
-4.05173e-05
5.02165e-05
-1.73732e-07
-5.39597e-05
4.68253e-05
-1.35832e-07
-6.60641e-05
4.22017e-05
-1.09454e-07
-7.65487e-05
3.65695e-05
-9.05662e-08
-8.51743e-05
3.00717e-05
-7.70041e-08
-9.1742e-05
2.28473e-05
-6.79222e-08
-9.6091e-05
1.50348e-05
-6.29793e-08
-9.80961e-05
6.77352e-06
-6.20078e-08
-9.76664e-05
-1.79721e-06
-6.48689e-08
-9.47411e-05
-1.05336e-05
-7.08596e-08
-8.93154e-05
-1.92353e-05
-7.93748e-08
-8.14333e-05
-2.77071e-05
-8.89875e-08
-7.12058e-05
-3.57078e-05
-9.74533e-08
-5.8826e-05
-4.29604e-05
-1.01339e-07
-4.45844e-05
-4.91538e-05
-9.51236e-08
-2.89052e-05
-5.38605e-05
-7.10085e-08
-1.26787e-05
-5.54997e-05
-2.68882e-08
-4.27884e-05
1.11522e-07
-1.23445e-05
5.13176e-05
-3.77448e-07
-2.8324e-05
6.7112e-05
-2.7765e-07
-4.39822e-05
6.59224e-05
-2.25108e-07
-5.85481e-05
6.14361e-05
-1.81463e-07
-7.16529e-05
5.53456e-05
-1.49621e-07
-8.3004e-05
4.79537e-05
-1.255e-07
-9.23583e-05
3.94539e-05
-1.06931e-07
-9.95164e-05
3.00292e-05
-9.31595e-08
-0.000104316
1.98549e-05
-8.39775e-08
-0.000106626
9.10186e-06
-7.93555e-08
-0.000106344
-2.06199e-06
-7.9238e-08
-0.000103386
-1.34762e-05
-8.28138e-08
-9.77187e-05
-2.48884e-05
-8.97517e-08
-8.93536e-05
-3.60593e-05
-9.86169e-08
-7.83697e-05
-4.66808e-05
-1.06988e-07
-6.49385e-05
-5.63837e-05
-1.1102e-07
-4.93494e-05
-6.47374e-05
-1.0438e-07
-3.20623e-05
-7.1141e-05
-7.79741e-08
-1.40823e-05
-7.34646e-05
-2.92114e-08
-5.67786e-05
1.24062e-07
-1.36365e-05
6.49292e-05
-4.50698e-07
-3.1286e-05
8.48213e-05
-3.44643e-07
-4.85501e-05
8.32479e-05
-2.8526e-07
-6.45778e-05
7.75207e-05
-2.34316e-07
-7.89733e-05
6.97897e-05
-1.95756e-07
-9.14341e-05
6.04547e-05
-1.65421e-07
-0.000101718
4.97704e-05
-1.41171e-07
-0.00010963
3.79678e-05
-1.22353e-07
-0.000115011
2.52582e-05
-1.08874e-07
-0.000117729
1.18377e-05
-1.00843e-07
-0.00011767
-2.10592e-06
-9.83933e-08
-0.000114715
-1.64188e-05
-1.005e-07
-0.00010879
-3.08013e-05
-1.07209e-07
-9.98566e-05
-4.4982e-05
-1.17053e-07
-8.79398e-05
-5.85891e-05
-1.27374e-07
-7.31666e-05
-7.11509e-05
-1.33746e-07
-5.58109e-05
-8.20892e-05
-1.28643e-07
-3.63708e-05
-9.05751e-05
-1.01004e-07
-1.60092e-05
-9.38093e-05
-4.71726e-08
-7.26829e-05
1.27815e-07
-1.52934e-05
8.0205e-05
-5.44508e-07
-3.50735e-05
0.00010468
-4.30067e-07
-5.43681e-05
0.000102621
-3.61382e-07
-7.22233e-05
9.54473e-05
-3.00369e-07
-8.8213e-05
8.58392e-05
-2.52528e-07
-0.00010203
7.43193e-05
-2.13724e-07
-0.000113441
6.12191e-05
-1.81931e-07
-0.000122269
4.68245e-05
-1.56645e-07
-0.000128369
3.13798e-05
-1.37902e-07
-0.000131612
1.50963e-05
-1.25951e-07
-0.000131877
-1.82966e-06
-1.21211e-07
-0.000128998
-1.92885e-05
-1.22395e-07
-0.000122849
-3.69432e-05
-1.30066e-07
-0.000113311
-5.45132e-05
-1.42715e-07
-0.000100322
-7.15739e-05
-1.57489e-07
-8.39251e-05
-8.75453e-05
-1.69231e-07
-6.43464e-05
-0.000101666
-1.68752e-07
-4.21132e-05
-0.000112803
-1.4204e-07
-1.85971e-05
-0.000117305
-8.32957e-08
-9.11568e-05
1.21317e-07
-1.73819e-05
9.75792e-05
-6.68263e-07
-3.98293e-05
0.00012723
-5.43195e-07
-6.16343e-05
0.000124526
-4.61399e-07
-8.17128e-05
0.000115615
-3.8581e-07
-9.96082e-05
0.000103807
-3.24366e-07
-0.00011502
8.97868e-05
-2.73212e-07
-0.000127744
7.3984e-05
-2.3061e-07
-0.000137638
5.67477e-05
-1.96276e-07
-0.000144591
3.83511e-05
-1.7036e-07
-0.000148489
1.90053e-05
-1.53213e-07
-0.000149214
-1.09894e-06
-1.4566e-07
-0.000146543
-2.19577e-05
-1.46253e-07
-0.000140278
-4.32099e-05
-1.56151e-07
-0.000130184
-6.46092e-05
-1.73863e-07
-0.000116056
-8.57045e-05
-1.96561e-07
-9.77908e-05
-0.000105814
-2.18338e-07
-7.5503e-05
-0.000123957
-2.2779e-07
-4.97136e-05
-0.000138587
-2.06499e-07
-2.20609e-05
-0.000144934
-1.44662e-07
-0.00011307
9.95804e-08
-2.00008e-05
0.000117586
-8.35004e-07
-4.57593e-05
0.000153124
-6.96568e-07
-7.06258e-05
0.00014952
-5.95507e-07
-9.3355e-05
0.000138454
-4.97993e-07
-0.000113466
0.000124005
-4.15877e-07
-0.000130689
0.000107073
-3.46103e-07
-0.000144877
8.82156e-05
-2.87506e-07
-0.00015596
6.78557e-05
-2.40083e-07
-0.000163886
4.62876e-05
-2.04009e-07
-0.000168576
2.36976e-05
-1.79441e-07
-0.000169941
2.66073e-07
-1.67071e-07
-0.000167684
-2.42267e-05
-1.68057e-07
-0.000161522
-4.93876e-05
-1.81646e-07
-0.000151054
-7.50934e-05
-2.07257e-07
-0.000135855
-0.00010092
-2.42758e-07
-0.000115572
-0.000126113
-2.81847e-07
-9.00874e-05
-0.000149453
-3.10421e-07
-5.98252e-05
-0.000168849
-3.03655e-07
-2.67504e-05
-0.000177981
-2.43843e-07
-0.000139644
5.17395e-08
-2.33009e-05
0.000140913
-1.06437e-06
-5.31655e-05
0.000183164
-9.08518e-07
-8.17364e-05
0.000178253
-7.77759e-07
-0.000107571
0.000164424
-6.46098e-07
-0.000130187
0.000146722
-5.31768e-07
-0.000149385
0.000126339
-4.33457e-07
-0.000165128
0.000103999
-3.50965e-07
-0.000177464
8.02076e-05
-2.84543e-07
-0.000186448
5.52682e-05
-2.34166e-07
-0.000192084
2.93146e-05
-1.99286e-07
-0.000194269
2.41722e-06
-1.78231e-07
-0.000192747
-2.57869e-05
-1.81414e-07
-0.000187069
-5.51067e-05
-1.99636e-07
-0.000176623
-8.55821e-05
-2.36271e-07
-0.000160656
-0.000116929
-2.9108e-07
-0.000138401
-0.000148407
-3.58498e-07
-0.000109306
-0.00017858
-4.21809e-07
-7.34817e-05
-0.000204686
-4.47517e-07
-3.32629e-05
-0.000218173
-4.01486e-07
-0.000172692
-4.7866e-08
-2.75209e-05
0.000168487
-1.38741e-06
-6.25019e-05
0.000218375
-1.20698e-06
-9.55345e-05
0.000211489
-1.02801e-06
-0.000124945
0.000193997
-8.41436e-07
-0.000150297
0.000172189
-6.75955e-07
-0.000171535
0.000147646
-5.33612e-07
-0.000188811
0.000121304
-4.15528e-07
-0.000202363
9.37569e-05
-3.2186e-07
-0.000212416
6.52931e-05
-2.51763e-07
-0.000219103
3.59518e-05
-2.04127e-07
-0.000222379
5.62863e-06
-1.78761e-07
-0.000222009
-2.62336e-05
-1.75695e-07
-0.000217407
-5.97917e-05
-1.97418e-07
-0.000207692
-9.53837e-05
-2.47731e-07
-0.000191655
-0.000133053
-3.29549e-07
-0.000167868
-0.000172277
-4.40841e-07
-0.000134992
-0.000211528
-5.64478e-07
-9.23709e-05
-0.000247353
-6.57443e-07
-4.26772e-05
-0.000267853
-6.509e-07
-0.000215111
-2.55211e-07
-3.30554e-05
0.000201629
-1.85522e-06
-7.44687e-05
0.000260086
-1.63553e-06
-0.000112857
0.000250131
-1.37425e-06
-0.00014629
0.000227623
-1.09679e-06
-0.000174489
0.000200512
-8.48982e-07
-0.000197661
0.000170879
-6.38733e-07
-0.000216263
0.000139913
-4.68375e-07
-0.000230827
0.000108285
-3.36625e-07
-0.000241835
7.62322e-05
-2.39934e-07
-0.000249618
4.36384e-05
-1.74448e-07
-0.000254267
1.01603e-05
-1.37674e-07
-0.000255596
-2.50386e-05
-1.28833e-07
-0.000252931
-6.26052e-05
-1.52323e-07
-0.000245103
-0.000103371
-2.16529e-07
-0.000230322
-0.000147999
-3.31956e-07
-0.000206185
-0.000196578
-5.06295e-07
-0.000169975
-0.000247891
-7.29203e-07
-0.000119346
-0.000298103
-9.55486e-07
-5.70779e-05
-0.000330153
-1.04137e-06
-0.000271897
-6.54355e-07
-4.05876e-05
0.000242341
-2.55535e-06
-9.0173e-05
0.000310047
-2.26367e-06
-0.000134954
0.000295222
-1.85482e-06
-0.000172758
0.000265646
-1.42307e-06
-0.000203686
0.000231563
-1.0416e-06
-0.000228399
0.000195628
-7.2763e-07
-0.00024783
0.00015931
-4.82762e-07
-0.000262946
0.000123313
-3.00656e-07
-0.000274595
8.77508e-05
-1.71044e-07
-0.000283398
5.2279e-05
-8.43069e-08
-0.00028966
1.62314e-05
-3.29214e-08
-0.000293347
-2.15672e-05
-1.41196e-08
-0.000293788
-6.24062e-05
-3.11212e-08
-0.000289587
-0.00010784
-9.9726e-08
-0.000278334
-0.000159543
-2.45186e-07
-0.000256332
-0.000218883
-4.97679e-07
-0.000218673
-0.000285852
-8.7015e-07
-0.000159409
-0.000357643
-1.35081e-06
-8.08235e-05
-0.00040888
-1.63679e-06
-0.000352523
-1.42638e-06
-5.1406e-05
0.000293893
-3.63041e-06
-0.000111458
0.00037056
-3.19271e-06
-0.000163733
0.000347859
-2.51446e-06
-0.000205983
0.000308132
-1.81798e-06
-0.000239108
0.000264793
-1.21971e-06
-0.000264507
0.000221018
-7.51138e-07
-0.000283838
0.000178542
-4.05989e-07
-0.000298672
0.000137983
-1.64506e-07
-0.000310344
9.92145e-05
-5.23921e-09
-0.000319879
6.15554e-05
1.16127e-07
-0.000327882
2.39331e-05
1.93748e-07
-0.000334611
-1.5183e-05
2.40453e-07
-0.000339604
-5.78027e-05
2.49835e-07
-0.00034146
-0.00010642
1.98075e-07
-0.000337326
-0.000164149
3.10966e-08
-0.000322081
-0.000234647
-2.85141e-07
-0.00028793
-0.000320554
-8.48014e-07
-0.00022161
-0.000424536
-1.79045e-06
-0.000124067
-0.000506826
-2.495e-06
-0.000476773
-2.99591e-06
-6.71381e-05
0.000361021
-5.48792e-06
-0.000140805
0.000444705
-4.64325e-06
-0.000201871
0.000409318
-3.41863e-06
-0.000248215
0.000354714
-2.2438e-06
-0.000282326
0.000298978
-1.29215e-06
-0.000306848
0.000245468
-6.03132e-07
-0.000324527
0.000196042
-1.39307e-07
-0.000337741
0.000150933
1.68617e-07
-0.000348418
0.000109559
3.69798e-07
-0.000358048
7.07911e-05
5.02443e-07
-0.000367667
3.30988e-05
6.012e-07
-0.000377976
-5.3945e-06
6.90273e-07
-0.000389046
-4.73283e-05
7.74054e-07
-0.000399978
-9.61666e-05
8.20446e-07
-0.0004082
-0.000156671
7.61618e-07
-0.000407379
-0.000236294
4.49352e-07
-0.000387409
-0.000341395
-3.04314e-07
-0.000321136
-0.000491838
-1.97826e-06
-0.00020535
-0.00062345
-3.41258e-06
-0.000683415
-6.22492e-06
-9.87634e-05
0.000459703
-7.87791e-06
-0.000186128
0.000532529
-6.65012e-06
-0.000254749
0.000478398
-4.47277e-06
-0.000302852
0.000403101
-2.51834e-06
-0.000335322
0.000331542
-1.02849e-06
-0.000356251
0.000266302
-6.0776e-08
-0.000369845
0.000209369
5.3461e-07
-0.000379432
0.000160138
8.65422e-07
-0.000387563
0.000117223
1.04913e-06
-0.000396194
7.88824e-05
1.17037e-06
-0.000406894
4.31806e-05
1.28883e-06
-0.000420598
7.59368e-06
1.44377e-06
-0.000438891
-2.98447e-05
1.68544e-06
-0.000461788
-7.42253e-05
1.97818e-06
-0.000488752
-0.000130784
2.27042e-06
-0.00051267
-0.000213513
2.34423e-06
-0.000526606
-0.000328532
1.89073e-06
-0.000478383
-0.000541255
-7.79117e-07
-0.000357704
-0.000744856
-2.94937e-06
-0.00104465
-1.1972e-05
-0.000119039
0.000576678
-1.4055e-05
-0.000238515
0.000652314
-9.6332e-06
-0.000322804
0.00056328
-5.63583e-06
-0.000372466
0.000453444
-2.16487e-06
-0.000399213
0.000358689
1.62009e-07
-0.000411772
0.000278984
1.34577e-06
-0.000417121
0.000214587
1.91893e-06
-0.000419774
0.000162467
2.14137e-06
-0.000422742
0.000119727
2.21301e-06
-0.000428159
8.37259e-05
2.26631e-06
-0.000437755
5.21019e-05
2.39957e-06
-0.00045373
2.27761e-05
2.69815e-06
-0.000478351
-6.25286e-06
3.22368e-06
-0.000512723
-4.1036e-05
4.10574e-06
-0.000563704
-8.09472e-05
5.37817e-06
-0.000620422
-0.00015755
6.83194e-06
-0.000698644
-0.000250267
8.3717e-06
-0.00069432
-0.000545281
5.18179e-06
-0.000576319
-0.000860649
2.92502e-06
-0.0016265
-1.90006e-05
-0.00027741
0.000850148
-2.09141e-05
-0.00037164
0.000744316
-1.66694e-05
-0.000427146
0.000619241
-7.53351e-06
-0.000452179
0.000479528
-1.76428e-06
-0.000452665
0.000360308
2.06047e-06
-0.00044226
0.000269413
3.77077e-06
-0.000428664
0.000201464
4.3557e-06
-0.000416043
0.000149998
4.34306e-06
-0.000407154
0.000110733
4.12393e-06
-0.000403975
8.02379e-05
3.9399e-06
-0.000408479
5.6112e-05
3.94626e-06
-0.000422597
3.62158e-05
4.2744e-06
-0.000449621
1.99738e-05
5.13457e-06
-0.000492115
5.01466e-07
6.7002e-06
-0.000560064
-1.30287e-05
9.49017e-06
-0.000646745
-6.94641e-05
1.33602e-05
-0.000749228
-0.000142453
1.98694e-05
-0.000778447
-0.000507942
1.99681e-05
-0.000597234
-0.00102745
2.11009e-05
-0.00222588
-2.43597e-05
-0.000560149
0.00139646
-3.52149e-05
-0.000517312
0.000706088
-9.56319e-06
-0.000416237
0.000524977
1.2449e-06
-0.000297174
0.000368723
9.60461e-06
-0.000182815
0.000253073
1.25214e-05
-8.53111e-05
0.00017705
1.21669e-05
-7.58707e-06
0.00012715
1.07485e-05
5.16263e-05
9.29203e-05
9.12052e-06
9.51273e-05
6.8499e-05
7.74174e-06
0.000125496
5.0562e-05
6.78635e-06
0.000144594
3.73247e-05
6.38475e-06
0.000154358
2.65094e-05
6.67887e-06
0.000155803
1.85646e-05
8.07199e-06
0.000147296
9.60499e-06
1.0874e-05
0.000140675
-5.10946e-06
1.71904e-05
0.000112187
-3.57071e-05
2.5447e-05
0.000127482
-0.000146135
4.33424e-05
3.53558e-05
-0.000397965
4.67457e-05
7.72902e-05
-0.00103457
5.60133e-05
-0.00216173
-5.00754e-05
0.00137496
-5.25024e-05
0.00206836
-4.2745e-05
0.00258914
-2.71059e-05
0.00296062
-1.04043e-05
0.00321782
8.82479e-07
0.00339878
6.15044e-06
0.00352897
8.18318e-06
0.00362402
8.38487e-06
0.00369388
7.73395e-06
0.00374522
6.84017e-06
0.00378302
6.27946e-06
0.00380967
5.75439e-06
0.00382862
6.85017e-06
0.00383828
6.82299e-06
0.00383549
1.26008e-05
0.0038028
1.45017e-05
0.00366622
2.59245e-05
0.00328319
3.38004e-05
0.00223746
-2.55166e-06
-0.000123797
-7.26937e-06
7.27739e-06
-8.91268e-08
-1.70682e-05
9.86793e-06
-5.35676e-08
-2.6726e-05
9.73398e-06
-3.18029e-08
-3.57416e-05
9.09106e-06
-1.563e-08