/*--------------------------------*- C++ -*----------------------------------*\
  =========                 |
  \\      /  F ield         | OpenFOAM: The Open Source CFD Toolbox
   \\    /   O peration     | Website:  https://openfoam.org
    \\  /    A nd           | Version:  10
     \\/     M anipulation  |
\*---------------------------------------------------------------------------*/
FoamFile
{
    format      ascii;
    class       volScalarField;
    location    "9.525";
    object      p;
}
// * * * * * * * * * * * * * * * * * * * * * * * * * * * * * * * * * * * * * //

dimensions      [0 2 -2 0 0 0 0];

internalField   nonuniform List<scalar> 
496
(
26.4463
25.9993
22.6647
16.4285
27.6077
27.4386
23.0204
16.4825
32.7885
30.4689
22.6881
11.9871
40.0017
37.4605
33.5711
18.6302
7.95937
-1.16
7.53442
-1.32017
-3.16619
-8.62771
-32.0655
-56.8823
-8.35354
-13.3937
-16.5581
-18.4334
-9.36468
-15.0062
-18.4946
-20.6824
-3.50826
-5.65318
-12.6215
-18.2315
-26.9135
-9.97198
-13.3906
-19.0911
-19.7714
-20.5677
-21.0047
-20.9219
-20.0461
-18.3231
-16.1915
-14.4486
-12.8159
-11.4535
-10.2248
-9.41274
-8.62866
-8.24256
-8.42125
-8.33595
-8.27344
-8.38811
-9.23427
-9.75554
-9.29944
-8.4184
-7.53632
-7.40882
-7.04163
-6.48402
-5.49636
-4.41965
-3.78199
-3.15737
-2.72449
-2.08042
-1.55566
-1.18323
-0.769094
-0.507985
-0.27854
-0.190297
-0.130569
-0.023067
-22.2242
-22.9547
-22.9581
-22.0143
-20.4378
-18.5013
-16.5262
-14.6066
-12.7557
-11.3749
-10.1185
-8.85407
-7.72483
-7.546
-8.23567
-8.38008
-8.40784
-8.39406
-9.04078
-9.44897
-9.26854
-8.59869
-7.88024
-7.58893
-7.08764
-6.52717
-5.48963
-4.47736
-3.67539
-2.91196
-2.43118
-1.78509
-1.3335
-0.899177
-0.484419
-0.422207
-0.198556
-0.237398
-0.109655
0.0304426
-21.8976
-23.8328
-24.5135
-23.4453
-21.2979
-18.8627
-16.9718
-14.8277
-12.8555
-11.278
-9.80357
-8.11292
-7.10013
-7.62115
-8.32626
-9.06952
-9.02969
-9.37422
-9.96521
-9.94812
-9.77637
-8.80192
-8.21453
-7.3978
-6.85311
-6.3046
-5.36317
-4.67896
-3.64204
-3.1753
-2.62422
-2.17361
-1.81158
-1.12721
-0.930604
-0.629456
-0.74075
-0.830128
-0.624823
-0.467666
-21.5495
-23.8851
-24.6859
-24.6138
-22.2512
-19.4523
-17.7552
-15.4764
-13.2756
-10.1832
-7.22447
-5.26254
-5.33494
-6.35028
-7.00309
-8.28382
-9.18661
-10.3982
-10.805
-10.8255
-10.7695
-9.94535
-9.56321
-8.15757
-7.44506
-6.40837
-5.08113
-4.3324
-3.05723
-2.66095
-1.52075
-1.0903
-0.283295
0.131484
-0.181603
-0.0298475
-0.7105
-0.825593
-1.15905
-1.13911
43.833
46.0446
59.5624
72.2484
43.879
44.8327
58.8657
71.1177
-29.1671
-34.714
-19.8036
-19.317
-31.4975
-31.8659
-23.9484
-28.5853
-28.7858
-24.738
-28.124
-22.9527
-22.0612
-21.8429
-19.9791
-16.2569
-13.2506
-11.4403
-9.723
-8.43705
-7.30436
-6.92921
-6.95885
-7.37406
-8.34703
-9.22525
-9.63329
-9.94284
-9.96592
-9.45817
-8.49575
-7.70187
-7.2176
-6.14517
-5.32265
-4.67848
-4.04218
-3.76889
-3.16336
-2.59765
-2.295
-2.00151
-1.72756
-1.70934
-1.39542
-0.991056
-0.821137
-0.434588
-25.4664
-23.9582
-23.307
-24.5652
-23.1296
-19.9525
-17.5085
-16.203
-15.017
-14.1682
-12.2479
-10.4413
-9.16944
-8.15361
-7.25295
-6.52796
-6.33871
-6.26073
-6.57418
-7.45785
-7.9742
-8.10114
-7.7977
-7.62116
-7.36873
-6.6797
-5.68249
-4.67289
-4.10256
-3.59254
-3.38291
-3.56851
-3.88802
-4.07668
-4.44144
-3.65717
-2.42231
-1.69979
-0.526681
0.389767
39.2461
35.9344
31.6934
15.7172
30.6497
28.6427
20.4589
10.1923
25.6599
26.4144
22.7264
16.284
25.2017
25.2554
21.982
15.9849
-36.8593
-60.7438
-5.22779
-10.4963
7.28816
-1.74708
7.35049
-2.06488
-30.8638
-16.5766
-7.89119
-18.9861
-4.32542
-4.53107
-9.45163
-17.1984
-9.30835
-15.2795
-19.1859
-21.2981
-9.41472
-14.2429
-16.7542
-18.3001
-26.5132
-26.3376
-22.2443
-18.2232
-19.4896
-20.5775
-18.5119
-15.959
-14.2702
-14.5636
-13.8152
-12.1606
-10.3333
-7.8932
-6.49179
-4.44446
-3.98081
-3.92483
-4.71359
-5.90296
-6.52859
-7.79104
-7.7615
-8.18488
-7.95794
-7.09405
-6.34305
-4.85859
-4.28376
-3.48391
-3.60634
-3.94013
-4.27527
-4.60602
-4.14432
-4.03019
-3.00776
-1.96291
-0.779084
0.816964
-23.3503
-25.2568
-23.7259
-21.2009
-19.041
-18.5727
-17.9486
-16.3318
-14.587
-13.8981
-13.3813
-11.906
-10.3592
-8.59115
-7.48197
-6.44848
-5.94939
-6.15338
-6.17759
-6.83421
-6.92938
-7.346
-7.4203
-7.52057
-7.36379
-6.42672
-5.84634
-4.93068
-4.35459
-4.01225
-3.91895
-4.09776
-4.13807
-4.11083
-3.63176
-3.10265
-2.38439
-1.64381
-0.991727
-0.465744
-22.5247
-23.4042
-23.1743
-21.5746
-19.4372
-17.8179
-17.0731
-16.0007
-14.5298
-13.1567
-12.5143
-11.8242
-10.7222
-9.38859
-7.87897
-6.82026
-6.22066
-6.20517
-6.43403
-6.63848
-6.71389
-6.46046
-6.64906
-6.68113
-6.69575
-6.26418
-5.64663
-5.23161
-4.66416
-4.43722
-3.97983
-3.77477
-3.51929
-3.27612
-3.07663
-2.6611
-2.46802
-2.05668
-1.51046
-0.604669
-19.3544
-20.1951
-20.5773
-20.5654
-19.4987
-17.8341
-16.6745
-15.6756
-14.5689
-13.0746
-12.2795
-11.7979
-10.7926
-9.4374
-7.99572
-7.23586
-6.52462
-6.45159
-6.59107
-6.73089
-6.72035
-6.40745
-6.49258
-6.52078
-6.57102
-6.21774
-5.61898
-5.1322
-4.6338
-4.39243
-3.95769
-3.7099
-3.51815
-3.30014
-3.13923
-2.73135
-2.4382
-1.948
-1.31107
-0.509692
)
;

boundaryField
{
    inlet
    {
        type            zeroGradient;
    }
    outlet
    {
        type            fixedValue;
        value           uniform 0;
    }
    obstacle
    {
        type            zeroGradient;
    }
    upperWall
    {
        type            zeroGradient;
    }
    lowerWall
    {
        type            zeroGradient;
    }
    frontAndBack
    {
        type            empty;
    }
}


// ************************************************************************* //
