/*--------------------------------*- C++ -*----------------------------------*\
  =========                 |
  \\      /  F ield         | OpenFOAM: The Open Source CFD Toolbox
   \\    /   O peration     | Website:  https://openfoam.org
    \\  /    A nd           | Version:  10
     \\/     M anipulation  |
\*---------------------------------------------------------------------------*/
FoamFile
{
    format      ascii;
    class       volVectorField;
    location    "9.525";
    object      U;
}
// * * * * * * * * * * * * * * * * * * * * * * * * * * * * * * * * * * * * * //

dimensions      [0 1 -1 0 0 0 0];

internalField   nonuniform List<vector> 
496
(
(9.96641 0.0828362 0)
(9.99369 -0.196839 0)
(10.2304 -0.158704 0)
(10.8201 -0.226597 0)
(10.0396 0.343092 0)
(9.92493 -1.0663 0)
(10.3145 -0.525439 0)
(10.9815 -1.08662 0)
(10.8995 1.13844 0)
(9.06323 -2.58716 0)
(11.3178 -0.313309 0)
(10.6888 -3.67225 0)
(12.0939 1.24213 0)
(7.91206 -2.32099 0)
(12.9535 0.288651 0)
(9.7007 -6.18739 0)
(11.491 -0.251188 2.20888e-18)
(12.2188 -0.167437 3.51516e-19)
(11.7156 -0.653627 -9.64356e-19)
(12.5729 -0.0130046 2.47056e-18)
(13.0965 -2.06599 -1.24705e-18)
(13.0233 -0.306429 -2.82275e-18)
(13.3661 -5.78932 -3.65824e-17)
(15.0077 -4.07198 6.45024e-17)
(12.7361 -0.218552 0)
(13.1286 -0.0905552 0)
(13.3184 -0.0914182 0)
(13.4977 0.013512 0)
(13.1357 -0.0728367 0)
(13.6163 -0.386163 0)
(13.8235 -0.612512 0)
(14.0722 -0.651163 0)
(12.7437 0.933668 0)
(12.7174 0.709391 0)
(13.3228 0.382909 0)
(13.5816 0.307717 0)
(11.3771 -3.38675 0)
(9.28001 -1.67625 0)
(9.04494 -0.695568 0)
(10.3955 -1.28488 0)
(13.5272 0.0912974 0)
(13.6143 0.170197 0)
(13.5392 0.31488 0)
(13.5237 0.321151 0)
(13.3292 0.420121 0)
(13.1238 0.3502 0)
(12.8426 0.427433 0)
(12.6132 0.395697 0)
(12.4648 0.408178 0)
(12.2679 0.381532 0)
(12.239 0.33753 0)
(12.1338 0.363347 0)
(12.1723 0.251379 0)
(12.1302 0.272067 0)
(12.2419 0.238695 0)
(12.2185 0.29562 0)
(12.1128 0.366256 0)
(12.0246 0.401057 0)
(11.9138 0.517771 0)
(11.8416 0.481667 0)
(11.536 0.585636 0)
(11.2401 0.555612 0)
(10.9777 0.602118 0)
(10.7696 0.558913 0)
(10.761 0.451413 0)
(10.5781 0.384065 0)
(10.6927 0.24724 0)
(10.5785 0.228509 0)
(10.7696 0.168209 0)
(10.7729 0.155111 0)
(10.8418 0.15474 0)
(10.8579 0.107494 0)
(10.8034 0.133666 0)
(10.8383 0.0605208 0)
(10.8373 0.103076 0)
(10.7773 0.0781367 0)
(10.9232 0.137632 0)
(10.6325 0.214779 0)
(10.8329 0.235961 0)
(10.244 0.344317 0)
(14.1536 -0.553617 0)
(14.2842 -0.462648 0)
(14.2314 -0.230872 0)
(14.1591 -0.158665 0)
(13.9864 -0.00742957 0)
(13.7869 -0.0753248 0)
(13.6033 -0.0177894 0)
(13.3882 -0.0337233 0)
(13.245 -0.0764143 0)
(13.1161 -0.0819033 0)
(13.0764 -0.189459 0)
(13.0387 -0.112393 0)
(13.0151 -0.335625 0)
(13.1362 -0.240417 0)
(13.2556 -0.317298 0)
(13.3579 -0.200613 0)
(13.2971 -0.136005 0)
(13.2268 -0.111587 0)
(13.1615 0.0340885 0)
(13.0246 -0.111771 0)
(12.8933 -0.0401115 0)
(12.5754 -0.204947 0)
(12.4052 -0.163733 0)
(12.1253 -0.204537 0)
(11.9869 -0.305917 0)
(11.8487 -0.225777 0)
(11.7705 -0.409881 0)
(11.8091 -0.243931 0)
(11.8381 -0.341732 0)
(11.9689 -0.205173 0)
(12.0353 -0.154276 0)
(12.0866 -0.140856 0)
(12.1777 -0.00451851 0)
(12.1434 -0.0997497 0)
(12.3517 -0.00149291 0)
(12.2442 -0.114722 0)
(12.5617 0.0205067 0)
(12.4011 -0.0113091 0)
(12.6297 0.188077 0)
(12.3767 0.268572 0)
(14.0141 0.262375 0)
(13.9706 0.252145 0)
(14.2156 0.405946 0)
(13.9976 0.43811 0)
(13.9852 0.706231 0)
(13.6954 0.6144 0)
(13.6217 0.762086 0)
(13.4847 0.655814 0)
(13.3047 0.645024 0)
(13.3111 0.573105 0)
(13.159 0.324172 0)
(13.142 0.212404 0)
(13.0169 -0.0842427 0)
(13.1617 0.056146 0)
(13.3842 -0.0431304 0)
(13.3949 0.0888629 0)
(13.6928 0.257876 0)
(13.5066 0.35114 0)
(13.8654 0.78494 0)
(13.4529 0.72636 0)
(13.5166 1.14346 0)
(12.8871 1.04189 0)
(12.5944 1.25146 0)
(12.146 1.13122 0)
(11.7656 0.785972 0)
(11.8016 0.666414 0)
(11.4019 0.0948517 0)
(11.6661 0.158444 0)
(11.4098 -0.150157 0)
(11.5878 -0.0702063 0)
(11.6154 -0.051486 0)
(11.4983 -0.220282 0)
(11.7667 0.0256435 0)
(11.4207 -0.341771 0)
(11.7203 -0.0424767 0)
(11.5232 -0.25601 0)
(11.7701 -0.0946595 0)
(11.8985 0.0602262 0)
(12.1286 0.0903224 0)
(12.4496 0.572705 0)
(9.49073 -0.392862 0)
(9.87938 -0.606056 0)
(9.94893 -0.0744214 0)
(10.0933 -0.0953924 0)
(10.4094 -0.0781352 0)
(9.58659 0.125842 0)
(10.0499 0.378831 0)
(9.55037 0.409394 0)
(9.97415 0.403341 0)
(9.33476 0.356446 0)
(9.0418 0.244714 0)
(8.80735 0.0898661 0)
(8.64193 0.00980773 0)
(9.17709 -0.185742 0)
(9.01728 -0.303935 0)
(9.72707 -0.418501 0)
(9.96066 -0.405536 0)
(10.5304 -0.266841 0)
(11.355 -0.126775 0)
(11.4012 -0.0058826 0)
(12.5106 0.141864 0)
(12.3798 0.207866 0)
(13.2947 0.30829 0)
(13.1802 0.21191 0)
(13.3263 0.197932 0)
(13.4061 0.0239341 0)
(12.5315 -0.069361 0)
(12.6793 -0.117683 0)
(11.2115 -0.179597 0)
(11.2637 -0.064098 0)
(9.89573 -0.0370323 0)
(9.50823 0.121286 0)
(8.77495 0.202666 0)
(7.85272 0.191024 0)
(8.07811 0.17786 0)
(7.38083 -0.0423646 0)
(7.85386 -0.153064 0)
(8.15801 -0.276269 0)
(8.3534 -0.377009 0)
(9.40049 -0.12252 0)
(12.1703 0.667194 -1.01247e-17)
(8.0134 -0.908337 -1.72603e-17)
(11.2826 0.218469 3.0058e-17)
(4.83609 -4.71596 -8.19683e-17)
(13.2025 -0.500108 9.99353e-18)
(7.00057 0.761055 1.68826e-17)
(12.6234 0.15242 -2.95156e-17)
(4.08741 4.61905 8.06777e-17)
(-3.86031 3.21548 0)
(0.396968 -1.49805 0)
(5.3256 1.68703 0)
(-6.47481 1.32831 0)
(-2.60441 -1.73535 3.58019e-17)
(4.7299 -5.85075 0)
(-6.05599 3.66762 0)
(5.20371 -0.238247 0)
(2.06553 -2.05405 0)
(-2.29833 0.379317 0)
(2.29244 0.120762 0)
(0.260592 1.10946 0)
(-1.68402 0.571332 0)
(0.102165 -0.2327 0)
(0.888133 0.590867 0)
(1.75367 1.42087 0)
(0.487074 1.12875 0)
(0.851908 0.602058 0)
(1.03203 0.265351 0)
(1.89955 0.0903976 0)
(1.92886 -0.398756 0)
(2.29512 -0.643289 0)
(2.69848 -0.764987 0)
(2.7076 -0.899577 0)
(3.06653 -0.686391 0)
(3.65324 -0.471984 0)
(3.50059 -0.20515 0)
(3.7158 0.152527 0)
(3.83016 0.486734 0)
(3.74723 0.818116 0)
(3.71918 0.897526 0)
(3.05415 0.865588 0)
(3.79462 0.968088 0)
(3.26578 1.05409 0)
(3.3225 0.87033 0)
(3.53641 0.97854 0)
(3.23852 0.900083 0)
(3.56273 0.906595 0)
(3.56288 1.04828 0)
(3.43475 0.892493 0)
(3.50153 0.688416 0)
(3.80298 0.408632 0)
(3.63326 0.123296 0)
(4.16005 -0.367389 0)
(4.32978 -0.523799 0)
(4.45196 -0.697991 0)
(4.89462 -0.865146 0)
(5.42682 -0.234209 0)
(-2.32732 -0.563041 0)
(0.775928 -1.465 0)
(-2.60191 -0.561317 0)
(-0.876521 1.43723 0)
(0.440083 -0.302228 0)
(0.238638 -1.39498 0)
(-0.944861 -0.294324 0)
(0.270251 0.38323 0)
(0.786738 0.297337 0)
(1.78283 -0.0661751 0)
(1.97275 -0.426582 0)
(1.94122 -0.466443 0)
(2.13848 -0.541178 0)
(2.26266 -0.815549 0)
(2.44048 -0.906242 0)
(2.03034 -0.87633 0)
(2.03587 -0.817644 0)
(2.03609 -0.678762 0)
(1.44854 -0.179826 0)
(1.69832 -0.0894879 0)
(1.79972 0.126819 0)
(1.7454 0.276254 0)
(2.13099 0.390227 0)
(2.0286 0.449839 0)
(2.38503 0.227628 0)
(2.87064 0.213803 0)
(3.02507 0.0901745 0)
(3.29373 0.0841406 0)
(3.73786 0.200875 0)
(4.08093 0.129888 0)
(4.45734 0.241425 0)
(4.94791 0.278767 0)
(5.41282 0.150734 0)
(5.59217 0.0307979 0)
(6.0441 -0.183358 0)
(6.34381 -0.582886 0)
(5.86093 -0.727194 0)
(6.31775 -0.954805 0)
(5.72906 -1.21097 0)
(5.59963 -0.679979 0)
(11.0327 -1.60377 0)
(9.06696 2.81435 0)
(11.4061 -0.948266 0)
(11.2298 6.83661 0)
(10.2715 -1.29821 0)
(9.75262 2.93212 0)
(10.9173 0.379561 0)
(11.3887 3.98384 0)
(9.80388 -0.443151 0)
(10.1223 1.16131 0)
(10.0379 0.377834 0)
(11.1058 1.08831 0)
(9.87664 -0.0495697 0)
(10.0782 0.123293 0)
(10.1101 0.111145 0)
(10.8517 0.230539 0)
(11.6848 5.26285 4.20517e-17)
(16.7281 4.60133 -6.88913e-17)
(13.0786 2.27991 0)
(13.8675 0.343931 0)
(11.5872 0.458654 0)
(12.7479 -0.135934 0)
(11.3836 0.194154 0)
(12.2541 0.223685 0)
(8.17972 2.42493 0)
(11.0025 1.83153 0)
(6.91137 1.71231 0)
(7.22966 0.741146 0)
(13.1482 -0.475081 0)
(13.3488 -1.17535 0)
(13.4934 -0.558642 0)
(13.8013 -0.255797 0)
(13.2685 -0.15537 0)
(13.7306 0.233757 0)
(14.0171 0.581939 0)
(14.1559 0.733093 0)
(12.7449 0.171275 0)
(13.1089 0.223553 0)
(13.2619 0.100489 0)
(13.3328 0.0162244 0)
(9.41088 0.144993 0)
(8.62985 0.38702 0)
(9.34157 0.292625 0)
(8.03131 0.487615 0)
(7.75781 0.154845 0)
(8.98623 0.0440756 0)
(8.68193 0.0933421 0)
(9.12224 0.188626 0)
(8.69853 0.144461 0)
(9.6536 -0.0848563 0)
(10.216 -0.224517 0)
(10.2671 -0.279804 0)
(10.9684 -0.346773 0)
(10.1862 -0.246394 0)
(10.692 -0.259153 0)
(9.55869 -0.176892 0)
(9.33081 -0.252522 0)
(8.78687 -0.165058 0)
(7.74542 -0.0281622 0)
(8.02276 0.0647321 0)
(6.95731 0.246669 0)
(7.77426 0.207729 0)
(7.49158 0.321204 0)
(7.85149 0.328592 0)
(8.58314 0.254727 0)
(8.37228 0.321412 0)
(9.4949 0.10935 0)
(9.2355 0.223344 0)
(9.98202 0.135163 0)
(10.1576 0.175615 0)
(10.3732 0.245458 0)
(11.1091 0.125644 0)
(11.0301 0.171479 0)
(11.9546 -0.0801096 0)
(11.8761 -0.120792 0)
(12.5224 -0.343425 0)
(12.7193 -0.380206 0)
(12.6518 -0.30589 0)
(12.9192 -0.26457 0)
(12.0627 -0.0504516 0)
(14.2721 -0.388514 0)
(14.4897 -0.601672 0)
(14.3019 -0.568379 0)
(14.1427 -0.517678 0)
(13.8264 -0.259725 0)
(13.8885 -0.49318 0)
(14.0449 -0.552354 0)
(13.8245 -0.641823 0)
(13.9999 -0.725817 0)
(13.7286 -0.733172 0)
(14.1057 -1.12293 0)
(13.6213 -0.994636 0)
(13.7663 -1.19605 0)
(13.321 -0.871058 0)
(13.3574 -0.734316 0)
(13.2072 -0.441672 0)
(12.9756 0.0186296 0)
(13.137 0.0619107 0)
(12.7775 0.466849 0)
(13.0574 0.26913 0)
(12.7873 0.442868 0)
(12.9109 0.253476 0)
(12.9652 0.0478211 0)
(12.9229 0.0340647 0)
(13.285 -0.42873 0)
(13.059 -0.274011 0)
(13.4462 -0.693508 0)
(13.2051 -0.501362 0)
(13.4975 -0.623575 0)
(13.3882 -0.566035 0)
(13.5554 -0.414347 0)
(13.6008 -0.640511 0)
(13.6134 -0.44911 0)
(13.6555 -0.868938 0)
(13.4152 -0.778806 0)
(13.2482 -1.10056 0)
(12.8351 -1.12772 0)
(12.4794 -1.01753 0)
(12.248 -0.936324 0)
(11.9129 -0.271399 0)
(14.2666 0.661667 0)
(14.3059 0.399817 0)
(14.3306 0.325072 0)
(14.1734 0.153146 0)
(14.038 0.302642 0)
(13.9241 0.204472 0)
(13.8768 0.191065 0)
(13.8191 0.0740657 0)
(13.5875 0.035028 0)
(13.4599 0.047314 0)
(13.2224 -0.113836 0)
(13.0898 0.00370111 0)
(12.7881 -0.0144183 0)
(12.5518 0.199001 0)
(12.2951 0.195491 0)
(12.1781 0.262364 0)
(12.1928 0.382171 0)
(12.3037 0.335687 0)
(12.5056 0.496308 0)
(12.6964 0.351348 0)
(12.8536 0.426551 0)
(12.9665 0.254357 0)
(13.0738 0.202026 0)
(13.1756 0.0811852 0)
(13.178 -0.0383683 0)
(13.1334 -0.0391772 0)
(13.0361 -0.106306 0)
(12.9011 0.00627272 0)
(12.8492 0.00180808 0)
(12.6728 0.125634 0)
(12.6685 0.133083 0)
(12.4767 0.120383 0)
(12.4277 0.105653 0)
(12.2381 -0.0302773 0)
(12.0592 0.0628551 0)
(11.9221 -0.00479365 0)
(11.6263 0.190452 0)
(11.5505 0.236964 0)
(11.2467 0.360604 0)
(11.2011 0.437643 0)
(13.4279 -0.0966905 0)
(13.4146 -0.219067 0)
(13.4665 -0.304288 0)
(13.3752 -0.424857 0)
(13.3093 -0.366108 0)
(13.0984 -0.406421 0)
(12.9978 -0.383561 0)
(12.8608 -0.4577 0)
(12.6546 -0.472739 0)
(12.4196 -0.454987 0)
(12.1293 -0.532081 0)
(11.97 -0.507572 0)
(11.6234 -0.574012 0)
(11.3833 -0.508285 0)
(11.1329 -0.513105 0)
(11.0239 -0.394948 0)
(11.0341 -0.304344 0)
(11.0636 -0.243956 0)
(11.334 -0.153131 0)
(11.4134 -0.161793 0)
(11.6592 -0.107966 0)
(11.6543 -0.138281 0)
(11.7757 -0.134699 0)
(11.7796 -0.165323 0)
(11.7147 -0.215011 0)
(11.6275 -0.199209 0)
(11.3636 -0.285344 0)
(11.2262 -0.253998 0)
(11.0163 -0.365638 0)
(10.8552 -0.347824 0)
(10.8094 -0.409761 0)
(10.5366 -0.433586 0)
(10.6141 -0.431367 0)
(10.2273 -0.502219 0)
(10.2031 -0.475393 0)
(9.80726 -0.570128 0)
(9.59344 -0.545705 0)
(9.45262 -0.535952 0)
(9.20403 -0.489072 0)
(9.31062 -0.327365 0)
)
;

boundaryField
{
    inlet
    {
        type            fixedValue;
        value           uniform (10 0 0);
    }
    outlet
    {
        type            zeroGradient;
    }
    obstacle
    {
        type            noSlip;
    }
    upperWall
    {
        type            noSlip;
    }
    lowerWall
    {
        type            noSlip;
    }
    frontAndBack
    {
        type            empty;
    }
}


// ************************************************************************* //
