/*--------------------------------*- C++ -*----------------------------------*\
  =========                 |
  \\      /  F ield         | OpenFOAM: The Open Source CFD Toolbox
   \\    /   O peration     | Website:  https://openfoam.org
    \\  /    A nd           | Version:  10
     \\/     M anipulation  |
\*---------------------------------------------------------------------------*/
FoamFile
{
    format      ascii;
    class       volScalarField;
    location    "7.95";
    object      p;
}
// * * * * * * * * * * * * * * * * * * * * * * * * * * * * * * * * * * * * * //

dimensions      [0 2 -2 0 0 0 0];

internalField   nonuniform List<scalar> 
400
(
-1.35704e-08
-2.40578e-05
3.15264e-05
0.000138636
0.000304802
0.000532634
0.000825998
0.00118963
0.00162788
0.00214342
0.00273578
0.00339901
0.00411896
0.0048704
0.00561396
0.00629704
0.00685768
0.00723861
0.00743587
0.00736758
2.62907e-05
1.7315e-06
6.39373e-05
0.000172811
0.000337405
0.000561157
0.000848402
0.0012041
0.00163279
0.00213755
0.00271863
0.00337111
0.00408122
0.00482728
0.00556996
0.00625636
0.00682158
0.00720519
0.00740728
0.00732407
-3.95858e-05
-7.24877e-05
-1.21199e-05
9.23381e-05
0.000250717
0.000466711
0.000745265
0.00109232
0.00151387
0.00201507
0.00259866
0.00326279
0.00399874
0.00478485
0.00558128
0.00632841
0.00694744
0.00735982
0.00756588
0.00743434
-0.000176865
-0.000215634
-0.000159066
-6.18611e-05
8.6676e-05
0.000290665
0.000555964
0.00088997
0.00130088
0.00179707
0.0023856
0.00306955
0.00384381
0.00469532
0.00558145
0.00643393
0.00715153
0.00761766
0.00783031
0.0076153
-0.000393202
-0.000436995
-0.000386733
-0.000300157
-0.000165708
2.12663e-05
0.000267716
0.000582823
0.000977541
0.0014644
0.00205654
0.00276518
0.00359513
0.00453304
0.00554829
0.00656053
0.00743591
0.00799395
0.00821214
0.00784807
-0.000687207
-0.00073608
-0.000694674
-0.000622497
-0.000507331
-0.000344106
-0.000124853
0.000161357
0.000528352
0.000993227
0.00157622
0.00229922
0.00317995
0.00422132
0.00540342
0.00664356
0.00776695
0.00848489
0.00870168
0.00807132
-0.00105453
-0.00110912
-0.00107923
-0.00102583
-0.000936365
-0.00080573
-0.000625501
-0.000383593
-6.39448e-05
0.000354634
0.000899472
0.00160449
0.00250555
0.00362665
0.00499484
0.00653292
0.00803496
0.00904815
0.00924499
0.00817967
-0.0014894
-0.00155065
-0.00153499
-0.00150515
-0.00144872
-0.00136129
-0.00123508
-0.00105841
-0.000814829
-0.00048124
-2.55904e-05
0.00059628
0.00144303
0.00258243
0.00404287
0.00587851
0.00789983
0.00947913
0.00964933
0.00807644
-0.00198444
-0.00205338
-0.00205428
-0.00205249
-0.0020365
-0.00200362
-0.00194829
-0.00186166
-0.0017308
-0.00153653
-0.00125001
-0.000828369
-0.00021047
0.000688312
0.00198118
0.00380799
0.00631164
0.00890541
0.00927576
0.00777571
-0.00253078
-0.00260824
-0.00262683
-0.00265617
-0.00268651
-0.00271823
-0.00275009
-0.00277916
-0.002801
-0.00280896
-0.00279349
-0.00274174
-0.00264255
-0.00249821
-0.00225289
-0.00150375
0.000709453
0.00470399
0.00674586
0.0073511
-0.00311845
-0.00320497
-0.00324009
-0.00330066
-0.00337959
-0.00348178
-0.00361247
-0.00377818
-0.00398898
-0.00426164
-0.0046259
-0.00513885
-0.00593048
-0.00730062
-0.00951665
-0.0120808
-0.0117051
-0.00636961
-0.000296152
0.00505357
-0.00373765
-0.00383276
-0.00387884
-0.00396569
-0.0040892
-0.0042602
-0.00449165
-0.00480171
-0.00521962
-0.00579514
-0.00661825
-0.00785907
-0.00986263
-0.013379
-0.0191534
-0.0266046
-0.0297541
-0.0235589
-0.0132274
-0.00283674
-0.00438219
-0.00448537
-0.00453259
-0.00463484
-0.00479036
-0.00501729
-0.00533677
-0.00577793
-0.00638897
-0.00725235
-0.00851757
-0.0104621
-0.0136401
-0.0190918
-0.0278259
-0.0388998
-0.0453373
-0.0396183
-0.0284888
-0.0149644
-0.00504533
-0.00514682
-0.00517001
-0.00526495
-0.00543217
-0.00569422
-0.00607493
-0.00661089
-0.00736023
-0.00842089
-0.00997144
-0.0123109
-0.0160952
-0.0222805
-0.0319704
-0.0434839
-0.0508301
-0.045492
-0.0364052
-0.0228441
-0.00575525
-0.00586332
-0.00584087
-0.00590851
-0.00605098
-0.00630385
-0.00669476
-0.00726185
-0.00806329
-0.0091914
-0.0108253
-0.0131862
-0.0169345
-0.0227594
-0.0314974
-0.0408105
-0.0466682
-0.0417407
-0.0359626
-0.0226664
-0.0065946
-0.00650685
-0.00635767
-0.00631063
-0.00640174
-0.00664126
-0.00703892
-0.00761608
-0.00841837
-0.00951603
-0.0110768
-0.0131621
-0.0164294
-0.0210597
-0.0275317
-0.0337819
-0.0375796
-0.0328339
-0.0296152
-0.0136779
-0.00706756
-0.00747961
-0.00715767
-0.00713817
-0.00710216
-0.00720797
-0.00746937
-0.00791952
-0.00859943
-0.00955221
-0.0108971
-0.012726
-0.015373
-0.0188184
-0.0234277
-0.0272241
-0.0292359
-0.0240165
-0.0198401
0.00537658
-0.0104469
-0.00791039
-0.00723883
-0.0066107
-0.0065028
-0.00665261
-0.00700346
-0.00751851
-0.00821967
-0.00911702
-0.0103415
-0.0119354
-0.0141284
-0.0167816
-0.0200557
-0.022097
-0.0223816
-0.0154283
-0.00489545
0.038154
-0.00709766
-0.0100774
-0.00895522
-0.00892499
-0.00843074
-0.00816279
-0.0080817
-0.00821817
-0.00861456
-0.00925958
-0.0102762
-0.0116366
-0.0137095
-0.0161702
-0.019457
-0.0210927
-0.02038
-0.00648859
0.0195031
0.0961276
-0.0323325
-0.00725191
-0.00567151
-0.00488935
-0.00466576
-0.00485537
-0.00534687
-0.00594663
-0.00674435
-0.00766285
-0.00894937
-0.0104575
-0.0124646
-0.014333
-0.0157921
-0.0131567
-0.00328205
0.0307073
0.097509
0.228325
)
;

boundaryField
{
    movingWall
    {
        type            zeroGradient;
    }
    fixedWalls
    {
        type            zeroGradient;
    }
    frontAndBack
    {
        type            empty;
    }
}


// ************************************************************************* //
