/*--------------------------------*- C++ -*----------------------------------*\
  =========                 |
  \\      /  F ield         | OpenFOAM: The Open Source CFD Toolbox
   \\    /   O peration     | Website:  https://openfoam.org
    \\  /    A nd           | Version:  10
     \\/     M anipulation  |
\*---------------------------------------------------------------------------*/
FoamFile
{
    format      ascii;
    class       volScalarField;
    location    "0.3";
    object      p;
}
// * * * * * * * * * * * * * * * * * * * * * * * * * * * * * * * * * * * * * //

dimensions      [0 2 -2 0 0 0 0];

internalField   nonuniform List<scalar> 
475
(
0.00692604
-0.0378137
-0.109106
-0.113485
-0.21335
-0.00436351
-0.0465696
-0.0706981
-0.0788583
-0.0588142
0.00445639
-0.0238607
-0.0557212
-0.0490376
-0.035173
0.0150696
-0.0175425
-0.0409238
-0.0297222
-0.0087212
0.046568
0.000173704
-0.0285081
-0.0168986
0.00175258
-0.279044
-0.108236
0.0569197
0.137385
0.151111
0.146264
0.140549
0.136005
0.132161
0.128595
0.125094
0.12159
0.118065
0.114518
0.110952
0.10737
0.103774
0.100166
0.0965497
0.0929265
0.0892981
0.0856656
0.0820295
0.0783905
0.0747494
0.0711067
0.0674632
0.063819
0.0601741
0.0565286
0.0528824
0.0492358
0.0455891
0.0419423
0.0382954
0.0346486
0.0310017
0.0273547
0.0237076
0.0200601
0.0164131
0.0127656
0.00911696
0.00547053
0.00182447
-0.0548435
-0.0205567
0.0382032
0.0792323
0.105241
0.119965
0.126724
0.128506
0.127691
0.125667
0.12305
0.120107
0.116964
0.113692
0.110328
0.106897
0.103415
0.0998935
0.0963427
0.0927695
0.0891792
0.0855756
0.0819613
0.0783389
0.0747103
0.0710774
0.0674412
0.0638024
0.0601616
0.0565191
0.0528753
0.0492304
0.045585
0.0419392
0.0382932
0.034647
0.0310006
0.0273538
0.0237069
0.0200596
0.0164127
0.0127653
0.00911682
0.00547055
0.00182452
-0.0405619
-0.00781693
0.0494706
0.090926
0.110232
0.118699
0.122953
0.124612
0.124468
0.123187
0.121189
0.118719
0.115929
0.112918
0.109747
0.10646
0.103085
0.0996451
0.0961553
0.0926281
0.0890724
0.0854947
0.0819002
0.0782928
0.0746757
0.0710514
0.0674217
0.0637878
0.0601505
0.0565107
0.0528689
0.0492257
0.0455815
0.0419367
0.0382914
0.0346456
0.0309995
0.027353
0.0237063
0.0200591
0.0164123
0.0127651
0.00911673
0.00547057
0.00182453
0.0118168
0.0321054
0.0580032
0.0831855
0.100682
0.111306
0.117428
0.1205
0.121444
0.120971
0.119561
0.11752
0.115044
0.112261
0.109258
0.106095
0.102812
0.0994402
0.0960016
0.0925127
0.0889856
0.0854294
0.0818511
0.078256
0.0746481
0.0710308
0.0674062
0.0637761
0.0601417
0.056504
0.0528639
0.049222
0.0455788
0.0419347
0.0382899
0.0346445
0.0309987
0.0273523
0.0237058
0.0200588
0.0164121
0.012765
0.00911666
0.00547054
0.0018245
0.0140558
0.0308133
0.0553399
0.0789264
0.0961633
0.107209
0.11393
0.11767
0.119261
0.119332
0.118346
0.116624
0.114384
0.111774
0.108899
0.105828
0.102614
0.0992933
0.0958923
0.0924312
0.0889249
0.0853841
0.0818173
0.0782308
0.0746294
0.0710168
0.0673957
0.0637683
0.0601359
0.0564997
0.0528607
0.0492197
0.0455771
0.0419334
0.0382889
0.0346437
0.030998
0.0273519
0.0237054
0.0200585
0.0164119
0.0127649
0.00911676
0.00547044
0.00182434
0.0419877
0.0856223
0.107963
0.128623
0.141177
0.1464
0.146752
0.144303
0.140426
0.135929
0.131246
0.126589
0.122048
0.117648
0.113388
0.109252
0.105221
0.101275
0.097396
0.0935703
0.0897864
0.0860353
0.0823093
0.0786024
0.0749095
0.0712274
0.0675537
0.0638866
0.0602248
0.0565667
0.0529113
0.0492578
0.0456057
0.0419546
0.0383045
0.0346552
0.0310065
0.0273582
0.0237102
0.0200621
0.0164145
0.0127667
0.00911775
0.00547052
0.00182418
0.0425245
0.0725105
0.0975026
0.12393
0.138894
0.144839
0.145397
0.143056
0.139305
0.134962
0.130441
0.125937
0.12153
0.117244
0.113076
0.109013
0.105039
0.101137
0.0972913
0.0934912
0.0897271
0.085991
0.0822763
0.0785775
0.0748906
0.0712131
0.0675431
0.0638789
0.0602192
0.0565626
0.0529082
0.0492554
0.0456037
0.0419531
0.0383034
0.0346544
0.031006
0.0273578
0.0237099
0.0200619
0.0164144
0.0127666
0.00911753
0.00547059
0.00182438
-0.0857269
0.0276113
0.0757619
0.117917
0.137361
0.143945
0.144351
0.141849
0.138076
0.133822
0.12945
0.12511
0.120859
0.116709
0.112657
0.108688
0.104788
0.100944
0.0971444
0.0933796
0.0896426
0.0859272
0.0822281
0.078541
0.0748631
0.0711924
0.0675276
0.0638674
0.0602106
0.0565561
0.0529033
0.0492516
0.0456009
0.041951
0.0383019
0.0346533
0.0310052
0.0273572
0.0237095
0.0200615
0.0164141
0.0127664
0.00911742
0.00547061
0.00182442
-0.0354374
-0.00114353
0.0565662
0.112472
0.136837
0.143538
0.143326
0.14045
0.136594
0.132439
0.128246
0.124106
0.120045
0.116061
0.112148
0.108292
0.104482
0.100709
0.0969639
0.093242
0.0895381
0.0858479
0.0821679
0.0784953
0.0748285
0.0711664
0.0675082
0.0638528
0.0601996
0.0565478
0.052897
0.0492468
0.0455973
0.0419484
0.0383
0.034652
0.0310042
0.0273565
0.0237089
0.0200611
0.0164138
0.0127661
0.00911727
0.0054706
0.00182445
-0.446187
-0.114117
0.00102699
0.098991
0.135127
0.142244
0.141381
0.13831
0.134575
0.130681
0.126784
0.122922
0.119102
0.11532
0.11157
0.107845
0.104137
0.100444
0.0967613
0.0930876
0.0894207
0.0857587
0.0821001
0.0784439
0.0747896
0.0711371
0.0674861
0.0638363
0.0601872
0.0565384
0.0528898
0.0492414
0.0455932
0.0419453
0.0382978
0.0346504
0.0310031
0.0273556
0.0237083
0.0200606
0.0164134
0.0127658
0.0091171
0.0054706
0.00182451
)
;

boundaryField
{
    inlet
    {
        type            zeroGradient;
    }
    outlet
    {
        type            fixedValue;
        value           uniform 0;
    }
    upperWall
    {
        type            zeroGradient;
    }
    lowerWall
    {
        type            zeroGradient;
    }
    frontAndBack
    {
        type            empty;
    }
}


// ************************************************************************* //
