/*--------------------------------*- C++ -*----------------------------------*\
  =========                 |
  \\      /  F ield         | OpenFOAM: The Open Source CFD Toolbox
   \\    /   O peration     | Website:  https://openfoam.org
    \\  /    A nd           | Version:  10
     \\/     M anipulation  |
\*---------------------------------------------------------------------------*/
FoamFile
{
    format      ascii;
    class       surfaceScalarField;
    location    "6.575";
    object      phi;
}
// * * * * * * * * * * * * * * * * * * * * * * * * * * * * * * * * * * * * * //

dimensions      [0 3 -1 0 0 0 0];

internalField   nonuniform List<scalar> 
760
(
-9.98425e-06
9.98349e-06
-3.2688e-05
2.27037e-05
-5.97709e-05
2.70829e-05
-8.77968e-05
2.80259e-05
-0.00011564
2.78429e-05
-0.000142866
2.72266e-05
-0.000169057
2.61905e-05
-0.0001936
2.45429e-05
-0.00021563
2.20303e-05
-0.000233999
1.8369e-05
-0.000247265
1.32655e-05
-0.000253719
6.45443e-06
-0.000251486
-2.23244e-06
-0.000238734
-1.27524e-05
-0.000214074
-2.46606e-05
-0.000177104
-3.6969e-05
-0.000129301
-4.7803e-05
-7.5356e-05
-5.39455e-05
-2.52975e-05
-5.00585e-05
-2.52975e-05
-2.39966e-05
3.39801e-05
-6.80457e-05
6.67528e-05
-0.000118797
7.78346e-05
-0.000170662
7.98905e-05
-0.000221483
7.86637e-05
-0.000270167
7.59112e-05
-0.000315739
7.17622e-05
-0.000357033
6.58368e-05
-0.000392589
5.75869e-05
-0.000420608
4.63877e-05
-0.000438921
3.15781e-05
-0.000445081
1.26151e-05
-0.000436593
-1.07206e-05
-0.000410877
-3.84687e-05
-0.000366212
-6.93259e-05
-0.000302354
-0.000100827
-0.000221805
-0.000128351
-0.000131873
-0.000143878
-4.76456e-05
-0.000134286
-7.2943e-05
-3.00295e-05
6.40096e-05
-8.34841e-05
0.000120207
-0.000144365
0.000138715
-0.000206132
0.000141658
-0.000266311
0.000138843
-0.000323647
0.000133247
-0.000377036
0.000125152
-0.000425207
0.000114007
-0.000466588
9.89687e-05
-0.000499243
7.90427e-05
-0.000520853
5.31877e-05
-0.000528734
2.0496e-05
-0.000519679
-1.9776e-05
-0.000490642
-6.75051e-05
-0.000439168
-0.0001208
-0.000364376
-0.000175619
-0.000268615
-0.000224112
-0.000160312
-0.000252181
-5.79713e-05
-0.000236627
-0.000130914
-3.23165e-05
9.63261e-05
-8.99188e-05
0.00017781
-0.00015533
0.000204127
-0.000221609
0.000207936
-0.000286265
0.0002035
-0.000348123
0.000195105
-0.000406182
0.000183211
-0.000459276
0.000167101
-0.000505929
0.000145622
-0.000544228
0.000117341
-0.000571714
8.06739e-05
-0.000585346
3.41284e-05
-0.000581427
-2.36947e-05
-0.000555513
-9.34197e-05
-0.000503568
-0.000172744
-0.000422909
-0.000256278
-0.000314808
-0.000332214
-0.000188713
-0.000378276
-6.75878e-05
-0.000357752
-0.000198502
-3.335e-05
0.000129676
-9.341e-05
0.00023787
-0.000161721
0.000272438
-0.000231103
0.000277318
-0.000299158
0.000271555
-0.000364906
0.000260853
-0.000427582
0.000245886
-0.000486269
0.000225788
-0.000539719
0.000199072
-0.000586164
0.000163786
-0.000623084
0.000117593
-0.000646976
5.80208e-05
-0.000653295
-1.73757e-05
-0.000635813
-0.000110902
-0.000587826
-0.000220732
-0.000503416
-0.000340688
-0.000381064
-0.000454566
-0.000230573
-0.000528767
-8.18268e-05
-0.000506497
-0.000280329
-3.41514e-05
0.000163828
-9.64176e-05
0.000300136
-0.000167472
0.000343492
-0.00023991
0.000349756
-0.000311467
0.000343112
-0.000381439
0.000330826
-0.00044941
0.000313857
-0.000514859
0.000291237
-0.000576945
0.000261158
-0.000634243
0.000221084
-0.000684379
0.000167729
-0.000723505
9.71468e-05
-0.00074647
5.58933e-06
-0.00074431
-0.000113062
-0.000706706
-0.000258336
-0.000622293
-0.0004251
-0.000483735
-0.000593123
-0.000298393
-0.00071411
-0.000105811
-0.00069908
-0.000386139
-3.50108e-05
0.000198838
-9.96643e-05
0.000364789
-0.000173679
0.000417506
-0.000249379
0.000425456
-0.000324663
0.000418396
-0.000399178
0.000405341
-0.00047298
0.000387659
-0.000546128
0.000364385
-0.000618448
0.000333478
-0.000689217
0.000291853
-0.000756671
0.000235183
-0.000817269
0.000157745
-0.000864385
5.27055e-05
-0.000888497
-8.89496e-05
-0.000873357
-0.000273477
-0.000799452
-0.000499005
-0.000647986
-0.000744589
-0.000415688
-0.000946408
-0.000150934
-0.000963834
-0.000537074
-3.59766e-05
0.000234815
-0.000103281
0.000432093
-0.000180468
0.000494694
-0.000259515
0.000504503
-0.000338496
0.000497377
-0.000417484
0.000484329
-0.000497134
0.000467309
-0.000578299
0.00044555
-0.00066181
0.000416989
-0.000748147
0.00037819
-0.00083686
0.000323896
-0.000925565
0.000246449
-0.00100824
0.000135381
-0.00107495
-2.22429e-05
-0.00110441
-0.000244017
-0.00106678
-0.000536636
-0.000922026
-0.000889338
-0.000635163
-0.00123327
-0.000246947
-0.00135205
-0.000784021
-3.70824e-05
0.000271897
-0.000107324
0.000502335
-0.000187804
0.000575174
-0.000270041
0.00058674
-0.000352289
0.000579625
-0.000435094
0.000567133
-0.000519823
0.000552038
-0.000608331
0.000534058
-0.000702823
0.000511482
-0.000805634
0.000481
-0.000918728
0.00043699
-0.00104269
0.000370415
-0.00117485
0.000267539
-0.00130658
0.000109487
-0.00142008
-0.000130516
-0.00147394
-0.000482782
-0.00139024
-0.000973031
-0.00105467
-0.00156885
-0.00045565
-0.00195107
-0.00123967
-3.84548e-05
0.000310352
-0.000112018
0.000575898
-0.000195835
0.000658991
-0.000280837
0.000671742
-0.000365447
0.000664236
-0.000450706
0.000652392
-0.000538741
0.000640073
-0.000632527
0.000627843
-0.000735956
0.000614911
-0.0008539
0.000598944
-0.000992057
0.000575147
-0.00115636
0.000534718
-0.00135176
0.000462939
-0.00157946
0.000337187
-0.00183463
0.000124658
-0.00207106
-0.000246354
-0.00213649
-0.000907605
-0.00175566
-0.00194967
-0.000831359
-0.00287537
-0.00207103
-4.04017e-05
0.000350754
-0.00011793
0.000653426
-0.000205125
0.000746186
-0.000292211
0.000758828
-0.000377777
0.000749802
-0.000463345
0.00073796
-0.000551753
0.000728481
-0.000647034
0.000723125
-0.000754774
0.00072265
-0.00088267
0.000726841
-0.00104128
0.000733753
-0.0012449
0.000738339
-0.00151241
0.000730449
-0.00186701
0.00069179
-0.0023193
0.000576944
-0.0028045
0.00023885
-0.00304859
-0.000663514
-0.00257925
-0.00241901
-0.00132021
-0.00413441
-0.00339124
-4.35521e-05
0.000394306
-0.000126206
0.00073608
-0.000216908
0.000836889
-0.000305167
0.000847087
-0.000389799
0.000834433
-0.000472781
0.000820943
-0.000557486
0.000813186
-0.000648672
0.00081431
-0.000753183
0.000827161
-0.000881128
0.000854786
-0.00104774
0.000900366
-0.00127637
0.000966966
-0.00160215
0.00105623
-0.0020686
0.00115824
-0.00269214
0.00120049
-0.00333316
0.00087987
-0.00361402
-0.000382657
-0.00307929
-0.00295374
-0.00177726
-0.00543644
-0.0051685
-4.89457e-05
0.000443252
-0.000138679
0.000825813
-0.000233289
0.000931498
-0.000321765
0.000935563
-0.000403206
0.000915874
-0.000480036
0.000897773
-0.000555986
0.000889136
-0.000635794
0.000894117
-0.00072637
0.000917737
-0.000838488
0.000966903
-0.000989459
0.00105134
-0.00120713
0.00118464
-0.00153314
0.00138223
-0.00200675
0.00163186
-0.00261186
0.0018056
-0.00316773
0.00143574
-0.00336106
-0.000189331
-0.00296439
-0.00335041
-0.00193448
-0.00646635
-0.00710298
-5.96053e-05
0.000502857
-0.00015987
0.000926077
-0.000258025
0.00102965
-0.00034427
0.00102181
-0.000419605
0.000991209
-0.000487
0.000965169
-0.000549396
0.000951532
-0.000610606
0.000955328
-0.000675942
0.000983073
-0.000753532
0.00104449
-0.000856491
0.0011543
-0.00100442
0.00133257
-0.00122444
0.00160226
-0.00152804
0.00193546
-0.00188639
0.00216394
-0.00217922
0.00172857
-0.00231011
-5.84437e-05
-0.00223959
-0.00342093
-0.00163736
-0.00706858
-0.00874034
-7.26088e-05
0.000575466
-0.000186907
0.00104038
-0.000292351
0.0011351
-0.000379898
0.00110936
-0.000448695
0.00106001
-0.000502849
0.00101932
-0.000545813
0.000994496
-0.000580168
0.000989682
-0.000607942
0.00101085
-0.000631388
0.00106794
-0.000654272
0.00117718
-0.000679166
0.00135747
-0.000710364
0.00163345
-0.000732236
0.00195733
-0.000749325
0.00218103
-0.000750171
0.00172942
-0.000840707
3.20918e-05
-0.0010957
-0.00316594
-0.00103439
-0.00712989
-0.00977473
-0.000139746
0.000715212
-0.000268643
0.00116927
-0.000361412
0.00122787
-0.000426853
0.0011748
-0.000476119
0.00110927
-0.000513055
0.00105626
-0.000537409
0.00101885
-0.000546884
0.000999158
-0.000538094
0.00100206
-0.000505406
0.00103525
-0.000441591
0.00111337
-0.000333453
0.00124933
-0.000163773
0.00146377
7.8462e-05
0.00171509
0.000386862
0.00187263
0.000616824
0.00149946
0.000579093
6.98223e-05
-4.01924e-05
-0.00254666
-0.00044505
-0.00672503
-0.0102198
-9.1126e-05
0.000806338
-0.000284011
0.00136216
-0.00041889
0.00136274
-0.000503757
0.00125966
-0.000551981
0.0011575
-0.000573428
0.0010777
-0.000571765
0.00101719
-0.000546308
0.0009737
-0.000492818
0.000948568
-0.000400604
0.000943037
-0.000255682
0.000968443
-3.50066e-05
0.00102865
0.000284267
0.0011445
0.000718495
0.00128086
0.00122592
0.00136521
0.00161901
0.00110636
0.00157917
0.000109666
0.000843367
-0.00181085
0.000170821
-0.00605248
-0.010049
-0.000385514
0.00119185
-0.000461269
0.00143791
-0.000534445
0.00143592
-0.00059906
0.00132428
-0.000618039
0.00117648
-0.000597564
0.00105723
-0.000543116
0.00096274
-0.000454784
0.000885368
-0.000333885
0.000827668
-0.000172132
0.000781284
3.8677e-05
0.000757634
0.000314802
0.000752528
0.000678145
0.000781156
0.00113307
0.000825939
0.00165959
0.000838692
0.00208191
0.000684037
0.0022563
-6.4717e-05
0.00182846
-0.00138301
0.000975896
-0.00519992
-0.00907306
-0.00135915
0.002551
-0.00132549
0.00140426
-0.00107722
0.00118765
-0.000718189
0.000965244
-0.000337282
0.000795568
4.77108e-05
0.000672237
0.000424536
0.000585915
0.000791265
0.000518639
0.00114923
0.000469707
0.00150228
0.00042823
0.00185909
0.000400824
0.00222915
0.000382474
0.00263981
0.000370491
0.00309832
0.000367434
0.00362992
0.000307092
0.00412305
0.000190899
0.00432353
-0.000265189
0.00413754
-0.00119703
0.00259412
-0.0036565
-0.00647895
0.002551
0.00395526
0.00514291
0.00610815
0.00690372
0.00757596
0.00816187
0.00868051
0.00915022
0.00957845
0.00997927
0.0103617
0.0107322
0.0110997
0.0114068
0.0115977
0.0113325
0.0101354
0.00647895
)
;

boundaryField
{
    movingWall
    {
        type            calculated;
        value           uniform 0;
    }
    fixedWalls
    {
        type            calculated;
        value           uniform 0;
    }
    frontAndBack
    {
        type            empty;
        value           nonuniform List<scalar> 0();
    }
}


// ************************************************************************* //
