/*--------------------------------*- C++ -*----------------------------------*\
  =========                 |
  \\      /  F ield         | OpenFOAM: The Open Source CFD Toolbox
   \\    /   O peration     | Website:  https://openfoam.org
    \\  /    A nd           | Version:  10
     \\/     M anipulation  |
\*---------------------------------------------------------------------------*/
FoamFile
{
    format      ascii;
    class       surfaceScalarField;
    location    "6.425";
    object      phi;
}
// * * * * * * * * * * * * * * * * * * * * * * * * * * * * * * * * * * * * * //

dimensions      [0 3 -1 0 0 0 0];

internalField   nonuniform List<scalar> 
890
(
0.00984571
0.000154289
0.00971918
0.000126529
0.00946942
0.000249764
0.00942211
4.73107e-05
0.000146344
0.00927576
0.0101193
3.49891e-05
0.0102011
4.46836e-05
0.0104072
4.36689e-05
0.0104665
-1.19385e-05
-6.53447e-05
0.0106782
0.0100728
-3.77741e-05
0.010214
-9.6516e-05
0.0103789
-0.000121261
0.0105197
-0.000152734
-0.000187617
0.010642
0.0100907
-0.000128466
0.0102121
-0.000217971
0.0103311
-0.000240168
0.0104142
-0.000235911
-0.000253586
0.0104802
0.00987153
0.00965356
0.0094134
0.00917748
0.0089239
0.00926083
-0.000107404
0.000122341
0.0092873
-0.000268187
0.000241715
0.00936939
-0.000373254
0.000291157
0.0095026
-0.000472056
0.000338845
0.009675
-0.000581342
0.000408946
0.00987999
-0.000755388
0.0005504
0.010093
-0.000965541
0.000752556
0.0103107
-0.00122664
0.00100896
0.0105077
-0.00151991
0.00132283
0.0106729
-0.00183074
0.00166559
0.0107913
-0.00213123
0.00201284
0.0108477
-0.00238902
0.00233262
0.0108388
-0.0025853
0.00259419
0.0107422
-0.00265782
0.00275441
0.0105436
-0.00260434
0.00280295
0.0102844
-0.00249447
0.00275364
0.0100089
-0.00233316
0.00260867
0.00970963
-0.00207971
0.00237899
0.00939088
-0.00176259
0.00208133
0.00906505
-0.00139265
0.00171849
0.00874474
-0.0010078
0.0013281
0.00844687
-0.000640794
0.000938667
0.00817888
-0.000304822
0.000572806
0.00794731
-2.07045e-05
0.000252273
0.00775156
0.000215057
-1.9305e-05
0.00761056
0.00039014
-0.000249135
0.00750101
0.000528897
-0.000419347
0.00740344
0.000652104
-0.000554539
0.00730859
0.000755502
-0.000660652
0.00721188
0.000812088
-0.000715373
0.00711226
0.000804613
-0.000704997
0.00701183
0.000754424
-0.000653991
0.00691517
0.000704549
-0.000607887
0.00683018
0.000683889
-0.000598898
0.00676183
0.000688133
-0.000619785
0.00670772
0.000688625
-0.000634512
0.00666078
0.000660031
-0.000613094
0.00661505
0.000592118
-0.000546389
0.00656945
0.000495116
-0.000449516
0.00652656
0.000383476
-0.000340591
0.00648987
0.000276113
-0.000239424
0.00646093
0.000183173
-0.000154226
0.00644053
0.00010938
-8.89806e-05
0.006426
6.22309e-05
-4.76982e-05
2.06727e-05
-1.31469e-05
0.0107414
-0.000170579
0.0107661
-0.000292913
0.0108018
-0.000409015
0.0108515
-0.000521684
0.0109115
-0.00064135
0.0109505
-0.000794397
0.0109608
-0.00097584
0.0109431
-0.00120891
0.010878
-0.00145485
0.010766
-0.00171871
0.0105908
-0.0019561
0.0103656
-0.00216374
0.0100747
-0.00229441
0.00967793
-0.00226108
0.00921126
-0.00213767
0.00871194
-0.00199516
0.00819676
-0.00181797
0.00768697
-0.00156991
0.00719276
-0.00126838
0.00674018
-0.000940073
0.00632172
-0.000589334
0.00595646
-0.000275537
0.00564369
7.95364e-06
0.00539797
0.000225009
0.00522009
0.000392939
0.00509113
0.000519107
0.00499619
0.000623835
0.00493855
0.000709744
0.00493094
0.000763114
0.00497374
0.000769285
0.00504845
0.000729906
0.00513373
0.000669143
0.00522046
0.000617816
0.00531317
0.000591174
0.00541925
0.000582059
0.00553943
0.000568446
0.00566729
0.000532169
0.00579335
0.000466055
0.00590927
0.000379195
0.00600985
0.000282904
0.00609192
0.000194039
0.00615683
0.000118262
0.00620305
6.31571e-05
0.00623837
2.69165e-05
1.83812e-06
0.0107269
-0.000255501
0.010769
-0.000335062
0.0107903
-0.000430334
0.0107899
-0.000521281
0.010775
-0.000626378
0.0107225
-0.000741972
0.0106356
-0.000888932
0.0104936
-0.00106689
0.0103043
-0.00126553
0.0100732
-0.00148759
0.00979541
-0.00167834
0.00947147
-0.0018398
0.00896744
-0.00179038
0.00833384
-0.00162748
0.00770002
-0.00150385
0.0069964
-0.00129155
0.00621185
-0.00103343
0.00545121
-0.000809271
0.00477932
-0.000596488
0.00418914
-0.000349893
0.00371362
-0.000113814
0.00334147
9.6611e-05
0.00307322
0.000276208
0.00288702
0.000411207
0.00278582
0.000494137
0.002764
0.000540933
0.00282336
0.000564468
0.00296133
0.000571775
0.00316202
0.000562422
0.00339774
0.000533568
0.00363922
0.000488427
0.00386811
0.000440253
0.00408331
0.000402615
0.00429529
0.000379193
0.00451446
0.00036289
0.00474201
0.000340901
0.00496968
0.000304493
0.00518387
0.000251864
0.00537246
0.00019061
0.00552686
0.000128501
0.00564469
7.62047e-05
0.00572834
3.46127e-05
0.00578204
9.46397e-06
0.00581641
-7.45411e-06
-1.22857e-05
0.0105055
-0.00028084
0.0104941
-0.000323589
0.0104312
-0.000367489
0.0103249
-0.000414967
0.0101708
-0.000472239
0.00995575
-0.000526956
0.00968027
-0.000613455
0.00930859
-0.000695204
0.00886855
-0.000825485
0.00831293
-0.000931975
0.00772793
-0.00109333
0.00708048
-0.00119236
0.00622232
-0.000932215
0.00512717
-0.00053233
0.00383534
-0.000212025
0.00260151
-5.77139e-05
0.00160618
-3.80958e-05
0.00091127
-0.000114362
0.00048943
-0.000174648
0.000281548
-0.000142011
0.000212313
-4.45787e-05
0.000250666
5.82575e-05
0.000380034
0.000146841
0.000580271
0.00021097
0.000828536
0.000245871
0.00111093
0.000258536
0.0014167
0.000258705
0.00173633
0.000252144
0.00205936
0.000239386
0.0023722
0.000220725
0.00266263
0.000198
0.00292746
0.000175423
0.00317306
0.000157021
0.00340898
0.000143272
0.00364084
0.000131025
0.00386558
0.000116161
0.0040735
9.65719e-05
0.00425249
7.28795e-05
0.00439449
4.861e-05
0.00449625
2.67414e-05
0.00456207
1.03793e-05
0.00459777
-1.08354e-06
0.00461309
-5.85747e-06
0.00461463
-8.99645e-06
-7.47591e-06
0.00864306
0.00831947
0.00795198
0.00753701
0.00706477
0.00653782
0.00592436
0.00522916
0.00440367
0.0034717
0.00237837
0.00118601
0.000253797
-0.000278534
-0.000490559
-0.000548273
-0.000586368
-0.00070073
-0.000875379
-0.00101739
-0.00106197
-0.00100371
-0.00085687
-0.0006459
-0.000400029
-0.000141493
0.000117212
0.000369357
0.000608743
0.000829468
0.00102747
0.00120289
0.00135991
0.00150318
0.00163421
0.00175037
0.00184694
0.00191982
0.00196843
0.00199517
0.00200555
0.00200447
0.00199861
0.00198962
6.03722e-05
-6.03722e-05
9.58485e-06
5.07874e-05
-0.000250138
0.000259722
-0.000776016
0.000525878
-0.00144836
0.000672348
-0.00211015
0.000661783
-0.002673
0.000562854
-0.0031064
0.000433397
-0.00338569
0.000279291
-0.00349951
0.000113817
-0.00344248
-5.70241e-05
-0.00322646
-0.000216019
-0.00286181
-0.00036465
-0.00236835
-0.000493457
-0.00177895
-0.000589408
-0.00113777
-0.000641177
-0.000477765
-0.000660005
0.00017717
-0.000654935
0.000793509
-0.000616339
0.00134051
-0.000547001
0.0017994
-0.000458891
0.00216126
-0.000361861
0.00242592
-0.000264662
0.00260042
-0.000174494
0.00269485
-9.44275e-05
0.00271526
-2.04096e-05
0.0026661
4.91524e-05
0.0025506
0.000115506
0.0023845
0.000166096
0.00219477
0.000189729
0.00201148
0.000183289
0.00185488
0.0001566
0.00173868
0.000116207
0.00166239
7.62899e-05
0.001622
4.03873e-05
0.00161142
1.05835e-05
0.00162487
-1.34539e-05
0.00165678
-3.19064e-05
0.00170032
-4.35451e-05
0.00174859
-4.82713e-05
0.00179478
-4.61892e-05
0.00183555
-4.07656e-05
0.00186745
-3.18988e-05
0.00189322
-2.57706e-05
-1.52796e-05
-0.000190563
0.000130191
-0.000630446
0.00049067
-0.00112122
0.000750495
-0.00155235
0.000957006
-0.00189359
0.0010136
-0.00215338
0.000921569
-0.00231601
0.000725478
-0.00237378
0.000491171
-0.00231345
0.000218964
-0.00213106
-6.85735e-05
-0.0018306
-0.000357482
-0.00139588
-0.000650739
-0.000843595
-0.00091694
-0.000194236
-0.00114282
0.000514683
-0.00129833
0.0012556
-0.00138209
0.00199693
-0.00140134
0.00271147
-0.00136947
0.00337184
-0.00127671
0.00395506
-0.00113023
0.00444445
-0.000948283
0.00483469
-0.000752102
0.00512499
-0.000554961
0.00531484
-0.00036434
0.00541928
-0.000198863
0.00546852
-6.9654e-05
0.0054825
3.51702e-05
0.0054678
0.00013021
0.0054348
0.000199095
0.00538529
0.000239238
0.00531493
0.000253651
0.00521325
0.000258277
0.00506555
0.000263905
0.00487693
0.000264915
0.00467774
0.000239571
0.00450432
0.00018401
0.00438234
0.000108526
0.00431904
3.13898e-05
0.0043043
-2.88052e-05
0.00432299
-6.69635e-05
0.00435773
-8.0929e-05
0.00439861
-8.16424e-05
0.00443476
-6.80486e-05
0.00446818
-5.91943e-05
-3.74102e-05
-0.000490234
0.000620425
-0.000652975
0.000653411
-0.00065156
0.000749079
-0.00055148
0.000856927
-0.00039955
0.000861666
-0.000213595
0.000735615
-2.06897e-06
0.000513952
0.000259534
0.000229569
0.00058004
-0.000101543
0.000981404
-0.000469937
0.00146722
-0.000843294
0.00202313
-0.00120665
0.00263523
-0.00152904
0.00328238
-0.00178997
0.00394883
-0.00196477
0.00460945
-0.00204271
0.005238
-0.00202989
0.00581317
-0.00194464
0.00632267
-0.0017862
0.00675259
-0.00156015
0.00709231
-0.00128801
0.00733748
-0.000997271
0.00749526
-0.000712735
0.00757893
-0.000448013
0.00759872
-0.00021866
0.00756448
-3.54058e-05
0.00748973
0.000109911
0.00738954
0.000230403
0.00726316
0.000325481
0.00712809
0.0003743
0.00701243
0.000369313
0.0069275
0.000343208
0.00685526
0.000336147
0.00676023
0.000359941
0.00661552
0.000384288
0.00642987
0.000369658
0.00623373
0.000304661
0.00605954
0.00020558
0.00592628
0.000104461
0.00583745
2.18664e-05
0.00578618
-2.96587e-05
0.00576264
-5.81099e-05
0.00575522
-6.0624e-05
0.00575793
-6.19055e-05
-4.36306e-05
-0.000192582
0.000813007
-2.62084e-05
0.000487037
0.00029347
0.000429401
0.000747819
0.000402578
0.0012707
0.000338782
0.00181707
0.000189244
0.00237087
-3.98403e-05
0.00291965
-0.000319219
0.00348641
-0.000668301
0.00406532
-0.00104884
0.00465889
-0.00143687
0.00526439
-0.00181215
0.00587458
-0.00213923
0.0064638
-0.00237919
0.00701707
-0.00251805
0.0075233
-0.00254894
0.00796728
-0.00247386
0.00834003
-0.00231739
0.00863719
-0.00208337
0.00885504
-0.00177799
0.00899853
-0.0014315
0.00907067
-0.00106941
0.00907719
-0.000719256
0.0090361
-0.000406923
0.00895869
-0.000141248
0.00884406
7.92274e-05
0.00870156
0.000252409
0.00854772
0.000384239
0.00838596
0.00048724
0.00821485
0.000545412
0.0080414
0.000542761
0.0078841
0.000500517
0.00775283
0.00046741
0.00763913
0.000473645
0.00752063
0.000502783
0.00737794
0.000512352
0.00720648
0.000476123
0.00701817
0.000393889
0.00683241
0.000290214
0.00666719
0.000187092
0.00653256
0.000104973
0.0064305
4.3943e-05
0.00636091
8.96952e-06
0.00631231
-1.33059e-05
-1.9681e-05
0.000935348
0.0016641
0.00238466
0.00312608
0.00387381
0.00461345
0.00532617
0.00601591
0.00667044
0.00728718
0.00786316
0.00838363
0.00883859
0.00921381
0.00949872
0.00970341
0.00983822
0.00989982
0.00989778
0.00983827
0.00973487
0.00960413
0.00945768
0.00930303
0.00914248
0.00897257
0.00880563
0.00863533
0.00846192
0.00829196
0.00812972
0.00797625
0.00783577
0.00771052
0.00759352
0.00747136
0.00733439
0.00718189
0.00702259
0.00686909
0.00673464
0.00662435
0.00654434
0.00648334
)
;

boundaryField
{
    inlet
    {
        type            calculated;
        value           nonuniform List<scalar> 5(-0.01 -0.01 -0.01 -0.01 -0.01);
    }
    outlet
    {
        type            calculated;
        value           nonuniform List<scalar> 10(0.00641847 0.0062572 0.00583053 0.00460982 0.00198214 0.0019085 0.00449031 0.00576415 0.00628836 0.00645051);
    }
    upperWall
    {
        type            calculated;
        value           uniform 0;
    }
    lowerWall
    {
        type            calculated;
        value           uniform 0;
    }
    frontAndBack
    {
        type            empty;
        value           nonuniform List<scalar> 0();
    }
}


// ************************************************************************* //
