/*--------------------------------*- C++ -*----------------------------------*\
  =========                 |
  \\      /  F ield         | OpenFOAM: The Open Source CFD Toolbox
   \\    /   O peration     | Website:  https://openfoam.org
    \\  /    A nd           | Version:  10
     \\/     M anipulation  |
\*---------------------------------------------------------------------------*/
FoamFile
{
    format      ascii;
    class       volVectorField;
    location    "6.425";
    object      U;
}
// * * * * * * * * * * * * * * * * * * * * * * * * * * * * * * * * * * * * * //

dimensions      [0 1 -1 0 0 0 0];

internalField   nonuniform List<vector> 
475
(
(0.974015 0.0160593 0)
(0.976169 0.00629154 0)
(0.950018 0.0316163 0)
(0.955237 0.000883853 0)
(0.919809 0.0299673 0)
(0.998509 0.00883261 0)
(1.01403 0.014484 0)
(1.02522 0.0152562 0)
(1.04395 0.00828279 0)
(1.05549 0.00203896 0)
(1.0002 0.00031351 0)
(1.00945 -0.0031503 0)
(1.02458 -0.00471134 0)
(1.0409 -0.00983756 0)
(1.05654 -0.0139505 0)
(1.0001 -0.0101519 0)
(1.00991 -0.0193175 0)
(1.0232 -0.0223226 0)
(1.03451 -0.0232204 0)
(1.04507 -0.0255212 0)
(0.980503 -0.00977287 0)
(0.96925 -0.0188005 0)
(0.953658 -0.0222808 0)
(0.933012 -0.0218641 0)
(0.907844 -0.0233867 0)
(0.925996 -0.0168978 0)
(0.933292 -0.0356058 0)
(0.936972 -0.0462201 0)
(0.944631 -0.0544646 0)
(0.954978 -0.0631389 0)
(0.972167 -0.0765347 0)
(0.994209 -0.0955273 0)
(1.01803 -0.119765 0)
(1.04166 -0.148401 0)
(1.06242 -0.179284 0)
(1.07797 -0.210457 0)
(1.08769 -0.238118 0)
(1.08951 -0.260252 0)
(1.08275 -0.273063 0)
(1.06835 -0.274856 0)
(1.04548 -0.267926 0)
(1.01572 -0.252363 0)
(0.982316 -0.228749 0)
(0.950765 -0.198264 0)
(0.920151 -0.161809 0)
(0.889111 -0.12267 0)
(0.860663 -0.0835505 0)
(0.833441 -0.0468158 0)
(0.806799 -0.0147674 0)
(0.784099 0.0125983 0)
(0.767298 0.0341655 0)
(0.755515 0.0497492 0)
(0.745705 0.0614101 0)
(0.735908 0.0707417 0)
(0.72574 0.076374 0)
(0.715456 0.07644 0)
(0.705361 0.0722853 0)
(0.695727 0.0682358 0)
(0.686894 0.0673773 0)
(0.679363 0.0691302 0)
(0.67325 0.0702931 0)
(0.668178 0.0681403 0)
(0.663507 0.0616463 0)
(0.658888 0.0519505 0)
(0.654458 0.040656 0)
(0.650448 0.029668 0)
(0.647291 0.0201334 0)
(0.644744 0.0123565 0)
(0.64331 0.00741228 0)
(0.641846 0.00275687 0)
(1.0684 -0.00918073 0)
(1.07776 -0.0220703 0)
(1.08268 -0.0327692 0)
(1.08556 -0.0437299 0)
(1.08788 -0.0554517 0)
(1.09087 -0.0716283 0)
(1.09354 -0.0917377 0)
(1.09519 -0.117454 0)
(1.09263 -0.145975 0)
(1.08596 -0.176738 0)
(1.07196 -0.205871 0)
(1.05195 -0.229832 0)
(1.02386 -0.246557 0)
(0.98877 -0.249882 0)
(0.948477 -0.24397 0)
(0.899057 -0.232377 0)
(0.84478 -0.212693 0)
(0.790501 -0.184754 0)
(0.739742 -0.151426 0)
(0.693074 -0.114009 0)
(0.651349 -0.0777784 0)
(0.614862 -0.0455662 0)
(0.581432 -0.0157214 0)
(0.551965 0.0102652 0)
(0.530214 0.0288625 0)
(0.515076 0.0432753 0)
(0.503973 0.0572327 0)
(0.495996 0.0710479 0)
(0.492231 0.0818542 0)
(0.4937 0.0863233 0)
(0.499737 0.0840488 0)
(0.508207 0.0781044 0)
(0.517257 0.0725521 0)
(0.526418 0.0695876 0)
(0.536343 0.0686603 0)
(0.547594 0.0673707 0)
(0.560027 0.0636393 0)
(0.572838 0.0565297 0)
(0.585118 0.0469183 0)
(0.5961 0.0360264 0)
(0.605408 0.0256617 0)
(0.612708 0.0166658 0)
(0.618518 0.00968618 0)
(0.622034 0.00515321 0)
(0.625717 0.00142879 0)
(1.06837 -0.0226604 0)
(1.07657 -0.0328003 0)
(1.08056 -0.0442312 0)
(1.08134 -0.0554139 0)
(1.07976 -0.0674938 0)
(1.07531 -0.0819729 0)
(1.06904 -0.0983595 0)
(1.05843 -0.119732 0)
(1.04384 -0.141809 0)
(1.02291 -0.167297 0)
(0.995542 -0.189584 0)
(0.962633 -0.208432 0)
(0.920106 -0.215009 0)
(0.871158 -0.203287 0)
(0.809189 -0.187375 0)
(0.732634 -0.176482 0)
(0.657103 -0.163566 0)
(0.581356 -0.139988 0)
(0.507723 -0.108609 0)
(0.445017 -0.0726321 0)
(0.392827 -0.0360869 0)
(0.35193 -0.00595712 0)
(0.32068 0.0181229 0)
(0.297315 0.0381755 0)
(0.282136 0.0537499 0)
(0.275758 0.0643607 0)
(0.277676 0.0707655 0)
(0.287648 0.0737456 0)
(0.304814 0.0733829 0)
(0.327006 0.0697148 0)
(0.351291 0.0637115 0)
(0.375134 0.0573685 0)
(0.397463 0.0526277 0)
(0.418764 0.0500987 0)
(0.440228 0.0488209 0)
(0.462571 0.0469419 0)
(0.485483 0.0431111 0)
(0.507842 0.0368686 0)
(0.528226 0.0290854 0)
(0.545609 0.0207187 0)
(0.559269 0.0132886 0)
(0.569364 0.00708058 0)
(0.576129 0.00298089 0)
(0.580245 0.000231514 0)
(0.583051 -0.00106906 0)
(1.04923 -0.0304648 0)
(1.05193 -0.03622 0)
(1.0468 -0.0433828 0)
(1.04037 -0.0499554 0)
(1.02626 -0.0583316 0)
(1.00928 -0.0665622 0)
(0.98501 -0.0777776 0)
(0.954093 -0.0905032 0)
(0.915796 -0.105801 0)
(0.864728 -0.123414 0)
(0.808487 -0.138484 0)
(0.735129 -0.154564 0)
(0.657609 -0.152458 0)
(0.577944 -0.131524 0)
(0.465291 -0.10468 0)
(0.317008 -0.0658927 0)
(0.197052 -0.0276683 0)
(0.115869 -0.0111981 0)
(0.0623042 -0.00563941 0)
(0.034898 0.000841751 0)
(0.0222161 0.0114705 0)
(0.0212357 0.0232013 0)
(0.0304371 0.0340256 0)
(0.0474939 0.0414694 0)
(0.0699969 0.0451308 0)
(0.0964137 0.0457188 0)
(0.125833 0.0446929 0)
(0.157271 0.042966 0)
(0.189611 0.0405589 0)
(0.221577 0.03737 0)
(0.251843 0.0336788 0)
(0.279625 0.0301189 0)
(0.305106 0.0272474 0)
(0.329121 0.0251094 0)
(0.352513 0.0232123 0)
(0.375446 0.0208132 0)
(0.39727 0.0175033 0)
(0.416818 0.0133646 0)
(0.432996 0.00902299 0)
(0.445248 0.00504533 0)
(0.453499 0.00204574 0)
(0.458589 -7.03024e-05 0)
(0.460761 -0.00105288 0)
(0.461843 -0.00167066 0)
(0.460983 -0.00137996 0)
(0.879118 -0.0239076 0)
(0.849119 -0.0265985 0)
(0.813094 -0.028292 0)
(0.7771 -0.0309682 0)
(0.73058 -0.0339881 0)
(0.684728 -0.0363869 0)
(0.625107 -0.0424259 0)
(0.564192 -0.0457448 0)
(0.487056 -0.0568333 0)
(0.400009 -0.059918 0)
(0.303047 -0.0760859 0)
(0.169257 -0.0791825 0)
(0.0588266 -0.0269219 0)
(-0.0107284 0.0291577 0)
(-0.041903 0.0579356 0)
(-0.0522049 0.0507506 0)
(-0.0554735 0.017241 0)
(-0.0635964 -0.0145667 0)
(-0.0801615 -0.0271312 0)
(-0.0971805 -0.0259862 0)
(-0.105987 -0.018423 0)
(-0.104793 -0.00923026 0)
(-0.0939101 -0.00141231 0)
(-0.0754878 0.00393471 0)
(-0.0523532 0.00679218 0)
(-0.0270108 0.00807814 0)
(-0.00103145 0.00842028 0)
(0.0245968 0.00827535 0)
(0.0491792 0.00782715 0)
(0.0721667 0.00713205 0)
(0.093069 0.00622338 0)
(0.111711 0.00522989 0)
(0.128332 0.0043034 0)
(0.143371 0.00350966 0)
(0.157135 0.00281705 0)
(0.169543 0.00214617 0)
(0.180215 0.00148164 0)
(0.188676 0.000869186 0)
(0.19471 0.000385023 0)
(0.198402 5.39557e-05 0)
(0.200186 -0.000127411 0)
(0.200594 -0.00021429 0)
(0.200157 -0.00023853 0)
(0.199513 -0.000246315 0)
(0.198216 -0.000175449 0)
(0.00483381 -0.0306594 0)
(0.00693949 -0.0300263 0)
(-0.00513263 -0.011672 0)
(-0.0432275 0.0195043 0)
(-0.110548 0.0380691 0)
(-0.182445 0.0406523 0)
(-0.244996 0.0364067 0)
(-0.295643 0.0300852 0)
(-0.330269 0.0226577 0)
(-0.348304 0.0144354 0)
(-0.34971 0.00559046 0)
(-0.335021 -0.00381559 0)
(-0.305142 -0.0126566 0)
(-0.26153 -0.0202812 0)
(-0.206811 -0.026069 0)
(-0.145142 -0.0285796 0)
(-0.0802261 -0.0295404 0)
(-0.0143795 -0.028705 0)
(0.0493167 -0.0262297 0)
(0.107497 -0.0225057 0)
(0.157866 -0.0179901 0)
(0.199003 -0.01318 0)
(0.23046 -0.00848129 0)
(0.252705 -0.00423365 0)
(0.266589 -0.000596828 0)
(0.272549 0.0035086 0)
(0.271096 0.0099503 0)
(0.262231 0.0171523 0)
(0.247211 0.0203715 0)
(0.228613 0.0175297 0)
(0.209524 0.0104928 0)
(0.1925 0.00281477 0)
(0.178975 -0.00237156 0)
(0.169466 -0.00436671 0)
(0.163744 -0.00421853 0)
(0.161304 -0.00334642 0)
(0.161546 -0.0026452 0)
(0.163921 -0.00231607 0)
(0.16777 -0.00216033 0)
(0.172433 -0.00200012 0)
(0.177196 -0.00173177 0)
(0.181564 -0.00139868 0)
(0.18526 -0.00103209 0)
(0.187969 -0.000747966 0)
(0.190836 -0.000410834 0)
(-0.00418402 0.0211374 0)
(-0.0353031 0.0421403 0)
(-0.088526 0.0673636 0)
(-0.133729 0.0890141 0)
(-0.176329 0.0954212 0)
(-0.20701 0.0884119 0)
(-0.228883 0.0723106 0)
(-0.239672 0.052981 0)
(-0.239108 0.0300288 0)
(-0.225934 0.00606913 0)
(-0.200342 -0.0188517 0)
(-0.162709 -0.0430806 0)
(-0.112712 -0.0649025 0)
(-0.0526828 -0.083299 0)
(0.0156633 -0.0961634 0)
(0.0897471 -0.103061 0)
(0.16376 -0.104587 0)
(0.236007 -0.1018 0)
(0.304377 -0.0948162 0)
(0.366454 -0.0840267 0)
(0.420152 -0.0707718 0)
(0.464387 -0.0563298 0)
(0.498848 -0.0419247 0)
(0.523673 -0.0286357 0)
(0.53883 -0.0168056 0)
(0.545711 -0.00687455 0)
(0.548103 0.00105878 0)
(0.547423 0.00758376 0)
(0.544614 0.0135132 0)
(0.541033 0.0192735 0)
(0.536118 0.0244833 0)
(0.528205 0.0273455 0)
(0.515597 0.0259605 0)
(0.497943 0.0203529 0)
(0.477572 0.0128457 0)
(0.458254 0.00560081 0)
(0.443202 -0.0002871 0)
(0.434004 -0.00455045 0)
(0.430328 -0.00709471 0)
(0.430758 -0.00812952 0)
(0.433734 -0.0078506 0)
(0.437543 -0.00696541 0)
(0.441868 -0.00542489 0)
(0.444751 -0.00439491 0)
(0.449019 -0.00261058 0)
(-0.0323332 2.64645e-05 0)
(-0.0628968 0.0484657 0)
(-0.0660297 0.0748852 0)
(-0.0619157 0.0954531 0)
(-0.0500487 0.10064 0)
(-0.032443 0.089367 0)
(-0.0117407 0.0668438 0)
(0.0111733 0.039945 0)
(0.0392732 0.0102564 0)
(0.0756278 -0.0216587 0)
(0.121466 -0.0560695 0)
(0.174992 -0.0907425 0)
(0.23409 -0.122173 0)
(0.298653 -0.148659 0)
(0.364699 -0.166577 0)
(0.430598 -0.175571 0)
(0.494126 -0.176392 0)
(0.553231 -0.170422 0)
(0.606553 -0.157931 0)
(0.653256 -0.139258 0)
(0.692018 -0.116295 0)
(0.721678 -0.0920367 0)
(0.742189 -0.0679471 0)
(0.754768 -0.044357 0)
(0.76025 -0.0237565 0)
(0.759561 -0.00787912 0)
(0.753836 0.0052278 0)
(0.744557 0.017056 0)
(0.732839 0.0263477 0)
(0.719268 0.030104 0)
(0.7063 0.0285419 0)
(0.696421 0.0265837 0)
(0.689259 0.0282063 0)
(0.681813 0.0321981 0)
(0.670275 0.03409 0)
(0.653295 0.0304339 0)
(0.633302 0.0216546 0)
(0.61403 0.0107627 0)
(0.598291 0.00118777 0)
(0.587095 -0.00549281 0)
(0.580309 -0.00856288 0)
(0.576663 -0.00957865 0)
(0.57558 -0.00837166 0)
(0.57516 -0.00759207 0)
(0.576406 -0.00493393 0)
(-0.0253653 0.138487 0)
(-0.0145191 0.0925607 0)
(0.00989353 0.0842186 0)
(0.0498962 0.0837976 0)
(0.0981049 0.0787061 0)
(0.151715 0.0642348 0)
(0.207286 0.0412925 0)
(0.261808 0.00953972 0)
(0.317911 -0.0283701 0)
(0.376555 -0.0687001 0)
(0.437768 -0.109826 0)
(0.499547 -0.149794 0)
(0.560831 -0.184916 0)
(0.621569 -0.212073 0)
(0.678929 -0.229991 0)
(0.730719 -0.23697 0)
(0.776395 -0.2338 0)
(0.815724 -0.222428 0)
(0.84827 -0.202388 0)
(0.873564 -0.175322 0)
(0.891988 -0.143699 0)
(0.903519 -0.109605 0)
(0.908029 -0.076507 0)
(0.906523 -0.0467393 0)
(0.900749 -0.020882 0)
(0.891546 0.000750282 0)
(0.878541 0.0169823 0)
(0.862771 0.0289393 0)
(0.84644 0.0380092 0)
(0.829906 0.043218 0)
(0.812608 0.0432518 0)
(0.795724 0.0401343 0)
(0.781233 0.0385591 0)
(0.769404 0.040824 0)
(0.758421 0.0445296 0)
(0.745764 0.045316 0)
(0.729986 0.0407154 0)
(0.711525 0.0313241 0)
(0.692201 0.0202558 0)
(0.67425 0.0100292 0)
(0.659019 0.00280694 0)
(0.647326 -0.00196523 0)
(0.638548 -0.0037675 0)
(0.633446 -0.00482925 0)
(0.628833 -0.00383842 0)
(0.0836171 0.00114149 0)
(0.116949 -0.00601341 0)
(0.205047 -0.00647069 0)
(0.27626 -0.00919689 0)
(0.345803 -0.015396 0)
(0.420453 -0.0297941 0)
(0.494653 -0.0508806 0)
(0.565001 -0.0778105 0)
(0.633969 -0.111224 0)
(0.699346 -0.147537 0)
(0.761224 -0.183931 0)
(0.818098 -0.218851 0)
(0.867218 -0.248755 0)
(0.908307 -0.268898 0)
(0.941002 -0.278853 0)
(0.964405 -0.278976 0)
(0.978495 -0.268194 0)
(0.985331 -0.249591 0)
(0.98803 -0.223642 0)
(0.985421 -0.189359 0)
(0.977919 -0.150678 0)
(0.967339 -0.111078 0)
(0.954278 -0.0728367 0)
(0.938737 -0.0386687 0)
(0.922386 -0.00958716 0)
(0.906539 0.0134232 0)
(0.889992 0.0310668 0)
(0.872438 0.0456843 0)
(0.854571 0.0577541 0)
(0.837112 0.0648196 0)
(0.82047 0.0647297 0)
(0.804704 0.0593434 0)
(0.790033 0.0540145 0)
(0.776948 0.0528609 0)
(0.765243 0.055353 0)
(0.753605 0.0573249 0)
(0.740681 0.0553003 0)
(0.725997 0.0484626 0)
(0.710046 0.0387172 0)
(0.694152 0.0280975 0)
(0.679394 0.0186783 0)
(0.667336 0.0110201 0)
(0.657338 0.00563827 0)
(0.651434 0.0022458 0)
(0.645051 -8.8398e-05 0)
)
;

boundaryField
{
    inlet
    {
        type            fixedValue;
        value           uniform (1 0 0);
    }
    outlet
    {
        type            zeroGradient;
    }
    upperWall
    {
        type            noSlip;
    }
    lowerWall
    {
        type            noSlip;
    }
    frontAndBack
    {
        type            empty;
    }
}


// ************************************************************************* //
