/*--------------------------------*- C++ -*----------------------------------*\
  =========                 |
  \\      /  F ield         | OpenFOAM: The Open Source CFD Toolbox
   \\    /   O peration     | Website:  https://openfoam.org
    \\  /    A nd           | Version:  10
     \\/     M anipulation  |
\*---------------------------------------------------------------------------*/
FoamFile
{
    format      ascii;
    class       volScalarField;
    location    "5.8";
    object      p;
}
// * * * * * * * * * * * * * * * * * * * * * * * * * * * * * * * * * * * * * //

dimensions      [0 2 -2 0 0 0 0];

internalField   nonuniform List<scalar> 
475
(
-0.057002
-0.0824205
-0.111827
-0.135373
-0.158155
-0.0828536
-0.0960779
-0.112311
-0.131399
-0.148332
-0.0809422
-0.0902962
-0.105183
-0.122818
-0.139055
-0.0803806
-0.0910082
-0.105834
-0.121435
-0.134848
-0.0504732
-0.0773191
-0.100975
-0.118592
-0.131353
-0.176473
-0.186717
-0.191047
-0.195737
-0.203325
-0.213179
-0.222633
-0.228138
-0.22797
-0.221258
-0.208074
-0.190506
-0.171236
-0.152509
-0.135042
-0.11937
-0.107773
-0.101104
-0.0976829
-0.0954197
-0.0910784
-0.0824835
-0.0715873
-0.0606543
-0.0495565
-0.0374079
-0.0250993
-0.014703
-0.00752536
-0.00306679
0.000223809
0.00355334
0.00703427
0.0100649
0.0120552
0.0128356
0.0126073
0.0117002
0.010403
0.00891056
0.00733027
0.00571463
0.00408134
0.00244755
0.000813901
-0.164932
-0.176836
-0.183223
-0.186714
-0.189656
-0.192513
-0.194541
-0.19447
-0.19163
-0.185229
-0.176108
-0.165576
-0.15523
-0.146074
-0.137167
-0.129037
-0.123623
-0.120932
-0.119268
-0.116891
-0.111377
-0.100781
-0.0868742
-0.0721708
-0.0573361
-0.0426229
-0.0286979
-0.0170966
-0.00872024
-0.00302544
0.00137038
0.00546323
0.00933278
0.0124711
0.0144033
0.0150293
0.0145723
0.0133778
0.0117629
0.00995235
0.00808149
0.00621837
0.00438646
0.00260154
0.00085766
-0.152538
-0.162336
-0.168031
-0.170796
-0.171367
-0.170489
-0.168042
-0.164299
-0.159369
-0.153816
-0.149538
-0.147249
-0.147179
-0.144516
-0.138133
-0.135766
-0.137279
-0.137367
-0.134546
-0.129172
-0.119819
-0.105998
-0.0902475
-0.0739668
-0.0577428
-0.0419858
-0.0277728
-0.0162603
-0.00772362
-0.00152121
0.00335494
0.00761687
0.0113625
0.0142588
0.0159802
0.0164609
0.0158811
0.0145401
0.012739
0.0107184
0.00863742
0.00658656
0.00460272
0.00270361
0.000876185
-0.145701
-0.153401
-0.158136
-0.159714
-0.158505
-0.154936
-0.148857
-0.141361
-0.132954
-0.126681
-0.124543
-0.131854
-0.14646
-0.147037
-0.132368
-0.123846
-0.127713
-0.135434
-0.138544
-0.135185
-0.125152
-0.109712
-0.0914261
-0.072983
-0.0554636
-0.0396158
-0.0260962
-0.0152472
-0.00695709
-0.000631412
0.00446013
0.00879703
0.012446
0.0151881
0.0167892
0.0172011
0.0165758
0.0151772
0.0132953
0.0111512
0.00895069
0.00678799
0.00471745
0.00275289
0.000877139
-0.140832
-0.147744
-0.151981
-0.152941
-0.150902
-0.145702
-0.138054
-0.128459
-0.118832
-0.111271
-0.110115
-0.121353
-0.139514
-0.147697
-0.145311
-0.139806
-0.136034
-0.134688
-0.132611
-0.126762
-0.116608
-0.102526
-0.0860459
-0.0689602
-0.0525498
-0.037691
-0.0249429
-0.0145785
-0.00643693
-4.55999e-05
0.00513229
0.00945858
0.0129958
0.0155766
0.0170332
0.0173409
0.0166444
0.0151948
0.0132647
0.0111273
0.008934
0.0067768
0.00470921
0.0027427
0.000869017
-0.204265
-0.20558
-0.207594
-0.210343
-0.217199
-0.228746
-0.241849
-0.25172
-0.254018
-0.246691
-0.229204
-0.2024
-0.168263
-0.130206
-0.0921303
-0.0576693
-0.0291264
-0.00762645
0.00672075
0.0147712
0.0179663
0.0180489
0.0166863
0.0149978
0.0134299
0.0119432
0.0104317
0.00824623
0.00527646
0.00193797
-0.000893928
-0.00258264
-0.00296569
-0.00228711
-0.000826605
0.000924811
0.00260813
0.00393658
0.00475241
0.0050262
0.00480509
0.0041807
0.00324424
0.00208062
0.000756415
-0.19701
-0.199748
-0.203167
-0.209503
-0.219898
-0.23456
-0.249282
-0.259981
-0.263086
-0.256826
-0.240403
-0.213859
-0.17929
-0.140326
-0.100789
-0.0654977
-0.0362233
-0.0141984
0.000543193
0.00918657
0.0130063
0.0135564
0.0127997
0.0121839
0.0117332
0.0107308
0.00876141
0.00636889
0.00380328
0.00165713
0.000104492
-0.00100532
-0.00164151
-0.00145418
-0.000440461
0.00113385
0.00278076
0.00410095
0.00490137
0.00514567
0.00488986
0.00423376
0.00327466
0.00209298
0.000758344
-0.20577
-0.204295
-0.205398
-0.211075
-0.223361
-0.239967
-0.255844
-0.267617
-0.271192
-0.264761
-0.247936
-0.221607
-0.187736
-0.149598
-0.111622
-0.0773886
-0.0489273
-0.0277013
-0.0135859
-0.0051151
-0.000898949
0.00053376
0.00075099
0.000998199
0.00165472
0.00243613
0.00294697
0.00309394
0.00291987
0.00234378
0.0014917
0.000675233
0.00026842
0.000552463
0.00148891
0.00279453
0.00407646
0.00505369
0.00555266
0.00556582
0.00514008
0.00436606
0.00333008
0.00210123
0.000743392
-0.192909
-0.195127
-0.197387
-0.204469
-0.216919
-0.233152
-0.248631
-0.260029
-0.264484
-0.25986
-0.244997
-0.220989
-0.190275
-0.155905
-0.122304
-0.0924022
-0.0673593
-0.0488909
-0.0370844
-0.0296554
-0.0249538
-0.021964
-0.0194069
-0.0165049
-0.0132211
-0.00963122
-0.0059849
-0.00296398
-0.000973471
0.000207088
0.00103216
0.00192653
0.0029914
0.00410916
0.00518623
0.00612986
0.00678917
0.00705572
0.00692695
0.00644714
0.00568333
0.00467897
0.00348874
0.00216141
0.000741031
-0.226823
-0.205226
-0.202286
-0.204571
-0.214092
-0.228519
-0.242331
-0.251481
-0.253875
-0.248215
-0.233807
-0.212246
-0.18621
-0.158059
-0.130976
-0.107726
-0.0893842
-0.0763601
-0.0683671
-0.0632363
-0.0583177
-0.0526108
-0.0460455
-0.0390611
-0.0316918
-0.0237839
-0.0158793
-0.009372
-0.00504337
-0.0022823
-3.15297e-05
0.00237947
0.0049347
0.00722719
0.00887805
0.00972898
0.00986069
0.00945031
0.00867442
0.00765499
0.00646275
0.0051486
0.00374846
0.00228066
0.000764485
)
;

boundaryField
{
    inlet
    {
        type            zeroGradient;
    }
    outlet
    {
        type            fixedValue;
        value           uniform 0;
    }
    upperWall
    {
        type            zeroGradient;
    }
    lowerWall
    {
        type            zeroGradient;
    }
    frontAndBack
    {
        type            empty;
    }
}


// ************************************************************************* //
