/*--------------------------------*- C++ -*----------------------------------*\
  =========                 |
  \\      /  F ield         | OpenFOAM: The Open Source CFD Toolbox
   \\    /   O peration     | Website:  https://openfoam.org
    \\  /    A nd           | Version:  10
     \\/     M anipulation  |
\*---------------------------------------------------------------------------*/
FoamFile
{
    format      ascii;
    class       volVectorField;
    location    "5.8";
    object      U;
}
// * * * * * * * * * * * * * * * * * * * * * * * * * * * * * * * * * * * * * //

dimensions      [0 1 -1 0 0 0 0];

internalField   nonuniform List<vector> 
475
(
(0.974503 0.0158569 0)
(0.97594 0.00665437 0)
(0.950294 0.0313096 0)
(0.955242 0.00137574 0)
(0.919413 0.0300585 0)
(0.998781 0.008546 0)
(1.01388 0.0148722 0)
(1.02505 0.0150136 0)
(1.04408 0.00835596 0)
(1.05576 0.00275741 0)
(1.00007 2.0503e-06 0)
(1.00954 -0.00251574 0)
(1.02421 -0.00511649 0)
(1.04089 -0.00940369 0)
(1.05678 -0.0138758 0)
(0.999702 -0.010054 0)
(1.01036 -0.0193104 0)
(1.02241 -0.0223009 0)
(1.03552 -0.0229366 0)
(1.04435 -0.0258518 0)
(0.980672 -0.00947282 0)
(0.969468 -0.0194816 0)
(0.953307 -0.0215915 0)
(0.933907 -0.0224165 0)
(0.906827 -0.0231326 0)
(0.925743 -0.0164052 0)
(0.932281 -0.0341597 0)
(0.936939 -0.0453253 0)
(0.944377 -0.0524131 0)
(0.957061 -0.0612631 0)
(0.976274 -0.0776238 0)
(1.00085 -0.0994139 0)
(1.02662 -0.128182 0)
(1.05069 -0.160689 0)
(1.07202 -0.194653 0)
(1.08521 -0.228452 0)
(1.09153 -0.256026 0)
(1.08968 -0.276607 0)
(1.07838 -0.286529 0)
(1.05972 -0.282061 0)
(1.03077 -0.268637 0)
(0.9966 -0.247257 0)
(0.962168 -0.215063 0)
(0.926389 -0.176757 0)
(0.893432 -0.136725 0)
(0.860569 -0.0946634 0)
(0.824294 -0.0541589 0)
(0.791654 -0.019727 0)
(0.765141 0.0087627 0)
(0.742157 0.031727 0)
(0.720098 0.050977 0)
(0.698618 0.0658461 0)
(0.679301 0.0735825 0)
(0.663711 0.0754661 0)
(0.652459 0.0768996 0)
(0.645509 0.0811037 0)
(0.642338 0.0862112 0)
(0.641706 0.0879504 0)
(0.642007 0.0836531 0)
(0.641976 0.0736465 0)
(0.641071 0.0601371 0)
(0.639438 0.0457666 0)
(0.637541 0.032475 0)
(0.635796 0.0214615 0)
(0.634417 0.0129917 0)
(0.633421 0.00711011 0)
(0.632794 0.00315263 0)
(0.632381 0.000938077 0)
(0.632181 -0.000342675 0)
(0.631957 -0.000771976 0)
(1.0681 -0.00906129 0)
(1.0783 -0.0209387 0)
(1.08366 -0.0327038 0)
(1.08659 -0.0428007 0)
(1.09093 -0.0561423 0)
(1.09446 -0.074184 0)
(1.09829 -0.097365 0)
(1.09918 -0.126714 0)
(1.09659 -0.158061 0)
(1.08735 -0.192122 0)
(1.06953 -0.222703 0)
(1.0457 -0.246143 0)
(1.01294 -0.259735 0)
(0.974041 -0.258984 0)
(0.928174 -0.248434 0)
(0.874787 -0.231685 0)
(0.818703 -0.203645 0)
(0.76382 -0.165338 0)
(0.712078 -0.126299 0)
(0.665017 -0.0865857 0)
(0.622503 -0.0467478 0)
(0.581274 -0.0139487 0)
(0.544425 0.0103163 0)
(0.512654 0.0329117 0)
(0.484851 0.057601 0)
(0.464049 0.0785073 0)
(0.453961 0.0890335 0)
(0.454407 0.0887202 0)
(0.462006 0.0830152 0)
(0.473485 0.0782311 0)
(0.487401 0.0769948 0)
(0.503535 0.0775868 0)
(0.521506 0.0765725 0)
(0.5402 0.0715986 0)
(0.558159 0.0624775 0)
(0.574177 0.0506209 0)
(0.587603 0.0380541 0)
(0.598276 0.026429 0)
(0.606355 0.0168623 0)
(0.6122 0.00960499 0)
(0.61619 0.00470678 0)
(0.618795 0.00152714 0)
(0.62036 -6.30343e-05 0)
(0.621242 -0.000983759 0)
(0.621722 -0.00105254 0)
(1.06816 -0.0221937 0)
(1.07782 -0.0325494 0)
(1.08087 -0.0447701 0)
(1.0827 -0.0553198 0)
(1.0809 -0.069475 0)
(1.07715 -0.0842964 0)
(1.07027 -0.104123 0)
(1.05847 -0.126766 0)
(1.04304 -0.152305 0)
(1.01879 -0.179849 0)
(0.989403 -0.20225 0)
(0.951819 -0.221097 0)
(0.90472 -0.221285 0)
(0.852348 -0.205731 0)
(0.781536 -0.189951 0)
(0.70362 -0.175479 0)
(0.629339 -0.154435 0)
(0.554787 -0.121841 0)
(0.486032 -0.082528 0)
(0.426526 -0.0410224 0)
(0.380293 -0.00477215 0)
(0.343624 0.0255263 0)
(0.313831 0.0510041 0)
(0.293504 0.0702686 0)
(0.2864 0.0811419 0)
(0.292973 0.0832731 0)
(0.310307 0.0780916 0)
(0.333199 0.0689035 0)
(0.357205 0.0599866 0)
(0.380545 0.0543745 0)
(0.403754 0.0524213 0)
(0.428036 0.0521322 0)
(0.453734 0.0508152 0)
(0.479894 0.046739 0)
(0.504831 0.039799 0)
(0.526924 0.0310684 0)
(0.545128 0.0220684 0)
(0.559111 0.0140233 0)
(0.569101 0.00771083 0)
(0.57574 0.00323236 0)
(0.579729 0.000518436 0)
(0.581996 -0.00103505 0)
(0.582919 -0.00149987 0)
(0.583364 -0.00174042 0)
(0.58308 -0.00128314 0)
(1.05031 -0.029683 0)
(1.05195 -0.036832 0)
(1.04744 -0.0432586 0)
(1.04102 -0.0504686 0)
(1.02562 -0.0593329 0)
(1.01015 -0.0683647 0)
(0.982166 -0.0817596 0)
(0.951744 -0.0950881 0)
(0.90808 -0.113792 0)
(0.855099 -0.13127 0)
(0.793151 -0.149123 0)
(0.712269 -0.163755 0)
(0.634408 -0.152403 0)
(0.545694 -0.129935 0)
(0.408221 -0.0981806 0)
(0.267295 -0.0528487 0)
(0.167579 -0.0196358 0)
(0.100774 -0.00480868 0)
(0.0638648 0.00506976 0)
(0.0464131 0.0175476 0)
(0.0444108 0.0319875 0)
(0.0558585 0.0449257 0)
(0.0771435 0.0533676 0)
(0.105403 0.0567897 0)
(0.138806 0.0556725 0)
(0.175192 0.0513554 0)
(0.211391 0.0451355 0)
(0.244803 0.038597 0)
(0.27442 0.0331784 0)
(0.300919 0.0295942 0)
(0.325921 0.0275542 0)
(0.350664 0.025967 0)
(0.375259 0.0236763 0)
(0.398773 0.020122 0)
(0.419789 0.0155299 0)
(0.437081 0.0106185 0)
(0.450081 0.00618316 0)
(0.458921 0.00273229 0)
(0.464277 0.000426766 0)
(0.467009 -0.000927365 0)
(0.467916 -0.00149489 0)
(0.467854 -0.00162918 0)
(0.467146 -0.00140845 0)
(0.466586 -0.00122991 0)
(0.465465 -0.000765073 0)
(0.88059 -0.0238768 0)
(0.847728 -0.0270971 0)
(0.814717 -0.0276486 0)
(0.775394 -0.0321923 0)
(0.730998 -0.0332415 0)
(0.682842 -0.0389884 0)
(0.620796 -0.0428511 0)
(0.559178 -0.049589 0)
(0.472325 -0.0600474 0)
(0.386488 -0.064177 0)
(0.27189 -0.0860558 0)
(0.132182 -0.0692475 0)
(0.0326586 -0.00713938 0)
(-0.0264888 0.0382027 0)
(-0.0546068 0.052673 0)
(-0.0666721 0.0313797 0)
(-0.0754885 -0.00192162 0)
(-0.0880047 -0.0202463 0)
(-0.100694 -0.023068 0)
(-0.105598 -0.017137 0)
(-0.099854 -0.00727085 0)
(-0.0833494 0.00142516 0)
(-0.0581083 0.00701544 0)
(-0.0277986 0.00945912 0)
(0.00421585 0.00989915 0)
(0.0351174 0.0091946 0)
(0.0629778 0.00794314 0)
(0.0871061 0.0066182 0)
(0.107712 0.00548147 0)
(0.125661 0.00464361 0)
(0.141943 0.00401537 0)
(0.157134 0.00340433 0)
(0.171159 0.00270203 0)
(0.183423 0.00190853 0)
(0.193254 0.001119 0)
(0.200306 0.000456251 0)
(0.204694 -8.13358e-06 0)
(0.206882 -0.000274711 0)
(0.207489 -0.000385499 0)
(0.207141 -0.00043278 0)
(0.206352 -0.00040955 0)
(0.205416 -0.000348414 0)
(0.204514 -0.000266731 0)
(0.203813 -0.000201163 0)
(0.203007 -0.000114311 0)
(0.00498449 -0.0327802 0)
(0.00615758 -0.0307825 0)
(-0.0091411 -0.00782421 0)
(-0.0579443 0.0272408 0)
(-0.137778 0.0450204 0)
(-0.217943 0.0450755 0)
(-0.284999 0.0384793 0)
(-0.335581 0.0301818 0)
(-0.366329 0.0211326 0)
(-0.377666 0.011483 0)
(-0.371111 0.000912707 0)
(-0.346745 -0.00929751 0)
(-0.306338 -0.0184919 0)
(-0.252449 -0.0256091 0)
(-0.188722 -0.0304877 0)
(-0.119447 -0.0322757 0)
(-0.0485459 -0.0322023 0)
(0.0209704 -0.0304405 0)
(0.0865287 -0.0268719 0)
(0.145286 -0.0223642 0)
(0.195246 -0.0173271 0)
(0.235796 -0.0122491 0)
(0.267255 -0.00730583 0)
(0.289573 -0.00133748 0)
(0.301492 0.00738626 0)
(0.302019 0.017764 0)
(0.291275 0.0241815 0)
(0.271812 0.0222038 0)
(0.247953 0.0143486 0)
(0.224439 0.00581389 0)
(0.204577 3.41924e-05 0)
(0.190038 -0.00244918 0)
(0.18106 -0.00295833 0)
(0.176962 -0.002799 0)
(0.176594 -0.00260318 0)
(0.178722 -0.00244645 0)
(0.182163 -0.00218605 0)
(0.18604 -0.00184943 0)
(0.189739 -0.00147994 0)
(0.19294 -0.00112274 0)
(0.195511 -0.000810278 0)
(0.19748 -0.000565466 0)
(0.198943 -0.000375291 0)
(0.199926 -0.000252654 0)
(0.200891 -0.000134081 0)
(-0.00581484 0.0237978 0)
(-0.043147 0.0478164 0)
(-0.101402 0.0783223 0)
(-0.150499 0.102325 0)
(-0.196085 0.106881 0)
(-0.227584 0.0954892 0)
(-0.249436 0.0743215 0)
(-0.257304 0.049863 0)
(-0.252013 0.0224034 0)
(-0.233975 -0.00545156 0)
(-0.201663 -0.0332695 0)
(-0.156364 -0.0590702 0)
(-0.09819 -0.081452 0)
(-0.0305534 -0.0984782 0)
(0.0447916 -0.108925 0)
(0.123531 -0.11313 0)
(0.200354 -0.111911 0)
(0.273636 -0.106228 0)
(0.341391 -0.0968126 0)
(0.401212 -0.0843679 0)
(0.451594 -0.0702732 0)
(0.491398 -0.056342 0)
(0.521349 -0.04295 0)
(0.542865 -0.0299736 0)
(0.557014 -0.0182005 0)
(0.566056 -0.00691474 0)
(0.571767 0.00591596 0)
(0.575826 0.0200773 0)
(0.576226 0.0325495 0)
(0.567609 0.0386361 0)
(0.547954 0.0359368 0)
(0.52127 0.0269157 0)
(0.494391 0.0161257 0)
(0.472601 0.0068394 0)
(0.457914 0.000211477 0)
(0.450097 -0.00383191 0)
(0.447433 -0.00575826 0)
(0.447889 -0.0061628 0)
(0.449899 -0.00566766 0)
(0.452429 -0.00477566 0)
(0.454928 -0.00374742 0)
(0.457032 -0.00285494 0)
(0.458891 -0.00201711 0)
(0.460033 -0.00151426 0)
(0.461525 -0.000866559 0)
(-0.0312054 0.00640256 0)
(-0.0609604 0.0584299 0)
(-0.0624836 0.0868069 0)
(-0.0564864 0.108578 0)
(-0.0434758 0.112145 0)
(-0.0241626 0.0955441 0)
(-0.00279226 0.0666972 0)
(0.0205258 0.0339282 0)
(0.051642 -0.000239718 0)
(0.0910697 -0.0368698 0)
(0.141246 -0.075208 0)
(0.198223 -0.111663 0)
(0.261619 -0.143882 0)
(0.328895 -0.168542 0)
(0.396836 -0.182509 0)
(0.462887 -0.187524 0)
(0.525213 -0.18384 0)
(0.582676 -0.17219 0)
(0.632808 -0.155157 0)
(0.673857 -0.133944 0)
(0.706183 -0.10859 0)
(0.729544 -0.0826441 0)
(0.743465 -0.0605905 0)
(0.749526 -0.0408462 0)
(0.74988 -0.0196101 0)
(0.744634 0.000587023 0)
(0.734838 0.0136567 0)
(0.725146 0.0205256 0)
(0.719423 0.0271811 0)
(0.716114 0.0370519 0)
(0.709705 0.0470308 0)
(0.695893 0.0507883 0)
(0.674773 0.0454634 0)
(0.650227 0.033447 0)
(0.627041 0.0195931 0)
(0.608303 0.00787679 0)
(0.594928 -7.73072e-05 0)
(0.586381 -0.00444715 0)
(0.581493 -0.00608952 0)
(0.579062 -0.00618854 0)
(0.578199 -0.00543038 0)
(0.57808 -0.00455414 0)
(0.578552 -0.00343254 0)
(0.578882 -0.00278706 0)
(0.579756 -0.00170599 0)
(-0.0245945 0.139304 0)
(-0.00885568 0.0972969 0)
(0.0205887 0.0915105 0)
(0.0651187 0.0942773 0)
(0.117433 0.0892497 0)
(0.173982 0.070825 0)
(0.23146 0.0422766 0)
(0.286918 0.00415054 0)
(0.343923 -0.0398246 0)
(0.403964 -0.0860289 0)
(0.465957 -0.131232 0)
(0.527895 -0.172347 0)
(0.589009 -0.20812 0)
(0.647679 -0.232984 0)
(0.703117 -0.245284 0)
(0.752502 -0.247573 0)
(0.7937 -0.238784 0)
(0.82782 -0.219756 0)
(0.855342 -0.193318 0)
(0.874516 -0.161821 0)
(0.885257 -0.128084 0)
(0.889218 -0.0938197 0)
(0.886822 -0.0618073 0)
(0.878443 -0.0356156 0)
(0.866395 -0.0129217 0)
(0.851771 0.00804281 0)
(0.834237 0.0238918 0)
(0.815464 0.0323429 0)
(0.798705 0.0373527 0)
(0.786171 0.0446857 0)
(0.776296 0.0550817 0)
(0.765241 0.0633941 0)
(0.750337 0.064301 0)
(0.731179 0.0566837 0)
(0.709356 0.0434965 0)
(0.687527 0.0290293 0)
(0.668067 0.0166246 0)
(0.652356 0.007592 0)
(0.640674 0.00195837 0)
(0.632503 -0.0011859 0)
(0.627177 -0.00252965 0)
(0.623911 -0.00302308 0)
(0.622118 -0.00271485 0)
(0.621183 -0.00254701 0)
(0.620778 -0.00173247 0)
(0.0821061 0.00126255 0)
(0.118097 -0.00593876 0)
(0.207729 -0.00523363 0)
(0.281074 -0.0055913 0)
(0.355815 -0.0121979 0)
(0.434834 -0.029392 0)
(0.51211 -0.0541117 0)
(0.585716 -0.0864352 0)
(0.65614 -0.123674 0)
(0.722753 -0.164694 0)
(0.783431 -0.20602 0)
(0.838018 -0.240233 0)
(0.885398 -0.268733 0)
(0.922798 -0.287415 0)
(0.950274 -0.290841 0)
(0.968052 -0.284953 0)
(0.97784 -0.26904 0)
(0.979895 -0.241038 0)
(0.975852 -0.20736 0)
(0.968283 -0.169741 0)
(0.95479 -0.127225 0)
(0.936579 -0.0858578 0)
(0.91607 -0.0507137 0)
(0.894271 -0.0203994 0)
(0.872278 0.00738412 0)
(0.848893 0.0316232 0)
(0.825485 0.0484903 0)
(0.804382 0.0556617 0)
(0.786157 0.0569306 0)
(0.77081 0.059324 0)
(0.758361 0.0659514 0)
(0.747761 0.0737971 0)
(0.737015 0.0772932 0)
(0.724477 0.0732783 0)
(0.709873 0.0627436 0)
(0.694144 0.0489291 0)
(0.678782 0.035071 0)
(0.665171 0.0231251 0)
(0.654135 0.0139261 0)
(0.645855 0.00734029 0)
(0.640092 0.00314132 0)
(0.636342 0.000513631 0)
(0.633984 -0.000684512 0)
(0.63271 -0.0013805 0)
(0.631814 -0.00126654 0)
)
;

boundaryField
{
    inlet
    {
        type            fixedValue;
        value           uniform (1 0 0);
    }
    outlet
    {
        type            zeroGradient;
    }
    upperWall
    {
        type            noSlip;
    }
    lowerWall
    {
        type            noSlip;
    }
    frontAndBack
    {
        type            empty;
    }
}


// ************************************************************************* //
