/*--------------------------------*- C++ -*----------------------------------*\
  =========                 |
  \\      /  F ield         | OpenFOAM: The Open Source CFD Toolbox
   \\    /   O peration     | Website:  https://openfoam.org
    \\  /    A nd           | Version:  10
     \\/     M anipulation  |
\*---------------------------------------------------------------------------*/
FoamFile
{
    format      ascii;
    class       surfaceScalarField;
    location    "5.35";
    object      phi;
}
// * * * * * * * * * * * * * * * * * * * * * * * * * * * * * * * * * * * * * //

dimensions      [0 3 -1 0 0 0 0];

internalField   nonuniform List<scalar> 
22800
(
-2.18607e-06
2.59888e-06
-4.08919e-07
-7.26622e-06
5.0663e-06
1.38539e-08
-1.32357e-05
5.76151e-06
2.07993e-07
-1.94274e-05
5.88882e-06
3.02897e-07
-2.55807e-05
5.84696e-06
3.06252e-07
-3.15618e-05
5.73116e-06
2.4999e-07
-3.7244e-05
5.53334e-06
1.48844e-07
-4.24594e-05
5.21882e-06
-3.3715e-09
-4.7023e-05
4.74215e-06
-1.78547e-07
-5.06778e-05
4.06652e-06
-4.1173e-07
-5.31319e-05
3.15379e-06
-6.9975e-07
-5.40616e-05
1.97575e-06
-1.04602e-06
-5.31412e-05
5.30497e-07
-1.45086e-06
-5.00685e-05
-1.19793e-06
-1.87487e-06
-4.4667e-05
-3.09902e-06
-2.30238e-06
-3.69346e-05
-5.04856e-06
-2.68389e-06
-2.71809e-05
-6.81642e-06
-2.93732e-06
-1.62264e-05
-8.00795e-06
-2.94645e-06
-5.7244e-06
-7.87478e-06
-2.62726e-06
-4.41064e-06
-1.31376e-06
-4.56392e-06
8.45841e-06
-1.29562e-06
-1.33042e-05
1.47609e-05
-9.54334e-07
-2.32716e-05
1.64925e-05
-7.63617e-07
-3.34757e-05
1.67001e-05
-6.07135e-07
-4.34926e-05
1.63954e-05
-5.31541e-07
-5.30777e-05
1.58246e-05
-5.08279e-07
-6.20081e-05
1.49878e-05
-5.24072e-07
-7.00287e-05
1.38204e-05
-5.81057e-07
-7.68382e-05
1.22386e-05
-6.87001e-07
-8.20787e-05
1.01558e-05
-8.48732e-07
-8.53351e-05
7.4827e-06
-1.07254e-06
-8.61756e-05
4.17905e-06
-1.36281e-06
-8.41926e-05
2.74276e-07
-1.72676e-06
-7.89521e-05
-4.30983e-06
-2.12867e-06
-7.023e-05
-9.27468e-06
-2.54639e-06
-5.80595e-05
-1.42976e-05
-2.92147e-06
-4.29112e-05
-1.88171e-05
-3.14765e-06
-2.59795e-05
-2.18539e-05
-3.08577e-06
-9.65416e-06
-2.15533e-05
-2.64683e-06
-1.30166e-05
-1.04824e-06
-5.35313e-06
1.55531e-05
-1.74159e-06
-1.53945e-05
2.62716e-05
-1.46936e-06
-2.67508e-05
2.91265e-05
-1.27767e-06
-3.83203e-05
2.93573e-05
-1.08772e-06
-4.96458e-05
2.86917e-05
-9.70753e-07
-6.04663e-05
2.75467e-05
-9.0167e-07
-7.05454e-05
2.59358e-05
-8.68912e-07
-7.9613e-05
2.37672e-05
-8.79166e-07
-8.73479e-05
2.0916e-05
-9.42474e-07
-9.33673e-05
1.72448e-05
-1.06962e-06
-9.72356e-05
1.26221e-05
-1.27104e-06
-9.8454e-05
6.95222e-06
-1.55475e-06
-9.64848e-05
2.30054e-07
-1.925e-06
-9.08425e-05
-7.59506e-06
-2.35704e-06
-8.11908e-05
-1.61002e-05
-2.82626e-06
-6.74705e-05
-2.47542e-05
-3.26368e-06
-5.01329e-05
-3.2616e-05
-3.53866e-06
-3.05079e-05
-3.80003e-05
-3.47863e-06
-1.13945e-05
-3.76877e-05
-2.97892e-06
-2.32848e-05
-1.12631e-06
-5.5911e-06
2.32351e-05
-2.09083e-06
-1.6168e-05
3.87363e-05
-1.88782e-06
-2.81198e-05
4.27801e-05
-1.70183e-06
-4.03058e-05
4.30361e-05
-1.49284e-06
-5.2273e-05
4.20102e-05
-1.35131e-06
-6.37756e-05
4.03045e-05
-1.25522e-06
-7.45935e-05
3.79486e-05
-1.19495e-06
-8.44715e-05
3.48227e-05
-1.17745e-06
-9.30933e-05
3.07561e-05
-1.21829e-06
-0.000100065
2.55514e-05
-1.33488e-06
-0.000104908
1.90063e-05
-1.54124e-06
-0.000107059
1.09545e-05
-1.85158e-06
-0.000105895
1.3497e-06
-2.28342e-06
-0.000100717
-9.96441e-06
-2.80873e-06
-9.09645e-05
-2.24593e-05
-3.39318e-06
-7.63662e-05
-3.53946e-05
-3.95789e-06
-5.72561e-05
-4.73858e-05
-4.34031e-06
-3.50875e-05
-5.58489e-05
-4.31989e-06
-1.31454e-05
-5.58735e-05
-3.75636e-06
-3.49017e-05
-1.52848e-06
-5.70019e-06
3.1328e-05
-2.39279e-06
-1.66658e-05
5.19525e-05
-2.25057e-06
-2.90901e-05
5.72766e-05
-2.07213e-06
-4.18005e-05
5.75985e-05
-1.85204e-06
-5.43571e-05
5.62655e-05
-1.69865e-06
-6.65436e-05
5.40831e-05
-1.59203e-06
-7.81731e-05
5.11032e-05
-1.5251e-06
-8.90211e-05
4.71795e-05
-1.5088e-06
-9.87939e-05
4.20892e-05
-1.5603e-06
-0.000107099
3.55592e-05
-1.70317e-06
-0.00011342
2.72883e-05
-1.96072e-06
-0.000117101
1.69901e-05
-2.35421e-06
-0.000117334
4.48117e-06
-2.89866e-06
-0.000113225
-1.04657e-05
-3.60794e-06
-0.000103821
-2.74487e-05
-4.41394e-06
-8.84818e-05
-4.55106e-05
-5.22355e-06
-6.72632e-05
-6.27785e-05
-5.82592e-06
-4.16789e-05
-7.55214e-05
-5.91172e-06
-1.57486e-05
-7.6547e-05
-5.25684e-06
-4.82504e-05
-2.39992e-06
-5.80676e-06
3.9841e-05
-2.70622e-06
-1.71956e-05
6.59658e-05
-2.62442e-06
-3.0148e-05
7.26846e-05
-2.45566e-06
-4.34501e-05
7.31295e-05
-2.2289e-06
-5.66792e-05
7.15652e-05
-2.07061e-06
-6.96601e-05
6.90272e-05
-1.96317e-06
-8.22554e-05
6.5601e-05
-1.90253e-06
-9.42912e-05
6.11192e-05
-1.90397e-06
-0.000105518
5.53063e-05
-1.99047e-06
-0.000115568
4.77999e-05
-2.19095e-06
-0.000123905
3.81657e-05
-2.53992e-06
-0.000129781
2.59389e-05
-3.07259e-06
-0.000132199
1.07154e-05
-3.81694e-06
-0.000129941
-7.89141e-06
-4.83239e-06
-0.00012151
-2.98713e-05
-6.00814e-06
-0.000105654
-5.41174e-05
-7.2488e-06
-8.1885e-05
-7.82806e-05
-8.26708e-06
-5.1604e-05
-9.71995e-05
-8.6029e-06
-1.98497e-05
-0.000100452
-7.84935e-06
-6.412e-05
-3.98014e-06
-5.93367e-06
4.88492e-05
-3.07447e-06
-1.78173e-05
8.09127e-05
-3.06331e-06
-3.13771e-05
8.91508e-05
-2.90639e-06
-4.53451e-05
8.977e-05
-2.67242e-06
-5.93205e-05
8.80493e-05
-2.50879e-06
-7.31819e-05
8.529e-05
-2.40142e-06
-8.68612e-05
8.1631e-05
-2.35067e-06
-0.000100262
7.68979e-05
-2.37757e-06
-0.000113214
7.07711e-05
-2.51285e-06
-0.000125415
6.27975e-05
-2.79664e-06
-0.000136357
5.23863e-05
-3.27903e-06
-0.000145228
3.88259e-05
-4.01592e-06
-0.000150824
2.13648e-05
-5.05367e-06
-0.000151615
-5.39666e-07
-6.56078e-06
-0.000145274
-2.78692e-05
-8.34269e-06
-0.00012963
-5.94216e-05
-1.03402e-05
-0.000103151
-9.26083e-05
-1.21509e-05
-6.66813e-05
-0.000120603
-1.30661e-05
-2.64982e-05
-0.000128355
-1.22801e-05
-8.37818e-05
-6.83637e-06
-6.08184e-06
5.84589e-05
-3.52791e-06
-1.85352e-05
9.69719e-05
-3.60579e-06
-3.27678e-05
0.000106845
-3.46153e-06
-4.74419e-05
0.000107658
-3.21406e-06
-6.21833e-05
0.000105828
-3.03713e-06
-7.69394e-05
0.000102968
-2.92221e-06
-9.17344e-05
9.9302e-05
-2.87608e-06
-0.000106583
9.46746e-05
-2.92763e-06
-0.000121442
8.87481e-05
-3.11825e-06
-0.000136139
8.09989e-05
-3.50433e-06
-0.000150276
7.06846e-05
-4.16139e-06
-0.000163085
5.68201e-05
-5.18509e-06
-0.000173228
3.82043e-05
-6.69718e-06
-0.000178591
1.3615e-05
-8.79075e-06
-0.000176359
-1.84589e-05
-1.16428e-05
-0.000162641
-5.8167e-05
-1.49731e-05
-0.000134097
-0.000102852
-1.82996e-05
-9.00551e-05
-0.000144109
-2.05357e-05
-3.78437e-05
-0.000160528
-2.0038e-05
-0.000109314
-1.23113e-05
-6.262e-06
6.88188e-05
-4.09788e-06
-1.9368e-05
0.000114369
-4.29141e-06
-3.43204e-05
0.000125955
-4.15802e-06
-4.96937e-05
0.000126915
-3.88315e-06
-6.51454e-05
0.000124955
-3.67532e-06
-8.07077e-05
0.000122065
-3.53441e-06
-9.65207e-05
0.000118591
-3.47634e-06
-0.000112747
0.000114442
-3.5404e-06
-0.000129526
0.000109309
-3.78205e-06
-0.000146902
0.000102655
-4.2801e-06
-0.000164706
9.36365e-05
-5.1472e-06
-0.000182366
8.10194e-05
-6.53994e-06
-0.000198593
6.30954e-05
-8.66338e-06
-0.000210928
3.77037e-05
-1.17537e-05
-0.00021598
2.85017e-06
-1.62574e-05
-0.000207535
-4.47971e-05
-2.18148e-05
-0.0001794
-0.000102986
-2.80015e-05
-0.000127489
-0.000162835
-3.31856e-05
-5.85369e-05
-0.000195316
-3.4164e-05
-0.000143976
-2.38747e-05
-6.51356e-06
8.01594e-05
-4.82708e-06
-2.0387e-05
0.000133414
-5.17166e-06
-3.60965e-05
0.000146707
-5.04266e-06
-5.21097e-05
0.000147643
-4.71498e-06
-6.81249e-05
0.000145415
-4.44457e-06
-8.42743e-05
0.000142458
-4.24377e-06
-0.000100834
0.000139292
-4.1411e-06
-0.000118146
0.000135942
-4.18874e-06
-0.000136586
0.000132208
-4.45957e-06
-0.000156511
0.000127641
-5.06109e-06
-0.000178149
0.000121432
-6.15708e-06
-0.000201378
0.000112243
-7.99548e-06
-0.000225344
9.799e-05
-1.09281e-05
-0.000247838
7.56073e-05
-1.54103e-05
-0.000264058
4.11023e-05
-2.20314e-05
-0.000267329
-1.004e-05
-3.14859e-05
-0.00024599
-8.14038e-05
-4.29217e-05
-0.000189552
-0.000164851
-5.44219e-05
-9.87443e-05
-0.00022566
-6.04638e-05
-0.000193563
-4.91581e-05
-6.93076e-06
9.28722e-05
-5.78203e-06
-2.17617e-05
0.000154569
-6.32376e-06
-3.82718e-05
0.0001694
-6.18259e-06
-5.4812e-05
0.000169941
-5.75838e-06
-7.11391e-05
0.000167114
-5.37238e-06
-8.7503e-05
0.000163877
-5.05505e-06
-0.000104326
0.000160967
-4.85161e-06
-0.00012214
0.000158584
-4.82887e-06
-0.000141583
0.000156731
-5.07888e-06
-0.000163404
0.000155204
-5.74167e-06
-0.000188394
0.000153463
-7.04137e-06
-0.000217201
0.00015039
-9.34048e-06
-0.000249927
0.000143925
-1.32086e-05
-0.000285345
0.00013049
-1.94647e-05
-0.000319543
0.00010445
-2.915e-05
-0.000343779
5.79439e-05
-4.3748e-05
-0.000343148
-1.81474e-05
-6.38874e-05
-0.000293968
-0.000127344
-8.66872e-05
-0.000178425
-0.000236298
-0.000104905
-0.000270149
-0.000101839
-7.70991e-06
0.000107657
-7.07476e-06
-2.38303e-05
0.000178562
-7.87248e-06
-4.12105e-05
0.000194467
-7.68628e-06
-5.81071e-05
0.000193928
-7.0902e-06
-7.43764e-05
0.000189883
-6.49949e-06
-9.04145e-05
0.00018589
-5.97442e-06
-0.000106789
0.000182924
-5.5819e-06
-0.000124192
0.000181389
-5.40169e-06
-0.000143496
0.000181579
-5.5431e-06
-0.000165834
0.000183718
-6.17578e-06
-0.000192658
0.00018787
-7.58411e-06
-0.000225713
0.0001937
-1.02542e-05
-0.000266787
0.000199997
-1.49983e-05
-0.000316947
0.000203704
-2.30536e-05
-0.000375151
0.000198627
-3.59742e-05
-0.000434812
0.000172988
-5.53826e-05
-0.000476401
0.000106467
-8.30243e-05
-0.00045929
-2.84801e-05
-0.000115975
-0.000320598
-0.000228897
-0.000146092
-0.000420955
-0.000169792
-9.24539e-06
0.0001258
-8.89809e-06
-2.72259e-05
0.00020653
-9.98748e-06
-4.55811e-05
0.000222493
-9.67155e-06
-6.2581e-05
0.000219699
-8.77091e-06
-7.82802e-05
0.000213427
-7.84505e-06
-9.32756e-05
0.000207873
-6.98765e-06
-0.00010827
0.000204202
-6.28476e-06
-0.000124028
0.000202967
-5.82012e-06
-0.000141526
0.000204791
-5.71464e-06
-0.000162124
0.000210465
-6.14951e-06
-0.000187791
0.000220971
-7.43284e-06
-0.000221354
0.000237358
-1.00955e-05
-0.000266768
0.000260421
-1.50099e-05
-0.000329063
0.000289334
-2.33342e-05
-0.000413706
0.000319169
-3.58989e-05
-0.000521148
0.000332311
-5.18809e-05
-0.000634182
0.000286419
-6.69183e-05
-0.000679042
8.43139e-05
-6.79347e-05
-0.000530064
-0.000314637
-6.32377e-05
-0.000797807
-0.000153212
-1.24251e-05
0.000149944
-1.17189e-05
-3.31841e-05
0.000240625
-1.33363e-05
-5.25015e-05
0.000254678
-1.28669e-05
-6.9085e-05
0.000247719
-1.1436e-05
-8.3515e-05
0.000237696
-9.8385e-06
-9.66621e-05
0.000229322
-8.30198e-06
-0.000109236
0.000223765
-6.98823e-06
-0.000121941
0.000221685
-6.01317e-06
-0.000135644
0.000223965
-5.46964e-06
-0.000151597
0.00023192
-5.50273e-06
-0.000171853
0.000247596
-6.36786e-06
-0.000199785
0.000273735
-8.44557e-06
-0.000241314
0.000314065
-1.21146e-05
-0.000305828
0.000370553
-1.67051e-05
-0.00040915
0.00043988
-1.73894e-05
-0.00056644
0.00049004
-4.38617e-07
-0.000779323
0.000441
5.83011e-05
-0.000937094
6.96803e-05
0.000172405
-0.000767069
-0.000731014
0.000246352
-0.00154729
-1.75825e-05
-1.78218e-05
0.000183633
-1.58672e-05
-4.25246e-05
0.000282438
-1.71103e-05
-6.30722e-05
0.000291226
-1.60009e-05
-7.93759e-05
0.000277595
-1.35727e-05
-9.20513e-05
0.000261547
-1.11754e-05
-0.000102327
0.000248532
-8.93439e-06
-0.00011112
0.00023954
-6.98227e-06
-0.000119036
0.000235001
-5.40049e-06
-0.000126547
0.000235744
-4.26861e-06
-0.000134194
0.000243234
-3.66663e-06
-0.000143306
0.000260307
-3.59862e-06
-0.000156393
0.000290691
-3.86979e-06
-0.000180491
0.000341456
-3.29324e-06
-0.000229226
0.000415748
3.54008e-06
-0.000338546
0.000515255
3.39452e-05
-0.000557262
0.000584141
0.000124615
-0.000917886
0.000489074
0.000312551
-0.00119038
-0.000196658
0.000538829
-0.000953451
-0.00150728
0.000539336
-0.00249419
-6.556e-06
-3.84667e-05
0.000246069
-2.39692e-05
-6.61832e-05
0.000337361
-2.72062e-05
-8.39308e-05
0.000333847
-2.48734e-05
-9.45278e-05
0.000308967
-2.07752e-05
-0.000101945
0.000285083
-1.61191e-05
-0.000107655
0.000265973
-1.17315e-05
-0.000112061
0.000251869
-7.92366e-06
-0.00011483
0.000242622
-4.85108e-06
-0.000115498
0.000238947
-2.53542e-06
-0.000113069
0.000241707
-9.02173e-07
-0.000107319
0.000254301
2.5615e-07
-9.86403e-05
0.00028004
1.97264e-06
-9.39185e-05
0.000329038
7.6963e-06
-0.000109483
0.000401919
2.93924e-05
-0.000204935
0.00051468
9.60277e-05
-0.000459753
0.000579495
0.000259464
-0.000930586
0.000422732
0.000537175
-0.0012581
-0.000612842
0.000743694
-0.00101369
-0.00225783
0.000506155
-0.00331464
-0.000193238
-3.22603e-05
0.000317696
-3.93668e-05
-7.72569e-05
0.000419309
-3.69518e-05
-0.000103141
0.000391542
-3.1811e-05
-0.00011808
0.000346778
-2.28719e-05
-0.000123436
0.000306252
-1.58119e-05
-0.000122923
0.000274902
-9.44283e-06
-0.000118646
0.000251697
-4.10408e-06
-0.000111097
0.000234998
7.40234e-08
-0.000100088
0.000224529
3.40945e-06
-8.31221e-05
0.000219132
5.60851e-06
-5.80497e-05
0.000222254
6.97457e-06
-2.17195e-05
0.000234269
9.44078e-06
2.46323e-05
0.000265203
1.74832e-05
6.48257e-05
0.000314802
4.69237e-05
5.38016e-05
0.000399929
0.000125775
-0.000125812
0.000453967
0.000305142
-0.000542336
0.000261341
0.000577915
-0.000949937
-0.000885049
0.000679807
-0.000912276
-0.00259612
0.000300628
-0.00381871
-0.000408211
-0.000178829
0.000546847
-5.03217e-05
-0.00018158
0.000481759
-5.96994e-05
-0.000162439
0.000426808
-5.4407e-05
-0.000142218
0.000368645
-4.20875e-05
-0.000115434
0.000306427
-2.69604e-05
-8.6979e-05
0.000259958
-1.35109e-05
-5.86378e-05
0.000226348
-2.99252e-06
-2.93945e-05
0.000200943
4.81147e-06
1.6834e-06
0.000183337
1.01146e-05
3.73128e-05
0.000170214
1.3289e-05
8.10707e-05
0.000164572
1.39235e-05
0.000139228
0.000162435
1.36771e-05
0.000213983
0.000173394
1.70539e-05
0.000307726
0.000188159
3.29006e-05
0.000397267
0.000221912
8.84772e-05
0.0004166
0.000215145
0.000219488
0.000256177
2.85043e-05
0.00039326
-0.000216712
-0.000886677
0.000474517
-0.000524794
-0.0024353
0.00014726
-0.00377123
-0.000572274
-0.000370787
0.0010802
-0.000162563
-0.000263476
0.000487178
-0.00011273
-0.000114213
0.000357829
-8.0283e-05
4.65114e-05
0.000256953
-4.90325e-05
0.000196598
0.000184264
-2.79233e-05
0.000331201
0.000136919
-1.15638e-05
0.000448562
0.000107799
1.18823e-06
0.00055025
8.77447e-05
1.15099e-05
0.000638924
7.55588e-05
1.91047e-05
0.000719731
6.60734e-05
2.33332e-05
0.000796896
6.28653e-05
2.45422e-05
0.000878585
5.9242e-05
2.15037e-05
0.00097196
6.29134e-05
1.71048e-05
0.0010868
5.99625e-05
1.336e-05
0.00123505
5.42679e-05
1.93884e-05
0.00136485
8.58845e-06
7.67626e-05
0.00141799
-0.000149078
0.000124435
0.00102568
-0.000688569
0.000194203
0.000258297
-0.00170913
4.1211e-05
-0.00278228
-0.000730648
0.00122736
-0.000147159
0.00187023
-0.000155698
0.0023797
-0.000151642
0.00277192
-0.000135261
0.00307211
-0.000115925
0.00330829
-9.92624e-05
0.00349937
-8.3284e-05
0.00365659
-6.94796e-05
0.00378918
-5.70273e-05
0.00390101
-4.57517e-05
0.00400104
-3.71674e-05
0.00408991
-2.9629e-05
0.00417596
-2.3133e-05
0.00425713
-2.12122e-05
0.00432277
-1.13697e-05
0.00434273
-1.13758e-05
0.00418277
1.08853e-05
0.00351737
-2.3166e-05
0.00190369
-9.54502e-05
-0.000878594
-3.9989e-06
4.35263e-06
-7.62645e-07
-1.28303e-05
9.33054e-06
-4.85261e-07
-2.30782e-05
1.07546e-05
-2.98665e-07
-3.34692e-05
1.08754e-05
-1.81514e-07
-4.35783e-05
1.05783e-05
-1.62976e-07
-5.31994e-05
1.00903e-05
-2.19126e-07
-6.2131e-05
9.41735e-06
-3.36871e-07
-7.01337e-05
8.51557e-06
-5.16318e-07
-7.68877e-05
7.33661e-06
-7.61114e-07
-8.20431e-05
5.82158e-06
-1.07795e-06
-8.51945e-05
3.9221e-06
-1.47041e-06
-8.59093e-05
1.60638e-06
-1.93765e-06
-8.37603e-05
-1.1276e-06
-2.47225e-06
-7.83708e-05
-4.2196e-06
-3.04471e-06
-6.95182e-05
-7.53883e-06
-3.61616e-06
-5.72252e-05
-1.08552e-05
-4.12168e-06
-4.19305e-05
-1.37687e-05
-4.46334e-06
-2.48284e-05
-1.5531e-05
-4.51757e-06
-8.6827e-06
-1.45938e-05
-4.17909e-06
-7.35726e-06
-2.63921e-06
-9.22531e-06
1.4014e-05
-1.73168e-06
-2.57131e-05
2.6522e-05
-1.65806e-06
-4.42542e-05
2.99889e-05
-1.45691e-06
-6.28334e-05
3.01055e-05
-1.25797e-06
-8.06882e-05
2.90536e-05
-1.15204e-06
-9.7385e-05
2.74018e-05
-1.12301e-06
-0.00011253
2.51989e-05
-1.16112e-06
-0.000125694
2.23697e-05
-1.27087e-06
-0.000136395
1.88125e-05
-1.46171e-06
-0.000144097
1.44191e-05
-1.74446e-06
-0.000148207
9.08676e-06
-2.12675e-06
-0.000148147
2.79259e-06
-2.60972e-06
-0.000143336
-4.46757e-06
-3.19715e-06
-0.000133284
-1.2562e-05
-3.8388e-06
-0.000117748
-2.11299e-05
-4.49064e-06
-9.6857e-05
-2.95986e-05
-5.06937e-06
-7.13426e-05
-3.69862e-05
-5.4445e-06
-4.30521e-05
-4.14479e-05
-5.45937e-06
-1.60988e-05
-3.92201e-05
-4.97388e-06
-2.15856e-05
-2.91876e-06
-1.12014e-05
2.57436e-05
-2.26979e-06
-3.06966e-05
4.68774e-05
-2.32959e-06
-5.24142e-05
5.25583e-05
-2.12944e-06
-7.40574e-05
5.25481e-05
-1.88708e-06
-9.47752e-05
5.05305e-05
-1.72989e-06
-0.000114084
4.74557e-05
-1.64676e-06
-0.000131547
4.34242e-05
-1.63116e-06
-0.000146698
3.8333e-05
-1.69202e-06
-0.000159015
3.20311e-05
-1.84381e-06
-0.000167917
2.43547e-05
-2.10254e-06
-0.000172777
1.51576e-05
-2.48195e-06
-0.000172911
4.36226e-06
-2.9909e-06
-0.000167601
-8.07949e-06
-3.62324e-06
-0.000156268
-2.19052e-05
-4.34632e-06
-0.000138536
-3.65813e-05
-5.10669e-06
-0.00011443
-5.1163e-05
-5.80582e-06
-8.46774e-05
-6.39954e-05
-6.28193e-06
-5.13612e-05
-7.1906e-05
-6.33673e-06
-1.93389e-05
-6.84276e-05
-5.79374e-06
-3.86709e-05
-3.3799e-06
-1.19671e-05
3.83532e-05
-2.73325e-06
-3.28313e-05
6.87771e-05
-2.9233e-06
-5.60254e-05
7.67837e-05
-2.73304e-06
-7.91325e-05
7.66255e-05
-2.4632e-06
-0.000101292
7.36108e-05
-2.27165e-06
-0.000122035
6.90954e-05
-2.15214e-06
-0.000140939
6.32351e-05
-2.10196e-06
-0.000157548
5.58989e-05
-2.13488e-06
-0.00017134
4.68769e-05
-2.27166e-06
-0.000181714
3.59293e-05
-2.53537e-06
-0.000187975
2.28245e-05
-2.94717e-06
-0.000189351
7.41093e-06
-3.52463e-06
-0.000184964
-1.04653e-05
-4.28445e-06
-0.000173939
-3.0561e-05
-5.17802e-06
-0.000155595
-5.21671e-05
-6.15144e-06
-0.000129656
-7.39759e-05
-7.08405e-06
-9.66948e-05
-9.35262e-05
-7.77045e-06
-5.89906e-05
-0.000105984
-7.94596e-06
-2.22545e-05
-0.00010156
-7.35997e-06
-5.80516e-05
-4.40231e-06
-1.24791e-05
5.16126e-05
-3.17308e-06
-3.44138e-05
9.19539e-05
-3.49269e-06
-5.88251e-05
0.000102438
-3.31522e-06
-8.31961e-05
0.000102171
-3.02663e-06
-0.000106677
9.82071e-05
-2.81411e-06
-0.000128836
9.23386e-05
-2.67631e-06
-0.000149294
8.4783e-05
-2.61504e-06
-0.000167633
7.53791e-05
-2.64997e-06
-0.000183354
6.38472e-05
-2.80921e-06
-0.000195844
4.98421e-05
-3.12598e-06
-0.000204341
3.29946e-05
-3.63405e-06
-0.000207909
1.29899e-05
-4.36513e-06
-0.000205455
-1.04778e-05
-5.34022e-06
-0.0001957
-3.73857e-05
-6.53883e-06
-0.000177446
-6.69421e-05
-7.89278e-06
-0.000149863
-9.75279e-05
-9.25429e-06
-0.000113125
-0.000125744
-1.03455e-05
-6.96596e-05
-0.000144585
-1.07767e-05
-2.64447e-05
-0.000139882
-1.01498e-05
-8.06143e-05
-6.28195e-06
-1.30494e-05
6.56059e-05
-3.65017e-06
-3.61861e-05
0.000116578
-4.11126e-06
-6.19834e-05
0.000129729
-3.94897e-06
-8.7806e-05
0.000129409
-3.64456e-06
-0.000112821
0.000124568
-3.41654e-06
-0.000136653
0.000117477
-3.26939e-06
-0.00015899
0.000108429
-3.21063e-06
-0.000179483
9.72351e-05
-3.26746e-06
-0.000197687
8.35382e-05
-3.47786e-06
-0.000213006
6.6859e-05
-3.88837e-06
-0.00022463
4.66297e-05
-4.55115e-06
-0.000231464
2.2272e-05
-5.5207e-06
-0.000232139
-6.7753e-06
-6.84391e-06
-0.000224809
-4.1017e-05
-8.53174e-06
-0.000207508
-7.97412e-05
-1.05096e-05
-0.000178481
-0.000121201
-1.26031e-05
-0.000137086
-0.000160978
-1.44282e-05
-8.56675e-05
-0.000189225
-1.53807e-05
-3.30135e-05
-0.000185628
-1.4757e-05
-0.000108175
-9.43257e-06
-1.37522e-05
8.05005e-05
-4.21683e-06
-3.8331e-05
0.000142939
-4.84636e-06
-6.5771e-05
0.000158963
-4.70069e-06
-9.32905e-05
0.000158632
-4.37599e-06
-0.00012008
0.000152977
-4.12762e-06
-0.000145843
0.000144805
-3.96778e-06
-0.000170365
0.000134512
-3.91186e-06
-0.000193407
0.000121896
-3.99711e-06
-0.00021463
0.000106524
-4.275e-06
-0.000233519
8.77628e-05
-4.81118e-06
-0.000249274
6.47907e-05
-5.68517e-06
-0.000260665
3.66363e-05
-6.98931e-06
-0.000266103
2.43033e-06
-8.8219e-06
-0.000262968
-3.94666e-05
-1.12456e-05
-0.000248263
-8.85736e-05
-1.42152e-05
-0.000218735
-0.000143529
-1.75408e-05
-0.000172161
-0.00019901
-2.06938e-05
-0.000110133
-0.0002416
-2.27194e-05
-4.3736e-05
-0.000242035
-2.22701e-05
-0.000144069
-1.46787e-05
-1.46063e-05
9.64966e-05
-4.91776e-06
-4.08949e-05
0.000171379
-5.75655e-06
-7.02358e-05
0.000190468
-5.62599e-06
-9.96664e-05
0.000190116
-5.26738e-06
-0.00012841
0.000183665
-4.98185e-06
-0.000156272
0.000174537
-4.7923e-06
-0.000183179
0.000163268
-4.72482e-06
-0.000209057
0.000149676
-4.82987e-06
-0.000233749
0.000133275
-5.17685e-06
-0.000256921
0.000113288
-5.85786e-06
-0.00027791
8.86105e-05
-6.99201e-06
-0.000295527
5.7789e-05
-8.72132e-06
-0.000307748
1.91364e-05
-1.11823e-05
-0.000311619
-2.96574e-05
-1.47281e-05
-0.000302558
-9.00164e-05
-1.92616e-05
-0.00027508
-0.000161345
-2.46348e-05
-0.000224088
-0.000238117
-3.01837e-05
-0.000148907
-0.000302893
-3.44224e-05
-6.25208e-05
-0.000313768
-3.46916e-05
-0.000195211
-2.36903e-05
-1.56403e-05
0.000113843
-5.80357e-06
-4.39333e-05
0.000202288
-6.90769e-06
-7.54201e-05
0.000224582
-6.78546e-06
-0.000106918
0.000224097
-6.3668e-06
-0.000137693
0.000216777
-6.0115e-06
-0.000167686
0.000206753
-5.75728e-06
-0.000197007
0.000194757
-5.6445e-06
-0.000225814
0.000180683
-5.74018e-06
-0.000254233
0.000164049
-6.13627e-06
-0.00028225
0.000143985
-6.95986e-06
-0.000309533
0.000119133
-8.3871e-06
-0.000335145
8.75153e-05
-1.06545e-05
-0.000357049
4.6462e-05
-1.40849e-05
-0.000372017
-7.40354e-06
-1.90392e-05
-0.000373839
-7.85707e-05
-2.58816e-05
-0.000354057
-0.000168392
-3.45493e-05
-0.00030282
-0.000272999
-4.43576e-05
-0.000214102
-0.000371685
-5.31112e-05
-9.88223e-05
-0.000407466
-5.57463e-05
-0.000277842
-4.00657e-05
-1.69245e-05
0.000132883
-6.94342e-06
-4.75759e-05
0.000236155
-8.38723e-06
-8.14486e-05
0.00026167
-8.25745e-06
-0.000115098
0.000260766
-7.73408e-06
-0.000147853
0.000252341
-7.25384e-06
-0.00017982
0.000241351
-6.87492e-06
-0.000211342
0.000228794
-6.65619e-06
-0.000242877
0.000214714
-6.68406e-06
-0.000274942
0.00019873
-7.07637e-06
-0.000308022
0.000180006
-8.00191e-06
-0.000342397
0.00015706
-9.70908e-06
-0.000377814
0.000127498
-1.25614e-05
-0.000412885
8.76656e-05
-1.70602e-05
-0.000444387
3.24713e-05
-2.37834e-05
-0.000465641
-4.54653e-05
-3.38827e-05
-0.000465043
-0.000152808
-4.76668e-05
-0.000425899
-0.000290339
-6.47259e-05
-0.000331073
-0.00043869
-8.22424e-05
-0.000176356
-0.000531194
-9.14535e-05
-0.000432186
-7.11702e-05
-1.86054e-05
0.000154148
-8.44133e-06
-5.20892e-05
0.000273637
-1.03218e-05
-8.86029e-05
0.000302154
-1.01528e-05
-0.000124408
0.000300265
-9.45182e-06
-0.00015893
0.000290249
-8.75836e-06
-0.000192482
0.000278007
-8.1591e-06
-0.000225676
0.000264873
-7.73629e-06
-0.000259323
0.000251129
-7.59679e-06
-0.000294419
0.000236631
-7.88356e-06
-0.000332128
0.00022078
-8.80633e-06
-0.000373688
0.000202268
-1.06897e-05
-0.000420141
0.000178654
-1.40434e-05
-0.000471744
0.000145705
-1.96447e-05
-0.000526657
9.65624e-05
-2.86427e-05
-0.000580492
2.17155e-05
-4.24966e-05
-0.000619914
-9.41928e-05
-6.29407e-05
-0.000620718
-0.000262986
-9.04371e-05
-0.000543234
-0.000481427
-0.000121434
-0.000338236
-0.000698445
-0.000142651
-0.000748936
-0.000123325
-2.09661e-05
0.000178502
-1.04623e-05
-5.79692e-05
0.000315673
-1.29058e-05
-9.74156e-05
0.000346555
-1.26413e-05
-0.000135286
0.00034269
-1.16452e-05
-0.00017117
0.000330232
-1.05987e-05
-0.000205643
0.000316136
-9.63115e-06
-0.000239612
0.000302115
-8.85519e-06
-0.000274247
0.000288758
-8.3959e-06
-0.00031105
0.000276304
-8.41368e-06
-0.000351971
0.000264671
-9.14606e-06
-0.000399523
0.000253212
-1.0976e-05
-0.000456786
0.000240203
-1.45416e-05
-0.0005271
0.000221912
-2.08906e-05
-0.000613114
0.000191092
-3.15699e-05
-0.000714338
0.000135396
-4.84305e-05
-0.000824016
3.40051e-05
-7.3902e-05
-0.000907044
-0.000155199
-0.000107784
-0.000876709
-0.00048482
-0.000142917
-0.00059994
-0.000955881
-0.000165424
-0.00135062
-0.000168044
-2.45167e-05
0.00020739
-1.32694e-05
-6.6068e-05
0.000363643
-1.64062e-05
-0.000108808
0.000395548
-1.59238e-05
-0.000148544
0.000388096
-1.44402e-05
-0.000185153
0.000371837
-1.28409e-05
-0.000219564
0.000354863
-1.13031e-05
-0.000252999
0.000339235
-9.96896e-06
-0.000286927
0.00032584
-8.97418e-06
-0.00032323
0.000315375
-8.48184e-06
-0.000364548
0.00030856
-8.72064e-06
-0.000414699
0.000305989
-1.00586e-05
-0.000479213
0.000307737
-1.31154e-05
-0.000565898
0.000312475
-1.88877e-05
-0.000684827
0.000315309
-2.86232e-05
-0.000845592
0.000303038
-4.27748e-05
-0.00104266
0.000237576
-5.83889e-05
-0.00122135
2.10875e-05
-6.45067e-05
-0.00122554
-0.000503698
-4.48746e-05
-0.000842352
-0.00137726
-2.50403e-05
-0.00222903
-0.00011716
-3.05951e-05
0.000243674
-1.74076e-05
-7.82432e-05
0.000419535
-2.15804e-05
-0.000124334
0.000449548
-2.07767e-05
-0.000165165
0.000435995
-1.85035e-05
-0.000201493
0.000414262
-1.59356e-05
-0.000234682
0.000393148
-1.33981e-05
-0.000266085
0.000374767
-1.11173e-05
-0.000297234
0.000360229
-9.25373e-06
-0.000330163
0.00035077
-7.93512e-06
-0.000367824
0.000348036
-7.31682e-06
-0.000414898
0.000354317
-7.6223e-06
-0.000478889
0.000372419
-9.13615e-06
-0.000571745
0.000405204
-1.19877e-05
-0.000709505
0.000451153
-1.47883e-05
-0.000907093
0.000493393
-1.01566e-05
-0.00115303
0.000460289
2.27903e-05
-0.00138032
0.000188317
0.000118355
-0.00138736
-0.00060071
0.000276461
-0.000907347
-0.00192286
0.00031193
-0.00313672
-1.72378e-05
-3.8274e-05
0.00028934
-2.32595e-05
-9.40085e-05
0.000486096
-2.79369e-05
-0.000144938
0.000510787
-2.6311e-05
-0.000187891
0.000488043
-2.26681e-05
-0.000223418
0.000457455
-1.88423e-05
-0.000253703
0.000429605
-1.51058e-05
-0.000280696
0.000406465
-1.16876e-05
-0.00030606
0.000388909
-8.71671e-06
-0.000331505
0.000378211
-6.26531e-06
-0.000359337
0.000376552
-4.35053e-06
-0.00039373
0.000387933
-2.82175e-06
-0.000441785
0.000417665
-1.0603e-06
-0.000516447
0.000473493
3.07819e-06
-0.000634694
0.000555519
1.74214e-05
-0.000814775
0.000642861
6.45578e-05
-0.00104675
0.000626105
0.000190779
-0.00129363
0.00030883
0.000438915
-0.00132356
-0.000717429
0.000685474
-0.000833872
-0.00240364
0.000530431
-0.0038996
-7.75486e-05
-7.1248e-05
0.000369722
-3.31036e-05
-0.000133492
0.000561419
-4.02851e-05
-0.000180696
0.000570515
-3.73968e-05
-0.000216264
0.000534668
-3.18317e-05
-0.000245724
0.000496207
-2.54115e-05
-0.000271013
0.000462243
-1.90797e-05
-0.000292985
0.000433794
-1.32818e-05
-0.000311915
0.000411225
-8.23628e-06
-0.000328225
0.00039594
-3.95417e-06
-0.000342375
0.000390064
-2.6516e-07
-0.000356196
0.000398671
3.33944e-06
-0.000373028
0.000427661
8.80774e-06
-0.000402553
0.000489297
2.14175e-05
-0.000455433
0.0005816
5.61908e-05
-0.000559329
0.000694659
0.000148125
-0.000712395
0.000685049
0.000353586
-0.000931112
0.000381304
0.000683418
-0.0010022
-0.000763863
0.000861219
-0.000633817
-0.00267077
0.000404902
-0.00446002
-0.000266633
-5.12821e-05
0.000431876
-5.02385e-05
-0.000144455
0.000672969
-5.53296e-05
-0.000212484
0.000655663
-4.89304e-05
-0.00025841
0.000595986
-3.82637e-05
-0.000288049
0.000538595
-2.85602e-05
-0.000306384
0.000490437
-1.9302e-05
-0.000316763
0.000451081
-1.10114e-05
-0.000320728
0.000419088
-3.82372e-06
-0.000318576
0.000395058
2.13847e-06
-0.000308775
0.000378749
7.12308e-06
-0.000290424
0.000375165
1.21307e-05
-0.000259602
0.000386518
1.97608e-05
-0.000217431
0.000427957
3.66526e-05
-0.000162351
0.000493534
7.99088e-05
-0.000117338
0.00059227
0.000183151
-0.00012603
0.000606891
0.000391993
-0.000220524
0.000366422
0.000687291
-0.00036769
-0.000673382
0.000736492
-0.000231201
-0.00269127
0.000184636
-0.0046778
-0.000421636
-0.000196572
0.000638635
-6.05086e-05
-0.000241278
0.000734198
-7.62216e-05
-0.000278639
0.000710724
-7.21062e-05
-0.000307949
0.000641619
-5.84107e-05
-0.000313362
0.000558588
-4.15414e-05
-0.000301679
0.000490828
-2.55853e-05
-0.000278695
0.000436903
-1.17989e-05
-0.000246049
0.000391718
-4.64467e-07
-0.00020626
0.000357451
7.93225e-06
-0.000156788
0.000328197
1.43691e-05
-9.79131e-05
0.000311181
1.9033e-05
-2.25228e-05
0.000300482
2.4323e-05
7.63851e-05
0.000310925
3.5178e-05
0.000205316
0.000334162
6.33416e-05
0.000376348
0.000378281
0.000131433
0.000548332
0.000379363
0.000275031
0.000714736
0.000161127
0.000432151
0.000619008
-0.00057522
0.000472083
0.000418402
-0.00241069
6.72878e-05
-0.00432598
-0.000505684
-0.000665639
0.00129154
-0.000149833
-0.000628112
0.000714676
-0.000130735
-0.00049287
0.000596609
-0.000101411
-0.000304647
0.000478412
-7.40477e-05
-0.000107561
0.000386401
-5.2822e-05
8.61338e-05
0.00031938
-3.38111e-05
0.000269196
0.000272265
-1.72367e-05
0.00044075
0.000234703
-3.02867e-06
0.000600928
0.000208194
8.18373e-06
0.000751456
0.000184426
1.65765e-05
0.000895489
0.000169752
2.19378e-05
0.00103668
0.000157056
2.37354e-05
0.00118822
0.000151654
2.48418e-05
0.0013562
0.000151387
2.8155e-05
0.00158135
0.000136754
3.57627e-05
0.00183347
0.000105858
9.81509e-05
0.0020729
-7.87027e-05
0.000124834
0.00207434
-0.000518827
0.000136364
0.00140375
-0.00170113
2.24748e-06
-0.00310828
-0.000544604
0.00127075
-0.000126363
0.00197355
-0.000143821
0.00256406
-0.00014555
0.00304476
-0.000137549
0.00344065
-0.000125407
0.00377361
-0.00011284
0.00406254
-9.99523e-05
0.00431469
-8.6927e-05
0.00454076
-7.49043e-05
0.00474218
-6.27426e-05
0.00492651
-5.17515e-05
0.00509723
-4.32893e-05
0.00525784
-3.20916e-05
0.00541844
-3.04247e-05
0.00555998
-1.6151e-05
0.00567704
-2.25795e-05
0.00560612
3.10507e-06
0.00511401
-4.98915e-05
0.00340662
-8.9188e-05
-0.000580249
-4.52427e-06
4.68562e-06
-9.24003e-07
-1.45372e-05
1.04833e-05
-9.55589e-07
-2.61303e-05
1.21482e-05
-8.53798e-07
-3.78061e-05
1.22552e-05
-7.6091e-07
-4.90861e-05
1.18528e-05
-7.35771e-07
-5.97487e-05
1.12179e-05
-7.74457e-07
-6.95758e-05
1.0364e-05
-8.73733e-07
-7.83005e-05
9.24517e-06