/*--------------------------------*- C++ -*----------------------------------*\
  =========                 |
  \\      /  F ield         | OpenFOAM: The Open Source CFD Toolbox
   \\    /   O peration     | Website:  https://openfoam.org
    \\  /    A nd           | Version:  10
     \\/     M anipulation  |
\*---------------------------------------------------------------------------*/
FoamFile
{
    format      ascii;
    class       volScalarField;
    location    "5.55";
    object      p;
}
// * * * * * * * * * * * * * * * * * * * * * * * * * * * * * * * * * * * * * //

dimensions      [0 2 -2 0 0 0 0];

internalField   nonuniform List<scalar> 
400
(
1.0534e-09
-2.15816e-05
1.71738e-05
9.3569e-05
0.000213798
0.000379014
0.000590725
0.000850455
0.00115893
0.00151533
0.00191644
0.00235567
0.00282206
0.00329942
0.00376586
0.0041945
0.00455479
0.00481609
0.00497074
0.00495936
2.25446e-05
2.26994e-07
4.25457e-05
0.000118472
0.000235776
0.00039634
0.000602162
0.000855158
0.00115643
0.00150561
0.00190003
0.00233355
0.00279574
0.00327148
0.00373905
0.00417137
0.00453696
0.00480449
0.00496772
0.00495395
-2.12719e-05
-4.98796e-05
-9.1858e-06
6.35535e-05
0.000176932
0.000333109
0.000534608
0.00078412
0.0010837
0.0014341
0.00183388
0.00227845
0.00275906
0.00326012
0.00375925
0.00422695
0.00462726
0.00492216
0.0051031
0.00508009
-0.000112055
-0.000145329
-0.000107222
-3.90539e-05
6.8701e-05
0.000218645
0.000414124
0.000658994
0.000956821
0.0013102
0.0017198
0.0021831
0.00269306
0.00323616
0.00378897
0.0043182
0.00477988
0.0051243
0.00533799
0.00530789
-0.000255472
-0.000293285
-0.000258994
-0.000196989
-9.67397e-05
4.49268e-05
0.000232403
0.000471056
0.000766474
0.00112384
0.0015469
0.00203651
0.00258861
0.00319217
0.00382353
0.00444504
0.00500248
0.00542702
0.00569452
0.00565757
-0.000451003
-0.000493959
-0.000464836
-0.00041101
-0.00032093
-0.000190804
-1.50506e-05
0.000213467
0.0005028
0.000861466
0.00129748
0.0018166
0.00241977
0.00310143
0.00383936
0.0045919
0.00529144
0.00584164
0.00619582
0.00615282
-0.000697371
-0.000746474
-0.000724076
-0.000681042
-0.000604828
-0.000491096
-0.00033308
-0.000121761
0.000153696
0.000505808
0.000948152
0.00149348
0.00214989
0.00292327
0.00379584
0.00472594
0.0056313
0.00637849
0.00687477
0.00683325
-0.000993167
-0.00104968
-0.00103578
-0.00100671
-0.000949068
-0.000858231
-0.000726484
-0.000543102
-0.000294464
3.63022e-05
0.000469381
0.00102746
0.00173332
0.00259541
0.0036235
0.00478217
0.0059787
0.00703507
0.00777442
0.00776549
-0.00133658
-0.00140191
-0.00139825
-0.00138659
-0.00135295
-0.0012929
-0.00119838
-0.00105755
-0.000854618
-0.000568782
-0.000173355
0.000364772
0.0010832
0.00201727
0.00320308
0.00463219
0.00622508
0.00776826
0.00894262
0.00907098
-0.00172535
-0.00180089
-0.00180877
-0.00181768
-0.00181354
-0.00179289
-0.00174827
-0.00166802
-0.0015356
-0.00132794
-0.00101338
-0.000548925
0.000122065
0.00106858
0.00234728
0.00402904
0.00610591
0.00839846
0.0103698
0.0109551
-0.00215707
-0.00224401
-0.00226348
-0.00229495
-0.00232485
-0.0023517
-0.00237002
-0.00237005
-0.00233715
-0.00224975
-0.00207614
-0.00176999
-0.0012647
-0.00046864
0.000730552
0.00246121
0.00494668
0.00827413
0.0117307
0.0132948
-0.00262999
-0.00272892
-0.00275748
-0.00281091
-0.00287692
-0.00295714
-0.00304964
-0.00314872
-0.00324493
-0.00332336
-0.00336111
-0.0033235
-0.00315686
-0.00277807
-0.00207047
-0.000862107
0.00130295
0.00541092
0.0109188
0.0146663
-0.00314492
-0.00325555
-0.00328678
-0.0033574
-0.00345661
-0.00359087
-0.00376371
-0.00397552
-0.0042258
-0.00451314
-0.00483499
-0.00518868
-0.00557431
-0.00601307
-0.00661057
-0.00746439
-0.00788636
-0.00484879
0.0019939
0.00995555
-0.00370342
-0.00381692
-0.0038328
-0.00390799
-0.0040336
-0.00421951
-0.00447263
-0.00480111
-0.00521607
-0.00573424
-0.00638397
-0.0072176
-0.00834104
-0.00997934
-0.0126978
-0.0171201
-0.0230545
-0.0229101
-0.0157805
-0.00237908
-0.00433935
-0.00446788
-0.00445447
-0.00452448
-0.0046525
-0.0048621
-0.00516928
-0.00559192
-0.00615402
-0.00689269
-0.00787125
-0.00920248
-0.0111246
-0.0140623
-0.019082
-0.0272205
-0.0392934
-0.0429376
-0.0366718
-0.0181065
-0.00513224
-0.00506373
-0.00494347
-0.00492832
-0.00504161
-0.00528773
-0.00566847
-0.00619395
-0.00688981
-0.00780234
-0.00901736
-0.0106851
-0.0131442
-0.0168372
-0.0233167
-0.0329073
-0.0478985
-0.0533929
-0.0484803
-0.0246558
-0.00562379
-0.00605926
-0.00579749
-0.00583921
-0.00587143
-0.00603457
-0.00634582
-0.00683352
-0.00753049
-0.00847915
-0.00976647
-0.0115142
-0.0141185
-0.0178292
-0.0243967
-0.0334569
-0.0466889
-0.0509744
-0.0443209
-0.0108274
-0.00897992
-0.00647065
-0.00589128
-0.00537891
-0.00537163
-0.00562564
-0.00608629
-0.00671368
-0.00752456
-0.00854034
-0.00986199
-0.0115546
-0.013936
-0.0173247
-0.022729
-0.0293706
-0.03769
-0.037717
-0.0250954
0.0247202
-0.00574585
-0.00872776
-0.00773511
-0.00781988
-0.00745564
-0.00730884
-0.00736219
-0.00764354
-0.00819216
-0.00898751
-0.0101081
-0.0115783
-0.0138033
-0.016771
-0.0217732
-0.026933
-0.0326459
-0.0228326
0.00531755
0.0869226
-0.0308284
-0.00583912
-0.00445503
-0.0037734
-0.00364435
-0.00394772
-0.00458963
-0.00534909
-0.00630388
-0.00740681
-0.00884752
-0.010561
-0.0129933
-0.0157039
-0.0189256
-0.0193396
-0.0137661
0.0172889
0.0879135
0.224587
)
;

boundaryField
{
    movingWall
    {
        type            zeroGradient;
    }
    fixedWalls
    {
        type            zeroGradient;
    }
    frontAndBack
    {
        type            empty;
    }
}


// ************************************************************************* //
