/*--------------------------------*- C++ -*----------------------------------*\
  =========                 |
  \\      /  F ield         | OpenFOAM: The Open Source CFD Toolbox
   \\    /   O peration     | Website:  https://openfoam.org
    \\  /    A nd           | Version:  10
     \\/     M anipulation  |
\*---------------------------------------------------------------------------*/
FoamFile
{
    format      ascii;
    class       volScalarField;
    location    "6";
    object      p;
}
// * * * * * * * * * * * * * * * * * * * * * * * * * * * * * * * * * * * * * //

dimensions      [0 2 -2 0 0 0 0];

internalField   nonuniform List<scalar> 
400
(
4.26245e-09
-2.06983e-05
2.27733e-05
0.000107443
0.000239567
0.000420533
0.000652212
0.000936593
0.00127487
0.00166663
0.00210891
0.00259497
0.00311309
0.00364547
0.00416745
0.00464824
0.00505253
0.00534486
0.00551647
0.0055024
2.14322e-05
1.71575e-07
4.78165e-05
0.00013245
0.000261918
0.000438371
0.000664187
0.000941738
0.00127258
0.00165677
0.0020919
0.00257181
0.00308525
0.00361579
0.00413897
0.00462383
0.00503396
0.00533294
0.00551365
0.005496
-2.80515e-05
-5.59156e-05
-9.89028e-06
7.13944e-05
0.000196617
0.000368221
0.000589141
0.000862584
0.00119118
0.00157624
0.00201681
0.00250839
0.00304199
0.00360076
0.00415954
0.00468449
0.00513381
0.00546304
0.00566248
0.00563189
-0.000129423
-0.000162121
-0.000118831
-4.24864e-05
7.65225e-05
0.000241099
0.000455047
0.000722823
0.00104872
0.00143616
0.00188659
0.00239807
0.00296356
0.00356884
0.00418782
0.00478243
0.00530128
0.00568542
0.00591979
0.00587579
-0.000288484
-0.000325767
-0.000286644
-0.000217102
-0.000106544
4.85218e-05
0.000252996
0.000512948
0.000834875
0.0012251
0.00168865
0.00222755
0.00283841
0.00351028
0.00421714
0.00491606
0.00554338
0.00601684
0.00630909
0.00624643
-0.000504565
-0.000546941
-0.000513529
-0.000453086
-0.000354047
-0.000212294
-2.1709e-05
0.000225626
0.000538848
0.000927953
0.00140289
0.00197152
0.00263622
0.00339269
0.00421771
0.0050646
0.00585359
0.00646839
0.00685536
0.00676397
-0.000775913
-0.000824337
-0.00079838
-0.000749948
-0.000666585
-0.000543659
-0.000373896
-0.000147494
0.000147554
0.0005255
0.00100243
0.00159465
0.00231549
0.00316589
0.00413781
0.00518433
0.00620849
0.00704734
0.00759417
0.00746079
-0.00110045
-0.00115616
-0.0011396
-0.00110665
-0.00104416
-0.000947299
-0.000807993
-0.000614879
-0.000353272
-4.58009e-06
0.00045405
0.0010494
0.00180899
0.00275316
0.00388832
0.00518711
0.00654433
0.00774071
0.00857218
0.0083911
-0.00147551
-0.00153986
-0.0015346
-0.00152083
-0.00148504
-0.00142284
-0.00132608
-0.0011827
-0.000976302
-0.000684866
-0.00027937
0.000277584
0.00103144
0.00203156
0.00331028
0.00489263
0.00669829
0.00847152
0.00982477
0.00966323
-0.00189776
-0.00197211
-0.0019795
-0.00198817
-0.00198485
-0.00196636
-0.00192569
-0.00185164
-0.00172815
-0.00153224
-0.0012315
-0.000781016
-0.00011931
0.000830066
0.00214797
0.00395196
0.00626115
0.00892565
0.0112283
0.0113711
-0.0023635
-0.002449
-0.002469
-0.00250196
-0.00253553
-0.0025689
-0.0025977
-0.00261367
-0.00260414
-0.00255012
-0.00242333
-0.00218123
-0.00175979
-0.00106648
2.31988e-05
0.00161192
0.00416597
0.00793432
0.0118875
0.013197
-0.00286959
-0.00296675
-0.00299644
-0.00305256
-0.00312444
-0.00321484
-0.00332369
-0.00344806
-0.00358256
-0.00371828
-0.00384148
-0.00393214
-0.00396203
-0.00389683
-0.00371456
-0.0032962
-0.00203372
0.00201581
0.00813184
0.0124603
-0.00341545
-0.00352404
-0.00355668
-0.00363035
-0.00373624
-0.00388251
-0.00407529
-0.00431907
-0.00461975
-0.00498608
-0.00543251
-0.00598612
-0.00670455
-0.00773294
-0.00943903
-0.0121197
-0.0147175
-0.0120739
-0.00466192
0.00467443
-0.00400058
-0.0041117
-0.00412796
-0.00420486
-0.00433568
-0.00453249
-0.00480519
-0.00516695
-0.00563683
-0.00624511
-0.00704446
-0.00813333
-0.00970949
-0.0121577
-0.0164391
-0.0232611
-0.0322616
-0.0323286
-0.0245685
-0.00959418
-0.00465803
-0.00478321
-0.00476789
-0.00483653
-0.00496604
-0.00518247
-0.00550443
-0.00595431
-0.00656374
-0.00738289
-0.00849851
-0.0100639
-0.0124115
-0.016063
-0.0224788
-0.0322396
-0.0461321
-0.0489463
-0.0419912
-0.0232204
-0.00546775
-0.00539761
-0.00527232
-0.00525103
-0.00535949
-0.00560348
-0.0059875
-0.00652514
-0.00724768
-0.00821079
-0.00951662
-0.0113321
-0.0140789
-0.0180845
-0.0253113
-0.0351
-0.050225
-0.0528405
-0.0470603
-0.0245329
-0.00596202
-0.00639717
-0.00612471
-0.00615545
-0.00617324
-0.00632304
-0.00662221
-0.007102
-0.00779825
-0.00875913
-0.0100846
-0.0118945
-0.0147193
-0.0182171
-0.0249179
-0.0333956
-0.0441463
-0.0457171
-0.0385528
-0.00754244
-0.00933042
-0.00682272
-0.00622576
-0.00569014
-0.00566135
-0.00589069
-0.00632313
-0.00692325
-0.00770702
-0.00869756
-0.0100075
-0.0116562
-0.0140962
-0.0173135
-0.0223852
-0.0279738
-0.0340504
-0.031766
-0.0189025
0.0284752
-0.00607466
-0.0090734
-0.00805852
-0.00812239
-0.00772864
-0.00754805
-0.00755955
-0.00780041
-0.00830093
-0.0090519
-0.0101453
-0.0115865
-0.0138163
-0.0166866
-0.0215127
-0.0260003
-0.0300115
-0.0183804
0.00980299
0.0894913
-0.0312141
-0.00621426
-0.00478534
-0.00408364
-0.00393321
-0.00420669
-0.00479596
-0.00551475
-0.0064216
-0.00746086
-0.0088812
-0.0105234
-0.0128908
-0.0154679
-0.0183112
-0.0180322
-0.0111957
0.0209102
0.0909474
0.225844
)
;

boundaryField
{
    movingWall
    {
        type            zeroGradient;
    }
    fixedWalls
    {
        type            zeroGradient;
    }
    frontAndBack
    {
        type            empty;
    }
}


// ************************************************************************* //
