/*--------------------------------*- C++ -*----------------------------------*\
  =========                 |
  \\      /  F ield         | OpenFOAM: The Open Source CFD Toolbox
   \\    /   O peration     | Website:  https://openfoam.org
    \\  /    A nd           | Version:  10
     \\/     M anipulation  |
\*---------------------------------------------------------------------------*/
FoamFile
{
    format      ascii;
    class       surfaceScalarField;
    location    "6";
    object      phi;
}
// * * * * * * * * * * * * * * * * * * * * * * * * * * * * * * * * * * * * * //

dimensions      [0 3 -1 0 0 0 0];

internalField   nonuniform List<scalar> 
760
(
-9.24547e-06
9.24546e-06
-3.057e-05
2.13245e-05
-5.58563e-05
2.52863e-05
-8.18037e-05
2.59475e-05
-0.000107343
2.5539e-05
-0.000132033
2.46899e-05
-0.000155447
2.34143e-05
-0.000177005
2.15584e-05
-0.000195932
1.89264e-05
-0.000211238
1.53067e-05
-0.000221729
1.04904e-05
-0.00022603
4.301e-06
-0.000222673
-3.35636e-06
-0.000210285
-1.23888e-05
-0.000187864
-2.24208e-05
-0.000155183
-3.26806e-05
-0.000113448
-4.17354e-05
-6.6416e-05
-4.70317e-05
-2.25121e-05
-4.39039e-05
-2.25121e-05
-2.24397e-05
3.16852e-05
-6.37287e-05
6.26135e-05
-0.000110934
7.24914e-05
-0.000158748
7.37613e-05
-0.000205156
7.19474e-05
-0.000249112
6.86459e-05
-0.00028968
6.39828e-05
-0.000325791
5.76693e-05
-0.000356164
4.9299e-05
-0.00037928
3.84222e-05
-0.000393358
2.45683e-05
-0.000396515
7.45862e-06
-0.000386774
-1.30973e-05
-0.000362267
-3.68959e-05
-0.000321802
-6.28859e-05
-0.000265344
-8.91385e-05
-0.00019495
-0.000112129
-0.00011648
-0.000125502
-4.25282e-05
-0.000117856
-6.50403e-05
-2.79346e-05
5.96198e-05
-7.77344e-05
0.000112413
-0.00013402
0.000128777
-0.000190642
0.000130384
-0.000245313
0.000126618
-0.000296841
0.000120174
-0.000344177
0.000111319
-0.000386152
9.96449e-05
-0.000421387
8.45336e-05
-0.000448244
6.5279e-05
-0.000464847
4.11715e-05
-0.000469044
1.16557e-05
-0.000458364
-2.3777e-05
-0.000430598
-6.4662e-05
-0.000384024
-0.00010946
-0.000318161
-0.000155002
-0.000234962
-0.000195327
-0.000141111
-0.000219354
-5.18086e-05
-0.000207158
-0.000116849
-3.00181e-05
8.96379e-05
-8.36054e-05
0.000166001
-0.000144002
0.000189173
-0.000204696
0.000191078
-0.000263386
0.000185308
-0.000318937
0.000175725
-0.000370372
0.000162754
-0.000416594
0.000145867
-0.000456272
0.000124212
-0.000487759
9.67659e-05
-0.000509026
6.24388e-05
-0.00051766
2.02888e-05
-0.000510722
-3.0715e-05
-0.000484951
-9.04324e-05
-0.000437454
-0.000156958
-0.000366463
-0.000225993
-0.000273218
-0.000288572
-0.000165085
-0.000327487
-6.05135e-05
-0.000311729
-0.000177362
-3.11266e-05
0.000120765
-8.72283e-05
0.000222102
-0.000150541
0.000252486
-0.000214311
0.000254847
-0.000276295
0.000247292
-0.00033551
0.00023494
-0.000391151
0.000218396
-0.000442295
0.000197011
-0.000487758
0.000169675
-0.000525956
0.000134963
-0.000554741
9.12245e-05
-0.000571271
3.68181e-05
-0.000571952
-3.00335e-05
-0.000552077
-0.000110307
-0.000506807
-0.000202227
-0.000432062
-0.000300738
-0.000327149
-0.000393485
-0.000199813
-0.000454823
-7.34194e-05
-0.000438123
-0.000250782
-3.21727e-05
0.000152937
-9.07988e-05
0.000280728
-0.000157136
0.000318823
-0.00022417
0.000321882
-0.000289754
0.000312876
-0.000353114
0.0002983
-0.000413707
0.000278989
-0.000470895
0.000254199
-0.000523768
0.000222548
-0.000570945
0.00018214
-0.000610304
0.000130583
-0.000638644
6.51589e-05
-0.000651604
-1.70742e-05
-0.000642593
-0.000119319
-0.000603873
-0.000240947
-0.000527493
-0.000377118
-0.000408855
-0.000512123
-0.000254496
-0.000609182
-9.47028e-05
-0.000597916
-0.000345485
-3.33939e-05
0.000186331
-9.49087e-05
0.000342243
-0.000164676
0.00038859
-0.000235369
0.000392575
-0.000304955
0.000382462
-0.000372939
0.000366284
-0.000439141
0.000345191
-0.000503352
0.000318409
-0.000565133
0.00028433
-0.000623555
0.000240562
-0.00067681
0.000183838
-0.000721629
0.000109978
-0.000753172
1.44685e-05
-0.000762645
-0.000109845
-0.000738486
-0.000265107
-0.000666699
-0.000448904
-0.000535111
-0.000643711
-0.000344558
-0.000799735
-0.000132571
-0.000809903
-0.000478055
-3.48278e-05
0.000221159
-9.96611e-05
0.000407077
-0.000173257
0.000462186
-0.000247896
0.000467214
-0.000321683
0.000456249
-0.000394469
0.00043907
-0.000466553
0.000417274
-0.000538336
0.000390193
-0.000610124
0.000356118
-0.000681834
0.000312272
-0.000752523
0.000254528
-0.000819619
0.000177073
-0.000877499
7.23487e-05
-0.000917374
-6.99698e-05
-0.000922595
-0.000259886
-0.000870826
-0.000500674
-0.000736369
-0.000778168
-0.000503566
-0.00103254
-0.000207596
-0.00110587
-0.000685652
-3.65101e-05
0.000257669
-0.000105118
0.000475685
-0.000182863
0.00053993
-0.000261535
0.000545886
-0.000339393
0.000534106
-0.000416695
0.000516372
-0.000494335
0.000494915
-0.000573519
0.000469376
-0.000655608
0.000438207
-0.000741874
0.000398538
-0.000832994
0.000345647
-0.000928133
0.000272212
-0.00102325
0.00016747
-0.001111
1.77782e-05
-0.00117125
-0.000199642
-0.00117348
-0.000498438
-0.00106999
-0.000881658
-0.000803426
-0.0012991
-0.000368869
-0.00154043
-0.00105452
-3.85626e-05
0.000296232
-0.000111496
0.000548618
-0.000193648
0.000622082
-0.000276208
0.000628446
-0.0003576
0.000615499
-0.000438545
0.000597317
-0.000520609
0.000576979
-0.000605959
0.000554725
-0.000697329
0.000529577
-0.000797941
0.000499151
-0.000911204
0.00045891
-0.00103996
0.000400973
-0.0011849
0.00031241
-0.00134087
0.000173745
-0.00149876
-4.17552e-05
-0.00162072
-0.000376477
-0.00162473
-0.000877644
-0.00135614
-0.0015677
-0.000693739
-0.00220283
-0.00174826
-4.12728e-05
0.000337504
-0.000119317
0.000626662
-0.000206121
0.000708887
-0.000292182
0.000714506
-0.000376123
0.00069944
-0.000459155
0.000680349
-0.000543539
0.000661363
-0.000632426
0.000643613
-0.000730054
0.000627206
-0.00084203
0.000611127
-0.000975565
0.000592445
-0.00113941
0.000564815
-0.00134331
0.000516316
-0.00159659
0.000427024
-0.00190268
0.000264332
-0.0022386
-4.05514e-05
-0.00244864
-0.000667611
-0.00218714
-0.00182919
-0.00118488
-0.0032051
-0.00293313
-4.52189e-05
0.000382723
-0.000129615
0.000711058
-0.000221372
0.000800643
-0.000310297
0.000803432
-0.000395321
0.000784464
-0.000478171
0.000763199
-0.000561728
0.00074492
-0.000649965
0.00073185
-0.000748445
0.000725686
-0.000865121
0.000727803
-0.00101149
0.000738811
-0.00120421
0.000757542
-0.00146722
0.000779319
-0.00183263
0.000792439
-0.00232758
0.000759278
-0.00290107
0.000532939
-0.00329715
-0.00027153
-0.002961
-0.00216534
-0.00165869
-0.00450741
-0.00459182
-5.14168e-05
0.00043414
-0.000144135
0.000803776
-0.0002413
0.000897809
-0.000332293
0.000894425
-0.000416464
0.000868634
-0.000496136
0.000842871
-0.00057472
0.000823504
-0.000656501
0.000813632
-0.000747583
0.000816767
-0.000857268
0.000837488
-0.00100023
0.000881776
-0.00120009
0.000957403
-0.00149396
0.00107318
-0.00192927
0.00122775
-0.00253297
0.00136298
-0.00319496
0.00119493
-0.00355616
8.96697e-05
-0.00314922
-0.00257228
-0.00189287
-0.00576376
-0.0064847
-6.26329e-05
0.000496773
-0.000166921
0.000908065
-0.000269198
0.00100009
-0.000360065
0.000985291
-0.000440762
0.000949331
-0.000514285
0.000916394
-0.000583645
0.000892863
-0.000652714
0.0008827
-0.000726968
0.000891021
-0.000814908
0.000925428
-0.000930608
0.000997476
-0.00109706
0.00112385
-0.00134981
0.00132593
-0.00172383
0.00160177
-0.00221825
0.0018574
-0.00269884
0.00167552
-0.00294114
0.000331967
-0.00268144
-0.00283198
-0.00181554
-0.00662966
-0.00830023
-7.62471e-05
0.00057302
-0.000195591
0.00102741
-0.000306389
0.00111088
-0.000400221
0.00107912
-0.000476728
0.00102584
-0.000540223
0.000979888
-0.000594514
0.000947154
-0.00064278
0.000930967
-0.000688083
0.000936324
-0.0007346
0.000971945
-0.000789833
0.00105271
-0.000864778
0.0011988
-0.000978174
0.00143933
-0.00113538
0.00175897
-0.0013383
0.00206033
-0.00149773
0.00183495
-0.00162109
0.000455333
-0.00167855
-0.00277453
-0.00133366
-0.00697455
-0.00963389
-0.000142991
0.000716011
-0.00027667
0.00116109
-0.000376008
0.00121022
-0.000449949
0.00115306
-0.000509704
0.00108559
-0.000559135
0.00102932
-0.000598595
0.000986614
-0.000626713
0.000959085
-0.000641632
0.000951243
-0.000640124
0.000970437
-0.000618695
0.00103128
-0.000571341
0.00115144
-0.00049436
0.00136235
-0.000366541
0.00163116
-0.000198094
0.00189188
-6.25959e-05
0.00169945
-4.66861e-05
0.000439423
-0.000448608
-0.00237261
-0.00064433
-0.00677883
-0.0102782
-9.37183e-05
0.00080973
-0.000291105
0.00135847
-0.000433466
0.00135258
-0.000528733
0.00124833
-0.000589138
0.001146
-0.000624498
0.00106468
-0.000639218
0.00100133
-0.000633629
0.000953496
-0.000604871
0.000922485
-0.000544068
0.000909635
-0.000439095
0.000926307
-0.000267797
0.000980146
-2.64956e-06
0.0010972
0.000364868
0.00126364
0.00083638
0.00142037
0.00126198
0.00127385
0.00132851
0.0003729
0.000692859
-0.00173696
0.000103385
-0.00618935
-0.0101748
-0.000387409
0.00119714
-0.000469748
0.00144081
-0.000550681
0.00143352
-0.00062374
0.00132139
-0.00065182
0.00117408
-0.000641479
0.00105434
-0.000599395
0.00095925
-0.000526215
0.000880316
-0.000424239
0.000820509
-0.00028598
0.000771376
-0.000103654
0.000743981
0.000141546
0.000734946
0.000474406
0.000764341
0.000917435
0.000820609
0.00146708
0.00087072
0.00196817
0.000772763
0.00228023
6.08408e-05
0.00191287
-0.0013696
0.00101436
-0.00529085
-0.00916048
-0.00135577
0.0025529
-0.00132134
0.00140639
-0.00107565
0.00118783
-0.000720095
0.00096583
-0.00034224
0.000796224
3.9273e-05
0.000672826
0.000411424
0.000587099
0.000772106
0.000519633
0.0011222
0.000470413
0.00146444
0.000429137
0.00180782
0.000400607
0.00216094
0.000381822
0.00255377
0.000371508
0.0030016
0.000372782
0.0035495
0.000322819
0.00410363
0.000218629
0.00439598
-0.0002315
0.00423579
-0.00120941
0.00264743
-0.00370249
-0.00651305
0.0025529
0.0039593
0.00514712
0.00611295
0.00690918
0.007582
0.0081691
0.00868873
0.00915915
0.00958828
0.00998889
0.0103707
0.0107422
0.011115
0.0114378
0.0116565
0.011425
0.0102155
0.00651305
)
;

boundaryField
{
    movingWall
    {
        type            calculated;
        value           uniform 0;
    }
    fixedWalls
    {
        type            calculated;
        value           uniform 0;
    }
    frontAndBack
    {
        type            empty;
        value           nonuniform List<scalar> 0();
    }
}


// ************************************************************************* //
