/*--------------------------------*- C++ -*----------------------------------*\
  =========                 |
  \\      /  F ield         | OpenFOAM: The Open Source CFD Toolbox
   \\    /   O peration     | Website:  https://openfoam.org
    \\  /    A nd           | Version:  10
     \\/     M anipulation  |
\*---------------------------------------------------------------------------*/
FoamFile
{
    format      ascii;
    class       volScalarField;
    location    "1.075";
    object      p;
}
// * * * * * * * * * * * * * * * * * * * * * * * * * * * * * * * * * * * * * //

dimensions      [0 2 -2 0 0 0 0];

internalField   nonuniform List<scalar> 
400
(
-8.92731e-10
3.27414e-05
0.000152105
0.000342664
0.00060077
0.00092041
0.00129396
0.00171246
0.00216573
0.00264256
0.00313087
0.00361799
0.00409083
0.00453626
0.00494142
0.00529415
0.00558341
0.00579992
0.00593738
0.00597816
-3.30135e-05
-4.34917e-07
0.000120127
0.000312313
0.000572684
0.000895258
0.0012724
0.00169511
0.00215317
0.0026353
0.00312931
0.00362246
0.00410147
0.00455303
0.00496405
0.00532213
0.00561596
0.00583605
0.00597607
0.00601725
-0.000154446
-0.000121368
3.525e-06
0.000202721
0.000472708
0.000807321
0.00119871
0.00163761
0.00211355
0.00261491
0.00312926
0.00364326
0.00414325
0.00461533
0.00504577
0.0054214
0.00573014
0.00596173
0.00610924
0.0061523
-0.000356249
-0.000321695
-0.000189499
2.1465e-05
0.000307524
0.000662188
0.00107722
0.00154294
0.0020484
0.00258149
0.00312916
0.00367751
0.00421205
0.00471796
0.00518045
0.00558513
0.00591861
0.00616934
0.00632939
0.00637625
-0.000643332
-0.000606506
-0.000463859
-0.000236112
7.28092e-05
0.000455929
0.000904445
0.00140807
0.00195521
0.00253308
0.00312786
0.00372481
0.00430837
0.00486248
0.00537084
0.00581734
0.00618666
0.00646529
0.00664371
0.00669639
-0.00102301
-0.000983139
-0.000826642
-0.000576706
-0.000237635
0.000182921
0.000675392
0.0012287
0.00183041
0.00246691
0.00312348
0.00378437
0.0044327
0.00505089
0.00562068
0.00612364
0.00654177
0.00685872
0.00706259
0.00712356
-0.00150474
-0.00146105
-0.00128695
-0.0010089
-0.000631722
-0.000163998
0.000383697
0.000999271
0.00166931
0.00237923
0.00311331
0.00385474
0.00458518
0.00528522
0.00593427
0.00651089
0.00699347
0.00736165
0.00759993
0.00767243
-0.00210071
-0.00205237
-0.00185642
-0.00154357
-0.00111943
-0.000593807
2.13969e-05
0.000712839
0.00146596
0.00226512
0.0030936
0.00393358
0.00476526
0.00556728
0.00631633
0.00698727
0.00755372
0.00798965
0.00827417
0.00836273
-0.00282622
-0.00277234
-0.00254955
-0.00219421
-0.00171297
-0.00111741
-0.000421134
0.000360967
0.00121302
0.00211831
0.00305923
0.00401719
0.00497119
0.00589799
0.00677139
0.00756186
0.00823686
0.00876244
0.00910944
0.00922081
-0.00370044
-0.00363991
-0.00338427
-0.00297722
-0.00242706
-0.00174776
-0.000955206
-6.62584e-05
0.000901733
0.00193105
0.00300342
0.00410001
0.00519918
0.00627642
0.00730276
0.00824384
0.00905938
0.00970451
0.0101372
0.0102822
-0.00474746
-0.00467874
-0.00438269
-0.00391252
-0.00327911
-0.00249985
-0.00159374
-0.000580093
0.00052203
0.00169403
0.00291743
0.00417398
0.00544245
0.0066983
0.00791086
0.00904092
0.0100391
0.0108458
0.0113984
0.0115956
-0.0059981
-0.00591854
-0.00557219
-0.00502412
-0.00428955
-0.00339074
-0.00235094
-0.00119271
6.2901e-05
0.00139661
0.00279043
0.00422792
0.00568998
0.00715414
0.00859036
0.00995642
0.0111929
0.0122216
0.0129465
0.0132305
-0.00749302
-0.00739721
-0.00698721
-0.00634113
-0.00548214
-0.00443921
-0.00324154
-0.00191617
-0.000486636
0.00102751
0.00260977
0.00424702
0.00592496
0.0076266
0.00932649
0.0109837
0.012532
0.0138714
0.0148503
0.0152891
-0.00928973
-0.00916473
-0.00867205
-0.00789918
-0.0068842
-0.00566485
-0.00427929
-0.00276082
-0.00113592
0.000576092
0.00236264
0.00421269
0.00612334
0.00808698
0.0100892
0.0120985
0.0140505
0.0158346
0.0171989
0.0179263
-0.0114557
-0.0112833
-0.0106846
-0.00974232
-0.00852648
-0.00708675
-0.00547527
-0.00373327
-0.00189064
3.39374e-05
0.00203191
0.00410264
0.00625305
0.00849174
0.010825
0.0132452
0.0157075
0.0181342
0.0200815
0.0214188
-0.0142428
-0.0138873
-0.0131195
-0.0119276
-0.010443
-0.00872137
-0.00683421
-0.00483222
-0.00274837
-0.000599564
0.00161145
0.0038952
0.00627547
0.00878047
0.0114478
0.0143126
0.0173748
0.0207026
0.0234944
0.0262015
-0.0171087
-0.0169
-0.0160218
-0.0145098
-0.0126653
-0.0105763
-0.0083485
-0.00604277
-0.00369393
-0.0013147
0.00110049
0.00357113
0.0061493
0.00887201
0.0118132
0.0150791
0.0187152
0.0233189
0.0271238
0.0329837
-0.0235779
-0.020925
-0.0197828
-0.0176105
-0.0152183
-0.012629
-0.00997285
-0.00731487
-0.00468206
-0.00207441
0.000527421
0.00315767
0.00588626
0.00877759
0.0119759
0.0157683
0.0201558
0.0266614
0.0323705
0.043058
-0.0270787
-0.0269731
-0.0249001
-0.0219562
-0.018594
-0.0151227
-0.0118065
-0.00868142
-0.00571853
-0.00288037
-0.000125887
0.00259107
0.0052996
0.00808655
0.0108999
0.0144517
0.0168309
0.0256078
0.0276666
0.0521128
-0.0523772
-0.0284161
-0.0269417
-0.0233429
-0.0193831
-0.0157668
-0.0123853
-0.00917113
-0.00612529
-0.00322407
-0.000427115
0.00231519
0.00503661
0.00791028
0.0109824
0.0153632
0.0205535
0.0336798
0.050844
0.102305
)
;

boundaryField
{
    movingWall
    {
        type            zeroGradient;
    }
    fixedWalls
    {
        type            zeroGradient;
    }
    frontAndBack
    {
        type            empty;
    }
}


// ************************************************************************* //
