/*--------------------------------*- C++ -*----------------------------------*\
  =========                 |
  \\      /  F ield         | OpenFOAM: The Open Source CFD Toolbox
   \\    /   O peration     | Website:  https://openfoam.org
    \\  /    A nd           | Version:  10
     \\/     M anipulation  |
\*---------------------------------------------------------------------------*/
FoamFile
{
    format      ascii;
    class       volVectorField;
    location    "1.075";
    object      U;
}
// * * * * * * * * * * * * * * * * * * * * * * * * * * * * * * * * * * * * * //

dimensions      [0 1 -1 0 0 0 0];

internalField   nonuniform List<vector> 
400
(
(-0.000307567 0.000302859 0)
(-0.00102642 0.000367909 0)
(-0.00181771 0.000355617 0)
(-0.00254955 0.000329638 0)
(-0.00321661 0.00029534 0)
(-0.00380251 0.000253879 0)
(-0.00429302 0.000206323 0)
(-0.00467647 0.000153798 0)
(-0.00494365 9.74594e-05 0)
(-0.00508779 3.84865e-05 0)
(-0.00510468 -2.19096e-05 0)
(-0.00499268 -8.2481e-05 0)
(-0.00475288 -0.00014187 0)
(-0.0043893 -0.000198636 0)
(-0.0039091 -0.00025124 0)
(-0.00332276 -0.000298074 0)
(-0.00264438 -0.000337521 0)
(-0.00189138 -0.000367844 0)
(-0.00107146 -0.000382932 0)
(-0.00032216 -0.000316958 0)
(-0.000388429 0.00103206 0)
(-0.00128384 0.00124051 0)
(-0.00226 0.00119836 0)
(-0.0031633 0.00111031 0)
(-0.00398594 0.000994052 0)
(-0.00470764 0.000853708 0)
(-0.00531102 0.000693008 0)
(-0.00578198 0.000515814 0)
(-0.00610944 0.000326048 0)
(-0.00628541 0.000127649 0)
(-0.00630492 -7.54028e-05 0)
(-0.00616609 -0.000278835 0)
(-0.0058703 -0.000478266 0)
(-0.00542242 -0.000668926 0)
(-0.0048311 -0.000845692 0)
(-0.00410903 -0.00100317 0)
(-0.00327339 -0.0011359 0)
(-0.00234561 -0.00123786 0)
(-0.00133624 -0.00128892 0)
(-0.000405421 -0.00107749 0)
(-0.000411414 0.00188991 0)
(-0.00135997 0.0022573 0)
(-0.00239342 0.00217934 0)
(-0.0033485 0.0020183 0)
(-0.00421741 0.00180592 0)
(-0.00497898 0.00154997 0)
(-0.00561531 0.00125742 0)
(-0.00611198 0.000935377 0)
(-0.00645782 0.000590951 0)
(-0.00664473 0.000231195 0)
(-0.00666748 -0.000136797 0)
(-0.00652395 -0.000505582 0)
(-0.00621527 -0.000867348 0)
(-0.00574584 -0.0012136 0)
(-0.00512399 -0.00153512 0)
(-0.00436235 -0.00182208 0)
(-0.00347846 -0.00206437 0)
(-0.0024947 -0.00225077 0)
(-0.00142202 -0.00234502 0)
(-0.000431519 -0.00197232 0)
(-0.000440283 0.00278203 0)
(-0.00145556 0.00331619 0)
(-0.0025611 0.00319981 0)
(-0.00358119 0.00296171 0)
(-0.00450781 0.00264851 0)
(-0.0053188 0.00227198 0)
(-0.0059958 0.00184261 0)
(-0.00652434 0.00137089 0)
(-0.00689329 0.000867101 0)
(-0.0070946 0.000341305 0)
(-0.00712289 -0.000196481 0)
(-0.0069756 -0.000735988 0)
(-0.0066531 -0.00126611 0)
(-0.00615898 -0.00177471 0)
(-0.00550068 -0.00224842 0)
(-0.00469028 -0.00267267 0)
(-0.00374539 -0.00303215 0)
(-0.00268947 -0.00330971 0)
(-0.00153437 -0.00345157 0)
(-0.000465792 -0.00290938 0)
(-0.000480795 0.00374565 0)
(-0.00158916 0.00445982 0)
(-0.00279468 0.00430032 0)
(-0.00390451 0.00397721 0)
(-0.00491018 0.00355375 0)
(-0.00578833 0.00304648 0)
(-0.00652024 0.00246995 0)
(-0.00709162 0.00183836 0)
(-0.00749171 0.00116521 0)
(-0.00771269 0.000463368 0)
(-0.00774911 -0.000254609 0)
(-0.00759777 -0.000975868 0)
(-0.00725794 -0.00168642 0)
(-0.00673176 -0.00237068 0)
(-0.00602514 -0.00301093 0)
(-0.00514892 -0.00358736 0)
(-0.00412038 -0.0040785 0)
(-0.00296419 -0.00445977 0)
(-0.00169355 -0.00465717 0)
(-0.000514566 -0.00393165 0)
(-0.000534753 0.00480781 0)
(-0.00176662 0.00571941 0)
(-0.00310393 0.00550973 0)
(-0.00433097 0.00509006 0)
(-0.00543881 0.00454283 0)
(-0.00640275 0.0038906 0)
(-0.00720409 0.00315283 0)
(-0.00782926 0.0023478 0)
(-0.00826848 0.00149227 0)
(-0.00851461 0.000601581 0)
(-0.00856232 -0.000309703 0)
(-0.00840759 -0.00122688 0)
(-0.00804808 -0.00213364 0)
(-0.00748364 -0.00301131 0)
(-0.00671751 -0.00383782 0)
(-0.00575813 -0.0045874 0)
(-0.00462156 -0.00523104 0)
(-0.00333344 -0.00573458 0)
(-0.00190858 -0.00599956 0)
(-0.000580721 -0.00507265 0)
(-0.000604499 0.00599836 0)
(-0.00199529 0.00712927 0)
(-0.00350072 0.006859 0)
(-0.00487534 0.00632643 0)
(-0.00610981 0.00563687 0)
(-0.00717835 0.00482074 0)
(-0.00806306 0.00390357 0)
(-0.00875219 0.00290829 0)
(-0.00923794 0.00185483 0)
(-0.00951467 0.000760434 0)
(-0.00957758 -0.000359254 0)
(-0.00942171 -0.00148884 0)
(-0.00904238 -0.00261076 0)
(-0.00843595 -0.00370402 0)
(-0.00760126 -0.00474239 0)
(-0.00654238 -0.00569349 0)
(-0.0052723 -0.00651885 0)
(-0.00381669 -0.0071715 0)
(-0.00219197 -0.00752233 0)
(-0.000668342 -0.00637158 0)
(-0.000693497 0.00735304 0)
(-0.00228585 0.00872991 0)
(-0.00400188 0.00838357 0)
(-0.00555794 0.00771503 0)
(-0.0069447 0.0068578 0)
(-0.00813607 0.00585287 0)
(-0.00911655 0.00473351 0)
(-0.00987802 0.00352792 0)
(-0.0104163 0.00225892 0)
(-0.0107287 0.000944728 0)
(-0.0108116 -0.000399426 0)
(-0.0106591 -0.00175925 0)
(-0.0102633 -0.0031178 0)
(-0.00961528 -0.00445317 0)
(-0.00870699 -0.00573573 0)
(-0.00753489 -0.00692596 0)
(-0.00610558 -0.00797367 0)
(-0.00444239 -0.00881435 0)
(-0.00256251 -0.00927895 0)
(-0.000783741 -0.00787782 0)
(-0.000807007 0.00891596 0)
(-0.00265404 0.0105701 0)
(-0.0046315 0.0101244 0)
(-0.00640695 0.00928697 0)
(-0.00797221 0.00822741 0)
(-0.00930266 0.0070012 0)
(-0.010388 0.00565151 0)
(-0.0112268 0.00421248 0)
(-0.0118212 0.0027092 0)
(-0.012173 0.00115929 0)
(-0.0122816 -0.000424641 0)
(-0.0121401 -0.00203212 0)
(-0.0117363 -0.0036498 0)
(-0.0110539 -0.00525755 0)
(-0.0100741 -0.00682402 0)
(-0.00878068 -0.00830271 0)
(-0.0071682 -0.00962917 0)
(-0.00525259 -0.0107149 0)
(-0.00304922 -0.0113368 0)
(-0.000936987 -0.00965606 0)
(-0.00095329 0.0107438 0)
(-0.00312373 0.0127105 0)
(-0.00542465 0.0121293 0)
(-0.00746183 0.0110755 0)
(-0.00923076 0.0097659 0)
(-0.010712 0.00827602 0)
(-0.0119053 0.00666174 0)
(-0.0128204 0.00496353 0)
(-0.0134696 0.00320759 0)
(-0.0138626 0.00140843 0)
(-0.014003 -0.000427217 0)
(-0.0138843 -0.00229658 0)
(-0.0134887 -0.00419433 0)
(-0.0127895 -0.00610673 0)
(-0.0117522 -0.00800444 0)
(-0.0103405 -0.00983548 0)
(-0.00852711 -0.0115191 0)
(-0.00631067 -0.0129347 0)
(-0.00369824 -0.0137834 0)
(-0.0011449 -0.0117953 0)
(-0.00114596 0.0129129 0)
(-0.00373224 0.0152284 0)
(-0.00643341 0.0144551 0)
(-0.00877853 0.013115 0)
(-0.0107721 0.011489 0)
(-0.0124069 0.00968017 0)
(-0.0137006 0.00776002 0)
(-0.014681 0.00577534 0)
(-0.0153763 0.0037511 0)
(-0.0158079 0.00169491 0)
(-0.0159866 -0.000397153 0)
(-0.0159072 -0.00253525 0)
(-0.0155465 -0.00472824 0)
(-0.014864 -0.00697584 0)
(-0.0138028 -0.00925809 0)
(-0.012296 -0.0115228 0)
(-0.010279 -0.0136727 0)
(-0.00771411 -0.0155459 0)
(-0.00458604 -0.0167348 0)
(-0.00143725 -0.0144247 0)
(-0.00140869 0.0155313 0)
(-0.00454009 0.0182251 0)
(-0.00773668 0.0171688 0)
(-0.0104375 0.0154378 0)
(-0.012666 0.0134027 0)
(-0.0144411 0.0112029 0)
(-0.0158102 0.00892837 0)
(-0.0168294 0.00663065 0)
(-0.01755 0.00432897 0)
(-0.0180109 0.00201836 0)
(-0.0182332 -0.000322185 0)
(-0.0182154 -0.00272248 0)
(-0.0179293 -0.00521375 0)
(-0.0173194 -0.00781906 0)
(-0.0162991 -0.0105399 0)
(-0.0147558 -0.0133368 0)
(-0.0125648 -0.0161034 0)
(-0.00961609 -0.0186298 0)
(-0.00584507 -0.0203477 0)
(-0.00187025 -0.0177434 0)
(-0.0017852 0.0187618 0)
(-0.00564947 0.0218359 0)
(-0.00945638 0.0203486 0)
(-0.0125558 0.018068 0)
(-0.0150076 0.0154936 0)
(-0.0168813 0.0128107 0)
(-0.0182729 0.0101283 0)
(-0.0192805 0.00749597 0)
(-0.0199886 0.00491921 0)
(-0.0204591 0.00237303 0)
(-0.0207275 -0.000188358 0)
(-0.0207988 -0.00282263 0)
(-0.0206431 -0.00559334 0)
(-0.0201901 -0.00856038 0)
(-0.0193206 -0.0117645 0)
(-0.0178604 -0.0152026 0)
(-0.0155904 -0.0187854 0)
(-0.0122617 -0.022267 0)
(-0.00771531 -0.0248293 0)
(-0.00255694 -0.0220804 0)
(-0.00236152 0.0228459 0)
(-0.00724112 0.0262351 0)
(-0.011784 0.0240793 0)
(-0.0153055 0.0210062 0)
(-0.017924 0.0177134 0)
(-0.0198066 0.014436 0)
(-0.0211251 0.0112918 0)
(-0.0220386 0.00831456 0)
(-0.0226731 0.00548384 0)
(-0.0231185 0.00274443 0)
(-0.0234289 1.745e-05 0)
(-0.0236205 -0.00278973 0)
(-0.0236672 -0.00578527 0)
(-0.0234906 -0.00908185 0)
(-0.0229414 -0.0127852 0)
(-0.0217777 -0.0169663 0)
(-0.0196526 -0.0216058 0)
(-0.0160461 -0.0264999 0)
(-0.0106548 -0.0304147 0)
(-0.0037452 -0.0280548 0)
(-0.00330075 0.0283996 0)
(-0.00962655 0.0317093 0)
(-0.0150158 0.028451 0)
(-0.0189372 0.0242013 0)
(-0.0215787 0.0199552 0)
(-0.0233033 0.0159571 0)
(-0.0243944 0.0123068 0)
(-0.0250885 0.00899713 0)
(-0.0255587 0.00596281 0)
(-0.0259254 0.00310591 0)
(-0.0262615 0.000307013 0)
(-0.0266015 -0.00256931 0)
(-0.0269351 -0.00568237 0)
(-0.02719 -0.00921387 0)
(-0.0272048 -0.0133655 0)
(-0.0266818 -0.018338 0)
(-0.0251527 -0.0242708 0)
(-0.0215806 -0.0312044 0)
(-0.0156143 -0.0372546 0)
(-0.00606384 -0.0368041 0)
(-0.00514088 0.034601 0)
(-0.0136462 0.0380411 0)
(-0.0196798 0.0333621 0)
(-0.0238199 0.027479 0)
(-0.0261681 0.0220067 0)
(-0.0274535 0.0171685 0)
(-0.0280825 0.0130008 0)
(-0.0283792 0.00941335 0)
(-0.0285603 0.00626979 0)
(-0.0287696 0.00341432 0)
(-0.0290988 0.000681543 0)
(-0.0296038 -0.00210859 0)
(-0.0303049 -0.0051599 0)
(-0.0311658 -0.00873091 0)
(-0.0320557 -0.0131466 0)
(-0.0326721 -0.0188128 0)
(-0.0325341 -0.0261779 0)
(-0.0297196 -0.0360703 0)
(-0.0244588 -0.0453014 0)
(-0.0109343 -0.0505103 0)
(-0.00725207 0.0503619 0)
(-0.0187732 0.0471678 0)
(-0.0260148 0.0393412 0)
(-0.0303039 0.0306453 0)
(-0.0318507 0.0235129 0)
(-0.0322498 0.0177354 0)
(-0.0320732 0.0131115 0)
(-0.0317291 0.00937803 0)
(-0.0314553 0.00628203 0)
(-0.0314002 0.0035951 0)
(-0.0316605 0.00110682 0)
(-0.0323076 -0.00139478 0)
(-0.0334084 -0.00412717 0)
(-0.0350089 -0.00744879 0)
(-0.0370889 -0.0118496 0)
(-0.039466 -0.0181282 0)
(-0.0420849 -0.0271475 0)
(-0.0412195 -0.0414838 0)
(-0.0399048 -0.0560653 0)
(-0.020284 -0.074514 0)
(-0.0179723 0.0540546 0)
(-0.0358407 0.0559808 0)
(-0.0362594 0.044508 0)
(-0.0389552 0.0331737 0)
(-0.0379237 0.0242216 0)
(-0.0363734 0.0174694 0)
(-0.0347102 0.0125041 0)
(-0.0332907 0.00880262 0)
(-0.0322769 0.00594716 0)
(-0.0317542 0.00362914 0)
(-0.0317835 0.0016091 0)
(-0.0324154 -0.000323171 0)
(-0.0338013 -0.00239246 0)
(-0.0361479 -0.00485533 0)
(-0.0397178 -0.00808581 0)
(-0.0444569 -0.0131219 0)
(-0.0514307 -0.0199784 0)
(-0.0533699 -0.0379802 0)
(-0.0601637 -0.0542826 0)
(-0.0272702 -0.108066 0)
(-0.044112 0.120086 0)
(-0.0449575 0.0574787 0)
(-0.0383004 0.0431534 0)
(-0.0314035 0.0287293 0)
(-0.0232203 0.0190499 0)
(-0.0166789 0.0131434 0)
(-0.0115614 0.00920651 0)
(-0.00780033 0.0064265 0)
(-0.00518236 0.00439737 0)
(-0.00352667 0.00284491 0)
(-0.00272266 0.00157462 0)
(-0.00273539 0.000427516 0)
(-0.00357633 -0.00078944 0)
(-0.00519285 -0.00236146 0)
(-0.00801733 -0.00478941 0)
(-0.0101227 -0.0100667 0)
(-0.0190659 -0.0199045 0)
(-0.0123512 -0.0463797 0)
(-0.0392398 -0.0889293 0)
(0.00704832 -0.187554 0)
(0.127928 0.116903 0)
(0.142026 0.0552965 0)
(0.209473 0.0333936 0)
(0.236999 0.0203145 0)
(0.25411 0.0119365 0)
(0.266231 0.00729149 0)
(0.274421 0.0047201 0)
(0.27998 0.00317033 0)
(0.283826 0.00217004 0)
(0.286442 0.0014863 0)
(0.288101 0.000986999 0)
(0.288964 0.000595015 0)
(0.288954 0.000268703 0)
(0.288358 -0.000171958 0)
(0.285101 -0.00076418 0)
(0.283758 -0.00262345 0)
(0.264454 -0.00643845 0)
(0.267952 -0.0167772 0)
(0.173215 -0.0380458 0)
(0.170124 -0.105374 0)
)
;

boundaryField
{
    movingWall
    {
        type            fixedValue;
        value           uniform (1 0 0);
    }
    fixedWalls
    {
        type            noSlip;
    }
    frontAndBack
    {
        type            empty;
    }
}


// ************************************************************************* //
