/*--------------------------------*- C++ -*----------------------------------*\
  =========                 |
  \\      /  F ield         | OpenFOAM: The Open Source CFD Toolbox
   \\    /   O peration     | Website:  https://openfoam.org
    \\  /    A nd           | Version:  10
     \\/     M anipulation  |
\*---------------------------------------------------------------------------*/
FoamFile
{
    format      ascii;
    class       surfaceScalarField;
    location    "2.9";
    object      phi;
}
// * * * * * * * * * * * * * * * * * * * * * * * * * * * * * * * * * * * * * //

dimensions      [0 3 -1 0 0 0 0];

internalField   nonuniform List<scalar> 
760
(
-1.18619e-05
1.18619e-05
-3.26285e-05
2.07667e-05
-5.44126e-05
2.1784e-05
-7.52641e-05
2.08516e-05
-9.4538e-05
1.92739e-05
-0.000111778
1.72399e-05
-0.000126554
1.47758e-05
-0.000138447
1.18933e-05
-0.000147057
8.6101e-06
-0.000152011
4.95413e-06
-0.000152979
9.67619e-07
-0.000149682
-3.29703e-06
-0.000141946
-7.7353e-06
-0.000129725
-1.22216e-05
-0.000113133
-1.65923e-05
-9.24882e-05
-2.06443e-05
-6.8373e-05
-2.41153e-05
-4.18498e-05
-2.65232e-05
-1.57207e-05
-2.61291e-05
-1.57207e-05
-2.14172e-05
3.3279e-05
-5.46889e-05
5.40384e-05
-8.90957e-05
5.61909e-05
-0.000121877
5.36326e-05
-0.000151994
4.93912e-05
-0.000178703
4.3949e-05
-0.000201333
3.74057e-05
-0.000219263
2.9823e-05
-0.000231924
2.12709e-05
-0.000238803
1.18333e-05
-0.000239491
1.6561e-06
-0.000233634
-9.15391e-06
-0.00022104
-2.03293e-05
-0.000201708
-3.15536e-05
-0.000175867
-4.24339e-05
-0.000144031
-5.24797e-05
-0.000107089
-6.10577e-05
-6.66109e-05
-6.70013e-05
-2.64589e-05
-6.62812e-05
-4.21795e-05
-2.40313e-05
5.73103e-05
-6.09803e-05
9.09873e-05
-9.90577e-05
9.42684e-05
-0.000135277
8.98523e-05
-0.000168528
8.26419e-05
-0.000198009
7.34303e-05
-0.000223001
6.23974e-05
-0.000242839
4.96612e-05
-0.000256917
3.5348e-05
-0.000264694
1.96113e-05
-0.000265704
2.66584e-06
-0.000259503
-1.5355e-05
-0.000245884
-3.39483e-05
-0.000224791
-5.26471e-05
-0.000196405
-7.08199e-05
-0.000161228
-8.76568e-05
-0.000120186
-0.000102099
-7.4992e-05
-0.000112195
-2.99368e-05
-0.000111336
-7.21163e-05
-2.55217e-05
8.28321e-05
-6.48601e-05
0.000130326
-0.000105376
0.000134785
-0.000143931
0.000128407
-0.000179381
0.000118092
-0.000210908
0.000104957
-0.000237774
8.92636e-05
-0.000259296
7.11833e-05
-0.000274838
5.08896e-05
-0.000283811
2.85844e-05
-0.0002857
4.5547e-06
-0.000279967
-2.10875e-05
-0.000266253
-4.76626e-05
-0.000244371
-7.45293e-05
-0.000214379
-0.000100811
-0.000176676
-0.00012536
-0.000132161
-0.000146614
-8.2684e-05
-0.000161672
-3.30411e-05
-0.000160979
-0.000105157
-2.73124e-05
0.000110144
-6.95365e-05
0.00017255
-0.000113031
0.000178279
-0.00015446
0.000169837
-0.000192641
0.000156273
-0.00022674
0.000139056
-0.00025601
0.000118534
-0.000279753
9.4926e-05
-0.000297303
6.84403e-05
-0.000308021
3.9302e-05
-0.000311286
7.82018e-06
-0.000306463
-2.59112e-05
-0.000292985
-6.114e-05
-0.000270439
-9.70751e-05
-0.000238643
-0.000132607
-0.000197799
-0.000166205
-0.000148717
-0.000195696
-9.34142e-05
-0.000216975
-3.74253e-05
-0.000216968
-0.000142583
-2.96546e-05
0.000139799
-7.5612e-05
0.000218507
-0.000122951
0.000225618
-0.000168079
0.000214965
-0.000209763
0.000197957
-0.00024716
0.000176452
-0.000279522
0.000150896
-0.000306148
0.000121552
-0.000326353
8.86449e-05
-0.000339443
5.23921e-05
-0.000344699
1.30761e-05
-0.000341326
-2.92834e-05
-0.000328493
-7.39737e-05
-0.000305455
-0.000120113
-0.000271646
-0.000166416
-0.000226906
-0.000210945
-0.000171824
-0.000250779
-0.000108566
-0.000280233
-4.37069e-05
-0.000281827
-0.00018629
-3.26174e-05
0.000172416
-8.3264e-05
0.000269154
-0.000135402
0.000277756
-0.000185114
0.000264677
-0.000231115
0.000243958
-0.000272563
0.0002179
-0.00030873
0.000187063
-0.000338936
0.000151758
-0.000362501
0.00011221
-0.000378697
6.85881e-05
-0.000386704
2.1083e-05
-0.000385562
-3.04257e-05
-0.000374082
-8.54536e-05
-0.000351064
-0.000143131
-0.000315347
-0.000202133
-0.000266132
-0.00026016
-0.000203518
-0.000313393
-0.000129688
-0.000354062
-5.26345e-05
-0.000358881
-0.000238924
-3.62656e-05
0.000208682
-9.26553e-05
0.000325544
-0.000150615
0.000335716
-0.000205831
0.000319894
-0.00025697
0.000295097
-0.000303212
0.000264142
-0.000343885
0.000227736
-0.000378373
0.000186246
-0.000406048
0.000139885
-0.00042619
8.873e-05
-0.000437908
3.2801e-05
-0.000440089
-2.82443e-05
-0.000431118
-9.44251e-05
-0.000409189
-0.00016506
-0.000372261
-0.000239061
-0.000318444
-0.000313976
-0.00024683
-0.000385007
-0.000159232
-0.00044166
-6.55019e-05
-0.000452611
-0.000304426
-4.06981e-05
0.00024938
-0.000104017
0.000388863
-0.000168906
0.000400604
-0.000230577
0.000381565
-0.000287658
0.000352178
-0.000339393
0.000315878
-0.000385219
0.000273562
-0.000424653
0.00022568
-0.000457193
0.000172424
-0.000482205
0.000113742
-0.000498799
4.93952e-05
-0.000505784
-2.12592e-05
-0.000501079
-9.91296e-05
-0.000482146
-0.000183994
-0.000445706
-0.000275501
-0.000388119
-0.000371564
-0.000306476
-0.000466649
-0.00020131
-0.000546826
-8.47291e-05
-0.000569193
-0.000389155
-4.60753e-05
0.000295455
-0.0001177
0.000460487
-0.000190731
0.000473635
-0.000259826
0.00045066
-0.000323606
0.000415958
-0.000381438
0.00037371
-0.000432948
0.000325072
-0.000477879
0.000270611
-0.000515966
0.000210512
-0.000546793
0.000144569
-0.000569602
7.22037e-05
-0.000583276
-7.58506e-06
-0.000585366
-9.70396e-05
-0.000572542
-0.000196817
-0.000539929
-0.000308114
-0.000481245
-0.000430248
-0.000389925
-0.000557969
-0.000263127
-0.000673624
-0.000115168
-0.000717152
-0.000504324
-5.26655e-05
0.000348121
-0.000134246
0.000542068
-0.000216765
0.000556154
-0.000294251
0.000528146
-0.000365386
0.000487093
-0.00042975
0.000438074
-0.000487263
0.000382585
-0.000538021
0.000321368
-0.000582145
0.000254636
-0.000619619
0.000182042
-0.000650043
0.000102628
-0.000672618
1.49899e-05
-0.000684908
-8.47505e-05
-0.000682931
-0.000198794
-0.000660047
-0.000330998
-0.000606338
-0.000483957
-0.000509125
-0.000655182
-0.000357953
-0.000824797
-0.000167313
-0.000907791
-0.000671637
-6.09346e-05
0.000409056
-0.000154518
0.000635652
-0.000248019
0.000649654
-0.000334816
0.000614942
-0.000413782
0.00056606
-0.000484843
0.000509134
-0.000548348
0.00044609
-0.000604892
0.000377912
-0.000655166
0.00030491
-0.000699797
0.000226673
-0.000739124
0.000141955
-0.000772704
4.857e-05
-0.000799434
-5.80204e-05
-0.00081502
-0.000183207
-0.000811528
-0.00033449
-0.00077484
-0.000520644
-0.000683084
-0.000746938
-0.000511397
-0.000996484
-0.000266052
-0.00115314
-0.000937689
-7.17478e-05
0.000480803
-0.000179917
0.000743821
-0.000286011
0.000755748
-0.000382903
0.000711834
-0.000469887
0.000653044
-0.000547407
0.000586655
-0.000616409
0.000515092
-0.000678141
0.000439644
-0.000734038
0.000360807
-0.000785608
0.000278244
-0.000834275
0.000190622
-0.000880971
9.52657e-05
-0.000926593
-1.23984e-05
-0.000968093
-0.000141707
-0.000998493
-0.00030409
-0.00100061
-0.000518532
-0.00094122
-0.000806323
-0.000771381
-0.00116632
-0.000466484
-0.00145803
-0.00140417
-8.67899e-05
0.000567593
-0.000212954
0.000869984
-0.000333113
0.000875908
-0.000440501
0.000819222
-0.000535219
0.000747762
-0.000618403
0.000669839
-0.000691759
0.000588448
-0.000757329
0.000505213
-0.000817431
0.000420909
-0.000874674
0.000335487
-0.000932062
0.000248009
-0.000992911
0.000156115
-0.00105939
5.40759e-05
-0.00113537
-6.57244e-05
-0.00121898
-0.000220481
-0.00129499
-0.000442514
-0.00132277
-0.000778546
-0.00121088
-0.00127822
-0.000858369
-0.00181054
-0.00226254
-0.000106441
0.000674034
-0.000255324
0.00101887
-0.000391964
0.00101255
-0.000510363
0.000937622
-0.000612001
0.0008494
-0.000699216
0.000757053
-0.000774878
0.00066411
-0.000841951
0.000572286
-0.000903589
0.000482547
-0.000963379
0.000395277
-0.00102564
0.00031027
-0.00109617
0.000226644
-0.00118443
0.000142334
-0.00130121
5.10549e-05
-0.00145547
-6.62139e-05
-0.00164853
-0.000249454
-0.00184876
-0.000578315
-0.00187522
-0.00125176
-0.00146012
-0.00222565
-0.00372266
-0.000161432
0.000835467
-0.000327979
0.00118541
-0.000471948
0.00115652
-0.000594362
0.00106004
-0.000699535
0.000954573
-0.000788984
0.000846502
-0.000864993
0.000740119
-0.000930625
0.000637918
-0.000989901
0.000541823
-0.00104759
0.000452967
-0.00111029
0.000372969
-0.00118613
0.000302482
-0.00128788
0.000244089
-0.00143378
0.000196952
-0.00165375
0.000153753
-0.00196297
5.97733e-05
-0.00235104
-0.000190254
-0.00250848
-0.00109432
-0.00191936
-0.00281477
-0.00564202
-0.000135154
0.00097062
-0.000373165
0.00142342
-0.000561218
0.00134457
-0.00070712
0.00120594
-0.000817669
0.00106512
-0.000899989
0.000928822
-0.000962269
0.000802399
-0.00101153
0.000687178
-0.00105339
0.000583683
-0.00109182
0.000491396
-0.00113282
0.000413969
-0.00118328
0.000352946
-0.00125901
0.000319816
-0.00138503
0.000322975
-0.00160777
0.000376494
-0.00194915
0.00040115
-0.00240923
0.000269825
-0.00254195
-0.000961596
-0.00170928
-0.00364744
-0.00735129
-0.000416379
0.001387
-0.00057638
0.00158343
-0.000707804
0.00147599
-0.000817071
0.0013152
-0.0008796
0.00112765
-0.000909002
0.000958225
-0.000917251
0.000810647
-0.000912416
0.000682343
-0.000901996
0.000573263
-0.000889165
0.000478565
-0.00088246
0.000407265
-0.000881861
0.000352347
-0.000899426
0.00033738
-0.00093078
0.000354329
-0.000996198
0.000441912
-0.00106998
0.000474936
-0.0011208
0.000320644
-0.00113163
-0.000950767
-0.00054169
-0.00423738
-0.00789298
-0.00126527
0.00265227
-0.00118003
0.00149819
-0.000939529
0.00123549
-0.000617352
0.000993027
-0.00028935
0.00079965
1.96671e-05
0.000649208
0.000297714
0.0005326
0.000543278
0.000436779
0.000755043
0.000361499
0.000938148
0.00029546
0.00109736
0.000248057
0.00123821
0.000211491
0.0013901
0.000185487
0.00155318
0.000191258
0.00182834
0.000166746
0.00214991
0.000153362
0.00255674
-8.61859e-05
0.00260537
-0.000999394
0.00172628
-0.00335829
-0.0061667
0.00265227
0.00415046
0.00538595
0.00637898
0.00717863
0.00782783
0.00836043
0.00879721
0.00915871
0.00945417
0.00970223
0.00991372
0.0100992
0.0102905
0.0104572
0.0106106
0.0105244
0.00952499
0.0061667
)
;

boundaryField
{
    movingWall
    {
        type            calculated;
        value           uniform 0;
    }
    fixedWalls
    {
        type            calculated;
        value           uniform 0;
    }
    frontAndBack
    {
        type            empty;
        value           nonuniform List<scalar> 0();
    }
}


// ************************************************************************* //
