/*--------------------------------*- C++ -*----------------------------------*\
  =========                 |
  \\      /  F ield         | OpenFOAM: The Open Source CFD Toolbox
   \\    /   O peration     | Website:  https://openfoam.org
    \\  /    A nd           | Version:  10
     \\/     M anipulation  |
\*---------------------------------------------------------------------------*/
FoamFile
{
    format      ascii;
    class       surfaceScalarField;
    location    "1.825";
    object      phi;
}
// * * * * * * * * * * * * * * * * * * * * * * * * * * * * * * * * * * * * * //

dimensions      [0 3 -1 0 0 0 0];

internalField   nonuniform List<scalar> 
22800
(
-5.25001e-06
5.3212e-06
-7.1193e-08
-1.25749e-05
7.22377e-06
1.01134e-07
-1.98684e-05
7.1545e-06
1.3896e-07
-2.6734e-05
6.71236e-06
1.5329e-07
-3.29776e-05
6.09555e-06
1.48045e-07
-3.84405e-05
5.33227e-06
1.30665e-07
-4.29834e-05
4.4378e-06
1.05021e-07
-4.64843e-05
3.42806e-06
7.29002e-08
-4.88401e-05
2.32037e-06
3.53782e-08
-4.99676e-05
1.13385e-06
-6.27862e-09
-4.9806e-05
-1.09894e-07
-5.17104e-08
-4.83194e-05
-1.3873e-06
-9.93723e-08
-4.5504e-05
-2.66758e-06
-1.47783e-07
-4.13922e-05
-3.9168e-06
-1.95016e-07
-3.60579e-05
-5.09593e-06
-2.38333e-07
-2.96227e-05
-6.16149e-06
-2.73775e-07
-2.22617e-05
-7.0663e-06
-2.94704e-07
-1.42244e-05
-7.74696e-06
-2.90341e-07
-6.01119e-06
-7.96018e-06
-2.52988e-07
-5.96347e-06
-4.77178e-08
-7.36174e-06
1.29616e-05
-2.78707e-07
-1.72151e-05
1.71778e-05
-1.00638e-07
-2.69915e-05
1.69815e-05
-5.05396e-08
-3.61778e-05
1.59163e-05
-1.76682e-08
-4.45117e-05
1.44324e-05
-3.00424e-09
-5.17816e-05
1.26e-05
2.15029e-09
-5.78039e-05
1.0459e-05
1.15205e-09
-6.24214e-05
8.05001e-06
-4.42109e-09
-6.55029e-05
5.41615e-06
-1.42796e-08
-6.69423e-05
2.60218e-06
-2.90051e-08
-6.66736e-05
-3.30963e-07
-4.76007e-08
-6.4645e-05
-3.34742e-06
-6.84705e-08
-6.086e-05
-6.36086e-06
-9.16801e-08
-5.53638e-05
-9.29742e-06
-1.1558e-07
-4.82549e-05
-1.20672e-05
-1.37682e-07
-3.9693e-05
-1.45693e-05
-1.54089e-07
-2.99083e-05
-1.66932e-05
-1.57741e-07
-1.92285e-05
-1.82895e-05
-1.3721e-07
-8.29483e-06
-1.8807e-05
-8.68782e-08
-1.43901e-05
1.31828e-07
-7.88815e-06
2.12051e-05
-3.55289e-07
-1.84364e-05
2.78994e-05
-1.73317e-07
-2.88883e-05
2.75516e-05
-1.18244e-07
-3.87022e-05
2.58094e-05
-7.92415e-08
-4.76032e-05
2.33905e-05
-5.70981e-08
-5.53693e-05
2.04103e-05
-4.42266e-08
-6.18092e-05
1.69359e-05
-3.70099e-08
-6.67592e-05
1.30344e-05
-3.4373e-08
-7.00825e-05
8.77547e-06
-3.60208e-08
-7.1672e-05
4.23355e-06
-4.18496e-08
-7.14413e-05
-5.10125e-07
-5.1611e-08
-6.93394e-05
-5.38466e-06
-6.46719e-08
-6.53609e-05
-1.02586e-05
-8.07644e-08
-5.95416e-05
-1.50184e-05
-9.82897e-08
-5.19738e-05
-1.95202e-05
-1.14781e-07
-4.28172e-05
-2.35998e-05
-1.26234e-07
-3.23103e-05
-2.70749e-05
-1.25162e-07
-2.0802e-05
-2.96985e-05
-9.93089e-08
-8.98365e-06
-3.0582e-05
-4.33166e-08
-2.35609e-05
1.87079e-07
-8.38983e-06
3.00164e-05
-4.21452e-07
-1.96269e-05
3.93689e-05
-2.32503e-07
-3.07547e-05
3.88523e-05
-1.72867e-07
-4.12002e-05
3.63834e-05
-1.2848e-07
-5.06758e-05
3.29672e-05
-1.0112e-07
-5.89515e-05
2.8769e-05
-8.28743e-08
-6.58311e-05
2.38856e-05
-7.00679e-08
-7.1147e-05
1.84119e-05
-6.17123e-08
-7.47577e-05
1.24439e-05
-5.76731e-08
-7.65475e-05
6.08145e-06
-5.80805e-08
-7.64288e-05
-5.6571e-07
-6.3153e-08
-7.43243e-05
-7.41767e-06
-7.14472e-08
-7.02145e-05
-1.42849e-05
-8.34897e-08
-6.41172e-05
-2.1018e-05
-9.78002e-08
-5.61071e-05
-2.74185e-05
-1.1179e-07
-4.63334e-05
-3.32523e-05
-1.21163e-07
-3.50383e-05
-3.82523e-05
-1.17706e-07
-2.25959e-05
-4.20531e-05
-8.78373e-08
-9.7662e-06
-4.33857e-05
-2.59584e-08
-3.35497e-05
2.22641e-07
-9.07727e-06
3.95833e-05
-4.89652e-07
-2.12498e-05
5.18303e-05
-2.88845e-07
-3.32956e-05
5.11221e-05
-2.23921e-07
-4.45962e-05
4.7858e-05
-1.74121e-07
-5.48465e-05
4.33597e-05
-1.42148e-07
-6.38079e-05
3.78499e-05
-1.19606e-07
-7.12794e-05
3.14598e-05
-1.02675e-07
-7.70908e-05
2.43137e-05
-9.0403e-08
-8.10971e-05
1.65329e-05
-8.27643e-08
-8.31748e-05
8.23928e-06
-8.00752e-08
-8.3227e-05
-4.3066e-07
-8.28829e-08
-8.1149e-05
-9.40685e-06
-8.88258e-08
-7.68959e-05
-1.84385e-05
-9.9488e-08
-7.04548e-05
-2.73457e-05
-1.13322e-07
-6.187e-05
-3.58757e-05
-1.27558e-07
-5.12688e-05
-4.37161e-05
-1.37397e-07
-3.8891e-05
-5.04966e-05
-1.33493e-07
-2.51432e-05
-5.57008e-05
-1.00164e-07
-1.08861e-05
-5.7612e-05
-3.08573e-08
-4.46822e-05
2.46395e-07
-9.98801e-06
5.0142e-05
-5.70679e-07
-2.3393e-05
6.55884e-05
-3.53126e-07
-3.6642e-05
6.46527e-05
-2.81574e-07
-4.90559e-05
6.04972e-05
-2.2527e-07
-6.0308e-05
5.47998e-05
-1.88063e-07
-7.01505e-05
4.78534e-05
-1.60957e-07
-7.83808e-05
3.98301e-05
-1.39943e-07
-8.48296e-05
3.08866e-05
-1.2409e-07
-8.93513e-05
2.1168e-05
-1.1344e-07
-9.18154e-05
1.08119e-05
-1.08501e-07
-9.2119e-05
-1.62052e-08
-1.1086e-07
-9.01147e-05
-1.12958e-05
-1.15365e-07
-8.57259e-05
-2.27007e-05
-1.26558e-07
-7.88909e-05
-3.40386e-05
-1.42133e-07
-6.96031e-05
-4.50044e-05
-1.59125e-07
-5.79472e-05
-5.52e-05
-1.72051e-07
-4.41469e-05
-6.4127e-05
-1.69913e-07
-2.86434e-05
-7.10704e-05
-1.3388e-07
-1.24362e-05
-7.37637e-05
-5.55562e-08
-5.7381e-05
2.62678e-07
-1.11519e-05
6.19679e-05
-6.74038e-07
-2.6125e-05
8.09965e-05
-4.34921e-07
-4.0893e-05
7.97753e-05
-3.54698e-07
-5.46984e-05
7.45923e-05
-2.89659e-07
-6.71898e-05
6.75365e-05
-2.45331e-07
-7.8113e-05
5.89886e-05
-2.12081e-07
-8.72699e-05
4.91728e-05
-1.85749e-07
-9.45e-05
3.82822e-05
-1.65432e-07
-9.96646e-05
2.64837e-05
-1.51158e-07
-0.000102633
1.39237e-05
-1.43104e-07
-0.000103282
7.73073e-07
-1.40717e-07
-0.000101441
-1.29876e-05
-1.49488e-07
-9.69696e-05
-2.7008e-05
-1.63625e-07
-8.97366e-05
-4.10882e-05
-1.8335e-07
-7.96536e-05
-5.48812e-05
-2.06121e-07
-6.67275e-05
-6.79003e-05
-2.25727e-07
-5.11354e-05
-7.94903e-05
-2.28859e-07
-3.33443e-05
-8.86695e-05
-1.92005e-07
-1.45373e-05
-9.24672e-05
-1.03408e-07
-7.21892e-05
2.70899e-07
-1.26107e-05
7.53883e-05
-8.09745e-07
-2.95393e-05
9.8469e-05
-5.43835e-07
-4.61802e-05
9.6868e-05
-4.51828e-07
-6.16774e-05
9.04638e-05
-3.74303e-07
-7.56528e-05
8.18313e-05
-3.19396e-07
-8.78534e-05
7.14662e-05
-2.76939e-07
-9.80976e-05
5.96597e-05
-2.42748e-07
-0.000106247
4.6648e-05
-2.16024e-07
-0.000112184
3.26173e-05
-1.96831e-07
-0.000115787
1.77114e-05
-1.84911e-07
-0.000116913
2.07672e-06
-1.77125e-07
-0.000115372
-1.43375e-05
-1.91752e-07
-0.00011094
-3.12293e-05
-2.1062e-07
-0.000103382
-4.84087e-05
-2.37427e-07
-9.24812e-05
-6.55118e-05
-2.70271e-07
-7.81085e-05
-8.19708e-05
-3.02283e-07
-6.03348e-05
-9.6947e-05
-3.16994e-07
-3.96192e-05
-0.000109101
-2.8397e-07
-1.73799e-05
-0.000114521
-1.85118e-07
-8.98333e-05
2.64247e-07
-1.44271e-05
9.08068e-05
-9.91426e-07
-3.37714e-05
0.000118506
-6.9255e-07
-5.26889e-05
0.000116369
-5.83723e-07
-7.02013e-05
0.000108464
-4.87441e-07
-8.59068e-05
9.79529e-05
-4.16022e-07
-9.95677e-05
8.54862e-05
-3.59107e-07
-0.000111039
7.14438e-05
-3.12745e-07
-0.000120228
5.61137e-05
-2.76377e-07
-0.000127058
3.96977e-05
-2.50341e-07
-0.000131434
2.23224e-05
-2.35236e-07
-0.000133211
4.08613e-06
-2.32535e-07
-0.000132171
-1.51343e-05
-2.43038e-07
-0.000127997
-3.51363e-05
-2.66817e-07
-0.00012031
-5.57917e-05
-3.04435e-07
-0.000108693
-7.6775e-05
-3.53841e-07
-9.27882e-05
-9.7468e-05
-4.07609e-07
-7.2452e-05
-0.000116838
-4.45426e-07
-4.80461e-05
-0.00013308
-4.26782e-07
-2.12771e-05
-0.00014097
-3.20926e-07
-0.000111337
2.26611e-07
-1.66984e-05
0.000108745
-1.23994e-06
-3.90214e-05
0.000141729
-8.99986e-07
-6.0684e-05
0.000138797
-7.65564e-07
-8.05575e-05
0.000128977
-6.39753e-07
-9.82277e-05
0.000116165
-5.41685e-07
-0.000113498
0.000101218
-4.61566e-07
-0.000126294
8.46355e-05
-3.96038e-07
-0.000136602
6.6767e-05
-3.44787e-07
-0.000144421
4.78245e-05
-3.08206e-07
-0.000149709
2.78977e-05
-2.87082e-07
-0.000152344
7.00387e-06
-2.83011e-07
-0.000152091
-1.50912e-05
-2.95767e-07
-0.000148529
-3.83706e-05
-3.27829e-07
-0.000141093
-6.28459e-05
-3.81956e-07
-0.000129077
-8.83334e-05
-4.5779e-07
-0.000111743
-0.000114253
-5.4843e-07
-8.85445e-05
-0.000139406
-6.30038e-07
-5.95422e-05
-0.000161434
-6.4859e-07
-2.67668e-05
-0.000173198
-5.46555e-07
-0.000138225
1.21143e-07
-1.95817e-05
0.000129916
-1.58935e-06
-4.55946e-05
0.000168938
-1.19604e-06
-7.05531e-05
0.000164776
-1.01968e-06
-9.31481e-05
0.000152417
-8.45263e-07
-0.000112983
0.000136703
-7.0309e-07
-0.000129946
0.000118767
-5.85364e-07
-0.000144085
9.92641e-05
-4.89654e-07
-0.000155518
7.86157e-05
-4.15587e-07
-0.000164365
5.70343e-05
-3.62984e-07
-0.000170683
3.4548e-05
-3.32067e-07
-0.000174409
1.10534e-05
-3.24102e-07
-0.000175321
-1.38382e-05
-3.40481e-07
-0.000172901
-4.0407e-05
-3.84179e-07
-0.000166367
-6.89182e-05
-4.61937e-07
-0.000154621
-9.95011e-05
-5.77944e-07
-0.00013633
-0.000131815
-7.29199e-07
-0.000110216
-0.00016463
-8.9038e-07
-7.56055e-05
-0.00019505
-9.93722e-07
-3.48245e-05
-0.000213057
-9.22333e-07
-0.000172932
-1.17731e-07
-2.33437e-05
0.000155358
-2.09832e-06
-5.39698e-05
0.000201193
-1.62956e-06
-8.28754e-05
0.000195061
-1.37921e-06
-0.000108546
0.000179209
-1.12145e-06
-0.000130668
0.00015973
-9.04845e-07
-0.000149292
0.000138117
-7.26041e-07
-0.000164662
0.000115218
-5.83424e-07
-0.0001771
9.15295e-05
-4.75437e-07
-0.000186915
6.72483e-05
-3.99774e-07
-0.00019432
4.23081e-05
-3.54687e-07
-0.000199369
1.64428e-05
-3.40405e-07
-0.000201912
-1.09358e-05
-3.59301e-07
-0.000201374
-4.0529e-05
-4.16285e-07
-0.000196763
-7.30052e-05
-5.24316e-07
-0.000186503
-0.000109064
-6.96655e-07
-0.000168407
-0.00014897
-9.4184e-07
-0.000139924
-0.000191871
-1.24176e-06
-9.87631e-05
-0.000234686
-1.52533e-06
-4.73446e-05
-0.000262931
-1.54458e-06
-0.000219595
-6.81489e-07
-2.84649e-05
0.000186698
-2.87443e-06
-6.49225e-05
0.000239935
-2.28405e-06
-9.85335e-05
0.000230564
-1.89294e-06
-0.000127576
0.000209738
-1.48653e-06
-0.000151961
0.000185257
-1.14231e-06
-0.000172016
0.000159037
-8.65023e-07
-0.000188297
0.00013215
-6.51645e-07
-0.000201424
0.000105153
-4.95934e-07
-0.000211978
7.81924e-05
-3.89694e-07
-0.00022041
5.10658e-05
-3.261e-07
-0.000226962
2.32968e-05
-3.01915e-07
-0.000231652
-5.9271e-06
-3.19111e-07
-0.000233953
-3.78411e-05
-3.86144e-07
-0.000232753
-7.36809e-05
-5.24571e-07
-0.000225998
-0.000115056
-7.63645e-07
-0.000210399
-0.000163429
-1.1385e-06
-0.000181458
-0.00021915
-1.66219e-06
-0.000133414
-0.00028042
-2.31051e-06
-6.83034e-05
-0.000325481
-2.56013e-06
-0.000285936
-1.96236e-06
-3.58906e-05
0.000226686
-4.09816e-06
-7.97821e-05
0.000287107
-3.28076e-06
-0.000118906
0.000272308
-2.61976e-06
-0.000151443
0.00024422
-1.94514e-06
-0.000177791
0.000212986
-1.38166e-06
-0.000198728
0.000180924
-9.49299e-07
-0.00021528
0.000149336
-6.34874e-07
-0.000228488
0.00011878
-4.18231e-07
-0.000239301
8.9282e-05
-2.77047e-07
-0.000248494
6.04513e-05
-1.92639e-07
-0.000256591
3.15471e-05
-1.53426e-07
-0.000263893
1.53158e-06
-1.56345e-07
-0.000270144
-3.13723e-05
-2.18072e-07
-0.000274345
-6.91127e-05
-3.66682e-07
-0.000274197
-0.00011455
-6.53829e-07
-0.000265243
-0.00017122
-1.16329e-06
-0.000240524
-0.000241871
-1.99834e-06
-0.000187349
-0.000330249
-3.34572e-06
-0.000106504
-0.000402147
-4.17916e-06
-0.000387593
-4.84692e-06
-4.69305e-05
0.000280047
-6.43061e-06
-0.000100414
0.000345547
-4.95556e-06
-0.00014598
0.000321544
-3.67007e-06
-0.000181856
0.000282558
-2.46097e-06
-0.000209408
0.000242048
-1.51093e-06
-0.000230174
0.000202533
-8.43027e-07
-0.000245894
0.000165454
-3.98372e-07
-0.000258175
0.000131179
-1.18657e-07
-0.000268415
9.94763e-05
4.60268e-08
-0.000277778
6.96813e-05
1.32848e-07
-0.000287189
4.07747e-05
1.83835e-07
-0.00029735
1.14616e-05
2.31371e-07
-0.000308597
-2.03236e-05
1.98218e-07
-0.000320522
-5.73145e-05
1.26273e-07
-0.000331352
-0.00010365
-7.02286e-08
-0.00033568
-0.000166295
-5.97159e-07
-0.000324959
-0.000250888
-1.70359e-06
-0.000273236
-0.000377817
-4.15511e-06
-0.000177763
-0.000491502
-6.11752e-06
-0.000554199
-1.11569e-05
-7.00339e-05
0.000359423
-9.34185e-06
-0.000132769
0.000415629
-7.34721e-06
-0.000183876
0.000377553
-4.90265e-06
-0.000221512
0.00032298
-2.78645e-06
-0.000248466
0.000270196
-1.19366e-06
-0.00026714
0.00022141
-2.02552e-07
-0.000280229
0.000178195
3.47236e-07
-0.000290026
0.000140348
6.28783e-07
-0.000298414
0.000107109
7.55135e-07
-0.000306961
7.74178e-05
8.10066e-07
-0.000317076
5.00431e-05
8.46251e-07
-0.000329871
2.33707e-05
8.86206e-07
-0.000346454
-4.85996e-06
1.11928e-06
-0.000368207
-3.68592e-05
1.29826e-06
-0.000395044
-7.83318e-05
1.51885e-06
-0.000421497
-0.000141447
1.60481e-06
-0.000441842
-0.000231693
1.15001e-06
-0.000408193
-0.000409203
-2.26323e-06
-0.000310596
-0.000583984
-5.11569e-06
-0.000842895
-2.19e-05
-8.5761e-05
0.000463576
-1.83914e-05
-0.000171161
0.000511747
-1.07182e-05
-0.000233306
0.00044578
-6.08264e-06
-0.000272458
0.00036397
-1.83803e-06
-0.000295852
0.000292921
6.69313e-07
-0.00030887
0.000232575
1.8527e-06
-0.000316147
0.000183175
2.29785e-06
-0.000320848
0.00014269
2.35768e-06
-0.000325219
0.000109205
2.2765e-06
-0.000330965
8.09673e-05
2.19639e-06
-0.000339555
5.64085e-05
2.22441e-06
-0.000352824
3.41932e-05
2.44632e-06
-0.000373949
1.33363e-05
2.92908e-06
-0.000404609
-9.98606e-06
3.78717e-06
-0.000452067
-3.63632e-05
5.48893e-06
-0.000507648
-9.40624e-05
8.19633e-06
-0.000588508
-0.000162353
1.15201e-05
-0.000597943
-0.000409492
9.72363e-06
-0.000511691
-0.00067861
8.37396e-06
-0.00132343
-3.11585e-05
-0.000218415
0.000711073
-2.90823e-05
-0.000275191
0.000591653
-2.31296e-05
-0.000309984
0.000490365
-9.79184e-06
-0.000328413
0.000384234
-1.83417e-06
-0.000332107
0.000293311
3.30356e-06
-0.000328482
0.000223543
5.40757e-06
-0.000322144
0.000170887
5.94986e-06
-0.000315666
0.000130525
5.68748e-06
-0.000311078
9.94533e-05
5.16427e-06
-0.000310104
7.53139e-05
4.67897e-06
-0.000314689
5.65735e-05
4.41948e-06
-0.000326844
4.18193e-05
4.52912e-06
-0.000349924
3.1059e-05
5.35734e-06
-0.000387482
2.00781e-05
7.49415e-06
-0.000448692
1.28213e-05
1.20258e-05
-0.0005335
-2.95402e-05
2.02849e-05
-0.000644854
-8.66889e-05
3.56909e-05
-0.000700123
-0.00039756
4.33368e-05
-0.000584227
-0.000845886
5.138e-05
-0.00187435
-3.33026e-05
-0.000397393
0.0011667
-5.82302e-05
-0.000346718
0.00054926
-8.28266e-06
-0.000262148
0.000398648
7.14678e-06
-0.0001763
0.000278429
1.99575e-05
-9.77243e-05
0.000191503
2.32319e-05
-3.15125e-05
0.000135968
2.13629e-05
2.13243e-05
0.000100041
1.80096e-05
6.19646e-05
7.53248e-05
1.45596e-05
9.22345e-05
5.74142e-05
1.17691e-05
0.00011378
4.40194e-05
9.74865e-06
0.00012766
3.4066e-05
8.62777e-06
0.000135007
2.60256e-05
8.4465e-06
0.00013578
2.03409e-05
9.94521e-06
0.00012752
1.45948e-05
1.37436e-05
0.000114749
2.97663e-06
2.26155e-05
6.86524e-05
-2.196e-05
3.85165e-05
3.7005e-05
-0.000123143
6.81017e-05
-0.000100114
-0.000353565
9.31244e-05
-0.000124056
-0.000922389
0.000100445
-0.00191773
-8.06797e-05
0.00125178
-8.50868e-05
0.0018669
-6.58603e-05
0.00230676
-4.12071e-05
0.00259946
-1.42679e-05
0.00278878
2.17954e-06
0.00291471
1.0036e-05
0.00300201
1.27472e-05
0.00306463
1.27004e-05
0.00311065
1.13977e-05
0.003145
9.66228e-06
0.00317046
8.60644e-06
0.00318935
7.13766e-06
0.0032009
8.79455e-06
0.0032079
7.59512e-06
0.00319389
1.69865e-05
0.0031509
2.10254e-05
0.00298795
3.98068e-05
0.00257239
6.19988e-05
0.0016644
-1.44038e-05
-0.000253326
-7.08245e-06
7.11225e-06
-1.00993e-07
-1.6875e-05
9.88027e-06
1.337e-08
-2.65855e-05
9.80178e-06
4.77225e-08
-3.56768e-05
9.1778e-06
6.6825e-08
-4.39083e-05
8.30892e-06
7.05732e-08
-5.10798e-05
7.23861e-06
6.35994e-08
-5.70136e-05
5.99e-06
4.87808e-08
-6.15551e-05
4.58672e-06
2.76906e-08
-6.4576e-05
3.05438e-06
1.86635e-09
-6.59722e-05
1.42106e-06
-3.10607e-08
-6.56747e-05
-2.84231e-07
-6.50437e-08
-6.36445e-05
-2.028e-06
-1.01574e-07
-5.98841e-05
-3.76893e-06
-1.39187e-07
-5.44417e-05
-5.46178e-06
-1.75654e-07
-4.7417e-05
-7.05485e-06
-2.08227e-07
-3.89665e-05
-8.49102e-06
-2.33185e-07
-2.93081e-05
-9.70814e-06
-2.45035e-07
-1.87443e-05
-1.06179e-05
-2.36144e-07
-7.93819e-06
-1.08565e-05
-2.02627e-07
-7.92414e-06
-6.17772e-08
-1.01856e-05
1.72695e-05
-2.50282e-07
-2.36538e-05
2.33888e-05
-1.40935e-07
-3.69652e-05
2.31567e-05
-9.41069e-08
-4.94091e-05
2.16634e-05
-5.93381e-08
-6.06501e-05
1.95862e-05
-3.93788e-08
-7.04123e-05
1.70326e-05
-2.95379e-08
-7.84563e-05
1.4062e-05
-2.68933e-08
-8.45778e-05
1.0734e-05
-3.01241e-08
-8.86099e-05
7.11068e-06
-3.85661e-08
-9.04224e-05
3.25617e-06
-5.15788e-08
-8.99346e-05
-7.5102e-07
-6.85872e-08
-8.70951e-05
-4.84768e-06
-8.82903e-08
-8.19171e-05
-8.92853e-06
-1.10111e-07
-7.44699e-05
-1.28925e-05
-1.31984e-07
-6.48904e-05
-1.66209e-05
-1.51147e-07
-5.33905e-05
-1.99813e-05
-1.63671e-07
-4.02644e-05
-2.28285e-05
-1.6352e-07
-2.59219e-05
-2.49553e-05
-1.42455e-07
-1.12252e-05
-2.55422e-05
-9.79117e-08
-1.9073e-05
5.55028e-08
-1.09663e-05
2.8201e-05
-3.20484e-07
-2.54429e-05
3.79032e-05
-2.11157e-07
-3.97302e-05
3.74853e-05
-1.59505e-07
-5.30747e-05
3.50481e-05
-1.1946e-07
-6.51226e-05
3.16699e-05
-9.28692e-08
-7.55845e-05
2.75258e-05
-7.56056e-08
-8.42098e-05
2.27153e-05
-6.50216e-08
-9.07862e-05
1.73361e-05
-6.00335e-08
-9.514e-05
1.14886e-05
-6.0182e-08
-9.71384e-05
5.27783e-06
-6.51346e-08
-9.66798e-05
-1.18681e-06
-7.43746e-08
-9.37118e-05
-7.79325e-06
-8.70878e-08
-8.82381e-05
-1.43805e-05
-1.02534e-07
-8.03178e-05
-2.07924e-05
-1.18773e-07
-7.00816e-05
-2.68389e-05
-1.33024e-07
-5.77427e-05
-3.23052e-05
-1.41205e-07
-4.36071e-05
-3.69523e-05
-1.36887e-07
-2.81118e-05
-4.04387e-05
-1.11204e-07
-1.21883e-05
-4.14469e-05
-6.20571e-08
-3.11713e-05
9.71413e-08
-1.16868e-05
3.98546e-05
-3.88285e-07
-2.71305e-05
5.33924e-05
-2.78027e-07
-4.23607e-05
5.2764e-05
-2.21366e-07
-5.65787e-05
4.93123e-05
-1.74717e-07
-6.94135e-05
4.45456e-05
-1.4199e-07
-8.05657e-05
3.87136e-05
-1.18387e-07
-8.97788e-05
3.19596e-05
-1.01318e-07
-9.68362e-05
2.44216e-05
-8.98488e-08
-0.000101559
1.62378e-05
-8.36575e-08
-0.000103806
7.54928e-06
-8.26207e-08
-0.000103471
-1.4984e-06
-8.66271e-08
-0.000100474
-1.07676e-05
-9.46599e-08
-9.47988e-05
-2.00327e-05
-1.06147e-07
-8.64834e-05
-2.90863e-05
-1.1928e-07
-7.56369e-05
-3.76659e-05
-1.31171e-07
-6.24602e-05
-4.54657e-05
-1.37411e-07
-4.72636e-05
-5.21358e-05
-1.30895e-07
-3.05152e-05
-5.71732e-05
-1.01704e-07
-1.32386e-05
-5.87014e-05
-4.80456e-08
-4.43099e-05
1.22612e-07
-1.26679e-05
5.2495e-05
-4.62107e-07
-2.94184e-05
7.02023e-05
-3.48321e-07
-4.59219e-05
6.93291e-05
-2.8558e-07
-6.13152e-05
6.47635e-05
-2.32001e-07
-7.52048e-05
5.84857e-05
-1.92638e-07
-8.728e-05
5.08318e-05
-1.62648e-07
-9.72794e-05
4.19957e-05
-1.39458e-07
-0.000104985
3.21586e-05
-1.2227e-07
-0.000110214
2.14952e-05
-1.10947e-07
-0.000112817
1.01781e-05
-1.05566e-07
-0.000112676
-1.6166e-06
-1.06184e-07
-0.000109679
-1.37418e-05
-1.11467e-07
-0.000103779
-2.59106e-05
-1.2135e-07
-9.4975e-05
-3.78696e-05
-1.33982e-07
-8.33385e-05
-4.92838e-05
-1.46233e-07
-6.9043e-05
-5.97453e-05
-1.53143e-07
-5.23963e-05
-6.87695e-05
-1.46522e-07
-3.39062e-05
-7.56487e-05
-1.1474e-07
-1.47307e-05
-7.78523e-05
-5.5487e-08
-5.89285e-05
1.34202e-07
-1.39681e-05
6.64436e-05
-5.51161e-07
-3.24401e-05
8.87526e-05
-4.31443e-07
-5.06121e-05
8.75803e-05
-3.60757e-07
-6.75343e-05
8.17589e-05
-2.98395e-07
-8.27854e-05
7.37996e-05
-2.50887e-07
-9.60442e-05
6.4143e-05
-2.13339e-07
-0.000107049
5.30436e-05
-1.83241e-07
-0.000115584
4.07299e-05
-1.59943e-07
-0.000121471
2.74116e-05
-1.43462e-07
-0.000124552
1.32854e-05
-1.3407e-07
-0.000124698
-1.44983e-06
-1.32204e-07
-0.000121753
-1.66655e-05
-1.36022e-07
-0.000115626
-3.20179e-05
-1.46187e-07
-0.000106256
-4.72217e-05
-1.60683e-07
-9.36493e-05
-6.18733e-05
-1.76087e-07
-7.79279e-05
-7.54522e-05
-1.86673e-07
-5.93781e-05
-8.73065e-05
-1.82663e-07
-3.85502e-05
-9.64607e-05
-1.49801e-07
-1.67876e-05
-9.95861e-05
-8.44148e-08
-7.55866e-05
1.3325e-07
-1.56328e-05
8.20674e-05
-6.65034e-07
-3.62977e-05
0.00010952
-5.37302e-07
-5.65771e-05
0.000107961
-4.55802e-07
-7.54102e-05
0.000100684
-3.8133e-07
-9.2344e-05
9.08107e-05
-3.22566e-07
-0.000107052
7.89132e-05
-2.74708e-07
-0.00011928
6.53215e-05
-2.35433e-07
-0.000128829
5.03177e-05
-2.04302e-07
-0.00013553
3.41437e-05
-1.8148e-07
-0.00013923
1.70095e-05
-1.67326e-07
-0.000139787
-8.71488e-07
-1.62487e-07
-0.000136993
-1.94423e-05
-1.66321e-07
-0.000130694
-3.83026e-05
-1.78662e-07
-0.000120736
-5.71654e-05
-1.97627e-07
-0.000107024
-7.55713e-05
-2.1968e-07
-8.95817e-05
-9.28821e-05
-2.38176e-07
-6.86355e-05
-0.00010824
-2.41114e-07
-4.47664e-05
-0.000120312
-2.10265e-07
-1.95638e-05
-0.000124753
-1.39072e-07
-9.49968e-05
1.17332e-07
-1.77255e-05
9.97981e-05
-8.14972e-07
-4.11297e-05
0.000133057
-6.7721e-07
-6.40103e-05
0.00013097
-5.80436e-07
-8.51666e-05
0.000121954
-4.88425e-07
-0.000104114
0.000109851
-4.13135e-07
-0.000120529
9.54023e-05
-3.50209e-07
-0.000134188
7.9035e-05
-2.97748e-07
-0.000144924
6.10936e-05
-2.5564e-07
-0.0001526
4.18472e-05
-2.24227e-07
-0.000157073
2.15016e-05
-2.03923e-07
-0.000158211
2.85061e-07
-1.9581e-07
-0.000155729
-2.19162e-05
-2.00068e-07
-0.000149397
-4.46284e-05
-2.16317e-07
-0.000138929
-6.76282e-05
-2.42916e-07
-0.000124064
-9.04298e-05
-2.76482e-07
-0.000104654
-0.000112286
-3.09441e-07
-8.07883e-05
-0.000132096
-3.26806e-07
-5.30361e-05
-0.000148043
-3.04384e-07
-2.33029e-05
-0.000154441
-2.30165e-07
-0.000118114
7.83077e-08
-2.03404e-05
0.000120164
-1.01651e-06
-4.71351e-05
0.000160026
-8.66372e-07
-7.31816e-05
0.00015718
-7.47095e-07
-9.71056e-05
0.000146019
-6.28682e-07
-0.000118396
0.000131254
-5.28236e-07
-0.000136758
0.000113848
-4.4253e-07
-0.000152023
9.43576e-05
-3.70483e-07
-0.000164093
7.32e-05
-3.12435e-07
-0.000172893
5.06659e-05
-2.68865e-07
-0.000178324
2.69371e-05
-2.39805e-07
-0.00018022
2.17184e-06
-2.23904e-07
-0.000178314
-2.38332e-05
-2.32286e-07
-0.000172221
-5.07329e-05
-2.5445e-07
-0.000161477
-7.83843e-05
-2.92655e-07
-0.000145569
-0.000106347
-3.44615e-07
-0.000124056
-0.000133805
-4.02283e-07
-9.67546e-05
-0.000159395
-4.4704e-07
-6.4106e-05
-0.000180673
-4.45971e-07
-2.84062e-05
-0.000190086
-3.7598e-07
-0.000146297
3.91677e-09
-2.36212e-05
0.000143838
-1.29296e-06
-5.4606e-05
0.000191238
-1.12691e-06
-8.44741e-05
0.000187255
-9.72858e-07
-0.00011164
0.000173358
-8.13308e-07
-0.000135585
0.000155331
-6.73599e-07
-0.000156082
0.000134436
-5.5288e-07
-0.000173067
0.000111398
-4.51437e-07
-0.000186562
8.67199e-05
-3.70106e-07
-0.000196596
6.07017e-05
-3.09369e-07
-0.000203149
3.34719e-05
-2.69519e-07
-0.000206078
5.07e-06
-2.51482e-07
-0.000205101
-2.48502e-05
-2.55824e-07
-0.000199694
-5.61839e-05
-2.84135e-07
-0.000189148
-8.89733e-05
-3.38395e-07
-0.000172582
-0.000122953
-4.18024e-07
-0.000149071
-0.000157348
-5.15938e-07
-0.000117916
-0.000190571
-6.10129e-07
-7.9168e-05
-0.000219413
-6.5586e-07
-3.55721e-05
-0.000233622
-6.06308e-07
-0.000181586
-1.62286e-07
-2.77954e-05
0.000171725
-1.68108e-06
-6.39807e-05
0.000227719
-1.49238e-06
-9.84409e-05
0.000221978
-1.28181e-06
-0.000129339
0.000204468
-1.05611e-06
-0.000156197
0.00018234
-8.53985e-07
-0.000178922
0.000157254
-6.79081e-07
-0.000197632
0.000130152
-5.33609e-07
-0.000212538
0.000101629
-4.18498e-07
-0.000223845
7.19788e-05
-3.33265e-07
-0.000231663
4.1235e-05
-2.77054e-07
-0.000235931
9.26343e-06
-2.4982e-07
-0.000236372
-2.44976e-05
-2.52366e-07
-0.000232332
-6.03198e-05
-2.8801e-07
-0.000222816
-9.85882e-05
-3.62772e-07
-0.000206434
-0.000139432
-4.81246e-07
-0.000181502
-0.000182368
-6.41394e-07
-0.000146382
-0.00022576
-8.21182e-07
-0.000100186
-0.000265639
-9.63383e-07
-4.60735e-05
-0.000287686
-9.71187e-07
-0.000227307
-4.70036e-07
-3.32387e-05
0.000205107
-2.24124e-06
-7.59354e-05
0.000270802
-2.01489e-06
-0.000115896
0.000262266
-1.70789e-06
-0.000151003
0.000239826
-1.37278e-06
-0.000180918
0.00021242
-1.0701e-06
-0.000205797
0.000182218
-8.11371e-07
-0.000226052
0.000150426
-6.00874e-07
-0.00024219
0.00011773
-4.38138e-07
-0.000254676
8.43845e-05
-3.19549e-07
-0.000263834
5.02794e-05
-2.40931e-07
-0.000269753
1.5042e-05
-1.99734e-07
-0.000272233
-2.21807e-05
-1.96213e-07
-0.000270538
-6.21954e-05
-2.36329e-07
-0.00026338
-0.000105937
-3.32546e-07
-0.000248745
-0.000154264
-4.99541e-07
-0.000223849
-0.000207457
-7.48893e-07
-0.000185428
-0.000264354
-1.06901e-06
-0.000130519
-0.000320672
-1.40169e-06
-6.24208e-05
-0.000355786
-1.54358e-06
-0.000289345
-1.06459e-06
-4.06021e-05
0.000245911
-3.07681e-06
-9.1537e-05
0.00032223
-2.77746e-06
-0.000138052
0.000309186
-2.29799e-06
-0.000177759
0.000279824
-1.7772e-06
-0.000210662
0.000245492
-1.31102e-06
-0.000237343
0.000208958
-9.23661e-07
-0.000258678
0.000171729
-6.19734e-07
-0.000275603
0.000134552
-3.93257e-07
-0.000288962
9.75863e-05
-2.32688e-07
-0.000299393
6.05111e-05
-1.26627e-07
-0.000307229
2.26426e-05
-6.64272e-08
-0.000312466
-1.72134e-05
-4.96145e-08
-0.000314409
-6.05545e-05
-8.34688e-08
-0.000311583
-0.0001091
-1.88932e-07
-0.000301331
-0.000164878
-4.00194e-07
-0.000279457
-0.00022971
-7.60051e-07
-0.000240177
-0.000304005
-1.29104e-06
-0.000176142
-0.000385035
-1.98325e-06
-8.99983e-05
-0.00044207
-2.41861e-06
-0.000379098
-2.20748e-06
-5.11208e-05
0.00029729
-4.35607e-06
-0.000112575
0.000384303
-3.89931e-06
-0.000166766
0.000363865
-3.10735e-06
-0.000211214
0.000324595
-2.26836e-06
-0.000246647
0.00028108
-1.5363e-06
-0.000274335
0.000236652
-9.55612e-07
-0.000295851
0.000193134
-5.24041e-07
-0.000312735
0.000151239
-2.2054e-07
-0.000326335
0.000110928
-1.89795e-08
-0.000337726
7.15812e-05
1.28432e-07
-0.000347595
3.2136e-05
2.222e-07
-0.000356297
-8.94264e-06
2.74876e-07
-0.000363433
-5.39098e-05
2.72577e-07
-0.000367629
-0.000105457
1.8682e-07
-0.000365875
-0.000167237
-4.98793e-08
-0.0003525
-0.000243756
-4.91389e-07
-0.000318527
-0.000338687
-1.28926e-06
-0.000247961
-0.00045633
-2.61725e-06
-0.00014123
-0.0005493
-3.67983e-06
-0.000520627
-4.54814e-06
-6.61571e-05
0.000363578
-6.56139e-06
-0.000141307
0.00046014
-5.64358e-06
-0.000204575
0.000427686
-4.22213e-06
-0.000253568
0.000373933
-2.80709e-06
-0.000290455
0.000318095
-1.63859e-06
-0.000317673
0.000263804
-7.76883e-07
-0.000337854
0.000213105
-1.8832e-07
-0.000353344
0.000166406
2.0383e-07
-0.000366114
0.000123285
4.5974e-07
-0.000377752
8.27256e-05
6.26579e-07
-0.000389418
4.32352e-05
7.50816e-07
-0.000402131
3.1284e-06
8.73537e-07
-0.000415973
-4.08237e-05
9.54109e-07
-0.000430418
-9.18848e-05
9.99032e-07
-0.000443026
-0.000155608
9.09261e-07
-0.000447046
-0.000240823
4.89317e-07
-0.000431371
-0.000355522
-5.4358e-07
-0.000363737
-0.000525293
-2.8255e-06
-0.000238579
-0.000675554
-5.02144e-06
-0.000761073
-9.2902e-06
-9.71309e-05
0.000460809
-9.44197e-06
-0.000185998
0.000549746
-8.08541e-06
-0.00025687
0.000499219
-5.56388e-06
-0.000308217
0.000425698
-3.20406e-06
-0.000344116
0.000354152
-1.352e-06
-0.00036827
0.000287866
-1.10621e-07
-0.0003847
0.000229219
6.62764e-07
-0.000396722
0.000177959
1.09721e-06
-0.000406993
0.000132974
1.33742e-06
-0.00041764
9.26916e-05
1.49048e-06
-0.000430493
5.53034e-05
1.63145e-06
-0.000446686
1.84012e-05
1.80655e-06
-0.000468128
-2.0393e-05
2.13071e-06
-0.000495729
-6.54994e-05
2.51315e-06
-0.000529427
-0.00012331
2.91964e-06
-0.000562525
-0.000209211
3.09053e-06
-0.000587579
-0.000331864
2.54542e-06
-0.000546003
-0.000568328
-8.04209e-07
-0.000416282
-0.000806148
-4.24357e-06
-0.00118209
-1.71682e-05
-0.000113263
0.000572176
-1.64958e-05
-0.000235531
0.00067278
-1.14844e-05
-0.000323474
0.000588078
-6.9988e-06
-0.00037772
0.000480886
-2.7809e-06
-0.000408972
0.000385942
1.30962e-07
-0.000425221
0.000304301
1.66704e-06
-0.000433461
0.000237317
2.44011e-06
-0.000438344
0.00018245
2.7496e-06
-0.000443076
0.000137131
2.85234e-06
-0.000449973
9.88653e-05
2.91982e-06
-0.000460982
6.54519e-05
3.08427e-06
-0.00047847
3.48723e-05
3.46384e-06
-0.000506066
5.96028e-06
4.17145e-06
-0.000545332
-2.7787e-05
5.34088e-06
-0.000604771
-6.55056e-05
7.12241e-06
-0.000674795
-0.00014033
9.33986e-06
-0.000770866
-0.00023582
1.15478e-05
-0.000779841
-0.000558369
8.73931e-06
-0.000642852
-0.000939617
4.85415e-06
-0.00183109
-2.50109e-05
-0.00026953
0.000837636
-2.50119e-05
-0.000365798
0.000766707
-2.07884e-05
-0.00042563
0.000648375
-1.02574e-05
-0.000455924
0.000512348
-3.00202e-06
-0.000460661
0.000391972
2.01121e-06
-0.000453087
0.000297691
4.44293e-06
-0.000441148
0.000225925
5.40282e-06
-0.00042927
0.000170739
5.52065e-06
-0.00042053
0.000128244
5.31025e-06
-0.000417231
9.51595e-05
5.08576e-06
-0.000421742
6.93124e-05
5.07076e-06
-0.000436252
4.84609e-05
5.45e-06
-0.000464369
3.28949e-05
6.54004e-06
-0.000509842
1.64954e-05
8.68409e-06
-0.000580985
4.94003e-06
1.2723e-05
-0.000673319
-4.62516e-05
1.8541e-05
-0.000780014
-0.000121891
2.84566e-05
-0.000812918
-0.000513643
3.15154e-05
-0.000601499
-0.00113131
3.16521e-05
-0.00243397
-3.19127e-05
-0.000577674
0.00139955
-4.24751e-05
-0.000532302
0.000726117
-1.30648e-05
-0.000426002
0.000549396
-1.73727e-07
-0.000299098
0.000394825
1.0577e-05
-0.000176255
0.000277453
1.49082e-05
-7.00201e-05
0.000197651
1.51673e-05
1.62049e-05
0.000143904
1.38061e-05
8.31162e-05
0.000106521
1.18668e-05
0.000133326
7.96415e-05
1.01622e-05
0.000169608
5.9743e-05
8.88309e-06
0.000194001
4.52835e-05
8.26372e-06
0.000209008
3.34448e-05
8.45537e-06
0.000216161
2.56268e-05
1.00601e-05
0.00021545
1.74909e-05
1.34598e-05
0.000217769
4.36174e-06
2.08742e-05
0.000200148
-2.32494e-05
3.31353e-05
0.000230368
-0.000138275
5.42666e-05
0.000152431
-0.000410042
6.74591e-05
0.000161372
-0.00110532
6.55171e-05
-0.00228695
-6.63351e-05
0.0013759
-6.14347e-05
0.00208785
-5.1692e-05
0.00263175
-3.57098e-05
0.00302893
-1.66246e-05
0.00331081
-2.25051e-06
0.00351295
5.55325e-06
0.00366047
9.12598e-06
0.00376959
1.01059e-05
0.0038509
9.72414e-06
0.00391159
8.72e-06
0.00395741
8.06398e-06
0.0039909
7.09925e-06
0.00401683
8.48758e-06
0.00403398
7.93837e-06
0.00404046
1.48674e-05
0.00402043
1.78066e-05
0.00389229
2.96664e-05
0.00350045
4.38062e-05
0.00238124
-5.19126e-07
-0.000159033
-7.27326e-06
7.28326e-06
-1.11e-07
-1.73562e-05
1.01658e-05
-6.95753e-08
-2.73539e-05
1.00891e-05
-4.36212e-08
-3.67081e-05
9.44497e-06
-2.38986e-08
-4.51719e-05
8.54752e-06
-1.31309e-08
-5.25411e-05
7.44252e-06