/*--------------------------------*- C++ -*----------------------------------*\
  =========                 |
  \\      /  F ield         | OpenFOAM: The Open Source CFD Toolbox
   \\    /   O peration     | Website:  https://openfoam.org
    \\  /    A nd           | Version:  10
     \\/     M anipulation  |
\*---------------------------------------------------------------------------*/
FoamFile
{
    format      ascii;
    class       volVectorField;
    location    "1.275";
    object      U;
}
// * * * * * * * * * * * * * * * * * * * * * * * * * * * * * * * * * * * * * //

dimensions      [0 1 -1 0 0 0 0];

internalField   nonuniform List<vector> 
496
(
(10.0272 0.0862914 0)
(9.85842 -0.191448 0)
(10.2519 -0.137554 0)
(10.7625 -0.183324 0)
(10.1886 0.556993 0)
(9.67136 -1.3993 0)
(10.3412 -0.36542 0)
(10.7703 -1.17505 0)
(11.0039 1.52988 0)
(8.8805 -3.1841 0)
(11.2868 0.0258603 0)
(10.6697 -4.30502 0)
(12.9091 1.53371 0)
(7.48588 -2.6075 0)
(13.8796 0.658421 0)
(9.85485 -6.56119 0)
(11.5419 -0.229145 1.63691e-18)
(12.1557 -0.127578 1.00243e-18)
(11.7296 -0.447184 -2.47407e-18)
(12.4804 0.296706 3.51356e-18)
(13.0114 -1.91492 8.35764e-19)
(13.0122 -0.166789 -4.51738e-18)
(14.1017 -5.69996 -4.66224e-17)
(15.8494 -4.11434 7.81218e-17)
(12.6925 -0.154753 0)
(12.7943 -0.0451043 0)
(12.9041 0.0423482 0)
(12.8361 0.14004 0)
(13.014 0.226875 0)
(13.3355 -0.262528 0)
(13.4067 -0.742916 0)
(13.3443 -0.96527 0)
(11.9844 1.64665 0)
(12.0605 2.24942 0)
(12.0367 1.08185 0)
(12.5322 0.441924 0)
(11.9932 -2.80492 0)
(11.8492 -2.34072 0)
(7.75835 -0.790353 0)
(10.5036 -1.60883 0)
(12.9884 0.161737 0)
(13.0709 0.246328 0)
(13.2798 0.315279 0)
(13.366 0.413831 0)
(13.4388 0.448197 0)
(13.3702 0.454375 0)
(13.276 0.443869 0)
(13.1426 0.430609 0)
(13.0102 0.42645 0)
(12.8691 0.416136 0)
(12.7445 0.412886 0)
(12.6081 0.405052 0)
(12.5213 0.394002 0)
(12.3776 0.39506 0)
(12.3455 0.379488 0)
(12.1947 0.399339 0)
(12.192 0.383072 0)
(11.9798 0.417886 0)
(11.9343 0.394079 0)
(11.6509 0.427273 0)
(11.5093 0.413847 0)
(11.1979 0.460445 0)
(11.0041 0.453626 0)
(10.8364 0.44701 0)
(10.701 0.393685 0)
(10.7345 0.305018 0)
(10.658 0.272196 0)
(10.7965 0.201743 0)
(10.7601 0.232525 0)
(10.8085 0.215854 0)
(10.7565 0.295231 0)
(10.5702 0.323123 0)
(10.4735 0.370469 0)
(10.0474 0.435747 0)
(9.93744 0.42114 0)
(9.56079 0.454151 0)
(9.5111 0.33903 0)
(9.48758 0.29676 0)
(9.48319 0.187205 0)
(9.82653 0.124611 0)
(13.4467 -1.00709 0)
(13.6189 -0.838445 0)
(13.8332 -0.680588 0)
(13.9181 -0.474663 0)
(13.9304 -0.37986 0)
(13.8474 -0.304434 0)
(13.796 -0.257824 0)
(13.6822 -0.22409 0)
(13.6311 -0.170545 0)
(13.497 -0.183454 0)
(13.4528 -0.140789 0)
(13.3247 -0.189279 0)
(13.3023 -0.162337 0)
(13.1964 -0.207093 0)
(13.1977 -0.188015 0)
(13.13 -0.179238 0)
(13.122 -0.165508 0)
(13.0393 -0.0881561 0)
(12.9536 -0.0829711 0)
(12.8466 0.0220647 0)
(12.6836 -0.0228278 0)
(12.5501 0.0107485 0)
(12.3166 -0.0951658 0)
(12.1948 -0.135307 0)
(12.015 -0.201555 0)
(12.0126 -0.265506 0)
(12.0168 -0.261474 0)
(12.0948 -0.341933 0)
(12.2094 -0.224668 0)
(12.2653 -0.203518 0)
(12.356 0.00190864 0)
(12.2543 0.0684613 0)
(12.2166 0.147867 0)
(12.0271 0.131625 0)
(11.8328 -0.0330912 0)
(11.6522 -0.0664408 0)
(11.3637 -0.298307 0)
(11.3937 -0.294796 0)
(11.2107 -0.46756 0)
(11.4952 -0.446618 0)
(12.8538 0.231813 0)
(13.2582 0.292156 0)
(13.4402 0.279505 0)
(13.4831 0.373646 0)
(13.5221 0.417924 0)
(13.3326 0.382334 0)
(13.4173 0.517733 0)
(13.1978 0.489935 0)
(13.2792 0.634721 0)
(13.0312 0.543478 0)
(13.0691 0.633684 0)
(12.8996 0.525925 0)
(12.8778 0.512005 0)
(12.8453 0.454941 0)
(12.7674 0.349304 0)
(12.8936 0.42594 0)
(12.7724 0.293377 0)
(12.9685 0.518686 0)
(12.8083 0.442581 0)
(12.9251 0.741403 0)
(12.6964 0.736692 0)
(12.6031 0.899657 0)
(12.4182 0.880639 0)
(12.2365 0.707098 0)
(12.2804 0.611463 0)
(12.0489 0.161642 0)
(12.1904 0.128086 0)
(12.0081 -0.212259 0)
(12.2764 -0.0412038 0)
(12.2716 -0.0660639 0)
(12.5185 0.161109 0)
(12.6509 0.463376 0)
(12.6685 0.593327 0)
(12.7112 1.01753 0)
(12.3829 0.908056 0)
(12.3677 1.08886 0)
(12.0007 0.658153 0)
(11.963 0.405982 0)
(11.7792 -0.0419942 0)
(11.7235 -0.33247 0)
(9.6433 -1.04009 0)
(10.9677 -0.988738 0)
(9.46576 -0.75661 0)
(11.214 -0.657829 0)
(10.0213 -0.537539 0)
(10.4011 -0.232757 0)
(10.4152 -0.163232 0)
(10.5138 -0.0160349 0)
(10.6679 -0.0174553 0)
(10.3562 0.0266551 0)
(10.728 0.0685605 0)
(10.3062 0.0267991 0)
(10.497 0.0481876 0)
(10.2621 -0.00672857 0)
(10.1813 -0.0248921 0)
(10.3292 -0.0621614 0)
(10.0537 -0.10529 0)
(10.5971 -0.0790289 0)
(10.2968 -0.0928138 0)
(10.9962 0.0269577 0)
(10.8199 0.0587905 0)
(11.2851 0.188392 0)
(11.1847 0.208265 0)
(11.0028 0.212844 0)
(10.8714 0.176866 0)
(10.1435 0.0633764 0)
(10.1586 0.0312201 0)
(9.4742 -0.138788 0)
(9.66723 -0.223299 0)
(9.53191 -0.334392 0)
(9.84996 -0.307758 0)
(10.3698 -0.198628 0)
(10.5519 -0.0845377 0)
(11.4104 0.104864 0)
(11.2906 0.130375 0)
(11.9627 0.203318 0)
(11.4908 0.109237 0)
(11.4229 0.0640571 0)
(10.892 0.0938364 0)
(10.1772 -0.0866877 0)
(11.7021 0.600333 -1.02796e-17)
(8.43763 -1.0292 -1.75399e-17)
(11.0889 -0.102211 3.05345e-17)
(5.15349 -5.1153 -8.20738e-17)
(12.371 -0.523045 1.05378e-17)
(7.93999 0.595923 1.78765e-17)
(11.5215 -0.0408706 -3.11983e-17)
(5.00848 4.31535 8.49194e-17)
(12.7034 7.6592 0)
(-11.3172 4.27319 0)
(4.15507 -2.44136 0)
(-1.13596 1.91245 0)
(-13.0227 0.286197 3.80385e-17)
(14.498 -1.74614 0)
(-0.0002839 -5.93243 0)
(4.16685 0.748592 0)
(-0.448393 -0.848727 0)
(0.0668623 -1.57911 0)
(0.975466 -0.195729 0)
(-0.595761 1.47065 0)
(-2.22521 -1.0887 0)
(1.63554 0.291532 0)
(-1.52756 0.461695 0)
(1.8684 0.623676 0)
(-0.287131 0.318685 0)
(1.21362 0.665981 0)
(0.897757 0.518605 0)
(1.1534 0.509289 0)
(1.34907 0.49539 0)
(1.59226 0.428755 0)
(1.69162 0.314407 0)
(2.1155 0.248092 0)
(2.18189 0.122091 0)
(2.66492 0.121632 0)
(2.73228 0.130267 0)
(3.26917 0.281175 0)
(3.16284 0.452743 0)
(3.65679 0.661088 0)
(3.35913 0.834263 0)
(3.62864 0.870111 0)
(3.5073 0.892416 0)
(3.56764 0.631725 0)
(3.73384 0.367177 0)
(3.84953 0.0177453 0)
(4.11745 -0.307906 0)
(4.50976 -0.396181 0)
(4.71454 -0.46444 0)
(5.20689 -0.283066 0)
(5.47169 -0.0657633 0)
(5.60233 0.251348 0)
(5.86336 0.469171 0)
(5.70643 0.780153 0)
(5.55955 0.763958 0)
(5.62733 0.854989 0)
(5.30785 0.633608 0)
(5.47705 0.0636171 0)
(1.21276 0.187348 0)
(4.11391 -1.68835 0)
(-3.09831 0.629415 0)
(2.48429 0.849223 0)
(0.090407 -0.989005 0)
(-0.0221264 -0.493559 0)
(-0.896566 -0.45572 0)
(0.690541 -0.698352 0)
(-0.789806 -0.0342466 0)
(0.79804 -0.456873 0)
(0.282797 -0.29121 0)
(0.712483 -0.266349 0)
(0.847978 -0.305888 0)
(1.21493 -0.329434 0)
(1.23528 -0.422416 0)
(1.7261 -0.499793 0)
(1.59622 -0.560873 0)
(2.00663 -0.521805 0)
(1.9822 -0.47607 0)
(2.32796 -0.287964 0)
(2.45753 -0.101233 0)
(2.76813 0.0943437 0)
(3.0302 0.29554 0)
(3.46668 0.279777 0)
(3.70705 0.284079 0)
(4.31529 0.0421419 0)
(4.28221 -0.1707 0)
(4.80682 -0.464754 0)
(4.61584 -0.724334 0)
(4.73809 -0.884359 0)
(4.63001 -0.918023 0)
(4.59135 -0.796899 0)
(4.6249 -0.474192 0)
(4.80986 -0.12141 0)
(4.89696 0.181064 0)
(5.1331 0.50225 0)
(5.59656 0.466136 0)
(5.5609 0.519069 0)
(6.18053 0.331689 0)
(6.24515 -0.129092 0)
(11.746 -1.72286 0)
(8.35845 2.70848 0)
(12.3612 -1.04439 0)
(10.3376 6.42164 0)
(10.5601 -1.32672 0)
(9.30733 2.85724 0)
(11.0014 0.201757 0)
(10.8466 3.96134 0)
(9.96849 -0.499884 0)
(9.88776 1.18104 0)
(10.1826 0.300499 0)
(10.8112 1.06657 0)
(9.97486 -0.063127 0)
(9.92854 0.138011 0)
(10.193 0.123105 0)
(10.7019 0.200524 0)
(12.5129 5.16718 2.86342e-17)
(15.5816 4.34249 -5.38071e-17)
(12.7318 2.19798 0)
(13.324 0.6499 0)
(11.5827 0.469447 0)
(12.4914 -0.11857 0)
(11.3962 0.241371 0)
(12.102 0.192852 0)
(9.81357 3.36691 0)
(8.95992 0.313815 0)
(8.9968 1.12881 0)
(8.28017 1.60403 0)
(12.7769 -0.171685 0)
(13.1549 -0.484504 0)
(13.332 -1.0424 0)
(13.2458 -0.762352 0)
(13.1397 -0.0505877 0)
(13.56 0.118481 0)
(13.9451 0.266308 0)
(13.9332 0.547578 0)
(12.7299 0.218244 0)
(13.0499 0.195006 0)
(13.2776 0.132653 0)
(13.1978 -0.0136396 0)
(6.72748 1.04214 0)
(8.42729 0.651332 0)
(8.15961 0.920129 0)
(7.69407 0.577557 0)
(8.06816 0.255523 0)
(8.35109 0.325312 0)
(7.93654 0.195697 0)
(8.51055 0.0914219 0)
(7.9698 0.146058 0)
(8.57895 0.0357634 0)
(8.2773 0.087678 0)
(8.85388 0.0552856 0)
(8.63221 0.056593 0)
(9.09272 -0.0342008 0)
(9.11217 -0.0860463 0)
(9.19795 -0.169215 0)
(9.37767 -0.222342 0)
(8.98146 -0.220755 0)
(9.24678 -0.227049 0)
(8.6764 -0.120534 0)
(8.97326 -0.0805664 0)
(8.75307 0.0512713 0)
(8.99476 0.116364 0)
(9.43609 0.150846 0)
(9.5518 0.155354 0)
(10.4703 0.019829 0)
(10.4341 -0.0514169 0)
(11.3447 -0.211654 0)
(11.0872 -0.232939 0)
(11.4473 -0.247341 0)
(10.9303 -0.217154 0)
(10.5371 -0.151641 0)
(10.1944 -0.13648 0)
(9.44668 -0.0143776 0)
(9.67452 0.050035 0)
(9.14312 0.219874 0)
(9.76579 0.182839 0)
(9.87094 0.207162 0)
(10.2921 0.0909032 0)
(10.9607 -0.0488713 0)
(13.1395 -0.355632 0)
(13.6489 -0.303171 0)
(13.9057 -0.321028 0)
(14.0151 -0.325293 0)
(13.9344 -0.32837 0)
(13.9897 -0.451157 0)
(13.8022 -0.419788 0)
(13.8808 -0.537098 0)
(13.7267 -0.424993 0)
(13.7861 -0.517861 0)
(13.7075 -0.431141 0)
(13.7125 -0.514677 0)
(13.7076 -0.513908 0)
(13.6098 -0.551734 0)
(13.6614 -0.645988 0)
(13.4546 -0.578083 0)
(13.5232 -0.68457 0)
(13.2694 -0.46639 0)
(13.3361 -0.506032 0)
(13.1654 -0.247235 0)
(13.1881 -0.239198 0)
(13.1716 -0.147039 0)
(13.151 -0.140311 0)
(13.3597 -0.323046 0)
(13.3186 -0.341568 0)
(13.5516 -0.730396 0)
(13.3354 -0.715807 0)
(13.3493 -1.05319 0)
(13.0027 -0.908216 0)
(12.8873 -0.902226 0)
(12.684 -0.581703 0)
(12.5086 -0.193709 0)
(12.4671 -0.0128569 0)
(12.2768 0.366877 0)
(12.4416 0.142908 0)
(12.3394 0.358415 0)
(12.6032 -0.0640492 0)
(12.6192 -0.104707 0)
(12.8578 -0.416226 0)
(12.8084 -0.685184 0)
(13.9311 0.787434 0)
(13.9164 0.822357 0)
(14.1645 0.640239 0)
(14.2027 0.464601 0)
(14.2666 0.304998 0)
(14.14 0.226966 0)
(14.1233 0.181848 0)
(13.9955 0.141337 0)
(13.9674 0.142818 0)
(13.8557 0.103943 0)
(13.7985 0.111417 0)
(13.694 0.0480386 0)
(13.5912 0.0392475 0)
(13.4827 -0.0191667 0)
(13.3424 -0.021478 0)
(13.2384 -0.0285287 0)
(13.0898 -0.0150205 0)
(12.9954 0.0486448 0)
(12.8834 0.0598105 0)
(12.8106 0.142828 0)
(12.7734 0.109856 0)
(12.7385 0.151756 0)
(12.7736 0.0687589 0)
(12.7033 0.010746 0)
(12.6834 -0.0978276 0)
(12.5081 -0.204336 0)
(12.3691 -0.174128 0)
(12.1337 -0.192639 0)
(11.8851 0.000230996 0)
(11.7167 0.0394042 0)
(11.4784 0.218942 0)
(11.5285 0.265391 0)
(11.4462 0.335821 0)
(11.6632 0.36899 0)
(11.7294 0.270388 0)
(11.8892 0.217678 0)
(12.0223 -0.0169329 0)
(11.9215 -0.0639301 0)
(12.0301 -0.277703 0)
(11.742 -0.15981 0)
(13.205 -0.0834689 0)
(13.1694 -0.179306 0)
(13.337 -0.244611 0)
(13.3926 -0.389599 0)
(13.5203 -0.413605 0)
(13.4117 -0.449986 0)
(13.3827 -0.404171 0)
(13.1899 -0.412723 0)
(13.1472 -0.370335 0)
(12.9443 -0.371678 0)
(12.8776 -0.345686 0)
(12.6635 -0.350561 0)
(12.5721 -0.345788 0)
(12.3681 -0.340053 0)
(12.2353 -0.335304 0)
(12.047 -0.319323 0)
(11.8838 -0.316308 0)
(11.7402 -0.296108 0)
(11.5869 -0.290744 0)
(11.5102 -0.271428 0)
(11.4115 -0.25684 0)
(11.3588 -0.251222 0)
(11.3114 -0.259097 0)
(11.2134 -0.284337 0)
(11.1733 -0.284789 0)
(10.9182 -0.302368 0)
(10.7743 -0.296628 0)
(10.3758 -0.344182 0)
(10.1894 -0.334931 0)
(9.90043 -0.35451 0)
(9.78999 -0.291372 0)
(9.80439 -0.240891 0)
(9.78523 -0.183847 0)
(10.0368 -0.120717 0)
(10.025 -0.140371 0)
(10.2283 -0.0997974 0)
(10.1529 -0.186137 0)
(10.0568 -0.182169 0)
(9.97946 -0.248002 0)
(9.5203 -0.298568 0)
)
;

boundaryField
{
    inlet
    {
        type            fixedValue;
        value           uniform (10 0 0);
    }
    outlet
    {
        type            zeroGradient;
    }
    obstacle
    {
        type            noSlip;
    }
    upperWall
    {
        type            noSlip;
    }
    lowerWall
    {
        type            noSlip;
    }
    frontAndBack
    {
        type            empty;
    }
}


// ************************************************************************* //
