/*--------------------------------*- C++ -*----------------------------------*\
  =========                 |
  \\      /  F ield         | OpenFOAM: The Open Source CFD Toolbox
   \\    /   O peration     | Website:  https://openfoam.org
    \\  /    A nd           | Version:  10
     \\/     M anipulation  |
\*---------------------------------------------------------------------------*/
FoamFile
{
    format      ascii;
    class       volVectorField;
    location    "8.95";
    object      U;
}
// * * * * * * * * * * * * * * * * * * * * * * * * * * * * * * * * * * * * * //

dimensions      [0 1 -1 0 0 0 0];

internalField   nonuniform List<vector> 
8000
(
(-8.1539e-05 0.000112465 -4.37592e-05)
(-0.000564815 0.000233221 -6.85477e-06)
(-0.00136297 0.000271406 1.12758e-05)
(-0.00218789 0.000288814 2.08141e-05)
(-0.00306043 0.000304331 2.14121e-05)
(-0.00396017 0.000323267 1.61001e-05)
(-0.00487987 0.00034474 5.96693e-06)
(-0.00580674 0.000365513 -9.78658e-06)
(-0.00671607 0.000381121 -3.29305e-05)
(-0.00756809 0.000385967 -6.57543e-05)
(-0.00830473 0.000373381 -0.000110752)
(-0.00884807 0.000336294 -0.000170075)
(-0.00910316 0.000269319 -0.000244501)
(-0.00896765 0.000171122 -0.000332001)
(-0.00835134 4.47065e-05 -0.000426036)
(-0.00720372 -9.71278e-05 -0.000511163)
(-0.00556351 -0.000221701 -0.000566577)
(-0.00362978 -0.000285712 -0.00056774)
(-0.00152713 -0.00024824 -0.000496628)
(-0.000213645 -2.75208e-05 -0.000259073)
(-0.000198916 0.000730275 -0.000133272)
(-0.00106226 0.00126582 -0.000119961)
(-0.00238843 0.00144819 -0.00011009)
(-0.0037598 0.00152837 -0.000101931)
(-0.00519981 0.0015842 -0.000100619)
(-0.00667105 0.00163818 -0.000104321)
(-0.00815507 0.00168896 -0.000112556)
(-0.00962675 0.00172533 -0.000126639)
(-0.0110447 0.00173063 -0.000148905)
(-0.0123467 0.001684 -0.000182457)
(-0.0134448 0.00156149 -0.000230893)
(-0.0142234 0.0013387 -0.000297619)
(-0.0145433 0.000995826 -0.000384318)
(-0.0142592 0.000527155 -0.000488981)
(-0.0132453 -4.3277e-05 -0.000607956)
(-0.0114252 -0.000651466 -0.000714352)
(-0.00885314 -0.00117765 -0.000780717)
(-0.00582101 -0.00145625 -0.000772118)
(-0.00251922 -0.00132525 -0.000658294)
(-0.000397117 -0.000489711 -0.000298475)
(-0.000235604 0.00175871 -0.000183468)
(-0.00123711 0.00289771 -0.00018351)
(-0.00275962 0.00329058 -0.000178197)
(-0.00432504 0.00345599 -0.000170004)
(-0.00596371 0.00355685 -0.000167113)
(-0.00763418 0.00364052 -0.000168485)
(-0.0093175 0.00370718 -0.000174086)
(-0.0109884 0.00373706 -0.000185708)
(-0.0126048 0.0036992 -0.000206334)
(-0.0141017 0.00355391 -0.000240122)
(-0.0153858 0.0032554 -0.000292128)
(-0.0163313 0.00275679 -0.000367602)
(-0.0167812 0.0020202 -0.000470504)
(-0.0165545 0.00103501 -0.000601162)
(-0.015478 -0.000153909 -0.000751052)
(-0.0134317 -0.00142042 -0.00089145)
(-0.0104453 -0.00253496 -0.000982346)
(-0.00685715 -0.00315134 -0.000972646)
(-0.00289723 -0.00292268 -0.000819809)
(-0.00040813 -0.00125691 -0.000352522)
(-0.000238898 0.00284643 -0.000218682)
(-0.00127693 0.00462934 -0.00023004)
(-0.00285976 0.00523838 -0.000228552)
(-0.00448337 0.00548657 -0.000220706)
(-0.00618687 0.00563167 -0.000217226)
(-0.00793111 0.00574865 -0.000217786)
(-0.0097031 0.00584097 -0.000222836)
(-0.0114849 0.00588238 -0.000234735)
(-0.0132426 0.00582956 -0.000257294)
(-0.0149185 0.0056249 -0.00029602)
(-0.0164229 0.00519895 -0.000358152)
(-0.0176245 0.00447726 -0.000451883)
(-0.0183443 0.00339499 -0.000584409)
(-0.0183595 0.00192314 -0.000759061)
(-0.0174292 0.000106202 -0.000968715)
(-0.0153448 -0.00187833 -0.00117877)
(-0.0120495 -0.00368868 -0.00132436)
(-0.0079104 -0.00474889 -0.0013259)
(-0.00319492 -0.0044611 -0.00111477)
(-0.000340112 -0.00186081 -0.000470283)
(-0.000226084 0.00398716 -0.000242335)
(-0.00125218 0.00645363 -0.000263261)
(-0.00283417 0.00729214 -0.000264931)
(-0.00445968 0.00763081 -0.000257899)
(-0.00617568 0.00783081 -0.000255213)
(-0.0079484 0.00799903 -0.000257309)
(-0.0097749 0.00814549 -0.000265249)
(-0.0116498 0.00824083 -0.000282199)
(-0.0135541 0.00823265 -0.00031319)
(-0.0154458 0.00804758 -0.000365674)
(-0.0172468 0.00759156 -0.000450069)
(-0.0188274 0.00675526 -0.000579461)
(-0.0199889 0.00543011 -0.000767189)
(-0.0204531 0.00353985 -0.00102133)
(-0.019872 0.00109851 -0.00133393)
(-0.0179012 -0.00169925 -0.00167699)
(-0.0143211 -0.00438895 -0.00193971)
(-0.00947639 -0.00610668 -0.00198537)
(-0.00363999 -0.00587481 -0.00167978)
(-0.000223377 -0.00222781 -0.000701031)
(-0.000204714 0.00513643 -0.000259663)
(-0.00119288 0.00831047 -0.000289222)
(-0.00274146 0.00939039 -0.000293796)
(-0.00433885 0.00982996 -0.000288049)
(-0.0060381 0.0101013 -0.000287259)
(-0.00781224 0.0103488 -0.00029276)
(-0.00967089 0.0105941 -0.00030642)
(-0.0116253 0.0108104 -0.000332523)
(-0.0136775 0.0109422 -0.000377821)
(-0.0158104 0.0109058 -0.000452556)
(-0.0179709 0.0105857 -0.000571779)
(-0.0200443 0.0098335 -0.000756231)
(-0.0218247 0.00847944 -0.00103042)
(-0.0229828 0.00636705 -0.001414)
(-0.0230513 0.00342257 -0.00190808)
(-0.021477 -0.000216279 -0.00249915)
(-0.0177464 -0.00397365 -0.0030158)
(-0.0120505 -0.00671662 -0.00320491)
(-0.00450803 -0.00684783 -0.00276405)
(-9.49747e-05 -0.00215459 -0.00113693)
(-0.000177144 0.00627152 -0.00027488)
(-0.00110953 0.010169 -0.000313016)
(-0.00260124 0.0115008 -0.000320374)
(-0.00414515 0.0120511 -0.000315913)
(-0.0057985 0.0124106 -0.000317228)
(-0.00754089 0.0127675 -0.00032678)
(-0.00939542 0.0131626 -0.000347522)
(-0.0113928 0.0135799 -0.000385219)
(-0.0135617 0.0139712 -0.000448901)
(-0.0159199 0.0142545 -0.00055268)
(-0.0184563 0.0143047 -0.000718349)
(-0.0210997 0.0139438 -0.000978399)
(-0.0236699 0.0129378 -0.0013769)
(-0.0258201 0.0110202 -0.00196234)
(-0.0269764 0.00796429 -0.00276841)
(-0.0263044 0.00372443 -0.00376672)
(-0.0228938 -0.00126863 -0.00481432)
(-0.0164708 -0.00560874 -0.00539771)
(-0.00651381 -0.00684702 -0.00482972)
(-0.000172628 -0.00152709 -0.00200569)
(-0.000144061 0.00737876 -0.000290289)
(-0.00100601 0.0120108 -0.000337437)
(-0.00241969 0.0136011 -0.000347214)
(-0.00388206 0.0142659 -0.00034326)
(-0.00545226 0.0147227 -0.000345767)
(-0.00711461 0.015212 -0.000358577)
(-0.00890425 0.0158016 -0.000385966)
(-0.0108712 0.0164978 -0.000435514)
(-0.0130733 0.0172748 -0.000519107)
(-0.015571 0.0180738 -0.00065567)
(-0.0184119 0.0187885 -0.000875675)
(-0.0216009 0.0192443 -0.00122761)
(-0.0250432 0.0191768 -0.00178423)
(-0.028456 0.0182196 -0.00264032)
(-0.0312667 0.0159323 -0.00388521)
(-0.0324865 0.0118831 -0.00553727)
(-0.0305566 0.00588346 -0.00743162)
(-0.0241888 -0.00106772 -0.0089054)
(-0.0114295 -0.0050485 -0.0084169)
(-0.00120433 -0.000450139 -0.00382872)
(-0.00010699 0.00844978 -0.000307513)
(-0.00088816 0.0138239 -0.00036437)
(-0.0022052 0.0156707 -0.000375811)
(-0.00355469 0.0164408 -0.000370673)
(-0.0049952 0.0169881 -0.000372213)
(-0.0065121 0.0176136 -0.000385893)
(-0.00814852 0.018422 -0.00041749)
(-0.00996907 0.0194534 -0.000476495)
(-0.0120559 0.020723 -0.000577693)
(-0.0145098 0.0222237 -0.000744985)
(-0.017445 0.0239127 -0.001018)
(-0.0209701 0.0256872 -0.00146195)
(-0.0251469 0.0273461 -0.0021782)
(-0.0299068 0.028516 -0.00330682)
(-0.0349115 0.0285212 -0.00500627)
(-0.0392874 0.0261554 -0.00737928)
(-0.041062 0.0195401 -0.0102865)
(-0.0369231 0.00817965 -0.0130817)
(-0.0222656 -0.00200553 -0.0132536)
(-0.00486778 1.70129e-05 -0.00744281)
(-6.98936e-05 0.00948464 -0.000328537)
(-0.000769458 0.0156055 -0.000395945)
(-0.00197854 0.0176932 -0.000407896)
(-0.00318395 0.0185393 -0.000398953)
(-0.00444204 0.0191439 -0.000396074)
(-0.00573409 0.0198787 -0.000406577)
(-0.0071044 0.0208921 -0.000437787)
(-0.00862226 0.0222689 -0.000500866)
(-0.0103801 0.0240827 -0.000612704)
(-0.0125007 0.0264077 -0.000800093)
(-0.0151433 0.0293144 -0.00110655)
(-0.0185072 0.0328546 -0.00160022)
(-0.0228451 0.037012 -0.00237279)
(-0.0284664 0.0414993 -0.00351745)
(-0.035694 0.0452802 -0.00511352)
(-0.0445408 0.0456445 -0.00729684)
(-0.0527724 0.0375573 -0.0104829)
(-0.0543934 0.017907 -0.0143786)
(-0.0405811 -0.00353419 -0.0154557)
(-0.0124514 -0.00419394 -0.0121143)
(-4.08571e-05 0.0104996 -0.000356622)
(-0.000676173 0.0173706 -0.000435446)
(-0.00178084 0.019662 -0.000446219)
(-0.00281713 0.0205256 -0.000429893)
(-0.00384014 0.0211193 -0.000417786)
(-0.00482154 0.0218937 -0.000419536)
(-0.00579933 0.0230437 -0.000443788)
(-0.00683212 0.0247024 -0.000502554)
(-0.00799819 0.02701 -0.000612808)
(-0.00940695 0.0301398 -0.000798941)
(-0.011214 0.0343087 -0.00109457)
(-0.0136502 0.0397746 -0.00153477)
(-0.0171443 0.0467493 -0.0021003)
(-0.0225044 0.0549111 -0.00260267)
(-0.0310735 0.0623662 -0.00278589)
(-0.0445165 0.0637626 -0.002778)
(-0.0617817 0.0503128 -0.00434152)
(-0.0734969 0.0166147 -0.00686233)
(-0.0611985 -0.0203895 -0.00695653)
(-0.0207737 -0.0233607 -0.0116588)
(-3.54118e-05 0.0115438 -0.000397659)
(-0.000655724 0.019172 -0.000490704)
(-0.00168417 0.0216029 -0.000499353)
(-0.00253763 0.0223889 -0.000471626)
(-0.00327945 0.0228613 -0.000444067)
(-0.00386936 0.0235551 -0.000429961)
(-0.00433454 0.0247086 -0.000439267)
(-0.00470643 0.0264941 -0.000483853)
(-0.00501967 0.0291078 -0.000578031)
(-0.00532444 0.0328111 -0.000735963)
(-0.00570388 0.0379343 -0.000958068)
(-0.00633231 0.0448964 -0.00119405)
(-0.00779419 0.0539635 -0.00119124)
(-0.011513 0.0644463 -0.000224056)
(-0.0205374 0.0730407 0.00240021)
(-0.0398241 0.0717455 0.00647692)
(-0.0710109 0.049071 0.0100696)
(-0.0945994 -0.00607048 0.0149837)
(-0.078944 -0.0637586 0.0154805)
(-0.0271367 -0.0648101 -0.00203438)
(-8.0762e-05 0.0127022 -0.000461439)
(-0.000781239 0.0210745 -0.000567261)
(-0.00179413 0.023519 -0.000567169)
(-0.00246878 0.0240757 -0.00052015)
(-0.00289752 0.0242765 -0.000470529)
(-0.00303174 0.024732 -0.000435393)
(-0.00289173 0.0257025 -0.000424516)
(-0.00247263 0.0273768 -0.000447529)
(-0.00174177 0.0299698 -0.000514101)
(-0.000668811 0.0337824 -0.000625896)
(0.000780196 0.0392045 -0.000727137)
(0.00250516 0.0466467 -0.000671909)
(0.0037346 0.0562749 9.83493e-05)
(0.0021954 0.0668552 0.00286303)
(-0.00782703 0.0741632 0.00894693)
(-0.0360846 0.0682587 0.0185746)
(-0.0850935 0.0300548 0.0314443)
(-0.113737 -0.0622633 0.0418285)
(-0.0957911 -0.139063 0.0296951)
(-0.0354092 -0.131637 0.00575743)
(-0.000244627 0.0141935 -0.000585337)
(-0.00121257 0.0233777 -0.000722102)
(-0.00229958 0.0257193 -0.000722382)
(-0.00278831 0.0258799 -0.000650518)
(-0.00286171 0.0255966 -0.000562968)
(-0.00249405 0.0255709 -0.000487862)
(-0.00170667 0.0260868 -0.000440497)
(-0.000457567 0.0273195 -0.000431509)
(0.00135973 0.0294902 -0.00045984)
(0.00389357 0.0328471 -0.000522359)
(0.00726422 0.0377662 -0.000535643)
(0.0114693 0.0445413 -0.000267643)
(0.0155655 0.0532638 0.00108785)
(0.0167213 0.0625219 0.00528413)
(0.00681823 0.0681967 0.0145361)
(-0.0280743 0.0561527 0.0291493)
(-0.0862241 -0.00579049 0.0459876)
(-0.114306 -0.13176 0.0435385)
(-0.111767 -0.211618 0.0214592)
(-0.0430239 -0.214332 -0.000499507)
(-0.000573762 0.0165456 -0.00078191)
(-0.00200293 0.0259623 -0.000899174)
(-0.00329751 0.0276442 -0.000868741)
(-0.00367198 0.0269318 -0.000745279)
(-0.00343694 0.0259582 -0.000618339)
(-0.00256661 0.0253743 -0.000510971)
(-0.00112874 0.0253774 -0.000439687)
(0.000950571 0.0260436 -0.000403402)
(0.00381215 0.0275404 -0.000420304)
(0.0076808 0.0300086 -0.000472218)
(0.0127846 0.0337333 -0.000462692)
(0.019283 0.0388493 -0.000166965)
(0.0263219 0.0453807 0.0013426)
(0.0316363 0.052173 0.00575241)
(0.0271278 0.0562169 0.0160036)
(0.000154792 0.0396245 0.0311098)
(-0.0541833 -0.0353307 0.0428291)
(-0.0883146 -0.163531 0.029896)
(-0.113976 -0.256136 0.0127125)
(-0.0438589 -0.290643 -0.0157713)
(-0.00194545 0.0188163 -0.00127905)
(-0.00473121 0.0303455 -0.00151346)
(-0.00581072 0.03154 -0.00143384)
(-0.00566255 0.0301971 -0.00122904)
(-0.0046682 0.0281497 -0.000988492)
(-0.00308012 0.0264318 -0.000773198)
(-0.000965806 0.025294 -0.000617198)
(0.00182248 0.0248138 -0.000519823)
(0.00548926 0.0250876 -0.00051346)
(0.0103483 0.026141 -0.000586722)
(0.0166851 0.0281343 -0.000641153)
(0.0248156 0.0309697 -0.000487238)
(0.0340752 0.0345549 0.000677059)
(0.0434537 0.0376015 0.00404267)
(0.0460048 0.0390334 0.012427)
(0.0358321 0.0232632 0.0248442)
(-0.00818141 -0.0450383 0.0322052)
(-0.0500553 -0.160396 0.0230828)
(-0.102858 -0.277249 0.00824948)
(-0.040413 -0.348123 -0.0308473)
(-0.0013309 0.0301964 -0.00228817)
(-0.00488243 0.0339691 -0.00219918)
(-0.00805288 0.0324519 -0.00199321)
(-0.00806523 0.0284454 -0.0015234)
(-0.00714435 0.0254402 -0.00117788)
(-0.00498472 0.023259 -0.000884929)
(-0.00205408 0.0218039 -0.000683895)
(0.00168607 0.0208676 -0.000572818)
(0.00631568 0.0204377 -0.000589711)
(0.0121502 0.0204057 -0.000755051)
(0.0194014 0.0208996 -0.000956163)
(0.0285084 0.0215727 -0.0010907)
(0.0385972 0.0223651 -0.000560874)
(0.0501619 0.0215612 0.00130579)
(0.0557109 0.0189592 0.00661554)
(0.0582074 0.0051001 0.0153095)
(0.0232166 -0.0439143 0.021041)
(-0.0123732 -0.141795 0.0197721)
(-0.0867446 -0.27638 0.00296681)
(-0.0322247 -0.385421 -0.0442873)
(-0.0128749 0.0274783 -0.00304551)
(-0.0214668 0.0482558 -0.00388515)
(-0.0152157 0.0439488 -0.00378664)
(-0.0130363 0.0388888 -0.00327647)
(-0.00828915 0.0328433 -0.00250349)
(-0.00313309 0.027874 -0.001805)
(0.00234154 0.0239865 -0.0013035)
(0.00823774 0.0209637 -0.00101101)
(0.0145463 0.0187574 -0.000943722)
(0.0218567 0.017031 -0.00112387)
(0.0298749 0.0159173 -0.00143962)
(0.0397111 0.0147611 -0.0018426)
(0.0492006 0.0140405 -0.00189964)
(0.0614886 0.0117122 -0.00111355)
(0.0655611 0.00847533 0.00162087)
(0.0756922 -0.00232076 0.00755903)
(0.0485318 -0.0324132 0.011596)
(0.0397339 -0.113168 0.0163831)
(-0.0529142 -0.260851 -0.00120921)
(-0.0121019 -0.397277 -0.055435)
(-0.0466749 0.0874873 -0.0125138)
(-0.029921 0.0394007 -0.00904228)
(-0.02052 0.0330388 -0.00701137)
(-0.000985295 0.0259396 -0.00508615)
(0.0154986 0.0195085 -0.00381416)
(0.0320118 0.0151768 -0.00283997)
(0.0464045 0.0123834 -0.00215797)
(0.0600958 0.0102114 -0.00176208)
(0.0718138 0.00878885 -0.00158164)
(0.0843234 0.00742555 -0.00167502)
(0.0943591 0.00681589 -0.00193127)
(0.107931 0.0057237 -0.002398)
(0.116079 0.00522009 -0.00277445)
(0.133524 0.00297868 -0.00276439)
(0.133925 -0.000687484 -0.0019365)
(0.155972 -0.011123 0.00165594)
(0.128614 -0.0365774 0.00484792)
(0.151008 -0.0986351 0.0104432)
(0.0313703 -0.234238 -0.00405052)
(0.0356133 -0.36467 -0.0656982)
(0.117502 0.112305 -0.0111788)
(0.144066 0.0598924 -0.0118917)
(0.215904 0.0394876 -0.0118362)
(0.260764 0.0261828 -0.010723)
(0.293407 0.0173455 -0.00932008)
(0.321117 0.0113766 -0.00812598)
(0.341692 0.0076592 -0.00702878)
(0.361457 0.00511057 -0.0061968)
(0.374209 0.00361616 -0.00543533)
(0.390846 0.00241448 -0.00493342)
(0.397811 0.00184273 -0.00453755)
(0.415166 0.00119065 -0.00428305)
(0.415578 0.000892951 -0.00418331)
(0.436862 1.08829e-05 -0.00388738)
(0.424961 -0.00139576 -0.00366223)
(0.449461 -0.00506626 -0.00278667)
(0.404811 -0.0136841 -0.001742)
(0.415089 -0.0324004 -0.00182766)
(0.24946 -0.0724776 -0.010088)
(0.167437 -0.137935 -0.0754727)
(-0.000137482 0.000168208 -0.000147894)
(-0.000962555 0.000417624 -0.000116831)
(-0.00233345 0.000504377 -9.1549e-05)
(-0.00374255 0.000535451 -7.77711e-05)
(-0.0052089 0.000554328 -8.19247e-05)
(-0.00669612 0.000574874 -0.000100715)
(-0.00819016 0.000596694 -0.000133743)
(-0.00966849 0.000614395 -0.000184028)
(-0.0110902 0.000620444 -0.000256492)
(-0.0123924 0.000605461 -0.000356989)
(-0.0134861 0.000558416 -0.000491394)
(-0.014255 0.0004678 -0.000663998)
(-0.0145605 0.000324968 -0.000874852)
(-0.0142555 0.000127899 -0.00111649)
(-0.0132092 -0.000120898 -0.00136773)
(-0.0113509 -0.000388251 -0.00159142)
(-0.00874254 -0.000614541 -0.0017365)
(-0.00567824 -0.000713039 -0.00174651)
(-0.00238045 -0.000590267 -0.00156994)
(-0.000336673 -0.000109496 -0.000942032)
(-0.000406384 0.0011414 -0.000341888)
(-0.00207143 0.00221795 -0.000374043)
(-0.00459748 0.00260762 -0.000365784)
(-0.00719864 0.00274732 -0.000352771)
(-0.00988153 0.00280945 -0.000355563)
(-0.0125701 0.00284974 -0.00037438)
(-0.0152225 0.00287014 -0.000410795)
(-0.0177867 0.00285176 -0.000469902)
(-0.020185 0.00276617 -0.000559005)
(-0.0223083 0.00257834 -0.000686809)
(-0.024011 0.00224905 -0.000862244)
(-0.0251104 0.00173983 -0.00109211)
(-0.0253962 0.00102199 -0.00137723)
(-0.0246616 9.2634e-05 -0.00170975)
(-0.0227212 -0.000998786 -0.00206061)
(-0.0194779 -0.00212434 -0.00237181)
(-0.0150466 -0.00305479 -0.00256864)
(-0.00987974 -0.00346061 -0.00256347)
(-0.00433945 -0.00298376 -0.00226125)
(-0.000742198 -0.00110872 -0.00125164)
(-0.000516491 0.00279314 -0.000455848)
(-0.00255196 0.00506216 -0.000527295)
(-0.0055896 0.00588422 -0.000530077)
(-0.00869839 0.00616772 -0.00051612)
(-0.0118879 0.00626718 -0.000514942)
(-0.0150688 0.00629682 -0.000529278)
(-0.0181925 0.0062651 -0.000562343)
(-0.021201 0.00613848 -0.000621088)
(-0.0240096 0.00586356 -0.000715256)
(-0.0264993 0.00537367 -0.000856949)
(-0.0285109 0.00459438 -0.00105933)
(-0.0298421 0.00345344 -0.0013342)
(-0.0302538 0.00189879 -0.001688)
(-0.0294829 -7.06455e-05 -0.00211403)
(-0.027282 -0.00235335 -0.00257624)
(-0.0234973 -0.00470561 -0.00300192)
(-0.0182101 -0.00666734 -0.00328119)
(-0.0119489 -0.00755525 -0.00327877)
(-0.00516329 -0.00661398 -0.00285662)
(-0.000828412 -0.00278714 -0.00151572)
(-0.000549156 0.00455165 -0.000541829)
(-0.00272832 0.00809776 -0.000646448)
(-0.00597737 0.00936484 -0.000658883)
(-0.00929247 0.00978445 -0.00064514)
(-0.0126943 0.00991429 -0.000642096)
(-0.0160948 0.00993245 -0.000654782)
(-0.019453 0.00985614 -0.000688202)
(-0.0227206 0.00963961 -0.000751564)
(-0.0258228 0.00920655 -0.000857854)
(-0.0286495 0.0084586 -0.00102403)
(-0.0310428 0.00728169 -0.0012703)
(-0.0327884 0.00555957 -0.00161733)
(-0.0336102 0.00320077 -0.00208099)
(-0.0331794 0.000184776 -0.00266278)
(-0.0311426 -0.00336994 -0.00332971)
(-0.027196 -0.0071183 -0.00398024)
(-0.0212866 -0.010342 -0.00443971)
(-0.0139808 -0.0118973 -0.00447591)
(-0.0058182 -0.0104797 -0.00385897)
(-0.000776902 -0.00435781 -0.00196692)
(-0.000545578 0.00639492 -0.000606849)
(-0.00276231 0.0112956 -0.000740826)
(-0.00608926 0.0130325 -0.000761964)
(-0.0094871 0.0135992 -0.000749911)
(-0.0129887 0.0137739 -0.000748358)
(-0.016515 0.0138062 -0.000764794)
(-0.020042 0.0137266 -0.00080642)
(-0.0235416 0.0134814 -0.000885472)
(-0.0269622 0.0129741 -0.00101954)
(-0.0302159 0.0120748 -0.00123275)
(-0.03316 0.0106236 -0.00155627)
(-0.0355758 0.00844312 -0.00202639)
(-0.0371468 0.0053697 -0.00267709)
(-0.0374468 0.00131507 -0.00352484)
(-0.0359665 -0.00363 -0.00454956)
(-0.0321615 -0.00906681 -0.00562585)
(-0.0256931 -0.0139897 -0.00646151)
(-0.0170521 -0.0166335 -0.00662638)
(-0.00680591 -0.0148172 -0.00566347)
(-0.000659836 -0.00585014 -0.00273823)
(-0.000526026 0.00825942 -0.000660792)
(-0.00273215 0.0145669 -0.000822548)
(-0.00607748 0.0167977 -0.000852184)
(-0.00950501 0.0175292 -0.000843107)
(-0.0130585 0.0177756 -0.000845695)
(-0.0166722 0.017867 -0.000870232)
(-0.0203452 0.017855 -0.000926668)
(-0.0240786 0.0176845 -0.0010312)
(-0.0278562 0.0172456 -0.00120768)
(-0.0316288 0.01638 -0.0014904)
(-0.0352892 0.0148789 -0.00192701)
(-0.0386356 0.0124869 -0.00257941)
(-0.0413278 0.00892905 -0.00351621)
(-0.0428462 0.00398011 -0.00479413)
(-0.0425043 -0.0024018 -0.00643531)
(-0.0394066 -0.0098174 -0.00829134)
(-0.0326887 -0.0170998 -0.00989199)
(-0.0224228 -0.0217264 -0.0104095)
(-0.00882088 -0.0199189 -0.00885553)
(-0.000554048 -0.00729421 -0.00400901)
(-0.000497694 0.0101178 -0.000712222)
(-0.00266817 0.0178729 -0.000902464)
(-0.00599975 0.0206209 -0.000940541)
(-0.00942374 0.0215362 -0.000934459)
(-0.0129929 0.0218842 -0.000941593)
(-0.0166565 0.0220873 -0.000975522)
(-0.0204404 0.0222282 -0.00104958)
(-0.0243832 0.0222623 -0.0011849)
(-0.0285168 0.0220782 -0.00141338)
(-0.0328513 0.021501 -0.00178316)
(-0.037347 0.0202801 -0.00236589)
(-0.041866 0.0180788 -0.00326399)
(-0.0461035 0.0144828 -0.00461077)
(-0.0495114 0.00905863 -0.00654822)
(-0.0512171 0.00150478 -0.00915577)
(-0.0499891 -0.00806034 -0.0123124)
(-0.0441922 -0.0186938 -0.015289)
(-0.0325527 -0.0272757 -0.0165191)
(-0.0137592 -0.026874 -0.0140841)
(-0.000859099 -0.00939001 -0.00611804)
(-0.000462517 0.0119566 -0.000766674)
(-0.00258053 0.0211956 -0.000987732)
(-0.00587419 0.0244797 -0.00103361)
(-0.00926074 0.0255907 -0.00102859)
(-0.0127995 0.0260624 -0.00103779)
(-0.0164534 0.0264233 -0.00107859)
(-0.020277 0.0268007 -0.00116813)
(-0.0243507 0.0271763 -0.00133321)
(-0.0287659 0.0274582 -0.0016152)
(-0.0336145 0.0274809 -0.00207931)
(-0.0389627 0.0269812 -0.00282843)
(-0.0448047 0.025569 -0.00402158)
(-0.0509845 0.0227082 -0.00588639)
(-0.0570869 0.0177257 -0.00869236)
(-0.0623227 0.00985627 -0.0126272)
(-0.0652871 -0.00171523 -0.0174726)
(-0.0632119 -0.0173679 -0.0219191)
(-0.051809 -0.0344422 -0.0237025)
(-0.026047 -0.039339 -0.0203823)
(-0.00289016 -0.0147421 -0.00958564)
(-0.000422513 0.013768 -0.000828697)
(-0.00247754 0.0245241 -0.00108425)
(-0.00571282 0.0283524 -0.00113635)
(-0.00902187 0.0296541 -0.0011282)
(-0.0124673 0.0302511 -0.0011338)
(-0.0160226 0.0307937 -0.00117468)
(-0.0197678 0.0314696 -0.00127195)
(-0.0238245 0.0323065 -0.00145785)
(-0.0283469 0.0332602 -0.00178305)
(-0.0335221 0.034216 -0.00233016)
(-0.0395602 0.0349584 -0.00323612)
(-0.0466678 0.0351298 -0.00472207)
(-0.0550055 0.0341813 -0.00711037)
(-0.0646333 0.0312532 -0.0107557)
(-0.0753459 0.0247685 -0.0157165)
(-0.0859025 0.0115456 -0.0210217)
(-0.0919912 -0.0132676 -0.0243728)
(-0.0836479 -0.0483254 -0.0241436)
(-0.0506252 -0.0666024 -0.0216645)
(-0.00912455 -0.0302602 -0.0144538)
(-0.000382804 0.0155541 -0.000903905)
(-0.00237668 0.0278587 -0.00119909)
(-0.00554149 0.0322206 -0.00125489)
(-0.00872918 0.0336799 -0.0012371)
(-0.0120035 0.0343688 -0.00123014)
(-0.0153417 0.0350772 -0.00125995)
(-0.0188424 0.0360679 -0.00135119)
(-0.0226593 0.0374356 -0.00154017)
(-0.0269993 0.0392163 -0.00188365)
(-0.032137 0.0413983 -0.00247499)
(-0.0384287 0.043899 -0.00346945)
(-0.0463292 0.046524 -0.00510624)
(-0.0564504 0.0488706 -0.0076565)
(-0.0696844 0.0498469 -0.011129)
(-0.0870589 0.0460601 -0.0145523)
(-0.108054 0.0292247 -0.0152672)
(-0.125146 -0.0134591 -0.0105455)
(-0.120612 -0.0800449 -0.00457358)
(-0.0825071 -0.119743 -0.00905896)
(-0.020867 -0.0687926 -0.0169536)
(-0.000354148 0.0173367 -0.0010011)
(-0.00231249 0.0312182 -0.00134245)
(-0.00541338 0.0360703 -0.00139788)
(-0.00843931 0.0376116 -0.0013615)
(-0.0114563 0.0383102 -0.0013298)
(-0.0144373 0.0391108 -0.00133357)
(-0.0174889 0.0403611 -0.00139976)
(-0.0207773 0.0422363 -0.00156555)
(-0.0245328 0.044879 -0.0018865)
(-0.0290788 0.0484296 -0.00244919)
(-0.0348714 0.0530238 -0.00338151)
(-0.0425606 0.0587426 -0.00481064)
(-0.0531893 0.0653438 -0.00657872)
(-0.068562 0.0709442 -0.00747881)
(-0.0907714 0.068472 -0.0044353)
(-0.1198 0.0422519 0.00675809)
(-0.145327 -0.0266272 0.0255701)
(-0.143616 -0.129255 0.0348657)
(-0.105036 -0.188638 0.0150662)
(-0.0322527 -0.140039 -0.00857526)
(-0.000359353 0.0191802 -0.00113657)
(-0.00235222 0.0346803 -0.00153617)
(-0.00542738 0.0399471 -0.00158894)
(-0.00826009 0.0414444 -0.0015238)
(-0.0109327 0.0420061 -0.00145164)
(-0.0134094 0.0427472 -0.00141033)
(-0.0157936 0.0441038 -0.00142862)
(-0.0182375 0.0463328 -0.00154088)
(-0.0209478 0.0496867 -0.00179143)
(-0.0242204 0.0544713 -0.00223307)
(-0.028495 0.0610542 -0.00289158)
(-0.0344333 0.0697383 -0.00359794)
(-0.0432389 0.0801406 -0.00336715)
(-0.0573367 0.0887774 0.000776906)
(-0.0797893 0.0844141 0.0138299)
(-0.111983 0.0458456 0.0401793)
(-0.144789 -0.0451298 0.0706263)
(-0.146089 -0.170319 0.0704193)
(-0.113026 -0.245216 0.0337896)
(-0.0359398 -0.224509 0.00474126)
(-0.000431104 0.0211683 -0.00133281)
(-0.00258232 0.0382659 -0.00179279)
(-0.00571718 0.0437479 -0.00182695)
(-0.00835628 0.0449822 -0.0017155)
(-0.0106189 0.0452126 -0.00158816)
(-0.012457 0.045703 -0.00148839)
(-0.0139697 0.0469438 -0.00144296)
(-0.015274 0.0492452 -0.0014782)
(-0.0165073 0.0529404 -0.00162005)
(-0.0178607 0.0584452 -0.00187136)
(-0.0196512 0.0662703 -0.00210102)
(-0.0223838 0.0767434 -0.00177686)
(-0.0272388 0.0891438 0.000942492)
(-0.0370521 0.0985149 0.0104794)
(-0.0564765 0.0914424 0.0330523)
(-0.089654 0.0446045 0.0701769)
(-0.129291 -0.0569358 0.100281)
(-0.129879 -0.194277 0.0800719)
(-0.111317 -0.286774 0.0351766)
(-0.0319279 -0.301382 0.00469856)
(-0.000674927 0.0236118 -0.00166583)
(-0.00327269 0.0425427 -0.00223836)
(-0.00658846 0.0481501 -0.00226968)
(-0.00897442 0.0489123 -0.00209872)
(-0.0107106 0.0484746 -0.00188165)
(-0.0117878 0.0483178 -0.00168313)
(-0.0122953 0.0490087 -0.00153835)
(-0.0122837 0.0508933 -0.00147174)
(-0.0117919 0.0543338 -0.00148408)
(-0.0108574 0.0597617 -0.0015368)
(-0.00962172 0.0677193 -0.00138991)
(-0.0082954 0.0784272 -0.000224804)
(-0.00790898 0.091033 0.00427377)
(-0.0112723 0.10004 0.0172889)
(-0.024888 0.092374 0.0451996)
(-0.0543926 0.0437794 0.0841458)
(-0.0937688 -0.0600064 0.104136)
(-0.0926032 -0.202612 0.0678963)
(-0.10025 -0.312276 0.0274981)
(-0.0232024 -0.368473 -0.00691218)
(-0.0010511 0.0269609 -0.00214691)
(-0.00418067 0.0466652 -0.00274866)
(-0.00797969 0.0514791 -0.00272593)
(-0.0103323 0.0510525 -0.0024503)
(-0.0116882 0.0497708 -0.00214428)
(-0.0119869 0.0489865 -0.0018617)
(-0.0113906 0.0491321 -0.00163944)
(-0.00993676 0.0504445 -0.00148687)
(-0.00759674 0.0532294 -0.00141897)
(-0.00424225 0.0578432 -0.00135865)
(0.000164309 0.064788 -0.00102939)
(0.00583219 0.0741707 0.000401119)
(0.0119832 0.0852036 0.00523801)
(0.0169548 0.0930868 0.0180157)
(0.01369 0.0872957 0.0449665)
(-0.00179073 0.0444798 0.0780808)
(-0.0355861 -0.0518209 0.087998)
(-0.0401067 -0.183506 0.0517251)
(-0.0772202 -0.313948 0.0204329)
(-0.00961598 -0.419147 -0.0197465)
(-0.00314863 0.0298814 -0.00314687)
(-0.00850665 0.0540866 -0.00400643)
(-0.011777 0.0586617 -0.00392003)
(-0.0132482 0.0574929 -0.00352199)
(-0.0133696 0.0545152 -0.00301364)
(-0.0125475 0.0519622 -0.00252511)
(-0.0108324 0.0503872 -0.00212545)
(-0.00811314 0.0500334 -0.00183131)
(-0.00421888 0.0511344 -0.00167807)
(0.00118516 0.0538727 -0.00158359)
(0.00831575 0.0586466 -0.00130072)
(0.017667 0.0653726 -0.000210331)
(0.0286535 0.0733313 0.00358198)
(0.0410741 0.0786634 0.0130993)
(0.04786 0.0749663 0.0335776)
(0.0501838 0.0430412 0.0586965)
(0.0222955 -0.0369488 0.0639922)
(0.0134616 -0.149076 0.0406911)
(-0.0495349 -0.300321 0.0158204)
(0.00824299 -0.451893 -0.0319483)
(-0.00127441 0.0443206 -0.00511474)
(-0.00722288 0.0573904 -0.00570568)
(-0.0150318 0.0581371 -0.00528934)
(-0.0167589 0.0534893 -0.00440344)
(-0.0172441 0.0498846 -0.00370534)
(-0.0157069 0.0472518 -0.00306882)
(-0.0128595 0.0455685 -0.00256576)
(-0.00867231 0.0447032 -0.00221193)
(-0.00310199 0.0447899 -0.00206887)
(0.00425816 0.045866 -0.00208352)
(0.0136363 0.0483134 -0.00209536)
(0.0256552 0.0518231 -0.00166211)
(0.0395073 0.0560106 0.000507005)
(0.0566905 0.0576782 0.00598117)
(0.0680659 0.0534334 0.0184008)
(0.0831997 0.0315219 0.0356322)
(0.060265 -0.025876 0.0397171)
(0.057565 -0.111505 0.0317825)
(-0.0196844 -0.278341 0.0119982)
(0.0341492 -0.466154 -0.0431686)
(-0.012471 0.034805 -0.00597924)
(-0.0234015 0.0780331 -0.00795705)
(-0.020209 0.076353 -0.00820616)
(-0.0232637 0.0704744 -0.00746778)
(-0.0214879 0.0624961 -0.00617918)
(-0.0179715 0.0557439 -0.00493308)
(-0.0126721 0.0503195 -0.00397075)
(-0.00584949 0.0460679 -0.0033366)
(0.00230098 0.0430447 -0.00308561)
(0.0122516 0.0409479 -0.00319763)
(0.023637 0.0400709 -0.00353644)
(0.0376054 0.0397691 -0.00381518)
(0.0520261 0.0406503 -0.00326477)
(0.0711519 0.0397334 -0.00074214)
(0.0816855 0.036745 0.00495242)
(0.103958 0.0242766 0.0162988)
(0.0874127 -0.0105907 0.0179828)
(0.107498 -0.0716661 0.0205621)
(0.0360485 -0.251393 0.00755853)
(0.0774469 -0.459439 -0.0539462)
(-0.0763084 0.0990779 -0.0201454)
(-0.0610114 0.0597886 -0.0165372)
(-0.0599635 0.0590297 -0.0135328)
(-0.0366933 0.0511296 -0.0108871)
(-0.017021 0.0431483 -0.00905535)
(0.00484159 0.0372613 -0.00750235)
(0.025151 0.0330421 -0.00636681)
(0.0456128 0.029457 -0.0056141)
(0.0640058 0.0269387 -0.0052145)
(0.08399 0.0245382 -0.00522353)
(0.100532 0.0233107 -0.00554469)
(0.122214 0.0218244 -0.006112)
(0.13597 0.0211719 -0.00664586)
(0.163851 0.0198237 -0.00621848)
(0.170145 0.014955 -0.0048308)
(0.207061 0.00725737 0.000102512)
(0.19066 -0.0239007 0.00419716)
(0.231149 -0.0719649 0.00680422)
(0.15535 -0.230903 0.00223314)
(0.1504 -0.411755 -0.0650268)
(0.119078 0.140137 -0.0171964)
(0.151415 0.0854873 -0.0191164)
(0.228596 0.0630452 -0.0194086)
(0.283431 0.0475614 -0.0182001)
(0.324625 0.0366772 -0.0164897)
(0.362733 0.0286268 -0.0149785)
(0.391258 0.023016 -0.0134938)
(0.422145 0.0187531 -0.0124234)
(0.44153 0.0157421 -0.0112526)
(0.469728 0.0133063 -0.0106916)
(0.481478 0.011533 -0.00983623)
(0.510661 0.010123 -0.00986214)
(0.514414 0.0088886 -0.00904719)
(0.547222 0.00773297 -0.00955851)
(0.53968 0.00573195 -0.00783078)
(0.57413 0.00183639 -0.00867529)
(0.541049 -0.00666971 -0.00492207)
(0.553414 -0.0253974 -0.00985895)
(0.424001 -0.0674006 -0.0113449)
(0.302506 -0.144711 -0.0780155)
(-0.000151439 0.000159003 -0.000232202)
(-0.00110356 0.000456216 -0.000271703)
(-0.00269766 0.000562901 -0.000267354)
(-0.00432834 0.000598464 -0.000264224)
(-0.00601361 0.000616028 -0.000278331)
(-0.00771013 0.000633629 -0.000311273)
(-0.00940229 0.000651269 -0.000365443)
(-0.0110652 0.000662687 -0.000445828)
(-0.0126535 0.000659052 -0.000559144)
(-0.014098 0.000629286 -0.000712806)
(-0.015301 0.000560296 -0.000913613)
(-0.0161349 0.000438412 -0.00116549)
(-0.0164466 0.000253163 -0.00146607)
(-0.0160706 -4.13448e-07 -0.00180295)
(-0.0148583 -0.000313366 -0.00214534)
(-0.0127279 -0.000645709 -0.00244752)
(-0.00974729 -0.000919989 -0.00264766)
(-0.00625701 -0.00102342 -0.00268058)
(-0.00253445 -0.000834336 -0.002468)
(-0.00031015 -0.000192635 -0.00161226)
(-0.000488183 0.00121504 -0.000431929)
(-0.00249739 0.00249333 -0.000560736)
(-0.00554439 0.00296672 -0.000576832)
(-0.00866414 0.00312375 -0.000574586)
(-0.0118561 0.00317501 -0.000590556)