/*--------------------------------*- C++ -*----------------------------------*\
  =========                 |
  \\      /  F ield         | OpenFOAM: The Open Source CFD Toolbox
   \\    /   O peration     | Website:  https://openfoam.org
    \\  /    A nd           | Version:  10
     \\/     M anipulation  |
\*---------------------------------------------------------------------------*/
FoamFile
{
    format      ascii;
    class       volVectorField;
    location    "1.775";
    object      U;
}
// * * * * * * * * * * * * * * * * * * * * * * * * * * * * * * * * * * * * * //

dimensions      [0 1 -1 0 0 0 0];

internalField   nonuniform List<vector> 
8000
(
(-0.000230514 0.00023136 -3.97196e-06)
(-0.000865688 0.00031764 9.42677e-06)
(-0.00163373 0.000314513 1.2053e-05)
(-0.00234 0.000295133 1.28335e-05)
(-0.00299476 0.000268201 1.22028e-05)
(-0.00357895 0.000234867 1.07235e-05)
(-0.00407748 0.00019574 8.684e-06)
(-0.0044775 0.000151486 6.21432e-06)
(-0.00476794 0.000102852 3.39071e-06)
(-0.00493972 5.0673e-05 2.45293e-07)
(-0.00498587 -3.99322e-06 -3.08372e-06)
(-0.00490179 -6.03224e-05 -6.54139e-06)
(-0.00468569 -0.000116811 -1.00495e-05)
(-0.00433914 -0.000171945 -1.34776e-05)
(-0.00386751 -0.000223988 -1.66439e-05)
(-0.00328047 -0.000271018 -1.92809e-05)
(-0.00259294 -0.000310976 -2.09214e-05)
(-0.00182781 -0.00034116 -2.07723e-05)
(-0.000980032 -0.000350892 -1.81234e-05)
(-0.000265338 -0.000260597 -2.7672e-06)
(-0.000326718 0.000878229 -1.92706e-05)
(-0.00119028 0.00116854 -5.58012e-06)
(-0.00221185 0.00115424 -2.0191e-06)
(-0.00315292 0.00108154 8.4689e-08)
(-0.00402337 0.000980609 9.78872e-07)
(-0.00479799 0.000856013 1.18603e-06)
(-0.00545691 0.000710395 9.91586e-07)
(-0.00598346 0.000546492 4.82988e-07)
(-0.00636353 0.000367253 -3.07221e-07)
(-0.00658561 0.000175857 -1.33777e-06)
(-0.00664141 -2.43434e-05 -2.61656e-06)
(-0.00652532 -0.000229182 -4.04526e-06)
(-0.00623518 -0.0004339 -5.63273e-06)
(-0.00577354 -0.000633195 -7.27837e-06)
(-0.00514759 -0.000820931 -8.82509e-06)
(-0.00436997 -0.000990305 -1.0016e-05)
(-0.00346022 -0.00113396 -1.03584e-05)
(-0.00244794 -0.00124212 -9.01383e-06)
(-0.00132969 -0.00127798 -5.38647e-06)
(-0.000369306 -0.000974645 1.10355e-05)
(-0.000349678 0.00170414 -2.46239e-05)
(-0.00127385 0.00223196 -1.06011e-05)
(-0.00236597 0.00220129 -6.69199e-06)
(-0.00337068 0.00206092 -4.15112e-06)
(-0.0042996 0.00186654 -2.80139e-06)
(-0.00512617 0.00162713 -2.07191e-06)
(-0.00582961 0.0013481 -1.69583e-06)
(-0.00639258 0.00103491 -1.59651e-06)
(-0.00680044 0.00069329 -1.75656e-06)
(-0.00704143 0.000329317 -2.16838e-06)
(-0.00710619 -5.05898e-05 -2.81974e-06)
(-0.00698819 -0.000438932 -3.68323e-06)
(-0.00668494 -0.000827001 -4.7504e-06)
(-0.00619807 -0.00120488 -5.92475e-06)
(-0.00553397 -0.00156116 -7.05348e-06)
(-0.00470496 -0.001883 -7.87508e-06)
(-0.00373094 -0.00215638 -7.86954e-06)
(-0.0026433 -0.00236256 -6.14063e-06)
(-0.00143765 -0.00243342 -2.10376e-06)
(-0.000399635 -0.00188213 1.51827e-05)
(-0.000371657 0.00255208 -2.8973e-05)
(-0.00135599 0.00332793 -1.43374e-05)
(-0.0025199 0.00327959 -1.01186e-05)
(-0.00358953 0.00306923 -7.23537e-06)
(-0.00457835 0.00277891 -5.56747e-06)
(-0.00545854 0.00242216 -4.50739e-06)
(-0.0062087 0.00200722 -3.78281e-06)
(-0.0068111 0.00154227 -3.32249e-06)
(-0.00725077 0.00103572 -3.1183e-06)
(-0.00751532 0.000496299 -3.18026e-06)
(-0.00759498 -6.65456e-05 -3.52591e-06)
(-0.00748192 -0.000642915 -4.07816e-06)
(-0.00717168 -0.00122027 -4.87402e-06)
(-0.00666437 -0.00178422 -5.82795e-06)
(-0.00596461 -0.00231795 -6.78132e-06)
(-0.00508332 -0.00280222 -7.45538e-06)
(-0.00403999 -0.00321552 -7.28265e-06)
(-0.00286779 -0.00352897 -5.27426e-06)
(-0.00156185 -0.00364064 -8.14602e-07)
(-0.000434359 -0.00282891 1.78466e-05)
(-0.000402039 0.0034652 -3.33639e-05)
(-0.00146857 0.00450909 -1.77326e-05)
(-0.0027301 0.00444107 -1.31605e-05)
(-0.00388798 0.00415488 -9.95073e-06)
(-0.00495785 0.00376129 -8.02184e-06)
(-0.00591033 0.00327904 -6.72419e-06)
(-0.00672336 0.00271954 -5.77084e-06)
(-0.00737898 0.00209389 -5.09077e-06)
(-0.00786196 0.0014131 -4.6817e-06)
(-0.00815947 0.000688266 -4.56508e-06)
(-0.008261 -6.89121e-05 -4.77492e-06)
(-0.00815697 -0.000845986 -5.18862e-06)
(-0.00784038 -0.00162727 -5.89625e-06)
(-0.00730864 -0.00239424 -6.81501e-06)
(-0.00656337 -0.00312455 -7.77604e-06)
(-0.00561285 -0.00379176 -8.47015e-06)
(-0.00447526 -0.00436535 -8.25496e-06)
(-0.00318572 -0.00480383 -5.9959e-06)
(-0.00173902 -0.00496631 -9.90048e-07)
(-0.000484389 -0.00387077 1.98147e-05)
(-0.000442424 0.00446591 -3.85564e-05)
(-0.00161761 0.00580409 -2.15397e-05)
(-0.0030075 0.00571331 -1.65307e-05)
(-0.00428068 0.00534302 -1.29394e-05)
(-0.00545568 0.004836 -1.0729e-05)
(-0.00650125 0.00421716 -9.19716e-06)
(-0.00739486 0.00350173 -8.03803e-06)
(-0.00811863 0.0027039 -7.17851e-06)
(-0.00865752 0.00183719 -6.62006e-06)
(-0.00899844 0.000914686 -6.39468e-06)
(-0.00913032 -5.02365e-05 -6.56233e-06)
(-0.00904131 -0.00104381 -6.93031e-06)
(-0.0087209 -0.00204779 -7.66857e-06)
(-0.00816253 -0.00304023 -8.68857e-06)
(-0.00736296 -0.00399322 -9.8114e-06)
(-0.00632579 -0.0048723 -1.06843e-05)
(-0.00506616 -0.00563585 -1.0556e-05)
(-0.00362065 -0.00622596 -8.07542e-06)
(-0.00198329 -0.00645497 -2.38496e-06)
(-0.000553924 -0.00504514 2.14734e-05)
(-0.000494162 0.00557931 -4.51813e-05)
(-0.0018081 0.00724503 -2.63857e-05)
(-0.00336091 0.00712665 -2.08142e-05)
(-0.00477896 0.00666063 -1.67169e-05)
(-0.00608464 0.00602635 -1.4128e-05)
(-0.00724473 0.00525636 -1.22855e-05)
(-0.00823673 0.00437053 -1.08638e-05)
(-0.00904362 0.00338658 -9.78805e-06)
(-0.00965128 0.00232035 -9.06204e-06)
(-0.010047 0.0011862 -8.7289e-06)
(-0.0102196 -2.16e-06 -8.90669e-06)
(-0.0101546 -0.00122965 -9.27326e-06)
(-0.00983688 -0.00247844 -1.01464e-05)
(-0.00925415 -0.00372409 -1.14049e-05)
(-0.0083956 -0.00493367 -1.28679e-05)
(-0.00725688 -0.00606387 -1.41302e-05)
(-0.00584669 -0.00705936 -1.42883e-05)
(-0.00420136 -0.00784034 -1.16732e-05)
(-0.00231285 -0.00816057 -5.16594e-06)
(-0.000648634 -0.00639814 2.28626e-05)
(-0.000559219 0.00683548 -5.38778e-05)
(-0.00204703 0.00887001 -3.28701e-05)
(-0.00380232 0.00871628 -2.65497e-05)
(-0.00539775 0.00813813 -2.17342e-05)
(-0.00686104 0.00735769 -1.85802e-05)
(-0.00815717 0.00641742 -1.62651e-05)
(-0.0092647 0.00534312 -1.44481e-05)
(-0.0101689 0.00415656 -1.30537e-05)
(-0.010858 0.00287573 -1.20802e-05)
(-0.011321 0.00151532 -1.15245e-05)
(-0.0115462 8.79486e-05 -1.12488e-05)
(-0.0115176 -0.00139253 -1.21483e-05)
(-0.0112154 -0.00291076 -1.33499e-05)
(-0.0106178 -0.00444236 -1.50392e-05)
(-0.00970289 -0.00595109 -1.70996e-05)
(-0.00845326 -0.00738467 -1.90894e-05)
(-0.00686525 -0.00867105 -1.9899e-05)
(-0.00497045 -0.00970095 -1.73933e-05)
(-0.00275581 -0.0101516 -9.99446e-06)
(-0.000777708 -0.00799056 2.36281e-05)
(-0.000640639 0.0082708 -6.5514e-05)
(-0.00234471 0.0107243 -4.17814e-05)
(-0.00434883 0.0105227 -3.44145e-05)
(-0.00615775 0.00980891 -2.85225e-05)
(-0.00780665 0.0088564 -2.44746e-05)
(-0.00925944 0.00772072 -2.13995e-05)
(-0.0104977 0.00643554 -1.8953e-05)
(-0.0115111 0.00502741 -1.70645e-05)
(-0.0122926 0.0035162 -1.57364e-05)
(-0.0128349 0.00191568 -1.49618e-05)
(-0.0131275 0.000235452 -1.46523e-05)
(-0.0131534 -0.00151605 -1.57297e-05)
(-0.0128868 -0.00332861 -1.73318e-05)
(-0.0122945 -0.00518234 -1.96937e-05)
(-0.0113381 -0.00704155 -2.27436e-05)
(-0.0099791 -0.00884667 -2.60218e-05)
(-0.00819153 -0.0105063 -2.81637e-05)
(-0.00599234 -0.0118718 -2.63597e-05)
(-0.00335714 -0.012516 -1.81597e-05)
(-0.00095677 -0.00990529 2.28315e-05)
(-0.00074334 0.00993115 -8.14362e-05)
(-0.00271685 0.0128634 -5.43167e-05)
(-0.00502539 0.0125934 -4.53812e-05)
(-0.00708804 0.0117097 -3.77868e-05)
(-0.00895076 0.010549 -3.2268e-05)
(-0.0105782 0.00918473 -2.79405e-05)
(-0.0119581 0.00766087 -2.44745e-05)
(-0.0130884 0.00600982 -2.18077e-05)
(-0.0139698 0.00425285 -1.99525e-05)
(-0.0146019 0.00240107 -1.89525e-05)
(-0.014978 0.000457913 -1.89238e-05)
(-0.0150818 -0.00157712 -1.99104e-05)
(-0.0148817 -0.00370513 -2.20066e-05)
(-0.0143308 -0.00591721 -2.53855e-05)
(-0.0133674 -0.00818535 -3.00373e-05)
(-0.0119209 -0.0104486 -3.55238e-05)
(-0.00992641 -0.0125959 -4.02465e-05)
(-0.00736605 -0.0144284 -4.04816e-05)
(-0.00419149 -0.0153699 -3.19916e-05)
(-0.00121385 -0.0122615 1.81624e-05)
(-0.000875723 0.0118774 -0.000103886)
(-0.00318823 0.0153575 -7.24148e-05)
(-0.00586916 0.0149851 -6.09162e-05)
(-0.00823025 0.0138804 -5.04835e-05)
(-0.0103334 0.0124608 -4.24716e-05)
(-0.0121479 0.0108234 -3.60562e-05)
(-0.0136728 0.00902621 -3.09366e-05)
(-0.0149193 0.00710856 -2.70413e-05)
(-0.0159015 0.00509239 -2.43549e-05)
(-0.0166299 0.00298388 -2.29042e-05)
(-0.0171058 0.000776524 -2.27967e-05)
(-0.0173165 -0.00154461 -2.40714e-05)
(-0.0172269 -0.00399921 -2.69545e-05)
(-0.0167748 -0.00659939 -3.18518e-05)
(-0.0158697 -0.00933721 -3.90094e-05)
(-0.0143933 -0.0121633 -4.82006e-05)
(-0.0122169 -0.0149551 -5.77089e-05)
(-0.00924679 -0.0174557 -6.28658e-05)
(-0.00538802 -0.0188675 -5.54978e-05)
(-0.00160236 -0.015241 4.70277e-06)
(-0.00105305 0.0141953 -0.000136819)
(-0.0037996 0.0182985 -9.93392e-05)
(-0.00693685 0.0177665 -8.32562e-05)
(-0.00964507 0.0163635 -6.78567e-05)
(-0.0120099 0.0146121 -5.55204e-05)
(-0.0140131 0.0126415 -4.56149e-05)
(-0.0156732 0.0105276 -3.78505e-05)
(-0.0170224 0.00831762 -3.20774e-05)
(-0.0180947 0.00603279 -2.81569e-05)
(-0.0189179 0.00367139 -2.60017e-05)
(-0.0195067 0.00121245 -2.56737e-05)
(-0.0198577 -0.00137959 -2.72981e-05)
(-0.0199366 -0.00415215 -3.12097e-05)
(-0.0196689 -0.00715232 -3.81822e-05)
(-0.0189316 -0.0104117 -4.90067e-05)
(-0.0175434 -0.0139175 -6.41102e-05)
(-0.0152769 -0.0175596 -8.21416e-05)
(-0.0118823 -0.0210392 -9.81532e-05)
(-0.00718121 -0.0232135 -9.5213e-05)
(-0.00223077 -0.019139 -2.87306e-05)
(-0.001305 0.0170174 -0.000187678)
(-0.00462105 0.0218121 -0.000140832)
(-0.00831681 0.0210222 -0.000115781)
(-0.0114224 0.0192008 -9.12827e-05)
(-0.0140577 0.0170128 -7.13095e-05)
(-0.0162327 0.0146275 -5.56204e-05)
(-0.017997 0.0121427 -4.37675e-05)
(-0.0194144 0.00961302 -3.52976e-05)
(-0.020548 0.00705671 -2.97103e-05)
(-0.0214505 0.00446027 -2.65942e-05)
(-0.022157 0.00178313 -2.58875e-05)
(-0.0226813 -0.00103746 -2.77027e-05)
(-0.0229998 -0.00408578 -3.26341e-05)
(-0.0230345 -0.00746138 -4.19788e-05)
(-0.0226352 -0.0112635 -5.75033e-05)
(-0.0215472 -0.0155588 -8.1086e-05)
(-0.0194138 -0.0203022 -0.000113247)
(-0.0156746 -0.0252366 -0.000151894)
(-0.010015 -0.0286651 -0.000161311)
(-0.00333019 -0.0244672 -0.000108497)
(-0.00169426 0.020504 -0.00026935)
(-0.00578284 0.0260452 -0.000205588)
(-0.0101516 0.0248448 -0.000162706)
(-0.0136975 0.022424 -0.000121295)
(-0.0165857 0.0196504 -8.7799e-05)
(-0.0188836 0.0167409 -6.27931e-05)
(-0.0206879 0.0138189 -4.50059e-05)
(-0.0221084 0.0109429 -3.30572e-05)
(-0.0232475 0.00812234 -2.55417e-05)
(-0.0241915 0.00532711 -2.12591e-05)
(-0.0250044 0.00249328 -1.98592e-05)
(-0.0257266 -0.000474843 -2.10852e-05)
(-0.0263606 -0.00370657 -2.64744e-05)
(-0.0268465 -0.00736956 -3.74462e-05)
(-0.0270291 -0.0116658 -5.72911e-05)
(-0.0265901 -0.01681 -9.03078e-05)
(-0.0250528 -0.0229163 -0.000142825)
(-0.0212711 -0.0299912 -0.000226675)
(-0.0147602 -0.0354409 -0.000269849)
(-0.00542309 -0.0322427 -0.000295126)
(-0.00231597 0.0253576 -0.000430504)
(-0.00747008 0.0313573 -0.000318432)
(-0.0126447 0.0293912 -0.000231917)
(-0.0166656 0.0260515 -0.000155421)
(-0.0197431 0.0224724 -9.73169e-05)
(-0.022064 0.0188938 -5.79656e-05)
(-0.0237944 0.0154584 -3.2572e-05)
(-0.02511 0.0122151 -1.72055e-05)
(-0.0261625 0.00915333 -8.23641e-06)
(-0.0270779 0.00621859 -3.22836e-06)
(-0.0279571 0.00332006 -1.09101e-06)
(-0.028879 0.000326467 3.6979e-07)
(-0.029892 -0.00292968 -3.94802e-06)
(-0.0309906 -0.00669304 -1.22901e-05)
(-0.0320718 -0.0113043 -3.01426e-05)
(-0.0328049 -0.0172191 -6.55571e-05)
(-0.0327141 -0.0248189 -0.000136894)
(-0.0296226 -0.0349085 -0.000295428)
(-0.0232005 -0.0434425 -0.000404767)
(-0.00981536 -0.0443181 -0.000715873)
(-0.00376263 0.0302148 -0.000629392)
(-0.0105712 0.0374342 -0.000480348)
(-0.0162835 0.0345611 -0.00031104)
(-0.0206694 0.0299864 -0.000173952)
(-0.023741 0.0253343 -7.46473e-05)
(-0.0258902 0.020913 -1.64033e-05)
(-0.0273547 0.0168897 1.5006e-05)
(-0.0283975 0.0132781 2.96241e-05)
(-0.0292239 0.0100264 3.57695e-05)
(-0.0300005 0.00704554 3.83017e-05)
(-0.030868 0.00422187 3.97491e-05)
(-0.031943 0.00141481 4.08339e-05)
(-0.0333407 -0.00157307 5.27974e-05)
(-0.0351738 -0.00507833 6.11314e-05)
(-0.0374941 -0.00951697 7.1987e-05)
(-0.040041 -0.015798 7.44814e-05)
(-0.0427553 -0.0244012 4.31391e-05)
(-0.0417628 -0.0390009 -0.000195283)
(-0.0381862 -0.0521797 -0.000344841)
(-0.0187583 -0.0645998 -0.00146235)
(-0.00460167 0.0440239 -0.00130946)
(-0.0134472 0.0456273 -0.000729354)
(-0.0209994 0.0406073 -0.000388112)
(-0.0259253 0.0336611 -0.000103173)
(-0.0287316 0.0275918 5.96236e-05)
(-0.0303607 0.0222796 0.000125256)
(-0.0312204 0.0177257 0.000144451)
(-0.0317088 0.0138351 0.0001416)
(-0.0320797 0.0105006 0.00013212)
(-0.0325199 0.00759559 0.000124172)
(-0.0331791 0.00497425 0.000123673)
(-0.034216 0.00245065 0.000135448)
(-0.0358677 -0.000214759 0.000163602)
(-0.0383315 -0.00339586 0.000211892)
(-0.0420469 -0.00755 0.000316201)
(-0.0466953 -0.0141004 0.000494473)
(-0.0544731 -0.023805 0.000725624)
(-0.0575029 -0.0435285 0.000574854)
(-0.0615558 -0.0645727 0.000566208)
(-0.0317493 -0.100044 -0.00216797)
(-0.0137801 0.0460741 -0.00206961)
(-0.0283916 0.0585536 -0.0015906)
(-0.0290034 0.0494483 -0.000590154)
(-0.0329452 0.0398557 -4.80245e-05)
(-0.0333841 0.0312545 0.00028459)
(-0.0331924 0.0240662 0.000399094)
(-0.0325498 0.0184274 0.000412019)
(-0.031821 0.0140362 0.000377615)
(-0.0312135 0.0106042 0.00033179)
(-0.0309008 0.00787485 0.000292826)
(-0.0310532 0.00566762 0.000270617)
(-0.0318481 0.00383086 0.000273341)
(-0.0335542 0.00230294 0.000322192)
(-0.0363937 0.000823512 0.000461123)
(-0.0413422 -6.1197e-05 0.000774982)
(-0.0477119 -0.00472686 0.00132811)
(-0.0601504 -0.00757052 0.00240473)
(-0.0643295 -0.0355348 0.00290472)
(-0.0781414 -0.0626686 0.00363576)
(-0.0287866 -0.153715 -0.00232902)
(-0.0446326 0.105711 -0.00431574)
(-0.0368565 0.054523 -0.000398057)
(-0.0312701 0.0440678 0.000772149)
(-0.0222145 0.03252 0.0016457)
(-0.0137334 0.0235408 0.00179853)
(-0.00672641 0.0175426 0.00158016)
(-0.000930806 0.0133173 0.00128435)
(0.00358581 0.0101557 0.00100932)
(0.00699516 0.00775316 0.000796159)
(0.00946213 0.00591911 0.000647817)
(0.011114 0.00453478 0.000565934)
(0.012112 0.00346774 0.000552697)
(0.0122012 0.00276868 0.000655451)
(0.0125953 0.00190327 0.000926568)
(0.00898511 0.001024 0.00154423)
(0.0114954 -0.00374949 0.00268801)
(-0.00298716 -0.0138507 0.00486669)
(0.00798438 -0.0499274 0.00646053)
(-0.0350695 -0.116217 0.0077496)
(0.015303 -0.231418 -0.00624398)
(0.120647 0.112588 -0.00642152)
(0.145211 0.0589301 -0.00486696)
(0.213096 0.0379136 -0.0028319)
(0.247544 0.0249493 -0.000786184)
(0.268893 0.0160066 0.000408261)
(0.283521 0.0104057 0.000874987)
(0.293645 0.00708987 0.000983211)
(0.300704 0.00507471 0.000919673)
(0.305794 0.0037538 0.000790569)
(0.309605 0.0028333 0.000652976)
(0.312327 0.00218274 0.000569883)
(0.314608 0.00165706 0.000475389)
(0.315285 0.00121228 0.000585268)
(0.317563 0.000908979 0.000518124)
(0.313134 -0.000751925 0.00120819)
(0.318546 -0.000359162 0.00146635)
(0.293414 -0.00799861 0.00305205)
(0.299708 -0.0136172 0.00463838)
(0.188788 -0.0468373 -0.00166032)
(0.169326 -0.114173 -0.0190253)
(-0.000308794 0.000306842 -8.75155e-06)
(-0.00115614 0.0004315 8.07857e-06)
(-0.00217518 0.000427999 1.22045e-05)
(-0.00310694 0.000400849 1.39573e-05)
(-0.00396709 0.000363192 1.36924e-05)
(-0.00473147 0.000316772 1.21345e-05)
(-0.00538096 0.000262532 9.68014e-06)
(-0.00589928 0.000201458 6.51961e-06)
(-0.00627258 0.00013464 2.77386e-06)
(-0.00648957 6.33251e-05 -1.43389e-06)
(-0.0065419 -1.11511e-05 -6.05457e-06)
(-0.00642444 -8.74914e-05 -1.09185e-05)
(-0.00613559 -0.000163771 -1.58603e-05)
(-0.00567801 -0.000237975 -2.06619e-05)
(-0.0050591 -0.000307817 -2.50243e-05)
(-0.00429149 -0.00037079 -2.85239e-05)
(-0.003394 -0.000424197 -3.04788e-05)
(-0.00239497 -0.000464305 -2.983e-05)
(-0.00128476 -0.000475238 -2.58241e-05)
(-0.000347522 -0.000343547 -5.56729e-06)
(-0.000449386 0.00116352 -2.95511e-05)
(-0.00162771 0.00158214 -1.21916e-05)
(-0.0030117 0.00156516 -6.68229e-06)
(-0.00428066 0.0014639 -3.06058e-06)
(-0.00544952 0.00132355 -1.25768e-06)
(-0.00648549 0.00115102 -5.57324e-07)
(-0.00736272 0.000950213 -5.6928e-07)
(-0.00805964 0.000725122 -1.15088e-06)
(-0.00855819 0.000479973 -2.24103e-06)
(-0.00884398 0.000219291 -3.787e-06)
(-0.00890692 -5.2302e-05 -5.78835e-06)
(-0.00874073 -0.000329123 -8.0717e-06)
(-0.00834373 -0.000604843 -1.05819e-05)
(-0.00772016 -0.000872404 -1.31309e-05)
(-0.0068802 -0.00112375 -1.54392e-05)
(-0.00584087 -0.00135001 -1.70809e-05)
(-0.00462747 -0.00154157 -1.73241e-05)
(-0.00327749 -0.00168496 -1.50382e-05)
(-0.00178336 -0.00172577 -9.65019e-06)
(-0.000496254 -0.00128447 1.1949e-05)
(-0.000483346 0.00225359 -3.78032e-05)
(-0.00174955 0.00301339 -2.01874e-05)
(-0.00323456 0.0029762 -1.41244e-05)
(-0.0045943 0.00278148 -9.75973e-06)
(-0.00584598 0.00251222 -7.18328e-06)
(-0.00695491 0.00218196 -5.64545e-06)
(-0.00789403 0.00179857 -4.76808e-06)
(-0.00864089 0.00136994 -4.42452e-06)
(-0.00917676 0.000904227 -4.57331e-06)
(-0.00948691 0.000409922 -5.19394e-06)
(-0.00956007 -0.000104048 -6.25857e-06)
(-0.00938894 -0.000627499 -7.69044e-06)
(-0.0089714 -0.00114882 -9.42666e-06)
(-0.00831067 -0.00165489 -1.12829e-05)
(-0.00741611 -0.00213072 -1.29813e-05)
(-0.00630445 -0.00255961 -1.40834e-05)
(-0.00500159 -0.00292325 -1.38134e-05)
(-0.00354734 -0.00319595 -1.09576e-05)
(-0.00193273 -0.00327741 -4.97524e-06)
(-0.000538378 -0.00247668 1.76404e-05)
(-0.000514833 0.00336875 -4.51467e-05)
(-0.00186554 0.00448411 -2.69491e-05)
(-0.00345004 0.00442496 -2.03589e-05)
(-0.00489918 0.00413356 -1.53737e-05)
(-0.00623264 0.00373204 -1.2182e-05)
(-0.00741408 0.00324067 -1.00115e-05)
(-0.00841567 0.00267145 -8.4834e-06)
(-0.00921452 0.00203618 -7.48332e-06)
(-0.00979156 0.00134678 -6.98653e-06)
(-0.0101314 0.000615479 -6.99475e-06)
(-0.0102223 -0.000144751 -7.51277e-06)
(-0.0100553 -0.000920204 -8.41539e-06)
(-0.00962607 -0.00169428 -9.7015e-06)
(-0.00893593 -0.00244796 -1.11983e-05)
(-0.00799206 -0.00315925 -1.26156e-05)
(-0.00680946 -0.00380311 -1.34823e-05)
(-0.00541359 -0.00435151 -1.29468e-05)
(-0.00384646 -0.00476499 -9.66197e-06)
(-0.00209817 -0.00489391 -3.0659e-06)
(-0.000584583 -0.00371553 2.12592e-05)
(-0.000558085 0.004568 -5.28645e-05)
(-0.00202364 0.00606697 -3.36092e-05)
(-0.00374278 0.00598295 -2.63897e-05)
(-0.00531278 0.00558653 -2.07533e-05)
(-0.00675629 0.00504237 -1.69865e-05)
(-0.00803492 0.00437843 -1.42743e-05)
(-0.00912006 0.00361138 -1.22268e-05)
(-0.00998866 0.00275716 -1.07359e-05)
(-0.0106215 0.00183141 -9.78887e-06)
(-0.0110027 0.000849718 -9.40527e-06)
(-0.0111197 -0.000171808 -9.61423e-06)
(-0.0109615 -0.00121597 -1.02424e-05)
(-0.0105207 -0.00226197 -1.13562e-05)
(-0.00979527 -0.00328534 -1.27841e-05)
(-0.00878858 -0.00425684 -1.42144e-05)
(-0.00751242 -0.00514211 -1.51213e-05)
(-0.00599064 -0.00590145 -1.45332e-05)
(-0.00426766 -0.00647837 -1.08918e-05)
(-0.00233267 -0.00666663 -3.54071e-06)
(-0.000650642 -0.00507623 2.3532e-05)
(-0.000615594 0.00588168 -6.20854e-05)
(-0.00223298 0.00780123 -4.13048e-05)
(-0.00412914 0.00768778 -3.32832e-05)
(-0.00585696 0.00717436 -2.68457e-05)
(-0.00744304 0.00647299 -2.24037e-05)
(-0.00884659 0.00562074 -1.9089e-05)
(-0.0100386 0.00463979 -1.64975e-05)
(-0.0109962 0.00355058 -1.45267e-05)
(-0.0117008 0.00237238 -1.31749e-05)
(-0.0121364 0.00112358 -1.24795e-05)
(-0.0122897 -0.000177394 -1.25068e-05)
(-0.012147 -0.0015113 -1.30114e-05)
(-0.0116969 -0.00285405 -1.41528e-05)
(-0.0109321 -0.00417652 -1.57507e-05)
(-0.0098501 -0.00544223 -1.74703e-05)
(-0.00845671 -0.0066064 -1.87084e-05)
(-0.006772 -0.00761496 -1.83188e-05)
(-0.00484217 -0.00838939 -1.44249e-05)
(-0.00265485 -0.00865591 -6.17913e-06)
(-0.000742037 -0.00660805 2.48374e-05)
(-0.000689436 0.00734325 -7.38612e-05)
(-0.00250097 0.0097302 -5.11007e-05)
(-0.00462198 0.00958015 -4.20166e-05)
(-0.00654811 0.00893289 -3.44934e-05)
(-0.00831132 0.00805439 -2.91266e-05)
(-0.00986832 0.00699301 -2.49956e-05)
(-0.0111904 0.00577767 -2.16881e-05)
(-0.0122562 0.00443386 -1.91112e-05)
(-0.0130486 0.00298427 -1.72737e-05)
(-0.0135527 0.00144921 -1.62326e-05)
(-0.0137547 -0.000151942 -1.61308e-05)
(-0.0136383 -0.00179971 -1.65892e-05)
(-0.0131861 -0.00346875 -1.79385e-05)
(-0.0123836 -0.00512694 -1.99594e-05)
(-0.0112187 -0.00673122 -2.23034e-05)
(-0.00968743 -0.00822536 -2.42736e-05)
(-0.00780165 -0.00953743 -2.44792e-05)
(-0.00560707 -0.0105597 -2.05699e-05)
(-0.00308797 -0.0109344 -1.13486e-05)
(-0.000865928 -0.00837129 2.50602e-05)
(-0.000782599 0.0089923 -8.93487e-05)
(-0.00283791 0.0119046 -6.4119e-05)
(-0.00523871 0.0117066 -5.3574e-05)
(-0.0074078 0.0109017 -4.44921e-05)
(-0.00938453 0.00981903 -3.77571e-05)
(-0.0111235 0.00852126 -3.24139e-05)
(-0.0125978 0.00704591 -2.8059e-05)
(-0.0137897 0.0054243 -2.46147e-05)
(-0.0146855 0.00368218 -2.20921e-05)
(-0.0152727 0.00184049 -2.05045e-05)
(-0.0155386 -8.27262e-05 -1.97632e-05)
(-0.0154639 -0.00206981 -2.07441e-05)
(-0.0150242 -0.00409813 -2.25773e-05)
(-0.0141947 -0.00613549 -2.53569e-05)
(-0.0129488 -0.00813434 -2.88021e-05)
(-0.0112658 -0.0100267 -3.21366e-05)
(-0.00914217 -0.0117187 -3.36407e-05)
(-0.00661726 -0.0130635 -3.02621e-05)
(-0.00366799 -0.0135944 -2.01495e-05)
(-0.00103391 -0.0104451 2.34541e-05)
(-0.000899654 0.0108763 -0.000110135)
(-0.00325892 0.0143843 -8.18544e-05)
(-0.00600407 0.0141199 -6.92046e-05)
(-0.00846573 0.0131237 -5.77791e-05)
(-0.0106937 0.0117999 -4.89281e-05)
(-0.0126416 0.0102302 -4.17094e-05)
(-0.0142875 0.00846325 -3.57591e-05)
(-0.0156201 0.00653725 -3.10264e-05)
(-0.0166326 0.00448049 -2.75312e-05)
(-0.0173177 0.0023126 -2.52644e-05)
(-0.0176651 4.70528e-05 -2.40598e-05)
(-0.0176538 -0.00230324 -2.53809e-05)
(-0.0172518 -0.00472454 -2.78498e-05)
(-0.0164198 -0.00718966 -3.17995e-05)
(-0.0151102 -0.00965115 -3.70423e-05)
(-0.0132756 -0.0120312 -4.27582e-05)
(-0.0108839 -0.0142107 -4.68219e-05)
(-0.00795588 -0.01599 -4.51605e-05)
(-0.00445261 -0.0167552 -3.46292e-05)
(-0.00126576 -0.0129379 1.83284e-05)
(-0.00104785 0.0130545 -0.000138636)
(-0.00378675 0.0172418 -0.000106523)
(-0.00695382 0.0168813 -9.06579e-05)
(-0.00976333 0.015645 -7.55548e-05)
(-0.0122803 0.0140292 -6.333e-05)
(-0.0144604 0.012141 -5.31516e-05)
(-0.0162909 0.0100439 -4.47396e-05)
(-0.0177727 0.0077839 -3.80741e-05)
(-0.0189103 0.00539116 -3.31824e-05)
(-0.0197063 0.00288147 -3.01153e-05)
(-0.0201546 0.000259945 -2.90282e-05)
(-0.0202356 -0.00247235 -2.99897e-05)
(-0.0199107 -0.00531642 -3.3169e-05)
(-0.0191214 -0.00825903 -3.88076e-05)
(-0.0177907 -0.011262 -4.68556e-05)
(-0.0158302 -0.0142446 -5.65554e-05)
(-0.0131585 -0.0170618 -6.54012e-05)
(-0.00975141 -0.0194462 -6.79362e-05)
(-0.0055383 -0.0205753 -5.82998e-05)
(-0.00159741 -0.0160068 6.31237e-06)
(-0.00123926 0.0156045 -0.000178758)
(-0.00445673 0.0205675 -0.000141588)
(-0.00814067 0.0200625 -0.000120475)
(-0.0113592 0.0185146 -9.93635e-05)
(-0.0142003 0.0165359 -8.16356e-05)
(-0.0166274 0.014268 -6.67441e-05)
(-0.0186449 0.0117933 -5.45328e-05)
(-0.0202731 0.00916731 -4.49722e-05)
(-0.0215353 0.00642044 -3.80143e-05)
(-0.0224491 0.00356127 -3.36388e-05)
(-0.023019 0.000581323 -3.19419e-05)
(-0.0232303 -0.00253869 -3.29931e-05)
(-0.0230386 -0.00582329 -3.71841e-05)
(-0.0223655 -0.00928638 -4.516e-05)
(-0.0210962 -0.0129149 -5.73623e-05)
(-0.0190816 -0.0166416 -7.34747e-05)
(-0.0161589 -0.0203046 -9.08803e-05)
(-0.0122067 -0.0235578 -0.000102667)
(-0.00709359 -0.0252696 -9.70641e-05)
(-0.00209813 -0.0198949 -2.02495e-05)
(-0.00149513 0.018633 -0.000237128)
(-0.00532567 0.0244774 -0.000192623)
(-0.00964386 0.0237482 -0.000162363)
(-0.0133376 0.0217818 -0.000131074)
(-0.0165299 0.019341 -0.000104212)
(-0.0192035 0.016612 -8.18049e-05)
(-0.021392 0.0137022 -6.38056e-05)
(-0.0231459 0.0106767 -5.00331e-05)
(-0.0245167 0.00756394 -4.01675e-05)
(-0.0255457 0.00436063 -3.39277e-05)
(-0.0262547 0.0010378 -3.12165e-05)
(-0.0266404 -0.00245197 -3.21959e-05)
(-0.0266586 -0.00617006 -3.74309e-05)
(-0.026213 -0.0101757 -4.82295e-05)
(-0.0251464 -0.0145059 -6.60413e-05)
(-0.023228 -0.0191388 -9.18423e-05)
(-0.0201695 -0.0239261 -0.000123864)
(-0.0156487 -0.0284598 -0.000154885)
(-0.00942951 -0.0311295 -0.00016018)
(-0.00291159 -0.025006 -7.82912e-05)
(-0.00185515 0.0223018 -0.000325627)
(-0.00648843 0.0291277 -0.000268939)
(-0.0115844 0.0280398 -0.000221655)
(-0.015821 0.0254926 -0.000172525)
(-0.0193735 0.0224492 -0.000130302)
(-0.0222668 0.0191518 -9.60066e-05)
(-0.0245807 0.0157373 -6.94484e-05)
(-0.0264117 0.0122793 -4.98797e-05)
(-0.0278516 0.00879984 -3.62635e-05)
(-0.0289755 0.00527785 -2.77056e-05)
(-0.0298319 0.00165628 -2.35531e-05)
(-0.0304384 -0.00214956 -2.38439e-05)
(-0.0307625 -0.00625166 -2.95423e-05)
(-0.0307014 -0.0107772 -4.27724e-05)
(-0.0300599 -0.0158504 -6.67452e-05)
(-0.0285124 -0.0215496 -0.000105481)
(-0.0256045 -0.0278095 -0.000160552)
(-0.0206164 -0.0342637 -0.000229745)
(-0.0131496 -0.0385369 -0.000261103)
(-0.00435381 -0.0320663 -0.000205966)
(-0.00240026 0.0267765 -0.000463915)
(-0.00811646 0.0346853 -0.00038406)
(-0.0141537 0.0330402 -0.000304717)
(-0.0189898 0.0296752 -0.000223965)
(-0.0228744 0.0258353 -0.000155882)
(-0.0259162 0.0218299 -0.000103227)
(-0.0282649 0.0178296 -6.46987e-05)
(-0.0300835 0.0139104 -3.79351e-05)
(-0.0315182 0.0100799 -2.0253e-05)
(-0.0326892 0.00629139 -9.39174e-06)
(-0.0336822 0.00245381 -3.43018e-06)
(-0.0345484 -0.0015623 -1.60902e-06)
(-0.0352862 -0.00593415 -5.74442e-06)
(-0.0358117 -0.0108763 -1.84517e-05)
(-0.0359189 -0.0166473 -4.55857e-05)
(-0.0352014 -0.0235151 -9.69613e-05)
(-0.033049 -0.0316246 -0.00018327)
(-0.0279985 -0.0409324 -0.000324362)
(-0.019471 -0.0478388 -0.000417125)
(-0.00716273 -0.0425622 -0.000485222)
(-0.00323037 0.0329723 -0.000719414)
(-0.0104164 0.0416026 -0.000573039)
(-0.0176091 0.0389381 -0.000422721)
(-0.0230947 0.0343424 -0.000281041)
(-0.0272226 0.0294288 -0.000168629)
(-0.0302729 0.024536 -8.87218e-05)
(-0.0324996 0.0198602 -3.52064e-05)
(-0.0341602 0.015462 -1.6053e-06)
(-0.0354689 0.011319 1.88379e-05)
(-0.0365993 0.00734869 3.13847e-05)
(-0.0376828 0.00342048 3.94258e-05)
(-0.038823 -0.000647967 4.6413e-05)
(-0.0400723 -0.00507405 4.82064e-05)
(-0.0414091 -0.0101961 4.44201e-05)
(-0.0426917 -0.0164435 2.61709e-05)
(-0.0435014 -0.0243969 -2.33677e-05)
(-0.0432234 -0.0345609 -0.000135349)
(-0.0391136 -0.0479342 -0.000390424)
(-0.030894 -0.0589354 -0.000597632)
(-0.013178 -0.0593282 -0.00108635)
(-0.00517331 0.0387496 -0.00103832)
(-0.0146177 0.0494249 -0.000838795)
(-0.0225855 0.0455777 -0.000560152)
(-0.0285732 0.0393952 -0.000316823)
(-0.0326793 0.0330791 -0.000133317)
(-0.0354767 0.027079 -1.73658e-05)
(-0.037324 0.0216369 4.94784e-05)
(-0.0386029 0.0167656 8.42093e-05)
(-0.0396027 0.0123854 0.000101576)
(-0.0405516 0.00836372 0.000111438)
(-0.0416348 0.00453589 0.0001201)
(-0.0429897 0.000698703 0.000131243)
(-0.0447694 -0.00341995 0.000158142)
(-0.0470998 -0.00826856 0.000185423)
(-0.0500099 -0.0143803 0.000216117)
(-0.0531924 -0.0228858 0.00022738)
(-0.056567 -0.0345519 0.000172799)
(-0.0552584 -0.0538794 -0.000196873)
(-0.0510592 -0.07132 -0.00050498)
(-0.0250024 -0.0883212 -0.00213492)
(-0.00588326 0.0556964 -0.00198432)
(-0.0179127 0.0593497 -0.00122016)
(-0.0289058 0.0530666 -0.000698948)
(-0.0356571 0.0439417 -0.000231603)
(-0.0394505 0.0359077 5.49052e-05)
(-0.0415384 0.0288083 0.000195233)
(-0.0425408 0.0227112 0.000253536)
(-0.0430473 0.0175021 0.000267505)
(-0.043419 0.0130343 0.000264365)
(-0.0439135 0.00912738 0.000260495)
(-0.0447291 0.00557434 0.00026862)
(-0.0460695 0.00211974 0.000299323)
(-0.0482192 -0.00156308 0.000361757)
(-0.0513883 -0.00593138 0.000463773)
(-0.0560586 -0.0115951 0.000647087)
(-0.0619243 -0.0203232 0.000916181)
(-0.071523 -0.0331319 0.00122277)
(-0.0748386 -0.0590783 0.000940575)
(-0.0798581 -0.0875001 0.000721619)
(-0.0378 -0.139066 -0.00318467)
(-0.0158204 0.0552161 -0.00306604)
(-0.0364581 0.0770199 -0.0024552)
(-0.03917 0.0652173 -0.0010543)
(-0.0452656 0.0527282 -0.000210546)
(-0.0459381 0.0412629 0.000336071)
(-0.0455087 0.0315836 0.000566495)
(-0.0443348 0.0239779 0.000631882)
(-0.0430473 0.018056 0.000610872)
(-0.0419698 0.0134305 0.000562371)
(-0.0413447 0.00974416 0.000518664)
(-0.0413841 0.00673802 0.000500368)
(-0.0422881 0.00419448 0.00052405)
(-0.0443542 0.00202644 0.000622942)
(-0.0477956 -7.38921e-05 0.000853668)
(-0.0537338 -0.00162448 0.00132112)
(-0.0608689 -0.00745722 0.00209777)
(-0.0749628 -0.0124054 0.00349864)
(-0.0759853 -0.0483867 0.00405455)
(-0.0908537 -0.08838 0.0046614)
(-0.020567 -0.211491 -0.00375863)
(-0.0646772 0.123133 -0.00574178)
(-0.0536255 0.0688762 -0.00091476)
(-0.0492324 0.0577823 0.000622018)
(-0.0360329 0.0432425 0.00191421)
(-0.0231338 0.0315421 0.00226942)
(-0.0120802 0.0234743 0.00210901)
(-0.0028005 0.0177102 0.00179853)
(0.00449604 0.0133787 0.00147034)
(0.0100387 0.0100868 0.00120587)
(0.0140908 0.00757279 0.00101623)
(0.0168702 0.00567539 0.000917181)
(0.0187047 0.00417724 0.000918846)
(0.0193028 0.00320964 0.00109344)
(0.0204293 0.001955 0.00150272)
(0.017108 0.00098861 0.00242241)
(0.0226678 -0.00496046 0.00398225)
(0.0086248 -0.016916 0.00685927)
(0.0336175 -0.0617255 0.00887832)
(-0.015613 -0.148392 0.00998764)
(0.0488536 -0.286691 -0.00849897)
(0.129678 0.139938 -0.00857114)
(0.162204 0.0806176 -0.00676036)
(0.240024 0.0545812 -0.00428678)
(0.285917 0.0375141 -0.00158019)
(0.316837 0.0250731 0.000168963)
(0.339385 0.0166367 0.00100327)
(0.355932 0.0112865 0.00130869)
(0.367953 0.00792108 0.00132044)
(0.37676 0.00572003 0.00119691)
(0.383414 0.00420767 0.00102733)
(0.388111 0.003182 0.000922003)
(0.392324 0.00235687 0.000783996)
(0.393463 0.00174743 0.000956961)
(0.398654 0.00135416 0.00084747)