/*--------------------------------*- C++ -*----------------------------------*\
  =========                 |
  \\      /  F ield         | OpenFOAM: The Open Source CFD Toolbox
   \\    /   O peration     | Website:  https://openfoam.org
    \\  /    A nd           | Version:  10
     \\/     M anipulation  |
\*---------------------------------------------------------------------------*/
FoamFile
{
    format      ascii;
    class       surfaceScalarField;
    location    "6.475";
    object      phi;
}
// * * * * * * * * * * * * * * * * * * * * * * * * * * * * * * * * * * * * * //

dimensions      [0 3 -1 0 0 0 0];

internalField   nonuniform List<scalar> 
760
(
-9.84841e-06
9.8484e-06
-3.22968e-05
2.24484e-05
-5.90524e-05
2.67556e-05
-8.6702e-05
2.76496e-05
-0.000114128
2.74264e-05
-0.000140896
2.67681e-05
-0.000166585
2.56883e-05
-0.000190587
2.40023e-05
-0.000212054
2.1467e-05
-0.000229866
1.7812e-05
-0.000242626
1.27598e-05
-0.000248688
6.06175e-06
-0.000246251
-2.43639e-06
-0.000233569
-1.26823e-05
-0.000209325
-2.42441e-05
-0.000173149
-3.61754e-05
-0.000126463
-4.66861e-05
-7.37799e-05
-5.26835e-05
-2.48285e-05
-4.89514e-05
-2.48285e-05
-2.37076e-05
3.3556e-05
-6.72487e-05
6.59895e-05
-0.000117356
7.68631e-05
-0.000168488
7.8781e-05
-0.000218509
7.74482e-05
-0.000266337
7.45952e-05
-0.000310999
7.0351e-05
-0.000351349
6.43522e-05
-0.000385959
5.6077e-05
-0.00041308
4.4933e-05
-0.000430616
3.02957e-05
-0.000436224
1.16699e-05
-0.000427506
-1.11543e-05
-0.000402015
-3.81735e-05
-0.000358129
-6.81307e-05
-0.00029564
-9.86635e-05
-0.000216965
-0.000125362
-0.000129131
-0.000140517
-4.67635e-05
-0.000131319
-7.1592e-05
-2.96448e-05
6.32007e-05
-8.24335e-05
0.000118778
-0.000142485
0.000136914
-0.000203325
0.000139621
-0.000262509
0.000136633
-0.000318793
0.000130879
-0.000371083
0.000122641
-0.000418125
0.000111394
-0.000458384
9.63353e-05
-0.000489975
7.65245e-05
-0.000510663
5.09834e-05
-0.000517864
1.8871e-05
-0.000508507
-2.05109e-05
-0.000479704
-6.6977e-05
-0.000429135
-0.000118699
-0.000355997
-0.000171802
-0.000262557
-0.000218801
-0.000156907
-0.000246168
-5.69276e-05
-0.000231298
-0.00012852
-3.1895e-05
9.50958e-05
-8.87669e-05
0.00017565
-0.000153274
0.000201421
-0.000218546
0.000204893
-0.000282125
0.000200212
-0.000342842
0.000191596
-0.000399699
0.000179498
-0.000451541
0.000163237
-0.00049692
0.000141714
-0.000533968
0.000113572
-0.000560307
7.73228e-05
-0.000573014
3.15777e-05
-0.000568536
-2.4989e-05
-0.000542642
-9.28709e-05
-0.000491517
-0.000169823
-0.000412654
-0.000250665
-0.000307316
-0.00032414
-0.000184541
-0.000368942
-6.64316e-05
-0.000349408
-0.000194951
-3.29412e-05
0.000128037
-9.22806e-05
0.00023499
-0.00015969
0.00026883
-0.000228061
0.000273264
-0.000295021
0.000267172
-0.000359587
0.000256163
-0.000420987
0.000240898
-0.000478302
0.000220552
-0.000530293
0.000193705
-0.000575224
0.000158503
-0.000610638
0.000112737
-0.00063316
5.40991e-05
-0.000638448
-1.97009e-05
-0.000620499
-0.000110819
-0.000572999
-0.000217323
-0.000490388
-0.000333276
-0.000371305
-0.000443223
-0.000225147
-0.0005151
-8.05231e-05
-0.000494032
-0.000275474
-3.37863e-05
0.000161823
-9.53896e-05
0.000296593
-0.000165594
0.000339035
-0.00023706
0.000344729
-0.000307541
0.000337653
-0.000376321
0.000324942
-0.000442957
0.000307534
-0.000506906
0.000284501
-0.000567312
0.000254111
-0.000622753
0.000213944
-0.000670892
0.000160876
-0.000707968
9.11758e-05
-0.00072916
1.49087e-06
-0.00072564
-0.00011434
-0.000687776
-0.000255187
-0.000604836
-0.000416216
-0.00047003
-0.000578029
-0.00029058
-0.00069455
-0.000104168
-0.000680444
-0.000379642
-3.4711e-05
0.000196534
-9.87932e-05
0.000360675
-0.000172045
0.000412287
-0.000246847
0.000419532
-0.000321109
0.000411915
-0.00039445
0.000398283
-0.000466882
0.000379966
-0.000538412
0.000356032
-0.000608817
0.000324515
-0.000677328
0.000282455
-0.000742173
0.000225721
-0.000799877
0.00014888
-0.000843937
4.5551e-05
-0.000865277
-9.29995e-05
-0.000848329
-0.000272135
-0.000774679
-0.000489867
-0.00062691
-0.000725798
-0.000402719
-0.000918741
-0.000148164
-0.000934999
-0.000527806
-3.57614e-05
0.000232296
-0.000102616
0.00042753
-0.000179162
0.000488832
-0.000257423
0.000497793
-0.000335477
0.000489969
-0.000413356
0.000476162
-0.00049165
0.00045826
-0.000571127
0.000435509
-0.000652517
0.000405905
-0.00073619
0.000366129
-0.000821595
0.000311125
-0.000906285
0.000233571
-0.000984265
0.000123531
-0.00104573
-3.15388e-05
-0.00107032
-0.000247544
-0.00102956
-0.000530624
-0.000886531
-0.000868827
-0.000610603
-0.00119467
-0.000240591
-0.00130501
-0.000768397
-3.69713e-05
0.000269267
-0.000106916
0.000497475
-0.000186912
0.000568828
-0.000268519
0.0005794
-0.00034999
0.000571441
-0.00043182
0.000557992
-0.000515291
0.00054173
-0.000602135
0.000522353
-0.000694401
0.00049817
-0.000794214
0.000465942
-0.000903282
0.000420193
-0.00102189
0.000352181
-0.00114705
0.000248684
-0.00127024
9.16559e-05
-0.00137296
-0.000144821
-0.00141618
-0.000487407
-0.00132878
-0.000956231
-0.00100861
-0.00151484
-0.000441698
-0.00187192
-0.0012101
-3.84659e-05
0.000307733
-0.000111914
0.000570923
-0.000195442
0.000652356
-0.00028002
0.000663978
-0.000364071
0.000655491
-0.000448578
0.0006425
-0.00053557
0.000628722
-0.000627875
0.000614657
-0.000729171
0.000599467
-0.000844021
0.000580791
-0.00097767
0.000553843
-0.00113542
0.00050993
-0.00132127
0.00043454
-0.00153503
0.000305415
-0.00177144
9.15864e-05
-0.00198577
-0.000273073
-0.00204275
-0.000899256
-0.00168886
-0.00186873
-0.000810805
-0.00274997
-0.0020209
-4.05495e-05
0.000348282
-0.00011817
0.000648543
-0.000205307
0.000739493
-0.000292226
0.000750897
-0.000377524
0.000740789
-0.00046267
0.000727646
-0.000550402
0.000716454
-0.000644599
0.000708854
-0.000750603
0.000705471
-0.000875729
0.000705918
-0.0010299
0.000708016
-0.00122635
0.000706376
-0.00148212
0.000690307
-0.00181784
0.000641135
-0.00224332
0.000517072
-0.00270584
0.000189444
-0.00295365
-0.000651441
-0.0025253
-0.00229709
-0.00129756
-0.00397772
-0.00331846
-4.38416e-05
0.000392124
-0.000126808
0.00073151
-0.000217712
0.000830397
-0.000306109
0.000839294
-0.000390837
0.000825517
-0.000473835
0.000810644
-0.000558397
0.000801016
-0.000649147
0.000799605
-0.000752716
0.00080904
-0.000878836
0.000832038
-0.00104208
0.000871256
-0.00126458
0.000928876
-0.00157959
0.00100532
-0.00202957
0.00109112
-0.00263533
0.00112283
-0.00327494
0.000829054
-0.00358399
-0.000342394
-0.00307199
-0.00280908
-0.00175283
-0.00529688
-0.00507128
-4.93783e-05
0.000441502
-0.000139646
0.000821778
-0.000234725
0.000925476
-0.000323668
0.000928237
-0.000405621
0.00090747
-0.000483
0.000888022
-0.00055949
0.000877506
-0.000639767
0.000879882
-0.000730626
0.000899898
-0.00084263
0.000944042
-0.000992735
0.00102136
-0.00120833
0.00114447
-0.00153095
0.00132794
-0.00200274
0.00156291
-0.00261626
0.00173635
-0.00319888
0.00141168
-0.00341464
-0.000126639
-0.0030001
-0.00322362
-0.00193098
-0.006366
-0.00700226
-6.01383e-05
0.000501641
-0.000161122
0.000922762
-0.00026002
0.00102437
-0.000347099
0.00101532
-0.000423407
0.000983778
-0.000491931
0.000956547
-0.000555638
0.000941212
-0.000618377
0.000942621
-0.000685536
0.000967057
-0.000765397
0.0010239
-0.000871409
0.00112737
-0.00102409
0.00129716
-0.00125259
0.00155643
-0.00157293
0.00188325
-0.00195972
0.00212313
-0.0022857
0.00173765
-0.00242952
1.71827e-05
-0.00232215
-0.00333099
-0.00167805
-0.0070101
-0.00868031
-7.32452e-05
0.000574886
-0.00018844
0.00103796
-0.000294843
0.00113078
-0.000383514
0.00110399
-0.00045369
0.00105395
-0.000509522
0.00101238
-0.000554538
0.000986228
-0.00059144
0.000979523
-0.000622468
0.000998086
-0.00065027
0.0010517
-0.00067935
0.00115645
-0.000713847
0.00133166
-0.000760655
0.00160324
-0.000807018
0.00192961
-0.000856813
0.00217293
-0.000880122
0.00176096
-0.000969756
0.000106817
-0.00119026
-0.00311048
-0.00108244
-0.00711792
-0.00976275
-0.000140327
0.000715213
-0.000270091
0.00116772
-0.000364017
0.0012247
-0.000430939
0.00117091
-0.000482039
0.00110505
-0.000521173
0.00105151
-0.000548199
0.00101325
-0.00056098
0.000992305
-0.000556395
0.0009935
-0.000529236
0.00102455
-0.000472928
0.00110015
-0.000375239
0.00123397
-0.000221621
0.00144962
1.8987e-06
0.00170609
0.000293073
0.00188175
0.000514515
0.00153952
0.000487968
0.000133364
-9.6613e-05
-0.0025259
-0.000472881
-0.00674166
-0.0102356
-9.15768e-05
0.00080679
-0.000285267
0.00136141
-0.000421455
0.00136089
-0.000508139
0.00125759
-0.000558492
0.00115541
-0.000582369
0.00107539
-0.000583557
0.00101444
-0.000561546
0.000970294
-0.000512309
0.000944263
-0.000425457
0.000937694
-0.000287398
0.000962086
-7.46142e-05
0.00102118
0.000236817
0.00113819
0.000662892
0.00128002
0.0011676
0.00137705
0.00157021
0.0011369
0.00155241
0.000151165
0.00082914
-0.00180263
0.000164175
-0.00607669
-0.0100715
-0.000385862
0.00119265
-0.000462729
0.00143828
-0.000537273
0.00143543
-0.000603388
0.00132371
-0.00062398
0.001176
-0.000605268
0.00105668
-0.000552928
0.000962103
-0.000467164
0.00088453
-0.000349374
0.000826473
-0.000191338
0.000779659
1.54107e-05
0.000755337
0.000286346
0.000750249
0.00064548
0.000779058
0.00109949
0.000826011
0.00163141
0.000845128
0.00206908
0.000699236
0.00226788
-4.76402e-05
0.00184747
-0.00138221
0.000985857
-0.00521508
-0.0090856
-0.00135868
0.00255133
-0.00132499
0.00140459
-0.00107722
0.00118766
-0.000718803
0.000965296
-0.000338451
0.000795647
4.59597e-05
0.000672266
0.00042204
0.000586023
0.000787775
0.000518795
0.00114451
0.000469733
0.00149586
0.000428311
0.00185039
0.000400808
0.0022182
0.000382435
0.00262636
0.000370897
0.00308385
0.000368523
0.00361938
0.000309603
0.004123
0.000195613
0.00433543
-0.000260075
0.00415272
-0.0011995
0.00260163
-0.00366398
-0.00648397
0.00255133
0.00395592
0.00514358
0.00610888
0.00690452
0.00757679
0.00816281
0.00868161
0.00915134
0.00957965
0.00998046
0.0103629
0.0107338
0.0111023
0.0114119
0.0116075
0.0113475
0.010148
0.00648397
)
;

boundaryField
{
    movingWall
    {
        type            calculated;
        value           uniform 0;
    }
    fixedWalls
    {
        type            calculated;
        value           uniform 0;
    }
    frontAndBack
    {
        type            empty;
        value           nonuniform List<scalar> 0();
    }
}


// ************************************************************************* //
