/*--------------------------------*- C++ -*----------------------------------*\
  =========                 |
  \\      /  F ield         | OpenFOAM: The Open Source CFD Toolbox
   \\    /   O peration     | Website:  https://openfoam.org
    \\  /    A nd           | Version:  10
     \\/     M anipulation  |
\*---------------------------------------------------------------------------*/
FoamFile
{
    format      ascii;
    class       volScalarField;
    location    "0.525";
    object      p;
}
// * * * * * * * * * * * * * * * * * * * * * * * * * * * * * * * * * * * * * //

dimensions      [0 2 -2 0 0 0 0];

internalField   nonuniform List<scalar> 
475
(
0.00492687
-0.0144181
-0.0734122
-0.10578
-0.1606
-0.00792172
-0.029879
-0.052131
-0.0738676
-0.0750249
-0.00341055
-0.0112038
-0.0326753
-0.050368
-0.0439495
0.00599241
-0.00654625
-0.0254412
-0.033332
-0.0236524
0.0370163
0.00969156
-0.0142365
-0.0213389
-0.0116172
-0.208629
-0.178062
-0.0849949
0.0155291
0.0985317
0.133707
0.137222
0.131637
0.125788
0.121124
0.117271
0.11379
0.110444
0.107133
0.103822
0.100498
0.0971582
0.0938025
0.0904335
0.0870537
0.0836655
0.0802704
0.0768697
0.0734645
0.0700558
0.0666446
0.0632317
0.0598175
0.0564023
0.052986
0.049569
0.0461513
0.0427333
0.0393151
0.0358968
0.0324785
0.0290601
0.0256414
0.0222227
0.0188037
0.0153847
0.0119661
0.00854609
0.0051271
0.00170951
-0.0717907
-0.0453409
-0.0121612
0.0223716
0.0534582
0.0804887
0.0989117
0.108907
0.113151
0.113979
0.112947
0.110959
0.108472
0.105706
0.102766
0.0997072
0.0965623
0.0933524
0.0900932
0.0867964
0.0834711
0.0801237
0.076759
0.073381
0.069993
0.0665974
0.0631963
0.059791
0.0563823
0.0529711
0.0495577
0.0461429
0.042727
0.0393104
0.0358934
0.0324759
0.0290582
0.02564
0.0222217
0.0188029
0.0153841
0.0119657
0.00854583
0.00512701
0.00170952
-0.0406463
-0.0381901
0.000639855
0.0479773
0.0823532
0.0992126
0.106962
0.110351
0.111422
0.111275
0.110352
0.108819
0.106808
0.104441
0.101812
0.0989902
0.0960229
0.0929465
0.0897877
0.0865666
0.0832981
0.0799934
0.0766609
0.0733072
0.0699376
0.0665559
0.0631653
0.0597677
0.0563649
0.0529579
0.0495478
0.0461355
0.0427215
0.0393064
0.0358904
0.0324737
0.0290565
0.0256387
0.0222208
0.0188022
0.0153837
0.0119654
0.00854566
0.00512699
0.00170952
-0.00943716
0.00949909
0.0314987
0.0527736
0.0705892
0.0840897
0.0942328
0.101277
0.105436
0.107312
0.107612
0.106858
0.105377
0.103386
0.10103
0.0984074
0.0955877
0.0926211
0.0895442
0.0863842
0.0831614
0.0798908
0.076584
0.0732497
0.0698946
0.0665239
0.0631413
0.0597498
0.0563514
0.0529478
0.0495403
0.0461299
0.0427174
0.0393033
0.0358881
0.032472
0.0290553
0.0256378
0.02222
0.0188017
0.0153833
0.0119651
0.00854554
0.00512696
0.00170951
0.000834197
0.0103332
0.0257907
0.0471518
0.0664911
0.0811336
0.0913094
0.0983051
0.102714
0.105032
0.105811
0.105479
0.10434
0.102614
0.100456
0.097982
0.0952723
0.0923871
0.0893705
0.0862552
0.0830655
0.0798195
0.076531
0.0732103
0.0698653
0.0665021
0.0631251
0.0597377
0.0563424
0.0529412
0.0495354
0.0461263
0.0427147
0.0393014
0.0358867
0.0324709
0.0290544
0.0256372
0.0222196
0.0188014
0.0153831
0.0119649
0.00854557
0.005127
0.00170939
-0.0218424
0.00167995
0.0386673
0.0814471
0.110905
0.128069
0.135646
0.136997
0.134829
0.130917
0.126283
0.121463
0.116711
0.112128
0.10774
0.103538
0.0994997
0.0955962
0.0918017
0.0880933
0.0844528
0.0808653
0.0773187
0.073803
0.0703107
0.0668361
0.0633751
0.0599247
0.0564824
0.053046
0.0496141
0.0461852
0.0427587
0.039334
0.0359108
0.0324887
0.0290675
0.0256469
0.0222268
0.0188067
0.015387
0.0119676
0.00854725
0.00512766
0.00170947
-0.0316277
-0.0096313
0.0281425
0.0768919
0.109085
0.127238
0.134829
0.13594
0.133622
0.12971
0.125183
0.120521
0.115936
0.111508
0.107254
0.103163
0.0992121
0.0953777
0.0916363
0.0879687
0.0843593
0.0807955
0.0772666
0.0737641
0.0702816
0.0668143
0.0633589
0.0599127
0.0564735
0.0530395
0.0496092
0.0461816
0.042756
0.039332
0.0359093
0.0324876
0.0290667
0.0256463
0.0222264
0.0188064
0.0153867
0.0119675
0.00854702
0.00512751
0.00170955
-0.1109
-0.0751793
-0.0071021
0.0647103
0.106333
0.127351
0.134901
0.135302
0.132468
0.128359
0.123859
0.119338
0.114936
0.110692
0.106604
0.102654
0.0988183
0.095075
0.091405
0.0877929
0.0842263
0.0806952
0.0771911
0.0737072
0.0702387
0.0667822
0.0633349
0.0598949
0.0564603
0.0530296
0.0496018
0.046176
0.0427517
0.0393288
0.035907
0.0324859
0.0290655
0.0256454
0.0222257
0.0188059
0.0153863
0.0119672
0.00854684
0.00512743
0.00170955
-0.174059
-0.142938
-0.05527
0.0433689
0.101989
0.127306
0.134801
0.134327
0.130896
0.126589
0.122157
0.117836
0.113677
0.109669
0.105791
0.102016
0.0983235
0.0946937
0.0911129
0.0875703
0.0840575
0.0805674
0.0770943
0.0736341
0.0701836
0.0667407
0.0633039
0.0598717
0.0564429
0.0530166
0.0495919
0.0461685
0.0427462
0.0393247
0.035904
0.0324837
0.0290639
0.0256442
0.0222249
0.0188052
0.0153858
0.0119669
0.0085466
0.00512733
0.00170955
-0.339393
-0.212258
-0.106944
0.0176047
0.0970778
0.125731
0.13234
0.131343
0.127933
0.123905
0.119859
0.115941
0.112152
0.108462
0.104846
0.101284
0.0977586
0.0942602
0.0907815
0.0873179
0.0838658
0.0804222
0.0769845
0.0735511
0.070121
0.0666936
0.0632685
0.0598452
0.0564231
0.0530017
0.0495807
0.0461601
0.0427398
0.03932
0.0359005
0.0324812
0.0290621
0.0256429
0.0222238
0.0188045
0.0153853
0.0119665
0.00854631
0.00512722
0.00170955
)
;

boundaryField
{
    inlet
    {
        type            zeroGradient;
    }
    outlet
    {
        type            fixedValue;
        value           uniform 0;
    }
    upperWall
    {
        type            zeroGradient;
    }
    lowerWall
    {
        type            zeroGradient;
    }
    frontAndBack
    {
        type            empty;
    }
}


// ************************************************************************* //
