/*--------------------------------*- C++ -*----------------------------------*\
  =========                 |
  \\      /  F ield         | OpenFOAM: The Open Source CFD Toolbox
   \\    /   O peration     | Website:  https://openfoam.org
    \\  /    A nd           | Version:  10
     \\/     M anipulation  |
\*---------------------------------------------------------------------------*/
FoamFile
{
    format      ascii;
    class       volScalarField;
    location    "3.35";
    object      p;
}
// * * * * * * * * * * * * * * * * * * * * * * * * * * * * * * * * * * * * * //

dimensions      [0 2 -2 0 0 0 0];

internalField   nonuniform List<scalar> 
496
(
27.9908
28.2316
24.7269
18.6214
28.5384
29.2404
25.0954
18.7388
33.5087
31.1451
22.5738
11.933
41.6501
38.2562
34.6566
18.3764
9.94676
0.540417
9.80802
0.836877
-3.51613
-8.26592
-33.0622
-58.7539
-6.72883
-11.3596
-13.561
-14.6553
-6.70694
-12.4053
-15.8486
-17.3789
-1.78083
-2.40149
-7.33045
-13.7619
-28.1435
-12.7865
-6.36828
-9.66053
-15.2575
-15.8068
-16.1033
-16.1801
-15.7751
-14.9247
-14.1515
-13.3771
-12.8318
-12.2896
-12.0816
-11.639
-10.7907
-9.73084
-8.51949
-7.54225
-6.42046
-5.62491
-4.88259
-4.28325
-3.68752
-3.26943
-3.25262
-3.17307
-2.93748
-2.21943
-1.52351
-0.865635
-0.380184
0.03257
0.644374
1.08988
1.31707
1.04179
0.347153
-0.110451
-0.441007
-0.435122
-0.257922
-0.133532
-17.9731
-18.1009
-17.7281
-16.943
-15.7438
-14.5407
-13.6868
-12.9763
-12.656
-12.4031
-12.2836
-11.7089
-10.8599
-9.8135
-8.59341
-7.48321
-6.21309
-5.31792
-4.5096
-4.04641
-3.52838
-3.2877
-3.20243
-3.08765
-2.88684
-2.33094
-1.65784
-1.01597
-0.302962
0.204033
0.789171
1.18359
1.26768
0.977637
0.407799
-0.344581
-0.697132
-0.681524
-0.539695
-0.430542
-18.3495
-20.1941
-19.6782
-17.98
-16.3127
-15.258
-14.1387
-13.189
-12.6872
-12.8109
-12.7285
-12.1178
-11.324
-10.0899
-8.82674
-7.19833
-6.01641
-5.03733
-4.52634
-4.1386
-3.96108
-4.10796
-4.09907
-4.09181
-3.3078
-2.39172
-1.23837
-0.283644
0.410094
1.14741
1.43383
1.56422
1.05861
0.188688
-0.744679
-1.67439
-2.09282
-1.97583
-1.28021
-0.214196
-17.48
-19.9472
-18.4236
-15.2895
-15.1039
-16.3137
-14.8156
-13.2444
-12.3351
-12.9478
-12.7384
-12.5394
-11.8207
-10.6834
-9.35584
-6.96993
-5.42168
-3.72275
-3.17358
-2.95221
-3.5403
-4.30232
-4.67344
-4.94061
-4.1407
-3.41924
-1.89865
-0.0869522
2.19559
3.65493
3.73954
3.1102
1.86799
0.475157
-0.831767
-2.11158
-3.24241
-3.17506
-2.85053
-1.33574
46.4704
47.8285
62.1939
74.3722
46.4765
48.5202
62.7633
75.2302
-29.8007
-27.6751
-21.6594
-28.5688
-28.8731
-30.6117
-24.8876
-16.4815
-20.3084
-18.5755
-18.0516
-19.6365
-18.3506
-16.2405
-12.1148
-13.8964
-13.6998
-12.6862
-12.0011
-11.5644
-11.1962
-10.515
-9.50141
-8.10128
-6.84661
-5.31643
-4.35481
-3.98748
-3.76182
-3.44211
-3.41497
-3.18992
-2.88116
-2.3811
-1.47597
-0.40726
0.186739
0.70207
1.02959
0.694315
0.00745321
-0.341909
-0.585293
-1.35656
-1.93379
-2.03473
-1.98465
-0.925681
-21.9847
-18.1514
-20.9121
-18.3702
-18.2388
-19.0908
-14.7369
-13.245
-12.5909
-12.0943
-11.4616
-10.8612
-10.4198
-10.0602
-9.60368
-9.19408
-8.9356
-8.45772
-6.93189
-5.72638
-4.38814
-2.5906
-1.36233
-0.396788
-0.0872584
-0.118408
-0.155369
-0.48668
-1.19029
-2.00574
-2.46564
-2.28082
-2.54298
-1.54187
-0.724063
-0.0594032
0.824447
0.708704
0.798432
0.301285
41.9912
39.0928
35.9784
20.6825
34.8961
32.3398
23.8453
13.2706
29.9441
30.3316
25.8587
19.5496
29.0292
29.3551
25.8799
19.4628
-28.3177
-55.3459
-1.87895
-6.53393
10.5623
1.49605
10.813
1.44818
-24.7169
-7.96758
-13.0076
-16.7106
-0.752877
-2.44073
-9.29895
-14.7256
-6.40103
-12.1264
-15.6637
-17.5151
-5.85138
-10.6578
-13.2707
-14.5344
-16.9687
-17.2338
-17.0996
-17.111
-14.8343
-13.2774
-12.9306
-13.203
-13.2896
-12.1474
-11.1069
-10.0707
-9.55383
-9.84324
-9.71353
-9.78628
-9.16463
-9.11163
-7.87566
-6.28566
-4.30027
-1.84233
0.387944
2.22024
2.53777
1.88211
0.555311
-0.541141
-1.99318
-2.96958
-3.67255
-3.5447
-3.08851
-2.21757
-0.0438848
2.03071
3.46434
3.34012
2.52672
1.0144
-17.6785
-18.2094
-17.7163
-16.6742
-15.6306
-14.5664
-13.7126
-13.1467
-13.005
-12.5738
-11.8276
-10.8326
-10.1149
-10.0636
-9.90795
-9.52925
-8.8393
-8.14965
-6.91482
-5.27388
-3.63815
-2.1843
-1.01792
-0.407061
0.134743
0.162677
-0.437204
-1.01498
-1.67684
-2.28565
-2.66773
-2.5304
-1.7889
-1.038
0.124636
1.01239
1.30072
1.18186
0.834742
0.208008
-18.2754
-18.03
-17.2791
-16.3737
-15.3398
-14.2614
-13.2206
-12.418
-12.0068
-12.0032
-11.6788
-11.1598
-10.3798
-9.73256
-9.2064
-8.67312
-7.99612
-7.1888
-6.49719
-5.37544
-4.00977
-2.63625
-1.59796
-0.859173
-0.383465
-0.187948
-0.199548
-0.433122
-0.81177
-1.26945
-1.63076
-1.89714
-1.75242
-1.29299
-0.598799
0.255063
0.661679
0.909287
0.800206
0.47413
-15.3174
-15.7247
-15.9243
-15.606
-15.0966
-14.3634
-13.4679
-12.7103
-12.0567
-11.8405
-11.6246
-11.3762
-10.7029
-9.85379
-9.15092
-8.42139
-7.84388
-7.09576
-6.45261
-5.4114
-4.01335
-2.67025
-1.72444
-1.22898
-0.829183
-0.55463
-0.445656
-0.543392
-0.703299
-1.15014
-1.60898
-1.86412
-1.6402
-1.10124
-0.459793
0.0750598
0.450207
0.631732
0.574385
0.318565
)
;

boundaryField
{
    inlet
    {
        type            zeroGradient;
    }
    outlet
    {
        type            fixedValue;
        value           uniform 0;
    }
    obstacle
    {
        type            zeroGradient;
    }
    upperWall
    {
        type            zeroGradient;
    }
    lowerWall
    {
        type            zeroGradient;
    }
    frontAndBack
    {
        type            empty;
    }
}


// ************************************************************************* //
