/*--------------------------------*- C++ -*----------------------------------*\
  =========                 |
  \\      /  F ield         | OpenFOAM: The Open Source CFD Toolbox
   \\    /   O peration     | Website:  https://openfoam.org
    \\  /    A nd           | Version:  10
     \\/     M anipulation  |
\*---------------------------------------------------------------------------*/
FoamFile
{
    format      ascii;
    class       volVectorField;
    location    "9.95";
    object      U;
}
// * * * * * * * * * * * * * * * * * * * * * * * * * * * * * * * * * * * * * //

dimensions      [0 1 -1 0 0 0 0];

internalField   nonuniform List<vector> 
400
(
(-0.000175567 0.000147416 0)
(-0.00134632 0.00049111 0)
(-0.00333839 0.000615904 0)
(-0.00539523 0.000660487 0)
(-0.00755021 0.000690145 0)
(-0.00976899 0.000725866 0)
(-0.0120466 0.000767009 0)
(-0.0143653 0.000804306 0)
(-0.0166745 0.00082325 0)
(-0.0188794 0.000802972 0)
(-0.0208298 0.000715832 0)
(-0.0223078 0.000530673 0)
(-0.0230293 0.000220649 0)
(-0.0226593 -0.000239049 0)
(-0.0208846 -0.000817664 0)
(-0.0175467 -0.00141648 0)
(-0.0128589 -0.00184688 0)
(-0.00756055 -0.00187763 0)
(-0.00243212 -0.00134712 0)
(8.13926e-06 -0.000236041 0)
(-0.000598874 0.00138096 0)
(-0.00311752 0.00289715 0)
(-0.00698846 0.00347717 0)
(-0.0109957 0.00369898 0)
(-0.0151552 0.00381505 0)
(-0.0193782 0.00390696 0)
(-0.023618 0.00397257 0)
(-0.0278099 0.00397268 0)
(-0.0318393 0.00384552 0)
(-0.0355252 0.00350775 0)
(-0.0386048 0.00285784 0)
(-0.0407234 0.00178759 0)
(-0.0414608 0.000204221 0)
(-0.0403358 -0.00190872 0)
(-0.0369049 -0.00439825 0)
(-0.0309727 -0.00686286 0)
(-0.0228861 -0.0085911 0)
(-0.0137844 -0.00870469 0)
(-0.00499253 -0.00659562 0)
(-0.000419166 -0.00214533 0)
(-0.000797215 0.00364868 0)
(-0.00397529 0.00689579 0)
(-0.00875863 0.008143 0)
(-0.0136787 0.00861411 0)
(-0.0187545 0.00882335 0)
(-0.0238755 0.00893565 0)
(-0.0289831 0.00894939 0)
(-0.0340015 0.00878732 0)
(-0.0388041 0.00832654 0)
(-0.0431934 0.0074038 0)
(-0.0468834 0.00582323 0)
(-0.0494895 0.00338037 0)
(-0.0505171 -8.86112e-05 0)
(-0.0493634 -0.00459355 0)
(-0.0454196 -0.00986609 0)
(-0.0382865 -0.0151089 0)
(-0.0281999 -0.0188518 0)
(-0.0165799 -0.0191139 0)
(-0.00550547 -0.0145202 0)
(-0.00023323 -0.00516571 0)
(-0.000865772 0.00610365 0)
(-0.00432363 0.0112209 0)
(-0.00951316 0.0131592 0)
(-0.0148327 0.0138697 0)
(-0.0203183 0.0141615 0)
(-0.0258638 0.0142914 0)
(-0.0314255 0.0142619 0)
(-0.0369501 0.0139628 0)
(-0.0423391 0.013214 0)
(-0.0474267 0.0117721 0)
(-0.0519483 0.00933433 0)
(-0.0555092 0.00556795 0)
(-0.0575518 0.000189997 0)
(-0.0573242 -0.00690424 0)
(-0.0538794 -0.0154421 0)
(-0.0462847 -0.0242698 0)
(-0.0342412 -0.0309194 0)
(-0.0193201 -0.0315369 0)
(-0.00514453 -0.0232864 0)
(0.000444849 -0.00765992 0)
(-0.000865962 0.00866595 0)
(-0.0043995 0.015756 0)
(-0.00973401 0.0184209 0)
(-0.015209 0.0193894 0)
(-0.0208814 0.0197912 0)
(-0.0266654 0.019987 0)
(-0.0325537 0.0199935 0)
(-0.0385414 0.0196758 0)
(-0.0445924 0.0188044 0)
(-0.0506138 0.0170555 0)
(-0.056412 0.0140033 0)
(-0.0616252 0.00913509 0)
(-0.0656497 0.0019299 0)
(-0.0675739 -0.00798286 0)
(-0.0659802 -0.0205675 0)
(-0.0589536 -0.0345163 0)
(-0.0448278 -0.0460952 0)
(-0.0247384 -0.0480087 0)
(-0.0048735 -0.0340769 0)
(0.00156767 -0.00948882 0)
(-0.000831102 0.0112165 0)
(-0.00433115 0.0203334 0)
(-0.00967275 0.0237593 0)
(-0.01518 0.0250177 0)
(-0.0209282 0.0255802 0)
(-0.0268619 0.0259284 0)
(-0.0330243 0.0261089 0)
(-0.0394816 0.0259805 0)
(-0.046292 0.0252802 0)
(-0.0534842 0.0236146 0)
(-0.0610076 0.0204296 0)
(-0.0686431 0.0149913 0)
(-0.0758895 0.00641064 0)
(-0.0818333 -0.00623481 0)
(-0.0845135 -0.0235477 0)
(-0.0802807 -0.0449415 0)
(-0.0645808 -0.0653928 0)
(-0.0372566 -0.0714084 0)
(-0.00730737 -0.0491195 0)
(0.00292482 -0.0107577 0)
(-0.000775052 0.0136861 0)
(-0.00417588 0.0248514 0)
(-0.00943886 0.0290697 0)
(-0.0148946 0.0306548 0)
(-0.0206323 0.0314383 0)
(-0.0266293 0.0320428 0)
(-0.0329868 0.0325678 0)
(-0.039859 0.0328941 0)
(-0.0474317 0.0327617 0)
(-0.0559144 0.0317461 0)
(-0.0655105 0.0292014 0)
(-0.0763562 0.0241979 0)
(-0.0883959 0.0154342 0)
(-0.100975 0.00107006 0)
(-0.111623 -0.0213053 0)
(-0.113631 -0.053455 0)
(-0.0977168 -0.0893887 0)
(-0.0632867 -0.1052 0)
(-0.0198889 -0.073583 0)
(0.00312269 -0.0140355 0)
(-0.000702425 0.0160309 0)
(-0.0039553 0.0292449 0)
(-0.00907127 0.0342793 0)
(-0.0143943 0.0362186 0)
(-0.0200199 0.0372725 0)
(-0.0259536 0.0382285 0)
(-0.0323526 0.0392674 0)
(-0.0394627 0.0403312 0)
(-0.0476186 0.0412214 0)
(-0.0572679 0.0415728 0)
(-0.0689921 0.0407816 0)
(-0.0835438 0.0379075 0)
(-0.101809 0.0313528 0)
(-0.12388 0.0177137 0)
(-0.145849 -0.00964257 0)
(-0.15605 -0.0573316 0)
(-0.141901 -0.116664 0)
(-0.105912 -0.148747 0)
(-0.0524774 -0.114901 0)
(-0.00141233 -0.027524 0)
(-0.0006165 0.0182155 0)
(-0.00368296 0.0334592 0)
(-0.00859021 0.039316 0)
(-0.0136905 0.041612 0)
(-0.0190743 0.0429525 0)
(-0.0247633 0.0443151 0)
(-0.030956 0.0459935 0)
(-0.0379747 0.0480383 0)
(-0.0462888 0.0503909 0)
(-0.0565875 0.0528831 0)
(-0.0698785 0.0551822 0)
(-0.0876549 0.0566112 0)
(-0.111968 0.0552545 0)
(-0.143454 0.0447576 0)
(-0.175301 0.0116559 0)
(-0.191182 -0.0568254 0)
(-0.181966 -0.14305 0)
(-0.153436 -0.195487 0)
(-0.0996766 -0.176943 0)
(-0.0162818 -0.0642242 0)
(-0.000524258 0.0202137 0)
(-0.00338276 0.0374503 0)
(-0.00803154 0.0441082 0)
(-0.0128142 0.0467229 0)
(-0.0178039 0.0483097 0)
(-0.0230185 0.0500607 0)
(-0.0286685 0.05241 0)
(-0.0351096 0.0555619 0)
(-0.0428804 0.0596814 0)
(-0.0528155 0.0649516 0)
(-0.0661955 0.0715472 0)
(-0.0848784 0.0791582 0)
(-0.111375 0.0848682 0)
(-0.145637 0.0776887 0)
(-0.17887 0.0370792 0)
(-0.194217 -0.0509774 0)
(-0.190539 -0.160004 0)
(-0.173141 -0.238028 0)
(-0.131156 -0.253049 0)
(-0.0395982 -0.139026 0)
(-0.000439223 0.0220195 0)
(-0.00309937 0.0411897 0)
(-0.00746653 0.0485791 0)
(-0.0118464 0.0514134 0)
(-0.0162858 0.0531291 0)
(-0.0207726 0.0551461 0)
(-0.0254905 0.0580468 0)
(-0.0307555 0.0622023 0)
(-0.0370439 0.0680327 0)
(-0.045092 0.0761245 0)
(-0.05601 0.0871735 0)
(-0.0711551 0.100937 0)
(-0.0921227 0.112618 0)
(-0.118069 0.106648 0)
(-0.141647 0.0589265 0)
(-0.151777 -0.0416946 0)
(-0.153143 -0.163519 0)
(-0.147033 -0.263938 0)
(-0.127438 -0.319142 0)
(-0.0502823 -0.243434 0)
(-0.000388767 0.023675 0)
(-0.00292018 0.0447266 0)
(-0.00703076 0.0527446 0)
(-0.0109439 0.0556387 0)
(-0.014694 0.0572749 0)
(-0.0182227 0.0593074 0)
(-0.0216534 0.0624509 0)
(-0.0251902 0.0672031 0)
(-0.0291097 0.0741639 0)
(-0.0337837 0.0841615 0)
(-0.0396954 0.0980992 0)
(-0.0471513 0.11542 0)
(-0.0567212 0.129874 0)
(-0.0678364 0.123486 0)
(-0.0778734 0.0722216 0)
(-0.0819763 -0.0326744 0)
(-0.0887251 -0.154366 0)
(-0.0947991 -0.263762 0)
(-0.100499 -0.352353 0)
(-0.0404134 -0.329351 0)
(-0.000404648 0.0252367 0)
(-0.00293737 0.0480086 0)
(-0.00688682 0.0563807 0)
(-0.0103346 0.0590549 0)
(-0.013323 0.060349 0)
(-0.0157384 0.062097 0)
(-0.0176467 0.0650714 0)
(-0.0191186 0.0698077 0)
(-0.0201872 0.0769281 0)
(-0.0207937 0.0872268 0)
(-0.0207754 0.1015 0)
(-0.0194509 0.118826 0)
(-0.0168475 0.133125 0)
(-0.0129589 0.12676 0)
(-0.0115428 0.0769594 0)
(-0.0129575 -0.024472 0)
(-0.0284706 -0.138479 0)
(-0.0459517 -0.248375 0)
(-0.0731272 -0.362996 0)
(-0.0283428 -0.388125 0)
(-0.000601976 0.0270555 0)
(-0.00347674 0.0517241 0)
(-0.00741969 0.0603594 0)
(-0.0103284 0.062578 0)
(-0.0124356 0.0630982 0)
(-0.0136508 0.0640199 0)
(-0.0139824 0.0661852 0)
(-0.0133711 0.0701101 0)
(-0.0116635 0.076317 0)
(-0.00845006 0.085363 0)
(-0.00324662 0.0977249 0)
(0.00530806 0.112464 0)
(0.0171886 0.124382 0)
(0.0319215 0.118732 0)
(0.0406507 0.0752709 0)
(0.0426741 -0.0144214 0)
(0.0197153 -0.116327 0)
(-0.00461853 -0.219734 0)
(-0.0520199 -0.356839 0)
(-0.0189278 -0.43253 0)
(-0.000940985 0.0293432 0)
(-0.004203 0.0545558 0)
(-0.00852068 0.0623496 0)
(-0.0112096 0.0633005 0)
(-0.0126944 0.0629 0)
(-0.012788 0.0630629 0)
(-0.0115819 0.064435 0)
(-0.0090053 0.0673324 0)
(-0.00486447 0.0720825 0)
(0.0013712 0.0789687 0)
(0.0103651 0.0881499 0)
(0.0233532 0.0987161 0)
(0.039992 0.106598 0)
(0.0605097 0.101433 0)
(0.0734974 0.0674449 0)
(0.0788592 -0.00382538 0)
(0.0513076 -0.088766 0)
(0.0256887 -0.18053 0)
(-0.0374355 -0.338947 0)
(-0.00877848 -0.463876 0)
(-0.00303164 0.0310642 0)
(-0.00866158 0.0609056 0)
(-0.0122372 0.0685043 0)
(-0.0137738 0.0687501 0)
(-0.0137254 0.0664051 0)
(-0.0124185 0.0644705 0)
(-0.00982674 0.0637051 0)
(-0.00575545 0.064397 0)
(8.47978e-05 0.0667156 0)
(0.00829585 0.0707113 0)
(0.0193893 0.0763044 0)
(0.0342623 0.082478 0)
(0.0521074 0.0865199 0)
(0.0740489 0.081672 0)
(0.0875922 0.0577229 0)
(0.0958119 0.00671627 0)
(0.0673218 -0.0582923 0)
(0.043841 -0.138037 0)
(-0.0284505 -0.319865 0)
(0.00146175 -0.488199 0)
(-0.000887276 0.0441725 0)
(-0.00714279 0.0617569 0)
(-0.0157806 0.0649313 0)
(-0.0171639 0.061415 0)
(-0.0172631 0.058436 0)
(-0.0150312 0.0564596 0)
(-0.0112293 0.055542 0)
(-0.00571458 0.0555676 0)
(0.00167585 0.0565684 0)
(0.0114462 0.0584863 0)
(0.0238713 0.0612861 0)
(0.0395192 0.0641449 0)
(0.0569669 0.0655572 0)
(0.0782831 0.0613072 0)
(0.0908522 0.045657 0)
(0.100892 0.0128824 0)
(0.073898 -0.03329 0)
(0.0593377 -0.0994667 0)
(-0.0111899 -0.297898 0)
(0.0200458 -0.498022 0)
(-0.0125893 0.0321258 0)
(-0.0227686 0.0808334 0)
(-0.0198604 0.0813733 0)
(-0.0230914 0.0765543 0)
(-0.0218159 0.0691233 0)
(-0.0187121 0.0629933 0)
(-0.0134888 0.0581716 0)
(-0.00630266 0.0545364 0)
(0.00280245 0.0520828 0)
(0.0141781 0.0505066 0)
(0.0276321 0.0498983 0)
(0.0437395 0.0494236 0)
(0.0601485 0.0492218 0)
(0.0801996 0.0463754 0)
(0.0906542 0.0393552 0)
(0.104523 0.0228409 0)
(0.085497 -0.0063387 0)
(0.0954441 -0.0618121 0)
(0.0382185 -0.272145 0)
(0.0563963 -0.487765 0)
(-0.0777214 0.0956397 0)
(-0.0631861 0.0587015 0)
(-0.0647663 0.0601205 0)
(-0.0416974 0.0535528 0)
(-0.0233942 0.0465521 0)
(-0.0022596 0.0413712 0)
(0.0176891 0.0376097 0)
(0.038078 0.0344441 0)
(0.0570321 0.0321801 0)
(0.0777326 0.0301037 0)
(0.0956801 0.0289551 0)
(0.118555 0.0276904 0)
(0.134213 0.0266989 0)
(0.162078 0.0250235 0)
(0.170585 0.0192267 0)
(0.202083 0.0101811 0)
(0.187706 -0.0216506 0)
(0.220334 -0.0730239 0)
(0.153428 -0.251116 0)
(0.124173 -0.432071 0)
(0.1193 0.140665 0)
(0.151727 0.0859042 0)
(0.228118 0.063365 0)
(0.283619 0.0479548 0)
(0.325145 0.0373781 0)
(0.363544 0.0296452 0)
(0.392386 0.0242702 0)
(0.423688 0.0202095 0)
(0.443798 0.0173535 0)
(0.472464 0.0150141 0)
(0.485449 0.0133566 0)
(0.514816 0.0119168 0)
(0.520313 0.0107931 0)
(0.552189 0.00937459 0)
(0.546682 0.00734216 0)
(0.577976 0.00285535 0)
(0.54562 -0.00579981 0)
(0.55134 -0.0267169 0)
(0.418767 -0.0728984 0)
(0.274505 -0.15156 0)
)
;

boundaryField
{
    movingWall
    {
        type            fixedValue;
        value           uniform (1 0 0);
    }
    fixedWalls
    {
        type            noSlip;
    }
    frontAndBack
    {
        type            empty;
    }
}


// ************************************************************************* //
