/*--------------------------------*- C++ -*----------------------------------*\
  =========                 |
  \\      /  F ield         | OpenFOAM: The Open Source CFD Toolbox
   \\    /   O peration     | Website:  https://openfoam.org
    \\  /    A nd           | Version:  10
     \\/     M anipulation  |
\*---------------------------------------------------------------------------*/
FoamFile
{
    format      ascii;
    class       volScalarField;
    location    "10";
    object      p;
}
// * * * * * * * * * * * * * * * * * * * * * * * * * * * * * * * * * * * * * //

dimensions      [0 2 -2 0 0 0 0];

internalField   nonuniform List<scalar> 
400
(
2.04202e-08
-3.49353e-05
2.25842e-05
0.000135418
0.000312745
0.000558066
0.000877377
0.00127877
0.00177104
0.00236187
0.00305498
0.00384651
0.00471886
0.00563426
0.00652646
0.00730415
0.00786339
0.00814417
0.00818697
0.00801034
3.91874e-05
3.83896e-06
7.12635e-05
0.000188403
0.000366
0.000608367
0.000921765
0.00131406
0.00179369
0.0023684
0.00304295
0.00381526
0.00466872
0.00557184
0.00645893
0.00723562
0.00778832
0.00804931
0.00806983
0.00787607
-3.57503e-05
-8.15356e-05
-1.57422e-05
9.61051e-05
0.000265383
0.000496451
0.000795993
0.00117277
0.00163687
0.00219901
0.00286842
0.00364868
0.00453264
0.00549215
0.00645692
0.00731354
0.00791018
0.0081423
0.00808018
0.0078104
-0.000202047
-0.000254971
-0.000194012
-9.2083e-05
6.28751e-05
0.000275355
0.000552663
0.000904845
0.0013444
0.00188638
0.0025472
0.00334041
0.00426892
0.00531205
0.00640259
0.0073976
0.00807847
0.00826219
0.00803306
0.00764542
-0.000471634
-0.000530181
-0.000478179
-0.000391749
-0.000258264
-7.30915e-05
0.000171673
0.000487396
0.000889239
0.0013971
0.00203597
0.00283367
0.0038105
0.00496043
0.00622746
0.00743717
0.00826087
0.00836682
0.00786762
0.00729491
-0.000842641
-0.000906328
-0.000867362
-0.000802355
-0.000698531
-0.000551546
-0.00035361
-9.28356e-05
0.000247484
0.000690877
0.00126974
0.0020265
0.00300597
0.00423045
0.00569528
0.00720595
0.00826819
0.00825624
0.00742978
0.00653538
-0.00130727
-0.00137626
-0.00135428
-0.00131706
-0.00125237
-0.00115696
-0.00102464
-0.000845488
-0.00060445
-0.000278862
0.000164505
0.00077284
0.00161076
0.00275795
0.00426239
0.00607273
0.00750651
0.00748363
0.00652451
0.00523921
-0.00185433
-0.00192907
-0.00192766
-0.00192451
-0.00190889
-0.00188002
-0.00183553
-0.00177119
-0.00168038
-0.00155218
-0.00136909
-0.00110923
-0.000743895
-0.000182892
0.000809656
0.00251389
0.00444555
0.00521152
0.00495977
0.00372308
-0.00246963
-0.00255048
-0.00257211
-0.00260795
-0.00264993
-0.00270145
-0.00276704
-0.00285314
-0.00297017
-0.00313551
-0.00338143
-0.00378386
-0.0045007
-0.00560602
-0.00661386
-0.00613718
-0.00373444
-0.000316621
0.00226718
0.00315642
-0.00313651
-0.0032234
-0.00326815
-0.00334464
-0.00344835
-0.00358881
-0.00378042
-0.00404545
-0.00442127
-0.00497333
-0.00582126
-0.00720443
-0.00964188
-0.0135408
-0.0183624
-0.0204347
-0.0176937
-0.0106
-0.0033063
0.00206819
-0.00383712
-0.00392944
-0.00399366
-0.00410723
-0.00426928
-0.00449709
-0.0048165
-0.0052685
-0.00592294
-0.00690502
-0.00844938
-0.0109943
-0.0154193
-0.0223719
-0.0311892
-0.0362327
-0.0337494
-0.0241915
-0.0130922
-0.00358612
-0.00455393
-0.00464962
-0.00472324
-0.00486213
-0.00506854
-0.00536772
-0.00579505
-0.00640672
-0.0072979
-0.00863614
-0.0107352
-0.0141364
-0.0198673
-0.0284429
-0.0391898
-0.0453386
-0.043419
-0.0340763
-0.0234422
-0.0123473
-0.00527544
-0.00537297
-0.00544088
-0.00558558
-0.00581112
-0.00614995
-0.00664273
-0.00735189
-0.00838092
-0.00990242
-0.0122497
-0.0159278
-0.0219009
-0.0303757
-0.0408931
-0.0464522
-0.0450768
-0.0370763
-0.0287408
-0.0183859
-0.00599068
-0.00607915
-0.00610994
-0.00622809
-0.00644006
-0.00678126
-0.00728968
-0.0080243
-0.00908155
-0.0106012
-0.0128841
-0.0163447
-0.0216478
-0.0287663
-0.0370963
-0.041398
-0.0406056
-0.0339676
-0.0289206
-0.0195148
-0.0067249
-0.00680978
-0.0067752
-0.00683865
-0.00699272
-0.00728349
-0.00774629
-0.00843111
-0.00941958
-0.0107966
-0.0128237
-0.0157165
-0.0198517
-0.0250531
-0.0309227
-0.0338524
-0.0330508
-0.0273199
-0.0252658
-0.0157025
-0.00756674
-0.00745061
-0.00726883
-0.00718743
-0.00725496
-0.00748808
-0.00790107
-0.00851914
-0.00939118
-0.0106021
-0.0122898
-0.0145701
-0.0176259
-0.0211684
-0.0249511
-0.0262844
-0.025613
-0.0205004
-0.0201533
-0.00656356
-0.00799569
-0.00836819
-0.00798279
-0.00789973
-0.00780692
-0.00787643
-0.00811952
-0.0085689
-0.0092631
-0.0102622
-0.0116457
-0.0134534
-0.0157807
-0.0182713
-0.0208109
-0.0215121
-0.0205348
-0.0155371
-0.0135511
0.0110862
-0.0113593
-0.0087719
-0.0080205
-0.00729397
-0.00711022
-0.00719789
-0.00750424
-0.0079904
-0.00868015
-0.00959907
-0.0108309
-0.0123689
-0.0143017
-0.0162197
-0.0180225
-0.0180197
-0.0163982
-0.00969345
-0.000925095
0.0423018
-0.0079259
-0.010835
-0.00957859
-0.00943791
-0.00885583
-0.00853092
-0.00841422
-0.00852776
-0.00892846
-0.00959746
-0.0106452
-0.0120014
-0.0138641
-0.0157665
-0.0178326
-0.0176788
-0.015249
-0.00173864
0.0223992
0.0988968
-0.0331694
-0.00798031
-0.00627284
-0.0053973
-0.00510619
-0.00524416
-0.00569202
-0.00626401
-0.00705402
-0.00798032
-0.00925882
-0.0107013
-0.0124587
-0.0137374
-0.0142002
-0.0102183
0.000881561
0.0347402
0.0998199
0.229864
)
;

boundaryField
{
    movingWall
    {
        type            zeroGradient;
    }
    fixedWalls
    {
        type            zeroGradient;
    }
    frontAndBack
    {
        type            empty;
    }
}


// ************************************************************************* //
