/*--------------------------------*- C++ -*----------------------------------*\
  =========                 |
  \\      /  F ield         | OpenFOAM: The Open Source CFD Toolbox
   \\    /   O peration     | Website:  https://openfoam.org
    \\  /    A nd           | Version:  10
     \\/     M anipulation  |
\*---------------------------------------------------------------------------*/
FoamFile
{
    format      ascii;
    class       surfaceScalarField;
    location    "10";
    object      phi;
}
// * * * * * * * * * * * * * * * * * * * * * * * * * * * * * * * * * * * * * //

dimensions      [0 3 -1 0 0 0 0];

internalField   nonuniform List<scalar> 
760
(
-1.46358e-05
1.46357e-05
-4.75923e-05
3.29566e-05
-8.7456e-05
3.98636e-05
-0.000129919
4.24635e-05
-0.000173815
4.38954e-05
-0.000218984
4.51693e-05
-0.000265241
4.62566e-05
-0.00031192
4.66791e-05
-0.000357603
4.56835e-05
-0.000399839
4.22354e-05
-0.000434884
3.50452e-05
-0.000457602
2.27178e-05
-0.000461688
4.08648e-06
-0.000440332
-2.13564e-05
-0.000388642
-5.169e-05
-0.00030671
-8.1932e-05
-0.000203657
-0.000103053
-9.96511e-05
-0.000104006
-2.23218e-05
-7.73292e-05
-2.23218e-05
-3.63299e-05
5.09657e-05
-0.000102563
9.91901e-05
-0.000180436
0.000117736
-0.000262795
0.000124823
-0.000347094
0.000128194
-0.000432269
0.000130344
-0.000517243
0.00013123
-0.000600224
0.00012966
-0.000678276
0.000123735
-0.000746959
0.000110919
-0.000800063
8.81483e-05
-0.000829415
5.20702e-05
-0.000826321
9.92669e-07
-0.000780714
-6.69631e-05
-0.000686114
-0.000146291
-0.000543308
-0.000224738
-0.000366474
-0.000279887
-0.000187725
-0.000282755
-5.13209e-05
-0.000213733
-7.36427e-05
-4.67671e-05
9.77327e-05
-0.000129288
0.000181711
-0.000225289
0.000213737
-0.000326132
0.000225666
-0.000428727
0.00023079
-0.000531719
0.000233336
-0.000633789
0.000233301
-0.000732903
0.000228774
-0.000825845
0.000216677
-0.000907798
0.000192873
-0.000971949
0.000152299
-0.00100946
8.95789e-05
-0.00100926
7.99432e-07
-0.000958468
-0.000117759
-0.000846739
-0.00025802
-0.000671306
-0.000400171
-0.000447361
-0.000503833
-0.000219499
-0.000510617
-5.39791e-05
-0.000379253
-0.000127622
-5.08851e-05
0.000148618
-0.000140535
0.000271361
-0.00024451
0.000317711
-0.000353537
0.000334694
-0.000464532
0.000341785
-0.000576369
0.000345173
-0.000688099
0.000345031
-0.000798189
0.000338864
-0.000904023
0.000322511
-0.00100137
0.000290219
-0.00108369
0.000234618
-0.00114134
0.00014723
-0.00116113
2.05899e-05
-0.00112553
-0.000153361
-0.0010147
-0.000368853
-0.000814698
-0.000600168
-0.000535185
-0.000783346
-0.000240289
-0.000805512
-4.30343e-05
-0.000576508
-0.000170656
-5.16257e-05
0.000200244
-0.000143551
0.000363287
-0.000250467
0.000424627
-0.000362935
0.000447162
-0.00047818
0.000457029
-0.000595673
0.000462666
-0.000715312
0.00046467
-0.000836685
0.000460236
-0.000958536
0.000444363
-0.00107809
0.000409769
-0.00119
0.000346533
-0.00128488
0.000242106
-0.00134706
8.27755e-05
-0.00135335
-0.000147072
-0.00126838
-0.000453827
-0.00105335
-0.000815197
-0.00069703
-0.00113967
-0.000289055
-0.00121349
-2.87856e-05
-0.000836777
-0.000199442
-5.05847e-05
0.000250828
-0.000142184
0.000454886
-0.000249438
0.00053188
-0.000362959
0.000560683
-0.000480417
0.000574487
-0.000602115
0.000584365
-0.000729183
0.000591738
-0.000862872
0.000593925
-0.00100411
0.0005856
-0.00115278
0.000558437
-0.00130651
0.000500264
-0.0014587
0.000394295
-0.0015946
0.000218683
-0.00168768
-5.39915e-05
-0.00167701
-0.000464501
-0.00147571
-0.0010165
-0.00102404
-0.00159133
-0.000438568
-0.00179896
-3.94638e-05
-0.00123588
-0.000238906
-4.84665e-05
0.000299295
-0.00013814
0.000544559
-0.000244039
0.000637779
-0.00035688
0.000673524
-0.0004748
0.000692408
-0.000599026
0.000708591
-0.000732153
0.000724864
-0.000877624
0.000739396
-0.00103949
0.000747462
-0.00122203
0.000740979
-0.00142896
0.0007072
-0.00166173
0.000627056
-0.00191413
0.000471083
-0.00215536
0.000187244
-0.00229433
-0.000325531
-0.00215702
-0.00115381
-0.00162226
-0.00212609
-0.000831332
-0.00258989
-0.000163223
-0.00190399
-0.000402129
-4.55321e-05
0.000344827
-0.000132046
0.000631074
-0.000235099
0.000740832
-0.000345415
0.00078384
-0.000461495
0.000808488
-0.000585429
0.000832524
-0.000721301
0.000860736
-0.00087497
0.000893065
-0.00105442
0.000926913
-0.00127029
0.000956852
-0.00153633
0.000973235
-0.00186894
0.000959664
-0.00227778
0.000879929
-0.00272327
0.00063273
-0.00306382
1.50173e-05
-0.003035
-0.00118263
-0.00250622
-0.00265486
-0.00159707
-0.00349905
-0.000533598
-0.00296746
-0.000935727
-4.19484e-05
0.000386775
-0.000124261
0.000713386
-0.000222955
0.000839525
-0.000328553
0.000889438
-0.00043967
0.000919605
-0.000559002
0.000951856
-0.000691846
0.00099358
-0.000846225
0.00104744
-0.00103399
0.00111468
-0.00127285
0.00119571
-0.0015888
0.00128919
-0.00201427
0.00138514
-0.00256869
0.00143435
-0.00319211
0.00125614
-0.00367501
0.00049792
-0.00377484
-0.0010828
-0.00340539
-0.00302432
-0.00255638
-0.00434805
-0.00115871
-0.00436513
-0.00209444
-3.80198e-05
0.000424795
-0.000115404
0.000790771
-0.000208295
0.000932416
-0.000306729
0.000987872
-0.000409066
0.00102194
-0.000518144
0.00106093
-0.000639766
0.0011152
-0.000783059
0.00119074
-0.000962147
0.00129377
-0.00119909
0.00143265
-0.00152688
0.00161697
-0.00198292
0.00184118
-0.00257297
0.0020244
-0.00320763
0.0018908
-0.00369029
0.000980574
-0.00384957
-0.000923519
-0.00368483
-0.00318905
-0.00307596
-0.00495693
-0.0017472
-0.00569388
-0.00384164
-3.43169e-05
0.000459112
-0.00010667
0.000863124
-0.000192655
0.0010184
-0.000281498
0.00107672
-0.000370925
0.00111137
-0.000463273
0.00115328
-0.000563677
0.00121561
-0.000680233
0.00130729
-0.000825398
0.00143894
-0.00101798
0.00162524
-0.00128355
0.00188255
-0.00164412
0.00220174
-0.00208602
0.0024663
-0.00252527
0.00233005
-0.00285471
0.00131001
-0.00301051
-0.00076772
-0.00303397
-0.00316559
-0.00276925
-0.00522164
-0.00182648
-0.00663666
-0.00566812
-3.19696e-05
0.000491082
-0.000100345
0.000931499
-0.000178984
0.00109704
-0.00025615
0.00115388
-0.000328889
0.00118411
-0.000398548
0.00122294
-0.000468453
0.00128551
-0.000543455
0.0013823
-0.000630192
0.00152567
-0.000736925
0.00173197
-0.000871955
0.00201758
-0.00103579
0.00236558
-0.00121596
0.00264648
-0.00138001
0.0024941
-0.00152396
0.00145396
-0.00166806
-0.000623623
-0.00185774
-0.00297591
-0.00195363
-0.00512575
-0.00145975
-0.00713054
-0.00712787
-3.21816e-05
0.000523263
-9.90204e-05
0.000998338
-0.000171181
0.0011692
-0.000235963
0.00121866
-0.000289681
0.00123783
-0.000332668
0.00126593
-0.000366256
0.0013191
-0.000391356
0.0014074
-0.000407789
0.00154211
-0.000412201
0.00173638
-0.000397061
0.00200244
-0.00034782
0.00231633
-0.000266753
0.00256541
-0.000193661
0.00242101
-0.000201829
0.00146213
-0.000386326
-0.000439126
-0.00076034
-0.0026019
-0.00116065
-0.00472544
-0.00106395
-0.00722724
-0.00819182
-3.93294e-05
0.000562593
-0.000109958
0.00106897
-0.000176287
0.00123553
-0.000226659
0.00126903
-0.00025925
0.00127042
-0.000274216
0.00128089
-0.000270793
0.00131568
-0.000246595
0.0013832
-0.000196259
0.00149177
-0.000108459
0.00164858
3.47008e-05
0.00185928
0.000245265
0.00210577
0.000522083
0.00228859
0.000782008
0.00216109
0.000871379
0.00137276
0.000650573
-0.000218321
0.000144828
-0.00209615
-0.00053246
-0.00404815
-0.000755266
-0.00700443
-0.00894709
-4.95849e-05
0.000612177
-0.00012875
0.00114813
-0.000195336
0.00130212
-0.000238004
0.0013117
-0.000252769
0.00128518
-0.000240879
0.001269
-0.000202146
0.00127694
-0.000133393
0.00131444
-2.74294e-05
0.00138581
0.000126867
0.00149429
0.000346737
0.00163941
0.000651645
0.00180086
0.00102942
0.00191082
0.00139115
0.00179936
0.00155282
0.00121109
0.00132703
7.46863e-06
0.000731613
-0.00150073
-0.000100816
-0.00321572
-0.00050695
-0.0065983
-0.00945404
-0.000117531
0.000729709
-0.000210655
0.00124125
-0.000259813
0.00135127
-0.000273214
0.0013251
-0.000258673
0.00127064
-0.000218894
0.00122922
-0.000151401
0.00120945
-5.06335e-05
0.00121368
9.1223e-05
0.00124395
0.000285329
0.00130018
0.000544895
0.00137984
0.000881611
0.00146415
0.00127816
0.00151427
0.0016574
0.00142011
0.00184319
0.0010253
0.00165882
0.000191843
0.00105965
-0.000901566
0.000179184
-0.00233526
-0.000316244
-0.00610287
-0.00977028
-7.56072e-05
0.000805316
-0.000235962
0.00140161
-0.000323526
0.00143884
-0.000345143
0.00134672
-0.000320065
0.00124556
-0.000259101
0.00116826
-0.000164779
0.00111513
-3.40147e-05
0.00108291
0.000138403
0.00107153
0.000361541
0.00107704
0.000641508
0.00109987
0.000982197
0.00112346
0.0013629
0.00113357
0.00172333
0.00105968
0.00192034
0.000828285
0.0017731
0.000339086
0.00128132
-0.000409784
0.000536106
-0.00159005
6.07391e-05
-0.0056275
-0.00970954
-0.000372894
0.00117821
-0.000412695
0.00144141
-0.000434727
0.00146087
-0.000441997
0.00135399
-0.000400276
0.00120384
-0.00031649
0.00108448
-0.000193568
0.000992204
-2.9248e-05
0.000918594
0.000175401
0.000866884
0.00042568
0.000826762
0.000718978
0.000806574
0.00105487
0.00078757
0.00141184
0.000776594
0.00173658
0.000734944
0.00195238
0.000612491
0.00193411
0.000357349
0.00177131
-0.000246978
0.00143961
-0.00125835
0.000820722
-0.00500861
-0.00888882
-0.00136293
0.00254114
-0.00131843
0.0013969
-0.00104575
0.00118819
-0.00065928
0.000967523
-0.000253614
0.000798176
0.00015567
0.000675192
0.000558291
0.000589584
0.000954814
0.00052207
0.00134695
0.00047475
0.00174018
0.000433532
0.00213886
0.000407895
0.00254411
0.000382319
0.0029598
0.000360904
0.00336767
0.000327069
0.00373535
0.000244818
0.00398279
0.000109902
0.00405979
-0.000323975
0.00393143
-0.00112999
0.00249749
-0.00357467
-0.00639133
0.00254114
0.00393805
0.00512624
0.00609376
0.00689194
0.00756713
0.00815671
0.00867878
0.00915353
0.00958707
0.00999496
0.0103773
0.0107382
0.0110653
0.0113101
0.01142
0.011096
0.009966
0.00639133
)
;

boundaryField
{
    movingWall
    {
        type            calculated;
        value           uniform 0;
    }
    fixedWalls
    {
        type            calculated;
        value           uniform 0;
    }
    frontAndBack
    {
        type            empty;
        value           nonuniform List<scalar> 0();
    }
}


// ************************************************************************* //
