/*--------------------------------*- C++ -*----------------------------------*\
  =========                 |
  \\      /  F ield         | OpenFOAM: The Open Source CFD Toolbox
   \\    /   O peration     | Website:  https://openfoam.org
    \\  /    A nd           | Version:  10
     \\/     M anipulation  |
\*---------------------------------------------------------------------------*/
FoamFile
{
    format      ascii;
    class       volScalarField;
    location    "4.25";
    object      p;
}
// * * * * * * * * * * * * * * * * * * * * * * * * * * * * * * * * * * * * * //

dimensions      [0 2 -2 0 0 0 0];

internalField   nonuniform List<scalar> 
475
(
-0.0502189
-0.0755767
-0.10492
-0.128722
-0.151588
-0.0756452
-0.0893569
-0.105708
-0.124676
-0.14162
-0.0739999
-0.0833902
-0.098244
-0.115909
-0.132274
-0.0733942
-0.0840615
-0.0988806
-0.11456
-0.127777
-0.0435306
-0.0703359
-0.093993
-0.111581
-0.124121
-0.169686
-0.181679
-0.186817
-0.19374
-0.208216
-0.225496
-0.238449
-0.243595
-0.238542
-0.223504
-0.199546
-0.171673
-0.143193
-0.115718
-0.092096
-0.0725713
-0.0591259
-0.0501863
-0.0366949
-0.017725
-0.00213963
0.00654797
0.0119379
0.0173121
0.0228713
0.0273499
0.0299093
0.030617
0.0300048
0.0286318
0.0268949
0.0250175
0.0231036
0.0211938
0.0192998
0.0174231
0.0155607
0.0137083
0.0118637
0.0100257
0.00819538
0.00637008
0.00454784
0.00272772
0.000908948
-0.158137
-0.171185
-0.178656
-0.183521
-0.189071
-0.19466
-0.198717
-0.198175
-0.192753
-0.182097
-0.166578
-0.152004
-0.137922
-0.122546
-0.10903
-0.0958232
-0.0824722
-0.0700904
-0.0532071
-0.0316349
-0.0126613
-9.68309e-05
0.0086815
0.0160522
0.0223821
0.0271373
0.0299888
0.0310533
0.0307421
0.0295338
0.0278215
0.0258677
0.023824
0.0217683
0.019736
0.01774
0.0157829
0.0138609
0.0119675
0.0100952
0.00823936
0.00639616
0.00456196
0.00273406
0.000910176
-0.14581
-0.156078
-0.162088
-0.165552
-0.16648
-0.165738
-0.164129
-0.159767
-0.154301
-0.147981
-0.143069
-0.142332
-0.138034
-0.13057
-0.126244
-0.118844
-0.105117
-0.0872634
-0.0638944
-0.037481
-0.0154315
-0.000783494
0.0091831
0.0167584
0.0227617
0.0272248
0.0300486
0.0312918
0.0312163
0.0301851
0.0285465
0.0265713
0.0244436
0.0222767
0.0201314
0.0180349
0.0159923
0.0140033
0.0120603
0.0101541
0.00827547
0.00641688
0.00457261
0.00273845
0.000910737
-0.138683
-0.146527
-0.150678
-0.152439
-0.150203
-0.145545
-0.138561
-0.129993
-0.12236
-0.116478
-0.123218
-0.139173
-0.140294
-0.129343
-0.124292
-0.122449
-0.113196
-0.0957502
-0.0692179
-0.039793
-0.0158522
0.000172674
0.0105035
0.0177698
0.0233231
0.0275154
0.0302789
0.0315941
0.0316265
0.0306684
0.029044
0.0270318
0.0248344
0.0225855
0.0203603
0.0181966
0.0161045
0.0140785
0.0121086
0.0101834
0.00829202
0.00642523
0.00457589
0.0027388
0.000909834
-0.133592
-0.140207
-0.143828
-0.144033
-0.140893
-0.134189
-0.124433
-0.114269
-0.103329
-0.0993483
-0.109789
-0.12902
-0.1411
-0.140187
-0.132441
-0.121264
-0.10629
-0.0865933
-0.0622779
-0.0343561
-0.0136049
0.00134142
0.0115614
0.0188302
0.0242399
0.028191
0.0307399
0.0319209
0.0318873
0.0308989
0.0292487
0.027204
0.0249736
0.0226947
0.0204473
0.0182631
0.0161525
0.0141117
0.0121305
0.010197
0.0082999
0.00642931
0.0045777
0.00273918
0.000909584
-0.198506
-0.200491
-0.203592
-0.211002
-0.226984
-0.25
-0.271396
-0.281379
-0.274443
-0.249695
-0.208645
-0.155296
-0.0963749
-0.0390384
0.0106624
0.0494447
0.0755409
0.0887109
0.0911009
0.0867967
0.078849
0.0685288
0.0570976
0.0458271
0.0363713
0.0296537
0.0255436
0.0233362
0.0222422
0.021639
0.0211323
0.0205162
0.0197093
0.0186986
0.0175031
0.0161533
0.0146802
0.0131115
0.0114703
0.00977572
0.00804226
0.00628144
0.00450138
0.00270821
0.000906196
-0.189086
-0.193157
-0.199575
-0.21297
-0.234947
-0.261986
-0.285158
-0.296718
-0.291953
-0.269748
-0.22997
-0.176676
-0.116748
-0.0574527
-0.0070414
0.0330342
0.0616666
0.0774374
0.0823839
0.0802536
0.0736239
0.0643062
0.053591
0.0435744
0.0354678
0.0297411
0.0261531
0.0241108
0.0229794
0.0222529
0.0216048
0.0208633
0.0199573
0.0188715
0.0176208
0.0162323
0.0147325
0.0131452
0.0114912
0.00978809
0.00804913
0.00628479
0.00450273
0.00270831
0.000905825
-0.199036
-0.197023
-0.201442
-0.21635
-0.24263
-0.272384
-0.297468
-0.311103
-0.306705
-0.284132
-0.244895
-0.193517
-0.136033
-0.0791905
-0.0301356
0.00869596
0.037494
0.0549179
0.061771
0.061929
0.0580982
0.0516333
0.0447558
0.0385383
0.0337076
0.0300924
0.0274981
0.025733
0.0245045
0.0235267
0.0225949
0.021594
0.0204759
0.0192318
0.0178686
0.0163998
0.014845
0.0132186
0.0115373
0.00981572
0.00806472
0.00629258
0.00450568
0.00270854
0.000904908
-0.187335
-0.189566
-0.193661
-0.208214
-0.232475
-0.259206
-0.281757
-0.294969
-0.294054
-0.276622
-0.242635
-0.197065
-0.146837
-0.0966847
-0.0527307
-0.0186644
0.00667088
0.0235314
0.0319042
0.0351652
0.0358245
0.0344756
0.0316813
0.0301579
0.0296892
0.0293975
0.0288025
0.0278602
0.0267091
0.0254564
0.0241433
0.0227766
0.0213527
0.0198677
0.0183208
0.0167151
0.0150562
0.0133577
0.0116271
0.00987233
0.00809902
0.00631203
0.00451552
0.00271246
0.000905307
-0.218827
-0.19605
-0.194579
-0.203242
-0.223957
-0.2476
-0.266643
-0.27732
-0.274827
-0.258284
-0.228669
-0.190517
-0.149981
-0.110106
-0.0745024
-0.0472455
-0.0283363
-0.0138183
-0.00137681
0.00823748
0.0139179
0.0161973
0.0181515
0.0211479
0.024874
0.0278997
0.0293794
0.0294299
0.02855
0.0271808
0.0255943
0.0239253
0.022227
0.0205133
0.0187851
0.0170409
0.0152817
0.0135109
0.0117308
0.00994091
0.00814218
0.00633763
0.00452941
0.00271872
0.000906542
)
;

boundaryField
{
    inlet
    {
        type            zeroGradient;
    }
    outlet
    {
        type            fixedValue;
        value           uniform 0;
    }
    upperWall
    {
        type            zeroGradient;
    }
    lowerWall
    {
        type            zeroGradient;
    }
    frontAndBack
    {
        type            empty;
    }
}


// ************************************************************************* //
