/*--------------------------------*- C++ -*----------------------------------*\
  =========                 |
  \\      /  F ield         | OpenFOAM: The Open Source CFD Toolbox
   \\    /   O peration     | Website:  https://openfoam.org
    \\  /    A nd           | Version:  10
     \\/     M anipulation  |
\*---------------------------------------------------------------------------*/
FoamFile
{
    format      ascii;
    class       surfaceScalarField;
    location    "2.875";
    object      phi;
}
// * * * * * * * * * * * * * * * * * * * * * * * * * * * * * * * * * * * * * //

dimensions      [0 3 -1 0 0 0 0];

internalField   nonuniform List<scalar> 
760
(
-1.19359e-05
1.19359e-05
-3.2724e-05
2.07881e-05
-5.45001e-05
2.17761e-05
-7.53322e-05
2.08321e-05
-9.45782e-05
1.92461e-05
-0.000111782
1.72039e-05
-0.000126514
1.47323e-05
-0.000138358
1.1844e-05
-0.000146916
8.55782e-06
-0.000151819
4.90271e-06
-0.000152741
9.2195e-07
-0.000149409
-3.33192e-06
-0.000141655
-7.75376e-06
-0.000129436
-1.22188e-05
-0.000112872
-1.65646e-05
-9.22814e-05
-2.05905e-05
-6.82432e-05
-2.40381e-05
-4.18086e-05
-2.64347e-05
-1.57439e-05
-2.60647e-05
-1.57439e-05
-2.14382e-05
3.33741e-05
-5.46378e-05
5.39876e-05
-8.8933e-05
5.60714e-05
-0.000121592
5.34911e-05
-0.000151585
4.9239e-05
-0.000178171
4.37895e-05
-0.000200681
3.72425e-05
-0.000218499
2.96619e-05
-0.000231061
2.11197e-05
-0.00023786
1.17018e-05
-0.000238495
1.55696e-06
-0.000232616
-9.21082e-06
-0.000220039
-2.03301e-05
-0.00020077
-3.1488e-05
-0.00017504
-4.2295e-05
-0.000143363
-5.22668e-05
-0.000106622
-6.07798e-05
-6.63662e-05
-6.66901e-05
-2.64056e-05
-6.60254e-05
-4.21494e-05
-2.4028e-05
5.74021e-05
-6.08655e-05
9.08251e-05
-9.87898e-05
9.39956e-05
-0.000134848
8.95492e-05
-0.000167937
8.23285e-05
-0.000197261
7.31137e-05
-0.000222104
6.20851e-05
-0.000241806
4.93636e-05
-0.000255765
3.50785e-05
-0.000263449
1.93863e-05
-0.000264397
2.50467e-06
-0.000258174
-1.54333e-05
-0.000244582
-3.39223e-05
-0.00022357
-5.25e-05
-0.000195325
-7.05406e-05
-0.000160348
-8.72438e-05
-0.000119559
-0.000101568
-7.46491e-05
-0.0001116
-2.98463e-05
-0.000110828
-7.19957e-05
-2.55182e-05
8.29203e-05
-6.47373e-05
0.000130044
-0.00010509
0.000134349
-0.000143473
0.000127932
-0.000178749
0.000117605
-0.000210106
0.00010447
-0.000236808
8.87875e-05
-0.000258177
7.0733e-05
-0.000273583
5.04845e-05
-0.000282445
2.82479e-05
-0.000284255
4.31462e-06
-0.000278485
-2.12037e-05
-0.000264785
-4.76219e-05
-0.00024298
-7.43054e-05
-0.000213134
-0.000100386
-0.000175649
-0.000124729
-0.000131419
-0.000145798
-8.227e-05
-0.000160749
-3.29262e-05
-0.000160172
-0.000104922
-2.73163e-05
0.000110237
-6.9422e-05
0.00017215
-0.00011275
0.000177677
-0.000154002
0.000169183
-0.000192001
0.000155604
-0.000225918
0.000138386
-0.000255008
0.000117878
-0.000278579
9.43035e-05
-0.00029597
6.78764e-05
-0.00030655
3.88279e-05
-0.000309709
7.47299e-06
-0.00030482
-2.6093e-05
-0.000291332
-6.1109e-05
-0.000268847
-9.67911e-05
-0.000237193
-0.000132039
-0.000196582
-0.00016534
-0.000147822
-0.000194558
-9.29041e-05
-0.000215667
-3.72767e-05
-0.000215799
-0.000142199
-2.96693e-05
0.000139906
-7.55118e-05
0.000217993
-0.000122684
0.000224849
-0.000167628
0.000214128
-0.000209122
0.000197098
-0.000246322
0.000175587
-0.000278485
0.000150041
-0.000304913
0.000120732
-0.000324928
8.78912e-05
-0.000337844
5.17442e-05
-0.000342953
1.25821e-05
-0.000339474
-2.95721e-05
-0.000326592
-7.39908e-05
-0.000303585
-0.000119798
-0.000269907
-0.000165717
-0.000225416
-0.000209832
-0.000170703
-0.000249271
-0.000107909
-0.000278461
-4.35038e-05
-0.000280205
-0.000185702
-3.26464e-05
0.000172552
-8.31838e-05
0.00026853
-0.000135154
0.000276818
-0.000184677
0.000263652
-0.000230477
0.000242898
-0.000271712
0.000216822
-0.000307656
0.000185985
-0.000337633
0.000150709
-0.000360969
0.000111227
-0.000376944
6.77193e-05
-0.00038475
2.03886e-05
-0.000383443
-3.088e-05
-0.000371857
-8.55764e-05
-0.000348821
-0.000142835
-0.000313206
-0.000201332
-0.000264246
-0.000258792
-0.00020206
-0.000311457
-0.000128805
-0.000351716
-5.23415e-05
-0.000356669
-0.000238044
-3.63134e-05
0.000208866
-9.26032e-05
0.00032482
-0.000150397
0.000334612
-0.000205421
0.000318676
-0.000256348
0.000293824
-0.000302358
0.000262832
-0.000342781
0.000226407
-0.000377002
0.00018493
-0.000404399
0.000138624
-0.000424261
8.75809e-05
-0.000435708
3.18361e-05
-0.000437644
-2.89446e-05
-0.000428482
-9.47383e-05
-0.000406454
-0.000164862
-0.000369569
-0.000238217
-0.000315995
-0.000312366
-0.00024487
-0.000382583
-0.000157995
-0.00043859
-6.50553e-05
-0.000449609
-0.000303099
-4.07707e-05
0.000249636
-0.000104005
0.000388054
-0.000168733
0.00039934
-0.000230211
0.000380154
-0.000287071
0.000350684
-0.000338555
0.000314316
-0.0003841
0.000271952
-0.000423224
0.000224054
-0.000455428
0.000170829
-0.000480088
0.00011224
-0.000496323
4.80712e-05
-0.000502954
-2.2313e-05
-0.000497938
-9.97547e-05
-0.000478779
-0.000184021
-0.00044227
-0.000274726
-0.000384865
-0.000369771
-0.000303754
-0.000463693
-0.000199501
-0.000542843
-8.40048e-05
-0.000565105
-0.000387104
-4.61804e-05
0.000295817
-0.000117742
0.000459616
-0.000190626
0.000472223
-0.000259531
0.000449059
-0.000323083
0.000414236
-0.000380645
0.000371878
-0.000431841
0.000323148
-0.000476414
0.000268628
-0.000514103
0.000208517
-0.000544493
0.00014263
-0.000566835
7.04136e-05
-0.000580017
-9.13105e-06
-0.000581627
-9.81447e-05
-0.000568382
-0.000197266
-0.0005355
-0.000307608
-0.000476841
-0.00042843
-0.000386029
-0.000554505
-0.000260353
-0.000668519
-0.000113904
-0.000711554
-0.000501008
-5.28132e-05
0.00034863
-0.000134364
0.000541167
-0.000216757
0.000554616
-0.000294064
0.000526366
-0.000364968
0.00048514
-0.000429045
0.000435955
-0.000486212
0.000380316
-0.000536563
0.000318979
-0.00058022
0.000252174
-0.000617161
0.000179572
-0.000646985
0.000100237
-0.000668928
1.28127e-05
-0.000680501
-8.65725e-05
-0.000677813
-0.000199953
-0.000654318
-0.000331103
-0.000600296
-0.000482452
-0.000503385
-0.000651417
-0.000353458
-0.000818445
-0.000164911
-0.000900101
-0.00066592
-6.11376e-05
0.000409767
-0.000154739
0.000634768
-0.000248147
0.000648024
-0.000334785
0.000613004
-0.000413525
0.00056388
-0.000484284
0.000506715
-0.000547412
0.000443444
-0.000603501
0.000375068
-0.000653241
0.000301913
-0.000697249
0.00022358
-0.000735853
0.000138841
-0.000768591
4.55505e-05
-0.000794336
-6.08279e-05
-0.000808812
-0.000185478
-0.000804157
-0.000335758
-0.000766487
-0.000520122
-0.000674408
-0.000743495
-0.00050367
-0.000989183
-0.00026098
-0.00114279
-0.0009269
-7.20221e-05
0.00048179
-0.000180274
0.00074302
-0.000286329
0.000754079
-0.000383095
0.000709769
-0.000469863
0.000650647
-0.000547072
0.000583924
-0.000615667
0.000512039
-0.0006769
0.000436301
-0.000732202
0.000357216
-0.00078307
0.000274448
-0.0008309
0.000186671
-0.000876578
9.12284e-05
-0.000920884
-1.6522e-05
-0.000960777
-0.000145584
-0.00098919
-0.000307345
-0.000989096
-0.000520216
-0.000927886
-0.000804705
-0.000757633
-0.00115944
-0.000455759
-0.00144466
-0.00138266
-8.71557e-05
0.000568945
-0.000213489
0.000869354
-0.000333692
0.000874282
-0.000441003
0.00081708
-0.000535523
0.000745168
-0.000618387
0.000666788
-0.000691307
0.00058496
-0.000756335
0.000501328
-0.000815793
0.000416674
-0.000872278
0.000330933
-0.000928743
0.000243136
-0.000988412
0.000150898
-0.00105335
4.84115e-05
-0.00112724
-7.16915e-05
-0.00120778
-0.000226806
-0.00127958
-0.000448411
-0.00130254
-0.000781745
-0.00118708
-0.00127489
-0.000837554
-0.00179419
-0.00222021
-0.000106938
0.000675884
-0.000256108
0.00101852
-0.000392902
0.00101108
-0.000511281
0.00093546
-0.000612745
0.000846631
-0.000699631
0.000753674
-0.000774826
0.000660154
-0.000841316
0.000567819
-0.00090228
0.000477638
-0.000961311
0.000389964
-0.00102268
0.00030451
-0.00109208
0.000220289
-0.00117877
0.000135102
-0.00129312
4.26635e-05
-0.00144317
-7.67575e-05
-0.00162957
-0.000262007
-0.00182095
-0.000590368
-0.00184073
-0.00125512
-0.00143231
-0.00220261
-0.00365253
-0.000161838
0.000837721
-0.000328915
0.0011856
-0.000473336
0.0011555
-0.00059595
0.00105807
-0.000701023
0.000951705
-0.000790102
0.000842752
-0.00086554
0.000735592
-0.000930491
0.00063277
-0.000989044
0.000536191
-0.00104602
0.000446937
-0.00110799
0.000366485
-0.00118301
0.000295307
-0.00128356
0.000235648
-0.00142714
0.000186247
-0.0016432
0.000139305
-0.00194527
4.00638e-05
-0.00232554
-0.000210101
-0.00247992
-0.00110074
-0.00190583
-0.00277669
-0.00555836
-0.000136381
0.000974102
-0.000375014
0.00142423
-0.000563382
0.00134386
-0.000709326
0.00120402
-0.000819663
0.00106204
-0.000901541
0.000924631
-0.000963248
0.000797299
-0.00101191
0.00068143
-0.00105321
0.000577497
-0.00109122
0.000484946
-0.00113197
0.00040723
-0.00118236
0.000345703
-0.00125814
0.000311424
-0.0013841
0.000312207
-0.0016062
0.000361409
-0.00194769
0.000381547
-0.0024063
0.000248515
-0.00254171
-0.000965337
-0.00172061
-0.00359779
-0.00727897
-0.000417761
0.00139186
-0.000578943
0.00158542
-0.000710844
0.00147577
-0.00082004
0.00131321
-0.000882304
0.00112431
-0.000911385
0.000953712
-0.000919334
0.000805248
-0.000914336
0.000676432
-0.000903901
0.000567062
-0.000891363
0.000472408
-0.000885299
0.000401167
-0.000885899
0.000346303
-0.000905504
0.000331029
-0.000940157
0.00034686
-0.00101106
0.000432313
-0.00109272
0.000463209
-0.00115394
0.000309727
-0.00116672
-0.000952549
-0.00056608
-0.00419843
-0.00784505
-0.00126364
0.0026555
-0.0011778
0.00149958
-0.000937567
0.00123553
-0.000616378
0.000992024
-0.000289739
0.000797666
1.76161e-05
0.000646357
0.000293784
0.00052908
0.000537255
0.000432961
0.000746793
0.000357525
0.000927588
0.000291612
0.00108424
0.000244517
0.00122259
0.000207947
0.00137116
0.000182467
0.00153024
0.000187774
0.00179914
0.000163415
0.00211111
0.000151242
0.00250965
-8.88177e-05
0.0025546
-0.000997496
0.00169799
-0.00334182
-0.00614706
0.0026555
0.00415508
0.00539061
0.00638264
0.0071803
0.00782666
0.00835574
0.0087887
0.00914623
0.00943784
0.00968235
0.0098903
0.0100728
0.0102605
0.010424
0.0105752
0.0104864
0.00948888
0.00614706
)
;

boundaryField
{
    movingWall
    {
        type            calculated;
        value           uniform 0;
    }
    fixedWalls
    {
        type            calculated;
        value           uniform 0;
    }
    frontAndBack
    {
        type            empty;
        value           nonuniform List<scalar> 0();
    }
}


// ************************************************************************* //
