/*--------------------------------*- C++ -*----------------------------------*\
  =========                 |
  \\      /  F ield         | OpenFOAM: The Open Source CFD Toolbox
   \\    /   O peration     | Website:  https://openfoam.org
    \\  /    A nd           | Version:  10
     \\/     M anipulation  |
\*---------------------------------------------------------------------------*/
FoamFile
{
    format      ascii;
    class       volVectorField;
    location    "0.4";
    object      U;
}
// * * * * * * * * * * * * * * * * * * * * * * * * * * * * * * * * * * * * * //

dimensions      [0 1 -1 0 0 0 0];

internalField   nonuniform List<vector> 
400
(
(-0.000175417 0.00017379 0)
(-0.000537806 0.000183701 0)
(-0.00090201 0.000174738 0)
(-0.00124237 0.000160955 0)
(-0.00155059 0.000143185 0)
(-0.00181925 0.000121987 0)
(-0.00204204 9.79629e-05 0)
(-0.00221389 7.17373e-05 0)
(-0.002331 4.39333e-05 0)
(-0.00239082 1.51643e-05 0)
(-0.00239202 -1.39639e-05 0)
(-0.00233449 -4.2846e-05 0)
(-0.00221934 -7.08671e-05 0)
(-0.00204892 -9.73948e-05 0)
(-0.0018269 -0.000121779 0)
(-0.00155825 -0.000143363 0)
(-0.00124927 -0.000161504 0)
(-0.000907458 -0.000175607 0)
(-0.000541256 -0.000184796 0)
(-0.000176586 -0.000174933 0)
(-0.000194479 0.000544001 0)
(-0.000595729 0.000574381 0)
(-0.000998371 0.000546271 0)
(-0.00137442 0.000503051 0)
(-0.00171474 0.000447369 0)
(-0.00201116 0.000381007 0)
(-0.00225678 0.000305874 0)
(-0.00244613 0.000223927 0)
(-0.0025751 0.000137107 0)
(-0.00264096 4.73139e-05 0)
(-0.0026423 -4.35863e-05 0)
(-0.00257899 -0.000133731 0)
(-0.00245221 -0.000221226 0)
(-0.00226448 -0.000304114 0)
(-0.00201972 -0.000380372 0)
(-0.00172332 -0.000447938 0)
(-0.00138217 -0.000504784 0)
(-0.00100449 -0.000549005 0)
(-0.000599602 -0.000577821 0)
(-0.000195792 -0.000547591 0)
(-0.000204581 0.000945231 0)
(-0.00062661 0.000997116 0)
(-0.0010498 0.000947993 0)
(-0.00144455 0.00087258 0)
(-0.00180125 0.00077557 0)
(-0.00211145 0.000660155 0)
(-0.00236811 0.000529709 0)
(-0.00256573 0.000387648 0)
(-0.00270025 0.000237315 0)
(-0.00276899 8.19464e-05 0)
(-0.00277057 -7.5303e-05 0)
(-0.00270483 -0.000231294 0)
(-0.00257288 -0.000382822 0)
(-0.00237717 -0.000526554 0)
(-0.00212155 -0.000659002 0)
(-0.0018114 -0.000776568 0)
(-0.00145373 -0.000875665 0)
(-0.00105707 -0.000952879 0)
(-0.000631221 -0.00100327 0)
(-0.000206145 -0.000951663 0)
(-0.000219825 0.00137001 0)
(-0.000673111 0.00144443 0)
(-0.00112709 0.00137249 0)
(-0.00154971 0.00126236 0)
(-0.00193067 0.00112107 0)
(-0.00226112 0.000953428 0)
(-0.00253388 0.00076446 0)
(-0.00274348 0.000559144 0)
(-0.00288602 0.000342259 0)
(-0.00295892 0.000118354 0)
(-0.00296088 -0.000108191 0)
(-0.00289171 -0.000333036 0)
(-0.00275241 -0.000551731 0)
(-0.00254521 -0.000759587 0)
(-0.00227379 -0.000951612 0)
(-0.00194345 -0.00112255 0)
(-0.0015613 -0.00126707 0)
(-0.00113629 -0.00137999 0)
(-0.000678961 -0.00145391 0)
(-0.00022181 -0.00137993 0)
(-0.000241185 0.00183126 0)
(-0.000738172 0.00192966 0)
(-0.00123498 0.00183202 0)
(-0.00169609 0.00168314 0)
(-0.00211026 0.00149286 0)
(-0.00246814 0.00126803 0)
(-0.00276249 0.00101559 0)
(-0.00298803 0.000742245 0)
(-0.00314114 0.000454251 0)
(-0.00321955 0.000157411 0)
(-0.00322207 -0.000142791 0)
(-0.00314847 -0.00044096 0)
(-0.00299954 -0.000731521 0)
(-0.00277715 -0.00100849 0)
(-0.0024846 -0.00126531 0)
(-0.00212693 -0.00149491 0)
(-0.00171129 -0.00168988 0)
(-0.00124709 -0.00184287 0)
(-0.000745894 -0.00194344 0)
(-0.000243805 -0.00184571 0)
(-0.000269579 0.0023421 0)
(-0.000824506 0.00246623 0)
(-0.0013777 0.00233862 0)
(-0.00188895 0.00214513 0)
(-0.00234578 0.00189922 0)
(-0.00273839 0.00161033 0)
(-0.00305967 0.00128774 0)
(-0.00330483 0.000940098 0)
(-0.00347085 0.000575159 0)
(-0.00355597 0.000199854 0)
(-0.00355925 -0.000179453 0)
(-0.00348044 -0.000556567 0)
(-0.00331994 -0.000925014 0)
(-0.003079 -0.00127764 0)
(-0.00276022 -0.00160632 0)
(-0.00236802 -0.00190192 0)
(-0.00190935 -0.0021545 0)
(-0.00139404 -0.00235388 0)
(-0.000834964 -0.00248575 0)
(-0.00027313 -0.00236262 0)
(-0.000306349 0.00291781 0)
(-0.000936048 0.00306957 0)
(-0.00156128 0.00290577 0)
(-0.00213559 0.00265937 0)
(-0.00264507 0.00234863 0)
(-0.00307962 0.00198648 0)
(-0.00343272 0.00158513 0)
(-0.00370061 0.00115541 0)
(-0.00388139 0.000706545 0)
(-0.00397416 0.000246338 0)
(-0.00397849 -0.00021835 0)
(-0.00389403 -0.000680955 0)
(-0.00372061 -0.0011345 0)
(-0.00345846 -0.00157093 0)
(-0.00310888 -0.00198059 0)
(-0.00267511 -0.002352 0)
(-0.00216337 -0.00267212 0)
(-0.0015837 -0.00292692 0)
(-0.000950466 -0.00309688 0)
(-0.000311255 -0.00294665 0)
(-0.000353481 0.00357689 0)
(-0.00107855 0.00375801 0)
(-0.00179437 0.00354889 0)
(-0.00244622 0.00323779 0)
(-0.00301867 0.00284963 0)
(-0.00350189 0.00240214 0)
(-0.00389074 0.00191121 0)
(-0.00418342 0.00139013 0)
(-0.00437993 0.000849439 0)
(-0.00448086 0.000297359 0)
(-0.00448655 -0.000259386 0)
(-0.0043966 -0.000814573 0)
(-0.00420991 -0.00136138 0)
(-0.00392509 -0.00189132 0)
(-0.00354129 -0.00239341 0)
(-0.00305955 -0.00285359 0)
(-0.00248441 -0.00325485 0)
(-0.0018255 -0.00357796 0)
(-0.00109871 -0.00379606 0)
(-0.000360364 -0.00361729 0)
(-0.000413963 0.00434263 0)
(-0.00126053 0.00455406 0)
(-0.00208942 0.00428594 0)
(-0.00283502 0.00389322 0)
(-0.00348073 0.00341036 0)
(-0.00401804 0.00286175 0)
(-0.00444472 0.00226794 0)
(-0.00476238 0.00164486 0)
(-0.00497416 0.00100396 0)
(-0.00508299 0.000353128 0)
(-0.00509042 -0.000302057 0)
(-0.00499602 -0.000956811 0)
(-0.00479736 -0.0016055 0)
(-0.00449049 -0.00224009 0)
(-0.00407115 -0.00284869 0)
(-0.00353656 -0.00341454 0)
(-0.00288791 -0.00391569 0)
(-0.00213312 -0.00432564 0)
(-0.00128914 -0.00460703 0)
(-0.000423778 -0.00439938 0)
(-0.000492456 0.0052456 0)
(-0.00149501 0.00548609 0)
(-0.00246479 0.00513796 0)
(-0.00332199 0.00463904 0)
(-0.00405015 0.00403765 0)
(-0.00464431 0.00336744 0)
(-0.00510763 0.00265468 0)
(-0.0054474 0.00191791 0)
(-0.00567165 0.00116871 0)
(-0.00578688 0.000413354 0)
(-0.00579648 -0.00034526 0)
(-0.00570004 -0.0011054 0)
(-0.00549319 -0.00186425 0)
(-0.00516827 -0.00261559 0)
(-0.00471574 -0.00334763 0)
(-0.00412656 -0.00404107 0)
(-0.00339572 -0.00466797 0)
(-0.00252684 -0.00519187 0)
(-0.00153628 -0.00555999 0)
(-0.000506725 -0.00532587 0)
(-0.000596595 0.00632798 0)
(-0.00180256 0.00659094 0)
(-0.00294801 0.00612965 0)
(-0.00393556 0.00548818 0)
(-0.00475233 0.00473525 0)
(-0.00540101 0.003917 0)
(-0.00589425 0.0030664 0)
(-0.00624835 0.00220401 0)
(-0.00647872 0.00134 0)
(-0.00659697 0.00047695 0)
(-0.00660918 -0.000387099 0)
(-0.00651502 -0.00125571 0)
(-0.00630755 -0.00213117 0)
(-0.00597386 -0.00301139 0)
(-0.00549662 -0.00388655 0)
(-0.00485691 -0.0047357 0)
(-0.00403898 -0.00552421 0)
(-0.00303727 -0.00620224 0)
(-0.0018633 -0.00669434 0)
(-0.000617896 -0.00644279 0)
(-0.000739766 0.00765131 0)
(-0.00221712 0.0079171 0)
(-0.00358139 0.0072893 0)
(-0.00471666 0.00645093 0)
(-0.00562133 0.00550064 0)
(-0.00631316 0.00450075 0)
(-0.00682063 0.00349128 0)
(-0.0071738 0.00249276 0)
(-0.00739872 0.00151094 0)
(-0.00751398 0.000541722 0)
(-0.00752915 -0.000424626 0)
(-0.00744412 -0.00139988 0)
(-0.00724887 -0.00239448 0)
(-0.00692365 -0.00341377 0)
(-0.00644005 -0.00445339 0)
(-0.00576422 -0.00549362 0)
(-0.00486257 -0.00649331 0)
(-0.00371168 -0.00738572 0)
(-0.00230896 -0.00806207 0)
(-0.000772824 -0.00781849 0)
(-0.000947582 0.0093113 0)
(-0.00279753 0.00952856 0)
(-0.00443081 0.00864735 0)
(-0.00572455 0.00753012 0)
(-0.00670252 0.00631939 0)
(-0.00741038 0.00509716 0)
(-0.00790225 0.00390771 0)
(-0.0082287 0.00276654 0)
(-0.00842976 0.00167024 0)
(-0.00853253 0.00060392 0)
(-0.00855079 -0.000453568 0)
(-0.00848488 -0.00152573 0)
(-0.00832143 -0.00263497 0)
(-0.00803277 -0.00379856 0)
(-0.00757647 -0.00502307 0)
(-0.00689683 -0.00629612 0)
(-0.00593146 -0.00757464 0)
(-0.00462398 -0.00877235 0)
(-0.00294139 -0.00973164 0)
(-0.00100194 -0.00956077 0)
(-0.00127271 0.0114653 0)
(-0.00365077 0.0115082 0)
(-0.00559989 0.0102309 0)
(-0.00704502 0.00871097 0)
(-0.00805432 0.0071566 0)
(-0.00872485 0.00566661 0)
(-0.00915126 0.00427982 0)
(-0.00941128 0.00299777 0)
(-0.00956134 0.00180074 0)
(-0.00963778 0.000657655 0)
(-0.0096588 -0.000468167 0)
(-0.00962552 -0.00161567 0)
(-0.0095217 -0.00282349 0)
(-0.00931174 -0.00412661 0)
(-0.0089376 -0.00555061 0)
(-0.00831579 -0.00710108 0)
(-0.00733927 -0.00874565 0)
(-0.00589079 -0.0103858 0)
(-0.00388586 -0.0117905 0)
(-0.00136863 -0.0118504 0)
(-0.00182747 0.0144017 0)
(-0.00497863 0.0139568 0)
(-0.00725239 0.0120475 0)
(-0.00879938 0.00994283 0)
(-0.00974693 0.0079434 0)
(-0.0102872 0.00614195 0)
(-0.0105711 0.00455223 0)
(-0.0107078 0.0031465 0)
(-0.0107699 0.00187839 0)
(-0.0108014 0.000694473 0)
(-0.0108241 -0.000461303 0)
(-0.0108402 -0.00164629 0)
(-0.0108324 -0.00291913 0)
(-0.0107599 -0.00433889 0)
(-0.0105509 -0.00596127 0)
(-0.0100919 -0.00782753 0)
(-0.0092167 -0.0099406 0)
(-0.00769657 -0.0122211 0)
(-0.00538226 -0.0143369 0)
(-0.00201115 -0.0150105 0)
(-0.00287371 0.0184529 0)
(-0.00719248 0.0169406 0)
(-0.00964344 0.014041 0)
(-0.0111499 0.011108 0)
(-0.0118552 0.00855488 0)
(-0.012116 0.00641707 0)
(-0.0121467 0.00464557 0)
(-0.0120851 0.00315945 0)
(-0.0120133 0.00187277 0)
(-0.0119774 0.000703527 0)
(-0.0119995 -0.000425303 0)
(-0.0120833 -0.00158967 0)
(-0.0122142 -0.0028694 0)
(-0.0123538 -0.0043531 0)
(-0.0124262 -0.0061396 0)
(-0.012295 -0.00833151 0)
(-0.0117333 -0.0110135 0)
(-0.010323 -0.0141969 0)
(-0.00790876 -0.0174393 0)
(-0.00324439 -0.019585 0)
(-0.00481424 0.0259467 0)
(-0.0109215 0.0207037 0)
(-0.0131195 0.0160951 0)
(-0.0142849 0.0119863 0)
(-0.0144357 0.0087854 0)
(-0.014194 0.00633646 0)
(-0.013826 0.00445609 0)
(-0.0134777 0.00297372 0)
(-0.0132228 0.00174979 0)
(-0.0130964 0.000672213 0)
(-0.0131141 -0.000353479 0)
(-0.013281 -0.00141747 0)
(-0.0135924 -0.0026163 0)
(-0.0140265 -0.00406747 0)
(-0.0145255 -0.00592361 0)
(-0.0149615 -0.00838354 0)
(-0.0150775 -0.011694 0)
(-0.0141663 -0.0161496 0)
(-0.0123629 -0.0212389 0)
(-0.00572685 -0.0274883 0)
(-0.0101252 0.0309964 0)
(-0.019127 0.0231302 0)
(-0.0183074 0.0171857 0)
(-0.0183514 0.0119543 0)
(-0.0173805 0.00826508 0)
(-0.0163109 0.00569426 0)
(-0.0153685 0.0038734 0)
(-0.0146458 0.00253166 0)
(-0.0141656 0.00148155 0)
(-0.0139285 0.000591077 0)
(-0.0139341 -0.000241545 0)
(-0.014188 -0.00110649 0)
(-0.0147024 -0.00210507 0)
(-0.0154944 -0.00336832 0)
(-0.0165684 -0.00508714 0)
(-0.0178801 -0.0075505 0)
(-0.0192947 -0.0111739 0)
(-0.0197076 -0.0166659 0)
(-0.0210924 -0.0227334 0)
(-0.0112294 -0.0351129 0)
(-0.0154666 0.0671931 0)
(-0.0246464 0.0280491 0)
(-0.0201648 0.0182639 0)
(-0.0183505 0.0107448 0)
(-0.0154914 0.00656824 0)
(-0.0131952 0.00419689 0)
(-0.0114879 0.00272303 0)
(-0.010297 0.00173324 0)
(-0.0095387 0.00100805 0)
(-0.009152 0.000418995 0)
(-0.00910407 -0.000120489 0)
(-0.0093937 -0.00068295 0)
(-0.0100501 -0.00135264 0)
(-0.0111297 -0.00226015 0)
(-0.0127111 -0.00364344 0)
(-0.0148446 -0.00598495 0)
(-0.0176024 -0.0102175 0)
(-0.0184142 -0.018672 0)
(-0.0246061 -0.0306208 0)
(-0.0100036 -0.072625 0)
(0.0770421 0.0537271 0)
(0.0696069 0.0189362 0)
(0.104666 0.0106624 0)
(0.112349 0.00555951 0)
(0.118635 0.00299473 0)
(0.122621 0.00174965 0)
(0.125077 0.00107515 0)
(0.126632 0.000668473 0)
(0.127586 0.000393784 0)
(0.128089 0.000183504 0)
(0.128211 -8.4726e-07 0)
(0.127965 -0.000189744 0)
(0.127304 -0.00041508 0)
(0.126098 -0.000734154 0)
(0.12407 -0.00126599 0)
(0.12075 -0.00229102 0)
(0.114305 -0.00439065 0)
(0.109418 -0.00953478 0)
(0.0710927 -0.0169867 0)
(0.0811396 -0.0518774 0)
)
;

boundaryField
{
    movingWall
    {
        type            fixedValue;
        value           uniform (1 0 0);
    }
    fixedWalls
    {
        type            noSlip;
    }
    frontAndBack
    {
        type            empty;
    }
}


// ************************************************************************* //
