/*--------------------------------*- C++ -*----------------------------------*\
  =========                 |
  \\      /  F ield         | OpenFOAM: The Open Source CFD Toolbox
   \\    /   O peration     | Website:  https://openfoam.org
    \\  /    A nd           | Version:  10
     \\/     M anipulation  |
\*---------------------------------------------------------------------------*/
FoamFile
{
    format      ascii;
    class       volVectorField;
    location    "5.725";
    object      U;
}
// * * * * * * * * * * * * * * * * * * * * * * * * * * * * * * * * * * * * * //

dimensions      [0 1 -1 0 0 0 0];

internalField   nonuniform List<vector> 
496
(
(9.92228 0.0464193 0)
(10.0195 -0.126722 0)
(10.1368 -0.123446 0)
(10.8497 -0.199427 0)
(9.90899 0.512003 0)
(9.96141 -1.28463 0)
(10.1324 -0.298996 0)
(10.9804 -1.17123 0)
(10.5567 1.39462 0)
(9.34667 -3.09637 0)
(11.1881 -0.208695 0)
(10.9668 -4.27607 0)
(11.5206 1.70768 0)
(8.61676 -2.84908 0)
(12.2021 1.03083 0)
(10.6684 -6.8363 0)
(11.4026 -0.208766 1.72207e-18)
(12.2825 -0.198317 9.2219e-19)
(11.6104 -0.382692 -2.11885e-18)
(12.6581 0.15382 3.49814e-18)
(13.2037 -2.16712 3.95148e-19)
(13.4292 -0.615894 -4.42103e-18)
(12.591 -5.27201 -4.2458e-17)
(16.0727 -4.60954 7.10573e-17)
(12.7243 -0.174211 0)
(13.1372 -0.206418 0)
(13.2134 -0.0924655 0)
(13.3041 -0.0396611 0)
(13.1415 0.187005 0)
(13.6557 -0.182817 0)
(13.8471 -0.431069 0)
(14.0261 -0.561914 0)
(13.0178 0.648095 0)
(13.045 0.83613 0)
(13.3646 0.645794 0)
(13.7748 0.173841 0)
(9.84371 -2.54175 0)
(10.051 -1.79617 0)
(8.32673 -0.93359 0)
(8.1101 0.361602 0)
(13.2747 0.092918 0)
(13.2753 0.153994 0)
(13.2588 0.213828 0)
(13.2147 0.251486 0)
(13.1964 0.242572 0)
(13.1118 0.292536 0)
(13.0694 0.282461 0)
(12.9425 0.313252 0)
(12.7742 0.291263 0)
(12.608 0.306796 0)
(12.3489 0.312178 0)
(12.2492 0.301727 0)
(12.0293 0.33398 0)
(12.0557 0.278619 0)
(11.8598 0.292765 0)
(11.8988 0.234304 0)
(11.7439 0.261367 0)
(11.7345 0.253595 0)
(11.67 0.305303 0)
(11.5615 0.315415 0)
(11.5224 0.341894 0)
(11.2039 0.349141 0)
(11.0611 0.348147 0)
(10.6862 0.353415 0)
(10.6006 0.324178 0)
(10.4717 0.276 0)
(10.4363 0.216163 0)
(10.4878 0.129168 0)
(10.4007 0.133371 0)
(10.4947 0.0693804 0)
(10.4182 0.140594 0)
(10.3929 0.0987993 0)
(10.3909 0.157501 0)
(10.1161 0.154713 0)
(10.2338 0.164489 0)
(9.82865 0.201998 0)
(10.0597 0.138311 0)
(9.77981 0.199563 0)
(9.96871 0.129931 0)
(9.91883 0.211229 0)
(14.013 -0.472345 0)
(14.0317 -0.318083 0)
(13.9861 -0.245149 0)
(13.9683 -0.102386 0)
(13.9478 -0.136023 0)
(13.9546 0.0325144 0)
(13.88 -0.0552553 0)
(13.8324 0.0556675 0)
(13.6512 2.80721e-05 0)
(13.5822 0.0471949 0)
(13.3184 0.0564005 0)
(13.2773 -0.0194947 0)
(13.057 0.045879 0)
(13.0624 -0.151682 0)
(12.9217 -0.0772568 0)
(12.9552 -0.223744 0)
(12.9075 -0.139947 0)
(12.9311 -0.099829 0)
(12.9293 -0.0463085 0)
(12.8734 0.101085 0)
(12.831 0.0306924 0)
(12.6589 0.169893 0)
(12.4857 0.0154485 0)
(12.2971 0.0802128 0)
(12.1208 -0.058452 0)
(12.0732 -0.0752756 0)
(12 -0.119983 0)
(12.0617 -0.191787 0)
(12.0829 -0.109784 0)
(12.1259 -0.152197 0)
(12.2094 0.0268255 0)
(12.1234 -0.00611026 0)
(12.2327 0.125725 0)
(12.0198 0.0595173 0)
(12.1211 0.0506321 0)
(11.8639 0.00851846 0)
(11.9696 -0.117962 0)
(11.8276 -0.0990898 0)
(11.9306 -0.245786 0)
(11.9895 -0.152751 0)
(13.9646 0.00779558 0)
(14.1955 -0.000252172 0)
(13.9648 -0.00310849 0)
(14.001 0.0557262 0)
(13.9057 0.12982 0)
(13.9635 0.329633 0)
(13.8593 0.218837 0)
(13.8009 0.44002 0)
(13.9255 0.459099 0)
(13.6064 0.545943 0)
(13.8179 0.680319 0)
(13.3064 0.504021 0)
(13.6179 0.668354 0)
(13.1062 0.258617 0)
(13.4387 0.370578 0)
(13.1294 0.0366752 0)
(13.2917 0.0950026 0)
(13.3463 0.16646 0)
(13.2911 0.121035 0)
(13.5816 0.478777 0)
(13.3761 0.331519 0)
(13.6064 0.723873 0)
(13.2961 0.624438 0)
(13.2588 0.74212 0)
(13.1865 0.682297 0)
(12.9202 0.35238 0)
(13.2156 0.354975 0)
(12.6613 -0.173006 0)
(13.1815 0.0566617 0)
(12.536 -0.248995 0)
(13.0901 0.0607076 0)
(12.5853 0.0706991 0)
(12.9227 0.190992 0)
(12.6962 0.390208 0)
(12.6783 0.224179 0)
(12.7687 0.410975 0)
(12.4835 0.0851742 0)
(12.6548 0.195531 0)
(12.4428 -0.0192159 0)
(12.6176 0.0645182 0)
(8.82126 0.410378 0)
(9.28379 0.310702 0)
(9.57071 -0.331767 0)
(8.0368 0.00313482 0)
(9.85793 0.0360443 0)
(8.98815 -0.242343 0)
(8.66431 -0.0454726 0)
(9.63379 0.0888484 0)
(9.14996 0.0948963 0)
(9.86159 0.16048 0)
(9.54255 0.235437 0)
(9.55984 0.285528 0)
(9.7455 0.315067 0)
(8.95275 0.226565 0)
(9.77095 0.220934 0)
(8.63271 0.0116356 0)
(9.74396 0.0286731 0)
(9.20714 -0.151195 0)
(9.76107 -0.0997705 0)
(10.2232 -0.0955246 0)
(10.1214 -0.0181995 0)
(11.2987 0.0992043 0)
(10.7257 0.0630149 0)
(11.5482 0.195844 0)
(10.993 0.131911 0)
(10.8629 0.200103 0)
(10.5043 0.160823 0)
(9.48126 0.127931 0)
(9.76928 0.184421 0)
(8.44303 0.0130252 0)
(9.19173 0.168172 0)
(8.35351 0.0104202 0)
(8.82403 0.208656 0)
(8.75908 0.138515 0)
(8.36187 0.143472 0)
(8.99067 0.311379 0)
(8.0255 -0.0189806 0)
(8.92052 0.21433 0)
(8.21787 -0.143694 0)
(9.00175 -0.20431 0)
(12.7774 0.444096 -9.88208e-18)
(7.48977 -0.735682 -1.68935e-17)
(12.0864 -0.239151 2.9386e-17)
(4.595 -4.66536 -8.04825e-17)
(11.7493 -0.575524 1.00335e-17)
(8.40311 0.790583 1.72785e-17)
(10.9599 -0.0548372 -2.99624e-17)
(5.18585 4.57429 8.17413e-17)
(-5.53172 1.71451 0)
(5.89374 4.18334 0)
(-10.4856 -0.765002 0)
(4.4992 -2.83675 0)
(-0.123254 -2.38359 3.45452e-17)
(-3.40611 3.50744 0)
(7.40594 -1.92424 0)
(-1.73905 -3.00727 0)
(-0.582894 -0.242364 0)
(0.148164 1.52745 0)
(-1.73437 -2.30745 0)
(1.76668 0.0640973 0)
(-0.44516 1.84061 0)
(-1.17486 -1.34005 0)
(-0.221795 0.180998 0)
(1.3213 0.614005 0)
(0.318307 0.447218 0)
(0.706008 0.792621 0)
(0.691247 0.508467 0)
(0.779026 0.399164 0)
(1.384 0.530713 0)
(1.51054 0.304596 0)
(1.4721 0.121543 0)
(2.04158 -0.103626 0)
(2.42676 -0.246884 0)
(2.4639 -0.233788 0)
(2.82266 -0.444608 0)
(3.13863 -0.301291 0)
(3.26455 -0.160784 0)
(3.78711 0.287354 0)
(3.34379 0.301097 0)
(3.39686 0.598782 0)
(3.69863 1.00941 0)
(2.86649 0.805796 0)
(3.29775 0.917541 0)
(3.03996 0.743868 0)
(3.03516 0.519372 0)
(3.33206 0.374151 0)
(3.16374 0.259529 0)
(3.67985 0.203763 0)
(3.92963 0.310238 0)
(3.74641 0.288683 0)
(4.61796 0.294091 0)
(4.45417 0.361877 0)
(4.69283 -0.045 0)
(5.39596 0.062962 0)
(5.07713 -0.565304 0)
(5.93952 -0.688543 0)
(-2.58786 2.85971 0)
(1.59226 -0.528723 0)
(0.333119 -0.647054 0)
(-2.56738 -0.0897457 0)
(-0.0170081 0.591136 0)
(1.26628 -0.619667 0)
(-1.0979 -1.21876 0)
(0.838956 -0.440693 0)
(-0.696259 0.0292889 0)
(1.19136 -0.275896 0)
(1.23988 -0.211908 0)
(1.41034 -0.198664 0)
(1.74078 -0.165071 0)
(2.10995 -0.114533 0)
(2.1335 -0.182986 0)
(2.66648 -0.54192 0)
(2.45702 -0.637206 0)
(2.72755 -0.653193 0)
(2.76444 -0.707074 0)
(2.53584 -0.477628 0)
(2.69189 -0.304166 0)
(2.92227 -0.0868451 0)
(2.98632 0.283046 0)
(2.68273 0.486221 0)
(3.68296 0.544196 0)
(3.34995 0.545815 0)
(3.76748 0.489347 0)
(4.28588 0.210434 0)
(4.36392 0.0254358 0)
(4.74064 -0.201887 0)
(4.88885 -0.251922 0)
(5.31341 -0.456745 0)
(5.21054 -0.340464 0)
(5.96993 -0.319904 0)
(5.80277 -0.350324 0)
(6.35725 -0.245398 0)
(6.67196 -0.503524 0)
(6.47857 -0.405741 0)
(7.03298 -0.952785 0)
(6.43866 -0.974916 0)
(12.6271 -1.54199 0)
(7.65211 2.53394 0)
(13.5127 -0.795464 0)
(9.65782 6.3856 0)
(11.0442 -1.4256 0)
(8.88116 2.93309 0)
(11.2618 0.0259337 0)
(10.536 4.0572 0)
(10.1475 -0.548468 0)
(9.72178 1.32053 0)
(10.2709 0.336968 0)
(10.7907 1.16687 0)
(9.99878 -0.104428 0)
(9.88001 0.210441 0)
(10.1907 0.139451 0)
(10.7611 0.19974 0)
(13.7028 5.25644 3.48658e-17)
(15.0093 4.37848 -6.37164e-17)
(12.84 2.04229 0)
(12.844 0.60475 0)
(11.6199 0.52318 0)
(12.4872 -0.0463386 0)
(11.4716 0.2625 0)
(12.2078 0.156135 0)
(11.8694 2.83477 0)
(10.6221 1.86774 0)
(8.89052 0.370605 0)
(12.0766 0.520864 0)
(12.4418 -0.705628 0)
(12.6066 -0.599093 0)
(13.0402 -0.388286 0)
(13.4633 -0.666626 0)
(13.0048 0.0356604 0)
(13.5569 0.300619 0)
(13.7387 0.553591 0)
(14.0164 0.516759 0)
(12.7552 0.245904 0)
(13.1467 0.110819 0)
(13.3008 0.132989 0)
(13.4517 -0.0647365 0)
(9.68863 0.573177 0)
(10.2698 0.334396 0)
(10.0542 0.359684 0)
(10.3854 0.388482 0)
(9.83633 0.158016 0)
(9.72002 -0.00523953 0)
(10.374 0.000658692 0)
(9.64594 -0.036804 0)
(10.0999 0.00316372 0)
(9.20184 -0.00614891 0)
(10.0025 -0.0775778 0)
(9.70234 -0.028305 0)
(9.95443 -0.0785327 0)
(10.2871 -0.0583821 0)
(10.0055 -0.172935 0)
(10.7988 -0.215435 0)
(10.1689 -0.240728 0)
(10.5538 -0.243367 0)
(9.90653 -0.196967 0)
(9.64444 -0.183747 0)
(9.524 -0.110892 0)
(8.73053 -0.0524231 0)
(9.26853 0.0670149 0)
(8.49142 0.303168 0)
(9.10743 0.315471 0)
(9.36746 0.347641 0)
(9.4246 0.292558 0)
(10.5103 0.128391 0)
(10.1824 0.0389623 0)
(11.4433 -0.15274 0)
(11.0531 -0.204444 0)
(11.9424 -0.293072 0)
(11.9235 -0.262434 0)
(12.139 -0.209691 0)
(12.6824 -0.180329 0)
(12.3024 -0.144875 0)
(13.317 -0.126425 0)
(12.5968 -0.186181 0)
(13.696 -0.0268335 0)
(12.894 0.0372532 0)
(13.6539 -0.430521 0)
(13.4894 -0.381851 0)
(13.636 -0.315794 0)
(13.3075 -0.292098 0)
(13.5935 -0.419136 0)
(13.2716 -0.265148 0)
(13.5054 -0.518894 0)
(13.2424 -0.35242 0)
(13.3815 -0.501341 0)
(13.2411 -0.343935 0)
(13.2532 -0.376546 0)
(13.3367 -0.481525 0)
(13.2531 -0.422068 0)
(13.3201 -0.689523 0)
(13.1585 -0.568153 0)
(13.1492 -0.816901 0)
(13.0012 -0.680501 0)
(12.8273 -0.604999 0)
(12.8964 -0.515068 0)
(12.5936 -0.129544 0)
(12.8209 -0.192487 0)
(12.4421 0.289958 0)
(12.789 0.0889968 0)
(12.6449 0.332668 0)
(12.8563 0.153928 0)
(12.9919 -0.0488725 0)
(13.0649 -0.124426 0)
(13.3547 -0.592973 0)
(13.1989 -0.506952 0)
(13.372 -0.970611 0)
(12.9996 -0.777417 0)
(13.0162 -1.00868 0)
(12.6439 -0.811747 0)
(12.5127 -0.802089 0)
(12.2557 -0.723538 0)
(11.9741 -0.648854 0)
(11.738 -0.809972 0)
(11.3934 -0.686377 0)
(11.1211 -0.997835 0)
(10.9256 -0.444772 0)
(13.9274 0.484645 0)
(14.0068 0.40092 0)
(13.8121 0.314594 0)
(13.8538 0.348276 0)
(13.7135 0.229452 0)
(13.7555 0.28569 0)
(13.6423 0.157666 0)
(13.6385 0.233147 0)
(13.5654 0.15021 0)
(13.5258 0.164598 0)
(13.4627 0.164495 0)
(13.4035 0.0782929 0)
(13.3154 0.131649 0)
(13.1851 -0.0272087 0)
(13.041 0.0970487 0)
(12.9097 -0.0339072 0)
(12.7483 0.106918 0)
(12.5893 0.124347 0)
(12.4391 0.176065 0)
(12.3652 0.280802 0)
(12.4275 0.17336 0)
(12.5027 0.372356 0)
(12.7007 0.250119 0)
(12.745 0.366006 0)
(12.9323 0.1878 0)
(12.9149 0.122521 0)
(13.0473 -0.0154692 0)
(12.8903 -0.147329 0)
(12.8272 -0.119827 0)
(12.5643 -0.202185 0)
(12.347 -0.0320607 0)
(12.1557 -0.0324611 0)
(11.8971 0.114096 0)
(11.8564 0.158938 0)
(11.5945 0.18045 0)
(11.6589 0.206084 0)
(11.42 0.199761 0)
(11.442 0.178224 0)
(11.2283 0.191383 0)
(11.0128 0.197253 0)
(13.3838 -0.131782 0)
(13.4688 -0.26262 0)
(13.3133 -0.327412 0)
(13.3697 -0.327294 0)
(13.1803 -0.406053 0)
(13.2331 -0.345514 0)
(13.0444 -0.43941 0)
(13.0448 -0.354701 0)
(12.8732 -0.438028 0)
(12.817 -0.391942 0)
(12.6901 -0.43406 0)
(12.5636 -0.435448 0)
(12.4431 -0.435676 0)
(12.2049 -0.47752 0)
(12.0541 -0.445585 0)
(11.7967 -0.496434 0)
(11.6545 -0.470464 0)
(11.4684 -0.45777 0)
(11.3056 -0.401066 0)
(11.2374 -0.299867 0)
(11.1909 -0.291288 0)
(11.3613 -0.180517 0)
(11.4211 -0.203182 0)
(11.5237 -0.132158 0)
(11.5546 -0.182073 0)
(11.4861 -0.20985 0)
(11.5795 -0.258431 0)
(11.2984 -0.332117 0)
(11.3116 -0.31544 0)
(10.7906 -0.418877 0)
(10.7133 -0.383257 0)
(10.2782 -0.481077 0)
(10.1853 -0.413156 0)
(9.99315 -0.455232 0)
(9.82804 -0.399487 0)
(9.79858 -0.409139 0)
(9.55708 -0.427087 0)
(9.55562 -0.372422 0)
(9.32491 -0.415393 0)
(9.27312 -0.23702 0)
)
;

boundaryField
{
    inlet
    {
        type            fixedValue;
        value           uniform (10 0 0);
    }
    outlet
    {
        type            zeroGradient;
    }
    obstacle
    {
        type            noSlip;
    }
    upperWall
    {
        type            noSlip;
    }
    lowerWall
    {
        type            noSlip;
    }
    frontAndBack
    {
        type            empty;
    }
}


// ************************************************************************* //
