/*--------------------------------*- C++ -*----------------------------------*\
  =========                 |
  \\      /  F ield         | OpenFOAM: The Open Source CFD Toolbox
   \\    /   O peration     | Website:  https://openfoam.org
    \\  /    A nd           | Version:  10
     \\/     M anipulation  |
\*---------------------------------------------------------------------------*/
FoamFile
{
    format      ascii;
    class       volVectorField;
    location    "9.125";
    object      U;
}
// * * * * * * * * * * * * * * * * * * * * * * * * * * * * * * * * * * * * * //

dimensions      [0 1 -1 0 0 0 0];

internalField   nonuniform List<vector> 
400
(
(-0.000166878 0.00014477 0)
(-0.00125215 0.000462093 0)
(-0.00309024 0.000577645 0)
(-0.0049825 0.00061749 0)
(-0.00695203 0.000641119 0)
(-0.00896165 0.000667567 0)
(-0.0110006 0.000696066 0)
(-0.0130476 0.000718316 0)
(-0.0150546 0.000722093 0)
(-0.0169397 0.000690986 0)
(-0.0185794 0.000604601 0)
(-0.019801 0.00044082 0)
(-0.0203859 0.000181502 0)
(-0.0200804 -0.000192948 0)
(-0.0186442 -0.000660922 0)
(-0.015937 -0.00115878 0)
(-0.0120598 -0.00155841 0)
(-0.00751919 -0.00168435 0)
(-0.0027915 -0.00136054 0)
(-0.000203726 -0.000391776 0)
(-0.000546651 0.00127956 0)
(-0.00284319 0.00266775 0)
(-0.00636611 0.00319276 0)
(-0.00999515 0.00337864 0)
(-0.0137331 0.00345693 0)
(-0.0174909 0.00350318 0)
(-0.0212187 0.00351706 0)
(-0.0248543 0.00346664 0)
(-0.0282972 0.00330319 0)
(-0.0313978 0.00296378 0)
(-0.0339469 0.00237491 0)
(-0.0356697 0.00145986 0)
(-0.0362481 0.000153732 0)
(-0.0353172 -0.00155548 0)
(-0.0325355 -0.00356774 0)
(-0.0277293 -0.00561887 0)
(-0.0210808 -0.00722096 0)
(-0.0133641 -0.00770442 0)
(-0.00537197 -0.00640466 0)
(-0.00068874 -0.00255841 0)
(-0.000719193 0.00333598 0)
(-0.00359401 0.0062929 0)
(-0.00791654 0.00740869 0)
(-0.0123385 0.00779094 0)
(-0.0168643 0.00791267 0)
(-0.0213855 0.00792822 0)
(-0.0258418 0.00784149 0)
(-0.0301623 0.00759247 0)
(-0.0342369 0.00708692 0)
(-0.0379038 0.00620338 0)
(-0.0409369 0.00480067 0)
(-0.0430393 0.0027346 0)
(-0.0438351 -0.000110822 0)
(-0.0428727 -0.00374336 0)
(-0.0396989 -0.00798763 0)
(-0.0339996 -0.0123182 0)
(-0.0258734 -0.0157393 0)
(-0.0162403 -0.016788 0)
(-0.00623216 -0.0140109 0)
(-0.000647404 -0.00595537 0)
(-0.00077696 0.00554714 0)
(-0.00389498 0.0101932 0)
(-0.00857253 0.0119178 0)
(-0.0133405 0.0124849 0)
(-0.0182189 0.0126386 0)
(-0.0231024 0.0126193 0)
(-0.0279429 0.012438 0)
(-0.0326865 0.0120097 0)
(-0.0372441 0.0111972 0)
(-0.0414747 0.009819 0)
(-0.0451638 0.00765575 0)
(-0.0480037 0.00447252 0)
(-0.0495692 7.14211e-05 0)
(-0.0492966 -0.00562223 0)
(-0.0465007 -0.0124281 0)
(-0.0405221 -0.0195871 0)
(-0.0311104 -0.0254744 0)
(-0.0192107 -0.0274205 0)
(-0.00657985 -0.0226225 0)
(-0.000237151 -0.0092027 0)
(-0.000778608 0.00785338 0)
(-0.00397298 0.0142828 0)
(-0.00879363 0.0166477 0)
(-0.0137123 0.0174147 0)
(-0.018768 0.0176225 0)
(-0.0238715 0.0176074 0)
(-0.0290033 0.0173939 0)
(-0.0341465 0.0168778 0)
(-0.0392566 0.0158823 0)
(-0.0442421 0.0141637 0)
(-0.0489313 0.0114091 0)
(-0.0530265 0.00725062 0)
(-0.0560522 0.00132608 0)
(-0.0573142 -0.00661063 0)
(-0.0558008 -0.0165188 0)
(-0.0502498 -0.0275214 0)
(-0.0395908 -0.0372433 0)
(-0.0242974 -0.0410372 0)
(-0.00709579 -0.0332785 0)
(0.000538436 -0.012328 0)
(-0.000754441 0.0101619 0)
(-0.00394536 0.0184326 0)
(-0.00880973 0.0214698 0)
(-0.0137924 0.0224642 0)
(-0.0189498 0.0227687 0)
(-0.024217 0.0228289 0)
(-0.0296147 0.0226941 0)
(-0.0351792 0.022252 0)
(-0.0409348 0.0212957 0)
(-0.0468737 0.0195225 0)
(-0.0529151 0.0165156 0)
(-0.058834 0.0117351 0)
(-0.0641744 0.00455134 0)
(-0.0681852 -0.00564098 0)
(-0.0695197 -0.0191584 0)
(-0.0659845 -0.0354503 0)
(-0.0547407 -0.0515674 0)
(-0.0344958 -0.0596601 0)
(-0.00913028 -0.0476198 0)
(0.00166898 -0.0152883 0)
(-0.000715801 0.012424 0)
(-0.00386009 0.0225723 0)
(-0.00871304 0.0263131 0)
(-0.0137059 0.0275667 0)
(-0.01891 0.028019 0)
(-0.0242877 0.0282411 0)
(-0.0299069 0.0283237 0)
(-0.0358724 0.0281655 0)
(-0.0423023 0.0275509 0)
(-0.0493158 0.0261373 0)
(-0.0569973 0.0234154 0)
(-0.0653252 0.0186642 0)
(-0.0740669 0.0109268 0)
(-0.082619 -0.000938824 0)
(-0.0895226 -0.0180953 0)
(-0.0912125 -0.0414978 0)
(-0.0812036 -0.06856 0)
(-0.0545929 -0.0864185 0)
(-0.0169046 -0.069302 0)
(0.00246302 -0.0194449 0)
(-0.000665639 0.0146114 0)
(-0.0037325 0.0266612 0)
(-0.00853114 0.0311316 0)
(-0.0134804 0.0326695 0)
(-0.018662 0.0333136 0)
(-0.0240636 0.0337801 0)
(-0.0298019 0.0342223 0)
(-0.0360579 0.0345782 0)
(-0.0430665 0.0346623 0)
(-0.0511209 0.034145 0)
(-0.0605635 0.0324888 0)
(-0.0717597 0.0288664 0)
(-0.0850361 0.0220664 0)
(-0.100464 0.0102197 0)
(-0.116863 -0.00985864 0)
(-0.12795 -0.0424337 0)
(-0.120947 -0.0876966 0)
(-0.0883046 -0.12402 0)
(-0.0391904 -0.104478 0)
(0.000105572 -0.0298789 0)
(-0.000605884 0.0167003 0)
(-0.00357114 0.030665 0)
(-0.0082756 0.035878 0)
(-0.013117 0.0377053 0)
(-0.0181807 0.0385602 0)
(-0.0234727 0.0393264 0)
(-0.0291515 0.0402448 0)
(-0.0354695 0.0413281 0)
(-0.0427799 0.0424764 0)
(-0.0515767 0.0434643 0)
(-0.0625465 0.0438768 0)
(-0.0766406 0.0430217 0)
(-0.0952015 0.0397067 0)
(-0.119548 0.0310906 0)
(-0.147707 0.009917 0)
(-0.168763 -0.0356825 0)
(-0.164737 -0.108212 0)
(-0.132145 -0.169714 0)
(-0.0813547 -0.15698 0)
(-0.0107631 -0.0568606 0)
(-0.00054183 0.018674 0)
(-0.00339388 0.0345557 0)
(-0.00797154 0.040501 0)
(-0.0126324 0.042589 0)
(-0.0174585 0.0436299 0)
(-0.0224611 0.0446979 0)
(-0.0278234 0.0461466 0)
(-0.033846 0.0481012 0)
(-0.0409701 0.0506141 0)
(-0.0498553 0.0536849 0)
(-0.0614953 0.05724 0)
(-0.0773822 0.061029 0)
(-0.0997818 0.0639867 0)
(-0.130912 0.0613587 0)
(-0.16726 0.0387939 0)
(-0.192621 -0.0242012 0)
(-0.190782 -0.126916 0)
(-0.167716 -0.21361 0)
(-0.12481 -0.223861 0)
(-0.0316759 -0.115992 0)
(-0.000485006 0.0205314 0)
(-0.00323792 0.0383182 0)
(-0.00767585 0.0449448 0)
(-0.0120855 0.047213 0)
(-0.0165413 0.0483522 0)
(-0.0210425 0.0496447 0)
(-0.0257692 0.0515706 0)
(-0.0310237 0.0543917 0)
(-0.0372564 0.0583641 0)
(-0.0451634 0.063817 0)
(-0.0558393 0.0711964 0)
(-0.0708961 0.0808214 0)
(-0.0924565 0.0912294 0)
(-0.122364 0.0941646 0)
(-0.155395 0.0680783 0)
(-0.176157 -0.0104638 0)
(-0.176182 -0.134804 0)
(-0.163986 -0.246209 0)
(-0.136591 -0.297335 0)
(-0.0487524 -0.216275 0)
(-0.000459448 0.0223116 0)
(-0.00317798 0.0419973 0)
(-0.00750065 0.0492205 0)
(-0.011599 0.0515322 0)
(-0.015554 0.0526018 0)
(-0.0193384 0.0539351 0)
(-0.0231013 0.0561387 0)
(-0.0270853 0.059602 0)
(-0.0316363 0.0647776 0)
(-0.0372656 0.0723075 0)
(-0.0447376 0.0830785 0)
(-0.0550278 0.0976746 0)
(-0.0689701 0.11362 0)
(-0.0875465 0.119109 0)
(-0.106479 0.089243 0)
(-0.117881 0.000872039 0)
(-0.120699 -0.131009 0)
(-0.118852 -0.258378 0)
(-0.115753 -0.347776 0)
(-0.0458903 -0.31685 0)
(-0.000496278 0.0240671 0)
(-0.00330082 0.0455483 0)
(-0.00759061 0.0531269 0)
(-0.011364 0.0552364 0)
(-0.0147274 0.0560165 0)
(-0.0176146 0.0571537 0)
(-0.0201364 0.0593238 0)
(-0.0224351 0.06299 0)
(-0.0246641 0.0686995 0)
(-0.0269978 0.0772132 0)
(-0.0296226 0.0895147 0)
(-0.0325753 0.106003 0)
(-0.0355475 0.123648 0)
(-0.0390044 0.129094 0)
(-0.0426079 0.0984285 0)
(-0.0444752 0.0075823 0)
(-0.0517104 -0.119041 0)
(-0.0610813 -0.247392 0)
(-0.083927 -0.364067 0)
(-0.0317281 -0.385174 0)
(-0.000704727 0.0261306 0)
(-0.00390835 0.0496207 0)
(-0.00829292 0.057475 0)
(-0.0116498 0.0591605 0)
(-0.0142816 0.059251 0)
(-0.0161445 0.0596998 0)
(-0.0172926 0.0612675 0)
(-0.0177449 0.0644387 0)
(-0.0174647 0.0697384 0)
(-0.016288 0.0778344 0)
(-0.0139187 0.0895321 0)
(-0.00954011 0.104853 0)
(-0.00251754 0.121042 0)
(0.00767984 0.125697 0)
(0.0156292 0.0973256 0)
(0.0209191 0.0128448 0)
(0.00653214 -0.102873 0)
(-0.0132482 -0.222593 0)
(-0.0581456 -0.362477 0)
(-0.0202634 -0.434291 0)
(-0.00104622 0.0286863 0)
(-0.0046827 0.0528779 0)
(-0.00951089 0.059951 0)
(-0.0127343 0.0604521 0)
(-0.0148454 0.0597331 0)
(-0.0156986 0.0595809 0)
(-0.0154182 0.0605742 0)
(-0.0139937 0.0630318 0)
(-0.0112871 0.0673387 0)
(-0.00691279 0.0739416 0)
(-0.000381609 0.0833409 0)
(0.00958331 0.0952808 0)
(0.0234822 0.107405 0)
(0.0420415 0.110288 0)
(0.0567965 0.0866119 0)
(0.0671139 0.0171275 0)
(0.0476824 -0.0814141 0)
(0.0249757 -0.185995 0)
(-0.0390107 -0.345346 0)
(-0.00943691 -0.467574 0)
(-0.00313114 0.030731 0)
(-0.00913195 0.059731 0)
(-0.0132505 0.066662 0)
(-0.0153621 0.0665053 0)
(-0.0160103 0.0639499 0)
(-0.0155368 0.0618443 0)
(-0.0139264 0.0608829 0)
(-0.0110043 0.0613697 0)
(-0.00648671 0.0635499 0)
(0.000161158 0.0675994 0)
(0.00948391 0.0737631 0)
(0.0226384 0.0815517 0)
(0.0394863 0.0889727 0)
(0.0613247 0.0894863 0)
(0.0782671 0.0720848 0)
(0.0920344 0.0213641 0)
(0.0703879 -0.0547228 0)
(0.048294 -0.142849 0)
(-0.0273932 -0.323741 0)
(0.00240812 -0.490784 0)
(-0.000929613 0.0440423 0)
(-0.00748288 0.0609805 0)
(-0.0166407 0.0636007 0)
(-0.0187018 0.0598376 0)
(-0.0196195 0.0568026 0)
(-0.0183085 0.0548077 0)
(-0.0155075 0.0538391 0)
(-0.0110788 0.0537956 0)
(-0.00486209 0.054772 0)
(0.00369861 0.0567868 0)
(0.0150036 0.0601074 0)
(0.0298872 0.0641711 0)
(0.0475212 0.0677256 0)
(0.070047 0.0666047 0)
(0.0861938 0.0545824 0)
(0.101802 0.0215689 0)
(0.0798027 -0.0323636 0)
(0.0637018 -0.103461 0)
(-0.0100658 -0.301249 0)
(0.02094 -0.500659 0)
(-0.0125711 0.0321906 0)
(-0.0230752 0.0805398 0)
(-0.020723 0.0807478 0)
(-0.0246586 0.0758263 0)
(-0.0241404 0.0684066 0)
(-0.0218018 0.0622933 0)
(-0.0173572 0.0574459 0)
(-0.0109762 0.0537654 0)
(-0.00273245 0.0512607 0)
(0.00783462 0.0497114 0)
(0.0206369 0.0492757 0)
(0.0363968 0.0493307 0)
(0.0533524 0.0501136 0)
(0.0747933 0.0485941 0)
(0.0880198 0.0430794 0)
(0.106105 0.0265897 0)
(0.090266 -0.00629334 0)
(0.0986314 -0.0638522 0)
(0.0393804 -0.273128 0)
(0.0570742 -0.488899 0)
(-0.077677 0.0957936 0)
(-0.0632357 0.0587481 0)
(-0.0651114 0.0600196 0)
(-0.0424196 0.0534072 0)
(-0.0244784 0.0464249 0)
(-0.00369348 0.0412544 0)
(0.0159302 0.0374907 0)
(0.0359589 0.0343071 0)
(0.0545661 0.0320103 0)
(0.0748464 0.0299515 0)
(0.0925219 0.0288061 0)
(0.115084 0.0276799 0)
(0.130865 0.0269505 0)
(0.159489 0.0256761 0)
(0.169001 0.0201919 0)
(0.202609 0.0112546 0)
(0.190196 -0.0215085 0)
(0.221958 -0.0737303 0)
(0.153812 -0.251607 0)
(0.12473 -0.432959 0)
(0.119353 0.140731 0)
(0.151895 0.0860165 0)
(0.228311 0.0634547 0)
(0.283788 0.0480141 0)
(0.325244 0.0373996 0)
(0.36358 0.0296537 0)
(0.392342 0.0242487 0)
(0.42358 0.0201872 0)
(0.443582 0.0173073 0)
(0.472173 0.0149974 0)
(0.485086 0.0133045 0)
(0.514433 0.0119462 0)
(0.519979 0.0108278 0)
(0.552106 0.00953014 0)
(0.546976 0.00752017 0)
(0.578807 0.00305137 0)
(0.547026 -0.00582777 0)
(0.552644 -0.0269132 0)
(0.419457 -0.0730319 0)
(0.274935 -0.151692 0)
)
;

boundaryField
{
    movingWall
    {
        type            fixedValue;
        value           uniform (1 0 0);
    }
    fixedWalls
    {
        type            noSlip;
    }
    frontAndBack
    {
        type            empty;
    }
}


// ************************************************************************* //
