/*--------------------------------*- C++ -*----------------------------------*\
  =========                 |
  \\      /  F ield         | OpenFOAM: The Open Source CFD Toolbox
   \\    /   O peration     | Website:  https://openfoam.org
    \\  /    A nd           | Version:  10
     \\/     M anipulation  |
\*---------------------------------------------------------------------------*/
FoamFile
{
    format      ascii;
    class       volVectorField;
    location    "0.25";
    object      U;
}
// * * * * * * * * * * * * * * * * * * * * * * * * * * * * * * * * * * * * * //

dimensions      [0 1 -1 0 0 0 0];

internalField   nonuniform List<vector> 
475
(
(0.927715 0.0113313 0)
(0.998537 -0.0111675 0)
(0.993638 0.043203 0)
(1.10331 -0.155902 0)
(1.00681 0.0378834 0)
(0.954621 0.00453757 0)
(1.00052 0.000445419 0)
(1.08487 -0.0485833 0)
(1.01958 -0.0488797 0)
(1.03561 -0.147932 0)
(0.949806 -0.0027204 0)
(1.0084 -0.0272497 0)
(1.05388 -0.0318605 0)
(1.02004 -0.0801457 0)
(0.99963 -0.0786648 0)
(0.950695 -0.0135689 0)
(1.00734 -0.0296256 0)
(1.04489 -0.0400924 0)
(0.999898 -0.0487629 0)
(0.954303 -0.0634069 0)
(0.935097 -0.0111566 0)
(0.970712 -0.0197438 0)
(0.975624 -0.0202143 0)
(0.911499 -0.0216053 0)
(0.86205 -0.0223279 0)
(1.26163 -0.274834 0)
(1.15559 -0.37915 0)
(0.878371 -0.390032 0)
(0.71344 -0.30099 0)
(0.62258 -0.210318 0)
(0.570364 -0.147565 0)
(0.543372 -0.105582 0)
(0.529787 -0.076368 0)
(0.522428 -0.0554991 0)
(0.518112 -0.0404227 0)
(0.515418 -0.0294741 0)
(0.513657 -0.0215025 0)
(0.512468 -0.0156911 0)
(0.511647 -0.0114515 0)
(0.511071 -0.00835751 0)
(0.510661 -0.00609909 0)
(0.510368 -0.00445059 0)
(0.510159 -0.0032475 0)
(0.510009 -0.00236966 0)
(0.509901 -0.00172914 0)
(0.509822 -0.00126167 0)
(0.509764 -0.000920419 0)
(0.509722 -0.000671321 0)
(0.509692 -0.000489587 0)
(0.50967 -0.000357102 0)
(0.509655 -0.000260568 0)
(0.509643 -0.000190205 0)
(0.509635 -0.000138847 0)
(0.509628 -0.00010131 0)
(0.509623 -7.38735e-05 0)
(0.50962 -5.38463e-05 0)
(0.509618 -3.92471e-05 0)
(0.509616 -2.86166e-05 0)
(0.509615 -2.08937e-05 0)
(0.509614 -1.52658e-05 0)
(0.509613 -1.11529e-05 0)
(0.509613 -8.15093e-06 0)
(0.509612 -5.98504e-06 0)
(0.509612 -4.43525e-06 0)
(0.50961 -3.33335e-06 0)
(0.509615 -2.56865e-06 0)
(0.509605 -2.02799e-06 0)
(0.509623 -1.7195e-06 0)
(0.509609 -1.73878e-06 0)
(0.509612 -1.51171e-06 0)
(0.967243 -0.373116 0)
(0.834633 -0.319559 0)
(0.716803 -0.198047 0)
(0.647753 -0.149952 0)
(0.610737 -0.128901 0)
(0.584565 -0.106459 0)
(0.56422 -0.0833926 0)
(0.549037 -0.0633443 0)
(0.537963 -0.0473285 0)
(0.529992 -0.0350461 0)
(0.524291 -0.0258205 0)
(0.520214 -0.0189653 0)
(0.517288 -0.0139025 0)
(0.515181 -0.010178 0)
(0.513657 -0.00744497 0)
(0.512551 -0.00544256 0)
(0.51175 -0.00397656 0)
(0.511169 -0.00290393 0)
(0.510748 -0.00211987 0)
(0.51044 -0.00154737 0)
(0.510215 -0.00112963 0)
(0.51005 -0.000824699 0)
(0.509931 -0.00060188 0)
(0.509844 -0.000438947 0)
(0.509782 -0.000319899 0)
(0.509737 -0.000233132 0)
(0.509703 -0.000170081 0)
(0.509677 -0.000124319 0)
(0.509659 -9.10104e-05 0)
(0.509645 -6.65977e-05 0)
(0.509636 -4.85815e-05 0)
(0.50963 -3.52672e-05 0)
(0.509625 -2.54865e-05 0)
(0.509622 -1.83845e-05 0)
(0.509619 -1.33216e-05 0)
(0.509616 -9.76692e-06 0)
(0.509614 -7.27454e-06 0)
(0.509613 -5.48504e-06 0)
(0.509613 -4.1563e-06 0)
(0.509611 -3.13912e-06 0)
(0.509615 -2.38787e-06 0)
(0.509605 -1.82902e-06 0)
(0.509623 -1.53167e-06 0)
(0.509609 -1.58319e-06 0)
(0.509611 -1.62175e-06 0)
(0.956525 -0.104856 0)
(0.857974 -0.155321 0)
(0.761769 -0.164203 0)
(0.697459 -0.138832 0)
(0.651675 -0.108623 0)
(0.615029 -0.0833277 0)
(0.586756 -0.0633578 0)
(0.565917 -0.0478349 0)
(0.550695 -0.0358618 0)
(0.539574 -0.0267113 0)
(0.531457 -0.0197909 0)
(0.525539 -0.0146041 0)
(0.521224 -0.0107445 0)
(0.518077 -0.00788814 0)
(0.515781 -0.00578213 0)
(0.514106 -0.00423299 0)
(0.512884 -0.00309559 0)
(0.511994 -0.00226215 0)
(0.511344 -0.00165264 0)
(0.51087 -0.00120735 0)
(0.510524 -0.000881908 0)
(0.510271 -0.000643786 0)
(0.510087 -0.000469497 0)
(0.509953 -0.00034215 0)
(0.509856 -0.000249419 0)
(0.509784 -0.000182089 0)
(0.509732 -0.000133187 0)
(0.509693 -9.75005e-05 0)
(0.509665 -7.12728e-05 0)
(0.509645 -5.19021e-05 0)
(0.509631 -3.76306e-05 0)
(0.50962 -2.72311e-05 0)
(0.509613 -1.97556e-05 0)
(0.509607 -1.44273e-05 0)
(0.509603 -1.06314e-05 0)
(0.509599 -7.88172e-06 0)
(0.509597 -5.83211e-06 0)
(0.509595 -4.27077e-06 0)
(0.509594 -3.08764e-06 0)
(0.509592 -2.25336e-06 0)
(0.509596 -1.70329e-06 0)
(0.509585 -1.41248e-06 0)
(0.509603 -1.29953e-06 0)
(0.509588 -1.51143e-06 0)
(0.509591 -1.5372e-06 0)
(0.916365 -0.0937737 0)
(0.856672 -0.103568 0)
(0.781011 -0.0901498 0)
(0.715141 -0.0729523 0)
(0.665278 -0.0590508 0)
(0.626897 -0.0472509 0)
(0.597069 -0.0369549 0)
(0.574301 -0.0283739 0)
(0.557156 -0.0215041 0)
(0.544345 -0.0161399 0)
(0.534831 -0.0120249 0)
(0.5278 -0.00890978 0)
(0.522622 -0.00657509 0)
(0.518817 -0.00483796 0)
(0.516025 -0.00355199 0)
(0.513981 -0.00260341 0)
(0.512485 -0.00190566 0)
(0.511392 -0.00139366 0)
(0.510594 -0.00101866 0)
(0.51001 -0.000744269 0)
(0.509584 -0.000543523 0)
(0.509272 -0.000396671 0)
(0.509045 -0.000289334 0)
(0.50888 -0.000211017 0)
(0.508759 -0.000153978 0)
(0.508671 -0.000112454 0)
(0.508606 -8.21671e-05 0)
(0.508559 -5.99921e-05 0)
(0.508525 -4.37084e-05 0)
(0.5085 -3.17709e-05 0)
(0.508482 -2.30755e-05 0)
(0.508469 -1.67847e-05 0)
(0.50846 -1.22527e-05 0)
(0.508452 -8.98719e-06 0)
(0.508447 -6.61638e-06 0)
(0.508443 -4.87368e-06 0)
(0.50844 -3.57511e-06 0)
(0.508437 -2.61977e-06 0)
(0.508437 -1.91625e-06 0)
(0.508434 -1.47409e-06 0)
(0.508438 -1.06712e-06 0)
(0.508427 -1.04621e-06 0)
(0.508445 -8.71588e-07 0)
(0.50843 -1.20078e-06 0)
(0.508433 -1.65551e-06 0)
(0.822477 -0.0242993 0)
(0.767974 -0.0279955 0)
(0.70569 -0.0271824 0)
(0.650593 -0.0231092 0)
(0.60701 -0.0187638 0)
(0.572779 -0.0149435 0)
(0.545848 -0.011672 0)
(0.524992 -0.00897386 0)
(0.509087 -0.00681957 0)
(0.497082 -0.00513403 0)
(0.488092 -0.00383556 0)
(0.481402 -0.00284832 0)
(0.476447 -0.00210565 0)
(0.472792 -0.00155148 0)
(0.470102 -0.00114031 0)
(0.468128 -0.000836454 0)
(0.466681 -0.000612593 0)
(0.465623 -0.000448118 0)
(0.464849 -0.000327557 0)
(0.464283 -0.000239312 0)
(0.463869 -0.00017475 0)
(0.463567 -0.000127517 0)
(0.463347 -9.29894e-05 0)
(0.463187 -6.78032e-05 0)
(0.46307 -4.9477e-05 0)
(0.462984 -3.61507e-05 0)
(0.462922 -2.6428e-05 0)
(0.462876 -1.9288e-05 0)
(0.462843 -1.40191e-05 0)
(0.462819 -1.01425e-05 0)
(0.462801 -7.3234e-06 0)
(0.462789 -5.30858e-06 0)
(0.462779 -3.898e-06 0)
(0.462772 -2.9144e-06 0)
(0.462767 -2.19113e-06 0)
(0.462763 -1.63534e-06 0)
(0.46276 -1.20974e-06 0)
(0.462758 -8.9263e-07 0)
(0.462757 -6.36776e-07 0)
(0.462755 -4.754e-07 0)
(0.462758 -2.69756e-07 0)
(0.462749 -3.64937e-07 0)
(0.462764 -2.70835e-07 0)
(0.462752 -5.64359e-07 0)
(0.462752 -1.03342e-06 0)
(0.0173891 -0.0206547 0)
(0.077524 -0.0370908 0)
(0.157418 -0.0355731 0)
(0.226543 -0.0313066 0)
(0.284767 -0.0255674 0)
(0.330967 -0.0198616 0)
(0.366185 -0.0149626 0)
(0.392393 -0.0110694 0)
(0.411626 -0.00810462 0)
(0.42564 -0.00590019 0)
(0.435817 -0.00428363 0)
(0.443195 -0.00310762 0)
(0.448544 -0.00225489 0)
(0.452425 -0.00163646 0)
(0.455242 -0.00118777 0)
(0.457289 -0.000862689 0)
(0.458774 -0.000627461 0)
(0.459855 -0.000456935 0)
(0.460642 -0.000332736 0)
(0.461216 -0.000242005 0)
(0.461634 -0.00017589 0)
(0.461938 -0.000128019 0)
(0.462158 -9.34862e-05 0)
(0.462319 -6.84539e-05 0)
(0.462437 -5.00756e-05 0)
(0.462523 -3.64264e-05 0)
(0.462586 -2.62972e-05 0)
(0.462632 -1.89185e-05 0)
(0.462665 -1.36829e-05 0)
(0.462688 -1.0017e-05 0)
(0.462706 -7.44428e-06 0)
(0.462718 -5.57185e-06 0)
(0.462728 -4.12789e-06 0)
(0.462735 -3.00875e-06 0)
(0.462741 -2.17831e-06 0)
(0.462744 -1.58807e-06 0)
(0.462747 -1.17124e-06 0)
(0.462748 -8.69457e-07 0)
(0.46275 -6.66502e-07 0)
(0.46275 -4.66815e-07 0)
(0.462754 -4.02277e-07 0)
(0.462747 -1.26979e-07 0)
(0.462761 -1.2108e-07 0)
(0.462754 1.91385e-07 0)
(0.462752 5.93323e-07 0)
(0.00979401 -0.05518 0)
(0.0762992 -0.121792 0)
(0.178777 -0.114324 0)
(0.257901 -0.099431 0)
(0.322801 -0.0803049 0)
(0.372608 -0.0618547 0)
(0.4096 -0.0463532 0)
(0.436671 -0.0341971 0)
(0.45635 -0.0250088 0)
(0.470621 -0.0182044 0)
(0.480964 -0.0132237 0)
(0.488462 -0.00960019 0)
(0.493905 -0.00697011 0)
(0.49786 -0.00506171 0)
(0.500736 -0.00367735 0)
(0.502826 -0.00267377 0)
(0.504346 -0.00194597 0)
(0.505453 -0.00141704 0)
(0.506261 -0.0010317 0)
(0.506851 -0.000750873 0)
(0.50728 -0.000546673 0)
(0.507592 -0.000398532 0)
(0.507818 -0.000290957 0)
(0.507984 -0.000212462 0)
(0.508106 -0.000154878 0)
(0.508195 -0.000112596 0)
(0.508261 -8.1734e-05 0)
(0.508308 -5.94393e-05 0)
(0.508341 -4.34499e-05 0)
(0.508365 -3.19365e-05 0)
(0.508383 -2.35297e-05 0)
(0.508396 -1.72646e-05 0)
(0.508406 -1.25157e-05 0)
(0.508414 -8.9505e-06 0)
(0.508419 -6.37102e-06 0)
(0.508423 -4.58447e-06 0)
(0.508426 -3.37821e-06 0)
(0.508427 -2.54916e-06 0)
(0.508429 -1.96734e-06 0)
(0.508429 -1.46745e-06 0)
(0.508434 -1.18445e-06 0)
(0.508425 -6.89711e-07 0)
(0.508443 -5.5617e-07 0)
(0.508431 -2.0758e-07 0)
(0.508433 2.27782e-07 0)
(-0.0136245 -0.130693 0)
(0.0486556 -0.230833 0)
(0.195673 -0.207525 0)
(0.281608 -0.174556 0)
(0.348563 -0.137162 0)
(0.395827 -0.103367 0)
(0.428585 -0.0762808 0)
(0.45149 -0.0557267 0)
(0.467686 -0.0405189 0)
(0.479247 -0.0294055 0)
(0.487558 -0.0213325 0)
(0.493564 -0.0154813 0)
(0.497921 -0.0112412 0)
(0.501089 -0.00816728 0)
(0.503394 -0.00593821 0)
(0.505072 -0.00432098 0)
(0.506293 -0.00314613 0)
(0.507186 -0.00229119 0)
(0.507838 -0.00166853 0)
(0.508313 -0.00121535 0)
(0.508659 -0.000885863 0)
(0.50891 -0.000646217 0)
(0.509093 -0.000471494 0)
(0.509228 -0.000343747 0)
(0.509327 -0.000250305 0)
(0.509399 -0.000182175 0)
(0.509452 -0.000132757 0)
(0.509489 -9.70189e-05 0)
(0.509516 -7.11018e-05 0)
(0.509536 -5.21474e-05 0)
(0.50955 -3.81277e-05 0)
(0.509561 -2.76988e-05 0)
(0.50957 -1.99919e-05 0)
(0.509576 -1.43852e-05 0)
(0.50958 -1.03828e-05 0)
(0.509583 -7.56278e-06 0)
(0.509585 -5.57925e-06 0)
(0.509586 -4.15856e-06 0)
(0.509588 -3.12228e-06 0)
(0.509587 -2.33721e-06 0)
(0.509592 -1.77855e-06 0)
(0.509584 -1.30107e-06 0)
(0.509601 -1.03594e-06 0)
(0.509589 -9.48141e-07 0)
(0.509592 -8.5965e-07 0)
(0.079939 0.00509525 0)
(0.0842585 -0.338504 0)
(0.246053 -0.319327 0)
(0.32992 -0.257154 0)
(0.393547 -0.191778 0)
(0.433273 -0.138965 0)
(0.45739 -0.100024 0)
(0.472832 -0.0719987 0)
(0.483252 -0.051921 0)
(0.490529 -0.0375243 0)
(0.495721 -0.0271747 0)
(0.499474 -0.0197124 0)
(0.502205 -0.014317 0)
(0.5042 -0.0104083 0)
(0.505656 -0.00757313 0)
(0.50672 -0.00551438 0)
(0.507497 -0.0040173 0)
(0.508067 -0.00292708 0)
(0.508485 -0.00213265 0)
(0.50879 -0.00155408 0)
(0.509011 -0.00113311 0)
(0.509173 -0.000826739 0)
(0.50929 -0.000603345 0)
(0.509377 -0.000440035 0)
(0.509441 -0.000320538 0)
(0.509488 -0.000233299 0)
(0.509521 -0.000169923 0)
(0.509546 -0.000124092 0)
(0.509563 -9.09359e-05 0)
(0.509575 -6.67533e-05 0)
(0.509585 -4.88751e-05 0)
(0.509592 -3.5528e-05 0)
(0.509597 -2.55994e-05 0)
(0.509601 -1.83315e-05 0)
(0.509604 -1.31598e-05 0)
(0.509606 -9.57825e-06 0)
(0.509607 -7.12645e-06 0)
(0.509608 -5.41838e-06 0)
(0.509609 -4.19147e-06 0)
(0.509608 -3.2321e-06 0)
(0.509613 -2.4744e-06 0)
(0.509604 -1.80626e-06 0)
(0.509622 -1.37848e-06 0)
(0.509609 -1.18132e-06 0)
(0.509612 -1.12146e-06 0)
(0.397719 -0.426162 0)
(0.17746 -0.517979 0)
(0.380715 -0.485965 0)
(0.432466 -0.358228 0)
(0.470417 -0.243082 0)
(0.488177 -0.164805 0)
(0.495714 -0.114184 0)
(0.499656 -0.0805919 0)
(0.50219 -0.0576006 0)
(0.50401 -0.0414952 0)
(0.505383 -0.0300358 0)
(0.506435 -0.0218032 0)
(0.507239 -0.0158545 0)
(0.507848 -0.0115413 0)
(0.508305 -0.00840728 0)
(0.508645 -0.00612691 0)
(0.508899 -0.00446618 0)
(0.509089 -0.00325615 0)
(0.50923 -0.00237437 0)
(0.509332 -0.00173171 0)
(0.509406 -0.00126318 0)
(0.50946 -0.000921385 0)
(0.5095 -0.000671927 0)
(0.509531 -0.00048988 0)
(0.509553 -0.000357149 0)
(0.50957 -0.000260497 0)
(0.509581 -0.000190158 0)
(0.509589 -0.000138917 0)
(0.509594 -0.000101495 0)
(0.509598 -7.40899e-05 0)
(0.509602 -5.39875e-05 0)
(0.509605 -3.92593e-05 0)
(0.509607 -2.85202e-05 0)
(0.509609 -2.07442e-05 0)
(0.509609 -1.5117e-05 0)
(0.509609 -1.10428e-05 0)
(0.50961 -8.09987e-06 0)
(0.50961 -5.98484e-06 0)
(0.50961 -4.4558e-06 0)
(0.509609 -3.34327e-06 0)
(0.509614 -2.55495e-06 0)
(0.509605 -1.99246e-06 0)
(0.509622 -1.64908e-06 0)
(0.509609 -1.61918e-06 0)
(0.509612 -1.40866e-06 0)
)
;

boundaryField
{
    inlet
    {
        type            fixedValue;
        value           uniform (1 0 0);
    }
    outlet
    {
        type            zeroGradient;
    }
    upperWall
    {
        type            noSlip;
    }
    lowerWall
    {
        type            noSlip;
    }
    frontAndBack
    {
        type            empty;
    }
}


// ************************************************************************* //
