/*--------------------------------*- C++ -*----------------------------------*\
  =========                 |
  \\      /  F ield         | OpenFOAM: The Open Source CFD Toolbox
   \\    /   O peration     | Website:  https://openfoam.org
    \\  /    A nd           | Version:  10
     \\/     M anipulation  |
\*---------------------------------------------------------------------------*/
FoamFile
{
    format      ascii;
    class       volScalarField;
    location    "4.375";
    object      p;
}
// * * * * * * * * * * * * * * * * * * * * * * * * * * * * * * * * * * * * * //

dimensions      [0 2 -2 0 0 0 0];

internalField   nonuniform List<scalar> 
496
(
29.8941
30.259
27.2205
20.7904
30.4027
31.3759
27.666
21.2266
35.3579
33.42
24.8839
14.7081
43.9789
40.6318
36.5006
20.5996
12.157
2.98268
12.3144
3.40792
-0.508611
-5.53316
-31.4192
-55.9916
-4.1981
-8.93424
-11.5773
-13.0357
-4.0408
-9.9694
-14.0223
-15.9171
0.904796
0.547761
-3.7909
-10.7561
-25.8982
-12.5949
-2.1242
-11.2511
-14.0938
-14.9095
-15.8938
-16.6129
-16.1225
-14.6273
-13.0156
-11.5901
-9.99493
-8.50481
-7.04511
-5.74204
-4.2406
-2.70959
-1.37125
-0.491413
-0.310473
-0.208603
0.00139438
0.409946
0.5292
0.173236
-0.516122
-1.16044
-1.26478
-1.13024
-0.973565
-1.01737
-1.20263
-1.26057
-1.00527
-0.147108
0.777063
1.94244
2.92017
3.12258
2.69736
1.84048
0.957745
0.269519
-17.0131
-18.0441
-18.6458
-17.8488
-16.2675
-14.8449
-13.42
-11.9807
-10.3597
-8.7129
-7.09478
-5.74966
-4.28677
-2.66605
-1.1151
-0.28122
-0.107029
0.103834
0.26079
0.420918
0.372456
0.0664954
-0.47385
-0.929825
-1.25153
-1.25307
-1.2105
-1.20572
-1.37419
-1.55586
-1.44448
-0.870576
0.579957
1.90362
2.89115
3.03473
2.55643
1.68646
0.777761
0.197218
-16.8171
-20.0466
-20.1823
-18.1513
-16.5164
-15.2472
-14.085
-12.8112
-11.4476
-9.57226
-7.49557
-5.33503
-3.22256
-1.70571
-0.631743
-0.0865462
0.37349
0.637424
0.661907
0.366388
0.0420328
-0.314639
-0.767213
-1.10615
-1.67983
-2.08477
-2.64991
-2.63911
-2.31662
-1.6755
-0.850299
0.459069
1.69564
3.07192
3.50563
3.01812
1.97676
0.669042
-0.264982
-0.605949
-17.6309
-19.6838
-20.4778
-18.6833
-17.8383
-16.0885
-14.6288
-13.5239
-12.356
-10.2711
-8.19765
-5.47307
-2.55585
0.163309
1.83318
2.1122
2.66181
2.23245
1.73177
0.760995
0.232337
-0.30878
-0.627731
-1.04983
-1.92433
-3.01436
-3.63758
-3.60735
-3.77574
-3.38955
-2.35056
-0.149612
3.07116
6.16729
6.78855
5.71713
3.43593
1.24138
-0.133886
-0.770708
48.8072
49.7164
64.0023
75.9254
48.702
51.0657
64.6364
77.207
-30.4181
-29.625
-17.094
-21.7381
-27.3939
-31.2614
-14.3877
-12.2656
-17.5446
-21.648
-21.6488
-18.6097
-18.0249
-16.6654
-15.8152
-13.4777
-11.2829
-9.53673
-7.17852
-4.71372
-2.85016
-1.1255
0.138097
0.115077
0.179236
0.212374
-0.115463
-0.759089
-1.08711
-1.27035
-1.32946
-1.53797
-1.79614
-1.88516
-2.12043
-2.76696
-2.9701
-2.5396
-1.2388
-0.155585
1.30209
2.66765
3.04863
3.03337
1.53843
0.474068
-0.140801
-0.527908
-24.2311
-20.1421
-21.8327
-18.8036
-18.4623
-17.8981
-14.467
-11.7931
-9.28596
-7.81379
-5.22086
-2.99753
-2.03602
-1.01925
-0.475316
-1.49382
-1.77397
-1.62779
-2.45842
-2.59597
-2.74797
-3.14595
-2.99858
-2.67212
-2.08228
-0.122865
1.90246
2.27503
1.56015
0.88852
0.464836
-0.326149
-1.02341
-1.32465
-1.53341
-1.96534
-1.36082
-0.898185
-0.343951
0.107041
44.7835
42.158
38.7454
23.4735
37.7383
35.1948
27.0985
16.5243
32.6588
32.5131
27.9249
21.4774
31.5514
31.2213
27.6043
21.4305
-26.4046
-52.5824
1.34783
-3.57515
12.5853
3.71281
12.9728
3.89294
-22.1385
-3.13584
-7.18587
-13.3768
1.77444
0.0060956
-7.18817
-13.1643
-4.34301
-9.9272
-13.2455
-15.3583
-3.27505
-8.25683
-11.2608
-13.1762
-16.0796
-18.3818
-19.9362
-19.5166
-18.1909
-16.7352
-14.4119
-11.5163
-8.43604
-5.86993
-3.83864
-2.65835
-1.8594
-1.56169
-0.952744
-1.56932
-2.59193
-2.71561
-2.96382
-3.08595
-3.65564
-3.73202
-4.0598
-3.82181
-1.84085
2.56201
6.52312
7.75864
6.21659
3.51988
1.36715
-0.79569
-2.50547
-4.06799
-4.10252
-3.42795
-2.32423
-0.692444
1.01865
1.38467
-16.9168
-18.9794
-19.492
-18.7078
-17.0503
-15.2242
-13.1009
-10.8949
-8.69579
-6.52314
-4.70805
-3.78377
-3.381
-3.08309
-2.67217
-2.29029
-2.46588
-2.45089
-2.69849
-2.72347
-2.65615
-2.27093
-1.98793
-1.66644
-0.522446
1.00787
2.90017
3.49714
3.19034
1.85511
0.361436
-0.998132
-2.07691
-2.3829
-2.66967
-2.05063
-1.15669
-0.519884
-0.193159
-0.164694
-17.048
-18.0544
-17.9436
-17.0974
-15.8622
-14.2739
-12.4283
-10.5492
-8.78245
-7.01799
-5.31167
-3.99475
-3.44552
-3.37284
-3.15323
-2.47324
-2.01026
-1.96612
-2.28859
-2.46886
-2.29061
-1.9984
-1.63957
-1.20897
-0.0342718
1.34278
2.72488
3.45269
3.26779
2.35859
1.15613
0.0269987
-0.960071
-1.50828
-1.82516
-1.74058
-1.36592
-0.918389
-0.426585
0.0690246
-14.5086
-15.51
-15.9983
-16.0737
-15.3941
-14.0166
-12.2833
-10.4386
-8.84933
-7.3111
-5.74888
-4.26193
-3.61861
-3.65548
-3.44761
-2.57499
-1.83832
-1.85849
-2.22008
-2.50774
-2.24552
-1.80946
-1.3154
-0.839438
-0.123349
1.12719
2.38737
3.11242
2.96944
2.24555
1.23025
0.228376
-0.603366
-1.12295
-1.31533
-1.30203
-1.09226
-0.761635
-0.433392
-0.139878
)
;

boundaryField
{
    inlet
    {
        type            zeroGradient;
    }
    outlet
    {
        type            fixedValue;
        value           uniform 0;
    }
    obstacle
    {
        type            zeroGradient;
    }
    upperWall
    {
        type            zeroGradient;
    }
    lowerWall
    {
        type            zeroGradient;
    }
    frontAndBack
    {
        type            empty;
    }
}


// ************************************************************************* //
