/*--------------------------------*- C++ -*----------------------------------*\
  =========                 |
  \\      /  F ield         | OpenFOAM: The Open Source CFD Toolbox
   \\    /   O peration     | Website:  https://openfoam.org
    \\  /    A nd           | Version:  10
     \\/     M anipulation  |
\*---------------------------------------------------------------------------*/
FoamFile
{
    format      ascii;
    class       volScalarField;
    location    "0.85";
    object      p;
}
// * * * * * * * * * * * * * * * * * * * * * * * * * * * * * * * * * * * * * //

dimensions      [0 2 -2 0 0 0 0];

internalField   nonuniform List<scalar> 
496
(
25.6913
25.7032
22.2257
16.1058
26.6466
26.8486
22.4752
16.167
31.5776
29.1262
21.0614
10.7459
38.6586
35.9212
32.8106
18.0543
7.4191
-2.18037
7.14482
-2.07048
-4.2159
-9.62909
-30.2947
-55.7761
-9.79553
-15.0793
-18.222
-19.9069
-10.3449
-16.614
-20.6059
-22.8876
-5.35766
-8.42402
-16.1559
-21.2125
-26.3396
-14.4692
-22.6236
-24.5962
-20.74
-20.9548
-20.7586
-20.2758
-19.3846
-17.9364
-15.9758
-13.6423
-11.4587
-9.80422
-8.63639
-7.50308
-6.3575
-5.40179
-4.52964
-3.72995
-3.17197
-3.20269
-3.65311
-3.97749
-3.88795
-3.73561
-3.80062
-3.93436
-3.80595
-3.37769
-2.8433
-2.46493
-2.30911
-2.27404
-2.25522
-2.19092
-2.04275
-1.79866
-1.50501
-1.23676
-1.01413
-0.799949
-0.529613
-0.210946
-23.6813
-23.2146
-22.2354
-21.0473
-19.8037
-18.2476
-16.142
-13.8388
-11.7748
-10.2085
-8.83999
-7.45071
-5.99334
-4.82127
-4.12133
-3.54989
-3.20061
-3.17597
-3.55426
-3.88089
-3.90337
-3.77496
-3.82707
-3.93395
-3.82734
-3.40478
-2.89407
-2.52645
-2.35942
-2.32925
-2.33855
-2.31422
-2.18968
-1.96139
-1.64131
-1.30518
-0.997409
-0.710915
-0.400039
-0.032021
-22.5973
-22.9524
-22.7943
-21.9956
-20.82
-19.1558
-16.821
-14.238
-11.8089
-9.78469
-7.99432
-6.51025
-5.42448
-4.73561
-4.21355
-3.89946
-3.60894
-3.54937
-3.72867
-3.98695
-4.09575
-4.00593
-3.88715
-3.7618
-3.49684
-3.12335
-2.64743
-2.35518
-2.29172
-2.37325
-2.48566
-2.5241
-2.45286
-2.23134
-1.92888
-1.58771
-1.24706
-0.951726
-0.645782
-0.309131
-20.4062
-22.0002
-23.2861
-22.905
-22.232
-20.7782
-18.43
-15.784
-13.0655
-10.2086
-7.28614
-4.6555
-2.86685
-2.13327
-2.42991
-2.86698
-3.21169
-3.42757
-3.55953
-3.74344
-3.93156
-4.17338
-4.3055
-4.20289
-3.77859
-3.09065
-2.48661
-2.10278
-2.02274
-2.13651
-2.36598
-2.49388
-2.52496
-2.42279
-2.17832
-1.88089
-1.51141
-1.14226
-0.741459
-0.248158
42.7939
44.9107
58.911
71.4818
42.2737
43.716
57.9961
70.1556
-29.3928
-44.2208
-35.7215
-20.1707
-33.4867
-37.0119
-33.5059
-33.3506
-25.662
-26.3264
-23.7103
-22.6158
-22.1912
-20.7262
-17.8134
-15.5529
-13.1505
-10.651
-8.33102
-6.38335
-4.96068
-4.0932
-3.38641
-2.97851
-2.80331
-2.72175
-2.73473
-2.93711
-2.9848
-3.25687
-3.53783
-3.66535
-3.66101
-3.54572
-3.3805
-3.21396
-3.06694
-2.90418
-2.88271
-2.80183
-2.62916
-2.37349
-2.03338
-1.62529
-1.28675
-0.922484
-0.545811
-0.178805
-23.2443
-21.7478
-24.0452
-21.6618
-20.3522
-18.9117
-15.5942
-14.0268
-12.241
-10.688
-9.54129
-8.44988
-7.36126
-6.05638
-4.55007
-3.10509
-1.97797
-1.25902
-0.965197
-1.12341
-1.48823
-2.11354
-2.78176
-3.37099
-3.83967
-4.14861
-4.26685
-4.26064
-4.15205
-4.17486
-3.8421
-3.46215
-3.03081
-2.55346
-2.04962
-1.55454
-1.12539
-0.748862
-0.429679
-0.149855
37.3787
33.9463
30.2029
13.6641
29.1955
26.7124
17.9886
7.25637
24.1521
24.6777
20.3137
13.9437
23.4565
23.6368
20.0539
13.758
-38.5195
-63.9599
-8.46559
-13.5407
4.81002
-4.38728
5.02011
-4.60747
-33.4555
-19.3107
-13.0888
-15.5262
-7.37527
-8.61554
-13.8835
-19.8354
-12.1982
-18.1248
-21.6786
-23.0358
-12.1
-16.8957
-19.2008
-20.0615
-21.7414
-24.5647
-23.9068
-22.2205
-20.0474
-17.5641
-14.9277
-13.079
-11.9362
-11.2739
-10.5395
-9.65697
-8.55472
-7.0985
-5.16832
-3.01195
-1.14825
0.146418
0.789466
0.587201
-0.386897
-1.47551
-2.60303
-3.64998
-4.48469
-5.11899
-5.27759
-5.20334
-5.0486
-4.72846
-4.31405
-3.79118
-3.16861
-2.46275
-1.72293
-1.063
-0.549877
-0.206855
0.0244946
0.120422
-23.6971
-24.848
-23.7203
-21.7147
-19.4637
-17.1241
-14.94
-13.1957
-11.9769
-11.1341
-10.2879
-9.30629
-8.05448
-6.58326
-4.9717
-3.4287
-2.25709
-1.62929
-1.32731
-1.18939
-1.56678
-2.19811
-2.93803
-3.54346
-3.94188
-4.11335
-4.27802
-4.29358
-4.19915
-3.98947
-3.67155
-3.26153
-2.7669
-2.22031
-1.68118
-1.2409
-0.953538
-0.715825
-0.492224
-0.207562
-23.088
-22.5304
-21.698
-20.4971
-18.934
-17.1055
-15.082
-13.1917
-11.6457
-10.5087
-9.53845
-8.67743
-7.85587
-6.95724
-5.66928
-4.16991
-2.92385
-2.13216
-1.94058
-1.72891
-1.71944
-1.97719
-2.50199
-3.01221
-3.43357
-3.61969
-3.77427
-3.9089
-3.97752
-3.95849
-3.82485
-3.56462
-3.14423
-2.58445
-1.94537
-1.37359
-0.881569
-0.531253
-0.237688
0.0249979
-20.3736
-20.4482
-20.2405
-19.6614
-18.7277
-17.2537
-15.3373
-13.2714
-11.5493
-10.3818
-9.62118
-8.90031
-8.00855
-6.85664
-5.4643
-4.06123
-2.99748
-2.4812
-2.17712
-1.9304
-1.82796
-2.10174
-2.63655
-3.16227
-3.41537
-3.54025
-3.66128
-3.79533
-3.88463
-3.85513
-3.69611
-3.40189
-2.96417
-2.41589
-1.8543
-1.36355
-0.988997
-0.694506
-0.41508
-0.134857
)
;

boundaryField
{
    inlet
    {
        type            zeroGradient;
    }
    outlet
    {
        type            fixedValue;
        value           uniform 0;
    }
    obstacle
    {
        type            zeroGradient;
    }
    upperWall
    {
        type            zeroGradient;
    }
    lowerWall
    {
        type            zeroGradient;
    }
    frontAndBack
    {
        type            empty;
    }
}


// ************************************************************************* //
