/*--------------------------------*- C++ -*----------------------------------*\
  =========                 |
  \\      /  F ield         | OpenFOAM: The Open Source CFD Toolbox
   \\    /   O peration     | Website:  https://openfoam.org
    \\  /    A nd           | Version:  10
     \\/     M anipulation  |
\*---------------------------------------------------------------------------*/
FoamFile
{
    format      ascii;
    class       volScalarField;
    location    "4.625";
    object      p;
}
// * * * * * * * * * * * * * * * * * * * * * * * * * * * * * * * * * * * * * //

dimensions      [0 2 -2 0 0 0 0];

internalField   nonuniform List<scalar> 
8000
(
5.32094e-06
-3.50788e-06
2.85329e-05
8.83616e-05
0.000181866
0.000309912
0.000473153
0.000671773
0.000904958
0.0011707
0.00146514
0.00178212
0.00211261
0.00244464
0.00276355
0.00305244
0.00329342
0.00346953
0.00357724
0.00358257
1.68469e-05
5.797e-06
3.83835e-05
9.68452e-05
0.00018794
0.000312759
0.000472215
0.000666773
0.000895977
0.00115807
0.00144948
0.00176412
0.00209333
0.00242603
0.00274702
0.00303914
0.00328395
0.00346388
0.00357614
0.00358064
-2.32586e-05
-3.79031e-05
-6.89248e-06
4.92257e-05
0.000137761
0.000259973
0.000417129
0.00061019
0.000839307
0.00110335
0.00139939
0.00172229
0.00206402
0.00241259
0.00275253
0.00306522
0.00332994
0.0035259
0.00364925
0.00365188
-0.000100815
-0.000118217
-8.92269e-05
-3.62641e-05
4.87373e-05
0.000167359
0.000321463
0.000512786
0.000742405
0.00101029
0.00131467
0.00165127
0.00201255
0.00238783
0.00276013
0.0031085
0.00340819
0.00363287
0.00377632
0.00377983
-0.00022153
-0.000241911
-0.000215605
-0.000166682
-8.61963e-05
2.78607e-05
0.000178119
0.000367356
0.000597943
0.000871364
0.00118751
0.0015437
0.00193355
0.00234746
0.00276713
0.00316874
0.00352221
0.00379244
0.00396824
0.00397542
-0.000386492
-0.000410424
-0.000387603
-0.000343932
-0.000269488
-0.000161779
-1.72703e-05
0.000168082
0.000398303
0.000676909
0.0010061
0.00138546
0.00180946
0.00227533
0.00275925
0.00323546
0.00366695
0.00400601
0.00423191
0.00424778
-0.000596804
-0.000625048
-0.000606694
-0.000569914
-0.000503739
-0.000405214
-0.000269829
-9.21024e-05
0.000133966
0.000414514
0.000755075
0.00115951
0.0016292
0.0021498
0.00271389
0.00328956
0.00383068
0.00427213
0.0045754
0.00461083
-0.000853828
-0.000887286
-0.000874529
-0.000846678
-0.000791715
-0.000706353
-0.000585159
-0.000421171
-0.000206215
6.88889e-05
0.000413721
0.000837008
0.00134418
0.00193313
0.00259404
0.0032974
0.0039889
0.0045817
0.00500577
0.0050857
-0.00115922
-0.00119883
-0.00119279
-0.00117613
-0.00113589
-0.00106874
-0.000968568
-0.000827083
-0.000633974
-0.000376812
-4.13026e-05
0.000387858
0.000924713
0.00157799
0.00234227
0.00320064
0.00409227
0.00490723
0.00552179
0.00570526
-0.00151518
-0.00156181
-0.00156324
-0.00155986
-0.00153804
-0.0014949
-0.00142411
-0.00131651
-0.0011601
-0.000939464
-0.000635526
-0.000225595
0.000315369
0.00101009
0.00187118
0.00290115
0.00404478
0.00517925
0.00609699
0.00651411
-0.00192508
-0.0019792
-0.00198789
-0.00199903
-0.00199881
-0.0019855
-0.00195329
-0.00189303
-0.001792
-0.00163297
-0.00139322
-0.00104333
-0.000546547
0.000140241
0.0010618
0.00223173
0.00366031
0.00523449
0.00663938
0.0075673
-0.00239469
-0.0024558
-0.00246948
-0.0024944
-0.00251728
-0.00253843
-0.0025536
-0.00255475
-0.00253009
-0.00246292
-0.00232985
-0.00209816
-0.00172242
-0.00114151
-0.000278806
0.000958754
0.00260513
0.00470758
0.00683567
0.00885195
-0.00293476
-0.00299996
-0.00301251
-0.00304657
-0.00309051
-0.00314792
-0.00321704
-0.00329214
-0.00336442
-0.00342104
-0.00344324
-0.00340309
-0.00325844
-0.00294316
-0.00235764
-0.00135465
0.000310525
0.00283443
0.00593833
0.0100095
-0.00356506
-0.00362341
-0.0036201
-0.00365211
-0.00371092
-0.00380306
-0.00392876
-0.00408572
-0.0042704
-0.00447762
-0.00469981
-0.00492479
-0.00513293
-0.0052858
-0.00531322
-0.00504968
-0.00409604
-0.00158087
0.00245932
0.0101267
-0.00432722
-0.00437289
-0.00433882
-0.00435584
-0.00440984
-0.00451669
-0.00468352
-0.00491426
-0.00521264
-0.00558443
-0.00603983
-0.00659451
-0.0072771
-0.00811352
-0.00912896
-0.0101698
-0.0107927
-0.00859101
-0.00326548
0.00906837
-0.00537092
-0.00519121
-0.00504336
-0.00496944
-0.00499846
-0.00513096
-0.00536008
-0.00568158
-0.00610088
-0.00663241
-0.00730876
-0.00817989
-0.00934429
-0.0108943
-0.0130192
-0.0154566
-0.0181417
-0.016631
-0.0115007
0.00642945
-0.00634752
-0.00646946
-0.00619911
-0.00612012
-0.00606115
-0.00610943
-0.00627825
-0.00657875
-0.00702546
-0.0076366
-0.00846181
-0.00956088
-0.0111228
-0.0132423
-0.0164354
-0.0201011
-0.0260206
-0.0268163
-0.0223687
0.00457584
-0.0101801
-0.00737197
-0.00680378
-0.00620454
-0.00604979
-0.00613611
-0.00641625
-0.00684411
-0.0074217
-0.00815179
-0.00912352
-0.0103198
-0.0121214
-0.0144615
-0.0183163
-0.02271
-0.0306919
-0.0321769
-0.0264153
0.015335
-0.00997539
-0.0108305
-0.00946915
-0.00907155
-0.00845792
-0.00809744
-0.00798245
-0.0080989
-0.00845173
-0.00901698
-0.00986188
-0.0109913
-0.0127378
-0.0150305
-0.0190444
-0.0235339
-0.031101
-0.0280275
-0.0132657
0.0560322
-0.0343215
-0.00895172
-0.00748345
-0.00615801
-0.00553437
-0.00555461
-0.00593608
-0.00645753
-0.00716357
-0.00797039
-0.00909935
-0.0103707
-0.0123109
-0.014353
-0.0173102
-0.0182649
-0.0170993
0.00274507
0.0470456
0.158722
1.08672e-05
-9.28485e-06
2.09845e-05
7.99907e-05
0.000173777
0.000302652
0.000467095
0.000667298
0.000902636
0.001171
0.00146851
0.00178889
0.00212318
0.00245946
0.00278272
0.00307566
0.00331958
0.00349607
0.00360191
0.00359365
3.09177e-05
1.00776e-05
4.20907e-05
9.97507e-05
0.00019052
0.000315189
0.000474592
0.000669234
0.000898724
0.00116136
0.00145366
0.00176956
0.00210063
0.00243532
0.00275858
0.00305299
0.00329937
0.00347904
0.00359011
0.00358004
-6.28356e-06
-3.20052e-05
-1.44855e-06
5.37638e-05
0.000141873
0.000263803
0.000420754
0.000613745
0.000842985
0.00110745
0.00140427
0.00172828
0.00207198
0.00242277
0.00276532
0.00308075
0.00334747
0.00354328
0.00366535
0.00365055
-8.11393e-05
-0.000110518
-8.18907e-05
-2.98832e-05
5.46226e-05
0.000172856
0.00032662
0.000517733
0.000747375
0.00101563
0.00132082
0.00165897
0.0020223
0.00240012
0.00277559
0.00312733
0.0034296
0.00365431
0.00379638
0.00377967
-0.00019976
-0.000232997
-0.000206981
-0.000159003
-7.89852e-05
3.47122e-05
0.00018467
0.000373756
0.000604461
0.000878418
0.00119568
0.00155371
0.00194654
0.00236372
0.00278763
0.00319394
0.00355115
0.00382184
0.00399605
0.00397961
-0.000362623
-0.000400409
-0.000377781
-0.000335001
-0.000260938
-0.000153483
-9.14005e-06
0.00017624
0.000406815
0.000686284
0.00101709
0.00139923
0.00182883
0.00229785
0.00278773
0.0032709
0.00370832
0.00404886
0.00427297
0.00426084
-0.000570478
-0.00061376
-0.000595466
-0.0005595
-0.000493597
-0.000395191
-0.000259794
-8.17979e-05
0.000144953
0.000426798
0.000769493
0.00117691
0.00164906
0.00217997
0.00275399
0.00334076
0.003892
0.00433756
0.00463914
0.00464152
-0.000824532
-0.000874442
-0.000861584
-0.000834468
-0.000779668
-0.000694291
-0.000572894
-0.000408359
-0.000192314
8.46911e-05
0.000432616
0.000860589
0.00137427
0.0019751
0.00265114
0.00337267
0.00408222
0.00468563
0.00510932
0.00515302
-0.00112629
-0.00118406
-0.00117773
-0.00116174
-0.00112159
-0.00105433
-0.000953784
-0.000811479
-0.000616838
-0.000357045
-1.71859e-05
0.000418902
0.000966827
0.00163387
0.00242352
0.00331216
0.00423676
0.00507723
0.00569818
0.0058523
-0.00147776
-0.00154458
-0.00154552
-0.00154281
-0.00152109
-0.00147782
-0.00140658
-0.00129796
-0.00113962
-0.000915604
-0.000605957
-0.000186506
0.000369619
0.00108641
0.00198534
0.00306451
0.00426905
0.00546208
0.00641159
0.00685378
-0.00188192
-0.00195877
-0.00196676
-0.00197868
-0.00197869
-0.00196542
-0.00193287
-0.00187157
-0.00176838
-0.0016054
-0.00135873
-0.000996922
-0.000480237
0.000238663
0.00120356
0.00246371
0.00400195
0.0057012
0.00721051
0.0083782
-0.00234381
-0.00243095
-0.00244371
-0.00246975
-0.00249327
-0.00251493
-0.00253016
-0.0025306
-0.00250394
-0.00243261
-0.00229172
-0.00204586
-0.00164484
-0.00102192
-0.000107848
0.00124947
0.00308046
0.00541309
0.00784065
0.0106449
-0.00287272
-0.00296906
-0.00298071
-0.00301665
-0.00306192
-0.00312052
-0.00319043
-0.00326565
-0.00333671
-0.00338981
-0.00340451
-0.00334983
-0.00317793
-0.00281279
-0.00213519
-0.00105411
0.000764637
0.00365637
0.00717748
0.0128957
-0.00348345
-0.00357857
-0.00357329
-0.00360864
-0.00367153
-0.00376802
-0.00389736
-0.00405662
-0.00424182
-0.00444699
-0.00466306
-0.00487522
-0.0050605
-0.00518056
-0.00518286
-0.00496755
-0.00413207
-0.00181959
0.0016196
0.0116864
-0.00421519
-0.00432131
-0.00428653
-0.0043119
-0.00437125
-0.00448287
-0.00465373
-0.0048876
-0.0051878
-0.00555942
-0.00601234
-0.0065613
-0.0072373
-0.00809326
-0.0092551
-0.0108354
-0.0125884
-0.0117797
-0.00915954
0.0057579
-0.00518159
-0.00506648
-0.0049275
-0.00486796
-0.00491629
-0.00506639
-0.00531057
-0.00564434
-0.00607247
-0.00660925
-0.00728654
-0.00815656
-0.00932872
-0.0109543
-0.0134173
-0.016967
-0.0220248
-0.0235431
-0.022846
-0.0027861
-0.00596145
-0.00631043
-0.0060487
-0.0060294
-0.00600018
-0.0060747
-0.00626305
-0.00657851
-0.00703184
-0.00764442
-0.00846408
-0.00955591
-0.0111141
-0.0133146
-0.0169231
-0.0218589
-0.0307061
-0.0355652
-0.0367028
-0.0060442
-0.00960041
-0.00696035
-0.00643006
-0.00589796
-0.00584761
-0.00601955
-0.0063661
-0.00683499
-0.00743614
-0.00817038
-0.0091214
-0.0103009
-0.012053
-0.0143208
-0.018547
-0.0239824
-0.0338014
-0.0389501
-0.0375458
0.0119769
-0.00718594
-0.00972877
-0.00878276
-0.0087866
-0.00839126
-0.00818511
-0.00814891
-0.00829507
-0.00866084
-0.00920257
-0.0100126
-0.0110343
-0.0126847
-0.0148409
-0.0190214
-0.0242388
-0.0325667
-0.0315428
-0.0151303
0.064156
-0.0319505
-0.00700344
-0.00586513
-0.00511001
-0.00486014
-0.00507956
-0.00562137
-0.00623036
-0.00703363
-0.00784484
-0.00900513
-0.0102206
-0.0121106
-0.0142212
-0.0171871
-0.0185587
-0.0167133
0.00527013
0.0611289
0.19016
1.849e-05
-6.03371e-06
2.31335e-05
8.14225e-05
0.000175163
0.000304461
0.0004697
0.000671082
0.000907951
0.00117832
0.00147839
0.00180204
0.00213989
0.00248012
0.00280741
0.00310403
0.00335061
0.00352785
0.0036328
0.00361793
4.33328e-05
1.78287e-05
4.92175e-05
0.000106051
0.000196451
0.000321029
0.000480592
0.000675684
0.000905973
0.00116983
0.00146381
0.00178177
0.00211591
0.00245385
0.0027805
0.00307809
0.00332681
0.00350713
0.00361767
0.0036012
8.56774e-06
-2.24028e-05
7.61347e-06
6.19386e-05
0.000149572
0.000271263
0.000428213
0.000621506
0.000851446
0.0011171
0.0014157
0.00174237
0.002089
0.00244349
0.00279005
0.00310941
0.00337913
0.00357599
0.00369765
0.00367534
-6.36679e-05
-9.87205e-05
-7.05767e-05
-1.95126e-05
6.44413e-05
0.000182344
0.00033602
0.000527373
0.000757695
0.00102719
0.0013343
0.00167492
0.00204243
0.00242485
0.00280544
0.00316231
0.00346873
0.00369526
0.00383724
0.0038119
-0.000179823
-0.000219132
-0.000193547
-0.000146533
-6.70762e-05
4.62918e-05
0.000196192
0.000385608
0.000617176
0.000892708
0.00121243
0.00157385
0.00197181
0.00239498
0.00282585
0.00323944
0.00360292
0.00387687
0.00405167
0.00402516
-0.000339994
-0.000384284
-0.00036202
-0.0003202
-0.000246672
-0.000139498
4.8861e-06
0.000190777
0.000422525
0.000704081
0.00103823
0.00142564
0.00186144
0.00233843
0.00283817
0.00333214
0.00377946
0.00412598
0.00435212
0.00432814
-0.000544614
-0.00059492
-0.00057691
-0.000541902
-0.000476513
-0.000378341
-0.000242795
-6.40759e-05
0.000164219
0.000448749
0.000795667
0.00120922
0.00168978
0.00223253
0.00282114
0.00342443
0.00399178
0.00444852
0.00475505
0.00474406
-0.000794642
-0.000852222
-0.000839565
-0.000813437
-0.000759177
-0.000674041
-0.000552438
-0.000387004
-0.00016905
0.000111298
0.000464534
0.000900425
0.00142582
0.00204286
0.0027402
0.00348715
0.00422322
0.00484777
0.00528233
0.00531352
-0.00109129
-0.00115753
-0.00115133
-0.00113644
-0.00109695
-0.00103006
-0.00092939
-0.000786138
-0.000589328
-0.000325577
2.08032e-05
0.000466881
0.00102806
0.0017191
0.00253971
0.00346702
0.00443504
0.00531499
0.00595925
0.006111
-0.00143616
-0.00151244
-0.00151349
-0.00151212
-0.00149137
-0.00144882
-0.00137776
-0.00126841
-0.00110791
-0.00087959
-0.000562348
-0.000130323
0.000446332
0.0011905
0.00213187
0.00326774
0.00454203
0.00580742
0.0068087
0.00727937
-0.00183158
-0.00191913
-0.00192728
-0.00194101
-0.00194261
-0.00193075
-0.00189909
-0.00183772
-0.00173288
-0.00156584
-0.00131134
-0.000935891
-0.000397111
0.000352846
0.00137715
0.0027153
0.00436035
0.00618812
0.00781341
0.00909225
-0.00228151
-0.00238093
-0.00239404
-0.00242272
-0.00244892
-0.00247325
-0.0024907
-0.00249239
-0.00246541
-0.00239126
-0.0022436
-0.00198456
-0.00155944
-0.000892624
9.09946e-05
0.00152085
0.0034947
0.00603407
0.00869558
0.01168
-0.00279355
-0.00290446
-0.00291701
-0.00295711
-0.00300676
-0.00306995
-0.00314414
-0.00322286
-0.00329603
-0.00334901
-0.00336012
-0.00329647
-0.0031071
-0.00271392
-0.00201186
-0.000872507
0.0010765
0.004186
0.00800714
0.0138962
-0.00337843
-0.00348999
-0.00348622
-0.00352815
-0.00359884
-0.00370379
-0.00384135
-0.00400802
-0.00419931
-0.00440861
-0.00462618
-0.00483705
-0.00501908
-0.00513875
-0.00516532
-0.00503313
-0.00437023
-0.00212384
0.0015517
0.0115405
-0.00407291
-0.00420322
-0.00417134
-0.00420884
-0.00428033
-0.00440461
-0.00458783
-0.00483363
-0.00514511
-0.0055267
-0.00598856
-0.00654914
-0.00724456
-0.00815072
-0.00946895
-0.011456
-0.0139803
-0.0137093
-0.01097
0.00348027
-0.00497701
-0.00488822
-0.00475586
-0.00471213
-0.0047807
-0.00495262
-0.00521882
-0.00557391
-0.00602264
-0.00657807
-0.00727238
-0.00816259
-0.00937126
-0.0110887
-0.0138154
-0.0180167
-0.0244228
-0.0271395
-0.0260805
-0.00659797
-0.00562424
-0.00602777
-0.00578353
-0.00580681
-0.00581176
-0.00592147
-0.00614393
-0.00649249
-0.00698095
-0.00762203
-0.00846167
-0.00957157
-0.0111573
-0.0134388
-0.0173121
-0.0228103
-0.0327005
-0.0381969
-0.0380805
-0.00757461
-0.00921283
-0.0066041
-0.0060554
-0.00554765
-0.00554832
-0.00578089
-0.00618706
-0.00671362
-0.00736681
-0.00813924
-0.00910937
-0.0102979
-0.0120396
-0.0143675
-0.0186213
-0.0244582
-0.0339459
-0.03838
-0.0330496
0.0142951
-0.00610013
-0.00889431
-0.00806778
-0.00819289
-0.00789387
-0.00777632
-0.007825
-0.00808175
-0.00854105
-0.0091498
-0.00999727
-0.0110213
-0.012649
-0.0148386
-0.0190236
-0.0244368
-0.0319745
-0.0286884
-0.0078431
0.0703245
-0.0312217
-0.0061913
-0.00504904
-0.00440974
-0.00428968
-0.00461204
-0.00524802
-0.00593934
-0.00682131
-0.00769107
-0.00887855
-0.0101466
-0.011997
-0.0142146
-0.0170383
-0.0182998
-0.0153953
0.0095157
0.0711659
0.202576
2.65165e-05
-4.06155e-07
2.80206e-05
8.57313e-05
0.00017942
0.00030907
0.000475042
0.00067756
0.000916011
0.00118845
0.00149109
0.00181774
0.0021593
0.00250347
0.00283474
0.003135
0.00338434
0.00356283
0.00366779
0.00364966
5.39925e-05
2.61227e-05
5.69876e-05
0.000113226
0.000203413
0.000328077
0.000488028
0.000683862
0.000915307
0.0011808
0.00147695
0.00179772
0.00213507
0.00247667
0.00280715
0.00310833
0.00335983
0.0035415
0.00365229
0.00363249
2.10649e-05
-1.25192e-05
1.69988e-05
7.06818e-05
0.000158041
0.000279743
0.000437008
0.000630987
0.000862067
0.0011294
0.00143032
0.00176003
0.00211031
0.00246903
0.00282014
0.0031439
0.0034172
0.00361596
0.00373819
0.00371203
-4.89624e-05
-8.68298e-05
-5.9162e-05
-8.77781e-06
7.48579e-05
0.00019272
0.000346672
0.000538708
0.000770232
0.00104158
0.0013513
0.00169543
0.00206745
0.00245517
0.00284161
0.00320436
0.00351577
0.00374529
0.00388852
0.00385888
-0.000162828
-0.000205169
-0.000180044
-0.000133731
-5.4596e-05
5.87444e-05
0.00020897
0.000399184
0.000632175
0.000909936
0.00123291
0.00159897
0.00200249
0.00243263
0.00287151
0.00329347
0.00366448
0.00394342
0.00412073
0.00408948
-0.000320409
-0.000367978
-0.000346158
-0.000305051
-0.000231829
-0.000124638
2.01707e-05
0.000207049
0.000440547
0.00072487
0.00106305
0.00145589
0.00189958
0.00238615
0.00289722
0.00340355
0.00386263
0.00421772
0.00444875
0.00441984
-0.000521924
-0.000575799
-0.000558218
-0.00052395
-0.000458864
-0.000360642
-0.000224574
-4.46614e-05
0.000185769
0.000473735
0.000825837
0.00124679
0.00173723
0.0022931
0.00289795
0.00351979
0.00410589
0.00457764
0.00489359
0.0048784
-0.00076811
-0.000829608
-0.000817383
-0.000792062
-0.000738159
-0.000653001
-0.000530844
-0.000364068
-0.000143638
0.000140788
0.000500296
0.000945316
0.00148385
0.0021188
0.00283929
0.00361405
0.00438015
0.00503139
0.00548404
0.00551466
-0.00105991
-0.00113048
-0.00112476
-0.00111082
-0.00107185
-0.0010051
-0.000903983
-0.000759401
-0.000559936
-0.000291598
6.21338e-05
0.000519453
0.00109736
0.00181183
0.00266458
0.00363286
0.00464849
0.00557575
0.00625544
0.00641817
-0.00139852
-0.00147966
-0.00148128
-0.00148115
-0.00146124
-0.00141921
-0.00134807
-0.0012377
-0.00107471
-0.000841683
-0.000516409
-7.14978e-05
0.000524609
0.00129821
0.00228229
0.0034761
0.00482394
0.0061718
0.00724517
0.00775625
-0.00178568
-0.00187873
-0.00188768
-0.00190312
-0.00190616
-0.00189551
-0.00186454
-0.00180292
-0.00169635
-0.00152522
-0.00126305
-0.000874453
-0.000314512
0.00046865
0.00154441
0.00295747
0.00470929
0.00667556
0.00844718
0.00983302
-0.00222442
-0.00233015
-0.00234442
-0.00237563
-0.00240426
-0.00243098
-0.00245042
-0.00245333
-0.0024262
-0.00234977
-0.00219647
-0.00192645
-0.00148184
-0.000782804
0.00025213
0.00175796
0.00386237
0.0066103
0.00955339
0.0127374
-0.00272087
-0.00283926
-0.00285366
-0.00289761
-0.00295123
-0.00301856
-0.00309675
-0.00317898
-0.00325471
-0.00330874
-0.00331863
-0.0032504
-0.00305153
-0.00264258
-0.00191951
-0.000746277
0.0012896
0.00461634
0.00888526
0.0150644
-0.00328282
-0.00340314
-0.00340206
-0.00344974
-0.00352693
-0.00363906
-0.00378398
-0.00395771
-0.00415555
-0.00437078
-0.00459378
-0.00481038
-0.00500098
-0.0051387
-0.0052117
-0.00518619
-0.00472095
-0.00256657
0.00158386
0.0118249
-0.00394501
-0.00408817
-0.00406086
-0.0041083
-0.00418986
-0.00432489
-0.00451909
-0.00477598
-0.00509874
-0.00549234
-0.0059684
-0.00654903
-0.00727989
-0.00825942
-0.00975145
-0.0121343
-0.0154972
-0.0158464
-0.0127647
0.00198314
-0.00479814
-0.0047242
-0.00459882
-0.00456777
-0.00465148
-0.00484061
-0.00512508
-0.00549866
-0.00596615
-0.00654076
-0.00725765
-0.00817902
-0.00944514
-0.0112816
-0.0142921
-0.0191171
-0.0269096
-0.0307032
-0.0295632
-0.00923182
-0.00535922
-0.00579986
-0.00556369
-0.00561547
-0.00564457
-0.00578009
-0.00602852
-0.00640296
-0.00691533
-0.00758054
-0.00844612
-0.00958746
-0.0112286
-0.0136183
-0.0177941
-0.0238236
-0.0348694
-0.0409856
-0.041014
-0.00856417
-0.00886688
-0.00629177
-0.00574519
-0.00526195
-0.00529305
-0.00556385
-0.00601137
-0.00657591
-0.00726628
-0.00807184
-0.00907032
-0.0102835
-0.0120568
-0.0144581
-0.0188626
-0.025035
-0.0349242
-0.0391072
-0.033506
0.0164292
-0.00549413
-0.00844141
-0.00762355
-0.00781257
-0.00755946
-0.00749533
-0.00760158
-0.00790161
-0.00840404
-0.00905228
-0.00993205
-0.0109734
-0.0126271
-0.0148513
-0.0191269
-0.024669
-0.0322013
-0.0280898
-0.00640941
0.0753998
-0.0306104
-0.00557117
-0.00443744
-0.00385574
-0.00381068
-0.00420507
-0.00491337
-0.00566929
-0.00661218
-0.00753529
-0.0087608
-0.0100739
-0.0119398
-0.0142068
-0.0170641
-0.0182641
-0.0151165
0.0113328
0.0752441
0.21081
3.46669e-05
6.91972e-06
3.50327e-05
9.24728e-05
0.000186187
0.000316149
0.000482753
0.000686271
0.000926141
0.00120047
0.0015055
0.00183506
0.00218
0.00252788
0.00286293
0.00316671
0.0034189
0.00359913
0.00370486
0.00368557
6.32734e-05
3.44933e-05
6.50872e-05
0.000121033
0.000211197
0.000336096
0.000496583
0.000693309
0.000926063
0.00119334
0.00149182
0.00181548
0.00215618
0.00250153
0.0028359
0.00314078
0.00339534
0.00357897
0.00369074
0.00366992
3.15916e-05
-2.99447e-06
2.62578e-05
7.96244e-05
0.000166935
0.000288852
0.000446644
0.000641532
0.000873983
0.00114324
0.00144669
0.00177963
0.00213376
0.00249687
0.00285266
0.00318099
0.0034582
0.00365959
0.00378325
0.00375597
-3.67478e-05
-7.56957e-05
-4.82883e-05
1.75836e-06
8.53297e-05
0.000203398
0.000357892
0.000550898
0.000783928
0.00105743
0.00137008
0.00171802
0.00209477
0.00248803
0.00288053
0.00324939
0.00356625
0.00379967
0.00394518
0.0039144
-0.000148672
-0.000192182
-0.000167315
-0.000121354
-4.22806e-05
7.12903e-05
0.000222124
0.000413445
0.000648186
0.000928501
0.00125497
0.00162557
0.00203533
0.00247282
0.00291996
0.00335058
0.00372964
0.00401468
0.00419582
0.00416354
-0.000303952
-0.00035279
-0.000331229
-0.000290491
-0.000217325
-0.000109869
3.56372e-05
0.000223803
0.000459376
0.000746778
0.00108918
0.00148674
0.00193958
0.0024361
0.0029587
0.00347759
0.00394895
0.0043139
0.00455144
0.00452194
-0.000502672
-0.000557928
-0.000540619
-0.000506758
-0.000441747
-0.000343249
-0.000206415
-2.50409e-05
0.000207814
0.00049953
0.000857242
0.00128701
0.00178633
0.00235515
0.00297607
0.00361629
0.00422136
0.0047094
0.00503668
0.00502219
-0.000745393
-0.000808404
-0.000796489
-0.000771659
-0.000717907
-0.000632535
-0.000509624
-0.000341299
-0.000118181
0.000170531
0.00053654
0.000991033
0.00154228
0.00219449
0.00293722
0.00373873
0.00453413
0.00521265
0.00568533
0.00572006
-0.00103282
-0.00110506
-0.00109973
-0.00108645
-0.00104781
-0.000981037
-0.000879339
-0.000733308
-0.000531111
-0.000258181
0.000102785
0.000571007
0.00116474
0.00190119
0.00278375
0.0037901
0.0048505
0.00582346
0.00653944
0.00671462
-0.00136581
-0.00144881
-0.00145098
-0.00145178
-0.00143255
-0.00139089
-0.00131961
-0.00120821
-0.00104283
-0.000805384
-0.000472686
-1.602e-05
0.000597827
0.00139782
0.00241978
0.00366537
0.00507981
0.00650362
0.0076453
0.00818686
-0.00174561
-0.00184075
-0.0018505
-0.00186734
-0.00187162
-0.00186205
-0.00183172
-0.00176997
-0.00166197
-0.00148742
-0.00121876
-0.00081907
-0.000241266
0.000569646
0.00168849
0.00316573
0.0050111
0.00710076
0.0090031
0.0104539
-0.00217451
-0.00228264
-0.0022981
-0.00233138
-0.00236214
-0.00239103
-0.00241241
-0.0024167
-0.00238996
-0.00231228
-0.00215518
-0.00187736
-0.00141861
-0.000695472
0.000377501
0.00194715
0.00416368
0.00709504
0.0102791
0.013567
-0.00265759
-0.00277882
-0.00279502
-0.0028421
-0.0028991
-0.00297012
-0.00305211
-0.003138
-0.00321694
-0.00327337
-0.00328448
-0.00321578
-0.00301382
-0.00259782
-0.00186246
-0.000672697
0.00143516
0.00496238
0.00964804
0.0159505
-0.00320091
-0.00332453
-0.00332596
-0.00337809
-0.00346045
-0.00357854
-0.00372996
-0.00391054
-0.00411548
-0.00433814
-0.00456951
-0.00479681
-0.00500239
-0.00516431
-0.0052829
-0.0053419
-0.00501196
-0.0028726
0.00186786
0.0122038
-0.00383838
-0.00398638
-0.0039627
-0.00401709
-0.0041062
-0.00424977
-0.00445338
-0.0047206
-0.00505486
-0.00546195
-0.00595517
-0.0065605
-0.00733156
-0.00838298
-0.010021
-0.0127123
-0.0167454
-0.017418
-0.0136229
0.00139713
-0.00465543
-0.00458709
-0.00446662
-0.004444
-0.00453767
-0.00473889
-0.00503723
-0.00542619
-0.0059105
-0.00650529
-0.00724712
-0.0082046
-0.00953303
-0.0114833
-0.0147418
-0.0200542
-0.0288888
-0.0334149
-0.031511
-0.0104731
-0.0051716
-0.00562474
-0.00539004
-0.00545645
-0.005499
-0.00565049
-0.00591661
-0.00631054
-0.00684403
-0.00753351
-0.00842783
-0.00960757
-0.0113155
-0.0138163
-0.0182709
-0.0247392
-0.0367582
-0.04332
-0.0422938
-0.00899282
-0.00861546
-0.00605788
-0.00551702
-0.00504666
-0.00509096
-0.00538108
-0.00585221
-0.0064437
-0.00716155
-0.0079959
-0.00902501
-0.0102722
-0.0121005
-0.0145791
-0.01917
-0.0256291
-0.0359521
-0.0400358
-0.0328019
0.0177434
-0.00521972
-0.00819321
-0.0073503
-0.00755201
-0.00730874
-0.00726417
-0.00739519
-0.00772447
-0.00825926
-0.00894023
-0.00985453
-0.0109234
-0.012626
-0.0148979
-0.0192916
-0.0249456
-0.0325057
-0.0277975
-0.00408365
0.0784374
-0.0302889
-0.00523578
-0.00409053
-0.00351459
-0.00349116
-0.00391609
-0.00466064
-0.00545492
-0.00643717
-0.00740005
-0.00866167
-0.0100167
-0.011926
-0.0142546
-0.0171811
-0.0183876
-0.015006
0.0123416
0.078234
0.214804
4.22942e-05
1.42556e-05
4.22275e-05
9.95738e-05
0.000193406
0.000323725
0.000490972
0.000695468
0.000936702
0.00121282
0.00152011
0.00185239
0.00220047
0.00255178
0.00289034
0.00319745
0.00345243
0.0036346
0.0037414
0.00372181
7.14099e-05
4.23155e-05
7.27865e-05
0.00012864
0.000218912
0.000344148
0.000505253
0.000702931
0.000937031
0.00120611
0.00150687
0.00183333
0.00217727
0.0025262
0.0028643
0.00317275
0.00343036
0.00361615
0.00372919
0.00370818
4.06259e-05
5.70131e-06
3.48349e-05
8.81029e-05
0.000175519
0.000297777
0.000456205
0.000652092
0.000885981
0.00115718
0.00146316
0.00179925
0.00215711
0.00252443
0.00288469
0.00321743
0.00349851
0.00370274
0.00382812
0.00380068
-2.64144e-05
-6.57225e-05
-3.84303e-05
1.1512e-05
9.51906e-05
0.000213615
0.000368786
0.00056288
0.000797507
0.00107322
0.0013888
0.00174049
0.0021218
0.00252035
0.00291864
0.00329335
0.00361555
0.00385303
0.00400113
0.00397033
-0.000136737
-0.000180629
-0.000155878
-0.000110027
-3.08377e-05
8.31199e-05
0.000234703
0.000427251
0.000663833
0.000946749
0.00127673
0.00165191
0.0020675
0.00251191
0.00296687
0.00340567
0.00379248
0.00408368
0.0042689
0.00423687
-0.000290057
-0.0003393
-0.000317862
-0.000277249
-0.000203964
-9.60906e-05
5.0245e-05
0.000239802
0.00047751
0.00076801
0.00111472
0.00151822
0.00197832
0.002484
0.00301731
0.00354788
0.0040308
0.00440536
0.00464953
0.00462087
-0.000486365
-0.000542054
-0.000524891
-0.00049119
-0.000426084
-0.00032717
-0.000189457
-6.55194e-06
0.000228729
0.000524073
0.000886959
0.00132364
0.00183263
0.00241356
0.00304919
0.00370618
0.00432864
0.00483198
0.00517024
0.00515786
-0.000726087
-0.000789565
-0.000777846
-0.000753256
-0.000699489
-0.000613774
-0.000490018
-0.000320116
-9.43801e-05
0.000198399
0.000570435
0.0010335
0.00159649
0.00226433
0.00302694
0.00385228
0.00467383
0.005377
0.00586822
0.00590779
-0.00100973
-0.00108249
-0.00107745
-0.00106455
-0.00102608
-0.000959154
-0.000856802
-0.000709338
-0.000504561
-0.000227399
0.00014012
0.000618076
0.00122577
0.00198163
0.00289019
0.00392957
0.00502883
0.00604159
0.00678963
0.0069755
-0.00133789
-0.00142146
-0.00142408
-0.00142552
-0.00140676
-0.00136534
-0.00129382
-0.00118144
-0.00101392
-0.00077257
-0.000433409
3.34048e-05
0.000662532
0.00148493
0.00253885
0.00382805
0.00529875
0.00678651
0.00798564
0.00854943
-0.00171144
-0.00180723
-0.00181766
-0.00183552
-0.00184078
-0.00183205
-0.00180225
-0.0017404
-0.00163127
-0.00145396
-0.00118005
-0.000771357
-0.000179042
0.000654127
0.00180788
0.00333716
0.00526001
0.00745102
0.00945884
0.010951
-0.00213216
-0.00224102
-0.00225751
-0.00229236
-0.00232481
-0.00235546
-0.00237852
-0.00238414
-0.00235804
-0.00227984
-0.00212032
-0.00183708
-0.00136809
-0.000626942
0.000473896
0.00209176
0.004402
0.00748304
0.0108545
0.014207
-0.00260445
-0.00272654
-0.00274426
-0.00279367
-0.00285331
-0.00292734
-0.00301258
-0.00310182
-0.00318403
-0.00324345
-0.003257
-0.00318984
-0.00298794
-0.00256958
-0.00182981
-0.000644313
0.00153884
0.00524149
0.0102572
0.0166413
-0.00313343
-0.00325801
-0.00326147
-0.00331683
-0.00340307
-0.0035258
-0.00368255
-0.00386911
-0.00408071
-0.004311
-0.00455142
-0.00479011
-0.0050113
-0.00519559
-0.00534835
-0.00545191
-0.00520481
-0.00305668
0.00216015
0.012597
-0.00375306
-0.00390253
-0.0038815
-0.00394051
-0.00403495
-0.0041849
-0.00439597
-0.00467187
-0.00501647
-0.00543645
-0.00594671
-0.00657629
-0.00738509
-0.00849862
-0.01025
-0.0131634
-0.0176811
-0.0185308
-0.0141204
0.00116525
-0.00454501
-0.0044783
-0.00436121
-0.004344
-0.00444424
-0.00465386
-0.00496245
-0.00536354
-0.00586226
-0.00647508
-0.00724084
-0.00823343
-0.00962032
-0.0116695
-0.0151295
-0.0208145
-0.030399
-0.0354625
-0.0329113
-0.0112282
-0.00503901
-0.0054959
-0.00526069
-0.00533405
-0.00538374
-0.00554494
-0.00582288
-0.00623096
-0.00678136
-0.00749148
-0.0084131
-0.00963156
-0.0114069
-0.0140119
-0.0187011
-0.0255309
-0.0383506
-0.0453413
-0.0435534
-0.00941742
-0.00843544
-0.00588714
-0.00535243
-0.00488942
-0.00493968
-0.00523956
-0.00572458
-0.00633323
-0.00707131
-0.00792895
-0.00898734
-0.0102705
-0.012165
-0.0147305
-0.019486
-0.0262166
-0.0370123
-0.0411996
-0.0330632
0.0183534
-0.00507246
-0.00804666
-0.00717844
-0.00738102
-0.00713566
-0.0070965
-0.00723832
-0.00758352
-0.00813856
-0.00884234
-0.00978717
-0.0108854
-0.0126449
-0.0149722
-0.0194888
-0.0252527
-0.03295
-0.0279751
-0.00319066
0.0802281
-0.0300872
-0.00502937
-0.00387377
-0.00329368
-0.00327501
-0.00371156
-0.00447396
-0.00528931
-0.00629772
-0.00728781
-0.00858447
-0.00997548
-0.0119411
-0.0143279
-0.0173502
-0.0185872
-0.0151582
0.0126668
0.0796407
0.217033
4.89763e-05
2.08804e-05
4.88258e-05
0.000106197
0.000200204
0.00033089
0.000498741
0.000704128
0.000946586
0.00122431
0.00153359
0.00186826
0.0022191
0.00257341
0.00291507
0.00322513
0.00348266
0.00366671
0.00377464
0.00375509
7.83361e-05
4.91593e-05
7.96058e-05
0.000135489
0.000225942
0.00035155
0.000513267
0.00071185
0.000947199
0.00121791
0.00152074
0.0018497
0.00219652
0.00254863
0.00289003
0.00320168
0.00346209
0.00364996
0.0037643
0.00374345
4.81956e-05
1.31884e-05
4.22997e-05
9.55984e-05
0.000183203
0.000305847
0.000464919
0.000661769
0.000897002
0.00117
0.00147827
0.00181717
0.00217836
0.00254941
0.00291363
0.00325029
0.00353487
0.00374178
0.00386888
0.00384168
-1.78628e-05
-5.72544e-05
-2.99829e-05
1.99914e-05
0.000103868
0.000222704
0.000378568
0.000573718
0.000809847
0.0010876
0.00140584
0.0017609
0.00214624
0.00254946
0.00295284
0.00333272
0.00365968
0.00390092
0.00405151
0.00402111
-0.000126909
-0.000170885
-0.000146157
-0.000100274
-2.08763e-05
9.35242e-05
0.000245869
0.000439599
0.0006779
0.000963202
0.00129637
0.00167566
0.00209634
0.00254679
0.00300853
0.00345446
0.00384807
0.00414481
0.00433379
0.00430247
-0.000278629
-0.000327956
-0.00030655
-0.000265915
-0.000192419
-8.40787e-05
6.30851e-05
0.000253961
0.000493636
0.000786939
0.00113751
0.00154625
0.00201265
0.0025262
0.00306871
0.00360929
0.00410212
0.00448505
0.00473509
0.00470769
-0.000472948
-0.000528723
-0.000511615
-0.000477924
-0.000412632
-0.000313259
-0.000174685
9.64305e-06
0.000247114
0.000545666
0.00091305
0.00135571
0.00187301
0.00246427
0.00311234