/*--------------------------------*- C++ -*----------------------------------*\
  =========                 |
  \\      /  F ield         | OpenFOAM: The Open Source CFD Toolbox
   \\    /   O peration     | Website:  https://openfoam.org
    \\  /    A nd           | Version:  10
     \\/     M anipulation  |
\*---------------------------------------------------------------------------*/
FoamFile
{
    format      ascii;
    class       volScalarField;
    location    "1.35";
    object      p;
}
// * * * * * * * * * * * * * * * * * * * * * * * * * * * * * * * * * * * * * //

dimensions      [0 2 -2 0 0 0 0];

internalField   nonuniform List<scalar> 
496
(
21.9857
22.4576
19.0856
12.7754
22.3669
23.4571
19.2567
12.7117
27.5633
25.247
16.0211
4.91127
36.0908
32.4818
28.6905
11.165
3.67406
-5.55568
3.3097
-5.40108
-11.463
-15.7329
-41.771
-69.7809
-12.7836
-17.2222
-18.4896
-18.0964
-13.1206
-18.6046
-22.3172
-23.2034
-8.84672
-8.83335
-14.503
-19.7737
-34.2163
-19.3045
-19.1993
-23.4743
-16.7496
-14.5097
-12.8772
-13.2455
-15.0728
-17.1055
-18.1669
-18.3274
-17.9538
-17.4977
-17.0069
-16.2831
-15.4103
-14.3865
-13.4363
-12.3606
-11.3246
-10.2557
-9.26117
-8.33987
-7.46199
-6.79776
-6.22568
-5.88598
-5.54281
-5.29915
-5.01321
-4.57939
-3.98483
-3.14113
-2.40306
-1.59159
-1.03846
-0.573984
-0.214165
0.000245279
0.191194
0.220352
0.180264
0.053713
-20.2303
-15.6548
-12.8023
-13.4579
-15.6174
-17.5265
-18.3462
-18.4808
-18.2359
-18.0874
-17.4657
-16.5236
-15.4975
-14.3999
-13.4025
-12.309
-11.3267
-10.2609
-9.22512
-8.18073
-7.18737
-6.53523
-5.97827
-5.78529
-5.4758
-5.28278
-4.98001
-4.56639
-4.03368
-3.21261
-2.4584
-1.56913
-0.755109
-0.341341
-0.020476
0.074867
0.314521
0.185769
0.213063
0.0919388
-18.2319
-13.6957
-12.2998
-13.0826
-15.6539
-17.6079
-18.7712
-19.4111
-19.5584
-19.246
-18.1464
-16.9868
-15.7799
-14.7277
-13.5842
-12.4153
-11.2625
-10.0451
-9.01751
-7.96997
-7.2789
-6.75682
-6.45306
-6.22
-6.07394
-5.98034
-5.54875
-4.96313
-4.02809
-3.11039
-2.11333
-1.2971
-0.812947
-0.206762
-0.174279
-0.271066
-0.61735
-0.652641
-0.481127
-0.26054
-18.4927
-9.37039
-6.9032
-10.7501
-14.3071
-16.9453
-19.3648
-20.4656
-20.9271
-20.0212
-18.3284
-17.1966
-15.8317
-14.886
-13.6418
-12.6267
-11.3978
-10.0227
-8.69172
-7.11772
-6.15486
-5.29491
-5.50858
-5.65077
-5.96329
-6.18942
-5.97948
-5.67816
-4.75299
-3.80322
-2.14299
-0.661435
0.800484
1.37051
1.24328
0.749958
-0.212341
-0.551199
-0.97754
-0.881197
41.9685
42.0597
56.7106
68.2489
43.0022
45.2318
58.1291
71.9064
-36.5883
-24.7801
-45.9196
-31.381
-16.3363
-26.4167
-36.7445
-33.6286
-18.848
-9.20663
-12.1044
-12.1427
-16.4631
-18.2118
-19.9756
-20.973
-21.2002
-20.629
-18.3892
-17.4091
-15.9926
-14.7083
-13.4523
-12.3795
-11.2579
-10.1517
-9.04084
-8.01135
-7.04553
-6.51726
-6.06118
-5.70321
-5.70194
-5.58756
-5.38336
-4.92246
-4.15668
-3.43157
-2.52084
-1.66133
-1.0031
-0.520836
-0.507004
-0.366413
-0.506957
-0.49588
-0.716739
-0.53586
-27.2373
-16.814
-11.1677
-14.5483
-15.9772
-15.4749
-19.3272
-20.0417
-21.6373
-20.5772
-17.8877
-17.0439
-15.2654
-13.7556
-12.6652
-11.6829
-10.8692
-10.2039
-9.67296
-9.16451
-8.62712
-7.80714
-6.79716
-5.81573
-4.82068
-4.05138
-3.36285
-2.9939
-2.80606
-2.63833
-2.66121
-2.6576
-2.64186
-2.47653
-2.19736
-1.58353
-0.920437
-0.451838
0.149047
0.271796
39.7804
37.6061
34.1682
20.0328
32.7603
30.7281
24.2278
13.3405
27.6797
27.2213
23.5231
17.0893
26.566
25.7359
22.7959
17.2525
-26.7972
-52.6886
-2.07455
-7.5513
8.16661
0.158696
8.92037
0.146176
-22.6273
-10.908
-19.3212
-19.492
-3.53911
-4.27999
-11.3798
-19.1872
-7.73436
-12.7699
-16.1221
-19.7833
-7.02182
-12.1275
-14.9491
-16.6187
-17.675
-14.199
-11.9893
-11.6844
-15.1688
-19.1098
-20.702
-21.6286
-20.8041
-19.6822
-17.9556
-16.2297
-14.8385
-13.1768
-12.2048
-11.1798
-10.7163
-10.3756
-10.073
-9.93927
-9.18787
-8.53628
-7.02593
-5.63125
-4.03332
-2.76021
-2.10289
-1.60034
-1.96534
-2.20859
-3.04834
-3.28472
-3.64534
-3.51306
-2.94891
-2.48416
-1.09898
-0.0218428
1.13064
1.25155
-20.9245
-16.8526
-13.6427
-13.6024
-15.978
-18.4969
-19.5117
-19.5979
-19.55
-18.7424
-17.5618
-16.1367
-14.8778
-13.6088
-12.5489
-11.7459
-11.1333
-10.7333
-10.1905
-9.70366
-8.85126
-7.86311
-6.61676
-5.45596
-4.50333
-3.71657
-3.20879
-2.87901
-2.82893
-2.69629
-2.76782
-2.95289
-2.94163
-2.78621
-2.31412
-1.85679
-1.16195
-0.599552
-0.362925
-0.0271313
-21.1368
-18.7468
-15.0267
-13.7675
-15.5191
-17.8908
-19.196
-19.3353
-18.903
-18.0552
-17.0291
-15.928
-14.7268
-13.6504
-12.6042
-11.859
-11.1437
-10.5776
-9.9238
-9.19083
-8.42524
-7.48602
-6.67223
-5.6895
-4.92071
-4.18204
-3.62539
-3.19567
-2.61468
-2.43162
-2.18966
-2.17121
-2.06149
-2.13268
-2.20878
-2.10938
-1.94874
-1.44985
-0.830869
-0.216836
-17.7196
-17.1926
-14.9925
-13.4946
-14.5397
-17.0942
-19.1618
-19.458
-18.6171
-17.6475
-16.7589
-15.8325
-14.7106
-13.6429
-12.6261
-11.8698
-11.1823
-10.5823
-9.96584
-9.22844
-8.44743
-7.47607
-6.57689
-5.64132
-4.9372
-4.33759
-3.85231
-3.40091
-2.93355
-2.61487
-2.20479
-2.10242
-2.0745
-2.17994
-2.2097
-2.03702
-1.81318
-1.30123
-0.779816
-0.234746
)
;

boundaryField
{
    inlet
    {
        type            zeroGradient;
    }
    outlet
    {
        type            fixedValue;
        value           uniform 0;
    }
    obstacle
    {
        type            zeroGradient;
    }
    upperWall
    {
        type            zeroGradient;
    }
    lowerWall
    {
        type            zeroGradient;
    }
    frontAndBack
    {
        type            empty;
    }
}


// ************************************************************************* //
