/*--------------------------------*- C++ -*----------------------------------*\
  =========                 |
  \\      /  F ield         | OpenFOAM: The Open Source CFD Toolbox
   \\    /   O peration     | Website:  https://openfoam.org
    \\  /    A nd           | Version:  10
     \\/     M anipulation  |
\*---------------------------------------------------------------------------*/
FoamFile
{
    format      ascii;
    class       volVectorField;
    location    "8.625";
    object      U;
}
// * * * * * * * * * * * * * * * * * * * * * * * * * * * * * * * * * * * * * //

dimensions      [0 1 -1 0 0 0 0];

internalField   nonuniform List<vector> 
400
(
(-0.000159536 0.000140558 0)
(-0.00119072 0.00044202 0)
(-0.00293423 0.000551826 0)
(-0.00472467 0.000588478 0)
(-0.00657997 0.000608351 0)
(-0.0084618 0.00062939 0)
(-0.0103566 0.000650796 0)
(-0.0122416 0.000664888 0)
(-0.0140708 0.000660731 0)
(-0.0157692 0.00062424 0)
(-0.0172271 0.000538487 0)
(-0.018295 0.000385575 0)
(-0.0187869 0.000151458 0)
(-0.0184896 -0.000179384 0)
(-0.0172016 -0.000589722 0)
(-0.0147994 -0.00103008 0)
(-0.0113458 -0.00139912 0)
(-0.0072475 -0.00155007 0)
(-0.00285117 -0.0013149 0)
(-0.00029339 -0.000445488 0)
(-0.000514657 0.00121432 0)
(-0.00268031 0.00252762 0)
(-0.00599944 0.00301969 0)
(-0.00940598 0.00318374 0)
(-0.0128968 0.00324014 0)
(-0.0163835 0.00326096 0)
(-0.0198153 0.00324674 0)
(-0.0231316 0.00316951 0)
(-0.0262399 0.00298741 0)
(-0.0290067 0.0026478 0)
(-0.0312503 0.00209069 0)
(-0.0327357 0.00125449 0)
(-0.0331944 8.78335e-05 0)
(-0.0323219 -0.00141576 0)
(-0.0298328 -0.00317806 0)
(-0.0255739 -0.00499202 0)
(-0.0196696 -0.00646956 0)
(-0.0127405 -0.00704952 0)
(-0.0053592 -0.0060977 0)
(-0.000794132 -0.00265632 0)
(-0.000673418 0.00314721 0)
(-0.0033735 0.00593643 0)
(-0.00743077 0.00697468 0)
(-0.0115648 0.0073045 0)
(-0.015774 0.00737691 0)
(-0.0199519 0.00733977 0)
(-0.0240379 0.00719941 0)
(-0.0279638 0.00690476 0)
(-0.0316287 0.00637625 0)
(-0.0348886 0.0055133 0)
(-0.0375477 0.0042015 0)
(-0.0393532 0.00232628 0)
(-0.0399868 -0.000203093 0)
(-0.0390732 -0.00339507 0)
(-0.0362403 -0.00710414 0)
(-0.0312231 -0.0109194 0)
(-0.0240779 -0.0140525 0)
(-0.0155305 -0.0152971 0)
(-0.0063384 -0.0132956 0)
(-0.000828516 -0.00611714 0)
(-0.000725711 0.00521812 0)
(-0.00364997 0.00959328 0)
(-0.0080353 0.0111927 0)
(-0.0124873 0.0116762 0)
(-0.0170191 0.0117532 0)
(-0.0215267 0.0116536 0)
(-0.0259603 0.0113919 0)
(-0.0302659 0.010896 0)
(-0.0343594 0.0100506 0)
(-0.0381128 0.0087049 0)
(-0.0413369 0.00668057 0)
(-0.0437671 0.00379036 0)
(-0.0450492 -0.000120649 0)
(-0.0447089 -0.00510934 0)
(-0.0421836 -0.0110278 0)
(-0.036948 -0.0172793 0)
(-0.0287917 -0.0225934 0)
(-0.0184576 -0.0248379 0)
(-0.006996 -0.0214983 0)
(-0.000583165 -0.0096053 0)
(-0.00072855 0.00737844 0)
(-0.00373067 0.0134296 0)
(-0.00825945 0.0156193 0)
(-0.0128608 0.0162697 0)
(-0.0175657 0.0163704 0)
(-0.0222842 0.0162422 0)
(-0.0269909 0.0159125 0)
(-0.0316626 0.0152927 0)
(-0.0362514 0.0142332 0)
(-0.0406677 0.0125305 0)
(-0.0447531 0.0099276 0)
(-0.0482454 0.00612804 0)
(-0.0507364 0.000845692 0)
(-0.0516424 -0.00610057 0)
(-0.0501371 -0.0146656 0)
(-0.0452306 -0.0241484 0)
(-0.036129 -0.0327098 0)
(-0.0232331 -0.0367956 0)
(-0.00794957 -0.0316505 0)
(-6.73301e-05 -0.0132456 0)
(-0.000710449 0.00954952 0)
(-0.00372639 0.0173371 0)
(-0.00832002 0.0201479 0)
(-0.0130034 0.02099 0)
(-0.0178247 0.0211523 0)
(-0.0227146 0.0210579 0)
(-0.027682 0.0207563 0)
(-0.0327488 0.0201504 0)
(-0.0379229 0.0190627 0)
(-0.0431806 0.0172374 0)
(-0.0484317 0.0143281 0)
(-0.0534607 0.00989482 0)
(-0.057853 0.0034383 0)
(-0.0609432 -0.00550668 0)
(-0.0616199 -0.0171707 0)
(-0.0582209 -0.0310107 0)
(-0.0487598 -0.0447314 0)
(-0.0322456 -0.0526694 0)
(-0.0102066 -0.045167 0)
(0.000746322 -0.0171022 0)
(-0.000681376 0.0116935 0)
(-0.00367989 0.0212622 0)
(-0.00829938 0.0247251 0)
(-0.0130269 0.0257878 0)
(-0.0179258 0.0260573 0)
(-0.0229506 0.0260735 0)
(-0.028152 0.0259212 0)
(-0.0336096 0.0255096 0)
(-0.0394091 0.0246485 0)
(-0.0456284 0.0230411 0)
(-0.0523028 0.0202539 0)
(-0.0593559 0.0156813 0)
(-0.0665075 0.00853498 0)
(-0.0731743 -0.00208021 0)
(-0.0781115 -0.0169278 0)
(-0.0787972 -0.0364094 0)
(-0.0708692 -0.0585374 0)
(-0.0497116 -0.0748499 0)
(-0.0167345 -0.0650444 0)
(0.00144964 -0.0221902 0)
(-0.000643504 0.0137902 0)
(-0.00360341 0.0251771 0)
(-0.00821955 0.0293193 0)
(-0.0129519 0.0306259 0)
(-0.0178761 0.0310425 0)
(-0.0229699 0.0312438 0)
(-0.0283284 0.0313674 0)
(-0.0340985 0.0313518 0)
(-0.0404656 0.0310237 0)
(-0.0476505 0.0300832 0)
(-0.0558935 0.0280486 0)
(-0.0654097 0.0241854 0)
(-0.0762983 0.0174404 0)
(-0.0883929 0.00637691 0)
(-0.100879 -0.0109832 0)
(-0.109962 -0.0371981 0)
(-0.10643 -0.073083 0)
(-0.0798108 -0.106188 0)
(-0.0340683 -0.0967119 0)
(2.49389e-05 -0.0320818 0)
(-0.000598206 0.0158226 0)
(-0.00350336 0.0290587 0)
(-0.0080884 0.0338964 0)
(-0.0127754 0.0354525 0)
(-0.0176481 0.0360357 0)
(-0.0227028 0.0364753 0)
(-0.0280751 0.0369838 0)
(-0.0339788 0.0375578 0)
(-0.0407059 0.0380862 0)
(-0.0486516 0.0383345 0)
(-0.0583389 0.0378807 0)
(-0.0704431 0.0360271 0)
(-0.0858451 0.0316833 0)
(-0.105522 0.0229048 0)
(-0.128976 0.00534097 0)
(-0.149708 -0.0292419 0)
(-0.151251 -0.0873384 0)
(-0.120374 -0.147689 0)
(-0.0692454 -0.145211 0)
(-0.00834765 -0.0548893 0)
(-0.000550037 0.017779 0)
(-0.00339496 0.0328882 0)
(-0.00792633 0.0384169 0)
(-0.0125084 0.0401982 0)
(-0.0172284 0.04093 0)
(-0.0220919 0.0416181 0)
(-0.0272633 0.0425725 0)
(-0.0330089 0.0438814 0)
(-0.0397108 0.0455511 0)
(-0.0479257 0.0475104 0)
(-0.0584721 0.0495707 0)
(-0.0725575 0.0513585 0)
(-0.0920047 0.0520709 0)
(-0.11913 0.0490454 0)
(-0.153313 0.0331247 0)
(-0.182735 -0.0134701 0)
(-0.186059 -0.102402 0)
(-0.158518 -0.193402 0)
(-0.11485 -0.207475 0)
(-0.027241 -0.104305 0)
(-0.000509554 0.0196624 0)
(-0.00331173 0.0366587 0)
(-0.00778326 0.042837 0)
(-0.0121991 0.0447724 0)
(-0.0166491 0.0455795 0)
(-0.0211344 0.0464596 0)
(-0.0258275 0.0478351 0)
(-0.0310128 0.0499118 0)
(-0.0371086 0.0528651 0)
(-0.0447519 0.0568891 0)
(-0.0549354 0.0622231 0)
(-0.0691755 0.069087 0)
(-0.0896847 0.0769374 0)
(-0.119146 0.0811517 0)
(-0.155114 0.0653981 0)
(-0.183661 0.00403094 0)
(-0.186276 -0.11226 0)
(-0.168643 -0.229893 0)
(-0.139165 -0.278435 0)
(-0.0462229 -0.196109 0)
(-0.00049903 0.021511 0)
(-0.00332174 0.0404138 0)
(-0.00775931 0.0471668 0)
(-0.0119535 0.0491315 0)
(-0.0160112 0.0498675 0)
(-0.0199176 0.0507896 0)
(-0.0238295 0.0524391 0)
(-0.0279989 0.0551426 0)
(-0.0327887 0.0592621 0)
(-0.0387471 0.0652989 0)
(-0.0467247 0.0739756 0)
(-0.057944 0.0860434 0)
(-0.0737694 0.100615 0)
(-0.0959244 0.109938 0)
(-0.121082 0.0920707 0)
(-0.139585 0.0186341 0)
(-0.142141 -0.111352 0)
(-0.13545 -0.248672 0)
(-0.126089 -0.339125 0)
(-0.0482094 -0.303764 0)
(-0.000549336 0.0233763 0)
(-0.00350901 0.0441155 0)
(-0.00798951 0.0512215 0)
(-0.0119426 0.0529903 0)
(-0.0155119 0.0534602 0)
(-0.018654 0.0542239 0)
(-0.0214999 0.0558949 0)
(-0.0242242 0.0588857 0)
(-0.0270369 0.0636823 0)
(-0.0302216 0.0709729 0)
(-0.0341667 0.0817225 0)
(-0.0392885 0.0967517 0)
(-0.0456549 0.114611 0)
(-0.0539971 0.125386 0)
(-0.0629664 0.106052 0)
(-0.0684862 0.0278762 0)
(-0.0722522 -0.102126 0)
(-0.075688 -0.244175 0)
(-0.0932743 -0.364591 0)
(-0.0354349 -0.381614 0)
(-0.000765751 0.0255811 0)
(-0.00416008 0.04839 0)
(-0.00879735 0.0557754 0)
(-0.0124106 0.0571367 0)
(-0.0153438 0.0569626 0)
(-0.017577 0.0571107 0)
(-0.019189 0.0582861 0)
(-0.0202401 0.0609444 0)
(-0.0207614 0.0655928 0)
(-0.0207191 0.0729136 0)
(-0.0200091 0.0838138 0)
(-0.0181838 0.098817 0)
(-0.0145334 0.11635 0)
(-0.00867974 0.126387 0)
(-0.00287106 0.107861 0)
(0.00248776 0.0318742 0)
(-0.00668947 -0.089408 0)
(-0.0212114 -0.222342 0)
(-0.0638487 -0.365231 0)
(-0.0216164 -0.434665 0)
(-0.00111032 0.0282955 0)
(-0.00496792 0.0518947 0)
(-0.0100932 0.0585342 0)
(-0.0136281 0.0587609 0)
(-0.0161083 0.0578422 0)
(-0.0174118 0.0574792 0)
(-0.0176831 0.0582046 0)
(-0.0169468 0.0603291 0)
(-0.0151101 0.0642563 0)
(-0.0118857 0.0705169 0)
(-0.00687771 0.0797568 0)
(0.000983721 0.0921169 0)
(0.0124983 0.106221 0)
(0.0288638 0.113655 0)
(0.043517 0.0976404 0)
(0.05588 0.0322588 0)
(0.0420589 -0.0728636 0)
(0.0224599 -0.188482 0)
(-0.0413795 -0.350174 0)
(-0.00992797 -0.470552 0)
(-0.00319264 0.0305347 0)
(-0.00941174 0.0590445 0)
(-0.0138488 0.0655683 0)
(-0.0163041 0.0651669 0)
(-0.017375 0.0624819 0)
(-0.0174116 0.0602578 0)
(-0.0164082 0.0591463 0)
(-0.0142056 0.0594532 0)
(-0.010521 0.0614548 0)
(-0.00488211 0.0654386 0)
(0.00321892 0.0717707 0)
(0.0150675 0.0802683 0)
(0.0307862 0.0896184 0)
(0.051931 0.093578 0)
(0.0702611 0.0810323 0)
(0.0870007 0.0324696 0)
(0.0708038 -0.0499499 0)
(0.0510525 -0.145764 0)
(-0.0263661 -0.327023 0)
(0.00275571 -0.492789 0)
(-0.00095846 0.043966 0)
(-0.00768683 0.0605259 0)
(-0.0171517 0.062817 0)
(-0.0196242 0.0589131 0)
(-0.0210427 0.055847 0)
(-0.0202985 0.0538312 0)
(-0.0181228 0.0528106 0)
(-0.0143916 0.0526898 0)
(-0.00891386 0.0535944 0)
(-0.00118211 0.0556096 0)
(0.00924942 0.0591244 0)
(0.02348 0.0638049 0)
(0.0408998 0.0686389 0)
(0.0638277 0.0696596 0)
(0.082044 0.0603804 0)
(0.101167 0.028299 0)
(0.0835004 -0.0304299 0)
(0.0674029 -0.105767 0)
(-0.00915502 -0.303364 0)
(0.0217658 -0.502491 0)
(-0.0125607 0.0322369 0)
(-0.0232654 0.0803748 0)
(-0.0212453 0.0803831 0)
(-0.0256003 0.0754102 0)
(-0.0255335 0.0680054 0)
(-0.0236525 0.0618983 0)
(-0.0196832 0.057029 0)
(-0.0138097 0.0533146 0)
(-0.00609639 0.0507663 0)
(0.00390838 0.0491737 0)
(0.016162 0.0487955 0)
(0.0315784 0.0491317 0)
(0.0486731 0.05047 0)
(0.070776 0.0498716 0)
(0.0857143 0.0455946 0)
(0.1066 0.029454 0)
(0.0934139 -0.00586847 0)
(0.101192 -0.0655751 0)
(0.0400636 -0.274332 0)
(0.0576729 -0.490035 0)
(-0.0776462 0.0958945 0)
(-0.0632556 0.058789 0)
(-0.0652939 0.059969 0)
(-0.042823 0.0533372 0)
(-0.0250817 0.046369 0)
(-0.00449045 0.0412044 0)
(0.0149508 0.037442 0)
(0.0347696 0.0342525 0)
(0.0531697 0.0319487 0)
(0.0731909 0.0298686 0)
(0.0906595 0.0287154 0)
(0.112971 0.0276651 0)
(0.128735 0.0270654 0)
(0.157782 0.0260918 0)
(0.167782 0.0208735 0)
(0.203069 0.0120384 0)
(0.191952 -0.0212278 0)
(0.223284 -0.0742894 0)
(0.154363 -0.251891 0)
(0.124978 -0.433492 0)
(0.119389 0.140765 0)
(0.151996 0.086077 0)
(0.228434 0.0635011 0)
(0.283898 0.0480445 0)
(0.325318 0.037415 0)
(0.363631 0.0296567 0)
(0.392345 0.0242272 0)
(0.42356 0.0201811 0)
(0.443504 0.0172843 0)
(0.472092 0.0149831 0)
(0.484917 0.0132849 0)
(0.514325 0.0119709 0)
(0.519837 0.0108458 0)
(0.552168 0.00964982 0)
(0.547247 0.0076399 0)
(0.579468 0.00322107 0)
(0.548132 -0.00585146 0)
(0.553696 -0.027149 0)
(0.420052 -0.0732181 0)
(0.275246 -0.151978 0)
)
;

boundaryField
{
    movingWall
    {
        type            fixedValue;
        value           uniform (1 0 0);
    }
    fixedWalls
    {
        type            noSlip;
    }
    frontAndBack
    {
        type            empty;
    }
}


// ************************************************************************* //
