/*--------------------------------*- C++ -*----------------------------------*\
  =========                 |
  \\      /  F ield         | OpenFOAM: The Open Source CFD Toolbox
   \\    /   O peration     | Website:  https://openfoam.org
    \\  /    A nd           | Version:  10
     \\/     M anipulation  |
\*---------------------------------------------------------------------------*/
FoamFile
{
    format      ascii;
    class       surfaceScalarField;
    location    "8.375";
    object      phi;
}
// * * * * * * * * * * * * * * * * * * * * * * * * * * * * * * * * * * * * * //

dimensions      [0 3 -1 0 0 0 0];

internalField   nonuniform List<scalar> 
760
(
-1.25976e-05
1.25977e-05
-4.05967e-05
2.79991e-05
-7.42807e-05
3.3684e-05
-0.000109787
3.55062e-05
-0.000145908
3.61209e-05
-0.000182296
3.63879e-05
-0.000218603
3.63074e-05
-0.000254155
3.55516e-05
-0.000287797
3.36423e-05
-0.00031778
2.99833e-05
-0.000341675
2.38945e-05
-0.000356355
1.46799e-05
-0.000358145
1.79028e-06
-0.000343156
-1.49895e-05
-0.000308346
-3.48096e-05
-0.000252893
-5.54531e-05
-0.000180248
-7.26455e-05
-0.000100197
-8.00509e-05
-3.01414e-05
-7.00552e-05
-3.01414e-05
-3.01286e-05
4.27263e-05
-8.4986e-05
8.28565e-05
-0.000149047
9.77454e-05
-0.000215916
0.000102375
-0.000283133
0.000103338
-0.000349544
0.0001028
-0.000414082
0.000100845
-0.000475266
9.6736e-05
-0.000530969
8.93452e-05
-0.000578252
7.7266e-05
-0.000613272
5.89148e-05
-0.000631218
3.2626e-05
-0.000627166
-2.26186e-06
-0.00059531
-4.68454e-05
-0.000531714
-9.84061e-05
-0.000435672
-0.000151495
-0.000312758
-0.00019556
-0.000178259
-0.00021455
-5.89804e-05
-0.000189334
-8.91218e-05
-3.8148e-05
8.08743e-05
-0.000105581
0.00015029
-0.000183479
0.000175643
-0.000264197
0.000183093
-0.00034483
0.00018397
-0.000423996
0.000181965
-0.000500455
0.000177304
-0.000572575
0.000168856
-0.000638065
0.000154836
-0.000693769
0.00013297
-0.000735501
0.000100646
-0.00075813
5.52557e-05
-0.000755195
-5.19761e-06
-0.000719809
-8.22307e-05
-0.00064611
-0.000172106
-0.000531704
-0.0002659
-0.000382021
-0.000345244
-0.00021595
-0.00038062
-6.92703e-05
-0.000336013
-0.000158392
-4.12256e-05
0.0001221
-0.000114136
0.0002232
-0.000198109
0.000259617
-0.000284974
0.000269958
-0.000371819
0.000270815
-0.000457414
0.00026756
-0.000540742
0.000260632
-0.000620444
0.000248559
-0.000694524
0.000228915
-0.000760052
0.000198497
-0.000812827
0.000153421
-0.000847047
8.94765e-05
-0.000855579
3.3341e-06
-0.000828368
-0.000109442
-0.00075575
-0.000244724
-0.000630619
-0.00039103
-0.000455265
-0.000520598
-0.00025272
-0.000583165
-7.46624e-05
-0.000514071
-0.000233055
-4.20583e-05
0.000164158
-0.000117267
0.000298408
-0.000204093
0.000346442
-0.000294164
0.00036003
-0.000384764
0.000361415
-0.000475042
0.000357838
-0.000564477
0.000350067
-0.000652311
0.000336392
-0.000737199
0.000313804
-0.00081682
0.000278118
-0.000887315
0.000223917
-0.000942542
0.000144704
-0.000973194
3.39862e-05
-0.000966857
-0.000115779
-0.000906654
-0.000304927
-0.000776536
-0.000521149
-0.000569882
-0.000727252
-0.000310393
-0.000842655
-8.11238e-05
-0.00074334
-0.000314178
-4.19733e-05
0.000206131
-0.000118178
0.000374613
-0.000206616
0.000434881
-0.000298828
0.000452241
-0.000392382
0.000454969
-0.000486959
0.000452415
-0.000582754
0.000445863
-0.000679915
0.000433552
-0.000778168
0.000412057
-0.000876339
0.000376289
-0.000971576
0.000319154
-0.00105816
0.000231284
-0.00112572
0.000101545
-0.00115853
-8.29651e-05
-0.00113123
-0.000332226
-0.00101184
-0.000640538
-0.000770975
-0.000968117
-0.000419223
-0.00119441
-9.70584e-05
-0.0010655
-0.000411237
-4.14559e-05
0.000247587
-0.000118064
0.000451221
-0.00020751
0.000524327
-0.000301245
0.000545976
-0.000397159
0.000550883
-0.000495558
0.000550813
-0.000597551
0.000547856
-0.000704511
0.000540512
-0.000817763
0.000525309
-0.000938094
0.00049662
-0.00106488
0.000445938
-0.00119459
0.000360997
-0.00131826
0.000225218
-0.0014211
1.98689e-05
-0.00146735
-0.000285974
-0.00139998
-0.000707908
-0.00113692
-0.00123117
-0.000643553
-0.00168778
-0.000150297
-0.00155876
-0.000561534
-4.06293e-05
0.000288217
-0.000117237
0.000527829
-0.000207151
0.00061424
-0.000301653
0.000640478
-0.000398928
0.000648159
-0.000499944
0.000651829
-0.000606851
0.000654764
-0.000722559
0.000656221
-0.000850586
0.000653336
-0.00099479
0.000640824
-0.00115876
0.000609912
-0.00134455
0.000546783
-0.00155047
0.000431142
-0.00176442
0.000233818
-0.00195617
-9.42286e-05
-0.00201572
-0.00064836
-0.00176008
-0.00148681
-0.00108177
-0.00236609
-0.000311928
-0.00232861
-0.000873462
-3.95579e-05
0.000327775
-0.000115824
0.000604094
-0.000205564
0.000703981
-0.000299741
0.000734655
-0.000396749
0.000745166
-0.00049817
0.000753251
-0.000607195
0.000763789
-0.000728371
0.000777397
-0.000867814
0.000792778
-0.00103353
0.000806538
-0.00123563
0.00081202
-0.00148651
0.00079766
-0.00180028
0.000744913
-0.00218253
0.000616061
-0.00258693
0.000310171
-0.00284008
-0.000395206
-0.0026143
-0.00171258
-0.00178228
-0.00319811
-0.000694106
-0.00341678
-0.00156757
-3.8419e-05
0.000366194
-0.000114158
0.000679833
-0.000203028
0.000792851
-0.000295462
0.000827089
-0.000389915
0.000839619
-0.000488438
0.000851774
-0.000595072
0.000870422
-0.000715807
0.000898131
-0.000859252
0.000936224
-0.00103785
0.000985137
-0.00126984
0.00104401
-0.00158186
0.00110967
-0.00200799
0.00117104
-0.0025677
0.00117578
-0.00317928
0.000921743
-0.00356358
-1.09043e-05
-0.00340386
-0.0018723
-0.00261556
-0.00398641
-0.00132638
-0.00470596
-0.00289395
-3.76208e-05
0.000403814
-0.000113043
0.000755256
-0.000200451
0.000880258
-0.000289539
0.000916177
-0.000378628
0.000928709
-0.000469988
0.000943133
-0.000568077
0.000968512
-0.000679633
0.00100969
-0.00081478
0.00107137
-0.000989089
0.00115945
-0.00122701
0.00128194
-0.00156528
0.00144794
-0.00204549
0.00165125
-0.00267133
0.00180161
-0.0033162
0.00156662
-0.00370736
0.000380257
-0.00364337
-0.00193629
-0.00310641
-0.00452337
-0.00187811
-0.00593426
-0.00477206
-3.80066e-05
0.000441821
-0.000114106
0.000831356
-0.000199753
0.000965905
-0.000283817
0.00100024
-0.000364471
0.00100936
-0.000443912
0.00102258
-0.000526355
0.00105095
-0.000618043
0.00110138
-0.000728394
0.00118172
-0.000871929
0.00130298
-0.00107095
0.00148095
-0.00135586
0.00173286
-0.00175252
0.00204791
-0.00223579
0.00228488
-0.00269483
0.00202566
-0.00296776
0.000653182
-0.0030186
-0.00188544
-0.00279075
-0.00475122
-0.00186879
-0.00685622
-0.00664085
-4.06794e-05
0.0004825
-0.000119508
0.000910185
-0.000203831
0.00105023
-0.000281701
0.00107811
-0.000351056
0.00107872
-0.000413829
0.00108535
-0.000473446
0.00111057
-0.00053411
0.00116204
-0.000601672
0.00124928
-0.00068436
0.00138567
-0.000793278
0.00158987
-0.000938638
0.00187822
-0.00112328
0.00223255
-0.00131792
0.00247952
-0.00149376
0.0022015
-0.0016133
0.000772722
-0.00174975
-0.001749
-0.0018662
-0.00463476
-0.00143606
-0.00728636
-0.00807691
-4.94209e-05
0.000531921
-0.000135256
0.00099602
-0.000218133
0.0011331
-0.000287169
0.00114715
-0.000342122
0.00113367
-0.000384939
0.00112817
-0.00041717
0.0011428
-0.000440322
0.00118519
-0.000455466
0.00126443
-0.000462568
0.00139277
-0.000459528
0.00158683
-0.000436775
0.00185547
-0.0003814
0.00217717
-0.000287899
0.00238602
-0.0002045
0.0021181
-0.000224116
0.000792337
-0.000451594
-0.00152152
-0.000919441
-0.00416692
-0.000961748
-0.00724406
-0.00903866
-6.07546e-05
0.000592676
-0.000157537
0.0010928
-0.000243824
0.00121939
-0.000309085
0.00121241
-0.000350785
0.00117537
-0.00037175
0.00114913
-0.000373669
0.00114472
-0.00035623
0.00116775
-0.000316626
0.00122482
-0.000248113
0.00132426
-0.000138463
0.00147718
3.27283e-05
0.00168428
0.000280328
0.00192957
0.000593719
0.00207263
0.00087007
0.00184175
0.000897261
0.000765146
0.000543533
-0.00116779
-0.000208017
-0.00341537
-0.000586564
-0.00686551
-0.00962522
-0.000128425
0.000721101
-0.000239624
0.001204
-0.000310278
0.00129005
-0.00034861
0.00125074
-0.000364326
0.00119109
-0.000360707
0.00114551
-0.000335982
0.00111999
-0.000285481
0.00111725
-0.000202313
0.00114166
-7.59856e-05
0.00119793
0.000108836
0.00129236
0.000368556
0.00142456
0.000721967
0.00157616
0.00114372
0.00165088
0.00151147
0.001474
0.00157735
0.000699265
0.00117013
-0.000760572
0.000295641
-0.00254088
-0.000273865
-0.006296
-0.00989909
-8.29272e-05
0.000804028
-0.000259642
0.00138072
-0.00037009
0.00140049
-0.000421713
0.00130236
-0.000431098
0.00120047
-0.0004085
0.00112291
-0.000356323
0.00106782
-0.00027167
0.0010326
-0.000148411
0.0010184
2.53594e-05
0.00102416
0.000260438
0.00105728
0.000573496
0.0011115
0.000969366
0.00118029
0.00142107
0.00119917
0.00181343
0.00108164
0.00189858
0.00061412
0.00149505
-0.000357042
0.000674749
-0.00172058
0.000103431
-0.00572469
-0.00979566
-0.000378763
0.00118279
-0.000435436
0.00143739
-0.000482497
0.00144755
-0.000517996
0.00133786
-0.000506066
0.00118854
-0.00045274
0.00106959
-0.000361548
0.000976626
-0.000230578
0.00090163
-6.01605e-05
0.000847979
0.000156824
0.000807176
0.000425256
0.00078885
0.000755423
0.000781332
0.00114195
0.00079376
0.00155143
0.000789695
0.00192054
0.000712529
0.00206403
0.000470634
0.00193818
-0.000231193
0.00153645
-0.00131885
0.000858843
-0.00504708
-0.00893681
-0.00136275
0.00254554
-0.00132533
0.00139997
-0.00106553
0.00118775
-0.000693455
0.000965789
-0.000301063
0.000796148
9.55403e-05
0.000672985
0.000485357
0.000586809
0.000867698
0.000519289
0.00124472
0.000470959
0.00162179
0.000430099
0.00200648
0.000404162
0.00240489
0.000382924
0.00283217
0.000366482
0.00327763
0.000344237
0.00372149
0.000268661
0.00405618
0.000135951
0.00414323
-0.000318247
0.00397806
-0.00115368
0.00252052
-0.00358954
-0.0064163
0.00254554
0.00394551
0.00513326
0.00609905
0.0068952
0.00756818
0.00815499
0.00867428
0.00914524
0.00957534
0.0099795
0.0103624
0.0107289
0.0110731
0.0113418
0.0114778
0.0111595
0.0100058
0.0064163
)
;

boundaryField
{
    movingWall
    {
        type            calculated;
        value           uniform 0;
    }
    fixedWalls
    {
        type            calculated;
        value           uniform 0;
    }
    frontAndBack
    {
        type            empty;
        value           nonuniform List<scalar> 0();
    }
}


// ************************************************************************* //
