/*--------------------------------*- C++ -*----------------------------------*\
  =========                 |
  \\      /  F ield         | OpenFOAM: The Open Source CFD Toolbox
   \\    /   O peration     | Website:  https://openfoam.org
    \\  /    A nd           | Version:  10
     \\/     M anipulation  |
\*---------------------------------------------------------------------------*/
FoamFile
{
    format      ascii;
    class       surfaceScalarField;
    location    "2.3";
    object      phi;
}
// * * * * * * * * * * * * * * * * * * * * * * * * * * * * * * * * * * * * * //

dimensions      [0 3 -1 0 0 0 0];

internalField   nonuniform List<scalar> 
928
(
0.0971373
0.0028627
0.102892
-0.00575471
0.107182
-0.00428989
-0.00896112
0.116143
0.0958244
0.00703832
0.10553
-0.0154607
0.103895
-0.0026549
-0.0172463
0.112181
0.0960438
0.0109945
0.107404
-0.0268207
0.104422
0.00032725
-0.0352187
0.122394
0.1022
0.00879471
0.0959962
-0.0206171
0.0974981
-0.00117465
0.147056
-0.0847763
0.111082
0.00506113
-0.0174252
0.128507
0.110175
0.00706713
-0.0415618
0.134311
0.126361
0.00310031
-0.0444786
0.129278
0.150156
0.105677
0.128983
-0.00047634
0.130486
-0.00150296
0.131723
-0.00123652
-0.00111269
0.132836
0.135476
-0.00164145
0.13694
-0.00296623
0.137252
-0.00154892
-0.00103514
0.137175
0.137186
-0.00955024
0.141866
-0.00764539
0.136822
0.00349483
-0.000783601
0.13657
0.1129
-0.0167728
0.111759
-0.00650439
0.104892
0.0103622
0.105453
-0.00134487
0.133007
-0.000171591
0.132246
0.000760716
0.130565
0.0016815
0.127547
0.0030175
0.124829
0.0027181
0.122018
0.00281146
0.120543
0.00147525
0.119138
0.00140461
0.118387
0.000751292
0.118567
-0.000180661
0.120413
-0.00184589
0.122416
-0.00200256
0.124103
-0.00168724
0.125715
-0.00161185
0.126507
-0.000791926
0.127124
-0.000617246
0.12631
0.000814332
0.125188
0.00112148
0.12305
0.0021379
0.121173
0.00187693
0.119542
0.00163116
0.118412
0.00112988
0.118238
0.000174079
0.118039
0.000199497
0.118681
-0.000641976
0.118212
0.000468573
0.117532
0.000680579
0.114967
0.00256427
0.111527
0.00344072
0.106966
0.00456073
0.102277
0.00468896
0.0991807
0.00309624
0.0965781
0.00260264
0.0972095
-0.000631373
0.0986828
-0.00147335
0.102493
-0.0038098
0.106294
-0.00380098
0.109478
-0.00318408
0.112188
-0.00271037
0.000395495
0.137039
-3.58074e-05
0.136652
0.00114756
0.13525
0.00308368
0.133833
0.00443416
0.131266
0.00528499
0.128469
0.00560909
0.126783
0.00316048
0.124894
0.00329416
0.124851
0.000793873
0.125576
-0.000905507
0.127232
-0.00350215
0.128999
-0.00376975
0.13133
-0.00401759
0.133661
-0.00394269
0.135524
-0.00265564
0.136769
-0.00186186
0.136886
0.000697639
0.136396
0.00161161
0.134713
0.00382045
0.133301
0.00328878
0.131613
0.00331933
0.130649
0.00209353
0.130897
-7.40563e-05
0.131325
-0.000227658
0.132783
-0.00210033
0.133272
-1.99287e-05
0.133387
0.000564995
0.13153
0.00442101
0.128854
0.00611745
0.12576
0.00765477
0.121573
0.00887522
0.118264
0.00640522
0.114912
0.00595507
0.11448
-0.000199601
0.115129
-0.00212196
0.117616
-0.00629688
0.120925
-0.00710993
0.123305
-0.00556471
0.126802
-0.00620704
-0.000809216
0.134156
0.00237884
0.133453
0.00185027
0.133466
0.00307024
0.130606
0.00729406
0.128154
0.00773774
0.127256
0.00650665
0.124601
0.00581547
0.123556
0.00433939
0.123005
0.00134453
0.123073
-0.000972975
0.122588
-0.00301789
0.123623
-0.00480482
0.125782
-0.00617605
0.127337
-0.00549764
0.129043
-0.00436171
0.13007
-0.00288879
0.131249
-0.000481361
0.130931
0.00192956
0.130911
0.00383997
0.13023
0.00396994
0.129709
0.00384044
0.129185
0.00261806
0.128266
0.000844125
0.128406
-0.000367477
0.12924
-0.00293394
0.131415
-0.00219552
0.134109
-0.00212885
0.136539
0.00199143
0.137322
0.00533422
0.135827
0.00915009
0.132726
0.0119755
0.129167
0.00996488
0.126743
0.00837926
0.123969
0.00257398
0.12104
0.000806685
0.119265
-0.00452157
0.118353
-0.00619781
0.118421
-0.00563289
0.120575
-0.00836045
-0.00275979
0.109073
-0.00124093
0.112066
-0.00114306
0.114225
0.000911654
0.111209
0.0103101
0.113998
0.00494874
0.115962
0.00454276
0.110336
0.0114409
0.106139
0.00853609
0.104936
0.00254741
0.0993917
0.00457175
0.0928666
0.0035072
0.0895389
-0.00147704
0.0867769
-0.00341413
0.0855214
-0.00424206
0.0859759
-0.00481621
0.0872951
-0.00420797
0.0883102
-0.00149654
0.0889378
0.00130204
0.088036
0.00474173
0.0841677
0.00783822
0.0797637
0.00824447
0.0760859
0.00629589
0.0737805
0.0031495
0.0734447
-3.16729e-05
0.0760564
-0.00554561
0.0815633
-0.00770242
0.0881428
-0.00870836
0.0970636
-0.00692943
0.105422
-0.00302424
0.112723
0.00184944
0.117592
0.0071065
0.11744
0.0101165
0.112729
0.0130906
0.101788
0.0135143
0.090968
0.0116272
0.0811059
0.00534051
0.0761617
-0.00125359
0.0759801
-0.00545135
0.0802283
-0.0126087
-0.00761529
0.108156
0.000638475
0.0875079
3.11991e-05
0.0844312
0.00190203
-0.000345049
0.110682
-0.0100439
0.0888594
0.0218542
0.0898237
0.000937781
0.0894786
-0.00875709
-0.00801573
0.0215925
-0.036854
-0.00544473
0.0373994
-0.00933911
0.0025495
-0.0140171
0.00600137
-0.033157
-0.0177141
-0.00855783
0.0128003
0.00415587
-0.0220528
0.0121823
-0.0108737
0.00443764
0.00660161
0.0226543
-0.017305
0.010028
0.0229364
0.00971359
0.00526318
0.0260178
-0.0117615
0.0221126
0.0153462
0.0184955
0.0121532
0.0204457
0.000597196
0.0186446
0.00637288
0.0147818
0.00736992
0.0117149
0.00158985
0.0108933
-0.00259245
0.0104571
-0.0038059
0.010348
-0.00470706
0.011152
-0.00501201
0.0121787
-0.0025232
0.012601
0.000879738
0.0134459
0.00389676
0.0149343
0.00634983
0.0162919
0.00688693
0.0177402
0.00484757
0.0198568
0.00103285
0.02327
-0.00344482
0.0266327
-0.00890828
0.0308475
-0.0119172
0.0368609
-0.0147217
0.0421824
-0.0122509
0.0465075
-0.00734931
0.0500264
-0.00166955
0.0505232
0.00660972
0.0486387
0.0120011
0.0457424
0.0159868
0.0428781
0.0163786
0.0419307
0.0125746
0.0424187
0.00485246
0.0427815
-0.00161639
0.0452947
-0.00796455
0.0480393
-0.0153533
-0.00843049
-0.00929024
0.00257238
-0.00486552
0.0021769
-0.0135134
-0.00865721
-0.000228874
0.00965191
0.00693679
-0.00190249
-0.000892993
-0.00393169
0.00705546
0.00739773
0.018385
0.000823638
0.0167582
0.00222399
0.0179569
0.00517418
0.0228488
0.00247805
0.0237925
0.000646188
0.0217479
-0.000547929
0.0196972
-0.00175512
0.0180571
-0.00306698
0.0169995
-0.00395445
0.0174106
-0.00293433
0.019165
-0.000874574
0.0221704
0.000891335
0.0265204
0.00199976
0.0314417
0.00196567
0.0347752
0.00151407
0.0380075
-0.00219945
0.0400738
-0.00551107
0.0394263
-0.00826083
0.0378329
-0.0103238
0.0355078
-0.0123966
0.0342384
-0.0109816
0.034683
-0.00779387
0.0361007
-0.00308733
0.0390726
0.00363783
0.0435541
0.00751962
0.0477239
0.0118171
0.0536945
0.0104079
0.059304
0.00696517
0.0619983
0.00215812
0.0638552
-0.00347322
0.0623862
-0.00649558
0.0573577
-0.0103248
-0.00589016
0.100841
-0.0108853
0.0915002
0.0311954
0.0940035
-0.00156556
0.0381381
0.145344
0.0964611
-0.00734647
0.111298
0.0163585
0.106564
0.00316888
0.0177475
0.126954
0.0958396
-0.00318609
0.106351
0.00584744
0.104929
0.00459079
0.00843628
0.11424
0.0968139
0.102661
0.107252
0.115688
0.146893
-0.00154948
0.047326
0.0995675
0.132388
-0.00698303
0.0412034
0.13851
0.111943
-0.00468624
0.0163742
0.136772
0.111002
0.127376
0.101876
0.00369251
0.0823161
0.00184618
0.0919082
0.00320814
-0.00413144
0.0739868
0.140962
0.00124118
0.144355
-0.00154687
0.145248
0.00231459
0.00203609
0.139081
0.138239
-0.000225184
0.136609
8.28557e-05
0.13788
0.00104373
0.00164478
0.138271
0.127151
0.127234
0.128278
0.129923
0.076901
-0.000341881
0.0789228
0.000155109
0.0725124
-0.00224677
0.0814083
0.000755999
0.0805242
-0.00101835
0.0804598
-0.0038673
0.0889692
-0.00111169
0.0910058
-0.00121293
0.0965633
-0.00333352
0.103106
-0.00136832
0.10736
-0.00177611
0.110822
-0.0028163
0.113859
-0.00358428
0.115699
-0.0035958
0.114645
-0.00201202
0.112102
-0.00141243
0.107607
0.00156072
0.104923
0.00180998
0.102361
0.00345302
0.102356
0.00200454
0.104329
-6.42978e-06
0.10846
-0.00261752
0.113124
-0.00686376
0.116217
-0.00860354
0.119473
-0.0115172
0.118215
-0.00906517
0.113244
-0.00742613
0.105592
-0.00332976
0.0968659
0.000932648
0.0896604
0.00411811
0.0850779
0.00822039
0.0860787
0.00651876
0.0896266
0.00826914
0.0969132
0.00312127
0.103401
0.000477254
0.111546
-0.00598683
0.118361
-0.0102881
0.122156
-0.0102903
0.123457
-0.0116257
-0.00370074
0.138189
0.000549734
0.137886
0.000458614
0.136968
-0.00132926
0.139675
-0.0019504
0.140075
-0.00141843
0.137295
-0.00108711
0.138854
-0.00267138
0.139327
-0.00168575
0.13825
-0.00225604
0.138806
-0.00192515
0.139142
-0.00211141
0.138487
-0.00216118
0.136835
-0.00193246
0.135444
-0.00220484
0.133974
-0.000541767
0.132879
-0.000317444
0.132226
0.00221363
0.132034
0.00200176
0.132654
0.00283262
0.13315
0.00150873
0.133736
-0.000592857
0.133644
-0.00252535
0.132219
-0.00543836
0.128972
-0.00535696
0.125308
-0.00785284
0.121724
-0.00548103
0.119406
-0.00510787
0.11707
-0.000994609
0.115896
0.00210658
0.116146
0.00386807
0.117465
0.00690213
0.119904
0.00407994
0.123152
0.00502038
0.127257
-0.000983661
0.12989
-0.00215511
0.130355
-0.00645223
0.128
-0.00793289
0.124324
-0.00661415
0.12041
-0.00771155
-0.000815189
0.137787
0.00103402
0.137917
0.000328595
0.13756
-0.000972015
0.136854
-0.0012451
0.136471
-0.0010348
0.135823
-0.000439063
0.134521
-0.00137003
0.13419
-0.00135437
0.13342
-0.00148602
0.132435
-0.000940654
0.131444
-0.00112021
0.130568
-0.00128533
0.129803
-0.00116678
0.128888
-0.00129049
0.128684
-0.000337505
0.12865
-0.000282876
0.129635
0.00122808
0.130584
0.0010529
0.131856
0.00156018
0.132966
0.000398911
0.132842
-0.00046904
0.131911
-0.00159415
0.129664
-0.00319073
0.127573
-0.0032665
0.123984
-0.00426378
0.12104
-0.00253707
0.118381
-0.00244882
0.117342
4.47145e-05
0.118252
0.00119588
0.11987
0.00225031
0.12321
0.00356238
0.125544
0.00174563
0.128564
0.00200062
0.128978
-0.00139767
0.128944
-0.00212101
0.127246
-0.00475409
0.124189
-0.00487633
0.121341
-0.00376597
0.116719
-0.0030895
0.000540334
0.130957
0.131285
0.130313
0.129068
0.128033
0.127594
0.126224
0.12487
0.123384
0.122443
0.121323
0.120038
0.118871
0.11758
0.117243
0.11696
0.118188
0.119241
0.120801
0.1212
0.120731
0.119137
0.115946
0.11268
0.108416
0.105879
0.10343
0.103475
0.10467
0.106921
0.110483
0.112229
0.114229
0.112832
0.110711
0.105957
0.10108
0.0973143
0.0942249
)
;

boundaryField
{
    inlet
    {
        type            calculated;
        value           nonuniform List<scalar> 10(-0.1 -0.1 -0.1 -0.1 -0.1 -0.1 -0.1 -0.1 -0.1 -0.1);
    }
    outlet
    {
        type            calculated;
        value           nonuniform List<scalar> 10(0.111793 0.128007 0.122525 0.0850838 0.0488545 0.0548174 0.121267 0.117524 0.115363 0.0947652);
    }
    obstacle
    {
        type            calculated;
        value           uniform 0;
    }
    upperWall
    {
        type            calculated;
        value           uniform 0;
    }
    lowerWall
    {
        type            calculated;
        value           uniform 0;
    }
    frontAndBack
    {
        type            empty;
        value           nonuniform List<scalar> 0();
    }
}


// ************************************************************************* //
