/*--------------------------------*- C++ -*----------------------------------*\
  =========                 |
  \\      /  F ield         | OpenFOAM: The Open Source CFD Toolbox
   \\    /   O peration     | Website:  https://openfoam.org
    \\  /    A nd           | Version:  10
     \\/     M anipulation  |
\*---------------------------------------------------------------------------*/
FoamFile
{
    format      ascii;
    class       volScalarField;
    location    "7.225";
    object      p;
}
// * * * * * * * * * * * * * * * * * * * * * * * * * * * * * * * * * * * * * //

dimensions      [0 2 -2 0 0 0 0];

internalField   nonuniform List<scalar> 
400
(
4.52894e-09
-2.17415e-05
3.04118e-05
0.000130871
0.000286581
0.000499704
0.000773319
0.00111105
0.00151589
0.0019892
0.00252936
0.00313
0.0037779
0.00445088
0.00511576
0.00572918
0.00624042
0.00660009
0.00680003
0.00675986
2.35206e-05
1.20305e-06
5.90067e-05
0.000160519
0.000314219
0.000523078
0.000790674
0.00112093
0.00151713
0.00198105
0.00251174
0.00310369
0.00374409
0.00441337
0.00507851
0.00569594
0.00621301
0.00657827
0.00678651
0.00673639
-3.69531e-05
-6.69517e-05
-1.09239e-05
8.65889e-05
0.000234869
0.000437171
0.000697674
0.00102124
0.00141248
0.00187489
0.00240955
0.00301331
0.0036773
0.00438236
0.00509427
0.00576476
0.00633154
0.00672991
0.0069535
0.00687062
-0.000161622
-0.000197079
-0.000144422
-5.32135e-05
8.67289e-05
0.000279113
0.000529037
0.000842765
0.00122692
0.00168778
0.0022299
0.00285403
0.00355435
0.00431751
0.00510772
0.00587018
0.00652662
0.00698578
0.007239
0.00710414
-0.000357205
-0.000397495
-0.000350259
-0.00026809
-0.000139885
3.86388e-05
0.000273713
0.000573364
0.000946808
0.00140401
0.0019545
0.00260445
0.00335134
0.0041999
0.00510408
0.00600505
0.0068027
0.00736263
0.00766557
0.00743677
-0.00062258
-0.000667928
-0.000628236
-0.000558262
-0.000446114
-0.000286962
-7.34221e-05
0.000204411
0.000558663
0.00100373
0.00155582
0.00223151
0.00304491
0.00397912
0.00502925
0.0061267
0.00714053
0.00786603
0.00825219
0.00784932
-0.000954468
-0.00100564
-0.000975779
-0.00092178
-0.00083119
-0.000698909
-0.0005167
-0.000273087
4.67523e-05
0.000461617
0.000994659
0.00167288
0.00252259
0.00355728
0.00478151
0.00614121
0.00747847
0.00848458
0.00901558
0.00830604
-0.00134864
-0.00140671
-0.00138909
-0.00135534
-0.00129281
-0.00119669
-0.00105868
-0.000866688
-0.000604245
-0.000249241
0.000227726
0.000864913
0.00170871
0.00280505
0.00417866
0.00584146
0.007638
0.0091434
0.00991638
0.00876932
-0.00179969
-0.00186583
-0.00186266
-0.0018534
-0.00182578
-0.00177611
-0.00169731
-0.00157845
-0.00140398
-0.00115152
-0.000789369
-0.000273198
0.000457942
0.00147532
0.00283934
0.00474935
0.00709603
0.00949685
0.0106856
0.00922143
-0.002301
-0.00237631
-0.00238888
-0.00240738
-0.00242068
-0.00242736
-0.00242322
-0.00240096
-0.00234967
-0.00225307
-0.00208678
-0.00181314
-0.00137433
-0.000685439
0.000388176
0.00191276
0.00446365
0.00813465
0.010167
0.00954879
-0.0028451
-0.0029304
-0.0029581
-0.00300532
-0.00306293
-0.00313314
-0.00321662
-0.00331268
-0.00341995
-0.0035364
-0.00365984
-0.0037896
-0.00393479
-0.00414374
-0.00449556
-0.00476822
-0.00353541
0.00117159
0.00565668
0.00858054
-0.00342479
-0.00352006
-0.00355849
-0.00363117
-0.00373159
-0.00386693
-0.00404426
-0.0042721
-0.00456341
-0.00493944
-0.00543774
-0.00612967
-0.00716371
-0.0088843
-0.0118829
-0.0161407
-0.0184317
-0.0135116
-0.00570742
0.0025045
-0.00403591
-0.00414086
-0.00418165
-0.00427123
-0.00440538
-0.00459803
-0.00486399
-0.00522192
-0.00570197
-0.00635479
-0.00727074
-0.0086207
-0.0107488
-0.0143286
-0.0206082
-0.0295408
-0.0369769
-0.0329918
-0.0227376
-0.00952616
-0.00467375
-0.00477901
-0.00479921
-0.00488631
-0.00503837
-0.00527377
-0.00561101
-0.00607782
-0.00671782
-0.00760461
-0.00887019
-0.0107519
-0.0137544
-0.0187018
-0.0271212
-0.0385141
-0.0494031
-0.0466291
-0.0370785
-0.0217404
-0.00536819
-0.00548322
-0.00546369
-0.00553161
-0.0056689
-0.00590761
-0.00627221
-0.00679533
-0.00752605
-0.00854403
-0.00999533
-0.0121064
-0.0154383
-0.020666
-0.0293855
-0.0399809
-0.0520081
-0.0483363
-0.041017
-0.025418
-0.00620055
-0.00612082
-0.00598136
-0.00594449
-0.00604244
-0.0062837
-0.00667632
-0.00723912
-0.00801317
-0.00906717
-0.0105419
-0.0125954
-0.0157245
-0.0204284
-0.0277635
-0.0361665
-0.0436196
-0.0407027
-0.03585
-0.0179528
-0.00668451
-0.00710794
-0.00680572
-0.00680629
-0.00679006
-0.00691117
-0.00718439
-0.00764255
-0.00832545
-0.0092803
-0.0106313
-0.0124335
-0.0151536
-0.01888
-0.0243518
-0.0298401
-0.0344018
-0.0305046
-0.0248334
0.0015142
-0.0100637
-0.00754187
-0.00689818
-0.00630439
-0.00622481
-0.00640195
-0.0067784
-0.00731755
-0.00804079
-0.00896232
-0.0102031
-0.0118197
-0.0141124
-0.0170292
-0.0209882
-0.02416
-0.0259386
-0.0198788
-0.00797836
0.0354908
-0.00674681
-0.00974332
-0.00866453
-0.00867169
-0.00821081
-0.00797168
-0.00791855
-0.00807982
-0.00850144
-0.00917294
-0.0102009
-0.0115913
-0.0137418
-0.0163788
-0.0202751
-0.0228234
-0.023303
-0.0097149
0.0170927
0.094209
-0.0319631
-0.00691606
-0.00538616
-0.0046364
-0.00443665
-0.0046549
-0.00517746
-0.00580195
-0.00663323
-0.00758141
-0.00889812
-0.0104584
-0.0125914
-0.0147216
-0.0166592
-0.0147692
-0.00569213
0.0279833
0.095809
0.227497
)
;

boundaryField
{
    movingWall
    {
        type            zeroGradient;
    }
    fixedWalls
    {
        type            zeroGradient;
    }
    frontAndBack
    {
        type            empty;
    }
}


// ************************************************************************* //
