/*--------------------------------*- C++ -*----------------------------------*\
  =========                 |
  \\      /  F ield         | OpenFOAM: The Open Source CFD Toolbox
   \\    /   O peration     | Website:  https://openfoam.org
    \\  /    A nd           | Version:  10
     \\/     M anipulation  |
\*---------------------------------------------------------------------------*/
FoamFile
{
    format      ascii;
    class       surfaceScalarField;
    location    "7.15";
    object      phi;
}
// * * * * * * * * * * * * * * * * * * * * * * * * * * * * * * * * * * * * * //

dimensions      [0 3 -1 0 0 0 0];

internalField   nonuniform List<scalar> 
890
(
0.00984626
0.000153741
0.00971748
0.000128777
0.00946965
0.000247832
0.00942055
4.90965e-05
0.00014552
0.00927503
0.0101193
3.44321e-05
0.0102014
4.66585e-05
0.0104075
4.17753e-05
0.0104655
-8.87049e-06
-7.00603e-05
0.010681
0.0100715
-3.70872e-05
0.0102157
-9.75071e-05
0.0103779
-0.000120401
0.0105212
-0.000152257
-0.000190643
0.0106418
0.010091
-0.000128042
0.0102136
-0.000220132
0.0103305
-0.000237289
0.0104175
-0.000239263
-0.000251155
0.010478
0.00987196
0.00965183
0.00941454
0.00917527
0.00892412
0.00926532
-0.000107139
0.000116847
0.00929128
-0.000269958
0.000244
0.00936964
-0.000384152
0.000305791
0.00949059
-0.000484352
0.00036341
0.00964571
-0.000592766
0.00043764
0.00983258
-0.000743771
0.000556901
0.0100311
-0.00092887
0.000730319
0.0102361
-0.00115224
0.000947234
0.0104322
-0.00140968
0.00121366
0.0106014
-0.00168385
0.00151459
0.0107325
-0.00195757
0.00182646
0.0108108
-0.00220928
0.00213098
0.0108302
-0.00240565
0.00238628
0.0107779
-0.00251955
0.00257188
0.0106279
-0.00251937
0.00266933
0.010395
-0.00243268
0.00266563
0.0101372
-0.00232842
0.00258621
0.0098639
-0.00216204
0.00243531
0.00957097
-0.00191567
0.0022086
0.00927255
-0.00162003
0.00191845
0.00898227
-0.0012947
0.00158497
0.00870151
-0.000943908
0.00122467
0.00844861
-0.000607193
0.000860093
0.00823803
-0.000305829
0.000516404
0.008069
-4.02395e-05
0.000209272
0.00792998
0.00019592
-5.6906e-05
0.00782706
0.000386203
-0.000283278
0.00775341
0.000528927
-0.000455281
0.00770831
0.000628124
-0.000583025
0.00768174
0.000695172
-0.000668599
0.00765644
0.000740453
-0.000715152
0.00761973
0.000767605
-0.000730891
0.00756702
0.000773726
-0.000721016
0.00750018
0.000747459
-0.000680622
0.00742159
0.000687987
-0.000609394
0.00733097
0.000613084
-0.000522468
0.00723147
0.000551846
-0.000452347
0.00712979
0.000520623
-0.000418938
0.00703376
0.000510213
-0.000414188
0.00694443
0.000508708
-0.000419375
0.00686318
0.000479543
-0.000398293
0.00678448
0.000448206
-0.000369503
0.00671751
0.000360391
-0.000293425
0.00665342
0.00031995
-0.000255862
0.000200043
-0.000158574
0.0107425
-0.000168586
0.0107668
-0.000294305
0.0107942
-0.000411487
0.0108349
-0.000525094
0.0108803
-0.000638119
0.010911
-0.000774475
0.0109187
-0.000936586
0.0109028
-0.00113636
0.0108515
-0.00135838
0.0107616
-0.00159401
0.0106173
-0.00181326
0.0104183
-0.00201027
0.010166
-0.00215337
0.00983607
-0.00218958
0.00940225
-0.00208555
0.00892402
-0.00195445
0.00842432
-0.00182872
0.00792288
-0.0016606
0.0074345
-0.00142729
0.00697729
-0.00116282
0.00656051
-0.000877915
0.00619054
-0.000573933
0.00588012
-0.000296772
0.00563036
-5.60759e-05
0.00544936
0.000140762
0.00533766
0.000307623
0.00528525
0.000438612
0.00527987
0.000534304
0.00530373
0.000604269
0.00534116
0.000657741
0.00538335
0.00069826
0.00542976
0.000721196
0.00548449
0.000718996
0.00554633
0.000685621
0.00560613
0.000628183
0.00565557
0.00056365
0.00569484
0.000512576
0.00573379
0.000481673
0.00577977
0.000464227
0.00584096
0.000447524
0.00590962
0.000410877
0.00599007
0.000367757
0.00606308
0.000287382
0.0061409
0.000242132
0.000140141
0.0107272
-0.000253987
0.0107694
-0.000336486
0.010786
-0.000428068
0.0107822
-0.000521292
0.0107599
-0.000615805
0.0107085
-0.000723141
0.0106234
-0.000851417
0.0104962
-0.00100914
0.010321
-0.00118327
0.0101103
-0.00138328
0.00986121
-0.00156416
0.00957458
-0.00172363
0.0091602
-0.00173898
0.00857705
-0.00160643
0.00793795
-0.00144644
0.00729655
-0.00131305
0.00655081
-0.00108299
0.00576377
-0.000873555
0.00504152
-0.000705035
0.00440161
-0.000522912
0.0038534
-0.000329706
0.00342366
-0.000144192
0.00310539
2.14964e-05
0.00288182
0.000167496
0.00274079
0.00028179
0.00268439
0.000364028
0.00269993
0.000423065
0.00277187
0.000462365
0.00288823
0.000487913
0.00304116
0.000504811
0.00322512
0.000514298
0.00343323
0.000513084
0.00365502
0.000497209
0.00387635
0.000464294
0.00408387
0.000420659
0.00427165
0.000375874
0.00444436
0.000339869
0.00461292
0.000313111
0.00478497
0.00029217
0.00496533
0.000267169
0.00514289
0.000233312
0.00531864
0.000192009
0.0054653
0.000140724
0.00560307
0.000104361
5.0465e-05
0.0105077
-0.000283744
0.0104913
-0.00032009
0.0104323
-0.00036903
0.0103218
-0.000410773
0.0101718
-0.000465807
0.00996308
-0.000514431
0.00970092
-0.000589257
0.00935527
-0.000663494
0.00893955
-0.000767553
0.0084326
-0.000876324
0.00785675
-0.0009883
0.00727231
-0.00113919
0.00654403
-0.00101071
0.00556946
-0.00063186
0.00439609
-0.00027307
0.00312938
-4.63394e-05
0.00200761
3.8781e-05
0.0011656
-3.1543e-05
0.000603768
-0.000143205
0.000286011
-0.000205156
0.000125823
-0.000169518
6.81603e-05
-8.65284e-05
8.32219e-05
6.43471e-06
0.000173515
7.72025e-05
0.000321297
0.000134008
0.000512409
0.000172916
0.000738626
0.000196848
0.000990643
0.000210348
0.00126097
0.000217587
0.00154536
0.000220422
0.00183889
0.000220761
0.00213591
0.000216068
0.0024279
0.000205219
0.00270421
0.000187978
0.00295795
0.000166928
0.00318842
0.000145396
0.00340146
0.000126835
0.00360331
0.000111255
0.00379771
9.77699e-05
0.0039818
8.30814e-05
0.00414791
6.72067e-05
0.0042904
4.95135e-05
0.00439797
3.31567e-05
0.00448249
1.98397e-05
6.44034e-06
0.00864038
0.00832029
0.00795126
0.00754048
0.00707468
0.00656025
0.00597099
0.00530749
0.00453994
0.00366362
0.00267532
0.00153612
0.000525416
-0.000106445
-0.000379515
-0.000425854
-0.000387073
-0.000418616
-0.000561821
-0.000766977
-0.000936495
-0.00102302
-0.00101659
-0.000939386
-0.000805378
-0.000632462
-0.000435614
-0.000225266
-7.67842e-06
0.000212743
0.000433505
0.000649573
0.000854792
0.00104277
0.0012097
0.00135509
0.00148193
0.00159318
0.00169095
0.00177404
0.00184124
0.00189076
0.00192391
0.00194375
5.31022e-05
-5.31022e-05
1.38957e-05
3.92065e-05
-0.000184949
0.000198845
-0.000602501
0.000417552
-0.00116257
0.000560068
-0.00174912
0.000586551
-0.00227821
0.000529087
-0.00271347
0.000435265
-0.00302892
0.000315446
-0.00320657
0.000177648
-0.00323015
2.35802e-05
-0.00310873
-0.000121417
-0.00284639
-0.000262338
-0.00245448
-0.000391915
-0.00195768
-0.000496802
-0.00138827
-0.000569401
-0.00078112
-0.000607154
-0.000162277
-0.000618844
0.000441884
-0.000604161
0.00099994
-0.000558055
0.00148754
-0.0004876
0.00188697
-0.000399431
0.00218879
-0.000301815
0.00239234
-0.000203557
0.00250433
-0.000111987
0.00253863
-3.42998e-05
0.00251201
2.66177e-05
0.00243289
7.91207e-05
0.00230634
0.000126553
0.00214604
0.000160298
0.00197189
0.000174154
0.0018047
0.000167189
0.00166394
0.000140755
0.00155799
0.00010595
0.00148852
6.94688e-05
0.0014537
3.48243e-05
0.00144386
9.84303e-06
0.00145193
-8.07164e-06
0.00147178
-1.98476e-05
0.00150148
-2.9707e-05
0.00153927
-3.77883e-05
0.00158636
-4.70837e-05
0.00163367
-4.73164e-05
0.00168414
-5.04686e-05
-3.69194e-05
-0.000149649
9.65469e-05
-0.000534902
0.00042446
-0.000980667
0.000644609
-0.00138345
0.000820337
-0.0017095
0.000886116
-0.00195984
0.000836893
-0.00213068
0.000699924
-0.00221196
0.00051655
-0.00219276
0.000296238
-0.00205896
4.38549e-05
-0.00182422
-0.000211159
-0.00146709
-0.000478551
-0.000995146
-0.000734281
-0.000423905
-0.000963155
0.000222477
-0.00114318
0.000912097
-0.00125902
0.00162039
-0.00131545
0.0023234
-0.00132186
0.00299055
-0.00127131
0.00360121
-0.00116872
0.00413597
-0.00102236
0.00458119
-0.000844647
0.00492948
-0.00065011
0.00518037
-0.000454441
0.00533992
-0.000271538
0.00541869
-0.000113067
0.00542509
2.02108e-05
0.00537147
0.000132746
0.00528424
0.00021378
0.00518601
0.000258532
0.00508784
0.000272318
0.0049876
0.000267436
0.00487999
0.000248362
0.00477128
0.000214657
0.00466636
0.000174392
0.00455959
0.000141595
0.00444908
0.000120354
0.00433742
0.000103587
0.00423493
8.2638e-05
0.00416173
4.34986e-05
0.00412297
9.71247e-07
0.00412497
-4.90919e-05
0.00414946
-7.18018e-05
0.004196
-9.70115e-05
-8.04649e-05
-0.000504769
0.000601316
-0.000677087
0.000596777
-0.000698503
0.000666026
-0.000622269
0.000744103
-0.000485054
0.000748901
-0.000309979
0.000661818
-0.000102543
0.000492489
0.000146414
0.000267593
0.000446132
-3.48047e-06
0.000819691
-0.000329704
0.00127172
-0.00066319
0.00179148
-0.000998307
0.00236471
-0.00130752
0.00298044
-0.00157888
0.00362217
-0.00178492
0.00426972
-0.00190657
0.00490102
-0.00194675
0.0054949
-0.00191574
0.00603787
-0.00181428
0.00651535
-0.00164619
0.00691535
-0.00142236
0.00722968
-0.00115897
0.00745951
-0.000879937
0.00760904
-0.000603977
0.00768407
-0.000346564
0.00769481
-0.000123807
0.0076515
6.35249e-05
0.00756592
0.000218321
0.0074514
0.000328299
0.00731974
0.000390195
0.00717602
0.000416038
0.00702142
0.000422031
0.00686369
0.000406093
0.0067185
0.000359849
0.0066009
0.000291989
0.00651702
0.00022548
0.00644447
0.000192907
0.00635892
0.000189132
0.0062457
0.00019586
0.00611251
0.00017669
0.00597806
0.000135415
0.00586335
6.56262e-05
0.00578109
1.0455e-05
0.00572639
-4.2315e-05
-5.8559e-05
-0.000222929
0.000824245
-9.95721e-05
0.00047342
0.000172925
0.000393529
0.000575217
0.000341811
0.00105713
0.000266988
0.00157741
0.000141541
0.00211654
-4.66496e-05
0.00266023
-0.000276091
0.00322609
-0.000569343
0.00379922
-0.000902835
0.00438676
-0.00125073
0.00498909
-0.00160064
0.00559576
-0.00191418
0.00618659
-0.00216971
0.00675157
-0.0023499
0.00727557
-0.00243057
0.00774597
-0.00241714
0.00815787
-0.00232765
0.00850496
-0.00216137
0.00878397
-0.0019252
0.0089947
-0.0016331
0.00913744
-0.00130172
0.00921604
-0.000958529
0.00923858
-0.000626523
0.00921621
-0.000324197
0.00915721
-6.48073e-05
0.00905925
0.000161488
0.00893998
0.000337594
0.00880331
0.000464965
0.00864825
0.000545255
0.00848123
0.000583059
0.00831464
0.000588623
0.0081495
0.000571237
0.0079812
0.000528145
0.00781563
0.000457562
0.00766502
0.000376089
0.00754002
0.000317905
0.00743444
0.00029471
0.00733224
0.000298062
0.00721273
0.000296199
0.00707747
0.000270679
0.00692228
0.000220812
0.00677977
0.000152964
0.0066349
0.00010256
4.31873e-05
0.000941093
0.00165851
0.00235783
0.00306305
0.00376768
0.00446612
0.00514979
0.00582094
0.00646526
0.00707701
0.00765274
0.00818308
0.00865518
0.00905734
0.00937678
0.00961183
0.00978091
0.00988856
0.00993579
0.00992904
0.00988092
0.00980388
0.00970544
0.00959532
0.00948039
0.00935868
0.00923689
0.0091192
0.00900114
0.0088778
0.00874571
0.00860344
0.00845366
0.00830118
0.00814935
0.00800297
0.00786853
0.0077443
0.00762818
0.007505
0.00737739
0.00722869
0.00708823
0.00693493
)
;

boundaryField
{
    inlet
    {
        type            calculated;
        value           nonuniform List<scalar> 5(-0.01 -0.01 -0.01 -0.01 -0.01);
    }
    outlet
    {
        type            calculated;
        value           nonuniform List<scalar> 10(0.00661195 0.0062008 0.00569275 0.00452651 0.00195019 0.00172106 0.00423955 0.00570449 0.00653315 0.00681954);
    }
    upperWall
    {
        type            calculated;
        value           uniform 0;
    }
    lowerWall
    {
        type            calculated;
        value           uniform 0;
    }
    frontAndBack
    {
        type            empty;
        value           nonuniform List<scalar> 0();
    }
}


// ************************************************************************* //
