/*--------------------------------*- C++ -*----------------------------------*\
  =========                 |
  \\      /  F ield         | OpenFOAM: The Open Source CFD Toolbox
   \\    /   O peration     | Website:  https://openfoam.org
    \\  /    A nd           | Version:  10
     \\/     M anipulation  |
\*---------------------------------------------------------------------------*/
FoamFile
{
    format      ascii;
    class       surfaceScalarField;
    location    "6.275";
    object      phi;
}
// * * * * * * * * * * * * * * * * * * * * * * * * * * * * * * * * * * * * * //

dimensions      [0 3 -1 0 0 0 0];

internalField   nonuniform List<scalar> 
760
(
-9.58577e-06
9.58577e-06
-3.15422e-05
2.19564e-05
-5.76613e-05
2.61191e-05
-8.45766e-05
2.69153e-05
-0.00011119
2.66131e-05
-0.000137063
2.58729e-05
-0.000161771
2.47086e-05
-0.00018472
2.29487e-05
-0.00020509
2.03705e-05
-0.00022182
1.67294e-05
-0.000233598
1.17778e-05
-0.000238897
5.29893e-06
-0.000236062
-2.83451e-06
-0.00022351
-1.25517e-05
-0.000200064
-2.34461e-05
-0.000165415
-3.46495e-05
-0.000120884
-4.45309e-05
-7.06494e-05
-5.02345e-05
-2.38681e-05
-4.67813e-05
-2.3868e-05
-2.3152e-05
3.27378e-05
-6.57121e-05
6.45164e-05
-0.000114566
7.49727e-05
-0.000164267
7.66166e-05
-0.000212731
7.5077e-05
-0.000258888
7.20297e-05
-0.000301782
6.76029e-05
-0.000340299
6.14652e-05
-0.000373073
5.31451e-05
-0.000398456
4.21126e-05
-0.00041449
2.78112e-05
-0.00041903
9.83946e-06
-0.000409866
-1.19989e-05
-0.000384804
-3.76132e-05
-0.000342412
-6.58381e-05
-0.000282557
-9.45049e-05
-0.00020749
-0.000119598
-0.000123721
-0.000134003
-4.4984e-05
-0.000125518
-6.88521e-05
-2.89007e-05
6.16385e-05
-8.03957e-05
0.000116011
-0.000138826
0.000133403
-0.000197853
0.000135643
-0.000255094
0.000132319
-0.000309328
0.000126264
-0.00035948
0.000117755
-0.000404331
0.000106316
-0.000442412
9.12266e-05
-0.000471948
7.16482e-05
-0.000490857
4.67208e-05
-0.000496747
1.57293e-05
-0.000486808
-2.19384e-05
-0.000458453
-6.59683e-05
-0.000409626
-0.000114665
-0.000339665
-0.000164466
-0.000250692
-0.00020857
-0.000150169
-0.000234527
-5.47969e-05
-0.00022089
-0.000123649
-3.1079e-05
9.27175e-05
-8.65305e-05
0.000171463
-0.000149269
0.000196142
-0.000212573
0.000198947
-0.000274048
0.000193794
-0.000332539
0.000184754
-0.000387056
0.000172271
-0.000436468
0.000155729
-0.000479377
0.000134136
-0.00051401
0.000106281
-0.000538141
7.08519e-05
-0.000549067
2.66553e-05
-0.000543504
-2.75021e-05
-0.000517655
-9.18166e-05
-0.000468113
-0.000164208
-0.000392694
-0.000239885
-0.000292648
-0.000308616
-0.000176262
-0.000350913
-6.40126e-05
-0.00033314
-0.000187662
-3.21508e-05
0.000124868
-9.00894e-05
0.000229402
-0.000155736
0.000261789
-0.000222129
0.00026534
-0.000286948
0.000258613
-0.00034921
0.000247016
-0.000408126
0.000231187
-0.000462774
0.000210377
-0.000511938
0.0001833
-0.000553946
0.000148289
-0.000586473
0.000103379
-0.000606373
4.6555e-05
-0.000609628
-2.42463e-05
-0.000590817
-0.000110628
-0.00054428
-0.000210744
-0.000465116
-0.000319049
-0.000352262
-0.000421469
-0.00021437
-0.000488805
-7.76932e-05
-0.000469817
-0.000265355
-3.30818e-05
0.00015795
-9.33964e-05
0.000289716
-0.000161938
0.000330331
-0.000231501
0.000334902
-0.000299877
0.000326989
-0.000366325
0.000313463
-0.000430357
0.000295219
-0.000491387
0.000271407
-0.000548534
0.000240447
-0.00060039
0.000200145
-0.00064471
0.000147699
-0.000677985
7.98298e-05
-0.000695479
-6.75258e-06
-0.000689533
-0.000116574
-0.000651258
-0.000249019
-0.000571173
-0.000399135
-0.000443491
-0.000549151
-0.000275155
-0.000657142
-0.000100482
-0.00064449
-0.000365836
-3.41338e-05
0.000192084
-9.71049e-05
0.000352687
-0.000168861
0.000402087
-0.000241902
0.000407943
-0.000314158
0.000399245
-0.000385198
0.000384504
-0.00045495
0.000364972
-0.000523326
0.000339783
-0.000590003
0.000307124
-0.000654136
0.000264278
-0.000713925
0.000207488
-0.000765964
0.000131869
-0.000804554
3.18372e-05
-0.000820581
-0.000100546
-0.000800329
-0.000269272
-0.000727347
-0.000472116
-0.000586652
-0.000689846
-0.000377517
-0.000866277
-0.000142036
-0.000879971
-0.000507872
-3.53491e-05
0.000227433
-0.000101329
0.000418667
-0.000176612
0.00047737
-0.000253325
0.000484656
-0.000329555
0.000475475
-0.000405254
0.000460203
-0.000480885
0.000440603
-0.000557055
0.000415954
-0.000634306
0.000384374
-0.000712801
0.000342773
-0.000791804
0.000286492
-0.000868794
0.000208858
-0.000937919
0.000100962
-0.00098965
-4.88146e-05
-0.0010054
-0.000253524
-0.000959299
-0.000518216
-0.00081976
-0.000829384
-0.00056353
-0.00112251
-0.00022717
-0.00121633
-0.000735043
-3.6762e-05
0.000264195
-0.000106128
0.000488034
-0.000185165
0.000556407
-0.000265524
0.000565014
-0.000345457
0.000555408
-0.000425359
0.000540105
-0.000506343
0.000521587
-0.000589912
0.000499523
-0.00067781
0.000472272
-0.000771779
0.000436743
-0.000873053
0.000387765
-0.00098139
0.000317196
-0.00109328
0.000212856
-0.00120056
5.84609e-05
-0.00128385
-0.000170238
-0.00130792
-0.00049414
-0.00121315
-0.000924158
-0.000918931
-0.00141672
-0.00041211
-0.00172315
-0.00114715
-3.84959e-05
0.000302691
-0.00011172
0.000561258
-0.000194668
0.000639354
-0.000278396
0.000648742
-0.000361325
0.000638338
-0.000444329
0.000623109
-0.000529239
0.000606496
-0.000618596
0.00058888
-0.000715671
0.000569347
-0.000824431
0.000545503
-0.000949291
0.000512625
-0.00109441
0.000462312
-0.00126213
0.000380582
-0.00144978
0.000246112
-0.00165149
3.14627e-05
-0.0018238
-0.000321825
-0.00186
-0.000887954
-0.00155024
-0.00172649
-0.000765617
-0.00250777
-0.00191277
-4.08478e-05
0.000343539
-0.000118648
0.000639058
-0.000205655
0.000726362
-0.000292224
0.000735311
-0.000376966
0.000723079
-0.000461241
0.000707384
-0.000547588
0.000692843
-0.000639576
0.000680869
-0.000742077
0.000671847
-0.000861663
0.000665089
-0.00100707
0.000658028
-0.00118949
0.000644738
-0.00142263
0.000613724
-0.00172217
0.000545649
-0.00209453
0.000403817
-0.00250696
9.0605e-05
-0.00274922
-0.000645692
-0.00239933
-0.00207638
-0.00125313
-0.00365397
-0.0031659
-4.44191e-05
0.000387958
-0.000127997
0.000722636
-0.00021928
0.000817644
-0.000307923
0.000823954
-0.000392805
0.000807961
-0.000475783
0.000790362
-0.000559982
0.000777042
-0.00064976
0.000770647
-0.000751302
0.00077339
-0.000873596
0.000787383
-0.0010299
0.000814334
-0.00124
0.00085484
-0.00153326
0.000906976
-0.00194857
0.000960961
-0.00251216
0.000967408
-0.00313479
0.000713232
-0.00349227
-0.000288211
-0.00304401
-0.00252463
-0.00170905
-0.00498894
-0.00487495
-5.02383e-05
0.000438196
-0.000141555
0.000813953
-0.000237539
0.000913629
-0.000327377
0.000913792
-0.000410304
0.000890888
-0.000488707
0.000868765
-0.000566169
0.000854504
-0.000647218
0.000851695
-0.000738382
0.000864554
-0.000849743
0.000898743
-0.000997402
0.000961993
-0.00120746
0.00106489
-0.00152031
0.00121983
-0.00198199
0.00142264
-0.0026014
0.00158682
-0.00322947
0.00134131
-0.00349783
-1.98491e-05
-0.00306734
-0.00295512
-0.0019164
-0.00613989
-0.00679135
-6.1195e-05
0.000499391
-0.000163591
0.000916349
-0.000263941
0.00101398
-0.000352648
0.0010025
-0.000430848
0.000969089
-0.000501547
0.000939463
-0.000567744
0.000920701
-0.000633327
0.000917278
-0.000703774
0.000935002
-0.000787564
0.000982534
-0.000898612
0.00107304
-0.00105891
0.00122519
-0.00130104
0.00146196
-0.00164974
0.00177134
-0.00208783
0.00202491
-0.00247709
0.00173057
-0.0026623
0.000165363
-0.00248024
-0.00313718
-0.00174817
-0.00687196
-0.00853951
-7.45125e-05
0.000573904
-0.000191475
0.00103331
-0.00029976
0.00112226
-0.00039064
0.00109338
-0.000463525
0.00104197
-0.000522643
0.000998582
-0.000571657
0.000969715
-0.000613488
0.00095911
-0.000650756
0.00097227
-0.000686823
0.0010186
-0.000727559
0.00111378
-0.000780192
0.00127782
-0.000856912
0.00153868
-0.000952459
0.00186689
-0.00106726
0.00213971
-0.00114327
0.00180658
-0.00123607
0.000258161
-0.00138984
-0.00298341
-0.00118532
-0.00707648
-0.00972483
-0.00014147
0.000715373
-0.000272923
0.00116477
-0.000369144
0.00121848
-0.000439022
0.00116326
-0.000493776
0.00109673
-0.000537276
0.00104208
-0.000569591
0.00100203
-0.000588906
0.000978425
-0.000592622
0.000975986
-0.000576357
0.00100234
-0.000534793
0.00107221
-0.000458096
0.00120113
-0.000336036
0.00141662
-0.000148868
0.00167972
9.67446e-05
0.00189409
0.00028766
0.00161567
0.000284094
0.000261728
-0.000227794
-0.00247152
-0.000536211
-0.00676806
-0.010261
-9.24788e-05
0.000807852
-0.000287751
0.00136004
-0.000426546
0.00135728
-0.000516854
0.00125356
-0.000571454
0.00115133
-0.000600178
0.00107081
-0.000607073
0.00100892
-0.000591973
0.000963325
-0.000551305
0.000935317
-0.000475282
0.000926313
-0.000350835
0.000947766
-0.000155036
0.00100533
0.000138403
0.00112318
0.000542671
0.00127545
0.00103841
0.00139835
0.00145687
0.00119721
0.00147904
0.000239553
0.000787273
-0.00177975
0.000144208
-0.006125
-0.0101168
-0.00038654
0.00119439
-0.000465669
0.00143917
-0.000542925
0.00143454
-0.000612002
0.00132264
-0.000635783
0.00117511
-0.000620596
0.00105562
-0.000572536
0.000960865
-0.000492014
0.000882803
-0.000380726
0.000824029
-0.00023079
0.000776377
-3.39911e-05
0.000750968
0.000226982
0.000744354
0.000576502
0.000773661
0.00102698
0.000824978
0.00156777
0.000857555
0.0020334
0.000731585
0.00228454
-1.15854e-05
0.00188218
-0.0013774
0.00100301
-0.00524583
-0.00911383
-0.0013576
0.002552
-0.00132373
0.00140529
-0.00107689
0.0011877
-0.000719702
0.000965455
-0.000340432
0.000795838
4.27949e-05
0.000672391
0.000417297
0.000586363
0.000780973
0.000519127
0.00113512
0.000469885
0.00148286
0.000428632
0.00183298
0.000400845
0.0021952
0.000382137
0.00259746
0.000371402
0.00305201
0.000370426
0.00359455
0.00031502
0.00412082
0.00020531
0.00435835
-0.000249113
0.00418506
-0.0012041
0.00261911
-0.00367989
-0.00649471
0.002552
0.00395728
0.00514498
0.00611044
0.00690628
0.00757867
0.00816503
0.00868416
0.00915404
0.00958267
0.00998352
0.0103657
0.0107371
0.0111075
0.0114225
0.0116278
0.0113787
0.0101746
0.00649471
)
;

boundaryField
{
    movingWall
    {
        type            calculated;
        value           uniform 0;
    }
    fixedWalls
    {
        type            calculated;
        value           uniform 0;
    }
    frontAndBack
    {
        type            empty;
        value           nonuniform List<scalar> 0();
    }
}


// ************************************************************************* //
