/*--------------------------------*- C++ -*----------------------------------*\
  =========                 |
  \\      /  F ield         | OpenFOAM: The Open Source CFD Toolbox
   \\    /   O peration     | Website:  https://openfoam.org
    \\  /    A nd           | Version:  10
     \\/     M anipulation  |
\*---------------------------------------------------------------------------*/
FoamFile
{
    format      ascii;
    class       volVectorField;
    location    "8.275";
    object      U;
}
// * * * * * * * * * * * * * * * * * * * * * * * * * * * * * * * * * * * * * //

dimensions      [0 1 -1 0 0 0 0];

internalField   nonuniform List<vector> 
400
(
(-0.000153537 0.000136527 0)
(-0.00114641 0.00042714 0)
(-0.00282408 0.000532912 0)
(-0.00454319 0.000567218 0)
(-0.00631866 0.000584455 0)
(-0.0081116 0.00060184 0)
(-0.00990677 0.000618563 0)
(-0.0116807 0.000627387 0)
(-0.0133888 0.000618252 0)
(-0.0149608 0.000578555 0)
(-0.016296 0.000493488 0)
(-0.0172592 0.000347686 0)
(-0.0176847 0.000129471 0)
(-0.0173845 -0.000173949 0)
(-0.0161815 -0.000547773 0)
(-0.013965 -0.000950225 0)
(-0.0107802 -0.00129519 0)
(-0.00697653 -0.00145354 0)
(-0.00283338 -0.00126562 0)
(-0.000338707 -0.000466707 0)
(-0.000492338 0.00116762 0)
(-0.00256899 0.00243036 0)
(-0.00574996 0.00289969 0)
(-0.00900493 0.00304848 0)
(-0.0123278 0.00309011 0)
(-0.0156309 0.00309419 0)
(-0.018863 0.00306178 0)
(-0.0219652 0.00296751 0)
(-0.0248498 0.00277392 0)
(-0.027394 0.00243482 0)
(-0.0294331 0.00189846 0)
(-0.030757 0.00111245 0)
(-0.0311282 3.36689e-05 0)
(-0.0302791 -0.00134119 0)
(-0.0279606 -0.00294491 0)
(-0.0240353 -0.00460209 0)
(-0.0186001 -0.00598194 0)
(-0.0121883 -0.00659005 0)
(-0.00526029 -0.00582418 0)
(-0.000841662 -0.00266568 0)
(-0.000642219 0.00301676 0)
(-0.00322475 0.00569336 0)
(-0.00710357 0.00667841 0)
(-0.0110432 0.00697224 0)
(-0.0150391 0.0070119 0)
(-0.0189865 0.00694058 0)
(-0.0228251 0.00676595 0)
(-0.0264884 0.00644259 0)
(-0.0298815 0.00590023 0)
(-0.0328717 0.00505122 0)
(-0.0352821 0.00379743 0)
(-0.0368873 0.00204218 0)
(-0.0374052 -0.000288869 0)
(-0.0365072 -0.00320516 0)
(-0.0338703 -0.00657549 0)
(-0.0292632 -0.0100527 0)
(-0.0227245 -0.0129662 0)
(-0.014872 -0.0142631 0)
(-0.00628245 -0.012672 0)
(-0.00092049 -0.00610705 0)
(-0.000691078 0.00499322 0)
(-0.00348563 0.00918681 0)
(-0.00767511 0.0107006 0)
(-0.0119145 0.0111272 0)
(-0.0162138 0.0111536 0)
(-0.0204702 0.0110024 0)
(-0.0246328 0.0106895 0)
(-0.028648 0.0101515 0)
(-0.0324349 0.00928614 0)
(-0.0358739 0.00796227 0)
(-0.0387921 0.00602631 0)
(-0.0409509 0.00331992 0)
(-0.0420414 -0.000286168 0)
(-0.0416438 -0.00483453 0)
(-0.0392685 -0.0101958 0)
(-0.0344713 -0.0158636 0)
(-0.0270693 -0.020764 0)
(-0.0176985 -0.0230677 0)
(-0.00708923 -0.02049 0)
(-0.000780946 -0.0096719 0)
(-0.000694845 0.00705576 0)
(-0.00356864 0.0128537 0)
(-0.00790222 0.0149237 0)
(-0.0122904 0.0154951 0)
(-0.0167604 0.0155255 0)
(-0.0212219 0.0153247 0)
(-0.0256457 0.0149212 0)
(-0.0300053 0.0142365 0)
(-0.0342508 0.013138 0)
(-0.0382943 0.0114471 0)
(-0.0419868 0.00894185 0)
(-0.0450898 0.00536933 0)
(-0.0472361 0.000489138 0)
(-0.0479113 -0.00583979 0)
(-0.046403 -0.0135718 0)
(-0.0418731 -0.0221047 0)
(-0.0336724 -0.0298901 0)
(-0.0221942 -0.0339456 0)
(-0.00827095 -0.0301505 0)
(-0.000443713 -0.0135413 0)
(-0.000680793 0.00913491 0)
(-0.00358 0.0165994 0)
(-0.00799255 0.0192557 0)
(-0.0124749 0.0199947 0)
(-0.0170707 0.0200637 0)
(-0.0217083 0.01987 0)
(-0.0263893 0.0194622 0)
(-0.0311264 0.0187533 0)
(-0.035918 0.0175845 0)
(-0.0407317 0.0157297 0)
(-0.0454729 0.0128863 0)
(-0.0499352 0.0086759 0)
(-0.0537371 0.00267993 0)
(-0.0562758 -0.00548242 0)
(-0.0565772 -0.0160043 0)
(-0.0532491 -0.02836 0)
(-0.0447275 -0.0405957 0)
(-0.0303714 -0.0480904 0)
(-0.0106961 -0.0429077 0)
(0.000116576 -0.0178658 0)
(-0.000657992 0.0111998 0)
(-0.00355898 0.020381 0)
(-0.00802188 0.0236543 0)
(-0.0125703 0.0245878 0)
(-0.0172636 0.0247372 0)
(-0.0220514 0.0246205 0)
(-0.0269732 0.0243181 0)
(-0.0320932 0.0237465 0)
(-0.0374775 0.0227324 0)
(-0.0431801 0.0210093 0)
(-0.0492098 0.0181927 0)
(-0.0554651 0.0137523 0)
(-0.0616494 0.00700695 0)
(-0.0672155 -0.00279935 0)
(-0.071017 -0.0162363 0)
(-0.070979 -0.0334731 0)
(-0.0638453 -0.0527078 0)
(-0.045995 -0.0673851 0)
(-0.0167905 -0.0613182 0)
(0.00060579 -0.0235365 0)
(-0.000628164 0.0132352 0)
(-0.00351598 0.024179 0)
(-0.00800885 0.0280972 0)
(-0.0125935 0.0292469 0)
(-0.0173427 0.0295137 0)
(-0.0222278 0.0295429 0)
(-0.0273294 0.0294619 0)
(-0.0327733 0.0292103 0)
(-0.0387138 0.0286248 0)
(-0.0453289 0.0274277 0)
(-0.0528006 0.0251791 0)
(-0.0612658 0.0212161 0)
(-0.0707179 0.0145968 0)
(-0.0808441 0.00409476 0)
(-0.0908701 -0.0117443 0)
(-0.0980478 -0.0346204 0)
(-0.0955954 -0.0649325 0)
(-0.0737216 -0.0941995 0)
(-0.0318027 -0.0902036 0)
(-0.000487328 -0.0334395 0)
(-0.000592396 0.0152288 0)
(-0.00345628 0.0279776 0)
(-0.00795936 0.0325587 0)
(-0.0125394 0.0339305 0)
(-0.0172798 0.0343337 0)
(-0.0221701 0.0345599 0)
(-0.0273306 0.0348031 0)
(-0.0329499 0.0350513 0)
(-0.0392811 0.0351897 0)
(-0.0466582 0.0349851 0)
(-0.0555064 0.0340253 0)
(-0.0663417 0.0316311 0)
(-0.0797717 0.026759 0)
(-0.096444 0.0177811 0)
(-0.116233 0.00163291 0)
(-0.135002 -0.02739 0)
(-0.139535 -0.0754506 0)
(-0.112898 -0.130593 0)
(-0.0620308 -0.135531 0)
(-0.00722059 -0.0543693 0)
(-0.000554836 0.0171724 0)
(-0.00339359 0.0317644 0)
(-0.00789123 0.0370075 0)
(-0.0124159 0.0385794 0)
(-0.0170588 0.0391047 0)
(-0.0218207 0.0395421 0)
(-0.0268525 0.040173 0)
(-0.0323964 0.0410642 0)
(-0.0387947 0.0421978 0)
(-0.0465366 0.0434684 0)
(-0.0563242 0.0446337 0)
(-0.0691707 0.045241 0)
(-0.0865594 0.0444917 0)
(-0.110501 0.0404735 0)
(-0.141554 0.0269977 0)
(-0.171718 -0.0100025 0)
(-0.179944 -0.0855684 0)
(-0.151745 -0.17499 0)
(-0.105402 -0.196058 0)
(-0.0242784 -0.098062 0)
(-0.000525453 0.0190719 0)
(-0.00335924 0.035538 0)
(-0.00785019 0.0414078 0)
(-0.0122651 0.0431146 0)
(-0.0167041 0.0436976 0)
(-0.0211679 0.0443015 0)
(-0.0258216 0.0453109 0)
(-0.0309341 0.0468969 0)
(-0.0368967 0.0491877 0)
(-0.0442974 0.0523007 0)
(-0.0540394 0.0563451 0)
(-0.0675069 0.0613952 0)
(-0.0867999 0.0671291 0)
(-0.11479 0.0706823 0)
(-0.151052 0.0599748 0)
(-0.183985 0.0108764 0)
(-0.190678 -0.0946676 0)
(-0.168934 -0.215192 0)
(-0.137484 -0.264414 0)
(-0.0442261 -0.181285 0)
(-0.000525404 0.0209653 0)
(-0.00341706 0.0393418 0)
(-0.00792886 0.0457694 0)
(-0.0121826 0.0474942 0)
(-0.0163023 0.0480019 0)
(-0.0202794 0.0486431 0)
(-0.0242722 0.0499143 0)
(-0.0285336 0.0521002 0)
(-0.0334276 0.0555035 0)
(-0.0395071 0.060528 0)
(-0.0476382 0.0677511 0)
(-0.0591247 0.0778666 0)
(-0.0756551 0.0906834 0)
(-0.0993878 0.100953 0)
(-0.128478 0.090274 0)
(-0.152673 0.0287722 0)
(-0.156839 -0.0955248 0)
(-0.145856 -0.238331 0)
(-0.132971 -0.328875 0)
(-0.049163 -0.291167 0)
(-0.000585439 0.0229044 0)
(-0.00364938 0.0431436 0)
(-0.00825609 0.049921 0)
(-0.0123266 0.0514521 0)
(-0.0160297 0.0517062 0)
(-0.0193352 0.0522083 0)
(-0.0223848 0.0535268 0)
(-0.0253701 0.0560371 0)
(-0.0285313 0.0601775 0)
(-0.0322123 0.0665693 0)
(-0.0369193 0.0761142 0)
(-0.043291 0.0897629 0)
(-0.0518417 0.106993 0)
(-0.063418 0.120246 0)
(-0.0768929 0.108434 0)
(-0.0867148 0.0402955 0)
(-0.0897441 -0.0884649 0)
(-0.0889108 -0.239674 0)
(-0.101393 -0.363565 0)
(-0.0382832 -0.377752 0)
(-0.000807911 0.0252048 0)
(-0.00433166 0.0475527 0)
(-0.00913857 0.0546101 0)
(-0.0129238 0.0557436 0)
(-0.0160595 0.0553828 0)
(-0.0185405 0.0553147 0)
(-0.0204607 0.0562029 0)
(-0.0219064 0.0584782 0)
(-0.0229509 0.0626267 0)
(-0.0236412 0.0693193 0)
(-0.024019 0.0795004 0)
(-0.0238568 0.0939367 0)
(-0.0227146 0.111828 0)
(-0.0201384 0.124878 0)
(-0.0176038 0.113191 0)
(-0.0138046 0.045084 0)
(-0.0193546 -0.0775295 0)
(-0.0289569 -0.220981 0)
(-0.0685667 -0.367238 0)
(-0.02353 -0.434343 0)
(-0.00115533 0.0280285 0)
(-0.00516478 0.0512258 0)
(-0.010492 0.0575613 0)
(-0.0142386 0.0575947 0)
(-0.0169715 0.0565332 0)
(-0.0185843 0.0560134 0)
(-0.0192353 0.0565333 0)
(-0.018973 0.0583935 0)
(-0.0177391 0.0620017 0)
(-0.0153067 0.0679224 0)
(-0.0113825 0.0769252 0)
(-0.00504583 0.0893191 0)
(0.00443962 0.104415 0)
(0.0187916 0.114766 0)
(0.0324649 0.104124 0)
(0.0455373 0.0439272 0)
(0.0355817 -0.0642051 0)
(0.0191917 -0.18899 0)
(-0.0439131 -0.353599 0)
(-0.0105266 -0.47274 0)
(-0.00323612 0.0304028 0)
(-0.00960426 0.0585789 0)
(-0.0142586 0.0648143 0)
(-0.0169526 0.0642405 0)
(-0.0183195 0.0614636 0)
(-0.0187143 0.0591491 0)
(-0.0181397 0.057917 0)
(-0.0164496 0.058071 0)
(-0.0133754 0.0599055 0)
(-0.00844437 0.063768 0)
(-0.00127321 0.0701117 0)
(0.00951458 0.0789717 0)
(0.0241768 0.0895006 0)
(0.0445096 0.0959571 0)
(0.0632797 0.0870858 0)
(0.0817041 0.0412952 0)
(0.069751 -0.0449137 0)
(0.0524704 -0.147533 0)
(-0.0258123 -0.330043 0)
(0.00288508 -0.494782 0)
(-0.00098047 0.0439163 0)
(-0.00782813 0.0602171 0)
(-0.0175034 0.0622801 0)
(-0.0202643 0.0582819 0)
(-0.0220348 0.0551944 0)
(-0.0216906 0.0531582 0)
(-0.0199595 0.0520899 0)
(-0.0167286 0.0518963 0)
(-0.0118014 0.0527207 0)
(-0.00469253 0.0547096 0)
(0.00504955 0.0582661 0)
(0.0186982 0.0633252 0)
(0.0357783 0.0690092 0)
(0.0588034 0.0716423 0)
(0.0782716 0.0644989 0)
(0.0998247 0.0337479 0)
(0.0858433 -0.0280192 0)
(0.0705865 -0.107101 0)
(-0.00788392 -0.304926 0)
(0.0222105 -0.50383 0)
(-0.0125529 0.0322753 0)
(-0.023401 0.0802671 0)
(-0.0216107 0.0801349 0)
(-0.0262554 0.0751304 0)
(-0.0265001 0.067738 0)
(-0.0249357 0.0616321 0)
(-0.0213005 0.0567445 0)
(-0.0157925 0.052999 0)
(-0.00846153 0.0504042 0)
(0.00111075 0.0487703 0)
(0.0129079 0.0483957 0)
(0.028008 0.0488993 0)
(0.0450841 0.0506027 0)
(0.0675405 0.0506996 0)
(0.0836483 0.0474434 0)
(0.106593 0.0317795 0)
(0.095714 -0.00517636 0)
(0.103463 -0.0668559 0)
(0.0405695 -0.275387 0)
(0.0582534 -0.491093 0)
(-0.0776216 0.0959709 0)
(-0.0632622 0.0588258 0)
(-0.0654044 0.0599394 0)
(-0.0430869 0.0532969 0)
(-0.025475 0.0463381 0)
(-0.00501171 0.0411772 0)
(0.0143049 0.0374172 0)
(0.0339804 0.0342235 0)
(0.0522357 0.031914 0)
(0.0720622 0.0298078 0)
(0.0893694 0.0286463 0)
(0.111461 0.0276395 0)
(0.127164 0.0271226 0)
(0.156468 0.0263879 0)
(0.16671 0.0213763 0)
(0.203392 0.0126622 0)
(0.193172 -0.020892 0)
(0.224423 -0.0748281 0)
(0.154867 -0.25223 0)
(0.125213 -0.433907 0)
(0.119416 0.140786 0)
(0.152066 0.0861142 0)
(0.228524 0.0635291 0)
(0.28398 0.048065 0)
(0.32538 0.0374251 0)
(0.363676 0.029652 0)
(0.392356 0.0242162 0)
(0.423572 0.0201828 0)
(0.443473 0.0172581 0)
(0.472052 0.0149793 0)
(0.484822 0.0132731 0)
(0.514283 0.0119761 0)
(0.519722 0.0108669 0)
(0.552263 0.00973556 0)
(0.547426 0.00775677 0)
(0.58001 0.00338159 0)
(0.549005 -0.0058609 0)
(0.554574 -0.0272723 0)
(0.420611 -0.0733423 0)
(0.27539 -0.15217 0)
)
;

boundaryField
{
    movingWall
    {
        type            fixedValue;
        value           uniform (1 0 0);
    }
    fixedWalls
    {
        type            noSlip;
    }
    frontAndBack
    {
        type            empty;
    }
}


// ************************************************************************* //
