/*--------------------------------*- C++ -*----------------------------------*\
  =========                 |
  \\      /  F ield         | OpenFOAM: The Open Source CFD Toolbox
   \\    /   O peration     | Website:  https://openfoam.org
    \\  /    A nd           | Version:  10
     \\/     M anipulation  |
\*---------------------------------------------------------------------------*/
FoamFile
{
    format      ascii;
    class       volVectorField;
    location    "6.975";
    object      U;
}
// * * * * * * * * * * * * * * * * * * * * * * * * * * * * * * * * * * * * * //

dimensions      [0 1 -1 0 0 0 0];

internalField   nonuniform List<vector> 
496
(
(9.91922 0.0829636 0)
(9.95672 -0.144767 0)
(10.1179 -0.108395 0)
(10.7777 -0.218777 0)
(9.95274 0.579563 0)
(9.87734 -1.38437 0)
(10.1089 -0.204614 0)
(10.9166 -1.26768 0)
(10.6262 1.51062 0)
(9.37624 -3.24134 0)
(11.3759 -0.161542 0)
(10.9958 -4.5679 0)
(11.2734 1.83894 0)
(9.09781 -3.3238 0)
(11.6816 1.76087 0)
(11.23 -7.68781 0)
(11.4666 -0.195515 2.64121e-18)
(12.2267 -0.211336 -7.54042e-20)
(11.6753 -0.24948 -1.68427e-18)
(12.5678 0.21267 2.82042e-18)
(13.5654 -2.28925 -9.59913e-19)
(13.5456 -0.916296 -2.74445e-18)
(12.2012 -4.58665 -3.95176e-17)
(16.4335 -5.50977 6.98355e-17)
(12.7759 -0.176544 0)
(13.1171 -0.211233 0)
(13.1976 -0.0944898 0)
(12.9826 0.117958 0)
(13.2123 0.274606 0)
(13.604 0.0527273 0)
(13.9559 -0.177431 0)
(13.9283 -0.286719 0)
(13.5395 0.318481 0)
(13.51 0.830874 0)
(13.7797 0.885115 0)
(14.2032 0.915353 0)
(9.40222 -1.68394 0)
(11.26 -1.3605 0)
(9.86303 -0.582459 0)
(9.77857 0.41868 0)
(12.7698 0.367498 0)
(12.3304 0.580313 0)
(12.0914 0.573148 0)
(11.9271 0.564132 0)
(12.1946 0.45971 0)
(12.3606 0.456081 0)
(12.7102 0.374006 0)
(12.8438 0.421865 0)
(13.0561 0.389057 0)
(13.0674 0.436092 0)
(13.0973 0.473138 0)
(13.0255 0.544075 0)
(12.8387 0.579252 0)
(12.6085 0.558038 0)
(12.2756 0.584521 0)
(12.0631 0.53375 0)
(11.7726 0.55132 0)
(11.6291 0.423371 0)
(11.5171 0.390432 0)
(11.5259 0.27242 0)
(11.6199 0.242835 0)
(11.6099 0.194095 0)
(11.7745 0.203883 0)
(11.6506 0.257383 0)
(11.7233 0.277741 0)
(11.3482 0.352847 0)
(11.1756 0.353144 0)
(10.6928 0.453024 0)
(10.441 0.422543 0)
(10.1962 0.412038 0)
(10.0659 0.292469 0)
(10.2609 0.176949 0)
(10.3697 0.130796 0)
(10.8262 0.0209214 0)
(11.0595 0.109921 0)
(11.3808 0.0697885 0)
(11.5891 0.215784 0)
(11.4111 0.266912 0)
(11.4832 0.367987 0)
(10.7381 0.460999 0)
(13.717 -0.21327 0)
(13.1825 -0.318619 0)
(12.7394 -0.542622 0)
(12.6248 -0.61795 0)
(12.8116 -0.790092 0)
(13.0853 -0.813706 0)
(13.3593 -0.88073 0)
(13.6014 -0.748542 0)
(13.7309 -0.705087 0)
(13.8839 -0.515699 0)
(13.9327 -0.345219 0)
(13.9471 -0.163386 0)
(13.7468 -0.0559014 0)
(13.5632 -0.0322507 0)
(13.324 0.0100024 0)
(13.1031 -0.0742199 0)
(12.8882 -0.0977055 0)
(12.6453 -0.240562 0)
(12.6324 -0.216514 0)
(12.5784 -0.311146 0)
(12.7421 -0.307534 0)
(12.7804 -0.323733 0)
(12.9916 -0.226521 0)
(13.0451 -0.0636494 0)
(13.0694 0.0553629 0)
(12.9507 0.271695 0)
(12.7205 0.218807 0)
(12.5318 0.247194 0)
(12.1329 -0.00900569 0)
(11.9648 -0.103964 0)
(11.6746 -0.334862 0)
(11.7716 -0.502218 0)
(11.8577 -0.613154 0)
(12.0984 -0.736987 0)
(12.4707 -0.580342 0)
(12.6114 -0.526029 0)
(13.0768 -0.17302 0)
(12.9683 -0.0538576 0)
(13.2078 0.300602 0)
(12.838 0.2872 0)
(14.052 1.3515 0)
(13.6727 1.33241 0)
(13.0158 0.926209 0)
(13.2103 0.658426 0)
(12.7566 0.0390922 0)
(13.1772 0.0116709 0)
(13.035 -0.257322 0)
(13.3682 -0.0800801 0)
(13.2153 -0.123376 0)
(13.5081 0.18945 0)
(13.5834 0.351914 0)
(13.6194 0.597976 0)
(13.6452 0.783924 0)
(13.3835 0.839676 0)
(13.4421 1.06694 0)
(12.966 0.889939 0)
(13.0572 0.975521 0)
(12.6138 0.547345 0)
(12.8312 0.461427 0)
(12.4868 4.32614e-05 0)
(12.6313 -0.111145 0)
(12.6317 -0.21435 0)
(12.7809 -0.195443 0)
(13.0466 0.0904712 0)
(13.111 0.199206 0)
(13.4188 0.761869 0)
(13.1161 0.894344 0)
(13.0916 1.34459 0)
(12.5575 1.21396 0)
(12.4248 1.0312 0)
(12.1062 0.485646 0)
(11.8888 -0.214389 0)
(11.8783 -0.448984 0)
(11.6596 -0.935757 0)
(12.0473 -0.577149 0)
(11.8986 -0.796082 0)
(12.5137 -0.232167 0)
(12.5047 -0.0216661 0)
(13.0541 0.385033 0)
(12.9977 0.887654 0)
(11.8675 0.343945 0)
(10.7489 0.253692 0)
(10.2641 0.189939 0)
(10.8807 -0.0929065 0)
(9.40747 -0.411604 0)
(10.7216 -0.620823 0)
(9.59964 -0.965068 0)
(9.78619 -0.883351 0)
(8.8073 -0.709334 0)
(9.74061 -0.469179 0)
(9.26737 -0.327515 0)
(10.0382 -0.172472 0)
(9.97306 -0.0960614 0)
(10.3943 0.0950791 0)
(10.7455 0.246752 0)
(10.6135 0.308864 0)
(11.0678 0.361206 0)
(10.1099 0.278423 0)
(10.3897 0.230564 0)
(9.29622 0.0801769 0)
(9.51896 0.0120054 0)
(9.05223 -0.181881 0)
(9.21492 -0.337436 0)
(9.61612 -0.391804 0)
(9.78166 -0.33351 0)
(10.8773 -0.0732251 0)
(10.9 0.0669175 0)
(11.8586 0.324787 0)
(11.7487 0.360676 0)
(11.8783 0.388276 0)
(11.2224 0.374278 0)
(10.2109 0.274732 0)
(9.54903 0.187828 0)
(8.55004 -0.132367 0)
(8.6515 -0.397452 0)
(8.26886 -0.771673 0)
(8.97043 -0.628563 0)
(9.46187 -0.609657 0)
(9.88588 -0.297896 0)
(10.9043 0.166449 0)
(13.5343 0.398778 -1.04681e-17)
(6.77418 -0.669741 -1.7464e-17)
(12.9984 -0.696548 3.06984e-17)
(4.41933 -4.35065 -8.4033e-17)
(11.988 -0.918962 1.08922e-17)
(8.08389 1.04533 1.80972e-17)
(10.8767 -0.686763 -3.1866e-17)
(4.98234 4.49505 8.64344e-17)
(5.79374 -2.27161 0)
(-0.230422 4.03232 0)
(-1.65637 -4.58746 0)
(4.98223 1.10369 0)
(-9.05246 -3.45 3.64135e-17)
(-0.71104 3.24761 0)
(0.93246 -2.75491 0)
(-5.91826 1.90412 0)
(-1.22824 3.02201 0)
(2.01201 0.0826095 0)
(0.812068 0.955858 0)
(1.4551 -0.440616 0)
(1.23964 -1.04191 0)
(2.10531 1.83803 0)
(-0.681624 0.167147 0)
(0.066129 -0.464208 0)
(0.83184 0.314614 0)
(0.654855 -0.0466964 0)
(1.14293 -0.0286388 0)
(0.975285 0.282601 0)
(1.19553 0.283336 0)
(1.81484 0.0862312 0)
(1.74764 0.48989 0)
(2.14918 0.934636 0)
(2.22056 0.973607 0)
(2.11433 0.799846 0)
(1.99335 0.685176 0)
(2.16362 0.408073 0)
(2.48523 0.0266298 0)
(2.63868 -0.310591 0)
(2.95514 -0.633965 0)
(3.15367 -0.734714 0)
(3.90762 -0.53898 0)
(4.34515 -0.122255 0)
(4.18137 0.118413 0)
(4.76702 0.646767 0)
(4.33601 1.05495 0)
(4.33398 1.28897 0)
(4.11701 1.31629 0)
(3.58956 0.797203 0)
(4.01876 0.378777 0)
(4.08964 -0.193349 0)
(3.90849 -0.897761 0)
(4.52112 -1.21498 0)
(4.81221 -1.16322 0)
(4.96296 -1.14835 0)
(5.7557 -0.738786 0)
(5.73294 0.0197624 0)
(2.04261 0.944911 0)
(1.1997 -1.27565 0)
(-0.21881 0.860376 0)
(3.37131 -0.288116 0)
(-0.683606 0.272954 0)
(0.729875 0.967329 0)
(2.22843 -0.319134 0)
(0.278393 -0.875764 0)
(0.291485 -0.973888 0)
(-0.0973899 -0.859694 0)
(-0.12997 -0.575736 0)
(0.11512 -0.497779 0)
(0.957929 -0.704351 0)
(0.803521 -0.356351 0)
(0.490596 0.202602 0)
(1.5301 0.211265 0)
(1.79026 0.273015 0)
(1.90136 0.385616 0)
(2.2872 0.33129 0)
(2.88789 -0.0898329 0)
(2.95743 -0.500334 0)
(3.12977 -0.799048 0)
(2.81602 -0.942833 0)
(2.96311 -1.04278 0)
(2.82684 -1.07535 0)
(3.03594 -0.599312 0)
(2.75994 -0.111858 0)
(3.12757 0.496629 0)
(3.5344 0.867169 0)
(3.78547 0.899841 0)
(4.22767 0.948846 0)
(4.52822 0.672522 0)
(4.93559 0.151358 0)
(5.31014 -0.465554 0)
(4.92098 -0.827769 0)
(4.7575 -1.20478 0)
(4.55412 -1.28937 0)
(4.16424 -1.26773 0)
(3.87073 -0.63628 0)
(4.01936 0.0811725 0)
(11.8546 -1.02626 0)
(7.69161 2.13759 0)
(13.2657 -0.028367 0)
(8.39242 6.01894 0)
(10.6614 -0.766149 0)
(9.16456 2.0525 0)
(11.5168 0.533554 0)
(10.2517 3.45247 0)
(9.97814 -0.142314 0)
(10.1121 0.807783 0)
(10.3715 0.511494 0)
(10.9049 1.14684 0)
(9.97056 -0.0145519 0)
(10.1043 0.143754 0)
(10.2898 0.130133 0)
(10.7153 0.271062 0)
(14.3555 5.63122 2.75675e-17)
(13.2477 4.14742 -5.93783e-17)
(13.468 1.69764 0)
(12.3082 0.411618 0)
(11.7815 0.470488 0)
(12.3116 -0.0111909 0)
(11.4258 0.160895 0)
(12.0692 0.151241 0)
(13.809 2.65016 0)
(7.95081 1.39009 0)
(9.83153 0.15634 0)
(9.92928 0.305281 0)
(12.6092 -1.56388 0)
(12.2286 -0.689548 0)
(12.7391 -0.390958 0)
(13.332 -0.286609 0)
(12.9411 0.0125806 0)
(13.3118 0.353765 0)
(13.3016 0.646578 0)
(13.5847 0.664626 0)
(12.5488 0.15062 0)
(12.8303 0.00406468 0)
(12.9741 0.0216215 0)
(13.0725 0.032048 0)
(8.31461 -0.219383 0)
(9.80438 0.128401 0)
(8.42985 0.278914 0)
(8.86814 0.0251466 0)
(8.79266 0.504978 0)
(8.58787 0.614788 0)
(8.99555 0.541404 0)
(8.95187 0.558027 0)
(9.36829 0.348342 0)
(8.65113 0.114119 0)
(9.18354 -0.10711 0)
(8.03886 -0.194613 0)
(8.51785 -0.219134 0)
(8.10477 -0.115841 0)
(8.30487 0.0228972 0)
(8.35875 0.150857 0)
(8.51074 0.215177 0)
(9.37494 0.26201 0)
(9.23052 0.190671 0)
(10.5047 -0.00187085 0)
(10.2826 -0.154958 0)
(11.335 -0.302409 0)
(10.7447 -0.338377 0)
(10.9042 -0.360132 0)
(10.0827 -0.312963 0)
(9.50463 -0.26643 0)
(9.09995 -0.0850576 0)
(8.32696 0.22404 0)
(8.78444 0.424006 0)
(8.66553 0.558607 0)
(9.58781 0.505289 0)
(9.99308 0.324558 0)
(10.7145 0.112027 0)
(11.5165 -0.185617 0)
(11.5882 -0.219016 0)
(11.9889 -0.264417 0)
(10.819 -0.265911 0)
(10.4522 -0.316433 0)
(8.95547 -0.371037 0)
(8.1725 -0.0105489 0)
(13.847 -0.147179 0)
(13.5782 -0.0767939 0)
(13.3861 0.00520481 0)
(13.0587 0.0693829 0)
(13.4607 0.00122883 0)
(13.2967 0.0463664 0)
(13.7469 -0.118049 0)
(13.5792 -0.175018 0)
(13.8515 -0.548758 0)
(13.6696 -0.592447 0)
(13.6369 -0.792365 0)
(13.5661 -0.670041 0)
(13.3243 -0.557446 0)
(13.4341 -0.477242 0)
(13.2041 -0.336025 0)
(13.4615 -0.409793 0)
(13.2566 -0.266794 0)
(13.6048 -0.553361 0)
(13.474 -0.556252 0)
(13.6131 -0.928825 0)
(13.389 -0.990944 0)
(13.1746 -1.16953 0)
(12.9575 -1.07851 0)
(12.645 -0.754516 0)
(12.6163 -0.422717 0)
(12.2327 0.168215 0)
(12.4126 0.252028 0)
(12.2069 0.59747 0)
(12.4928 0.370373 0)
(12.6032 0.334817 0)
(12.8842 -0.101902 0)
(13.1797 -0.507452 0)
(13.068 -0.820305 0)
(13.0953 -1.28479 0)
(12.583 -1.15041 0)
(12.6238 -1.15011 0)
(12.1385 -0.315009 0)
(12.1831 0.0481792 0)
(11.9332 0.618169 0)
(11.8419 0.660108 0)
(13.8136 0.409196 0)
(13.8914 0.181851 0)
(13.5954 0.223639 0)
(13.4568 0.321489 0)
(13.5404 0.263576 0)
(13.8364 0.278387 0)
(14.0859 0.230564 0)
(14.1408 0.31475 0)
(14.1369 0.243444 0)
(13.9674 0.253915 0)
(13.928 0.211124 0)
(13.7026 0.241822 0)
(13.6499 0.27309 0)
(13.4442 0.281869 0)
(13.5197 0.313846 0)
(13.4514 0.211606 0)
(13.5069 0.249194 0)
(13.3798 0.0734511 0)
(13.277 0.0377111 0)
(13.0887 -0.114345 0)
(12.8479 -0.0790568 0)
(12.6347 -0.0446676 0)
(12.3377 0.0461737 0)
(12.1786 0.19638 0)
(12.0454 0.23709 0)
(12.0821 0.445627 0)
(12.2439 0.422436 0)
(12.3819 0.513316 0)
(12.6827 0.350694 0)
(12.7516 0.236622 0)
(12.9785 -0.0367272 0)
(12.8497 -0.197199 0)
(12.8256 -0.286795 0)
(12.5335 -0.247096 0)
(12.2633 -0.0253664 0)
(12.0216 0.0145856 0)
(11.7013 0.325014 0)
(11.827 0.313538 0)
(11.7108 0.517675 0)
(12.1747 0.444836 0)
(13.1997 -0.0748133 0)
(13.3288 -0.168255 0)
(13.1266 -0.17216 0)
(12.9137 -0.102189 0)
(12.844 -0.153443 0)
(13.119 -0.173533 0)
(13.3136 -0.281979 0)
(13.3921 -0.289565 0)
(13.2692 -0.390926 0)
(13.1127 -0.416969 0)
(12.9947 -0.492247 0)
(12.8051 -0.515123 0)
(12.744 -0.519079 0)
(12.5234 -0.507036 0)
(12.5747 -0.464562 0)
(12.4106 -0.498547 0)
(12.482 -0.462276 0)
(12.2035 -0.515911 0)
(12.1473 -0.483877 0)
(11.8115 -0.522628 0)
(11.5933 -0.477265 0)
(11.2255 -0.499418 0)
(10.9586 -0.463358 0)
(10.8013 -0.406952 0)
(10.688 -0.331226 0)
(10.7893 -0.204487 0)
(10.8896 -0.182212 0)
(11.1303 -0.101035 0)
(11.3053 -0.13484 0)
(11.36 -0.138379 0)
(11.4318 -0.203772 0)
(11.1356 -0.271624 0)
(11.0357 -0.322378 0)
(10.4547 -0.403038 0)
(10.3318 -0.363335 0)
(9.92763 -0.365532 0)
(9.93754 -0.196946 0)
(10.0134 -0.135364 0)
(10.0983 -0.00556457 0)
(10.6018 0.0144565 0)
)
;

boundaryField
{
    inlet
    {
        type            fixedValue;
        value           uniform (10 0 0);
    }
    outlet
    {
        type            zeroGradient;
    }
    obstacle
    {
        type            noSlip;
    }
    upperWall
    {
        type            noSlip;
    }
    lowerWall
    {
        type            noSlip;
    }
    frontAndBack
    {
        type            empty;
    }
}


// ************************************************************************* //
