/*--------------------------------*- C++ -*----------------------------------*\
  =========                 |
  \\      /  F ield         | OpenFOAM: The Open Source CFD Toolbox
   \\    /   O peration     | Website:  https://openfoam.org
    \\  /    A nd           | Version:  10
     \\/     M anipulation  |
\*---------------------------------------------------------------------------*/
FoamFile
{
    format      ascii;
    class       volScalarField;
    location    "6";
    object      p;
}
// * * * * * * * * * * * * * * * * * * * * * * * * * * * * * * * * * * * * * //

dimensions      [0 2 -2 0 0 0 0];

internalField   nonuniform List<scalar> 
400
(
-6.79012e-09
-1.5228e-05
1.3534e-05
8.26845e-05
0.000191922
0.000342491
0.000535818
0.000773107
0.00105475
0.00137956
0.00174396
0.00214101
0.00255962
0.00298397
0.00339333
0.0037629
0.0040664
0.00428048
0.0043886
0.00438229
1.59308e-05
1.40865e-07
3.13218e-05
0.000100599
0.000207381
0.00035392
0.000542218
0.000773849
0.00104957
0.00136865
0.00172793
0.00212103
0.00253749
0.0029619
0.00337337
0.00374665
0.00405478
0.00427418
0.00438698
0.00437811
-1.85191e-05
-3.8895e-05
-9.27364e-06
5.77528e-05
0.000161038
0.00030336
0.000487321
0.000715228
0.000988748
0.00130821
0.0016717
0.00207401
0.00250557
0.00295086
0.00338805
0.00378914
0.00412299
0.00436142
0.00448203
0.00446449
-0.000102875
-0.000127672
-0.000101128
-3.79478e-05
6.05007e-05
0.00019754
0.000376579
0.000601027
0.000873976
0.00119748
0.00157152
0.00199276
0.00245309
0.00293744
0.00342206
0.00387433
0.00425554
0.0045288
0.00466435
0.0046371
-0.000237781
-0.000266518
-0.000243919
-0.000185989
-9.4039e-05
3.59473e-05
0.000208413
0.000428216
0.000700375
0.00102936
0.001418
0.0018659
0.00236729
0.00290871
0.0034644
0.00399531
0.004451
0.00477991
0.00493991
0.00489942
-0.000423332
-0.000456411
-0.000438897
-0.000387997
-0.000304925
-0.000184891
-2.22556e-05
0.000189571
0.000458016
0.000790746
0.0011946
0.00167367
0.00222646
0.00284312
0.00349715
0.00414196
0.00470994
0.00512537
0.00532358
0.00526031
-0.000658917
-0.000697234
-0.000686307
-0.000644817
-0.000574014
-0.00046838
-0.00032106
-0.000123593
0.000134216
0.000463983
0.000877943
0.00138685
0.0019961
0.00270335
0.00348567
0.00428975
0.00502475
0.00557572
0.00583542
0.00573104
-0.0009436
-0.000988269
-0.000985714
-0.000956592
-0.000902487
-0.000817386
-0.000693434
-0.000520439
-0.000285394
2.77003e-05
0.000437684
0.000964435
0.00162542
0.00242863
0.00336664
0.00438523
0.00536692
0.00613499
0.0065005
0.00632525
-0.00127612
-0.00132833
-0.00133601
-0.00132252
-0.00129031
-0.00123336
-0.00114335
-0.00100897
-0.000814925
-0.000541209
-0.000162287
0.000353077
0.00103905
0.00192327
0.00302595
0.00431394
0.00565482
0.006782
0.00734355
0.0070662
-0.00165485
-0.00171572
-0.00173514
-0.00174029
-0.00173529
-0.00171493
-0.0016714
-0.00159343
-0.00146496
-0.00126367
-0.000958958
-0.000509366
0.000137601
0.00104198
0.00225866
0.00382793
0.0056629
0.00740376
0.00836024
0.00802774
-0.00207813
-0.00214843
-0.00218001
-0.00220556
-0.00223209
-0.00225632
-0.00227234
-0.00227077
-0.00223736
-0.0021511
-0.00198148
-0.00168435
-0.00119665
-0.000435582
0.000708091
0.0023928
0.00475056
0.00746821
0.00927791
0.00935625
-0.00254503
-0.00262474
-0.00266662
-0.00271154
-0.0027712
-0.00284566
-0.0029325
-0.00302659
-0.00311909
-0.00319604
-0.00323616
-0.00320785
-0.00306832
-0.00276109
-0.00218084
-0.00102699
0.00131019
0.00510465
0.00866728
0.0106983
-0.00305718
-0.00314464
-0.00319068
-0.00324888
-0.00333831
-0.0034637
-0.00362757
-0.00383134
-0.00407556
-0.00436039
-0.00468643
-0.00505728
-0.00549785
-0.00610992
-0.00703862
-0.00795275
-0.00727685
-0.00324708
0.00301017
0.00965202
-0.00362206
-0.00371169
-0.00374786
-0.0038052
-0.00391366
-0.00408324
-0.00432178
-0.00463846
-0.00504616
-0.00556536
-0.00623129
-0.00710826
-0.00834111
-0.0103148
-0.0136984
-0.0183877
-0.0213911
-0.0186446
-0.0102149
0.00228077
-0.00426231
-0.00434288
-0.00434193
-0.00436929
-0.00447411
-0.00467076
-0.00496989
-0.0053869
-0.00594641
-0.0066902
-0.00769256
-0.0090909
-0.0111695
-0.0145917
-0.0205374
-0.0292218
-0.0369635
-0.0360993
-0.0267602
-0.0099737
-0.00501617
-0.00504914
-0.00494653
-0.00490466
-0.00498134
-0.00518402
-0.00552078
-0.00600938
-0.00668168
-0.00759384
-0.00884797
-0.0106359
-0.0133359
-0.0177002
-0.0250376
-0.0355103
-0.0462832
-0.0468486
-0.0382209
-0.018091
-0.0059384
-0.00596462
-0.00568237
-0.00546615
-0.00544372
-0.00560574
-0.00594019
-0.00645404
-0.00717602
-0.00816173
-0.00952058
-0.0114576
-0.01438
-0.0189019
-0.0262634
-0.0361636
-0.0459712
-0.0464914
-0.0384949
-0.0093522
-0.00794597
-0.00709089
-0.00608066
-0.0056787
-0.00563459
-0.00579918
-0.00614148
-0.00665917
-0.0073829
-0.00835813
-0.00969331
-0.0115468
-0.0143362
-0.0186016
-0.0249569
-0.0326266
-0.0389567
-0.0366481
-0.0198341
0.0267529
-0.00721363
-0.00917058
-0.0076151
-0.00663665
-0.00623728
-0.00621197
-0.00643431
-0.00684644
-0.00748676
-0.00836907
-0.00961165
-0.011354
-0.0140109
-0.0178253
-0.0230172
-0.0279288
-0.0294882
-0.0162199
0.0229209
0.0987887
-0.0248433
-0.00991004
-0.00497349
-0.00409991
-0.00412339
-0.0042939
-0.00465522
-0.00520843
-0.00601991
-0.00706522
-0.00852789
-0.0105075
-0.0134254
-0.0171664
-0.0212082
-0.0222283
-0.0138419
0.0174793
0.0881637
0.198596
)
;

boundaryField
{
    movingWall
    {
        type            zeroGradient;
    }
    fixedWalls
    {
        type            zeroGradient;
    }
    frontAndBack
    {
        type            empty;
    }
}


// ************************************************************************* //
