/*--------------------------------*- C++ -*----------------------------------*\
  =========                 |
  \\      /  F ield         | OpenFOAM: The Open Source CFD Toolbox
   \\    /   O peration     | Website:  https://openfoam.org
    \\  /    A nd           | Version:  10
     \\/     M anipulation  |
\*---------------------------------------------------------------------------*/
FoamFile
{
    format      ascii;
    class       surfaceScalarField;
    location    "6";
    object      phi;
}
// * * * * * * * * * * * * * * * * * * * * * * * * * * * * * * * * * * * * * //

dimensions      [0 3 -1 0 0 0 0];

internalField   nonuniform List<scalar> 
760
(
-8.14921e-06
8.14946e-06
-2.79216e-05
1.97723e-05
-5.17104e-05
2.37888e-05
-7.60147e-05
2.43043e-05
-9.9767e-05
2.37522e-05
-0.000122517
2.27497e-05
-0.000143825
2.13082e-05
-0.000163121
1.92959e-05
-0.000179667
1.65465e-05
-0.000192556
1.28881e-05
-0.000200727
8.1715e-06
-0.000203031
2.3041e-06
-0.000198218
-4.81312e-06
-0.000185291
-1.29263e-05
-0.000163644
-2.16479e-05
-0.000133395
-3.02488e-05
-9.58787e-05
-3.75162e-05
-5.4618e-05
-4.12608e-05
-1.76242e-05
-3.69938e-05
-1.76243e-05
-2.08916e-05
2.9041e-05
-6.0102e-05
5.89827e-05
-0.000105198
6.88843e-05
-0.000150806
6.99128e-05
-0.000194828
6.7774e-05
-0.000236174
6.40958e-05
-0.000273898
5.90324e-05
-0.000306948
5.23452e-05
-0.000334093
4.36919e-05
-0.000353914
3.27087e-05
-0.000364827
1.90849e-05
-0.000365325
2.80192e-06
-0.000353476
-1.66613e-05
-0.000328097
-3.83063e-05
-0.000288506
-6.1239e-05
-0.000235164
-8.35908e-05
-0.000170435
-0.000102245
-0.0001
-0.000111696
-3.56244e-05
-0.000101369
-5.32487e-05
-2.6482e-05
5.5523e-05
-7.42163e-05
0.000106717
-0.000128263
0.000122931
-0.000182538
0.000124188
-0.00023468
0.000119916
-0.000283434
0.000112849
-0.000327718
0.000103317
-0.000366364
9.09908e-05
-0.000398028
7.53564e-05
-0.000421168
5.58482e-05
-0.000434044
3.19612e-05
-0.000434798
3.55537e-06
-0.000421349
-3.01098e-05
-0.000392055
-6.76009e-05
-0.00034586
-0.000107433
-0.000283002
-0.000146449
-0.000206025
-0.000179222
-0.000121549
-0.000196172
-4.36282e-05
-0.00017929
-9.6877e-05
-2.86162e-05
8.41392e-05
-8.03192e-05
0.00015842
-0.000138659
0.000181272
-0.000197144
0.000182672
-0.000253391
0.000176163
-0.000306196
0.000165654
-0.000354528
0.00015165
-0.000397261
0.000133724
-0.000433065
0.00011116
-0.00046034
8.31238e-05
-0.000477178
4.87987e-05
-0.000481408
7.78537e-06
-0.000470376
-4.11413e-05
-0.000441625
-9.63524e-05
-0.000393153
-0.000155905
-0.000324353
-0.000215249
-0.000237519
-0.000266056
-0.000140306
-0.000293384
-4.99339e-05
-0.000269663
-0.000146811
-2.98755e-05
0.000114015
-8.43281e-05
0.000212872
-0.00014585
0.000242793
-0.000207632
0.000244454
-0.000267337
0.000235868
-0.00032389
0.000222207
-0.000376407
0.000204168
-0.000423897
0.000181213
-0.000465118
0.000152381
-0.000498463
0.00011647
-0.000521835
7.21702e-05
-0.000532602
1.85523e-05
-0.000527364
-4.63789e-05
-0.000502255
-0.000121462
-0.000453612
-0.000204548
-0.000379139
-0.000289722
-0.000280279
-0.000364916
-0.000166021
-0.000407642
-5.85067e-05
-0.000377177
-0.000205318
-3.11572e-05
0.000145172
-8.84445e-05
0.00027016
-0.000153316
0.000307665
-0.000218651
0.000309789
-0.000282184
0.000299401
-0.000343031
0.000283054
-0.000400539
0.000261675
-0.000453949
0.000234623
-0.000502224
0.000200656
-0.000543855
0.000158101
-0.000576637
0.000104952
-0.000597396
3.93107e-05
-0.00060195
-4.18247e-05
-0.000584341
-0.00013907
-0.000538286
-0.000250604
-0.000458391
-0.000369616
-0.000343904
-0.000479403
-0.000205034
-0.000546511
-7.1519e-05
-0.000510693
-0.000276837
-3.26859e-05
0.000177858
-9.32713e-05
0.000330745
-0.000161992
0.000376385
-0.000231366
0.000379163
-0.00029923
0.000367264
-0.000364957
0.000348781
-0.000428224
0.000324942
-0.000488648
0.000295047
-0.000545576
0.000257584
-0.000597814
0.000210339
-0.000643258
0.000150397
-0.000678404
7.44562e-05
-0.000698396
-2.18325e-05
-0.000694512
-0.000142954
-0.000656666
-0.00028845
-0.000574035
-0.000452246
-0.000440731
-0.000612708
-0.000266555
-0.000720687
-9.22942e-05
-0.000684954
-0.000369131
-3.45105e-05
0.000212368
-9.89385e-05
0.000395173
-0.000172022
0.000449468
-0.000245843
0.000452985
-0.000318364
0.000439786
-0.000389298
0.000419715
-0.000458774
0.000394418
-0.00052697
0.000363243
-0.000593877
0.000324491
-0.000658977
0.000275439
-0.000720731
0.000212151
-0.000775656
0.000129381
-0.000819262
2.17737e-05
-0.000839271
-0.000122945
-0.000821031
-0.00030669
-0.000744683
-0.000528595
-0.00059324
-0.000764151
-0.000370113
-0.000943814
-0.000129272
-0.000925794
-0.000498403
-3.66807e-05
0.000249049
-0.000105534
0.000464027
-0.000183434
0.000527368
-0.000261924
0.000531474
-0.000339121
0.000516983
-0.000415161
0.000495755
-0.000490766
0.000470023
-0.000566885
0.000439362
-0.000644495
0.000402101
-0.000724293
0.000355237
-0.00080612
0.000293978
-0.000887968
0.000211229
-0.000964042
9.7848e-05
-0.001025
-6.19834e-05
-0.0010483
-0.000283392
-0.00100143
-0.000575462
-0.000845194
-0.000920391
-0.000559564
-0.00122944
-0.000205078
-0.00128028
-0.000703481
-3.93302e-05
0.000288379
-0.000113298
0.000537994
-0.000196416
0.000610487
-0.000279563
0.000614621
-0.000361052
0.000598472
-0.000441527
0.000576229
-0.000522424
0.00055092
-0.000605671
0.000522609
-0.00069358
0.00049001
-0.00078867
0.000450327
-0.000893207
0.000398515
-0.00100814
0.000326167
-0.00113049
0.000220195
-0.00125596
6.34894e-05
-0.00135905
-0.000180304
-0.00139164
-0.000542876
-0.00127275
-0.00103928
-0.000919274
-0.00158292
-0.000370031
-0.00182952
-0.00107351
-4.27576e-05
0.000331137
-0.000122775
0.000618012
-0.000211512
0.000699224
-0.00029905
0.000702159
-0.000383964
0.000683386
-0.000467493
0.000659758
-0.000551873
0.000635301
-0.000640127
0.000610863
-0.000736171
0.000586054
-0.00084496
0.000559116
-0.000972477
0.000526031
-0.00112526
0.000478955
-0.00130907
0.000403999
-0.00152269
0.000277113
-0.00176464
6.16472e-05
-0.00195815
-0.000349365
-0.00195253
-0.0010449
-0.00153888
-0.00199658
-0.000690203
-0.0026782
-0.00176371
-4.75454e-05
0.000378682
-0.000135035
0.000705501
-0.000229866
0.000794056
-0.000321236
0.000793528
-0.000408149
0.000770299
-0.00049255
0.00074416
-0.000577476
0.000720226
-0.000666982
0.000700369
-0.000766569
0.000685642
-0.000883878
0.000676425
-0.00102959
0.000671746
-0.00121839
0.000667755
-0.0014695
0.000655102
-0.0018038
0.000611417
-0.00221543
0.000473278
-0.00264424
7.94441e-05
-0.00280028
-0.00088886
-0.0023365
-0.00246036
-0.00116458
-0.00385011
-0.0029283
-5.47622e-05
0.000433444
-0.000151989
0.000802728
-0.000253539
0.000895606
-0.000347807
0.000887796
-0.000434652
0.000857145
-0.000516919
0.000826426
-0.000598329
0.000801637
-0.000683609
0.000785649
-0.000779296
0.000781329
-0.000895135
0.000792264
-0.00104622
0.000822833
-0.00125584
0.000877371
-0.00155775
0.000957011
-0.00199158
0.00104525
-0.00256234
0.00104403
-0.00313196
0.000649065
-0.0033829
-0.00063792
-0.00291731
-0.00292594
-0.00163787
-0.00512956
-0.00456617
-6.6401e-05
0.000499845
-0.000176956
0.000913283
-0.00028588
0.00100453
-0.000381486
0.000983402
-0.000465451
0.000941109
-0.000541856
0.000902831
-0.000614867
0.000874647
-0.000689122
0.000859904
-0.000770884
0.000863091
-0.000869969
0.000891349
-0.00100284
0.000955701
-0.00119661
0.00107115
-0.00149016
0.00125056
-0.00191924
0.00147434
-0.00246822
0.001593
-0.0029891
0.00116994
-0.00318917
-0.000437847
-0.0028727
-0.00324241
-0.00182246
-0.0061798
-0.00638863
-8.58164e-05
0.000585662
-0.000215669
0.00104314
-0.000332928
0.00112179
-0.000426831
0.0010773
-0.000503734
0.00101801
-0.000569859
0.000968956
-0.000629336
0.000934124
-0.000685494
0.000916062
-0.000742219
0.000919816
-0.000805807
0.000954936
-0.000887774
0.00103767
-0.00100815
0.00119152
-0.0011939
0.00143631
-0.00145827
0.00173871
-0.00176572
0.00190045
-0.00203733
0.00144156
-0.00221225
-0.00026293
-0.00219138
-0.00326328
-0.00157385
-0.00679732
-0.00796249
-0.000120201
0.000705862
-0.000276883
0.00119982
-0.000398569
0.00124348
-0.000485919
0.00116465
-0.00055152
0.00108361
-0.000603414
0.00102085
-0.000645119
0.000975829
-0.000677378
0.000948321
-0.000699555
0.000941993
-0.000710474
0.000965855
-0.000709745
0.00103694
-0.000698448
0.00118022
-0.000679187
0.00141705
-0.000652435
0.00171196
-0.000620678
0.00186869
-0.000624722
0.0014456
-0.000788187
-9.94637e-05
-0.00102794
-0.00302353
-0.000991408
-0.00683385
-0.00895389
-0.000186103
0.000891965
-0.000398398
0.00141211
-0.000515605
0.00136068
-0.000574585
0.00122363
-0.000614891
0.00112392
-0.000645136
0.0010511
-0.000663452
0.000994145
-0.00066514
0.000950009
-0.000644782
0.000921635
-0.000593066
0.000914139
-0.000497684
0.000941558
-0.000338437
0.00102098
-9.07187e-05
0.00116933
0.000244301
0.00137694
0.00059405
0.00151894
0.000817189
0.00122246
0.000684216
3.35095e-05
0.00013857
-0.00247789
-0.000136494
-0.00655878
-0.00909039
-0.000179717
0.00107168
-0.000439427
0.00167182
-0.000599528
0.00152078
-0.000680947
0.00130505
-0.000703588
0.00114656
-0.000686167
0.00103368
-0.000636941
0.000944919
-0.000556795
0.000869863
-0.000447957
0.000812797
-0.000301255
0.000767437
-0.000105809
0.000746112
0.000167199
0.000747967
0.00053163
0.0008049
0.00101877
0.0008898
0.0015788
0.000958912
0.00199979
0.000801477
0.00205223
-1.89316e-05
0.00155306
-0.00197872
0.00070211
-0.00570784
-0.00838828
-0.00156434
0.00263602
-0.00150657
0.00161405
-0.0010675
0.00108171
-0.000645514
0.000883071
-0.000258738
0.000759784
0.000115683
0.000659254
0.000479871
0.000580731
0.000836308
0.000513427
0.00118207
0.000467032
0.00152497
0.000424538
0.00186758
0.0004035
0.00222626
0.000389289
0.00262198
0.000409186
0.00307438
0.0004374
0.00361232
0.000420965
0.00412076
0.00029304
0.00426646
-0.000164627
0.0039205
-0.00163276
0.00222468
-0.00401202
-0.00616359
0.00263602
0.00425007
0.00533178
0.00621486
0.00697464
0.00763389
0.00821462
0.00872805
0.00919508
0.00961962
0.0100231
0.0104124
0.0108216
0.011259
0.01168
0.011973
0.0118084
0.0101756
0.00616359
)
;

boundaryField
{
    movingWall
    {
        type            calculated;
        value           uniform 0;
    }
    fixedWalls
    {
        type            calculated;
        value           uniform 0;
    }
    frontAndBack
    {
        type            empty;
        value           nonuniform List<scalar> 0();
    }
}


// ************************************************************************* //
