/*--------------------------------*- C++ -*----------------------------------*\
  =========                 |
  \\      /  F ield         | OpenFOAM: The Open Source CFD Toolbox
   \\    /   O peration     | Website:  https://openfoam.org
    \\  /    A nd           | Version:  10
     \\/     M anipulation  |
\*---------------------------------------------------------------------------*/
FoamFile
{
    format      ascii;
    class       volVectorField;
    location    "6";
    object      U;
}
// * * * * * * * * * * * * * * * * * * * * * * * * * * * * * * * * * * * * * //

dimensions      [0 1 -1 0 0 0 0];

internalField   nonuniform List<vector> 
400
(
(-0.000127667 0.00012087 0)
(-0.000803222 0.000369623 0)
(-0.00196919 0.000460242 0)
(-0.0031987 0.000474991 0)
(-0.00440688 0.000469654 0)
(-0.00557381 0.000457531 0)
(-0.00668004 0.000437948 0)
(-0.00770056 0.000407214 0)
(-0.00860273 0.000360967 0)
(-0.00934528 0.000294778 0)
(-0.00987871 0.000204788 0)
(-0.0101475 8.80151e-05 0)
(-0.0100904 -5.88349e-05 0)
(-0.00964999 -0.000230504 0)
(-0.00878486 -0.00041837 0)
(-0.00748107 -0.000606568 0)
(-0.0057704 -0.000768476 0)
(-0.00375051 -0.000855034 0)
(-0.00166928 -0.000762702 0)
(-0.000328719 -0.000338576 0)
(-0.000401481 0.000818502 0)
(-0.00186424 0.00179318 0)
(-0.00409714 0.00212634 0)
(-0.00641731 0.00216789 0)
(-0.00867257 0.00211267 0)
(-0.0108167 0.00201346 0)
(-0.0128037 0.00187308 0)
(-0.014584 0.00168176 0)
(-0.0161004 0.00142659 0)
(-0.0172865 0.00109414 0)
(-0.018067 0.000672353 0)
(-0.0183635 0.000153371 0)
(-0.0180882 -0.000462855 0)
(-0.0171612 -0.00116049 0)
(-0.0155333 -0.00190496 0)
(-0.0131967 -0.00263443 0)
(-0.0102136 -0.00324661 0)
(-0.00674298 -0.00355948 0)
(-0.00317553 -0.00321449 0)
(-0.000718243 -0.00162587 0)
(-0.000521089 0.00207669 0)
(-0.0023318 0.004074 0)
(-0.00502439 0.00472016 0)
(-0.00779428 0.00477894 0)
(-0.0104716 0.00462297 0)
(-0.0130059 0.00435981 0)
(-0.0153441 0.00400125 0)
(-0.0174299 0.00353312 0)
(-0.0192009 0.00293418 0)
(-0.0205848 0.00218149 0)
(-0.0214992 0.00125427 0)
(-0.0218534 0.000139508 0)
(-0.0215471 -0.00115833 0)
(-0.020484 -0.0026114 0)
(-0.0185943 -0.00415078 0)
(-0.0158538 -0.00565216 0)
(-0.0123212 -0.00690685 0)
(-0.00817376 -0.00754784 0)
(-0.00387434 -0.00687881 0)
(-0.000884653 -0.00368355 0)
(-0.000560978 0.00347645 0)
(-0.00252164 0.00659788 0)
(-0.00543534 0.00757033 0)
(-0.00842201 0.00763675 0)
(-0.0113072 0.00736759 0)
(-0.0140454 0.00692803 0)
(-0.0165861 0.00633888 0)
(-0.0188755 0.00558138 0)
(-0.0208527 0.00462515 0)
(-0.0224446 0.00343581 0)
(-0.0235638 0.00198054 0)
(-0.0241077 0.000235508 0)
(-0.0239539 -0.00180104 0)
(-0.0229713 -0.00409524 0)
(-0.0210445 -0.00654738 0)
(-0.0181024 -0.00896558 0)
(-0.0141723 -0.0110127 0)
(-0.00943974 -0.0120907 0)
(-0.00445996 -0.0110861 0)
(-0.00100396 -0.00602856 0)
(-0.000581055 0.00493967 0)
(-0.00263887 0.00925239 0)
(-0.0057125 0.0105666 0)
(-0.00886419 0.0106423 0)
(-0.0119176 0.0102641 0)
(-0.0148349 0.00965806 0)
(-0.017573 0.00885403 0)
(-0.0200854 0.00782801 0)
(-0.022317 0.00653851 0)
(-0.0241973 0.00493532 0)
(-0.0256348 0.00296564 0)
(-0.026511 0.000583949 0)
(-0.0266744 -0.0022298 0)
(-0.0259393 -0.00545582 0)
(-0.024112 -0.00897538 0)
(-0.0210341 -0.0125258 0)
(-0.0166615 -0.0156065 0)
(-0.0111742 -0.0173064 0)
(-0.00526398 -0.0159628 0)
(-0.00116337 -0.00870823 0)
(-0.000601309 0.00646271 0)
(-0.00275813 0.0120401 0)
(-0.00599816 0.0137198 0)
(-0.00932559 0.0138134 0)
(-0.0125623 0.013338 0)
(-0.0156811 0.0125853 0)
(-0.0186496 0.0115955 0)
(-0.0214333 0.0103392 0)
(-0.0239887 0.00876143 0)
(-0.0262534 0.00679111 0)
(-0.0281363 0.00434566 0)
(-0.0295043 0.00134268 0)
(-0.0301748 -0.00228017 0)
(-0.0298899 -0.00654878 0)
(-0.0283367 -0.011351 0)
(-0.0252094 -0.0163623 0)
(-0.0203191 -0.0208733 0)
(-0.0137892 -0.0235241 0)
(-0.00649276 -0.0218691 0)
(-0.00140326 -0.0119039 0)
(-0.000626155 0.00805532 0)
(-0.00289911 0.0149803 0)
(-0.00633142 0.0170527 0)
(-0.00985974 0.0171747 0)
(-0.0133041 0.0166168 0)
(-0.0166506 0.0157432 0)
(-0.0198824 0.0146071 0)
(-0.0229827 0.0131747 0)
(-0.0259275 0.0113771 0)
(-0.0286731 0.0091174 0)
(-0.0311395 0.00627304 0)
(-0.0331901 0.00270519 0)
(-0.0346213 -0.00172333 0)
(-0.0350908 -0.00713581 0)
(-0.0341208 -0.0134815 0)
(-0.0311724 -0.0204174 0)
(-0.0257753 -0.0269893 0)
(-0.0178569 -0.031184 0)
(-0.00846571 -0.0293533 0)
(-0.00178266 -0.0158953 0)
(-0.000656486 0.0097313 0)
(-0.00306622 0.0180986 0)
(-0.00671994 0.020591 0)
(-0.0104728 0.0207491 0)
(-0.0141426 0.0201218 0)
(-0.0177321 0.0191553 0)
(-0.021245 0.0179202 0)
(-0.02469 0.0163819 0)
(-0.0280738 0.0144594 0)
(-0.0313867 0.012029 0)
(-0.03458 0.00891899 0)
(-0.0375374 0.00490838 0)
(-0.0400673 -0.000263249 0)
(-0.0417544 -0.00682627 0)
(-0.0419236 -0.0149682 0)
(-0.0396977 -0.0244303 0)
(-0.034092 -0.0340396 0)
(-0.0245064 -0.0408748 0)
(-0.011946 -0.0393285 0)
(-0.00246384 -0.0212021 0)
(-0.000693663 0.0115065 0)
(-0.00326333 0.0214232 0)
(-0.00716762 0.0243593 0)
(-0.0111626 0.0245528 0)
(-0.015063 0.0238626 0)
(-0.0188923 0.0228282 0)
(-0.0226799 0.0215452 0)
(-0.0264686 0.019985 0)
(-0.0303093 0.0180617 0)
(-0.0342477 0.0156302 0)
(-0.0383023 0.0124699 0)
(-0.0424288 0.00826464 0)
(-0.0464474 0.0026006 0)
(-0.0499987 -0.00497462 0)
(-0.0522926 -0.015028 0)
(-0.0519625 -0.0276624 0)
(-0.0471799 -0.041727 0)
(-0.0360945 -0.0532508 0)
(-0.0188614 -0.053419 0)
(-0.00390743 -0.0290085 0)
(-0.000741559 0.0134009 0)
(-0.00350061 0.0249853 0)
(-0.00768658 0.0283789 0)
(-0.0119343 0.0285917 0)
(-0.0160545 0.0278308 0)
(-0.0200956 0.026744 0)
(-0.0241182 0.025461 0)
(-0.0282066 0.0239704 0)
(-0.0324688 0.0221954 0)
(-0.0370293 0.0199863 0)
(-0.0420134 0.0170912 0)
(-0.047508 0.0131115 0)
(-0.0534914 0.00745745 0)
(-0.0598125 -0.000686828 0)
(-0.0657696 -0.0122445 0)
(-0.0696121 -0.0283606 0)
(-0.0681716 -0.0486115 0)
(-0.0568867 -0.0684554 0)
(-0.0332538 -0.0743143 0)
(-0.00715115 -0.0420546 0)
(-0.000808797 0.0154448 0)
(-0.00380073 0.0288247 0)
(-0.00830639 0.03267 0)
(-0.0128109 0.0328593 0)
(-0.0171213 0.0319961 0)
(-0.0213166 0.0308526 0)
(-0.0254925 0.0296034 0)
(-0.0297793 0.0282684 0)
(-0.0343501 0.0268012 0)
(-0.039427 0.0250799 0)
(-0.0452861 0.0228654 0)
(-0.0522462 0.0197306 0)
(-0.0606222 0.0149608 0)
(-0.070616 0.00742922 0)
(-0.0823233 -0.00450396 0)
(-0.0940573 -0.0231825 0)
(-0.10026 -0.0512472 0)
(-0.0911543 -0.0853577 0)
(-0.059646 -0.105657 0)
(-0.0134186 -0.0653128 0)
(-0.000912382 0.0176899 0)
(-0.00420753 0.0329992 0)
(-0.0090856 0.0372545 0)
(-0.0138453 0.037336 0)
(-0.0182945 0.0363023 0)
(-0.0225523 0.0350663 0)
(-0.0267523 0.0338557 0)
(-0.0310684 0.0327358 0)
(-0.0357346 0.0317174 0)
(-0.0410726 0.0307543 0)
(-0.047531 0.0297007 0)
(-0.0557283 0.0282282 0)
(-0.0665079 0.0257019 0)
(-0.0810059 0.0209319 0)
(-0.100227 0.0113702 0)
(-0.12327 -0.0082572 0)
(-0.140643 -0.0462509 0)
(-0.134045 -0.104431 0)
(-0.0943651 -0.152469 0)
(-0.0217585 -0.105997 0)
(-0.00108419 0.0202281 0)
(-0.00480011 0.0375971 0)
(-0.0101286 0.0421569 0)
(-0.015135 0.0419839 0)
(-0.0196448 0.0406629 0)
(-0.0238368 0.0392565 0)
(-0.0278849 0.0380445 0)
(-0.0319934 0.0371451 0)
(-0.0364324 0.0366512 0)
(-0.0415904 0.0366489 0)
(-0.0480567 0.037196 0)
(-0.0567291 0.0382586 0)
(-0.0689736 0.039582 0)
(-0.086989 0.0402285 0)
(-0.11351 0.0364055 0)
(-0.146709 0.0166161 0)
(-0.171063 -0.037658 0)
(-0.16283 -0.132408 0)
(-0.121153 -0.219108 0)
(-0.0278133 -0.174452 0)
(-0.00138516 0.0232351 0)
(-0.00572045 0.0427939 0)
(-0.0116097 0.0474479 0)
(-0.0168364 0.0467631 0)
(-0.0212917 0.0449646 0)
(-0.0252527 0.0432573 0)
(-0.0289367 0.0419468 0)
(-0.0325524 0.0411905 0)
(-0.036354 0.0411714 0)
(-0.0407116 0.0421501 0)
(-0.0462278 0.0444919 0)
(-0.0538688 0.0486479 0)
(-0.0651187 0.0549492 0)
(-0.0825818 0.0624834 0)
(-0.109992 0.0648204 0)
(-0.144745 0.0427386 0)
(-0.165819 -0.0318261 0)
(-0.153842 -0.165896 0)
(-0.126175 -0.294357 0)
(-0.025794 -0.276107 0)
(-0.00192056 0.0269476 0)
(-0.00720708 0.0486323 0)
(-0.0138383 0.0529058 0)
(-0.0192226 0.0514253 0)
(-0.023428 0.048985 0)
(-0.0269406 0.0468484 0)
(-0.0300285 0.0453045 0)
(-0.0328608 0.0445203 0)
(-0.0355942 0.0447469 0)
(-0.0384449 0.046412 0)
(-0.0417934 0.0502104 0)
(-0.0462704 0.0571191 0)
(-0.0527859 0.0679506 0)
(-0.0632331 0.0811953 0)
(-0.0814116 0.0874002 0)
(-0.105504 0.0626943 0)
(-0.117676 -0.0224072 0)
(-0.10838 -0.180607 0)
(-0.107979 -0.347076 0)
(-0.0119272 -0.383632 0)
(-0.00294587 0.0319144 0)
(-0.00968328 0.0564447 0)
(-0.017143 0.0599196 0)
(-0.022447 0.0565733 0)
(-0.0261573 0.0528388 0)
(-0.0290121 0.0499472 0)
(-0.0313083 0.0479323 0)
(-0.0331253 0.0468274 0)
(-0.0344418 0.0468547 0)
(-0.0351792 0.0484991 0)
(-0.0352413 0.0526428 0)
(-0.0345155 0.0605611 0)
(-0.0328538 0.0732855 0)
(-0.0308169 0.0888001 0)
(-0.0320063 0.0965405 0)
(-0.0374293 0.0732185 0)
(-0.0428103 -0.00914402 0)
(-0.038832 -0.167102 0)
(-0.0729286 -0.363379 0)
(0.0101828 -0.456639 0)
(-0.00471961 0.0418095 0)
(-0.0149923 0.0633633 0)
(-0.023307 0.0620789 0)
(-0.0276357 0.0580481 0)
(-0.0299597 0.0543899 0)
(-0.0316726 0.0514482 0)
(-0.0328857 0.0491963 0)
(-0.0333931 0.0476372 0)
(-0.0329339 0.046993 0)
(-0.0311267 0.0476845 0)
(-0.0273967 0.0505702 0)
(-0.020888 0.0567993 0)
(-0.0105258 0.0673838 0)
(0.00425465 0.0812105 0)
(0.0203319 0.089888 0)
(0.034119 0.0722313 0)
(0.0333205 0.00151681 0)
(0.0365237 -0.141322 0)
(-0.0293792 -0.358284 0)
(0.0387663 -0.483453 0)
(-0.00258514 0.0380412 0)
(-0.0135435 0.0815145 0)
(-0.0277312 0.0799758 0)
(-0.033546 0.0689234 0)
(-0.0353587 0.061081 0)
(-0.0352535 0.0557394 0)
(-0.0334598 0.0516113 0)
(-0.0301405 0.0482458 0)
(-0.0253929 0.0457525 0)
(-0.0189422 0.0441595 0)
(-0.0104713 0.0441062 0)
(0.00108563 0.0461947 0)
(0.0167582 0.0517963 0)
(0.0385136 0.0599908 0)
(0.0625835 0.0666765 0)
(0.0879701 0.0556584 0)
(0.0911045 0.00513118 0)
(0.0964458 -0.11514 0)
(0.0304668 -0.322592 0)
(0.0880505 -0.457822 0)
(-0.097046 0.0978357 0)
(-0.0741306 0.0768717 0)
(-0.0640899 0.0571491 0)
(-0.042663 0.0493276 0)
(-0.0229595 0.0439446 0)
(-0.00356147 0.039475 0)
(0.0148121 0.0357674 0)
(0.033315 0.0325689 0)
(0.0502621 0.030234 0)
(0.0685218 0.0281806 0)
(0.0845496 0.0271146 0)
(0.104316 0.0266074 0)
(0.120401 0.0282548 0)
(0.144848 0.031116 0)
(0.15711 0.032371 0)
(0.192591 0.0267002 0)
(0.183843 -0.00874833 0)
(0.206367 -0.0911302 0)
(0.153006 -0.235313 0)
(0.171703 -0.347558 0)
(0.13601 0.109878 0)
(0.172193 0.0877829 0)
(0.232629 0.0660147 0)
(0.287767 0.0518463 0)
(0.330184 0.0426339 0)
(0.367435 0.0357361 0)
(0.395821 0.0306319 0)
(0.425974 0.0262192 0)
(0.446505 0.0231004 0)
(0.473878 0.0201116 0)
(0.488492 0.0182339 0)
(0.515986 0.0163019 0)
(0.525581 0.0154302 0)
(0.555446 0.0145548 0)
(0.557165 0.0142457 0)
(0.585332 0.0114364 0)
(0.562532 0.00474494 0)
(0.560111 -0.0170783 0)
(0.455358 -0.0499977 0)
(0.344767 -0.101805 0)
)
;

boundaryField
{
    movingWall
    {
        type            fixedValue;
        value           uniform (1 0 0);
    }
    fixedWalls
    {
        type            noSlip;
    }
    frontAndBack
    {
        type            empty;
    }
}


// ************************************************************************* //
