/*--------------------------------*- C++ -*----------------------------------*\
  =========                 |
  \\      /  F ield         | OpenFOAM: The Open Source CFD Toolbox
   \\    /   O peration     | Website:  https://openfoam.org
    \\  /    A nd           | Version:  10
     \\/     M anipulation  |
\*---------------------------------------------------------------------------*/
FoamFile
{
    format      ascii;
    class       volScalarField;
    location    "2";
    object      p;
}
// * * * * * * * * * * * * * * * * * * * * * * * * * * * * * * * * * * * * * //

dimensions      [0 2 -2 0 0 0 0];

internalField   nonuniform List<scalar> 
496
(
29.5873
29.8039
26.3492
20.1555
30.1293
30.8343
26.7039
20.4406
34.9166
32.8061
24.2352
13.8541
42.7952
39.7574
36.0476
20.3688
11.8188
2.69806
11.7686
2.89634
-1.21219
-5.80031
-30.7888
-56.3827
-4.37225
-8.76498
-10.7715
-11.6124
-4.42106
-10.0026
-13.4913
-14.8921
1.06983
0.971074
-2.71676
-8.15568
-26.8959
-12.6297
-5.2903
-7.39025
-12.2304
-12.9826
-13.7282
-14.1084
-14.0038
-13.2598
-12.3785
-11.7579
-11.7616
-12.1227
-12.2003
-11.8111
-11.3049
-11.083
-10.6787
-9.8184
-8.38372
-6.80382
-5.55112
-4.62095
-4.09625
-3.72176
-3.7081
-3.69868
-3.80279
-3.77552
-3.40522
-2.89251
-2.39716
-2.16474
-1.93501
-1.54736
-1.01007
-0.415453
0.0233873
0.129872
0.056403
-0.0355622
-0.0808912
-0.0121412
-15.5918
-15.9664
-15.9535
-15.3953
-14.2016
-12.8461
-11.8569
-11.4035
-11.5108
-11.8978
-12.0654
-12.0154
-11.7192
-11.4326
-10.8417
-9.8977
-8.50392
-6.8521
-5.2004
-4.10688
-3.69748
-3.4667
-3.54724
-3.71627
-3.91749
-3.80862
-3.43502
-2.91036
-2.43913
-2.15989
-1.88784
-1.42616
-0.844364
-0.321804
0.0885636
0.158221
0.138098
0.0672224
-0.0176751
0.109134
-14.11
-17.4468
-17.7309
-16.3824
-14.2358
-12.6969
-11.9524
-11.6063
-11.7245
-12.0146
-12.3352
-12.6867
-12.7997
-12.6703
-11.5796
-9.8219
-7.89755
-6.38188
-5.18439
-4.10918
-3.33723
-3.34698
-3.69553
-4.33074
-4.62776
-4.62271
-4.22275
-3.24736
-2.37819
-1.67541
-1.26866
-1.02588
-0.453565
-0.102245
-0.183464
-0.314879
-0.402271
-0.613854
-0.492079
-0.279192
-14.7882
-18.7554
-17.6318
-15.1208
-14.1735
-13.2367
-10.3562
-10.8936
-11.3274
-11.1618
-11.7235
-12.7344
-14.1635
-14.3423
-13.5668
-11.3539
-8.52971
-5.47833
-3.13376
-2.06737
-1.61044
-2.57197
-3.18897
-4.40309
-5.19198
-5.47807
-5.14173
-4.25689
-3.18485
-1.64133
-0.389462
1.0407
1.40553
1.32553
0.444609
0.00541379
-0.461919
-0.952689
-0.642417
-0.527297
47.6753
49.0069
63.4047
75.3594
47.5021
49.5165
63.4917
76.1009
-27.2331
-24.1216
-6.40008
-27.2903
-28.6203
-17.7228
-9.3732
-16.7867
-20.7763
-17.8894
-14.7811
-18.0067
-17.7468
-13.9922
-13.2225
-14.6908
-11.6303
-11.1633
-12.049
-11.9521
-12.3711
-12.6446
-11.7736
-10.4596
-9.05478
-7.64827
-6.29996
-5.38302
-4.77832
-4.34261
-3.96291
-3.81295
-3.58219
-3.48431
-3.37661
-2.85155
-2.26727
-1.85235
-1.38013
-1.04982
-0.906047
-0.968867
-0.983375
-1.07968
-1.24953
-1.01973
-0.52608
-0.250216
-23.8682
-17.3508
-16.7463
-16.3092
-16.5034
-17.1217
-13.8499
-14.9237
-14.3594
-12.601
-11.9953
-10.749
-9.53865
-8.40759
-8.24539
-7.87764
-8.04215
-8.75219
-9.42944
-9.4886
-8.67379
-7.1877
-5.38004
-3.51437
-1.83123
-0.658471
-0.0960825
-0.17559
-0.232685
-0.941262
-1.77912
-2.50048
-3.10531
-3.42687
-3.4461
-2.92497
-2.18574
-1.63839
-0.879841
0.0186248
43.1771
40.2669
36.744
21.1491
35.7885
33.2753
25.0064
14.3216
30.6933
30.9625
26.6753
20.274
29.8312
29.8117
26.409
20.1399
-29.785
-55.884
-0.876305
-5.53008
11.3759
2.48331
11.6935
2.61843
-25.892
-5.57708
-4.61397
-11.472
1.01427
0.238631
-4.69358
-9.79589
-5.02432
-10.2057
-13.0216
-14.1836
-4.33691
-8.65531
-10.6883
-11.6143
-14.8386
-15.0305
-14.5557
-14.947
-14.0782
-12.8944
-13.8264
-14.7676
-14.2347
-13.6069
-12.2792
-10.2139
-7.65189
-6.07579
-5.39019
-6.44535
-7.85305
-9.21876
-10.6183
-10.3671
-9.86242
-7.99138
-5.93267
-3.3855
-0.756465
1.3964
2.42608
2.10377
1.07071
-0.407782
-1.8621
-3.37919
-3.93422
-4.34106
-4.07546
-3.53031
-2.84743
-1.9118
-1.0414
0.225475
-13.9365
-15.8521
-15.8914
-15.5811
-14.747
-14.1767
-14.0023
-13.9282
-13.5888
-13.145
-11.9387
-10.352
-8.88637
-7.79248
-7.36161
-7.73715
-8.73211
-9.59977
-9.82677
-9.34252
-8.33174
-6.55305
-4.80386
-3.23092
-1.82089
-0.962309
-0.0722153
-0.0485507
-0.52564
-1.33284
-2.11194
-2.7341
-3.33918
-3.50245
-3.295
-2.66167
-2.04256
-1.4225
-0.81065
-0.304161
-14.9571
-15.4791
-15.3665
-14.857
-14.2654
-13.8244
-13.4291
-13.1687
-12.836
-12.3379
-11.5236
-10.3872
-9.17193
-8.32183
-7.88648
-7.76905
-8.02025
-8.09927
-8.24336
-7.75796
-6.97081
-6.18185
-5.03472
-3.86019
-2.54725
-1.2663
-0.654326
-0.344688
-0.517136
-0.868642
-1.28171
-1.81337
-2.32367
-2.54242
-2.53917
-2.27426
-1.98247
-1.69688
-1.29859
-0.538164
-12.2704
-12.9501
-13.5002
-13.8107
-13.922
-13.7688
-13.3887
-13.1248
-12.7524
-12.2065
-11.47
-10.5052
-9.52909
-8.66071
-8.26207
-8.07953
-8.18443
-8.19671
-7.86737
-7.40979
-6.7308
-6.01985
-4.97846
-3.87737
-2.67496
-1.72621
-1.01477
-0.701748
-0.812667
-1.04374
-1.4533
-1.74466
-2.18606
-2.48442
-2.46266
-2.19267
-1.85802
-1.57015
-1.16571
-0.455605
)
;

boundaryField
{
    inlet
    {
        type            zeroGradient;
    }
    outlet
    {
        type            fixedValue;
        value           uniform 0;
    }
    obstacle
    {
        type            zeroGradient;
    }
    upperWall
    {
        type            zeroGradient;
    }
    lowerWall
    {
        type            zeroGradient;
    }
    frontAndBack
    {
        type            empty;
    }
}


// ************************************************************************* //
