/*--------------------------------*- C++ -*----------------------------------*\
  =========                 |
  \\      /  F ield         | OpenFOAM: The Open Source CFD Toolbox
   \\    /   O peration     | Website:  https://openfoam.org
    \\  /    A nd           | Version:  10
     \\/     M anipulation  |
\*---------------------------------------------------------------------------*/
FoamFile
{
    format      ascii;
    class       surfaceScalarField;
    location    "2";
    object      phi;
}
// * * * * * * * * * * * * * * * * * * * * * * * * * * * * * * * * * * * * * //

dimensions      [0 3 -1 0 0 0 0];

internalField   nonuniform List<scalar> 
928
(
0.096112
0.00388802
0.103553
-0.00744112
0.106903
-0.00334974
-0.00940458
0.116307
0.0947975
0.00909054
0.105829
-0.018473
0.102652
-0.000172829
-0.0191074
0.112355
0.0958054
0.0132851
0.109194
-0.031862
0.103887
0.00513451
-0.0406147
0.125394
0.103215
0.0100697
0.0932846
-0.0219311
0.0985141
-9.49752e-05
0.146527
-0.088628
0.111068
0.00523981
-0.016092
0.12716
0.108968
0.00862717
-0.0408073
0.133683
0.126793
0.00722887
-0.0469724
0.132958
0.153756
0.106784
0.126392
0.000767971
0.126535
-0.000143185
0.127638
-0.00110284
-0.00181264
0.12945
0.134754
-0.000303175
0.13373
0.000881366
0.133822
-0.00119498
-0.00373096
0.13574
0.133854
-0.0011995
0.133871
0.000864511
0.136654
-0.00397777
-0.00653196
0.139455
0.113145
-0.00756085
0.085478
0.0285317
0.0868314
-0.00533116
0.0937988
-0.0134994
0.131171
-0.00172118
0.131796
-0.000624099
0.131604
0.000191796
0.130039
0.00156481
0.128791
0.00124769
0.128141
0.000649897
0.127768
0.000373568
0.127961
-0.000193407
0.127939
2.23308e-05
0.128365
-0.000425998
0.128425
-6.03416e-05
0.128368
5.72132e-05
0.127565
0.000802577
0.125889
0.00167649
0.123915
0.00197347
0.121515
0.00240078
0.119945
0.00157009
0.118422
0.0015227
0.118075
0.000346462
0.117823
0.000252385
0.118489
-0.000665855
0.118975
-0.000485811
0.119137
-0.000161906
0.118739
0.000397454
0.117266
0.00147336
0.115124
0.00214136
0.112123
0.00300122
0.109211
0.00291229
0.10632
0.00289099
0.104459
0.00186057
0.103082
0.00137693
0.103153
-7.06364e-05
0.103596
-0.00044301
0.105102
-0.00150616
0.106331
-0.00122868
0.107517
-0.00118558
0.107941
-0.000424748
0.107746
0.000194844
0.107
0.000746549
0.0018388
0.137633
-0.00361432
0.137556
-0.000546956
0.136323
0.0014252
0.13543
0.00245798
0.1354
0.00127726
0.135204
0.000846344
0.13486
0.000717336
0.13512
-0.000453287
0.13547
-0.000328303
0.135917
-0.000872388
0.13646
-0.000602995
0.136902
-0.00038568
0.136771
0.000933998
0.13572
0.00272713
0.134429
0.00326496
0.132504
0.00432549
0.131224
0.00285039
0.12952
0.00322669
0.129421
0.000445491
0.129662
1.1514e-05
0.130662
-0.00166582
0.13192
-0.00174368
0.133082
-0.00132389
0.133818
-0.000338911
0.133132
0.00215936
0.132371
0.00290226
0.130151
0.00522109
0.128504
0.00455912
0.12581
0.00558529
0.124212
0.00345813
0.122656
0.00293366
0.122459
0.000125643
0.122836
-0.000819688
0.123849
-0.00251909
0.12513
-0.00250975
0.125963
-0.00201898
0.127222
-0.00168348
0.127305
0.000112298
0.127486
0.000565244
0.00251562
0.13596
-0.000119542
0.133435
0.00197833
0.133429
0.00143061
0.135394
0.000492622
0.135535
0.00113663
0.133514
0.00286742
0.134281
-4.94525e-05
0.133515
0.000312529
0.132589
0.000597623
0.132876
-0.00115903
0.133919
-0.00164629
0.134736
-0.00120236
0.135536
0.000133656
0.13523
0.00303298
0.133912
0.00458319
0.132661
0.00557633
0.131306
0.00420584
0.130924
0.00360869
0.129644
0.00172523
0.128548
0.00110777
0.128367
-0.00148493
0.128521
-0.00189782
0.129723
-0.00252613
0.131402
-0.00201755
0.133457
0.000104219
0.134878
0.00148112
0.135408
0.00469158
0.135329
0.00463765
0.135051
0.00586376
0.134693
0.00381625
0.134172
0.0034545
0.133102
0.00119511
0.131948
0.000334452
0.131056
-0.00162677
0.13028
-0.00173369
0.129916
-0.00165506
0.130315
-0.00208231
0.130411
1.62292e-05
0.131756
-0.000780104
0.00153177
0.0953562
-0.00167697
0.089267
0.00806754
0.0911464
-0.000448808
0.0962531
-0.0046141
0.0944141
0.00297561
0.0866706
0.0106109
0.093057
-0.0064358
0.0905414
0.00282813
0.0861412
0.00499779
0.08886
-0.00387788
0.0900264
-0.00281264
0.0921599
-0.00333587
0.095016
-0.00272245
0.097747
0.000302044
0.0991492
0.00318094
0.0984892
0.00623633
0.0944693
0.00822573
0.0877878
0.0102902
0.0803169
0.00919608
0.0754261
0.0059986
0.072027
0.00191417
0.072215
-0.00208582
0.0749251
-0.00523621
0.0796159
-0.00670841
0.0856242
-0.00590408
0.0915196
-0.00441428
0.0967751
-0.000563932
0.0996365
0.00177626
0.101154
0.0043461
0.0985833
0.00638711
0.0949708
0.00706703
0.0893853
0.00678056
0.084556
0.0051638
0.0803229
0.00260632
0.0780183
0.000570852
0.0784138
-0.00205048
0.0798649
-0.00353344
0.0832211
-0.00334
0.0879367
-0.00549565
-0.00265412
0.110358
-0.000288262
0.0881811
0.000245705
0.0888136
-0.000727471
0.00018562
0.109807
-0.010095
0.0885609
0.0214915
0.0871707
0.000662701
0.0873563
0.00237511
-0.00993596
0.0050117
0.0258951
-0.00679885
0.0064794
-0.0389669
0.0186687
-0.00434811
-0.00558785
0.0121441
0.00940297
0.0164418
0.0021816
-0.0175086
-0.00501649
0.0102415
0.00675018
0.00742795
0.0108811
-0.000420356
0.0073995
0.00842667
-0.0134611
0.00825555
0.00314672
-0.00130516
0.0201717
0.00277827
-0.0105192
0.0048214
0.00078499
0.00266471
0.00715449
0.00276704
-0.00398021
0.00630112
-0.00634673
0.00868796
-0.00572272
0.0107778
-0.00481228
0.0126703
-0.00159051
0.0136756
0.00217569
0.0139199
0.00599207
0.0139108
0.00823476
0.013808
0.010393
0.0143021
0.00870205
0.0155505
0.0047502
0.0174954
-3.07153e-05
0.0198855
-0.00447599
0.0229985
-0.0083492
0.0268174
-0.0105273
0.0302357
-0.00932246
0.0331374
-0.00731597
0.0354671
-0.00289363
0.0364742
0.000769228
0.0364223
0.00439793
0.0352959
0.00751352
0.0337733
0.00858965
0.0327385
0.00781533
0.0318919
0.00601045
0.0321672
0.00233096
0.0324921
0.000245995
0.0337011
-0.00325951
0.0359083
-0.00574058
0.0378713
-0.00530299
0.0413688
-0.00899316
-0.00547363
-0.0151597
0.00440124
-0.00323077
-0.00104776
0.00129101
0.00287772
-0.00755058
-0.00461953
-0.00769162
0.00328776
0.0103869
0.00209311
0.000839661
-0.00097195
0.00163345
-8.80061e-06
0.0116276
-0.0028397
0.0105071
-0.00285964
0.00942265
-0.00526231
0.00903308
-0.00533316
0.00936093
-0.00514013
0.0110308
-0.0032604
0.0139941
-0.000787602
0.0173738
0.00261243
0.0206844
0.0049241
0.0252783
0.00579911
0.0303778
0.00360259
0.0337157
0.00141227
0.0361502
-0.00246522
0.0373363
-0.00566209
0.0366639
-0.00767676
0.0352514
-0.00911483
0.0339613
-0.00803229
0.0330365
-0.00639122
0.0334247
-0.0032818
0.0345376
-0.000343651
0.0361323
0.00280322
0.0387329
0.0049129
0.0414951
0.00582749
0.0438971
0.00541334
0.0464461
0.00346142
0.0477189
0.00105813
0.0490819
-0.00111695
0.0489591
-0.0031367
0.0474938
-0.00427535
0.0475137
-0.00532289
0.0453205
-0.00679991
-0.00420316
0.102321
-0.0124159
0.0939345
0.029878
0.0979279
-0.00333074
0.0387436
0.146541
0.0959651
-0.008381
0.108062
0.0177814
0.10402
0.000710657
0.0188212
0.123943
0.0952409
-0.00362194
0.106014
0.00700826
0.103168
0.00355685
0.0093169
0.112672
0.0963781
0.103386
0.106943
0.11626
0.154065
-0.00752444
0.0438868
0.110178
0.125321
-0.00890293
0.040906
0.128302
0.108942
-0.00517258
0.0159585
0.133889
0.111087
0.127046
0.102207
0.00238366
0.109223
0.00238722
0.10958
0.0018244
0.00380203
0.100761
0.131712
-0.00102663
0.134621
-0.000521638
0.134374
0.00207187
0.00395085
0.134225
0.133569
-0.000705973
0.13276
0.000287047
0.133497
0.00133485
0.00176124
0.135687
0.12634
0.126627
0.127962
0.129723
0.103172
0.00199039
0.101651
0.000473045
0.103133
0.0013959
0.0983355
0.000178106
0.100314
0.00130877
0.10291
-0.000502353
0.10307
-0.00113214
0.105793
-0.00273194
0.106358
-0.00340439
0.107824
-0.00432547
0.10624
-0.00367889
0.103839
-0.00293155
0.100248
-0.0015498
0.0960542
0.000933783
0.0929855
0.00228112
0.0913334
0.00426455
0.0933936
0.00286385
0.0959231
0.00326963
0.100846
-0.00131995
0.10575
-0.00349238
0.111221
-0.00793639
0.114813
-0.00925371
0.116459
-0.00932293
0.115197
-0.00785212
0.111635
-0.00447046
0.107632
-0.00238801
0.102115
0.00223458
0.0986088
0.00316266
0.0958735
0.00553855
0.0963941
0.0043923
0.0982709
0.0039507
0.102418
0.00126622
0.106761
-0.000881093
0.111573
-0.00375438
0.116034
-0.00557819
0.119594
-0.00669613
0.122288
-0.00696985
0.122306
-0.00534039
0.119883
-0.00437717
-0.00120045
0.133551
0.00266388
0.133008
0.00101591
0.134012
0.000392078
0.134172
1.84098e-05
0.136052
-0.00057175
0.136638
-0.00108809
0.136367
-0.000861201
0.135709
-0.00207357
0.134393
-0.00208831
0.133307
-0.00324011
0.131861
-0.00223253
0.130776
-0.00184679
0.129406
-0.000179793
0.129033
0.00130749
0.129322
0.00199135
0.13032
0.00326696
0.131606
0.00157807
0.133464
0.00141158
0.13462
-0.00247649
0.13468
-0.00355167
0.133093
-0.00634976
0.130344
-0.00650474
0.127491
-0.00646944
0.12525
-0.00561189
0.12352
-0.00274024
0.122114
-0.000981891
0.122241
0.0021079
0.1227
0.00270308
0.124313
0.00392541
0.125997
0.00270854
0.12798
0.00196737
0.129996
-0.000748827
0.131485
-0.00237081
0.131848
-0.00411693
0.131198
-0.00492829
0.129673
-0.00517114
0.127568
-0.0048652
0.125894
-0.00366621
0.124178
-0.00266128
-3.87244e-05
0.136877
0.00147357
0.137092
0.000801066
0.137367
0.000116912
0.137789
-0.0004039
0.138002
-0.000784521
0.137673
-0.0007593
0.13752
-0.000708205
0.136652
-0.0012055
0.135524
-0.000960247
0.133774
-0.00148976
0.132563
-0.00102135
0.131839
-0.00112292
0.131721
-6.24048e-05
0.132665
0.000363629
0.13366
0.000996949
0.135562
0.00136502
0.136515
0.000625029
0.137737
0.000189661
0.13676
-0.00149999
0.135504
-0.00229578
0.132906
-0.0037514
0.130083
-0.00368216
0.127127
-0.00351328
0.124025
-0.00250933
0.122524
-0.00123961
0.121835
-0.000292602
0.122839
0.00110355
0.124083
0.00145894
0.126153
0.00185571
0.127803
0.00105855
0.129446
0.000324175
0.129518
-0.000820798
0.128935
-0.00178819
0.127548
-0.00272937
0.125595
-0.00297542
0.123525
-0.00310096
0.121044
-0.00238452
0.119174
-0.00179568
0.117346
-0.000833632
0.000253502
0.131197
0.131998
0.132115
0.131711
0.130926
0.130167
0.129459
0.128253
0.127293
0.125803
0.124782
0.123659
0.123597
0.12396
0.124957
0.126322
0.126947
0.127137
0.125637
0.123341
0.11959
0.115908
0.112394
0.109885
0.108645
0.108353
0.109456
0.110915
0.112771
0.11383
0.114154
0.113333
0.111545
0.108815
0.10584
0.102739
0.100354
0.0985588
0.0977251
)
;

boundaryField
{
    inlet
    {
        type            calculated;
        value           nonuniform List<scalar> 10(-0.1 -0.1 -0.1 -0.1 -0.1 -0.1 -0.1 -0.1 -0.1 -0.1);
    }
    outlet
    {
        type            calculated;
        value           nonuniform List<scalar> 10(0.105161 0.126809 0.13274 0.0921226 0.0441883 0.04405 0.11688 0.123016 0.117054 0.0979786);
    }
    obstacle
    {
        type            calculated;
        value           uniform 0;
    }
    upperWall
    {
        type            calculated;
        value           uniform 0;
    }
    lowerWall
    {
        type            calculated;
        value           uniform 0;
    }
    frontAndBack
    {
        type            empty;
        value           nonuniform List<scalar> 0();
    }
}


// ************************************************************************* //
