/*--------------------------------*- C++ -*----------------------------------*\
  =========                 |
  \\      /  F ield         | OpenFOAM: The Open Source CFD Toolbox
   \\    /   O peration     | Website:  https://openfoam.org
    \\  /    A nd           | Version:  10
     \\/     M anipulation  |
\*---------------------------------------------------------------------------*/
FoamFile
{
    format      ascii;
    class       volVectorField;
    location    "2";
    object      U;
}
// * * * * * * * * * * * * * * * * * * * * * * * * * * * * * * * * * * * * * //

dimensions      [0 1 -1 0 0 0 0];

internalField   nonuniform List<vector> 
496
(
(9.97413 0.0763742 0)
(9.91538 -0.160825 0)
(10.2143 -0.126882 0)
(10.7798 -0.198437 0)
(10.0616 0.516495 0)
(9.79049 -1.27614 0)
(10.2248 -0.315139 0)
(10.8398 -1.10345 0)
(10.8222 1.40036 0)
(9.15334 -3.01543 0)
(11.1572 -0.145336 0)
(10.86 -4.1005 0)
(11.9541 1.63109 0)
(8.33737 -2.74411 0)
(12.5722 0.975466 0)
(10.546 -6.71567 0)
(11.4444 -0.232717 3.36279e-18)
(12.1379 -0.1858 -7.92913e-19)
(11.6023 -0.43012 -3.53147e-19)
(12.4894 0.22235 1.61759e-18)
(12.9828 -2.16561 -3.01381e-18)
(13.2512 -0.387506 -8.23923e-19)
(12.8062 -5.18921 -3.5127e-17)
(16.0285 -4.55961 6.39354e-17)
(12.7137 -0.180956 0)
(12.9627 -0.18349 0)
(13.1381 -0.0725265 0)
(13.0992 0.0489702 0)
(13.0662 0.18857 0)
(13.4483 -0.179998 0)
(13.7614 -0.551713 0)
(13.7897 -0.751984 0)
(12.6917 0.718871 0)
(12.6777 1.27225 0)
(13.0104 0.981105 0)
(13.1262 0.547099 0)
(10.3539 -2.47542 0)
(10.4166 -1.76118 0)
(7.38964 -2.3278 0)
(8.56466 -1.17702 0)
(13.1531 0.172728 0)
(13.1002 0.314926 0)
(13.1537 0.392516 0)
(13.0683 0.473042 0)
(13.0439 0.475555 0)
(12.8959 0.446344 0)
(12.844 0.387567 0)
(12.7447 0.332153 0)
(12.81 0.306847 0)
(12.8352 0.274006 0)
(12.9162 0.25448 0)
(12.8162 0.256956 0)
(12.8142 0.279298 0)
(12.6352 0.314208 0)
(12.5868 0.301505 0)
(12.2728 0.322153 0)
(12.1502 0.284797 0)
(11.8414 0.300839 0)
(11.8297 0.204687 0)
(11.7194 0.176669 0)
(11.8117 0.0995606 0)
(11.8491 0.113707 0)
(11.8897 0.124801 0)
(11.9377 0.185691 0)
(11.7985 0.261973 0)
(11.7196 0.279337 0)
(11.3249 0.353409 0)
(11.0911 0.339363 0)
(10.6806 0.418795 0)
(10.5339 0.366475 0)
(10.3627 0.371424 0)
(10.3084 0.272168 0)
(10.382 0.246618 0)
(10.357 0.183626 0)
(10.6358 0.18095 0)
(10.574 0.185474 0)
(10.9068 0.202105 0)
(10.6815 0.263287 0)
(10.8975 0.305034 0)
(10.5152 0.371168 0)
(13.8788 -0.781679 0)
(13.8293 -0.557868 0)
(13.8452 -0.420668 0)
(13.7253 -0.26736 0)
(13.6387 -0.228787 0)
(13.4715 -0.273487 0)
(13.4416 -0.273719 0)
(13.3936 -0.335606 0)
(13.5173 -0.284576 0)
(13.5545 -0.327497 0)
(13.7063 -0.253119 0)
(13.6722 -0.229085 0)
(13.7509 -0.0968068 0)
(13.6045 0.0314373 0)
(13.582 0.084206 0)
(13.356 0.109338 0)
(13.2386 -0.0231568 0)
(13.0062 -0.0101241 0)
(12.8966 -0.118336 0)
(12.9129 -0.100547 0)
(12.9457 -0.198962 0)
(13.1555 -0.190362 0)
(13.1855 -0.145483 0)
(13.4323 -0.051062 0)
(13.3176 0.0986934 0)
(13.3789 0.203943 0)
(13.0897 0.25874 0)
(12.9539 0.215479 0)
(12.6726 0.1107 0)
(12.4661 -0.0255083 0)
(12.3654 -0.12748 0)
(12.2089 -0.283255 0)
(12.3355 -0.315499 0)
(12.2405 -0.455417 0)
(12.5178 -0.382386 0)
(12.4444 -0.384397 0)
(12.754 -0.269533 0)
(12.6608 -0.177411 0)
(12.8598 -0.091639 0)
(12.6744 0.0385877 0)
(13.6018 0.407167 0)
(13.7893 0.505311 0)
(13.869 0.603461 0)
(13.6941 0.6055 0)
(13.5419 0.473253 0)
(13.3235 0.460401 0)
(13.3746 0.35072 0)
(13.178 0.17684 0)
(13.3059 0.173509 0)
(13.3294 0.0778424 0)
(13.3661 0.0816713 0)
(13.4993 0.124793 0)
(13.461 0.288561 0)
(13.7009 0.57283 0)
(13.3934 0.691696 0)
(13.4708 0.900773 0)
(13.0549 0.667181 0)
(13.2208 0.599054 0)
(12.9016 0.148437 0)
(12.962 0.0390925 0)
(12.7573 -0.238314 0)
(12.8028 -0.222976 0)
(12.9211 -0.171555 0)
(12.965 -0.0786732 0)
(13.3541 0.280625 0)
(13.3534 0.384046 0)
(13.662 0.826958 0)
(13.4162 0.784514 0)
(13.6289 1.06293 0)
(13.3443 0.752842 0)
(13.586 0.709638 0)
(13.2682 0.249186 0)
(13.3698 0.0556524 0)
(13.0424 -0.168098 0)
(13.0977 -0.229811 0)
(12.9858 -0.116323 0)
(12.955 -0.136331 0)
(13.0714 0.136581 0)
(13.0544 0.12868 0)
(13.2804 0.428979 0)
(8.22194 -0.352637 0)
(9.82098 -0.247219 0)
(9.50286 -0.308739 0)
(9.69429 -0.347708 0)
(8.54894 -0.109705 0)
(9.70207 0.0673484 0)
(9.03691 -0.207371 0)
(8.42047 0.0207624 0)
(9.17096 -0.00491455 0)
(8.81348 -0.232623 0)
(8.84903 -0.344269 0)
(9.03203 -0.399706 0)
(9.36386 -0.38268 0)
(9.68694 -0.239115 0)
(9.93164 -0.094698 0)
(10.1314 0.0925858 0)
(9.52863 0.24917 0)
(9.35904 0.353381 0)
(8.01272 0.392733 0)
(8.15103 0.366762 0)
(6.79749 0.197787 0)
(7.54414 -0.00423334 0)
(6.95484 -0.273036 0)
(7.84785 -0.364998 0)
(8.27267 -0.364923 0)
(8.73801 -0.294059 0)
(9.69859 -0.112237 0)
(9.58001 -0.0224626 0)
(10.4612 0.103568 0)
(9.67301 0.109825 0)
(10.0942 0.158556 0)
(8.90932 0.13484 0)
(8.89446 0.151651 0)
(8.02249 0.0717921 0)
(7.91861 0.0382958 0)
(7.892 -0.0886863 0)
(7.6035 -0.220602 0)
(8.48793 -0.147759 0)
(8.21472 -0.297164 0)
(9.2312 -0.165095 0)
(12.3421 0.529295 -1.08914e-17)
(7.83151 -0.759739 -1.82276e-17)
(11.7297 -0.127399 3.19958e-17)
(4.71985 -4.60484 -8.54916e-17)
(12.0259 -0.623063 1.09293e-17)
(8.2073 0.850405 1.83497e-17)
(11.1955 -0.0699384 -3.21653e-17)
(5.1355 4.68809 8.63357e-17)
(-10.4381 1.9658 0)
(13.0725 6.24652 0)
(-9.15685 1.30007 0)
(5.81028 -3.36054 0)
(2.52575 -4.80661 3.25418e-17)
(-1.71291 0.583437 0)
(4.85999 -0.367142 0)
(-2.5033 -2.52236 0)
(-0.496973 -0.234706 0)
(2.10753 2.20005 0)
(-0.152789 0.407411 0)
(-0.175788 -1.01266 0)
(2.05669 0.343836 0)
(0.0862348 2.40296 0)
(-0.432013 -1.56495 0)
(0.655394 0.245076 0)
(0.721114 1.20003 0)
(-0.33325 -0.386037 0)
(0.676816 -0.26385 0)
(0.785486 -0.172828 0)
(0.869052 -0.0494102 0)
(1.26381 0.312996 0)
(1.4052 0.723447 0)
(1.42886 0.983214 0)
(1.27964 1.07579 0)
(1.41048 1.25679 0)
(1.49327 1.06376 0)
(1.35466 0.596821 0)
(1.61217 0.0812863 0)
(1.95706 -0.35652 0)
(1.93397 -0.67861 0)
(2.67952 -0.783259 0)
(2.76086 -0.658545 0)
(3.1678 -0.4714 0)
(3.50639 -0.00182715 0)
(3.64943 0.326131 0)
(3.56139 0.616133 0)
(3.75092 0.891735 0)
(3.32438 0.951687 0)
(3.40072 0.863712 0)
(3.145 0.627759 0)
(3.16637 0.302753 0)
(3.39226 0.0725824 0)
(3.04209 -0.290049 0)
(3.61567 -0.446477 0)
(3.71765 -0.387814 0)
(3.73176 -0.692831 0)
(4.42386 -0.333704 0)
(-2.07787 1.01472 0)
(0.265434 -0.444416 0)
(-1.19509 0.504347 0)
(1.41884 -1.07879 0)
(-3.10343 0.507346 0)
(1.19725 0.668419 0)
(1.53965 -0.165669 0)
(-1.52072 0.0165272 0)
(1.89652 -0.155359 0)
(0.793361 -0.425611 0)
(1.01756 -0.815675 0)
(1.02483 -0.805423 0)
(0.826318 -0.762315 0)
(1.05136 -0.520431 0)
(1.16644 -0.146769 0)
(1.71303 0.272511 0)
(1.77342 0.55133 0)
(2.13906 0.648695 0)
(3.01321 0.433441 0)
(3.17334 0.155644 0)
(3.53779 -0.276399 0)
(3.74169 -0.673548 0)
(3.68178 -0.910732 0)
(3.66093 -1.17874 0)
(3.45228 -1.04257 0)
(3.21607 -0.841905 0)
(3.37345 -0.478399 0)
(3.34676 -0.038417 0)
(3.49483 0.337113 0)
(3.68301 0.600402 0)
(4.10054 0.651613 0)
(4.21085 0.598151 0)
(4.49967 0.432158 0)
(4.88331 0.0849603 0)
(4.63954 -0.132318 0)
(5.21059 -0.475202 0)
(4.58377 -0.66315 0)
(4.88132 -0.771821 0)
(4.72534 -1.09722 0)
(4.38394 -0.733577 0)
(12.3307 -1.48058 0)
(7.79563 2.51889 0)
(13.2611 -0.63294 0)
(9.69817 6.39966 0)
(10.8578 -1.34397 0)
(9.03824 2.87324 0)
(11.2405 0.143956 0)
(10.6481 3.97532 0)
(10.0768 -0.472203 0)
(9.80758 1.23554 0)
(10.297 0.380191 0)
(10.8332 1.11936 0)
(9.99128 -0.0803606 0)
(9.92048 0.181985 0)
(10.2253 0.13642 0)
(10.7657 0.206106 0)
(13.6981 5.536 3.39816e-17)
(15.0787 4.22984 -6.33655e-17)
(12.9616 2.02388 0)
(12.955 0.348319 0)
(11.6795 0.487902 0)
(12.4604 -0.145925 0)
(11.472 0.230223 0)
(12.1209 0.170479 0)
(11.8609 2.96377 0)
(10.6038 1.90489 0)
(8.66654 1.14033 0)
(10.9566 1.36624 0)
(12.3725 -1.06911 0)
(12.508 -1.07878 0)
(12.8399 -0.603251 0)
(13.2298 -0.398062 0)
(13.0605 -0.121121 0)
(13.4169 0.270893 0)
(13.6784 0.546768 0)
(13.7302 0.684971 0)
(12.7059 0.163945 0)
(12.937 0.123759 0)
(13.1402 0.0437108 0)
(13.1149 -0.0436368 0)
(10.0783 0.535121 0)
(10.6058 0.380176 0)
(9.8363 0.401236 0)
(10.2712 0.263292 0)
(10.2208 0.424999 0)
(9.7396 0.0705828 0)
(10.2925 0.0273999 0)
(10.467 -0.013423 0)
(10.618 -0.194818 0)
(10.8245 -0.229371 0)
(10.7938 -0.18868 0)
(10.5746 -0.156337 0)
(10.259 -0.0860082 0)
(9.61942 -0.0114455 0)
(9.61 0.0926742 0)
(8.82202 0.299418 0)
(9.59386 0.403446 0)
(8.93296 0.540951 0)
(10.2564 0.324395 0)
(10.021 0.159781 0)
(11.1331 -0.186828 0)
(11.2267 -0.355643 0)
(11.6177 -0.512695 0)
(11.7711 -0.434213 0)
(11.1779 -0.30543 0)
(11.2497 -0.154843 0)
(10.0686 0.00186187 0)
(10.3908 0.0938794 0)
(9.25613 0.364286 0)
(9.89028 0.444525 0)
(9.40004 0.52466 0)
(10.2625 0.415749 0)
(10.2966 0.284608 0)
(10.9825 0.121349 0)
(11.4573 -0.04959 0)
(11.6826 -0.126104 0)
(12.3732 -0.177105 0)
(12.0255 -0.156145 0)
(12.5611 -0.0930153 0)
(11.6547 -0.0194657 0)
(13.4811 -0.382538 0)
(13.688 -0.393544 0)
(13.5881 -0.312535 0)
(13.7036 -0.311194 0)
(13.5307 -0.316328 0)
(13.6235 -0.348946 0)
(13.4919 -0.326112 0)
(13.6313 -0.510045 0)
(13.4591 -0.539785 0)
(13.5189 -0.664207 0)
(13.3212 -0.611755 0)
(13.148 -0.53518 0)
(13.0548 -0.325301 0)
(12.7671 -0.00753037 0)
(13.0126 0.0643963 0)
(12.758 0.325528 0)
(13.3043 0.0521837 0)
(13.068 0.0926845 0)
(13.6179 -0.41957 0)
(13.3599 -0.625858 0)
(13.5606 -1.10015 0)
(13.0956 -1.30929 0)
(12.9081 -1.34001 0)
(12.6275 -1.27272 0)
(12.3479 -0.78409 0)
(12.3732 -0.483821 0)
(12.0347 0.102985 0)
(12.3317 0.202056 0)
(12.2193 0.446882 0)
(12.5919 0.275568 0)
(12.6296 0.226389 0)
(12.9541 -0.131425 0)
(13.0842 -0.341941 0)
(13.2142 -0.66539 0)
(13.2035 -0.872154 0)
(13.0437 -1.00125 0)
(12.8826 -1.07633 0)
(12.623 -0.889497 0)
(12.5155 -0.792649 0)
(12.3036 -0.25117 0)
(13.8334 0.645621 0)
(13.8636 0.525478 0)
(13.888 0.423157 0)
(13.845 0.34067 0)
(13.8173 0.272566 0)
(13.7808 0.239557 0)
(13.7221 0.238844 0)
(13.6791 0.159646 0)
(13.5725 0.208126 0)
(13.5071 0.132161 0)
(13.3415 0.216212 0)
(13.2665 0.187152 0)
(13.1674 0.328545 0)
(13.2243 0.367093 0)
(13.297 0.455606 0)
(13.4525 0.468144 0)
(13.6077 0.374451 0)
(13.7339 0.27627 0)
(13.7625 0.0362248 0)
(13.6078 -0.0736535 0)
(13.4487 -0.24063 0)
(13.1383 -0.147469 0)
(12.9032 -0.0610886 0)
(12.5172 0.121461 0)
(12.3266 0.260309 0)
(12.1292 0.342489 0)
(12.2174 0.480585 0)
(12.2876 0.503579 0)
(12.5223 0.512249 0)
(12.6953 0.397653 0)
(12.865 0.265345 0)
(12.9897 0.0799676 0)
(12.9318 -0.0681768 0)
(12.9002 -0.171631 0)
(12.6445 -0.165383 0)
(12.5031 -0.142429 0)
(12.1631 -0.00567151 0)
(12.0401 0.0621957 0)
(11.7967 0.196617 0)
(11.7115 0.265523 0)
(13.2139 -0.135768 0)
(13.1675 -0.228684 0)
(13.2586 -0.319944 0)
(13.1656 -0.366508 0)
(13.2216 -0.403709 0)
(13.0724 -0.413662 0)
(13.0497 -0.42526 0)
(12.875 -0.461625 0)
(12.8267 -0.450843 0)
(12.6423 -0.484756 0)
(12.5593 -0.448819 0)
(12.4242 -0.433318 0)
(12.3573 -0.366546 0)
(12.3797 -0.318757 0)
(12.429 -0.295733 0)
(12.6081 -0.244478 0)
(12.6519 -0.287752 0)
(12.759 -0.280552 0)
(12.6205 -0.400954 0)
(12.4796 -0.410715 0)
(12.1436 -0.507146 0)
(11.785 -0.537461 0)
(11.4477 -0.592673 0)
(11.059 -0.584028 0)
(10.9464 -0.50175 0)
(10.7205 -0.423464 0)
(10.9174 -0.302074 0)
(10.9144 -0.269593 0)
(11.2602 -0.201334 0)
(11.2911 -0.227172 0)
(11.4625 -0.229724 0)
(11.362 -0.321591 0)
(11.3031 -0.358754 0)
(11.0572 -0.413756 0)
(10.7516 -0.427148 0)
(10.4299 -0.444262 0)
(10.0833 -0.427387 0)
(9.95316 -0.373142 0)
(9.76522 -0.334211 0)
(9.80188 -0.208072 0)
)
;

boundaryField
{
    inlet
    {
        type            fixedValue;
        value           uniform (10 0 0);
    }
    outlet
    {
        type            zeroGradient;
    }
    obstacle
    {
        type            noSlip;
    }
    upperWall
    {
        type            noSlip;
    }
    lowerWall
    {
        type            noSlip;
    }
    frontAndBack
    {
        type            empty;
    }
}


// ************************************************************************* //
