/*--------------------------------*- C++ -*----------------------------------*\
  =========                 |
  \\      /  F ield         | OpenFOAM: The Open Source CFD Toolbox
   \\    /   O peration     | Website:  https://openfoam.org
    \\  /    A nd           | Version:  10
     \\/     M anipulation  |
\*---------------------------------------------------------------------------*/
FoamFile
{
    format      ascii;
    class       surfaceScalarField;
    location    "7.5";
    object      phi;
}
// * * * * * * * * * * * * * * * * * * * * * * * * * * * * * * * * * * * * * //

dimensions      [0 3 -1 0 0 0 0];

internalField   nonuniform List<scalar> 
890
(
0.00984643
0.000153571
0.00971803
0.000128399
0.00946937
0.000248664
0.00941964
4.97219e-05
0.000146016
0.00927363
0.0101197
3.38248e-05
0.0102016
4.65161e-05
0.0104076
4.27012e-05
0.0104645
-7.20884e-06
-7.0748e-05
0.0106813
0.0100713
-3.74761e-05
0.0102155
-9.77249e-05
0.0103778
-0.000119538
0.0105212
-0.000150596
-0.000191764
0.0106422
0.0100901
-0.000127582
0.0102137
-0.00022131
0.0103299
-0.000235756
0.0104187
-0.000239421
-0.000251415
0.0104784
0.00987242
0.00965111
0.00941535
0.00917593
0.00892452
0.00926795
-0.000106413
0.000112088
0.00929269
-0.000268537
0.000243799
0.00936899
-0.000387173
0.000310872
0.00948541
-0.000487545
0.000371132
0.00963402
-0.000595632
0.000447013
0.00981399
-0.000740717
0.000560752
0.0100067
-0.000914899
0.000722216
0.0102061
-0.00112567
0.000926216
0.0104001
-0.00136645
0.00117246
0.0105704
-0.00162782
0.00145749
0.0107057
-0.00188919
0.00175392
0.0107934
-0.00213191
0.00204423
0.0108221
-0.00232617
0.0022975
0.0107855
-0.00245465
0.00249119
0.0106572
-0.0024673
0.00259561
0.0104383
-0.00239386
0.00261275
0.0101853
-0.00230514
0.00255815
0.00991925
-0.00216655
0.00243261
0.00963489
-0.00195483
0.00223919
0.00934138
-0.00169224
0.00198575
0.00905388
-0.00139271
0.0016802
0.0087787
-0.00106781
0.00134299
0.00853146
-0.000744343
0.000991586
0.00832387
-0.000440083
0.000647668
0.0081571
-0.000166631
0.000333406
0.00802431
7.55273e-05
5.72629e-05
0.00793177
0.000287084
-0.000194542
0.00786837
0.000459429
-0.000396033
0.0078258
0.00058854
-0.000545972
0.00780099
0.000676774
-0.000651963
0.00779004
0.000730726
-0.000719779
0.0077816
0.000756004
-0.000747559
0.0077631
0.0007594
-0.000740901
0.00772646
0.000747606
-0.000710961
0.0076719
0.000720236
-0.000665682
0.0076029
0.000671275
-0.000602269
0.00752214
0.000598322
-0.000517564
0.00742854
0.000526848
-0.000433249
0.00732704
0.000463091
-0.000361589
0.00722026
0.000446139
-0.000339362
0.00712064
0.000421103
-0.000321483
0.00702102
0.000446096
-0.000346475
0.00693618
0.000395241
-0.000310403
0.00684707
0.000411351
-0.000322239
0.000312118
-0.000246214
0.0107444
-0.000169518
0.0107686
-0.000292734
0.0107928
-0.0004114
0.0108292
-0.000523957
0.0108701
-0.000636453
0.0108971
-0.000767721
0.0109042
-0.000922082
0.010888
-0.00110942
0.0108413
-0.00131973
0.0107573
-0.00154384
0.0106249
-0.00175679
0.0104392
-0.0019462
0.0102016
-0.0020886
0.00989433
-0.00214737
0.0094811
-0.00205406
0.00901545
-0.00192821
0.00852274
-0.00181244
0.00802456
-0.00166837
0.00753645
-0.00146672
0.00707191
-0.0012277
0.00664929
-0.000970081
0.00627265
-0.000691166
0.00595354
-0.000425233
0.00569988
-0.000186427
0.00550868
2.45735e-05
0.00539033
0.000193877
0.00533604
0.000341374
0.00533496
0.000460506
0.00537338
0.000550117
0.00543656
0.0006136
0.00551015
0.00065713
0.00558156
0.000684598
0.00564334
0.000697617
0.00569713
0.000693812
0.00574801
0.000669357
0.00579719
0.0006221
0.00583701
0.000558495
0.00586626
0.000497598
0.00588284
0.000446519
0.00590312
0.000425857
0.0059257
0.00039852
0.00596864
0.000403155
0.00601682
0.000347062
0.00608067
0.0003475
0.000247259
0.010727
-0.000254312
0.0107704
-0.00033612
0.0107855
-0.00042658
0.0107811
-0.000519472
0.0107563
-0.000611678
0.0107046
-0.000716082
0.0106206
-0.000838054
0.0104982
-0.000987033
0.0103303
-0.00115175
0.0101259
-0.00133946
0.00988661
-0.00151754
0.00961018
-0.00166976
0.00923259
-0.00171101
0.00868555
-0.00160033
0.00805078
-0.00141929
0.00742789
-0.00130532
0.00671255
-0.00109709
0.00592814
-0.000883962
0.00518568
-0.000724257
0.00452497
-0.000566991
0.00394626
-0.000391377
0.00348203
-0.000226938
0.00313118
-7.43781e-05
0.00288175
6.30062e-05
0.00272541
0.000180914
0.00264791
0.000271375
0.00264631
0.000342971
0.00270789
0.000398926
0.00281787
0.000440135
0.00296258
0.00046889
0.00313182
0.000487893
0.00331832
0.000498101
0.00351717
0.000498762
0.00372354
0.000487443
0.00393082
0.00046208
0.00412985
0.000423069
0.00431068
0.000377661
0.00447382
0.000334461
0.00462085
0.000299493
0.00477021
0.000276499
0.00491585
0.000252873
0.00508094
0.000238065
0.00523087
0.000197135
0.00539624
0.000182131
0.000115867
0.0105079
-0.000283867
0.0104917
-0.000319859
0.0104333
-0.000368155
0.0103235
-0.0004097
0.0101741
-0.000462277
0.00996919
-0.000511193
0.00971002
-0.000578884
0.00937591
-0.000652919
0.00896825
-0.000744094
0.0084818
-0.000853012
0.00791396
-0.000949692
0.00734332
-0.00109912
0.0066623
-0.00102998
0.00574495
-0.000682986
0.00464495
-0.000319287
0.0033934
-5.37676e-05
0.0022363
6.00014e-05
0.00133138
2.09634e-05
0.000708957
-0.000101838
0.000339731
-0.000197766
0.00014463
-0.000196275
5.18787e-05
-0.000134187
3.16854e-05
-5.41848e-05
7.37888e-05
2.09028e-05
0.000175938
7.8765e-05
0.000323962
0.000123351
0.000511022
0.000155911
0.000730799
0.000179148
0.000975601
0.000195334
0.00123856
0.000205935
0.00151479
0.000211656
0.00179887
0.00021402
0.00208612
0.000211513
0.00237029
0.000203281
0.00264324
0.000189123
0.00289688
0.000169435
0.00312708
0.000147455
0.00333538
0.000126168
0.00352653
0.000108335
0.00370892
9.41094e-05
0.00388012
8.16765e-05
0.00404771
7.04781e-05
0.0041887
5.61462e-05
0.00432424
4.65856e-05
2.63938e-05
0.00864065
0.00832079
0.00795263
0.00754293
0.00708066
0.00656946
0.00599058
0.00533766
0.00459357
0.00374056
0.00279086
0.00169174
0.000661757
-2.12295e-05
-0.000340516
-0.000394284
-0.000334282
-0.000313319
-0.000415157
-0.000612922
-0.000809198
-0.000943384
-0.000997569
-0.000976666
-0.000897901
-0.00077455
-0.000618639
-0.000439491
-0.000244158
-3.82227e-05
0.000173433
0.000387453
0.000598966
0.000802247
0.00099137
0.00116081
0.00130826
0.00143443
0.00154276
0.00163687
0.00171855
0.00178903
0.00184517
0.00189176
4.79292e-05
-4.79292e-05
1.05522e-05
3.7377e-05
-0.000166233
0.000176785
-0.000539237
0.000373004
-0.00105169
0.000512455
-0.00160234
0.000550643
-0.00211334
0.000511003
-0.00254565
0.000432307
-0.00287247
0.000326826
-0.00307213
0.000199655
-0.00312967
5.75444e-05
-0.00304562
-8.40555e-05
-0.0028248
-0.000220815
-0.00247626
-0.000348541
-0.00202059
-0.000455671
-0.00148465
-0.000535938
-0.00090383
-0.00058082
-0.000304607
-0.000599224
0.000290609
-0.000595215
0.000850756
-0.000560147
0.00135038
-0.000499624
0.0017697
-0.000419318
0.002096
-0.0003263
0.00232473
-0.00022873
0.00245736
-0.000132631
0.00250306
-4.57031e-05
0.0024812
2.18572e-05
0.00240826
7.29447e-05
0.00229118
0.000117084
0.00213874
0.000152432
0.00196473
0.000174011
0.00178791
0.000176821
0.00162977
0.000158141
0.0015059
0.000123874
0.00141943
8.64641e-05
0.00136845
5.09791e-05
0.00134821
2.02398e-05
0.00135216
-3.94844e-06
0.00137099
-1.88266e-05
0.00139952
-2.85333e-05
0.00143026
-3.07428e-05
0.00146821
-3.79454e-05
0.00150691
-3.86991e-05
0.00155457
-4.76607e-05
-4.09956e-05
-0.00013411
8.6181e-05
-0.000498331
0.000401598
-0.000925018
0.000603472
-0.00131541
0.000763394
-0.00163428
0.00083133
-0.00188053
0.000796893
-0.0020531
0.000683573
-0.0021425
0.000521708
-0.00213834
0.000322657
-0.0020272
8.85194e-05
-0.00181465
-0.00015501
-0.00148934
-0.000409362
-0.00105043
-0.000659726
-0.000512386
-0.000886584
0.000104827
-0.00107288
0.000768299
-0.00119941
0.00145817
-0.00127069
0.00215125
-0.0012923
0.00281772
-0.00126168
0.00343705
-0.00117948
0.00398912
-0.0010517
0.00445834
-0.000888533
0.00483484
-0.0007028
0.00511592
-0.000509811
0.00530445
-0.000321168
0.00540777
-0.000149023
0.00543281
-3.18286e-06
0.00539303
0.000112734
0.00530241
0.0002077
0.00518028
0.000274558
0.00504651
0.000307789
0.00491772
0.000305609
0.00479583
0.000280027
0.00467622
0.000243484
0.00456126
0.000201426
0.00445883
0.000153409
0.00436809
0.000110977
0.00428886
7.52811e-05
0.00421172
5.83163e-05
0.00414051
4.26766e-05
0.00407798
3.17888e-05
0.00404254
-2.50561e-06
0.00403029
-2.64498e-05
0.0040478
-6.51684e-05
-7.54775e-05
-0.000510032
0.000596213
-0.000687587
0.000579153
-0.000719108
0.000634993
-0.000654903
0.000699189
-0.00052582
0.000702247
-0.000356527
0.0006276
-0.000151899
0.000478945
9.18713e-05
0.000277938
0.000387337
2.71914e-05
0.000752234
-0.000276378
0.0011895
-0.000592276
0.0016931
-0.000912965
0.00225079
-0.00121741
0.00285276
-0.00148855
0.00348051
-0.00170064
0.00411935
-0.00183825
0.00474699
-0.00189833
0.00534309
-0.0018884
0.00589594
-0.00181454
0.00639024
-0.00167378
0.00681354
-0.00147499
0.00715791
-0.0012329
0.00741899
-0.000963882
0.0075986
-0.000689425
0.00770314
-0.000425701
0.00774099
-0.000186873
0.00772151
1.62948e-05
0.00764801
0.000186235
0.00753913
0.00031658
0.00740576
0.000407923
0.00725704
0.000456514
0.00710044
0.000462211
0.00693928
0.000441188
0.00677713
0.000405631
0.00662183
0.000356725
0.00648706
0.00028818
0.00638503
0.000213008
0.00631208
0.000148232
0.00624847
0.00012192
0.00617498
0.00011617
0.00608189
0.000124882
0.00597081
0.000108575
0.00586639
7.79678e-05
0.0057671
3.41159e-05
-1.73733e-05
-0.00023492
0.000831132
-0.000127571
0.000471805
0.000126206
0.000381216
0.000505558
0.000319838
0.000967968
0.000239837
0.00147549
0.000120083
0.0020071
-5.26648e-05
0.0025486
-0.000263564
0.00310975
-0.000533963
0.00368281
-0.00084944
0.00426989
-0.00117935
0.00486791
-0.00151098
0.00547105
-0.00182055
0.006063
-0.0020805
0.00662829
-0.00226593
0.00715584
-0.00236579
0.00763454
-0.00237704
0.0080573
-0.00231115
0.00842036
-0.0021776
0.00872033
-0.00197375
0.00895479
-0.00170945
0.00912501
-0.00140313
0.00923372
-0.00107259
0.00928473
-0.000740436
0.00928945
-0.000430417
0.00925826
-0.000155682
0.00918664
8.79122e-05
0.0090808
0.000292075
0.00895494
0.000442436
0.00881538
0.000547488
0.00866117
0.000610723
0.00849372
0.000629662
0.00832318
0.000611723
0.00815768
0.000571129
0.00799431
0.000520095
0.00783057
0.000451926
0.00767345
0.000370125
0.00753259
0.000289097
0.00742098
0.000233526
0.00732265
0.000214498
0.00723469
0.000212849
0.00712126
0.000221999
0.00700581
0.000193422
0.006861
0.000178921
0.000111472
0.00094322
0.00165882
0.00235091
0.00304188
0.00372873
0.00440957
0.00507912
0.00574177
0.00638027
0.00698832
0.00756288
0.00809613
0.00857307
0.00898376
0.00931344
0.0095604
0.0097415
0.00986296
0.00992455
0.00993655
0.00990731
0.00984717
0.00976617
0.0096734
0.00957639
0.00947797
0.00937134
0.00926738
0.00916384
0.00905937
0.00895031
0.00883242
0.00870324
0.00856341
0.00841782
0.00826747
0.00812003
0.00797588
0.00784782
0.00772296
0.00761432
0.00748985
0.00737287
0.00722955
)
;

boundaryField
{
    inlet
    {
        type            calculated;
        value           nonuniform List<scalar> 5(-0.01 -0.01 -0.01 -0.01 -0.01);
    }
    outlet
    {
        type            calculated;
        value           nonuniform List<scalar> 10(0.00678117 0.00614553 0.00552763 0.00441371 0.00191815 0.00159557 0.00408228 0.005709 0.00673216 0.00709481);
    }
    upperWall
    {
        type            calculated;
        value           uniform 0;
    }
    lowerWall
    {
        type            calculated;
        value           uniform 0;
    }
    frontAndBack
    {
        type            empty;
        value           nonuniform List<scalar> 0();
    }
}


// ************************************************************************* //
