/*--------------------------------*- C++ -*----------------------------------*\
  =========                 |
  \\      /  F ield         | OpenFOAM: The Open Source CFD Toolbox
   \\    /   O peration     | Website:  https://openfoam.org
    \\  /    A nd           | Version:  10
     \\/     M anipulation  |
\*---------------------------------------------------------------------------*/
FoamFile
{
    format      ascii;
    class       volVectorField;
    location    "7.5";
    object      U;
}
// * * * * * * * * * * * * * * * * * * * * * * * * * * * * * * * * * * * * * //

dimensions      [0 1 -1 0 0 0 0];

internalField   nonuniform List<vector> 
475
(
(0.974266 0.016141 0)
(0.975931 0.00629818 0)
(0.950244 0.0315288 0)
(0.954767 0.000945053 0)
(0.919995 0.0301537 0)
(0.998571 0.00862092 0)
(1.01403 0.0148162 0)
(1.0254 0.0150981 0)
(1.04371 0.00858954 0)
(1.05559 0.00173711 0)
(1.00001 0.000253347 0)
(1.00963 -0.00306126 0)
(1.02426 -0.00474764 0)
(1.04124 -0.00937002 0)
(1.05628 -0.014635 0)
(1.00037 -0.0100245 0)
(1.00973 -0.0196557 0)
(1.02314 -0.0219565 0)
(1.0351 -0.0232656 0)
(1.04468 -0.0257231 0)
(0.981262 -0.0097321 0)
(0.968517 -0.0191242 0)
(0.954255 -0.0217542 0)
(0.932561 -0.0224969 0)
(0.908133 -0.0227504 0)
(0.925697 -0.0168505 0)
(0.932917 -0.0361193 0)
(0.937831 -0.0483942 0)
(0.943952 -0.0570989 0)
(0.954133 -0.0657193 0)
(0.968196 -0.0766665 0)
(0.987224 -0.0918889 0)
(1.00807 -0.111287 0)
(1.02971 -0.134239 0)
(1.05005 -0.160076 0)
(1.06708 -0.186429 0)
(1.07936 -0.211938 0)
(1.08544 -0.233384 0)
(1.0842 -0.249459 0)
(1.0756 -0.256758 0)
(1.0593 -0.256115 0)
(1.03532 -0.24869 0)
(1.0057 -0.234817 0)
(0.974116 -0.215222 0)
(0.944617 -0.190011 0)
(0.916323 -0.159685 0)
(0.889762 -0.126325 0)
(0.865826 -0.0914848 0)
(0.843806 -0.0572784 0)
(0.824203 -0.0259707 0)
(0.808838 0.001659 0)
(0.798014 0.0251832 0)
(0.790252 0.0441494 0)
(0.784766 0.0585651 0)
(0.781128 0.0690493 0)
(0.779314 0.0759667 0)
(0.778635 0.0788939 0)
(0.777616 0.0782853 0)
(0.775014 0.0755627 0)
(0.770064 0.071512 0)
(0.763798 0.0657621 0)
(0.755819 0.0576857 0)
(0.74786 0.0498428 0)
(0.737209 0.0427078 0)
(0.728203 0.0408473 0)
(0.715777 0.0385326 0)
(0.708529 0.0417292 0)
(0.695658 0.037597 0)
(0.691381 0.039803 0)
(0.6781 0.031209 0)
(1.06849 -0.00907779 0)
(1.07777 -0.021778 0)
(1.08263 -0.0334231 0)
(1.08419 -0.044256 0)
(1.08571 -0.0557894 0)
(1.08672 -0.0693786 0)
(1.08881 -0.0863331 0)
(1.08873 -0.107073 0)
(1.08763 -0.130896 0)
(1.08188 -0.156652 0)
(1.07234 -0.18252 0)
(1.05633 -0.20564 0)
(1.03485 -0.222587 0)
(1.00585 -0.231972 0)
(0.971198 -0.229521 0)
(0.929518 -0.222782 0)
(0.880069 -0.212449 0)
(0.827003 -0.195649 0)
(0.774277 -0.172418 0)
(0.725817 -0.145665 0)
(0.681778 -0.116718 0)
(0.643628 -0.0875721 0)
(0.610925 -0.0590611 0)
(0.583346 -0.0325558 0)
(0.560466 -0.00866556 0)
(0.544164 0.012543 0)
(0.535676 0.0308831 0)
(0.533196 0.0459619 0)
(0.535157 0.0572277 0)
(0.540325 0.0649564 0)
(0.547415 0.0700089 0)
(0.554816 0.0730718 0)
(0.561474 0.0747785 0)
(0.567006 0.0750807 0)
(0.571961 0.0733058 0)
(0.576882 0.0688708 0)
(0.581409 0.0621149 0)
(0.585082 0.0555131 0)
(0.587427 0.0497271 0)
(0.589072 0.0480264 0)
(0.59153 0.0452417 0)
(0.593679 0.0470056 0)
(0.600256 0.041091 0)
(0.602513 0.0421778 0)
(0.614524 0.0311724 0)
(1.06859 -0.0225036 0)
(1.07623 -0.0330476 0)
(1.08081 -0.0440988 0)
(1.08053 -0.0554515 0)
(1.07912 -0.0664068 0)
(1.07351 -0.0790764 0)
(1.06783 -0.0931422 0)
(1.05692 -0.110196 0)
(1.04489 -0.129323 0)
(1.02591 -0.150204 0)
(1.00361 -0.171317 0)
(0.974235 -0.188655 0)
(0.940082 -0.200148 0)
(0.896478 -0.197243 0)
(0.845814 -0.180512 0)
(0.779017 -0.167695 0)
(0.703939 -0.159647 0)
(0.630601 -0.149469 0)
(0.554065 -0.129697 0)
(0.480635 -0.10242 0)
(0.418823 -0.0731666 0)
(0.368469 -0.0455614 0)
(0.328766 -0.0214366 0)
(0.299627 -0.00161518 0)
(0.279549 0.0147988 0)
(0.267578 0.0290428 0)
(0.26374 0.0405958 0)
(0.266953 0.0494389 0)
(0.275704 0.0559485 0)
(0.288568 0.0605377 0)
(0.304405 0.0636138 0)
(0.322227 0.0652992 0)
(0.341512 0.0654768 0)
(0.361737 0.0638538 0)
(0.382473 0.0604473 0)
(0.402878 0.0554214 0)
(0.422028 0.049667 0)
(0.439227 0.0443743 0)
(0.45487 0.0402228 0)
(0.469156 0.0379669 0)
(0.484792 0.0353267 0)
(0.498385 0.0344406 0)
(0.517908 0.0289869 0)
(0.527733 0.0278692 0)
(0.552725 0.0184667 0)
(1.05001 -0.0304059 0)
(1.05092 -0.0362699 0)
(1.04813 -0.0430168 0)
(1.03931 -0.0497864 0)
(1.02776 -0.0567923 0)
(1.00858 -0.0646143 0)
(0.98799 -0.0733791 0)
(0.956713 -0.0845252 0)
(0.923958 -0.0965856 0)
(0.876995 -0.11145 0)
(0.826911 -0.125367 0)
(0.763628 -0.138613 0)
(0.691792 -0.146369 0)
(0.618938 -0.133553 0)
(0.536034 -0.110302 0)
(0.413091 -0.0823838 0)
(0.273878 -0.0449894 0)
(0.166656 -0.0140632 0)
(0.092867 -0.00650706 0)
(0.0460468 -0.00817451 0)
(0.0211362 -0.00772705 0)
(0.00808684 -0.00229449 0)
(0.00261787 0.00525663 0)
(0.00386835 0.013004 0)
(0.0115824 0.0199954 0)
(0.0243716 0.0253563 0)
(0.0413243 0.0292268 0)
(0.0617753 0.0319529 0)
(0.0850701 0.0338379 0)
(0.110511 0.0350463 0)
(0.137536 0.035696 0)
(0.165587 0.0358544 0)
(0.194204 0.0353283 0)
(0.222815 0.0339406 0)
(0.250757 0.0317044 0)
(0.277138 0.0287053 0)
(0.301367 0.0253718 0)
(0.323286 0.0221135 0)
(0.343218 0.0193581 0)
(0.361875 0.0170558 0)
(0.379695 0.0149409 0)
(0.396339 0.012883 0)
(0.413029 0.0101187 0)
(0.424456 0.00832934 0)
(0.441336 0.00457439 0)
(0.878973 -0.0245789 0)
(0.84886 -0.0258981 0)
(0.814015 -0.028773 0)
(0.776275 -0.030176 0)
(0.73327 -0.0335379 0)
(0.68468 -0.0353356 0)
(0.631942 -0.0399001 0)
(0.568952 -0.0435898 0)
(0.503699 -0.0497336 0)
(0.419443 -0.0571429 0)
(0.336189 -0.0613085 0)
(0.226185 -0.077475 0)
(0.104947 -0.0543694 0)
(0.0209832 0.00324303 0)
(-0.0249418 0.0464345 0)
(-0.0394402 0.0688864 0)
(-0.0360622 0.053363 0)
(-0.0303159 0.0164065 0)
(-0.0340926 -0.0162099 0)
(-0.0514846 -0.0290598 0)
(-0.073152 -0.0281317 0)
(-0.0896119 -0.0216099 0)
(-0.0984624 -0.0143423 0)
(-0.0996676 -0.00772833 0)
(-0.0943055 -0.00244184 0)
(-0.0839547 0.00120839 0)
(-0.0698519 0.00373196 0)
(-0.0530341 0.00545336 0)
(-0.0342939 0.00657915 0)
(-0.0142512 0.00724529 0)
(0.0067333 0.00755255 0)
(0.0281525 0.00762172 0)
(0.0494706 0.00739918 0)
(0.0702426 0.00687949 0)
(0.0899035 0.00608167 0)
(0.10784 0.00507028 0)
(0.123696 0.00398637 0)
(0.137365 0.0029768 0)
(0.149101 0.00215644 0)
(0.159224 0.00157893 0)
(0.168016 0.00119288 0)
(0.175637 0.000973092 0)
(0.181948 0.000867444 0)
(0.186942 0.000777161 0)
(0.191787 0.000565515 0)
(0.00380296 -0.0271572 0)
(0.00555348 -0.0272707 0)
(-0.00350512 -0.014998 0)
(-0.0289822 0.00838527 0)
(-0.0773139 0.0268117 0)
(-0.134526 0.032614 0)
(-0.189231 0.0321162 0)
(-0.237667 0.0289388 0)
(-0.27602 0.0240585 0)
(-0.30165 0.0180872 0)
(-0.313128 0.0111144 0)
(-0.311017 0.00329715 0)
(-0.294897 -0.00478089 0)
(-0.265683 -0.0123092 0)
(-0.224937 -0.0185589 0)
(-0.174907 -0.0232141 0)
(-0.119038 -0.0255683 0)
(-0.0599719 -0.0262925 0)
(-0.00013021 -0.0254581 0)
(0.0577084 -0.0234461 0)
(0.110818 -0.0202314 0)
(0.156914 -0.0160864 0)
(0.194378 -0.0114365 0)
(0.222276 -0.00674471 0)
(0.240542 -0.00224929 0)
(0.249531 0.00156032 0)
(0.250769 0.00417036 0)
(0.245925 0.00619187 0)
(0.236037 0.00875943 0)
(0.222046 0.0117526 0)
(0.205144 0.0137021 0)
(0.187112 0.0130965 0)
(0.170199 0.00991152 0)
(0.156124 0.00529633 0)
(0.145682 0.000626617 0)
(0.138976 -0.00301922 0)
(0.135515 -0.00507104 0)
(0.134813 -0.00559671 0)
(0.135955 -0.00484643 0)
(0.138388 -0.00357149 0)
(0.141322 -0.00238727 0)
(0.144818 -0.00169665 0)
(0.148885 -0.00132736 0)
(0.152527 -0.00137386 0)
(0.159543 -0.00109279 0)
(-0.00244313 0.0197759 0)
(-0.0256615 0.0363581 0)
(-0.0720407 0.0534584 0)
(-0.11178 0.0696266 0)
(-0.150106 0.0779483 0)
(-0.179081 0.0762798 0)
(-0.200594 0.0676957 0)
(-0.214149 0.0547169 0)
(-0.218528 0.0385699 0)
(-0.212046 0.0193841 0)
(-0.195162 -0.00111126 0)
(-0.166989 -0.0221527 0)
(-0.128234 -0.0427023 0)
(-0.0788743 -0.0613719 0)
(-0.021313 -0.0766623 0)
(0.043646 -0.0874481 0)
(0.112307 -0.0932763 0)
(0.181621 -0.0947379 0)
(0.249159 -0.092312 0)
(0.312965 -0.0862607 0)
(0.371428 -0.0768415 0)
(0.422603 -0.0647727 0)
(0.46516 -0.0509651 0)
(0.498337 -0.0365213 0)
(0.522202 -0.0223923 0)
(0.537131 -0.00965165 0)
(0.543883 0.000874003 0)
(0.543219 0.00954061 0)
(0.535996 0.0160759 0)
(0.524273 0.0202463 0)
(0.510678 0.0224273 0)
(0.497572 0.0226226 0)
(0.48574 0.0209736 0)
(0.474187 0.0183961 0)
(0.46233 0.0156348 0)
(0.451352 0.0125042 0)
(0.441451 0.00888913 0)
(0.432855 0.00490834 0)
(0.424831 0.00142794 0)
(0.417251 -0.00179678 0)
(0.410525 -0.00390595 0)
(0.405095 -0.00630559 0)
(0.403804 -0.00689157 0)
(0.40218 -0.0086618 0)
(0.408227 -0.00738649 0)
(-0.0341079 -0.0064703 0)
(-0.0654447 0.0371574 0)
(-0.0712216 0.060011 0)
(-0.0704554 0.0765769 0)
(-0.0611566 0.0826226 0)
(-0.0459297 0.0777459 0)
(-0.0271323 0.0639805 0)
(-0.00430922 0.0451777 0)
(0.0215225 0.0222879 0)
(0.0547184 -0.0034912 0)
(0.0951113 -0.0320596 0)
(0.14383 -0.0625899 0)
(0.19766 -0.0923026 0)
(0.256708 -0.11892 0)
(0.319197 -0.140481 0)
(0.382772 -0.154905 0)
(0.445643 -0.162382 0)
(0.506202 -0.163173 0)
(0.562701 -0.158029 0)
(0.614239 -0.146973 0)
(0.659769 -0.130631 0)
(0.698285 -0.110195 0)
(0.728875 -0.0872415 0)
(0.751268 -0.0636307 0)
(0.765949 -0.0405597 0)
(0.773431 -0.0192633 0)
(0.77455 -0.00139587 0)
(0.770044 0.0129624 0)
(0.760582 0.0247646 0)
(0.747566 0.0336374 0)
(0.732875 0.0380208 0)
(0.717974 0.0381525 0)
(0.702439 0.0357681 0)
(0.686206 0.0316436 0)
(0.669861 0.026156 0)
(0.655025 0.0193473 0)
(0.642872 0.0133221 0)
(0.634625 0.00952274 0)
(0.62799 0.00946636 0)
(0.621807 0.00971806 0)
(0.61298 0.00992919 0)
(0.603349 0.00583366 0)
(0.59092 0.00176321 0)
(0.582418 -0.00426962 0)
(0.570908 -0.00777018 0)
(-0.0279581 0.139925 0)
(-0.0208756 0.0886642 0)
(-0.00341129 0.0758245 0)
(0.0293027 0.0705544 0)
(0.0714823 0.0638498 0)
(0.119677 0.0530511 0)
(0.172165 0.0362926 0)
(0.225463 0.0135927 0)
(0.280065 -0.0159142 0)
(0.338119 -0.0494087 0)
(0.397647 -0.084144 0)
(0.458809 -0.119225 0)
(0.519943 -0.152427 0)
(0.580378 -0.180906 0)
(0.638894 -0.202583 0)
(0.693437 -0.216189 0)
(0.742776 -0.221213 0)
(0.786444 -0.218586 0)
(0.824151 -0.208713 0)
(0.856316 -0.191139 0)
(0.882742 -0.167335 0)
(0.903202 -0.139087 0)
(0.917618 -0.107978 0)
(0.926212 -0.0763861 0)
(0.929521 -0.0463354 0)
(0.928383 -0.0193191 0)
(0.923386 0.00425014 0)
(0.914686 0.0232161 0)
(0.902826 0.0375333 0)
(0.888989 0.0478786 0)
(0.874005 0.0541723 0)
(0.857948 0.0556579 0)
(0.840759 0.0533925 0)
(0.823969 0.0491408 0)
(0.807585 0.0440128 0)
(0.791648 0.0370665 0)
(0.774944 0.028989 0)
(0.760255 0.0207497 0)
(0.746234 0.0159129 0)
(0.737761 0.0145776 0)
(0.726306 0.0159739 0)
(0.720645 0.0164873 0)
(0.703419 0.0140917 0)
(0.698165 0.0111488 0)
(0.673227 0.00422129 0)
(0.0837464 0.00286623 0)
(0.117909 -0.00550028 0)
(0.203314 -0.00768117 0)
(0.270688 -0.0123114 0)
(0.336499 -0.0198908 0)
(0.403328 -0.0317254 0)
(0.472199 -0.0486087 0)
(0.538992 -0.0700895 0)
(0.604508 -0.0959353 0)
(0.668686 -0.126123 0)
(0.729647 -0.157568 0)
(0.786891 -0.188681 0)
(0.838432 -0.217105 0)
(0.883034 -0.239995 0)
(0.920035 -0.254918 0)
(0.94865 -0.261544 0)
(0.968776 -0.259904 0)
(0.981342 -0.250744 0)
(0.987998 -0.235206 0)
(0.990988 -0.212601 0)
(0.990361 -0.183384 0)
(0.986621 -0.14964 0)
(0.98038 -0.113562 0)
(0.972303 -0.0774932 0)
(0.963146 -0.0440936 0)
(0.953193 -0.0143422 0)
(0.94327 0.0114644 0)
(0.932895 0.0323281 0)
(0.922182 0.0480145 0)
(0.911442 0.0589473 0)
(0.900513 0.0657099 0)
(0.889225 0.0684623 0)
(0.877005 0.0681535 0)
(0.863721 0.0657492 0)
(0.849001 0.0616435 0)
(0.83441 0.0552669 0)
(0.8187 0.0466451 0)
(0.805039 0.0377025 0)
(0.789748 0.0305019 0)
(0.779775 0.0279117 0)
(0.764605 0.0265976 0)
(0.758494 0.0283229 0)
(0.739215 0.0251619 0)
(0.735665 0.0251865 0)
(0.709481 0.0182725 0)
)
;

boundaryField
{
    inlet
    {
        type            fixedValue;
        value           uniform (1 0 0);
    }
    outlet
    {
        type            zeroGradient;
    }
    upperWall
    {
        type            noSlip;
    }
    lowerWall
    {
        type            noSlip;
    }
    frontAndBack
    {
        type            empty;
    }
}


// ************************************************************************* //
