/*--------------------------------*- C++ -*----------------------------------*\
  =========                 |
  \\      /  F ield         | OpenFOAM: The Open Source CFD Toolbox
   \\    /   O peration     | Website:  https://openfoam.org
    \\  /    A nd           | Version:  10
     \\/     M anipulation  |
\*---------------------------------------------------------------------------*/
FoamFile
{
    format      ascii;
    class       volVectorField;
    location    "6";
    object      U;
}
// * * * * * * * * * * * * * * * * * * * * * * * * * * * * * * * * * * * * * //

dimensions      [0 1 -1 0 0 0 0];

internalField   nonuniform List<vector> 
400
(
(-0.000102221 9.40392e-05 0)
(-0.000863873 0.000328715 0)
(-0.00215856 0.000408491 0)
(-0.0034455 0.000425759 0)
(-0.00473919 0.000426417 0)
(-0.00600036 0.000422899 0)
(-0.00720795 0.000414434 0)
(-0.00833807 0.00039682 0)
(-0.00935727 0.0003651 0)
(-0.0102217 0.000313964 0)
(-0.0108766 0.000238202 0)
(-0.0112575 0.00013363 0)
(-0.0112924 -3.26767e-06 0)
(-0.0109084 -0.000172812 0)
(-0.0100435 -0.000367881 0)
(-0.00866134 -0.000572978 0)
(-0.00677969 -0.000757994 0)
(-0.00454055 -0.000869632 0)
(-0.00201535 -0.000808365 0)
(-0.000334665 -0.000368818 0)
(-0.000360917 0.000874077 0)
(-0.0019488 0.00187086 0)
(-0.00436538 0.00219656 0)
(-0.00675679 0.00224747 0)
(-0.00912631 0.00220488 0)
(-0.0113973 0.00212061 0)
(-0.013521 0.001997 0)
(-0.0154494 0.00182266 0)
(-0.0171244 0.00158258 0)
(-0.0184758 0.00126049 0)
(-0.0194212 0.000840359 0)
(-0.0198686 0.00030829 0)
(-0.0197196 -0.000342291 0)
(-0.0188752 -0.00110039 0)
(-0.0172554 -0.0019346 0)
(-0.0148206 -0.00278126 0)
(-0.0116154 -0.00352416 0)
(-0.00785554 -0.00395568 0)
(-0.00366645 -0.00370068 0)
(-0.00072632 -0.00196691 0)
(-0.000465556 0.00226283 0)
(-0.0024055 0.00433766 0)
(-0.00529693 0.00499124 0)
(-0.00813756 0.00506519 0)
(-0.0109364 0.00492774 0)
(-0.0136054 0.00468541 0)
(-0.0160894 0.00434814 0)
(-0.0183352 0.00389859 0)
(-0.0202797 0.00331145 0)
(-0.0218477 0.00255836 0)
(-0.0229517 0.00161121 0)
(-0.0234907 0.000446641 0)
(-0.0233473 -0.000944246 0)
(-0.0224016 -0.00254313 0)
(-0.0205515 -0.00428747 0)
(-0.0177306 -0.00604966 0)
(-0.0139665 -0.00759478 0)
(-0.00949686 -0.00849781 0)
(-0.0044591 -0.00799835 0)
(-0.000891136 -0.00448031 0)
(-0.000498027 0.00371678 0)
(-0.0025869 0.00693099 0)
(-0.00569583 0.0079154 0)
(-0.00874006 0.00800272 0)
(-0.0117415 0.0077638 0)
(-0.0146116 0.0073617 0)
(-0.0172984 0.00681351 0)
(-0.0197529 0.00609565 0)
(-0.0219149 0.00517154 0)
(-0.0237103 0.0039983 0)
(-0.0250484 0.00253176 0)
(-0.0258185 0.000734471 0)
(-0.025886 -0.00141275 0)
(-0.0250933 -0.00389931 0)
(-0.0232816 -0.00664246 0)
(-0.0203197 -0.00945507 0)
(-0.0161766 -0.0119703 0)
(-0.0110953 -0.0134949 0)
(-0.00522271 -0.0127883 0)
(-0.00103225 -0.0072552 0)
(-0.000509379 0.00524572 0)
(-0.00268993 0.009672 0)
(-0.00595032 0.0110056 0)
(-0.00914277 0.0111109 0)
(-0.012303 0.0107762 0)
(-0.0153459 0.010225 0)
(-0.0182283 0.00948227 0)
(-0.0209102 0.00851829 0)
(-0.0233398 0.00728391 0)
(-0.0254484 0.00571807 0)
(-0.0271443 0.00375291 0)
(-0.0283044 0.00132349 0)
(-0.0287694 -0.00161676 0)
(-0.0283298 -0.00507955 0)
(-0.0267418 -0.00898295 0)
(-0.0237641 -0.0130891 0)
(-0.019244 -0.0168771 0)
(-0.0133879 -0.0193014 0)
(-0.00634969 -0.0184662 0)
(-0.00124729 -0.010544 0)
(-0.000518437 0.00682681 0)
(-0.00278879 0.0125367 0)
(-0.00620392 0.0142427 0)
(-0.00955192 0.0143767 0)
(-0.0128828 0.0139607 0)
(-0.0161174 0.0132836 0)
(-0.0192251 0.0123804 0)
(-0.02218 0.0112158 0)
(-0.0249448 0.00972683 0)
(-0.0274636 0.00783033 0)
(-0.0296503 0.00542564 0)
(-0.031375 0.00240403 0)
(-0.0324537 -0.00133487 0)
(-0.0326138 -0.00585953 0)
(-0.0314931 -0.011128 0)
(-0.0286789 -0.0168783 0)
(-0.0238044 -0.022416 0)
(-0.0169364 -0.0262288 0)
(-0.00818359 -0.0254616 0)
(-0.00162413 -0.0146333 0)
(-0.000529556 0.00846299 0)
(-0.00290341 0.0155344 0)
(-0.00649498 0.0176391 0)
(-0.0100182 0.0178141 0)
(-0.0135391 0.0173344 0)
(-0.0169866 0.0165613 0)
(-0.0203466 0.0155432 0)
(-0.0236137 0.0142409 0)
(-0.0267736 0.0125785 0)
(-0.0297947 0.0104476 0)
(-0.0326107 0.00770583 0)
(-0.0350996 0.00417953 0)
(-0.0370659 -0.000320857 0)
(-0.0381768 -0.00594984 0)
(-0.0379272 -0.0127965 0)
(-0.0356594 -0.0206452 0)
(-0.0306523 -0.0286493 0)
(-0.0226041 -0.0346965 0)
(-0.0113777 -0.0344832 0)
(-0.00235335 -0.0200713 0)
(-0.000543062 0.010165 0)
(-0.00303745 0.0186866 0)
(-0.00682969 0.0212169 0)
(-0.0105447 0.0214423 0)
(-0.0142672 0.0209147 0)
(-0.0179359 0.0200769 0)
(-0.0215579 0.018996 0)
(-0.0251553 0.0176343 0)
(-0.028748 0.0159064 0)
(-0.0323453 0.0136805 0)
(-0.0359263 0.0107683 0)
(-0.0394093 0.00691663 0)
(-0.0425979 0.00181298 0)
(-0.04515 -0.0048716 0)
(-0.0464468 -0.0134597 0)
(-0.0455114 -0.0239227 0)
(-0.0410967 -0.0354001 0)
(-0.0321034 -0.0451304 0)
(-0.0175203 -0.0466774 0)
(-0.00394761 -0.0279988 0)
(-0.000559641 0.0119444 0)
(-0.00319396 0.0220158 0)
(-0.00721078 0.0249947 0)
(-0.0111268 0.0252716 0)
(-0.0150492 0.0247043 0)
(-0.0189275 0.0238287 0)
(-0.0227943 0.0227389 0)
(-0.0267066 0.0214068 0)
(-0.0307307 0.0197476 0)
(-0.0349361 0.0176151 0)
(-0.0393785 0.0147811 0)
(-0.0440627 0.0109083 0)
(-0.0488817 0.00552561 0)
(-0.0535696 -0.00197504 0)
(-0.0574707 -0.0121953 0)
(-0.0593712 -0.0256307 0)
(-0.0573931 -0.0417728 0)
(-0.0488674 -0.0575792 0)
(-0.0302826 -0.0638729 0)
(-0.00769268 -0.0409281 0)
(-0.00058235 0.013816 0)
(-0.00338243 0.0255467 0)
(-0.0076496 0.028987 0)
(-0.011768 0.029301 0)
(-0.0158725 0.0286873 0)
(-0.0199242 0.0277892 0)
(-0.023984 0.0267371 0)
(-0.028149 0.0255254 0)
(-0.0325425 0.0240866 0)
(-0.0373156 0.0222825 0)
(-0.0426402 0.0198706 0)
(-0.0486842 0.0164519 0)
(-0.055552 0.0114033 0)
(-0.0631541 0.00382939 0)
(-0.0711735 -0.00736397 0)
(-0.0786103 -0.0233878 0)
(-0.082927 -0.0451435 0)
(-0.0783156 -0.0708612 0)
(-0.0553322 -0.0890743 0)
(-0.015577 -0.0642417 0)
(-0.000618711 0.0158042 0)
(-0.00362486 0.0293116 0)
(-0.00817519 0.0332059 0)
(-0.0124899 0.0335173 0)
(-0.0167413 0.0328267 0)
(-0.0209022 0.0318991 0)
(-0.0250624 0.0309125 0)
(-0.0293598 0.029898 0)
(-0.0339767 0.0288284 0)
(-0.0391572 0.0276091 0)
(-0.0452214 0.0260371 0)
(-0.0525726 0.0237279 0)
(-0.0616779 0.0200062 0)
(-0.0730221 0.0137854 0)
(-0.0870631 0.0034608 0)
(-0.103912 -0.0133051 0)
(-0.120174 -0.0406011 0)
(-0.122928 -0.0827873 0)
(-0.0925185 -0.127524 0)
(-0.0271183 -0.107893 0)
(-0.000684476 0.0179545 0)
(-0.00396468 0.0333626 0)
(-0.00884539 0.0376714 0)
(-0.0133432 0.0379027 0)
(-0.0176877 0.0370669 0)
(-0.0218642 0.0360668 0)
(-0.0259896 0.0351381 0)
(-0.0302361 0.0343621 0)
(-0.0348353 0.0337784 0)
(-0.0401142 0.0333849 0)
(-0.0465438 0.0331023 0)
(-0.0548087 0.0327017 0)
(-0.0658921 0.0316906 0)
(-0.0811749 0.0291687 0)
(-0.102592 0.0234088 0)
(-0.131445 0.00966584 0)
(-0.161238 -0.0241984 0)
(-0.166887 -0.0964183 0)
(-0.124589 -0.187321 0)
(-0.0385929 -0.180302 0)
(-0.000809491 0.0203323 0)
(-0.00447592 0.0377255 0)
(-0.00975764 0.0423221 0)
(-0.0144217 0.0423394 0)
(-0.0187889 0.0412656 0)
(-0.0228576 0.04013 0)
(-0.0267717 0.039212 0)
(-0.0307227 0.0386527 0)
(-0.0349577 0.0385812 0)
(-0.0398404 0.0391339 0)
(-0.0459339 0.0404503 0)
(-0.0541333 0.0426491 0)
(-0.0658458 0.0457732 0)
(-0.0832394 0.0495255 0)
(-0.109494 0.0518493 0)
(-0.145597 0.0425727 0)
(-0.179239 -0.00370427 0)
(-0.176686 -0.121003 0)
(-0.134103 -0.263399 0)
(-0.0484176 -0.277188 0)
(-0.0010744 0.0231912 0)
(-0.0053559 0.0428548 0)
(-0.0111112 0.0476774 0)
(-0.0158553 0.047329 0)
(-0.0201205 0.045772 0)
(-0.023944 0.0442428 0)
(-0.0274708 0.043108 0)
(-0.0308702 0.0425798 0)
(-0.0343598 0.0428826 0)
(-0.0382592 0.0443196 0)
(-0.0430792 0.0473287 0)
(-0.04967 0.0525243 0)
(-0.0594234 0.0606966 0)
(-0.0742334 0.0718832 0)
(-0.096816 0.0822144 0)
(-0.125858 0.0736933 0)
(-0.15198 0.0112828 0)
(-0.142948 -0.143227 0)
(-0.123935 -0.322762 0)
(-0.0480054 -0.379502 0)
(-0.00145077 0.0266999 0)
(-0.00638353 0.047535 0)
(-0.0128795 0.0517878 0)
(-0.0178537 0.0505526 0)
(-0.0220847 0.0485336 0)
(-0.0255362 0.0468377 0)
(-0.0284316 0.0456983 0)
(-0.0309441 0.0452684 0)
(-0.0332127 0.0458066 0)
(-0.035392 0.0477432 0)
(-0.0377353 0.0517831 0)
(-0.0406502 0.0589639 0)
(-0.044953 0.070592 0)
(-0.0512181 0.086283 0)
(-0.0609776 0.100637 0)
(-0.0714345 0.0900089 0)
(-0.0856508 0.0196067 0)
(-0.0772064 -0.147573 0)
(-0.0934105 -0.352144 0)
(-0.0300782 -0.464311 0)
(-0.00351626 0.0299174 0)
(-0.01073 0.056092 0)
(-0.0166559 0.0602635 0)
(-0.0208645 0.0585423 0)
(-0.0241411 0.0551597 0)
(-0.0268495 0.0521081 0)
(-0.0290517 0.0497787 0)
(-0.0307257 0.0483827 0)
(-0.0317891 0.0481711 0)
(-0.0321082 0.0495582 0)
(-0.0315099 0.053309 0)
(-0.0296782 0.0605275 0)
(-0.0267624 0.0727747 0)
(-0.0212172 0.0888714 0)
(-0.0153953 0.104183 0)
(-0.00322689 0.0935547 0)
(-0.00483064 0.0253291 0)
(0.000912509 -0.131193 0)
(-0.0487861 -0.351633 0)
(-0.00777484 -0.510448 0)
(-0.00117304 0.0439 0)
(-0.00869596 0.0585576 0)
(-0.0196126 0.0591564 0)
(-0.0242402 0.0546686 0)
(-0.0282906 0.0514293 0)
(-0.0305637 0.0490865 0)
(-0.0317892 0.0474305 0)
(-0.0320191 0.0463482 0)
(-0.0311935 0.0460164 0)
(-0.0290252 0.0467397 0)
(-0.0250608 0.0492379 0)
(-0.018187 0.0542044 0)
(-0.00834661 0.0630917 0)
(0.00828257 0.074906 0)
(0.0274272 0.0859269 0)
(0.0572053 0.0776602 0)
(0.0633105 0.021039 0)
(0.0683912 -0.101956 0)
(-0.00401501 -0.324727 0)
(0.0180746 -0.521493 0)
(-0.0124004 0.0328857 0)
(-0.0243565 0.0798896 0)
(-0.0240035 0.0787438 0)
(-0.0303838 0.0735712 0)
(-0.0325009 0.0662927 0)
(-0.0328834 0.0601117 0)
(-0.0314276 0.0549942 0)
(-0.0284628 0.0508931 0)
(-0.0240959 0.0477999 0)
(-0.0180609 0.045567 0)
(-0.0103984 0.0446048 0)
(0.000380329 0.0450941 0)
(0.0138823 0.048313 0)
(0.0345111 0.0533968 0)
(0.0558403 0.0595089 0)
(0.0915237 0.0542559 0)
(0.0990634 0.0193353 0)
(0.125377 -0.0662953 0)
(0.0555791 -0.288749 0)
(0.0600524 -0.505478 0)
(-0.07721 0.0967713 0)
(-0.0629433 0.0594698 0)
(-0.0653491 0.0599342 0)
(-0.0440427 0.0532622 0)
(-0.0270042 0.0463656 0)
(-0.00730003 0.0412042 0)
(0.0112766 0.0374726 0)
(0.0299707 0.0342608 0)
(0.0471342 0.0318616 0)
(0.0653866 0.0295833 0)
(0.0810958 0.028199 0)
(0.100763 0.0270995 0)
(0.115122 0.0269963 0)
(0.142658 0.0276055 0)
(0.154089 0.0248631 0)
(0.201825 0.0189329 0)
(0.196815 -0.0150534 0)
(0.239113 -0.0798865 0)
(0.16605 -0.263213 0)
(0.127593 -0.442295 0)
(0.119766 0.140724 0)
(0.152443 0.0861592 0)
(0.229403 0.0635776 0)
(0.284752 0.0481468 0)
(0.326033 0.0374673 0)
(0.364407 0.0296772 0)
(0.392893 0.0242604 0)
(0.424402 0.0202504 0)
(0.444075 0.0173414 0)
(0.472782 0.015186 0)
(0.485564 0.013411 0)
(0.515039 0.0124014 0)
(0.520551 0.0112764 0)
(0.554559 0.0108729 0)
(0.549729 0.00945151 0)
(0.586789 0.00564567 0)
(0.558116 -0.00374906 0)
(0.567649 -0.0272818 0)
(0.430167 -0.072681 0)
(0.27643 -0.152045 0)
)
;

boundaryField
{
    movingWall
    {
        type            fixedValue;
        value           uniform (1 0 0);
    }
    fixedWalls
    {
        type            noSlip;
    }
    frontAndBack
    {
        type            empty;
    }
}


// ************************************************************************* //
