/*--------------------------------*- C++ -*----------------------------------*\
  =========                 |
  \\      /  F ield         | OpenFOAM: The Open Source CFD Toolbox
   \\    /   O peration     | Website:  https://openfoam.org
    \\  /    A nd           | Version:  10
     \\/     M anipulation  |
\*---------------------------------------------------------------------------*/
FoamFile
{
    format      ascii;
    class       volScalarField;
    location    "6.85";
    object      p;
}
// * * * * * * * * * * * * * * * * * * * * * * * * * * * * * * * * * * * * * //

dimensions      [0 2 -2 0 0 0 0];

internalField   nonuniform List<scalar> 
496
(
30.1676
30.2731
26.9906
20.7046
30.8413
31.4236
27.219
20.7864
36.0018
33.6265
25.1428
14.3833
43.653
40.7459
36.9872
21.1554
12.176
3.25121
11.9349
3.14865
-0.806651
-5.15169
-31.1338
-57.3511
-3.26264
-7.1267
-8.79301
-9.67573
-3.98762
-8.82816
-11.1256
-12.1071
2.45225
2.87575
-0.95736
-6.80701
-27.8543
-4.2754
1.06282
-7.43787
-10.5952
-11.7654
-12.9636
-13.8436
-14.1287
-13.8079
-13.1941
-12.4852
-11.9027
-11.3052
-10.785
-10.3097
-9.59535
-8.74638
-7.88103
-7.18415
-6.10178
-4.8621
-3.69009
-2.86448
-2.22824
-1.86246
-2.01946
-2.38029
-2.83289
-2.84932
-2.91945
-2.91808
-2.77012
-2.35474
-1.70256
-1.03896
-0.362856
0.341614
0.869953
1.09727
1.11669
0.892673
0.406029
0.156551
-13.1746
-14.3269
-15.014
-15.0675
-14.6255
-13.805
-13.0868
-12.4112
-11.7212
-11.0371
-10.7699
-10.3163
-9.51728
-8.67613
-7.82954
-7.05937
-5.95322
-4.83887
-3.60431
-2.45646
-1.85299
-1.53857
-1.74404
-2.22537
-2.72126
-3.14014
-3.24598
-3.11738
-2.92319
-2.48122
-1.83667
-1.01333
-0.137149
0.518165
1.11175
1.33501
1.32676
0.989086
0.717743
0.275256
-11.7816
-15.266
-16.2816
-16.0585
-15.2494
-14.4176
-13.8237
-13.2083
-12.2452
-11.6766
-11.532
-10.814
-10.0086
-9.27722
-8.70977
-7.50453
-5.95512
-4.56953
-3.21375
-2.13648
-1.15786
-1.20983
-1.62487
-2.74209
-3.92049
-4.35117
-4.6077
-4.21903
-3.51298
-2.47857
-1.45443
-0.387497
0.506096
0.96516
1.37226
1.43595
0.901081
0.334654
0.0703159
-0.243075
-11.9123
-14.5354
-15.4913
-15.106
-15.3944
-15.7722
-13.5482
-11.7642
-11.4385
-11.4149
-11.1033
-10.0684
-9.71677
-9.39501
-9.56826
-8.65314
-7.13639
-4.90835
-2.33707
-0.346947
0.801732
0.604056
-0.171143
-2.06916
-3.71479
-5.19916
-5.44996
-5.55278
-4.80379
-3.50488
-2.12413
-0.534348
0.974045
2.97197
3.23551
3.27618
2.02707
1.01132
0.360036
-0.503187
48.347
50.0228
64.1936
76.4656
48.3773
49.9694
64.1453
76.7539
-28.7706
-10.1187
-7.07721
-13.8872
-29.4182
-28.221
-4.52357
-22.0561
-22.9605
-16.2609
-15.5019
-20.6364
-16.6471
-17.453
-15.8024
-13.8428
-13.7072
-12.1446
-10.1711
-9.78941
-9.46095
-8.91886
-8.47169
-7.74922
-6.36967
-5.06557
-4.10221
-2.86072
-1.3817
-1.31386
-1.79619
-2.47515
-2.92048
-3.69513
-4.5067
-4.92412
-3.93463
-2.6605
-1.81623
-0.932394
0.347747
1.02974
1.12934
0.896427
0.746611
0.651678
0.0594882
-0.515757
-15.5792
-9.42543
-17.0498
-16.4029
-16.2568
-20.3527
-17.5321
-13.8206
-15.1006
-13.1859
-11.7818
-10.003
-7.73778
-6.4286
-6.2921
-5.50505
-4.9128
-5.31386
-5.90093
-6.11817
-5.96918
-4.98966
-4.25896
-3.23358
-1.78581
-0.790152
-0.797463
-0.749294
-0.953269
-1.04294
-1.4501
-1.70733
-1.34551
-1.31104
-1.72027
-1.32905
-0.780441
-0.560459
-0.227892
0.126125
43.9458
40.9779
37.4259
22.061
36.4429
34.2581
25.942
15.55
31.6558
32.0249
28.0188
21.7658
30.9354
30.8769
27.5404
21.4478
-28.0548
-54.1971
0.326482
-4.18683
12.8685
4.12088
13.0185
3.97296
-24.9622
-14.4212
-7.41967
-2.0445
2.23202
1.51069
-0.733614
-4.12487
-3.27424
-8.77909
-12.1028
-12.8721
-2.93145
-7.29006
-9.13666
-9.5742
-7.67624
-12.6511
-15.1133
-16.3164
-15.3938
-16.5349
-17.9099
-16.946
-15.3412
-13.5495
-11.4358
-9.06626
-6.96764
-5.44484
-4.00144
-4.19398
-4.59401
-5.69557
-6.95979
-7.91236
-7.64665
-6.44242
-5.04862
-2.52151
-0.102779
2.49727
2.83642
2.16849
0.654319
-0.259215
-1.21854
-2.51769
-2.87857
-3.04683
-2.32122
-2.4473
-1.62463
-0.370724
0.529361
1.23694
-9.8993
-14.0761
-15.7812
-16.6051
-16.2965
-15.9203
-15.8507
-15.3074
-14.1025
-12.5434
-10.8862
-9.24584
-7.69177
-6.70831
-6.12301
-5.52413
-5.60476
-6.13277
-6.44982
-6.51092
-6.00933
-4.69809
-3.52441
-2.09877
-1.02542
-0.293571
0.425812
0.459348
-0.0542588
-0.690553
-1.08489
-1.64403
-1.90987
-2.19497
-1.83172
-1.40934
-1.0039
-0.419035
-0.199421
-0.224555
-12.8744
-13.6187
-14.3755
-14.7617
-14.8671
-15.002
-14.8776
-14.3491
-13.3004
-12.0201
-10.7898
-9.56881
-8.2181
-7.02454
-6.29716
-5.89483
-5.72278
-5.60704
-5.70206
-5.46541
-5.03536
-4.41787
-3.72564
-2.97569
-1.99844
-0.961115
-0.101028
0.220851
0.15908
-0.208826
-0.55784
-0.926656
-1.28032
-1.44775
-1.48136
-1.31555
-1.20163
-1.04901
-0.81499
-0.318591
-9.92061
-10.7687
-12.0643
-13.3758
-14.3886
-14.9477
-14.9206
-14.4142
-13.4064
-12.0516
-10.7004
-9.53403
-8.42361
-7.32154
-6.6652
-6.27087
-6.0351
-5.84994
-5.63362
-5.30615
-4.78065
-4.15419
-3.48219
-2.87572
-2.01132
-1.13293
-0.359628
-0.0399279
0.0240449
-0.218714
-0.570678
-0.784923
-1.1595
-1.31672
-1.39641
-1.25027
-1.12249
-0.995529
-0.710048
-0.300475
)
;

boundaryField
{
    inlet
    {
        type            zeroGradient;
    }
    outlet
    {
        type            fixedValue;
        value           uniform 0;
    }
    obstacle
    {
        type            zeroGradient;
    }
    upperWall
    {
        type            zeroGradient;
    }
    lowerWall
    {
        type            zeroGradient;
    }
    frontAndBack
    {
        type            empty;
    }
}


// ************************************************************************* //
