/*--------------------------------*- C++ -*----------------------------------*\
  =========                 |
  \\      /  F ield         | OpenFOAM: The Open Source CFD Toolbox
   \\    /   O peration     | Website:  https://openfoam.org
    \\  /    A nd           | Version:  10
     \\/     M anipulation  |
\*---------------------------------------------------------------------------*/
FoamFile
{
    format      ascii;
    class       volVectorField;
    location    "4.075";
    object      U;
}
// * * * * * * * * * * * * * * * * * * * * * * * * * * * * * * * * * * * * * //

dimensions      [0 1 -1 0 0 0 0];

internalField   nonuniform List<vector> 
400
(
(-0.000112084 0.000108279 0)
(-0.000836332 0.000325542 0)
(-0.00199495 0.00037729 0)
(-0.00308234 0.000376015 0)
(-0.00413833 0.00036107 0)
(-0.00512741 0.000339464 0)
(-0.00602595 0.000310687 0)
(-0.00681167 0.000273071 0)
(-0.00745947 0.000224989 0)
(-0.00794202 0.000165054 0)
(-0.00823047 9.23648e-05 0)
(-0.00829557 7.14096e-06 0)
(-0.00810963 -9.08681e-05 0)
(-0.00765011 -0.000198666 0)
(-0.00690378 -0.000311566 0)
(-0.00587024 -0.000422562 0)
(-0.0045727 -0.000520484 0)
(-0.00308535 -0.000583789 0)
(-0.00139436 -0.00055122 0)
(-0.000240057 -0.000253989 0)
(-0.000343669 0.000841241 0)
(-0.00175115 0.00169627 0)
(-0.00378141 0.00188223 0)
(-0.00569204 0.00185016 0)
(-0.00752536 0.00174846 0)
(-0.00922031 0.00160692 0)
(-0.0107332 0.00142748 0)
(-0.0120257 0.00120741 0)
(-0.013058 0.000943695 0)
(-0.0137896 0.000634027 0)
(-0.0141794 0.000277314 0)
(-0.0141896 -0.000126042 0)
(-0.0137847 -0.000568859 0)
(-0.012937 -0.00103909 0)
(-0.0116344 -0.00151792 0)
(-0.00988359 -0.00197761 0)
(-0.00772736 -0.00237514 0)
(-0.00527573 -0.00262656 0)
(-0.00252453 -0.00250636 0)
(-0.00052623 -0.00137402 0)
(-0.000417743 0.00206439 0)
(-0.00206046 0.00376595 0)
(-0.00439368 0.00411439 0)
(-0.00658182 0.00402193 0)
(-0.00867544 0.0037789 0)
(-0.0106067 0.00344589 0)
(-0.0123277 0.00303007 0)
(-0.0137965 0.00252937 0)
(-0.0149701 0.00194065 0)
(-0.0158049 0.00126172 0)
(-0.0162583 0.000492589 0)
(-0.0162848 -0.000363246 0)
(-0.015842 -0.00129302 0)
(-0.0148978 -0.00227268 0)
(-0.0134331 -0.00326432 0)
(-0.0114484 -0.00421217 0)
(-0.00898464 -0.00503083 0)
(-0.00616261 -0.00555208 0)
(-0.00297367 -0.00533472 0)
(-0.000631045 -0.00310585 0)
(-0.000443446 0.00330236 0)
(-0.00219759 0.00588356 0)
(-0.00468906 0.00639487 0)
(-0.0070218 0.00623865 0)
(-0.00925702 0.00585399 0)
(-0.011325 0.00533192 0)
(-0.0131778 0.00468397 0)
(-0.0147735 0.00390798 0)
(-0.0160685 0.00299972 0)
(-0.017017 0.00195558 0)
(-0.0175722 0.000775012 0)
(-0.0176842 -0.0005358 0)
(-0.0172996 -0.00196385 0)
(-0.0163694 -0.00347631 0)
(-0.0148576 -0.00501873 0)
(-0.0127475 -0.00650694 0)
(-0.0100673 -0.00780712 0)
(-0.0069446 -0.00865355 0)
(-0.00336508 -0.0083604 0)
(-0.000715077 -0.00495003 0)
(-0.000465112 0.00461768 0)
(-0.00232571 0.00813864 0)
(-0.00497588 0.00882295 0)
(-0.00745719 0.00860189 0)
(-0.00984217 0.00807326 0)
(-0.0120601 0.00736019 0)
(-0.0140644 0.00647866 0)
(-0.0158148 0.00542594 0)
(-0.0172675 0.00419558 0)
(-0.0183755 0.00278068 0)
(-0.0190866 0.00117688 0)
(-0.019343 -0.000613222 0)
(-0.0190765 -0.00257732 0)
(-0.0182158 -0.00467885 0)
(-0.0166968 -0.00685085 0)
(-0.0144702 -0.00898047 0)
(-0.0115359 -0.0108756 0)
(-0.00802449 -0.0121464 0)
(-0.00391675 -0.0118101 0)
(-0.000837307 -0.0070672 0)
(-0.000492883 0.00601486 0)
(-0.00248517 0.0105476 0)
(-0.00533107 0.011419 0)
(-0.00799644 0.0111337 0)
(-0.010567 0.010461 0)
(-0.0129713 0.00955852 0)
(-0.0151658 0.00844703 0)
(-0.0171127 0.00712264 0)
(-0.0187703 0.00557524 0)
(-0.0200911 0.00379195 0)
(-0.0210186 0.00176047 0)
(-0.0214868 -0.000525642 0)
(-0.0214087 -0.00306574 0)
(-0.0206821 -0.00582603 0)
(-0.0192021 -0.0087341 0)
(-0.0168674 -0.0116501 0)
(-0.0136247 -0.0143131 0)
(-0.00959213 -0.0161699 0)
(-0.00474069 -0.0158555 0)
(-0.00102904 -0.00958163 0)
(-0.00052846 0.00751355 0)
(-0.00268446 0.0131444 0)
(-0.00577102 0.0142195 0)
(-0.00866085 0.01387 0)
(-0.011456 0.0130528 0)
(-0.014085 0.0119636 0)
(-0.0165087 0.0106285 0)
(-0.0186948 0.00904235 0)
(-0.0206063 0.00718973 0)
(-0.0221979 0.00504861 0)
(-0.0234111 0.00259285 0)
(-0.0241752 -0.000203114 0)
(-0.0243823 -0.00335012 0)
(-0.0238908 -0.00684396 0)
(-0.0225408 -0.01062 0)
(-0.0201501 -0.014521 0)
(-0.01657 -0.0182087 0)
(-0.0118663 -0.0209152 0)
(-0.00598613 -0.0207501 0)
(-0.0013386 -0.0126971 0)
(-0.000572271 0.00913821 0)
(-0.0029267 0.0159709 0)
(-0.00630156 0.0172672 0)
(-0.00945592 0.0168509 0)
(-0.0125127 0.0158868 0)
(-0.0154008 0.014613 0)
(-0.0180887 0.0130628 0)
(-0.0205529 0.0112299 0)
(-0.0227653 0.00909309 0)
(-0.024689 0.00661839 0)
(-0.0262711 0.00376015 0)
(-0.0274302 0.000465209 0)
(-0.0280503 -0.00330975 0)
(-0.0279555 -0.00760837 0)
(-0.0269027 -0.0124036 0)
(-0.0245942 -0.0175484 0)
(-0.0207204 -0.022633 0)
(-0.0152036 -0.0266175 0)
(-0.00793369 -0.0268516 0)
(-0.00187027 -0.0167479 0)
(-0.000625428 0.010915 0)
(-0.00321665 0.0190716 0)
(-0.00693011 0.0206053 0)
(-0.0103876 0.0201142 0)
(-0.0137386 0.0189963 0)
(-0.0169139 0.0175384 0)
(-0.0198928 0.015783 0)
(-0.0226652 0.0137247 0)
(-0.0252184 0.0113367 0)
(-0.0275313 0.00857215 0)
(-0.0295646 0.00536149 0)
(-0.031245 0.00161513 0)
(-0.0324564 -0.00277292 0)
(-0.0329894 -0.00791629 0)
(-0.0325149 -0.013877 0)
(-0.0305773 -0.020579 0)
(-0.0266148 -0.0275827 0)
(-0.0202251 -0.0335286 0)
(-0.011166 -0.0346678 0)
(-0.00286845 -0.0223315 0)
(-0.000690732 0.0128741 0)
(-0.00356373 0.0224949 0)
(-0.00767046 0.0242769 0)
(-0.0114675 0.023694 0)
(-0.015139 0.0224081 0)
(-0.0186196 0.0207621 0)
(-0.0219036 0.0188117 0)
(-0.025 0.016555 0)
(-0.0279187 0.0139628 0)
(-0.0306651 0.0109763 0)
(-0.0332289 0.00750067 0)
(-0.0355654 0.00339933 0)
(-0.0375833 -0.00151265 0)
(-0.0390681 -0.00745525 0)
(-0.039619 -0.0146676 0)
(-0.0385974 -0.0232523 0)
(-0.0350832 -0.0328615 0)
(-0.0280613 -0.0418241 0)
(-0.0169768 -0.0449048 0)
(-0.00493345 -0.0306241 0)
(-0.000774222 0.0150541 0)
(-0.00398591 0.0262973 0)
(-0.00854757 0.0283268 0)
(-0.0127174 0.0276197 0)
(-0.0167266 0.0261393 0)
(-0.0205163 0.0242933 0)
(-0.0241014 0.0221549 0)
(-0.0275154 0.0197305 0)
(-0.0307986 0.0169936 0)
(-0.0339949 0.0138798 0)
(-0.0371432 0.0102744 0)
(-0.0402607 0.00599324 0)
(-0.0433153 0.000761253 0)
(-0.0461622 -0.00578415 0)
(-0.0484069 -0.0141579 0)
(-0.0492592 -0.0248259 0)
(-0.0473833 -0.0378006 0)
(-0.0408093 -0.051271 0)
(-0.0282488 -0.0583337 0)
(-0.00957067 -0.0442591 0)
(-0.000888397 0.0175103 0)
(-0.00451638 0.0305483 0)
(-0.009605 0.0328011 0)
(-0.0141756 0.0319134 0)
(-0.0185265 0.0301934 0)
(-0.0226105 0.0281225 0)
(-0.0264683 0.0257953 0)
(-0.0301631 0.0232321 0)
(-0.0337713 0.0204176 0)
(-0.0373866 0.0172953 0)
(-0.0411187 0.0137493 0)
(-0.0450838 0.00957185 0)
(-0.0493722 0.00441559 0)
(-0.0540296 -0.00227205 0)
(-0.0588555 -0.0113034 0)
(-0.0631382 -0.0238267 0)
(-0.0652547 -0.040637 0)
(-0.0620273 -0.06039 0)
(-0.0506191 -0.0755285 0)
(-0.0201382 -0.0685096 0)
(-0.00105975 0.0203274 0)
(-0.00521676 0.0353359 0)
(-0.0109163 0.0377375 0)
(-0.015905 0.0365764 0)
(-0.0205827 0.0345511 0)
(-0.0249212 0.0322162 0)
(-0.028994 0.0296871 0)
(-0.0328952 0.0270029 0)
(-0.0367375 0.0241711 0)
(-0.0406656 0.0211621 0)
(-0.0448698 0.0178896 0)
(-0.0496009 0.0141691 0)
(-0.0551802 0.00963501 0)
(-0.0619714 0.00359857 0)
(-0.0703767 -0.00507099 0)
(-0.0803392 -0.0181254 0)
(-0.0903549 -0.0379292 0)
(-0.0958515 -0.065592 0)
(-0.0892519 -0.0966374 0)
(-0.0379723 -0.114136 0)
(-0.00134451 0.0236404 0)
(-0.0062183 0.0408574 0)
(-0.0126141 0.0433153 0)
(-0.017999 0.0417576 0)
(-0.0229543 0.0392826 0)
(-0.0274811 0.0365657 0)
(-0.0316837 0.0337658 0)
(-0.0356806 0.0309437 0)
(-0.0396131 0.0281306 0)
(-0.0436687 0.025343 0)
(-0.0481128 0.0225799 0)
(-0.0533445 0.0197831 0)
(-0.0599755 0.0167391 0)
(-0.0689038 0.0128832 0)
(-0.0813446 0.00699394 0)
(-0.0988001 -0.00335772 0)
(-0.120642 -0.0233104 0)
(-0.13836 -0.0621536 0)
(-0.134613 -0.12587 0)
(-0.0493024 -0.196212 0)
(-0.00175383 0.0278584 0)
(-0.00745984 0.0465298 0)
(-0.0147734 0.0485696 0)
(-0.0206083 0.0462814 0)
(-0.0258367 0.0434179 0)
(-0.0304408 0.0405068 0)
(-0.0346137 0.0376151 0)
(-0.0385235 0.0347713 0)
(-0.0423221 0.0320335 0)
(-0.0461846 0.0294929 0)
(-0.0503742 0.0272867 0)
(-0.0553536 0.0255832 0)
(-0.0619604 0.0245489 0)
(-0.0716287 0.0241345 0)
(-0.0867521 0.0236146 0)
(-0.110496 0.019473 0)
(-0.142248 0.00149499 0)
(-0.164161 -0.0582072 0)
(-0.15485 -0.179226 0)
(-0.0374049 -0.310114 0)
(-0.00369463 0.0317598 0)
(-0.011384 0.0558117 0)
(-0.01833 0.0574973 0)
(-0.0239375 0.05472 0)
(-0.0288295 0.0506977 0)
(-0.0333052 0.0466521 0)
(-0.0374044 0.0428348 0)
(-0.0411961 0.0393431 0)
(-0.0447505 0.0362628 0)
(-0.0481751 0.0337233 0)
(-0.0516569 0.0319946 0)
(-0.0555508 0.0315499 0)
(-0.0606018 0.0331941 0)
(-0.0681546 0.0377281 0)
(-0.0808168 0.0452723 0)
(-0.100926 0.0491198 0)
(-0.129468 0.031943 0)
(-0.142372 -0.0591212 0)
(-0.133577 -0.244019 0)
(-0.0210516 -0.412679 0)
(-0.00143756 0.0458322 0)
(-0.00954892 0.0586641 0)
(-0.0215186 0.0580276 0)
(-0.0277887 0.0533248 0)
(-0.0336994 0.0496795 0)
(-0.0380305 0.0464103 0)
(-0.0414627 0.0433692 0)
(-0.0442505 0.0404581 0)
(-0.046535 0.0377756 0)
(-0.0483569 0.035463 0)
(-0.0497036 0.0339634 0)
(-0.0505129 0.0338837 0)
(-0.050966 0.0366643 0)
(-0.0510156 0.0432394 0)
(-0.0529146 0.0550739 0)
(-0.0542415 0.0609357 0)
(-0.0689322 0.0431741 0)
(-0.068917 -0.0641149 0)
(-0.0791073 -0.286635 0)
(-0.00451366 -0.484886 0)
(-0.0115043 0.0358181 0)
(-0.02551 0.0817169 0)
(-0.0264983 0.0789264 0)
(-0.0341566 0.0733215 0)
(-0.0375671 0.0658164 0)
(-0.0394608 0.058924 0)
(-0.0398438 0.0528491 0)
(-0.039239 0.0475285 0)
(-0.0379146 0.0429492 0)
(-0.0358566 0.0390587 0)
(-0.0332653 0.0361035 0)
(-0.0294806 0.034648 0)
(-0.0249273 0.0361837 0)
(-0.0163762 0.0413594 0)
(-0.00814579 0.0538344 0)
(0.0143143 0.0615858 0)
(0.0231492 0.0516441 0)
(0.0579689 -0.045985 0)
(0.0174751 -0.286293 0)
(0.0433412 -0.505135 0)
(-0.0756338 0.0991293 0)
(-0.0607656 0.0623591 0)
(-0.0621036 0.0611511 0)
(-0.0417737 0.0543204 0)
(-0.02496 0.0472312 0)
(-0.00630284 0.0416977 0)
(0.0111038 0.0374392 0)
(0.0278085 0.0336073 0)
(0.0428226 0.0305167 0)
(0.0575055 0.0273551 0)
(0.0701873 0.0251745 0)
(0.084061 0.0229681 0)
(0.0945815 0.0226465 0)
(0.114634 0.022909 0)
(0.122074 0.02348 0)
(0.168655 0.0219238 0)
(0.170372 -0.00628431 0)
(0.228682 -0.0673996 0)
(0.16545 -0.259753 0)
(0.128522 -0.444822 0)
(0.120331 0.140198 0)
(0.153637 0.0864365 0)
(0.232574 0.0642609 0)
(0.287976 0.0491442 0)
(0.331013 0.0386307 0)
(0.369333 0.0309227 0)
(0.399593 0.0255372 0)
(0.430479 0.0215491 0)
(0.45107 0.0182381 0)
(0.478756 0.0161897 0)
(0.490604 0.0135572 0)
(0.518969 0.0125797 0)
(0.52113 0.0107017 0)
(0.554872 0.00992094 0)
(0.545412 0.00929747 0)
(0.584709 0.00480889 0)
(0.555923 -0.00277712 0)
(0.571752 -0.0283227 0)
(0.439743 -0.0827196 0)
(0.277795 -0.157694 0)
)
;

boundaryField
{
    movingWall
    {
        type            fixedValue;
        value           uniform (1 0 0);
    }
    fixedWalls
    {
        type            noSlip;
    }
    frontAndBack
    {
        type            empty;
    }
}


// ************************************************************************* //
