/*--------------------------------*- C++ -*----------------------------------*\
  =========                 |
  \\      /  F ield         | OpenFOAM: The Open Source CFD Toolbox
   \\    /   O peration     | Website:  https://openfoam.org
    \\  /    A nd           | Version:  10
     \\/     M anipulation  |
\*---------------------------------------------------------------------------*/
FoamFile
{
    format      ascii;
    class       volVectorField;
    location    "3.65";
    object      U;
}
// * * * * * * * * * * * * * * * * * * * * * * * * * * * * * * * * * * * * * //

dimensions      [0 1 -1 0 0 0 0];

internalField   nonuniform List<vector> 
496
(
(9.98544 0.0452412 0)
(9.99277 -0.217271 0)
(10.4274 -0.114423 0)
(10.8707 -0.24449 0)
(10.1822 0.326112 0)
(9.70291 -1.21037 0)
(10.6126 -0.284111 0)
(10.7353 -1.22408 0)
(11.4351 1.10942 0)
(8.16584 -2.75873 0)
(11.925 0.0666455 0)
(9.83383 -4.1849 0)
(13.0292 1.35669 0)
(6.77434 -2.44747 0)
(14.483 0.379412 0)
(8.3421 -6.47856 0)
(11.495 -0.231362 1.85055e-18)
(12.2298 -0.156645 9.1185e-19)
(11.8077 -0.51282 -1.83519e-18)
(12.4151 0.120887 3.18822e-18)
(13.1761 -1.73868 -1.72599e-20)
(12.1863 -0.476234 -4.1017e-18)
(15.155 -5.54114 -3.67849e-17)
(13.7529 -4.36279 6.82234e-17)
(12.7177 -0.128562 0)
(12.9746 -0.0753837 0)
(13.0385 0.103243 0)
(13.0476 0.0946298 0)
(12.9556 0.0318111 0)
(13.4135 -0.26461 0)
(13.4821 -0.549222 0)
(13.427 -0.673092 0)
(12.1664 1.29784 0)
(12.0332 1.19348 0)
(12.5452 0.730871 0)
(12.7827 0.508376 0)
(14.2258 -3.07717 0)
(9.29216 -1.89893 0)
(11.5456 -1.59404 0)
(9.93636 -0.0941053 0)
(13.0451 0.182831 0)
(13.0739 0.231549 0)
(13.0985 0.303184 0)
(12.9205 0.237376 0)
(12.7637 0.194389 0)
(12.6979 0.192717 0)
(12.9653 0.204758 0)
(13.0134 0.218156 0)
(13.0279 0.161041 0)
(12.7764 0.233941 0)
(12.8122 0.272957 0)
(12.7171 0.385649 0)
(12.7619 0.384952 0)
(12.5997 0.456295 0)
(12.5253 0.458863 0)
(12.3968 0.491103 0)
(12.279 0.498184 0)
(12.2087 0.467085 0)
(12.0404 0.487173 0)
(12.0167 0.423322 0)
(11.8638 0.453684 0)
(11.8696 0.399662 0)
(11.76 0.424073 0)
(11.6824 0.40125 0)
(11.6102 0.394675 0)
(11.3775 0.40332 0)
(11.3219 0.359734 0)
(10.9696 0.391035 0)
(10.9577 0.334423 0)
(10.6705 0.349785 0)
(10.662 0.266372 0)
(10.5732 0.227228 0)
(10.549 0.181625 0)
(10.6846 0.135383 0)
(10.632 0.169061 0)
(10.7624 0.139479 0)
(10.6399 0.239926 0)
(10.4796 0.20794 0)
(10.309 0.279675 0)
(9.7859 0.301312 0)
(13.5495 -0.504015 0)
(13.5641 -0.320811 0)
(13.5549 -0.191148 0)
(13.2867 -0.257318 0)
(13.2718 -0.223818 0)
(13.2805 -0.146738 0)
(13.599 -0.0844805 0)
(13.6266 -0.143696 0)
(13.7175 -0.306952 0)
(13.6399 -0.291222 0)
(13.7011 -0.317626 0)
(13.6644 -0.196522 0)
(13.6509 -0.27845 0)
(13.6028 -0.199493 0)
(13.483 -0.26253 0)
(13.4513 -0.222211 0)
(13.295 -0.240262 0)
(13.2889 -0.284483 0)
(13.1536 -0.223151 0)
(13.1455 -0.321926 0)
(13.0954 -0.182703 0)
(13.074 -0.276569 0)
(13.094 -0.141929 0)
(12.996 -0.175821 0)
(13.0232 -0.0896972 0)
(12.8368 -0.0120974 0)
(12.8068 -0.039995 0)
(12.6066 0.0632451 0)
(12.5181 -0.0902773 0)
(12.3942 -0.0253202 0)
(12.244 -0.173641 0)
(12.2871 -0.166367 0)
(12.1953 -0.208013 0)
(12.3754 -0.258943 0)
(12.3937 -0.162455 0)
(12.5355 -0.123215 0)
(12.6067 0.0917147 0)
(12.4273 0.163442 0)
(12.4938 0.34805 0)
(12.0787 0.219845 0)
(13.4798 0.60609 0)
(13.3074 0.30001 0)
(13.2315 0.149799 0)
(12.9745 -0.0468366 0)
(13.0221 0.0451016 0)
(13.127 0.00920823 0)
(13.1769 0.0994719 0)
(13.2821 0.158069 0)
(13.1172 0.187402 0)
(13.3859 0.320349 0)
(13.2206 0.28816 0)
(13.472 0.527606 0)
(13.2893 0.440728 0)
(13.423 0.632363 0)
(13.3425 0.516295 0)
(13.2704 0.578385 0)
(13.3447 0.533931 0)
(13.1126 0.446406 0)
(13.3312 0.533058 0)
(13.0263 0.299547 0)
(13.3209 0.518026 0)
(13.0706 0.257079 0)
(13.2484 0.422546 0)
(13.2198 0.351768 0)
(13.2159 0.392587 0)
(13.3521 0.596463 0)
(13.0921 0.490328 0)
(13.2449 0.805506 0)
(12.887 0.554114 0)
(13.0023 0.678166 0)
(12.772 0.338658 0)
(12.7337 0.185565 0)
(12.6824 0.0298393 0)
(12.5226 -0.244755 0)
(12.7464 0.0190157 0)
(12.6852 -0.222542 0)
(12.9989 0.277268 0)
(13.0397 0.232738 0)
(13.235 0.687982 0)
(13.0879 0.870354 0)
(11.3921 0.477176 0)
(10.1371 -0.350666 0)
(9.49699 0.213498 0)
(9.89676 -0.112361 0)
(9.0823 -0.122111 0)
(9.38035 -0.100709 0)
(9.61295 -0.308941 0)
(9.77445 -0.544228 0)
(9.71972 -0.66352 0)
(9.24454 -0.4987 0)
(9.30827 -0.348215 0)
(9.44822 -0.213654 0)
(8.99719 -0.100344 0)
(9.4939 0.00378942 0)
(8.69158 -0.00298461 0)
(9.37127 0.0360413 0)
(8.68197 -0.0134778 0)
(9.21046 -0.018954 0)
(8.81422 -0.048333 0)
(8.92584 -0.0345346 0)
(9.30086 -0.0693343 0)
(8.68679 -0.14833 0)
(9.54918 -0.102648 0)
(9.10983 -0.162576 0)
(9.72175 -0.124791 0)
(9.87261 -0.0970258 0)
(9.89445 0.00716308 0)
(10.5226 0.115803 0)
(9.91457 0.149769 0)
(10.405 0.230737 0)
(9.43618 0.199146 0)
(9.57549 0.175868 0)
(8.92618 0.125038 0)
(8.70353 -0.0326126 0)
(9.06361 -0.0792256 0)
(8.68405 -0.276847 0)
(9.67239 -0.248032 0)
(9.7001 -0.184642 0)
(10.517 0.000345639 0)
(11.0156 0.162727 0)
(11.2189 0.763514 -9.97899e-18)
(9.09245 -0.837119 -1.7451e-17)
(10.0522 0.0902469 3.0065e-17)
(6.00963 -4.48192 -8.24519e-17)
(12.7846 -0.441814 9.84677e-18)
(7.85953 0.513679 1.72244e-17)
(11.6927 0.471662 -2.96742e-17)
(5.39595 4.24413 8.22517e-17)
(-9.28207 3.52645 0)
(4.04269 -0.810397 0)
(-6.72519 2.03873 0)
(-2.12121 -1.21878 0)
(7.99179 0.938057 3.86285e-17)
(-4.18606 -3.68954 0)
(0.729847 3.26088 0)
(1.04522 -2.01172 0)
(1.02647 2.08977 0)
(-3.71378 -1.30449 0)
(3.45634 0.744601 0)
(-0.44149 0.279651 0)
(-0.109159 -0.666996 0)
(2.84758 -0.317778 0)
(0.744502 0.196216 0)
(1.64548 1.43692 0)
(-0.624682 0.122518 0)
(1.11158 0.371753 0)
(0.782203 0.520927 0)
(0.957367 0.65489 0)
(0.898494 0.586091 0)
(1.2105 0.505285 0)
(0.894769 0.355644 0)
(1.53399 0.41829 0)
(1.49563 0.418522 0)
(1.37281 0.203282 0)
(1.66352 0.262333 0)
(2.20516 0.373908 0)
(1.70352 0.115254 0)
(2.12617 -0.033327 0)
(2.46459 0.169394 0)
(2.63449 -0.0342576 0)
(2.63247 0.00609485 0)
(3.08042 0.227812 0)
(3.17101 0.199823 0)
(3.34422 0.634354 0)
(3.32749 0.612615 0)
(3.49933 0.724814 0)
(3.46095 0.828456 0)
(3.56536 0.502732 0)
(3.58075 0.187692 0)
(3.92531 -0.0838439 0)
(4.12475 -0.400881 0)
(4.36364 -0.696982 0)
(4.85368 -0.562914 0)
(5.05186 -0.579257 0)
(5.69502 -0.149777 0)
(5.63965 0.340068 0)
(-0.848242 -0.953033 0)
(1.53164 -1.19745 0)
(-1.55878 -0.414153 0)
(0.904096 0.75876 0)
(0.620964 -1.80931 0)
(1.26017 -0.592266 0)
(-1.12805 -0.067351 0)
(2.3718 -0.235609 0)
(1.05183 -0.445442 0)
(1.42382 -0.979804 0)
(0.860141 -0.49882 0)
(0.868325 -0.212284 0)
(1.27433 -0.300343 0)
(1.55867 -0.244876 0)
(1.57943 -0.176713 0)
(1.90994 -0.262434 0)
(2.21923 -0.144708 0)
(2.26042 -0.134374 0)
(2.3824 -0.307239 0)
(2.68202 -0.369784 0)
(2.89865 -0.304226 0)
(2.46981 -0.363162 0)
(3.05556 -0.56941 0)
(3.17528 -0.599146 0)
(2.46307 -0.418808 0)
(3.55845 -0.423452 0)
(2.85549 -0.308548 0)
(3.41141 0.0178841 0)
(3.7841 0.128041 0)
(3.67335 0.230669 0)
(4.49844 0.244878 0)
(4.55633 0.0269442 0)
(4.76311 -0.0820682 0)
(5.07749 -0.471921 0)
(5.18315 -0.788385 0)
(4.84674 -0.924739 0)
(4.87968 -0.862566 0)
(4.98158 -0.991631 0)
(4.54363 -0.411186 0)
(5.02088 0.224002 0)
(11.9102 -2.04289 0)
(8.19584 3.19456 0)
(12.9311 -1.72863 0)
(10.1491 7.24202 0)
(10.9167 -1.63007 0)
(8.90431 3.4396 0)
(11.3481 -0.219228 0)
(10.6447 4.75482 0)
(10.0388 -0.696428 0)
(9.71001 1.59074 0)
(10.2307 0.0319686 0)
(10.6659 1.3955 0)
(9.93879 -0.132369 0)
(9.8587 0.245836 0)
(10.2089 0.0534843 0)
(10.7087 0.22116 0)
(13.2564 4.52081 3.83528e-17)
(15.5464 5.17809 -6.77944e-17)
(13.0293 2.12185 0)
(13.2312 1.00447 0)
(11.6456 0.263688 0)
(12.4698 -0.187217 0)
(11.4641 0.233403 0)
(12.1882 0.155805 0)
(10.6646 1.91805 0)
(11.8964 1.95087 0)
(9.33188 1.22932 0)
(10.7056 0.199206 0)
(12.708 -0.178025 0)
(13.142 -0.737229 0)
(13.1324 -0.310089 0)
(13.7307 -0.381659 0)
(13.0817 -0.156243 0)
(13.5514 0.0555459 0)
(13.8767 0.367608 0)
(13.9971 0.454703 0)
(12.8404 0.235176 0)
(13.1151 0.197022 0)
(13.4124 0.17524 0)
(13.2842 0.0459954 0)
(11.097 0.141443 0)
(11.4441 0.0261606 0)
(11.1929 0.140264 0)
(10.7561 -0.294375 0)
(10.9029 -0.458659 0)
(11.9278 -0.100538 0)
(10.6398 0.225819 0)
(11.1396 0.345623 0)
(10.4451 0.506151 0)
(10.7143 0.557237 0)
(10.4183 0.577815 0)
(9.92074 0.507563 0)
(10.108 0.342047 0)
(9.73461 0.215613 0)
(10.2622 0.0928241 0)
(9.97385 0.0570408 0)
(10.377 0.028138 0)
(10.396 0.0195958 0)
(10.3766 0.0439857 0)
(10.8848 -0.000300788 0)
(10.4761 0.0259148 0)
(11.0322 -0.0250282 0)
(10.541 -0.0239208 0)
(10.8547 -0.0593059 0)
(10.5137 -0.0216017 0)
(10.1707 0.0424372 0)
(10.4188 -0.00213567 0)
(9.72447 0.173381 0)
(10.2994 0.10104 0)
(9.89739 0.259669 0)
(10.4837 0.163466 0)
(10.7052 0.0861887 0)
(10.9261 -0.00928397 0)
(11.5667 -0.216025 0)
(11.311 -0.217876 0)
(11.8961 -0.356385 0)
(10.8806 -0.187153 0)
(10.9509 -0.27007 0)
(9.97925 -0.205532 0)
(9.4875 0.0744663 0)
(14.0527 -0.554798 0)
(14.3595 -0.896474 0)
(13.5759 -1.04936 0)
(13.428 -1.16205 0)
(13.1538 -0.971526 0)
(13.2245 -0.949229 0)
(12.9938 -0.507285 0)
(12.8269 -0.211886 0)
(12.9389 -0.0419555 0)
(12.8754 0.00549203 0)
(13.1437 -0.230113 0)
(12.9315 -0.20891 0)
(13.1279 -0.471193 0)
(12.9109 -0.38851 0)
(13.0321 -0.608686 0)
(12.9356 -0.555295 0)
(12.8892 -0.595765 0)
(12.9348 -0.639341 0)
(12.7266 -0.492312 0)
(12.883 -0.679523 0)
(12.5966 -0.467559 0)
(12.724 -0.655085 0)
(12.4927 -0.471365 0)
(12.4957 -0.471563 0)
(12.4907 -0.425992 0)
(12.2845 -0.141042 0)
(12.5072 -0.2836 0)
(12.2145 0.0732431 0)
(12.6083 -0.203833 0)
(12.4242 -0.0303032 0)
(12.7726 -0.310656 0)
(12.6769 -0.487824 0)
(12.6898 -0.624033 0)
(12.5861 -0.989581 0)
(12.2221 -0.808607 0)
(12.2787 -1.00496 0)
(11.8403 -0.419176 0)
(11.9423 -0.227991 0)
(11.6784 0.263657 0)
(11.7162 0.433502 0)
(14.1234 0.35104 0)
(13.9249 -0.00153318 0)
(13.5565 0.017931 0)
(13.1529 0.12957 0)
(12.8923 0.297684 0)
(12.8643 0.33505 0)
(12.8192 0.507869 0)
(12.8541 0.672599 0)
(12.9185 0.765385 0)
(13.0703 0.763709 0)
(13.22 0.614476 0)
(13.3296 0.552731 0)
(13.4242 0.39608 0)
(13.3816 0.412822 0)
(13.3832 0.314353 0)
(13.2652 0.327952 0)
(13.2158 0.291595 0)
(13.1069 0.26149 0)
(13.0067 0.297715 0)
(12.9453 0.193283 0)
(12.8166 0.265101 0)
(12.8106 0.149605 0)
(12.6669 0.243591 0)
(12.6651 0.19454 0)
(12.5466 0.218031 0)
(12.5453 0.241471 0)
(12.5348 0.171291 0)
(12.5502 0.24978 0)
(12.658 0.106412 0)
(12.6219 0.149718 0)
(12.7185 -0.044179 0)
(12.5324 -0.065467 0)
(12.5267 -0.149612 0)
(12.2726 -0.151319 0)
(12.1212 0.000663038 0)
(11.9184 -0.0208569 0)
(11.6735 0.221931 0)
(11.7259 0.184418 0)
(11.5743 0.375804 0)
(11.8834 0.352416 0)
(13.3268 -0.101038 0)
(13.1114 -0.35804 0)
(12.8906 -0.407032 0)
(12.3334 -0.534623 0)
(12.1225 -0.557213 0)
(12.0536 -0.631639 0)
(12.1278 -0.577857 0)
(12.1261 -0.502439 0)
(12.1487 -0.459544 0)
(12.2784 -0.411944 0)
(12.3763 -0.470211 0)
(12.5369 -0.442951 0)
(12.5565 -0.528925 0)
(12.5528 -0.493632 0)
(12.4557 -0.551267 0)
(12.3272 -0.539105 0)
(12.2435 -0.541379 0)
(12.0559 -0.556042 0)
(12.0014 -0.50014 0)
(11.781 -0.538214 0)
(11.7653 -0.46405 0)
(11.5896 -0.492627 0)
(11.5522 -0.424311 0)
(11.4351 -0.407915 0)
(11.342 -0.367825 0)
(11.3275 -0.297303 0)
(11.2125 -0.304932 0)
(11.2897 -0.225574 0)
(11.2108 -0.288339 0)
(11.2307 -0.238227 0)
(11.1572 -0.312024 0)
(10.923 -0.301596 0)
(10.8375 -0.334882 0)
(10.3675 -0.384197 0)
(10.3337 -0.345183 0)
(9.92304 -0.3743 0)
(9.9574 -0.242202 0)
(9.90411 -0.203721 0)
(9.92858 -0.0922698 0)
(10.2363 -0.06552 0)
)
;

boundaryField
{
    inlet
    {
        type            fixedValue;
        value           uniform (10 0 0);
    }
    outlet
    {
        type            zeroGradient;
    }
    obstacle
    {
        type            noSlip;
    }
    upperWall
    {
        type            noSlip;
    }
    lowerWall
    {
        type            noSlip;
    }
    frontAndBack
    {
        type            empty;
    }
}


// ************************************************************************* //
