/*--------------------------------*- C++ -*----------------------------------*\
  =========                 |
  \\      /  F ield         | OpenFOAM: The Open Source CFD Toolbox
   \\    /   O peration     | Website:  https://openfoam.org
    \\  /    A nd           | Version:  10
     \\/     M anipulation  |
\*---------------------------------------------------------------------------*/
FoamFile
{
    format      ascii;
    class       volVectorField;
    location    "6.875";
    object      U;
}
// * * * * * * * * * * * * * * * * * * * * * * * * * * * * * * * * * * * * * //

dimensions      [0 1 -1 0 0 0 0];

internalField   nonuniform List<vector> 
400
(
(-0.00012263 0.000111741 0)
(-0.000964141 0.000363768 0)
(-0.00239046 0.000453551 0)
(-0.00383129 0.000477701 0)
(-0.00529665 0.000484555 0)
(-0.00674681 0.000488491 0)
(-0.00816212 0.000488711 0)
(-0.00951811 0.000479833 0)
(-0.0107769 0.000455069 0)
(-0.0118853 0.000406746 0)
(-0.012773 0.000326665 0)
(-0.0133524 0.000207185 0)
(-0.013522 4.29342e-05 0)
(-0.0131733 -0.0001701 0)
(-0.0122089 -0.000422985 0)
(-0.0105672 -0.000693345 0)
(-0.00826668 -0.000935944 0)
(-0.00550377 -0.00107491 0)
(-0.00240555 -0.000988584 0)
(-0.000381533 -0.000437954 0)
(-0.000405942 0.000977735 0)
(-0.00215728 0.00206142 0)
(-0.00483424 0.00244212 0)
(-0.00752716 0.00253037 0)
(-0.0102291 0.0025176 0)
(-0.0128582 0.00246322 0)
(-0.015364 0.0023695 0)
(-0.0176939 0.00222018 0)
(-0.0197792 0.00199277 0)
(-0.0215324 0.00166168 0)
(-0.0228443 0.00120005 0)
(-0.0235852 0.000582919 0)
(-0.0236136 -0.000207112 0)
(-0.0227795 -0.00116309 0)
(-0.0209504 -0.00224405 0)
(-0.0180532 -0.00335691 0)
(-0.0141381 -0.00432708 0)
(-0.00950437 -0.00486127 0)
(-0.00436604 -0.0045002 0)
(-0.00083197 -0.00232639 0)
(-0.000525863 0.00252108 0)
(-0.00268352 0.0047978 0)
(-0.00591525 0.00557749 0)
(-0.00914102 0.00573304 0)
(-0.0123576 0.00565619 0)
(-0.0154696 0.00546944 0)
(-0.018419 0.00518301 0)
(-0.0211476 0.00477033 0)
(-0.0235807 0.0041915 0)
(-0.0256244 0.00339986 0)
(-0.027162 0.00234633 0)
(-0.028054 0.000986351 0)
(-0.0281321 -0.00070815 0)
(-0.0272125 -0.00272668 0)
(-0.0251267 -0.00498897 0)
(-0.0217571 -0.00730952 0)
(-0.0171245 -0.00933494 0)
(-0.0115621 -0.0104578 0)
(-0.0053108 -0.00973635 0)
(-0.00100157 -0.00528801 0)
(-0.000563641 0.00415334 0)
(-0.00289196 0.0077001 0)
(-0.00637384 0.00888488 0)
(-0.00983664 0.00909632 0)
(-0.0132905 0.00894633 0)
(-0.0166405 0.00862382 0)
(-0.0198341 0.00814721 0)
(-0.0228197 0.00747988 0)
(-0.0255293 0.00656415 0)
(-0.0278728 0.00532959 0)
(-0.0297326 0.00369932 0)
(-0.0309572 0.00160102 0)
(-0.0313575 -0.00101458 0)
(-0.0306972 -0.00415719 0)
(-0.0287206 -0.007727 0)
(-0.0252055 -0.0114543 0)
(-0.0200717 -0.0147836 0)
(-0.0136593 -0.0167077 0)
(-0.00622631 -0.0156526 0)
(-0.00111745 -0.0085405 0)
(-0.000571804 0.00586295 0)
(-0.00298663 0.0107577 0)
(-0.00661699 0.0123694 0)
(-0.0102281 0.0126441 0)
(-0.0138452 0.0124309 0)
(-0.0173798 0.0119903 0)
(-0.0207924 0.0113505 0)
(-0.0240463 0.0104659 0)
(-0.0270883 0.00925999 0)
(-0.0298412 0.00763472 0)
(-0.0321916 0.00547544 0)
(-0.0339771 0.00266342 0)
(-0.0349777 -0.000903385 0)
(-0.0348861 -0.00527511 0)
(-0.0333183 -0.0103753 0)
(-0.0298734 -0.0158674 0)
(-0.024266 -0.0209592 0)
(-0.0167638 -0.0241011 0)
(-0.00759481 -0.022798 0)
(-0.00127204 -0.0123618 0)
(-0.000572585 0.00761164 0)
(-0.0030548 0.0139231 0)
(-0.00681439 0.0159879 0)
(-0.0105613 0.0163413 0)
(-0.0143355 0.0160868 0)
(-0.0180591 0.0155632 0)
(-0.0217111 0.0148124 0)
(-0.0252767 0.0137813 0)
(-0.0287276 0.0123749 0)
(-0.0320108 0.0104637 0)
(-0.0350308 0.00788417 0)
(-0.0376274 0.00444581 0)
(-0.0395523 -4.46254e-05 0)
(-0.0404215 -0.00572397 0)
(-0.0396829 -0.0126213 0)
(-0.0366577 -0.0203913 0)
(-0.0306967 -0.0279878 0)
(-0.0217948 -0.0331229 0)
(-0.00992768 -0.0318572 0)
(-0.00153931 -0.0170719 0)
(-0.000571941 0.00939146 0)
(-0.00312323 0.0171887 0)
(-0.00701766 0.0197354 0)
(-0.0109049 0.0201854 0)
(-0.014841 0.0199163 0)
(-0.0187607 0.0193544 0)
(-0.022667 0.0185606 0)
(-0.0265755 0.0174791 0)
(-0.0304948 0.0159995 0)
(-0.0344144 0.0139602 0)
(-0.0382827 0.0111406 0)
(-0.0419701 0.00725692 0)
(-0.0452157 0.00198071 0)
(-0.0475948 -0.0050054 0)
(-0.0483887 -0.0139525 0)
(-0.0465373 -0.024639 0)
(-0.0407965 -0.0358653 0)
(-0.0304199 -0.0444462 0)
(-0.0143996 -0.0440441 0)
(-0.00213187 -0.0233743 0)
(-0.000570462 0.0112047 0)
(-0.00319719 0.0205628 0)
(-0.007236 0.0236198 0)
(-0.011265 0.0241809 0)
(-0.0153573 0.0239216 0)
(-0.0194622 0.0233669 0)
(-0.0236116 0.0226057 0)
(-0.02786 0.0215888 0)
(-0.0322674 0.0201993 0)
(-0.036889 0.0182509 0)
(-0.0417522 0.0154675 0)
(-0.0468102 0.0114591 0)
(-0.0518714 0.0057066 0)
(-0.0565594 -0.00240974 0)
(-0.0600551 -0.0134158 0)
(-0.0609357 -0.027602 0)
(-0.0571133 -0.0439908 0)
(-0.0460352 -0.0587303 0)
(-0.0239191 -0.0614576 0)
(-0.003726 -0.0329454 0)
(-0.000568753 0.0130546 0)
(-0.00327973 0.024055 0)
(-0.00747174 0.0276448 0)
(-0.0116346 0.0283211 0)
(-0.0158602 0.028085 0)
(-0.0201124 0.0275755 0)
(-0.0244548 0.0269207 0)
(-0.0289887 0.026092 0)
(-0.0338393 0.0249847 0)
(-0.0391539 0.0234092 0)
(-0.0450871 0.0210547 0)
(-0.0517652 0.0174378 0)
(-0.0592087 0.0118434 0)
(-0.067184 0.00331272 0)
(-0.0751755 -0.00922636 0)
(-0.0817846 -0.0269006 0)
(-0.083633 -0.0502228 0)
(-0.0739439 -0.0760886 0)
(-0.0434852 -0.0878643 0)
(-0.00786095 -0.0496283 0)
(-0.000570051 0.0149474 0)
(-0.00338109 0.0276767 0)
(-0.00773703 0.0318087 0)
(-0.0120163 0.0325843 0)
(-0.0163323 0.0323649 0)
(-0.0206624 0.0319193 0)
(-0.0251018 0.0314294 0)
(-0.0297999 0.0309053 0)
(-0.0349549 0.0302815 0)
(-0.0408272 0.0294052 0)
(-0.0477459 0.0279882 0)
(-0.056102 0.0255289 0)
(-0.0663091 0.0212104 0)
(-0.0787551 0.0138117 0)
(-0.0937259 0.00155754 0)
(-0.110479 -0.018304 0)
(-0.123249 -0.0504909 0)
(-0.116183 -0.0963407 0)
(-0.0749785 -0.129509 0)
(-0.0165262 -0.0810684 0)
(-0.000582591 0.0169009 0)
(-0.00352599 0.0314479 0)
(-0.00806543 0.0361065 0)
(-0.0124362 0.0369343 0)
(-0.0167806 0.0366922 0)
(-0.021086 0.0362964 0)
(-0.0254754 0.0359957 0)
(-0.0301402 0.0358593 0)
(-0.0353443 0.0358938 0)
(-0.0414583 0.0360387 0)
(-0.0490049 0.0361218 0)
(-0.0587228 0.0357797 0)
(-0.0716417 0.0343538 0)
(-0.0892044 0.0307363 0)
(-0.113205 0.0225622 0)
(-0.14324 0.00309672 0)
(-0.167419 -0.0420963 0)
(-0.15836 -0.122816 0)
(-0.109386 -0.191181 0)
(-0.0317124 -0.135538 0)
(-0.000623864 0.018956 0)
(-0.00376443 0.0354154 0)
(-0.00852563 0.0405517 0)
(-0.0129578 0.041341 0)
(-0.0172507 0.0409873 0)
(-0.0213994 0.040574 0)
(-0.0255459 0.0404286 0)
(-0.0299063 0.0406954 0)
(-0.0347826 0.0414874 0)
(-0.0406188 0.0429045 0)
(-0.0480871 0.0450164 0)
(-0.0582219 0.047831 0)
(-0.0725991 0.0512284 0)
(-0.0936301 0.0544981 0)
(-0.124258 0.0537807 0)
(-0.162282 0.0340468 0)
(-0.188271 -0.0324997 0)
(-0.172458 -0.15889 0)
(-0.132134 -0.263608 0)
(-0.048282 -0.22161 0)
(-0.000724333 0.0211704 0)
(-0.00417354 0.0395788 0)
(-0.00922584 0.0450361 0)
(-0.0136967 0.0456256 0)
(-0.0178512 0.0450403 0)
(-0.0216876 0.0445124 0)
(-0.025362 0.0444277 0)
(-0.0290876 0.0450098 0)
(-0.0331458 0.0464952 0)
(-0.0379608 0.049186 0)
(-0.0442039 0.0534932 0)
(-0.0529548 0.059979 0)
(-0.0658739 0.0692407 0)
(-0.0851255 0.0804092 0)
(-0.113251 0.0862443 0)
(-0.14563 0.0621906 0)
(-0.164034 -0.0256515 0)
(-0.147466 -0.186301 0)
(-0.132827 -0.324079 0)
(-0.0508765 -0.329001 0)
(-0.000973444 0.0238278 0)
(-0.00498165 0.0444665 0)
(-0.0104055 0.0501845 0)
(-0.014815 0.0504031 0)
(-0.0186872 0.0492957 0)
(-0.0220551 0.0483301 0)
(-0.0250555 0.0479893 0)
(-0.0278461 0.0485763 0)
(-0.0306238 0.050434 0)
(-0.0336699 0.0540471 0)
(-0.0374231 0.0601414 0)
(-0.0425472 0.0697152 0)
(-0.0500636 0.0837996 0)
(-0.0605304 0.100472 0)
(-0.0757091 0.109213 0)
(-0.0908502 0.0801777 0)
(-0.100128 -0.0179952 0)
(-0.0905606 -0.191934 0)
(-0.105049 -0.360496 0)
(-0.0361686 -0.420651 0)
(-0.00133706 0.0270779 0)
(-0.00592908 0.0487755 0)
(-0.0120088 0.0538645 0)
(-0.016545 0.0531166 0)
(-0.0202352 0.0514664 0)
(-0.0230244 0.0502494 0)
(-0.0251177 0.0498063 0)
(-0.0266498 0.0503618 0)
(-0.0276966 0.0522662 0)
(-0.0283013 0.0560802 0)
(-0.028532 0.0626748 0)
(-0.0283061 0.0731166 0)
(-0.0278606 0.0884547 0)
(-0.0259004 0.105698 0)
(-0.0245915 0.114559 0)
(-0.019151 0.0846267 0)
(-0.0228424 -0.0129101 0)
(-0.021298 -0.176904 0)
(-0.0645147 -0.365563 0)
(-0.0186171 -0.477183 0)
(-0.00341175 0.0299806 0)
(-0.0103336 0.0568983 0)
(-0.0158039 0.0619203 0)
(-0.019437 0.0606452 0)
(-0.0219858 0.0574955 0)
(-0.0238166 0.0547588 0)
(-0.0249696 0.0529156 0)
(-0.0253694 0.0522299 0)
(-0.0248424 0.0530028 0)
(-0.0231103 0.0556948 0)
(-0.0198502 0.0610882 0)
(-0.0141976 0.0699941 0)
(-0.00623469 0.0832251 0)
(0.00715497 0.0978705 0)
(0.0218075 0.105547 0)
(0.041703 0.0797055 0)
(0.0429045 -0.00658213 0)
(0.0403839 -0.145604 0)
(-0.0314147 -0.345797 0)
(-0.000677444 -0.506476 0)
(-0.0010883 0.0438029 0)
(-0.00837655 0.0590988 0)
(-0.0188459 0.060261 0)
(-0.0227601 0.055929 0)
(-0.0259414 0.0527547 0)
(-0.0272134 0.0505762 0)
(-0.0273015 0.0492149 0)
(-0.0261756 0.0485761 0)
(-0.0236962 0.0488412 0)
(-0.0194488 0.0502946 0)
(-0.0129515 0.0536175 0)
(-0.00285541 0.0591496 0)
(0.0109246 0.0675851 0)
(0.0319942 0.0768398 0)
(0.053792 0.0803145 0)
(0.0832028 0.060719 0)
(0.0851771 -0.00499735 0)
(0.0809769 -0.109121 0)
(-0.00114791 -0.315418 0)
(0.0233955 -0.513589 0)
(-0.0124989 0.0325352 0)
(-0.0239712 0.0799382 0)
(-0.0230787 0.0792167 0)
(-0.0288317 0.0741058 0)
(-0.0302676 0.0667813 0)
(-0.0299285 0.0606555 0)
(-0.0276298 0.0556518 0)
(-0.0236436 0.0517312 0)
(-0.0180386 0.0488895 0)
(-0.0104535 0.0469675 0)
(-0.000965344 0.0463621 0)
(0.0120067 0.0470919 0)
(0.0278064 0.0499858 0)
(0.0502148 0.0531627 0)
(0.0703388 0.0551891 0)
(0.102106 0.0438995 0)
(0.102729 0.00464822 0)
(0.117994 -0.0700213 0)
(0.0486645 -0.282128 0)
(0.059057 -0.497405 0)
(-0.0774556 0.0963737 0)
(-0.0631773 0.0590961 0)
(-0.0656057 0.0598863 0)
(-0.0438972 0.0532149 0)
(-0.026699 0.0462945 0)
(-0.00671291 0.0411461 0)
(0.0121465 0.0373884 0)
(0.0312527 0.0341973 0)
(0.0488895 0.0318578 0)
(0.0678606 0.0296417 0)
(0.0843397 0.0283825 0)
(0.105176 0.0274271 0)
(0.120359 0.0272086 0)
(0.149531 0.027434 0)
(0.160364 0.0235261 0)
(0.204301 0.0160417 0)
(0.196891 -0.0182667 0)
(0.231379 -0.0776719 0)
(0.159629 -0.256721 0)
(0.12609 -0.438104 0)
(0.119581 0.140814 0)
(0.152329 0.0861959 0)
(0.228965 0.063596 0)
(0.284418 0.0481174 0)
(0.325679 0.0374372 0)
(0.363978 0.0296517 0)
(0.392609 0.0241914 0)
(0.423755 0.0201531 0)
(0.443628 0.0172405 0)
(0.472225 0.0150099 0)
(0.484755 0.0132397 0)
(0.514549 0.0121583 0)
(0.51964 0.0109477 0)
(0.553272 0.0103149 0)
(0.548496 0.00860706 0)
(0.583336 0.004248 0)
(0.553708 -0.00495102 0)
(0.560648 -0.0276528 0)
(0.424889 -0.0730398 0)
(0.27613 -0.151979 0)
)
;

boundaryField
{
    movingWall
    {
        type            fixedValue;
        value           uniform (1 0 0);
    }
    fixedWalls
    {
        type            noSlip;
    }
    frontAndBack
    {
        type            empty;
    }
}


// ************************************************************************* //
