/*--------------------------------*- C++ -*----------------------------------*\
  =========                 |
  \\      /  F ield         | OpenFOAM: The Open Source CFD Toolbox
   \\    /   O peration     | Website:  https://openfoam.org
    \\  /    A nd           | Version:  10
     \\/     M anipulation  |
\*---------------------------------------------------------------------------*/
FoamFile
{
    format      ascii;
    class       volScalarField;
    location    "4";
    object      p;
}
// * * * * * * * * * * * * * * * * * * * * * * * * * * * * * * * * * * * * * //

dimensions      [0 2 -2 0 0 0 0];

internalField   nonuniform List<scalar> 
400
(
7.74361e-09
-3.0282e-05
-9.1948e-06
3.80217e-05
0.000117485
0.000229789
0.000375394
0.000554533
0.000766618
0.00100977
0.00128037
0.00157259
0.00187797
0.00218516
0.00248013
0.00274672
0.00296738
0.00312527
0.00321777
0.00319872
3.05727e-05
-7.81092e-07
2.16674e-05
6.68516e-05
0.000142323
0.000249286
0.000388617
0.000560922
0.000765981
0.00100231
0.00126671
0.00155345
0.00185496
0.00215999
0.00245449
0.00272216
0.00294493
0.00310581
0.00320325
0.0031829
5.84027e-06
-3.06128e-05
-9.82906e-06
3.25876e-05
0.000104964
0.000208741
0.000345197
0.00051548
0.000719996
0.000957914
0.00122666
0.00152178
0.00183539
0.00215621
0.00246955
0.00275767
0.00300007
0.00317658
0.00328462
0.00325967
-5.05904e-05
-9.13473e-05
-7.2888e-05
-3.41573e-05
3.41067e-05
0.000133746
0.000266687
0.000434912
0.0006398
0.000881609
0.00115887
0.00146786
0.00180221
0.00215042
0.00249665
0.00282058
0.00309773
0.00330248
0.00343002
0.00340315
-0.000144508
-0.000189954
-0.000174581
-0.000140471
-7.72697e-05
1.73968e-05
0.000146307
0.000312554
0.000518854
0.000766995
0.00105714
0.00138709
0.00175203
0.00214055
0.00253585
0.00291453
0.00324619
0.00349631
0.00365556
0.00362904
-0.000276029
-0.000327145
-0.000315783
-0.000287637
-0.0002311
-0.000143163
-2.00008e-05
0.000142889
0.000349954
0.000605026
0.000910483
0.00126634
0.00167151
0.00211446
0.00257786
0.00303489
0.00344737
0.00376715
0.0039763
0.00395417
-0.000445193
-0.000503242
-0.000497055
-0.000476783
-0.000429391
-0.000351175
-0.000237098
-8.09657e-05
0.000123869
0.000383931
0.000704434
0.00108658
0.0015419
0.00205315
0.00260611
0.00317111
0.00370048
0.00412632
0.00441385
0.00440602
-0.000652371
-0.000718843
-0.000719266
-0.000709377
-0.000674574
-0.000610474
-0.000510742
-0.00036727
-0.000170765
8.89764e-05
0.000422697
0.000841907
0.00133901
0.00192786
0.00259293
0.00330236
0.00399796
0.00458596
0.00499819
0.00502964
-0.000898018
-0.000974567
-0.000983204
-0.000986739
-0.000968919
-0.000924828
-0.000846875
-0.000725011
-0.00054717
-0.000299323
3.41422e-05
0.000468918
0.00101725
0.0016927
0.00249185
0.00338829
0.00431632
0.00515313
0.00576791
0.00590145
-0.00118266
-0.00127102
-0.00128939
-0.0013097
-0.00131403
-0.00129725
-0.00125073
-0.00116267
-0.00101836
-0.000799781
-0.000485388
-5.07668e-05
0.000528849
0.00128354
0.0022278
0.0033532
0.00459738
0.00581246
0.00676854
0.0071564
-0.00150713
-0.00160894
-0.001638
-0.00167825
-0.00171026
-0.00172913
-0.00172564
-0.00168677
-0.00159572
-0.00143102
-0.00116534
-0.000764316
-0.000185631
0.000608099
0.00168098
0.00305902
0.00471081
0.00649
0.00803707
0.00902766
-0.00187319
-0.00198963
-0.0020288
-0.00209119
-0.00215599
-0.00221919
-0.00227159
-0.00229974
-0.002286
-0.00220722
-0.00203257
-0.00172043
-0.00121597
-0.000452486
0.000677988
0.00226553
0.0043737
0.00694063
0.00948128
0.0119583
-0.00228504
-0.0024159
-0.00246145
-0.00254582
-0.00264686
-0.00276227
-0.0028834
-0.00299732
-0.00308738
-0.00313184
-0.00310109
-0.00295292
-0.00262559
-0.0020293
-0.00108309
0.000500556
0.00293275
0.00640844
0.0105606
0.0158071
-0.00275133
-0.00289032
-0.00293046
-0.00303249
-0.00317211
-0.00334745
-0.00354942
-0.00376628
-0.00398488
-0.00418899
-0.00435696
-0.00445796
-0.0044434
-0.00422946
-0.00367704
-0.00266755
-0.000684607
0.00307284
0.00866206
0.0181542
-0.00329841
-0.00345542
-0.00347914
-0.00359637
-0.00376162
-0.00398435
-0.00426202
-0.00458724
-0.00495113
-0.00534571
-0.00576603
-0.00621014
-0.00667956
-0.00718002
-0.00774954
-0.00844047
-0.00899668
-0.00721016
-0.00206198
0.0124986
-0.00400461
-0.00395757
-0.00390274
-0.00397241
-0.00417524
-0.00448954
-0.00489459
-0.0053715
-0.00591075
-0.00651259
-0.00719353
-0.00799399
-0.00900037
-0.0103644
-0.0124893
-0.0158724
-0.0213596
-0.0237813
-0.0205681
-2.40037e-05
-0.00447856
-0.0049377
-0.00477052
-0.00494322
-0.00512755
-0.00542651
-0.00583986
-0.00636289
-0.00699266
-0.00773547
-0.00862241
-0.00973109
-0.0112539
-0.0134638
-0.0173555
-0.0230972
-0.0344633
-0.0428043
-0.0396177
-0.00767934
-0.00769146
-0.0051794
-0.0047556
-0.00447145
-0.00470491
-0.00519586
-0.00586699
-0.00664529
-0.0075165
-0.00846897
-0.00955697
-0.0108315
-0.0126359
-0.0150687
-0.0200302
-0.0263286
-0.0390369
-0.047239
-0.0410218
0.0116672
-0.0045197
-0.00740421
-0.00662731
-0.00698107
-0.00697626
-0.00718833
-0.00759202
-0.00817202
-0.00889723
-0.00975653
-0.010738
-0.011877
-0.0136153
-0.0157829
-0.0207111
-0.0269055
-0.0368587
-0.0369539
-0.0133875
0.0723872
-0.0290436
-0.00417482
-0.00316164
-0.00280312
-0.00305456
-0.00378042
-0.00482887
-0.00592032
-0.00713818
-0.00830365
-0.00969979
-0.0110821
-0.0131011
-0.0154673
-0.0186312
-0.0205989
-0.0182171
0.00622925
0.0712985
0.210027
)
;

boundaryField
{
    movingWall
    {
        type            zeroGradient;
    }
    fixedWalls
    {
        type            zeroGradient;
    }
    frontAndBack
    {
        type            empty;
    }
}


// ************************************************************************* //
