/*--------------------------------*- C++ -*----------------------------------*\
  =========                 |
  \\      /  F ield         | OpenFOAM: The Open Source CFD Toolbox
   \\    /   O peration     | Website:  https://openfoam.org
    \\  /    A nd           | Version:  10
     \\/     M anipulation  |
\*---------------------------------------------------------------------------*/
FoamFile
{
    format      ascii;
    class       volScalarField;
    location    "6.25";
    object      p;
}
// * * * * * * * * * * * * * * * * * * * * * * * * * * * * * * * * * * * * * //

dimensions      [0 2 -2 0 0 0 0];

internalField   nonuniform List<scalar> 
400
(
-3.62586e-08
-2.01665e-05
2.55849e-05
0.000114023
0.000251542
0.000439709
0.000680639
0.000976637
0.00132922
0.00173831
0.00220115
0.00271102
0.00325585
0.00381698
0.00436816
0.00487629
0.00530327
0.00561092
0.00579013
0.00577272
2.20122e-05
1.0259e-06
5.11402e-05
0.000139715
0.000274684
0.000458375
0.000693407
0.000982456
0.0013274
0.00172861
0.00218391
0.00268724
0.00322696
0.00378599
0.00433827
0.00485054
0.00528349
0.00559781
0.00578622
0.00576428
-2.95123e-05
-5.74237e-05
-9.04091e-06
7.60099e-05
0.000206478
0.000384976
0.000614692
0.000899157
0.00124138
0.00164308
0.00210365
0.0026188
0.00317949
0.00376826
0.00435833
0.00491325
0.00538768
0.00573343
0.00594064
0.00590282
-0.000135508
-0.000168416
-0.000122938
-4.31241e-05
8.07006e-05
0.00025161
0.000473672
0.000751711
0.00109048
0.00149392
0.00196407
0.00249944
0.00309313
0.00373078
0.00438463
0.00501364
0.00556186
0.00596478
0.00620727
0.00615059
-0.00030185
-0.000339407
-0.000298361
-0.000225799
-0.000111068
4.94958e-05
0.000261076
0.000530146
0.000863749
0.00126892
0.00175152
0.00231445
0.0029549
0.00366231
0.00440922
0.00514922
0.00581261
0.00630882
0.00661016
0.00652428
-0.000527755
-0.000570406
-0.000535434
-0.000472575
-0.000370237
-0.00022414
-2.78824e-05
0.000226882
0.00054991
0.000952063
0.00144444
0.00203612
0.00273038
0.00352662
0.00439843
0.00529593
0.00613151
0.00677613
0.00717495
0.0070396
-0.000811179
-0.000859839
-0.00083278
-0.000782695
-0.000697164
-0.000571425
-0.000397965
-0.000166581
0.000135373
0.000523145
0.00101431
0.00162742
0.00237876
0.00326878
0.00429365
0.00540288
0.00648976
0.00737128
0.00793799
0.00772039
-0.00114964
-0.00120551
-0.00118839
-0.0011547
-0.00109143
-0.000993694
-0.000853299
-0.000658615
-0.000394446
-4.12753e-05
0.000425301
0.00103453
0.00181741
0.00279783
0.00399192
0.00536631
0.00680919
0.0080739
0.00894583
0.00860733
-0.00153995
-0.00160436
-0.00159915
-0.00158566
-0.00155067
-0.00148987
-0.00139523
-0.00125473
-0.00105183
-0.000763994
-0.000360951
0.000197335
0.000961529
0.00198825
0.00331623
0.00497007
0.00688467
0.0087784
0.0102094
0.00978923
-0.00197816
-0.00205242
-0.00206046
-0.00207045
-0.00206958
-0.00205496
-0.00202002
-0.00195411
-0.0018418
-0.00166076
-0.00137886
-0.000950314
-0.000310665
0.000624686
0.00195356
0.003769
0.00617704
0.00905315
0.0114971
0.0112892
-0.00245984
-0.00254506
-0.0025662
-0.00260136
-0.00263887
-0.00267846
-0.00271661
-0.0027463
-0.00275663
-0.00273099
-0.00264447
-0.00245924
-0.00211654
-0.00152942
-0.00058179
0.000909765
0.00336217
0.00733293
0.0114277
0.0126561
-0.00298107
-0.00307765
-0.00310872
-0.00316751
-0.00324432
-0.00334266
-0.00346377
-0.00360677
-0.00376938
-0.00394758
-0.00413552
-0.00432622
-0.00451461
-0.00471492
-0.00499919
-0.00531424
-0.00470416
-0.000649783
0.00565437
0.0106182
-0.00354055
-0.00364827
-0.00368224
-0.00375852
-0.00386938
-0.00402406
-0.00423034
-0.00449542
-0.00482966
-0.00524919
-0.00578144
-0.00647756
-0.00744137
-0.00890647
-0.0114364
-0.0153896
-0.0192872
-0.0165663
-0.00869993
0.00158124
-0.00413682
-0.00424671
-0.0042635
-0.00434194
-0.00447641
-0.00468022
-0.00496507
-0.00534711
-0.00585047
-0.00651437
-0.00740787
-0.00866033
-0.0105337
-0.0135136
-0.0187623
-0.0268259
-0.0367786
-0.0369195
-0.0286812
-0.0131125
-0.00480236
-0.00492554
-0.00490919
-0.00497727
-0.00510778
-0.00532808
-0.00565807
-0.0061225
-0.00675703
-0.00761893
-0.00880848
-0.0105011
-0.0130932
-0.017175
-0.0243274
-0.0347771
-0.0483184
-0.0505926
-0.0432802
-0.0248862
-0.00561742
-0.00554573
-0.00541746
-0.0053926
-0.00549829
-0.00574077
-0.0061255
-0.00666744
-0.00740015
-0.00838294
-0.00972571
-0.0115967
-0.0144678
-0.0187721
-0.0262888
-0.0365502
-0.0492821
-0.0514098
-0.0452653
-0.0236093
-0.00611
-0.00654369
-0.00626503
-0.00628929
-0.00629904
-0.00644123
-0.00673262
-0.00720533
-0.00789572
-0.00885183
-0.0101771
-0.011968
-0.0147015
-0.0186318
-0.0251168
-0.0331283
-0.0421316
-0.0424326
-0.0352583
-0.00545548
-0.0094815
-0.00697242
-0.00636553
-0.00581701
-0.00577639
-0.0059926
-0.00640944
-0.00699274
-0.00775895
-0.00872865
-0.0100257
-0.0116359
-0.0140555
-0.0173068
-0.0221571
-0.0272047
-0.0322152
-0.0287309
-0.0158488
0.0303821
-0.00621222
-0.00921474
-0.00818733
-0.00823888
-0.00782957
-0.00763379
-0.00762406
-0.00784245
-0.00831984
-0.00904251
-0.0101158
-0.0115388
-0.0137581
-0.0166124
-0.0212719
-0.0252885
-0.0281741
-0.0159496
0.0119464
0.0908473
-0.031374
-0.00636588
-0.00491417
-0.00420156
-0.004039
-0.00429959
-0.00486514
-0.00555783
-0.00644568
-0.00744798
-0.00884521
-0.0104606
-0.0127709
-0.0152666
-0.0178674
-0.0171441
-0.00964351
0.0228718
0.0923952
0.226425
)
;

boundaryField
{
    movingWall
    {
        type            zeroGradient;
    }
    fixedWalls
    {
        type            zeroGradient;
    }
    frontAndBack
    {
        type            empty;
    }
}


// ************************************************************************* //
