/*--------------------------------*- C++ -*----------------------------------*\
  =========                 |
  \\      /  F ield         | OpenFOAM: The Open Source CFD Toolbox
   \\    /   O peration     | Website:  https://openfoam.org
    \\  /    A nd           | Version:  10
     \\/     M anipulation  |
\*---------------------------------------------------------------------------*/
FoamFile
{
    format      ascii;
    class       volVectorField;
    location    "4.65";
    object      U;
}
// * * * * * * * * * * * * * * * * * * * * * * * * * * * * * * * * * * * * * //

dimensions      [0 1 -1 0 0 0 0];

internalField   nonuniform List<vector> 
8000
(
(-4.75654e-05 6.10994e-05 -1.84663e-05)
(-0.000415265 0.000159425 1.7114e-05)
(-0.00102729 0.000185322 2.90473e-05)
(-0.00162136 0.000190023 3.42958e-05)
(-0.00221935 0.000189665 3.3855e-05)
(-0.00279708 0.000187412 2.98994e-05)
(-0.00334137 0.000182552 2.3585e-05)
(-0.00383833 0.000173552 1.51138e-05)
(-0.00427124 0.000158683 4.16431e-06)
(-0.00462065 0.000136434 -9.26424e-06)
(-0.00486407 0.000105755 -2.47185e-05)
(-0.00497684 6.63528e-05 -4.18241e-05)
(-0.00493361 1.72891e-05 -6.07839e-05)
(-0.00471201 -4.12378e-05 -8.09538e-05)
(-0.00429645 -0.000105871 -0.000100932)
(-0.00368175 -0.00017203 -0.000118523)
(-0.00288164 -0.000232371 -0.000129755)
(-0.00195357 -0.000274121 -0.000128615)
(-0.000897393 -0.000268848 -0.000110826)
(-0.000162937 -0.000133618 -4.21325e-05)
(-0.000142587 0.000474334 -7.27045e-05)
(-0.000813496 0.000880636 -4.24663e-05)
(-0.00182845 0.000980536 -2.94791e-05)
(-0.00281083 0.000984596 -2.02205e-05)
(-0.00378636 0.000958171 -1.57863e-05)
(-0.00471644 0.0009152 -1.42257e-05)
(-0.00557805 0.000855175 -1.4525e-05)
(-0.00634881 0.000774438 -1.66473e-05)
(-0.00700332 0.000668642 -2.08567e-05)
(-0.00751304 0.000533781 -2.74349e-05)
(-0.00784608 0.000366724 -3.64962e-05)
(-0.00797007 0.000165075 -4.79236e-05)
(-0.00785292 -7.01763e-05 -6.26325e-05)
(-0.00746396 -0.000333222 -7.85636e-05)
(-0.00678295 -0.000612709 -9.49655e-05)
(-0.00580602 -0.000890483 -0.000109391)
(-0.00455618 -0.00113812 -0.000116976)
(-0.00311531 -0.00130551 -0.000110957)
(-0.00148886 -0.0012833 -8.74073e-05)
(-0.000307388 -0.000752243 -5.50555e-06)
(-0.000170249 0.00116823 -9.79128e-05)
(-0.000941771 0.00199601 -7.01051e-05)
(-0.00209344 0.0021897 -5.66116e-05)
(-0.00320282 0.00218178 -4.52927e-05)
(-0.00430144 0.00210489 -3.84716e-05)
(-0.0053472 0.00198785 -3.42668e-05)
(-0.00631552 0.00183161 -3.17388e-05)
(-0.00718262 0.001631 -3.0989e-05)
(-0.00792136 0.00137952 -3.23779e-05)
(-0.00850121 0.00107068 -3.63346e-05)
(-0.00888886 0.000699139 -4.32056e-05)
(-0.0090473 0.000261672 -5.34438e-05)
(-0.00893668 -0.00023916 -6.65634e-05)
(-0.00852101 -0.000792449 -8.22952e-05)
(-0.00777397 -0.00137588 -9.93231e-05)
(-0.00668422 -0.00195295 -0.000114822)
(-0.00527073 -0.00246663 -0.000123006)
(-0.00362303 -0.00281572 -0.000115903)
(-0.00174351 -0.00278047 -8.92549e-05)
(-0.000364147 -0.00172025 3.21494e-06)
(-0.000176143 0.00188234 -0.000117124)
(-0.000989059 0.00315091 -9.17587e-05)
(-0.00220544 0.0034387 -7.81916e-05)
(-0.00337527 0.00341728 -6.56613e-05)
(-0.00453685 0.00329025 -5.73845e-05)
(-0.00564727 0.00310146 -5.15388e-05)
(-0.00668299 0.00285297 -4.72543e-05)
(-0.00762096 0.00253771 -4.47551e-05)
(-0.00843424 0.00214635 -4.45714e-05)
(-0.00909144 0.00166898 -4.72907e-05)
(-0.00955638 0.00109692 -5.3387e-05)
(-0.00978833 0.000425746 -6.32424e-05)
(-0.0097413 -0.000342805 -7.82075e-05)
(-0.00936615 -0.00119753 -9.59485e-05)
(-0.00862063 -0.00210658 -0.000115721)
(-0.00747842 -0.00301579 -0.000134315)
(-0.0059461 -0.00383679 -0.000144956)
(-0.00411842 -0.00440818 -0.000137895)
(-0.00199388 -0.00438189 -0.000107865)
(-0.000417913 -0.00275306 -9.54511e-07)
(-0.000178018 0.00264881 -0.000133632)
(-0.00102502 0.00439241 -0.000110072)
(-0.00230089 0.0047814 -9.65129e-05)
(-0.00352848 0.00474787 -8.32674e-05)
(-0.00475312 0.00457186 -7.42715e-05)
(-0.00593181 0.00431349 -6.77354e-05)
(-0.00704324 0.00397621 -6.28483e-05)
(-0.00806627 0.00355093 -5.99363e-05)
(-0.00897517 0.00302483 -5.96682e-05)
(-0.00973846 0.00238344 -6.283e-05)
(-0.0103174 0.00161266 -7.01848e-05)
(-0.0106648 0.000702198 -8.26042e-05)
(-0.0107256 -0.000349116 -0.000100868)
(-0.0104348 -0.00153335 -0.000123413)
(-0.00972637 -0.00281206 -0.000149408)
(-0.0085481 -0.00411497 -0.000174898)
(-0.00688088 -0.00531764 -0.000191191)
(-0.00481934 -0.00618241 -0.000185596)
(-0.00235755 -0.00620041 -0.000150769)
(-0.000499769 -0.00393548 -2.09662e-05)
(-0.000180275 0.00346191 -0.000151056)
(-0.0010677 0.00571758 -0.000129009)
(-0.00241465 0.00621718 -0.000115522)
(-0.00371171 0.00617507 -0.000101784)
(-0.00501219 0.00595432 -9.24219e-05)
(-0.00627338 0.00563305 -8.56834e-05)
(-0.00747729 0.00521657 -8.08352e-05)
(-0.00860602 0.00469367 -7.83248e-05)
(-0.00963648 0.0040474 -7.898e-05)
(-0.0105384 0.00325709 -8.38295e-05)
(-0.0112714 0.00230046 -9.39865e-05)
(-0.0117821 0.00115707 -0.000110806)
(-0.0120063 -0.00018618 -0.000136167)
(-0.0118562 -0.0017235 -0.00016682)
(-0.0112313 -0.00342509 -0.000203781)
(-0.0100404 -0.0052056 -0.00024184)
(-0.0082191 -0.00689899 -0.000269393)
(-0.00584752 -0.00817027 -0.000268579)
(-0.00290958 -0.00829717 -0.0002277)
(-0.00063206 -0.00531999 -6.26519e-05)
(-0.000183404 0.00433025 -0.00017194)
(-0.00112021 0.00714152 -0.000151683)
(-0.00255274 0.00776277 -0.000138334)
(-0.00393211 0.00771597 -0.000124053)
(-0.00532127 0.00745553 -0.000114289)
(-0.00667824 0.00707998 -0.00010738)
(-0.00798971 0.00659734 -0.000102731)
(-0.00924287 0.00599461 -0.00010097)
(-0.0104195 0.0052503 -0.00010316)
(-0.0114934 0.00433614 -0.000110667)
(-0.0124254 0.00321843 -0.000125102)
(-0.0131592 0.0018613 -0.000148319)
(-0.0136138 0.00023307 -0.000181508)
(-0.0136821 -0.00167669 -0.000228562)
(-0.0132242 -0.00385728 -0.00028462)
(-0.0120804 -0.00622038 -0.00034526)
(-0.0101122 -0.00855823 -0.000394959)
(-0.00735152 -0.0104132 -0.000407139)
(-0.00375712 -0.0107658 -0.000360313)
(-0.000852338 -0.007001 -0.000142876)
(-0.000187267 0.00526666 -0.000198023)
(-0.00118297 0.00868556 -0.00018029)
(-0.00271569 0.00944003 -0.000167085)
(-0.00418838 0.009391 -0.000151932)
(-0.00567591 0.00909484 -0.000141369)
(-0.00713752 0.0086738 -0.000133926)
(-0.00856636 0.00814017 -0.00012924)
(-0.00995701 0.00748018 -0.000128215)
(-0.0112994 0.00666829 -0.000132254)
(-0.0125752 0.00566806 -0.000143226)
(-0.0137516 0.00443201 -0.000163501)
(-0.0147732 0.00290351 -0.000195871)
(-0.0155505 0.0010237 -0.000243046)
(-0.0159548 -0.00125795 -0.000313621)
(-0.0157943 -0.00396404 -0.000401392)
(-0.0148204 -0.0070289 -0.000502218)
(-0.0127728 -0.0102166 -0.000595334)
(-0.00956534 -0.0129257 -0.000640274)
(-0.0050975 -0.0137135 -0.000592455)
(-0.00124009 -0.00912649 -0.000301557)
(-0.000192268 0.00628693 -0.000231147)
(-0.00125773 0.0103746 -0.000217143)
(-0.0029055 0.0112725 -0.000203959)
(-0.00447994 0.0112199 -0.000187218)
(-0.00607091 0.0108886 -0.000174973)
(-0.00763952 0.0104289 -0.000166116)
(-0.00918735 0.00985994 -0.000160658)
(-0.0107191 0.00916909 -0.000159893)
(-0.0122367 0.00832859 -0.00016571)
(-0.0137355 0.007295 -0.000180721)
(-0.0151966 0.00600647 -0.000208502)
(-0.016575 0.00438094 -0.000253523)
(-0.0177838 0.00231821 -0.000321568)
(-0.0186817 -0.000289631 -0.000427756)
(-0.0190232 -0.00351831 -0.000566866)
(-0.0184448 -0.0073885 -0.000738023)
(-0.0165051 -0.0116762 -0.000915339)
(-0.0128723 -0.015636 -0.00103793)
(-0.00731845 -0.0172322 -0.00101266)
(-0.00197298 -0.0119309 -0.000634045)
(-0.000200149 0.00741251 -0.000273875)
(-0.00134997 0.0122396 -0.000265356)
(-0.00312924 0.0132868 -0.000251791)
(-0.00481109 0.0132218 -0.000232103)
(-0.00650472 0.0128489 -0.000216532)
(-0.00817401 0.0123523 -0.000204592)
(-0.00983116 0.0117609 -0.000196867)
(-0.0114938 0.0110668 -0.000195181)
(-0.0131798 0.0102435 -0.000202067)
(-0.0149047 0.0092447 -0.000221168)
(-0.0166743 0.007998 -0.000257885)
(-0.0184716 0.00639689 -0.00032002)
(-0.0202334 0.0042941 -0.00041866)
(-0.0218091 0.00150436 -0.00056554)
(-0.0229362 -0.00216513 -0.000790988)
(-0.0231434 -0.00686563 -0.0010838)
(-0.0217247 -0.0125064 -0.00142174)
(-0.0179034 -0.0182557 -0.00172)
(-0.0111947 -0.0213182 -0.00180502)
(-0.00344622 -0.0158094 -0.00139489)
(-0.000215364 0.00867564 -0.000330286)
(-0.00147235 0.0143225 -0.000329624)
(-0.00340349 0.0155149 -0.000314711)
(-0.00519547 0.0154154 -0.000289591)
(-0.00698379 0.0149824 -0.000267781)
(-0.00873654 0.0144405 -0.00024983)
(-0.0104787 0.0138321 -0.000237162)
(-0.012243 0.0131579 -0.00023226)
(-0.0140661 0.012399 -0.000238425)
(-0.0159896 0.0115142 -0.000260549)
(-0.0180548 0.0104308 -0.000306346)
(-0.0202917 0.0090282 -0.000387945)
(-0.0226932 0.00711822 -0.000522995)
(-0.0251679 0.00442528 -0.000734829)
(-0.0274627 0.000581211 -0.00107596)
(-0.0290466 -0.00478303 -0.0015681)
(-0.0289526 -0.0118735 -0.00219338)
(-0.0256832 -0.0199955 -0.00285827)
(-0.0182638 -0.02558 -0.00330714)
(-0.00654894 -0.0214602 -0.00319591)
(-0.00024797 0.0101293 -0.000407412)
(-0.00165084 0.0166833 -0.000417492)
(-0.00376117 0.0179977 -0.000399129)
(-0.00566247 0.0178197 -0.000364037)
(-0.00752839 0.0172886 -0.000330898)
(-0.00933413 0.0166763 -0.000301962)
(-0.0111197 0.0160421 -0.000279851)
(-0.0129333 0.015399 -0.000267759)
(-0.0148308 0.0147426 -0.00026977)
(-0.0168814 0.0140497 -0.000292104)
(-0.0191709 0.0132669 -0.000345151)
(-0.0217983 0.0122877 -0.000446586)
(-0.0248576 0.0109162 -0.00062532)
(-0.028387 0.00881009 -0.000924027)
(-0.0322626 0.00542734 -0.00139167)
(-0.0360418 6.82379e-06 -0.00214189)
(-0.0386319 -0.00822085 -0.0032127)
(-0.03762 -0.0190903 -0.00452266)
(-0.0312351 -0.0288936 -0.00588156)
(-0.0131584 -0.0299522 -0.00707319)
(-0.000320478 0.0118656 -0.000518183)
(-0.00193704 0.0194104 -0.000541247)
(-0.00426275 0.0207841 -0.000514475)
(-0.00626655 0.0204488 -0.000461035)
(-0.00818015 0.0197561 -0.000408033)
(-0.00999216 0.0190273 -0.000360137)
(-0.0117605 0.0183365 -0.000321424)
(-0.0135466 0.0177118 -0.00029568)
(-0.0154196 0.0171707 -0.000287588)
(-0.0174699 0.0167219 -0.000304159)
(-0.0198223 0.0163563 -0.000357622)
(-0.0226503 0.0160247 -0.000469739)
(-0.0261867 0.0155906 -0.000677785)
(-0.0307056 0.0147328 -0.00103935)
(-0.0364549 0.0128118 -0.00163227)
(-0.0434418 0.00865886 -0.0025437)
(-0.0507352 0.000567104 -0.00400982)
(-0.0550215 -0.0129496 -0.0059454)
(-0.0529421 -0.0297073 -0.00820232)
(-0.0253032 -0.0445158 -0.0120869)
(-0.000484947 0.0140515 -0.000691007)
(-0.00244003 0.0226918 -0.000734208)
(-0.00501833 0.0240356 -0.000693669)
(-0.00709569 0.0234308 -0.000605973)
(-0.00900443 0.0224536 -0.000512961)
(-0.010759 0.0214951 -0.000426924)
(-0.0124339 0.0206582 -0.000356095)
(-0.0140957 0.0199893 -0.000305419)
(-0.0158154 0.0195296 -0.000278557)
(-0.0176885 0.0193298 -0.000281591)
(-0.0198583 0.0194552 -0.000326405)
(-0.0225516 0.0199721 -0.000434771)
(-0.0261381 0.0209109 -0.000642115)
(-0.0311862 0.022128 -0.000992863)
(-0.0385388 0.0230878 -0.00150408)
(-0.0491895 0.0222138 -0.00210404)
(-0.0632167 0.0162872 -0.00268277)
(-0.076298 -0.00131879 -0.00268238)
(-0.0827093 -0.0330846 -0.00232626)
(-0.0416892 -0.0776187 -0.0102894)
(-0.00080001 0.0171195 -0.000962092)
(-0.00324141 0.0263707 -0.000976456)
(-0.0061333 0.0272763 -0.000889251)
(-0.00828422 0.0260838 -0.000731997)
(-0.0101603 0.0247322 -0.000583841)
(-0.0117775 0.0235694 -0.000452369)
(-0.0132461 0.0226331 -0.000343835)
(-0.0146473 0.0219333 -0.000261446)
(-0.0160415 0.0215168 -0.000207526)
(-0.0174939 0.0214763 -0.000185914)
(-0.0191116 0.0219762 -0.000201301)
(-0.0210959 0.0232422 -0.000259509)
(-0.0238747 0.0255747 -0.000356055)
(-0.0282624 0.0291383 -0.000411396)
(-0.0359162 0.033727 -0.000107135)
(-0.0493799 0.0369279 0.00137837)
(-0.0720378 0.0331581 0.00506392)
(-0.0981542 0.00500533 0.0117647)
(-0.115945 -0.0586201 0.0183098)
(-0.054025 -0.150588 -0.000301927)
(-0.00209122 0.0204282 -0.00150201)
(-0.00570482 0.0322229 -0.0016244)
(-0.00832337 0.0327523 -0.00143539)
(-0.0101348 0.0310789 -0.0011485)
(-0.0115613 0.0289281 -0.000841054)
(-0.0128184 0.0269753 -0.000567234)
(-0.0139864 0.0253584 -0.000342991)
(-0.0150801 0.0241316 -0.000173262)
(-0.0160854 0.0233548 -5.57347e-05)
(-0.0169811 0.0231303 1.22694e-05)
(-0.0177746 0.0236864 3.4646e-05)
(-0.0185369 0.0253674 3.56024e-05)
(-0.0196266 0.0288229 0.00011488)
(-0.0218374 0.0344976 0.000610481)
(-0.0278301 0.0428202 0.0024851)
(-0.0415166 0.0495426 0.00796818)
(-0.0728518 0.0453712 0.0191189)
(-0.11198 -0.00857142 0.0334091)
(-0.140322 -0.12911 0.0353254)
(-0.053669 -0.258496 -0.00563775)
(-0.00139033 0.0319647 -0.00253738)
(-0.00562653 0.0361102 -0.00217319)
(-0.0103418 0.0345519 -0.00179105)
(-0.0124066 0.0308567 -0.00116549)
(-0.0140542 0.028185 -0.00066785)
(-0.0149184 0.0261727 -0.00024879)
(-0.0154088 0.0246703 7.58487e-05)
(-0.0156662 0.023533 0.00030434)
(-0.0157277 0.0227776 0.000452246)
(-0.0155115 0.0224553 0.000531949)
(-0.0149108 0.0228556 0.000561807)
(-0.0136793 0.024222 0.000605955)
(-0.0119928 0.0276025 0.000863113)
(-0.00992019 0.03308 0.00195512)
(-0.01115 0.0427279 0.00550948)
(-0.0181323 0.0488806 0.0146047)
(-0.0522622 0.0388911 0.0313361)
(-0.0952013 -0.0497508 0.0440735)
(-0.135894 -0.214774 0.0279448)
(-0.0449015 -0.348246 -0.0331988)
(-0.0121406 0.0300536 -0.00348875)
(-0.0213959 0.0520347 -0.00396231)
(-0.0166777 0.0477827 -0.00335219)
(-0.0168136 0.0429082 -0.0023272)
(-0.0148373 0.0372282 -0.00120311)
(-0.0128435 0.0325258 -0.000286962)
(-0.0108728 0.0287888 0.000397827)
(-0.0089821 0.0258664 0.000853902)
(-0.00712818 0.023683 0.00113366)
(-0.00502956 0.0220902 0.00124607)
(-0.00269585 0.0212491 0.00123138)
(0.000713531 0.0212433 0.00116169)
(0.00459201 0.0229708 0.00124305)
(0.0112963 0.0264791 0.00210415)
(0.0151613 0.034389 0.0055222)
(0.023402 0.0399682 0.0141017)
(0.00478281 0.0288092 0.0288206)
(-0.0116625 -0.0724125 0.0373472)
(-0.0848344 -0.248723 0.01165)
(-0.025194 -0.39204 -0.0559403)
(-0.0463161 0.0892223 -0.0117963)
(-0.0301064 0.0426526 -0.00752727)
(-0.0212179 0.0363933 -0.00492665)
(-0.00372933 0.0293888 -0.0024317)
(0.0106485 0.0231898 -0.000662819)
(0.0243443 0.0191463 0.000629777)
(0.035793 0.0165836 0.00155118)
(0.0456954 0.0146707 0.00215008)
(0.0537747 0.0133825 0.00253553)
(0.06126 0.0122685 0.00266684)
(0.0672724 0.0118111 0.0026081)
(0.0745212 0.0113805 0.00224668)
(0.0800192 0.011912 0.00187884)
(0.0919383 0.0121812 0.00133158)
(0.0970097 0.0124607 0.00232566)
(0.123797 0.00832808 0.00585785)
(0.111505 -0.00813531 0.0116544)
(0.144914 -0.0835303 0.0220113)
(0.0238953 -0.235324 0.000916548)
(0.0276992 -0.370902 -0.0663926)
(0.117637 0.111724 -0.0112213)
(0.144254 0.0595342 -0.0116297)
(0.216645 0.0394221 -0.0110976)
(0.260996 0.0263817 -0.00961946)
(0.293561 0.0176825 -0.00787525)
(0.320207 0.0118973 -0.0063816)
(0.340597 0.00829694 -0.00491039)
(0.358461 0.00598531 -0.00372813)
(0.370829 0.00455854 -0.00257711)
(0.384373 0.00366281 -0.00164458)
(0.390608 0.00310812 -0.000961211)
(0.404024 0.00293752 -0.000135383)
(0.403359 0.00274314 -0.000256661)
(0.422437 0.00282939 0.000627889)
(0.410149 0.00224948 0.000160154)
(0.440225 -0.000529787 0.00114087)
(0.398723 -0.00834514 0.0018099)
(0.421501 -0.0309001 0.000610949)
(0.25651 -0.0739544 -0.00790821)
(0.166038 -0.139921 -0.0757408)
(-0.000101759 0.000110426 -5.12728e-05)
(-0.000752477 0.000307262 -3.71187e-06)
(-0.00179985 0.000358826 1.61203e-05)
(-0.0028008 0.000361782 2.65419e-05)
(-0.00378634 0.000351576 2.74163e-05)
(-0.0047201 0.00033586 2.19503e-05)
(-0.00558154 0.000314112 1.17551e-05)
(-0.00634969 0.000284376 -2.91812e-06)
(-0.00699941 0.000244776 -2.23639e-05)
(-0.0075019 0.000193415 -4.67499e-05)
(-0.00782589 0.00012868 -7.58637e-05)
(-0.00793941 5.03921e-05 -0.000109337)
(-0.00781006 -4.25273e-05 -0.000146437)
(-0.0074093 -0.000147237 -0.000185822)
(-0.00671888 -0.000259157 -0.000224586)
(-0.00573441 -0.000370926 -0.000258312)
(-0.00447635 -0.000470121 -0.00027971)
(-0.0030241 -0.000532859 -0.000278638)
(-0.00137953 -0.000500844 -0.000247888)
(-0.000246859 -0.000224047 -0.000125397)
(-0.000309932 0.000800325 -0.000146087)
(-0.00158461 0.00159226 -0.000109576)
(-0.00343888 0.00178645 -8.68154e-05)
(-0.00521243 0.00177581 -6.81145e-05)
(-0.00693653 0.00169795 -5.82438e-05)
(-0.00854805 0.00158439 -5.4392e-05)
(-0.0100076 0.00143691 -5.50134e-05)
(-0.0112779 0.00125151 -6.01132e-05)
(-0.0123187 0.00102363 -7.01784e-05)
(-0.0130868 0.00074898 -8.57739e-05)
(-0.0135368 0.00042421 -0.00010727)
(-0.0136258 4.76923e-05 -0.000134621)
(-0.013311 -0.000375434 -0.00016781)
(-0.0125549 -0.000834372 -0.000203901)
(-0.0113379 -0.00131024 -0.000240332)
(-0.00966073 -0.00177344 -0.000271826)
(-0.00756222 -0.00217591 -0.000289244)
(-0.00516165 -0.00242514 -0.000280864)
(-0.00247388 -0.00230239 -0.000239414)
(-0.000519395 -0.00123765 -9.03541e-05)
(-0.000380133 0.00194374 -0.000193425)
(-0.00188154 0.00353743 -0.000163978)
(-0.00403121 0.00391023 -0.00014027)
(-0.00607824 0.00386349 -0.00011749)
(-0.00806133 0.00367118 -0.00010298)
(-0.00990984 0.00339676 -9.41283e-05)
(-0.0115803 0.00304706 -8.95557e-05)
(-0.0130321 0.00261744 -8.95511e-05)
(-0.0142214 0.0021014 -9.48849e-05)
(-0.0151019 0.0014928 -0.000106428)
(-0.0156259 0.000787616 -0.000124879)
(-0.0157426 -1.4484e-05 -0.000150874)
(-0.0154007 -0.000904903 -0.00018332)
(-0.0145575 -0.00186202 -0.000220961)
(-0.0131841 -0.0028482 -0.000260504)
(-0.0112731 -0.00380389 -0.000295847)
(-0.00885991 -0.00463333 -0.000316059)
(-0.00607607 -0.00515117 -0.000307131)
(-0.00293367 -0.00492373 -0.000260804)
(-0.000624709 -0.00281508 -9.21716e-05)
(-0.000403943 0.00311544 -0.00023251)
(-0.00200832 0.00554546 -0.000210351)
(-0.00430436 0.00609733 -0.00018655)
(-0.00648664 0.0060101 -0.000161145)
(-0.00860382 0.00570161 -0.000143539)
(-0.0105832 0.00526751 -0.000131317)
(-0.0123821 0.00471895 -0.000123301)
(-0.0139602 0.00405007 -0.000120068)
(-0.0152736 0.00325164 -0.000122733)
(-0.0162742 0.00231419 -0.000132532)
(-0.0169098 0.00123079 -0.000150567)
(-0.0171254 1.18861e-06 -0.000177798)
(-0.0168583 -0.0013658 -0.000214952)
(-0.0160465 -0.00284342 -0.0002588)
(-0.0146416 -0.00437782 -0.00030643)
(-0.012615 -0.00587979 -0.000350748)
(-0.00998538 -0.00720028 -0.000378642)
(-0.00689147 -0.0080455 -0.000372523)
(-0.00334182 -0.00773473 -0.00032147)
(-0.000712026 -0.00449492 -0.000124034)
(-0.00042086 0.00436507 -0.000268587)
(-0.00211448 0.00769132 -0.00025316)
(-0.00454597 0.00843354 -0.000229457)
(-0.006857 0.00830587 -0.000202211)
(-0.00910667 0.00788014 -0.00018269)
(-0.0112216 0.00728626 -0.000168654)
(-0.0131617 0.00654003 -0.000159128)
(-0.014889 0.005634 -0.000154989)
(-0.0163607 0.00455519 -0.000157721)
(-0.0175279 0.00328888 -0.000169031)
(-0.0183343 0.00182172 -0.000190558)
(-0.0187141 0.000146695 -0.000223706)
(-0.0185908 -0.00172876 -0.000270728)
(-0.0178791 -0.00377927 -0.000327605)
(-0.0164965 -0.00593949 -0.000391656)
(-0.0143767 -0.00809084 -0.000454202)
(-0.0115029 -0.0100209 -0.000498176)
(-0.00801385 -0.0112981 -0.000499843)
(-0.0039164 -0.0109373 -0.000442706)
(-0.000839321 -0.00641711 -0.00019754)
(-0.000441706 0.00569109 -0.000307855)
(-0.00224228 0.00998071 -0.000299382)
(-0.00483628 0.0109281 -0.000275876)
(-0.00730275 0.0107622 -0.000247028)
(-0.00971262 0.0102214 -0.000226047)
(-0.0119924 0.00947273 -0.000210903)
(-0.0141063 0.00853714 -0.00020089)
(-0.0160205 0.0074053 -0.000197248)
(-0.0176954 0.00605921 -0.000201926)
(-0.0190831 0.00447616 -0.000217263)
(-0.020124 0.00263213 -0.000245663)
(-0.0207426 0.000507386 -0.000289592)
(-0.0208449 -0.00190451 -0.000353885)
(-0.0203126 -0.00458705 -0.000432262)
(-0.019015 -0.00747366 -0.000524345)
(-0.0168261 -0.0104195 -0.000619139)
(-0.0136652 -0.0131371 -0.000693618)
(-0.00964994 -0.0150166 -0.000713294)
(-0.00478103 -0.0146733 -0.00065015)
(-0.0010419 -0.0086837 -0.000330173)
(-0.000468579 0.00711168 -0.000355178)
(-0.00240138 0.0124444 -0.000355045)
(-0.00519355 0.0136141 -0.000331752)
(-0.00784749 0.0134118 -0.000300935)
(-0.0104486 0.012758 -0.000278125)
(-0.012924 0.0118609 -0.000261629)
(-0.0152442 0.0107478 -0.000251146)
(-0.0173824 0.00940749 -0.000248436)
(-0.0193056 0.00781599 -0.000256107)
(-0.0209706 0.00593979 -0.000277431)
(-0.0223181 0.00373869 -0.000316182)
(-0.023265 0.00117149 -0.000376775)
(-0.023699 -0.00179335 -0.000462404)
(-0.0234645 -0.00516667 -0.000577877)
(-0.022365 -0.00889914 -0.000716554)
(-0.0201829 -0.0128336 -0.000867311)
(-0.0167261 -0.0166007 -0.000998999)
(-0.0120406 -0.019358 -0.00105906)
(-0.00610508 -0.0191659 -0.000994746)
(-0.00137648 -0.0114785 -0.000561993)
(-0.000502046 0.00865022 -0.000414451)
(-0.00259515 0.0151216 -0.000425074)
(-0.0056236 0.0165311 -0.000401785)
(-0.00849626 0.016291 -0.000367943)
(-0.0113167 0.0155237 -0.000342058)
(-0.0140134 0.0144839 -0.000322992)
(-0.0165661 0.0132071 -0.000311073)
(-0.018959 0.0116816 -0.000308793)
(-0.0211704 0.00987715 -0.000319683)
(-0.0231683 0.00774751 -0.000348327)
(-0.0249005 0.00523111 -0.000400441)
(-0.0262833 0.00225522 -0.000482921)
(-0.0271927 -0.00125466 -0.000602836)
(-0.0274337 -0.00536149 -0.000772448)
(-0.0267278 -0.010067 -0.000985861)
(-0.0247268 -0.0152351 -0.00123256)
(-0.0210558 -0.0204251 -0.00147118)
(-0.0155798 -0.0245021 -0.00162065)
(-0.00821565 -0.0247272 -0.00157343)
(-0.00196925 -0.0151167 -0.000978857)
(-0.000543494 0.0103332 -0.000490073)
(-0.00282879 0.0180549 -0.000514988)
(-0.00613396 0.0197197 -0.000491072)
(-0.00925436 0.0194341 -0.00045217)
(-0.0123166 0.0185472 -0.000420762)
(-0.0152518 0.0173671 -0.000396618)
(-0.0180528 0.0159411 -0.000381)
(-0.0207192 0.0142592 -0.000377395)
(-0.0232474 0.0122866 -0.00039057)
(-0.0256253 0.00996415 -0.000426929)
(-0.0278201 0.00720528 -0.00049506)
(-0.0297615 0.00389486 -0.000606072)
(-0.0313285 -0.000106978 -0.000773683)
(-0.0322989 -0.00493792 -0.00102284)
(-0.0323072 -0.0107157 -0.00135294)
(-0.0308336 -0.0173953 -0.00176133)
(-0.0272246 -0.0245178 -0.00219812)
(-0.0209645 -0.0306108 -0.00254147)
(-0.0118153 -0.0317959 -0.00257265)
(-0.00312548 -0.0202093 -0.00177325)
(-0.000596359 0.0121937 -0.000588155)
(-0.00311308 0.0212942 -0.000632197)
(-0.00673979 0.0232229 -0.000606239)
(-0.0101343 0.0228724 -0.000558691)
(-0.0134532 0.0218496 -0.000517482)
(-0.0166324 0.0205248 -0.000483826)
(-0.0196816 0.0189616 -0.000460339)
(-0.0226217 0.0171558 -0.000451794)
(-0.025475 0.0150721 -0.0004645)
(-0.0282604 0.012642 -0.000507213)
(-0.0309822 0.00975549 -0.000592487)
(-0.03361 0.0062505 -0.000737761)
(-0.0360436 0.00190603 -0.000966894)
(-0.0380763 -0.00354217 -0.00131655)
(-0.0392946 -0.010404 -0.0018296)
(-0.0389846 -0.0188457 -0.00250462)
(-0.0361145 -0.0285355 -0.00330216)
(-0.0294874 -0.0376906 -0.0040549)
(-0.0185023 -0.0409535 -0.00436172)
(-0.00562481 -0.0280668 -0.00341708)
(-0.000667977 0.0142774 -0.000718064)
(-0.00346909 0.0249017 -0.000787578)
(-0.00746995 0.0270879 -0.000756708)
(-0.0111617 0.0266341 -0.000694362)
(-0.0147422 0.0254427 -0.00063618)
(-0.0181545 0.023956 -0.000585637)
(-0.0214309 0.0222596 -0.000547262)
(-0.0246183 0.0203608 -0.000527382)
(-0.0277721 0.0182311 -0.000534039)
(-0.0309544 0.0158016 -0.00057869)
(-0.0342261 0.0129485 -0.000678816)
(-0.0376289 0.00946945 -0.000861357)
(-0.0411467 0.00505417 -0.00116657)
(-0.0446634 -0.000742867 -0.00164891)
(-0.0478009 -0.00846727 -0.00240426)
(-0.0497392 -0.0187184 -0.0034903)
(-0.0490502 -0.0315679 -0.00490141)
(-0.0435259 -0.0451667 -0.00645561)
(-0.0317446 -0.0527636 -0.00755904)
(-0.0114023 -0.0417075 -0.00700465)
(-0.000773192 0.0166533 -0.000895062)
(-0.00393587 0.02896 -0.000997933)
(-0.00837597 0.0313704 -0.000956674)
(-0.0123837 0.0307445 -0.000869017)
(-0.0162168 0.0293254 -0.000781965)
(-0.0198311 0.0276393 -0.00070258)
(-0.0232863 0.0257983 -0.000638074)
(-0.0266599 0.0238278 -0.000596452)
(-0.0300447 0.0217155 -0.000587374)
(-0.0335549 0.0194084 -0.000624799)
(-0.0373287 0.0167925 -0.000731192)
(-0.041524 0.0136557 -0.000943921)
(-0.0462904 0.0096272 -0.0013231)
(-0.0516917 0.00409369 -0.00195861)
(-0.0576302 -0.00384047 -0.00297967)
(-0.0635121 -0.015347 -0.00456769)
(-0.067681 -0.0314941 -0.00683448)
(-0.0666803 -0.051115 -0.00961108)
(-0.0571771 -0.0674887 -0.0123268)
(-0.0238152 -0.0675831 -0.0137772)
(-0.000942023 0.0194288 -0.00114505)
(-0.00458354 0.0335679 -0.00128867)
(-0.00954486 0.0361076 -0.0012255)
(-0.0138801 0.0351942 -0.0010945)
(-0.0179381 0.0334628 -0.000959933)
(-0.0216963 0.0315215 -0.000833588)
(-0.0252496 0.0295061 -0.000725923)
(-0.0287074 0.027464 -0.000646524)
(-0.0321971 0.0254122 -0.000606122)
(-0.0358824 0.0233342 -0.000619626)
(-0.0399837 0.0211614 -0.000711703)
(-0.0448021 0.018728 -0.000925461)
(-0.0507385 0.0156866 -0.00133457)
(-0.0582756 0.011355 -0.00205262)
(-0.0678923 0.00453485 -0.00323083)
(-0.0798817 -0.00663273 -0.00506199)
(-0.0927072 -0.024765 -0.00771357)
(-0.100556 -0.0520102 -0.0107649)
(-0.0957461 -0.0862498 -0.0138623)
(-0.0405504 -0.119541 -0.0196796)
(-0.00124797 0.0227981 -0.00152058)
(-0.00557613 0.0390265 -0.0017254)
(-0.0111391 0.0415947 -0.00162755)
(-0.0157685 0.0402416 -0.00142149)
(-0.0199815 0.0380099 -0.00119882)
(-0.0237972 0.0356441 -0.000986085)
(-0.0273432 0.0333325 -0.000801983)
(-0.0307494 0.0311528 -0.00065848)
(-0.034166 0.0291546 -0.000564583)
(-0.0377922 0.0273765 -0.000532263)
(-0.0419151 0.0258464 -0.000582348)
(-0.0469733 0.0245421 -0.000751418)
(-0.0536541 0.0233049 -0.0010981)
(-0.0629788 0.0216302 -0.00168462)
(-0.076367 0.0183295 -0.00246808)
(-0.0951884 0.0105511 -0.00305806)
(-0.117595 -0.00792839 -0.0025098)
(-0.132982 -0.0495689 0.000717635)
(-0.130579 -0.119954 0.00380773)
(-0.0447069 -0.210406 -0.0123753)
(-0.00168206 0.0271864 -0.00207742)
(-0.00682232 0.0446841 -0.00226169)
(-0.0132289 0.0467102 -0.0020738)
(-0.0182322 0.0445091 -0.00173094)
(-0.0226051 0.0417763 -0.00139292)
(-0.0263589 0.0391353 -0.00107682)
(-0.029713 0.0366831 -0.000800147)
(-0.0328458 0.0344601 -0.000572916)
(-0.0359159 0.0325394 -0.000402002)
(-0.0391056 0.0310332 -0.000292931)
(-0.0426896 0.0301156 -0.000247162)
(-0.0471407 0.0300042 -0.000256478)
(-0.0533098 0.030937 -0.000276204)
(-0.0626065 0.0328451 -6.8577e-05)
(-0.0772587 0.0347129 0.00121282)
(-0.0993891 0.0316937 0.00570709)
(-0.126982 0.0114163 0.0165751)
(-0.142346 -0.0529271 0.0342296)
(-0.141728 -0.169341 0.0426287)
(-0.0298417 -0.312157 -0.00116657)
(-0.00371799 0.0314987 -0.00307173)
(-0.0109137 0.0540136 -0.00348382)
(-0.0169472 0.0556533 -0.00312643)
(-0.0216036 0.0527708 -0.00256168)
(-0.0254631 0.0487383 -0.00193391)
(-0.0288767 0.0448616 -0.00134749)
(-0.0319432 0.0413909 -0.000838963)
(-0.0347428 0.0384244 -0.000424338)
(-0.037344 0.0360583 -0.000104727)
(-0.0398413 0.0344365 0.00012665)
(-0.0424033 0.033855 0.000295984)
(-0.045342 0.03478 0.000490061)
(-0.0493623 0.0379952 0.000984112)
(-0.0556156 0.0438625 0.0026076)
(-0.0663709 0.0514992 0.00759989)
(-0.0829588 0.0523893 0.0205168)
(-0.10724 0.0302508 0.0451925)
(-0.118351 -0.0567398 0.0728828)
(-0.128529 -0.216864 0.0663489)
(-0.010623 -0.39509 -0.012784)
(-0.0018346 0.046246 -0.00491381)
(-0.00957034 0.0577948 -0.00467326)
(-0.0202492 0.0567808 -0.00394141)
(-0.0255512 0.0516002 -0.00280833)
(-0.0301866 0.0476211 -0.00185706)
(-0.0332494 0.0442136 -0.000995857)
(-0.0354622 0.0412592 -0.000269974)
(-0.0370704 0.0386461 0.000311481)
(-0.0382161 0.036487 0.000754642)
(-0.0389327 0.0349083 0.00107418)
(-0.0392227 0.0343516 0.00133256)
(-0.0389653 0.0352782 0.00171826)
(-0.0384101 0.0390001 0.00273842)
(-0.0373734 0.0455562 0.0057625)
(-0.0383247 0.0557342 0.013995)
(-0.0390924 0.0573172 0.0324321)
(-0.0550036 0.0364451 0.0636641)
(-0.0579453 -0.0626472 0.0866388)
(-0.0854511 -0.253258 0.0557279)
(0.0154983 -0.455795 -0.0387569)
(-0.0119461 0.0379085 -0.00626604)
(-0.0257396 0.0808389 -0.00734655)
(-0.0258888 0.0774727 -0.00652801)
(-0.0323473 0.0710529 -0.00485874)
(-0.0341188 0.0629147 -0.00293741)
(-0.0343743 0.0556842 -0.00126938)
(-0.0332691 0.0495141 7.20237e-05)
(-0.0313268 0.0443541 0.00108177)
(-0.0288149 0.0401759 0.00179745)
(-0.0256812 0.0368183 0.00222957)
(-0.0222177 0.0345943 0.00246255)
(-0.0175877 0.0336531 0.00268479)
(-0.0127145 0.0354873 0.00338395)
(-0.003914 0.0398595 0.00587755)
(0.00332764 0.0497774 0.012835)
(0.0225198 0.0543034 0.0284651)
(0.0239291 0.0427476 0.0510907)
(0.0551241 -0.0460828 0.0684365)
(0.00563508 -0.253821 0.0318744)
(0.0648626 -0.469356 -0.0577295)
(-0.0754845 0.10171 -0.0176564)
(-0.0610531 0.0632798 -0.0123389)
(-0.0604164 0.0610599 -0.00853897)
(-0.0393281 0.0527901 -0.00495054)
(-0.021225 0.0446487 -0.00236458)
(-0.00168428 0.0385687 -0.00027006)
(0.0162721 0.0340825 0.00142269)
(0.0334149 0.0302515 0.00272713)
(0.0485603 0.0273596 0.00369444)
(0.0635058 0.0245492 0.00426343)
(0.0757447 0.0228942 0.00447822)
(0.0900258 0.0210655 0.00421477)
(0.0993516 0.0210914 0.00397956)
(0.118909 0.0212054 0.00344581)
(0.124833 0.0214347 0.00511517)
(0.165826 0.019276 0.011629)
(0.162018 -0.00519634 0.0158593)
(0.222008 -0.0587434 0.0290552)
(0.154442 -0.235437 0.0100951)
(0.148063 -0.419809 -0.0724189)
(0.119438 0.139887 -0.0163851)
(0.151695 0.0857907 -0.0175032)
(0.230107 0.06358 -0.0170497)
(0.284422 0.0482548 -0.0153369)
(0.326128 0.0373604 -0.013158)
(0.363549 0.0292976 -0.0112118)
(0.392681 0.0235838 -0.00921446)
(0.422424 0.01941 -0.00741859)
(0.44206 0.0162195 -0.00574821)
(0.468612 0.0138504 -0.00409277)
(0.47947 0.0119272 -0.00287914)
(0.507032 0.0105537 -0.00155345)
(0.508283 0.00931342 -0.000720759)
(0.540825 0.00878922 -0.000223348)
(0.530956 0.00742687 0.00120611)
(0.569137 0.00532761 0.000425145)
(0.538992 -0.00350173 0.00388482)
(0.559589 -0.0236388 -0.00228932)
(0.433803 -0.0721305 -0.00737225)
(0.302488 -0.14942 -0.0838015)
(-0.000113541 0.0001138 -7.0226e-05)
(-0.000843674 0.000340334 -5.82362e-05)
(-0.00201713 0.000399872 -4.54302e-05)
(-0.00313222 0.00040241 -3.55952e-05)
(-0.00422389 0.000389055 -3.23074e-05)
(-0.00525223 0.000369003 -3.43293e-05)
(-0.00619538 0.000341962 -4.09617e-05)
(-0.00703075 0.000305919 -5.21655e-05)
(-0.00773156 0.000258817 -6.80207e-05)
(-0.00826772 0.000198764 -8.88046e-05)