/*--------------------------------*- C++ -*----------------------------------*\
  =========                 |
  \\      /  F ield         | OpenFOAM: The Open Source CFD Toolbox
   \\    /   O peration     | Website:  https://openfoam.org
    \\  /    A nd           | Version:  10
     \\/     M anipulation  |
\*---------------------------------------------------------------------------*/
FoamFile
{
    format      ascii;
    class       volScalarField;
    location    "9.675";
    object      p;
}
// * * * * * * * * * * * * * * * * * * * * * * * * * * * * * * * * * * * * * //

dimensions      [0 2 -2 0 0 0 0];

internalField   nonuniform List<scalar> 
400
(
3.02008e-07
-3.23133e-05
2.57708e-05
0.00013901
0.000316378
0.000561287
0.000879411
0.00127829
0.00176594
0.00234911
0.00303073
0.00380658
0.00465977
0.0055551
0.00643202
0.00720709
0.00778402
0.00810041
0.00818189
0.00802269
3.73258e-05
4.13813e-06
7.14938e-05
0.000188557
0.000365832
0.000607543
0.000919675
0.00130964
0.0017852
0.00235328
0.00301778
0.00377609
0.00461222
0.00549637
0.00636879
0.00714372
0.00771671
0.00801827
0.00808267
0.00790444
-3.65731e-05
-7.99004e-05
-1.4294e-05
9.75603e-05
0.000266824
0.000497815
0.000796992
0.0011727
0.00163435
0.00219168
0.00285265
0.00361978
0.0044856
0.00542307
0.00636886
0.00722113
0.0078426
0.00812976
0.00812834
0.00787492
-0.000198701
-0.00024897
-0.000188077
-8.57342e-05
6.99419e-05
0.000283473
0.000562021
0.000915281
0.00135509
0.00189534
0.00255069
0.00333253
0.00424218
0.00526038
0.00632583
0.00731237
0.00802675
0.00828847
0.00815638
0.00777916
-0.000460121
-0.000515915
-0.000463549
-0.000375892
-0.000240428
-5.24009e-05
0.000196084
0.000516184
0.00092249
0.00143371
0.00207271
0.0028641
0.00382494
0.00494822
0.00618287
0.00737758
0.00825078
0.00847414
0.00811076
0.00753914
-0.000818989
-0.000879909
-0.000839861
-0.000772414
-0.000664805
-0.000512407
-0.000307171
-3.70872e-05
0.00031438
0.000769968
0.00136023
0.00212404
0.00310098
0.00430972
0.00574185
0.00723298
0.00837461
0.00854411
0.00785153
0.0069609
-0.00126809
-0.00133439
-0.00131036
-0.00126913
-0.0011983
-0.0010941
-0.000949628
-0.000754104
-0.000491592
-0.000138778
0.000338044
0.000986064
0.00186684
0.0030481
0.00456852
0.00637778
0.00793208
0.0081029
0.0071572
0.00586622
-0.00179721
-0.00186942
-0.00186486
-0.00185587
-0.00183132
-0.00178951
-0.00172671
-0.00163669
-0.00150993
-0.00133131
-0.0010769
-0.000713193
-0.000193942
0.000568905
0.00174395
0.00354491
0.00558633
0.00628883
0.00574316
0.00439052
-0.0023934
-0.002472
-0.00248938
-0.00251752
-0.00254762
-0.00258171
-0.00262199
-0.00267121
-0.00273384
-0.00281736
-0.00293598
-0.00312792
-0.00348552
-0.00406966
-0.004537
-0.00382651
-0.00147743
0.00139462
0.00323111
0.00363306
-0.00304139
-0.00312648
-0.00316611
-0.00323333
-0.00332267
-0.00344168
-0.00360137
-0.0038184
-0.00412029
-0.00455462
-0.0052077
-0.00625247
-0.00807738
-0.0111055
-0.0150277
-0.016966
-0.0146412
-0.008426
-0.0019151
0.00290787
-0.0037247
-0.00381589
-0.00387462
-0.0039781
-0.00412445
-0.00432845
-0.00461179
-0.00500836
-0.00557524
-0.00641363
-0.00771263
-0.00983254
-0.0135063
-0.0195798
-0.0276865
-0.0332566
-0.0314935
-0.0224084
-0.0115826
-0.00243926
-0.00442707
-0.00452257
-0.00459116
-0.00472047
-0.00491181
-0.0051877
-0.00557953
-0.00613653
-0.00694188
-0.00814154
-0.0100058
-0.013029
-0.0181317
-0.0261789
-0.0367741
-0.0441221
-0.0431821
-0.0339998
-0.0229718
-0.01158
-0.0051378
-0.00523626
-0.00530054
-0.00543772
-0.00565099
-0.00597034
-0.00643327
-0.00709681
-0.00805582
-0.00947115
-0.0116347
-0.0150387
-0.0206096
-0.0289097
-0.0396825
-0.0467005
-0.0462891
-0.0381751
-0.0292632
-0.0184121
-0.00584644
-0.00593715
-0.00596668
-0.00608087
-0.00628521
-0.00661297
-0.00709999
-0.00780214
-0.00881013
-0.0102687
-0.0124505
-0.0157076
-0.020881
-0.0280852
-0.0370089
-0.0424552
-0.0424277
-0.0355751
-0.0300505
-0.020158
-0.00657854
-0.00666734
-0.00663492
-0.00669907
-0.00685112
-0.0071353
-0.00758572
-0.0082508
-0.00920752
-0.0105599
-0.012529
-0.015351
-0.0194992
-0.0248957
-0.0313051
-0.0350172
-0.0348787
-0.0289373
-0.0265249
-0.0165821
-0.00742161
-0.00731037
-0.00713411
-0.00705842
-0.00712955
-0.00736295
-0.00777191
-0.00838045
-0.00924361
-0.010438
-0.012106
-0.0143789
-0.0174843
-0.0212292
-0.0254576
-0.0274433
-0.0270642
-0.0217655
-0.0211717
-0.00737201
-0.00785883
-0.00823802
-0.00786336
-0.0077907
-0.00770658
-0.00778057
-0.00802409
-0.00846916
-0.00916196
-0.0101518
-0.0115303
-0.0133508
-0.0157298
-0.018377
-0.0212084
-0.0222254
-0.0214962
-0.0163709
-0.0142346
0.0104262
-0.0112264
-0.00864759
-0.00790927
-0.00719846
-0.00702609
-0.00712199
-0.00743244
-0.00791883
-0.00860809
-0.00952032
-0.0107488
-0.0122971
-0.0142723
-0.0163057
-0.0183142
-0.0185532
-0.0171052
-0.0102933
-0.00138409
0.0418382
-0.00780644
-0.010728
-0.00949418
-0.00937164
-0.00880246
-0.00848455
-0.00837052
-0.00848316
-0.00887777
-0.00953723
-0.0105763
-0.0119328
-0.0138289
-0.0158216
-0.01805
-0.0181019
-0.0158382
-0.00222771
0.0221013
0.0985756
-0.0330513
-0.00788022
-0.00619322
-0.0053329
-0.00505168
-0.00519588
-0.00564721
-0.00621979
-0.00700564
-0.00792429
-0.0091996
-0.0106499
-0.0124435
-0.0138084
-0.0144093
-0.0105908
0.000375985
0.0342852
0.0995417
0.229662
)
;

boundaryField
{
    movingWall
    {
        type            zeroGradient;
    }
    fixedWalls
    {
        type            zeroGradient;
    }
    frontAndBack
    {
        type            empty;
    }
}


// ************************************************************************* //
