/*--------------------------------*- C++ -*----------------------------------*\
  =========                 |
  \\      /  F ield         | OpenFOAM: The Open Source CFD Toolbox
   \\    /   O peration     | Website:  https://openfoam.org
    \\  /    A nd           | Version:  10
     \\/     M anipulation  |
\*---------------------------------------------------------------------------*/
FoamFile
{
    format      ascii;
    class       volVectorField;
    location    "9.675";
    object      U;
}
// * * * * * * * * * * * * * * * * * * * * * * * * * * * * * * * * * * * * * //

dimensions      [0 1 -1 0 0 0 0];

internalField   nonuniform List<vector> 
400
(
(-0.000173056 0.000147028 0)
(-0.00131577 0.000481953 0)
(-0.00325682 0.000603718 0)
(-0.00525928 0.000646804 0)
(-0.00735288 0.000674487 0)
(-0.00950221 0.000707078 0)
(-0.0117002 0.000743883 0)
(-0.0139277 0.000775949 0)
(-0.016135 0.00078955 0)
(-0.0182319 0.000765398 0)
(-0.0200774 0.000678487 0)
(-0.02147 0.000500939 0)
(-0.0221493 0.000209003 0)
(-0.0218095 -0.000219811 0)
(-0.020163 -0.000759024 0)
(-0.0170555 -0.00132348 0)
(-0.0126547 -0.00174725 0)
(-0.00761012 -0.00181855 0)
(-0.00258952 -0.00136558 0)
(-7.07709e-05 -0.000297235 0)
(-0.000581485 0.00134785 0)
(-0.00302526 0.00282093 0)
(-0.00677869 0.00338256 0)
(-0.0106584 0.00359244 0)
(-0.0146756 0.0036957 0)
(-0.0187411 0.00377189 0)
(-0.0228071 0.00381952 0)
(-0.0268096 0.00380192 0)
(-0.0306388 0.00366195 0)
(-0.0341252 0.00332361 0)
(-0.037025 0.00269562 0)
(-0.0390125 0.00168131 0)
(-0.0397037 0.000197903 0)
(-0.0386594 -0.0017704 0)
(-0.0354721 -0.00409129 0)
(-0.0299502 -0.00641606 0)
(-0.0223741 -0.00811707 0)
(-0.0137416 -0.00838875 0)
(-0.00517784 -0.006583 0)
(-0.000521516 -0.00231873 0)
(-0.000770785 0.00354407 0)
(-0.00384567 0.00669286 0)
(-0.00847222 0.00789584 0)
(-0.013223 0.00833702 0)
(-0.0181117 0.00851625 0)
(-0.0230281 0.00859495 0)
(-0.0279129 0.00857353 0)
(-0.0326921 0.00838091 0)
(-0.0372449 0.00790443 0)
(-0.0413866 0.00699593 0)
(-0.0448526 0.00547942 0)
(-0.0472902 0.00317234 0)
(-0.0482478 -7.19432e-05 0)
(-0.0471766 -0.00426426 0)
(-0.043523 -0.00917292 0)
(-0.0369162 -0.0141052 0)
(-0.0275345 -0.0177706 0)
(-0.0165985 -0.0183706 0)
(-0.00582617 -0.0144605 0)
(-0.000385057 -0.0055034 0)
(-0.000835478 0.00591591 0)
(-0.00417715 0.0108731 0)
(-0.0091918 0.0127392 0)
(-0.0143232 0.0134011 0)
(-0.0196014 0.0136453 0)
(-0.0249201 0.0137231 0)
(-0.0302343 0.0136404 0)
(-0.0354903 0.0132958 0)
(-0.0405929 0.0125249 0)
(-0.0453852 0.0111063 0)
(-0.0496204 0.00876771 0)
(-0.0529351 0.0052117 0)
(-0.0548191 0.000185672 0)
(-0.0545887 -0.00640524 0)
(-0.0513927 -0.0143256 0)
(-0.0443988 -0.022575 0)
(-0.0333168 -0.0290113 0)
(-0.0194577 -0.0302073 0)
(-0.005722 -0.023259 0)
(0.000208945 -0.00829578 0)
(-0.000836075 0.00839055 0)
(-0.00425335 0.0152557 0)
(-0.00941193 0.0178192 0)
(-0.0146968 0.0187192 0)
(-0.020158 0.0190538 0)
(-0.0257086 0.0191759 0)
(-0.0313368 0.0191051 0)
(-0.0370333 0.0187176 0)
(-0.042759 0.0178026 0)
(-0.0484211 0.0160652 0)
(-0.0538333 0.0131205 0)
(-0.0586561 0.00850803 0)
(-0.0623303 0.00176433 0)
(-0.064022 -0.00743654 0)
(-0.0624671 -0.0190585 0)
(-0.056005 -0.0319628 0)
(-0.0431685 -0.0429602 0)
(-0.024774 -0.0457392 0)
(-0.00569641 -0.034097 0)
(0.00123736 -0.0106105 0)
(-0.000804879 0.0108581 0)
(-0.00419887 0.0196866 0)
(-0.00937697 0.0229808 0)
(-0.0147048 0.0241493 0)
(-0.0202507 0.0246225 0)
(-0.0259558 0.0248699 0)
(-0.0318552 0.0249397 0)
(-0.0380043 0.0247006 0)
(-0.044449 0.0239097 0)
(-0.051204 0.0222058 0)
(-0.0582063 0.0190833 0)
(-0.0652307 0.013877 0)
(-0.0717873 0.00579133 0)
(-0.0770235 -0.00597321 0)
(-0.07923 -0.0219002 0)
(-0.0753447 -0.0414305 0)
(-0.0613435 -0.0604532 0)
(-0.0363827 -0.0675801 0)
(-0.00782226 -0.0489502 0)
(0.00256249 -0.0124328 0)
(-0.000754877 0.0132566 0)
(-0.00406781 0.0240749 0)
(-0.00919046 0.0281313 0)
(-0.0144881 0.0296035 0)
(-0.0200435 0.0302723 0)
(-0.0258285 0.0307432 0)
(-0.0319326 0.0311128 0)
(-0.0384922 0.0312681 0)
(-0.0456685 0.0309642 0)
(-0.0536375 0.0298048 0)
(-0.0625568 0.0271906 0)
(-0.0724985 0.0222631 0)
(-0.0833325 0.0138488 0)
(-0.0944436 0.000395272 0)
(-0.103837 -0.0200019 0)
(-0.106044 -0.0488785 0)
(-0.0923152 -0.0819639 0)
(-0.0600213 -0.0992636 0)
(-0.018397 -0.0724242 0)
(0.00304446 -0.0158226 0)
(-0.000690073 0.0155477 0)
(-0.0038795 0.0283642 0)
(-0.00888727 0.0332074 0)
(-0.0140832 0.03501 0)
(-0.0195579 0.0359223 0)
(-0.0253105 0.0367076 0)
(-0.031484 0.0375371 0)
(-0.0383013 0.038351 0)
(-0.046061 0.0389538 0)
(-0.0551539 0.0389898 0)
(-0.0660705 0.0378726 0)
(-0.0794143 0.0346962 0)
(-0.0958739 0.0280338 0)
(-0.115652 0.0151659 0)
(-0.136047 -0.00920941 0)
(-0.147163 -0.0513327 0)
(-0.135133 -0.106775 0)
(-0.099336 -0.14154 0)
(-0.047584 -0.111467 0)
(-0.000726146 -0.0280012 0)
(-0.00061323 0.0177 0)
(-0.00364563 0.032507 0)
(-0.00848436 0.0381456 0)
(-0.0134975 0.0402822 0)
(-0.0187738 0.0414553 0)
(-0.0243295 0.0426107 0)
(-0.0303495 0.0440234 0)
(-0.0371319 0.0457296 0)
(-0.0451049 0.0476531 0)
(-0.0548883 0.0495999 0)
(-0.0673766 0.051201 0)
(-0.0838733 0.0517881 0)
(-0.106223 0.0498173 0)
(-0.135537 0.0404381 0)
(-0.16691 0.0121961 0)
(-0.18508 -0.0486119 0)
(-0.176705 -0.132234 0)
(-0.146709 -0.188065 0)
(-0.0942569 -0.169766 0)
(-0.0142764 -0.0612954 0)
(-0.000530697 0.0196906 0)
(-0.00338781 0.0364647 0)
(-0.00801358 0.0428812 0)
(-0.0127567 0.0453173 0)
(-0.0176933 0.0467169 0)
(-0.0228397 0.0482319 0)
(-0.0283978 0.0502686 0)
(-0.0347052 0.0530017 0)
(-0.0422682 0.0565532 0)
(-0.0518634 0.0610358 0)
(-0.0646807 0.0665412 0)
(-0.0824881 0.0728531 0)
(-0.107813 0.0779215 0)
(-0.141664 0.0731399 0)
(-0.176819 0.0392635 0)
(-0.195548 -0.0412448 0)
(-0.191742 -0.150234 0)
(-0.173076 -0.230567 0)
(-0.13017 -0.243458 0)
(-0.0370506 -0.13115 0)
(-0.000455272 0.0215149 0)
(-0.00314802 0.0402132 0)
(-0.00754093 0.0473447 0)
(-0.0119334 0.0499878 0)
(-0.0163819 0.0515072 0)
(-0.0208793 0.0532763 0)
(-0.0256095 0.0558425 0)
(-0.0308865 0.0595382 0)
(-0.0371826 0.0647251 0)
(-0.0452309 0.0719025 0)
(-0.0561626 0.0817119 0)
(-0.0714845 0.0942389 0)
(-0.0929588 0.106022 0)
(-0.120773 0.103948 0)
(-0.147769 0.0637112 0)
(-0.161006 -0.0308509 0)
(-0.161548 -0.155249 0)
(-0.153429 -0.25942 0)
(-0.130767 -0.313438 0)
(-0.0502381 -0.235282 0)
(-0.000413152 0.0232137 0)
(-0.00300918 0.0438 0)
(-0.00719364 0.0515499 0)
(-0.0111723 0.0542483 0)
(-0.0149956 0.0556933 0)
(-0.0186171 0.0574898 0)
(-0.0221707 0.0603166 0)
(-0.0258764 0.064635 0)
(-0.0300398 0.0709973 0)
(-0.0350899 0.0801806 0)
(-0.0416134 0.093124 0)
(-0.0501788 0.109797 0)
(-0.0612878 0.125285 0)
(-0.0749833 0.123507 0)
(-0.0877412 0.079247 0)
(-0.0934447 -0.0214501 0)
(-0.0983996 -0.147822 0)
(-0.101923 -0.262984 0)
(-0.10528 -0.351477 0)
(-0.0422512 -0.326198 0)
(-0.000435855 0.0248419 0)
(-0.00306154 0.0471746 0)
(-0.00712806 0.0552797 0)
(-0.0106884 0.0577652 0)
(-0.0138067 0.0588876 0)
(-0.0163865 0.0604326 0)
(-0.01851 0.0631417 0)
(-0.0202743 0.0675278 0)
(-0.0217564 0.0741925 0)
(-0.0229855 0.0839341 0)
(-0.0238903 0.0976246 0)
(-0.0240728 0.114931 0)
(-0.0232334 0.130707 0)
(-0.0216365 0.128627 0)
(-0.0212596 0.0849824 0)
(-0.0221449 -0.0142739 0)
(-0.0349506 -0.13309 0)
(-0.0501893 -0.248464 0)
(-0.0761184 -0.363369 0)
(-0.0291351 -0.387428 0)
(-0.000636619 0.0267441 0)
(-0.00362313 0.0510123 0)
(-0.00771678 0.0593857 0)
(-0.0107784 0.0614266 0)
(-0.0130644 0.0618044 0)
(-0.0145005 0.0625715 0)
(-0.0151111 0.0645442 0)
(-0.0148642 0.0682306 0)
(-0.0136442 0.0741586 0)
(-0.0111465 0.0829399 0)
(-0.00685384 0.0951467 0)
(0.000309096 0.110247 0)
(0.0107245 0.12384 0)
(0.0242756 0.121705 0)
(0.0330802 0.0830186 0)
(0.0365557 -0.00626548 0)
(0.0161336 -0.112949 0)
(-0.00709834 -0.221091 0)
(-0.0536329 -0.358858 0)
(-0.0194482 -0.433194 0)
(-0.000976112 0.0291221 0)
(-0.00436447 0.0539884 0)
(-0.00885524 0.0615407 0)
(-0.0117253 0.0623418 0)
(-0.0134214 0.0618365 0)
(-0.0137706 0.0618985 0)
(-0.0128749 0.0631525 0)
(-0.010684 0.065918 0)
(-0.00701481 0.0705499 0)
(-0.00142148 0.0773638 0)
(0.00679002 0.086699 0)
(0.018848 0.097774 0)
(0.0347036 0.107218 0)
(0.0547746 0.104695 0)
(0.0684771 0.0738503 0)
(0.0757865 0.00252865 0)
(0.0507188 -0.0870716 0)
(0.0257932 -0.182353 0)
(-0.0377835 -0.340773 0)
(-0.00892352 -0.464973 0)
(-0.00306466 0.0309516 0)
(-0.00881976 0.0605081 0)
(-0.0125789 0.0678841 0)
(-0.0143086 0.0679956 0)
(-0.0144927 0.0655807 0)
(-0.0134627 0.063592 0)
(-0.0111952 0.0627678 0)
(-0.00749648 0.0634025 0)
(-0.00210331 0.065697 0)
(0.00559578 0.0697209 0)
(0.0161504 0.075569 0)
(0.0305018 0.0823004 0)
(0.0481195 0.0875007 0)
(0.0701623 0.0843771 0)
(0.0849546 0.0624331 0)
(0.0950777 0.0111848 0)
(0.0684987 -0.0575789 0)
(0.0452079 -0.13961 0)
(-0.0281498 -0.321087 0)
(0.00177026 -0.489033 0)
(-0.000900891 0.0441284 0)
(-0.00725693 0.0614942 0)
(-0.01607 0.0644821 0)
(-0.0176796 0.0608815 0)
(-0.0180509 0.0578828 0)
(-0.0161244 0.0559018 0)
(-0.0126525 0.0549711 0)
(-0.00748896 0.0549799 0)
(-0.000486874 0.0559786 0)
(0.00889821 0.0579574 0)
(0.0209953 0.0609527 0)
(0.036423 0.0642263 0)
(0.0539961 0.0663576 0)
(0.0757836 0.063091 0)
(0.0895264 0.0485274 0)
(0.101387 0.0154551 0)
(0.0758326 -0.0332083 0)
(0.0606408 -0.100744 0)
(-0.0107785 -0.298938 0)
(0.0202657 -0.49881 0)
(-0.0125831 0.0321461 0)
(-0.0228704 0.0807326 0)
(-0.0201489 0.0811611 0)
(-0.0236167 0.0763055 0)
(-0.0225958 0.0688762 0)
(-0.0197489 0.0627521 0)
(-0.0147855 0.0579236 0)
(-0.00786349 0.0542756 0)
(0.000961519 0.0518047 0)
(0.0120813 0.0502531 0)
(0.0253455 0.0497122 0)
(0.0413645 0.0494191 0)
(0.0579926 0.0495543 0)
(0.0785438 0.0471239 0)
(0.0899075 0.0405363 0)
(0.105123 0.0239834 0)
(0.0870204 -0.00637063 0)
(0.0964038 -0.0623882 0)
(0.0385625 -0.272363 0)
(0.0566319 -0.48807 0)
(-0.0777073 0.0956898 0)
(-0.0632047 0.0587146 0)
(-0.0648867 0.0600846 0)
(-0.0419459 0.0535001 0)
(-0.0237679 0.0465047 0)
(-0.00275382 0.0413271 0)
(0.0170828 0.0375649 0)
(0.0373493 0.0343937 0)
(0.0561872 0.0321157 0)
(0.0767463 0.0300473 0)
(0.0946127 0.0289043 0)
(0.117395 0.0276863 0)
(0.13311 0.0267891 0)
(0.161235 0.025238 0)
(0.170095 0.019524 0)
(0.202219 0.0105088 0)
(0.188464 -0.0216345 0)
(0.220811 -0.0732323 0)
(0.153509 -0.251307 0)
(0.124362 -0.432362 0)
(0.119317 0.140688 0)
(0.151784 0.085943 0)
(0.228181 0.0633963 0)
(0.283673 0.047976 0)
(0.325176 0.0373856 0)
(0.36355 0.0296469 0)
(0.392363 0.0242637 0)
(0.423639 0.0202031 0)
(0.443718 0.0173354 0)
(0.472344 0.0150079 0)
(0.485313 0.0133402 0)
(0.514666 0.0119225 0)
(0.520179 0.0108059 0)
(0.552138 0.00942071 0)
(0.546755 0.00739677 0)
(0.578214 0.00292293 0)
(0.54604 -0.00580738 0)
(0.551713 -0.0267593 0)
(0.418973 -0.0729029 0)
(0.274615 -0.151552 0)
)
;

boundaryField
{
    movingWall
    {
        type            fixedValue;
        value           uniform (1 0 0);
    }
    fixedWalls
    {
        type            noSlip;
    }
    frontAndBack
    {
        type            empty;
    }
}


// ************************************************************************* //
