/*--------------------------------*- C++ -*----------------------------------*\
  =========                 |
  \\      /  F ield         | OpenFOAM: The Open Source CFD Toolbox
   \\    /   O peration     | Website:  https://openfoam.org
    \\  /    A nd           | Version:  10
     \\/     M anipulation  |
\*---------------------------------------------------------------------------*/
FoamFile
{
    format      ascii;
    class       volVectorField;
    location    "4.25";
    object      U;
}
// * * * * * * * * * * * * * * * * * * * * * * * * * * * * * * * * * * * * * //

dimensions      [0 1 -1 0 0 0 0];

internalField   nonuniform List<vector> 
400
(
(-0.000104731 0.000100577 0)
(-0.000820728 0.000319107 0)
(-0.00198122 0.000374121 0)
(-0.00307638 0.000374848 0)
(-0.00414388 0.000361629 0)
(-0.00514769 0.000342017 0)
(-0.00606445 0.000315446 0)
(-0.00687176 0.000280025 0)
(-0.00754385 0.000233853 0)
(-0.00805213 0.000175247 0)
(-0.00836586 0.000103007 0)
(-0.00845333 1.7164e-05 0)
(-0.00828383 -8.29606e-05 0)
(-0.00783153 -0.000194353 0)
(-0.00708014 -0.000312156 0)
(-0.00602705 -0.000428852 0)
(-0.00469514 -0.000532126 0)
(-0.00316295 -0.00059832 0)
(-0.00142206 -0.000562951 0)
(-0.000240983 -0.000256228 0)
(-0.000338126 0.000826052 0)
(-0.00175106 0.00169489 0)
(-0.00380784 0.00189549 0)
(-0.00575246 0.00187103 0)
(-0.0076242 0.0017746 0)
(-0.00936035 0.00163818 0)
(-0.0109167 0.00146373 0)
(-0.0122541 0.00124782 0)
(-0.0133312 0.000986575 0)
(-0.0141053 0.000676714 0)
(-0.0145323 0.000316203 0)
(-0.014571 -9.54872e-05 0)
(-0.0141816 -0.000551808 0)
(-0.0133318 -0.00104058 0)
(-0.0120055 -0.00154207 0)
(-0.010207 -0.00202637 0)
(-0.00797933 -0.00244601 0)
(-0.00543955 -0.00270858 0)
(-0.00259129 -0.00257593 0)
(-0.000534491 -0.00140006 0)
(-0.000415045 0.00205263 0)
(-0.00207424 0.00379152 0)
(-0.00444986 0.00417041 0)
(-0.00668728 0.00409207 0)
(-0.00883406 0.00385724 0)
(-0.0108203 0.0035311 0)
(-0.0125973 0.00312102 0)
(-0.0141222 0.00262376 0)
(-0.0153503 0.00203469 0)
(-0.0162357 0.00134987 0)
(-0.0167324 0.000567621 0)
(-0.0167914 -0.000310134 0)
(-0.016365 -0.00127174 0)
(-0.015416 -0.00229296 0)
(-0.0139203 -0.00333408 0)
(-0.0118747 -0.00433481 0)
(-0.00931984 -0.00520069 0)
(-0.00638431 -0.00574621 0)
(-0.00306784 -0.00550362 0)
(-0.000644683 -0.00317932 0)
(-0.000440942 0.00329755 0)
(-0.00221418 0.00594152 0)
(-0.00475258 0.00649913 0)
(-0.00713902 0.00636297 0)
(-0.00943206 0.00598902 0)
(-0.0115599 0.00547536 0)
(-0.0134742 0.00483388 0)
(-0.0151322 0.00406083 0)
(-0.0164887 0.00314972 0)
(-0.0174958 0.00209441 0)
(-0.0181034 0.00089171 0)
(-0.0182576 -0.000454496 0)
(-0.0178991 -0.00193327 0)
(-0.0169719 -0.00351198 0)
(-0.0154331 -0.00513396 0)
(-0.0132596 -0.00670853 0)
(-0.0104769 -0.00808771 0)
(-0.00722075 -0.00897753 0)
(-0.00348544 -0.0086481 0)
(-0.000733567 -0.00508235 0)
(-0.000461307 0.0046192 0)
(-0.00233931 0.0082297 0)
(-0.00503571 0.00897697 0)
(-0.00757065 0.00878243 0)
(-0.0100143 0.00826773 0)
(-0.0122941 0.00756558 0)
(-0.0143636 0.00669259 0)
(-0.016182 0.00564391 0)
(-0.0177046 0.00441009 0)
(-0.0188824 0.00298065 0)
(-0.0196598 0.00134736 0)
(-0.0199746 -0.000490867 0)
(-0.0197519 -0.00252507 0)
(-0.0189112 -0.00472015 0)
(-0.0173781 -0.00700731 0)
(-0.0150922 -0.00926556 0)
(-0.0120461 -0.0112829 0)
(-0.00837717 -0.0126265 0)
(-0.00407561 -0.012246 0)
(-0.00086355 -0.00727595 0)
(-0.000487109 0.00601968 0)
(-0.0024932 0.0106692 0)
(-0.00538245 0.0116213 0)
(-0.00809967 0.01137 0)
(-0.0107284 0.0107156 0)
(-0.0131958 0.0098283 0)
(-0.0154589 0.00872972 0)
(-0.0174804 0.00741337 0)
(-0.0192183 0.00586528 0)
(-0.0206234 0.00406776 0)
(-0.0216363 0.00200289 0)
(-0.0221864 -0.000342483 0)
(-0.022179 -0.00296975 0)
(-0.0214999 -0.00585309 0)
(-0.0200293 -0.00891904 0)
(-0.0176479 -0.0120187 0)
(-0.0142863 -0.0148646 0)
(-0.0100645 -0.0168421 0)
(-0.00496374 -0.016483 0)
(-0.00106998 -0.0098951 0)
(-0.00052022 0.0075174 0)
(-0.00268509 0.0132924 0)
(-0.0058106 0.0144671 0)
(-0.0087492 0.0141601 0)
(-0.0116009 0.0133673 0)
(-0.0142932 0.0122997 0)
(-0.0167888 0.0109849 0)
(-0.0190565 0.00941463 0)
(-0.0210601 0.00756884 0)
(-0.022754 0.00541935 0)
(-0.0240784 0.00293237 0)
(-0.0249545 7.36696e-05 0)
(-0.0252691 -0.00317676 0)
(-0.0248687 -0.00682434 0)
(-0.0235685 -0.0108086 0)
(-0.0211594 -0.0149652 0)
(-0.0174618 -0.0189232 0)
(-0.0125307 -0.0218296 0)
(-0.00632153 -0.0216354 0)
(-0.00140928 -0.013165 0)
(-0.000561029 0.00913573 0)
(-0.00291798 0.0161397 0)
(-0.00632564 0.0175559 0)
(-0.00952404 0.0171917 0)
(-0.012634 0.0162596 0)
(-0.0155844 0.0150165 0)
(-0.0183461 0.0134975 0)
(-0.0208982 0.011693 0)
(-0.0232151 0.00957665 0)
(-0.0252612 0.00710697 0)
(-0.0269829 0.00422857 0)
(-0.0282961 0.000876581 0)
(-0.029078 -0.00301087 0)
(-0.0291364 -0.00749073 0)
(-0.0282001 -0.0125501 0)
(-0.0259304 -0.0180429 0)
(-0.0219648 -0.0235237 0)
(-0.0161842 -0.027839 0)
(-0.00847866 -0.0280963 0)
(-0.00200573 -0.0174624 0)
(-0.000610598 0.0108996 0)
(-0.00319638 0.0192537 0)
(-0.00693436 0.0209287 0)
(-0.0104289 0.0205006 0)
(-0.0138274 0.019424 0)
(-0.0170612 0.0180084 0)
(-0.0201135 0.016299 0)
(-0.0229782 0.0142871 0)
(-0.0256469 0.0119407 0)
(-0.0281027 0.00920416 0)
(-0.0303091 0.0059963 0)
(-0.032194 0.00221064 0)
(-0.0336372 -0.00228049 0)
(-0.0344146 -0.00762111 0)
(-0.0341647 -0.0139003 0)
(-0.0323763 -0.0210614 0)
(-0.028404 -0.0286381 0)
(-0.0217476 -0.0351278 0)
(-0.012136 -0.0364287 0)
(-0.00315602 -0.0234759 0)
(-0.000671741 0.0128377 0)
(-0.0035296 0.0226809 0)
(-0.00765 0.0246266 0)
(-0.0114742 0.0241182 0)
(-0.0151842 0.0228843 0)
(-0.0187158 0.0212947 0)
(-0.0220687 0.0194089 0)
(-0.0252575 0.0172226 0)
(-0.0282991 0.0147013 0)
(-0.0312065 0.011778 0)
(-0.0339774 0.00834457 0)
(-0.0365739 0.00424311 0)
(-0.0389119 -0.000742618 0)
(-0.0407682 -0.00686436 0)
(-0.0417114 -0.0144274 0)
(-0.0410424 -0.0235859 0)
(-0.0377231 -0.0339991 0)
(-0.0305592 -0.0438386 0)
(-0.0188754 -0.0474073 0)
(-0.00559809 -0.0325965 0)
(-0.000750616 0.0149873 0)
(-0.00393578 0.0264755 0)
(-0.00849742 0.0286913 0)
(-0.012681 0.0280705 0)
(-0.0167154 0.0266534 0)
(-0.0205437 0.0248797 0)
(-0.0241872 0.0228279 0)
(-0.0276871 0.0205033 0)
(-0.031093 0.0178758 0)
(-0.0344611 0.0148743 0)
(-0.037846 0.0113722 0)
(-0.0412841 0.00716352 0)
(-0.0447507 0.00193638 0)
(-0.048125 -0.00472943 0)
(-0.0510167 -0.0134267 0)
(-0.0525814 -0.0247351 0)
(-0.0513581 -0.0387523 0)
(-0.0451108 -0.0535641 0)
(-0.0321831 -0.0618518 0)
(-0.0111679 -0.0479555 0)
(-0.000860004 0.0174028 0)
(-0.00444879 0.0307049 0)
(-0.00952074 0.033166 0)
(-0.0140875 0.0323753 0)
(-0.0184451 0.0307297 0)
(-0.0225489 0.0287478 0)
(-0.0264471 0.0265314 0)
(-0.0302115 0.0241015 0)
(-0.0339302 0.0214422 0)
(-0.0377127 0.0184945 0)
(-0.0416919 0.0151363 0)
(-0.0460164 0.0111453 0)
(-0.0508214 0.00614148 0)
(-0.0561932 -0.000501418 0)
(-0.0619931 -0.00969696 0)
(-0.0675714 -0.0227377 0)
(-0.0712404 -0.0406858 0)
(-0.0694708 -0.0623485 0)
(-0.0582974 -0.0803726 0)
(-0.0234226 -0.075795 0)
(-0.00102677 0.0201673 0)
(-0.00513151 0.0354521 0)
(-0.0107952 0.0380808 0)
(-0.0157579 0.0370254 0)
(-0.0204178 0.0350853 0)
(-0.0247499 0.032857 0)
(-0.0288357 0.0304638 0)
(-0.0327784 0.0279479 0)
(-0.0367022 0.0253203 0)
(-0.0407695 0.022556 0)
(-0.0451987 0.0195729 0)
(-0.0502871 0.0161873 0)
(-0.056427 0.0120215 0)
(-0.0640948 0.00634707 0)
(-0.0738426 -0.00207054 0)
(-0.08591 -0.0151864 0)
(-0.0988655 -0.0357604 0)
(-0.1073 -0.0660644 0)
(-0.100482 -0.103611 0)
(-0.0412553 -0.128447 0)
(-0.00130932 0.0234285 0)
(-0.00612032 0.0409394 0)
(-0.0124577 0.0436465 0)
(-0.0177863 0.0422022 0)
(-0.0226912 0.0398145 0)
(-0.027178 0.0372097 0)
(-0.0313582 0.0345599 0)
(-0.0353565 0.0319331 0)
(-0.0393232 0.0293689 0)
(-0.0434608 0.0268969 0)
(-0.0480621 0.0245361 0)
(-0.0535764 0.0222548 0)
(-0.0607102 0.0198725 0)
(-0.0705287 0.016855 0)
(-0.0845626 0.0119906 0)
(-0.104674 0.00258694 0)
(-0.130085 -0.017596 0)
(-0.150044 -0.0617674 0)
(-0.142633 -0.139432 0)
(-0.0476013 -0.219547 0)
(-0.00171428 0.0275543 0)
(-0.00733648 0.0464882 0)
(-0.014573 0.0487662 0)
(-0.0203294 0.0465817 0)
(-0.0254813 0.0438144 0)
(-0.0300072 0.0410405 0)
(-0.0341095 0.0383329 0)
(-0.037962 0.0357232 0)
(-0.0417213 0.033279 0)
(-0.0455686 0.0311114 0)
(-0.049782 0.0293948 0)
(-0.0548575 0.0283618 0)
(-0.0617031 0.0282802 0)
(-0.0718855 0.029223 0)
(-0.0880709 0.030557 0)
(-0.113552 0.0281689 0)
(-0.147084 0.00900734 0)
(-0.167652 -0.0609572 0)
(-0.152581 -0.200874 0)
(-0.0343061 -0.333461 0)
(-0.0036778 0.0313882 0)
(-0.0113203 0.0557316 0)
(-0.0181488 0.0577026 0)
(-0.0236061 0.0550441 0)
(-0.0283477 0.0511117 0)
(-0.0326851 0.0471967 0)
(-0.0366633 0.0435566 0)
(-0.0403458 0.0402929 0)
(-0.0437935 0.0375004 0)
(-0.0471012 0.0353325 0)
(-0.0504383 0.034106 0)
(-0.0541403 0.0343837 0)
(-0.0589471 0.037127 0)
(-0.0661308 0.0432423 0)
(-0.078236 0.052827 0)
(-0.0973188 0.057651 0)
(-0.124617 0.037223 0)
(-0.134355 -0.064476 0)
(-0.124125 -0.26399 0)
(-0.0226692 -0.430141 0)
(-0.00139393 0.0454658 0)
(-0.00941543 0.0585154 0)
(-0.0212615 0.0579985 0)
(-0.0273631 0.0533342 0)
(-0.0331141 0.0497794 0)
(-0.0372829 0.0466683 0)
(-0.0405625 0.0438339 0)
(-0.0431921 0.0411682 0)
(-0.0452952 0.0387754 0)
(-0.0468852 0.0368141 0)
(-0.0479064 0.0357674 0)
(-0.048211 0.0363009 0)
(-0.0479069 0.0399997 0)
(-0.046574 0.0477116 0)
(-0.0464111 0.0608593 0)
(-0.0444192 0.0670651 0)
(-0.0554263 0.0460849 0)
(-0.0528111 -0.0678314 0)
(-0.0678669 -0.298346 0)
(-0.00352669 -0.497766 0)
(-0.011636 0.035274 0)
(-0.0253354 0.0813247 0)
(-0.0261619 0.0787934 0)
(-0.033691 0.0732922 0)
(-0.0369975 0.0658817 0)
(-0.038766 0.0591466 0)
(-0.038999 0.0532566 0)
(-0.0381994 0.0481522 0)
(-0.0366185 0.0437991 0)
(-0.0342188 0.0401473 0)
(-0.0311808 0.0374592 0)
(-0.0267227 0.0362527 0)
(-0.0213263 0.0381756 0)
(-0.0112255 0.043591 0)
(-0.000655862 0.0562464 0)
(0.0243625 0.0636177 0)
(0.0352532 0.0514589 0)
(0.0716407 -0.0473545 0)
(0.0273156 -0.289723 0)
(0.048303 -0.50938 0)
(-0.0758521 0.0986918 0)
(-0.0611294 0.0618637 0)
(-0.0626243 0.0609067 0)
(-0.0421842 0.0541457 0)
(-0.0253324 0.0471366 0)
(-0.00650072 0.0417119 0)
(0.0111146 0.03759 0)
(0.0281207 0.033894 0)
(0.0435077 0.0309469 0)
(0.0586706 0.0279248 0)
(0.0718109 0.0258791 0)
(0.0864939 0.0237866 0)
(0.0973036 0.0234978 0)
(0.118664 0.0239708 0)
(0.126695 0.0241386 0)
(0.173747 0.0222752 0)
(0.176497 -0.00745874 0)
(0.233772 -0.0708423 0)
(0.168904 -0.262177 0)
(0.128922 -0.445149 0)
(0.12025 0.140199 0)
(0.153292 0.0862923 0)
(0.231953 0.0640706 0)
(0.287254 0.0489299 0)
(0.32998 0.0384204 0)
(0.368345 0.0307329 0)
(0.398368 0.0253477 0)
(0.429497 0.0214719 0)
(0.450031 0.0182115 0)
(0.478209 0.0162214 0)
(0.490135 0.013829 0)
(0.51938 0.0127113 0)
(0.521755 0.0112406 0)
(0.556275 0.0102591 0)
(0.54778 0.00979481 0)
(0.586774 0.00563836 0)
(0.559379 -0.00288838 0)
(0.573399 -0.0272521 0)
(0.440915 -0.0817529 0)
(0.277716 -0.158659 0)
)
;

boundaryField
{
    movingWall
    {
        type            fixedValue;
        value           uniform (1 0 0);
    }
    fixedWalls
    {
        type            noSlip;
    }
    frontAndBack
    {
        type            empty;
    }
}


// ************************************************************************* //
