/*--------------------------------*- C++ -*----------------------------------*\
  =========                 |
  \\      /  F ield         | OpenFOAM: The Open Source CFD Toolbox
   \\    /   O peration     | Website:  https://openfoam.org
    \\  /    A nd           | Version:  10
     \\/     M anipulation  |
\*---------------------------------------------------------------------------*/
FoamFile
{
    format      ascii;
    class       volVectorField;
    location    "8.775";
    object      U;
}
// * * * * * * * * * * * * * * * * * * * * * * * * * * * * * * * * * * * * * //

dimensions      [0 1 -1 0 0 0 0];

internalField   nonuniform List<vector> 
8000
(
(-8.11552e-05 0.000110488 -4.23851e-05)
(-0.000559222 0.000229622 -5.28787e-06)
(-0.00134779 0.000267327 1.28357e-05)
(-0.00216234 0.000284359 2.23372e-05)
(-0.00302287 0.000299293 2.29591e-05)
(-0.00390871 0.000317352 1.77293e-05)
(-0.00481226 0.000337648 7.77413e-06)
(-0.00572052 0.000356991 -7.62681e-06)
(-0.00660904 0.000371022 -3.01267e-05)
(-0.00743896 0.000374336 -6.18581e-05)
(-0.00815396 0.00036054 -0.000105137)
(-0.00867901 0.000322928 -0.000161943)
(-0.0089231 0.000256504 -0.000232963)
(-0.00878842 0.000159975 -0.000316281)
(-0.00818809 3.62595e-05 -0.000405512)
(-0.00707341 -0.000102938 -0.000486805)
(-0.00547898 -0.000226203 -0.000540228)
(-0.00359257 -0.00029213 -0.000542493)
(-0.00152887 -0.000259475 -0.000476154)
(-0.00022275 -4.2627e-05 -0.000248864)
(-0.000196412 0.000717348 -0.000129688)
(-0.00104885 0.00124423 -0.000115291)
(-0.0023578 0.00142305 -0.000104936)
(-0.00371003 0.0015003 -9.6467e-05)
(-0.00512786 0.0015526 -9.47828e-05)
(-0.00657369 0.0016021 -9.80157e-05)
(-0.0080287 0.00164747 -0.000105633)
(-0.00946773 0.00167775 -0.00011886)
(-0.0108501 0.00167681 -0.000139887)
(-0.012115 0.00162463 -0.000171617)
(-0.0131777 0.00149837 -0.000217396)
(-0.013927 0.00127496 -0.000280369)
(-0.01423 0.000935777 -0.000362109)
(-0.0139482 0.000475687 -0.000461055)
(-0.012961 -8.25162e-05 -0.000572612)
(-0.0111946 -0.000677582 -0.000672966)
(-0.00869773 -0.00119651 -0.000736357)
(-0.00574589 -0.00147983 -0.000729707)
(-0.00251392 -0.00136437 -0.000624253)
(-0.000409882 -0.00054017 -0.000282947)
(-0.000232368 0.00172697 -0.000178608)
(-0.00122081 0.00284607 -0.000176975)
(-0.00272322 0.00323014 -0.000170863)
(-0.00426635 0.00338827 -0.000162173)
(-0.00587925 0.00348096 -0.00015876)
(-0.00752027 0.0035548 -0.000159517)
(-0.00917006 0.00360997 -0.000164341)
(-0.0108032 0.00362723 -0.000174914)
(-0.0123782 0.00357663 -0.000194048)
(-0.0138318 0.00342015 -0.000225632)
(-0.0150736 0.0031142 -0.000274356)
(-0.015983 0.00261451 -0.000345049)
(-0.0164099 0.0018856 -0.000441382)
(-0.0161821 0.000918412 -0.000563714)
(-0.0151333 -0.000243851 -0.0007033)
(-0.0131498 -0.00148467 -0.000835149)
(-0.0102567 -0.00258228 -0.0009213)
(-0.00677081 -0.00320495 -0.000914293)
(-0.00290069 -0.00300485 -0.000774143)
(-0.000429566 -0.0013591 -0.000333185)
(-0.000235647 0.0027942 -0.000213005)
(-0.00126065 0.00454522 -0.000222237)
(-0.00282352 0.0051399 -0.000219719)
(-0.00442501 0.00537639 -0.000211245)
(-0.00610279 0.00550855 -0.000207129)
(-0.00781743 0.00561014 -0.000206942)
(-0.00955533 0.00568442 -0.000211043)
(-0.0112981 0.00570576 -0.000221652)
(-0.0130119 0.00563219 -0.000242358)
(-0.0146401 0.00540831 -0.000278309)
(-0.0160956 0.00496785 -0.000336196)
(-0.0172518 0.00424031 -0.000423517)
(-0.0179376 0.00316494 -0.000546705)
(-0.0179403 0.0017154 -0.000708384)
(-0.0170344 -6.50826e-05 -0.000905551)
(-0.0150177 -0.00200879 -0.00109963)
(-0.0118309 -0.00378887 -0.00123581)
(-0.00782036 -0.00485452 -0.00124015)
(-0.00322165 -0.00460945 -0.00104905)
(-0.000379165 -0.00203965 -0.000444987)
(-0.000223388 0.00391396 -0.000236325)
(-0.00123835 0.0063363 -0.000254787)
(-0.00280306 0.0071547 -0.000255268)
(-0.00440913 0.00747703 -0.000247505)
(-0.00610211 0.00765901 -0.000244059)
(-0.00784773 0.00780562 -0.000245217)
(-0.00964216 0.00792635 -0.000251917)
(-0.0114791 0.00799225 -0.000267138)
(-0.0133387 0.00795223 -0.000295601)
(-0.0151791 0.00773529 -0.000344253)
(-0.0169238 0.00725112 -0.000422711)
(-0.018447 0.0063956 -0.000542932)
(-0.0195579 0.00506629 -0.000716967)
(-0.0199916 0.0031923 -0.000952282)
(-0.0194176 0.000789373 -0.00124106)
(-0.017508 -0.00195007 -0.00155689)
(-0.0140535 -0.00459613 -0.00180015)
(-0.00937389 -0.00631171 -0.00184643)
(-0.00370011 -0.00613275 -0.00157468)
(-0.000290527 -0.00252405 -0.000664887)
(-0.000203007 0.00504391 -0.00025376)
(-0.00118346 0.00816225 -0.000280621)
(-0.00271958 0.0092164 -0.000283896)
(-0.00430233 0.0096349 -0.000277331)
(-0.00598349 0.00988286 -0.000275638)
(-0.00773547 0.0101018 -0.000279945)
(-0.00956665 0.0103123 -0.000291944)
(-0.0114868 0.0104874 -0.000315669)
(-0.0134962 0.0105719 -0.000357444)
(-0.0155766 0.0104843 -0.000426793)
(-0.0176743 0.0101123 -0.000537591)
(-0.0196769 0.00931349 -0.000708787)
(-0.0213851 0.00792633 -0.00096254)
(-0.0224829 0.00580393 -0.0013166)
(-0.0225231 0.00288033 -0.00177285)
(-0.0209909 -0.000708482 -0.00231593)
(-0.0173935 -0.00440109 -0.00278584)
(-0.0119001 -0.00712392 -0.00296466)
(-0.00459669 -0.00729648 -0.00258127)
(-0.000199606 -0.00263105 -0.00108163)
(-0.000176749 0.00616304 -0.000269444)
(-0.0011061 0.00999474 -0.000304738)
(-0.00259196 0.0112955 -0.000310732)
(-0.0041279 0.0118201 -0.000305389)
(-0.00577027 0.0121507 -0.000305666)
(-0.00749802 0.0124718 -0.000313749)
(-0.00933294 0.0128218 -0.000332354)
(-0.0113038 0.0131835 -0.000366904)
(-0.0134367 0.0135078 -0.000425862)
(-0.0157465 0.0137125 -0.000522367)
(-0.0182192 0.0136741 -0.000676533)
(-0.0207821 0.0132186 -0.000918096)
(-0.0232576 0.0121198 -0.00128692)
(-0.0253097 0.0101238 -0.00182565)
(-0.0263885 0.00701977 -0.00256239)
(-0.0256929 0.00277815 -0.00348108)
(-0.0223783 -0.00215061 -0.00444597)
(-0.0161811 -0.00638624 -0.00498658)
(-0.00656576 -0.00759875 -0.00451125)
(-0.000304218 -0.00224603 -0.00191721)
(-0.000145206 0.00725911 -0.000285631)
(-0.00100978 0.0118176 -0.000329886)
(-0.00242572 0.0133722 -0.000338292)
(-0.00388852 0.014007 -0.000333444)
(-0.00545707 0.0144299 -0.000334829)
(-0.00711523 0.0148762 -0.000345941)
(-0.00889712 0.0154104 -0.00037076)
(-0.0108508 0.0160354 -0.000416436)
(-0.0130315 0.0167224 -0.000494147)
(-0.0154954 0.0174088 -0.000621587)
(-0.018285 0.0179851 -0.00082709)
(-0.0213992 0.0182745 -0.0011555)
(-0.0247382 0.0180134 -0.00167357)
(-0.0280179 0.0168433 -0.00246769)
(-0.0306748 0.0143473 -0.00361809)
(-0.0317534 0.0101547 -0.00514127)
(-0.0297637 0.00418403 -0.00691513)
(-0.0235535 -0.00247609 -0.00832249)
(-0.0112526 -0.00616608 -0.00795198)
(-0.0012908 -0.0014102 -0.00368629)
(-0.000109791 0.00832484 -0.000303917)
(-0.000899915 0.0136206 -0.000357944)
(-0.00222851 0.015428 -0.000368079)
(-0.00358831 0.016165 -0.000362115)
(-0.00503857 0.0166744 -0.000362543)
(-0.0065648 0.0172514 -0.000374416)
(-0.00820986 0.0179954 -0.000403157)
(-0.0100373 0.0189413 -0.000457777)
(-0.0121274 0.0200981 -0.000552294)
(-0.0145775 0.0214503 -0.000709323)
(-0.0174962 0.0229442 -0.00096629)
(-0.0209833 0.0244633 -0.00138477)
(-0.0250863 0.0257928 -0.00206127)
(-0.029717 0.0265573 -0.00313108)
(-0.0345084 0.0261264 -0.00475124)
(-0.0385647 0.0234605 -0.00702607)
(-0.03998 0.0170123 -0.00980765)
(-0.0357116 0.00639187 -0.0125075)
(-0.0214779 -0.00309017 -0.0128516)
(-0.00473664 -0.000972552 -0.00724908)
(-7.43087e-05 0.00936117 -0.000326266)
(-0.000789396 0.0154023 -0.000391057)
(-0.00201997 0.0174485 -0.00040184)
(-0.00324655 0.0182597 -0.000392218)
(-0.0045274 0.018825 -0.000388357)
(-0.00584491 0.0195087 -0.000397098)
(-0.00724452 0.0204527 -0.000425398)
(-0.00879633 0.0217348 -0.00048396)
(-0.0105932 0.0234191 -0.000589039)
(-0.0127578 0.0255665 -0.000766569)
(-0.0154474 0.0282285 -0.0010591)
(-0.0188549 0.0314296 -0.00153483)
(-0.0232119 0.0351252 -0.00229191)
(-0.0287776 0.0390359 -0.00344372)
(-0.0357755 0.0422514 -0.00509781)
(-0.0440972 0.0424345 -0.00738458)
(-0.0516224 0.0350998 -0.0105881)
(-0.0527867 0.0170945 -0.0143967)
(-0.0392728 -0.00332456 -0.015693)
(-0.0120941 -0.00450843 -0.0120513)
(-4.66807e-05 0.0103849 -0.000355997)
(-0.000703751 0.0171786 -0.000432561)
(-0.00183976 0.0194285 -0.00044237)
(-0.00290816 0.0202576 -0.000425559)
(-0.0039675 0.0208137 -0.000412698)
(-0.00499192 0.021539 -0.000412872)
(-0.00602225 0.0226212 -0.000434389)
(-0.00712075 0.0241854 -0.000488945)
(-0.00837033 0.0263608 -0.000593304)
(-0.00988579 0.0293043 -0.000772194)
(-0.0118298 0.0332115 -0.00106188)
(-0.0144349 0.0383047 -0.00150638)
(-0.0181012 0.0447834 -0.00211874)
(-0.0235531 0.0524086 -0.00277773)
(-0.0319536 0.0595412 -0.00326307)
(-0.0446963 0.0614252 -0.00361846)
(-0.0607069 0.0495717 -0.00529844)
(-0.0715604 0.0182435 -0.00807874)
(-0.0601509 -0.0180446 -0.0084949)
(-0.0206676 -0.0223062 -0.0121349)
(-4.22652e-05 0.0114447 -0.000399201)
(-0.000689422 0.0190021 -0.000490245)
(-0.00175783 0.0213934 -0.000498072)
(-0.00265347 0.0221479 -0.000469975)
(-0.00344441 0.0225882 -0.000441884)
(-0.00409425 0.0232405 -0.000426416)
(-0.00463467 0.0243362 -0.000433272)
(-0.00510372 0.0260403 -0.000474221)
(-0.00554555 0.0285398 -0.000564076)
(-0.0060202 0.03208 -0.000718972)
(-0.00663062 0.0369921 -0.000948956)
(-0.00755471 0.0436461 -0.00122097)
(-0.00931557 0.0523645 -0.00134267)
(-0.0132238 0.0626355 -0.000693357)
(-0.0219731 0.0714625 0.00146558)
(-0.0400764 0.0712651 0.0050775)
(-0.069281 0.0507018 0.00828135)
(-0.0927746 -0.00136447 0.0123373)
(-0.0788645 -0.0589196 0.0137939)
(-0.0271042 -0.0625812 -0.00276426)
(-8.79916e-05 0.0126247 -0.000465488)
(-0.000818684 0.0209369 -0.000569831)
(-0.001878 0.0233462 -0.000569068)
(-0.00260266 0.0238775 -0.000521718)
(-0.00309085 0.0240552 -0.000471648)
(-0.00329872 0.024482 -0.000435173)
(-0.0032519 0.0254122 -0.00042189)
(-0.00295395 0.027031 -0.000441516)
(-0.00238691 0.0295492 -0.000504914)
(-0.0015173 0.0332567 -0.0006143)
(-0.000361476 0.0385482 -0.000741414)
(0.000991782 0.0458419 -0.000734492)
(0.00190096 0.0553795 -0.000128514)
(0.000215761 0.066091 0.00226332)
(-0.00931811 0.0740568 0.00782611)
(-0.0358263 0.0695583 0.0169408)
(-0.0832136 0.0345691 0.0291621)
(-0.113333 -0.0538174 0.0403031)
(-0.0958237 -0.133607 0.0304145)
(-0.0351558 -0.128745 0.00570327)
(-0.000251231 0.0141428 -0.00059199)
(-0.00125002 0.0232808 -0.000727924)
(-0.0023865 0.0255934 -0.000727278)
(-0.00293011 0.0257364 -0.000654732)
(-0.00307016 0.0254414 -0.000566333)
(-0.00278533 0.0254027 -0.00048948)
(-0.00210104 0.0258994 -0.000439278)
(-0.000983183 0.0271109 -0.000427242)
(0.000656093 0.0292482 -0.000454634)
(0.0029599 0.0325742 -0.000514751)
(0.00603183 0.0374575 -0.000544984)
(0.00988377 0.0442574 -0.000328739)
(0.013658 0.0531209 0.000869916)
(0.0147015 0.0627432 0.00475655)
(0.00525431 0.0692365 0.0135475)
(-0.0283973 0.0590119 0.0278791)
(-0.0865112 0.000835541 0.0452522)
(-0.116187 -0.12488 0.0451791)
(-0.112069 -0.209113 0.0228347)
(-0.04327 -0.211867 -1.70179e-06)
(-0.000578662 0.0165218 -0.000791206)
(-0.00203633 0.0259072 -0.000908003)
(-0.00337995 0.0275681 -0.000876151)
(-0.00381106 0.0268486 -0.000751116)
(-0.00364603 0.0258765 -0.000622456)
(-0.00286314 0.0252968 -0.00051246)
(-0.00152791 0.0253031 -0.000436639)
(0.00041636 0.0259743 -0.000399395)
(0.00310418 0.0274762 -0.000409666)
(0.00676078 0.0299737 -0.00045626)
(0.0115976 0.0337596 -0.000450408)
(0.0178003 0.039024 -0.000198722)
(0.0245787 0.045859 0.00120947)
(0.0297541 0.0531923 0.00543101)
(0.0253035 0.0580809 0.0155083)
(-0.00149016 0.0430739 0.0308136)
(-0.0567541 -0.0299981 0.0436647)
(-0.0910004 -0.161555 0.0316202)
(-0.115365 -0.255573 0.0130593)
(-0.0444168 -0.289714 -0.0153758)
(-0.0019478 0.0188269 -0.00129116)
(-0.00475624 0.0303436 -0.00152541)
(-0.00587881 0.0315252 -0.00144308)
(-0.00578509 0.0301823 -0.00123499)
(-0.0048614 0.0281464 -0.000990863)
(-0.00336047 0.0264444 -0.00077124)
(-0.00134935 0.0253245 -0.000609328)
(0.00131067 0.0248663 -0.000506828)
(0.00482448 0.0251733 -0.000491678)
(0.00950414 0.026286 -0.000550999)
(0.0156361 0.0283856 -0.00060626)
(0.0235762 0.0314227 -0.000471483)
(0.0327118 0.0353751 0.000649083)
(0.0420975 0.0390265 0.00395272)
(0.0447672 0.0413507 0.0123753)
(0.0347616 0.0267713 0.0251802)
(-0.0096826 -0.0415843 0.0333774)
(-0.0513124 -0.160189 0.0239558)
(-0.104048 -0.277932 0.00862723)
(-0.0406581 -0.34835 -0.0308423)
(-0.00132747 0.0302237 -0.00230192)
(-0.00489088 0.0339923 -0.00221077)
(-0.00809895 0.0324727 -0.00199892)
(-0.00816564 0.0284802 -0.00152253)
(-0.00731661 0.0254981 -0.00116955)
(-0.0052437 0.023344 -0.000868805)
(-0.00240845 0.0219146 -0.000658088)
(0.0012164 0.0210077 -0.000540261)
(0.00571454 0.0206184 -0.000546791)
(0.0114089 0.0206432 -0.000692969)
(0.0185183 0.0212369 -0.00089049)
(0.0275347 0.0220806 -0.00103358)
(0.0376481 0.0231538 -0.000517553)
(0.0494285 0.0227954 0.00133333)
(0.0554221 0.0208438 0.0067057)
(0.0586191 0.0077914 0.0156778)
(0.0240878 -0.0419067 0.0218387)
(-0.0117795 -0.141943 0.0203233)
(-0.0869472 -0.277035 0.00311644)
(-0.0323863 -0.385778 -0.0443671)
(-0.0128583 0.027523 -0.00306011)
(-0.0214563 0.0483261 -0.00389515)
(-0.0152375 0.0440283 -0.00378561)
(-0.0131126 0.0389836 -0.00326053)
(-0.00843367 0.0329578 -0.00247405)
(-0.0033564 0.0280081 -0.00176479)
(0.0020318 0.0241408 -0.00125021)
(0.0078319 0.0211367 -0.000944815)
(0.0140329 0.018958 -0.000863716)
(0.0212318 0.0172655 -0.00103145)
(0.0291521 0.0162025 -0.00134191)
(0.0389271 0.0151337 -0.00175232)
(0.0484742 0.0145368 -0.00182727)
(0.0609807 0.0123876 -0.00106639)
(0.0654434 0.00939822 0.00167673)
(0.0763054 -0.00112342 0.00773207)
(0.0497293 -0.031582 0.0119585)
(0.0407175 -0.11342 0.0166564)
(-0.0528288 -0.261074 -0.00119587)
(-0.0121049 -0.397556 -0.0554939)
(-0.0466624 0.0875223 -0.0125166)
(-0.0299064 0.0394665 -0.00902533)
(-0.0205202 0.0331109 -0.00697583)
(-0.00102596 0.0260164 -0.00503594)
(0.0154132 0.0195914 -0.00375166)
(0.0318733 0.0152642 -0.00276809)
(0.0462095 0.012478 -0.00207601)
(0.0598338 0.0103124 -0.0016684)
(0.0714802 0.00889945 -0.00147633)
(0.0839033 0.00754921 -0.00155685)
(0.0938668 0.0069602 -0.00180725)
(0.107364 0.00589828 -0.00227733)
(0.115513 0.00544389 -0.00266795)
(0.133087 0.00326422 -0.00269493)
(0.133637 -0.000374224 -0.00190452)
(0.156168 -0.0107507 0.00166597)
(0.129034 -0.0362837 0.00495079)
(0.151446 -0.0988371 0.0105366)
(0.0313578 -0.234528 -0.0039175)
(0.0356176 -0.364909 -0.0657368)
(0.117508 0.112302 -0.0111823)
(0.144081 0.0598927 -0.0118868)
(0.215923 0.0394909 -0.011822)
(0.260775 0.0261878 -0.0107005)
(0.293407 0.0173514 -0.0092915)
(0.321098 0.0113818 -0.00809401)
(0.341653 0.00766477 -0.00699328)
(0.361399 0.00511626 -0.00615598)
(0.374119 0.0036237 -0.00538888)
(0.39074 0.00242408 -0.00488298)
(0.397662 0.00185392 -0.00448124)
(0.41503 0.0012171 -0.00422608)
(0.415405 0.000921812 -0.00413297)
(0.436801 7.28951e-05 -0.00383875)
(0.424911 -0.00132823 -0.00364046)
(0.449639 -0.00500572 -0.00275498)
(0.405072 -0.0136251 -0.00174956)
(0.415433 -0.0324454 -0.00180586)
(0.249589 -0.07245 -0.0100215)
(0.16736 -0.137944 -0.0755472)
(-0.000136177 0.000165428 -0.000142243)
(-0.000951179 0.000411131 -0.000109501)
(-0.00230418 0.000496488 -8.38108e-05)
(-0.00369354 0.000526602 -6.97614e-05)
(-0.00513722 0.000544326 -7.33571e-05)
(-0.00659866 0.000563298 -9.12136e-05)
(-0.00806333 0.000583096 -0.000122785)
(-0.00950857 0.000598426 -0.000170835)
(-0.0108941 0.000601973 -0.000239926)
(-0.0121588 0.000584731 -0.000335465)
(-0.0132165 0.000536194 -0.000462859)
(-0.0139558 0.000445526 -0.000626019)
(-0.0142441 0.000304709 -0.000824915)
(-0.0139411 0.000111538 -0.00105261)
(-0.0129219 -0.000130532 -0.00128939)
(-0.0111185 -0.000391137 -0.00150139)
(-0.00858593 -0.000613696 -0.00164068)
(-0.00560184 -0.00071484 -0.00165392)
(-0.00237134 -0.000601025 -0.00149191)
(-0.000346399 -0.000128819 -0.000898238)
(-0.000400628 0.00112175 -0.000330495)
(-0.0020424 0.00218088 -0.000358023)
(-0.00453187 0.00256268 -0.000348012)
(-0.00709186 0.0026964 -0.000333879)
(-0.00972774 0.00275212 -0.000335251)
(-0.0123636 0.00278479 -0.000352072)
(-0.0149575 0.00279639 -0.000385638)
(-0.0174577 0.00276863 -0.000440644)
(-0.0197885 0.00267423 -0.000523859)
(-0.0218443 0.00247981 -0.000643318)
(-0.0234852 0.00214828 -0.000807233)
(-0.0245365 0.00164357 -0.00102181)
(-0.0247986 0.000938911 -0.00128771)
(-0.0240733 3.2064e-05 -0.00159809)
(-0.0221846 -0.00102959 -0.00192562)
(-0.0190399 -0.00212561 -0.00221746)
(-0.0147426 -0.00303897 -0.00240471)
(-0.00971943 -0.00345268 -0.00240554)
(-0.00430533 -0.00300874 -0.00213052)
(-0.000752818 -0.00116647 -0.00118406)
(-0.000508582 0.00274363 -0.000441026)
(-0.00251403 0.00497402 -0.000506026)
(-0.0055055 0.00577766 -0.000506213)
(-0.00856258 0.00604711 -0.000490702)
(-0.0116935 0.00613218 -0.00048776)
(-0.0148092 0.00614555 -0.000499708)
(-0.0178612 0.00609578 -0.00052938)
(-0.0207921 0.00595067 -0.000583211)
(-0.0235191 0.00565918 -0.000670235)
(-0.0259275 0.00515797 -0.000801621)
(-0.027864 0.00437684 -0.000989441)
(-0.029136 0.00324811 -0.00124445)
(-0.0295155 0.0017237 -0.00157254)
(-0.0287523 -0.000195327 -0.00196745)
(-0.0266114 -0.00241709 -0.00239563)
(-0.022946 -0.00470675 -0.00279216)
(-0.0178282 -0.00662945 -0.00305569)
(-0.011754 -0.00752944 -0.00306208)
(-0.00513415 -0.00665438 -0.00268253)
(-0.000849639 -0.00289725 -0.00143185)
(-0.000540655 0.00446919 -0.000524632)
(-0.00268775 0.00795345 -0.000621449)
(-0.00588771 0.00919082 -0.000630671)
(-0.00914788 0.0095881 -0.000615071)
(-0.0124875 0.00969547 -0.000610008)
(-0.0158187 0.00968849 -0.000619972)
(-0.0191003 0.00958434 -0.000649477)
(-0.022284 0.0093391 -0.000707062)
(-0.0252966 0.00887977 -0.000804758)
(-0.0280309 0.00811278 -0.000958192)
(-0.0303353 0.00693029 -0.00118583)
(-0.0320041 0.00522315 -0.00150642)
(-0.0327742 0.00290648 -0.00193433)
(-0.0323364 -3.76435e-05 -0.0024711)
(-0.0303526 -0.00349661 -0.00308665)
(-0.0265317 -0.00714271 -0.00368546)
(-0.0208234 -0.0102958 -0.0041138)
(-0.0137567 -0.0118618 -0.00416063)
(-0.00581592 -0.0105514 -0.00361458)
(-0.00082324 -0.00455085 -0.00186031)
(-0.000537833 0.00627861 -0.000588342)
(-0.00272462 0.0110934 -0.000713476)
(-0.00600515 0.0127889 -0.000730924)
(-0.00935045 0.0133245 -0.000716747)
(-0.0127919 0.0134681 -0.000712872)
(-0.0162502 0.0134653 -0.000726096)
(-0.0197004 0.0133461 -0.000762983)
(-0.0231135 0.0130587 -0.000834888)
(-0.0264381 0.0125107 -0.000958079)
(-0.0295878 0.0115777 -0.00115471)
(-0.0324241 0.010108 -0.00145321)
(-0.0347365 0.00793423 -0.00188633)
(-0.0362233 0.00490293 -0.00248447)
(-0.0364786 0.000932377 -0.00326208)
(-0.0350186 -0.00388656 -0.00419971)
(-0.0313283 -0.00917165 -0.00518413)
(-0.025088 -0.0139724 -0.00595516)
(-0.0167595 -0.0166032 -0.00612918)
(-0.00683863 -0.0149387 -0.00529286)
(-0.000748289 -0.00617327 -0.00259651)
(-0.00052007 0.0081117 -0.000641963)
(-0.00270176 0.0143103 -0.000794098)
(-0.00600783 0.0164878 -0.000819664)
(-0.00938961 0.0171791 -0.000808203)
(-0.0128894 0.0173849 -0.000808089)
(-0.0164407 0.0174296 -0.000828743)
(-0.0200407 0.0173635 -0.000879296)
(-0.0236884 0.0171328 -0.000974784)
(-0.0273657 0.0166313 -0.00113724)
(-0.0310226 0.0157068 -0.00139812)
(-0.034553 0.0141594 -0.00180073)
(-0.037761 0.0117465 -0.00240086)
(-0.040319 0.00820897 -0.00325943)
(-0.0417312 0.00333775 -0.00442513)
(-0.0413373 -0.0028996 -0.00592225)
(-0.0382931 -0.0101263 -0.00761479)
(-0.0317941 -0.0172009 -0.00908056)
(-0.0219272 -0.0217211 -0.00959941)
(-0.00885142 -0.0200894 -0.00827537)
(-0.000702497 -0.00780834 -0.00381937)
(-0.000494294 0.0099437 -0.000693911)
(-0.00264847 0.0175693 -0.00087398)
(-0.00595163 0.0202523 -0.000907695)
(-0.00934031 0.021118 -0.000899)
(-0.0128662 0.021415 -0.000903055)
(-0.0164771 0.0215584 -0.000932378)
(-0.0201967 0.0216278 -0.000999283)
(-0.0240597 0.0215785 -0.00112341)
(-0.0280939 0.0213013 -0.00133425)
(-0.0323053 0.0206262 -0.00167598)
(-0.0366507 0.0193105 -0.00221377)
(-0.0409915 0.0170308 -0.00304001)
(-0.0450276 0.013391 -0.00427385)
(-0.0482252 0.00798212 -0.00604235)
(-0.0497541 0.000533063 -0.00841739)
(-0.0484228 -0.00880528 -0.0113017)
(-0.0427045 -0.0190709 -0.0140769)
(-0.0315135 -0.0272331 -0.0153303)
(-0.0135964 -0.0269397 -0.0132813)
(-0.00106094 -0.0100994 -0.00588182)
(-0.000462274 0.0117632 -0.000749624)
(-0.00257427 0.0208556 -0.000960179)
(-0.00585342 0.0240637 -0.00100151)
(-0.00921846 0.0251157 -0.000993753)
(-0.0127282 0.025526 -0.000999624)
(-0.0163444 0.0258132 -0.00103523)
(-0.0201184 0.0260996 -0.00111653)
(-0.024126 0.0263645 -0.00126849)
(-0.0284527 0.0265151 -0.00152953)
(-0.0331823 0.0263868 -0.00195965)
(-0.038372 0.0257198 -0.00265293)
(-0.044006 0.0241315 -0.00375382)
(-0.0499169 0.0210983 -0.00546854)
(-0.0556769 0.015972 -0.00804325)
(-0.0604875 0.00805375 -0.011666)
(-0.0630079 -0.00327588 -0.0162219)
(-0.060662 -0.0180955 -0.0205962)
(-0.0496487 -0.0338471 -0.0226678)
(-0.0252286 -0.0385912 -0.0197966)
(-0.00305184 -0.0154181 -0.00935722)
(-0.000425895 0.0135641 -0.000813602)
(-0.00248692 0.0241613 -0.00105855)
(-0.00572422 0.0279038 -0.00110608)
(-0.00902867 0.0291377 -0.00109524)
(-0.0124637 0.0296636 -0.0010975)
(-0.0160014 0.0301195 -0.00113294)
(-0.0197194 0.030685 -0.00122136)
(-0.0237345 0.0313824 -0.001393)
(-0.0281938 0.0321621 -0.00169522)
(-0.0332746 0.0329036 -0.00220478)
(-0.0391727 0.033385 -0.0030483)
(-0.0460735 0.0332407 -0.00443045)
(-0.0541028 0.0319162 -0.00665514)
(-0.0632601 0.0285834 -0.0100819)
(-0.0732536 0.0218627 -0.0148675)
(-0.0828331 0.00915029 -0.0203002)
(-0.0881254 -0.0135417 -0.0243389)
(-0.0802048 -0.0454394 -0.0249152)
(-0.0488936 -0.0634343 -0.022324)
(-0.00902214 -0.0302153 -0.014385)
(-0.000390104 0.0153498 -0.000891436)
(-0.00240317 0.0274889 -0.00117617)
(-0.00558855 0.0317569 -0.00122751)
(-0.00879118 0.0331413 -0.00120729)
(-0.0120772 0.0337518 -0.00119727)
(-0.0154238 0.0343634 -0.00122187)
(-0.018928 0.0352279 -0.00130439)
(-0.0227402 0.036431 -0.00147926)
(-0.0270615 0.0379977 -0.00180023)
(-0.0321578 0.0399017 -0.00235562)
(-0.0383716 0.0420398 -0.00329302)
(-0.0461332 0.0441883 -0.00484601)
(-0.055999 0.0459247 -0.00731028)
(-0.0687356 0.0462689 -0.0108202)
(-0.0852056 0.0423902 -0.0147204)
(-0.104929 0.0271957 -0.0167128)
(-0.121171 -0.0111271 -0.013752)
(-0.117524 -0.0729239 -0.00835685)
(-0.0808991 -0.113697 -0.0109721)
(-0.0203194 -0.0669968 -0.0173996)
(-0.00036542 0.0171427 -0.000991952)
(-0.00235665 0.0308588 -0.00132328)
(-0.00549772 0.0356119 -0.00137451)
(-0.00855975 0.0370737 -0.00133609)
(-0.0116134 0.0376907 -0.00130192)
(-0.0146332 0.03839 -0.00130114)
(-0.0177261 0.039506 -0.00135953)
(-0.0210583 0.0412019 -0.00151288)
(-0.0248587 0.0436045 -0.00181506)
(-0.0294483 0.0468319 -0.00235115)
(-0.0352786 0.0509868 -0.00325231)
(-0.0429873 0.0561126 -0.00467269)
(-0.0535617 0.0619949 -0.00657488)
(-0.0686558 0.067088 -0.00805919)
(-0.0902278 0.0653376 -0.00644794)
(-0.118297 0.042416 0.00255303)
(-0.143328 -0.0208248 0.0196083)
(-0.142689 -0.120016 0.0304297)
(-0.104532 -0.183046 0.013732)
(-0.0316585 -0.136614 -0.00975025)
(-0.000374107 0.0190071 -0.00113142)
(-0.00241282 0.0343485 -0.0015214)
(-0.00554759 0.0395137 -0.00157014)
(-0.00843795 0.0409304 -0.00150326)
(-0.0111732 0.0414124 -0.00142928)
(-0.013721 0.0420556 -0.0013843)
(-0.0161881 0.0432816 -0.00139618)
(-0.0187307 0.045334 -0.00149874)
(-0.0215614 0.0484492 -0.00173684)
(-0.0249844 0.0529095 -0.00216773)
(-0.0294527 0.0590559 -0.00283946)
(-0.0356368 0.0671807 -0.00364779)
(-0.0446968 0.0770344 -0.00381637)
(-0.0588833 0.0856768 -0.000722741)
(-0.081056 0.0828697 0.010462)
(-0.112489 0.048177 0.0347236)
(-0.144683 -0.0383315 0.0652636)
(-0.147267 -0.16319 0.0693376)
(-0.113491 -0.241762 0.0341771)
(-0.0360396 -0.22117 0.00405579)
(-0.000448829 0.0210263 -0.00133224)
(-0.00265751 0.0379791 -0.00178349)
(-0.00586964 0.0433615 -0.00181387)
(-0.00858608 0.0445189 -0.00170088)
(-0.0109355 0.0446777 -0.00157213)
(-0.0128752 0.0450821 -0.00146918)
(-0.0145097 0.0462082 -0.00141828)
(-0.0159643 0.0483556 -0.00144597)
(-0.0173875 0.0518453 -0.00158071)
(-0.0189858 0.0570794 -0.00183224)
(-0.0211038 0.0645605 -0.00211968)
(-0.0242687 0.0746526 -0.00196546)
(-0.0295985 0.0868292 0.000236571)
(-0.0397654 0.0966597 0.0086305)
(-0.059055 0.0914098 0.0295636)
(-0.0913644 0.0479613 0.0658053)
(-0.130671 -0.0506437 0.0983255)
(-0.132966 -0.189071 0.0827124)
(-0.11224 -0.284125 0.0363516)
(-0.0324964 -0.298998 0.00518727)
(-0.000694485 0.0235093 -0.00166987)
(-0.00335759 0.0423148 -0.00223431)
(-0.00676407 0.0478263 -0.00226125)
(-0.00924429 0.0485175 -0.00208815)
(-0.0110887 0.0480209 -0.00186915)
(-0.0122939 0.0477972 -0.00166705)
(-0.0129551 0.0484002 -0.00151666)
(-0.0131324 0.0501694 -0.00144375)
(-0.0128792 0.053461 -0.00145361)
(-0.0122525 0.0587096 -0.00151162)
(-0.011422 0.0664699 -0.00142109)
(-0.0106198 0.0770099 -0.000431196)
(-0.0108186 0.0896843 0.00359838)
(-0.0146806 0.0993367 0.0157361)
(-0.0283394 0.0933721 0.0426273)
(-0.0573794 0.0474149 0.0820249)
(-0.0973743 -0.0545507 0.105416)
(-0.0969277 -0.199915 0.0716163)
(-0.10188 -0.311504 0.0285454)
(-0.0237786 -0.367306 -0.0064439)
(-0.00107126 0.0268984 -0.00215569)
(-0.00427205 0.0465004 -0.00274944)
(-0.00817134 0.0512284 -0.00272118)
(-0.01063 0.0507456 -0.00244178)
(-0.0121092 0.0494237 -0.00213221)
(-0.0125539 0.0485969 -0.00184436)
(-0.012131 0.0486863 -0.00161385)
(-0.0108884 0.0499265 -0.00145615)
(-0.00880589 0.0526234 -0.00137848)
(-0.00576993 0.0571552 -0.00131921)
(-0.0017849 0.0640359 -0.00102846)
(0.00336896 0.0734534 0.000280204)
(0.00895451 0.0847757 0.00480956)
(0.013405 0.0933805 0.0171362)
(0.00984131 0.0889341 0.0438285)
(-0.0057493 0.0478661 0.0780545)
(-0.0400304 -0.0477647 0.0906554)
(-0.0435969 -0.183308 0.0545278)
(-0.079198 -0.314865 0.0212229)
(-0.0100752 -0.419248 -0.0196008)
(-0.003168 0.0298713 -0.00315934)
(-0.00859591 0.0540043 -0.00401142)
(-0.0119675 0.058501 -0.0039167)
(-0.0135501 0.0572829 -0.00351131)
(-0.0138062 0.0542816 -0.00299559)
(-0.0131434 0.0517088 -0.00249804)
(-0.0116145 0.0501073 -0.00208643)
(-0.00911563 0.0497197 -0.00177999)
(-0.00547181 0.0507827 -0.00161)
(-0.000372703 0.0535099 -0.00150385)
(0.00639208 0.05831 -0.00122575)
(0.0153573 0.0651994 -0.000199911)
(0.0259627 0.0735732 0.00346534)
(0.0381029 0.079684 0.0128559)
(0.0448145 0.0771246 0.033476)
(0.047401 0.0463303 0.0596361)
(0.0197776 -0.0338626 0.0665775)
(0.011882 -0.149162 0.0424773)
(-0.050479 -0.301588 0.0162112)
(0.0080506 -0.452569 -0.0319966)
(-0.00128644 0.0443385 -0.0051271)
(-0.00729448 0.057351 -0.0057046)
(-0.0152015 0.0580379 -0.00527559)
(-0.0170502 0.0533709 -0.00437742)
(-0.0176826 0.0497706 -0.00366515)
(-0.0163121 0.0471435 -0.00301234)
(-0.0136495 0.0454587 -0.00248935)
(-0.00967332 0.0445877 -0.00211726)
(-0.00432615 0.0446705 -0.001949)
(0.00277694 0.0457511 -0.00194278)
(0.0118689 0.0482615 -0.00193597)
(0.0236531 0.0519375 -0.00152459)
(0.0373667 0.0564709 0.000605057)
(0.0545845 0.0587529 0.00606847)
(0.0663305 0.0553352 0.0186592)
(0.082193 0.0341934 0.0365096)
(0.060189 -0.0238949 0.041504)
(0.0579931 -0.111736 0.0328971)
(-0.0195448 -0.278982 0.0121017)
(0.0341706 -0.466646 -0.0433604)
(-0.0124634 0.0348503 -0.00599817)
(-0.0234559 0.0780699 -0.00796074)
(-0.0203688 0.0763559 -0.00818348)
(-0.0235482 0.0704721 -0.00741377)
(-0.0219056 0.0625038 -0.00609607)
(-0.018526 0.0557604 -0.00482348)
(-0.0133699 0.0503402 -0.00383138)
(-0.00670448 0.0460908 -0.00316744)
(0.00127207 0.043071 -0.00288483)
(0.0110361 0.0409735 -0.00296337)
(0.0222334 0.0401242 -0.00328488)
(0.036043 0.0399141 -0.00357017)
(0.0504285 0.0409541 -0.00304258)
(0.069649 0.0403245 -0.000533666)
(0.0805804 0.0377406 0.00523593)
(0.103604 0.0255476 0.016856)
(0.0878733 -0.00962379 0.0189314)
(0.10834 -0.0719069 0.0211674)
(0.0362203 -0.251748 0.00762163)
(0.0775221 -0.459747 -0.054101)
(-0.0763083 0.0991242 -0.0201191)
(-0.0610435 0.0598555 -0.0164593)
(-0.0600434 0.0590796 -0.0134219)
(-0.0368413 0.0511729 -0.0107472)
(-0.0172313 0.0431936 -0.00889141)
(0.00456476 0.0373085 -0.00731729)
(0.0248079 0.0330913 -0.00615741)
(0.0451905 0.0295067 -0.00537649)
(0.0635031 0.0269889 -0.00494659)
(0.0833756 0.024591 -0.00492331)
(0.0998304 0.0233719 -0.00522001)
(0.121378 0.0219087 -0.00578186)
(0.135085 0.0213142 -0.00633274)
(0.163007 0.0200516 -0.00594003)
(0.169322 0.0153033 -0.00458368)
(0.20683 0.00764494 0.000321419)
(0.190613 -0.0235408 0.00459973)
(0.231396 -0.0721336 0.00701532)
(0.155318 -0.231283 0.00231518)
(0.150407 -0.412067 -0.0651978)
(0.11908 0.140144 -0.0171823)
(0.151422 0.0855019 -0.0190765)
(0.228607 0.0630602 -0.0193495)
(0.28343 0.0475751 -0.0181261)
(0.324611 0.0366883 -0.016405)
(0.362702 0.0286345 -0.0148852)
(0.391206 0.0230201 -0.0133949)
(0.422079 0.0187592 -0.0123131)
(0.441433 0.0157435 -0.0111279)
(0.46962 0.0133149 -0.0105597)
(0.481319 0.0115331 -0.00968458)
(0.510523 0.0101415 -0.00971001)
(0.514205 0.00890748 -0.00888763)
(0.547123 0.0077812 -0.00941449)
(0.539539 0.00581216 -0.00769967)
(0.574208 0.00189487 -0.00856878)
(0.54119 -0.00657769 -0.00483395)
(0.553702 -0.0254624 -0.00981658)
(0.424155 -0.0673604 -0.0113168)
(0.302536 -0.144623 -0.0781795)
(-0.000149755 0.000156785 -0.000222312)
(-0.00108926 0.000449578 -0.000257973)
(-0.00266098 0.000554516 -0.000252427)
(-0.00426699 0.000588949 -0.00024837)
(-0.00592422 0.000605233 -0.000261028)
(-0.00758924 0.000621107 -0.000291742)
(-0.00924595 0.000636548 -0.000342633)
(-0.0108693 0.000645445 -0.000418288)
(-0.0124148 0.000639266 -0.000524897)
(-0.013815 0.000607432 -0.000669264)
(-0.0149759 0.000537551 -0.000857605)
(-0.0157751 0.000416842 -0.00109347)
(-0.0160669 0.000235725 -0.00137459)
(-0.0156939 -1.06958e-05 -0.00168961)
(-0.0145149 -0.000313422 -0.00201044)
(-0.0124511 -0.000635269 -0.00229517)
(-0.00956283 -0.000903519 -0.00248686)
(-0.00617037 -0.00101058 -0.00252448)
(-0.00252833 -0.000835386 -0.00233396)
(-0.000323687 -0.000209487 -0.00153341)
(-0.000480556 0.00119511 -0.00041467)
(-0.00245896 0.00245273 -0.000534938)
(-0.0054576 0.0029164 -0.000547959)
(-0.00852338 0.00306645 -0.000543683)