/*--------------------------------*- C++ -*----------------------------------*\
  =========                 |
  \\      /  F ield         | OpenFOAM: The Open Source CFD Toolbox
   \\    /   O peration     | Website:  https://openfoam.org
    \\  /    A nd           | Version:  10
     \\/     M anipulation  |
\*---------------------------------------------------------------------------*/
FoamFile
{
    format      ascii;
    class       volVectorField;
    location    "2.05";
    object      U;
}
// * * * * * * * * * * * * * * * * * * * * * * * * * * * * * * * * * * * * * //

dimensions      [0 1 -1 0 0 0 0];

internalField   nonuniform List<vector> 
400
(
(-0.000289955 0.000287258 0)
(-0.00116217 0.000437518 0)
(-0.00225976 0.00044078 0)
(-0.0032617 0.000415249 0)
(-0.00419184 0.000378557 0)
(-0.00502347 0.000332804 0)
(-0.00573546 0.00027874 0)
(-0.0063097 0.000217136 0)
(-0.00673018 0.000148896 0)
(-0.00698337 7.50998e-05 0)
(-0.00705854 -2.8378e-06 0)
(-0.00694811 -8.38615e-05 0)
(-0.00664842 -0.000165766 0)
(-0.00616068 -0.000246294 0)
(-0.00549155 -0.000322809 0)
(-0.00465389 -0.000392333 0)
(-0.00366846 -0.000451528 0)
(-0.00256879 -0.000495339 0)
(-0.0013389 -0.00050194 0)
(-0.000340998 -0.000339377 0)
(-0.000455234 0.00116465 0)
(-0.00173014 0.00167934 0)
(-0.00328249 0.00168328 0)
(-0.00470471 0.00158245 0)
(-0.00602077 0.00143794 0)
(-0.00719312 0.00125839 0)
(-0.00819194 0.0010475 0)
(-0.00899231 0.000808877 0)
(-0.00957273 0.000546478 0)
(-0.00991536 0.000264659 0)
(-0.0100071 -3.19137e-05 0)
(-0.0098387 -0.000337279 0)
(-0.0094058 -0.000644153 0)
(-0.00871148 -0.000944461 0)
(-0.00776572 -0.00122869 0)
(-0.00658679 -0.00148606 0)
(-0.00520379 -0.00170443 0)
(-0.0036621 -0.00186521 0)
(-0.0019479 -0.00189297 0)
(-0.000518474 -0.00133754 0)
(-0.000494593 0.00232995 0)
(-0.00187571 0.0032764 0)
(-0.00355314 0.00327509 0)
(-0.0050879 0.00307557 0)
(-0.00650728 0.00279074 0)
(-0.00777134 0.00243779 0)
(-0.00884865 0.0020246 0)
(-0.00971303 0.00155872 0)
(-0.010342 0.00104813 0)
(-0.0107172 0.000501424 0)
(-0.0108238 -7.21641e-05 0)
(-0.0106509 -0.000661633 0)
(-0.0101936 -0.00125361 0)
(-0.00945361 -0.0018327 0)
(-0.00843978 -0.00238095 0)
(-0.00716985 -0.00287778 0)
(-0.00567362 -0.00329981 0)
(-0.00399955 -0.00361113 0)
(-0.00213169 -0.00367174 0)
(-0.000568708 -0.00265064 0)
(-0.000525538 0.00351495 0)
(-0.00199675 0.00491082 0)
(-0.0037848 0.00490315 0)
(-0.00541904 0.00460227 0)
(-0.00693061 0.00417468 0)
(-0.0082778 0.00364612 0)
(-0.00942823 0.00302861 0)
(-0.0103551 0.00233357 0)
(-0.0110353 0.00157273 0)
(-0.0114494 0.000758524 0)
(-0.0115818 -9.53399e-05 0)
(-0.0114194 -0.000974291 0)
(-0.0109538 -0.0018593 0)
(-0.0101841 -0.00272794 0)
(-0.00911622 -0.00355363 0)
(-0.00776516 -0.00430541 0)
(-0.00615983 -0.00494726 0)
(-0.00435147 -0.00542387 0)
(-0.00232234 -0.00552556 0)
(-0.000619601 -0.00401442 0)
(-0.000567291 0.0047844 0)
(-0.00215839 0.00666401 0)
(-0.00409323 0.00664873 0)
(-0.00585973 0.0062389 0)
(-0.00749357 0.00565886 0)
(-0.00895086 0.00494383 0)
(-0.0101983 0.00411045 0)
(-0.0112086 0.00317413 0)
(-0.0119582 0.00215024 0)
(-0.0124269 0.0010545 0)
(-0.0125976 -9.62078e-05 0)
(-0.0124542 -0.00128361 0)
(-0.0119839 -0.00248397 0)
(-0.0111813 -0.00366864 0)
(-0.0100466 -0.00480219 0)
(-0.00859041 -0.00584202 0)
(-0.00683881 -0.00673693 0)
(-0.00484602 -0.00740758 0)
(-0.0025925 -0.00756418 0)
(-0.000692566 -0.00551695 0)
(-0.000622733 0.00616879 0)
(-0.00237182 0.00857784 0)
(-0.00449904 0.00855281 0)
(-0.00643797 0.00802318 0)
(-0.00823016 0.00727717 0)
(-0.00982923 0.00636085 0)
(-0.0112011 0.00529624 0)
(-0.0123187 0.00410299 0)
(-0.0131583 0.00279983 0)
(-0.0136992 0.00140506 0)
(-0.0139232 -6.23359e-05 0)
(-0.0138103 -0.00158181 0)
(-0.0133417 -0.00312663 0)
(-0.012505 -0.00466289 0)
(-0.0112921 -0.00614655 0)
(-0.00970517 -0.00752195 0)
(-0.00776437 -0.00871914 0)
(-0.00552588 -0.00962775 0)
(-0.00296719 -0.00986205 0)
(-0.000794746 -0.00721703 0)
(-0.000693598 0.00770083 0)
(-0.0026438 0.010697 0)
(-0.00501455 0.0106583 0)
(-0.00716966 0.00999375 0)
(-0.00915857 0.00906344 0)
(-0.0109322 0.00792645 0)
(-0.0124564 0.00661127 0)
(-0.0137053 0.00514224 0)
(-0.0146565 0.00354112 0)
(-0.0152893 0.00182765 0)
(-0.0155847 2.09423e-05 0)
(-0.0155187 -0.00185699 0)
(-0.0150652 -0.00378055 0)
(-0.0142014 -0.00571256 0)
(-0.0129062 -0.00760145 0)
(-0.0111677 -0.00937743 0)
(-0.00899403 -0.0109474 0)
(-0.00643987 -0.0121596 0)
(-0.00347691 -0.0125087 0)
(-0.000935332 -0.00918701 0)
(-0.000782278 0.00941887 0)
(-0.00298331 0.0130737 0)
(-0.00565554 0.0130142 0)
(-0.0080746 0.0121935 0)
(-0.0103005 0.0110541 0)
(-0.0122817 0.00967119 0)
(-0.0139854 0.00808152 0)
(-0.0153889 0.00631476 0)
(-0.016473 0.00439535 0)
(-0.0172195 0.00234308 0)
(-0.0176079 0.000175003 0)
(-0.0176118 -0.00208996 0)
(-0.0171973 -0.0044303 0)
(-0.0163259 -0.00681007 0)
(-0.0149575 -0.0091736 0)
(-0.0130571 -0.0114373 0)
(-0.0106101 -0.01348 0)
(-0.00766102 -0.0150949 0)
(-0.00416966 -0.0156197 0)
(-0.00112971 -0.0115244 0)
(-0.000892443 0.0113678 0)
(-0.00340336 0.0157683 0)
(-0.00644424 0.0156755 0)
(-0.00917977 0.0146684 0)
(-0.0116844 0.0132863 0)
(-0.013905 0.0116248 0)
(-0.015813 0.00973139 0)
(-0.0173916 0.00764216 0)
(-0.0186283 0.00538381 0)
(-0.0195097 0.0029744 0)
(-0.0200177 0.000425795 0)
(-0.0201241 -0.00225219 0)
(-0.0197854 -0.00504713 0)
(-0.0189448 -0.00793169 0)
(-0.0175342 -0.0108533 0)
(-0.0154819 -0.0137192 0)
(-0.0127328 -0.0163761 0)
(-0.00930175 -0.018544 0)
(-0.00512463 -0.0193469 0)
(-0.00140526 -0.0143661 0)
(-0.00102993 0.0136023 0)
(-0.00392348 0.0188525 0)
(-0.00741255 0.0187046 0)
(-0.0105226 0.0174678 0)
(-0.0133482 0.0157969 0)
(-0.0158369 0.0138142 0)
(-0.0179683 0.0115814 0)
(-0.0197367 0.00914247 0)
(-0.021141 0.00652594 0)
(-0.0221776 0.00374576 0)
(-0.0228345 0.00080419 0)
(-0.0230848 -0.00230341 0)
(-0.0228769 -0.0055836 0)
(-0.0221323 -0.00902888 0)
(-0.0207458 -0.012603 0)
(-0.0185899 -0.0162158 0)
(-0.015539 -0.0196856 0)
(-0.0115388 -0.0226393 0)
(-0.00647831 -0.0238941 0)
(-0.00181393 -0.0179177 0)
(-0.00120452 0.0161923 0)
(-0.00457374 0.0224143 0)
(-0.00860718 0.022174 0)
(-0.0121557 0.0206442 0)
(-0.0153427 0.0186205 0)
(-0.0181211 0.0162604 0)
(-0.0204851 0.0136443 0)
(-0.0224474 0.0108263 0)
(-0.0240252 0.00783608 0)
(-0.0252317 0.00468079 0)
(-0.0260671 0.00134807 0)
(-0.026512 -0.00218888 0)
(-0.026511 -0.00596726 0)
(-0.0259643 -0.0100164 0)
(-0.0247222 -0.0143386 0)
(-0.022578 -0.0188723 0)
(-0.0192909 -0.0234278 0)
(-0.0146565 -0.0275309 0)
(-0.00847867 -0.0295386 0)
(-0.00246137 -0.0225095 0)
(-0.00143348 0.019232 0)
(-0.0054022 0.0265645 0)
(-0.0100978 0.0261686 0)
(-0.0141544 0.0242516 0)
(-0.0177373 0.0217855 0)
(-0.0208138 0.018973 0)
(-0.0234028 0.0159194 0)
(-0.0255454 0.0126909 0)
(-0.0272869 0.00931787 0)
(-0.028666 0.00579761 0)
(-0.0297045 0.00209771 0)
(-0.0304005 -0.00183932 0)
(-0.0307047 -0.00609467 0)
(-0.0305038 -0.0107571 0)
(-0.0296032 -0.0159027 0)
(-0.0276972 -0.021546 0)
(-0.024375 -0.0275435 0)
(-0.0191225 -0.0333639 0)
(-0.0116021 -0.0366556 0)
(-0.00357706 -0.0287125 0)
(-0.00174956 0.0228611 0)
(-0.00648881 0.0314513 0)
(-0.01199 0.0307893 0)
(-0.0166275 0.0283432 0)
(-0.0206273 0.025308 0)
(-0.0239881 0.0219426 0)
(-0.0267678 0.0183839 0)
(-0.0290495 0.0147117 0)
(-0.030919 0.010956 0)
(-0.0324524 0.00710096 0)
(-0.0337046 0.00308908 0)
(-0.0347049 -0.00117556 0)
(-0.0354294 -0.00582804 0)
(-0.0357729 -0.0110454 0)
(-0.0355133 -0.0170252 0)
(-0.0342442 -0.0239382 0)
(-0.0313485 -0.0318042 0)
(-0.0257213 -0.040199 0)
(-0.016807 -0.0457037 0)
(-0.00568375 -0.0376113 0)
(-0.00221897 0.0272045 0)
(-0.00797772 0.0372251 0)
(-0.0144507 0.0361377 0)
(-0.0197349 0.0329598 0)
(-0.0241444 0.029181 0)
(-0.0277391 0.0251297 0)
(-0.0306346 0.0209822 0)
(-0.032974 0.0168314 0)
(-0.0348981 0.0127043 0)
(-0.0365333 0.00856963 0)
(-0.0379815 0.00434199 0)
(-0.0393181 -0.000116095 0)
(-0.0405751 -0.0050006 0)
(-0.0417017 -0.010599 0)
(-0.0424991 -0.0172824 0)
(-0.0425135 -0.025498 0)
(-0.0409667 -0.0356395 0)
(-0.0357403 -0.047784 0)
(-0.0260732 -0.0569791 0)
(-0.0100493 -0.0514571 0)
(-0.00290598 0.0331692 0)
(-0.0100073 0.0443273 0)
(-0.0176906 0.0424025 0)
(-0.0236939 0.0381313 0)
(-0.0284645 0.0333617 0)
(-0.0321883 0.0284516 0)
(-0.0350663 0.0236135 0)
(-0.0373265 0.0189483 0)
(-0.0391788 0.0144744 0)
(-0.0408115 0.0101403 0)
(-0.0423858 0.00583167 0)
(-0.0440414 0.00136259 0)
(-0.0459044 -0.00352408 0)
(-0.0480445 -0.00915962 0)
(-0.0504012 -0.0161567 0)
(-0.0526362 -0.0253793 0)
(-0.0540517 -0.0378061 0)
(-0.0509804 -0.0550266 0)
(-0.0431376 -0.0699936 0)
(-0.0194567 -0.0744433 0)
(-0.00468962 0.0383835 0)
(-0.0138782 0.0524899 0)
(-0.0223029 0.0495704 0)
(-0.0288942 0.0439441 0)
(-0.0338272 0.0378433 0)
(-0.0374803 0.0317942 0)
(-0.04012 0.0261146 0)
(-0.0420826 0.0208959 0)
(-0.0436618 0.016122 0)
(-0.0451169 0.0117094 0)
(-0.046684 0.0075368 0)
(-0.0485802 0.00343801 0)
(-0.0509807 -0.000828789 0)
(-0.0541846 -0.00574829 0)
(-0.0585149 -0.0120592 0)
(-0.0639194 -0.0212291 0)
(-0.0705604 -0.0349231 0)
(-0.0723873 -0.0593885 0)
(-0.0715453 -0.0841213 0)
(-0.0352742 -0.11537 0)
(-0.00454414 0.0545181 0)
(-0.0158011 0.0610633 0)
(-0.0280004 0.0563724 0)
(-0.0355134 0.0483112 0)
(-0.0405276 0.0409027 0)
(-0.0437154 0.0339953 0)
(-0.0456183 0.0277585 0)
(-0.0468186 0.0222035 0)
(-0.0477098 0.0172939 0)
(-0.0485884 0.0129413 0)
(-0.0496949 0.00901744 0)
(-0.0512792 0.00532297 0)
(-0.053763 0.00161073 0)
(-0.057655 -0.00266512 0)
(-0.0637613 -0.00798124 0)
(-0.0723502 -0.0165542 0)
(-0.0869894 -0.0299905 0)
(-0.0946691 -0.0615043 0)
(-0.10463 -0.103345 0)
(-0.0428052 -0.18642 0)
(-0.0136211 0.0516976 0)
(-0.0336703 0.0824282 0)
(-0.0369072 0.0720362 0)
(-0.0444454 0.0608051 0)
(-0.0465476 0.0495083 0)
(-0.0472158 0.0392762 0)
(-0.0467753 0.0308032 0)
(-0.0459027 0.0239578 0)
(-0.0449911 0.0184971 0)
(-0.0443506 0.0141221 0)
(-0.0442773 0.0106468 0)
(-0.0450251 0.00789731 0)
(-0.0470535 0.00592945 0)
(-0.0505302 0.00468766 0)
(-0.0570328 0.0047543 0)
(-0.0646183 0.00208655 0)
(-0.0813026 -0.00269694 0)
(-0.0811269 -0.0463649 0)
(-0.101682 -0.114263 0)
(-0.00856671 -0.27453 0)
(-0.0688099 0.118086 0)
(-0.0539606 0.0698635 0)
(-0.0516859 0.0612103 0)
(-0.036564 0.0486388 0)
(-0.0226723 0.0373467 0)
(-0.0101269 0.0288879 0)
(0.000838935 0.0225753 0)
(0.00988286 0.0176566 0)
(0.0171013 0.0137914 0)
(0.0227386 0.0107712 0)
(0.0269454 0.00856748 0)
(0.0302919 0.00687341 0)
(0.032313 0.00619862 0)
(0.0354153 0.00542809 0)
(0.0345998 0.00592128 0)
(0.0441331 0.00111623 0)
(0.0306445 -0.0112983 0)
(0.0645171 -0.0656281 0)
(0.00367277 -0.182991 0)
(0.0698644 -0.336162 0)
(0.128796 0.142813 0)
(0.166172 0.0859506 0)
(0.246544 0.0604425 0)
(0.298352 0.0435774 0)
(0.334763 0.0309739 0)
(0.361929 0.0216951 0)
(0.382545 0.0152675 0)
(0.398106 0.010976 0)
(0.409741 0.0080997 0)
(0.419016 0.00605281 0)
(0.425401 0.00469222 0)
(0.43245 0.00359795 0)
(0.433638 0.00270144 0)
(0.443846 0.00267726 0)
(0.434577 0.000221017 0)
(0.456221 0.00181521 0)
(0.420108 -0.00835327 0)
(0.442308 -0.0133049 0)
(0.313749 -0.0515897 0)
(0.244844 -0.135486 0)
)
;

boundaryField
{
    movingWall
    {
        type            fixedValue;
        value           uniform (1 0 0);
    }
    fixedWalls
    {
        type            noSlip;
    }
    frontAndBack
    {
        type            empty;
    }
}


// ************************************************************************* //
