/*--------------------------------*- C++ -*----------------------------------*\
  =========                 |
  \\      /  F ield         | OpenFOAM: The Open Source CFD Toolbox
   \\    /   O peration     | Website:  https://openfoam.org
    \\  /    A nd           | Version:  10
     \\/     M anipulation  |
\*---------------------------------------------------------------------------*/
FoamFile
{
    format      ascii;
    class       volVectorField;
    location    "6.65";
    object      U;
}
// * * * * * * * * * * * * * * * * * * * * * * * * * * * * * * * * * * * * * //

dimensions      [0 1 -1 0 0 0 0];

internalField   nonuniform List<vector> 
400
(
(-0.000117133 0.000107 0)
(-0.000936245 0.00035395 0)
(-0.002326 0.000441187 0)
(-0.00372502 0.000463612 0)
(-0.00514384 0.000468856 0)
(-0.0065428 0.000470821 0)
(-0.00790179 0.000468715 0)
(-0.00919645 0.000457458 0)
(-0.0103901 0.000430754 0)
(-0.0114319 0.000381581 0)
(-0.0122558 0.000302582 0)
(-0.0127808 0.000187084 0)
(-0.0129135 3.03383e-05 0)
(-0.0125554 -0.000170625 0)
(-0.0116193 -0.000407405 0)
(-0.0100506 -0.000659663 0)
(-0.00786703 -0.000886612 0)
(-0.0052488 -0.00101883 0)
(-0.00230725 -0.000940648 0)
(-0.000372754 -0.000422026 0)
(-0.000393289 0.000948867 0)
(-0.0020989 0.00200819 0)
(-0.00470421 0.00237485 0)
(-0.00731531 0.00245347 0)
(-0.00992706 0.00243274 0)
(-0.0124588 0.00237024 0)
(-0.0148605 0.00226829 0)
(-0.0170807 0.00211195 0)
(-0.0190536 0.00188079 0)
(-0.0206962 0.00155184 0)
(-0.0219069 0.00110131 0)
(-0.0225666 0.000507467 0)
(-0.0225459 -0.000243978 0)
(-0.0217092 -0.0011448 0)
(-0.0199391 -0.0021568 0)
(-0.0171718 -0.00319562 0)
(-0.0134551 -0.00410384 0)
(-0.00906346 -0.00461257 0)
(-0.00418594 -0.00428511 0)
(-0.00080875 -0.00223773 0)
(-0.000509083 0.00244907 0)
(-0.00260667 0.00467026 0)
(-0.00574576 0.00541763 0)
(-0.00886759 0.00555185 0)
(-0.0119712 0.00545854 0)
(-0.0149631 0.00525636 0)
(-0.0177859 0.00495559 0)
(-0.0203825 0.00453219 0)
(-0.0226816 0.00395031 0)
(-0.0245942 0.00316847 0)
(-0.0260118 0.00214356 0)
(-0.0268056 0.000837219 0)
(-0.0268218 -0.000773054 0)
(-0.0258948 -0.00267443 0)
(-0.0238749 -0.00479173 0)
(-0.0206594 -0.00695665 0)
(-0.0162702 -0.00885056 0)
(-0.0110116 -0.00991838 0)
(-0.00509529 -0.00926722 0)
(-0.000980552 -0.00508712 0)
(-0.000545394 0.00403218 0)
(-0.0028078 0.00748817 0)
(-0.00618834 0.00862144 0)
(-0.00953824 0.0088002 0)
(-0.0128699 0.0086258 0)
(-0.0160897 0.00828093 0)
(-0.0191455 0.00778384 0)
(-0.0219861 0.0071015 0)
(-0.0245454 0.00618209 0)
(-0.0267379 0.00496295 0)
(-0.0284532 0.00337657 0)
(-0.0295511 0.00136068 0)
(-0.0298579 -0.00112523 0)
(-0.0291596 -0.00408443 0)
(-0.0272287 -0.00742234 0)
(-0.0238695 -0.0108936 0)
(-0.0190154 -0.0139984 0)
(-0.0129765 -0.0158211 0)
(-0.00598016 -0.0148784 0)
(-0.00111073 -0.00822654 0)
(-0.00055434 0.00569183 0)
(-0.00290455 0.0104592 0)
(-0.00643434 0.0119993 0)
(-0.00993257 0.0122293 0)
(-0.0134262 0.0119826 0)
(-0.0168276 0.0115108 0)
(-0.0200962 0.0108415 0)
(-0.0231941 0.00993343 0)
(-0.0260683 0.0087176 0)
(-0.0286437 0.00710635 0)
(-0.0308126 0.0049984 0)
(-0.0324234 0.00229096 0)
(-0.0332728 -0.00110099 0)
(-0.0330812 -0.00522071 0)
(-0.0315056 -0.0099846 0)
(-0.0281918 -0.0150862 0)
(-0.0228938 -0.0198142 0)
(-0.0158591 -0.0227685 0)
(-0.0073005 -0.0216221 0)
(-0.0012966 -0.0119319 0)
(-0.000557309 0.00739398 0)
(-0.00298096 0.0135423 0)
(-0.00664697 0.0155147 0)
(-0.0102865 0.01581 0)
(-0.0139413 0.015511 0)
(-0.0175327 0.0149443 0)
(-0.0210372 0.0141501 0)
(-0.0244367 0.0130801 0)
(-0.0277 0.011648 0)
(-0.0307729 0.00973727 0)
(-0.0335613 0.00720189 0)
(-0.0359121 0.00387475 0)
(-0.0375995 -0.000410992 0)
(-0.0382662 -0.00576702 0)
(-0.037411 -0.0122053 0)
(-0.0344389 -0.0194025 0)
(-0.0287854 -0.0264158 0)
(-0.0204673 -0.0311897 0)
(-0.00952086 -0.0301054 0)
(-0.00162199 -0.0165229 0)
(-0.000559821 0.00913372 0)
(-0.00306194 0.0167345 0)
(-0.0068743 0.0191675 0)
(-0.010664 0.0195447 0)
(-0.0144887 0.0192178 0)
(-0.0182814 0.0185969 0)
(-0.0220404 0.0177396 0)
(-0.0257753 0.0165947 0)
(-0.0294878 0.0150609 0)
(-0.033161 0.012991 0)
(-0.0367382 0.0101862 0)
(-0.0400914 0.00639325 0)
(-0.0429709 0.0013231 0)
(-0.04498 -0.00528846 0)
(-0.0454618 -0.0136445 0)
(-0.0434671 -0.0235234 0)
(-0.0379144 -0.0338217 0)
(-0.0282099 -0.0416717 0)
(-0.0136596 -0.0413892 0)
(-0.00230229 -0.0226684 0)
(-0.000562374 0.0109157 0)
(-0.00315225 0.020048 0)
(-0.00712456 0.0229696 0)
(-0.01107 0.023442 0)
(-0.0150638 0.0231092 0)
(-0.0190523 0.0224759 0)
(-0.0230605 0.0216252 0)
(-0.027134 0.0205105 0)
(-0.0313212 0.0190231 0)
(-0.0356636 0.016991 0)
(-0.0401738 0.0141622 0)
(-0.0447924 0.0101848 0)
(-0.0493219 0.00459964 0)
(-0.0533837 -0.00313502 0)
(-0.0562086 -0.0134803 0)
(-0.0564981 -0.026616 0)
(-0.0524312 -0.0415695 0)
(-0.041991 -0.0547809 0)
(-0.0222686 -0.0572696 0)
(-0.00397967 -0.031908 0)
(-0.000565572 0.0127453 0)
(-0.00325486 0.0234957 0)
(-0.00740004 0.0269288 0)
(-0.011498 0.0274997 0)
(-0.0156438 0.0271733 0)
(-0.0197974 0.0265629 0)
(-0.0240141 0.0257874 0)
(-0.0283831 0.0248176 0)
(-0.0330128 0.0235531 0)
(-0.0380281 0.021815 0)
(-0.0435538 0.0193136 0)
(-0.0496774 0.0156041 0)
(-0.0563764 0.0100371 0)
(-0.0633923 0.00175015 0)
(-0.07013 -0.010198 0)
(-0.0752373 -0.0267174 0)
(-0.0758936 -0.0478732 0)
(-0.0668502 -0.0705149 0)
(-0.0402307 -0.0808875 0)
(-0.00813168 -0.0477195 0)
(-0.000572588 0.0146313 0)
(-0.00337976 0.0270925 0)
(-0.00771252 0.0310477 0)
(-0.0119505 0.0317018 0)
(-0.0162122 0.0313755 0)
(-0.0204705 0.0308062 0)
(-0.0248119 0.0301617 0)
(-0.0293717 0.029447 0)
(-0.0343278 0.0285942 0)
(-0.0399098 0.0274522 0)
(-0.0464012 0.0257414 0)
(-0.0541251 0.0229816 0)
(-0.063392 0.0183954 0)
(-0.0744246 0.0108311 0)
(-0.0873095 -0.00129073 0)
(-0.101279 -0.0201104 0)
(-0.111933 -0.0488736 0)
(-0.106773 -0.0880954 0)
(-0.0707758 -0.117722 0)
(-0.0164128 -0.0773669 0)
(-0.000591455 0.0165929 0)
(-0.00355088 0.030862 0)
(-0.00809422 0.035326 0)
(-0.0124523 0.0360183 0)
(-0.0167747 0.0356554 0)
(-0.0210455 0.0351156 0)
(-0.0253793 0.0346285 0)
(-0.0299539 0.0342516 0)
(-0.0350118 0.0339802 0)
(-0.0408895 0.0337411 0)
(-0.048054 0.0333467 0)
(-0.0571488 0.0324143 0)
(-0.0690394 0.0302532 0)
(-0.0848773 0.0257346 0)
(-0.106095 0.0168319 0)
(-0.132842 -0.00142075 0)
(-0.156334 -0.0400715 0)
(-0.152191 -0.109106 0)
(-0.105768 -0.174298 0)
(-0.0298134 -0.129422 0)
(-0.00063918 0.0186723 0)
(-0.00381639 0.0348519 0)
(-0.00861076 0.0397785 0)
(-0.0130629 0.0404218 0)
(-0.0173728 0.0399393 0)
(-0.0215338 0.039369 0)
(-0.0256822 0.0390137 0)
(-0.030024 0.0389993 0)
(-0.0348441 0.0394171 0)
(-0.0405578 0.0403345 0)
(-0.0477865 0.0417707 0)
(-0.0574758 0.0436492 0)
(-0.0710557 0.045726 0)
(-0.0906997 0.0473091 0)
(-0.119308 0.0455472 0)
(-0.156236 0.0289205 0)
(-0.185304 -0.0270369 0)
(-0.174617 -0.140922 0)
(-0.129334 -0.247269 0)
(-0.0458405 -0.211148 0)
(-0.000746129 0.020929 0)
(-0.0042527 0.0390682 0)
(-0.00936751 0.0443085 0)
(-0.0138921 0.044749 0)
(-0.0181062 0.0440346 0)
(-0.0220094 0.0433467 0)
(-0.0257559 0.0430427 0)
(-0.0295555 0.0433234 0)
(-0.0336844 0.0443953 0)
(-0.0385574 0.0465129 0)
(-0.0448296 0.0500074 0)
(-0.0535564 0.0553149 0)
(-0.0663863 0.0629154 0)
(-0.0856339 0.072329 0)
(-0.11426 0.078205 0)
(-0.149149 0.059675 0)
(-0.172038 -0.0172737 0)
(-0.156274 -0.17122 0)
(-0.13334 -0.312317 0)
(-0.0521522 -0.315892 0)
(-0.000999546 0.0236397 0)
(-0.00508022 0.0440227 0)
(-0.0105933 0.0495167 0)
(-0.0150929 0.0495885 0)
(-0.0190713 0.0483633 0)
(-0.022564 0.0472516 0)
(-0.0257115 0.0467062 0)
(-0.0286772 0.0470068 0)
(-0.0316679 0.0484664 0)
(-0.0349832 0.0515245 0)
(-0.0390956 0.0568365 0)
(-0.0447532 0.0653256 0)
(-0.0531272 0.0780442 0)
(-0.0652014 0.0938248 0)
(-0.0829519 0.104055 0)
(-0.102178 0.0812393 0)
(-0.115218 -0.00880247 0)
(-0.1037 -0.181861 0)
(-0.111629 -0.353532 0)
(-0.0395875 -0.413023 0)
(-0.00136632 0.0269567 0)
(-0.00604774 0.0484284 0)
(-0.0122388 0.0533083 0)
(-0.016892 0.0524344 0)
(-0.0207262 0.0506885 0)
(-0.0236921 0.0493506 0)
(-0.026001 0.0487341 0)
(-0.0277989 0.0490461 0)
(-0.0291807 0.0506168 0)
(-0.0302237 0.0539809 0)
(-0.0310509 0.0599814 0)
(-0.0317277 0.0697156 0)
(-0.0326311 0.0843603 0)
(-0.0329136 0.101779 0)
(-0.0344223 0.112799 0)
(-0.032594 0.0882058 0)
(-0.0379235 -0.0036702 0)
(-0.033494 -0.171479 0)
(-0.0712315 -0.364902 0)
(-0.0206817 -0.476328 0)
(-0.00343946 0.0299417 0)
(-0.0104415 0.0566669 0)
(-0.0160332 0.0614793 0)
(-0.0198148 0.0600898 0)
(-0.022552 0.05688 0)
(-0.024611 0.0540661 0)
(-0.0260384 0.0521057 0)
(-0.0267725 0.051251 0)
(-0.0266625 0.0517939 0)
(-0.0254675 0.0541926 0)
(-0.0228981 0.0592415 0)
(-0.0182371 0.0678529 0)
(-0.0114654 0.0810818 0)
(0.000135514 0.0964946 0)
(0.0128707 0.106544 0)
(0.031631 0.0845638 0)
(0.0332054 0.00160478 0)
(0.0333527 -0.143182 0)
(-0.0340901 -0.348386 0)
(-0.00243144 -0.50807 0)
(-0.00110893 0.0438088 0)
(-0.00846094 0.0589439 0)
(-0.0190491 0.0599614 0)
(-0.0231475 0.0555844 0)
(-0.0265539 0.0523947 0)
(-0.0280849 0.0501807 0)
(-0.0284669 0.0487538 0)
(-0.0276897 0.0480162 0)
(-0.0256309 0.0481495 0)
(-0.0219051 0.0494525 0)
(-0.016032 0.0526309 0)
(-0.00669834 0.0580869 0)
(0.0062563 0.0668215 0)
(0.0264944 0.0768708 0)
(0.0479923 0.0823408 0)
(0.0779161 0.0655065 0)
(0.0817655 0.00125712 0)
(0.0803398 -0.108042 0)
(-0.000848582 -0.317751 0)
(0.0228787 -0.516003 0)
(-0.0124816 0.0326045 0)
(-0.0240682 0.0799085 0)
(-0.0233161 0.0790836 0)
(-0.029236 0.0739573 0)
(-0.0308529 0.0666455 0)
(-0.0307027 0.0605088 0)
(-0.028619 0.0554801 0)
(-0.0248891 0.0515224 0)
(-0.0195873 0.0486248 0)
(-0.0123717 0.0466356 0)
(-0.00334615 0.0459616 0)
(0.00913562 0.0466651 0)
(0.0245188 0.0496993 0)
(0.0466183 0.0533652 0)
(0.0672139 0.056399 0)
(0.100314 0.0464227 0)
(0.102767 0.00793142 0)
(0.120602 -0.0696248 0)
(0.050646 -0.2838 0)
(0.0596242 -0.499022 0)
(-0.0774085 0.0964612 0)
(-0.063137 0.0591701 0)
(-0.0655798 0.0598898 0)
(-0.0439717 0.0532163 0)
(-0.026824 0.046303 0)
(-0.00690818 0.0411517 0)
(0.0118788 0.0373982 0)
(0.0308868 0.0342104 0)
(0.0484156 0.0318541 0)
(0.0672184 0.0296225 0)
(0.0835236 0.0283402 0)
(0.104101 0.027375 0)
(0.119136 0.027206 0)
(0.148025 0.0275367 0)
(0.159002 0.023888 0)
(0.204154 0.0167391 0)
(0.197165 -0.0175914 0)
(0.23308 -0.078169 0)
(0.161104 -0.258268 0)
(0.126079 -0.439002 0)
(0.119622 0.140802 0)
(0.152363 0.0861947 0)
(0.229061 0.0635952 0)
(0.284499 0.0481212 0)
(0.325739 0.0374431 0)
(0.364074 0.0296507 0)
(0.392654 0.0241892 0)
(0.423839 0.0201698 0)
(0.443736 0.0172487 0)
(0.472271 0.0150275 0)
(0.484875 0.0132747 0)
(0.514661 0.0121894 0)
(0.51971 0.011012 0)
(0.55362 0.0104712 0)
(0.548747 0.00875075 0)
(0.584107 0.00457846 0)
(0.554788 -0.00466205 0)
(0.562185 -0.0276905 0)
(0.426122 -0.0728615 0)
(0.276148 -0.152061 0)
)
;

boundaryField
{
    movingWall
    {
        type            fixedValue;
        value           uniform (1 0 0);
    }
    fixedWalls
    {
        type            noSlip;
    }
    frontAndBack
    {
        type            empty;
    }
}


// ************************************************************************* //
