/*--------------------------------*- C++ -*----------------------------------*\
  =========                 |
  \\      /  F ield         | OpenFOAM: The Open Source CFD Toolbox
   \\    /   O peration     | Website:  https://openfoam.org
    \\  /    A nd           | Version:  10
     \\/     M anipulation  |
\*---------------------------------------------------------------------------*/
FoamFile
{
    format      ascii;
    class       volVectorField;
    location    "5.95";
    object      U;
}
// * * * * * * * * * * * * * * * * * * * * * * * * * * * * * * * * * * * * * //

dimensions      [0 1 -1 0 0 0 0];

internalField   nonuniform List<vector> 
400
(
(-0.000101195 9.31508e-05 0)
(-0.000858994 0.000327044 0)
(-0.00214713 0.000406232 0)
(-0.00342609 0.00042309 0)
(-0.00471083 0.000423396 0)
(-0.00596213 0.000419464 0)
(-0.00715885 0.000410525 0)
(-0.00827716 0.000392444 0)
(-0.00928386 0.000360363 0)
(-0.0101356 0.000309092 0)
(-0.0107784 0.000233572 0)
(-0.0111491 0.000129794 0)
(-0.011177 -5.69985e-06 0)
(-0.010791 -0.000173041 0)
(-0.00993098 -0.000365192 0)
(-0.00856174 -0.000566975 0)
(-0.00670115 -0.000748986 0)
(-0.00448872 -0.000859034 0)
(-0.00199308 -0.000798748 0)
(-0.000331208 -0.000364483 0)
(-0.000358755 0.000869031 0)
(-0.00193857 0.00186149 0)
(-0.00434182 0.00218398 0)
(-0.00671743 0.00223277 0)
(-0.00906951 0.00218857 0)
(-0.0113217 0.00210271 0)
(-0.0134255 0.00197755 0)
(-0.0153331 0.00180193 0)
(-0.0169868 0.00156125 0)
(-0.0183176 0.00123971 0)
(-0.0192442 0.000821791 0)
(-0.0196767 0.000294125 0)
(-0.0195187 -0.000349342 0)
(-0.0186738 -0.00109746 0)
(-0.0170645 -0.00191927 0)
(-0.0146528 -0.00275246 0)
(-0.0114833 -0.00348356 0)
(-0.00776786 -0.00390915 0)
(-0.00362753 -0.00365856 0)
(-0.00071945 -0.00194589 0)
(-0.000462574 0.00225013 0)
(-0.00239144 0.00431452 0)
(-0.00526508 0.00496081 0)
(-0.0080853 0.00503021 0)
(-0.010862 0.00488956 0)
(-0.0135078 0.00464439 0)
(-0.0159674 0.00430459 0)
(-0.0181881 0.0038533 0)
(-0.0201073 0.00326593 0)
(-0.0216509 0.00251505 0)
(-0.0227328 0.00157356 0)
(-0.0232539 0.000419099 0)
(-0.0230995 -0.00095633 0)
(-0.0221527 -0.00253408 0)
(-0.0203145 -0.00425245 0)
(-0.0175212 -0.00598646 0)
(-0.0138007 -0.00750678 0)
(-0.0093864 -0.00839725 0)
(-0.00441069 -0.00790706 0)
(-0.000883111 -0.00443353 0)
(-0.000494775 0.00369502 0)
(-0.0025714 0.00689181 0)
(-0.00566077 0.0078647 0)
(-0.00868279 0.00794517 0)
(-0.0116603 0.00770165 0)
(-0.0145051 0.00729557 0)
(-0.0171654 0.00674391 0)
(-0.0195922 0.00602375 0)
(-0.0217259 0.0050996 0)
(-0.0234932 0.00392994 0)
(-0.0248047 0.00247218 0)
(-0.0255519 0.000690521 0)
(-0.0256029 -0.00143283 0)
(-0.0248039 -0.00388634 0)
(-0.0230007 -0.00658814 0)
(-0.0200665 -0.00935488 0)
(-0.0159726 -0.0118284 0)
(-0.010958 -0.0133305 0)
(-0.00516369 -0.0126381 0)
(-0.00102365 -0.00717925 0)
(-0.000506323 0.00521483 0)
(-0.00267494 0.00961643 0)
(-0.00591593 0.010934 0)
(-0.00908617 0.01103 0)
(-0.0122222 0.0106892 0)
(-0.0152392 0.0101324 0)
(-0.0180938 0.00938472 0)
(-0.0207458 0.00841712 0)
(-0.0231436 0.00718187 0)
(-0.0252192 0.00561977 0)
(-0.0268818 0.00366525 0)
(-0.0280105 0.00125594 0)
(-0.028449 -0.0016523 0)
(-0.0279927 -0.00506921 0)
(-0.0264045 -0.00891302 0)
(-0.0234502 -0.0129503 0)
(-0.0189836 -0.0166725 0)
(-0.0132086 -0.0190578 0)
(-0.00627375 -0.0182403 0)
(-0.00123806 -0.010433 0)
(-0.000515838 0.00678753 0)
(-0.00277545 0.0124656 0)
(-0.0061725 0.014151 0)
(-0.00949927 0.014273 0)
(-0.0128066 0.0138487 0)
(-0.0160153 0.0131639 0)
(-0.0190943 0.0122533 0)
(-0.0220172 0.0110824 0)
(-0.0247463 0.00959006 0)
(-0.0272257 0.00769534 0)
(-0.0293701 0.00530075 0)
(-0.0310512 0.00230147 0)
(-0.0320883 -0.00139832 0)
(-0.0322145 -0.00586473 0)
(-0.0310768 -0.0110523 0)
(-0.0282746 -0.0167031 0)
(-0.0234537 -0.0221391 0)
(-0.0166848 -0.0258834 0)
(-0.00807589 -0.0251325 0)
(-0.00161329 -0.0144771 0)
(-0.000527592 0.0084166 0)
(-0.00289251 0.0154494 0)
(-0.00646813 0.0175288 0)
(-0.00997184 0.0176887 0)
(-0.0134705 0.0171981 0)
(-0.0168928 0.0164144 0)
(-0.0202238 0.0153852 0)
(-0.0234571 0.0140724 0)
(-0.0265773 0.0124017 0)
(-0.0295519 0.0102676 0)
(-0.0323143 0.00753163 0)
(-0.034743 0.0040257 0)
(-0.0366468 -0.000433115 0)
(-0.0376979 -0.00599198 0)
(-0.0374013 -0.0127344 0)
(-0.0351189 -0.0204443 0)
(-0.0301525 -0.0282926 0)
(-0.0222182 -0.034217 0)
(-0.0112004 -0.0340019 0)
(-0.00233618 -0.0198495 0)
(-0.000541903 0.0101132 0)
(-0.00302971 0.0185902 0)
(-0.00680888 0.0210902 0)
(-0.0105069 0.0212971 0)
(-0.0142094 0.0207556 0)
(-0.0178545 0.0199034 0)
(-0.0214482 0.0188066 0)
(-0.0250109 0.0174279 0)
(-0.0285606 0.015684 0)
(-0.0321044 0.0134459 0)
(-0.0356194 0.01053 0)
(-0.0390231 0.00668985 0)
(-0.0421197 0.00162254 0)
(-0.0445723 -0.00498572 0)
(-0.0457725 -0.0134499 0)
(-0.0447651 -0.023728 0)
(-0.040341 -0.0349717 0)
(-0.0314497 -0.0444778 0)
(-0.0171718 -0.0459564 0)
(-0.00390639 -0.0276609 0)
(-0.000559466 0.0118894 0)
(-0.00319012 0.021911 0)
(-0.00719754 0.0248546 0)
(-0.0111 0.0251096 0)
(-0.0150057 0.0245249 0)
(-0.0188634 0.0236306 0)
(-0.0227043 0.0225186 0)
(-0.0265828 0.0211614 0)
(-0.0305624 0.0194753 0)
(-0.0347091 0.0173169 0)
(-0.0390741 0.0144626 0)
(-0.0436576 0.0105828 0)
(-0.0483476 0.00521918 0)
(-0.0528812 -0.00221923 0)
(-0.0566034 -0.0123098 0)
(-0.0583138 -0.0255216 0)
(-0.056188 -0.0413328 0)
(-0.0476795 -0.0567281 0)
(-0.0295384 -0.0627541 0)
(-0.00758397 -0.0403553 0)
(-0.000583333 0.0137603 0)
(-0.00338322 0.0254372 0)
(-0.00764548 0.0288374 0)
(-0.0117547 0.0291259 0)
(-0.0158472 0.0284916 0)
(-0.0198831 0.0275698 0)
(-0.0239215 0.0264888 0)
(-0.0280566 0.0252421 0)
(-0.0324077 0.0237628 0)
(-0.0371208 0.021914 0)
(-0.0423602 0.0194566 0)
(-0.0482843 0.0159989 0)
(-0.0549864 0.0109305 0)
(-0.0623617 0.0033759 0)
(-0.0700696 -0.00772331 0)
(-0.0771023 -0.0235456 0)
(-0.080993 -0.044868 0)
(-0.0762534 -0.0698206 0)
(-0.0539929 -0.0872473 0)
(-0.0153983 -0.0631463 0)
(-0.000620989 0.0157509 0)
(-0.00363085 0.0292019 0)
(-0.00818151 0.0330516 0)
(-0.0124925 0.0333344 0)
(-0.0167381 0.03262 0)
(-0.02089 0.0316643 0)
(-0.0250362 0.0306417 0)
(-0.0293114 0.0295817 0)
(-0.0338937 0.0284559 0)
(-0.0390201 0.027169 0)
(-0.0450007 0.0255183 0)
(-0.052223 0.0231219 0)
(-0.0611295 0.019311 0)
(-0.0721659 0.0130114 0)
(-0.0857405 0.00264245 0)
(-0.101888 -0.014029 0)
(-0.117414 -0.0407818 0)
(-0.120191 -0.0814527 0)
(-0.0910659 -0.124392 0)
(-0.026972 -0.10597 0)
(-0.000688098 0.0179067 0)
(-0.00397614 0.0332575 0)
(-0.00886295 0.0375177 0)
(-0.0133635 0.037718 0)
(-0.0177099 0.0368562 0)
(-0.0218864 0.0358246 0)
(-0.0260084 0.0348539 0)
(-0.0302454 0.0340225 0)
(-0.0348243 0.0333668 0)
(-0.0400654 0.0328808 0)
(-0.0464281 0.0324799 0)
(-0.0545778 0.0319291 0)
(-0.065464 0.030726 0)
(-0.0804072 0.0279564 0)
(-0.101244 0.0219181 0)
(-0.129306 0.00817114 0)
(-0.15863 -0.0246154 0)
(-0.165154 -0.0938859 0)
(-0.124144 -0.182405 0)
(-0.0382592 -0.177637 0)
(-0.00081445 0.020294 0)
(-0.00449288 0.0376312 0)
(-0.00978664 0.0421771 0)
(-0.0144606 0.0421622 0)
(-0.0188383 0.0410617 0)
(-0.0229182 0.0398926 0)
(-0.0268428 0.0389288 0)
(-0.0308016 0.038307 0)
(-0.035039 0.0381511 0)
(-0.0399136 0.0385899 0)
(-0.0459791 0.0397508 0)
(-0.0541142 0.0417328 0)
(-0.0656993 0.0445484 0)
(-0.0828626 0.0478804 0)
(-0.108746 0.0497906 0)
(-0.144552 0.0407695 0)
(-0.178645 -0.00354138 0)
(-0.177549 -0.117194 0)
(-0.134468 -0.258473 0)
(-0.0477873 -0.27415 0)
(-0.00108016 0.0231639 0)
(-0.00537662 0.0427729 0)
(-0.0111496 0.047542 0)
(-0.0159116 0.0471616 0)
(-0.0201977 0.0455796 0)
(-0.0240448 0.0440187 0)
(-0.0275979 0.0428389 0)
(-0.0310261 0.0422473 0)
(-0.0345467 0.0424615 0)
(-0.0384788 0.0437744 0)
(-0.0433321 0.0466072 0)
(-0.049956 0.0515485 0)
(-0.0597434 0.0593553 0)
(-0.0746282 0.0701032 0)
(-0.0973887 0.0801996 0)
(-0.127013 0.0724542 0)
(-0.154069 0.0122264 0)
(-0.145803 -0.139773 0)
(-0.12465 -0.319534 0)
(-0.0482121 -0.37642 0)
(-0.00145728 0.0266874 0)
(-0.00640901 0.0474741 0)
(-0.0129274 0.051677 0)
(-0.0179253 0.0504143 0)
(-0.0221856 0.0483746 0)
(-0.0256729 0.0466506 0)
(-0.0286109 0.0454697 0)
(-0.0311747 0.0449806 0)
(-0.0335057 0.0454357 0)
(-0.0357628 0.0472558 0)
(-0.0382071 0.0511318 0)
(-0.0412645 0.0580865 0)
(-0.0457778 0.0694198 0)
(-0.0524268 0.0848629 0)
(-0.0627786 0.0992788 0)
(-0.074273 0.089649 0)
(-0.0893498 0.0209073 0)
(-0.0809323 -0.145227 0)
(-0.0950352 -0.350371 0)
(-0.0310041 -0.46256 0)
(-0.00352189 0.0299225 0)
(-0.0107506 0.0560547 0)
(-0.0167013 0.0601742 0)
(-0.0209427 0.0584274 0)
(-0.0242606 0.0550316 0)
(-0.0270183 0.0519607 0)
(-0.0292788 0.0496008 0)
(-0.0310228 0.0481599 0)
(-0.0321736 0.0478846 0)
(-0.0326055 0.0491838 0)
(-0.032156 0.0528158 0)
(-0.0305376 0.0598886 0)
(-0.0279026 0.0719732 0)
(-0.0228331 0.0880743 0)
(-0.0175681 0.103637 0)
(-0.0063933 0.093833 0)
(-0.00840866 0.02696 0)
(-0.00215011 -0.129934 0)
(-0.0503632 -0.351402 0)
(-0.00827353 -0.510396 0)
(-0.0011782 0.0439128 0)
(-0.00871352 0.0585325 0)
(-0.0196546 0.059099 0)
(-0.0243228 0.0546041 0)
(-0.0284224 0.0513605 0)
(-0.0307523 0.049006 0)
(-0.0320421 0.0473294 0)
(-0.0323491 0.0462166 0)
(-0.0316191 0.0458435 0)
(-0.0295728 0.0465129 0)
(-0.0257637 0.0489439 0)
(-0.0191121 0.0538484 0)
(-0.00948082 0.0627038 0)
(0.0068063 0.074595 0)
(0.02558 0.0859797 0)
(0.0551131 0.0783072 0)
(0.0612465 0.0227169 0)
(0.0668413 -0.101333 0)
(-0.00459153 -0.325271 0)
(0.0176176 -0.521769 0)
(-0.0123915 0.0329138 0)
(-0.0243792 0.0798937 0)
(-0.0240567 0.0787215 0)
(-0.0304709 0.0735449 0)
(-0.0326251 0.0662688 0)
(-0.033048 0.0600834 0)
(-0.0316411 0.0549571 0)
(-0.0287366 0.0508424 0)
(-0.0244454 0.0477317 0)
(-0.018507 0.0454759 0)
(-0.0109587 0.0444866 0)
(-0.000330252 0.044954 0)
(0.0130085 0.048195 0)
(0.0334832 0.0533217 0)
(0.0547927 0.0596854 0)
(0.090563 0.0548566 0)
(0.0984645 0.0203756 0)
(0.125427 -0.0658868 0)
(0.0558456 -0.289156 0)
(0.0598517 -0.505978 0)
(-0.0771899 0.0967993 0)
(-0.0629222 0.0594997 0)
(-0.0653196 0.0599406 0)
(-0.044037 0.053269 0)
(-0.0270047 0.0463735 0)
(-0.00731838 0.0412115 0)
(0.0112424 0.0374809 0)
(0.0299083 0.0342649 0)
(0.0470403 0.0318635 0)
(0.065245 0.0295781 0)
(0.0808996 0.0281829 0)
(0.100488 0.0270735 0)
(0.114782 0.0269692 0)
(0.142183 0.0275873 0)
(0.15363 0.024918 0)
(0.201452 0.0190974 0)
(0.196706 -0.0148534 0)
(0.239607 -0.080026 0)
(0.16646 -0.263584 0)
(0.127737 -0.442662 0)
(0.119778 0.140715 0)
(0.152449 0.0861545 0)
(0.229435 0.0635762 0)
(0.284774 0.0481503 0)
(0.326066 0.0374704 0)
(0.364437 0.0296845 0)
(0.39293 0.0242707 0)
(0.424463 0.0202596 0)
(0.444108 0.0173579 0)
(0.472863 0.0152029 0)
(0.485624 0.0134271 0)
(0.515093 0.0124268 0)
(0.520657 0.0112947 0)
(0.554612 0.0109099 0)
(0.549846 0.0095065 0)
(0.586981 0.00572453 0)
(0.558387 -0.00362751 0)
(0.568132 -0.0272137 0)
(0.430511 -0.0726819 0)
(0.276534 -0.152023 0)
)
;

boundaryField
{
    movingWall
    {
        type            fixedValue;
        value           uniform (1 0 0);
    }
    fixedWalls
    {
        type            noSlip;
    }
    frontAndBack
    {
        type            empty;
    }
}


// ************************************************************************* //
