/*--------------------------------*- C++ -*----------------------------------*\
  =========                 |
  \\      /  F ield         | OpenFOAM: The Open Source CFD Toolbox
   \\    /   O peration     | Website:  https://openfoam.org
    \\  /    A nd           | Version:  10
     \\/     M anipulation  |
\*---------------------------------------------------------------------------*/
FoamFile
{
    format      ascii;
    class       volScalarField;
    location    "3.225";
    object      p;
}
// * * * * * * * * * * * * * * * * * * * * * * * * * * * * * * * * * * * * * //

dimensions      [0 2 -2 0 0 0 0];

internalField   nonuniform List<scalar> 
8000
(
1.42583e-06
-1.32467e-05
1.653e-05
7.3299e-05
0.000162033
0.000282952
0.000435487
0.00061841
0.000829499
0.00106525
0.00132091
0.00158991
0.00186396
0.00213313
0.00238608
0.00261072
0.00279486
0.00292757
0.00300751
0.00300454
1.71052e-05
3.2532e-07
2.97782e-05
8.45838e-05
0.000170509
0.000288024
0.000436812
0.0006159
0.000823322
0.00105589
0.00130893
0.00157592
0.00184917
0.00211855
0.00237263
0.00259907
0.0027853
0.00292012
0.00300283
0.00299925
-1.86415e-05
-3.86419e-05
-1.03974e-05
4.29054e-05
0.000127578
0.000244254
0.000392906
0.000572919
0.000782703
0.00101942
0.00127872
0.00155473
0.00183912
0.00212163
0.00239021
0.00263148
0.0028314
0.002977
0.00306703
0.00306213
-8.85994e-05
-0.000111424
-8.4546e-05
-3.29625e-05
5.03989e-05
0.000166513
0.000315839
0.000498325
0.000712979
0.000957546
0.00122816
0.00151909
0.00182271
0.00212803
0.00242184
0.00268894
0.00291293
0.00307779
0.00318102
0.00317672
-0.000198421
-0.000224535
-0.000199298
-0.000149637
-6.75256e-05
4.84834e-05
0.000199509
0.000386269
0.0006086
0.000865076
0.00115257
0.00146589
0.00179791
0.00213695
0.00246849
0.00277493
0.00303613
0.00323131
0.00335553
0.00335354
-0.000350014
-0.000380228
-0.000357096
-0.000309914
-0.000229474
-0.000113725
3.93e-05
0.000231323
0.000463289
0.000734907
0.00104407
0.00138626
0.00175658
0.00214155
0.00252541
0.00288756
0.00320284
0.00344319
0.0035993
0.00360226
-0.000545623
-0.000580967
-0.000560672
-0.000517006
-0.00043933
-0.000324852
-0.000170559
2.6548e-05
0.00026887
0.00055768
0.000892157
0.00126679
0.00168721
0.00213111
0.00258399
0.00302213
0.00341378
0.00372018
0.00392422
0.00393669
-0.000788139
-0.000829866
-0.000813446
-0.000774893
-0.000701863
-0.000590715
-0.000437178
-0.000236693
1.50136e-05
0.000321522
0.000685389
0.00110905
0.00157579
0.00208958
0.00263002
0.00316906
0.00366687
0.00406969
0.00434617
0.00437838
-0.00108111
-0.00113069
-0.00111946
-0.0010882
-0.00102257
-0.00091801
-0.000768809
-0.000568602
-0.000310946
1.02795e-05
0.000400271
0.000862056
0.00139346
0.00199134
0.00263991
0.00330994
0.00395342
0.00449765
0.00488483
0.00495845
-0.00142897
-0.00148802
-0.00148348
-0.0014622
-0.00140759
-0.00131412
-0.00117454
-0.000980486
-0.000723092
-0.000393245
1.79791e-05
0.000518339
0.00111212
0.00180121
0.00257649
0.00341122
0.00425119
0.00500314
0.00556235
0.005725
-0.00183751
-0.00190766
-0.00191116
-0.00190281
-0.00186352
-0.00178684
-0.00166385
-0.00148415
-0.00123641
-0.000908355
-0.000486826
4.18964e-05
0.000691353
0.00146874
0.00238201
0.00341383
0.0045114
0.00556589
0.0063978
0.00675142
-0.00231489
-0.00239728
-0.00240943
-0.00241669
-0.00239729
-0.00234388
-0.00224588
-0.00209088
-0.00186532
-0.00155419
-0.00114041
-0.000604048
7.76437e-05
0.00092875
0.00197109
0.00321758
0.00463545
0.00612166
0.00738814
0.00815158
-0.00287374
-0.00296763
-0.00298705
-0.00301134
-0.0030159
-0.00299241
-0.00292847
-0.00280988
-0.00262146
-0.00234663
-0.00196611
-0.00145585
-0.000784543
8.98048e-05
0.0012116
0.00265487
0.00443314
0.00650727
0.00843279
0.0101311
-0.00353803
-0.00363622
-0.00365621
-0.00369578
-0.00372657
-0.00373861
-0.00371717
-0.00364637
-0.00351037
-0.00329285
-0.00297551
-0.00253422
-0.00193284
-0.00111429
2.54579e-06
0.00152945
0.00360137
0.00635785
0.00925048
0.0128575
-0.00433632
-0.00443221
-0.00443958
-0.00448811
-0.00454099
-0.00458793
-0.00461299
-0.00459827
-0.00452752
-0.00438705
-0.00416524
-0.00384835
-0.00341334
-0.00281173
-0.00194175
-0.000634166
0.00140458
0.00490636
0.00903543
0.0161023
-0.00542528
-0.00532919
-0.00527341
-0.00529202
-0.00537462
-0.00548285
-0.00558243
-0.00564402
-0.00565
-0.00559416
-0.0054802
-0.00531429
-0.00510336
-0.00483193
-0.00443834
-0.00370913
-0.00229377
0.00131096
0.00582753
0.0183936
-0.00653896
-0.00674801
-0.00659713
-0.00665344
-0.00669809
-0.0067637
-0.00683528
-0.00689141
-0.00692057
-0.00691905
-0.00690492
-0.00690935
-0.00699628
-0.00723376
-0.00768787
-0.00821654
-0.0091109
-0.00612936
-0.00179804
0.0194974
-0.0102465
-0.00757063
-0.00725871
-0.0069552
-0.00703302
-0.00724225
-0.00749895
-0.00772587
-0.00789778
-0.00800412
-0.00809253
-0.00820771
-0.00849584
-0.0090725
-0.0102844
-0.0116944
-0.0151969
-0.0128129
-0.00856339
0.0246072
-0.0103374
-0.0112899
-0.0102592
-0.0102042
-0.00990387
-0.00974099
-0.00964357
-0.00957483
-0.00952531
-0.00946451
-0.00944685
-0.0095275
-0.00987588
-0.0107169
-0.012663
-0.0150494
-0.0211275
-0.0182892
-0.0118006
0.0479144
-0.0339924
-0.00900369
-0.00807952
-0.00732049
-0.00715651
-0.00748741
-0.00797819
-0.00838603
-0.00872946
-0.00892999
-0.00916947
-0.00934899
-0.0098545
-0.0104114
-0.0117137
-0.0117356
-0.0109462
0.00511744
0.0400933
0.141703
6.05818e-06
-1.87371e-05
9.68416e-06
6.58428e-05
0.000154906
0.000276647
0.000430324
0.000614713
0.000827545
0.00106544
0.00132338
0.00159485
0.00187157
0.0021435
0.00239918
0.00262624
0.00281203
0.00294474
0.00302342
0.00300906
3.02515e-05
4.30555e-06
3.29936e-05
8.67833e-05
0.000172239
0.000289519
0.000438183
0.000617276
0.000824856
0.00105777
0.00131137
0.0015792
0.00185341
0.00212394
0.00237925
0.00260682
0.00279368
0.00292787
0.00300947
0.00299365
-3.15408e-06
-3.31473e-05
-5.60772e-06
4.65671e-05
0.000130632
0.000246907
0.000395259
0.000575101
0.000784884
0.00102181
0.00128155
0.00155826
0.00184359
0.00212728
0.00239719
0.00263971
0.00284035
0.00298526
0.00307406
0.0030552
-7.06274e-05
-0.000104138
-7.79312e-05
-2.75642e-05
5.50765e-05
0.000170652
0.000319526
0.000501683
0.000716185
0.00096083
0.0012318
0.00152347
0.001828
0.00213454
0.00242976
0.00269826
0.00292309
0.00308719
0.00318902
0.00316893
-0.000178237
-0.00021582
-0.000191219
-0.000142819
-6.14655e-05
5.39683e-05
0.000204508
0.000390918
0.000613096
0.000869693
0.00115767
0.00147192
0.00180496
0.00214544
0.00247873
0.00278695
0.0030493
0.0032437
0.00336626
0.00334605
-0.00032737
-0.000370013
-0.000347462
-0.000301564
-0.000221884
-0.000106704
4.58559e-05
0.000237571
0.000469464
0.000741355
0.00105131
0.00139515
0.00176645
0.00215321
0.0025394
0.00290404
0.00322108
0.0034608
0.00361498
0.00359639
-0.000519937
-0.000568889
-0.000549093
-0.000506735
-0.000429817
-0.000315898
-0.000162039
3.48235e-05
0.000277183
0.000566466
0.000902339
0.00128188
0.00170106
0.00214725
0.00260351
0.0030454
0.00344
0.00374634
0.00394828
0.00393552
-0.000758612
-0.000815385
-0.000799353
-0.000762148
-0.000689897
-0.000579319
-0.000426201
-0.000225904
2.59322e-05
0.000332931
0.000697299
0.00111873
0.00159291
0.00211158
0.00265742
0.00320251
0.00370562
0.00410985
0.00438425
0.00438624
-0.00104669
-0.00111306
-0.00110209
-0.00107226
-0.00100748
-0.000903558
-0.000754809
-0.000554755
-0.000296823
2.52563e-05
0.000416722
0.000880127
0.00141734
0.00202165
0.00267851
0.00335854
0.00401181
0.00456094
0.00494689
0.00498514
-0.00138825
-0.00146621
-0.00146177
-0.00144209
-0.00138853
-0.0012959
-0.00115691
-0.000963051
-0.000705258
-0.000374143
3.96795e-05
0.000545278
0.00114394
0.00184226
0.00263054
0.00348206
0.00434034
0.00510543
0.00566612
0.00579241
-0.00178847
-0.00188017
-0.00188364
-0.00187724
-0.00183942
-0.001764
-0.00164198
-0.0014627
-0.00121457
-0.000885026
-0.000460411
7.35179e-05
0.000730248
0.00152307
0.00245657
0.00351633
0.00464782
0.005734
0.0065757
0.00691558
-0.00225447
-0.00236191
-0.00237394
-0.00238387
-0.00236678
-0.00231551
-0.00221922
-0.0020652
-0.00183957
-0.0015269
-0.00110942
-0.000566203
0.000126896
0.000996602
0.0020698
0.0033616
0.00484066
0.00639609
0.00770065
0.00854216
-0.00279678
-0.00292072
-0.00294025
-0.00296869
-0.0029772
-0.0029575
-0.00289675
-0.00278031
-0.00259262
-0.0023166
-0.00193202
-0.0014132
-0.000725565
0.000171488
0.00134126
0.00284853
0.0047274
0.006931
0.00896488
0.0110612
-0.00343513
-0.00357106
-0.0035913
-0.00363806
-0.00367656
-0.00369606
-0.00368084
-0.00361449
-0.00348087
-0.00326324
-0.00294222
-0.0024912
-0.00186885
-0.00100171
0.000141093
0.00172971
0.00394231
0.00691198
0.0100104
0.0147027
-0.0041878
-0.0043435
-0.00435402
-0.00441821
-0.00448356
-0.00454184
-0.00457671
-0.00456967
-0.00450394
-0.00436553
-0.00414211
-0.0038191
-0.00337431
-0.00277005
-0.00186562
-0.000535593
0.00159377
0.00527037
0.00934727
0.0184323
-0.00518812
-0.00514444
-0.00510975
-0.00515691
-0.00527375
-0.0054135
-0.00554004
-0.00562255
-0.00564362
-0.00559534
-0.00548178
-0.00530978
-0.00509
-0.0048158
-0.00444345
-0.00383973
-0.00279631
0.000182361
0.00292187
0.018278
-0.00608091
-0.0065318
-0.00640055
-0.00654792
-0.0066455
-0.00675738
-0.00686272
-0.00694237
-0.00698711
-0.00699185
-0.0069758
-0.00697238
-0.00705699
-0.007334
-0.00797256
-0.00910032
-0.011711
-0.0105003
-0.00994637
0.0147376
-0.00952967
-0.00702668
-0.00680302
-0.00662823
-0.00685671
-0.00718578
-0.00753247
-0.00782248
-0.00803596
-0.00815689
-0.00824279
-0.00833413
-0.00860954
-0.00921989
-0.0107576
-0.0129224
-0.018883
-0.0197379
-0.0199871
0.0202844
-0.00742543
-0.0101064
-0.00957178
-0.0100459
-0.010051
-0.0100736
-0.0100938
-0.0100816
-0.0100518
-0.00996399
-0.00987806
-0.00988018
-0.010127
-0.0109049
-0.013229
-0.0160828
-0.0245409
-0.0248227
-0.0156006
0.0516461
-0.0313429
-0.00694093
-0.00647216
-0.00636671
-0.00664849
-0.00723139
-0.00791201
-0.00843888
-0.00889885
-0.00909934
-0.00937081
-0.00947041
-0.0100175
-0.0105423
-0.0120928
-0.0124652
-0.0113105
0.00550985
0.0522924
0.16965
1.13622e-05
-1.66894e-05
1.10099e-05
6.64652e-05
0.000155325
0.000277186
0.000431227
0.000616136
0.000829725
0.00106855
0.00132772
0.00160067
0.00187903
0.00215266
0.00240997
0.00263842
0.00282507
0.00295775
0.00303577
0.0030172
3.90433e-05
9.58527e-06
3.76433e-05
9.06326e-05
0.000175619
0.000292625
0.000441178
0.000620319
0.000828132
0.00106148
0.00131573
0.00158443
0.00185967
0.00213135
0.00238782
0.00261641
0.00280386
0.00293785
0.00301889
0.0029991
7.19755e-06
-2.66248e-05
2.89842e-07
5.15926e-05
0.000135103
0.000251004
0.000399134
0.000578919
0.000788838
0.00102612
0.00128646
0.00156403
0.0018504
0.00213531
0.00240649
0.00265017
0.00285154
0.00299631
0.00308455
0.0030612
-5.83336e-05
-9.59664e-05
-7.04005e-05
-2.09927e-05
6.09995e-05
0.000176094
0.000324632
0.000506627
0.000721178
0.000966126
0.00123768
0.00153026
0.00183592
0.00214383
0.00244053
0.00271045
0.00293624
0.00310033
0.00320164
0.00317654
-0.000163911
-0.000205967
-0.000182022
-0.000134656
-5.40215e-05
6.08595e-05
0.000211001
0.000397204
0.000619423
0.000876368
0.00116506
0.00148042
0.00181482
0.002157
0.00249223
0.00280236
0.00306616
0.00326083
0.00338298
0.0033571
-0.000310655
-0.000358199
-0.000336319
-0.000291534
-0.000212645
-9.80849e-05
5.40239e-05
0.000245512
0.000477474
0.000749819
0.00106073
0.00140609
0.00177908
0.0021681
0.00255698
0.00292442
0.00324376
0.00348433
0.00363838
0.00361327
-0.00050024
-0.000554612
-0.000535508
-0.000494374
-0.000418349
-0.000305148
-0.000151816
4.47832e-05
0.000287238
0.0005771
0.000914232
0.00129603
0.00171726
0.00216658
0.00262677
0.00307294
0.00347137
0.00377971
0.00398213
0.00396154
-0.000735101
-0.000797925
-0.000782628
-0.000746815
-0.000675627
-0.000565933
-0.000413482
-0.000213537
3.83738e-05
0.00034599
0.000711596
0.00113492
0.001613
0.00213648
0.00268823
0.00324004
0.00374963
0.00415811
0.00443438
0.00442753
-0.00101822
-0.00109141
-0.00108126
-0.00105309
-0.00098967
-0.000886927
-0.000739104
-0.000539589
-0.000281658
4.11552e-05
0.000434383
0.000901287
0.00144262
0.00205344
0.00271897
0.00340951
0.00407383
0.0046316
0.00502232
0.0050522
-0.00135322
-0.00143895
-0.0014355
-0.00141794
-0.00136622
-0.00127529
-0.00113771
-0.000944778
-0.000687247
-0.000355455
6.02473e-05
0.000568885
0.0011741
0.00188158
0.00268247
0.00355018
0.00442701
0.0052092
0.00578073
0.0059044
-0.00174458
-0.00184524
-0.00185003
-0.0018465
-0.00181139
-0.00173856
-0.00161878
-0.00144118
-0.0011939
-0.000864
-0.000437402
0.000100669
0.000764772
0.00156951
0.00252051
0.00360439
0.00476608
0.00588455
0.00674971
0.0071063
-0.00219827
-0.00231622
-0.00233017
-0.00234426
-0.00233135
-0.00228419
-0.00219161
-0.0020406
-0.00181693
-0.00150475
-0.0010857
-0.000538044
0.000163929
0.00104693
0.00214279
0.00346836
0.00499427
0.00660725
0.00796155
0.00887445
-0.00272287
-0.00285946
-0.00288203
-0.00291687
-0.00293206
-0.00291907
-0.00286449
-0.0027533
-0.00256954
-0.00229563
-0.00191076
-0.00138852
-0.000693454
0.000217874
0.00141455
0.00296351
0.00490791
0.00720406
0.009339
0.0116393
-0.00333444
-0.00348602
-0.00351109
-0.00356813
-0.00361789
-0.00364876
-0.00364397
-0.00358664
-0.00346018
-0.00324738
-0.00292838
-0.00247594
-0.00184856
-0.000978822
0.000188299
0.00181574
0.00410011
0.00719957
0.0104615
0.0155589
-0.00404643
-0.00422501
-0.00424412
-0.0043262
-0.00440933
-0.00448543
-0.00453689
-0.00454454
-0.00449109
-0.00436146
-0.00414389
-0.00382439
-0.0033815
-0.0027755
-0.00191584
-0.000565151
0.00157217
0.00534866
0.00955209
0.0192443
-0.00497949
-0.00495801
-0.00494014
-0.00501392
-0.00516233
-0.00533442
-0.00549146
-0.0056008
-0.00564316
-0.00561045
-0.00550756
-0.00534333
-0.00513249
-0.00487249
-0.00451395
-0.00404364
-0.00322493
-0.000497018
0.00208882
0.0180021
-0.0057421
-0.00625321
-0.00615109
-0.00635877
-0.00651024
-0.00667596
-0.00683035
-0.00695192
-0.00702799
-0.00705343
-0.00705045
-0.0070568
-0.00715813
-0.00748162
-0.00825767
-0.00970001
-0.0131132
-0.012741
-0.0120863
0.0129411
-0.00910359
-0.00664027
-0.00642983
-0.00632069
-0.00663483
-0.00704976
-0.00748074
-0.00783913
-0.00810466
-0.00825843
-0.00836341
-0.00846046
-0.008752
-0.0094086
-0.0111519
-0.0137105
-0.0206017
-0.0228301
-0.0227765
0.0204082
-0.00635092
-0.009271
-0.00888894
-0.00953286
-0.00969812
-0.00989863
-0.0100797
-0.0101858
-0.0102375
-0.0101928
-0.0101158
-0.0101086
-0.0103421
-0.0111327
-0.0137062
-0.0168878
-0.0259581
-0.0261384
-0.0130116
0.0564766
-0.0305133
-0.00609089
-0.00567619
-0.00574615
-0.00622359
-0.00697473
-0.00780086
-0.00843366
-0.00897405
-0.00921393
-0.00951473
-0.00960018
-0.0101731
-0.0107552
-0.0123802
-0.0128358
-0.0108366
0.0074531
0.0599749
0.181366
1.68141e-05
-1.31508e-05
1.38643e-05
6.87579e-05
0.000157375
0.000279234
0.000433482
0.000618829
0.000833061
0.00107274
0.00133295
0.00160711
0.0018868
0.00216184
0.0024205
0.00265011
0.00283749
0.00297023
0.00304789
0.00302714
4.64964e-05
1.52251e-05
4.26881e-05
9.5007e-05
0.000179579
0.000296361
0.00044486
0.000624128
0.00083226
0.00106613
0.00132112
0.00159075
0.00186708
0.00213995
0.0023976
0.00262719
0.00281527
0.00294926
0.00302995
0.00300777
1.59599e-05
-1.97876e-05
6.52972e-06
5.71041e-05
0.000140126
0.000255716
0.000403702
0.000583524
0.000793685
0.00103144
0.00129248
0.00157099
0.00185851
0.00214471
0.0024172
0.00266205
0.00286419
0.00300904
0.00309696
0.00307093
-4.78651e-05
-8.75389e-05
-6.25902e-05
-1.39792e-05
6.74399e-05
0.000182127
0.000330422
0.000512365
0.000727088
0.000972469
0.00124475
0.00153835
0.0018453
0.00215471
0.002453
0.00272441
0.00295128
0.00311564
0.00321673
0.00318866
-0.000151541
-0.000195777
-0.000172486
-0.000125994
-4.60115e-05
6.83819e-05
0.000218207
0.000404307
0.000626685
0.000884107
0.00117364
0.00149023
0.00182622
0.00217031
0.00250765
0.00281986
0.00308531
0.00328068
0.00340287
0.00337369
-0.000296005
-0.0003459
-0.000324725
-0.000280911
-0.000202768
-8.87872e-05
6.29297e-05
0.00025427
0.0004864
0.000759312
0.00107127
0.00141821
0.00179324
0.00218481
0.00257666
0.00294718
0.00326919
0.00351126
0.00366587
0.00363716
-0.00048273
-0.000539666
-0.000521341
-0.000481313
-0.000406173
-0.000293687
-0.000140864
5.55112e-05
0.000298127
0.000588652
0.000927081
0.00131092
0.00173485
0.0021877
0.00265217
0.00310303
0.00350585
0.0038172
0.00402125
0.00399692
-0.000713919
-0.000779572
-0.000765167
-0.000730668
-0.000660582
-0.000551829
-0.000400093
-0.000200526
5.1473e-05
0.000359796
0.000726892
0.00115268
0.00163447
0.00216293
0.00272092
0.00327991
0.00379678
0.00421103
0.00449103
0.00448099
-0.000992248
-0.00106859
-0.00105952
-0.00103299
-0.000971025
-0.000869601
-0.000722852
-0.000524014
-0.000266181
5.73314e-05
0.000452339
0.000922515
0.00146841
0.00208596
0.00276042
0.00346187
0.00413813
0.00470667
0.0051052
0.00513438
-0.00132088
-0.00141019
-0.00140812
-0.0013927
-0.00134303
-0.00125405
-0.00111815
-0.000926441
-0.000669421
-0.000337149
8.03482e-05
0.00059251
0.0012037
0.00192012
0.00273347
0.00361741
0.00451347
0.00531525
0.00590244
0.00603311
-0.00170363
-0.00180843
-0.00181507
-0.00181451
-0.00178239
-0.00171255
-0.00159548
-0.00142003
-0.00117403
-0.000844205
-0.000416033
0.000125769
0.000796894
0.0016127
0.00258018
0.00368714
0.0048788
0.00603185
0.00692811
0.00731191
-0.00214541
-0.00226826
-0.00228486
-0.00230324
-0.00229487
-0.00225237
-0.00216416
-0.00201684
-0.00179581
-0.00148481
-0.001065
-0.000513975
0.000195273
0.00109059
0.00220642
0.00356241
0.00513259
0.00680391
0.00821945
0.0092073
-0.00265316
-0.00279576
-0.00282226
-0.00286355
-0.00288577
-0.00288011
-0.00283254
-0.0027275
-0.00254857
-0.00227779
-0.00189387
-0.00136985
-0.000669045
0.000253458
0.00147065
0.00305342
0.00505658
0.00744381
0.00969643
0.0121849
-0.00323998
-0.00339936
-0.00343038
-0.00349739
-0.00355829
-0.00360086
-0.0036073
-0.00355993
-0.00344163
-0.0032351
-0.00292025
-0.00246937
-0.00184019
-0.000962648
0.000219787
0.00186671
0.00420959
0.00742695
0.0108894
0.0163715
-0.00391649
-0.00410661
-0.00413535
-0.00423377
-0.0043339
-0.0044276
-0.00449615
-0.0045193
-0.00447903
-0.00436038
-0.00415179
-0.0038402
-0.00340537
-0.00280676
-0.00193004
-0.000637859
0.00149016
0.00535704
0.00982155
0.020136
-0.00479314
-0.00478382
-0.00478085
-0.0048779
-0.00505402
-0.00525556
-0.00544149
-0.00557688
-0.0056413
-0.00562651
-0.00553858
-0.00538921
-0.0051992
-0.00497831
-0.00471877
-0.00432288
-0.00364501
-0.00115666
0.00155027
0.0182193
-0.00546624
-0.00601718
-0.00593625
-0.00619103
-0.00638595
-0.0065956
-0.0067912
-0.00694761
-0.00705314
-0.00710208
-0.00711866
-0.00714537
-0.00727959
-0.00767112
-0.00860112
-0.0103211
-0.0144314
-0.0146994
-0.013844
0.0121338
-0.00872772
-0.00629519
-0.00610955
-0.00605214
-0.00643012
-0.00691497
-0.00741182
-0.00782747
-0.00814038
-0.00832876
-0.00845986
-0.00857857
-0.00890792
-0.00963949
-0.0115924
-0.0145153
-0.0222498
-0.0254856
-0.0248271
0.0199674
-0.00570792
-0.00878372
-0.00843098
-0.00918944
-0.00946016
-0.00976112
-0.0100349
-0.0102196
-0.0103342
-0.01033
-0.0102735
-0.0102784
-0.0105278
-0.0113724
-0.0141481
-0.0176284
-0.0273123
-0.027848
-0.0132156
0.0597537
-0.0297878
-0.00537296
-0.00501859
-0.00520692
-0.00582642
-0.00671243
-0.00765984
-0.0083899
-0.00901205
-0.00929876
-0.00963364
-0.00973501
-0.0103386
-0.0109806
-0.0126848
-0.0132573
-0.0111817
0.00772295
0.0624908
0.188531
2.22205e-05
-8.41518e-06
1.82242e-05
7.27174e-05
0.000161088
0.00028285
0.000437156
0.000622727
0.000837355
0.00107761
0.00133858
0.00161366
0.00189441
0.00217058
0.00243034
0.00266089
0.00284894
0.00298192
0.00305955
0.00303801
5.27925e-05
2.07971e-05
4.78912e-05
9.97718e-05
0.000184039
0.000300649
0.000449116
0.000628508
0.000836935
0.00107129
0.00132694
0.00159742
0.00187473
0.00214868
0.0024074
0.00263794
0.00282669
0.00296096
0.00304167
0.00301875
2.32028e-05
-1.33182e-05
1.26138e-05
6.2709e-05
0.000145379
0.000260743
0.000408643
0.000588542
0.000798964
0.00103718
0.00129891
0.00157831
0.00186691
0.00215431
0.00242804
0.00267403
0.00287703
0.00302229
0.00311033
0.0030835
-3.92667e-05
-7.97686e-05
-5.52339e-05
-7.16011e-06
7.38413e-05
0.000188231
0.000336371
0.000518333
0.000733283
0.000979131
0.00125214
0.00154675
0.00185496
0.00216581
0.00246566
0.00273855
0.00296662
0.00313167
0.00323308
0.00320419
-0.000141294
-0.000186428
-0.000163592
-0.000117708
-3.82191e-05
7.57989e-05
0.0002254
0.000411471
0.000634065
0.000891998
0.00118238
0.00150018
0.00183772
0.00218368
0.0025231
0.00283741
0.00310468
0.00330124
0.0034241
0.0033941
-0.000283709
-0.000334589
-0.000313928
-0.000270817
-0.000193269
-7.97663e-05
7.16361e-05
0.000262887
0.000495223
0.000768711
0.00108168
0.00143013
0.00180717
0.00220124
0.00259599
0.00296957
0.00329442
0.00353856
0.0036945
0.00366507
-0.000467842
-0.00052587
-0.000508144
-0.000468958
-0.000394564
-0.000282712
-0.000130347
6.58333e-05
0.000308612
0.000599767
0.000939405
0.00132513
0.00175167
0.00220792
0.0026765
0.0031319
0.00353921
0.00385416
0.00406072
0.00403602
-0.000695699
-0.000762579
-0.000748905
-0.000715456
-0.000646352
-0.000538484
-0.000387444
-0.000188272
6.37669e-05
0.000372712
0.000741179
0.00116926
0.00165443
0.0021875
0.00275128
0.00331703
0.003841
0.00426148
0.00454613
0.00453669
-0.000969692
-0.00104744
-0.00103929
-0.00101413
-0.000953523
-0.000853388
-0.000707736
-0.000509649
-0.000252044
7.197e-05
0.000468453
0.000941357
0.00149144
0.002115
0.00279749
0.00350884
0.00419623
0.00477545
0.0051825
0.00521474
-0.0012926
-0.00138353
-0.0013827
-0.00136915
-0.00132142
-0.00123437
-0.00110022
-0.000909873
-0.000653598
-0.000321195
9.76277e-05
0.000612734
0.00122887
0.0019529
0.00277696
0.00367499
0.00458812
0.00540802
0.00601072
0.0061504
-0.00166769
-0.00177441
-0.00178277
-0.00178484
-0.00175556
-0.00168866
-0.00157438
-0.00140129
-0.00115696
-0.000827772
-0.000398831
0.000145627
0.000822144
0.00164685
0.00262775
0.00375382
0.00497083
0.00615385
0.00707864
0.00748497
-0.00209906
-0.00222425
-0.00224331
-0.00226547
-0.00226133
-0.00222332
-0.00213951
-0.00199613
-0.00177828
-0.00146932
-0.00105001
-0.000497261
0.000216742
0.00112123
0.00225197
0.00363157
0.0052373
0.00695655
0.00842426
0.00946461
-0.00259252
-0.00273802
-0.00276809
-0.00281492
-0.00284347
-0.00284464
-0.0028039
-0.00270522
-0.00253184
-0.0022654
-0.00188439
-0.00136101
-0.00065795
0.000271387
0.00150132
0.0031084
0.00515645
0.0076161
0.009963
0.0125652
-0.00315928
-0.0033225
-0.00335866
-0.00343382
-0.00350423
-0.00355718
-0.00357408
-0.00353664
-0.00342748
-0.00322857
-0.00291996
-0.00247371
-0.00184677
-0.000966283
0.000217946
0.00187771
0.00426324
0.00757276
0.0111976
0.0168918
-0.00380878
-0.00400436
-0.00404062
-0.00415139
-0.00426525
-0.00437389
-0.00445772
-0.00449566
-0.00446909
-0.00436278
-0.00416558
-0.00386536
-0.00344345
-0.00286198
-0.00199965
-0.000736539
0.00138473
0.00533807
0.0100521
0.0207007
-0.00464542
-0.00464138
-0.00464876
-0.00476243
-0.00495897
-0.00518333
-0.00539292
-0.00555119
-0.00563652
-0.00564025
-0.00556964
-0.00543874
-0.0052727
-0.00508807
-0.00488702
-0.004564
-0.00394998
-0.00157397
0.00140673
0.0184757
-0.0052691
-0.0058345
-0.00576463
-0.00604725
-0.00627075
-0.00651164
-0.00673906
-0.00692678
-0.00706022
-0.00713347
-0.00717251
-0.00722366
-0.00739257
-0.00784269
-0.0088809
-0.010777
-0.0153118
-0.0158936
-0.0146195
0.0118631
-0.00846619
-0.00604375
-0.00587232
-0.00584325
-0.00625894
-0.00678805
-0.00733141
-0.00779247
-0.0081458
-0.00836769
-0.0085279
-0.00867486
-0.00904493
-0.00984517
-0.0119512
-0.0151159
-0.0233941
-0.0271996
-0.0257665
0.0196039
-0.00539897
-0.0084949
-0.00813004
-0.00892876
-0.0092449
-0.00960287
-0.00994284
-0.0101873
-0.0103535
-0.0103896
-0.0103626
-0.0103944
-0.0106754
-0.0115826
-0.0145074
-0.0182179
-0.0283157
-0.0291202
-0.0133575
0.0611475
-0.0294027
-0.00496653
-0.00462548
-0.00485514
-0.00554071
-0.0065048
-0.007532
-0.00833099
-0.00901256
-0.00934306
-0.00971271
-0.00984204
-0.0104795
-0.0111837
-0.0129705
-0.0136596
-0.0116022
0.00758959
0.0637312
0.191512
2.72269e-05
-3.70662e-06
2.26858e-05
7.69073e-05
0.000165089
0.000286766
0.000441106
0.000626848
0.000841793
0.00108252
0.00134411
0.00161996
0.00190159
0.00217868
0.00243937
0.00267074
0.00285941
0.00299275
0.00307051
0.00304872
5.82503e-05
2.59559e-05
5.2805e-05
0.000104399
0.000188453
0.000304943
0.000453405
0.000632924
0.000841626
0.00107641
0.00133266
0.0016039
0.0018821
0.00215699
0.00241667
0.00264809
0.00283752
0.00297218
0.00305307
0.00302989
2.9387e-05
-7.44925e-06
1.82239e-05
6.80044e-05
0.000150428
0.000265635
0.000413493
0.000593489
0.000804169
0.00104283
0.00130518
0.0015854
0.00187497
0.00216346
0.00243833
0.00268537
0.00288923
0.00303504
0.00312336
0.00309627
-3.19997e-05
-7.28382e-05
-4.85876e-05
-8.72441e-07
7.98309e-05
0.000194009
0.000342056
0.000524075
0.000739267
0.000985569
0.00125926
0.0015548
0.00186417
0.00217636
0.00247763
0.00275192
0.0029812
0.00314707
0.00324897
0.00321985
-0.000132636
-0.000178133
-0.00015562
-0.000110155
-3.10334e-05
8.27022e-05
0.000232147
0.000418231
0.000641055
0.000899481
0.00119065
0.00150958
0.00184855
0.00219623
0.00253757
0.00285383
0.00312288
0.00332076
0.00344447
0.00341435
-0.000273282
-0.000324559
-0.000304278
-0.000261674
-0.00018459
-7.14713e-05
7.96822e-05
0.00027088
0.000503424
0.000777449
0.00109135
0.00144117
0.00182004
0.0022164
0.00261379
0.00299019
0.00331774
0.00356404
0.00372147
0.00369212
-0.000455157
-0.000513625
-0.000496366
-0.000457815
-0.000384032
-0.000272722
-0.000120753
7.52558e-05
0.000318179
0.000609891
0.000950598
0.001338
0.00176688
0.00222618
0.00269844
0.00315796
0.00356941
0.0038879
0.00409705
0.00407288
-0.000680111
-0.00074749
-0.00073441
-0.000701789
-0.000633525
-0.000526445
-0.000376046
-0.000177258
7.47755e-05
0.000384228
0.000753861
0.00118392
0.00167204
0.00220912
0.00277799
0.0033497
0.00388003
0.00430631
0.00459544
0.0045875
-0.000950333
-0.00102866
-0.0010213
-0.000997262
-0.000937843
-0.000838884
-0.000694268
-0.000496934
-0.000239636
8.46976e-05
0.000482331
0.000957427
0.00151109
0.00213979
0.00282911
0.00354894
0.00424596
0.00483469
0.00524949
0.00528529
-0.0012683
-0.00135993
-0.00136018
-0.00134818
-0.00130217
-0.0012169
-0.00108441
-0.000895423
-0.000640001
-0.000307708
0.000112023
0.000629385
0.00124953
0.00197978
0.00281266
0.00372238
0.00464979
0.00548508
0.00610122
0.00624883
-0.00163687
-0.00174443
-0.00175431
-0.00175858
-0.00173182
-0.00166759
-0.00155593
-0.00138516
-0.00114259
-0.000814322
-0.00038512
0.00016123
0.000841726
0.00167338
0.00266486
0.0038062
0.00504369
0.00625112
0.00719952
0.00762282
-0.00205955
-0.00218579
-0.00220699
-0.0022323
-0.00223184
-0.00219784
-0.00211807
-0.00197847
-0.0017638
-0.00145713
-0.00103883
-0.000485293
0.00023182
0.00114304
0.00228475
0.0036824
0.00531587
0.0070729
0.00858178
0.00965805
-0.0025414
-0.00268825
-0.00272131
-0.00277264
-0.00280654
-0.00281364
-0.002779
-0.00268621
-0.00251814
-0.00225614
-0.00187829
-0.00135643
-0.000652351
0.000281091
0.00151857
0.00314296
0.00522484
0.00774103
0.0101597
0.0128351
-0.00309257
-0.00325757
-0.00329787
-0.0033794
-0.00345752
-0.00351911
-0.00354503
-0.00351643
-0.00341552
-0.00322421
-0.00292223
-0.00248142
-0.00185764
-0.000973781
0.000204633
0.00187118
0.00428557
0.00767019
0.0114189
0.0172468
-0.00372213
-0.00392014
-0.00396204
-0.00408184
-0.00420634
-0.00432698
-0.00442353
-0.00447423
-0.00445995
-0.00436539
-0.00417967
-0.00389151
-0.00348404
-0.00292424
-0.00207672
-0.000841868
0.00124703
0.00530836
0.0102258
0.0210895
-0.00453063
-0.00452887
-0.00454347
-0.00466872
-0.00488014
-0.00512182
-0.00535002
-0.0055268
-0.00562993
-0.00565056
-0.00559672
-0.00548433
-0.00534166
-0.00518981
-0.00503687
-0.00480466
-0.00448707
-0.0018852
0.00135189
0.0187058
-0.00512635
-0.00569728
-0.00563364
-0.00593276
-0.00617533
-0.00643867
-0.0066905
-0.00690174
-0.007058
-0.00715297
-0.00721367
-0.00728902
-0.00749006
-0.00798746
-0.00909743
-0.0110721
-0.0156028
-0.0166012
-0.015078
0.0118047
-0.00827741
-0.00585874
-0.00569779
-0.00568558
-0.00612451
-0.00668329
-0.00726029
-0.00775409
-0.00813877
-0.00838916
-0.0085764
-0.00875164
-0.00916026
-0.0100181
-0.0122337
-0.0155499
-0.0241608
-0.0283035
-0.0264473
0.0193548
-0.00521607
-0.00831044
-0.00792905
-0.00874359
-0.00908197
-0.00947331
-0.00985846
-0.0101415
-0.0103454
-0.0104151
-0.0104173
-0.0104779
-0.0107944
-0.0117576
-0.0147952
-0.0186652
-0.0290631
-0.0300432
-0.0137606
0.0617167
-0.0291542
-0.00470229
-0.00436336
-0.0046104
-0.0053302
-0.00634049
-0.00741919
-0.00826714
-0.00899426
-0.0093626
-0.00976634
-0.00992367
-0.0105992
-0.011354
-0.0132242
-0.0140003
-0.0120463
0.00725454
0.0639864
0.192915
3.15851e-05
5.3729e-07
2.67812e-05
8.08314e-05
0.000168883
0.000290494
0.000444856
0.000630726
0.000845917
0.00108702
0.00134911
0.00162558
0.00190792
0.00218578
0.00244724
0.00267932
0.00286856
0.00300227
0.00308024
0.0030584
6.28593e-05
3.04423e-05
5.71388e-05
0.000108554
0.000192468
0.00030888
0.000457351
0.000636983
0.000845921
0.00108108
0.00133783
0.0016097
0.00188863
0.00216434
0.00242484
0.00265702
0.00284707
0.00298217
0.0030633
0.00304009
3.4541e-05
-2.4223e-06
2.30857e-05
7.26667e-05
0.000154925
0.000270029
0.000417872
0.000597965
0.000808875
0.00104791
0.0013108
0.00159172
0.00188211
0.00217154
0.00244737
0.00269535
0.0029
0.00304638
0.00313505
0.00310796
-2.60027e-05
-6.69767e-05
-4.29134e-05
4.56795e-06
8.50665e-05
0.0001991
0.000347093
0.000529182
0.000744595
0.000991295
0.00126558
0.00156192
0.00187228
0.00218561
0.00248812
0.00276364
0.002994
0.00316071
0.00326314
0.00323409
-0.000125511
-0.000171157
-0.000148865
-0.000103684
-2.48254e-05
8.87045e-05
0.000238041
0.000424157
0.000647191
0.000906046
0.0011979
0.00151777
0.00185798
0.00220713
0.00255012
0.00286808
0.00313871
0.00333785
0.00346244
0.00343249
-0.000264697
-0.000316139
-0.00029613
-0.000253885
-0.000177151
-6.43293e-05
8.66315e-05
0.000277795
0.000510521
0.000785001
0.00109968
0.00145066
0.00183108
0.00222937
0.00262901
0.00300783
0.00333772
0.00358599
0.00374484
0.00371589
-0.000444697
-0.000503356
-0.000486444
-0.000448362
-0.000375061
-0.000264189
-0.000112551
8.33083e-05
0.000326341
0.000618504
0.000960086
0.00134886
0.0017797
0.00224153
0.00271686