/*--------------------------------*- C++ -*----------------------------------*\
  =========                 |
  \\      /  F ield         | OpenFOAM: The Open Source CFD Toolbox
   \\    /   O peration     | Website:  https://openfoam.org
    \\  /    A nd           | Version:  10
     \\/     M anipulation  |
\*---------------------------------------------------------------------------*/
FoamFile
{
    format      ascii;
    class       surfaceScalarField;
    location    "5.325";
    object      phi;
}
// * * * * * * * * * * * * * * * * * * * * * * * * * * * * * * * * * * * * * //

dimensions      [0 3 -1 0 0 0 0];

internalField   nonuniform List<scalar> 
760
(
-8.63995e-06
8.63995e-06
-2.8753e-05
2.0113e-05
-5.23131e-05
2.35602e-05
-7.61991e-05
2.38859e-05
-9.94236e-05
2.32246e-05
-0.000121544
2.21201e-05
-0.000142129
2.05853e-05
-0.000160637
1.8508e-05
-0.000176389
1.57519e-05
-0.000188566
1.21773e-05
-0.000196223
7.65637e-06
-0.00019832
2.09779e-06
-0.000193786
-4.53409e-06
-0.000181685
-1.21013e-05
-0.000161393
-2.02918e-05
-0.000132865
-2.85279e-05
-9.70877e-05
-3.57775e-05
-5.69594e-05
-4.01283e-05
-1.93424e-05
-3.7617e-05
-1.93424e-05
-2.10609e-05
2.97009e-05
-5.97028e-05
5.87548e-05
-0.000103312
6.71691e-05
-0.00014696
6.75343e-05
-0.000188826
6.50905e-05
-0.000227924
6.12175e-05
-0.000263369
5.60309e-05
-0.000294198
4.93369e-05
-0.000319317
4.08712e-05
-0.000337495
3.03546e-05
-0.000347333
1.74943e-05
-0.000347523
2.28832e-06
-0.000336547
-1.55099e-05
-0.000313231
-3.54178e-05
-0.000276888
-5.66346e-05
-0.0002277
-7.77157e-05
-0.000167349
-9.61288e-05
-0.000100354
-0.000107123
-3.68774e-05
-0.000101094
-5.62198e-05
-2.59488e-05
5.56497e-05
-7.20736e-05
0.00010488
-0.000123567
0.000118663
-0.000174797
0.000118764
-0.000223717
0.000114011
-0.000269219
0.000106719
-0.000310318
9.713e-05
-0.000345961
8.49798e-05
-0.000374967
6.98774e-05
-0.000396006
5.13936e-05
-0.000407645
2.9133e-05
-0.000408236
2.87958e-06
-0.000396037
-2.77084e-05
-0.000369607
-6.18478e-05
-0.000327916
-9.83264e-05
-0.000270861
-0.00013477
-0.000200088
-0.000166902
-0.000120698
-0.000186512
-4.47393e-05
-0.000177053
-0.000100959
-2.78198e-05
8.34695e-05
-7.73424e-05
0.000154402
-0.000132493
0.000173813
-0.000187325
0.000173596
-0.000239776
0.000166462
-0.000288773
0.000155716
-0.000333374
0.000141731
-0.00037256
0.000124166
-0.000405164
0.000102481
-0.000429817
7.6047e-05
-0.000444924
4.42401e-05
-0.000448696
6.65101e-06
-0.000438914
-3.74898e-05
-0.000413429
-8.73334e-05
-0.000370397
-0.000141358
-0.0003089
-0.000196268
-0.000230158
-0.000245644
-0.000139734
-0.000276937
-5.1914e-05
-0.000264872
-0.000152873
-2.90265e-05
0.000112496
-8.11347e-05
0.00020651
-0.000139223
0.000231902
-0.000197097
0.00023147
-0.000252728
0.000222092
-0.000305142
0.00020813
-0.000353507
0.000190096
-0.000396911
0.00016757
-0.000434257
0.000139827
-0.000464172
0.000105962
-0.000484918
6.49861e-05
-0.000494298
1.60311e-05
-0.000489644
-4.21436e-05
-0.000467713
-0.000109264
-0.000425326
-0.000183746
-0.000360034
-0.000261559
-0.000271877
-0.000333801
-0.000166796
-0.000382018
-6.24111e-05
-0.000369258
-0.000215284
-3.03436e-05
0.00014284
-8.53104e-05
0.000261477
-0.000146703
0.000293294
-0.00020804
0.000292807
-0.000267344
0.000281396
-0.000323786
0.000264572
-0.000376709
0.00024302
-0.000425381
0.000216241
-0.000468859
0.000183305
-0.000505852
0.000142955
-0.000534541
9.3675e-05
-0.000552389
3.38788e-05
-0.00055607
-3.84624e-05
-0.000540892
-0.000124441
-0.000501682
-0.000222956
-0.000433433
-0.000329808
-0.00033377
-0.000433463
-0.000208244
-0.000507544
-7.9247e-05
-0.000498255
-0.000294531
-3.19521e-05
0.000174792
-9.03224e-05
0.000319847
-0.000155608
0.00035858
-0.00022098
0.000358179
-0.000284526
0.000344942
-0.000345617
0.000325662
-0.000403849
0.000301252
-0.000458776
0.000271168
-0.000509747
0.000234276
-0.000555717
0.000188925
-0.000594969
0.000132927
-0.000624747
6.36573e-05
-0.000641138
-2.20712e-05
-0.000637737
-0.000127842
-0.000606548
-0.000254146
-0.000538473
-0.000397883
-0.000426479
-0.000545457
-0.000273441
-0.000660582
-0.000107645
-0.000664051
-0.000402176
-3.38836e-05
0.000208675
-9.62563e-05
0.00038222
-0.00016602
0.000428344
-0.000235916
0.000428075
-0.000304124
0.000413151
-0.000370275
0.000391813
-0.000434314
0.000365291
-0.000496221
0.000333075
-0.000555837
0.000293892
-0.000612623
0.000245711
-0.000665295
0.000185599
-0.000711232
0.000109595
-0.000746448
1.31443e-05
-0.000762639
-0.000111651
-0.000748445
-0.00026834
-0.000688694
-0.000457634
-0.000567921
-0.000666231
-0.000381056
-0.000847446
-0.00015968
-0.000885428
-0.000561856
-3.61791e-05
0.000244854
-0.000103189
0.00044923
-0.000177962
0.000503117
-0.000252723
0.000502835
-0.000325767
0.000486195
-0.000397053
0.000463099
-0.000466984
0.000435222
-0.000536133
0.000402224
-0.000605082
0.000362841
-0.000674189
0.000314818
-0.000743174
0.000254584
-0.000810419
0.00017684
-0.000871546
7.42717e-05
-0.000919285
-6.39127e-05
-0.00093797
-0.000249654
-0.000904777
-0.000490827
-0.000790629
-0.000780379
-0.000571525
-0.00106655
-0.000265078
-0.00119187
-0.000826934
-3.89579e-05
0.000283812
-0.000111337
0.00052161
-0.000191609
0.000583388
-0.000271389
0.000582615
-0.000349124
0.000563931
-0.000425171
0.000539145
-0.000500491
0.000510543
-0.000576411
0.000478144
-0.000654529
0.000440959
-0.000736551
0.00039684
-0.000823932
0.000341964
-0.000917106
0.000270015
-0.00101393
0.000171094
-0.00110921
3.13638e-05
-0.00118678
-0.000172075
-0.00121746
-0.00046015
-0.00115312
-0.000844717
-0.000927266
-0.00129241
-0.000491181
-0.00162796
-0.00131811
-4.24866e-05
0.000326299
-0.00012118
0.000600303
-0.000207431
0.000669639
-0.000292174
0.000667358
-0.000374073
0.000645829
-0.000453949
0.000619021
-0.000533395
0.000589988
-0.000614587
0.000559337
-0.000700345
0.000526717
-0.000794184
0.000490679
-0.000900218
0.000447999
-0.00102272
0.000392516
-0.0011649
0.000313275
-0.00132565
0.000192113
-0.00150277
5.04792e-06
-0.0016638
-0.000299125
-0.00173789
-0.000770622
-0.00156278
-0.00146752
-0.000927639
-0.0022631
-0.00224575
-4.7293e-05
0.000373592
-0.000133645
0.000686655
-0.000226381
0.000762375
-0.000315788
0.000756765
-0.000400877
0.000730919
-0.00048302
0.000701165
-0.000564455
0.000671423
-0.000648179
0.000643061
-0.000738239
0.000616778
-0.000840171
0.000592611
-0.000961533
0.000569361
-0.00111238
0.000543365
-0.00130536
0.000506256
-0.00155468
0.000441435
-0.00186925
0.000319609
-0.00224589
7.75181e-05
-0.00256047
-0.000456037
-0.00245496
-0.00157304
-0.00149868
-0.00321938
-0.00374444
-5.43517e-05
0.000427944
-0.000150359
0.000782661
-0.000250141
0.000862158
-0.00034364
0.000850264
-0.00043043
0.000817709
-0.000512576
0.000783311
-0.000592944
0.00075179
-0.000675082
0.000725199
-0.000763861
0.000705557
-0.000866423
0.000695172
-0.000993571
0.000696508
-0.00116186
0.000711655
-0.00139649
0.00074088
-0.00173365
0.000778596
-0.00221181
0.000797771
-0.00280949
0.000675202
-0.00330467
3.91408e-05
-0.00314624
-0.00173146
-0.00187382
-0.0044918
-0.00561826
-6.61181e-05
0.000494062
-0.000174833
0.000891376
-0.000281527
0.000968852
-0.000377334
0.000946072
-0.000463655
0.000904029
-0.000543297
0.000862953
-0.000619135
0.000827628
-0.000694736
0.0008008
-0.000775069
0.00078589
-0.0008677
0.000787803
-0.000985014
0.000813822
-0.00114774
0.000874379
-0.00139013
0.000983277
-0.00175839
0.00114685
-0.00229026
0.00132964
-0.00291965
0.00130459
-0.00336935
0.000488843
-0.00310027
-0.00200054
-0.00189517
-0.00569691
-0.00751342
-8.04848e-05
0.000574547
-0.000205444
0.00101634
-0.000322031
0.00108544
-0.000422664
0.0010467
-0.000507516
0.000988881
-0.000580933
0.000936371
-0.000646907
0.000893602
-0.000708955
0.000862847
-0.000770728
0.000847663
-0.000837387
0.000854462
-0.000918539
0.000894975
-0.0010306
0.000986437
-0.00120351
0.00115619
-0.00147135
0.00141469
-0.00185848
0.00171677
-0.00226241
0.00170853
-0.0025391
0.000765525
-0.00238647
-0.00215317
-0.00164302
-0.00644036
-0.00915644
-0.000146364
0.000720911
-0.000285008
0.00115498
-0.000391851
0.00119228
-0.000475803
0.00113066
-0.00054769
0.00106077
-0.000611166
0.000999847
-0.000667152
0.000949588
-0.000715366
0.000911062
-0.000755668
0.000887965
-0.000787559
0.000886353
-0.000811928
0.000919344
-0.000831099
0.00100561
-0.000854821
0.00117991
-0.000881833
0.0014417
-0.000929772
0.00176471
-0.000964656
0.00174341
-0.0010303
0.000831168
-0.00117916
-0.00200431
-0.00101238
-0.00660714
-0.0101688
-9.67259e-05
0.000817637
-0.00029908
0.00135733
-0.00045012
0.00134332
-0.000557396
0.00123793
-0.000631823
0.00113519
-0.00068313
0.00105115
-0.000716559
0.000983017
-0.000733812
0.000928315
-0.000733918
0.00088807
-0.000710761
0.000863196
-0.000656274
0.000864857
-0.000553408
0.000902742
-0.000385255
0.00101176
-0.000128632
0.00118508
0.000221879
0.0014142
0.000550194
0.00141509
0.00067828
0.000703083
0.000237958
-0.00156399
-7.55022e-05
-0.00629368
-0.0102443
-0.000388955
0.00120659
-0.00047991
0.00144829
-0.000569621
0.00143303
-0.000651909
0.00132022
-0.000690109
0.0011734
-0.000691688
0.00105273
-0.000664439
0.000955767
-0.000609989
0.000873865
-0.000532533
0.000810615
-0.000425112
0.000755775
-0.00028273
0.000722476
-8.59353e-05
0.000705947
0.000194803
0.000731022
0.000585996
0.000793886
0.00111708
0.000883112
0.00166494
0.000867241
0.00211503
0.000252984
0.00186974
-0.0013187
0.000978014
-0.00540195
-0.00926631
-0.00134875
0.00255534
-0.00131102
0.00141056
-0.00106724
0.00118926
-0.000715197
0.000968172
-0.000340628
0.000798827
3.59411e-05
0.000676162
0.000401622
0.000590086
0.000753091
0.000522397
0.00109041
0.000473298
0.00141656
0.000429626
0.00173868
0.000400356
0.00206524
0.00037938
0.00242864
0.00036762
0.00284759
0.000374942
0.00339576
0.000334945
0.00400914
0.000253854
0.004445
-0.000182869
0.00433782
-0.00121152
0.00268781
-0.00375193
-0.0065785
0.00255534
0.0039659
0.00515516
0.00612333
0.00692216
0.00759832
0.00818841
0.0087108
0.0091841
0.00961373
0.0100141
0.0103935
0.0107611
0.011136
0.011471
0.0117248
0.011542
0.0103304
0.0065785
)
;

boundaryField
{
    movingWall
    {
        type            calculated;
        value           uniform 0;
    }
    fixedWalls
    {
        type            calculated;
        value           uniform 0;
    }
    frontAndBack
    {
        type            empty;
        value           nonuniform List<scalar> 0();
    }
}


// ************************************************************************* //
