/*--------------------------------*- C++ -*----------------------------------*\
  =========                 |
  \\      /  F ield         | OpenFOAM: The Open Source CFD Toolbox
   \\    /   O peration     | Website:  https://openfoam.org
    \\  /    A nd           | Version:  10
     \\/     M anipulation  |
\*---------------------------------------------------------------------------*/
FoamFile
{
    format      ascii;
    class       volScalarField;
    location    "5.625";
    object      p;
}
// * * * * * * * * * * * * * * * * * * * * * * * * * * * * * * * * * * * * * //

dimensions      [0 2 -2 0 0 0 0];

internalField   nonuniform List<scalar> 
475
(
-0.0562647
-0.0817737
-0.111141
-0.134629
-0.157452
-0.082148
-0.0954135
-0.111745
-0.130801
-0.14766
-0.0802315
-0.0895316
-0.104459
-0.12204
-0.138345
-0.0796849
-0.0902776
-0.105227
-0.120752
-0.134174
-0.0497524
-0.0766433
-0.100311
-0.117905
-0.130676
-0.175754
-0.185909
-0.190635
-0.19609
-0.204108
-0.214462
-0.224486
-0.230195
-0.229736
-0.221997
-0.20779
-0.189529
-0.16966
-0.150296
-0.132301
-0.116786
-0.105414
-0.0983464
-0.0947734
-0.0916592
-0.0851607
-0.0752824
-0.0646023
-0.0536206
-0.0407706
-0.02744
-0.0157981
-0.00764342
-0.00263418
0.000934107
0.00450913
0.0082809
0.0115993
0.0138079
0.0147062
0.0145114
0.0135884
0.0122547
0.0107192
0.00910096
0.00745275
0.00579113
0.0041297
0.00247399
0.000822778
-0.164367
-0.176242
-0.182807
-0.186782
-0.18991
-0.192929
-0.195219
-0.195296
-0.192183
-0.185283
-0.175814
-0.164816
-0.154205
-0.145013
-0.135917
-0.127987
-0.122602
-0.119202
-0.116831
-0.113248
-0.105328
-0.092864
-0.0782201
-0.0628922
-0.04729
-0.032133
-0.0191904
-0.00967126
-0.00319163
0.001705
0.00617412
0.0103949
0.0138612
0.0160514
0.0168411
0.0164628
0.0152885
0.0136596
0.0118193
0.00991277
0.00801731
0.00615717
0.00434553
0.0025785
0.000849904
-0.152005
-0.161714
-0.167514
-0.170498
-0.17116
-0.170316
-0.167842
-0.164168
-0.159109
-0.153491
-0.149306
-0.147039
-0.146821
-0.143825
-0.137833
-0.136437
-0.137667
-0.136411
-0.1322
-0.125198
-0.113482
-0.0980227
-0.0813489
-0.0640877
-0.0469929
-0.0312741
-0.0183668
-0.00875706
-0.00180922
0.00357308
0.00822226
0.0123179
0.0155371
0.0175277
0.0182027
0.01774
0.0164543
0.0146646
0.0126322
0.0105217
0.00844257
0.00642847
0.00449696
0.00264704
0.000860102
-0.145133
-0.1528
-0.157553
-0.159113
-0.158007
-0.15427
-0.148058
-0.140465
-0.131973
-0.125826
-0.124237
-0.132584
-0.146756
-0.145949
-0.131324
-0.124528
-0.129624
-0.135989
-0.136891
-0.131155
-0.118597
-0.101065
-0.0815085
-0.0623542
-0.0446305
-0.0293862
-0.0171939
-0.00793203
-0.000941946
0.00461989
0.00933669
0.0133333
0.0164018
0.0182864
0.0189151
0.0184315
0.0171074
0.01524
0.013106
0.010884
0.00868448
0.00657761
0.00457708
0.00267797
0.000858478
-0.140202
-0.147171
-0.151298
-0.152229
-0.15017
-0.144789
-0.13698
-0.127159
-0.117477
-0.10994
-0.109715
-0.122198
-0.140071
-0.147326
-0.145001
-0.139851
-0.136137
-0.134133
-0.130297
-0.12235
-0.110081
-0.0941477
-0.0763795
-0.058583
-0.0421303
-0.0279055
-0.0163634
-0.00735532
-0.000342307
0.00529912
0.0100049
0.0138909
0.0167998
0.0185398
0.019068
0.018522
0.0171614
0.0152777
0.0131163
0.0108867
0.00869007
0.0065809
0.00457841
0.00267515
0.000854428
-0.203947
-0.205369
-0.207503
-0.210558
-0.218134
-0.230728
-0.244686
-0.254794
-0.256538
-0.247992
-0.22871
-0.199861
-0.163757
-0.124158
-0.0851127
-0.0502983
-0.021937
-0.000862746
0.0130937
0.0207163
0.0236458
0.0238045
0.0227199
0.0212301
0.0196618
0.0178982
0.0156404
0.0122655
0.00806132
0.00401421
0.00108983
-0.00025811
-0.000230139
0.000810065
0.00240975
0.00400875
0.00530491
0.00612205
0.00641438
0.00621982
0.00561682
0.0046986
0.00354508
0.00222418
0.000786732
-0.196487
-0.199355
-0.203081
-0.210013
-0.22135
-0.237181
-0.252762
-0.263674
-0.266174
-0.258677
-0.240557
-0.211884
-0.175206
-0.134624
-0.0941152
-0.0584146
-0.0294124
-0.00790391
0.00647958
0.0147595
0.0182243
0.0189429
0.0188772
0.018646
0.0177852
0.0161641
0.0135005
0.0104034
0.0072034
0.00446376
0.00242722
0.00110738
0.000763988
0.00143809
0.0027551
0.0042752
0.00552239
0.00630425
0.00655935
0.00632373
0.00568459
0.00473835
0.00356658
0.0022323
0.000787688
-0.205258
-0.203812
-0.205209
-0.211666
-0.225103
-0.242973
-0.259753
-0.271745
-0.27465
-0.266895
-0.248452
-0.22005
-0.184019
-0.144509
-0.105626
-0.0708538
-0.0426759
-0.0221239
-0.00829763
1.73753e-05
0.00406428
0.0056435
0.00640801
0.00720519
0.0079013
0.00820932
0.00829972
0.00783274
0.00677144
0.00528559
0.00388753
0.00297717
0.00284597
0.00346992
0.00453967
0.00567117
0.0065731
0.00703109
0.00704954
0.0066312
0.00586239
0.00482966
0.00360289
0.00223606
0.000776466
-0.192421
-0.194616
-0.1972
-0.205009
-0.21841
-0.235717
-0.251998
-0.26366
-0.267652
-0.261782
-0.245521
-0.219901
-0.18708
-0.151463
-0.117384
-0.0868308
-0.0618627
-0.0442328
-0.0325207
-0.0247682
-0.0199643
-0.0166258
-0.0134525
-0.0101792
-0.00673592
-0.00322633
5.82966e-05
0.00222385
0.00322172
0.00370609
0.00427972
0.00518794
0.00622542
0.00720246
0.00802296
0.008579
0.0087813
0.00861011
0.00807207
0.0072725
0.0062512
0.00505098
0.00371263
0.00227622
0.000774417
-0.225998
-0.204359
-0.201632
-0.204859
-0.215203
-0.230454
-0.245124
-0.254532
-0.256439
-0.249595
-0.234008
-0.211421
-0.183764
-0.154384
-0.127175
-0.103891
-0.0852502
-0.0724272
-0.0646746
-0.058834
-0.0528757
-0.0463575
-0.0390418
-0.0312964
-0.0238109
-0.0157458
-0.00857296
-0.00373053
-0.000849971
0.00138211
0.00384895
0.00656892
0.00902234
0.0107658
0.0116347
0.0117353
0.0112767
0.0104467
0.00937445
0.00814667
0.00680625
0.00538192
0.00389187
0.00235721
0.000788974
)
;

boundaryField
{
    inlet
    {
        type            zeroGradient;
    }
    outlet
    {
        type            fixedValue;
        value           uniform 0;
    }
    upperWall
    {
        type            zeroGradient;
    }
    lowerWall
    {
        type            zeroGradient;
    }
    frontAndBack
    {
        type            empty;
    }
}


// ************************************************************************* //
