/*--------------------------------*- C++ -*----------------------------------*\
  =========                 |
  \\      /  F ield         | OpenFOAM: The Open Source CFD Toolbox
   \\    /   O peration     | Website:  https://openfoam.org
    \\  /    A nd           | Version:  10
     \\/     M anipulation  |
\*---------------------------------------------------------------------------*/
FoamFile
{
    format      ascii;
    class       volVectorField;
    location    "3.25";
    object      U;
}
// * * * * * * * * * * * * * * * * * * * * * * * * * * * * * * * * * * * * * //

dimensions      [0 1 -1 0 0 0 0];

internalField   nonuniform List<vector> 
8000
(
(-0.000100675 0.000109733 -1.25102e-05)
(-0.000572299 0.000217703 1.71693e-05)
(-0.0012687 0.000234196 2.49312e-05)
(-0.00191606 0.000229072 2.79855e-05)
(-0.00254254 0.000217689 2.71465e-05)
(-0.00312497 0.000202056 2.39871e-05)
(-0.00364747 0.000181867 1.92989e-05)
(-0.00409563 0.000156588 1.32796e-05)
(-0.00445444 0.000125769 5.98473e-06)
(-0.00470904 8.90627e-05 -2.59982e-06)
(-0.00484473 4.67997e-05 -1.19364e-05)
(-0.00484743 -6.30647e-07 -2.20038e-05)
(-0.00470549 -5.29624e-05 -3.26743e-05)
(-0.00441105 -0.000108264 -4.35134e-05)
(-0.00396175 -0.000164164 -5.38531e-05)
(-0.0033624 -0.000217601 -6.26585e-05)
(-0.0026289 -0.000264496 -6.805e-05)
(-0.00180127 -0.00029788 -6.6997e-05)
(-0.000862233 -0.000295792 -5.74684e-05)
(-0.000176604 -0.000167995 -1.43656e-05)
(-0.000209372 0.000608127 -5.21742e-05)
(-0.000987166 0.00101392 -2.39548e-05)
(-0.00206138 0.00106889 -1.44684e-05)
(-0.00306265 0.00103553 -7.90734e-06)
(-0.00402333 0.000971782 -4.79636e-06)
(-0.00490879 0.000886613 -3.6305e-06)
(-0.00569468 0.000780523 -3.61272e-06)
(-0.00635956 0.000653003 -4.61708e-06)
(-0.00688219 0.000503742 -6.66874e-06)
(-0.00724177 0.000332861 -9.81164e-06)
(-0.00741862 0.00014145 -1.40954e-05)
(-0.00739557 -6.87269e-05 -1.95937e-05)
(-0.00715769 -0.000292841 -2.58227e-05)
(-0.00669518 -0.000524364 -3.26156e-05)
(-0.00600683 -0.000754304 -3.93424e-05)
(-0.00510111 -0.000970857 -4.48953e-05)
(-0.00400198 -0.00115848 -4.71016e-05)
(-0.00276491 -0.00129041 -4.26581e-05)
(-0.00137259 -0.0012856 -3.00555e-05)
(-0.000311646 -0.000813775 1.82267e-05)
(-0.000236085 0.00136599 -6.78973e-05)
(-0.00110061 0.00215213 -4.00824e-05)
(-0.00228646 0.0022503 -2.98979e-05)
(-0.00338942 0.00217162 -2.19679e-05)
(-0.00444674 0.00202867 -1.73315e-05)
(-0.00542114 0.0018398 -1.44886e-05)
(-0.00628671 0.0016073 -1.26911e-05)
(-0.00702064 0.00133147 -1.18656e-05)
(-0.00760026 0.00101281 -1.21089e-05)
(-0.00800347 0.000652607 -1.35324e-05)
(-0.00820937 0.00025342 -1.61616e-05)
(-0.00819689 -0.000180281 -2.01269e-05)
(-0.00794814 -0.000639877 -2.51853e-05)
(-0.00745182 -0.00111247 -3.1112e-05)
(-0.00670363 -0.00158016 -3.72358e-05)
(-0.00570971 -0.00201963 -4.23418e-05)
(-0.00449357 -0.00240029 -4.39999e-05)
(-0.0031154 -0.00266912 -3.85138e-05)
(-0.00155424 -0.00266887 -2.44195e-05)
(-0.000355764 -0.0017609 2.78301e-05)
(-0.000247281 0.0021333 -8.06512e-05)
(-0.00116135 0.0033145 -5.3086e-05)
(-0.00241785 0.00345612 -4.24255e-05)
(-0.0035857 0.00333177 -3.35573e-05)
(-0.00470759 0.00311047 -2.79059e-05)
(-0.00574494 0.00281972 -2.39693e-05)
(-0.00667152 0.00246323 -2.10174e-05)
(-0.00746411 0.00204172 -1.90202e-05)
(-0.00809922 0.00155601 -1.81245e-05)
(-0.00855331 0.00100784 -1.84973e-05)
(-0.00880323 0.000400961 -2.02743e-05)
(-0.00882574 -0.000257718 -2.37312e-05)
(-0.00859784 -0.000958222 -2.83737e-05)
(-0.00810125 -0.00168202 -3.41153e-05)
(-0.00732588 -0.00240281 -4.03098e-05)
(-0.0062724 -0.00308513 -4.56493e-05)
(-0.00496054 -0.00368119 -4.7338e-05)
(-0.00345443 -0.00410806 -4.10824e-05)
(-0.0017295 -0.00412429 -2.5288e-05)
(-0.0003967 -0.00275451 3.26202e-05)
(-0.000259845 0.00295859 -9.25572e-05)
(-0.00123151 0.00456587 -6.46251e-05)
(-0.00257197 0.00475467 -5.34901e-05)
(-0.00381816 0.00458313 -4.38788e-05)
(-0.00501886 0.00428087 -3.75467e-05)
(-0.00613417 0.00388521 -3.2967e-05)
(-0.00713786 0.00340136 -2.94058e-05)
(-0.00800657 0.00283032 -2.68654e-05)
(-0.00871619 0.00217279 -2.55351e-05)
(-0.00924166 0.00143021 -2.56436e-05)
(-0.00955693 0.00060605 -2.74049e-05)
(-0.00963484 -0.000292361 -3.10715e-05)
(-0.00944603 -0.00125332 -3.61715e-05)
(-0.00896317 -0.0022544 -4.27315e-05)
(-0.00816591 -0.00326195 -5.00376e-05)
(-0.00704436 -0.0042275 -5.65862e-05)
(-0.00561042 -0.00508239 -5.90865e-05)
(-0.00393188 -0.00570593 -5.22871e-05)
(-0.0019802 -0.00575712 -3.41528e-05)
(-0.000456866 -0.00387548 3.28713e-05)
(-0.000276513 0.00384922 -0.000105967)
(-0.00132252 0.00592056 -7.71883e-05)
(-0.00277074 0.00616179 -6.55163e-05)
(-0.00411747 0.005942 -5.51574e-05)
(-0.00541895 0.0055568 -4.82177e-05)
(-0.00663387 0.00505432 -4.3138e-05)
(-0.00773628 0.00444141 -3.91815e-05)
(-0.00870314 0.00371906 -3.63843e-05)
(-0.00951008 0.00288726 -3.49803e-05)
(-0.0101308 0.00194609 -3.52588e-05)
(-0.0105362 0.000897263 -3.75367e-05)
(-0.010695 -0.000253385 -4.22139e-05)
(-0.0105689 -0.00149664 -4.85508e-05)
(-0.0101181 -0.00280725 -5.69314e-05)
(-0.00930726 -0.00414588 -6.65664e-05)
(-0.00810934 -0.00545082 -7.56586e-05)
(-0.00652098 -0.00662838 -8.01584e-05)
(-0.00461069 -0.0075085 -7.33466e-05)
(-0.00234337 -0.00762642 -5.2212e-05)
(-0.000546615 -0.00516947 2.84857e-05)
(-0.000297599 0.00482129 -0.000122636)
(-0.00143667 0.00740355 -9.27944e-05)
(-0.00301897 0.00770341 -8.04711e-05)
(-0.00448983 0.00743359 -6.9171e-05)
(-0.00591498 0.00696282 -6.1455e-05)
(-0.00725161 0.00635138 -5.57454e-05)
(-0.00847472 0.00560806 -5.13286e-05)
(-0.00956238 0.00473373 -4.8295e-05)
(-0.0104909 0.00372697 -4.69406e-05)
(-0.0112334 0.00258515 -4.76399e-05)
(-0.0117581 0.00130592 -5.08745e-05)
(-0.0120303 -0.000110441 -5.75025e-05)
(-0.0120014 -0.00165561 -6.57807e-05)
(-0.0116139 -0.00331175 -7.73276e-05)
(-0.0108124 -0.0050366 -9.11e-05)
(-0.00954235 -0.00675659 -0.000104922)
(-0.00777222 -0.00834885 -0.000113604)
(-0.00556238 -0.00957802 -0.000108201)
(-0.00286512 -0.00981704 -8.36517e-05)
(-0.000680107 -0.0067071 1.62655e-05)
(-0.000323251 0.00589489 -0.000144011)
(-0.00157564 0.0090455 -0.000113098)
(-0.00332014 0.00941045 -9.99245e-05)
(-0.00493912 0.00908707 -8.72822e-05)
(-0.0065105 0.00852632 -7.83731e-05)
(-0.00799006 0.00780269 -7.16503e-05)
(-0.00935477 0.00692754 -6.64709e-05)
(-0.0105851 0.00590171 -6.30158e-05)
(-0.0116596 0.00472188 -6.16703e-05)
(-0.0125528 0.00338144 -6.29022e-05)
(-0.0132328 0.0018716 -6.72181e-05)
(-0.0136574 0.000183749 -7.48719e-05)
(-0.0137712 -0.00168205 -8.81712e-05)
(-0.0135002 -0.00372105 -0.000105175)
(-0.0127554 -0.00589647 -0.000126028)
(-0.0114417 -0.00812905 -0.000148398)
(-0.00947842 -0.0102655 -0.000165488)
(-0.00689635 -0.0119866 -0.000164899)
(-0.00362293 -0.0124403 -0.000137227)
(-0.000884107 -0.0085915 -1.10566e-05)
(-0.000354079 0.00709356 -0.000171847)
(-0.00174251 0.0108817 -0.000140057)
(-0.00367978 0.0113172 -0.000125674)
(-0.00547118 0.0109333 -0.000110965)
(-0.00721037 0.0102751 -0.000100079)
(-0.00885207 0.00943391 -9.16016e-05)
(-0.0103767 0.00842489 -8.50446e-05)
(-0.0117691 0.00724938 -8.07318e-05)
(-0.0130123 0.00590209 -7.91826e-05)
(-0.0140848 0.00437144 -8.10302e-05)
(-0.014957 0.00263999 -8.69245e-05)
(-0.0155851 0.000686863 -9.72685e-05)
(-0.0159074 -0.00150853 -0.000116795)
(-0.0158299 -0.00396056 -0.00014213)
(-0.0152248 -0.00665346 -0.000174686)
(-0.0139381 -0.00951721 -0.000212243)
(-0.0118075 -0.0123752 -0.000245939)
(-0.00878665 -0.0148083 -0.000257806)
(-0.0047555 -0.0156391 -0.000229296)
(-0.00121307 -0.0109786 -6.80395e-05)
(-0.000391719 0.00844672 -0.000208703)
(-0.00194333 0.0129544 -0.000176445)
(-0.00410763 0.0134626 -0.000160157)
(-0.00609604 0.0130053 -0.000142084)
(-0.00802276 0.0122366 -0.000127814)
(-0.00984228 0.0112686 -0.000116261)
(-0.0115406 0.0101219 -0.000107219)
(-0.0131093 0.00879948 -0.000101228)
(-0.014539 0.00729471 -9.89913e-05)
(-0.0158165 0.00559077 -0.000101397)
(-0.0169189 0.00365967 -0.000109457)
(-0.0178075 0.00146296 -0.000124626)
(-0.0184204 -0.00104533 -0.000151776)
(-0.0186473 -0.00391823 -0.000189488)
(-0.0183179 -0.00718284 -0.000240892)
(-0.0171992 -0.0108079 -0.000304857)
(-0.0150036 -0.0146195 -0.000370621)
(-0.0115142 -0.0180979 -0.000412155)
(-0.00652151 -0.0195925 -0.000390614)
(-0.00178125 -0.0141166 -0.000189334)
(-0.000440017 0.00999402 -0.000258662)
(-0.00218986 0.0153165 -0.000226511)
(-0.00462096 0.0158922 -0.000206925)
(-0.00683101 0.0153382 -0.00018312)
(-0.00896176 0.014437 -0.000162969)
(-0.0109691 0.0133261 -0.000146046)
(-0.0128474 0.0120338 -0.000132622)
(-0.0145979 0.0105668 -0.00012352)
(-0.0162228 0.00891859 -0.000119662)
(-0.0177218 0.00706844 -0.000122257)
(-0.0190867 0.0049778 -0.000133062)
(-0.0202922 0.0025871 -0.000155147)
(-0.0212909 -0.000186136 -0.000192034)
(-0.0219702 -0.00343769 -0.00024699)
(-0.0221224 -0.00728323 -0.000327321)
(-0.0214239 -0.0117823 -0.000435579)
(-0.019412 -0.0168277 -0.000561344)
(-0.0155373 -0.0218391 -0.000670014)
(-0.00942268 -0.0245006 -0.000679882)
(-0.00283473 -0.0184287 -0.000466068)
(-0.000507652 0.0117941 -0.000328692)
(-0.00250479 0.0180379 -0.000297078)
(-0.00525002 0.0186611 -0.000271337)
(-0.00770557 0.0179693 -0.000237403)
(-0.0100513 0.0168989 -0.00020692)
(-0.012248 0.0156177 -0.000180691)
(-0.0143015 0.0141645 -0.000159717)
(-0.0162262 0.0125517 -0.000145136)
(-0.0180391 0.0107762 -0.000137996)
(-0.0197591 0.0088167 -0.000139695)
(-0.0214024 0.00662831 -0.000152487)
(-0.0229738 0.00413377 -0.000179869)
(-0.0244477 0.0012131 -0.000225603)
(-0.025748 -0.0022983 -0.00030718)
(-0.0266738 -0.0066438 -0.000430237)
(-0.0268141 -0.0120516 -0.00060829)
(-0.0254976 -0.0186137 -0.000839794)
(-0.0216019 -0.0258195 -0.00108764)
(-0.0144606 -0.0304735 -0.00120537)
(-0.00492962 -0.0247274 -0.00111691)
(-0.000614916 0.0139461 -0.000431677)
(-0.00293302 0.0212212 -0.00040014)
(-0.00604723 0.0218392 -0.000361978)
(-0.00876882 0.0209386 -0.000309344)
(-0.0113311 0.0196391 -0.000260439)
(-0.0137058 0.0181425 -0.000218146)
(-0.0159145 0.0164998 -0.000184447)
(-0.0179872 0.0147317 -0.000160667)
(-0.0199587 0.0128417 -0.00014767)
(-0.0218706 0.010814 -0.000146642)
(-0.0237707 0.00860553 -0.00016005)
(-0.0257087 0.00613021 -0.000192196)
(-0.0277245 0.00323646 -0.000250693)
(-0.0298307 -0.000324334 -0.000363592)
(-0.0318924 -0.00490708 -0.000535308)
(-0.0335007 -0.0110228 -0.000803479)
(-0.0338188 -0.0192233 -0.00119513)
(-0.0308463 -0.0293751 -0.00168954)
(-0.0236428 -0.0373636 -0.00210505)
(-0.00941105 -0.0345357 -0.00264328)
(-0.000808568 0.0165624 -0.000591413)
(-0.00356956 0.0249851 -0.000555016)
(-0.0071085 0.0255084 -0.000493054)
(-0.0101027 0.0242879 -0.000405392)
(-0.012865 0.022663 -0.000322595)
(-0.0153876 0.0208764 -0.000251933)
(-0.017711 0.0189948 -0.000196877)
(-0.0198824 0.017047 -0.000158302)
(-0.0219545 0.0150451 -0.000135915)
(-0.0239926 0.0129869 -0.000129753)
(-0.0260831 0.0108493 -0.000142047)
(-0.0283396 0.00857018 -0.000178956)
(-0.0308987 0.00601349 -0.00025014)
(-0.0338894 0.00288938 -0.00036135)
(-0.0373914 -0.0013281 -0.000540667)
(-0.0412949 -0.00757238 -0.000881673)
(-0.0448119 -0.0170955 -0.00143906)
(-0.0448426 -0.0310302 -0.00225949)
(-0.0403152 -0.044405 -0.00322975)
(-0.018786 -0.0504116 -0.00553767)
(-0.00114215 0.0202293 -0.000868765)
(-0.00450676 0.0295044 -0.000792214)
(-0.00855609 0.0296297 -0.000673951)
(-0.0118284 0.0278448 -0.000513702)
(-0.0147558 0.025791 -0.000372578)
(-0.017368 0.0236731 -0.00025757)
(-0.0197345 0.0215296 -0.000170531)
(-0.0219246 0.0193801 -0.00011015)
(-0.0240027 0.0172517 -7.3724e-05)
(-0.0260459 0.0151681 -5.8647e-05)
(-0.0281608 0.0131431 -6.33102e-05)
(-0.030509 0.0111539 -8.69219e-05)
(-0.0333573 0.00911767 -0.000131617)
(-0.0371088 0.00678256 -0.000206591)
(-0.0422934 0.00356268 -0.000351194)
(-0.0493853 -0.00180642 -0.00056416)
(-0.0584272 -0.0113058 -0.000941702)
(-0.064763 -0.0288785 -0.00162179)
(-0.067171 -0.0503792 -0.00252863)
(-0.0345103 -0.0784075 -0.00806716)
(-0.00232736 0.0240194 -0.00133172)
(-0.00682962 0.0357345 -0.00131306)
(-0.0108769 0.0353421 -0.00105426)
(-0.0141776 0.0329432 -0.0007551)
(-0.0170386 0.0300666 -0.000470799)
(-0.0196182 0.0271612 -0.000242656)
(-0.0219511 0.0243779 -7.73226e-05)
(-0.024082 0.0217736 3.14541e-05)
(-0.0260594 0.0193833 9.32682e-05)
(-0.0279625 0.017235 0.000117688)
(-0.0299239 0.015389 0.000114909)
(-0.0321505 0.0139073 9.40298e-05)
(-0.0349985 0.0128827 7.72196e-05)
(-0.0390795 0.0122788 0.000107536)
(-0.0454529 0.0117226 0.000293066)
(-0.0553876 0.00962748 0.000926666)
(-0.0709728 0.00274232 0.00226041)
(-0.0856096 -0.0215022 0.00419295)
(-0.0998822 -0.0615544 0.0061761)
(-0.0495643 -0.134927 -0.00550377)
(-0.00180122 0.0355996 -0.00230643)
(-0.00722001 0.0401523 -0.00164075)
(-0.0135215 0.0382686 -0.00121755)
(-0.0172184 0.0341969 -0.000590214)
(-0.0203604 0.0308474 -0.000148086)
(-0.0227235 0.0278382 0.000168561)
(-0.0245985 0.0251028 0.000365237)
(-0.0261782 0.0225643 0.000475403)
(-0.0275689 0.0202318 0.000524607)
(-0.0288311 0.0181339 0.000531334)
(-0.0300422 0.0164102 0.000522357)
(-0.0313213 0.0151785 0.000528035)
(-0.033002 0.0147725 0.000630377)
(-0.0357894 0.0153663 0.00100566)
(-0.0413526 0.0171309 0.00209621)
(-0.0516189 0.0176281 0.00489247)
(-0.074997 0.0126455 0.0105932)
(-0.0969655 -0.0239637 0.0174718)
(-0.124806 -0.0976463 0.0207503)
(-0.0482316 -0.226876 -0.00533903)
(-0.0114946 0.034545 -0.00354254)
(-0.0221033 0.0570421 -0.00356698)
(-0.0193294 0.0518294 -0.00249546)
(-0.0216798 0.0460933 -0.0013231)
(-0.021825 0.0397271 -0.000274298)
(-0.0219307 0.0340532 0.000444043)
(-0.0219046 0.0292259 0.000886928)
(-0.0218708 0.0251669 0.00111756)
(-0.0218312 0.0218201 0.00120277)
(-0.0217223 0.0190706 0.00117845)
(-0.0216262 0.0170518 0.00111601)
(-0.0214517 0.0158223 0.00105403)
(-0.0215367 0.0159329 0.00118238)
(-0.0219023 0.0178535 0.00180718)
(-0.0248523 0.0225822 0.00390001)
(-0.0285845 0.026526 0.00869078)
(-0.0494888 0.0241626 0.0188537)
(-0.0614396 -0.0314576 0.0286305)
(-0.108654 -0.145443 0.0237531)
(-0.0237272 -0.312796 -0.0223583)
(-0.0464219 0.0926902 -0.00985829)
(-0.0313529 0.047519 -0.004858)
(-0.0238265 0.0408542 -0.00223128)
(-0.00884704 0.0333796 0.000349674)
(0.00302395 0.0268183 0.00187643)
(0.0136016 0.0222922 0.0027706)
(0.0221698 0.0190661 0.00318602)
(0.0291476 0.0164632 0.00326063)
(0.0346535 0.014411 0.00313938)
(0.039414 0.0126021 0.00283097)
(0.0431763 0.0114317 0.0024899)
(0.047255 0.0103906 0.00212233)
(0.050641 0.010428 0.0018923)
(0.0564201 0.0103962 0.00201312)
(0.0590623 0.011634 0.00348102)
(0.0740731 0.008742 0.00649849)
(0.0611186 -0.00397466 0.0154002)
(0.0823256 -0.0656764 0.0267761)
(-0.0141482 -0.200108 0.00873923)
(0.0249085 -0.339986 -0.0461487)
(0.117989 0.111958 -0.0108033)
(0.145918 0.0604777 -0.010428)
(0.218647 0.040596 -0.0092566)
(0.262621 0.0278419 -0.00714023)
(0.294458 0.0192699 -0.00488254)
(0.3189 0.0135594 -0.00293817)
(0.337095 0.00992298 -0.00128769)
(0.351082 0.00748913 -9.95922e-05)
(0.36067 0.00601205 0.000912133)
(0.369301 0.00490424 0.00126615)
(0.373574 0.00423695 0.00167609)
(0.381192 0.00381976 0.00147482)
(0.381137 0.00306359 0.00143608)
(0.39252 0.0035309 0.00149332)
(0.384433 0.00102198 0.000857281)
(0.405745 0.00168554 0.00311641)
(0.370826 -0.00788682 0.00127706)
(0.394116 -0.0223299 0.00640037)
(0.24048 -0.0633738 -0.00282283)
(0.168994 -0.135311 -0.0646233)
(-0.000176913 0.000180794 -3.06337e-05)
(-0.000938304 0.000371317 8.66993e-06)
(-0.00203342 0.000400179 2.11644e-05)
(-0.00304091 0.00038797 2.76118e-05)
(-0.00400205 0.000363586 2.79517e-05)
(-0.00488414 0.000331334 2.43394e-05)
(-0.00566476 0.000291231 1.79473e-05)
(-0.00632341 0.000242888 9.21532e-06)
(-0.0068392 0.000186085 -1.68029e-06)
(-0.00719152 0.000120826 -1.47893e-05)
(-0.00736125 4.73283e-05 -2.97356e-05)
(-0.00733136 -3.35104e-05 -4.6314e-05)
(-0.00708781 -0.000120243 -6.3951e-05)
(-0.00662215 -0.000210125 -8.18053e-05)
(-0.00593344 -0.000299578 -9.86499e-05)
(-0.00502993 -0.00038403 -0.000112649)
(-0.00393366 -0.000457243 -0.000120739)
(-0.00269767 -0.000507369 -0.000118407)
(-0.00129489 -0.000494055 -0.000103047)
(-0.000267572 -0.000264214 -3.74773e-05)
(-0.000379546 0.000961348 -9.24025e-05)
(-0.00169197 0.00166833 -5.56045e-05)
(-0.00345413 0.00176438 -3.97225e-05)
(-0.00508373 0.00169832 -2.74558e-05)
(-0.00662647 0.00157727 -2.08479e-05)
(-0.00803027 0.00141915 -1.77944e-05)
(-0.00925846 0.0012263 -1.71336e-05)
(-0.0102791 0.000999341 -1.8619e-05)
(-0.0110612 0.000739203 -2.22532e-05)
(-0.0115761 0.000447497 -2.81163e-05)
(-0.0117978 0.000126604 -3.62665e-05)
(-0.0117044 -0.000219421 -4.67214e-05)
(-0.0112785 -0.000582317 -5.85866e-05)
(-0.0105114 -0.000951877 -7.13257e-05)
(-0.00940543 -0.00131439 -8.36512e-05)
(-0.00797592 -0.00165224 -9.34833e-05)
(-0.0062586 -0.00194173 -9.71824e-05)
(-0.00433005 -0.00213786 -8.97293e-05)
(-0.00216395 -0.00209412 -6.93568e-05)
(-0.000500476 -0.00125648 3.87137e-06)
(-0.000434594 0.00212994 -0.000119359)
(-0.00191237 0.00348986 -8.43616e-05)
(-0.00388034 0.0036615 -6.7186e-05)
(-0.00569655 0.00351345 -5.24281e-05)
(-0.00741357 0.00325176 -4.31237e-05)
(-0.00897465 0.00291228 -3.717e-05)
(-0.0103402 0.00250147 -3.34657e-05)
(-0.0114758 0.00202229 -3.18783e-05)
(-0.0123485 0.00147796 -3.25416e-05)
(-0.0129274 0.00087285 -3.56355e-05)
(-0.0131849 0.000213087 -4.12032e-05)
(-0.0130946 -0.000492448 -4.93223e-05)
(-0.0126357 -0.00122913 -5.94698e-05)
(-0.0117975 -0.00197667 -7.10442e-05)
(-0.0105789 -0.00270799 -8.26673e-05)
(-0.008993 -0.00338847 -9.20474e-05)
(-0.00707577 -0.0039715 -9.509e-05)
(-0.00491066 -0.00436867 -8.61465e-05)
(-0.00246623 -0.00429841 -6.35929e-05)
(-0.000575373 -0.00269644 1.51166e-05)
(-0.000460522 0.00330776 -0.000143104)
(-0.00203346 0.00534399 -0.000109888)
(-0.0041295 0.00559123 -9.18057e-05)
(-0.00606202 0.00535963 -7.51608e-05)
(-0.00789148 0.00495745 -6.3823e-05)
(-0.00955884 0.00443808 -5.57105e-05)
(-0.0110238 0.00381166 -4.97714e-05)
(-0.0122513 0.00308306 -4.5974e-05)
(-0.0132071 0.00225716 -4.456e-05)
(-0.0138585 0.00134016 -4.58075e-05)
(-0.0141749 0.00034088 -4.99276e-05)
(-0.0141266 -0.000727427 -5.72734e-05)
(-0.0136858 -0.00184642 -6.69775e-05)
(-0.0128332 -0.00298702 -7.86155e-05)
(-0.0115601 -0.00410934 -9.08109e-05)
(-0.00987219 -0.00516073 -0.000101054)
(-0.00780056 -0.00606875 -0.000104604)
(-0.00543395 -0.00669587 -9.48331e-05)
(-0.00273583 -0.00661218 -6.99293e-05)
(-0.000638348 -0.00419817 1.72456e-05)
(-0.000489747 0.00456864 -0.000166585)
(-0.00217201 0.00733122 -0.000134432)
(-0.00441785 0.00765907 -0.000115401)
(-0.00648819 0.00733984 -9.70813e-05)
(-0.0084522 0.00679103 -8.41243e-05)
(-0.0102487 0.00608483 -7.44484e-05)
(-0.0118371 0.00523524 -6.70334e-05)
(-0.013182 0.00424882 -6.19383e-05)
(-0.0142485 0.00313154 -5.95136e-05)
(-0.0150017 0.0018903 -6.01684e-05)
(-0.0154072 0.00053475 -6.42644e-05)
(-0.0154294 -0.000920122 -7.21503e-05)
(-0.0150321 -0.00245238 -8.30509e-05)
(-0.0141837 -0.00402642 -9.66942e-05)
(-0.0128614 -0.00559061 -0.000111556)
(-0.0110571 -0.00707266 -0.000124719)
(-0.00879115 -0.00836866 -0.000130521)
(-0.00615717 -0.0092798 -0.000120708)
(-0.00311315 -0.0092022 -9.26757e-05)
(-0.000728106 -0.0058848 8.87528e-06)
(-0.000528253 0.0059283 -0.000193567)
(-0.00235151 0.00947966 -0.000162065)
(-0.00478948 0.00989493 -0.000141897)
(-0.00703641 0.00948335 -0.000121737)
(-0.00917223 0.00878118 -0.000107111)
(-0.0111333 0.00788112 -9.59416e-05)
(-0.0128794 0.00680135 -8.72562e-05)
(-0.0143755 0.00554986 -8.12195e-05)
(-0.0155865 0.00413284 -7.83046e-05)
(-0.0164759 0.00255644 -7.90688e-05)
(-0.0170051 0.000828795 -8.40838e-05)
(-0.0171322 -0.00103662 -9.39648e-05)
(-0.0168089 -0.00301851 -0.000107673)
(-0.0159866 -0.00507737 -0.00012542)
(-0.0146219 -0.0071517 -0.000145536)
(-0.0126832 -0.00914877 -0.000164518)
(-0.0101706 -0.0109263 -0.000175293)
(-0.00717792 -0.012206 -0.000167049)
(-0.00365452 -0.0121698 -0.00013534)
(-0.000860006 -0.00782912 -1.18068e-05)
(-0.000577365 0.00741357 -0.0002272)
(-0.00257817 0.0118309 -0.000196457)
(-0.00525626 0.0123412 -0.000174813)
(-0.00772216 0.0118303 -0.000152247)
(-0.0100696 0.0109656 -0.000135408)
(-0.0122323 0.00986272 -0.000122269)
(-0.0141713 0.0085447 -0.000111969)
(-0.0158536 0.00702085 -0.000104829)
(-0.017245 0.00529662 -0.000101491)
(-0.0183088 0.00337536 -0.000102719)
(-0.0190031 0.00126064 -0.00010941)
(-0.0192794 -0.00103978 -0.00012284)
(-0.0190754 -0.00351049 -0.000141015)
(-0.0183196 -0.00611492 -0.000165661)
(-0.0169388 -0.00878695 -0.000194821)
(-0.0148641 -0.0114149 -0.000224285)
(-0.0120575 -0.0138106 -0.000244893)
(-0.00860065 -0.0155907 -0.000241861)
(-0.00442642 -0.0156591 -0.000206785)
(-0.00105406 -0.0101412 -5.157e-05)
(-0.00063819 0.0090561 -0.000270423)
(-0.00285716 0.0144339 -0.000240992)
(-0.0058278 0.0150462 -0.00021729)
(-0.00855693 0.014425 -0.00019126)
(-0.011156 0.0133846 -0.000171089)
(-0.0135566 0.0120669 -0.000154915)
(-0.0157226 0.010501 -0.000142099)
(-0.0176249 0.00869785 -0.000133202)
(-0.0192334 0.00666123 -0.000129097)
(-0.0205132 0.00438957 -0.000130805)
(-0.0214216 0.00187801 -0.000139436)
(-0.0219046 -0.000877067 -0.00015592)
(-0.0218854 -0.00387482 -0.000183025)
(-0.021265 -0.00709162 -0.000218876)
(-0.0199286 -0.0104678 -0.00026297)
(-0.0177497 -0.0138803 -0.00031073)
(-0.0146224 -0.017091 -0.000350154)
(-0.0105856 -0.0195781 -0.000360253)
(-0.00554072 -0.0198649 -0.000324228)
(-0.00134789 -0.0129817 -0.000124877)
(-0.00071275 0.0108918 -0.000326921)
(-0.00319638 0.0173431 -0.000299818)
(-0.00651767 0.018062 -0.000273033)
(-0.00955617 0.017313 -0.000241715)
(-0.0124464 0.0160777 -0.000216238)
(-0.0151184 0.0145289 -0.000195123)
(-0.0175419 0.0127036 -0.00017813)
(-0.0196949 0.010615 -0.000166175)
(-0.0215549 0.00826519 -0.000160461)
(-0.0230937 0.00564534 -0.000162391)
(-0.0242714 0.00273792 -0.000173507)
(-0.0250338 -0.000480136 -0.000195435)
(-0.0252917 -0.00403121 -0.000233892)
(-0.0249151 -0.00792353 -0.000286316)
(-0.0237367 -0.0121236 -0.000354169)
(-0.0215456 -0.0165165 -0.000433165)
(-0.0181213 -0.0208205 -0.000507952)
(-0.0133927 -0.0243413 -0.000547911)
(-0.00720109 -0.025053 -0.000518629)
(-0.0018185 -0.0166048 -0.000260975)
(-0.000804862 0.0129639 -0.000402014)
(-0.00360888 0.0206218 -0.000378747)
(-0.00734687 0.0214457 -0.000347025)
(-0.0107428 0.0205411 -0.000307295)
(-0.0139617 0.0190824 -0.000273138)
(-0.0169338 0.0172794 -0.000243849)
(-0.0196383 0.01518 -0.00021986)
(-0.0220653 0.0128014 -0.000202593)
(-0.0242051 0.0101437 -0.000193677)
(-0.0260426 0.00718981 -0.000195019)
(-0.0275493 0.00390511 -0.000208749)
(-0.0286758 0.000238625 -0.00023726)
(-0.0293312 -0.0038654 -0.000291045)
(-0.0293608 -0.00847469 -0.000367158)
(-0.0285344 -0.0136153 -0.000471527)
(-0.0265273 -0.0192225 -0.00060243)
(-0.0229397 -0.0250038 -0.000742147)
(-0.0174559 -0.0300731 -0.000847052)
(-0.00980516 -0.0315944 -0.000845313)
(-0.00263655 -0.021454 -0.000524003)
(-0.000921786 0.0153281 -0.000503969)
(-0.00411668 0.0243465 -0.000486472)
(-0.00834853 0.0252612 -0.00044637)
(-0.0121515 0.0241567 -0.000392808)
(-0.0157324 0.0224321 -0.000344248)
(-0.0190245 0.0203418 -0.000301423)
(-0.0220223 0.0179482 -0.000265837)
(-0.0247336 0.0152752 -0.000239572)
(-0.0271689 0.0123225 -0.000224727)
(-0.0293348 0.00906497 -0.000223805)
(-0.0312252 0.00544877 -0.000240195)
(-0.0328069 0.0013896 -0.000279657)
(-0.034008 -0.00322356 -0.000348786)
(-0.0346696 -0.00853834 -0.000455607)
(-0.0345028 -0.0146969 -0.000612878)
(-0.0330493 -0.0217633 -0.000826385)
(-0.0296548 -0.0295252 -0.0010814)
(-0.0235227 -0.0369347 -0.00132215)
(-0.0141859 -0.0399951 -0.00140353)
(-0.00420607 -0.0283677 -0.00106622)
(-0.00107758 0.0180613 -0.000646329)
(-0.00475767 0.0286117 -0.000636474)
(-0.00957542 0.0295807 -0.000581502)
(-0.0138354 0.0282062 -0.000504582)
(-0.0178032 0.0261523 -0.000431888)
(-0.0214217 0.0237264 -0.00036672)
(-0.0247074 0.0210101 -0.000312199)
(-0.0276935 0.0180367 -0.000271159)
(-0.0304178 0.0148091 -0.000245979)
(-0.0329189 0.0112965 -0.000239405)
(-0.0352273 0.00742899 -0.000255555)
(-0.0373511 0.00308819 -0.000300977)
(-0.0392626 -0.00190641 -0.000383834)
(-0.0408404 -0.00781621 -0.000531493)
(-0.0417873 -0.014963 -0.000760154)
(-0.0415299 -0.0236676 -0.00109545)
(-0.0391062 -0.0339943 -0.0015426)
(-0.0329063 -0.0448816 -0.00204742)
(-0.0221412 -0.0508103 -0.00236447)
(-0.00751914 -0.0391549 -0.0022476)
(-0.00130151 0.0212854 -0.000852692)
(-0.00559887 0.0335501 -0.000851214)
(-0.0111108 0.0344885 -0.000768488)
(-0.0158747 0.0327319 -0.000650847)
(-0.0202402 0.0302553 -0.000537269)
(-0.0241704 0.0274247 -0.000435327)
(-0.0277138 0.0243437 -0.000350392)
(-0.0309362 0.0210588 -0.000285898)
(-0.0339105 0.0175795 -0.00024388)
(-0.036716 0.0138757 -0.000226408)
(-0.0394346 0.00986812 -0.000237292)
(-0.0421437 0.00540806 -0.000283664)
(-0.0449144 0.000248002 -0.000378189)
(-0.0477338 -0.00597718 -0.000566225)
(-0.0503992 -0.0138188 -0.000866369)
(-0.0523632 -0.024067 -0.00134543)
(-0.0524111 -0.0374178 -0.00206411)
(-0.0477795 -0.0532201 -0.00300925)
(-0.0373985 -0.0644103 -0.00390717)
(-0.0150308 -0.057632 -0.00485724)
(-0.00165616 0.0250985 -0.00116424)
(-0.00677783 0.0392994 -0.00116594)
(-0.0131004 0.040085 -0.0010334)
(-0.0183925 0.0377912 -0.000844041)
(-0.0231378 0.0347501 -0.000659392)
(-0.0273348 0.0314064 -0.000495823)
(-0.0310723 0.027895 -0.000362216)
(-0.0344556 0.0242755 -0.000261698)
(-0.0375979 0.0205659 -0.000194261)
(-0.0406262 0.0167459 -0.000159377)
(-0.0436899 0.0127503 -0.000158683)
(-0.0469652 0.00844414 -0.000199824)
(-0.0506404 0.00356969 -0.000296228)
(-0.0549049 -0.00235264 -0.000455386)
(-0.059936 -0.0102041 -0.000750754)
(-0.0655756 -0.0213327 -0.00130791)
(-0.0706372 -0.0375221 -0.00225471)
(-0.0709757 -0.0598306 -0.00370241)
(-0.0651605 -0.0803361 -0.00557762)
(-0.0299868 -0.0912398 -0.00945777)
(-0.00215822 0.030253 -0.00167354)
(-0.00831045 0.0459176 -0.00162538)
(-0.015681 0.0461556 -0.00138987)
(-0.021551 0.0429988 -0.00106458)
(-0.0266454 0.0393004 -0.000765242)
(-0.0310191 0.0354329 -0.000509125)
(-0.0348333 0.0314988 -0.000304618)
(-0.038249 0.0275531 -0.000152789)
(-0.0414171 0.023633 -4.95413e-05)
(-0.0444991 0.0197468 1.12232e-05)
(-0.0476899 0.0158671 3.76163e-05)
(-0.051258 0.0118932 3.65703e-05)
(-0.0556157 0.00761742 1.04975e-05)
(-0.0613741 0.00255947 -5.33902e-05)
(-0.0692569 -0.00423533 -0.000181221)
(-0.0799444 -0.0145581 -0.00040526)
(-0.0931671 -0.0315607 -0.000866742)
(-0.101988 -0.0608789 -0.00178689)
(-0.104194 -0.0980571 -0.00354184)
(-0.046355 -0.153773 -0.0128809)
(-0.00403546 0.0350327 -0.00248471)
(-0.0121091 0.0552128 -0.00255806)
(-0.0195544 0.0546692 -0.00208845)
(-0.0256319 0.0506211 -0.00152362)
(-0.0307229 0.0456352 -0.000967114)
(-0.0351126 0.0405688 -0.00050079)
(-0.0388953 0.0356791 -0.000143444)
(-0.0422214 0.0310732 0.000107216)
(-0.0452494 0.0267912 0.000267313)
(-0.0481714 0.0228404 0.000357483)
(-0.0512432 0.0192547 0.000403628)
(-0.0548128 0.0160446 0.00043543)
(-0.0594235 0.0132383 0.000507767)
(-0.065947 0.0106504 0.000714107)
(-0.0757011 0.00759905 0.00126109)
(-0.0901867 0.00163924 0.00263012)
(-0.110564 -0.0130038 0.00530105)
(-0.124277 -0.0551245 0.00907831)
(-0.134121 -0.12641 0.0111864)
(-0.0405855 -0.25315 -0.0094571)
(-0.00257504 0.0498179 -0.00405043)
(-0.0117162 0.0599564 -0.00319874)
(-0.0238385 0.0578411 -0.00245912)
(-0.0306859 0.0518848 -0.00137419)
(-0.0364794 0.0467276 -0.000549482)
(-0.040622 0.0417881 9.22607e-05)
(-0.043721 0.0371039 0.000547092)
(-0.0461639 0.0326578 0.000838311)
(-0.0482314 0.0285069 0.00100643)
(-0.0501174 0.0246864 0.00109062)
(-0.05203 0.0213657 0.00115061)
(-0.0542222 0.0186456 0.00126219)
(-0.0572131 0.0169375 0.00159482)
(-0.0618757 0.0163914 0.00248861)
(-0.0698422 0.0170942 0.0047271)
(-0.082242 0.0150032 0.00982845)
(-0.105523 0.00291262 0.0195271)
(-0.11286 -0.0549142 0.0308557)
(-0.129881 -0.168232 0.0336797)
(-0.00670767 -0.3506 -0.0103133)
(-0.0115769 0.0432419 -0.00586964)
(-0.0284254 0.0843278 -0.00613799)
(-0.0303843 0.078287 -0.00456999)
(-0.038098 0.0703474 -0.00269374)
(-0.0407916 0.0609238 -0.000923503)
(-0.0421013 0.0521526 0.000371798)
(-0.042173 0.0444584 0.00125576)
(-0.0416417 0.0378303 0.00178355)
(-0.0408455 0.0322332 0.00205203)
(-0.039922 0.0274972 0.00212576)
(-0.0392117 0.0238288 0.00213271)
(-0.0386187 0.0213087 0.00217109)
(-0.0387258 0.0206673 0.00259171)
(-0.0389558 0.0225719 0.00394042)
(-0.0414901 0.0282719 0.00775591)
(-0.0397542 0.03169 0.0157046)
(-0.0510422 0.0273267 0.0312717)
(-0.030641 -0.0418465 0.0472625)
(-0.064161 -0.197554 0.04156)
(0.0401274 -0.40166 -0.0292745)
(-0.0740085 0.106469 -0.0139757)
(-0.059076 0.0672896 -0.0076871)
(-0.0579486 0.0628077 -0.00402676)
(-0.0384593 0.0533797 -0.000356871)
(-0.0215651 0.0442761 0.00195508)
(-0.00438097 0.0372261 0.003543)
(0.0111391 0.031726 0.00448024)
(0.0250821 0.0270605 0.00487209)
(0.0369007 0.0232658 0.00492416)
(0.0476202 0.0197803 0.0046371)
(0.0560697 0.017429 0.00425136)
(0.0647015 0.0151608 0.00379818)
(0.0709518 0.0147436 0.00355023)
(0.0810956 0.014135 0.00387415)
(0.0848185 0.0159276 0.00623111)
(0.113175 0.01298 0.0105857)
(0.103955 -0.000739868 0.0221865)
(0.162321 -0.0538938 0.0402538)
(0.0973884 -0.221493 0.0234237)
(0.121822 -0.39906 -0.0528088)
(0.120517 0.140804 -0.0152013)
(0.155291 0.0874349 -0.0151346)
(0.235314 0.0649779 -0.0138493)
(0.290148 0.0493396 -0.01129)
(0.332937 0.0379791 -0.00838059)
(0.368758 0.0294639 -0.00568079)
(0.397839 0.0232418 -0.00315557)
(0.423576 0.0183618 -0.00123236)
(0.442161 0.0148348 0.000609096)
(0.462335 0.011931 0.00149637)
(0.471653 0.00958539 0.00240638)
(0.491002 0.00841818 0.0025813)
(0.490881 0.00600702 0.00238077)
(0.51478 0.0068382 0.00301338)
(0.502799 0.00328582 0.00196127)
(0.536279 0.00331233 0.00425069)
(0.501884 -0.00371086 0.00407906)
(0.528124 -0.0240829 0.00367786)
(0.404939 -0.0609306 0.00197754)
(0.291239 -0.140566 -0.0710195)
(-0.000189146 0.000188523 -3.82578e-05)
(-0.00100886 0.000397531 -2.56934e-05)
(-0.00218778 0.000429516 -1.7377e-05)
(-0.00326877 0.000415865 -1.08821e-05)
(-0.00429773 0.000388819 -7.99071e-06)