/*--------------------------------*- C++ -*----------------------------------*\
  =========                 |
  \\      /  F ield         | OpenFOAM: The Open Source CFD Toolbox
   \\    /   O peration     | Website:  https://openfoam.org
    \\  /    A nd           | Version:  10
     \\/     M anipulation  |
\*---------------------------------------------------------------------------*/
FoamFile
{
    format      ascii;
    class       volScalarField;
    location    "0.65";
    object      p;
}
// * * * * * * * * * * * * * * * * * * * * * * * * * * * * * * * * * * * * * //

dimensions      [0 2 -2 0 0 0 0];

internalField   nonuniform List<scalar> 
400
(
-3.15373e-10
6.13858e-05
0.000215375
0.000452929
0.000767994
0.00115264
0.00159719
0.00209055
0.00262042
0.00317361
0.00373625
0.00429412
0.00483292
0.00533857
0.00579759
0.00619743
0.0065269
0.00677659
0.00693917
0.00700476
-6.02317e-05
2.05293e-06
0.000158707
0.000400259
0.000720601
0.00111168
0.00156366
0.00206528
0.00260406
0.00316663
0.00373893
0.00430652
0.00485489
0.00536973
0.00583729
0.00624474
0.00658062
0.00683527
0.00700121
0.00706802
-0.000217339
-0.000152498
1.10728e-05
0.00026326
0.000597627
0.00100571
0.00147724
0.00200047
0.00256247
0.00314937
0.00374663
0.00433932
0.00491235
0.00545083
0.00594034
0.00636739
0.0067198
0.00698722
0.00716161
0.00723173
-0.00046915
-0.000399962
-0.000225228
4.40873e-05
0.000400989
0.000836347
0.00133916
0.00189694
0.00249599
0.0031217
0.00375878
0.00439149
0.00500391
0.00558018
0.00610489
0.00656341
0.00694242
0.00723047
0.00741854
0.00749425
-0.000822271
-0.00074686
-0.000556319
-0.000262829
0.000125791
0.000599424
0.00114602
0.00175203
0.00240273
0.0030825
0.00377504
0.00446357
0.00513103
0.0057603
0.00633454
0.00683756
0.00725435
0.00757183
0.0077795
0.00786333
-0.00128607
-0.00120234
-0.000990773
-0.000665247
-0.000234764
0.000289184
0.000893116
0.00156209
0.00228006
0.00303016
0.00379489
0.00455619
0.00529562
0.00599452
0.0066342
0.00719637
0.00766373
0.00802084
0.00825509
0.00835001
-0.00187297
-0.00177845
-0.00153982
-0.00117324
-0.000689408
-0.000101701
0.000574505
0.00132249
0.00212463
0.00296258
0.00381749
0.00466991
0.00549986
0.00628683
0.0070099
0.00764812
0.00818109
0.00859011
0.00885944
0.00896917
-0.00259903
-0.00249072
-0.00221775
-0.00179948
-0.00124898
-0.000582203
0.000182987
0.00102767
0.00193233
0.00287706
0.00384157
0.00480506
0.00574592
0.00664164
0.00746872
0.00820286
0.00881963
0.00929577
0.009611
0.00974043
-0.00348469
-0.00335876
-0.00304244
-0.00255953
-0.00192651
-0.0011629
-0.000289802
0.000671174
0.00169838
0.00277028
0.00386529
0.00496143
0.00603563
0.0070634
0.00801836
0.00887225
0.00959536
0.0101581
0.0105336
0.0106894
-0.00455602
-0.00440728
-0.00403594
-0.00347212
-0.00273727
-0.00185585
-0.000853157
0.000245914
0.00141741
0.00263828
0.00388598
0.00513786
0.00636988
0.00755587
0.00866659
0.00966914
0.0105272
0.0112023
0.0116576
0.0118497
-0.00584644
-0.00566739
-0.00522538
-0.00455954
-0.0036987
-0.00267421
-0.00151684
-0.000255396
0.00108379
0.00247653
0.00389999
0.00533171
0.00674773
0.00812108
0.00942002
0.0106067
0.0116365
0.0124591
0.0130225
0.0132661
-0.0073996
-0.00717868
-0.00664413
-0.00584789
-0.00483004
-0.00363153
-0.0022902
-0.000839394
0.00069226
0.0022802
0.0039025
0.0055383
0.00716536
0.0087576
0.0102822
0.0116966
0.0129466
0.0139657
0.014679
0.0149995
-0.00927404
-0.00899239
-0.00833346
-0.00736726
-0.00615155
-0.00474034
-0.00318058
-0.00151078
0.000238821
0.0020446
0.00388742
0.0057501
0.0076146
0.00945844
0.0112505
0.0129459
0.0144799
0.015766
0.0166938
0.0171355
-0.0115512
-0.0111768
-0.0103449
-0.00915141
-0.00768254
-0.00600974
-0.00419143
-0.00227071
-0.000278007
0.00176603
0.00384751
0.00595594
0.00808094
0.0102078
0.0123118
0.0143504
0.0162526
0.017909
0.0191512
0.0198027
-0.0143494
-0.0138197
-0.0127422
-0.0112358
-0.00943784
-0.00744222
-0.00531883
-0.00311378
-0.000854981
0.00144301
0.00377482
0.00614043
0.00854152
0.0109769
0.0134357
0.0158868
0.0182624
0.0204423
0.0221497
0.0232132
-0.0179471
-0.0170509
-0.015606
-0.0136522
-0.0114226
-0.00902727
-0.00654629
-0.0040241
-0.00148114
0.00107843
0.00366182
0.00628392
0.00896325
0.0117192
0.0145651
0.0174965
0.0204672
0.0233842
0.0257821
0.027727
-0.0220792
-0.0208878
-0.018998
-0.0164154
-0.0136192
-0.0107317
-0.00783753
-0.00497003
-0.0021346
0.000681711
0.00350286
0.00636422
0.00930252
0.0123655
0.0156039
0.0190589
0.0227361
0.0266954
0.0300181
0.0337696
-0.0302747
-0.026058
-0.023248
-0.019579
-0.0159808
-0.0124818
-0.00912198
-0.00589596
-0.0027765
0.000275231
0.00330483
0.00636202
0.00951088
0.0128323
0.016432
0.0204611
0.0250642
0.0307483
0.0357604
0.0435953
-0.0356751
-0.0317896
-0.0277991
-0.0229753
-0.0184318
-0.0142121
-0.0103438
-0.00675822
-0.00337891
-0.000131743
0.0030553
0.00625465
0.00953598
0.0129944
0.0167384
0.0209357
0.0255031
0.0325987
0.0366051
0.0517586
-0.0646382
-0.0364235
-0.0318103
-0.0252108
-0.0196662
-0.015047
-0.0109327
-0.00717455
-0.00367418
-0.000339429
0.00291326
0.00616303
0.00950587
0.0130686
0.0170539
0.0219881
0.0281616
0.0392579
0.050784
0.0911839
)
;

boundaryField
{
    movingWall
    {
        type            zeroGradient;
    }
    fixedWalls
    {
        type            zeroGradient;
    }
    frontAndBack
    {
        type            empty;
    }
}


// ************************************************************************* //
