/*--------------------------------*- C++ -*----------------------------------*\
  =========                 |
  \\      /  F ield         | OpenFOAM: The Open Source CFD Toolbox
   \\    /   O peration     | Website:  https://openfoam.org
    \\  /    A nd           | Version:  10
     \\/     M anipulation  |
\*---------------------------------------------------------------------------*/
FoamFile
{
    format      ascii;
    class       volScalarField;
    location    "3";
    object      p;
}
// * * * * * * * * * * * * * * * * * * * * * * * * * * * * * * * * * * * * * //

dimensions      [0 2 -2 0 0 0 0];

internalField   nonuniform List<scalar> 
400
(
-1.71692e-09
-3.05214e-05
-5.60501e-06
4.73316e-05
0.000133151
0.000251941
0.000402946
0.000584897
0.000795578
0.00103154
0.00128784
0.00155788
0.00183325
0.00210383
0.00235803
0.00258339
0.00276706
0.00289739
0.00297325
0.0029534
2.9978e-05
-1.92466e-06
2.29796e-05
7.32224e-05
0.000154862
0.000268509
0.000413755
0.000589671
0.000794363
0.00102469
0.001276
0.00154179
0.00181412
0.00208285
0.00233634
0.00256193
0.00274645
0.00287813
0.00295674
0.00293553
1.94887e-06
-3.41608e-05
-1.06148e-05
3.77347e-05
0.000117593
0.000229813
0.000374326
0.000550603
0.000757161
0.000991234
0.00124851
0.00152312
0.00180655
0.00208845
0.00235655
0.0025971
0.00279538
0.00293776
0.00302346
0.00299904
-5.853e-05
-9.86683e-05
-7.6841e-05
-3.07248e-05
4.72125e-05
0.000158247
0.000302853
0.00048112
0.000692207
0.000933967
0.00120259
0.00149246
0.00179548
0.00210069
0.00239456
0.00266149
0.00288426
0.00304601
0.00314473
0.00311874
-0.000156912
-0.000201783
-0.000182097
-0.000138549
-6.25725e-05
4.76844e-05
0.000193431
0.000375592
0.000594216
0.000848041
0.00113405
0.00144708
0.00177931
0.00211933
0.00245222
0.00275971
0.00302066
0.00321316
0.00333274
0.0033063
-0.000294313
-0.000345139
-0.000328256
-0.000288061
-0.000214681
-0.000105529
4.15627e-05
0.000228619
0.000456877
0.000726292
0.001035
0.00137877
0.00175047
0.00213829
0.00252578
0.00289133
0.00320829
0.00344705
0.0035987
0.00357356
-0.000471945
-0.000530258
-0.000517193
-0.00048177
-0.000412472
-0.000305791
-0.000158346
3.32977e-05
0.000271934
0.000559179
0.000894844
0.00127621
0.00169765
0.00214747
0.00260791
0.00305363
0.0034506
0.00375784
0.0039583
0.00393841
-0.000691534
-0.000759203
-0.000751421
-0.000722962
-0.000660273
-0.000558715
-0.000413414
-0.000219182
2.87515e-05
0.000334183
0.000699256
0.00112361
0.00160454
0.00213138
0.0026861
0.00323987
0.00374982
0.00415842
0.00443369
0.00442839
-0.00095509
-0.00103436
-0.00103384
-0.00101544
-0.000963135
-0.000870911
-0.000732108
-0.000539429
-0.000285698
3.56213e-05
0.000429722
0.000899562
0.00144791
0.00206635
0.00273901
0.00343538
0.0041034
0.00466329
0.00505491
0.00508651
-0.00126484
-0.00135837
-0.0013676
-0.0013634
-0.00132666
-0.00124981
-0.00112406
-0.000939682
-0.000686705
-0.000355329
6.32687e-05
0.000574614
0.00119571
0.00191697
0.00273112
0.00361073
0.00449688
0.00528486
0.00586086
0.00598295
-0.00162328
-0.00173415
-0.00175607
-0.00177124
-0.00175684
-0.00170341
-0.00159975
-0.00143341
-0.00119138
-0.000860063
-0.000424836
0.000131361
0.000807824
0.00163189
0.00260479
0.00371023
0.00489074
0.00602215
0.00689807
0.00723809
-0.00203351
-0.00216506
-0.00220273
-0.00224346
-0.0022598
-0.00223997
-0.00216999
-0.00203458
-0.00181793
-0.00150334
-0.00107236
-0.000504135
0.000223342
0.00113689
0.00226869
0.00363216
0.00519366
0.00683187
0.00821114
0.0090593
-0.00250025
-0.00265519
-0.00271106
-0.00278443
-0.00284151
-0.00286755
-0.00284525
-0.00275642
-0.00258293
-0.00230627
-0.00190581
-0.00135632
-0.000623686
0.000333973
0.00158726
0.00320061
0.00521237
0.00755984
0.00974317
0.0118504
-0.00303261
-0.0032111
-0.00328406
-0.00339764
-0.00350742
-0.00359384
-0.00363523
-0.00361031
-0.00349944
-0.00328442
-0.0029461
-0.00245823
-0.00178163
-0.000851352
0.000396702
0.00213527
0.00455475
0.00776242
0.0112083
0.0160041
-0.00363658
-0.00384699
-0.00393281
-0.00409602
-0.00426859
-0.00442843
-0.00454896
-0.00460486
-0.00457523
-0.00444468
-0.00420272
-0.00383875
-0.00333322
-0.00264241
-0.00166836
-0.000151997
0.00227814
0.00636332
0.0113219
0.0207547
-0.00442224
-0.00446032
-0.00453999
-0.00473809
-0.0050158
-0.00530661
-0.00555968
-0.00573413
-0.00580718
-0.00577278
-0.00563983
-0.00542222
-0.00513656
-0.00477601
-0.00426989
-0.00354385
-0.0022006
0.00108278
0.00521579
0.0210357
-0.00501825
-0.00562691
-0.00563633
-0.00601471
-0.00634295
-0.00666713
-0.00694929
-0.00715823
-0.00727861
-0.00730822
-0.00727589
-0.00723049
-0.00726703
-0.00751961
-0.00818757
-0.00954882
-0.0126029
-0.0118204
-0.00947922
0.0162188
-0.00803335
-0.0057142
-0.00569435
-0.00585097
-0.00642288
-0.00707165
-0.00768753
-0.00817563
-0.0085054
-0.00866544
-0.00872999
-0.00876728
-0.00899845
-0.00965848
-0.0114288
-0.0143035
-0.0216533
-0.0243655
-0.0217487
0.0204103
-0.0052047
-0.00837015
-0.00811113
-0.00906989
-0.00957109
-0.010063
-0.0104632
-0.0107074
-0.0108146
-0.0107552
-0.0106241
-0.0105524
-0.0107353
-0.0116655
-0.0143715
-0.0181921
-0.0286579
-0.0293061
-0.0149589
0.0565085
-0.0287074
-0.00459377
-0.00444899
-0.00496519
-0.00590662
-0.00705157
-0.00816886
-0.00901095
-0.00964422
-0.00988897
-0.0101284
-0.0101392
-0.0106543
-0.0113127
-0.0130628
-0.0138892
-0.0124753
0.00549352
0.0599955
0.184718
)
;

boundaryField
{
    movingWall
    {
        type            zeroGradient;
    }
    fixedWalls
    {
        type            zeroGradient;
    }
    frontAndBack
    {
        type            empty;
    }
}


// ************************************************************************* //
