/*--------------------------------*- C++ -*----------------------------------*\
  =========                 |
  \\      /  F ield         | OpenFOAM: The Open Source CFD Toolbox
   \\    /   O peration     | Website:  https://openfoam.org
    \\  /    A nd           | Version:  10
     \\/     M anipulation  |
\*---------------------------------------------------------------------------*/
FoamFile
{
    format      ascii;
    class       surfaceScalarField;
    location    "3";
    object      phi;
}
// * * * * * * * * * * * * * * * * * * * * * * * * * * * * * * * * * * * * * //

dimensions      [0 3 -1 0 0 0 0];

internalField   nonuniform List<scalar> 
760
(
-1.15674e-05
1.15674e-05
-3.22406e-05
2.06732e-05
-5.40485e-05
2.18079e-05
-7.49713e-05
2.09228e-05
-9.43508e-05
1.93795e-05
-0.00011173
1.73793e-05
-0.000126677
1.49469e-05
-0.000138766
1.20894e-05
-0.000147587
8.82013e-06
-0.000152749
5.16256e-06
-0.000153904
1.15478e-06
-0.000150752
-3.15196e-06
-0.000143096
-7.65543e-06
-0.000130869
-1.22273e-05
-0.000114171
-1.66984e-05
-9.33144e-05
-2.08564e-05
-6.88924e-05
-2.4422e-05
-4.20165e-05
-2.68759e-05
-1.56316e-05
-2.63849e-05
-1.56316e-05
-2.13257e-05
3.28931e-05
-5.48686e-05
5.42162e-05
-8.97063e-05
5.66456e-05
-0.000122962
5.41783e-05
-0.000153565
4.99831e-05
-0.000180761
4.45745e-05
-0.000203864
3.80504e-05
-0.000222239
3.04644e-05
-0.000235297
2.18779e-05
-0.000242501
1.23669e-05
-0.000243411
2.06472e-06
-0.000237652
-8.91118e-06
-0.000224998
-2.03095e-05
-0.000205425
-3.18e-05
-0.000179148
-4.29752e-05
-0.000146684
-5.3321e-05
-0.000108944
-6.21622e-05
-6.75799e-05
-6.82395e-05
-2.66699e-05
-6.72949e-05
-4.23016e-05
-2.40374e-05
5.69305e-05
-6.14154e-05
9.15941e-05
-0.000100091
9.53208e-05
-0.000136945
9.10325e-05
-0.000170831
8.38689e-05
-0.000200933
7.46767e-05
-0.000226517
6.36342e-05
-0.0002469
5.08478e-05
-0.000261453
3.64308e-05
-0.00026961
2.05244e-05
-0.000270877
3.33111e-06
-0.000264772
-1.50161e-05
-0.000251057
-3.40242e-05
-0.000229649
-5.32085e-05
-0.000200709
-7.19148e-05
-0.000164737
-8.92928e-05
-0.000122686
-0.000104213
-7.63587e-05
-0.000114567
-3.02978e-05
-0.000113356
-7.25993e-05
-2.55293e-05
8.24598e-05
-6.53276e-05
0.000131392
-0.000106482
0.000136475
-0.000145715
0.000130266
-0.000181848
0.000120002
-0.000214049
0.000106877
-0.000241566
9.11516e-05
-0.000263698
7.29799e-05
-0.000279785
5.25179e-05
-0.000289211
2.99502e-05
-0.000291426
5.54572e-06
-0.000285857
-2.05846e-05
-0.000272097
-4.77839e-05
-0.000249921
-7.53852e-05
-0.000219355
-0.00010248
-0.000180785
-0.000127863
-0.00013513
-0.000149868
-8.43405e-05
-0.000165357
-3.3502e-05
-0.000164194
-0.000106101
-2.72898e-05
0.00010975
-6.99688e-05
0.000174071
-0.000114111
0.000180617
-0.000156238
0.000172393
-0.000195133
0.000158897
-0.000229952
0.000141696
-0.000259934
0.000121134
-0.000284364
9.74102e-05
-0.000302554
7.07076e-05
-0.000313831
4.12272e-05
-0.000317538
9.25246e-06
-0.000312993
-2.51293e-05
-0.000299573
-6.12041e-05
-0.000276804
-9.81539e-05
-0.000244451
-0.000134834
-0.00020268
-0.000169634
-0.000152309
-0.000200239
-9.54632e-05
-0.000222202
-3.80246e-05
-0.000221633
-0.000144126
-2.95879e-05
0.000139338
-7.59842e-05
0.000220468
-0.000123974
0.000228607
-0.000169818
0.000218237
-0.000212251
0.00020133
-0.000250422
0.000179866
-0.000283573
0.000154285
-0.000310987
0.000124824
-0.000331955
9.16757e-05
-0.00034575
5.50229e-05
-0.00035161
1.51123e-05
-0.000348688
-2.8051e-05
-0.000336072
-7.38202e-05
-0.000312937
-0.00012129
-0.000278626
-0.000169145
-0.000232905
-0.000215355
-0.000176342
-0.000256802
-0.000111216
-0.000287328
-4.45304e-05
-0.000288318
-0.000188656
-3.24929e-05
0.000171831
-8.35521e-05
0.000271527
-0.000136339
0.000281394
-0.000186783
0.000268681
-0.000233571
0.000248118
-0.000275856
0.000222152
-0.000312905
0.000191334
-0.000344024
0.000155943
-0.000368511
0.000116162
-0.000385603
7.2115e-05
-0.000394433
2.39425e-05
-0.000393983
-2.85007e-05
-0.000382962
-8.48419e-05
-0.000360053
-0.000144198
-0.00032396
-0.000205239
-0.00027374
-0.000265574
-0.000209416
-0.000321126
-0.000133268
-0.000363477
-5.38297e-05
-0.000367756
-0.000242486
-3.60654e-05
0.000207896
-9.28266e-05
0.000328288
-0.000151423
0.000339991
-0.000207382
0.00032464
-0.000259345
0.00030008
-0.000306495
0.000269301
-0.000348156
0.000232996
-0.000383706
0.000191492
-0.000412494
0.000144951
-0.000433772
9.33925e-05
-0.000446599
3.67699e-05
-0.000449807
-2.52932e-05
-0.000441646
-9.30024e-05
-0.000420164
-0.000165681
-0.000383112
-0.00024229
-0.00032836
-0.000320327
-0.000254797
-0.000394689
-0.000164275
-0.000453999
-6.73366e-05
-0.000464694
-0.000309823
-4.03987e-05
0.000248295
-0.000104026
0.000391916
-0.000169523
0.000405487
-0.000231935
0.000387052
-0.000289871
0.000358017
-0.000342585
0.000322015
-0.000389517
0.000279928
-0.00043018
0.000232155
-0.000464058
0.000178829
-0.000490496
0.00011983
-0.000508559
5.4833e-05
-0.000517019
-1.68332e-05
-0.00051363
-9.63915e-05
-0.000495675
-0.000183635
-0.000459589
-0.000278376
-0.000401337
-0.000378579
-0.000317586
-0.00047844
-0.000208731
-0.000562854
-8.77305e-05
-0.000585695
-0.000397553
-4.56462e-05
0.000293941
-0.000117485
0.000463755
-0.000191069
0.000479071
-0.000260884
0.000456866
-0.000325538
0.000422672
-0.000384416
0.000380893
-0.000437152
0.000332664
-0.000483493
0.000278496
-0.000523172
0.000218509
-0.000555759
0.000152416
-0.000580455
7.95291e-05
-0.000596207
-1.08098e-06
-0.000600298
-9.23006e-05
-0.00058927
-0.000194663
-0.00055786
-0.000309786
-0.000499188
-0.000437251
-0.000405905
-0.000571724
-0.000274588
-0.00069417
-0.000120461
-0.000739822
-0.000518014
-5.20685e-05
0.000346009
-0.000133728
0.000545414
-0.000216707
0.000562051
-0.000294861
0.000535021
-0.00036687
0.00049468
-0.000432334
0.000446357
-0.00049119
0.00039152
-0.000543544
0.000330849
-0.000589528
0.000264493
-0.000629144
0.000192032
-0.00066203
0.000112415
-0.000687171
2.40604e-05
-0.000702473
-7.69982e-05
-0.000703512
-0.000193624
-0.000683274
-0.000330024
-0.000631028
-0.000489496
-0.000532777
-0.000669975
-0.000376676
-0.000850271
-0.000177483
-0.000939016
-0.000695497
-6.01213e-05
0.000406131
-0.000153594
0.000638886
-0.00024741
0.000655867
-0.000334783
0.000622394
-0.000414594
0.000574491
-0.000486792
0.000518555
-0.000551746
0.000456474
-0.000610061
0.000389165
-0.000662448
0.000316881
-0.000709572
0.000239156
-0.000751826
0.000154669
-0.000788853
6.10869e-05
-0.000819705
-4.6146e-05
-0.000839962
-0.000173367
-0.000841431
-0.000328556
-0.000809055
-0.000521872
-0.000718999
-0.000760032
-0.000543868
-0.0010254
-0.0002878
-0.00119508
-0.000983297
-7.06589e-05
0.00047679
-0.000178457
0.000746684
-0.000284648
0.000762058
-0.000381971
0.000719718
-0.000469736
0.000662255
-0.000548411
0.00059723
-0.000618951
0.000527014
-0.000682609
0.000452823
-0.000740837
0.000375109
-0.000795199
0.000293517
-0.00084723
0.0002067
-0.000898021
0.000111879
-0.000949232
5.06499e-06
-0.000997405
-0.000125194
-0.0010362
-0.000289759
-0.0010478
-0.000510276
-0.000996621
-0.000811209
-0.000829385
-0.00119264
-0.000512399
-0.00151207
-0.0014957
-8.5352e-05
0.000562142
-0.000210805
0.000872137
-0.000330729
0.000881982
-0.00043833
0.000827318
-0.000533729
0.000757654
-0.000618071
0.000681573
-0.000693049
0.000601992
-0.000760681
0.000520455
-0.000823279
0.000437706
-0.000883518
0.000353756
-0.000944611
0.000267793
-0.00101031
0.000177576
-0.00108297
7.77242e-05
-0.00116771
-4.04506e-05
-0.00126421
-0.000193256
-0.00135804
-0.000416447
-0.00140668
-0.000762568
-0.0013107
-0.00128862
-0.000945516
-0.00187725
-0.00244121
-0.000104515
0.000666657
-0.00025223
0.00101985
-0.00038819
0.00101794
-0.000506558
0.000945686
-0.000608738
0.000859834
-0.000697099
0.000769933
-0.000774463
0.000679356
-0.000843713
0.000589704
-0.000907924
0.000501917
-0.00097066
0.000416493
-0.00103642
0.000333552
-0.0011115
0.000252652
-0.00120607
0.000172295
-0.00133288
8.63614e-05
-0.00150481
-2.13278e-05
-0.00172514
-0.000196117
-0.00196224
-0.000525462
-0.00201536
-0.0012355
-0.0015698
-0.00232282
-0.00401101
-0.000159927
0.000826584
-0.000324383
0.00118431
-0.000466484
0.00116004
-0.000587942
0.00106714
-0.000693294
0.000965187
-0.000783979
0.000860618
-0.000862036
0.000757414
-0.000930189
0.000657857
-0.000992188
0.000563915
-0.00105261
0.000476913
-0.00111807
0.000399017
-0.00119707
0.000331646
-0.00130357
0.000278796
-0.00145867
0.000241467
-0.00169442
0.000214417
-0.00203153
0.000140995
-0.0024489
-0.000108098
-0.00261527
-0.00106913
-0.0019629
-0.00297518
-0.00597391
-0.000130562
0.000957147
-0.00036607
0.00141981
-0.000552759
0.00134673
-0.000698272
0.00121266
-0.000809383
0.0010763
-0.000893169
0.000944404
-0.00095747
0.000821715
-0.00100889
0.000709282
-0.00105278
0.0006078
-0.00109272
0.000516854
-0.00113455
0.000440846
-0.00118503
0.000382128
-0.00126012
0.000353884
-0.00138551
0.000366858
-0.00160917
0.000438077
-0.00194797
0.000479791
-0.00241062
0.000354554
-0.00253011
-0.000949632
-0.00165754
-0.00384775
-0.00763146
-0.000411349
0.0013685
-0.000566648
0.00157511
-0.000696073
0.00147616
-0.000805393
0.00132198
-0.000868706
0.00113961
-0.000899119
0.000974817
-0.000908312
0.000830908
-0.000903909
0.000704879
-0.000893361
0.000597252
-0.000879201
0.000502695
-0.000869726
0.000431371
-0.000864058
0.00037646
-0.000872925
0.000362751
-0.000890133
0.000384066
-0.00093196
0.000479903
-0.000972633
0.000520464
-0.000979266
0.000361187
-0.000984011
-0.000944887
-0.000444951
-0.00438681
-0.00807641
-0.00127152
0.00264002
-0.00118877
0.00149236
-0.000947318
0.00123471
-0.000621475
0.000996135
-0.000288308
0.000806444
2.7119e-05
0.00065939
0.000312446
0.000545581
0.00056616
0.000451166
0.000786667
0.000376744
0.000978832
0.00031053
0.00114821
0.000261991
0.001299
0.00022567
0.00146414
0.000197615
0.00164326
0.000204944
0.00194283
0.000180336
0.00230206
0.000161233
0.00274069
-7.74448e-05
0.00280243
-0.00100662
0.00183639
-0.00342077
-0.00624002
0.00264002
0.00413238
0.00536708
0.00636322
0.00716966
0.00782905
0.00837463
0.0088258
0.00920254
0.00951307
0.00977506
0.0100007
0.0101983
0.0104033
0.0105836
0.0107449
0.0106674
0.00966079
0.00624002
)
;

boundaryField
{
    movingWall
    {
        type            calculated;
        value           uniform 0;
    }
    fixedWalls
    {
        type            calculated;
        value           uniform 0;
    }
    frontAndBack
    {
        type            empty;
        value           nonuniform List<scalar> 0();
    }
}


// ************************************************************************* //
