/*--------------------------------*- C++ -*----------------------------------*\
  =========                 |
  \\      /  F ield         | OpenFOAM: The Open Source CFD Toolbox
   \\    /   O peration     | Website:  https://openfoam.org
    \\  /    A nd           | Version:  10
     \\/     M anipulation  |
\*---------------------------------------------------------------------------*/
FoamFile
{
    format      ascii;
    class       volVectorField;
    location    "3";
    object      U;
}
// * * * * * * * * * * * * * * * * * * * * * * * * * * * * * * * * * * * * * //

dimensions      [0 1 -1 0 0 0 0];

internalField   nonuniform List<vector> 
400
(
(-0.000194044 0.000191889 0)
(-0.00100983 0.000390545 0)
(-0.00217426 0.000417999 0)
(-0.00324032 0.000403122 0)
(-0.00425098 0.000375959 0)
(-0.00517428 0.00034042 0)
(-0.00598611 0.000296553 0)
(-0.00666536 0.000244078 0)
(-0.00719112 0.000182896 0)
(-0.00754326 0.000113218 0)
(-0.00770333 3.57193e-05 0)
(-0.00765485 -4.88669e-05 0)
(-0.00738513 -0.000138759 0)
(-0.0068874 -0.00023117 0)
(-0.00616217 -0.000322489 0)
(-0.00521895 -0.000408195 0)
(-0.00408113 -0.000482298 0)
(-0.00280013 -0.000533739 0)
(-0.00134631 -0.00052181 0)
(-0.000279756 -0.000285361 0)
(-0.000405739 0.00101253 0)
(-0.00179111 0.00174031 0)
(-0.00364073 0.00182822 0)
(-0.00534341 0.0017519 0)
(-0.00694596 0.00161996 0)
(-0.0083983 0.0014492 0)
(-0.00966188 0.00124219 0)
(-0.0107042 0.00100008 0)
(-0.0114946 0.000724393 0)
(-0.0120048 0.000417412 0)
(-0.0122105 8.23108e-05 0)
(-0.012091 -0.000276239 0)
(-0.0116307 -0.000649502 0)
(-0.0108233 -0.00102699 0)
(-0.00967311 -0.001395 0)
(-0.00819718 -0.00173625 0)
(-0.00643275 -0.00202813 0)
(-0.0044533 -0.00222847 0)
(-0.00223086 -0.00219147 0)
(-0.000519479 -0.00133586 0)
(-0.000461571 0.00223848 0)
(-0.00201281 0.00363031 0)
(-0.00406792 0.00378383 0)
(-0.00595644 0.00361584 0)
(-0.00773173 0.00333273 0)
(-0.00933955 0.00296853 0)
(-0.0107384 0.0025302 0)
(-0.0118933 0.0020218 0)
(-0.0127716 0.00144781 0)
(-0.0133434 0.000813839 0)
(-0.0135823 0.000127191 0)
(-0.0134634 -0.000602017 0)
(-0.0129682 -0.00135815 0)
(-0.0120887 -0.00212034 0)
(-0.0108261 -0.0028615 0)
(-0.00919557 -0.0035478 0)
(-0.00723475 -0.00413477 0)
(-0.00502345 -0.0045394 0)
(-0.00252895 -0.00448367 0)
(-0.000594189 -0.00285324 0)
(-0.000488759 0.00347075 0)
(-0.00213935 0.00555085 0)
(-0.00432817 0.0057702 0)
(-0.00633754 0.00550903 0)
(-0.00822867 0.00507501 0)
(-0.00994537 0.00451891 0)
(-0.0114451 0.00385157 0)
(-0.0126923 0.00307949 0)
(-0.0136529 0.00220942 0)
(-0.0142952 0.00124947 0)
(-0.0145902 0.000210374 0)
(-0.0145094 -0.000893117 0)
(-0.0140276 -0.00204102 0)
(-0.0131289 -0.00320335 0)
(-0.0118075 -0.00433994 0)
(-0.0100719 -0.00539913 0)
(-0.00795549 -0.00631182 0)
(-0.00554302 -0.00694894 0)
(-0.00279686 -0.00688748 0)
(-0.000657143 -0.00443539 0)
(-0.000520717 0.0047853 0)
(-0.00228881 0.00760315 0)
(-0.00463779 0.00789273 0)
(-0.00679362 0.00753382 0)
(-0.0088263 0.00694234 0)
(-0.0106777 0.00618687 0)
(-0.0123045 0.00528234 0)
(-0.0136709 0.00423749 0)
(-0.0147418 0.00306076 0)
(-0.0154835 0.00176165 0)
(-0.0158629 0.000352323 0)
(-0.0158464 -0.00114983 0)
(-0.0154006 -0.00272078 0)
(-0.0144976 -0.00432353 0)
(-0.0131189 -0.00590584 0)
(-0.0112599 -0.00739644 0)
(-0.0089452 -0.00869615 0)
(-0.00626394 -0.00961852 0)
(-0.00317332 -0.00957118 0)
(-0.000747307 -0.00620817 0)
(-0.00056294 0.00620189 0)
(-0.00248323 0.00982129 0)
(-0.00503852 0.0101873 0)
(-0.00738282 0.00972513 0)
(-0.00959698 0.00896845 0)
(-0.0116207 0.00800527 0)
(-0.0134105 0.00685491 0)
(-0.0149306 0.00552814 0)
(-0.0161458 0.00403427 0)
(-0.0170204 0.00238275 0)
(-0.0175177 0.000585031 0)
(-0.0175974 -0.00134231 0)
(-0.0172149 -0.00337476 0)
(-0.0163262 -0.00547079 0)
(-0.0148929 -0.00756769 0)
(-0.0128892 -0.00957367 0)
(-0.0103213 -0.0113525 0)
(-0.00727932 -0.0126431 0)
(-0.00371193 -0.0126456 0)
(-0.000879241 -0.00825225 0)
(-0.000616623 0.00774768 0)
(-0.00272856 0.0122477 0)
(-0.00554199 0.012697 0)
(-0.00812034 0.0121238 0)
(-0.0105585 0.0111916 0)
(-0.0127938 0.0100103 0)
(-0.0147835 0.00860415 0)
(-0.0164934 0.0069859 0)
(-0.017889 0.00516477 0)
(-0.0189344 0.00314823 0)
(-0.0195895 0.000944073 0)
(-0.0198076 -0.00143582 0)
(-0.0195303 -0.00397224 0)
(-0.018692 -0.00662487 0)
(-0.0172258 -0.00932531 0)
(-0.0150708 -0.0119624 0)
(-0.0121989 -0.014355 0)
(-0.00868989 -0.0161433 0)
(-0.00447633 -0.0162594 0)
(-0.00107187 -0.0106822 0)
(-0.000682815 0.00945448 0)
(-0.00302998 0.014932 0)
(-0.00615811 0.0154711 0)
(-0.00901836 0.014775 0)
(-0.0117237 0.0136532 0)
(-0.0142094 0.0122402 0)
(-0.0164353 0.0105667 0)
(-0.0183703 0.00864744 0)
(-0.0199837 0.00649076 0)
(-0.0212413 0.00409998 0)
(-0.0221019 0.00147553 0)
(-0.0225139 -0.00138102 0)
(-0.0224041 -0.00446402 0)
(-0.0216798 -0.0077439 0)
(-0.0202347 -0.0111569 0)
(-0.0179532 -0.0145793 0)
(-0.0147445 -0.0177809 0)
(-0.0106508 -0.0202696 0)
(-0.00557372 -0.0206137 0)
(-0.00136078 -0.0136657 0)
(-0.000763358 0.0113576 0)
(-0.00339522 0.0179289 0)
(-0.00690068 0.0185621 0)
(-0.0100929 0.0177255 0)
(-0.0131085 0.0163941 0)
(-0.0158816 0.0147319 0)
(-0.0183767 0.0127775 0)
(-0.0205697 0.0105486 0)
(-0.0224368 0.00805205 0)
(-0.0239498 0.00528494 0)
(-0.0250706 0.00223606 0)
(-0.0257472 -0.00111006 0)
(-0.0258933 -0.00477324 0)
(-0.0253855 -0.00874957 0)
(-0.0240669 -0.0129995 0)
(-0.021741 -0.0174049 0)
(-0.0182085 -0.0216923 0)
(-0.0134135 -0.0252029 0)
(-0.00719864 -0.0259825 0)
(-0.00181876 -0.0174636 0)
(-0.000861642 0.0134982 0)
(-0.0038366 0.0213006 0)
(-0.00779025 0.0220268 0)
(-0.011367 0.0210226 0)
(-0.0147346 0.0194536 0)
(-0.0178277 0.0175187 0)
(-0.0206192 0.0152673 0)
(-0.0230963 0.0127214 0)
(-0.0252478 0.009887 0)
(-0.0270577 0.00675308 0)
(-0.0284972 0.00329225 0)
(-0.0295233 -0.000538244 0)
(-0.0300438 -0.00478739 0)
(-0.0299069 -0.0095102 0)
(-0.0288979 -0.0147217 0)
(-0.0267094 -0.0203486 0)
(-0.0229691 -0.0261047 0)
(-0.0173967 -0.0311462 0)
(-0.00972669 -0.0327451 0)
(-0.00260494 -0.0225176 0)
(-0.000984016 0.0159272 0)
(-0.00437431 0.02512 0)
(-0.00885826 0.0259275 0)
(-0.0128741 0.0247142 0)
(-0.0166319 0.0228671 0)
(-0.0200699 0.0206271 0)
(-0.0231747 0.0180584 0)
(-0.0259507 0.0151898 0)
(-0.0284059 0.0120274 0)
(-0.0305453 0.00855245 0)
(-0.0323626 0.00471873 0)
(-0.0338272 0.000449998 0)
(-0.0348659 -0.00434856 0)
(-0.0353213 -0.00981923 0)
(-0.0349168 -0.0160831 0)
(-0.0332139 -0.0231863 0)
(-0.029592 -0.0309159 0)
(-0.0233176 -0.038272 0)
(-0.0139315 -0.0414182 0)
(-0.00408846 -0.0296381 0)
(-0.0011428 0.0187132 0)
(-0.00504245 0.0294754 0)
(-0.0101533 0.0303331 0)
(-0.0146637 0.0288466 0)
(-0.018843 0.026663 0)
(-0.0226387 0.0240731 0)
(-0.0260576 0.0211597 0)
(-0.0291284 0.0179623 0)
(-0.0318862 0.0144901 0)
(-0.0343674 0.0107195 0)
(-0.0366007 0.00658775 0)
(-0.0385916 0.00198614 0)
(-0.0403147 -0.00324885 0)
(-0.0416448 -0.00937556 0)
(-0.0422839 -0.0166801 0)
(-0.0416776 -0.0254561 0)
(-0.0388972 -0.0357536 0)
(-0.0324292 -0.0465581 0)
(-0.0214737 -0.0525817 0)
(-0.00716307 -0.0404922 0)
(-0.00136394 0.0219575 0)
(-0.00590125 0.0344851 0)
(-0.011751 0.0353211 0)
(-0.0168087 0.0334623 0)
(-0.0214284 0.0308586 0)
(-0.0255758 0.027856 0)
(-0.0292869 0.0245601 0)
(-0.0326216 0.0210243 0)
(-0.03565 0.0172659 0)
(-0.038449 0.0132623 0)
(-0.0410975 0.0089417 0)
(-0.0436659 0.00416364 0)
(-0.0462308 -0.00130942 0)
(-0.0487601 -0.00780316 0)
(-0.0510329 -0.0158817 0)
(-0.0525106 -0.0262774 0)
(-0.0519878 -0.0396461 0)
(-0.0468293 -0.0553555 0)
(-0.0358437 -0.0666474 0)
(-0.0140619 -0.0586747 0)
(-0.00169926 0.025738 0)
(-0.00706733 0.0402612 0)
(-0.0137785 0.0409706 0)
(-0.019418 0.0386045 0)
(-0.0244732 0.0354606 0)
(-0.0289401 0.031954 0)
(-0.0328909 0.0282198 0)
(-0.0364239 0.0243274 0)
(-0.0396492 0.0203056 0)
(-0.0426922 0.0161436 0)
(-0.0457001 0.011783 0)
(-0.0488441 0.00709688 0)
(-0.052284 0.0018337 0)
(-0.0562273 -0.00446945 0)
(-0.0608211 -0.012662 0)
(-0.0658224 -0.0240407 0)
(-0.0700272 -0.0403888 0)
(-0.0695483 -0.0626209 0)
(-0.0626971 -0.0831712 0)
(-0.0284868 -0.0907588 0)
(-0.00216974 0.0307982 0)
(-0.00856021 0.0469117 0)
(-0.0163598 0.0471443 0)
(-0.0226315 0.0439896 0)
(-0.0281025 0.040226 0)
(-0.0328192 0.0362018 0)
(-0.0369132 0.0320268 0)
(-0.0405325 0.0277754 0)
(-0.0438259 0.0235044 0)
(-0.046957 0.0192365 0)
(-0.05012 0.014949 0)
(-0.0535784 0.0105415 0)
(-0.0577429 0.00580351 0)
(-0.0631845 0.000249046 0)
(-0.070575 -0.00699752 0)
(-0.0806195 -0.0176983 0)
(-0.0930086 -0.0349639 0)
(-0.10167 -0.063974 0)
(-0.103282 -0.100493 0)
(-0.0469567 -0.14909 0)
(-0.0039288 0.0351989 0)
(-0.0121669 0.0560185 0)
(-0.0201088 0.0555251 0)
(-0.0266903 0.0515937 0)
(-0.0322907 0.0466382 0)
(-0.037138 0.0414681 0)
(-0.0412913 0.0363651 0)
(-0.0448848 0.0314628 0)
(-0.0480801 0.0268252 0)
(-0.0510832 0.0224815 0)
(-0.0541647 0.0184792 0)
(-0.057679 0.0148409 0)
(-0.0621585 0.0115933 0)
(-0.0684466 0.00857376 0)
(-0.07789 0.00511297 0)
(-0.0922545 -0.00102088 0)
(-0.113069 -0.0154504 0)
(-0.129585 -0.0563704 0)
(-0.139422 -0.128031 0)
(-0.0458959 -0.249028 0)
(-0.00221223 0.0495779 0)
(-0.0114519 0.0604172 0)
(-0.0242786 0.0586139 0)
(-0.0316622 0.0530106 0)
(-0.0380968 0.0480168 0)
(-0.0428449 0.0430638 0)
(-0.046435 0.038204 0)
(-0.0492458 0.0334639 0)
(-0.0515615 0.0289353 0)
(-0.0535891 0.0246936 0)
(-0.0555489 0.0209313 0)
(-0.0577176 0.0177831 0)
(-0.0606355 0.0156676 0)
(-0.0652547 0.0148207 0)
(-0.073327 0.0154259 0)
(-0.0868256 0.014099 0)
(-0.112508 0.00318168 0)
(-0.125099 -0.0547728 0)
(-0.139069 -0.177382 0)
(-0.012803 -0.359752 0)
(-0.0110737 0.0419273 0)
(-0.027969 0.084958 0)
(-0.0303414 0.0792137 0)
(-0.0387797 0.0718433 0)
(-0.0424424 0.062799 0)
(-0.0446216 0.0540612 0)
(-0.0453879 0.0461201 0)
(-0.0453654 0.0391221 0)
(-0.0449028 0.0330876 0)
(-0.0441826 0.027912 0)
(-0.0435537 0.0238423 0)
(-0.0429996 0.0210224 0)
(-0.0430624 0.0202454 0)
(-0.043346 0.0224632 0)
(-0.0457858 0.0290043 0)
(-0.0448997 0.0345357 0)
(-0.0569413 0.0317715 0)
(-0.0397841 -0.0439629 0)
(-0.0677463 -0.218478 0)
(0.0327879 -0.421856 0)
(-0.0738413 0.105084 0)
(-0.0576191 0.0668409 0)
(-0.057784 0.0630712 0)
(-0.0387705 0.0546531 0)
(-0.0226923 0.0460784 0)
(-0.00619775 0.0390445 0)
(0.00887138 0.0333104 0)
(0.0224988 0.0283518 0)
(0.0341973 0.0241803 0)
(0.0447948 0.0203426 0)
(0.0533535 0.017669 0)
(0.0620066 0.0152117 0)
(0.0687065 0.0148309 0)
(0.0791138 0.0145544 0)
(0.0844652 0.0169206 0)
(0.114335 0.0145465 0)
(0.106833 8.35968e-05 0)
(0.164231 -0.0591068 0)
(0.0996082 -0.242714 0)
(0.107735 -0.419007 0)
(0.12217 0.141499 0)
(0.158939 0.088284 0)
(0.239761 0.0656285 0)
(0.296126 0.0500753 0)
(0.340075 0.0389756 0)
(0.376426 0.030589 0)
(0.406022 0.0242753 0)
(0.431732 0.0192235 0)
(0.450743 0.0154739 0)
(0.470584 0.0123336 0)
(0.480086 0.00981866 0)
(0.499469 0.00849423 0)
(0.49898 0.0058375 0)
(0.523926 0.00706326 0)
(0.511402 0.00263511 0)
(0.545632 0.00377417 0)
(0.512002 -0.00507568 0)
(0.534904 -0.0281126 0)
(0.405239 -0.0652381 0)
(0.271994 -0.148176 0)
)
;

boundaryField
{
    movingWall
    {
        type            fixedValue;
        value           uniform (1 0 0);
    }
    fixedWalls
    {
        type            noSlip;
    }
    frontAndBack
    {
        type            empty;
    }
}


// ************************************************************************* //
