/*--------------------------------*- C++ -*----------------------------------*\
  =========                 |
  \\      /  F ield         | OpenFOAM: The Open Source CFD Toolbox
   \\    /   O peration     | Website:  https://openfoam.org
    \\  /    A nd           | Version:  10
     \\/     M anipulation  |
\*---------------------------------------------------------------------------*/
FoamFile
{
    format      ascii;
    class       volScalarField;
    location    "5.525";
    object      p;
}
// * * * * * * * * * * * * * * * * * * * * * * * * * * * * * * * * * * * * * //

dimensions      [0 2 -2 0 0 0 0];

internalField   nonuniform List<scalar> 
400
(
8.84128e-10
-2.16727e-05
1.67834e-05
9.26696e-05
0.000212179
0.000376449
0.000586973
0.000845248
0.00115197
0.00150631
0.00190504
0.00234159
0.00280502
0.00327923
0.0037425
0.00416816
0.00452591
0.00478538
0.00493898
0.00492764
2.26256e-05
2.13851e-07
4.2201e-05
0.000117595
0.000234163
0.000393773
0.000598405
0.000849949
0.00114948
0.00149662
0.00188868
0.00231953
0.00277877
0.00325137
0.00371576
0.00414506
0.00450808
0.00477373
0.00493587
0.00492219
-2.08569e-05
-4.9539e-05
-9.17598e-06
6.30396e-05
0.000175699
0.000330946
0.000531284
0.000779375
0.00107724
0.00142561
0.00182302
0.00226488
0.00274245
0.0032402
0.00373591
0.00420032
0.00459779
0.00489063
0.00507039
0.00504762
-0.000111022
-0.000144361
-0.000106576
-3.89131e-05
6.81527e-05
0.000217208
0.000411572
0.000655072
0.000951234
0.00130261
0.00170983
0.00217034
0.00267711
0.00321664
0.00376566
0.00429113
0.00474949
0.00509151
0.00530385
0.00527423
-0.000253532
-0.000291409
-0.000257422
-0.00019589
-9.62809e-05
4.45591e-05
0.000230996
0.000468359
0.000762189
0.00111761
0.0015383
0.00202505
0.00257377
0.0031734
0.00380043
0.0044175
0.00497087
0.00539243
0.00565829
0.00562224
-0.000447878
-0.0004909
-0.000462054
-0.000408654
-0.000319146
-0.000189755
-1.49312e-05
0.000212421
0.000500297
0.000857134
0.00129085
0.0018071
0.00240673
0.00308406
0.00381697
0.00456409
0.00525846
0.00580472
0.00615671
0.00611543
-0.000692807
-0.000741983
-0.000719824
-0.000677152
-0.000601417
-0.000488296
-0.00033105
-0.000120707
0.000153506
0.000504015
0.000944274
0.00148689
0.00213986
0.00290845
0.00377521
0.00469863
0.00559715
0.00633879
0.00683182
0.0067935
-0.000986943
-0.00104354
-0.00102983
-0.00100104
-0.000943761
-0.00085337
-0.000722178
-0.000539498
-0.000291772
3.77749e-05
0.000469173
0.00102486
0.0017272
0.0025848
0.00360661
0.00475719
0.00594456
0.00699264
0.00772643
0.00772338
-0.00132852
-0.00139394
-0.00139042
-0.00137895
-0.00134553
-0.00128573
-0.00119148
-0.00105098
-0.000848475
-0.000563239
-0.000168725
0.000367947
0.00108402
0.00201444
0.0031939
0.00461378
0.0061945
0.00772456
0.00888843
0.00902665
-0.00171535
-0.00179098
-0.00179894
-0.00180795
-0.00180387
-0.00178323
-0.00173856
-0.00165818
-0.00152554
-0.0013176
-0.00100276
-0.000538219
0.000132295
0.00107707
0.00235243
0.00402591
0.00608864
0.00836054
0.0103123
0.0109119
-0.00214507
-0.00223212
-0.00225162
-0.00228309
-0.00231289
-0.00233952
-0.00235744
-0.00235681
-0.00232293
-0.0022341
-0.00205852
-0.00174977
-0.00124127
-0.000441612
0.000761157
0.00249425
0.00497153
0.00827138
0.011692
0.0132699
-0.00261602
-0.00271508
-0.00274363
-0.002797
-0.00286278
-0.00294258
-0.00303435
-0.00313227
-0.00322668
-0.00330241
-0.00333614
-0.00329261
-0.00311713
-0.00272489
-0.00199619
-0.000758103
0.00143529
0.00553629
0.0110014
0.0147391
-0.00312908
-0.00323985
-0.00327105
-0.00334158
-0.00344053
-0.00357426
-0.00374616
-0.0039564
-0.0042042
-0.00448759
-0.00480326
-0.00514711
-0.00551675
-0.00592819
-0.00647583
-0.0072433
-0.00755206
-0.00448523
0.00232599
0.0102292
-0.00368595
-0.0037996
-0.00381551
-0.00389068
-0.0040161
-0.00420152
-0.00445369
-0.00478049
-0.00519263
-0.00570616
-0.0063482
-0.00716876
-0.00826912
-0.00986585
-0.0125044
-0.0167946
-0.0225471
-0.0223664
-0.0152631
-0.00195567
-0.0043205
-0.00444922
-0.00443596
-0.00450612
-0.00463413
-0.00484345
-0.0051499
-0.00557113
-0.00613069
-0.006865
-0.00783613
-0.00915451
-0.011053
-0.013948
-0.0188861
-0.0269108
-0.038839
-0.0424982
-0.0362648
-0.0177364
-0.00511224
-0.0050438
-0.00492386
-0.00490912
-0.00502278
-0.00526911
-0.00564976
-0.00617458
-0.00686893
-0.00777855
-0.00898843
-0.0106478
-0.0130917
-0.0167582
-0.0231877
-0.0327371
-0.0477126
-0.0533199
-0.0484652
-0.0245754
-0.00560348
-0.00603891
-0.00577777
-0.00582018
-0.00585334
-0.00601736
-0.00632937
-0.00681754
-0.00751446
-0.00846218
-0.00974717
-0.0114915
-0.0140933
-0.0177901
-0.02435
-0.0334202
-0.046766
-0.0511951
-0.0446211
-0.0109943
-0.00895868
-0.00644918
-0.00587086
-0.0053599
-0.00535399
-0.00560959
-0.00607198
-0.00670095
-0.00751327
-0.00852987
-0.0098508
-0.0115379
-0.0139382
-0.0173197
-0.0227377
-0.029435
-0.0378861
-0.0380523
-0.0254664
0.0244881
-0.00572572
-0.00870631
-0.00771499
-0.007801
-0.00743872
-0.00729429
-0.0073502
-0.00763412
-0.00818581
-0.00898326
-0.0101054
-0.0115766
-0.0138049
-0.0167746
-0.021781
-0.0269768
-0.0327859
-0.0230857
0.00504643
0.0867744
-0.0308044
-0.00581551
-0.00443419
-0.00375383
-0.00362621
-0.00393186
-0.0045771
-0.00533892
-0.00629729
-0.0074032
-0.00884508
-0.0105634
-0.0129986
-0.0157155
-0.0189552
-0.0194077
-0.0139114
0.0170771
0.0877166
0.224495
)
;

boundaryField
{
    movingWall
    {
        type            zeroGradient;
    }
    fixedWalls
    {
        type            zeroGradient;
    }
    frontAndBack
    {
        type            empty;
    }
}


// ************************************************************************* //
