/*--------------------------------*- C++ -*----------------------------------*\
  =========                 |
  \\      /  F ield         | OpenFOAM: The Open Source CFD Toolbox
   \\    /   O peration     | Website:  https://openfoam.org
    \\  /    A nd           | Version:  10
     \\/     M anipulation  |
\*---------------------------------------------------------------------------*/
FoamFile
{
    format      ascii;
    class       volVectorField;
    location    "3.825";
    object      U;
}
// * * * * * * * * * * * * * * * * * * * * * * * * * * * * * * * * * * * * * //

dimensions      [0 1 -1 0 0 0 0];

internalField   nonuniform List<vector> 
400
(
(-0.000125547 0.000122219 0)
(-0.000865593 0.000337172 0)
(-0.00202413 0.00038391 0)
(-0.00310345 0.000379647 0)
(-0.00414589 0.000362085 0)
(-0.00511671 0.000337464 0)
(-0.00599195 0.000305367 0)
(-0.00674951 0.000264452 0)
(-0.00736523 0.000213468 0)
(-0.00781351 0.000151439 0)
(-0.00806811 7.78708e-05 0)
(-0.0081031 -6.79324e-06 0)
(-0.0078948 -0.000102252 0)
(-0.00742504 -0.000205529 0)
(-0.00668449 -0.000312185 0)
(-0.00567566 -0.00041589 0)
(-0.00442209 -0.000506952 0)
(-0.00299215 -0.000566644 0)
(-0.00136545 -0.000538352 0)
(-0.000242377 -0.000254441 0)
(-0.000354193 0.000869926 0)
(-0.00175622 0.00170287 0)
(-0.00374898 0.00186715 0)
(-0.00561257 0.00182427 0)
(-0.00739276 0.00171511 0)
(-0.00903092 0.00156627 0)
(-0.0104842 0.00137976 0)
(-0.0117155 0.0011538 0)
(-0.0126872 0.000886576 0)
(-0.0133616 0.000577028 0)
(-0.0137021 0.000225308 0)
(-0.0136751 -0.000166958 0)
(-0.013251 -0.000591869 0)
(-0.0124079 -0.00103763 0)
(-0.0111386 -0.00148669 0)
(-0.00945329 -0.00191415 0)
(-0.00739373 -0.00228278 0)
(-0.00506071 -0.00251987 0)
(-0.00244055 -0.0024181 0)
(-0.00051835 -0.00134739 0)
(-0.000424139 0.00209125 0)
(-0.00204548 0.00373472 0)
(-0.00431844 0.00403871 0)
(-0.00643781 0.00392671 0)
(-0.00845743 0.00367255 0)
(-0.0103125 0.00333033 0)
(-0.0119563 0.00290699 0)
(-0.0133483 0.00240201 0)
(-0.0144479 0.00181434 0)
(-0.0152149 0.001144 0)
(-0.0156107 0.000393175 0)
(-0.0155952 -0.000432594 0)
(-0.0151324 -0.00131926 0)
(-0.0141974 -0.00224321 0)
(-0.0127771 -0.00316911 0)
(-0.0108766 -0.00404714 0)
(-0.00853676 -0.00480357 0)
(-0.00586811 -0.00529322 0)
(-0.00285196 -0.0051127 0)
(-0.000615717 -0.00301895 0)
(-0.000449769 0.00332323 0)
(-0.00217912 0.00580785 0)
(-0.00460419 0.00625195 0)
(-0.00686217 0.00606814 0)
(-0.00901703 0.00566917 0)
(-0.0110021 0.00513612 0)
(-0.0127702 0.00448006 0)
(-0.0142807 0.00370104 0)
(-0.0154919 0.00279782 0)
(-0.0163616 0.00177011 0)
(-0.0168472 0.000620757 0)
(-0.0169044 -0.000641193 0)
(-0.0164872 -0.00200019 0)
(-0.0155561 -0.00342352 0)
(-0.0140839 -0.00485991 0)
(-0.0120621 -0.00623388 0)
(-0.00952131 -0.00742993 0)
(-0.0065785 -0.00821969 0)
(-0.00320911 -0.0079795 0)
(-0.00069351 -0.00478818 0)
(-0.00047348 0.00463357 0)
(-0.00231184 0.0080174 0)
(-0.00489651 0.00861052 0)
(-0.00730308 0.00835308 0)
(-0.00960637 0.00780598 0)
(-0.0117383 0.00707876 0)
(-0.0136527 0.00618676 0)
(-0.0153097 0.00513011 0)
(-0.0166673 0.0039064 0)
(-0.0176813 0.00251337 0)
(-0.0183041 0.000951586 0)
(-0.0184838 -0.000771604 0)
(-0.0181617 -0.00263968 0)
(-0.0172785 -0.00461486 0)
(-0.0157832 -0.00663316 0)
(-0.0136403 -0.00859256 0)
(-0.0108585 -0.010327 0)
(-0.00755885 -0.0115026 0)
(-0.00371106 -0.0112314 0)
(-0.000805943 -0.00680741 0)
(-0.000504248 0.00603026 0)
(-0.0024794 0.0103842 0)
(-0.00526352 0.0111389 0)
(-0.00785632 0.0108071 0)
(-0.0103455 0.01011 0)
(-0.0126618 0.00918776 0)
(-0.0147609 0.00806027 0)
(-0.016605 0.00672722 0)
(-0.0181531 0.00518367 0)
(-0.01936 0.003423 0)
(-0.0201736 0.00143985 0)
(-0.0205339 -0.000765305 0)
(-0.0203649 -0.00318274 0)
(-0.0195806 -0.0057759 0)
(-0.018095 -0.00847294 0)
(-0.0158295 -0.011146 0)
(-0.0127505 -0.0135688 0)
(-0.00897173 -0.0152691 0)
(-0.00445285 -0.0150228 0)
(-0.000979264 -0.00918759 0)
(-0.000543563 0.0075347 0)
(-0.00268936 0.0129447 0)
(-0.00571989 0.0138755 0)
(-0.00854097 0.0134676 0)
(-0.0112564 0.0126179 0)
(-0.0137962 0.0115003 0)
(-0.0161195 0.0101395 0)
(-0.0181924 0.00853474 0)
(-0.0199775 0.00667701 0)
(-0.0214307 0.00455248 0)
(-0.0224975 0.00214524 0)
(-0.0231109 -0.000557871 0)
(-0.0231763 -0.00356332 0)
(-0.0225735 -0.0068485 0)
(-0.0211675 -0.0103459 0)
(-0.0188125 -0.0139088 0)
(-0.0153978 -0.0172424 0)
(-0.0110001 -0.0196912 0)
(-0.00555657 -0.0195774 0)
(-0.0012521 -0.0121056 0)
(-0.000591934 0.00917296 0)
(-0.00294513 0.0157425 0)
(-0.00627204 0.016865 0)
(-0.00936369 0.0163766 0)
(-0.0123445 0.0153693 0)
(-0.0151441 0.0140548 0)
(-0.0177277 0.0124643 0)
(-0.0200685 0.0105964 0)
(-0.0221363 0.00843729 0)
(-0.0238925 0.00596308 0)
(-0.0252845 0.00314132 0)
(-0.0262427 -6.50299e-05 0)
(-0.026656 -0.00368334 0)
(-0.0263655 -0.00773329 0)
(-0.0251718 -0.012173 0)
(-0.0228293 -0.0168571 0)
(-0.0190948 -0.0214237 0)
(-0.0139374 -0.0249831 0)
(-0.00724537 -0.025208 0)
(-0.00170541 -0.0158438 0)
(-0.000650563 0.0109731 0)
(-0.00325188 0.0188247 0)
(-0.00692852 0.0201529 0)
(-0.0103324 0.0195744 0)
(-0.0136143 0.0184001 0)
(-0.016705 0.0168852 0)
(-0.0195786 0.0150694 0)
(-0.02222 0.0129521 0)
(-0.0246113 0.0105146 0)
(-0.0267271 0.00772126 0)
(-0.0285258 0.00451838 0)
(-0.0299354 0.000836624 0)
(-0.0308449 -0.0033959 0)
(-0.0310661 -0.00826323 0)
(-0.0303147 -0.0137909 0)
(-0.0282087 -0.0198816 0)
(-0.0242936 -0.0261357 0)
(-0.0182853 -0.0313845 0)
(-0.00996749 -0.0323538 0)
(-0.00252365 -0.020891 0)
(-0.000722264 0.0129673 0)
(-0.00361935 0.0222426 0)
(-0.00770408 0.0237858 0)
(-0.0114607 0.0230987 0)
(-0.0150745 0.0217408 0)
(-0.018479 0.0200178 0)
(-0.0216618 0.0179811 0)
(-0.0246241 0.0156332 0)
(-0.0273679 0.0129525 0)
(-0.0298894 0.00989218 0)
(-0.0321697 0.00637543 0)
(-0.0341574 0.00229349 0)
(-0.0357568 -0.00249698 0)
(-0.0367656 -0.00817737 0)
(-0.0368256 -0.0149011 0)
(-0.0353871 -0.0227102 0)
(-0.0316866 -0.0312606 0)
(-0.0249347 -0.0390987 0)
(-0.0146904 -0.0416297 0)
(-0.00415076 -0.0281766 0)
(-0.000812954 0.0151963 0)
(-0.00406539 0.0260562 0)
(-0.00862418 0.0278126 0)
(-0.0127719 0.0269837 0)
(-0.0167406 0.0254141 0)
(-0.0204695 0.0234678 0)
(-0.0239646 0.0212117 0)
(-0.0272497 0.0186555 0)
(-0.0303535 0.0157789 0)
(-0.0333054 0.0125277 0)
(-0.0361258 0.00880412 0)
(-0.0388095 0.00445354 0)
(-0.0413184 -0.000752309 0)
(-0.0434807 -0.00710392 0)
(-0.0449073 -0.0149983 0)
(-0.0449032 -0.0247678 0)
(-0.0423151 -0.0363364 0)
(-0.0355163 -0.0480743 0)
(-0.0235711 -0.0537544 0)
(-0.00769376 -0.0396951 0)
(-0.000934797 0.0177175 0)
(-0.00462248 0.0303383 0)
(-0.00973206 0.032284 0)
(-0.0143051 0.0312576 0)
(-0.01864 0.0294307 0)
(-0.0226866 0.0272337 0)
(-0.0264757 0.0247534 0)
(-0.0300585 0.022011 0)
(-0.0334974 0.0189942 0)
(-0.0368662 0.0156521 0)
(-0.0402464 0.0118796 0)
(-0.0437177 0.00749214 0)
(-0.0473215 0.00218743 0)
(-0.0510359 -0.00448442 0)
(-0.0546063 -0.0132396 0)
(-0.057312 -0.0249251 0)
(-0.0576567 -0.0401104 0)
(-0.0528814 -0.0573923 0)
(-0.0411295 -0.069305 0)
(-0.0158683 -0.0596426 0)
(-0.0011138 0.0206176 0)
(-0.00535072 0.0351838 0)
(-0.0110994 0.0372479 0)
(-0.0161225 0.0359331 0)
(-0.0208174 0.033782 0)
(-0.0251523 0.0312929 0)
(-0.0291893 0.0285721 0)
(-0.0330107 0.0256576 0)
(-0.0367143 0.0225547 0)
(-0.0404223 0.0192307 0)
(-0.0442885 0.0155977 0)
(-0.0485065 0.0114761 0)
(-0.0533078 0.00652844 0)
(-0.0589597 0.000142188 0)
(-0.0655937 -0.00865048 0)
(-0.0728925 -0.0213769 0)
(-0.0793674 -0.0399011 0)
(-0.0810712 -0.0642925 0)
(-0.0736276 -0.0881994 0)
(-0.0320245 -0.0964142 0)
(-0.00140358 0.0240141 0)
(-0.00637495 0.0407576 0)
(-0.0128543 0.0428435 0)
(-0.0183173 0.0411175 0)
(-0.023335 0.0385099 0)
(-0.0279021 0.0356254 0)
(-0.0321128 0.0326077 0)
(-0.0360773 0.0295117 0)
(-0.0399254 0.0263608 0)
(-0.0438238 0.023158 0)
(-0.0480019 0.0198808 0)
(-0.0527909 0.0164426 0)
(-0.0586735 0.012601 0)
(-0.0663097 0.00777635 0)
(-0.0765926 0.000816479 0)
(-0.0905029 -0.010518 0)
(-0.107235 -0.0301494 0)
(-0.1205 -0.0636054 0)
(-0.1192 -0.111217 0)
(-0.0489269 -0.164549 0)
(-0.00182071 0.0283837 0)
(-0.00765782 0.0466266 0)
(-0.015085 0.0483043 0)
(-0.021033 0.0458557 0)
(-0.0263603 0.0428351 0)
(-0.0310572 0.0397079 0)
(-0.0353013 0.0365379 0)
(-0.0392515 0.0333539 0)
(-0.0430536 0.0302059 0)
(-0.046874 0.0271622 0)
(-0.0509547 0.0243144 0)
(-0.0557081 0.0217509 0)
(-0.0618649 0.0195146 0)
(-0.0706494 0.0173982 0)
(-0.0840401 0.0145264 0)
(-0.104723 0.00802311 0)
(-0.132812 -0.00937988 0)
(-0.154466 -0.0573119 0)
(-0.152407 -0.151794 0)
(-0.0437898 -0.272498 0)
(-0.00372453 0.0323862 0)
(-0.0114938 0.0559412 0)
(-0.0186282 0.0571879 0)
(-0.0244614 0.0542171 0)
(-0.0295637 0.0500407 0)
(-0.0342149 0.0457827 0)
(-0.0384486 0.0416905 0)
(-0.0423418 0.037861 0)
(-0.0459787 0.0343704 0)
(-0.0494842 0.0313177 0)
(-0.0530663 0.0289125 0)
(-0.0570951 0.027504 0)
(-0.0622998 0.027679 0)
(-0.0700304 0.0300223 0)
(-0.0828 0.0345253 0)
(-0.103226 0.0364098 0)
(-0.132222 0.0223694 0)
(-0.14886 -0.053665 0)
(-0.145114 -0.213099 0)
(-0.0216235 -0.383741 0)
(-0.00152375 0.0464598 0)
(-0.00979757 0.0589461 0)
(-0.0219603 0.0581226 0)
(-0.028483 0.053332 0)
(-0.034605 0.049511 0)
(-0.0391419 0.0459662 0)
(-0.0427508 0.0425843 0)
(-0.0457074 0.039287 0)
(-0.04818 0.0361677 0)
(-0.0502463 0.0333447 0)
(-0.0519547 0.0312069 0)
(-0.0533524 0.0302604 0)
(-0.0547324 0.0317124 0)
(-0.056508 0.0365224 0)
(-0.0607984 0.0459142 0)
(-0.0664341 0.0509814 0)
(-0.0860836 0.0370652 0)
(-0.089514 -0.0595851 0)
(-0.0963167 -0.265433 0)
(-0.0034523 -0.463195 0)
(-0.0113158 0.0367733 0)
(-0.025831 0.0823808 0)
(-0.0270807 0.0791369 0)
(-0.0349332 0.0733219 0)
(-0.0384784 0.0656218 0)
(-0.0405323 0.0584416 0)
(-0.0411055 0.0520381 0)
(-0.0407487 0.0463605 0)
(-0.0397542 0.0414277 0)
(-0.0381406 0.0371709 0)
(-0.0361451 0.0338464 0)
(-0.0332737 0.0320193 0)
(-0.0299001 0.0329578 0)
(-0.0237391 0.0377219 0)
(-0.0184107 0.0495049 0)
(-1.64846e-05 0.0573789 0)
(0.00430022 0.0503154 0)
(0.0364993 -0.0446615 0)
(0.000610858 -0.278964 0)
(0.0363814 -0.493928 0)
(-0.0752964 0.0999341 0)
(-0.0601703 0.0631865 0)
(-0.0612709 0.0615595 0)
(-0.0411251 0.054569 0)
(-0.0243916 0.0473071 0)
(-0.0060533 0.0415617 0)
(0.0109891 0.0370509 0)
(0.0271763 0.0329875 0)
(0.0415722 0.02966 0)
(0.0555008 0.0262802 0)
(0.0673923 0.0239154 0)
(0.0800918 0.0215712 0)
(0.090107 0.0211938 0)
(0.107995 0.021237 0)
(0.114914 0.0225618 0)
(0.160005 0.0209257 0)
(0.159486 -0.00442578 0)
(0.219037 -0.0625071 0)
(0.157647 -0.25688 0)
(0.125526 -0.443862 0)
(0.120498 0.14027 0)
(0.154329 0.0867292 0)
(0.233692 0.0645938 0)
(0.289298 0.0494824 0)
(0.332787 0.0389312 0)
(0.370967 0.0311764 0)
(0.401528 0.0257306 0)
(0.431837 0.0215244 0)
(0.452419 0.0181521 0)
(0.47914 0.0158864 0)
(0.490637 0.0130069 0)
(0.517525 0.0121737 0)
(0.519298 0.00966146 0)
(0.55135 0.00944907 0)
(0.541014 0.00816021 0)
(0.580118 0.0038799 0)
(0.549441 -0.00264717 0)
(0.568097 -0.0301103 0)
(0.436436 -0.0818154 0)
(0.277964 -0.15547 0)
)
;

boundaryField
{
    movingWall
    {
        type            fixedValue;
        value           uniform (1 0 0);
    }
    fixedWalls
    {
        type            noSlip;
    }
    frontAndBack
    {
        type            empty;
    }
}


// ************************************************************************* //
