/*--------------------------------*- C++ -*----------------------------------*\
  =========                 |
  \\      /  F ield         | OpenFOAM: The Open Source CFD Toolbox
   \\    /   O peration     | Website:  https://openfoam.org
    \\  /    A nd           | Version:  10
     \\/     M anipulation  |
\*---------------------------------------------------------------------------*/
FoamFile
{
    format      ascii;
    class       volVectorField;
    location    "2.075";
    object      U;
}
// * * * * * * * * * * * * * * * * * * * * * * * * * * * * * * * * * * * * * //

dimensions      [0 1 -1 0 0 0 0];

internalField   nonuniform List<vector> 
8000
(
(-0.000205244 0.000208103 -5.6765e-06)
(-0.000821313 0.000304446 1.17055e-05)
(-0.00159734 0.000305564 1.52431e-05)
(-0.00231017 0.000288629 1.64185e-05)
(-0.00297629 0.000264244 1.56808e-05)
(-0.0035751 0.000233645 1.3802e-05)
(-0.00409079 0.000197269 1.11676e-05)
(-0.00450973 0.000155568 7.94034e-06)
(-0.00481974 0.000109095 4.20208e-06)
(-0.00501037 5.85414e-05 -1.34492e-08)
(-0.00507307 4.97486e-06 -4.48544e-06)
(-0.0050015 -5.12598e-05 -9.17932e-06)
(-0.0047922 -0.00010832 -1.39793e-05)
(-0.0044454 -0.000164654 -1.87053e-05)
(-0.00396554 -0.000218381 -2.30966e-05)
(-0.00336191 -0.000267351 -2.67664e-05)
(-0.00265012 -0.000309166 -2.90314e-05)
(-0.00185663 -0.000340414 -2.87416e-05)
(-0.000971437 -0.000347745 -2.50138e-05)
(-0.000249554 -0.000244816 -4.23916e-06)
(-0.00030956 0.000837792 -2.61947e-05)
(-0.00118222 0.00116906 -8.63093e-06)
(-0.00224972 0.00116842 -3.87031e-06)
(-0.00323262 0.0011011 -8.91901e-07)
(-0.00414815 0.00100449 4.12895e-07)
(-0.00496825 0.00088382 8.1081e-07)
(-0.00567139 0.000741313 6.49672e-07)
(-0.00623936 0.000579197 4.0591e-08)
(-0.00665619 0.00039997 -9.7077e-07)
(-0.00690822 0.000206455 -2.3664e-06)
(-0.00698547 1.76667e-06 -4.2087e-06)
(-0.00687991 -0.000210101 -6.16937e-06)
(-0.006587 -0.000423994 -8.43305e-06)
(-0.00610817 -0.000634201 -1.08252e-05)
(-0.00544973 -0.000833898 -1.31037e-05)
(-0.00462437 -0.0010153 -1.48844e-05)
(-0.00365313 -0.00116967 -1.54295e-05)
(-0.00257093 -0.00128447 -1.3512e-05)
(-0.00136872 -0.00131296 -8.44339e-06)
(-0.00036485 -0.000960226 1.39298e-05)
(-0.000333776 0.00167121 -3.3456e-05)
(-0.00127364 0.0022815 -1.55776e-05)
(-0.00242144 0.00227488 -1.03636e-05)
(-0.00347681 0.00214128 -6.77643e-06)
(-0.00445951 0.00195039 -4.81778e-06)
(-0.00533988 0.00171269 -3.70653e-06)
(-0.00609528 0.00143298 -3.08527e-06)
(-0.00670664 0.00111599 -2.86376e-06)
(-0.00715726 0.00076681 -3.03021e-06)
(-0.00743314 0.00039104 -3.59159e-06)
(-0.00752268 -5.18702e-06 -4.5309e-06)
(-0.00741663 -0.000414328 -5.79756e-06)
(-0.0071101 -0.000827104 -7.39929e-06)
(-0.0066032 -0.00123261 -9.19858e-06)
(-0.00590116 -0.00161795 -1.09597e-05)
(-0.00501613 -0.00196827 -1.22872e-05)
(-0.00396953 -0.00226677 -1.23937e-05)
(-0.00279856 -0.00248921 -9.95724e-06)
(-0.00149259 -0.00254817 -4.31803e-06)
(-0.000398527 -0.00189901 1.93179e-05)
(-0.000353688 0.00252243 -3.94592e-05)
(-0.00135285 0.00342349 -2.09578e-05)
(-0.00257435 0.0034101 -1.53559e-05)
(-0.0036965 0.00320852 -1.12923e-05)
(-0.00474184 0.00292177 -8.87633e-06)
(-0.00567939 0.00256554 -7.29215e-06)
(-0.00648582 0.00214725 -6.1726e-06)
(-0.00714155 0.00167401 -5.43659e-06)
(-0.00762932 0.00115331 -5.08689e-06)
(-0.0079342 0.000593201 -5.15511e-06)
(-0.00804416 2.84179e-06 -5.70699e-06)
(-0.00794809 -0.000607662 -6.52852e-06)
(-0.0076383 -0.00122535 -7.77492e-06)
(-0.00711295 -0.00183429 -9.29607e-06)
(-0.00637493 -0.00241539 -1.08483e-05)
(-0.00543438 -0.00294626 -1.20062e-05)
(-0.00431191 -0.003401 -1.19041e-05)
(-0.00304695 -0.00374219 -9.073e-06)
(-0.00162771 -0.00383843 -2.82395e-06)
(-0.000434838 -0.00287768 2.27851e-05)
(-0.000380762 0.00343818 -4.54352e-05)
(-0.00145947 0.00465333 -2.58428e-05)
(-0.00277955 0.00463237 -1.98099e-05)
(-0.00399122 0.00435778 -1.53059e-05)
(-0.00512031 0.00396865 -1.2528e-05)
(-0.0061342 0.00348652 -1.06116e-05)
(-0.00700883 0.00292167 -9.17213e-06)
(-0.00772424 0.00228373 -8.12998e-06)
(-0.00826273 0.00158245 -7.49236e-06)
(-0.00860861 0.00082799 -7.28359e-06)
(-0.00874825 3.14177e-05 -7.49831e-06)
(-0.00866862 -0.000794105 -8.33642e-06)
(-0.00835906 -0.00163291 -9.54611e-06)
(-0.00781358 -0.00246459 -1.10779e-05)
(-0.00703111 -0.00326369 -1.27031e-05)
(-0.00601818 -0.00399937 -1.39505e-05)
(-0.00479338 -0.00463478 -1.38326e-05)
(-0.00339852 -0.005116 -1.06468e-05)
(-0.0018206 -0.00526089 -3.5912e-06)
(-0.00048734 -0.00395943 2.51365e-05)
(-0.000416709 0.00443875 -5.24452e-05)
(-0.00160027 0.00599841 -3.13025e-05)
(-0.00304963 0.00596858 -2.47432e-05)
(-0.00437812 0.00561404 -1.97348e-05)
(-0.00561581 0.00511376 -1.65758e-05)
(-0.00672816 0.00449606 -1.43405e-05)
(-0.0076905 0.00377456 -1.2623e-05)
(-0.00848277 0.00296153 -1.13432e-05)
(-0.00908712 0.00206882 -1.05106e-05)
(-0.0094873 0.00110817 -1.01383e-05)
(-0.00966825 9.20212e-05 -1.01455e-05)
(-0.00961432 -0.0009653 -1.11761e-05)
(-0.00931055 -0.00204584 -1.2544e-05)
(-0.00874534 -0.00312559 -1.43113e-05)
(-0.00791125 -0.00417295 -1.62621e-05)
(-0.00680855 -0.00514766 -1.78647e-05)
(-0.00545133 -0.00599938 -1.79507e-05)
(-0.00388316 -0.00665278 -1.44644e-05)
(-0.00208902 -0.00686457 -6.38417e-06)
(-0.000561183 -0.00518445 2.68515e-05)
(-0.00046256 0.0055478 -6.1352e-05)
(-0.00177948 0.00749036 -3.82287e-05)
(-0.00339241 0.00744928 -3.09961e-05)
(-0.00486733 0.00700508 -2.53226e-05)
(-0.00623998 0.00638179 -2.16535e-05)
(-0.00747368 0.00561591 -1.89975e-05)
(-0.00854357 0.00472511 -1.693e-05)
(-0.0094302 0.0037246 -1.53749e-05)
(-0.0101163 0.00262807 -1.43512e-05)
(-0.0105856 0.0014481 -1.38823e-05)
(-0.0108219 0.00019721 -1.39488e-05)
(-0.0108067 -0.00111032 -1.51017e-05)
(-0.0105195 -0.00245658 -1.67615e-05)
(-0.00994086 -0.00381552 -1.89939e-05)
(-0.00905352 -0.00515034 -2.15773e-05)
(-0.00784728 -0.00641061 -2.39071e-05)
(-0.00632725 -0.00752934 -2.45553e-05)
(-0.00453626 -0.00840276 -2.09369e-05)
(-0.00245526 -0.00871062 -1.16264e-05)
(-0.000663211 -0.00660408 2.78562e-05)
(-0.000519772 0.00679367 -7.29983e-05)
(-0.00200277 0.00916688 -4.745e-05)
(-0.00381804 0.00911006 -3.93222e-05)
(-0.00547167 0.00856239 -3.27049e-05)
(-0.00700693 0.00779989 -2.82718e-05)
(-0.00838505 0.00686927 -2.4973e-05)
(-0.00958193 0.00579344 -2.23767e-05)
(-0.0105799 0.00459098 -2.04198e-05)
(-0.0113637 0.0032772 -1.91427e-05)
(-0.0119183 0.00186453 -1.86162e-05)
(-0.0122268 0.000363859 -1.89512e-05)
(-0.0122682 -0.00121302 -2.01874e-05)
(-0.0120158 -0.00285117 -2.22945e-05)
(-0.0114392 -0.00452556 -2.53083e-05)
(-0.0105067 -0.00619668 -2.89897e-05)
(-0.00919094 -0.00780441 -3.26556e-05)
(-0.00748027 -0.00926165 -3.45334e-05)
(-0.00541053 -0.0104266 -3.12474e-05)
(-0.00295423 -0.0108776 -2.06063e-05)
(-0.000804804 -0.00828728 2.73681e-05)
(-0.00059066 0.0082103 -8.85043e-05)
(-0.00227859 0.0110723 -6.00338e-05)
(-0.00434107 0.0109916 -5.06519e-05)
(-0.00620887 0.0103205 -4.26178e-05)
(-0.00793542 0.00939644 -3.69709e-05)
(-0.00948039 0.00827929 -3.26308e-05)
(-0.010822 0.00699892 -2.918e-05)
(-0.0119466 0.00557805 -2.65774e-05)
(-0.0128429 0.00403336 -2.48827e-05)
(-0.0134991 0.0023759 -2.41936e-05)
(-0.0138996 0.000612652 -2.46412e-05)
(-0.0140218 -0.00125051 -2.62993e-05)
(-0.0138322 -0.003206 -2.91773e-05)
(-0.0132865 -0.00523499 -3.34677e-05)
(-0.0123328 -0.00730044 -3.89981e-05)
(-0.0109166 -0.00933584 -4.50274e-05)
(-0.00899611 -0.0112317 -4.93899e-05)
(-0.00658645 -0.0127958 -4.75606e-05)
(-0.00364293 -0.0134673 -3.58124e-05)
(-0.00100595 -0.0103298 2.31988e-05)
(-0.000679072 0.00984005 -0.000109584)
(-0.00261995 0.0132606 -7.75721e-05)
(-0.00498284 0.0131413 -6.63019e-05)
(-0.007104 0.0123175 -5.6024e-05)
(-0.00905089 0.0112005 -4.83742e-05)
(-0.0107829 0.00986771 -4.23067e-05)
(-0.0122834 0.00835845 -3.74523e-05)
(-0.0135457 0.00670068 -3.37969e-05)
(-0.0145661 0.00491222 -3.14095e-05)
(-0.0153392 0.00300126 -3.04021e-05)
(-0.0158534 0.000968043 -3.09453e-05)
(-0.016087 -0.00119179 -3.32405e-05)
(-0.0160005 -0.00348438 -3.72897e-05)
(-0.0155338 -0.00590528 -4.35677e-05)
(-0.0146081 -0.00842944 -5.21159e-05)
(-0.0131277 -0.0109927 -6.22553e-05)
(-0.0109996 -0.0134657 -7.1405e-05)
(-0.00818908 -0.0155936 -7.35595e-05)
(-0.00461785 -0.0166141 -6.1662e-05)
(-0.0013037 -0.0128725 1.11761e-05)
(-0.00079179 0.0117387 -0.000139061)
(-0.00304764 0.0157997 -0.0001026)
(-0.0057754 0.0156158 -8.82316e-05)
(-0.00819327 0.014595 -7.42141e-05)
(-0.0103884 0.0132403 -6.31662e-05)
(-0.0123228 0.0116524 -5.42064e-05)
(-0.0139894 0.00988347 -4.7054e-05)
(-0.0153931 0.00796802 -4.17083e-05)
(-0.0165426 0.005925 -3.82134e-05)
(-0.0174436 0.00375803 -3.66686e-05)
(-0.0180929 0.00145733 -3.72939e-05)
(-0.0184745 -0.000997025 -4.04127e-05)
(-0.0185459 -0.00363292 -4.60846e-05)
(-0.0182317 -0.00647243 -5.52864e-05)
(-0.0174208 -0.00951847 -6.85545e-05)
(-0.0159601 -0.0127275 -8.56337e-05)
(-0.0136728 -0.0159647 -0.000103719)
(-0.0104164 -0.0189097 -0.000115283)
(-0.00604993 -0.0204965 -0.000105977)
(-0.00177095 -0.0161367 -1.90284e-05)
(-0.000941521 0.0139849 -0.00018187)
(-0.00359634 0.0187778 -0.000139313)
(-0.00676814 0.0184834 -0.000119402)
(-0.00952999 0.0171979 -9.88529e-05)
(-0.011997 0.0155407 -8.19134e-05)
(-0.0141402 0.0136435 -6.81016e-05)
(-0.0159682 0.0115751 -5.72403e-05)
(-0.0175046 0.0093785 -4.92673e-05)
(-0.0187765 0.00707351 -4.4087e-05)
(-0.0198072 0.00465744 -4.16815e-05)
(-0.0206087 0.00210704 -4.22719e-05)
(-0.0211776 -0.000618797 -4.63296e-05)
(-0.0214761 -0.00357897 -5.40757e-05)
(-0.0214195 -0.00683808 -6.72374e-05)
(-0.0208639 -0.0104518 -8.73847e-05)
(-0.0195833 -0.0144309 -0.00011553)
(-0.0172797 -0.0186713 -0.000149665)
(-0.0135876 -0.022822 -0.000181666)
(-0.00825836 -0.0253468 -0.000181508)
(-0.00256137 -0.0204887 -8.8719e-05)
(-0.00115386 0.0167015 -0.000247261)
(-0.00432671 0.0223175 -0.000195067)
(-0.00803862 0.0218294 -0.000164322)
(-0.0111939 0.0201725 -0.000131811)
(-0.0139467 0.0181181 -0.000104457)
(-0.016289 0.0158361 -8.25484e-05)
(-0.0182547 0.0134165 -6.5872e-05)
(-0.019895 0.010912 -5.40345e-05)
(-0.021264 0.00834239 -4.64895e-05)
(-0.0224103 0.00569704 -4.28332e-05)
(-0.0233694 0.00293571 -4.31748e-05)
(-0.0241607 -9.89528e-06 -4.81337e-05)
(-0.0247654 -0.00323142 -5.79875e-05)
(-0.0251047 -0.00686109 -7.55998e-05)
(-0.0250144 -0.0110395 -0.000104426)
(-0.024192 -0.015888 -0.000148286)
(-0.0221927 -0.0214094 -0.000208888)
(-0.0182222 -0.0273446 -0.000282963)
(-0.0118585 -0.0314337 -0.000309332)
(-0.00400754 -0.0265906 -0.000253925)
(-0.00148463 0.0200213 -0.000351196)
(-0.00535485 0.0265534 -0.000280541)
(-0.00971458 0.0257445 -0.000228578)
(-0.0133069 0.023557 -0.000173917)
(-0.0163375 0.0209695 -0.000128071)
(-0.0188422 0.0181988 -9.29163e-05)
(-0.0208924 0.0153613 -6.75656e-05)
(-0.0225787 0.0125182 -5.05286e-05)
(-0.0239913 0.00968746 -4.00817e-05)
(-0.0252137 0.00684841 -3.48281e-05)
(-0.0263155 0.00394336 -3.42149e-05)
(-0.0273444 0.000876631 -3.79151e-05)
(-0.0283271 -0.00248507 -5.04974e-05)
(-0.0292273 -0.0063565 -7.11682e-05)
(-0.0298912 -0.0109966 -0.000107224)
(-0.0299702 -0.0167241 -0.000167737)
(-0.0289077 -0.0237836 -0.000265489)
(-0.0251475 -0.0323065 -0.000419056)
(-0.0180836 -0.0389298 -0.000519804)
(-0.00689012 -0.0357618 -0.000638457)
(-0.00200709 0.0246713 -0.000553383)
(-0.00682453 0.0318604 -0.000426999)
(-0.0119693 0.030398 -0.000323388)
(-0.0160422 0.0273853 -0.000222621)
(-0.0193084 0.0240585 -0.000142729)
(-0.0218965 0.0206564 -8.64098e-05)
(-0.0239339 0.0173169 -4.91047e-05)
(-0.0255668 0.0141026 -2.62324e-05)
(-0.026931 0.0110229 -1.3237e-05)
(-0.028151 0.0080425 -6.82143e-06)
(-0.0293371 0.0050848 -5.48794e-06)
(-0.0305842 0.0020226 -7.98991e-06)
(-0.0319925 -0.00133264 -2.11661e-05)
(-0.0336087 -0.00521778 -3.54623e-05)
(-0.0353732 -0.0100508 -6.62071e-05)
(-0.036993 -0.0164654 -0.000126896)
(-0.0379843 -0.0250706 -0.000252723)
(-0.0355427 -0.0370873 -0.000519928)
(-0.0293226 -0.047541 -0.00076727)
(-0.0130094 -0.0503833 -0.00146346)
(-0.00334907 0.0291968 -0.000816949)
(-0.00966904 0.0380059 -0.000648564)
(-0.0152796 0.0357551 -0.000443279)
(-0.0197246 0.0316522 -0.000261561)
(-0.0230629 0.0273177 -0.000119526)
(-0.0255721 0.0230758 -2.9386e-05)
(-0.0274275 0.0191224 2.18684e-05)
(-0.0288467 0.0155061 4.63585e-05)
(-0.030018 0.012208 5.62597e-05)
(-0.0311108 0.00916954 5.91668e-05)
(-0.0322863 0.00630826 5.90142e-05)
(-0.0337038 0.00351312 5.74781e-05)
(-0.035498 0.000613247 6.47399e-05)
(-0.0378604 -0.00271332 9.23956e-05)
(-0.0410281 -0.00700679 0.000112077)
(-0.0448704 -0.0134139 0.000133234)
(-0.049531 -0.0228145 0.000107031)
(-0.0503215 -0.0400423 -0.00021286)
(-0.0486819 -0.0565661 -0.000544005)
(-0.0246418 -0.0755736 -0.00262543)
(-0.00375614 0.0423933 -0.00160359)
(-0.0118105 0.0453805 -0.000915991)
(-0.0195019 0.0413421 -0.000537795)
(-0.024526 0.035115 -0.000156106)
(-0.0277794 0.0295886 7.4848e-05)
(-0.0298998 0.0246049 0.000181985)
(-0.0312212 0.0201954 0.000221458)
(-0.0321113 0.0163158 0.000223768)
(-0.0328149 0.0129128 0.000211667)
(-0.0335194 0.00991475 0.00019856)
(-0.0343844 0.0072281 0.000194795)
(-0.0355877 0.00471078 0.00020897)
(-0.0374285 0.00218274 0.000258582)
(-0.0402938 -0.000775114 0.000347902)
(-0.0448953 -0.00456267 0.000506439)
(-0.0511547 -0.0108992 0.000854505)
(-0.0621147 -0.0206487 0.00136853)
(-0.0681053 -0.0430458 0.00154592)
(-0.0759704 -0.0698546 0.00155875)
(-0.0378129 -0.120198 -0.00311855)
(-0.0127678 0.0436002 -0.00262682)
(-0.0265355 0.0602645 -0.00218528)
(-0.0267378 0.0520329 -0.00100652)
(-0.0308816 0.0432261 -0.000236076)
(-0.0317286 0.0348892 0.000283913)
(-0.0320016 0.027629 0.000512771)
(-0.0317774 0.0217442 0.000583266)
(-0.0313779 0.0170651 0.000565647)
(-0.0309941 0.0133478 0.000514051)
(-0.0308008 0.0103826 0.000458643)
(-0.0309957 0.00803552 0.00042128)
(-0.0317787 0.00618689 0.000417033)
(-0.0335222 0.00486039 0.000491826)
(-0.0364522 0.0039158 0.000696723)
(-0.0419126 0.00391608 0.00126843)
(-0.0488067 0.00131534 0.00232751)
(-0.0635311 -0.00169107 0.00443152)
(-0.0689408 -0.0332808 0.00601382)
(-0.0881956 -0.0724618 0.00691559)
(-0.0280717 -0.185721 -0.00372631)
(-0.0460136 0.102605 -0.00573909)
(-0.0354438 0.054013 -0.00107805)
(-0.0298989 0.0447476 0.000500297)
(-0.0193615 0.0342778 0.00187345)
(-0.0102031 0.0257105 0.00229961)
(-0.00257466 0.0197672 0.00220518)
(0.00379623 0.0154812 0.00191751)
(0.00885983 0.0121895 0.00157214)
(0.0127742 0.00962617 0.00127194)
(0.01576 0.0076319 0.00103662)
(0.0179268 0.00615891 0.000889773)
(0.0195458 0.00503666 0.000822826)
(0.0202903 0.00452108 0.00092642)
(0.0215734 0.00391942 0.00124894)
(0.0193958 0.00383429 0.00214036)
(0.0231853 -0.000403551 0.0039299)
(0.00764719 -0.0110512 0.00725818)
(0.0220395 -0.052837 0.0110525)
(-0.0323432 -0.134344 0.00910916)
(0.0208952 -0.259964 -0.0105543)
(0.120226 0.113552 -0.00797798)
(0.147524 0.0609549 -0.00644544)
(0.217537 0.0400712 -0.00442715)
(0.255809 0.027044 -0.00198222)
(0.280448 0.0179604 -0.000225204)
(0.297437 0.0120146 0.000728075)
(0.309263 0.00835695 0.00113773)
(0.317555 0.00608606 0.00122405)
(0.323512 0.00460649 0.00114737)
(0.328111 0.00355371 0.000975366)
(0.331348 0.00282482 0.000875844)
(0.334622 0.00220148 0.000665936)
(0.33537 0.00167403 0.000821396)
(0.339671 0.0014734 0.000602624)
(0.334382 -0.000323032 0.00140179)
(0.343487 -0.000181209 0.00193512)
(0.316202 -0.00836921 0.00354089)
(0.324906 -0.013881 0.00671222)
(0.203045 -0.0509212 -0.00207033)
(0.173283 -0.121171 -0.0290576)
(-0.000288342 0.000287735 -1.27061e-05)
(-0.00114491 0.000433381 9.36564e-06)
(-0.00221484 0.000435978 1.50313e-05)
(-0.00319105 0.000410654 1.76075e-05)
(-0.00409796 0.000374282 1.74013e-05)
(-0.00490871 0.000328975 1.54133e-05)
(-0.0056028 0.000275489 1.21843e-05)
(-0.00616249 0.000214609 7.96052e-06)
(-0.00657219 0.000147264 2.89765e-06)
(-0.00681856 7.45849e-05 -2.86877e-06)
(-0.00689122 -2.16392e-06 -9.24729e-06)
(-0.00678296 -8.18694e-05 -1.6039e-05)
(-0.00649026 -0.000162356 -2.29986e-05)
(-0.00601437 -0.000241426 -2.98176e-05)
(-0.00536193 -0.000316509 -3.60588e-05)
(-0.00454557 -0.000384705 -4.10966e-05)
(-0.00358543 -0.000442763 -4.39142e-05)
(-0.00251486 -0.000485722 -4.29433e-05)
(-0.00131714 -0.000492688 -3.72381e-05)
(-0.000338425 -0.000335265 -9.06983e-06)
(-0.000449173 0.00115402 -4.13913e-05)
(-0.00169644 0.00165319 -1.88935e-05)
(-0.00320626 0.0016556 -1.13755e-05)
(-0.00458898 0.00155622 -6.17083e-06)
(-0.00586951 0.00141397 -3.50345e-06)
(-0.00701014 0.0012374 -2.36133e-06)
(-0.00798202 0.00103017 -2.22868e-06)
(-0.00876077 0.000795875 -2.9244e-06)
(-0.0093254 0.000538435 -4.37447e-06)
(-0.00965855 0.000262202 -6.5415e-06)
(-0.00974753 -2.83025e-05 -9.48953e-06)
(-0.00958328 -0.000327224 -1.27579e-05)
(-0.00916174 -0.000627493 -1.64682e-05)
(-0.00848596 -0.000921214 -2.03077e-05)
(-0.00756576 -0.00119911 -2.38428e-05)
(-0.00641903 -0.0014507 -2.64242e-05)
(-0.00507392 -0.00166418 -2.69336e-05)
(-0.00357562 -0.00182142 -2.36804e-05)
(-0.0019087 -0.0018498 -1.60261e-05)
(-0.000510928 -0.00131243 1.4192e-05)
(-0.000487712 0.00229465 -5.28351e-05)
(-0.0018387 0.00321191 -3.02148e-05)
(-0.00347032 0.00320861 -2.19707e-05)
(-0.00496251 0.00301279 -1.57246e-05)
(-0.00634359 0.00273367 -1.19571e-05)
(-0.00757343 0.00238809 -9.64029e-06)
(-0.00862161 0.00198383 -8.258e-06)
(-0.00946257 0.00152832 -7.65849e-06)
(-0.0100744 0.0010294 -7.80633e-06)
(-0.0104391 0.000495479 -8.69658e-06)
(-0.0105423 -6.43525e-05 -1.02957e-05)
(-0.0103737 -0.000639391 -1.2485e-05)
(-0.0099284 -0.00121667 -1.5198e-05)
(-0.0092082 -0.00178122 -1.81601e-05)
(-0.00822178 -0.00231556 -2.09379e-05)
(-0.00698656 -0.00279976 -2.28562e-05)
(-0.00553135 -0.00321111 -2.27154e-05)
(-0.00390443 -0.00351477 -1.86856e-05)
(-0.00208807 -0.00357563 -1.01927e-05)
(-0.000560031 -0.00258903 2.15435e-05)
(-0.000518537 0.00345494 -6.31561e-05)
(-0.00195805 0.0048069 -4.0074e-05)
(-0.00369746 0.00479668 -3.11605e-05)
(-0.00528659 0.00450182 -2.4047e-05)
(-0.00675754 0.0040834 -1.94005e-05)
(-0.00806833 0.00356663 -1.61739e-05)
(-0.0091876 0.00296336 -1.38532e-05)
(-0.0100892 0.00228478 -1.23082e-05)
(-0.0107507 0.00154242 -1.15304e-05)
(-0.011153 0.000748407 -1.1551e-05)
(-0.0112811 -8.38783e-05 -1.24356e-05)
(-0.0111224 -0.000940115 -1.38845e-05)
(-0.0106688 -0.00180188 -1.60169e-05)
(-0.00991952 -0.00264745 -1.85398e-05)
(-0.00888035 -0.00345103 -2.1001e-05)
(-0.00756617 -0.0041826 -2.26687e-05)
(-0.0060049 -0.00480727 -2.22158e-05)
(-0.00424762 -0.00527145 -1.75937e-05)
(-0.00227467 -0.00537275 -8.21208e-06)
(-0.00061014 -0.00391363 2.60234e-05)
(-0.00056005 0.00470089 -7.38927e-05)
(-0.00211738 0.00652139 -4.97725e-05)
(-0.00399997 0.0065028 -4.00722e-05)
(-0.00571799 0.0061011 -3.20682e-05)
(-0.00730809 0.00553347 -2.66182e-05)
(-0.00872602 0.00483441 -2.26293e-05)
(-0.00993954 0.00402033 -1.95772e-05)
(-0.0109221 0.00310635 -1.73442e-05)
(-0.0116509 0.00210756 -1.59357e-05)
(-0.0121059 0.0010393 -1.5384e-05)
(-0.0122708 -8.19158e-05 -1.56954e-05)
(-0.01213 -0.00123818 -1.70251e-05)
(-0.0116715 -0.00240648 -1.90617e-05)
(-0.0108898 -0.00355908 -2.16145e-05)
(-0.00978556 -0.00466163 -2.42322e-05)
(-0.00836907 -0.00567281 -2.60972e-05)
(-0.00666567 -0.00654309 -2.5682e-05)
(-0.00472943 -0.00719561 -2.05892e-05)
(-0.00253865 -0.00735073 -1.00966e-05)
(-0.000681776 -0.00537418 2.82534e-05)
(-0.000615185 0.00606148 -8.66429e-05)
(-0.00232784 0.00839491 -6.09478e-05)
(-0.00439816 0.00836551 -5.02519e-05)
(-0.00628425 0.007846 -4.11665e-05)
(-0.00802866 0.0071155 -3.47872e-05)
(-0.00958447 0.00621925 -2.99642e-05)
(-0.0109188 0.00517897 -2.61624e-05)
(-0.0120053 0.00401399 -2.32775e-05)
(-0.0128211 0.0027427 -2.13295e-05)
(-0.0133458 0.00138297 -2.03524e-05)
(-0.0135619 -4.66965e-05 -2.03224e-05)
(-0.01345 -0.00152597 -2.17778e-05)
(-0.0129925 -0.00302909 -2.40522e-05)
(-0.0121772 -0.00452312 -2.70411e-05)
(-0.0109966 -0.00596539 -3.02866e-05)
(-0.00945282 -0.00730195 -3.28545e-05)
(-0.00756559 -0.00846516 -3.29216e-05)
(-0.00539106 -0.00934822 -2.75569e-05)
(-0.00290424 -0.00957901 -1.5745e-05)
(-0.000781882 -0.0070255 2.86215e-05)
(-0.000685767 0.00756967 -0.000102865)
(-0.00259639 0.0104721 -7.51287e-05)
(-0.00490451 0.0104275 -6.31159e-05)
(-0.00700144 0.00977479 -5.25702e-05)
(-0.00893751 0.00886284 -4.49212e-05)
(-0.010663 0.00774981 -3.89707e-05)
(-0.0121451 0.00646388 -3.41869e-05)
(-0.0133588 0.00502903 -3.04908e-05)
(-0.0142822 0.00346663 -2.79271e-05)
(-0.0148956 0.001796 -2.65318e-05)
(-0.01518 3.58065e-05 -2.62009e-05)
(-0.0151127 -0.00179248 -2.80316e-05)
(-0.0146689 -0.00366379 -3.08404e-05)
(-0.0138264 -0.00554199 -3.47079e-05)
(-0.012565 -0.00737713 -3.91773e-05)
(-0.0108735 -0.0091016 -4.31743e-05)
(-0.00875996 -0.0106254 -4.44537e-05)
(-0.00627939 -0.0118019 -3.92754e-05)
(-0.00340069 -0.0121438 -2.60487e-05)
(-0.000919269 -0.00893711 2.66542e-05)
(-0.00077433 0.00926428 -0.000124115)
(-0.0029323 0.0128052 -9.38871e-05)
(-0.00553517 0.0127376 -8.00596e-05)
(-0.00788968 0.0119299 -6.74164e-05)
(-0.0100567 0.0108112 -5.7884e-05)
(-0.0119837 0.00945581 -5.02518e-05)
(-0.0136398 0.00790003 -4.40232e-05)
(-0.0150028 0.00617321 -3.9167e-05)
(-0.0160543 0.00429934 -3.57764e-05)
(-0.0167768 0.0022978 -3.39729e-05)
(-0.0171505 0.000185267 -3.3928e-05)
(-0.0171498 -0.00202006 -3.57432e-05)
(-0.0167422 -0.00429663 -3.9324e-05)
(-0.0158907 -0.0066094 -4.46434e-05)
(-0.0145568 -0.00890429 -5.12116e-05)
(-0.012707 -0.0111004 -5.78005e-05)
(-0.0103277 -0.0130805 -6.16003e-05)
(-0.00746431 -0.0146451 -5.76513e-05)
(-0.00407385 -0.015156 -4.32058e-05)
(-0.00110859 -0.0112024 2.07594e-05)
(-0.00088479 0.0111912 -0.000152494)
(-0.00334914 0.015455 -0.000119283)
(-0.006313 0.0153507 -0.000102829)
(-0.00897661 0.0143569 -8.70284e-05)
(-0.0114151 0.012997 -7.45724e-05)
(-0.0135746 0.0113659 -6.43201e-05)
(-0.015428 0.00951054 -5.58646e-05)
(-0.0169597 0.0074667 -4.92425e-05)
(-0.0181579 0.00526053 -4.45908e-05)
(-0.0190099 0.0029096 -4.2079e-05)
(-0.019498 0.000425401 -4.1919e-05)
(-0.0195947 -0.00218242 -4.42414e-05)
(-0.0192584 -0.00490129 -4.90972e-05)
(-0.0184342 -0.00770413 -5.67066e-05)
(-0.0170567 -0.0105394 -6.67066e-05)
(-0.0150574 -0.0133168 -7.77789e-05)
(-0.0123835 -0.0158884 -8.64563e-05)
(-0.00905297 -0.0179843 -8.5993e-05)
(-0.00499917 -0.0187608 -7.12132e-05)
(-0.00137602 -0.0139515 7.80215e-06)
(-0.00102343 0.0134069 -0.000191166)
(-0.00386743 0.0184942 -0.000154332)
(-0.00727104 0.0183297 -0.000133845)
(-0.0103008 0.0171048 -0.000113087)
(-0.0130518 0.0154562 -9.59557e-05)
(-0.0154708 0.0135056 -8.15415e-05)
(-0.0175393 0.0113142 -6.9606e-05)
(-0.0192531 0.00892564 -6.02651e-05)
(-0.0206118 0.00636758 -5.36734e-05)
(-0.0216123 0.00365335 -5.00112e-05)
(-0.0222427 0.000784835 -4.95346e-05)
(-0.0224767 -0.00224245 -5.25654e-05)
(-0.0222641 -0.0054342 -5.92358e-05)
(-0.0215291 -0.00878207 -7.02307e-05)
(-0.0201704 -0.0122494 -8.55967e-05)
(-0.018066 -0.0157474 -0.00010419)
(-0.0150961 -0.0190999 -0.000121907)
(-0.0112131 -0.0219481 -0.000129671)
(-0.00630523 -0.0231535 -0.000117091)
(-0.0017702 -0.0173789 -1.96058e-05)
(-0.00120083 0.0159845 -0.0002452)
(-0.00451907 0.022013 -0.000203686)
(-0.00845808 0.0217479 -0.000176599)
(-0.0119168 0.0202255 -0.000147748)
(-0.0150191 0.0182218 -0.000122977)
(-0.0177172 0.0158937 -0.000101897)
(-0.0200084 0.0133216 -8.45347e-05)
(-0.0219068 0.0105582 -7.10564e-05)
(-0.0234306 0.00763219 -6.15506e-05)
(-0.024593 0.00454971 -5.61246e-05)
(-0.0253941 0.00129783 -5.5049e-05)
(-0.0258141 -0.00214982 -5.88104e-05)
(-0.0257983 -0.00582854 -6.775e-05)
(-0.0252497 -0.0097651 -8.33676e-05)
(-0.0240232 -0.0139588 -0.000106656)
(-0.0219211 -0.0183461 -0.000137363)
(-0.0187147 -0.0227398 -0.000171261)
(-0.0142134 -0.0266852 -0.000196914)
(-0.00822457 -0.0286004 -0.000192649)
(-0.00238979 -0.0217959 -7.73034e-05)
(-0.00143577 0.0190238 -0.00032313)
(-0.00535542 0.0261254 -0.000274745)
(-0.00994745 0.0256911 -0.000236175)
(-0.0139033 0.0237723 -0.000193643)
(-0.0173889 0.0213199 -0.000156177)
(-0.0203718 0.0185371 -0.000124403)
(-0.0228755 0.0155285 -9.86786e-05)
(-0.0249431 0.0123583 -7.90745e-05)
(-0.0266208 0.00905477 -6.53721e-05)
(-0.0279471 0.00561325 -5.73729e-05)
(-0.0289426 0.00200037 -5.518e-05)
(-0.0296035 -0.00184089 -5.93803e-05)
(-0.0298797 -0.00598875 -7.07041e-05)
(-0.0296596 -0.0105271 -9.18707e-05)
(-0.0287528 -0.0155245 -0.000125813)
(-0.0268645 -0.0209871 -0.000174763)
(-0.0236066 -0.0267648 -0.000236317)
(-0.0184943 -0.0323458 -0.000298712)
(-0.0112002 -0.0354635 -0.000316523)
(-0.00344697 -0.027742 -0.000199262)
(-0.00176386 0.0226766 -0.000440185)
(-0.00646229 0.0309866 -0.000379868)
(-0.011851 0.0302628 -0.000320003)
(-0.0163747 0.0277962 -0.000253513)
(-0.0202603 0.0247626 -0.000194638)
(-0.0235096 0.0214213 -0.000145789)
(-0.0261878 0.0179077 -0.00010749)
(-0.0283811 0.0142974 -7.92351e-05)
(-0.0301761 0.0106163 -5.99094e-05)
(-0.0316478 0.00684515 -4.84892e-05)
(-0.0328487 0.00292426 -4.44697e-05)
(-0.0338036 -0.00124249 -4.83285e-05)
(-0.0344849 -0.00578661 -6.10033e-05)
(-0.0347857 -0.0108776 -8.69083e-05)
(-0.0344849 -0.0166989 -0.000132522)
(-0.0331854 -0.0234022 -0.000205506)
(-0.0303037 -0.0309794 -0.000310392)
(-0.0247919 -0.0390168 -0.000444282)
(-0.0161238 -0.0441977 -0.000516844)
(-0.00542809 -0.0362419 -0.000465615)
(-0.00225876 0.0270685 -0.000621453)
(-0.0079979 0.0367463 -0.00053645)
(-0.0143478 0.035562 -0.000437078)
(-0.0195003 0.0323325 -0.00032828)
(-0.0237701 0.028535 -0.000233195)
(-0.0272277 0.0244988 -0.000157519)
(-0.0299998 0.0203966 -0.000101098)
(-0.0322346 0.0163132 -6.15853e-05)
(-0.034073 0.0122675 -3.5712e-05)
(-0.0356389 0.00822169 -2.05086e-05)
(-0.0370301 0.00408657 -1.3591e-05)
(-0.038314 -0.000276729 -1.3622e-05)
(-0.0395144 -0.00506498 -2.57718e-05)
(-0.0405713 -0.0105518 -5.09474e-05)
(-0.0412785 -0.0170897 -0.000102284)
(-0.0411786 -0.0250912 -0.000196989)
(-0.0395358 -0.0348789 -0.000358913)
(-0.0343204 -0.0465255 -0.000620139)
(-0.0248334 -0.0551506 -0.000825417)
(-0.00950612 -0.0494309 -0.00104884)
(-0.00298625 0.033166 -0.000951469)
(-0.0101063 0.0438788 -0.000790181)
(-0.0176594 0.0417896 -0.000604258)
(-0.023508 0.0374051 -0.0004138)
(-0.0280997 0.0325817 -0.000255986)
(-0.031648 0.0276741 -0.000139104)
(-0.0343719 0.0228851 -5.83545e-05)
(-0.0365075 0.0182981 -6.48721e-06)
(-0.0382638 0.0139166 2.49151e-05)
(-0.0398237 0.00967774 4.31296e-05)
(-0.0413408 0.00546005 5.3266e-05)
(-0.042947 0.00107463 5.91524e-05)
(-0.0447496 -0.00373353 5.37612e-05)
(-0.0467968 -0.00929922 4.67383e-05)
(-0.0490077 -0.0162106 1.48953e-05)
(-0.0509995 -0.0252776 -6.8907e-05)
(-0.052122 -0.0373418 -0.000267674)
(-0.0487982 -0.053944 -0.000703537)
(-0.040813 -0.0679686 -0.00115984)
(-0.0182656 -0.0713483 -0.0022502)
(-0.00486803 0.0386189 -0.00138316)
(-0.0141534 0.0520744 -0.00116638)
(-0.0224286 0.0489011 -0.000818054)
(-0.0288206 0.0430787 -0.000489897)
(-0.0334993 0.0368832 -0.000223609)
(-0.036912 0.0308276 -4.30921e-05)
(-0.0393526 0.0252083 6.67532e-05)
(-0.0411678 0.0200859 0.000125844)
(-0.0426446 0.0154213 0.000155224)
(-0.0440324 0.0111138 0.000170118)
(-0.0455542 0.0070281 0.00018043)
(-0.0474101 0.00298432 0.000192578)
(-0.0497665 -0.00126922 0.000223342)
(-0.0528915 -0.00621672 0.000285095)
(-0.0570404 -0.0125897 0.000344425)
(-0.062044 -0.021793 0.000395505)
(-0.0680898 -0.0352073 0.000351595)
(-0.0691436 -0.0588586 -0.000146688)
(-0.0674671 -0.0819725 -0.000808625)
(-0.0331433 -0.110485 -0.00392493)
(-0.00495001 0.0550364 -0.00250792)
(-0.0164473 0.0609313 -0.00159343)
(-0.0283565 0.0558314 -0.000997951)
(-0.0356039 0.0473866 -0.000363588)
(-0.0402442 0.0397893 4.79344e-05)
(-0.0431003 0.0328321 0.000273829)
(-0.0447488 0.0266511 0.000380749)
(-0.0457807 0.0212086 0.000415264)
(-0.0465731 0.0164316 0.000416814)
(-0.0474069 0.0122033 0.000411474)
(-0.048511 0.00837369 0.000421033)
(-0.0501227 0.00472497 0.0004645)
(-0.0526302 0.000993582 0.000571557)
(-0.056503 -0.00338538 0.000758396)
(-0.0624654 -0.00886275 0.00106706)
(-0.0704722 -0.0176902 0.0016216)
(-0.0839951 -0.0311414 0.00234491)
(-0.0902587 -0.0618233 0.00249989)
(-0.0989598 -0.100772 0.0021329)
(-0.0408443 -0.177995 -0.00485166)
(-0.0142493 0.0528934 -0.00397439)
(-0.0346538 0.0817319 -0.00344279)
(-0.0377176 0.0708952 -0.00176386)
(-0.0448103 0.0591716 -0.000564393)
(-0.0463088 0.0476805 0.000287821)
(-0.0465396 0.0375418 0.000717261)
(-0.0458044 0.0292895 0.000893056)
(-0.0447752 0.0226918 0.000915654)
(-0.0438107 0.0174489 0.000870893)
(-0.0431922 0.0132493 0.000811892)
(-0.0431909 0.00988971 0.000780086)
(-0.0440358 0.00717163 0.000806702)
(-0.0461771 0.00512319 0.000964438)
(-0.0497079 0.00357186 0.00133181)
(-0.0561865 0.00314392 0.00221766)
(-0.0634413 -0.000423338 0.00374473)
(-0.0791809 -0.0058698 0.0066031)
(-0.0779798 -0.0477853 0.00864707)
(-0.097013 -0.109026 0.00932006)
(-0.00817754 -0.260666 -0.00617374)
(-0.0687994 0.119273 -0.00771214)
(-0.0552705 0.0700808 -0.00193363)
(-0.0521953 0.0607867 0.000146255)
(-0.0369404 0.0474317 0.00214141)
(-0.0226834 0.0359676 0.0029046)
(-0.00996745 0.02766 0.00296248)
(0.000992373 0.0215161 0.00270366)
(0.00989371 0.0167565 0.00230931)
(0.0168905 0.013044 0.00194016)
(0.0222785 0.0101457 0.00163679)
(0.0262091 0.00801059 0.00145133)
(0.0292582 0.00631133 0.00138423)
(0.0308879 0.00553005 0.00157632)
(0.0335887 0.00451408 0.00208922)
(0.0321216 0.00460401 0.00341492)
(0.0407785 -0.000581151 0.00594034)
(0.0273391 -0.0126796 0.0104352)
(0.0608852 -0.063455 0.0154187)
(0.00388309 -0.17121 0.0129856)
(0.0704082 -0.321233 -0.014231)
(0.127096 0.142289 -0.0107734)
(0.162817 0.0852744 -0.00904041)
(0.242354 0.0598523 -0.0066309)
(0.29278 0.0427671 -0.0034647)
(0.328513 0.0300334 -0.000951709)
(0.355347 0.0208731 0.000592619)
(0.375636 0.014636 0.00140438)
(0.390882 0.0104911 0.00171105)
(0.402235 0.00772197 0.00172732)
(0.411229 0.00575443 0.00154157)
(0.417328 0.00445155 0.00143992)
(0.424009 0.00336914 0.00112603)
(0.424928 0.00251998 0.00138095)
(0.434409 0.00234446 0.00106028)
(0.425088 -2.8076e-05 0.00210695)
(0.445322 0.00111919 0.00296264)
(0.410389 -0.00804637 0.00447484)
(0.432858 -0.0126972 0.00852016)