/*--------------------------------*- C++ -*----------------------------------*\
  =========                 |
  \\      /  F ield         | OpenFOAM: The Open Source CFD Toolbox
   \\    /   O peration     | Website:  https://openfoam.org
    \\  /    A nd           | Version:  10
     \\/     M anipulation  |
\*---------------------------------------------------------------------------*/
FoamFile
{
    format      ascii;
    class       surfaceScalarField;
    location    "6.15";
    object      phi;
}
// * * * * * * * * * * * * * * * * * * * * * * * * * * * * * * * * * * * * * //

dimensions      [0 3 -1 0 0 0 0];

internalField   nonuniform List<scalar> 
760
(
-9.42549e-06
9.42553e-06
-3.10856e-05
2.16601e-05
-5.68175e-05
2.57319e-05
-8.32843e-05
2.64668e-05
-0.0001094
2.61159e-05
-0.000134726
2.53258e-05
-0.000158836
2.41104e-05
-0.000181143
2.23063e-05
-0.000200846
1.97033e-05
-0.000216918
1.6072e-05
-0.000228101
1.1183e-05
-0.000232939
4.83823e-06
-0.000229865
-3.07437e-06
-0.000217391
-1.24736e-05
-0.000194424
-2.29675e-05
-0.00016069
-3.37333e-05
-0.000117457
-4.3233e-05
-6.87059e-05
-4.87514e-05
-2.32522e-05
-4.54537e-05
-2.32522e-05
-2.28182e-05
3.22437e-05
-6.47867e-05
6.36286e-05
-0.000112878
7.38228e-05
-0.000161707
7.52963e-05
-0.000209222
7.36306e-05
-0.000254362
7.0466e-05
-0.000296182
6.59299e-05
-0.000333586
5.97106e-05
-0.000365249
5.13668e-05
-0.000389583
4.04056e-05
-0.000404711
2.6311e-05
-0.000408611
8.73797e-06
-0.00039918
-1.25053e-05
-0.000374377
-3.72763e-05
-0.000332882
-6.44632e-05
-0.000274605
-9.201e-05
-0.000201706
-0.000116132
-0.000120391
-0.000130067
-4.38635e-05
-0.000121981
-6.71156e-05
-2.84508e-05
6.06945e-05
-7.91609e-05
0.000114339
-0.000136602
0.000131264
-0.00019452
0.000133215
-0.000250576
0.000129687
-0.000303562
0.000123451
-0.000352413
0.000114781
-0.000395935
0.000103233
-0.0004327
8.81312e-05
-0.000460995
6.87007e-05
-0.000478835
4.41514e-05
-0.000483939
1.38424e-05
-0.000473656
-2.27891e-05
-0.000445574
-6.53581e-05
-0.000397793
-0.000112244
-0.000329736
-0.000160067
-0.000243444
-0.000202424
-0.000146011
-0.0002275
-5.34406e-05
-0.000214551
-0.000120556
-3.05855e-05
9.12801e-05
-8.51745e-05
0.000168928
-0.000146833
0.000192923
-0.000208935
0.000195316
-0.000269126
0.000189878
-0.00032626
0.000180586
-0.000379354
0.000167875
-0.000427292
0.00015117
-0.000468706
0.000129546
-0.000501882
0.000101877
-0.000524685
6.69544e-05
-0.000534546
2.37034e-05
-0.000528343
-2.89929e-05
-0.00050253
-9.11711e-05
-0.000453938
-0.000160835
-0.000380579
-0.000233426
-0.000283695
-0.000299307
-0.000171139
-0.000340056
-6.24386e-05
-0.000323252
-0.000182995
-3.16738e-05
0.000122954
-8.87623e-05
0.000226016
-0.000153333
0.000257493
-0.000218517
0.0002605
-0.00028203
0.00025339
-0.000342886
0.000241442
-0.00040029
0.00022528
-0.000453319
0.000204199
-0.000500771
0.000176998
-0.000541014
0.000142119
-0.000571805
9.77456e-05
-0.000590138
4.20365e-05
-0.000592194
-2.69371e-05
-0.000572885
-0.000110481
-0.000526937
-0.000206783
-0.000449832
-0.000310532
-0.000340679
-0.00040846
-0.000207701
-0.000473034
-7.57938e-05
-0.00045516
-0.000258789
-3.26576e-05
0.000155612
-9.21905e-05
0.000285549
-0.000159716
0.000325019
-0.000228114
0.000328898
-0.000295204
0.00032048
-0.000360228
0.000306466
-0.000422673
0.000287725
-0.000481929
0.000263455
-0.000537099
0.000232168
-0.000586788
0.000191808
-0.000628807
0.000139764
-0.00065979
7.30195e-05
-0.000675157
-1.15702e-05
-0.00066778
-0.000117858
-0.000629294
-0.000245269
-0.000550933
-0.000388893
-0.000427473
-0.00053192
-0.000265671
-0.000634836
-9.79403e-05
-0.00062289
-0.000356729
-3.37875e-05
0.000189399
-9.60843e-05
0.000347846
-0.000166924
0.000395859
-0.000238885
0.000400859
-0.000309912
0.000391507
-0.000379545
0.000376099
-0.00044766
0.000355841
-0.000514114
0.000329909
-0.000578528
0.000296582
-0.000640015
0.000253296
-0.00069677
0.000196519
-0.000745446
0.000121695
-0.00078075
2.37334e-05
-0.000793703
-0.000104904
-0.000771606
-0.000267366
-0.000699152
-0.000461347
-0.000562691
-0.000668381
-0.000362285
-0.000835242
-0.000137861
-0.000847314
-0.00049459
-3.51036e-05
0.000224503
-0.000100552
0.000413295
-0.000175059
0.000470366
-0.000250819
0.000476619
-0.000325927
0.000466614
-0.000400286
0.000450458
-0.000474285
0.000429839
-0.000548434
0.000404058
-0.000623162
0.000371311
-0.000698518
0.000328652
-0.000773663
0.000271665
-0.000846047
0.000194079
-0.00090992
8.76069e-05
-0.000956049
-5.87757e-05
-0.000966837
-0.000256577
-0.000917971
-0.000510213
-0.000780707
-0.000805644
-0.000535579
-0.00108037
-0.0002184
-0.00116449
-0.000712989
-3.66406e-05
0.000261143
-0.000105655
0.000482309
-0.000184099
0.00054881
-0.000263685
0.000556204
-0.000342666
0.000545595
-0.000421376
0.000529168
-0.000500826
0.000509288
-0.000582379
0.000485611
-0.000667602
0.000456534
-0.000758013
0.000419063
-0.000854577
0.000368229
-0.000956762
0.000296264
-0.0010608
0.000191643
-0.00115884
3.92626e-05
-0.00123131
-0.000184101
-0.00124485
-0.000496675
-0.00114585
-0.000904646
-0.000865158
-0.00136106
-0.000392724
-0.00163693
-0.00110571
-3.85212e-05
0.000299665
-0.00011161
0.000555398
-0.000194194
0.000631395
-0.000277389
0.000639399
-0.000359617
0.000627824
-0.000441681
0.000611232
-0.000525291
0.000592898
-0.000612815
0.000573135
-0.000707275
0.000550994
-0.00081229
0.000524078
-0.000931796
0.000487735
-0.00106931
0.000433783
-0.00122634
0.000348668
-0.00139885
0.000211776
-0.00158034
-2.61225e-06
-0.00172865
-0.000348367
-0.00175044
-0.000882856
-0.00146193
-0.00164957
-0.000734333
-0.00236452
-0.00184005
-4.10379e-05
0.000340702
-0.000118949
0.000633308
-0.000205866
0.000718313
-0.000292207
0.00072574
-0.000376588
0.000712204
-0.000460303
0.000694946
-0.000545762
0.000678358
-0.000636346
0.000663719
-0.000736633
0.000651281
-0.00085275
0.000640194
-0.000992717
0.000627702
-0.00116658
0.000607641
-0.00138613
0.000568227
-0.00166414
0.00048978
-0.00200456
0.000337811
-0.00238387
3.09409e-05
-0.00261441
-0.000652318
-0.00230821
-0.00195577
-0.00122383
-0.0034489
-0.00306388
-4.47815e-05
0.000385484
-0.000128735
0.000717261
-0.000220239
0.000809817
-0.000309018
0.000814519
-0.000393974
0.000797161
-0.000476907
0.000777879
-0.000560833
0.000762284
-0.000649936
0.000752822
-0.000750121
0.000751465
-0.000869904
0.000759977
-0.00102174
0.000779536
-0.00122397
0.000809877
-0.00150349
0.000847744
-0.00189635
0.000882638
-0.0024301
0.000871561
-0.00303297
0.000633816
-0.00341318
-0.000272112
-0.00301404
-0.00235491
-0.00168509
-0.00477785
-0.00474897
-5.07748e-05
0.000436259
-0.000142734
0.000809221
-0.000239265
0.000906348
-0.00032964
0.000904893
-0.000413146
0.000880667
-0.000492146
0.00085688
-0.000570149
0.000840286
-0.000651576
0.00083425
-0.000742772
0.000842661
-0.000853475
0.00087068
-0.000999169
0.00092523
-0.0012049
0.00101561
-0.0015098
0.00115264
-0.00196101
0.00133385
-0.00257631
0.00148686
-0.00322351
0.00128101
-0.00353456
3.89353e-05
-0.00310705
-0.00278242
-0.00190539
-0.00597951
-0.00665435
-6.18518e-05
0.000498111
-0.000165117
0.000912486
-0.000266353
0.00100758
-0.000356054
0.000994594
-0.000435406
0.000960019
-0.000507414
0.000928887
-0.000575087
0.00090796
-0.000642317
0.00090148
-0.000714598
0.000914942
-0.000800453
0.000956535
-0.000913938
0.00103872
-0.00107765
0.00117933
-0.00132582
0.0014008
-0.00168815
0.00169618
-0.00215445
0.00195316
-0.00258494
0.00171151
-0.00279417
0.000248166
-0.00257324
-0.00300336
-0.00178288
-0.00676987
-0.00843723
-7.53037e-05
0.000573414
-0.000193358
0.00103054
-0.000302798
0.00111702
-0.000395034
0.00108683
-0.000469582
0.00103457
-0.000530714
0.000990019
-0.000582162
0.000959409
-0.000626974
0.000946292
-0.000667982
0.000955949
-0.000708944
0.000997497
-0.000756509
0.00108628
-0.000819697
0.00124252
-0.000913817
0.00149492
-0.00103826
0.00182063
-0.00119393
0.00210882
-0.00130478
0.00182236
-0.00141058
0.000353963
-0.00152002
-0.00289392
-0.00125267
-0.00703721
-0.00968991
-0.000142171
0.000715586
-0.000274653
0.00116302
-0.000372298
0.00121467
-0.000444026
0.00115856
-0.00050106
0.0010916
-0.00054727
0.00103623
-0.000582858
0.000994996
-0.00060621
0.000969644
-0.000615063
0.000964803
-0.000605561
0.000987994
-0.000573203
0.00105392
-0.000509825
0.00117914
-0.000408123
0.00139322
-0.000246921
0.00165942
-3.34544e-05
0.00189536
0.000130142
0.00165877
0.000142218
0.000341886
-0.000322495
-0.00242921
-0.000581952
-0.00677776
-0.0102719
-9.30449e-05
0.00080863
-0.000289289
0.00135927
-0.00042971
0.00135509
-0.00052228
0.00125113
-0.000579527
0.00114885
-0.000611277
0.00106798
-0.000621739
0.00100546
-0.000610971
0.000958875
-0.000575711
0.000929543
-0.000506577
0.00091886
-0.00039089
0.000938236
-0.000206115
0.000994364
7.49386e-05
0.00111217
0.00046342
0.00127094
0.00094926
0.00140952
0.00137404
0.00123399
0.00141831
0.000297615
0.000750535
-0.00176144
0.000127457
-0.00615468
-0.0101444
-0.000386949
0.00119558
-0.000467524
0.00143984
-0.000546462
0.00143403
-0.000617366
0.00132203
-0.000643118
0.0011746
-0.000630136
0.001055
-0.000584786
0.000960109
-0.000507589
0.000881677
-0.000400486
0.00082244
-0.000255797
0.000774172
-6.54878e-05
0.000747927
0.000188632
0.000740245
0.000531152
0.000769646
0.000978706
0.000823389
0.00152416
0.000864068
0.00200707
0.000751081
0.00228601
1.86764e-05
0.00189866
-0.00137409
0.00101013
-0.00526615
-0.00913427
-0.00135683
0.00255241
-0.00132275
0.00140576
-0.00107646
0.00118774
-0.000720025
0.000965597
-0.000341413
0.000795987
4.10473e-05
0.000672537
0.0004145
0.000586657
0.000776837
0.00051934
0.00112921
0.000470065
0.00147452
0.000428863
0.00182169
0.000400761
0.00217995
0.00038198
0.00257806
0.00037154
0.00302988
0.000371569
0.00357527
0.000318672
0.00411494
0.000211411
0.00437549
-0.00024187
0.004208
-0.0012066
0.00263192
-0.00369007
-0.00650235
0.00255241
0.00395817
0.00514591
0.00611151
0.00690749
0.00758003
0.00816669
0.00868603
0.00915609
0.00958496
0.00998572
0.0103677
0.0107392
0.0111108
0.0114295
0.0116409
0.011399
0.0101924
0.00650235
)
;

boundaryField
{
    movingWall
    {
        type            calculated;
        value           uniform 0;
    }
    fixedWalls
    {
        type            calculated;
        value           uniform 0;
    }
    frontAndBack
    {
        type            empty;
        value           nonuniform List<scalar> 0();
    }
}


// ************************************************************************* //
