/*--------------------------------*- C++ -*----------------------------------*\
  =========                 |
  \\      /  F ield         | OpenFOAM: The Open Source CFD Toolbox
   \\    /   O peration     | Website:  https://openfoam.org
    \\  /    A nd           | Version:  10
     \\/     M anipulation  |
\*---------------------------------------------------------------------------*/
FoamFile
{
    format      ascii;
    class       surfaceScalarField;
    location    "4.175";
    object      phi;
}
// * * * * * * * * * * * * * * * * * * * * * * * * * * * * * * * * * * * * * //

dimensions      [0 3 -1 0 0 0 0];

internalField   nonuniform List<scalar> 
22800
(
-2.37424e-06
2.67701e-06
-3.0889e-07
-7.6634e-06
5.17791e-06
1.1125e-07
-1.36468e-05
5.72188e-06
2.61571e-07
-1.96791e-05
5.6982e-06
3.34041e-07
-2.55147e-05
5.50137e-06
3.34202e-07
-3.10087e-05
5.20543e-06
2.88632e-07
-3.6025e-05
4.80579e-06
2.10451e-07
-4.04109e-05
4.2832e-06
1.02711e-07
-4.39944e-05
3.6167e-06
-3.31736e-08
-4.65924e-05
2.78714e-06
-1.89094e-07
-4.79979e-05
1.78469e-06
-3.79246e-07
-4.80073e-05
6.13311e-07
-6.03912e-07
-4.64251e-05
-7.417e-07
-8.40535e-07
-4.31171e-05
-2.21975e-06
-1.0882e-06
-3.80215e-05
-3.76627e-06
-1.32937e-06
-3.11992e-05
-5.28478e-06
-1.53745e-06
-2.29012e-05
-6.63156e-06
-1.66652e-06
-1.36993e-05
-7.55312e-06
-1.6487e-06
-4.83318e-06
-7.4258e-06
-1.44036e-06
-4.25214e-06
-5.81031e-07
-4.84506e-06
8.54293e-06
-1.02086e-06
-1.37503e-05
1.47261e-05
-6.42916e-07
-2.3558e-05
1.60038e-05
-4.74248e-07
-3.3332e-05
1.58137e-05
-3.4151e-07
-4.26849e-05
1.51268e-05
-2.72604e-07
-5.13697e-05
1.41348e-05
-2.44588e-07
-5.91633e-05
1.2843e-05
-2.43536e-07
-6.58333e-05
1.12212e-05
-2.68021e-07
-7.11308e-05
9.23459e-06
-3.20367e-07
-7.47906e-05
6.85076e-06
-4.03824e-07
-7.65297e-05
4.04485e-06
-5.21072e-07
-7.61026e-05
8.57094e-07
-6.70914e-07
-7.32522e-05
-2.73977e-06
-8.52342e-07
-6.77981e-05
-6.62488e-06
-1.04891e-06
-5.96849e-05
-1.06329e-05
-1.24654e-06
-4.90264e-05
-1.45283e-05
-1.41502e-06
-3.62002e-05
-1.79595e-05
-1.49837e-06
-2.20325e-05
-2.03009e-05
-1.41981e-06
-8.27256e-06
-2.00408e-05
-1.145e-06
-1.2358e-05
-1.66699e-07
-5.58295e-06
1.54713e-05
-1.34544e-06
-1.56565e-05
2.5797e-05
-9.97282e-07
-2.66807e-05
2.78472e-05
-8.19258e-07
-3.76306e-05
2.74231e-05
-6.59496e-07
-4.80916e-05
2.6148e-05
-5.6019e-07
-5.78008e-05
2.43418e-05
-4.97777e-07
-6.65196e-05
2.20218e-05
-4.60049e-07
-7.39997e-05
1.91488e-05
-4.47485e-07
-7.99746e-05
1.56737e-05
-4.64257e-07
-8.4159e-05
1.15509e-05
-5.15735e-07
-8.62609e-05
6.75173e-06
-6.04918e-07
-8.59552e-05
1.28826e-06
-7.36874e-07
-8.29468e-05
-4.84677e-06
-9.01413e-07
-7.70181e-05
-1.14583e-05
-1.09525e-06
-6.80569e-05
-1.82952e-05
-1.29902e-06
-5.61371e-05
-2.49702e-05
-1.47783e-06
-4.16388e-05
-3.08915e-05
-1.56623e-06
-2.54723e-05
-3.49927e-05
-1.4747e-06
-9.6343e-06
-3.47116e-05
-1.16725e-06
-2.19043e-05
-8.79885e-08
-5.86004e-06
2.29426e-05
-1.61128e-06
-1.65034e-05
3.77358e-05
-1.29547e-06
-2.81459e-05
4.06034e-05
-1.1137e-06
-3.97229e-05
3.99359e-05
-9.3575e-07
-5.08174e-05
3.80579e-05
-8.15411e-07
-6.11709e-05
3.54253e-05
-7.29986e-07
-7.05487e-05
3.2068e-05
-6.68374e-07
-7.87023e-05
2.79351e-05
-6.32679e-07
-8.53581e-05
2.2958e-05
-6.28552e-07
-9.02128e-05
1.7068e-05
-6.62417e-07
-9.29339e-05
1.02131e-05
-7.40209e-07
-9.31739e-05
2.39614e-06
-8.67959e-07
-9.05374e-05
-6.43603e-06
-1.04725e-06
-8.46895e-05
-1.60447e-05
-1.26136e-06
-7.54054e-05
-2.60857e-05
-1.49369e-06
-6.26608e-05
-3.60089e-05
-1.70589e-06
-4.67942e-05
-4.49368e-05
-1.82125e-06
-2.87906e-05
-5.12661e-05
-1.73025e-06
-1.09306e-05
-5.11835e-05
-1.38799e-06
-3.26823e-05
-1.52647e-07
-6.10127e-06
3.08998e-05
-1.85585e-06
-1.73073e-05
5.05068e-05
-1.56495e-06
-2.95866e-05
5.42631e-05
-1.38039e-06
-4.18306e-05
5.33691e-05
-1.18917e-06
-5.36224e-05
5.09053e-05
-1.05562e-06
-6.47152e-05
4.74756e-05
-9.57447e-07
-7.48864e-05
4.31236e-05
-8.84431e-07
-8.38948e-05
3.77836e-05
-8.40159e-07
-9.14652e-05
3.13605e-05
-8.32092e-07
-9.72769e-05
2.37484e-05
-8.68776e-07
-0.000100956
1.48508e-05
-9.58105e-07
-0.000102075
4.62068e-06
-1.10619e-06
-0.000100149
-7.03457e-06
-1.32746e-06
-9.46699e-05
-1.9927e-05
-1.59672e-06
-8.52232e-05
-3.36339e-05
-1.89845e-06
-7.15924e-05
-4.74532e-05
-2.18655e-06
-5.39975e-05
-6.01669e-05
-2.3648e-06
-3.35054e-05
-6.9465e-05
-2.29321e-06
-1.28149e-05
-6.99697e-05
-1.90435e-06
-4.50948e-05
-4.02376e-07
-6.40338e-06
3.94277e-05
-2.1246e-06
-1.83038e-05
6.4263e-05
-1.85578e-06
-3.13722e-05
6.90002e-05
-1.66866e-06
-4.44415e-05
6.79038e-05
-1.46538e-06
-5.70965e-05
6.48816e-05
-1.32138e-06
-6.91083e-05
6.07022e-05
-1.21479e-06
-8.02749e-05
5.54267e-05
-1.13651e-06
-9.03725e-05
4.89731e-05
-1.09186e-06
-9.91339e-05
4.12123e-05
-1.09043e-06
-0.000106227
3.19854e-05
-1.14356e-06
-0.000111239
2.11239e-05
-1.26182e-06
-0.00011366
8.49215e-06
-1.45033e-06
-0.000112874
-6.06694e-06
-1.75346e-06
-0.000108133
-2.25479e-05
-2.12009e-06
-9.87393e-05
-4.04827e-05
-2.5447e-06
-8.41562e-05
-5.90645e-05
-2.97175e-06
-6.4353e-05
-7.66951e-05
-3.27504e-06
-4.04245e-05
-9.01312e-05
-3.26227e-06
-1.56671e-05
-9.19081e-05
-2.81896e-06
-5.98584e-05
-9.03524e-07
-6.78071e-06
4.86604e-05
-2.45197e-06
-1.95329e-05
7.92248e-05
-2.20962e-06
-3.35597e-05
8.50466e-05
-2.01953e-06
-4.76204e-05
8.37658e-05
-1.80146e-06
-6.13036e-05
8.02093e-05
-1.64438e-06
-7.44077e-05
7.53339e-05
-1.52752e-06
-8.67635e-05
6.92261e-05
-1.4437e-06
-9.81803e-05
6.17907e-05
-1.40076e-06
-0.000108417
5.28603e-05
-1.41135e-06
-0.00011715
4.22097e-05
-1.49114e-06
-0.000123939
2.95701e-05
-1.65737e-06
-0.000128182
1.46676e-05
-1.93215e-06
-0.000129144
-2.76755e-06
-2.33768e-06
-0.000125753
-2.30795e-05
-2.85986e-06
-0.000116896
-4.58489e-05
-3.49079e-06
-0.000101516
-7.02812e-05
-4.16342e-06
-7.9089e-05
-9.44136e-05
-4.70799e-06
-5.05557e-05
-0.000113821
-4.84303e-06
-2.0026e-05
-0.000118082
-4.3557e-06
-7.80596e-05
-1.82479e-06
-7.23538e-06
5.8761e-05
-2.86516e-06
-2.10037e-05
9.56527e-05
-2.65959e-06
-3.6154e-05
0.000102662
-2.46468e-06
-5.13553e-05
0.000101192
-2.22469e-06
-6.62054e-05
9.71057e-05
-2.04637e-06
-8.05416e-05
9.15815e-05
-1.91143e-06
-9.42446e-05
8.47451e-05
-1.81593e-06
-0.000107179
7.64964e-05
-1.77143e-06
-0.000119157
6.66336e-05
-1.79506e-06
-0.000129898
5.4859e-05
-1.90869e-06
-0.000138968
4.07793e-05
-2.13864e-06
-0.000145706
2.39248e-05
-2.51939e-06
-0.000149254
3.86801e-06
-3.08773e-06
-0.000148181
-2.02936e-05
-3.85895e-06
-0.000140793
-4.8408e-05
-4.82846e-06
-0.000125223
-7.99215e-05
-5.92966e-06
-0.000100032
-0.000112669
-6.93547e-06
-6.55572e-05
-0.000140877
-7.41953e-06
-2.6898e-05
-0.000149792
-6.94912e-06
-0.000101412
-3.54606e-06
-7.77835e-06
6.99347e-05
-3.39537e-06
-2.27396e-05
0.000113857
-3.24317e-06
-3.91724e-05
0.000122133
-3.03881e-06
-5.56385e-05
0.000120421
-2.76334e-06
-7.17525e-05
0.000115768
-2.5479e-06
-8.74068e-05
0.000109615
-2.37897e-06
-0.000102553
0.000102149
-2.25788e-06
-0.000117139
9.32839e-05
-2.20149e-06
-0.00013107
8.27973e-05
-2.23303e-06
-0.000144158
7.03298e-05
-2.38293e-06
-0.000156048
5.53601e-05
-2.69062e-06
-0.00016611
3.71928e-05
-3.20618e-06
-0.000173265
1.50019e-05
-3.97859e-06
-0.000175995
-1.2412e-05
-5.15188e-06
-0.000171717
-4.60145e-05
-6.67096e-06
-0.000157393
-8.57346e-05
-8.51067e-06
-0.000129981
-0.000129692
-1.03892e-05
-8.83215e-05
-0.000170868
-1.16686e-05
-3.83107e-05
-0.000188381
-1.14221e-05
-0.000132731
-6.99106e-06
-8.44297e-06
8.24641e-05
-4.08648e-06
-2.48042e-05
0.00013423
-4.01133e-06
-4.26765e-05
0.000143793
-3.78753e-06
-6.0499e-05
0.000141696
-3.45237e-06
-7.79168e-05
0.000136357
-3.17164e-06
-9.48977e-05
0.000129536
-2.94037e-06
-0.000111489
0.000121508
-2.76801e-06
-0.000127752
0.000112226
-2.6786e-06
-0.000143731
0.00010148
-2.70324e-06
-0.0001594
8.88826e-05
-2.8838e-06
-0.000174576
7.38146e-05
-3.27871e-06
-0.000188773
5.5355e-05
-3.96563e-06
-0.000200947
3.22187e-05
-5.04303e-06
-0.000209522
2.94124e-06
-6.77792e-06
-0.000210972
-3.54377e-05
-9.12657e-06
-0.000200767
-8.37367e-05
-1.22031e-05
-0.000173213
-0.000141546
-1.57e-05
-0.000124028
-0.000201339
-1.87141e-05
-5.85299e-05
-0.000234493
-1.93862e-05
-0.000176972
-1.42889e-05
-9.30692e-06
9.67776e-05
-5.00657e-06
-2.73371e-05
0.0001573
-5.03986e-06
-4.68111e-05
0.000168043
-4.7761e-06
-6.60398e-05
0.000165263
-4.33859e-06
-8.47249e-05
0.000158986
-3.94414e-06
-0.000102936
0.00015135
-3.60237e-06
-0.000120841
0.000142747
-3.3349e-06
-0.000138644
0.000133204
-3.17486e-06
-0.000156573
0.000122571
-3.16246e-06
-0.00017484
0.000110503
-3.35324e-06
-0.00019357
9.63742e-05
-3.82997e-06
-0.000212644
7.91439e-05
-4.71473e-06
-0.000231412
5.71775e-05
-6.19019e-06
-0.000248038
2.80789e-05
-8.51224e-06
-0.000259368
-1.1909e-05
-1.21988e-05
-0.000258543
-6.73055e-05
-1.72559e-05
-0.000236119
-0.000140351
-2.36189e-05
-0.000182073
-0.000225179
-3.02062e-05
-9.74108e-05
-0.000285243
-3.39118e-05
-0.000243945
-3.04381e-05
-1.05351e-05
0.000113581
-6.2686e-06
-3.06157e-05
0.000183827
-6.447e-06
-5.18648e-05
0.000195395
-6.10272e-06
-7.24912e-05
0.000191377
-5.48742e-06
-9.23055e-05
0.000183697
-4.89653e-06
-0.000111517
0.000174925
-4.36423e-06
-0.000130433
0.000165594
-3.92991e-06
-0.000149419
0.000155827
-3.63711e-06
-0.00016891
0.000145597
-3.53483e-06
-0.000189424
0.000134709
-3.69206e-06
-0.000211534
0.000122703
-4.21888e-06
-0.000235747
0.000108652
-5.29564e-06
-0.000262195
9.08285e-05
-7.20251e-06
-0.000289954
6.6164e-05
-1.03265e-05
-0.000316124
2.97088e-05
-1.54476e-05
-0.000333368
-2.67568e-05
-2.33045e-05
-0.000327407
-0.000112091
-3.42221e-05
-0.000278575
-0.000226695
-4.73158e-05
-0.000173111
-0.000331693
-5.90139e-05
-0.000350361
-6.66952e-05
-1.24746e-05
0.000134128
-8.0723e-06
-3.51667e-05
0.000214944
-8.42445e-06
-5.83642e-05
0.000226506
-7.91345e-06
-8.02852e-05
0.000220282
-6.98425e-06
-0.000100951
0.000210422
-6.05879e-06
-0.000120768
0.000199949
-5.20716e-06
-0.000140196
0.000189514
-4.49195e-06
-0.000159742
0.000179341
-3.96724e-06
-0.000180028
0.00016957
-3.68709e-06
-0.000201868
0.000160275
-3.7261e-06
-0.000226353
0.000151398
-4.2097e-06
-0.000254876
0.000142532
-5.357e-06
-0.000289006
0.000132496
-7.53742e-06
-0.000329945
0.000118452
-1.13488e-05
-0.000377009
9.44702e-05
-1.76975e-05
-0.000424832
4.93317e-05
-2.82647e-05
-0.000456746
-3.59483e-05
-4.42284e-05
-0.000435354
-0.000182976
-6.51108e-05
-0.000314098
-0.000363534
-8.94148e-05
-0.000537542
-0.000126917
-1.58874e-05
0.000160826
-1.08107e-05
-4.20257e-05
0.00025249
-1.14075e-05
-6.72327e-05
0.000262328
-1.06151e-05
-9.01287e-05
0.0002523
-9.12165e-06
-0.000111173
0.00023903
-7.56417e-06
-0.000131027
0.000225922
-6.11941e-06
-0.000150273
0.000213665
-4.90498e-06
-0.000169497
0.00020255
-3.98505e-06
-0.000189431
0.000192903
-3.39968e-06
-0.000211091
0.000185141
-3.20571e-06
-0.000236022
0.000179846
-3.5177e-06
-0.000266587
0.000177653
-4.55567e-06
-0.000306339
0.000178954
-6.70591e-06
-0.000359928
0.000182591
-1.05495e-05
-0.000432396
0.000183604
-1.66661e-05
-0.000524102
0.000166073
-2.5035e-05
-0.000621938
9.8292e-05
-3.64045e-05
-0.000663535
-9.17786e-05
-4.96011e-05
-0.000538578
-0.000423752
-6.47388e-05
-0.000922334
-0.000153786
-2.15207e-05
0.00019742
-1.50732e-05
-5.22411e-05
0.000298435
-1.52247e-05
-7.96048e-05
0.000303393
-1.37017e-05
-0.000103396
0.000287206
-1.11153e-05
-0.000124249
0.000268571
-8.68774e-06
-0.000143223
0.000251406
-6.50986e-06
-0.000161196
0.000236313
-4.67532e-06
-0.000178825
0.000223408
-3.22977e-06
-0.000196751
0.000213026
-2.19732e-06
-0.000215833
0.000205824
-1.60053e-06
-0.00023762
0.00020309
-1.45621e-06
-0.000264967
0.000206783
-1.78309e-06
-0.000303405
0.000219932
-2.53969e-06
-0.000362183
0.000244614
-3.24575e-06
-0.000456645
0.000279857
-1.79037e-06
-0.000600829
0.00030243
7.82682e-06
-0.000795813
0.000259644
3.36322e-05
-0.000932782
-4.08024e-05
8.59925e-05
-0.000801962
-0.000689873
0.000135302
-0.00165917
-6.51227e-05
-4.12256e-05
0.000261444
-2.27985e-05
-7.46863e-05
0.000356483
-2.45871e-05
-0.000100435
0.000350585
-2.14429e-05
-0.000120622
0.000324361
-1.6967e-05
-0.000138597
0.000298731
-1.21855e-05
-0.000155435
0.000276153
-7.90848e-06
-0.00017158
0.000256825
-4.36558e-06
-0.000187061
0.000240519
-1.62907e-06
-0.000201975
0.000227606
3.33621e-07
-0.000216496
0.00021878
1.56531e-06
-0.000231738
0.000216074
2.25775e-06
-0.000250003
0.000222284
2.7633e-06
-0.000277676
0.00024339
4.21499e-06
-0.0003263
0.000283369
9.86872e-06
-0.000426248
0.000350539
2.92653e-05
-0.000607114
0.000399747
8.35496e-05
-0.000907566
0.000363182
0.000196914
-0.00114823
-0.000158048
0.000357913
-0.000991422
-0.00126769
0.000421001
-0.00261976
-3.08379e-05
-3.54382e-05
0.000334353
-3.74706e-05
-8.70664e-05
0.000440201
-3.20908e-05
-0.000121695
0.000411456
-2.62433e-05
-0.000146948
0.000366457
-1.68429e-05
-0.000163873
0.000325117
-9.46033e-06
-0.000175975
0.00029161
-3.35544e-06
-0.000185393
0.000264778
1.46548e-06
-0.000193074
0.00024305
5.14824e-06
-0.000199239
0.0002261
7.67176e-06
-0.000203165
0.000213452
9.25428e-06
-0.000204516
0.000207134
1.02913e-05
-0.000202982
0.000209034
1.17165e-05
-0.000203354
0.000227423
1.63389e-05
-0.000214334
0.000262448
3.19012e-05
-0.00028361
0.000343126
7.66887e-05
-0.00045636
0.000388304
0.000184193
-0.000822234
0.000339659
0.000389397
-0.00115079
-0.000418329
0.00058884
-0.000998863
-0.00191737
0.000497755
-0.0033948
-0.000223815
-0.000176705
0.000561983
-5.09252e-05
-0.000186337
0.000506419
-5.65855e-05
-0.000177887
0.000450311
-4.7305e-05
-0.000170543
0.000391541
-3.24284e-05
-0.000158269
0.000329347
-1.65043e-05
-0.000145404
0.000282315
-3.5694e-06
-0.000133776
0.000246988
6.16148e-06
-0.000122619
0.000218981
1.29127e-05
-0.000111532
0.000197757
1.72553e-05
-9.80753e-05
0.000180603
1.93918e-05
-8.12733e-05
0.00017019
2.01419e-05
-5.73268e-05
0.000164791
2.02966e-05
-2.64401e-05
0.000172696
2.38399e-05
3.34762e-06
0.000192222
4.04383e-05
2.51488e-05
0.000234232
8.70931e-05
-4.21411e-05
0.000256393
0.0001992
-0.000245457
0.000143942
0.000399033
-0.000606317
-0.000627056
0.000569586
-0.000691629
-0.00217108
0.000339026
-0.00359306
-0.00049337
-0.000372591
0.00108391
-0.000149338
-0.000269353
0.000497094
-9.3913e-05
-0.000128566
0.000369064
-5.95388e-05
1.93852e-05
0.000269458
-2.58678e-05
0.000153942
0.00019815
-3.36024e-06
0.000270772
0.000151849
1.36357e-05
0.000368209
0.000123187
2.63647e-05
0.000449188
0.000103224
3.47784e-05
0.00051664
9.02653e-05
4.00396e-05
0.00057488
8.04467e-05
4.19157e-05
0.000629309
7.48733e-05
4.08886e-05
0.000685346
7.19419e-05
3.68116e-05
0.000752486
7.22819e-05
3.32749e-05
0.000842154
7.54065e-05
2.71476e-05
0.000957952
7.06688e-05
4.77648e-05
0.00107695
4.49605e-05
9.24341e-05
0.00112902
-7.80382e-05
0.000169906
0.000765416
-0.00059475
0.000331303
0.000143419
-0.00165292
0.000103837
-0.00275646
-0.00069318
0.00122863
-0.000144717
0.00187513
-0.000149404
0.00238583
-0.000141636
0.00277737
-0.000122083
0.00307487
-9.93551e-05
0.00330638
-7.96558e-05
0.00348906
-5.94961e-05
0.00363548
-4.31988e-05
0.00375248
-2.67299e-05
0.00384673
-1.38101e-05
0.00392543
-3.8232e-06
0.00399137
6.0075e-06
0.00405635
7.29315e-06
0.00411604
1.57226e-05
0.00417307
1.36419e-05
0.00419535
2.2673e-05
0.00408266
3.46511e-05
0.00348897
-1.05815e-06
0.0019128
-7.67514e-05
-0.000843666
-4.35235e-06
4.5706e-06
-5.27142e-07
-1.33446e-05
9.33704e-06
-2.33554e-07
-2.33647e-05
1.03649e-05
-8.31897e-08
-3.32565e-05
1.0214e-05
1.18372e-08
-4.26471e-05
9.69372e-06
3.1003e-08
-5.13302e-05
8.96712e-06
4.65268e-09
-5.90953e-05
8.04245e-06
-6.69475e-08
-6.57181e-05
6.89899e-06
-1.73456e-07
-7.0953e-05
5.51712e-06
-3.15399e-07
-7.45302e-05
3.88162e-06
-4.935e-07
-7.61839e-05
1.98148e-06
-7.07009e-07
-7.56558e-05
-1.78343e-07
-9.53713e-07
-7.27083e-05
-2.56524e-06
-1.22272e-06
-6.71794e-05
-5.11469e-06
-1.50243e-06
-5.90146e-05
-7.72166e-06
-1.77253e-06
-4.83167e-05
-1.02336e-05
-2.00169e-06
-3.54276e-05
-1.24143e-05
-2.14134e-06
-2.11437e-05
-1.38035e-05
-2.12911e-06
-7.4846e-06
-1.31759e-05
-1.9236e-06
-6.97727e-06
-1.08837e-06
-9.38544e-06
1.4159e-05
-1.22382e-06
-2.54267e-05
2.57715e-05
-1.03607e-06
-4.28404e-05
2.81606e-05
-8.56376e-07
-5.98704e-05
2.75964e-05
-6.93826e-07
-7.58781e-05
2.6028e-05
-5.99233e-07
-9.04652e-05
2.38651e-05
-5.5544e-07
-0.000103266
2.11511e-05
-5.51274e-07
-0.000113913
1.78645e-05
-5.86311e-07
-0.000122031
1.39778e-05
-6.62969e-07
-0.00012724
9.47097e-06
-7.84287e-07
-0.000129158
4.33039e-06
-9.5232e-07
-0.000127471
-1.3695e-06
-1.16654e-06
-0.000121857
-7.61642e-06
-1.41519e-06
-0.000112138
-1.41974e-05
-1.6848e-06
-9.82962e-05
-2.08599e-05
-1.95053e-06
-8.05442e-05
-2.72276e-05
-2.17309e-06
-5.94408e-05
-3.2725e-05
-2.29097e-06
-3.62059e-05
-3.6228e-05
-2.23024e-06
-1.37654e-05
-3.48128e-05
-1.94849e-06
-1.99937e-05
-9.15673e-07
-1.10454e-05
2.54446e-05
-1.58563e-06
-2.9531e-05
4.47236e-05
-1.46384e-06
-4.94611e-05
4.85456e-05
-1.274e-06
-6.88823e-05
4.74363e-05
-1.07826e-06
-8.70962e-05
4.46285e-05
-9.46756e-07
-0.000103665
4.08e-05
-8.63722e-07
-0.000118189
3.60348e-05
-8.19574e-07
-0.00013027
3.03132e-05
-8.15652e-07
-0.000139501
2.36017e-05
-8.56701e-07
-0.000145473
1.5875e-05
-9.47968e-07
-0.000147791
7.13628e-06
-1.09303e-06
-0.000146026
-2.57686e-06
-1.29395e-06
-0.000139839
-1.31651e-05
-1.54013e-06
-0.000128988
-2.43239e-05
-1.81979e-06
-0.000113393
-3.5648e-05
-2.10574e-06
-9.32289e-05
-4.65169e-05
-2.35283e-06
-6.90705e-05
-5.59608e-05
-2.48881e-06
-4.22728e-05
-6.20746e-05
-2.42581e-06
-1.61947e-05
-5.99417e-05
-2.11651e-06
-3.53097e-05
-9.6672e-07
-1.1764e-05
3.75106e-05
-1.91327e-06
-3.14888e-05
6.50124e-05
-1.85944e-06
-5.27277e-05
7.03361e-05
-1.66532e-06
-7.34304e-05
6.86487e-05
-1.44539e-06
-9.28865e-05
6.45553e-05
-1.28613e-06
-0.000110658
5.90154e-05
-1.17347e-06
-0.000126346
5.2154e-05
-1.09961e-06
-0.000139547
4.39493e-05
-1.06806e-06
-0.000149843
3.43548e-05
-1.08603e-06
-0.000156795
2.33267e-05
-1.16141e-06
-0.000159952
1.08544e-05
-1.30127e-06
-0.000158855
-3.03005e-06
-1.51211e-06
-0.000153
-1.8283e-05
-1.7839e-06
-0.000142011
-3.44703e-05
-2.10453e-06
-0.000125652
-5.10563e-05
-2.44463e-06
-0.000103964
-6.71574e-05
-2.75304e-06
-7.74653e-05
-8.1338e-05
-2.94286e-06
-4.76257e-05
-9.0741e-05
-2.9034e-06
-1.8286e-05
-8.80974e-05
-2.57209e-06
-5.2504e-05
-1.24427e-06
-1.24283e-05
5.03241e-05
-2.24107e-06
-3.33782e-05
8.66519e-05
-2.25456e-06
-5.59506e-05
9.35849e-05
-2.05677e-06
-7.79929e-05
9.13176e-05
-1.81587e-06
-9.87881e-05
8.59296e-05
-1.6347e-06
-0.00011791
7.86809e-05
-1.50084e-06
-0.000134972
6.97399e-05
-1.40828e-06
-0.000149578
5.90777e-05
-1.36303e-06
-0.000161302
4.66222e-05
-1.37521e-06
-0.000169678
3.22901e-05
-1.45619e-06
-0.000174186
1.60215e-05
-1.61687e-06
-0.00017427
-2.1859e-06
-1.86676e-06
-0.000169259
-2.24182e-05
-2.20369e-06
-0.00015855
-4.41614e-05
-2.61391e-06
-0.000141641
-6.67973e-05
-3.06661e-06
-0.000118306
-8.91794e-05
-3.49966e-06
-8.8903e-05
-0.000109304
-3.80204e-06
-5.50298e-05
-0.000123082
-3.82553e-06
-2.12336e-05
-0.000120326
-3.47227e-06
-7.22962e-05
-1.8437e-06
-1.32602e-05
6.40736e-05
-2.61384e-06
-3.5724e-05
0.000109961
-2.70085e-06
-5.99483e-05
0.000118639
-2.49866e-06
-8.36498e-05
0.000115789
-2.2354e-06
-0.000106106
0.000109096
-2.03226e-06
-0.000126911
0.00010015
-1.87885e-06
-0.000145703
8.91675e-05
-1.77151e-06
-0.000162108
7.61096e-05
-1.71941e-06
-0.000175706
6.0866e-05
-1.73639e-06
-0.000186008
4.32871e-05
-1.83848e-06
-0.000192423
2.32174e-05
-2.04255e-06
-0.000194314
6.22924e-07
-2.36811e-06
-0.000190732
-2.49407e-05
-2.81319e-06
-0.000180787
-5.28517e-05
-3.37407e-06
-0.000163561
-8.25496e-05
-4.01853e-06
-0.000138374
-0.000112668
-4.67088e-06
-0.000105233
-0.000140536
-5.18369e-06
-6.5802e-05
-0.00016043
-5.34525e-06
-2.56417e-05
-0.000158319
-4.98547e-06
-9.59531e-05
-2.88836e-06
-1.43075e-05
7.90006e-05
-3.07149e-06
-3.86452e-05
0.000135336
-3.24773e-06
-6.48959e-05
0.000145909
-3.03885e-06
-9.06138e-05
0.000142452
-2.74632e-06
-0.000115073
0.000134425
-2.51393e-06
-0.000137903
0.000123787
-2.33445e-06
-0.000158787
0.000110815
-2.20783e-06
-0.000177392
9.54616e-05
-2.1476e-06
-0.000193334
7.75693e-05
-2.17275e-06
-0.000206129
5.68971e-05
-2.30572e-06
-0.000215149
3.3149e-05
-2.56868e-06
-0.000219561
6.07325e-06
-2.9706e-06
-0.000218296
-2.49308e-05
-3.61279e-06
-0.000209953
-5.96428e-05
-4.41202e-06
-0.000193018
-9.76081e-05
-5.36647e-06
-0.000166065
-0.000137394
-6.39078e-06
-0.000128394
-0.000175627
-7.28719e-06
-8.14932e-05
-0.000204436
-7.738e-06
-3.23186e-05
-0.000204422
-7.42723e-06
-0.00012546
-4.63638e-06
-1.5591e-05
9.53784e-05
-3.65193e-06
-4.21941e-05
0.000163222
-3.94235e-06
-7.08589e-05
0.000175831
-3.72147e-06
-9.8942e-05
0.000171696
-3.38573e-06
-0.000125722
0.000162267
-3.10814e-06
-0.000150882
0.000149922
-2.88669e-06
-0.000174175
0.00013502
-2.72689e-06
-0.000195352
0.000117515
-2.64841e-06
-0.000214101
9.72014e-05
-2.67754e-06
-0.000229995
7.37286e-05
-2.84669e-06
-0.000242403
4.66118e-05
-3.1935e-06
-0.000250378
1.52974e-05
-3.76803e-06
-0.000252668
-2.1113e-05
-4.61598e-06
-0.000247311
-6.30998e-05
-5.75844e-06
-0.000231955
-0.000110597
-7.19614e-06
-0.000203977
-0.000162463
-8.83852e-06
-0.000161333
-0.000214781
-1.04252e-05
-0.000104712
-0.000257004
-1.14719e-05
-4.28192e-05
-0.000261905
-1.13599e-05
-0.00016423
-7.59561e-06
-1.7146e-05
0.000113531
-4.4018e-06
-4.64465e-05
0.000194121
-4.84151e-06
-7.79226e-05
0.000208866
-4.59805e-06
-0.000108697
0.000203902
-4.1947e-06
-0.000138065
0.00019293
-3.84357e-06
-0.00016579
0.00017882
-3.55116e-06
-0.000191736
0.000162039
-3.33137e-06
-0.000215778
0.000142568
-3.21227e-06
-0.000237745
0.000120165
-3.22974e-06
-0.000257338
9.43682e-05
-3.4292e-06
-0.00027402
6.44711e-05
-3.86812e-06
-0.000286845
2.95378e-05
-4.62107e-06
-0.000294419
-1.17508e-05
-5.76729e-06
-0.000294231
-6.1028e-05
-7.41148e-06
-0.000282849
-0.000119067
-9.58347e-06
-0.000255863
-0.000185728
-1.22313e-05
-0.000208814
-0.000257176
-1.5043e-05
-0.000140264
-0.00031992
-1.73032e-05
-6.04657e-05
-0.000335355
-1.77705e-05
-0.000218891
-1.27952e-05
-1.90434e-05
0.000133874
-5.38644e-06
-5.15415e-05
0.000228631
-6.02289e-06
-8.62434e-05
0.000245517
-5.73671e-06
-0.000120002
0.000239433
-5.22469e-06
-0.000152151
0.00022666
-4.75261e-06
-0.000182572
0.000210641
-4.34065e-06
-0.000211283
0.000191997
-4.01504e-06
-0.000238347
0.000170768
-3.81479e-06
-0.000263809
0.000146712
-3.78728e-06
-0.000287613
0.000119282
-3.99356e-06
-0.000309464
8.75591e-05
-4.51573e-06
-0.000328594
5.01699e-05
-5.4674e-06
-0.000343752
5.3637e-06
-6.9994e-06
-0.00035196
-5.02969e-05
-9.30124e-06
-0.000348681
-0.000118942
-1.2531e-05
-0.000327085
-0.00020277
-1.6757e-05
-0.000278723
-0.000299551
-2.16874e-05
-0.000197594
-0.000393412
-2.63512e-05
-9.29741e-05
-0.00043095
-2.84112e-05
-0.000303728
-2.24266e-05
-2.14193e-05
0.000156991
-6.70404e-06
-5.77321e-05
0.000267504
-7.59972e-06
-9.61018e-05
0.000286344
-7.23356e-06
-0.000133087
0.000278623
-6.54443e-06
-0.000168102
0.000263605
-5.87383e-06
-0.000201197
0.000245397
-5.26377e-06
-0.000232598
0.000224821
-4.75835e-06
-0.000262618
0.000202023
-4.40995e-06
-0.00029161
0.000176819
-4.27818e-06
-0.000319896
0.000148655
-4.44014e-06
-0.000347651
0.000116489
-5.00492e-06
-0.00037467
7.85994e-05
-6.12506e-06
-0.000399895
3.23975e-05
-7.99882e-06
-0.000421043
-2.65153e-05
-1.11459e-05
-0.00043258
-0.000103783
-1.58205e-05
-0.000425051
-0.000205193
-2.23625e-05
-0.000384311
-0.000333139
-3.07702e-05
-0.000295856
-0.000472113
-3.99605e-05
-0.000159838
-0.000554672
-4.62063e-05
-0.000452793
-4.12109e-05
-2.45289e-05
0.000183761
-8.50947e-06
-6.54647e-05
0.000311735
-9.74322e-06
-0.000107981
0.000331987
-9.22965e-06
-0.000148356
0.000321761
-8.24916e-06
-0.000186172
0.000303778
-7.25401e-06
-0.000221713
0.000282896
-6.32123e-06
-0.000255471
0.000260169
-5.52052e-06
-0.000288065
0.0002359
-4.91958e-06
-0.000320234
0.000210041
-4.58842e-06
-0.000352821
0.000182167
-4.61673e-06
-0.000386724
0.000151313
-5.13954e-06
-0.000422711
0.000115663
-6.37168e-06
-0.000460885
7.20246e-05
-8.65602e-06
-0.000500353
1.51068e-05
-1.24806e-05
-0.000536577
-6.43248e-05
-1.86817e-05
-0.000558805
-0.000178112
-2.81579e-05
-0.000546487
-0.00033805
-4.16293e-05
-0.000469713
-0.000537794
-5.84087e-05
-0.000298857
-0.000710352
-7.41906e-05
-0.00074028
-7.80656e-05
-2.88539e-05
0.000215598
-1.10557e-05
-7.55056e-05
0.000362679
-1.27161e-05
-0.000122675
0.000383171
-1.19281e-05
-0.000166482
0.000369048
-1.04641e-05
-0.000206815
0.000346997
-8.94383e-06
-0.000244304
0.000322674
-7.49587e-06
-0.000279762
0.00029736
-6.22457e-06
-0.000314137
0.000271522
-5.21392e-06
-0.000348574
0.000245328
-4.53742e-06
-0.000384503
0.000218652
-4.2822e-06
-0.000423755
0.000190939
-4.58349e-06
-0.000468602
0.000160825
-5.67252e-06
-0.000521605
0.000125433
-7.94253e-06
-0.00058476
7.8965e-05
-1.20517e-05
-0.000658797
1.13407e-05
-1.93263e-05
-0.000734904
-9.91943e-05
-3.10746e-05
-0.000788561
-0.000279465
-4.91572e-05
-0.00075881
-0.000558809
-7.38474e-05
-0.000549229
-0.000906712
-0.000102635
-0.00128617
-0.000130254
-3.54956e-05
0.000255082
-1.47986e-05
-8.93966e-05
0.000422208
-1.70353e-05
-0.000141513
0.000440459
-1.57865e-05
-0.000188397
0.000420323
-1.35126e-05
-0.000230648
0.000392776
-1.1093e-05
-0.000269314
0.000363999
-8.77847e-06
-0.000305501
0.000335384
-6.74122e-06
-0.000340439
0.000307556
-5.08139e-06
-0.000375639
0.000280985
-3.85667e-06
-0.000413085
0.000256016
-3.12314e-06
-0.000455601
0.000232908
-2.96976e-06
-0.000507334
0.000211568
-3.56623e-06
-0.000574321
0.000190951
-5.23716e-06
-0.00066445
0.000167043
-8.49885e-06
-0.000785169
0.000129262
-1.38676e-05
-0.000936857
4.95922e-05
-2.21336e-05
-0.00109088
-0.000128578
-3.32694e-05
-0.00112462
-0.000528372
-4.62949e-05
-0.000839965
-0.00118936
-6.67446e-05
-0.00214017
-0.00013975
-4.41325e-05
0.000304463
-2.03223e-05
-0.00010744
0.000492999
-2.27086e-05
-0.000165702
0.000505524
-2.05045e-05
-0.000216188
0.000476501
-1.68074e-05
-0.00025968
0.000440695
-1.31159e-05
-0.000298099
0.000405562
-9.6541e-06
-0.000333266
0.00037248
-6.60411e-06
-0.000366765
0.000341883
-4.05856e-06
-0.000400226
0.0003143
-2.05162e-06
-0.000435695
0.000290472
-5.88279e-07
-0.000476459
0.000271793
4.22877e-07
-0.000528063
0.000260257
1.13215e-06
-0.000600116
0.000258657
1.80634e-06
-0.000707248
0.000267711
3.21888e-06
-0.000867529
0.000279933
7.8196e-06
-0.00108401
0.000252279
2.16258e-05
-0.00131205
7.97829e-05
5.33059e-05
-0.00135621
-0.000508366
0.000110147
-0.000949552
-0.0015913
0.000130582
-0.00308881
-6.60337e-05
-7.5816e-05
0.000386748
-2.92676e-05
-0.000145484
0.000571722
-3.3642e-05
-0.000202408
0.000570743
-2.97384e-05
-0.000249121
0.000530107
-2.38608e-05
-0.000290074
0.000486957
-1.74937e-05
-0.00032678
0.000445901
-1.15404e-05
-0.000360294
0.000407986
-6.35848e-06
-0.000391411
0.000373475
-2.10399e-06
-0.000421308
0.000343306
1.22567e-06
-0.000451554
0.000318496
3.78804e-06
-0.000485151
0.000301741
5.90559e-06
-0.0005271
0.000296696
8.27427e-06
-0.000587792
0.000311004
1.25596e-05
-0.00068164
0.000348669
2.27589e-05
-0.000831527
0.000410118
4.89675e-05
-0.00102648
0.000418996
0.000111784
-0.00124429
0.00025895
0.000235558
-0.00127916
-0.000511154
0.000395569
-0.000826804
-0.00200328
0.000380623
-0.00386986
-7.65935e-05
-5.77214e-05
0.000451655
-4.46555e-05
-0.000159911
0.000686888
-4.50665e-05
-0.000238652
0.000661061
-3.782e-05
-0.000296723
0.000598156
-2.68215e-05
-0.000338915
0.000536874
-1.71856e-05
-0.000370144
0.000482275
-8.50068e-06
-0.000394312
0.000434755
-1.13604e-06
-0.000413486
0.000393271
4.52687e-06
-0.000429456
0.000357986
8.96092e-06
-0.000442735
0.000328578
1.24516e-05
-0.000454439
0.000308144
1.55918e-05
-0.000465544
0.000299681
1.98362e-05
-0.00048196
0.000314869
2.88907e-05
-0.000507624
0.000355167
5.10662e-05
-0.000569028
0.00044262
0.000105591
-0.000655808
0.000466752
0.000223217
-0.000796828
0.000357167
0.0004322
-0.000864558
-0.000477623
0.000623039
-0.000526503
-0.00227365
0.000430072
-0.00435624
-0.00026394
-0.000200703
0.000658871
-5.74383e-05
-0.000259068
0.000755864
-6.71978e-05
-0.00030787
0.000721118
-5.8559e-05
-0.000347229
0.000647864
-4.27772e-05
-0.000363272
0.000561858
-2.54443e-05
-0.000363839
0.000489528
-1.02555e-05
-0.000355077
0.000430042
2.11291e-06
-0.000339501
0.000379337
1.12701e-05
-0.000320497
0.000338209
1.80283e-05
-0.000297372
0.000302265
2.25792e-05
-0.000272081
0.000277035
2.59599e-05
-0.000240031
0.000258394
2.95335e-05
-0.000201668
0.000262197
3.81493e-05
-0.000146143
0.000279278
6.0802e-05
-6.80284e-05
0.000334884
0.000116714
3.52801e-06
0.000357889
0.000236506
0.000134844
0.000208904
0.00041598
8.4677e-05
-0.000442004
0.000584134
0.000157513
-0.00227686
0.000269396
-0.00424508
-0.000447023
-0.000658624
0.00129944
-0.000131282
-0.000619006
0.000726548
-0.000104215
-0.000487367
0.000604298
-7.43589e-05
-0.000306327
0.000485331
-4.43747e-05
-0.000118668
0.00039223
-2.13918e-05
6.2679e-05
0.000323428
-1.61128e-06
0.000231026
0.000274393
1.36672e-05
0.000384476
0.000235137
2.55277e-05
0.000523553
0.000204774
3.43978e-05
0.000648342
0.000179525
3.9867e-05
0.000764166
0.000159887
4.22129e-05
0.00087258
0.000144904
4.18883e-05
0.000988285
0.000137678
4.20878e-05
0.00111891
0.000133908
4.1894e-05
0.00130834
0.000129954
6.32662e-05
0.00154344
0.000103743
0.000111479
0.00180916
-4.35195e-05
0.00015661
0.00186012
-0.000446971
0.000285313
0.00129371
-0.00168501
7.8405e-05
-0.00309967
-0.000544877
0.00127526
-0.000120534
0.00198626
-0.000133862
0.00258152
-0.000132599
0.00306655
-0.000121778
0.00346557
-0.00010615
0.00379999
-9.06444e-05
0.00408761
-7.27186e-05
0.00433597
-5.64263e-05
0.00455393
-3.99118e-05
0.00474356
-2.39155e-05
0.00491206
-1.24359e-05
0.00506166
1.30482e-06
0.00519977
6.86384e-06
0.00533433
1.50732e-05
0.00545578
2.21461e-05
0.00556263
1.95623e-05
0.00551259
4.11776e-05
0.00507032
-5.7601e-06
0.00337815
-6.95944e-05
-0.00056519
-4.82401e-06
4.91262e-06
-6.15753e-07
-1.47871e-05
1.0299e-05
-5.69517e-07
-2.58593e-05
1.14656e-05
-4.76548e-07
-3.67328e-05
1.12789e-05
-3.9354e-07
-4.70091e-05
1.06635e-05
-3.56265e-07
-5.64601e-05
9.81354e-06
-3.57831e-07
-6.48704e-05