/*--------------------------------*- C++ -*----------------------------------*\
  =========                 |
  \\      /  F ield         | OpenFOAM: The Open Source CFD Toolbox
   \\    /   O peration     | Website:  https://openfoam.org
    \\  /    A nd           | Version:  10
     \\/     M anipulation  |
\*---------------------------------------------------------------------------*/
FoamFile
{
    format      ascii;
    class       volScalarField;
    location    "3.2";
    object      p;
}
// * * * * * * * * * * * * * * * * * * * * * * * * * * * * * * * * * * * * * //

dimensions      [0 2 -2 0 0 0 0];

internalField   nonuniform List<scalar> 
8000
(
-1.28387e-06
-1.89379e-05
9.88006e-06
6.64889e-05
0.000155454
0.000276837
0.000429974
0.000613562
0.000825315
0.00106168
0.00131783
0.00158719
0.00186143
0.00213062
0.00238348
0.00260793
0.00279187
0.00292443
0.00300429
0.00300134
1.12884e-05
-6.33174e-06
2.27287e-05
7.75539e-05
0.000163782
0.000281803
0.000431226
0.000611011
0.000819134
0.00105235
0.00130592
0.0015733
0.00184676
0.00211619
0.00237017
0.00259641
0.00278244
0.00291709
0.00299968
0.00299612
-2.59536e-05
-4.62042e-05
-1.80026e-05
3.55131e-05
0.000120612
0.000237892
0.000387271
0.000568075
0.000778655
0.00101611
0.00127604
0.0015525
0.00183712
0.00211966
0.00238811
0.00262912
0.00282877
0.00297415
0.00306401
0.00305915
-9.6919e-05
-0.000119808
-9.27843e-05
-4.08299e-05
4.30958e-05
0.000159949
0.000310143
0.00049357
0.000709178
0.000954648
0.00122604
0.00151756
0.00182144
0.00212677
0.00242037
0.00268712
0.00291071
0.00307524
0.00317823
0.00317397
-0.000207617
-0.000233727
-0.000208227
-0.00015806
-7.52347e-05
4.16803e-05
0.00019376
0.000381668
0.000605176
0.000862798
0.00115134
0.00146548
0.00179775
0.00213674
0.00246797
0.0027739
0.00303452
0.00322919
0.00335303
0.00335106
-0.000360118
-0.0003903
-0.000366818
-0.000318999
-0.00023768
-0.000120823
3.34935e-05
0.000226933
0.000460377
0.000733483
0.00104414
0.00138781
0.00175809
0.00214286
0.00252627
0.00288771
0.00320211
0.00344167
0.00359716
0.00360007
-0.000556755
-0.000592059
-0.000571336
-0.000526901
-0.000448159
-0.000332331
-0.000176448
2.24172e-05
0.00026659
0.0005573
0.000893966
0.00127288
0.00169102
0.00213449
0.00258682
0.00302399
0.00341435
0.00371951
0.00392254
0.00393488
-0.000800486
-0.000842181
-0.00082526
-0.000785798
-0.000711492
-0.000598701
-0.000443205
-0.000240531
1.34636e-05
0.000322139
0.000687506
0.00110986
0.00158077
0.00209556
0.00263568
0.0031735
0.00366946
0.0040703
0.00434511
0.00437688
-0.00109492
-0.00114449
-0.0011327
-0.00110039
-0.00103325
-0.000926694
-0.000775074
-0.000572108
-0.000311499
1.26522e-05
0.000405228
0.000868932
0.00140267
0.0020016
0.00264991
0.00331838
0.0039592
0.00450027
0.00488468
0.00495711
-0.00144456
-0.00150365
-0.0014985
-0.00147602
-0.00141965
-0.0013238
-0.00118123
-0.00098369
-0.000722452
-0.00038863
2.64072e-05
0.000530135
0.00112699
0.00181765
0.00259297
0.00342589
0.00426221
0.00500924
0.00556374
0.00572339
-0.00185524
-0.00192551
-0.00192839
-0.00191874
-0.00187744
-0.00179793
-0.0016713
-0.00148722
-0.00123449
-0.000901091
-0.000474164
5.96017e-05
0.000713227
0.00149382
0.00240811
0.00343831
0.00453123
0.00557832
0.00640221
0.00674868
-0.00233518
-0.00241783
-0.00242941
-0.00243534
-0.00241372
-0.00235704
-0.00225465
-0.0020942
-0.00186225
-0.00154401
-0.00112276
-0.000578997
0.00010945
0.000965981
0.00201124
0.00325753
0.00467039
0.00614607
0.00739936
0.00814638
-0.00289707
-0.00299142
-0.00301047
-0.00303352
-0.00303574
-0.00300855
-0.00293943
-0.00281415
-0.00261765
-0.00233352
-0.00194287
-0.0014221
-0.000740616
0.00014297
0.00127248
0.00271989
0.00449466
0.00655506
0.00846
0.0101208
-0.00356491
-0.00366389
-0.00368389
-0.00372252
-0.00375102
-0.00375901
-0.00373158
-0.00365277
-0.00350673
-0.0032773
-0.00294646
-0.00249042
-0.00187352
-0.00103938
9.37346e-05
0.00163205
0.00370651
0.00645116
0.00931596
0.0128527
-0.00436687
-0.00446404
-0.0044721
-0.00452023
-0.00457123
-0.00461413
-0.00463262
-0.00460856
-0.00452563
-0.00437024
-0.00413091
-0.00379402
-0.00333646
-0.00270949
-0.0018125
-0.000478112
0.00158469
0.00508777
0.00919201
0.0161394
-0.00546051
-0.00536733
-0.00531358
-0.00533326
-0.00541474
-0.0055188
-0.00561087
-0.00566131
-0.00565258
-0.00557859
-0.00544299
-0.00525165
-0.00501067
-0.00470337
-0.00426678
-0.00348634
-0.00201408
0.00162484
0.00614677
0.0185389
-0.00657982
-0.00679208
-0.00664415
-0.00670242
-0.00674678
-0.00680838
-0.00687228
-0.00691631
-0.00692904
-0.00690694
-0.00686808
-0.00684314
-0.00689478
-0.0070886
-0.00748654
-0.00794439
-0.00873545
-0.00567802
-0.00131551
0.0197513
-0.0102869
-0.00761693
-0.00731293
-0.00701658
-0.00709728
-0.00730418
-0.0075531
-0.00776668
-0.00791976
-0.00800231
-0.00806234
-0.00814448
-0.00839338
-0.00892362
-0.0100695
-0.0114134
-0.0147876
-0.0123044
-0.0080243
0.0248327
-0.0103893
-0.0113487
-0.0103276
-0.0102818
-0.00998515
-0.00981945
-0.0097129
-0.00962882
-0.00955829
-0.00947171
-0.0094251
-0.00947242
-0.00978383
-0.0105841
-0.0124696
-0.0148001
-0.0207905
-0.0178689
-0.0115062
0.0478268
-0.0340268
-0.00905569
-0.00814868
-0.00740556
-0.0072503
-0.00758179
-0.00806491
-0.00845821
-0.00877983
-0.00895263
-0.00916058
-0.00930349
-0.00976873
-0.0102837
-0.0115347
-0.0115182
-0.0106933
0.00532963
0.0400968
0.141272
2.9579e-07
-2.53084e-05
2.74617e-06
5.89279e-05
0.000148289
0.000270521
0.000424811
0.000609866
0.000823359
0.00106185
0.00132028
0.00159208
0.00186897
0.00214092
0.00239647
0.00262332
0.0028089
0.00294146
0.00302006
0.00300578
2.35072e-05
-2.80398e-06
2.57237e-05
7.96352e-05
0.00016544
0.000283247
0.000432557
0.000612353
0.000820634
0.00105419
0.00130833
0.00157653
0.00185095
0.00212151
0.00237671
0.00260407
0.00279071
0.00292473
0.00300623
0.0029905
-1.08278e-05
-4.09326e-05
-1.33543e-05
3.90829e-05
0.000123601
0.000240495
0.000389583
0.000570219
0.000780797
0.00101846
0.00127881
0.00155597
0.00184152
0.00212523
0.00239499
0.00263724
0.0028376
0.00298228
0.00307093
0.00305219
-7.91342e-05
-0.000112645
-8.62664e-05
-3.55059e-05
4.77136e-05
0.000164038
0.000313784
0.000496883
0.000712334
0.000957869
0.0012296
0.00152182
0.00182662
0.00213316
0.00242816
0.0026963
0.00292071
0.00308449
0.00318608
0.00316614
-0.000187554
-0.000225088
-0.000200218
-0.000151302
-6.92287e-05
4.7115e-05
0.000198711
0.000386264
0.000609608
0.000867321
0.00115628
0.00147127
0.00180462
0.00214507
0.00247804
0.00278573
0.00304747
0.00324136
0.00336356
0.0033435
-0.000337563
-0.000380135
-0.000357236
-0.000310699
-0.00023014
-0.000113852
3.99969e-05
0.000233122
0.000466471
0.000739787
0.00105106
0.00139596
0.00176759
0.00215427
0.00254003
0.00290391
0.00322004
0.00345895
0.00361253
0.00359409
-0.000531139
-0.000580014
-0.000559796
-0.000516673
-0.000438694
-0.000323428
-0.000167985
3.06277e-05
0.000274814
0.000565908
0.000903517
0.0012847
0.00170416
0.0021503
0.00260602
0.00304687
0.00344011
0.00374518
0.00394613
0.00393342
-0.000771014
-0.000827717
-0.000811195
-0.00077309
-0.00069957
-0.000587357
-0.000432287
-0.000229807
2.4323e-05
0.000333552
0.000699838
0.00112257
0.00159821
0.00211734
0.00266267
0.00320639
0.00370749
0.00410966
0.0043824
0.00438416
-0.00106054
-0.00112686
-0.00111534
-0.00108447
-0.0010182
-0.000912296
-0.000761139
-0.000558333
-0.000297448
2.75928e-05
0.000421807
0.000887674
0.0014265
0.00203153
0.00268789
0.00336612
0.00401648
0.00456227
0.00494541
0.00498264
-0.00140385
-0.00148181
-0.00147678
-0.00145593
-0.00140062
-0.00130562
-0.00116368
-0.000966341
-0.000704717
-0.000369639
4.79685e-05
0.000556717
0.00115833
0.00185807
0.0026461
0.00349543
0.00434961
0.00510936
0.00566522
0.00578832
-0.00180618
-0.00189796
-0.00190083
-0.00189317
-0.00185336
-0.00177515
-0.00164951
-0.00146586
-0.00121278
-0.000877919
-0.000447962
9.0922e-05
0.000751853
0.00154724
0.00248126
0.00353883
0.0046649
0.00574279
0.00657599
0.00690716
-0.00227469
-0.00238234
-0.00239385
-0.00240249
-0.00238322
-0.00232872
-0.00222808
-0.00206864
-0.00183665
-0.00151693
-0.00109209
-0.000541712
0.000157843
0.00103216
0.00210782
0.00339865
0.00487143
0.0064146
0.0077043
0.00852374
-0.00281994
-0.00294429
-0.00296353
-0.0029908
-0.00299704
-0.00297371
-0.00290782
-0.00278473
-0.00258899
-0.00230375
-0.00190918
-0.00138019
-0.000683064
0.000222192
0.00139888
0.00290931
0.00478303
0.00697034
0.00897883
0.0110197
-0.00346173
-0.00359841
-0.0036188
-0.00366476
-0.00370106
-0.00371659
-0.00369543
-0.00362109
-0.00347746
-0.00324798
-0.00291363
-0.00244834
-0.00181222
-0.000936406
0.0002251
0.00182694
0.0040422
0.00699693
0.0100629
0.0146517
-0.00421774
-0.00437461
-0.00438597
-0.00444998
-0.00451371
-0.00456818
-0.0045966
-0.00458028
-0.0045024
-0.00434909
-0.0041082
-0.00376528
-0.00329784
-0.0026646
-0.00173974
-0.000379028
0.00178002
0.00546542
0.00954275
0.0184706
-0.00522267
-0.00518139
-0.00514929
-0.00519803
-0.00531421
-0.00545014
-0.00556939
-0.00564079
-0.00564703
-0.00558039
-0.00544499
-0.00524726
-0.00499669
-0.00468423
-0.00426489
-0.00360495
-0.00248992
0.000563943
0.00338525
0.0185349
-0.00612041
-0.00657521
-0.00644723
-0.00659733
-0.00669531
-0.00680348
-0.00690129
-0.0069687
-0.00699675
-0.00698055
-0.00693949
-0.00690641
-0.00695519
-0.00718687
-0.00776354
-0.00880817
-0.0112667
-0.00993994
-0.00929209
0.0151753
-0.00956613
-0.00706961
-0.00685589
-0.00668983
-0.00692264
-0.00725015
-0.00758947
-0.00786611
-0.0080603
-0.00815687
-0.00821397
-0.00827203
-0.0085082
-0.00907252
-0.0105414
-0.0126333
-0.0184477
-0.0191568
-0.019272
0.0205125
-0.00747608
-0.0101666
-0.00964341
-0.0101274
-0.0101393
-0.0101609
-0.0101716
-0.0101426
-0.0100902
-0.00997432
-0.00985853
-0.00982699
-0.0100368
-0.0107798
-0.013039
-0.0158394
-0.0242266
-0.0244311
-0.0153287
0.0514066
-0.03137
-0.00699154
-0.00654373
-0.0064569
-0.00674935
-0.00733413
-0.00800667
-0.00851824
-0.00895499
-0.00912702
-0.00936634
-0.00942873
-0.00993569
-0.0104195
-0.0119234
-0.0122596
-0.0111002
0.00565691
0.0522248
0.169054
4.30499e-06
-2.39534e-05
3.70933e-06
5.9357e-05
0.000148592
0.00027098
0.000425648
0.000611228
0.000825474
0.00106489
0.00132452
0.00159779
0.0018763
0.00214991
0.00240707
0.00263529
0.00282171
0.00295423
0.00303218
0.00301374
3.15533e-05
1.99084e-06
3.0072e-05
8.32943e-05
0.000168689
0.000286254
0.000435468
0.000615318
0.000823832
0.00105782
0.00131259
0.00158165
0.00185707
0.00212876
0.0023851
0.00261347
0.00280068
0.0029345
0.00301544
0.00299577
-9.03907e-07
-3.47196e-05
-7.68157e-06
4.39468e-05
0.000127949
0.000244491
0.000393368
0.000573952
0.000784661
0.00102267
0.0012836
0.00156159
0.00184818
0.00213309
0.0024041
0.00264749
0.00284854
0.00299308
0.00308117
0.00305799
-6.71204e-05
-0.000104685
-7.89095e-05
-2.90747e-05
5.35191e-05
0.000169376
0.000318794
0.00050173
0.000717221
0.000963039
0.00123533
0.00152842
0.00183435
0.00214224
0.0024387
0.00270822
0.00293357
0.00309731
0.00319838
0.00317348
-0.00017344
-0.000215394
-0.000191165
-0.000143266
-6.18993e-05
5.38991e-05
0.000205098
0.000392439
0.000615807
0.000873833
0.00116345
0.00147948
0.0018142
0.00215635
0.00249123
0.00280079
0.00306394
0.00325807
0.00337984
0.00335418
-0.000321031
-0.000368456
-0.000346223
-0.000300792
-0.000221018
-0.000105347
4.8049e-05
0.000240937
0.00047433
0.000748046
0.00106015
0.00140641
0.00177981
0.00216878
0.0025572
0.00292383
0.0032422
0.00348191
0.00363533
0.00361044
-0.000511616
-0.000565864
-0.00054634
-0.000504436
-0.000427349
-0.000312802
-0.00015789
4.04492e-05
0.000284707
0.000576319
0.000915019
0.00129804
0.00171986
0.00216917
0.00262876
0.00307379
0.00347075
0.00377773
0.00397911
0.00395866
-0.000747678
-0.000810385
-0.000794603
-0.000757891
-0.000685436
-0.00057411
-0.000419711
-0.000217589
3.66109e-05
0.000346469
0.000714081
0.00113899
0.00161808
0.00214178
0.00269283
0.00324307
0.00375047
0.00415674
0.00443125
0.00442425
-0.00103225
-0.00110535
-0.00109465
-0.00106545
-0.00100054
-0.000895823
-0.000745597
-0.000543339
-0.000282462
4.33141e-05
0.000439305
0.00090859
0.00145138
0.0020627
0.00272748
0.00341593
0.00407703
0.0046312
0.00501892
0.00504775
-0.00136901
-0.00145469
-0.00145067
-0.00143195
-0.0013785
-0.0012852
-0.00114466
-0.000948277
-0.000686933
-0.000351199
6.82663e-05
0.000580063
0.00118789
0.00189652
0.00269683
0.00356197
0.00443422
0.00521057
0.00577694
0.00589706
-0.00176249
-0.00186318
-0.0018674
-0.00186263
-0.00182554
-0.00174993
-0.00162655
-0.00144461
-0.00119239
-0.000857217
-0.000425332
0.000117622
0.000785564
0.00159252
0.0025436
0.00362479
0.00478037
0.00588969
0.00674563
0.00709229
-0.00221869
-0.00233682
-0.0023503
-0.00236313
-0.00234805
-0.00229768
-0.00220077
-0.00204437
-0.00181437
-0.00149518
-0.00106887
-0.000514241
0.000193851
0.00108095
0.00217868
0.00350278
0.00502154
0.00662084
0.00795884
0.00884613
-0.00274624
-0.00288325
-0.00290557
-0.00293929
-0.00295225
-0.00293564
-0.00287595
-0.00275814
-0.00256636
-0.00228327
-0.00188849
-0.00135628
-0.000652015
0.000266826
0.00146915
0.00302113
0.0049598
0.0072377
0.00934393
0.0115819
-0.00336125
-0.00351363
-0.00353896
-0.00359528
-0.0036429
-0.00366982
-0.00365911
-0.0035938
-0.00345733
-0.00323267
-0.00290037
-0.00243377
-0.00179266
-0.00091217
0.000267092
0.00190991
0.00419837
0.00728111
0.0105064
0.0154905
-0.00407653
-0.00425632
-0.00427642
-0.00435848
-0.00444014
-0.00451253
-0.00455757
-0.00455591
-0.00449024
-0.00434562
-0.00411052
-0.00377123
-0.00330671
-0.0026771
-0.00179191
-0.000406748
0.00176686
0.00555521
0.00976472
0.0192929
-0.00501409
-0.00499502
-0.00498004
-0.00505577
-0.00520387
-0.0053725
-0.00552217
-0.00562029
-0.00564763
-0.00559629
-0.00547123
-0.00528077
-0.00503804
-0.00473691
-0.00432741
-0.00379525
-0.00289593
-7.58508e-05
0.00259939
0.018308
-0.00578206
-0.00629741
-0.00619891
-0.00640988
-0.00656226
-0.00672514
-0.0068713
-0.00698023
-0.00703914
-0.00704312
-0.00701461
-0.00699065
-0.00705494
-0.00733012
-0.00803707
-0.00939396
-0.0126342
-0.0121131
-0.0113631
0.0134017
-0.0091393
-0.00668296
-0.00648355
-0.00638427
-0.00670376
-0.00711789
-0.00754111
-0.00788566
-0.00813131
-0.00825996
-0.00833547
-0.00839877
-0.00865062
-0.00926082
-0.010933
-0.0134148
-0.0201547
-0.0222224
-0.021795
0.0202828
-0.00640277
-0.0093331
-0.00896382
-0.00962083
-0.00979457
-0.00999457
-0.0101654
-0.0102535
-0.010281
-0.0102061
-0.0100978
-0.0100562
-0.0102524
-0.0110112
-0.0135194
-0.0166481
-0.0256814
-0.0258049
-0.012819
0.056054
-0.0305378
-0.00614142
-0.00574991
-0.00584092
-0.00633074
-0.00708459
-0.00790258
-0.00851973
-0.00903621
-0.0092452
-0.00951244
-0.00955998
-0.0100934
-0.0106339
-0.012218
-0.0126403
-0.0106605
0.00751955
0.0598152
0.180665
9.08722e-06
-2.08925e-05
6.2526e-06
6.14437e-05
0.000150498
0.000272918
0.000427809
0.000613832
0.000828717
0.00106897
0.00132964
0.00160409
0.00188391
0.0021589
0.00241739
0.00264674
0.00283387
0.00296645
0.00304404
0.00302343
3.85049e-05
7.24324e-06
3.48377e-05
8.74698e-05
0.000172501
0.000289871
0.000439047
0.000619029
0.000827859
0.00106236
0.00131785
0.00158783
0.00186432
0.00213718
0.00239467
0.00262402
0.00281183
0.00294565
0.00302623
0.0030042
7.50954e-06
-2.81693e-05
-1.66787e-06
4.92837e-05
0.000132832
0.000249085
0.000397829
0.000578452
0.000789397
0.00102786
0.00128948
0.00156839
0.0018561
0.00214227
0.00241457
0.0026591
0.00286091
0.00300551
0.00309327
0.00306743
-5.69045e-05
-9.64741e-05
-7.12849e-05
-2.22162e-05
5.98262e-05
0.000175289
0.00032447
0.000507351
0.000723004
0.000969236
0.00124222
0.00153631
0.0018435
0.00215286
0.00245088
0.00272185
0.00294825
0.00311224
0.00321309
0.00318523
-0.000161268
-0.000205378
-0.000181788
-0.000134745
-5.40187e-05
6.12986e-05
0.000212182
0.000399413
0.000622923
0.000881396
0.00117181
0.00148903
0.0018253
0.00216933
0.00250628
0.00281788
0.00308263
0.00327742
0.00339921
0.00337027
-0.00030655
-0.000356307
-0.000334773
-0.000290303
-0.000211271
-9.61788e-05
5.6822e-05
0.000249551
0.00048309
0.000757332
0.00107042
0.00141819
0.0017936
0.00218509
0.00257641
0.00294604
0.00326699
0.00350814
0.00366209
0.00363361
-0.000494262
-0.000551057
-0.000532312
-0.000491512
-0.000415309
-0.00030148
-0.000147084
5.10195e-05
0.000295415
0.000587649
0.000927571
0.00131253
0.00173702
0.00218981
0.00265357
0.00310316
0.00350438
0.00381425
0.00401718
0.00399299
-0.00072665
-0.000792171
-0.000777285
-0.000741887
-0.000670539
-0.00056016
-0.000406484
-0.000204751
4.95219e-05
0.00036007
0.000729159
0.00115651
0.00163916
0.00216767
0.00272478
0.003282
0.00379645
0.00420829
0.00448639
0.00447617
-0.00100644
-0.00108267
-0.00107307
-0.00104551
-0.000982059
-0.000878673
-0.000729532
-0.000527962
-0.000267198
5.92591e-05
0.000456999
0.000929472
0.00147669
0.00209452
0.00276799
0.00346706
0.00413977
0.00470434
0.00509961
0.00512759
-0.00133684
-0.00142609
-0.00142345
-0.00140688
-0.00135549
-0.00126417
-0.00112533
-0.000930176
-0.00066936
-0.000333172
8.80374e-05
0.000603222
0.00121688
0.00193422
0.00274667
0.00362764
0.00451862
0.00531397
0.00589546
0.00602212
-0.00172172
-0.00182654
-0.00183263
-0.00183085
-0.00179678
-0.00172417
-0.00160352
-0.00142375
-0.00117283
-0.000837755
-0.000404342
0.000142293
0.000816982
0.00163468
0.00260185
0.00370569
0.00489056
0.00603346
0.00691947
0.00729209
-0.00216602
-0.00228905
-0.0023052
-0.00232236
-0.00231186
-0.00226618
-0.00217366
-0.00202096
-0.00179361
-0.00147564
-0.00104863
-0.000490774
0.000224333
0.00112328
0.00224039
0.00359479
0.00515712
0.00681322
0.0082105
0.00916947
-0.00267674
-0.00281974
-0.00284605
-0.00288628
-0.00290633
-0.0028971
-0.00284445
-0.00273279
-0.00254584
-0.00226589
-0.00187212
-0.0013383
-0.000628744
0.000300177
0.00152101
0.00310883
0.00510653
0.00747329
0.00969319
0.012113
-0.00326698
-0.0034272
-0.00345857
-0.00352497
-0.00358383
-0.00362252
-0.00362306
-0.0035677
-0.00343937
-0.00322094
-0.00289278
-0.00242794
-0.00178606
-0.000902067
0.000279226
0.00195709
0.00430929
0.007508
0.0109269
0.0162861
-0.00394674
-0.00413808
-0.00416796
-0.00426653
-0.00436537
-0.00445548
-0.00451768
-0.00453151
-0.00447895
-0.00434521
-0.00411896
-0.00378763
-0.00333283
-0.00272405
-0.00192324
-0.000487513
0.00169735
0.00557746
0.0100426
0.0201886
-0.00482778
-0.00482097
-0.00482115
-0.00492047
-0.00509659
-0.00529485
-0.00547356
-0.00559772
-0.00564696
-0.00561327
-0.00550278
-0.0053264
-0.00510172
-0.00482397
-0.00440631
-0.00404506
-0.00329357
-0.000699019
0.00209086
0.0185675
-0.00550633
-0.00606178
-0.00598488
-0.0062435
-0.00643971
-0.00664652
-0.00683418
-0.00697788
-0.00706597
-0.00709303
-0.00708359
-0.00707923
-0.0071747
-0.00751249
-0.00835741
-0.0100028
-0.0139229
-0.0140208
-0.0131004
0.012673
-0.00876293
-0.00633756
-0.00616377
-0.00611718
-0.00650128
-0.00698572
-0.00747515
-0.00787694
-0.0081696
-0.00833227
-0.00843329
-0.00851769
-0.0088067
-0.00949102
-0.01137
-0.0142181
-0.0217977
-0.0248796
-0.0240208
0.0200322
-0.00575959
-0.00884623
-0.00850731
-0.00928055
-0.0095605
-0.00986189
-0.0101259
-0.0102924
-0.010382
-0.0103463
-0.0102577
-0.0102276
-0.0104395
-0.011254
-0.0139647
-0.017395
-0.0270576
-0.0275385
-0.0130825
0.0592909
-0.0298099
-0.00542221
-0.00509292
-0.00530439
-0.00593795
-0.00682777
-0.00776746
-0.00848173
-0.00907883
-0.0093336
-0.00963396
-0.0096967
-0.0102609
-0.0108617
-0.0125275
-0.0130698
-0.0110216
0.00775295
0.0622866
0.187777
1.40834e-05
-1.64968e-05
1.03511e-05
6.52055e-05
0.000154056
0.000276406
0.00043137
0.000617622
0.0008329
0.00107372
0.00133513
0.00161049
0.00189135
0.00216744
0.00242701
0.00265728
0.00284506
0.00297787
0.00305542
0.00303403
4.44529e-05
1.25175e-05
3.98019e-05
9.20469e-05
0.000176809
0.00029403
0.000443187
0.000623298
0.000832419
0.00106739
0.00132353
0.00159434
0.0018718
0.0021457
0.00240424
0.00263451
0.00282299
0.00295706
0.00303766
0.00301489
1.44775e-05
-2.19431e-05
4.21081e-06
5.47188e-05
0.000137942
0.000253986
0.000402652
0.000583352
0.000794552
0.00103347
0.00129576
0.00157554
0.00186429
0.00215164
0.00242515
0.00267079
0.00287343
0.00301842
0.0031063
0.00307967
-4.85241e-05
-8.8902e-05
-6.41049e-05
-1.5551e-05
6.60905e-05
0.000181266
0.000330296
0.000513193
0.000729063
0.000975745
0.00124943
0.00154451
0.00185291
0.00216369
0.00246323
0.00273565
0.00296321
0.00312786
0.003229
0.00320034
-0.0001512
-0.000196195
-0.000173049
-0.000126601
-4.63594e-05
6.85871e-05
0.000219246
0.00040644
0.000630152
0.000889113
0.00118034
0.00149873
0.00183652
0.00218238
0.00252136
0.00283499
0.0031015
0.00329744
0.00341987
0.00339011
-0.000294411
-0.000345144
-0.000324118
-0.000280346
-0.000201905
-8.72912e-05
6.53908e-05
0.00025802
0.000491747
0.000766535
0.0010806
0.00142982
0.00180719
0.00220113
0.00259527
0.00296787
0.00329157
0.00353472
0.00368994
0.00366074
-0.00047952
-0.0005374
-0.000519254
-0.000479294
-0.000403838
-0.000290647
-0.000136714
6.11814e-05
0.000305721
0.000598554
0.000939637
0.00132642
0.00175345
0.00220956
0.00267731
0.00313132
0.00353688
0.00385023
0.00405558
0.004031
-0.000708574
-0.000775316
-0.000761164
-0.000726819
-0.000656458
-0.00054697
-0.000393999
-0.000192672
6.1624e-05
0.000372771
0.000743198
0.00117279
0.00165872
0.00219168
0.00275442
0.0033182
0.00383954
0.0042574
0.00453998
0.00453029
-0.000984028
-0.00106166
-0.00105299
-0.00102681
-0.000964722
-0.000862635
-0.000714601
-0.000513796
-0.000253275
7.36624e-05
0.000472845
0.000947994
0.00149925
0.00212293
0.0028042
0.00351289
0.00419638
0.0047713
0.0051748
0.00520567
-0.00130871
-0.00139958
-0.0013982
-0.00138351
-0.00133407
-0.00124469
-0.00110762
-0.000913839
-0.000653784
-0.000317485
0.000105023
0.000623172
0.00124155
0.00196629
0.0027892
0.0036839
0.00459145
0.00540433
0.00600081
0.00613611
-0.00168594
-0.00179268
-0.00180052
-0.00180138
-0.00177017
-0.00170053
-0.00158268
-0.00140528
-0.00115605
-0.000821633
-0.000387497
0.000161626
0.000841695
0.00166815
0.00264854
0.00377105
0.00498056
0.00615248
0.00706604
0.00746031
-0.00211986
-0.00224521
-0.00226386
-0.00228484
-0.0022786
-0.00223744
-0.00214934
-0.00200059
-0.00177643
-0.0014605
-0.00103398
-0.000474474
0.00024541
0.00115359
0.00228583
0.00366334
0.00526024
0.00696264
0.00841027
0.00941965
-0.00261628
-0.0027622
-0.00279213
-0.00283795
-0.00286439
-0.00286203
-0.00281623
-0.00271095
-0.00252954
-0.0022539
-0.00186299
-0.00132971
-0.000617569
0.000319154
0.00155512
0.003166
0.00520724
0.00764346
0.00995379
0.0124836
-0.00318648
-0.00335056
-0.00338715
-0.0034618
-0.00353026
-0.00357939
-0.00359042
-0.00354498
-0.00342573
-0.00321487
-0.00289283
-0.00243228
-0.00179155
-0.000900719
0.000297918
0.00197857
0.00437145
0.00765669
0.0112302
0.0167959
-0.0038392
-0.00403603
-0.00407355
-0.00418461
-0.00429732
-0.00440249
-0.00448005
-0.00450868
-0.00446975
-0.0043482
-0.00413305
-0.00381238
-0.00336767
-0.00276098
-0.00187999
-0.00055649
0.00162269
0.00557594
0.010277
0.0207543
-0.00468018
-0.00467871
-0.00468943
-0.00480562
-0.00500242
-0.00522368
-0.00542619
-0.00557324
-0.00564329
-0.00562791
-0.00553445
-0.0053763
-0.00517645
-0.00494537
-0.00467303
-0.00427692
-0.00354525
-0.001081
0.00195607
0.0188449
-0.00530935
-0.00587942
-0.00581386
-0.00610071
-0.00632584
-0.00656407
-0.00678385
-0.00695882
-0.00707462
-0.00712571
-0.00713843
-0.00715835
-0.00728914
-0.00768955
-0.00865643
-0.0104732
-0.0148243
-0.0151944
-0.0138683
0.0124435
-0.00850142
-0.00608615
-0.00592698
-0.00590932
-0.00633176
-0.00686096
-0.00739731
-0.00784449
-0.00817733
-0.00837311
-0.00850285
-0.00861525
-0.00894518
-0.00969965
-0.0117342
-0.0148271
-0.022951
-0.0265909
-0.0250346
0.0197695
-0.00545026
-0.00855723
-0.00820686
-0.00902142
-0.00934774
-0.00970719
-0.0100377
-0.010264
-0.0104048
-0.0104088
-0.010349
-0.0103454
-0.0105891
-0.0114674
-0.0143284
-0.0179911
-0.0280729
-0.0288205
-0.0132658
0.0606797
-0.0294236
-0.00501487
-0.00469995
-0.00495409
-0.00565497
-0.00662392
-0.00764384
-0.00842693
-0.00908293
-0.00938071
-0.00971515
-0.00980542
-0.0104038
-0.011067
-0.0128171
-0.0134784
-0.0114537
0.00759815
0.0634853
0.190733
1.88092e-05
-1.20397e-05
1.46007e-05
6.92202e-05
0.000157911
0.000280194
0.000435203
0.000621629
0.000837221
0.00107851
0.00134053
0.00161664
0.00189834
0.00217535
0.00243582
0.0026669
0.00285527
0.00298842
0.00306611
0.00304446
4.96575e-05
1.74464e-05
4.45177e-05
9.65071e-05
0.00018108
0.000298198
0.000447358
0.000627598
0.000836991
0.00107238
0.00132911
0.00160066
0.00187898
0.00215382
0.00241329
0.00264441
0.00283354
0.002968
0.00304876
0.00302573
2.04453e-05
-1.62743e-05
9.64316e-06
5.98593e-05
0.000142854
0.000258753
0.000407383
0.00058818
0.000799633
0.00103898
0.00130188
0.00158245
0.00187216
0.00216057
0.00243518
0.00268185
0.00288532
0.00303084
0.00311898
0.00309209
-4.14403e-05
-8.21442e-05
-5.76171e-05
-9.40672e-06
7.19484e-05
0.00018692
0.000335858
0.00051881
0.000734912
0.000982033
0.00125639
0.00155237
0.0018619
0.00217398
0.0024749
0.00274868
0.0029774
0.00314285
0.00324446
0.00321557
-0.0001427
-0.000188052
-0.000165221
-0.000119183
-3.9302e-05
7.53648e-05
0.000225865
0.000413067
0.000636997
0.000896432
0.00118842
0.0015079
0.00184709
0.00219462
0.00253546
0.00285099
0.00311922
0.00331643
0.00343968
0.00340979
-0.000284126
-0.000335252
-0.000314603
-0.000271332
-0.000193355
-7.91255e-05
7.33034e-05
0.000265871
0.000499792
0.000775093
0.00109005
0.0014406
0.00181976
0.00221591
0.00261262
0.00298796
0.00331427
0.0035595
0.00371616
0.00368702
-0.000466969
-0.000525287
-0.000507606
-0.000468281
-0.00039344
-0.000280793
-0.000127263
7.04519e-05
0.00031512
0.000608486
0.000950602
0.001339
0.00176832
0.00222738
0.00269871
0.0031567
0.00356626
0.00388303
0.00409088
0.00406679
-0.000693117
-0.000760357
-0.000746803
-0.000713289
-0.000643772
-0.000535078
-0.000382755
-0.000181823
7.2453e-05
0.000384086
0.000755644
0.00118715
0.00167595
0.00221281
0.00278047
0.00335003
0.00387751
0.00430098
0.00458789
0.00457963
-0.000964803
-0.00104302
-0.00103514
-0.00101009
-0.000949198
-0.000848296
-0.000701308
-0.000501264
-0.000241063
8.61747e-05
0.000486477
0.000963764
0.0015185
0.00214716
0.00283506
0.00355196
0.00424477
0.00482887
0.00523986
0.00527416
-0.00128455
-0.00137612
-0.00137583
-0.00136271
-0.001315
-0.00122741
-0.00109201
-0.0008996
-0.000640408
-0.000304233
0.00011916
0.000639519
0.00126178
0.00199257
0.00282406
0.00373009
0.00465146
0.00547923
0.0060887
0.00623165
-0.00165526
-0.00176286
-0.00177222
-0.00177531
-0.00174664
-0.00167969
-0.00156447
-0.0013894
-0.00114194
-0.000808446
-0.000374058
0.00017687
0.00086085
0.00169411
0.0026849
0.00382224
0.00505156
0.00624706
0.00718345
0.00759413
-0.00208049
-0.00220693
-0.00222773
-0.00225189
-0.00224937
-0.00221224
-0.0021282
-0.00198324
-0.00176226
-0.0014486
-0.00102294
-0.000462826
0.000260201
0.00117496
0.00231841
0.00371347
0.00533722
0.00707601
0.00856342
0.00960747
-0.00256532
-0.00271261
-0.00274557
-0.00279594
-0.00282778
-0.0028314
-0.00279173
-0.00269234
-0.00251621
-0.00224499
-0.00185719
-0.00132544
-0.000612294
0.000328733
0.0015742
0.00320186
0.005276
0.00776611
0.0101454
0.0127463
-0.00311994
-0.00328585
-0.00332663
-0.00340773
-0.00348396
-0.00354181
-0.00356189
-0.0035253
-0.00341428
-0.00321094
-0.00289539
-0.00244009
-0.00180235
-0.000908671
0.000292706
0.00197916
0.00440276
0.0077563
0.0114478
0.0171437
-0.0037527
-0.00395201
-0.00399525
-0.00411546
-0.00423893
-0.00435621
-0.00444656
-0.00448796
-0.00446129
-0.00435136
-0.00414739
-0.00383797
-0.00340511
-0.00281126
-0.00193271
-0.000638878
0.00154116
0.00556686
0.0104574
0.021144
-0.00456553
-0.00456638
-0.00458447
-0.00471244
-0.00492431
-0.00516305
-0.00538429
-0.00554989
-0.00563767
-0.00563905
-0.00556214
-0.00542219
-0.00524558
-0.00504872
-0.0048298
-0.00446535
-0.00371149
-0.0013233
0.00193664
0.0190918
-0.00516668
-0.00574238
-0.00568328
-0.00598693
-0.00623142
-0.00649232
-0.00673663
-0.00693519
-0.00707377
-0.00714642
-0.00718059
-0.00722463
-0.00738799
-0.00783806
-0.0088847
-0.0108133
-0.0154552
-0.0159243
-0.0143181
0.012409
-0.00831269
-0.00590119
-0.00575275
-0.00575236
-0.00619852
-0.00675779
-0.00732804
-0.00780812
-0.00817223
-0.0083963
-0.00855281
-0.0086933
-0.00906187
-0.00987482
-0.0120206
-0.0152729
-0.0237576
-0.0276941
-0.0257343
0.0195668
-0.00526685
-0.00837241
-0.00800598
-0.00883701
-0.00918632
-0.00957982
-0.00995573
-0.0102209
-0.0103993
-0.0104365
-0.0104056
-0.0104306
-0.0107098
-0.0116445
-0.0146186
-0.0184425
-0.0288297
-0.0297429
-0.0136827
0.0612499
-0.0291743
-0.00474983
-0.00443766
-0.00471006
-0.00544609
-0.006462
-0.00753394
-0.00836618
-0.00906759
-0.00940274
-0.00976992
-0.00988861
-0.0105248
-0.0112387
-0.0130724
-0.0138222
-0.0119035
0.00725567
0.0637213
0.192123
2.29618e-05
-7.98805e-06
1.85245e-05
7.29943e-05
0.000161572
0.000283804
0.000438843
0.000625398
0.000841233
0.00108288
0.0013454
0.00162211
0.00190452
0.00218228
0.00244349
0.00267525
0.00286418
0.0029977
0.00307558
0.00305388
5.40748e-05
2.17525e-05
4.8689e-05
0.000100518
0.000184967
0.000302018
0.000451193
0.000631548
0.000841172
0.00107693
0.00133414
0.00160631
0.00188535
0.00216098
0.00242125
0.00265311
0.00284285
0.00297772
0.00305873
0.00303566
2.54273e-05
-1.14109e-05
1.43547e-05
6.43858e-05
0.000147227
0.000263031
0.00041165
0.000592544
0.000804221
0.00104393
0.00130736
0.00158861
0.00187912
0.00216845
0.002444
0.00269157
0.00289581
0.00304188
0.00313035
0.00310346
-3.55955e-05
-7.64293e-05
-5.20806e-05
-4.09408e-06
7.70644e-05
0.000191896
0.000340782
0.000523801
0.000740117
0.000987625
0.00126255
0.00155931
0.00186981
0.002183
0.00248513
0.00276009
0.00298987
0.00315612
0.00325824
0.00322941
-0.000135712
-0.000181208
-0.000158593
-0.000112834
-3.32111e-05
8.12517e-05
0.000231643
0.000418871
0.000643002
0.000902851
0.0011955
0.0015159
0.00185628
0.00220524
0.00254769
0.00286486
0.00313462
0.00333306
0.00345714
0.00342742
-0.000275666
-0.000326955
-0.000306576
-0.000263662
-0.000186033
-7.21013e-05
8.01318e-05
0.000272659
0.00050675
0.000782489
0.00109821
0.00144987
0.00183053
0.00222857
0.00262746
0.00300513
0.00333371
0.00358084
0.00373886
0.0037101
-0.000456627
-0.000515136
-0.000497803
-0.000458948
-0.000384589
-0.000272383
-0.000119188
7.83701e-05
0.000323136
0.000616934
0.000959898
0.00134964
0.00178084