/*--------------------------------*- C++ -*----------------------------------*\
  =========                 |
  \\      /  F ield         | OpenFOAM: The Open Source CFD Toolbox
   \\    /   O peration     | Website:  https://openfoam.org
    \\  /    A nd           | Version:  10
     \\/     M anipulation  |
\*---------------------------------------------------------------------------*/
FoamFile
{
    format      ascii;
    class       volVectorField;
    location    "3.2";
    object      U;
}
// * * * * * * * * * * * * * * * * * * * * * * * * * * * * * * * * * * * * * //

dimensions      [0 1 -1 0 0 0 0];

internalField   nonuniform List<vector> 
8000
(
(-0.000104165 0.000113249 -1.21368e-05)
(-0.000581849 0.000221283 1.70864e-05)
(-0.00128293 0.00023723 2.46423e-05)
(-0.00193388 0.000231629 2.76103e-05)
(-0.00256284 0.000219719 2.67646e-05)
(-0.0031467 0.000203463 2.36462e-05)
(-0.00366953 0.00018258 1.90311e-05)
(-0.00411689 0.000156575 1.31213e-05)
(-0.00447387 0.000125044 5.96167e-06)
(-0.00472575 8.76909e-05 -2.43915e-06)
(-0.0048581 4.48795e-05 -1.15656e-05)
(-0.00485719 -2.99339e-06 -2.1396e-05)
(-0.00471176 -5.55674e-05 -3.18e-05)
(-0.0044144 -0.00011093 -4.23537e-05)
(-0.00396308 -0.000166726 -5.24084e-05)
(-0.00336293 -0.000219935 -6.09626e-05)
(-0.00262987 -0.000266566 -6.61979e-05)
(-0.00180334 -0.000299823 -6.51762e-05)
(-0.000865913 -0.00029804 -5.5932e-05)
(-0.000178955 -0.000170699 -1.37588e-05)
(-0.000213326 0.000617147 -5.11837e-05)
(-0.000996606 0.00102182 -2.3249e-05)
(-0.00207347 0.00107465 -1.39518e-05)
(-0.00307622 0.00103974 -7.53137e-06)
(-0.00403706 0.00097445 -4.49205e-06)
(-0.00492158 0.000887567 -3.35524e-06)
(-0.0057054 0.000779643 -3.34081e-06)
(-0.00636718 0.000650289 -4.32148e-06)
(-0.00688585 0.000499331 -6.31858e-06)
(-0.00724086 0.000327032 -9.36871e-06)
(-0.007413 0.000134596 -1.35176e-05)
(-0.00738548 -7.60767e-05 -1.88369e-05)
(-0.00714392 -0.000300082 -2.48607e-05)
(-0.00667915 -0.000530909 -3.14173e-05)
(-0.00599039 -0.000759644 -3.78987e-05)
(-0.00508644 -0.00097467 -4.32371e-05)
(-0.00399119 -0.0011608 -4.53353e-05)
(-0.00275926 -0.00129197 -4.09932e-05)
(-0.00137312 -0.00128838 -2.87597e-05)
(-0.000313653 -0.000819626 1.8387e-05)
(-0.000240004 0.00137906 -6.65609e-05)
(-0.00110938 0.00216159 -3.8964e-05)
(-0.00229675 0.00225554 -2.89665e-05)
(-0.00340011 0.00217416 -2.12078e-05)
(-0.00445648 0.00202871 -1.66805e-05)
(-0.00542885 0.00183716 -1.39086e-05)
(-0.0062913 0.00160189 -1.21589e-05)
(-0.00702111 0.00132339 -1.13546e-05)
(-0.00759579 0.00100239 -1.15859e-05)
(-0.00799358 0.000640442 -1.29563e-05)
(-0.00819396 0.0002403 -1.54864e-05)
(-0.00817639 -0.000193343 -1.92992e-05)
(-0.00792365 -0.000651741 -2.41621e-05)
(-0.0074251 -0.00112202 -2.98522e-05)
(-0.00667699 -0.00158646 -3.57183e-05)
(-0.00568588 -0.00202216 -4.05921e-05)
(-0.00447533 -0.00239922 -4.21331e-05)
(-0.00310453 -0.00266609 -3.67676e-05)
(-0.00155237 -0.00266811 -2.30898e-05)
(-0.000357364 -0.00176762 2.78802e-05)
(-0.000251512 0.00215045 -7.90513e-05)
(-0.00117086 0.00332537 -5.16378e-05)
(-0.00242915 0.00346069 -4.11569e-05)
(-0.0035976 0.00333247 -3.24748e-05)
(-0.0047186 0.00310768 -2.6954e-05)
(-0.00575383 0.00281321 -2.31136e-05)
(-0.00667701 0.00245288 -2.02365e-05)
(-0.007465 0.00202774 -1.82874e-05)
(-0.00809448 0.00153892 -1.74035e-05)
(-0.00854224 0.000988527 -1.77413e-05)
(-0.00878558 0.000380639 -1.94251e-05)
(-0.00880177 -0.000277563 -2.27206e-05)
(-0.00856861 -0.000975811 -2.71585e-05)
(-0.0080687 -0.0016956 -3.26396e-05)
(-0.00729275 -0.00241087 -3.85429e-05)
(-0.00624204 -0.00308674 -4.3608e-05)
(-0.00493654 -0.00367657 -4.51466e-05)
(-0.00343929 -0.00409972 -3.90181e-05)
(-0.00172567 -0.00411903 -2.36944e-05)
(-0.000398037 -0.00276157 3.27259e-05)
(-0.000264617 0.00298011 -9.07415e-05)
(-0.00124258 0.00457824 -6.28986e-05)
(-0.00258572 0.00475849 -5.19349e-05)
(-0.00383325 0.0045818 -4.25151e-05)
(-0.00503355 0.00427488 -3.63221e-05)
(-0.00614698 0.00387426 -3.18474e-05)
(-0.00714719 0.0033853 -2.83688e-05)
(-0.00801084 0.0028094 -2.58813e-05)
(-0.00871398 0.00214771 -2.45624e-05)
(-0.00923188 0.00140217 -2.46266e-05)
(-0.00953898 0.000576711 -2.62722e-05)
(-0.00960866 -0.00032091 -2.97349e-05)
(-0.00941254 -0.00127853 -3.45874e-05)
(-0.00892444 -0.00227371 -4.08211e-05)
(-0.00812508 -0.00327302 -4.77505e-05)
(-0.00700566 -0.00422873 -5.3934e-05)
(-0.00557866 -0.00507381 -5.62106e-05)
(-0.00391079 -0.005691 -4.95277e-05)
(-0.00197353 -0.00574565 -3.19437e-05)
(-0.00045776 -0.00388197 3.32429e-05)
(-0.000282001 0.00387597 -0.000103933)
(-0.00133571 0.00593519 -7.51762e-05)
(-0.00278793 0.00616539 -6.36641e-05)
(-0.00413706 0.00593893 -5.3497e-05)
(-0.0054389 0.00554765 -4.6697e-05)
(-0.00665233 0.00503863 -4.17223e-05)
(-0.00775123 0.00441892 -3.78448e-05)
(-0.0087125 0.00369004 -3.50918e-05)
(-0.0095119 0.00285254 -3.3682e-05)
(-0.0101234 0.00190717 -3.38861e-05)
(-0.0105185 0.000856263 -3.59945e-05)
(-0.0106663 -0.0002939 -4.03754e-05)
(-0.01053 -0.00153272 -4.63957e-05)
(-0.010071 -0.00283541 -5.43365e-05)
(-0.0092556 -0.00416257 -6.34431e-05)
(-0.00805844 -0.00545331 -7.19999e-05)
(-0.00647747 -0.00661608 -7.6131e-05)
(-0.00458028 -0.00748577 -6.93818e-05)
(-0.00233194 -0.00760676 -4.88976e-05)
(-0.000546602 -0.00517436 2.94322e-05)
(-0.000303986 0.00485442 -0.000120347)
(-0.00145258 0.00742151 -9.04439e-05)
(-0.00304063 0.00770759 -7.82643e-05)
(-0.00451532 0.00742932 -6.7154e-05)
(-0.00594187 0.00695067 -5.95761e-05)
(-0.00727762 0.00633067 -5.39689e-05)
(-0.00849727 0.00557834 -4.96243e-05)
(-0.00957878 0.00469518 -4.66201e-05)
(-0.0104985 0.00368052 -4.52338e-05)
(-0.0112298 0.00253258 -4.58141e-05)
(-0.0117416 0.00125 -4.87833e-05)
(-0.0119991 -0.000165701 -5.47883e-05)
(-0.0119554 -0.0017069 -6.28235e-05)
(-0.0115557 -0.00335342 -7.37555e-05)
(-0.0107457 -0.00506314 -8.67379e-05)
(-0.00947378 -0.00676336 -9.97164e-05)
(-0.00771094 -0.00833385 -0.000107743)
(-0.00551731 -0.00954613 -0.000102241)
(-0.00284571 -0.00978636 -7.84328e-05)
(-0.000678326 -0.00670831 1.84873e-05)
(-0.000330751 0.00593586 -0.000141415)
(-0.00159498 0.00906824 -0.000110328)
(-0.00334751 0.00941633 -9.72764e-05)
(-0.00497221 0.00908234 -8.48219e-05)
(-0.00654643 0.00851151 -7.60519e-05)
(-0.008026 0.00777675 -6.94315e-05)
(-0.0093875 0.00688972 -6.43189e-05)
(-0.0106111 0.00585199 -6.08782e-05)
(-0.0116754 0.00466117 -5.9473e-05)
(-0.0125548 0.00331166 -6.05527e-05)
(-0.0132177 0.00179591 -6.46559e-05)
(-0.0136241 0.000106785 -7.23086e-05)
(-0.0137186 -0.00175532 -8.43599e-05)
(-0.0134283 -0.00378325 -0.000100287)
(-0.0126686 -0.0059396 -0.000119884)
(-0.0113481 -0.00814545 -0.000140857)
(-0.0093905 -0.0102505 -0.00015672)
(-0.00682808 -0.0119444 -0.000155642)
(-0.00358955 -0.0123947 -0.000128769)
(-0.000878515 -0.00858537 -6.68503e-06)
(-0.000362938 0.0071442 -0.000168876)
(-0.00176611 0.0109111 -0.00013676)
(-0.00371435 0.0113262 -0.00012247)
(-0.00551397 0.0109292 -0.000107951)
(-0.00725794 0.0102582 -9.72123e-05)
(-0.00890098 0.0094027 -8.88468e-05)
(-0.010423 0.00837816 -8.23592e-05)
(-0.0118083 0.00718677 -7.8049e-05)
(-0.0130399 0.00582429 -7.6404e-05)
(-0.0140961 0.0042803 -7.80169e-05)
(-0.0149476 0.00253878 -8.35139e-05)
(-0.0155514 0.000580259 -9.33239e-05)
(-0.0158466 -0.00161262 -0.000111594)
(-0.0157414 -0.00405337 -0.000135421)
(-0.0151119 -0.00672369 -0.000166009)
(-0.0138098 -0.00955262 -0.000201197)
(-0.0116799 -0.0123661 -0.000232552)
(-0.00868137 -0.014756 -0.00024302)
(-0.00469708 -0.0155739 -0.000215163)
(-0.00119933 -0.0109587 -5.94244e-05)
(-0.000402213 0.00850926 -0.000205274)
(-0.00197216 0.0129927 -0.000172483)
(-0.00415121 0.0134767 -0.000156251)
(-0.00615107 0.0130033 -0.000138377)
(-0.00808518 0.0122186 -0.000124279)
(-0.00990795 0.0112324 -0.000112866)
(-0.0116046 0.0100657 -0.000103915)
(-0.0131663 0.00872234 -9.79294e-05)
(-0.0145832 0.00719692 -9.55654e-05)
(-0.0158418 0.00547385 -9.76436e-05)
(-0.0169192 0.0035268 -0.000105051)
(-0.017777 0.0013195 -0.000118854)
(-0.0183538 -0.00119092 -0.000144931)
(-0.0185413 -0.00405572 -0.000180434)
(-0.0181732 -0.00729632 -0.0002287)
(-0.0170241 -0.0108785 -0.000288617)
(-0.0148174 -0.014629 -0.000349906)
(-0.0113493 -0.0180402 -0.000387909)
(-0.00641635 -0.0195025 -0.000366258)
(-0.00174968 -0.0140711 -0.000171662)
(-0.00045245 0.0100712 -0.000254669)
(-0.00222504 0.0153667 -0.000221703)
(-0.00467565 0.015914 -0.000202125)
(-0.00690131 0.0153404 -0.000178543)
(-0.0090429 0.0144193 -0.000158617)
(-0.0110562 0.0132855 -0.000141899)
(-0.0129345 0.0119678 -0.000128623)
(-0.0146786 0.0104738 -0.000119562)
(-0.01629 0.00879817 -0.000115575)
(-0.017768 0.00692134 -0.00011779)
(-0.0191038 0.00480638 -0.000127841)
(-0.0202711 0.00239605 -0.000148705)
(-0.0212239 -0.0003887 -0.00018395)
(-0.0218493 -0.00363876 -0.000235073)
(-0.021942 -0.00746404 -0.000310451)
(-0.0211884 -0.0119153 -0.000411883)
(-0.0191411 -0.0168812 -0.00052922)
(-0.0152753 -0.0217914 -0.000629668)
(-0.00922718 -0.0243855 -0.000636459)
(-0.00276369 -0.0183357 -0.000427034)
(-0.000522344 0.0118891 -0.000323997)
(-0.00254753 0.0181036 -0.00029118)
(-0.00531824 0.0186935 -0.00026538)
(-0.00779472 0.0179783 -0.000231722)
(-0.0101557 0.0168835 -0.000201565)
(-0.0123618 0.0155741 -0.000175667)
(-0.0144179 0.0140892 -0.000154966)
(-0.0163375 0.0124423 -0.000140523)
(-0.0181374 0.0106313 -0.000133309)
(-0.0198353 0.00863586 -0.000134615)
(-0.0214464 0.00641216 -0.000146525)
(-0.0229742 0.00388486 -0.000172308)
(-0.024391 0.000937128 -0.00021512)
(-0.0256199 -0.00258766 -0.000292241)
(-0.0264601 -0.00692824 -0.000407811)
(-0.0265066 -0.0122925 -0.000574786)
(-0.0251081 -0.0187601 -0.000791012)
(-0.0211823 -0.025823 -0.00102136)
(-0.0140863 -0.0303518 -0.00112588)
(-0.00476835 -0.0245371 -0.00102725)
(-0.000632181 0.0140625 -0.000426082)
(-0.00298461 0.0213064 -0.000392822)
(-0.00613169 0.0218862 -0.000354493)
(-0.00888092 0.0209578 -0.000302228)
(-0.011464 0.0196287 -0.000253831)
(-0.0138526 0.0180977 -0.000212103)
(-0.0160672 0.0164163 -0.000178915)
(-0.0181374 0.0146064 -0.000155485)
(-0.0200973 0.0126721 -0.000142574)
(-0.021988 0.010598 -0.000141233)
(-0.0238557 0.00834108 -0.000153688)
(-0.0257472 0.00581597 -0.00018381)
(-0.0276978 0.00287325 -0.000238073)
(-0.029718 -0.000729938 -0.000346032)
(-0.0316619 -0.00533565 -0.000506385)
(-0.0331191 -0.0114335 -0.000759019)
(-0.0332739 -0.019547 -0.00112602)
(-0.030179 -0.0295233 -0.0015887)
(-0.0229134 -0.0372925 -0.00196661)
(-0.00903629 -0.0341726 -0.00243735)
(-0.000828716 0.0167026 -0.000584523)
(-0.00363128 0.0250931 -0.00054561)
(-0.00721219 0.0255735 -0.000483204)
(-0.0102426 0.0243201 -0.000396087)
(-0.0130326 0.0226603 -0.000314223)
(-0.0155745 0.0208328 -0.000244644)
(-0.017908 0.0189054 -0.000190597)
(-0.0200801 0.0169077 -0.0001528)
(-0.0221436 0.0148526 -0.000130851)
(-0.0241638 0.0127373 -0.00012464)
(-0.0262255 0.0105371 -0.00013612)
(-0.028439 0.00818789 -0.000170927)
(-0.0309336 0.00555214 -0.000237594)
(-0.0338267 0.00234103 -0.000336024)
(-0.0371807 -0.00195638 -0.000509499)
(-0.0408695 -0.00825647 -0.000837166)
(-0.0441008 -0.0177572 -0.00136368)
(-0.0438194 -0.0315041 -0.00214094)
(-0.0389954 -0.0445125 -0.00305036)
(-0.0180253 -0.0497339 -0.00518172)
(-0.00116514 0.0204045 -0.000860872)
(-0.00457955 0.0296537 -0.000780956)
(-0.008682 0.0297328 -0.000662022)
(-0.0120011 0.0279105 -0.000502753)
(-0.0149639 0.0258126 -0.000362844)
(-0.0176018 0.0236425 -0.000249371)
(-0.0199834 0.0214414 -0.00016396)
(-0.0221784 0.0192318 -0.000105031)
(-0.0242525 0.0170414 -6.96515e-05)
(-0.0262841 0.0148921 -5.50774e-05)
(-0.0283798 0.0127934 -5.95191e-05)
(-0.0306986 0.0107156 -8.19352e-05)
(-0.0334995 0.00856674 -0.000124797)
(-0.0371666 0.00608686 -0.000200958)
(-0.0422014 0.00269072 -0.000339372)
(-0.049028 -0.00286084 -0.000553791)
(-0.0576128 -0.0124597 -0.000927059)
(-0.063365 -0.0298703 -0.00162507)
(-0.0651864 -0.0507143 -0.00256474)
(-0.0333991 -0.0769203 -0.00779662)
(-0.00234816 0.0242148 -0.00131825)
(-0.00690544 0.0358879 -0.00129228)
(-0.0110246 0.0354405 -0.00103223)
(-0.0143904 0.0329918 -0.000734751)
(-0.0173017 0.030067 -0.000453801)
(-0.0199156 0.0271076 -0.000229733)
(-0.0222671 0.0242669 -6.86373e-05)
(-0.0244041 0.0216035 3.63978e-05)
(-0.0263795 0.0191522 9.51222e-05)
(-0.0282777 0.0169386 0.000117687)
(-0.0302348 0.0150168 0.000114284)
(-0.032459 0.0134395 9.35375e-05)
(-0.0353015 0.0122824 7.62731e-05)
(-0.0393539 0.0114878 0.000101928)
(-0.0456293 0.0106619 0.000270207)
(-0.0553034 0.00824019 0.000851881)
(-0.0703427 0.00108464 0.0020516)
(-0.0842598 -0.0228678 0.00368959)
(-0.097741 -0.0613181 0.00538218)
(-0.0487628 -0.131511 -0.00566183)
(-0.0018404 0.0358189 -0.0022884)
(-0.0073359 0.0403709 -0.00161228)
(-0.0137142 0.0384491 -0.00118964)
(-0.0174847 0.0343317 -0.000566909)
(-0.0206731 0.0309226 -0.000130411)
(-0.0230737 0.0278445 0.000178935)
(-0.024972 0.0250372 0.000368309)
(-0.0265648 0.0224284 0.00047239)
(-0.0279635 0.0200269 0.000516898)
(-0.029235 0.0178611 0.000520837)
(-0.0304633 0.0160634 0.000510939)
(-0.0317759 0.0147407 0.000516439)
(-0.0335115 0.0142021 0.000615671)
(-0.0363709 0.0145923 0.000973169)
(-0.0419856 0.0160401 0.00199836)
(-0.0522199 0.0161854 0.00461609)
(-0.0751691 0.0109439 0.00990068)
(-0.0963971 -0.0246862 0.016336)
(-0.123313 -0.0953547 0.0196026)
(-0.0481882 -0.221597 -0.00513108)
(-0.011486 0.0348233 -0.00353309)
(-0.0221862 0.0572814 -0.00353639)
(-0.019524 0.051988 -0.00244718)
(-0.0219778 0.0461749 -0.00127733)
(-0.0222015 0.0397466 -0.00024014)
(-0.0223703 0.0340008 0.000463111)
(-0.02239 0.029108 0.000891427)
(-0.0223896 0.0249923 0.00110944)
(-0.022376 0.0215961 0.00118486)
(-0.0222971 0.0188049 0.00115518)
(-0.0222431 0.0167458 0.00109126)
(-0.0221435 0.0154677 0.00103063)
(-0.0223459 0.0155079 0.00115791)
(-0.0229021 0.01731 0.00176632)
(-0.0260513 0.021832 0.00378313)
(-0.0301351 0.0255956 0.00839565)
(-0.0509252 0.0233362 0.0181717)
(-0.0624879 -0.0307915 0.0276249)
(-0.108503 -0.141147 0.0233584)
(-0.0237396 -0.308042 -0.0208442)
(-0.0464381 0.0929449 -0.00973941)
(-0.0314494 0.047788 -0.0047139)
(-0.0240105 0.0410762 -0.0021042)
(-0.00916885 0.0335414 0.000457862)
(0.00258105 0.02693 0.00195536)
(0.0130212 0.0223526 0.00281806)
(0.021481 0.0190739 0.00319799)
(0.0283595 0.0164268 0.00324273)
(0.0337894 0.0143332 0.00309713)
(0.0384694 0.0124939 0.00277519)
(0.0421666 0.0112937 0.00243315)
(0.0461488 0.0102294 0.00207213)
(0.0494309 0.0102459 0.00186052)
(0.0550004 0.0101961 0.00200631)
(0.0574886 0.0114197 0.0034558)
(0.0719497 0.00851076 0.00648227)
(0.0588113 -0.00409879 0.0152686)
(0.0796974 -0.0650212 0.0264278)
(-0.015312 -0.197668 0.00902737)
(0.0250371 -0.337739 -0.0444507)
(0.118036 0.112015 -0.0107576)
(0.146044 0.0605564 -0.0103335)
(0.218758 0.0406651 -0.0091276)
(0.262675 0.0279111 -0.00697789)
(0.294396 0.0193297 -0.00470014)
(0.318647 0.0136089 -0.00275142)
(0.336646 0.00995519 -0.00111876)
(0.350395 0.00751214 4.5929e-05)
(0.359822 0.00602652 0.00100888)
(0.368238 0.00490768 0.00132139)
(0.372447 0.00423669 0.00169921)
(0.379881 0.00378888 0.00146)
(0.379849 0.00303869 0.00143865)
(0.390977 0.00346574 0.00145039)
(0.383039 0.000950562 0.000890513)
(0.403851 0.00171442 0.00309371)
(0.369359 -0.00799464 0.00135516)
(0.3921 -0.0219129 0.00671193)
(0.239206 -0.0628928 -0.00272428)
(0.169221 -0.135029 -0.0637414)
(-0.000181267 0.000185047 -2.97015e-05)
(-0.000948221 0.000374696 8.95257e-06)
(-0.00204535 0.000402513 2.11204e-05)
(-0.00305377 0.000389679 2.73846e-05)
(-0.00401467 0.000364711 2.76906e-05)
(-0.00489553 0.0003318 2.41419e-05)
(-0.00567388 0.000290987 1.78824e-05)
(-0.00632931 0.000241934 9.34242e-06)
(-0.00684108 0.000184491 -1.28553e-06)
(-0.00718886 0.00011871 -1.40464e-05)
(-0.00735395 4.48757e-05 -2.85774e-05)
(-0.00731976 -3.61077e-05 -4.46748e-05)
(-0.0070728 -0.000122716 -6.17685e-05)
(-0.00660516 -0.000212226 -7.90485e-05)
(-0.00591634 -0.000301098 -9.53287e-05)
(-0.00501493 -0.000384841 -0.000108839)
(-0.00392296 -0.000457378 -0.000116628)
(-0.00269261 -0.000507217 -0.000114338)
(-0.00129655 -0.000494765 -9.9472e-05)
(-0.00027028 -0.000267138 -3.56553e-05)
(-0.000383144 0.000970617 -9.0219e-05)
(-0.00169665 0.00167207 -5.37852e-05)
(-0.00345354 0.00176407 -3.82521e-05)
(-0.00507689 0.00169611 -2.62864e-05)
(-0.00661222 0.00157364 -1.98438e-05)
(-0.00800798 0.00141409 -1.68631e-05)
(-0.00922769 0.00121986 -1.62091e-05)
(-0.0102396 0.00099172 -1.7635e-05)
(-0.0110132 0.000730771 -2.11334e-05)
(-0.0115202 0.00043878 -2.67743e-05)
(-0.0117353 0.000118281 -3.46088e-05)
(-0.0116371 -0.000226528 -4.46555e-05)
(-0.0112092 -0.000587363 -5.60512e-05)
(-0.0104432 -0.000954089 -6.82659e-05)
(-0.00934225 -0.00131318 -8.00605e-05)
(-0.0079219 -0.00164736 -8.94368e-05)
(-0.00621764 -0.00193357 -9.28977e-05)
(-0.00430471 -0.00212822 -8.56037e-05)
(-0.00215633 -0.00208777 -6.58823e-05)
(-0.000501459 -0.00126027 5.21336e-06)
(-0.000437559 0.00214077 -0.000116491)
(-0.00191393 0.00348759 -8.17106e-05)
(-0.00387312 0.00365137 -6.48876e-05)
(-0.00567978 0.00350018 -5.04905e-05)
(-0.00738624 0.00323657 -4.14236e-05)
(-0.00893634 0.00289543 -3.56222e-05)
(-0.0102908 0.00248326 -3.20074e-05)
(-0.0114154 0.00200327 -3.04413e-05)
(-0.0122776 0.00145896 -3.1044e-05)
(-0.0128471 0.000854943 -3.39817e-05)
(-0.0130969 0.000197616 -3.92883e-05)
(-0.0130013 -0.000503944 -4.70325e-05)
(-0.0125405 -0.00123506 -5.67151e-05)
(-0.0117044 -0.0019756 -6.77482e-05)
(-0.0104927 -0.00269887 -7.88019e-05)
(-0.00891886 -0.00337098 -8.76787e-05)
(-0.00701869 -0.00394661 -9.04514e-05)
(-0.0048741 -0.00434018 -8.16828e-05)
(-0.00245324 -0.00427618 -5.98508e-05)
(-0.000575281 -0.00269605 1.64561e-05)
(-0.000463668 0.00332004 -0.000139668)
(-0.00203501 0.00533531 -0.000106515)
(-0.00412161 0.00557085 -8.87772e-05)
(-0.00604392 0.00533491 -7.25293e-05)
(-0.00786202 0.00493029 -6.14749e-05)
(-0.00951749 0.00440895 -5.35665e-05)
(-0.0109703 0.00378108 -4.77708e-05)
(-0.0121855 0.00305188 -4.40456e-05)
(-0.0131294 0.00222666 -4.2614e-05)
(-0.0137698 0.001312 -4.37338e-05)
(-0.0140769 0.000317111 -4.75963e-05)
(-0.0140216 -0.000744531 -5.4541e-05)
(-0.0135774 -0.00185439 -6.37396e-05)
(-0.0127259 -0.00298357 -7.4764e-05)
(-0.0114594 -0.00409275 -8.62941e-05)
(-0.00978431 -0.00513035 -9.59217e-05)
(-0.00773179 -0.00602596 -9.9107e-05)
(-0.00538896 -0.00664654 -8.9487e-05)
(-0.00271895 -0.00657184 -6.53773e-05)
(-0.000637649 -0.00419261 1.90031e-05)
(-0.000493435 0.0045826 -0.000162634)
(-0.0021748 0.00731586 -0.000130392)
(-0.00441149 0.0076279 -0.000111692)
(-0.00647171 0.00730295 -9.37906e-05)
(-0.00842418 0.006751 -8.11427e-05)
(-0.0102083 0.0060423 -7.16964e-05)
(-0.0117836 0.0051909 -6.44468e-05)
(-0.013115 0.00420384 -5.94374e-05)
(-0.0141678 0.00308763 -5.69942e-05)
(-0.0149079 0.00184975 -5.74986e-05)
(-0.0153015 0.00050036 -6.12835e-05)
(-0.015314 -0.000945102 -6.86722e-05)
(-0.0149106 -0.0024644 -7.89507e-05)
(-0.0140609 -0.00402207 -9.18124e-05)
(-0.0127437 -0.00556708 -0.000105796)
(-0.0109521 -0.00702857 -0.000118115)
(-0.00870725 -0.00830559 -0.000123352)
(-0.00610094 -0.0092059 -0.000113608)
(-0.00309097 -0.00913967 -8.64658e-05)
(-0.000726549 -0.00587204 1.16342e-05)
(-0.000532682 0.00594482 -0.000189064)
(-0.00235613 0.00945806 -0.000157306)
(-0.00478559 0.00985306 -0.00013745)
(-0.00702275 0.0094341 -0.000117722)
(-0.00914698 0.00872775 -0.00010342)
(-0.0110952 0.00782425 -9.24926e-05)
(-0.0128272 0.00674184 -8.39772e-05)
(-0.0143081 0.00548913 -7.8017e-05)
(-0.0155031 0.00407305 -7.50531e-05)
(-0.0163765 0.00250049 -7.56043e-05)
(-0.0168904 0.000780371 -8.01944e-05)
(-0.0170038 -0.00107317 -8.93905e-05)
(-0.0166703 -0.00303816 -0.000102285)
(-0.0158429 -0.00507511 -0.000118968)
(-0.0144806 -0.00712304 -0.000137838)
(-0.0125538 -0.00909094 -0.00015556)
(-0.0100644 -0.0108405 -0.000165395)
(-0.00710464 -0.0121028 -0.000157012)
(-0.00362385 -0.0120796 -0.000126294)
(-0.000856856 -0.00780628 -7.2315e-06)
(-0.00058273 0.00743382 -0.00022204)
(-0.00258519 0.0118038 -0.000190834)
(-0.00525573 0.0122889 -0.000169477)
(-0.00771244 0.0117686 -0.000147357)
(-0.0100483 0.0108982 -0.000130859)
(-0.0121977 0.00979043 -0.000117975)
(-0.0141215 0.00846832 -0.000107847)
(-0.0157866 0.00694198 -0.000100767)
(-0.0171593 0.00521778 -9.73339e-05)
(-0.0182033 0.00330011 -9.82588e-05)
(-0.0188778 0.00119363 -0.000104341)
(-0.019135 -0.00109282 -0.000116603)
(-0.0189148 -0.00354296 -0.000133872)
(-0.0181482 -0.00611949 -0.000157015)
(-0.016765 -0.00875652 -0.000184317)
(-0.0147 -0.0113441 -0.000211797)
(-0.0119183 -0.0136994 -0.000230758)
(-0.00850122 -0.0154517 -0.000227111)
(-0.00438177 -0.0155333 -0.000193062)
(-0.00104779 -0.0101035 -4.37559e-05)
(-0.000644726 0.00908159 -0.000264455)
(-0.00286728 0.0144023 -0.000234292)
(-0.00583174 0.014984 -0.000210845)
(-0.00855261 0.0143509 -0.000185284)
(-0.0111405 0.0133028 -0.000165483)
(-0.0135273 0.0119781 -0.000149591)
(-0.0156768 0.0104059 -0.00013696)
(-0.0175599 0.00859799 -0.000128111)
(-0.0191463 0.00655949 -0.000123866)
(-0.0204019 0.00429005 -0.00012519)
(-0.0212846 0.00178633 -0.000133189)
(-0.0217416 -0.000953814 -0.000149024)
(-0.0216982 -0.00392771 -0.000173864)
(-0.0210582 -0.00711039 -0.000207326)
(-0.0197114 -0.0104415 -0.000248538)
(-0.0175368 -0.0137993 -0.000293062)
(-0.0144346 -0.0169518 -0.000329505)
(-0.0104457 -0.0193947 -0.000337957)
(-0.00547263 -0.0196914 -0.000302803)
(-0.00133559 -0.0129209 -0.000111514)
(-0.00072074 0.0109244 -0.000319948)
(-0.00321047 0.0173084 -0.000291755)
(-0.00652754 0.0179906 -0.000265188)
(-0.00955919 0.0172268 -0.000234382)
(-0.0124389 0.0159812 -0.00020933)
(-0.0150971 0.0144224 -0.000188553)
(-0.0175029 0.0125875 -0.000171787)
(-0.0196344 0.010491 -0.000159889)
(-0.0214687 0.00813607 -0.000153989)
(-0.022978 0.00551562 -0.000155393)
(-0.0241232 0.00261406 -0.000165534)
(-0.0248505 -0.000589096 -0.000185882)
(-0.025073 -0.00411498 -0.000221875)
(-0.0246643 -0.00796762 -0.000270942)
(-0.0234624 -0.0121115 -0.000334359)
(-0.0212646 -0.0164315 -0.00040801)
(-0.0178611 -0.0206524 -0.000477334)
(-0.0131888 -0.0241023 -0.000513418)
(-0.0070914 -0.0248141 -0.000484261)
(-0.00179348 -0.016505 -0.000237454)
(-0.000814639 0.0130061 -0.00039378)
(-0.003628 0.020586 -0.000368943)
(-0.00736452 0.0213664 -0.000337398)
(-0.0107557 0.0204435 -0.000298255)
(-0.0139653 0.0189711 -0.000264629)
(-0.0169239 0.0171543 -0.000235792)
(-0.0196099 0.0150411 -0.000212128)
(-0.0220132 0.0126499 -0.000194979)
(-0.0241236 0.00998232 -0.000185871)
(-0.0259259 0.00702311 -0.000186571)
(-0.0273913 0.00373989 -0.000199009)
(-0.0284726 8.47894e-05 -0.000225085)
(-0.0290789 -0.00399453 -0.000275909)
(-0.0290578 -0.00856059 -0.000347121)
(-0.0281871 -0.0136342 -0.000444633)
(-0.0261526 -0.0191469 -0.000566697)
(-0.0225716 -0.0248104 -0.000696421)
(-0.0171477 -0.0297665 -0.000792653)
(-0.00961652 -0.031264 -0.00078868)
(-0.00258292 -0.0212834 -0.000480604)
(-0.000933738 0.0153828 -0.000494137)
(-0.00414212 0.0243121 -0.000474423)
(-0.00837625 0.0251759 -0.000434455)
(-0.0121775 0.0240489 -0.000381611)
(-0.015751 0.0223065 -0.000333771)
(-0.0190306 0.0201976 -0.00029161)
(-0.0220096 0.0177847 -0.000256548)
(-0.0246954 0.0150931 -0.000230561)
(-0.0270978 0.0121241 -0.00021561)
(-0.0292229 0.00885412 -0.000214015)
(-0.0310639 0.00523193 -0.000228901)
(-0.0325873 0.00117645 -0.00026579)
(-0.0337211 -0.00341673 -0.000330963)
(-0.0343081 -0.00868953 -0.000430278)
(-0.0340653 -0.014774 -0.000577184)
(-0.0325476 -0.0217233 -0.000776361)
(-0.0291249 -0.0293221 -0.00101342)
(-0.0230388 -0.0365533 -0.00123567)
(-0.0138357 -0.0395371 -0.00130759)
(-0.00408401 -0.0280585 -0.000980558)
(-0.00109216 0.0181319 -0.000634435)
(-0.00479093 0.0285821 -0.000621489)
(-0.00961597 0.0294919 -0.000566604)
(-0.0138784 0.0280901 -0.000490624)
(-0.0178419 0.0260134 -0.000418975)
(-0.0214494 0.023563 -0.000354846)
(-0.0247168 0.0208208 -0.000301226)
(-0.0276762 0.0178215 -0.000260799)
(-0.030365 0.0145692 -0.000235768)
(-0.0328204 0.0110348 -0.000228641)
(-0.0350715 0.00715039 -0.000243187)
(-0.0371239 0.00280133 -0.000285481)
(-0.0389481 -0.00218621 -0.000362511)
(-0.0404207 -0.00806548 -0.000501258)
(-0.0412459 -0.0151415 -0.000715018)
(-0.0408612 -0.0237124 -0.0010281)
(-0.0383347 -0.0338242 -0.00144428)
(-0.0321177 -0.0444426 -0.00191231)
(-0.0214461 -0.0501899 -0.00219884)
(-0.00722687 -0.0385403 -0.00206737)
(-0.00131921 0.0213765 -0.000838074)
(-0.00564168 0.0335295 -0.000832331)
(-0.0111675 0.0344001 -0.000749625)
(-0.0159394 0.0326104 -0.000633283)
(-0.0203047 0.030105 -0.00052129)
(-0.0242267 0.0272428 -0.000421036)
(-0.0277529 0.0241281 -0.000337668)
(-0.0309485 0.0208088 -0.000274418)
(-0.0338858 0.0172952 -0.000233092)
(-0.0366428 0.0135581 -0.000215468)
(-0.0392985 0.00951932 -0.000224915)
(-0.0419252 0.00503257 -0.000267882)
(-0.0445898 -0.000143804 -0.000355293)
(-0.0472701 -0.00635808 -0.000533542)
(-0.0497524 -0.0141563 -0.000813063)
(-0.0514883 -0.0242808 -0.00126199)
(-0.0512909 -0.0373804 -0.00193337)
(-0.0464714 -0.0528097 -0.0028154)
(-0.0359869 -0.0636171 -0.00363545)
(-0.014325 -0.0563779 -0.00447366)
(-0.00167753 0.0252119 -0.00114575)
(-0.00683182 0.0392894 -0.0011414)
(-0.0131768 0.0399982 -0.00100864)
(-0.018485 0.0376647 -0.000821161)
(-0.0232355 0.0345887 -0.000639166)
(-0.0274278 0.0312063 -0.000478559)
(-0.0311498 0.0276533 -0.00034777)
(-0.0345072 0.0239905 -0.000249643)
(-0.0376128 0.0202364 -0.000183921)
(-0.0405925 0.0163704 -0.00014976)
(-0.0435923 0.0123262 -0.000148308)
(-0.0467815 0.00796782 -0.00018646)
(-0.0503317 0.00303803 -0.000276681)
(-0.0544304 -0.00293625 -0.000421709)
(-0.0592204 -0.0108008 -0.000701814)
(-0.0644914 -0.0218734 -0.00123195)
(-0.0690749 -0.0378422 -0.00212658)
(-0.068909 -0.0596813 -0.00350033)
(-0.062671 -0.0794101 -0.00526114)
(-0.028733 -0.0886139 -0.0088424)
(-0.00218431 0.0304066 -0.00165087)
(-0.00838018 0.0459493 -0.0015952)
(-0.0157826 0.0461034 -0.00135934)
(-0.0216777 0.0429002 -0.00103697)
(-0.0267825 0.0391533 -0.000741133)
(-0.031156 0.0352312 -0.00048925)
(-0.034958 0.03124 -0.000289181)
(-0.03835 0.0272378 -0.000141515)
(-0.041484 0.0232619 -4.17249e-05)
(-0.0445221 0.0193184 1.67425e-05)
(-0.0476572 0.0153745 4.21659e-05)
(-0.051151 0.0113224 4.16662e-05)
(-0.0554041 0.0069454 1.73135e-05)
(-0.0609834 0.00175493 -4.68767e-05)
(-0.0685732 -0.00517252 -0.000181967)
(-0.0787761 -0.0155881 -0.000408774)
(-0.0912809 -0.0325022 -0.00088928)
(-0.0993902 -0.0612495 -0.00188005)
(-0.101136 -0.0967375 -0.00369644)
(-0.0455668 -0.14853 -0.0124762)
(-0.00405513 0.035204 -0.00245047)
(-0.0121733 0.0552188 -0.00250879)
(-0.0196783 0.0545749 -0.00203831)
(-0.0258038 0.0504645 -0.00147771)
(-0.0309219 0.0454288 -0.000928749)
(-0.0353173 0.0403087 -0.000471603)
(-0.0390876 0.0353641 -0.000123834)
(-0.042388 0.0307042 0.000117891)
(-0.045382 0.0263673 0.000270466)
(-0.0482662 0.0223577 0.000355235)
(-0.0512986 0.0187011 0.000397908)
(-0.0548241 0.0153956 0.000426903)
(-0.0593722 0.0124491 0.00049394)
(-0.0657793 0.00965406 0.000685079)
(-0.0753009 0.00629899 0.00119171)
(-0.0893658 1.7226e-05 0.0024265)
(-0.109207 -0.014736 0.0047991)
(-0.122703 -0.0557605 0.00801111)
(-0.132424 -0.123878 0.00971861)
(-0.0417847 -0.245978 -0.00962937)
(-0.00262958 0.0500142 -0.00400129)
(-0.0118497 0.0600617 -0.00313078)
(-0.0240205 0.057877 -0.00239498)
(-0.0309211 0.051857 -0.00131967)
(-0.0367258 0.0466202 -0.000506575)
(-0.0408723 0.0415957 0.000119748)
(-0.0439608 0.03683 0.000559159)
(-0.0463862 0.0323097 0.000836092)
(-0.0484353 0.0280904 0.000992638)
(-0.0503077 0.024205 0.00106869)
(-0.0522173 0.0208113 0.00112331)
(-0.0544232 0.0179937 0.00122916)
(-0.0574478 0.0161289 0.00154691)
(-0.0621644 0.0153288 0.00239203)
(-0.0701897 0.015641 0.00448484)
(-0.0827223 0.0131973 0.00923208)
(-0.106001 0.00105924 0.0181869)
(-0.113706 -0.0552664 0.0287222)
(-0.130538 -0.165051 0.0315775)
(-0.00848729 -0.344746 -0.00996117)
(-0.0115957 0.0435575 -0.00583267)
(-0.0285994 0.0844496 -0.00606475)
(-0.0306331 0.0782456 -0.0044699)
(-0.0383813 0.0701951 -0.00259969)
(-0.0410821 0.0606866 -0.000850514)
(-0.0423998 0.0518306 0.000417381)
(-0.0424825 0.0440639 0.00127251)
(-0.0419686 0.0373802 0.0017744)
(-0.0411967 0.0317399 0.00202193)
(-0.0403145 0.026973 0.00208193)
(-0.0396642 0.0232768 0.00208142)
(-0.0391725 0.0207117 0.00211568)
(-0.039426 0.0199886 0.00252349)
(-0.0399052 0.0217417 0.00382447)
(-0.0427395 0.0271628 0.00748135)
(-0.0416934 0.0304244 0.0151003)
(-0.053462 0.0261179 0.0300303)
(-0.0338588 -0.0420864 0.0453513)
(-0.0666973 -0.194331 0.0402352)
(0.0392701 -0.397619 -0.0276155)
(-0.0739258 0.106804 -0.0137752)
(-0.058961 0.0674774 -0.00745694)
(-0.0578064 0.0628639 -0.0038289)
(-0.0384121 0.053338 -0.000185521)
(-0.0215833 0.0441582 0.00208883)
(-0.00453141 0.0370437 0.0036284)
(0.0108528 0.0314875 0.00450801)
(0.0246288 0.0267853 0.00484805)
(0.0362862 0.0229532 0.00485623)
(0.0468059 0.019456 0.00454081)
(0.0550781 0.0170909 0.0041469)
(0.0634911 0.0148187 0.00369736)
(0.0695496 0.0143938 0.00347426)
(0.07935 0.0137713 0.00383282)
(0.0829731 0.015557 0.00614985)
(0.110459 0.0125836 0.0105179)
(0.101099 -0.000859965 0.0220434)
(0.158968 -0.0543034 0.0397253)
(0.0939461 -0.220439 0.0233549)
(0.120339 -0.397052 -0.0512069)
(0.120634 0.140902 -0.0151129)
(0.155571 0.0875232 -0.0149759)
(0.235651 0.0650083 -0.0136462)
(0.290497 0.0493273 -0.0110421)
(0.333248 0.037921 -0.00809876)
(0.368915 0.0293622 -0.00537844)
(0.397866 0.023093 -0.00286856)
(0.423289 0.0181884 -0.000969805)
(0.441728 0.0146476 0.000810769)
(0.461475 0.0117253 0.0016268)
(0.470684 0.00941755 0.00249109)
(0.489594 0.00821513 0.00257007)
(0.489376 0.00584779 0.00239415)
(0.512877 0.00669165 0.00295702)
(0.500842 0.00301972 0.00192686)
(0.533913 0.00334769 0.00430745)
(0.499532 -0.00390112 0.00400566)
(0.525665 -0.023861 0.00415873)
(0.402609 -0.0601177 0.00233991)
(0.290117 -0.140196 -0.0701465)
(-0.000193471 0.00019284 -3.70948e-05)
(-0.00101774 0.000400512 -2.46992e-05)
(-0.00219689 0.000431293 -1.65846e-05)
(-0.00327721 0.000417022 -1.026e-05)
(-0.00430443 0.000389435 -7.42943e-06)