/*--------------------------------*- C++ -*----------------------------------*\
  =========                 |
  \\      /  F ield         | OpenFOAM: The Open Source CFD Toolbox
   \\    /   O peration     | Website:  https://openfoam.org
    \\  /    A nd           | Version:  10
     \\/     M anipulation  |
\*---------------------------------------------------------------------------*/
FoamFile
{
    format      ascii;
    class       volVectorField;
    location    "8.3";
    object      U;
}
// * * * * * * * * * * * * * * * * * * * * * * * * * * * * * * * * * * * * * //

dimensions      [0 1 -1 0 0 0 0];

internalField   nonuniform List<vector> 
400
(
(-0.000154009 0.000136864 0)
(-0.00114966 0.000428244 0)
(-0.00283206 0.000534304 0)
(-0.0045563 0.000568781 0)
(-0.0063375 0.000586207 0)
(-0.00813681 0.00060385 0)
(-0.0099391 0.0006209 0)
(-0.011721 0.000630088 0)
(-0.0134376 0.000621291 0)
(-0.0150186 0.000581805 0)
(-0.0163625 0.000496676 0)
(-0.0173331 0.00035037 0)
(-0.0177633 0.000131054 0)
(-0.0174634 -0.000174262 0)
(-0.0162548 -0.000550606 0)
(-0.0140257 -0.000955707 0)
(-0.0108223 -0.00130245 0)
(-0.00699796 -0.0014605 0)
(-0.00283627 -0.00126958 0)
(-0.000336 -0.000465665 0)
(-0.000493948 0.00117103 0)
(-0.00257691 0.00243733 0)
(-0.00576766 0.00290828 0)
(-0.00903338 0.00305816 0)
(-0.0123681 0.00310083 0)
(-0.0156842 0.00310608 0)
(-0.0189304 0.00307493 0)
(-0.0220477 0.00298183 0)
(-0.024948 0.00278901 0)
(-0.0275078 0.00244985 0)
(-0.0295613 0.00191203 0)
(-0.0308966 0.00112253 0)
(-0.0312741 3.76644e-05 0)
(-0.0304237 -0.00134602 0)
(-0.0280938 -0.00296068 0)
(-0.0241458 -0.00462881 0)
(-0.0186783 -0.00601584 0)
(-0.0122306 -0.00662283 0)
(-0.00526969 -0.00584512 0)
(-0.000839038 -0.00266665 0)
(-0.000644443 0.00302612 0)
(-0.00323527 0.00571062 0)
(-0.00712667 0.00669945 0)
(-0.01108 0.00699583 0)
(-0.015091 0.00703779 0)
(-0.0190546 0.00696884 0)
(-0.0229106 0.00679657 0)
(-0.0265924 0.00647518 0)
(-0.0300044 0.00593373 0)
(-0.0330136 0.00508372 0)
(-0.0354414 0.0038259 0)
(-0.0370607 0.00206238 0)
(-0.0375869 -0.000282325 0)
(-0.0366881 -0.00321753 0)
(-0.0340382 -0.0066112 0)
(-0.0294034 -0.010112 0)
(-0.0228233 -0.0130415 0)
(-0.0149229 -0.0143365 0)
(-0.00628983 -0.0127194 0)
(-0.000914962 -0.00611112 0)
(-0.000693535 0.00500926 0)
(-0.00349722 0.00921559 0)
(-0.00770049 0.0107354 0)
(-0.0119549 0.0111661 0)
(-0.0162705 0.011196 0)
(-0.0205446 0.0110484 0)
(-0.0247263 0.010739 0)
(-0.0287618 0.0102039 0)
(-0.0325702 0.00933985 0)
(-0.0360311 0.00801441 0)
(-0.0389707 0.00607232 0)
(-0.0411485 0.00335326 0)
(-0.0422524 -0.000273716 0)
(-0.0418592 -0.00485232 0)
(-0.039474 -0.0102518 0)
(-0.0346474 -0.01596 0)
(-0.0271944 -0.0208901 0)
(-0.0177583 -0.0231927 0)
(-0.00708785 -0.0205671 0)
(-0.000768279 -0.00967299 0)
(-0.000697232 0.0070787 0)
(-0.00358006 0.0128944 0)
(-0.00792737 0.0149729 0)
(-0.0123306 0.0155499 0)
(-0.0168171 0.0155852 0)
(-0.0212966 0.0153894 0)
(-0.0257404 0.014991 0)
(-0.0301218 0.0143107 0)
(-0.0343913 0.0132148 0)
(-0.0384609 0.0115231 0)
(-0.0421807 0.00901097 0)
(-0.0453107 0.00542276 0)
(-0.0474808 0.000514917 0)
(-0.0481721 -0.0058564 0)
(-0.0466642 -0.0136453 0)
(-0.0421089 -0.0222433 0)
(-0.0338481 -0.0300829 0)
(-0.0222755 -0.0341451 0)
(-0.00825586 -0.030266 0)
(-0.000418616 -0.0135297 0)
(-0.000682894 0.00916432 0)
(-0.00359031 0.0166515 0)
(-0.0080156 0.0193187 0)
(-0.0125121 0.020065 0)
(-0.0171238 0.0201405 0)
(-0.0217791 0.0199537 0)
(-0.0264802 0.0195532 0)
(-0.0312405 0.0188513 0)
(-0.0360589 0.0176881 0)
(-0.0409034 0.0158351 0)
(-0.0456801 0.0129871 0)
(-0.0501816 0.00876122 0)
(-0.0540239 0.0027335 0)
(-0.0565998 -0.00548264 0)
(-0.0569258 -0.0160825 0)
(-0.0535926 -0.0285389 0)
(-0.0450099 -0.0408757 0)
(-0.0305126 -0.0484075 0)
(-0.0106708 -0.0430814 0)
(0.000160064 -0.017826 0)
(-0.000659653 0.0112348 0)
(-0.00356751 0.0204431 0)
(-0.00804143 0.0237299 0)
(-0.0126025 0.0246725 0)
(-0.0173103 0.0248303 0)
(-0.0221148 0.0247229 0)
(-0.0270563 0.0244309 0)
(-0.0322 0.0238702 0)
(-0.0376133 0.0228665 0)
(-0.043352 0.0211512 0)
(-0.0494263 0.0183362 0)
(-0.0557363 0.0138862 0)
(-0.0619865 0.00711248 0)
(-0.0676259 -0.00275012 0)
(-0.0715021 -0.0162838 0)
(-0.0715132 -0.0336705 0)
(-0.0643355 -0.0530966 0)
(-0.0462694 -0.0678971 0)
(-0.0167903 -0.0616006 0)
(0.000667297 -0.0234591 0)
(-0.000629261 0.0132745 0)
(-0.00352216 0.0242494 0)
(-0.00802373 0.0281835 0)
(-0.0126188 0.0293442 0)
(-0.0173804 0.0296215 0)
(-0.0222803 0.0296627 0)
(-0.0274001 0.0295959 0)
(-0.032867 0.0293606 0)
(-0.0388374 0.0287927 0)
(-0.0454924 0.0276129 0)
(-0.0530176 0.0253784 0)
(-0.0615551 0.021421 0)
(-0.0711043 0.0147907 0)
(-0.0813618 0.00424751 0)
(-0.091553 -0.0116944 0)
(-0.0988702 -0.0347856 0)
(-0.0963758 -0.0654614 0)
(-0.0741729 -0.0950235 0)
(-0.0319392 -0.0906938 0)
(-0.00044061 -0.0333559 0)
(-0.000592824 0.0152709 0)
(-0.00345964 0.0280538 0)
(-0.00796853 0.0326532 0)
(-0.0125562 0.034038 0)
(-0.017306 0.0344538 0)
(-0.0222081 0.0346949 0)
(-0.0273836 0.0349566 0)
(-0.0330232 0.0352273 0)
(-0.0393824 0.0353925 0)
(-0.0467996 0.0352188 0)
(-0.0557063 0.0342927 0)
(-0.0666291 0.0319332 0)
(-0.0801935 0.0270933 0)
(-0.0970708 0.0181269 0)
(-0.117121 0.00189533 0)
(-0.136068 -0.0274756 0)
(-0.140437 -0.0762076 0)
(-0.113434 -0.131819 0)
(-0.0624933 -0.136276 0)
(-0.00728333 -0.054395 0)
(-0.000554514 0.0172155 0)
(-0.00339373 0.0318437 0)
(-0.00789381 0.0371071 0)
(-0.0124226 0.0386938 0)
(-0.0170712 0.0392336 0)
(-0.0218404 0.0396886 0)
(-0.0268823 0.0403421 0)
(-0.0324408 0.0412624 0)
(-0.0388612 0.042433 0)
(-0.046637 0.0437507 0)
(-0.0564787 0.0449762 0)
(-0.069413 0.0456616 0)
(-0.0869472 0.0450105 0)
(-0.11112 0.0410727 0)
(-0.142438 0.0274767 0)
(-0.172608 -0.0101259 0)
(-0.180473 -0.0867081 0)
(-0.152215 -0.176419 0)
(-0.106109 -0.196911 0)
(-0.0244886 -0.0984531 0)
(-0.000524342 0.0191138 0)
(-0.00335593 0.0356171 0)
(-0.00784559 0.0415089 0)
(-0.0122607 0.0432319 0)
(-0.0167006 0.0438308 0)
(-0.0211662 0.0444541 0)
(-0.0258231 0.0454892 0)
(-0.0309415 0.0471096 0)
(-0.0369146 0.0494466 0)
(-0.0443341 0.0526225 0)
(-0.0541101 0.0567551 0)
(-0.067637 0.0619296 0)
(-0.0870268 0.0678172 0)
(-0.115147 0.071452 0)
(-0.151435 0.0604547 0)
(-0.184114 0.010508 0)
(-0.190463 -0.0959497 0)
(-0.168974 -0.216363 0)
(-0.137727 -0.265419 0)
(-0.044375 -0.182336 0)
(-0.000523541 0.0210041 0)
(-0.00341035 0.0394175 0)
(-0.00791699 0.0458684 0)
(-0.0121666 0.0476103 0)
(-0.0162822 0.0481341 0)
(-0.0202545 0.0487953 0)
(-0.0242421 0.0500933 0)
(-0.0284979 0.0523159 0)
(-0.0333861 0.0557699 0)
(-0.0394599 0.060866 0)
(-0.0475856 0.0681922 0)
(-0.0590638 0.0784495 0)
(-0.0755625 0.0914079 0)
(-0.0992126 0.101658 0)
(-0.128053 0.0905113 0)
(-0.151836 0.0281214 0)
(-0.155825 -0.0967054 0)
(-0.145176 -0.23917 0)
(-0.132522 -0.329718 0)
(-0.049105 -0.292172 0)
(-0.000582871 0.0229379 0)
(-0.00363945 0.0432123 0)
(-0.0082373 0.0500131 0)
(-0.0122996 0.0515613 0)
(-0.0159934 0.0518307 0)
(-0.0192875 0.0523515 0)
(-0.0223231 0.0536954 0)
(-0.0252906 0.0562404 0)
(-0.0284285 0.0604282 0)
(-0.0320767 0.0668857 0)
(-0.0367346 0.0765206 0)
(-0.043027 0.0902779 0)
(-0.05143 0.107569 0)
(-0.0627829 0.120686 0)
(-0.07593 0.108361 0)
(-0.0854043 0.0394674 0)
(-0.0884205 -0.0894937 0)
(-0.0878979 -0.240085 0)
(-0.100765 -0.363721 0)
(-0.0380833 -0.378087 0)
(-0.000804896 0.0252316 0)
(-0.00431948 0.047612 0)
(-0.00911443 0.0546928 0)
(-0.0128875 0.0558426 0)
(-0.0160089 0.0554952 0)
(-0.0184724 0.0554427 0)
(-0.020371 0.0563518 0)
(-0.0217889 0.0586551 0)
(-0.0227967 0.0628407 0)
(-0.0234356 0.0695809 0)
(-0.0237378 0.0798198 0)
(-0.0234682 0.0943158 0)
(-0.0221444 0.112173 0)
(-0.0193204 0.125041 0)
(-0.0165265 0.112876 0)
(-0.0125721 0.0441635 0)
(-0.0183404 -0.0784405 0)
(-0.0283159 -0.221123 0)
(-0.0682003 -0.36709 0)
(-0.0233655 -0.434383 0)
(-0.00115209 0.0280475 0)
(-0.00515074 0.0512731 0)
(-0.0104637 0.0576304 0)
(-0.0141953 0.0576776 0)
(-0.0169102 0.0566264 0)
(-0.0185009 0.056118 0)
(-0.0191248 0.0566531 0)
(-0.0188287 0.0585329 0)
(-0.0175514 0.0621652 0)
(-0.0150608 0.0681123 0)
(-0.0110503 0.0771365 0)
(-0.00463334 0.0895349 0)
(0.00500462 0.10457 0)
(0.0195439 0.114721 0)
(0.0333015 0.103693 0)
(0.0463426 0.0430814 0)
(0.0361257 -0.0648923 0)
(0.01948 -0.188991 0)
(-0.0437105 -0.353352 0)
(-0.0104671 -0.472589 0)
(-0.00323298 0.0304121 0)
(-0.00959056 0.0586118 0)
(-0.0142295 0.0648679 0)
(-0.0169065 0.0643064 0)
(-0.0182521 0.0615361 0)
(-0.0186213 0.0592282 0)
(-0.0180159 0.058005 0)
(-0.0162888 0.0581705 0)
(-0.0131704 0.0600178 0)
(-0.00818688 0.0638904 0)
(-0.000946879 0.0702342 0)
(0.00991132 0.0790624 0)
(0.0246557 0.0895369 0)
(0.0450637 0.0958048 0)
(0.0638171 0.0866605 0)
(0.0821331 0.0406388 0)
(0.0698722 -0.0453253 0)
(0.0523939 -0.147418 0)
(-0.0258354 -0.329807 0)
(0.00287777 -0.494617 0)
(-0.000978828 0.0439198 0)
(-0.00781804 0.0602389 0)
(-0.0174784 0.0623182 0)
(-0.0202186 0.0583266 0)
(-0.021964 0.0552405 0)
(-0.021591 0.0532059 0)
(-0.019828 0.0521412 0)
(-0.0165609 0.0519531 0)
(-0.0115935 0.0527836 0)
(-0.00443868 0.0547755 0)
(0.00535406 0.0583293 0)
(0.019045 0.0633618 0)
(0.0361541 0.0689926 0)
(0.05918 0.071507 0)
(0.0785654 0.0642038 0)
(0.099947 0.0333396 0)
(0.0856881 -0.0282255 0)
(0.0703448 -0.107012 0)
(-0.00799721 -0.304805 0)
(0.0221858 -0.503729 0)
(-0.0125535 0.0322724 0)
(-0.0233912 0.0802746 0)
(-0.0215845 0.0801524 0)
(-0.0262086 0.0751501 0)
(-0.0264313 0.0677567 0)
(-0.0248443 0.0616508 0)
(-0.0211853 0.0567644 0)
(-0.0156511 0.0530213 0)
(-0.00829207 0.05043 0)
(0.00131217 0.048799 0)
(0.0131427 0.0484245 0)
(0.0282665 0.0489169 0)
(0.045347 0.0505966 0)
(0.0677821 0.050643 0)
(0.0838078 0.0473093 0)
(0.106602 0.0316052 0)
(0.0955464 -0.00523947 0)
(0.103283 -0.066765 0)
(0.0405248 -0.275307 0)
(0.0582114 -0.491009 0)
(-0.0776235 0.0959653 0)
(-0.063262 0.058823 0)
(-0.065397 0.0599413 0)
(-0.0430686 0.0532996 0)
(-0.0254478 0.0463401 0)
(-0.00497551 0.0411789 0)
(0.0143499 0.0374187 0)
(0.0340355 0.0342253 0)
(0.0523012 0.0319162 0)
(0.0721416 0.0298115 0)
(0.0894602 0.0286505 0)
(0.111568 0.027641 0)
(0.127276 0.0271188 0)
(0.156564 0.0263668 0)
(0.166792 0.02134 0)
(0.203368 0.0126156 0)
(0.193085 -0.0209193 0)
(0.224334 -0.0747836 0)
(0.154828 -0.252199 0)
(0.125191 -0.433873 0)
(0.119414 0.140784 0)
(0.152061 0.0861117 0)
(0.228518 0.0635273 0)
(0.283974 0.0480636 0)
(0.325376 0.0374245 0)
(0.363673 0.0296525 0)
(0.392355 0.0242167 0)
(0.42357 0.0201828 0)
(0.443475 0.0172602 0)
(0.472054 0.0149789 0)
(0.484827 0.013274 0)
(0.514284 0.0119756 0)
(0.519729 0.0108648 0)
(0.552253 0.00972949 0)
(0.547412 0.00774697 0)
(0.579966 0.00336968 0)
(0.548939 -0.00586152 0)
(0.554505 -0.0272656 0)
(0.420567 -0.073333 0)
(0.275381 -0.152159 0)
)
;

boundaryField
{
    movingWall
    {
        type            fixedValue;
        value           uniform (1 0 0);
    }
    fixedWalls
    {
        type            noSlip;
    }
    frontAndBack
    {
        type            empty;
    }
}


// ************************************************************************* //
