/*--------------------------------*- C++ -*----------------------------------*\
  =========                 |
  \\      /  F ield         | OpenFOAM: The Open Source CFD Toolbox
   \\    /   O peration     | Website:  https://openfoam.org
    \\  /    A nd           | Version:  10
     \\/     M anipulation  |
\*---------------------------------------------------------------------------*/
FoamFile
{
    format      ascii;
    class       surfaceScalarField;
    location    "3.375";
    object      phi;
}
// * * * * * * * * * * * * * * * * * * * * * * * * * * * * * * * * * * * * * //

dimensions      [0 3 -1 0 0 0 0];

internalField   nonuniform List<scalar> 
760
(
-1.05189e-05
1.05189e-05
-3.0775e-05
2.02561e-05
-5.26011e-05
2.18261e-05
-7.37311e-05
2.113e-05
-9.34565e-05
1.97254e-05
-0.000111322
1.78653e-05
-0.00012689
1.55682e-05
-0.000139714
1.28244e-05
-0.000149343
9.62819e-06
-0.000155327
5.9849e-06
-0.000157243
1.9154e-06
-0.000154704
-2.53882e-06
-0.000147419
-7.28491e-06
-0.000135233
-1.21863e-05
-0.000118179
-1.70535e-05
-9.65435e-05
-2.16358e-05
-7.09615e-05
-2.5582e-05
-4.27441e-05
-2.82174e-05
-1.53854e-05
-2.73587e-05
-1.53854e-05
-2.09246e-05
3.14435e-05
-5.52862e-05
5.46177e-05
-9.15555e-05
5.80953e-05
-0.000126437
5.60116e-05
-0.000158741
5.20289e-05
-0.000187668
4.67923e-05
-0.000212494
4.03948e-05
-0.000232528
3.28577e-05
-0.000247105
2.42051e-05
-0.000255598
1.44783e-05
-0.000257442
3.75977e-06
-0.000252176
-7.8055e-06
-0.000239431
-2.00294e-05
-0.000219083
-3.25343e-05
-0.000191278
-4.48588e-05
-0.000156523
-5.63905e-05
-0.000115828
-6.62767e-05
-7.11748e-05
-7.28711e-05
-2.74754e-05
-7.10581e-05
-4.28609e-05
-2.40026e-05
5.54461e-05
-6.27962e-05
9.34114e-05
-0.000103541
9.88404e-05
-0.000142635
9.51055e-05
-0.000178792
8.81855e-05
-0.000211145
7.91451e-05
-0.000238909
6.81593e-05
-0.000261339
5.52872e-05
-0.00027772
4.05867e-05
-0.000287385
2.41435e-05
-0.000289732
6.10638e-06
-0.00028413
-1.3407e-05
-0.000270205
-3.39551e-05
-0.000247748
-5.49906e-05
-0.000216833
-7.57744e-05
-0.000177932
-9.5291e-05
-0.000132097
-0.000112112
-8.15046e-05
-0.000123464
-3.16839e-05
-0.000120879
-7.45448e-05
-2.55087e-05
8.09548e-05
-6.68415e-05
0.000134744
-0.000110218
0.000142217
-0.000151856
0.000136743
-0.000190438
0.000126768
-0.000225088
0.000113794
-0.000255007
9.80787e-05
-0.000279431
7.97115e-05
-0.000297617
5.8772e-05
-0.000308839
3.53658e-05
-0.000312415
9.68219e-06
-0.000307632
-1.81894e-05
-0.000293884
-4.77036e-05
-0.000270768
-7.81061e-05
-0.000238169
-0.000108374
-0.000196399
-0.000137061
-0.000146446
-0.000162064
-9.06672e-05
-0.000179243
-3.52996e-05
-0.000176246
-0.000109844
-2.71549e-05
0.00010811
-7.13328e-05
0.000178922
-0.000117713
0.000188598
-0.000162298
0.000181327
-0.00020374
0.00016821
-0.000241159
0.000151214
-0.000273761
0.00013068
-0.000300771
0.000106721
-0.000321417
7.94177e-05
-0.000334912
4.88609e-05
-0.000340449
1.52198e-05
-0.000337174
-2.14647e-05
-0.000324212
-6.06656e-05
-0.00030084
-0.000101478
-0.000266573
-0.000142641
-0.000221403
-0.000182231
-0.000166156
-0.000217311
-0.000103398
-0.000242001
-4.03989e-05
-0.000239245
-0.000150243
-2.92827e-05
0.000137392
-7.70885e-05
0.000226728
-0.000127297
0.000238806
-0.000175629
0.00022966
-0.000220705
0.000213285
-0.000261651
0.00019216
-0.000297686
0.000166716
-0.000328046
0.000137081
-0.000351943
0.000103315
-0.000368532
6.54499e-05
-0.000376884
2.35714e-05
-0.000375953
-2.23958e-05
-0.000364494
-7.21244e-05
-0.000341331
-0.000124641
-0.000305413
-0.000178559
-0.000256149
-0.000231495
-0.000193981
-0.000279478
-0.000121635
-0.000314347
-4.78518e-05
-0.000313029
-0.000198095
-3.19663e-05
0.000169359
-8.43007e-05
0.000279062
-0.000139256
0.000293761
-0.000192204
0.000282608
-0.000241729
0.000262811
-0.000286984
0.000237415
-0.00032723
0.000206962
-0.000361742
0.000171593
-0.000389751
0.000131323
-0.000410381
8.60802e-05
-0.00042259
3.578e-05
-0.000425145
-1.98407e-05
-0.000416324
-8.09451e-05
-0.000394336
-0.00014663
-0.000357273
-0.000215622
-0.000303548
-0.00028522
-0.000232771
-0.000350256
-0.000147589
-0.000399528
-5.87545e-05
-0.000401863
-0.00025685
-3.52533e-05
0.000204612
-9.30945e-05
0.000336903
-0.000153762
0.000354428
-0.000212205
0.000341052
-0.000266982
0.000317587
-0.0003173
0.000287733
-0.000362504
0.000252166
-0.000401963
0.000211053
-0.000434987
0.000164347
-0.000460728
0.000111822
-0.000478081
5.31328e-05
-0.000485679
-1.2243e-05
-0.000481241
-8.53826e-05
-0.000462197
-0.000165674
-0.000425408
-0.000252411
-0.000367648
-0.00034298
-0.000286827
-0.000431077
-0.000184857
-0.000501498
-7.50987e-05
-0.000511622
-0.000331948
-3.92198e-05
0.000243832
-0.000103647
0.000401331
-0.000171044
0.000421825
-0.00023586
0.000405868
-0.000296644
0.000378371
-0.000352703
0.000343793
-0.000403531
0.000302994
-0.000448668
0.000256189
-0.000487594
0.000203273
-0.000519599
0.000143826
-0.00054359
7.7124e-05
-0.000558321
2.48803e-06
-0.000560792
-8.29119e-05
-0.000547655
-0.000178811
-0.000514082
-0.000285984
-0.000454296
-0.000402765
-0.000362997
-0.000522377
-0.00023973
-0.000624765
-0.000100849
-0.000650503
-0.000432797
-4.40003e-05
0.000287832
-0.000116246
0.000473576
-0.000191455
0.000497034
-0.0002635
0.000477914
-0.00033096
0.00044583
-0.000393308
0.000406141
-0.000450267
0.000359953
-0.000501654
0.000307576
-0.000547259
0.000248878
-0.000586692
0.000183259
-0.000619176
0.000109609
-0.000643103
2.64144e-05
-0.000656183
-6.98315e-05
-0.000653621
-0.000181374
-0.000628659
-0.000310945
-0.000571859
-0.000459565
-0.000472343
-0.000621893
-0.000323805
-0.000773303
-0.000144517
-0.00082979
-0.000577314
-4.98349e-05
0.000337667
-0.000131362
0.000555103
-0.000215547
0.000581219
-0.000295628
0.000557995
-0.000370288
0.00052049
-0.000439258
0.000475111
-0.000502594
0.000423289
-0.000560514
0.000365496
-0.000613275
0.000301639
-0.000661016
0.000231001
-0.000703516
0.000152108
-0.000739718
6.26164e-05
-0.000767836
-4.17133e-05
-0.000782575
-0.000166635
-0.000775339
-0.000318182
-0.000732013
-0.000502892
-0.000632843
-0.000721062
-0.000459734
-0.000946412
-0.000225848
-0.00106368
-0.000803163
-5.7159e-05
0.000394826
-0.000149781
0.000647725
-0.000244191
0.000675629
-0.00033301
0.000646815
-0.000415169
0.000602649
-0.00049078
0.000550722
-0.000560351
0.00049286
-0.000624632
0.000429777
-0.000684516
0.000361523
-0.000740933
0.000287418
-0.00079465
0.000205825
-0.000845798
0.000113765
-0.000894052
6.54108e-06
-0.000935092
-0.000125595
-0.00095996
-0.000293314
-0.000950099
-0.000512753
-0.000873702
-0.00079746
-0.000692118
-0.001128
-0.000393295
-0.0013625
-0.00119646
-6.68078e-05
0.000461634
-0.000172829
0.000753745
-0.000278742
0.000781542
-0.000376798
0.000744871
-0.000466416
0.000692267
-0.000548253
0.00063256
-0.000623396
0.000568002
-0.000693229
0.00049961
-0.000759412
0.000427706
-0.00082389
0.000351896
-0.00088889
0.000270825
-0.000956709
0.000181583
-0.00102932
7.91488e-05
-0.00110753
-4.73784e-05
-0.0011847
-0.000216151
-0.00124287
-0.000454578
-0.00123822
-0.000802115
-0.0010964
-0.00126981
-0.000732446
-0.00172645
-0.0019289
-8.04535e-05
0.000542087
-0.000202983
0.000876275
-0.000321369
0.000899929
-0.000428653
0.000852155
-0.000525191
0.000788805
-0.000612309
0.000719677
-0.000691726
0.000647419
-0.000765523
0.000573407
-0.000836157
0.000498341
-0.000906703
0.000422442
-0.000981243
0.000345365
-0.00106515
0.000265486
-0.00116456
0.000178565
-0.00128671
7.47651e-05
-0.00143902
-6.38343e-05
-0.00161522
-0.00027838
-0.00176668
-0.000650655
-0.00175035
-0.00128615
-0.00131545
-0.00216135
-0.00324435
-9.81972e-05
0.000640284
-0.000241447
0.00101952
-0.000374339
0.00103282
-0.000491367
0.000969183
-0.000593756
0.000891194
-0.000684199
0.00081012
-0.000765612
0.000728833
-0.000840754
0.000648549
-0.000912566
0.000570153
-0.000984648
0.000494524
-0.00106226
0.000422979
-0.00115377
0.000356989
-0.00127313
0.000297935
-0.0014413
0.000242932
-0.00168361
0.000178473
-0.00201858
5.65911e-05
-0.00240693
-0.000262303
-0.00253843
-0.00115465
-0.00191508
-0.0027847
-0.00515943
-0.000155725
0.00079601
-0.000313091
0.00117689
-0.000447846
0.00116758
-0.000564111
0.00108545
-0.000667589
0.000994672
-0.000759777
0.000902308
-0.000842226
0.000811281
-0.000916733
0.000723056
-0.00098616
0.000639579
-0.00105433
0.000562692
-0.00112777
0.000496423
-0.0012162
0.000445419
-0.00133783
0.000419559
-0.00152251
0.000427619
-0.0018161
0.000472058
-0.00223517
0.000475666
-0.00273558
0.000238107
-0.00287878
-0.00101145
-0.00197923
-0.00368425
-0.00713866
-0.0001174
0.000913409
-0.000343938
0.00140343
-0.000524538
0.00134818
-0.000666222
0.00122713
-0.000776053
0.0011045
-0.000861495
0.00098775
-0.000929646
0.000879433
-0.000985713
0.000779123
-0.001034
0.000687868
-0.00107671
0.000605402
-0.00111832
0.000538029
-0.00116449
0.000491587
-0.00123001
0.000485087
-0.00133921
0.000536812
-0.0015436
0.000676452
-0.0018379
0.000769962
-0.00224602
0.00064623
-0.00230979
-0.00094768
-0.00141943
-0.00457461
-0.00855809
-0.000398554
0.00131196
-0.00053723
0.00154211
-0.000658579
0.00146953
-0.000765671
0.00133422
-0.000828826
0.00116766
-0.000859646
0.00101857
-0.000869052
0.000888839
-0.000863173
0.000773244
-0.000849256
0.000673952
-0.000827656
0.000583801
-0.000804748
0.000515121
-0.00077627
0.00046311
-0.000746211
0.000455028
-0.000699163
0.000489765
-0.000635072
0.000612361
-0.000537001
0.000671891
-0.000355766
0.000464995
-0.000362272
-0.000941174
-8.71216e-05
-0.00484976
-0.00864522
-0.00129188
0.00260385
-0.00121914
0.00146937
-0.000975601
0.00122598
-0.00063956
0.000998182
-0.000290976
0.000819074
4.49393e-05
0.000682655
0.000354282
0.000579496
0.00063525
0.000492276
0.000886112
0.00042309
0.00110938
0.000360535
0.00131512
0.000309376
0.00150196
0.000276274
0.0017132
0.000243789
0.00195169
0.000251267
0.00233102
0.00023304
0.00281603
0.000186873
0.0033494
-6.83698e-05
0.00343934
-0.00103112
0.00220204
-0.00361246
-0.00644318
0.00260385
0.00407321
0.00529919
0.00629738
0.00711645
0.00779911
0.0083786
0.00887088
0.00929397
0.0096545
0.00996388
0.0102402
0.0104839
0.0107352
0.0109682
0.0111551
0.0110868
0.0100556
0.00644318
)
;

boundaryField
{
    movingWall
    {
        type            calculated;
        value           uniform 0;
    }
    fixedWalls
    {
        type            calculated;
        value           uniform 0;
    }
    frontAndBack
    {
        type            empty;
        value           nonuniform List<scalar> 0();
    }
}


// ************************************************************************* //
