/*--------------------------------*- C++ -*----------------------------------*\
  =========                 |
  \\      /  F ield         | OpenFOAM: The Open Source CFD Toolbox
   \\    /   O peration     | Website:  https://openfoam.org
    \\  /    A nd           | Version:  10
     \\/     M anipulation  |
\*---------------------------------------------------------------------------*/
FoamFile
{
    format      ascii;
    class       volScalarField;
    location    "1.8";
    object      p;
}
// * * * * * * * * * * * * * * * * * * * * * * * * * * * * * * * * * * * * * //

dimensions      [0 2 -2 0 0 0 0];

internalField   nonuniform List<scalar> 
8000
(
1.74312e-06
1.02774e-05
8.73825e-05
0.000215231
0.000394608
0.000622511
0.000894499
0.00120495
0.00154704
0.00191275
0.00229295
0.00267746
0.00305524
0.00341463
0.00374379
0.00403114
0.00426589
0.00443891
0.00454656
0.00456528
-5.55474e-06
9.60697e-07
7.78889e-05
0.000205187
0.000384034
0.000611582
0.00088349
0.00119425
0.00153715
0.00190423
0.00228627
0.00267337
0.00305421
0.00341703
0.00374979
0.00404068
0.00427862
0.00445423
0.00456414
0.00458272
-8.54654e-05
-8.05525e-05
-2.25804e-06
0.000127789
0.000310981
0.000544506
0.000824089
0.00114426
0.00149827
0.0018781
0.00227461
0.00267738
0.00307475
0.0034545
0.00380391
0.00411031
0.00436169
0.00454768
0.00466439
0.00468355
-0.000224459
-0.000220607
-0.000139508
-4.34826e-06
0.000186607
0.000430651
0.000723577
0.00105995
0.00143298
0.00183455
0.00225519
0.00268438
0.00310972
0.00351806
0.00389562
0.00422835
0.00450264
0.00470646
0.00483493
0.0048564
-0.000427335
-0.000424579
-0.000339266
-0.000196554
5.74939e-06
0.000265084
0.000577332
0.000937088
0.00133753
0.00177038
0.00222585
0.00269313
0.00315887
0.00360879
0.00402753
0.00439907
0.00470744
0.004938
0.00508423
0.0051097
-0.000698989
-0.00069763
-0.000606773
-0.000454146
-0.000236954
4.24421e-05
0.000380047
0.000770516
0.001207
0.00168105
0.00218246
0.00270044
0.00322023
0.00372626
0.00420116
0.00462625
0.00498222
0.00525064
0.0054223
0.00545396
-0.00104548
-0.00104605
-0.000948435
-0.000783667
-0.000548158
-0.000244
0.000124991
0.000553577
0.00103493
0.00156056
0.0021205
0.00270175
0.00329042
0.00386894
0.00441747
0.00491391
0.00533444
0.00565511
0.00586248
0.00590349
-0.0014745
-0.00147782
-0.0013724
-0.00119344
-0.000936328
-0.000602793
-0.000196414
0.000277741
0.000812915
0.00140051
0.00202989
0.00269001
0.0033641
0.00403368
0.00467647
0.00526619
0.00577307
0.00616533
0.00642269
0.00647803
-0.00199557
-0.00200285
-0.00188876
-0.00169378
-0.00141193
-0.0010445
-0.000594763
-6.75607e-05
0.000530593
0.00119149
0.001905
0.00265679
0.0034333
0.00421467
0.00497599
0.00568625
0.00630808
0.00679874
0.00712672
0.00720477
-0.00262036
-0.00263333
-0.00250993
-0.00229728
-0.00198769
-0.0015819
-0.00108285
-0.000495219
0.000174654
0.000918773
0.00172725
0.0025875
0.00348556
0.00440178
0.00530989
0.00617455
0.00694922
0.00757643
0.00800579
0.00812171
-0.00336325
-0.00338426
-0.00325114
-0.00301935
-0.00267901
-0.00223022
-0.00167571
-0.00102013
-0.000269778
0.000567683
0.00148324
0.0024661
0.00350401
0.00457898
0.00566548
0.00672559
0.0077034
0.0085226
0.00910033
0.00928317
-0.00424238
-0.00427442
-0.0041313
-0.00387882
-0.00350436
-0.00300737
-0.00239062
-0.00165912
-0.00081948
0.000120862
0.00115407
0.00227172
0.00346543
0.00472168
0.00601956
0.0073228
0.00856892
0.00966202
0.0104614
0.0107711
-0.0052817
-0.00532783
-0.00517436
-0.004899
-0.00448604
-0.00393418
-0.00324688
-0.00243033
-0.00149224
-0.000440371
0.000718595
0.00197927
0.00333954
0.00479402
0.00633295
0.00793028
0.00952444
0.0110124
0.0121497
0.0127104
-0.00651813
-0.00657797
-0.006412
-0.00610936
-0.00565093
-0.00503442
-0.00426506
-0.00335174
-0.00230483
-0.00113354
0.000156045
0.00156123
0.00308973
0.00474667
0.00654357
0.00847935
0.0105096
0.0125663
0.0142265
0.0153019
-0.00797821
-0.00805916
-0.00788189
-0.00754618
-0.0070311
-0.00633412
-0.00546508
-0.0044382
-0.00326911
-0.00197038
-0.000548388
0.000999784
0.00267724
0.00451804
0.00656119
0.00885292
0.0113951
0.0142573
0.0167041
0.0188997
-0.00992106
-0.00987462
-0.00965729
-0.00926297
-0.00866642
-0.0078605
-0.00686301
-0.0056974
-0.00438754
-0.00295173
-0.00139894
0.000276681
0.00210111
0.00408193
0.00631991
0.00893482
0.011999
0.0158932
0.0193871
0.0239214
-0.01184
-0.0120592
-0.0118026
-0.0113375
-0.0106191
-0.00964585
-0.0084677
-0.00712348
-0.00564701
-0.00406377
-0.00239282
-0.000646267
0.00117248
0.00312251
0.00531586
0.00803594
0.0111678
0.0166178
0.0212625
0.0308165
-0.0165275
-0.0142996
-0.0141011
-0.0133782
-0.0125469
-0.0114558
-0.0101327
-0.00861707
-0.00696186
-0.00521281
-0.0033999
-0.00152613
0.00041832
0.00253031
0.00480649
0.00770221
0.010988
0.0174106
0.0238715
0.039939
-0.0185372
-0.0195906
-0.0186036
-0.0176969
-0.0162606
-0.0144414
-0.0124916
-0.0104887
-0.00847732
-0.0064794
-0.00452133
-0.00261853
-0.000826454
0.000922166
0.00219088
0.00413739
0.00445146
0.0128747
0.0149059
0.0501527
-0.0419916
-0.0184774
-0.018131
-0.0169573
-0.0155454
-0.0140724
-0.0124428
-0.0106315
-0.00870839
-0.00673804
-0.00478601
-0.00282784
-0.00100673
0.00097545
0.00262176
0.00580814
0.0098294
0.0240725
0.0472373
0.113773
5.27781e-06
6.57134e-06
8.2792e-05
0.000210268
0.000389881
0.000618347
0.000891113
0.00120252
0.0015457
0.00191267
0.00229418
0.00268009
0.00305929
0.0034201
0.00375059
0.00403908
0.00427458
0.0044476
0.00455468
0.00456668
3.19762e-06
3.30079e-06
7.94318e-05
0.000205975
0.000384468
0.000611832
0.000883683
0.0011945
0.00153753
0.00190483
0.00228722
0.0026747
0.00305599
0.00341933
0.0037526
0.00404391
0.004282
0.00445719
0.00456639
0.00457789
-7.54139e-05
-7.71968e-05
3.19345e-07
0.000129536
0.000312279
0.000545527
0.000824935
0.00114502
0.00149903
0.00187897
0.00227568
0.00267872
0.00307647
0.00345666
0.00380651
0.00411328
0.00436477
0.00455024
0.00466617
0.00467758
-0.000212866
-0.000216142
-0.000135846
-1.60515e-06
0.000188811
0.000432483
0.000725131
0.00106131
0.00143424
0.00183581
0.00225657
0.00268595
0.00311158
0.0035203
0.00389827
0.00423134
0.0045057
0.00470892
0.0048365
0.00484947
-0.000414143
-0.000419103
-0.000334632
-0.000192922
8.77623e-06
0.000267677
0.000579586
0.000939089
0.00133938
0.00177218
0.00222777
0.00269519
0.00316122
0.00361154
0.00403072
0.00440264
0.00471108
0.00494096
0.00508617
0.00510209
-0.000683882
-0.000691012
-0.000601046
-0.000449516
-0.000232999
4.59057e-05
0.000383121
0.000773294
0.00120958
0.00168354
0.00218511
0.00270322
0.00322337
0.00372987
0.00420531
0.00463088
0.00498699
0.00525467
0.00542515
0.00544583
-0.00102792
-0.00103796
-0.000941299
-0.00077776
-0.000543021
-0.000239433
0.000129103
0.000557338
0.00103842
0.00156373
0.00212272
0.00270528
0.00329464
0.0038738
0.00442304
0.00492016
0.00534099
0.00566089
0.00586689
0.00589502
-0.00145373
-0.00146775
-0.00136338
-0.00118583
-0.000929639
-0.000596801
-0.000190978
0.000282754
0.000817602
0.0014046
0.00203029
0.00269459
0.00336978
0.00404025
0.00468403
0.00527477
0.0057823
0.00617389
0.0064297
0.00646961
-0.00197055
-0.00199008
-0.00187717
-0.00168388
-0.00140319
-0.00103667
-0.000587657
-6.09738e-05
0.000536953
0.00119838
0.00191619
0.00266438
0.00344107
0.00422349
0.00498627
0.00569816
0.00632129
0.00681167
0.00713802
0.00719735
-0.00258958
-0.00261677
-0.00249478
-0.00228429
-0.00197627
-0.00157174
-0.00107371
-0.000486804
0.000182672
0.000926864
0.00173614
0.00259656
0.00349556
0.00441341
0.00532378
0.00619114
0.00696835
0.00759634
0.0080243
0.00811801
-0.00332447
-0.00336228
-0.00323101
-0.00300215
-0.00266409
-0.00221718
-0.00166417
-0.00100968
-0.000259968
0.000577331
0.00149326
0.00247707
0.00351653
0.00459396
0.00568398
0.00674859
0.00773125
0.00855372
0.00913096
0.00928852
-0.00419204
-0.0042445
-0.00410409
-0.0038559
-0.00348499
-0.00299093
-0.00237648
-0.00164663
-0.00080799
0.000132015
0.00116564
0.00228461
0.00348046
0.00474028
0.00604351
0.00735418
0.00860927
0.00971102
0.0105122
0.0107965
-0.0052136
-0.00528574
-0.00513689
-0.00486839
-0.00446124
-0.00391412
-0.00323041
-0.00241637
-0.0014798
-0.000428495
0.000730964
0.00199347
0.00335635
0.00481564
0.00636231
0.00797127
0.00958119
0.0110889
0.0122335
0.0127838
-0.00642196
-0.00651741
-0.00635981
-0.0060688
-0.00562035
-0.00501158
-0.00424782
-0.00333822
-0.00229348
-0.00112307
0.000167106
0.00157562
0.00310586
0.00476864
0.0065755
0.00852755
0.010583
0.0126809
0.0143654
0.0154858
-0.00782213
-0.00796586
-0.00780708
-0.00749363
-0.00699655
-0.00631242
-0.00545197
-0.00443032
-0.00326405
-0.00196653
-0.000544682
0.00100252
0.00268644
0.00453373
0.00658681
0.00889605
0.0114723
0.0144079
0.016917
0.0193282
-0.00968967
-0.00972916
-0.00955223
-0.00919896
-0.00863647
-0.00785277
-0.00686786
-0.00570785
-0.00439983
-0.00296399
-0.00141008
0.000267997
0.00208878
0.00406877
0.00630574
0.00892205
0.0119969
0.0159997
0.0195693
0.024727
-0.0113573
-0.0118639
-0.011673
-0.0113047
-0.0106439
-0.00969649
-0.00852684
-0.00718144
-0.00570006
-0.00411164
-0.00243765
-0.000691395
0.00112797
0.00306081
0.00521361
0.00786483
0.0108842
0.0163214
0.0209276
0.0316929
-0.0156533
-0.0136747
-0.0137742
-0.013256
-0.0125775
-0.0115618
-0.0102692
-0.00875674
-0.00709086
-0.00532634
-0.00349999
-0.00161796
0.00031366
0.00238943
0.00458907
0.00719855
0.00986437
0.0159301
0.0218158
0.0399558
-0.0161887
-0.0191892
-0.0186574
-0.018221
-0.0169301
-0.015088
-0.0130465
-0.0109368
-0.00883332
-0.00676279
-0.00475797
-0.00282925
-0.00105869
0.000602076
0.00160292
0.00307744
0.00243064
0.00935953
0.0115658
0.0501138
-0.0391812
-0.0168087
-0.0172525
-0.0168266
-0.0157359
-0.0143676
-0.0127669
-0.0109391
-0.00897804
-0.00696439
-0.00499326
-0.0030046
-0.00125257
0.000699312
0.00195491
0.00477959
0.00797355
0.0227303
0.0516528
0.126164
8.1239e-06
7.72096e-06
8.33503e-05
0.000210395
0.000389819
0.000618262
0.000891127
0.00120273
0.00154621
0.00191349
0.00229544
0.00268183
0.00306155
0.00342286
0.0037538
0.00404263
0.00427828
0.00445116
0.00455793
0.00456826
7.43726e-06
5.81906e-06
8.14307e-05
0.000207469
0.000385643
0.000612818
0.000884564
0.00119535
0.00153842
0.00190584
0.00228842
0.00267613
0.00305771
0.00342133
0.00375486
0.00404634
0.00428446
0.0044594
0.00456828
0.00457812
-7.05327e-05
-7.40854e-05
2.93486e-06
0.000131606
0.000313973
0.00054696
0.000826194
0.00114618
0.00150018
0.00188017
0.002277
0.00268023
0.00307822
0.00345866
0.00380875
0.00411568
0.00436717
0.00455238
0.00466794
0.00467756
-0.000207056
-0.000212216
-0.000132435
1.20987e-06
0.000191182
0.000434515
0.000726908
0.00106291
0.00143575
0.00183731
0.00225815
0.00268765
0.00311348
0.00352244
0.00390062
0.00423385
0.00450821
0.00471113
0.00483831
0.00484931
-0.000407242
-0.000414258
-0.000330348
-0.000189306
1.18721e-05
0.000270357
0.000581936
0.000941196
0.00134133
0.00177409
0.00222973
0.00269725
0.00316346
0.00361402
0.00403346
0.00440557
0.00471404
0.00494361
0.00508839
0.00510213
-0.000675624
-0.000685039
-0.000595705
-0.000444947
-0.000229049
4.93433e-05
0.00038614
0.000775996
0.00121208
0.00168597
0.00218763
0.00270579
0.00322612
0.00373292
0.00420868
0.00463454
0.00499076
0.00525816
0.0054282
0.00544644
-0.00101791
-0.00103053
-0.000934606
-0.000771986
-0.000538012
-0.000235074
0.00013292
0.000560738
0.00104156
0.00156684
0.00212619
0.00270853
0.00329805
0.00387759
0.00442731
0.00492489
0.005346
0.00566573
0.00587131
0.00589662
-0.00144141
-0.00145839
-0.00135491
-0.00117851
-0.000923294
-0.000591314
-0.000186217
0.000286947
0.000821456
0.0014087
0.00203766
0.00269884
0.00337395
0.00404493
0.00468943
0.00528095
0.00578907
0.00618073
0.00643627
0.00647301
-0.00195511
-0.00197811
-0.00186633
-0.00167452
-0.00139516
-0.00102982
-0.000581819
-5.59569e-05
0.000541322
0.00120197
0.00191641
0.00266812
0.00344579
0.00422911
0.00499301
0.0057062
0.0063305
0.00682145
0.00714786
0.00720374
-0.00256988
-0.00260121
-0.00248075
-0.00227227
-0.00196612
-0.00156327
-0.00106669
-0.000480957
0.000187634
0.000931168
0.00173985
0.00260099
0.00350084
0.0044199
0.00533195
0.00620139
0.00698078
0.00761033
0.008039
0.0081284
-0.00329878
-0.00334171
-0.00321262
-0.00298664
-0.00265132
-0.00220689
-0.001656
-0.00100319
-0.000254729
0.000581762
0.00149734
0.0024815
0.00352185
0.00460089
0.00569331
0.00676118
0.00774765
0.00857363
0.00915305
0.00930633
-0.00415771
-0.00421676
-0.00407969
-0.00383583
-0.00346908
-0.00297875
-0.00236742
-0.00164002
-0.000803164
0.000135711
0.00116885
0.00228799
0.00348474
0.00474655
0.00605302
0.00736853
0.00862998
0.0097389
0.0105452
0.0108281
-0.0051664
-0.00524753
-0.00510408
-0.00484239
-0.00444177
-0.00390034
-0.00322126
-0.00241075
-0.00147668
-0.000426942
0.000731761
0.00199423
0.00335785
0.00481908
0.00636957
0.00798517
0.00960498
0.0111263
0.0122821
0.0128405
-0.006355
-0.00646376
-0.00631521
-0.00603529
-0.00559725
-0.00499726
-0.00424032
-0.00333571
-0.00229428
-0.00112587
0.000163272
0.00157143
0.00310153
0.00476532
0.00657563
0.00853519
0.0106045
0.012726
0.0144338
0.0155859
-0.00772156
-0.00788831
-0.00774542
-0.00745079
-0.00697069
-0.00630014
-0.0054496
-0.00443457
-0.00327232
-0.00197712
-0.000556713
0.000989235
0.00267165
0.0045176
0.0065709
0.00888503
0.0114768
0.0144503
0.0170054
0.0195023
-0.00953962
-0.00961414
-0.0094659
-0.0091444
-0.00861018
-0.00784792
-0.00687716
-0.00572538
-0.00442167
-0.00298799
-0.00143548
0.000241149
0.00205861
0.00403259
0.00626214
0.00887554
0.0119557
0.0160025
0.0196464
0.0249926
-0.0111146
-0.0117023
-0.011555
-0.0112482
-0.0106314
-0.00971438
-0.00856205
-0.00722471
-0.00574621
-0.00415848
-0.00248578
-0.000743764
0.00106728
0.00297924
0.0050976
0.00771495
0.0106967
0.0161552
0.0208631
0.031956
-0.0152662
-0.0133743
-0.0135631
-0.0131494
-0.0125527
-0.0115909
-0.0103291
-0.00883075
-0.00716816
-0.00540236
-0.00357521
-0.00169696
0.000217013
0.0022527
0.00433024
0.00692812
0.00944169
0.0154562
0.0213787
0.0400493
-0.0154483
-0.0187986
-0.0184061
-0.0181963
-0.0170338
-0.0152504
-0.0132227
-0.0111021
-0.00898174
-0.00689402
-0.00487865
-0.00294797
-0.00119285
0.000434762
0.00141607
0.00258579
0.00164401
0.00827398
0.011018
0.0502448
-0.0383627
-0.0162161
-0.016863
-0.0166928
-0.0157521
-0.014451
-0.0128826
-0.0110627
-0.00909666
-0.00707437
-0.00510225
-0.00311691
-0.00140313
0.000499012
0.00161568
0.0043107
0.00737696
0.0226018
0.0532977
0.129683
1.08167e-05
9.26636e-06
8.4428e-05
0.000211081
0.000390288
0.000618653
0.00089155
0.00120328
0.00154696
0.00191454
0.00229683
0.0026836
0.00306371
0.00342542
0.00375672
0.0040458
0.00428154
0.00445427
0.00456073
0.00456998
1.11575e-05
8.46459e-06
8.36043e-05
0.00020919
0.000387045
0.000614016
0.00088565
0.0011964
0.00153952
0.00190705
0.00228981
0.00267775
0.00305958
0.00342346
0.00375723
0.00404886
0.00428698
0.00446171
0.00457025
0.00457891
-6.61163e-05
-7.07833e-05
5.74709e-06
0.000133928
0.000315924
0.000548643
0.000827694
0.00114758
0.00150155
0.00188159
0.00227854
0.00268194
0.00308013
0.0034608
0.0038111
0.00411816
0.00436963
0.00455459
0.00466979
0.00467809
-0.000201738
-0.000208081
-0.000128827
4.26427e-06
0.000193795
0.000436782
0.000728912
0.00106473
0.00143747
0.00183902
0.00225992
0.00268955
0.00311555
0.00352472
0.00390311
0.00423647
0.00451081
0.00471346
0.00484025
0.00484981
-0.000400851
-0.000409151
-0.000325828
-0.000185422
1.52286e-05
0.000273279
0.000584509
0.00094351
0.00134348
0.00177618
0.00223185
0.00269946
0.00316585
0.00361663
0.0040363
0.0044086
0.00471708
0.00494639
0.00509076
0.00510288
-0.000667895
-0.000678731
-0.000590072
-0.000440061
-0.000224809
5.30337e-05
0.000389376
0.000778881
0.00121473
0.00168854
0.00219023
0.00270845
0.00322896
0.00373603
0.00421212
0.00463825
0.00499458
0.00526176
0.00543139
0.00544777
-0.00100845
-0.00102267
-0.000927555
-0.000765844
-0.000532683
-0.000230459
0.000136932
0.000564278
0.00104479
0.00156996
0.00212942
0.00271173
0.00330144
0.00388136
0.00443154
0.00492959
0.00535099
0.00567062
0.00587586
0.00589914
-0.00142966
-0.0014485
-0.00134601
-0.00117076
-0.000916609
-0.000585584
-0.000181308
0.000291201
0.000825267
0.00141238
0.00204177
0.00270261
0.00337792
0.00404943
0.00469465
0.00528695
0.00579569
0.00618753
0.00644287
0.00647732
-0.0019403
-0.00196548
-0.00185499
-0.00166469
-0.00138678
-0.00102276
-0.000575908
-5.09875e-05
0.00054557
0.00120565
0.00191951
0.00267186
0.00345017
0.00423434
0.00499935
0.0057138
0.0063393
0.00683096
0.00715754
0.00721089
-0.00255087
-0.00258486
-0.00246613
-0.00225975
-0.00195564
-0.00155467
-0.00105972
-0.000475314
0.000192271
0.000935113
0.00174342
0.00260492
0.00350549
0.00442569
0.00533935
0.00621082
0.00699237
0.00762365
0.00805331
0.00814052
-0.00327392
-0.0033202
-0.00319358
-0.00297062
-0.00263827
-0.00219656
-0.00164802
-0.000997099
-0.000250039
0.000585536
0.0015007
0.00248517
0.00352624
0.00460671
0.00570139
0.00677235
0.00776254
0.00859214
0.00917413
0.00932637
-0.00412451
-0.00418799
-0.00405464
-0.00381527
-0.00345298
-0.00296668
-0.00235875
-0.00163403
-0.000799132
0.00013846
0.00117094
0.00229022
0.00348782
0.00475121
0.00606069
0.0073806
0.00864805
0.00976403
0.010576
0.0108612
-0.00512096
-0.00520838
-0.00507077
-0.00481604
-0.00442223
-0.00388683
-0.00321269
-0.00240594
-0.00147461
-0.000426752
0.000730861
0.00199302
0.00335711
0.00482001
0.00637406
0.00799557
0.00962445
0.0111587
0.0123261
0.0128952
-0.00629107
-0.00640956
-0.00627054
-0.00600168
-0.00557424
-0.00498332
-0.00423351
-0.00333407
-0.00229649
-0.0011307
0.000156732
0.00156393
0.00309353
0.00475811
0.00657134
0.00853757
0.0106194
0.0127627
0.0144934
0.015678
-0.00762816
-0.00781185
-0.00768499
-0.0074084
-0.00694504
-0.00628817
-0.00544783
-0.00443993
-0.00328256
-0.00199068
-0.000572726
0.000971187
0.00265095
0.00449508
0.00654805
0.00886622
0.0114717
0.0144792
0.0170771
0.0196571
-0.00940339
-0.00950479
-0.0093839
-0.00909174
-0.00858427
-0.00784284
-0.00688635
-0.00574359
-0.00444539
-0.00301531
-0.00146586
0.000206972
0.00202019
0.00398868
0.00621108
0.00881889
0.0119039
0.0159939
0.0197044
0.0252309
-0.010905
-0.0115511
-0.0114465
-0.011191
-0.0106162
-0.00972728
-0.00859215
-0.00726428
-0.00579068
-0.00420595
-0.00253671
-0.000800801
0.000998177
0.0028926
0.00498812
0.007563
0.0105104
0.0160076
0.0208005
0.0322293
-0.0149405
-0.0131106
-0.0133814
-0.0130519
-0.0125264
-0.0116131
-0.0103799
-0.00889611
-0.00723878
-0.00547424
-0.00364882
-0.00177668
0.000121371
0.00212595
0.00415934
0.00669118
0.00909958
0.0150936
0.0210915
0.0402905
-0.0149599
-0.0185261
-0.0182341
-0.0181636
-0.017091
-0.0153567
-0.0133478
-0.0112277
-0.00910104
-0.00700528
-0.00498574
-0.00305776
-0.00132026
0.000263133
0.00115599
0.00214564
0.00102838
0.00749398
0.0103892
0.0507323
-0.0376708
-0.0156668
-0.0164946
-0.0165211
-0.0157227
-0.014507
-0.0129781
-0.0111731
-0.00920851
-0.00718182
-0.00520904
-0.00322691
-0.00154032
0.000323718
0.00135342
0.00395817
0.00692617
0.0223408
0.0537694
0.131825
1.33675e-05
1.13994e-05
8.62739e-05
0.000212638
0.000391621
0.000619833
0.000892646
0.00120436
0.00154808
0.00191577
0.00229822
0.00268519
0.00306553
0.00342746
0.00375894
0.00404815
0.00428393
0.00445656
0.00456286
0.00457173
1.41779e-05
1.10447e-05
8.58803e-05
0.000211144
0.000388734
0.000615505
0.000887003
0.00119768
0.00154079
0.00190837
0.00229124
0.00267932
0.00306132
0.00342538
0.0037593
0.00405103
0.00428916
0.00446377
0.00457214
0.00458042
-6.25846e-05
-6.77135e-05
8.49356e-06
0.000136319
0.000318008
0.000550479
0.000829344
0.00114911
0.00150302
0.00188307
0.00228008
0.00268359
0.00308194
0.00346277
0.00381321
0.00412037
0.00437185
0.00455669
0.00467172
0.00467963
-0.000197483
-0.000204324
-0.00012543
7.2527e-06
0.000196414
0.000439087
0.000730964
0.0010666
0.00143922
0.00184073
0.00226165
0.00269137
0.0031175
0.00352683
0.00390538
0.00423885
0.00451321
0.00471576
0.00484237
0.00485151
-0.000395676
-0.000404528
-0.000321621
-0.000181696
1.85011e-05
0.00027615
0.000587042
0.000945781
0.00134558
0.00177818
0.00223385
0.00270153
0.00316804
0.00361901
0.00403888
0.00441134
0.00471989
0.00494913
0.00509333
0.005105
-0.000661541
-0.000673005
-0.000584841
-0.000435419
-0.000220737
5.65847e-05
0.000392476
0.000781621
0.00121722
0.00169088
0.00219254
0.00271081
0.00323148
0.00373878
0.00421514
0.00464154
0.00499804
0.00526522
0.00543473
0.00545064
-0.00100056
-0.00101552
-0.000921014
-0.000760047
-0.000527627
-0.000226094
0.000140688
0.000567535
0.00104768
0.00157265
0.00213206
0.0027144
0.00330429
0.00388452
0.00443513
0.00493361
0.00535536
0.00567514
0.00588037
0.0059031
-0.00141976
-0.00143947
-0.00133777
-0.00116349
-0.000910338
-0.000580255
-0.000176821
0.00029499
0.000828534
0.00141534
0.00204463
0.00270547
0.00338103
0.004053
0.00469885
0.00529186
0.00580128
0.00619354
0.00644909
0.00648299
-0.0019277
-0.00195396
-0.00184452
-0.00165556
-0.00137901
-0.00101631
-0.000570638
-4.67136e-05
0.000549061
0.00120859
0.00192213
0.00267458
0.00345328
0.00423813
0.00500409
0.00571969
0.00634638
0.006839
0.0071662
0.0072191
-0.00253463
-0.00256999
-0.00245274
-0.00224821
-0.00194605
-0.00154694
-0.00105367
-0.000470684
0.000195777
0.000937815
0.00174568
0.00260717
0.00350821
0.00442932
0.00534432
0.00621758
0.00700115
0.0076343
0.00806535
0.00815254
-0.00325268
-0.00330078
-0.00317631
-0.00295602
-0.00262648
-0.00218746
-0.00164132
-0.000992418
-0.000246955
0.000587463
0.00150193
0.00248609
0.00352776
0.00460933
0.00570582
0.00677944
0.00777291
0.00860597
0.00919078
0.00934399
-0.0040963
-0.00416233
-0.00403217
-0.00379677
-0.00343862
-0.00295622
-0.00235174
-0.00162988
-0.000797233
0.000138701
0.00117016
0.00228896
0.0034868
0.00475135
0.00606295
0.00738672
0.00865921
0.00978129
0.0105987
0.0108872
-0.00508292
-0.00517405
-0.00504135
-0.0047926
-0.00440495
-0.00387526
-0.00320604
-0.0024033
-0.00147506
-0.000429435
0.00072666
0.00198792
0.00335184
0.00481557
0.00637185
0.00799785
0.00963414
0.0111787
0.012356
0.0129337
-0.0062389
-0.00636314
-0.00623176
-0.00597207
-0.00555387
-0.00497127
-0.00422843
-0.00333451
-0.00230096
-0.00113817
0.000147039
0.00155262
0.00308112
0.00474561
0.00656047
0.00853139
0.0106225
0.0127822
0.0145305
0.0157354
-0.00755543
-0.0077485
-0.00763365
-0.00737117
-0.00692167
-0.00627688
-0.00544625
-0.00444562
-0.00329354
-0.00200556
-0.000590729
0.000950415
0.00262725
0.00446931
0.00652167
0.0088429
0.0114587
0.0144906
0.0171185
0.019742
-0.00930219
-0.00941799
-0.00931575
-0.00904504
-0.00855826
-0.00783418
-0.00689107
-0.00575773
-0.00446602
-0.00304066
-0.00149523
0.000173328
0.00198252
0.00394703
0.00616521
0.00877106
0.0118627
0.0159824
0.0197395
0.0253487
-0.0107643
-0.0114353
-0.0113575
-0.0111352
-0.0105902
-0.00972495
-0.00860713
-0.0072908
-0.00582465
-0.00424516
-0.00258087
-0.000851221
0.000937697
0.00281996
0.00490129
0.00745365
0.01039
0.0159251
0.0207888
0.03236
-0.0147397
-0.0129354
-0.013248
-0.0129689
-0.0124885
-0.011611
-0.010403
-0.00893538
-0.00728729
-0.00552832
-0.00370786
-0.00184296
4.26921e-05
0.002028
0.00403769
0.00654217
0.00891658
0.0149244
0.0210198
0.0404078
-0.0147148
-0.0183393
-0.0180858
-0.0180846
-0.01707
-0.0153789
-0.0133962
-0.01129
-0.00917029
-0.00707774
-0.00506173
-0.0031404
-0.00141762
0.000134778
0.000976099
0.00187479
0.000697715
0.00713353
0.010171
0.0509329
-0.0373261
-0.0153628
-0.0162702
-0.0163926
-0.0156739
-0.0145126
-0.013017
-0.0112312
-0.00927607
-0.00725382
-0.00528606
-0.00331185
-0.00164516
0.000190962
0.00117577
0.00373827
0.00667284
0.022192
0.0539126
0.132542
1.56767e-05
1.34914e-05
8.81566e-05
0.000214296
0.000393084
0.000621146
0.00089386
0.00120552
0.00154925
0.00191699
0.00229952
0.00268661
0.00306709
0.00342916
0.00376078
0.00405007
0.00428587
0.00445845
0.00456467
0.00457335
1.67566e-05
1.34087e-05
8.80286e-05
0.000213052
0.000390424
0.000617016
0.000888383
0.00119898
0.00154206
0.00190966
0.00229258
0.00268075
0.00306287
0.00342706
0.00376109
0.0040529
0.00429104
0.0044656
0.00457387
0.00458196
-5.95988e-05
-6.49551e-05
1.1019e-05
0.000138578
0.000320014
0.000552268
0.000830961
0.0011506
0.00150445
0.00188448
0.00228153
0.00268511
0.00308356
0.00346452
0.00381507
0.00412231
0.0043738
0.00455859
0.00467353
0.00468123
-0.000193906
-0.000200995
-0.000122366
1.00058e-05
0.000198862
0.00044126
0.000732905
0.00106836
0.00144087
0.00184232
0.00226325
0.00269302
0.00311925
0.00352871
0.00390738
0.00424096
0.00451536
0.00471787
0.0048444
0.00485331
-0.000391321
-0.000400452
-0.000317857
-0.000178309
2.15072e-05
0.000278801
0.000589384
0.000947874
0.00134749
0.00178
0.00223564
0.00270336
0.00316997
0.00362109
0.00404113
0.00441373
0.00472238
0.00495162
0.00509576
0.0051072
-0.000656175
-0.000667962
-0.000580181
-0.000431231
-0.000217038
5.98153e-05
0.000395289
0.000784089
0.00121943
0.00169293
0.00219453
0.00271283
0.00323361
0.00374111
0.00421771
0.00464435
0.00500104
0.0052683
0.00543782
0.00545349
-0.000993878
-0.00100922
-0.000915203
-0.000754847
-0.000523075
-0.000222172
0.000144039
0.000570405
0.00105019
0.00157491
0.00213421
0.00271658
0.00330662
0.00388712
0.00443808
0.00493695
0.00535906
0.00567907
0.0058844
0.00590693
-0.00141134
-0.00143153
-0.00133047
-0.00115701
-0.000904739
-0.000575521
-0.000172879
0.000298255
0.000831271
0.00141771
0.0020468
0.00270767
0.00338343
0.00405578
0.00470217
0.00529581
0.00580585
0.00619861
0.00645446
0.00648822
-0.00191699
-0.00194386
-0.0018353
-0.00164746
-0.00137214
-0.00101064
-0.000566081
-4.3114e-05
0.000551901
0.00121089
0.00192417
0.00267658
0.00345553
0.00424091
0.00500764
0.00572422
0.00635196
0.00684551
0.00717338
0.00722631
-0.00252084
-0.00255702
-0.00244101
-0.00223806
-0.00193762
-0.00154023
-0.00104852
-0.00046689
0.000198493
0.000939755
0.00174717
0.00260858
0.00350989
0.00443174
0.00534776
0.00622247
0.00700774
0.00764256
0.00807493
0.00816254
-0.00323475
-0.00328397
-0.00316128
-0.00294327
-0.00261622
-0.00217964
-0.00163571
-0.000988702
-0.000244753
0.000588558
0.00150234
0.0024863
0.00352814
0.0046105
0.00570843
0.00678411
0.00778026
0.00861618
0.00920341
0.00935785
-0.00407273
-0.00414036
-0.00401283
-0.00378076
-0.00342619
-0.00294728
-0.00234593
-0.00162671
-0.000796169
0.000138184
0.00116856
0.00228681
0.00348472
0.00475009
0.00606348
0.00738988
0.00866646
0.00979333
0.010615
0.0109065
-0.0050516
-0.00514511
-0.00501634
-0.00477249
-0.00439006
-0.00386535
-0.00320051
-0.00240142
-0.00147609
-0.000432699
0.000721772
0.001982
0.00334558
0.00480987
0.006368
0.0079976
0.00963947
0.0111917
0.0123765
0.0129604
-0.0061969
-0.00632478
-0.00619931
-0.00594687
-0.00553626
-0.00496075
-0.00422399
-0.00333503
-0.00230541
-0.00114565
0.000137204
0.001541
0.00306837
0.00473266
0.00654888
0.00852364
0.0106221
0.0127935
0.0145544
0.0157728
-0.00749871
-0.00769748
-0.00759148
-0.00733969
-0.00690117
-0.00626637
-0.00544407
-0.00445006
-0.00330307
-0.00201907
-0.000607495
0.000930774
0.00260502
0.00444534
0.00649742
0.00882144
0.0114455
0.0144946
0.0171433
0.0197945
-0.00922592
-0.00935025
-0.00926098
-0.00900583
-0.00853479
-0.00782465
-0.00689272
-0.00576789
-0.00448252
-0.00306206
-0.00152085
0.000143635
0.00194927
0.00391052
0.00612592
0.00873157
0.0118295
0.0159704
0.0197584
0.0254193
-0.0106631
-0.0113472
-0.0112873
-0.0110876
-0.0105647
-0.00971793
-0.00861445
-0.00730852
-0.00584991
-0.00427622
-0.00261721
-0.0008934
0.000887363
0.00276033
0.00483176
0.00737219
0.0103045
0.0158697
0.0207752
0.0324391
-0.0146016
-0.0128108
-0.0131501
-0.0129031
-0.0124543
-0.0116032
-0.0104149
-0.00896075
-0.00732169
-0.00556913
-0.00375441
-0.00189652
-2.06108e-05
0.00195199
0.00394687
0.0064383
0.00879766
0.0148216
0.0209749
0.0404831
-0.0145604
-0.0182078
-0.0179751
-0.0180166
-0.017041
-0.0153806
-0.0134193
-0.0113267
-0.0092158
-0.00712905
-0.0051185
-0.00320433
-0.00149353
3.745e-05
0.000845745
0.0016938
0.000481945
0.0069263
0.0100146
0.051045
-0.0371072
-0.0151595
-0.0161122
-0.0162908
-0.0156239
-0.0145035
-0.0130357
-0.0112674
-0.00932255
-0.00730673
-0.00534502
-0.0033785
-0.00172584
9.23018e-05
0.00105131
0.00359203
0.00650374
0.0220721
0.0538879
0.132845
1.76646e-05
1.53735e-05
8.99002e-05
0.000215879
0.000394512
0.00062244
0.000895051
0.00120665
0.00155035
0.00191809
0.00230066
0.00268783
0.00306839
0.00343055
0.00376225
0.0040516
0.00428742
0.00445998
0.00456616
0.00457477
1.89089e-05
1.5452e-05
8.99257e-05
0.000214777
0.00039198
0.000618422
0.000889669
0.00120018
0.00154322
0.0019108
0.00229375
0.00268198
0.00306418
0.00342845
0.00376257
0.00405443
0.00429259
0.00446713
0.00457537
0.00458338
-5.71373e-05
-6.26106e-05
1.32013e-05
0.000140565
0.000321805
0.000553878
0.00083242
0.00115195
0.00150572
0.00188572
0.00228278
0.00268641
0.00308493
0.00346597
0.00381661
0.00412391
0.00437544
0.00456022
0.00467512
0.00468275
-0.000190979
-0.000198199
-0.000119758
1.23818e-05
0.000200997
0.000443166
0.000734613
0.00106991
0.0014423
0.00184369
0.00226461
0.00269441
0.00312072
0.00353027
0.00390904
0.00424271
0.00451716
0.00471968
0.00484619
0.00485504
-0.000387763
-0.000397046
-0.00031468
-0.000175419
2.40912e-05
0.000281088
0.000591404
0.000949673
0.00134913
0.00178153
0.00223713
0.00270487
0.00317156
0.0036228
0.00404297
0.00441571
0.00472445
0.00495375
0.0050979
0.00510928
-0.000651788
-0.000663757
-0.000576265
-0.000427682
-0.000213889
6.25694e-05
0.000397682
0.000786174
0.00122128
0.00169462
0.00219615
0.00271446
0.00323533
0.00374298
0.00421978
0.00464663
0.0050035
0.00527089
0.00544047
0.0054561
-0.000988408
-0.00100398
-0.000910336
-0.000750465
-0.000519229
-0.000218861
0.000146853
0.00057279
0.00105223
0.00157672
0.00213589
0.00271826
0.00330841
0.00388913
0.00444038
0.00493959
0.00536202
0.00568228
0.00588778
0.0059103
-0.00140446
-0.00142494
-0.00132438
-0.00115158
-0.000900038
-0.000571559
-0.000169608
0.000300924
0.000833455
0.00141955
0.0020484
0.00270928
0.00338518
0.00405783
0.00470465
0.00529881
0.00580939
0.00620261
0.0064588
0.00649262
-0.00190824
-0.0019355
-0.00182764
-0.0016407
-0.0013664
-0.00100593
-0.000562344
-4.02238e-05
0.000554104
0.0012126
0.00192562
0.0026779
0.00345699
0.00424274
0.00501011
0.00572749
0.00635611
0.00685047
0.00717896
0.00723211
-0.00250963
-0.00254634
-0.00243131
-0.00222965
-0.00193065
-0.0015347
-0.00104435