/*--------------------------------*- C++ -*----------------------------------*\
  =========                 |
  \\      /  F ield         | OpenFOAM: The Open Source CFD Toolbox
   \\    /   O peration     | Website:  https://openfoam.org
    \\  /    A nd           | Version:  10
     \\/     M anipulation  |
\*---------------------------------------------------------------------------*/
FoamFile
{
    format      ascii;
    class       volScalarField;
    location    "7.375";
    object      p;
}
// * * * * * * * * * * * * * * * * * * * * * * * * * * * * * * * * * * * * * //

dimensions      [0 2 -2 0 0 0 0];

internalField   nonuniform List<scalar> 
8000
(
-4.37842e-06
-1.00016e-05
4.02454e-05
0.000132204
0.000271857
0.000461121
0.000702379
0.000997614
0.00134797
0.00175288
0.002209
0.00270896
0.00324006
0.00378313
0.00431212
0.00479545
0.00519815
0.0054879
0.00565914
0.00566272
-4.49617e-06
-8.82607e-06
4.39934e-05
0.000135866
0.000273948
0.00046054
0.000698198
0.000989216
0.001335
0.00173533
0.00218732
0.00268419
0.00321347
0.00375629
0.00428735
0.00477465
0.00518208
0.00547579
0.00565161
0.0056475
-7.42227e-05
-8.19008e-05
-3.07743e-05
5.76454e-05
0.000191194
0.000372379
0.000604186
0.000889641
0.00123111
0.00162955
0.00208347
0.0025875
0.00313103
0.00369613
0.00425614
0.00477591
0.00521431
0.00553024
0.00571852
0.00570149
-0.000202036
-0.000212383
-0.000164283
-8.12925e-05
4.5105e-05
0.000217752
0.000440341
0.000716945
0.00105139
0.00144654
0.00190325
0.00241874
0.00298455
0.00358392
0.00418982
0.00476423
0.0052571
0.00561432
0.00582717
0.00579277
-0.000394689
-0.000407838
-0.000364449
-0.000289228
-0.000172993
-1.24978e-05
0.00019679
0.000460221
0.000783466
0.00117196
0.00162982
0.00215814
0.0027525
0.0033992
0.00407036
0.00472445
0.00530037
0.00572349
0.00597725
0.00591682
-0.000652634
-0.000668973
-0.000632019
-0.000567222
-0.000464827
-0.000321235
-0.000131107
0.000112224
0.000416452
0.000789981
0.00124109
0.0017762
0.002397
0.00309582
0.00384837
0.00460784
0.0053038
0.00583002
0.00615224
0.00605336
-0.000974734
-0.000994845
-0.000966129
-0.000914789
-0.000830677
-0.000710099
-0.000547177
-0.000334194
-6.16264e-05
0.000281913
0.000709305
0.00123374
0.00186568
0.00260749
0.00344469
0.00432963
0.00518995
0.00587504
0.00631414
0.00616872
-0.00135887
-0.00138345
-0.00136477
-0.00133013
-0.00126931
-0.00117899
-0.00105341
-0.000884514
-0.000661741
-0.000371514
3.06602e-06
0.000482015
0.00108691
0.00183586
0.00273416
0.00375524
0.00480561
0.00573056
0.00637315
0.00621109
-0.0018021
-0.00183179
-0.0018246
-0.00180963
-0.0017771
-0.0017248
-0.001648
-0.00153966
-0.0013899
-0.00118507
-0.000906591
-0.000530065
-2.46892e-05
0.000645621
0.00151392
0.00259288
0.00384471
0.00507338
0.00608002
0.00607358
-0.00230095
-0.00233617
-0.00234098
-0.0023476
-0.00234733
-0.00234004
-0.0023234
-0.0022931
-0.00224246
-0.00216155
-0.00203578
-0.00184373
-0.00155413
-0.00112239
-0.000488238
0.000423741
0.00167676
0.00326338
0.00485489
0.00555375
-0.00285227
-0.00289286
-0.00290833
-0.00293619
-0.0029696
-0.00301175
-0.00306419
-0.00312746
-0.00320134
-0.00328456
-0.00337431
-0.00346561
-0.00354986
-0.0036084
-0.00359496
-0.00339088
-0.00267575
-0.000924413
0.00181938
0.00406653
-0.00345469
-0.00349925
-0.00352075
-0.00356563
-0.00362962
-0.00372073
-0.00384562
-0.00401151
-0.0042278
-0.00450722
-0.00486798
-0.0053373
-0.00595573
-0.0067718
-0.00780204
-0.00886229
-0.00921025
-0.00696469
-0.0021355
0.00186043
-0.00411226
-0.00415727
-0.00417529
-0.00422744
-0.00431224
-0.00444429
-0.00463614
-0.00490258
-0.00526461
-0.00575255
-0.00641278
-0.00731443
-0.00856389
-0.0102826
-0.0124898
-0.0147084
-0.0154084
-0.0116068
-0.00486898
0.000220246
-0.00483535
-0.00486851
-0.00486256
-0.00490212
-0.00499029
-0.00514789
-0.00539117
-0.00574187
-0.00623148
-0.00690553
-0.00783808
-0.00913064
-0.0109433
-0.013404
-0.0165204
-0.0193645
-0.0205207
-0.0159301
-0.00967347
-0.00173532
-0.00565753
-0.0056743
-0.00562472
-0.0056309
-0.00569269
-0.00584159
-0.00610021
-0.00649567
-0.00706726
-0.00786752
-0.00899459
-0.0105629
-0.0127741
-0.0157398
-0.0194923
-0.0230775
-0.0263472
-0.0234506
-0.0177601
-0.00476357
-0.00675446
-0.00654364
-0.00635853
-0.00623913
-0.00623723
-0.00636577
-0.00663477
-0.00706018
-0.00768078
-0.00855052
-0.0097745
-0.0114657
-0.0138545
-0.0170371
-0.0212735
-0.025426
-0.0317304
-0.0294813
-0.0234339
-0.0051098
-0.00766553
-0.00776567
-0.00743534
-0.0072866
-0.00715603
-0.00715438
-0.00730538
-0.00763721
-0.00819278
-0.00901745
-0.0102148
-0.011873
-0.0142245
-0.0172743
-0.0214734
-0.0254923
-0.0312268
-0.0280724
-0.0208937
0.00408747
-0.0115659
-0.00872894
-0.00806008
-0.0073254
-0.00704985
-0.00702549
-0.00722301
-0.00760048
-0.00819323
-0.00901239
-0.0101837
-0.0117385
-0.0139073
-0.0165328
-0.020023
-0.0226335
-0.0261736
-0.0200842
-0.0106141
0.0276802
-0.0111519
-0.0120494
-0.0105432
-0.0100049
-0.0092265
-0.00872488
-0.00848214
-0.00849879
-0.00881973
-0.00942288
-0.0104273
-0.0118013
-0.0138524
-0.0162303
-0.0195572
-0.0213728
-0.0227121
-0.0111402
0.00751128
0.0717734
-0.0358456
-0.010426
-0.00872453
-0.00721282
-0.00641607
-0.00626349
-0.00649746
-0.00688785
-0.00753243
-0.00833832
-0.00957275
-0.0110058
-0.0130732
-0.0149403
-0.0168962
-0.0152136
-0.00892494
0.0179512
0.0658122
0.172931
-1.31639e-06
-1.69433e-05
3.12454e-05
0.000121984
0.000261725
0.000451857
0.000694284
0.000991205
0.00134393
0.00175212
0.00221268
0.0027185
0.00325699
0.00380892
0.00434765
0.00484001
0.00524935
0.00554053
0.00570849
0.00569209
1.1205e-05
-3.7027e-06
4.90509e-05
0.000140543
0.000278691
0.000465428
0.000703179
0.000994358
0.0013405
0.00174156
0.00219491
0.00269404
0.00322663
0.0037743
0.00431149
0.00480491
0.0052168
0.00551083
0.00568448
0.00565919
-5.37349e-05
-7.44198e-05
-2.32737e-05
6.47563e-05
0.00019832
0.000379511
0.000611257
0.000896663
0.00123823
0.00163714
0.00209223
0.00259846
0.00314568
0.00371629
0.00428329
0.0048106
0.00525469
0.00557112
0.00575675
0.00571305
-0.000178109
-0.000202797
-0.000154551
-7.19241e-05
5.45044e-05
0.000227141
0.000449629
0.000726131
0.00106061
0.00145622
0.00191417
0.00243221
0.00300238
0.00360826
0.00422389
0.00480848
0.00530935
0.00566755
0.00587673
0.00580879
-0.000368866
-0.000397267
-0.000353677
-0.000278779
-0.000162412
-1.7803e-06
0.000207607
0.000471211
0.000794874
0.00118433
0.00164417
0.00217619
0.00277668
0.00343249
0.00411723
0.00478629
0.00537452
0.00580019
0.0060496
0.00594422
-0.000625667
-0.000658046
-0.000620855
-0.000556303
-0.000453601
-0.000309614
-0.00011902
0.00012499
0.000430321
0.000805739
0.00126013
0.00180089
0.0024308
0.00314324
0.00391441
0.00469885
0.00541592
0.00594977
0.00626885
0.00610499
-0.00094688
-0.00098387
-0.000954898
-0.000903718
-0.000819116
-0.000697845
-0.000534018
-0.000319729
-4.51769e-05
0.00030149
0.000733944
0.0012667
0.00191227
0.0026746
0.0035404
0.00446756
0.00536585
0.00607437
0.0065201
0.00627637
-0.00133022
-0.00137268
-0.00135376
-0.00131925
-0.00125781
-0.00116656
-0.00103965
-0.000868788
-0.000643065
-0.000348314
3.3378e-05
0.000523814
0.00114765
0.00192656
0.00286826
0.00394591
0.00507946
0.00607249
0.00676333
0.00645747
-0.00177265
-0.00182148
-0.00181416
-0.0017994
-0.00176624
-0.00171288
-0.00163446
-0.00152361
-0.00137002
-0.00115931
-0.000871731
-0.000480804
4.80512e-05
0.000756691
0.00168258
0.00283737
0.00423388
0.00568473
0.0068836
0.00672352
-0.00227061
-0.00232662
-0.00233151
-0.00233856
-0.00233784
-0.00232957
-0.00231124
-0.00227813
-0.00222307
-0.00213539
-0.00199936
-0.00179175
-0.00147823
-0.00100891
-0.000314073
0.000711659
0.00217238
0.00425745
0.00645013
0.00709929
-0.00282066
-0.00288435
-0.00290023
-0.00292898
-0.00296236
-0.00300388
-0.00305485
-0.00311538
-0.00318475
-0.00326115
-0.00334144
-0.00342052
-0.00349174
-0.00354629
-0.00355632
-0.00338484
-0.00243332
0.000134005
0.00394717
0.00655844
-0.00342075
-0.00349164
-0.0035138
-0.00356018
-0.0036249
-0.00371612
-0.00384014
-0.00400376
-0.00421593
-0.00448934
-0.00484348
-0.00530925
-0.00594299
-0.00684493
-0.00811586
-0.0096326
-0.0101772
-0.00733029
-0.00174101
0.00375802
-0.00407414
-0.00415113
-0.0041709
-0.00422575
-0.00431219
-0.00444483
-0.00463612
-0.00490073
-0.00525916
-0.00574254
-0.00640098
-0.00731514
-0.00862734
-0.0105701
-0.0133562
-0.0167083
-0.0190174
-0.0157892
-0.00914306
-0.00095491
-0.00478565
-0.00485684
-0.00485147
-0.00489464
-0.00498692
-0.00514774
-0.00539261
-0.00574253
-0.00622889
-0.00689893
-0.00783085
-0.00914504
-0.0110559
-0.0138789
-0.0178843
-0.0225878
-0.0268433
-0.0242003
-0.0183617
-0.00718289
-0.00558944
-0.00566628
-0.00561913
-0.00563392
-0.00570027
-0.00585147
-0.00610978
-0.00650254
-0.00706792
-0.00786169
-0.00898108
-0.0105556
-0.0128644
-0.0161943
-0.0210483
-0.0267387
-0.033814
-0.0325866
-0.0286708
-0.0134018
-0.00662017
-0.00647608
-0.00630127
-0.00619501
-0.00620885
-0.00634948
-0.0066251
-0.00705199
-0.00766641
-0.00852235
-0.00972875
-0.0113913
-0.0138342
-0.0172623
-0.0224765
-0.0280696
-0.0373991
-0.0362001
-0.0337673
-0.0134958
-0.00735384
-0.00767978
-0.007357
-0.00726395
-0.00715026
-0.00715929
-0.00731093
-0.00763595
-0.00817506
-0.00896669
-0.0101234
-0.0117167
-0.0140571
-0.0172209
-0.022001
-0.0270193
-0.0340571
-0.0327377
-0.0296992
-0.000299044
-0.0110712
-0.00840769
-0.007775
-0.00708029
-0.00688871
-0.00692747
-0.00716264
-0.00755458
-0.00813787
-0.00891108
-0.010025
-0.0114975
-0.0136088
-0.0162876
-0.020118
-0.02347
-0.0274996
-0.0239523
-0.0157889
0.0286813
-0.00849136
-0.0110865
-0.00995763
-0.0097841
-0.00917797
-0.00877679
-0.00857361
-0.00858432
-0.00886871
-0.00939979
-0.0103093
-0.0115662
-0.0135502
-0.0159376
-0.0196483
-0.022294
-0.0244934
-0.0140475
0.00745981
0.0800519
-0.0336169
-0.00856201
-0.00712276
-0.00617233
-0.00573332
-0.00575092
-0.00610303
-0.00654992
-0.00723272
-0.00801109
-0.00921259
-0.0105801
-0.0126167
-0.0145887
-0.016695
-0.0154924
-0.00896217
0.0197673
0.0795967
0.203699
1.10795e-05
-9.60582e-06
3.77936e-05
0.000128231
0.000268554
0.000459893
0.000704277
0.00100408
0.0013609
0.00177467
0.00224262
0.00275782
0.00330774
0.003873
0.00442586
0.00493155
0.00535061
0.00564488
0.00580992
0.00577899
3.14757e-05
1.05443e-05
6.32672e-05
0.000154548
0.000293021
0.000480481
0.00071948
0.00101264
0.00136176
0.00176711
0.00222639
0.00273331
0.00327514
0.00383564
0.00438606
0.00489206
0.00531329
0.0056105
0.00578219
0.00574248
-2.85037e-05
-5.66217e-05
-5.41991e-06
8.22961e-05
0.000216049
0.000397788
0.000630584
0.000917804
0.00126229
0.00166563
0.00212712
0.00264223
0.00320147
0.00378625
0.00436936
0.00491264
0.00536895
0.00568974
0.00587284
0.00580959
-0.00014841
-0.000181432
-0.000133029
-5.07593e-05
7.58072e-05
0.000248938
0.000472462
0.000750859
0.00108852
0.00148913
0.00195458
0.00248331
0.00306822
0.00369265
0.00432995
0.00493686
0.00545556
0.00582025
0.00602592
0.00593007
-0.000335625
-0.000373052
-0.000329218
-0.000254655
-0.000138077
2.31874e-05
0.000233869
0.000499824
0.000827424
0.00122312
0.00169247
0.00223829
0.00285772
0.00353882
0.00425447
0.0049566
0.00557262
0.00600968
0.00625448
0.00610492
-0.0005893
-0.000631327
-0.000593791
-0.000529497
-0.000426431
-0.000281551
-8.92303e-05
0.000157829
0.000468204
0.000851611
0.00131824
0.00187716
0.0025329
0.00327946
0.00409622
0.00493143
0.00569413
0.00624981
0.00656393
0.00632338
-0.000907368
-0.000954661
-0.000925237
-0.00087424
-0.000789128
-0.000666708
-0.000500705
-0.00028262
-1.81012e-06
0.000354798
0.000802639
0.00135872
0.00203822
0.00284597
0.0037791
0.004786
0.00576192
0.00651613
0.0069613
0.00657598
-0.00128727
-0.00134078
-0.00132135
-0.00128701
-0.00122503
-0.00113251
-0.00100314
-0.00082792
-0.000594933
-0.000288504
0.000111591
0.00063072
0.00129866
0.00214443
0.00317235
0.0043688
0.0056353
0.00673073
0.00743447
0.00687598
-0.00172572
-0.0017865
-0.00177866
-0.00176423
-0.0017307
-0.00167623
-0.00159543
-0.00148014
-0.00131891
-0.00109568
-0.000788069
-0.000365493
0.000213193
0.000997296
0.00203379
0.00335476
0.00495387
0.00662873
0.0078478
0.00730634
-0.00221883
-0.00228785
-0.00229231
-0.00230007
-0.00229948
-0.00229069
-0.0022706
-0.00223369
-0.00217173
-0.00207245
-0.00191775
-0.0016807
-0.00132157
-0.000783877
5.57909e-06
0.00114614
0.00285245
0.00526796
0.00749436
0.00782959
-0.00276259
-0.00284058
-0.00285631
-0.00288643
-0.00292085
-0.00296295
-0.00301345
-0.0030718
-0.00313648
-0.00320476
-0.00327254
-0.00333482
-0.00338935
-0.00344501
-0.00350482
-0.0034193
-0.00251523
0.000458869
0.00457379
0.00723071
-0.00335387
-0.0034405
-0.00346277
-0.00351153
-0.00357875
-0.00367233
-0.00379795
-0.00396196
-0.00417307
-0.00444434
-0.0047974
-0.00527155
-0.00594756
-0.00699345
-0.00860189
-0.0106356
-0.0114497
-0.00808279
-0.00211162
0.0035843
-0.0039945
-0.00408976
-0.00411053
-0.00416933
-0.00426012
-0.00439717
-0.00459242
-0.00486044
-0.00522214
-0.00571073
-0.00638239
-0.00733675
-0.00876157
-0.0110089
-0.0143894
-0.018603
-0.0216419
-0.0185427
-0.0119932
-0.00304331
-0.00468408
-0.00477584
-0.00477171
-0.00482072
-0.00492045
-0.00508915
-0.00534153
-0.00569834
-0.00619168
-0.00687174
-0.00782411
-0.00919568
-0.0112576
-0.0144504
-0.019188
-0.0249123
-0.0303767
-0.0285261
-0.0227587
-0.010883
-0.00545653
-0.00556096
-0.00551542
-0.00554019
-0.00561714
-0.00577922
-0.00604749
-0.00644916
-0.00702254
-0.00782582
-0.00895999
-0.0105862
-0.0130208
-0.0166618
-0.0221942
-0.0285987
-0.0362331
-0.0353877
-0.0308362
-0.0163835
-0.00642768
-0.00631628
-0.00614488
-0.00605148
-0.006082
-0.00623989
-0.00653111
-0.00697082
-0.00759371
-0.00845492
-0.0096626
-0.0113516
-0.0138631
-0.0173723
-0.0231032
-0.0290136
-0.0366951
-0.03574
-0.0323311
-0.0142721
-0.00703107
-0.00742014
-0.00711217
-0.00705472
-0.00696753
-0.00700168
-0.00717335
-0.00751381
-0.00805975
-0.00885259
-0.00999998
-0.0116087
-0.0138806
-0.0171132
-0.022006
-0.0268936
-0.0324643
-0.0306234
-0.0258383
0.00015485
-0.0107211
-0.00808835
-0.00741064
-0.0067241
-0.00657108
-0.00665572
-0.00692921
-0.00734985
-0.00794383
-0.00872189
-0.00981163
-0.0112443
-0.0133215
-0.0160162
-0.0198127
-0.0230391
-0.0258533
-0.0216311
-0.0113852
0.0300893
-0.00741292
-0.0102784
-0.00926773
-0.0092134
-0.00869042
-0.00836571
-0.00821655
-0.00827
-0.00857331
-0.00910723
-0.0099816
-0.0112081
-0.0131411
-0.0155925
-0.019353
-0.0220653
-0.0236474
-0.0123013
0.0113505
0.0836331
-0.0329076
-0.00773747
-0.00628435
-0.00546432
-0.0051447
-0.00523667
-0.00563268
-0.00611708
-0.00680917
-0.00759452
-0.00875224
-0.0101091
-0.0120899
-0.0141201
-0.0162045
-0.0149364
-0.00742903
0.0227637
0.0863744
0.212205
2.60122e-05
2.30108e-06
4.92074e-05
0.000139605
0.000280772
0.000473755
0.000720721
0.00102423
0.00138614
0.00180673
0.00228353
0.00280984
0.00337314
0.00395345
0.00452211
0.00504253
0.00547274
0.00577201
0.00593646
0.00589583
5.07643e-05
2.64851e-05
7.92043e-05
0.000170558
0.000309759
0.00049856
0.000739664
0.00103592
0.00138944
0.00180083
0.00226816
0.00278544
0.00334037
0.00391525
0.0044814
0.0050024
0.00543512
0.00573757
0.00590915
0.00585956
-5.71515e-06
-3.78892e-05
1.33792e-05
0.000101128
0.000235556
0.000418567
0.000653409
0.000943733
0.00129274
0.00170248
0.0021727
0.00269927
0.00327296
0.00387553
0.00447798
0.00504006
0.00551112
0.00583858
0.00602123
0.00594386
-0.000122104
-0.000159674
-0.000111125
-2.88258e-05
9.8426e-05
0.000272861
0.000498527
0.000780255
0.00112289
0.00153072
0.00200628
0.00254863
0.00315084
0.00379834
0.00446126
0.00509397
0.00563348
0.00600737
0.006212
0.00609432
-0.00030626
-0.000348621
-0.000304574
-0.000229949
-0.000112591
5.01514e-05
0.000263285
0.0005331
0.000866556
0.00127089
0.00175262
0.00231551
0.00295681
0.00366862
0.00441964
0.00515886
0.00580623
0.00625758
0.00650025
0.00631382
-0.000557079
-0.000604395
-0.000566579
-0.00050216
-0.000398173
-0.000251567
-5.63724e-05
0.000195245
0.000512608
0.000906464
0.00138841
0.00196929
0.00265617
0.00344107
0.00430692
0.00519666
0.00600821
0.0065877
0.00689766
0.00659153
-0.000872227
-0.000925192
-0.000895432
-0.000844272
-0.000758129
-0.000633775
-0.000464518
-0.000241217
4.76816e-05
0.000416556
0.000882672
0.00146553
0.00218343
0.0030445
0.00404334
0.00513027
0.00618356
0.00698026
0.00741672
0.00691582
-0.00124893
-0.00130857
-0.00128879
-0.00125434
-0.00119134
-0.00109684
-0.000964064
-0.00078328
-0.000541524
-0.000221602
0.00019893
0.000748677
0.00146117
0.00236757
0.00348388
0.00479411
0.00618088
0.00735654
0.00803488
0.00729853
-0.00168366
-0.00175111
-0.001743
-0.00172866
-0.00169436
-0.00163817
-0.00155422
-0.00143361
-0.00126383
-0.00102723
-0.000699074
-0.000245258
0.000380375
0.00123213
0.00235611
0.00381798
0.00558017
0.00740224
0.0085567
0.00781976
-0.00217217
-0.00224853
-0.00225291
-0.00226118
-0.00226035
-0.00225053
-0.00222812
-0.00218698
-0.00211801
-0.00200775
-0.00183646
-0.00157489
-0.00118014
-0.000593462
0.000259592
0.00146451
0.0033135
0.00596458
0.00813524
0.00842865
-0.0027099
-0.00279606
-0.00281206
-0.00284337
-0.00287845
-0.00292065
-0.00297032
-0.00302648
-0.00308727
-0.00314975
-0.00321018
-0.00326554
-0.00332074
-0.00340589
-0.00355289
-0.00358788
-0.00267235
0.000599467
0.00477178
0.0077312
-0.00329272
-0.00338848
-0.00341146
-0.00346235
-0.00353154
-0.00362685
-0.00375369
-0.00391832
-0.00412982
-0.00440264
-0.00476225
-0.0052577
-0.00599356
-0.00719522
-0.0091197
-0.0115783
-0.0126664
-0.0092375
-0.00327094
0.00321438
-0.00392111
-0.00402711
-0.00404939
-0.0041117
-0.00420608
-0.0043467
-0.00454537
-0.00481693
-0.00518339
-0.00568095
-0.00637308
-0.00737679
-0.00891623
-0.0114186
-0.0152961
-0.0202006
-0.0239994
-0.0214059
-0.0150267
-0.00506508
-0.00459121
-0.00469534
-0.00469335
-0.00474751
-0.00485302
-0.00502774
-0.00528602
-0.00564878
-0.00614935
-0.00684136
-0.00781809
-0.00924555
-0.0114326
-0.014902
-0.0201686
-0.02657
-0.0329097
-0.0317826
-0.026411
-0.0139193
-0.00533593
-0.00545656
-0.00541414
-0.00544737
-0.0055326
-0.00570281
-0.0059784
-0.00638655
-0.00696607
-0.00777746
-0.00892581
-0.0105863
-0.0131122
-0.0169425
-0.0228528
-0.029574
-0.0374277
-0.036782
-0.0330824
-0.0186201
-0.00625869
-0.00616694
-0.00600077
-0.00591871
-0.00596115
-0.00613094
-0.00643257
-0.00688011
-0.00750716
-0.00836972
-0.00957351
-0.0112591
-0.0138105
-0.0173684
-0.0232126
-0.0290777
-0.0359159
-0.0350313
-0.0330116
-0.0147317
-0.0067818
-0.00721317
-0.00690983
-0.00687764
-0.00680817
-0.00685836
-0.00704176
-0.00738915
-0.00793507
-0.00872106
-0.00984688
-0.0113906
-0.0137138
-0.0169006
-0.0217281
-0.0263878
-0.0312644
-0.0293467
-0.0258841
0.00108871
-0.0103964
-0.00780281
-0.00711922
-0.00645353
-0.00632203
-0.0064312
-0.00672515
-0.00715976
-0.00775675
-0.00852912
-0.00960369
-0.0109625
-0.0130114
-0.0156839
-0.0194161
-0.0225073
-0.0248609
-0.0208085
-0.0113378
0.0319601
-0.00682976
-0.00986231
-0.00887099
-0.00888163
-0.00839057
-0.00809575
-0.00796688
-0.00803152
-0.00833495
-0.00885722
-0.00970235
-0.0108897
-0.012791
-0.0152421
-0.0190315
-0.0217554
-0.0232614
-0.0118879
0.0117207
0.0870269
-0.0323438
-0.00716743
-0.00571637
-0.00495914
-0.0047022
-0.00484457
-0.00527659
-0.00578561
-0.00648703
-0.00727048
-0.00840413
-0.00973384
-0.0116827
-0.0136891
-0.0157463
-0.0143336
-0.00655055
0.024389
0.0886678
0.21825
4.21241e-05
1.73614e-05
6.43684e-05
0.000155225
0.00029758
0.000492538
0.000742445
0.0010501
0.00141766
0.00184572
0.00233209
0.00287025
0.00344762
0.00404373
0.00462882
0.00516458
0.00560675
0.00591236
0.00607797
0.00603093
6.87961e-05
4.32113e-05
9.61761e-05
0.000188014
0.000328356
0.000519017
0.000762888
0.00106308
0.001422
0.00184061
0.0023173
0.00284632
0.00341548
0.00400634
0.00458946
0.00512649
0.00557182
0.00588094
0.00605388
0.00599785
1.45659e-05
-1.92134e-05
3.23383e-05
0.000120562
0.000256134
0.000441025
0.000678699
0.000973111
0.00132784
0.00174535
0.00222585
0.00276558
0.00335558
0.00397721
0.00460027
0.00518225
0.0056692
0.00600479
0.00618853
0.0061012
-9.92578e-05
-0.000138646
-8.97625e-05
-6.96784e-06
0.000121482
0.000297897
0.000526589
0.000812757
0.00116173
0.00157835
0.00206581
0.00262377
0.00324589
0.00391747
0.00460727
0.00526681
0.00582812
0.00621263
0.00641774
0.00628309
-0.000280901
-0.00032525
-0.000280819
-0.000205652
-8.69861e-05
7.79324e-05
0.000294434
0.000569268
0.000910002
0.00132465
0.00182069
0.00240297
0.00307014
0.00381251
0.00459977
0.00537669
0.00605586
0.00652228
0.00676373
0.00654629
-0.000529191
-0.000578651
-0.000540405
-0.000475392
-0.000369969
-0.000220957
-2.1994e-05
0.000235316
0.000561059
0.000967004
0.00146606
0.0020704
0.00278759
0.00361481
0.00453056
0.0054743
0.00633361
0.00693593
0.00724047
0.00687632
-0.000841672
-0.000896944
-0.000866735
-0.000814963
-0.000727311
-0.000600391
-0.000427055
-0.000197504
0.000100744
0.000483347
0.000969312
0.00158038
0.00233737
0.00324997
0.00431481
0.00547811
0.00660367
0.00743731
0.0078574
0.00725216
-0.00121541
-0.00127755
-0.00125735
-0.00122237
-0.00115792
-0.00106089
-0.000923997
-0.000736789
-0.000485279
-0.000150816
0.000291069
0.000871687
0.00162744
0.00258915
0.0037919
0.00520454
0.00669701
0.00793701
0.00856978
0.00767139
-0.00164667
-0.00171686
-0.00170845
-0.0016938
-0.00165833
-0.00159995
-0.00151229
-0.00138575
-0.00120687
-0.000956547
-0.000608046
-0.000124296
0.00054503
0.0014606
0.00266102
0.00423036
0.00612277
0.00805558
0.0091093
0.00819221
-0.00213087
-0.00221026
-0.00221457
-0.00222294
-0.0022215
-0.00221021
-0.00218508
-0.00213941
-0.00206341
-0.00194275
-0.00175659
-0.00147448
-0.00105251
-0.000433977
0.000445502
0.00168091
0.00360842
0.00641208
0.00847787
0.00874009
-0.00266294
-0.00275249
-0.00276879
-0.00280083
-0.00283614
-0.00287802
-0.00292654
-0.00298051
-0.00303794
-0.00309617
-0.00315261
-0.00320758
-0.00327523
-0.00341081
-0.00368227
-0.00390943
-0.00313145
0.000311509
0.00455826
0.00781434
-0.00323795
-0.00333751
-0.00336125
-0.00341369
-0.00348424
-0.00358071
-0.00370842
-0.0038738
-0.00408662
-0.00436326
-0.00473386
-0.00525819
-0.00606518
-0.00743721
-0.00971129
-0.012691
-0.0141716
-0.01065
-0.00440058
0.00268602
-0.00385534
-0.00396582
-0.00398952
-0.00405447
-0.00415152
-0.0042949
-0.00449647
-0.00477162
-0.00514378
-0.00565264
-0.00636936
-0.00742792
-0.00908759
-0.0118514
-0.0162358
-0.0218493
-0.0262497
-0.0237818
-0.0171126
-0.00646367
-0.00450925
-0.00461854
-0.00461863
-0.00467665
-0.00478629
-0.0049654
-0.00522833
-0.00559648
-0.00610478
-0.0068105
-0.00781475
-0.00930089
-0.0116138
-0.0153399
-0.0210896
-0.0280356
-0.0347154
-0.033628
-0.0279953
-0.0154518
-0.00523213
-0.00535929
-0.00531953
-0.00535856
-0.00544948
-0.00562542
-0.00590644
-0.00631997
-0.00690571
-0.00772661
-0.00889296
-0.0105923
-0.0132072
-0.0171977
-0.0234029
-0.0302575
-0.037821
-0.0367458
-0.0329108
-0.0191895
-0.00612001
-0.00603679
-0.00587507
-0.00580101
-0.00585083
-0.00602788
-0.00633592
-0.00678847
-0.00741876
-0.00828338
-0.00948963
-0.011183
-0.0137707
-0.0174208
-0.0231574
-0.028925
-0.0348622
-0.0335579
-0.0314054
-0.0143004
-0.00660479
-0.00705189
-0.00674768
-0.00672892
-0.00666889
-0.00672793
-0.00691756
-0.00726796
-0.00781281
-0.00859274
-0.00970571
-0.0112318
-0.0135502
-0.0167132
-0.0214292
-0.0258356
-0.0300308
-0.0276061
-0.0239775
0.00207538
-0.0101488
-0.00758309
-0.0069046
-0.00625578
-0.00613377
-0.00625354
-0.00655588
-0.00699509
-0.00759099
-0.00835553
-0.00941143
-0.0107454
-0.0127654
-0.015395
-0.0190367
-0.0219488
-0.0238361
-0.019436
-0.00966739
0.033332
-0.00656684
-0.00963886
-0.00863398
-0.008665
-0.00818084
-0.0078951
-0.0077724
-0.00783853
-0.0081381
-0.00864899
-0.00947576
-0.0106371
-0.0125181
-0.0149443
-0.0186832
-0.0212969
-0.0224902
-0.010749
0.0131932
0.0890697
-0.0320467
-0.00687184
-0.00541344
-0.00466752
-0.00443098
-0.00459327
-0.00504039
-0.00555732
-0.00625936
-0.00703659
-0.00815331
-0.00946208
-0.0113819
-0.0133511
-0.0153342
-0.0137846
-0.00566805
0.0257785
0.0906726
0.221142
5.76013e-05
3.2573e-05
7.99338e-05
0.000171531
0.000315278
0.000512398
0.000765425
0.0010774
0.00145076
0.00188637
0.0023823
0.00293218
0.00352332
0.00413474
0.00473569
0.00528627
0.0057402
0.00605259
0.00622021
0.00616851
8.51044e-05
5.91104e-05
0.000112472
0.000205063
0.000346794
0.000539587
0.00078653
0.00109098
0.00145564
0.00188177
0.00236804
0.00290886
0.00349211
0.00409874
0.00469839
0.00525102
0.00570876
0.00602492
0.00619993
0.00613921
3.23072e-05
-1.97149e-06
5.00072e-05
0.000139005
0.000276007
0.000463102
0.000703976
0.00100287
0.00136371
0.00178937
0.0022804
0.0028334
0.00343956
0.00407975
0.00472267
0.00532374
0.00582606
0.00616997
0.00635552
0.00626052
-7.96996e-05
-0.000119662
-7.0311e-05
1.32989e-05
0.000143261
0.000322019
0.000554149
0.000845201
0.00120094
0.00162674
0.00212634
0.00269992
0.0033416
0.00403635
0.00475171
0.00543654
0.00601843
0.00641339
0.00661953
0.00647114
-0.000259386
-0.000304367
-0.000259429
-0.000183391
-6.3097e-05
0.000104366
0.000324648
0.000604931
0.000953342
0.0013786
0.00188899
0.00249021
0.00318173
0.0039538
0.00477508
0.00558685
0.00629527
0.00677567
0.00701605
0.00677265
-0.000505589
-0.000555734
-0.000516951
-0.000451016
-0.000343852
-0.00019209
1.10124e-05
0.000274374
0.000608785
0.00102692
0.0015428
0.00216964
0.00291462
0.00378238
0.00474395
0.00573652
0.00663866
0.007261
0.00755906
0.00714549
-0.000815805
-0.000871824
-0.000841076
-0.000788376
-0.000698933
-0.000569143
-0.000391428
-0.000155379
0.000152318
0.000548463
0.0010536
0.00169149
0.00248617
0.00344422
0.00456795
0.00579871
0.00698767
0.00785234
0.00825182
0.00755723
-0.001187
-0.00124997
-0.00122928
-0.00119345
-0.0011273
-0.00102747
-0.000886236
-0.000692497
-0.00043136
-8.29154e-05
0.000379031
0.000988104
0.00178358
0.00279924
0.00407236
0.00557221
0.00715563
0.00844899
0.00902755
0.00798814
-0.00161527
-0.00168639
-0.00167762
-0.00166234
-0.00162544
-0.00156462
-0.0014731
-0.00134068
-0.00115305
-0.000889993
-0.000523184
-1.33271e-05
0.000692647
0.00165682
0.0029244
0.00458266
0.0065858
0.00861341
0.00955389
0.00847333
-0.00209577
-0.0021762
-0.0021804
-0.0021885
-0.00218615
-0.00217315
-0.00214515
-0.00209507
-0.0020126
-0.00188281
-0.00168431
-0.00138616
-0.000944729
-0.000306707
0.000584916
0.00183401
0.0038271
0.00677472
0.0087154
0.00892887
-0.00262303
-0.00271379
-0.0027303
-0.00276262
-0.00279777
-0.00283899
-0.00288618
-0.00293804
-0.0029927
-0.00304802
-0.00310299
-0.00316171
-0.00324792
-0.00344135
-0.00384472
-0.00426987
-0.00360089
2.14236e-05
0.00431456
0.00781904
-0.00319156
-0.00329249
-0.00331685
-0.00337027
-0.0034416
-0.00353869
-0.00366688
-0.00383291
-0.00404747
-0.00432903
-0.00471256
-0.00526852
-0.00614874
-0.0076897
-0.0103084
-0.0138069
-0.0156345
-0.0119237
-0.00535336
0.00224903
-0.00380009
-0.00391221
-0.00393707
-0.00400381
-0.00410266
-0.00424796
-0.00445176
-0.00473011
-0.00510805
-0.00562881
-0.00637116
-0.00748553
-0.00926382
-0.0122862
-0.0171726
-0.0234907
-0.0283577
-0.0257219
-0.0186674
-0.0075228
-0.00444166
-0.00455285
-0.00455465
-0.00461534
-0.00472778
-0.00490991
-0.00517628
-0.005549
-0.0060647
-0.00678441
-0.00781706
-0.00936251
-0.0118014
-0.0157784
-0.0220051
-0.0294957
-0.0363569
-0.0349156
-0.0291283
-0.0164818
-0.00514893
-0.00527853
-0.00524084
-0.00528361
-0.00537817
-0.00555784
-0.00584261
-0.00626029
-0.00685175
-0.00768261
-0.0088692
-0.0106089
-0.0133167
-0.0174628
-0.0239846
-0.0310256
-0.038411
-0.0366623
-0.0329632
-0.0194296
-0.00601276
-0.005933
-0.00577481
-0.00570607
-0.00576045
-0.00594183
-0.0062536
-0.00670912
-0.0073418
-0.00820917
-0.00942224
-0.0111278
-0.0137573
-0.0174568
-0.023249
-0.0289582
-0.0343329
-0.0325244
-0.0306025
-0.0137423
-0.00648195
-0.0069345
-0.00662827
-0.00661604
-0.00656041
-0.00662368
-0.00681602
-0.00716694
-0.00770985
-0.00848491
-0.00959254
-0.0111106
-0.013426
-0.0165752
-0.021241
-0.0254742
-0.0291768
-0.0263426
-0.0229119
0.003062
-0.00997151
-0.00742338
-0.00675342
-0.00611654
-0.00599949
-0.00612325
-0.00642791
-0.00686682
-0.00745943
-0.0082161
-0.00926433
-0.0105743
-0.0125814
-0.0151711
-0.0187463
-0.0215274
-0.0231664
-0.0184003
-0.00867222
0.0345308
-0.00643685
-0.00951597
-0.00849272
-0.00852988
-0.00804429
-0.00775841
-0.00763462
-0.00769687
-0.00799094
-0.00849134
-0.00930765
-0.01045
-0.0123227
-0.0147136
-0.0184086
-0.0209061
-0.0218806
-0.00986938
0.0142568
0.0906456
-0.0318649
-0.00669944
-0.00523607
-0.00449083
-0.00426158
-0.00443055
-0.00488361
-0.00540054
-0.00610147
-0.00687036
-0.00797944
-0.0092691
-0.0111727
-0.0130971
-0.0150106
-0.0133062
-0.00495812
0.0269168
0.0920509
0.223059
7.13388e-05
4.63763e-05
9.42057e-05
0.000186656
0.000331825
0.000531064
0.000787087
0.00110315
0.00148193
0.00192454
0.00242924
0.00298977
0.00359332
0.00421848
0.0048336
0.00539743
0.00586198
0.00618074
0.00635061
0.0062954
9.9194e-05
7.31591e-05
0.000126991
0.000220443
0.000363608
0.000558528
0.000808474
0.00111702
0.00148712
0.00192028
0.00241542
0.00296705
0.00356307
0.00418391
0.00479834
0.00536491
0.00583382
0.00615657
0.00633382
0.00626955
4.73272e-05
1.2985e-05
6.54574e-05
0.000155347
0.000293839
0.000483152
0.000727174
0.0010304
0.00139705
0.00183033
0.00233111
0.00289624
0.00351698
0.00417373
0.00483426
0.00545219
0.00596811
0.00631963
0.00650713
0.00640622
-6.34111e-05
-0.000103453
-5.35769e-05
3.09738e-05
0.000162514
0.000343635
0.00057915
0.000874914
0.00123707
0.00167142
0.00218219
0.00276996
0.00342917
0.00414435
0.00488206
0.00558884
0.0061886
0.00659282
0.00680012
0.00664088
-0.000241624
-0.000286694
-0.000241199
-0.000164162
-4.21823e-05
0.000127828
0.000351802
0.000637296
0.000992916
0.00142797
0.00195141
0.00256962
0.00328265
0.00408064
0.00493122
0.00577274
0.00650599
0.00699827
0.00723763
0.00697351
-0.000486183
-0.000536427
-0.000497063
-0.000430085
-0.00032114
-0.000166659
4.04348e-05
0.000309509
0.000651949
0.00108119
0.00161218
0.00225927
0.00303103
0.00393109
0.00493114
0.0059647
0.00690256
0.00754127
0.00783276
0.00737969
-0.000794576
-0.000850707
-0.000819385
-0.000765642
-0.000674386
-0.000541794
-0.000359914
-0.000117825
0.000198483
0.00060674
0.00112871
0.00178954
0.00261404
0.00361283
0.00478615
0.00607299
0.00731444
0.00820419
0.00858299
0.0078164
-0.00116371
-0.00122681
-0.00120561
-0.00116881