/*--------------------------------*- C++ -*----------------------------------*\
  =========                 |
  \\      /  F ield         | OpenFOAM: The Open Source CFD Toolbox
   \\    /   O peration     | Website:  https://openfoam.org
    \\  /    A nd           | Version:  10
     \\/     M anipulation  |
\*---------------------------------------------------------------------------*/
FoamFile
{
    format      ascii;
    class       volVectorField;
    location    "8.275";
    object      U;
}
// * * * * * * * * * * * * * * * * * * * * * * * * * * * * * * * * * * * * * //

dimensions      [0 1 -1 0 0 0 0];

internalField   nonuniform List<vector> 
475
(
(0.974292 0.0161471 0)
(0.975838 0.00632088 0)
(0.95025 0.0315407 0)
(0.954557 0.00108838 0)
(0.919997 0.0302241 0)
(0.998427 0.00868972 0)
(1.01422 0.0147745 0)
(1.02518 0.015195 0)
(1.04401 0.00860303 0)
(1.05542 0.00204061 0)
(0.999786 0.000259475 0)
(1.00992 -0.00298208 0)
(1.02398 -0.00473562 0)
(1.04155 -0.009364 0)
(1.056 -0.0144387 0)
(0.999952 -0.0100364 0)
(1.01022 -0.0195719 0)
(1.02258 -0.0220188 0)
(1.03563 -0.0231419 0)
(1.04415 -0.0256467 0)
(0.981024 -0.00963396 0)
(0.968884 -0.0192166 0)
(0.953914 -0.0217226 0)
(0.933106 -0.022457 0)
(0.907748 -0.0227622 0)
(0.925229 -0.0163545 0)
(0.932438 -0.0361015 0)
(0.937779 -0.0487571 0)
(0.943933 -0.0580031 0)
(0.953231 -0.0665991 0)
(0.966457 -0.0770012 0)
(0.983498 -0.0902125 0)
(1.00294 -0.107221 0)
(1.02328 -0.127073 0)
(1.04303 -0.150037 0)
(1.06027 -0.173826 0)
(1.07379 -0.197293 0)
(1.08161 -0.218101 0)
(1.0833 -0.233928 0)
(1.07767 -0.243554 0)
(1.06506 -0.245477 0)
(1.04499 -0.240794 0)
(1.01809 -0.231091 0)
(0.987687 -0.216538 0)
(0.9574 -0.197055 0)
(0.928454 -0.173387 0)
(0.901429 -0.14587 0)
(0.87651 -0.115973 0)
(0.853756 -0.0851097 0)
(0.83458 -0.05484 0)
(0.81949 -0.0261315 0)
(0.808289 0.00021192 0)
(0.801457 0.0230136 0)
(0.79802 0.0423583 0)
(0.797634 0.058386 0)
(0.798019 0.0705527 0)
(0.799918 0.0788402 0)
(0.800233 0.0827705 0)
(0.802557 0.0840563 0)
(0.800929 0.0810616 0)
(0.80251 0.0770451 0)
(0.796953 0.0686929 0)
(0.796877 0.0629319 0)
(0.786409 0.0535355 0)
(0.78459 0.0487651 0)
(0.770448 0.0397374 0)
(0.767996 0.0346524 0)
(0.751432 0.0293599 0)
(0.748945 0.0263642 0)
(0.729895 0.0287938 0)
(1.06881 -0.00873624 0)
(1.07761 -0.0213308 0)
(1.08286 -0.0331464 0)
(1.084 -0.0440627 0)
(1.08512 -0.0552816 0)
(1.08548 -0.068077 0)
(1.08667 -0.0834111 0)
(1.08637 -0.101891 0)
(1.08499 -0.123027 0)
(1.08033 -0.146268 0)
(1.07206 -0.169694 0)
(1.05883 -0.191641 0)
(1.03974 -0.208868 0)
(1.01503 -0.21916 0)
(0.983401 -0.220153 0)
(0.946298 -0.214104 0)
(0.901451 -0.205631 0)
(0.8505 -0.193654 0)
(0.798217 -0.175728 0)
(0.748128 -0.153895 0)
(0.701505 -0.129903 0)
(0.66028 -0.105359 0)
(0.624396 -0.0810921 0)
(0.593581 -0.0575493 0)
(0.569198 -0.0351231 0)
(0.551445 -0.0135613 0)
(0.539653 0.00661433 0)
(0.535142 0.0245303 0)
(0.536924 0.0399936 0)
(0.543233 0.0530297 0)
(0.552355 0.063275 0)
(0.5639 0.0706019 0)
(0.575602 0.0744415 0)
(0.588331 0.0757253 0)
(0.598261 0.0733384 0)
(0.608384 0.0706057 0)
(0.613344 0.065064 0)
(0.619195 0.062512 0)
(0.620113 0.0554896 0)
(0.622925 0.0528859 0)
(0.62298 0.0439113 0)
(0.623041 0.0414834 0)
(0.623144 0.0357537 0)
(0.620825 0.0353523 0)
(0.620648 0.0365742 0)
(1.06896 -0.0223682 0)
(1.07609 -0.0328445 0)
(1.0811 -0.0440039 0)
(1.08056 -0.0550219 0)
(1.07912 -0.065802 0)
(1.07366 -0.0773686 0)
(1.06751 -0.0905552 0)
(1.05758 -0.105493 0)
(1.04531 -0.122944 0)
(1.02872 -0.141213 0)
(1.00725 -0.160892 0)
(0.981475 -0.177186 0)
(0.949283 -0.18982 0)
(0.911461 -0.190714 0)
(0.86416 -0.178165 0)
(0.806946 -0.161233 0)
(0.736619 -0.151966 0)
(0.663873 -0.145003 0)
(0.592142 -0.132875 0)
(0.517407 -0.111582 0)
(0.4483 -0.0856319 0)
(0.390302 -0.0602268 0)
(0.343838 -0.038829 0)
(0.307449 -0.021518 0)
(0.281272 -0.00692361 0)
(0.264818 0.00595079 0)
(0.256369 0.0183936 0)
(0.255699 0.0294235 0)
(0.261358 0.0387738 0)
(0.272165 0.0468181 0)
(0.286993 0.0534104 0)
(0.304798 0.058269 0)
(0.324139 0.0610851 0)
(0.344483 0.0622448 0)
(0.364107 0.0614463 0)
(0.383664 0.0599396 0)
(0.401282 0.0565512 0)
(0.418655 0.0537378 0)
(0.435012 0.0479138 0)
(0.449156 0.044798 0)
(0.465544 0.0374244 0)
(0.47333 0.0362281 0)
(0.491547 0.0303896 0)
(0.492531 0.0312823 0)
(0.514896 0.0295606 0)
(1.05071 -0.0301808 0)
(1.05066 -0.0361662 0)
(1.04889 -0.0426459 0)
(1.03944 -0.0494107 0)
(1.02867 -0.0559639 0)
(1.00973 -0.0633755 0)
(0.989372 -0.0713065 0)
(0.96025 -0.0811879 0)
(0.927469 -0.0921018 0)
(0.885669 -0.10481 0)
(0.835828 -0.117991 0)
(0.780035 -0.129298 0)
(0.710579 -0.138777 0)
(0.642566 -0.133415 0)
(0.566599 -0.112846 0)
(0.470156 -0.0875275 0)
(0.338466 -0.0578426 0)
(0.216467 -0.0233777 0)
(0.128995 -0.00388726 0)
(0.06975 -0.00365051 0)
(0.0361552 -0.00778567 0)
(0.0178573 -0.00770492 0)
(0.00764753 -0.00456687 0)
(0.00276836 -0.000253175 0)
(0.00209687 0.00448043 0)
(0.00586989 0.0094362 0)
(0.0140682 0.0141655 0)
(0.026342 0.0184578 0)
(0.0423779 0.022525 0)
(0.0617311 0.0263466 0)
(0.083983 0.0296857 0)
(0.108533 0.0322724 0)
(0.134704 0.033851 0)
(0.161842 0.0345662 0)
(0.18911 0.0341882 0)
(0.216242 0.033043 0)
(0.242264 0.0309169 0)
(0.267345 0.0286058 0)
(0.290663 0.0253938 0)
(0.311744 0.0227071 0)
(0.33221 0.0190224 0)
(0.346995 0.0172815 0)
(0.367738 0.0139507 0)
(0.374492 0.0140419 0)
(0.400857 0.0118958 0)
(0.879813 -0.0244374 0)
(0.848559 -0.0260143 0)
(0.815257 -0.0284202 0)
(0.776327 -0.0303695 0)
(0.73518 -0.0327488 0)
(0.685908 -0.0353837 0)
(0.635251 -0.0381437 0)
(0.573654 -0.0429539 0)
(0.510487 -0.0463578 0)
(0.432892 -0.0545826 0)
(0.350329 -0.0567432 0)
(0.256139 -0.0688305 0)
(0.138452 -0.0643642 0)
(0.045649 -0.0173231 0)
(-0.0133676 0.0316344 0)
(-0.0351352 0.0626057 0)
(-0.0352531 0.0670087 0)
(-0.0236681 0.0414241 0)
(-0.0159282 0.0047814 0)
(-0.0222248 -0.0209413 0)
(-0.0402718 -0.0279227 0)
(-0.0600684 -0.0248744 0)
(-0.0753606 -0.0188016 0)
(-0.0852556 -0.0131336 0)
(-0.0899386 -0.00851724 0)
(-0.0899331 -0.00456764 0)
(-0.085901 -0.00148906 0)
(-0.0783782 0.00102664 0)
(-0.0676731 0.00304042 0)
(-0.0540878 0.00466951 0)
(-0.0379716 0.00595183 0)
(-0.0198308 0.00686586 0)
(-0.000127677 0.00736784 0)
(0.0204264 0.00757836 0)
(0.0410396 0.00740125 0)
(0.0612486 0.00693106 0)
(0.0804393 0.00615512 0)
(0.0982837 0.00530538 0)
(0.11424 0.00429411 0)
(0.128311 0.00338667 0)
(0.140305 0.0025158 0)
(0.15035 0.0018679 0)
(0.159595 0.00150717 0)
(0.165767 0.00147138 0)
(0.177193 0.00139124 0)
(0.00306815 -0.0250972 0)
(0.0038611 -0.0250745 0)
(-0.00435512 -0.0157331 0)
(-0.0241126 0.00276344 0)
(-0.0622041 0.0196835 0)
(-0.110168 0.0273356 0)
(-0.159107 0.0289272 0)
(-0.204914 0.027644 0)
(-0.243834 0.024308 0)
(-0.272745 0.0195792 0)
(-0.289494 0.0137353 0)
(-0.293452 0.00706477 0)
(-0.284731 -0.000427797 0)
(-0.26367 -0.00765195 0)
(-0.231043 -0.014202 0)
(-0.18843 -0.0195612 0)
(-0.138941 -0.022478 0)
(-0.0851137 -0.024217 0)
(-0.0290507 -0.0242849 0)
(0.0268364 -0.0232724 0)
(0.0802616 -0.0211995 0)
(0.128777 -0.0180356 0)
(0.170486 -0.0140521 0)
(0.203896 -0.00965597 0)
(0.228319 -0.00516264 0)
(0.243489 -0.000760917 0)
(0.249287 0.00307888 0)
(0.247384 0.00621483 0)
(0.238956 0.00826462 0)
(0.225711 0.00936859 0)
(0.209286 0.0101657 0)
(0.191218 0.0107947 0)
(0.172639 0.0105936 0)
(0.154761 0.00884667 0)
(0.138938 0.00589759 0)
(0.126705 0.00249466 0)
(0.118423 -0.000475268 0)
(0.11407 -0.00263322 0)
(0.112511 -0.00389447 0)
(0.113388 -0.00451735 0)
(0.115642 -0.00448898 0)
(0.119132 -0.00387443 0)
(0.123328 -0.00283639 0)
(0.126336 -0.00204162 0)
(0.132265 -0.00114065 0)
(-0.00152778 0.0198153 0)
(-0.0210992 0.0343629 0)
(-0.0639046 0.0467989 0)
(-0.100712 0.0590691 0)
(-0.136257 0.0674501 0)
(-0.163986 0.0683221 0)
(-0.185287 0.063438 0)
(-0.199606 0.0541008 0)
(-0.206335 0.0416433 0)
(-0.203573 0.0253488 0)
(-0.190874 0.0076795 0)
(-0.167845 -0.0113198 0)
(-0.13497 -0.0306011 0)
(-0.0920022 -0.0487204 0)
(-0.0406996 -0.0646997 0)
(0.0180391 -0.0768566 0)
(0.0822944 -0.0848366 0)
(0.14816 -0.0886493 0)
(0.21395 -0.0886913 0)
(0.277332 -0.0854616 0)
(0.337001 -0.0791909 0)
(0.391325 -0.0700014 0)
(0.438664 -0.0584189 0)
(0.47782 -0.0452894 0)
(0.508253 -0.0316835 0)
(0.529881 -0.0180999 0)
(0.542408 -0.00538787 0)
(0.547592 0.00563026 0)
(0.545329 0.0148523 0)
(0.536033 0.0216941 0)
(0.521335 0.0256092 0)
(0.503906 0.0268845 0)
(0.485059 0.0267872 0)
(0.466692 0.0253501 0)
(0.449372 0.0221821 0)
(0.434012 0.0173794 0)
(0.420147 0.012431 0)
(0.409074 0.00783016 0)
(0.399782 0.00435245 0)
(0.393195 0.000929481 0)
(0.389159 -0.00123953 0)
(0.386246 -0.00374163 0)
(0.385274 -0.0045979 0)
(0.383175 -0.00558922 0)
(0.381491 -0.00572994 0)
(-0.0346297 -0.00911315 0)
(-0.0666727 0.0323435 0)
(-0.0743913 0.0528449 0)
(-0.0756653 0.0664974 0)
(-0.0685419 0.0724094 0)
(-0.0550785 0.0699241 0)
(-0.0376286 0.0607782 0)
(-0.0151217 0.0464538 0)
(0.0101719 0.0277643 0)
(0.0414345 0.0053491 0)
(0.0795421 -0.0200311 0)
(0.12509 -0.047755 0)
(0.176288 -0.0757498 0)
(0.231939 -0.101439 0)
(0.291837 -0.12404 0)
(0.353024 -0.140421 0)
(0.414455 -0.150847 0)
(0.474434 -0.155148 0)
(0.531421 -0.1539 0)
(0.584323 -0.147519 0)
(0.632404 -0.136123 0)
(0.674785 -0.120249 0)
(0.710586 -0.100889 0)
(0.739123 -0.0793855 0)
(0.760333 -0.057006 0)
(0.774529 -0.0348159 0)
(0.78168 -0.0140963 0)
(0.782907 0.00395761 0)
(0.778446 0.0194227 0)
(0.768768 0.0314801 0)
(0.754608 0.0396578 0)
(0.737949 0.0442726 0)
(0.719722 0.0463212 0)
(0.702027 0.0451529 0)
(0.683822 0.0407292 0)
(0.666662 0.0331871 0)
(0.648989 0.025706 0)
(0.634266 0.0183014 0)
(0.619259 0.0122582 0)
(0.609902 0.0061111 0)
(0.599113 0.00138858 0)
(0.596437 -0.000296303 0)
(0.587721 -0.00141048 0)
(0.589931 0.00173939 0)
(0.578434 0.00131924 0)
(-0.0292458 0.140982 0)
(-0.0238401 0.0886518 0)
(-0.00996067 0.0727394 0)
(0.0191108 0.0643299 0)
(0.0572313 0.0564063 0)
(0.102057 0.046512 0)
(0.151805 0.0323306 0)
(0.203966 0.0137991 0)
(0.257571 -0.0108159 0)
(0.31459 -0.0399578 0)
(0.373322 -0.0712661 0)
(0.433735 -0.10337 0)
(0.494399 -0.134511 0)
(0.55453 -0.162248 0)
(0.612936 -0.184966 0)
(0.667927 -0.200874 0)
(0.718347 -0.209316 0)
(0.763529 -0.21083 0)
(0.803213 -0.205833 0)
(0.837604 -0.194448 0)
(0.86701 -0.176989 0)
(0.891183 -0.154355 0)
(0.910082 -0.127702 0)
(0.923691 -0.0990357 0)
(0.932434 -0.0698995 0)
(0.936939 -0.0414029 0)
(0.93714 -0.0148948 0)
(0.933768 0.00853861 0)
(0.926969 0.0282166 0)
(0.917478 0.0437273 0)
(0.904787 0.0549936 0)
(0.890396 0.0615702 0)
(0.873774 0.0644983 0)
(0.858265 0.0636356 0)
(0.840514 0.0596611 0)
(0.824975 0.0527131 0)
(0.805681 0.0442981 0)
(0.792686 0.0361817 0)
(0.773815 0.0279067 0)
(0.764609 0.0214295 0)
(0.744382 0.0126235 0)
(0.738794 0.00774471 0)
(0.720081 0.00285338 0)
(0.720169 0.00309084 0)
(0.704686 0.00689036 0)
(0.0827372 0.004125 0)
(0.118991 -0.00486864 0)
(0.203185 -0.00778757 0)
(0.268747 -0.0132776 0)
(0.332048 -0.0214339 0)
(0.396099 -0.0327438 0)
(0.460757 -0.0475349 0)
(0.525297 -0.0663821 0)
(0.588478 -0.0888063 0)
(0.651112 -0.115436 0)
(0.711307 -0.143684 0)
(0.768367 -0.172303 0)
(0.820322 -0.199339 0)
(0.866243 -0.22177 0)
(0.905138 -0.238381 0)
(0.936296 -0.247738 0)
(0.959101 -0.249288 0)
(0.974255 -0.244504 0)
(0.983331 -0.234145 0)
(0.987926 -0.217856 0)
(0.989197 -0.195764 0)
(0.987625 -0.168452 0)
(0.9837 -0.137294 0)
(0.978102 -0.10473 0)
(0.971788 -0.0721463 0)
(0.965233 -0.040969 0)
(0.958179 -0.0122401 0)
(0.951578 0.0131752 0)
(0.944529 0.0345573 0)
(0.937693 0.0515846 0)
(0.929425 0.0642378 0)
(0.921414 0.072435 0)
(0.911086 0.0763502 0)
(0.902852 0.0764897 0)
(0.890673 0.0727399 0)
(0.882135 0.0673372 0)
(0.866196 0.0591792 0)
(0.857628 0.0522385 0)
(0.838457 0.0429132 0)
(0.831374 0.0366725 0)
(0.809961 0.0278016 0)
(0.804779 0.0225097 0)
(0.783123 0.0175592 0)
(0.780388 0.0152276 0)
(0.759559 0.0175153 0)
)
;

boundaryField
{
    inlet
    {
        type            fixedValue;
        value           uniform (1 0 0);
    }
    outlet
    {
        type            zeroGradient;
    }
    upperWall
    {
        type            noSlip;
    }
    lowerWall
    {
        type            noSlip;
    }
    frontAndBack
    {
        type            empty;
    }
}


// ************************************************************************* //
