/*--------------------------------*- C++ -*----------------------------------*\
  =========                 |
  \\      /  F ield         | OpenFOAM: The Open Source CFD Toolbox
   \\    /   O peration     | Website:  https://openfoam.org
    \\  /    A nd           | Version:  10
     \\/     M anipulation  |
\*---------------------------------------------------------------------------*/
FoamFile
{
    format      ascii;
    class       surfaceScalarField;
    location    "0.725";
    object      phi;
}
// * * * * * * * * * * * * * * * * * * * * * * * * * * * * * * * * * * * * * //

dimensions      [0 3 -1 0 0 0 0];

internalField   nonuniform List<scalar> 
890
(
0.00968896
0.000311037
0.00999374
-0.000304773
0.00952675
0.000466986
0.00994504
-0.000418288
-0.000367272
0.0103123
0.0102664
4.46806e-05
0.0101013
-0.000139672
0.0105507
1.75308e-05
0.0104644
-0.000331969
-0.00058027
0.0106774
0.0100657
-2.10605e-05
0.0101201
-0.000194056
0.0103743
-0.000236668
0.0104125
-0.000370152
-0.000586263
0.0104185
0.010112
-0.000133077
0.0101963
-0.000278313
0.0102245
-0.000264872
0.0102281
-0.000373772
-0.000542433
0.0101843
0.00986692
0.00958861
0.00932374
0.00894997
0.00840753
0.0108418
-0.000943889
0.000414426
0.0109486
-0.00248355
0.00237669
0.0109432
-0.00407228
0.00407773
0.0106065
-0.0040915
0.00442822
0.00969135
-0.0028468
0.00376192
0.00843788
-0.00164337
0.00289684
0.00727373
-0.000946969
0.00211112
0.00643458
-0.000649777
0.00148893
0.0059156
-0.000515867
0.00103484
0.00562109
-0.000423257
0.000717766
0.00546109
-0.000339703
0.000499704
0.00537541
-0.000264091
0.000349774
0.00532894
-0.000199661
0.000246127
0.00530286
-0.000147803
0.000173883
0.00528757
-0.000107839
0.000123128
0.00527823
-7.79348e-05
8.72812e-05
0.00527231
-5.5966e-05
6.18856e-05
0.00526845
-4.0013e-05
4.38671e-05
0.00526589
-2.85171e-05
3.1077e-05
0.00526417
-2.02771e-05
2.20002e-05
0.005263
-1.43924e-05
1.55629e-05
0.0052622
-1.01992e-05
1.10012e-05
0.00526164
-7.21555e-06
7.77052e-06
0.00526125
-5.09568e-06
5.48338e-06
0.00526098
-3.59283e-06
3.86498e-06
0.00526079
-2.53038e-06
2.72081e-06
0.00526066
-1.78116e-06
1.91335e-06
0.00526057
-1.25343e-06
1.34484e-06
0.0052605
-8.81377e-07
9.44902e-07
0.00526046
-6.18417e-07
6.63353e-07
0.00526043
-4.32265e-07
4.6495e-07
0.0052604
-3.00832e-07
3.25032e-07
0.00526038
-2.08572e-07
2.26141e-07
0.00526037
-1.44406e-07
1.56176e-07
0.00526037
-1.00264e-07
1.0794e-07
0.00526036
-7.00648e-08
7.47631e-08
0.00526036
-4.93652e-08
5.21501e-08
0.00526036
-3.48166e-08
3.66968e-08
0.00526035
-2.47703e-08
2.65308e-08
0.00526035
-1.77772e-08
1.96055e-08
0.00526035
-1.33052e-08
1.48772e-08
0.00526035
-1.14979e-08
1.29474e-08
0.00526035
-8.8661e-09
9.87995e-09
0.00526035
-1.06106e-08
1.06886e-08
-1.43668e-08
1.35573e-08
0.0106711
-0.000937648
0.00983401
-0.00164641
0.0078461
-0.00208437
0.00600682
-0.00225222
0.00525974
-0.00209972
0.0052233
-0.00160692
0.00537542
-0.00109909
0.0054815
-0.000755851
0.00551237
-0.000546743
0.00549449
-0.000405375
0.0054548
-0.000300012
0.00541086
-0.000220152
0.00537179
-0.000160588
0.00534074
-0.000116752
0.00531755
-8.46493e-05
0.00530079
-6.11734e-05
0.00528885
-4.40348e-05
0.00528042
-3.15775e-05
0.00527447
-2.25688e-05
0.00527028
-1.60845e-05
0.00526732
-1.14346e-05
0.00526523
-8.10976e-06
0.00526375
-5.73844e-06
0.00526271
-4.05192e-06
0.00526197
-2.85621e-06
0.00526145
-2.01095e-06
0.00526109
-1.41452e-06
0.00526083
-9.9379e-07
0.00526064
-6.96856e-07
0.00526051
-4.87311e-07
0.00526042
-3.39597e-07
0.00526035
-2.35825e-07
0.00526031
-1.63455e-07
0.00526028
-1.13324e-07
0.00526026
-7.86509e-08
0.00526024
-5.4728e-08
0.00526023
-3.79955e-08
0.00526022
-2.66127e-08
0.00526022
-1.87093e-08
0.00526021
-1.33307e-08
0.00526021
-1.02047e-08
0.00526021
-8.97358e-09
0.0052602
-7.56329e-09
0.0052602
-9.64156e-09
-1.33984e-08
0.0104173
-0.000936453
0.0100869
-0.00131596
0.00937172
-0.00136923
0.00840212
-0.00128262
0.00746765
-0.00116526
0.00682279
-0.000962064
0.00641436
-0.000690661
0.00612297
-0.000464458
0.00589203
-0.000315808
0.00571164
-0.000224976
0.00557823
-0.000166603
0.00548349
-0.000125412
0.00541717
-9.42704e-05
0.0053706
-7.01796e-05
0.00533764
-5.16925e-05
0.00531419
-3.77272e-05
0.00529748
-2.73249e-05
0.00528557
-1.96671e-05
0.00527709
-1.40837e-05
0.00527105
-1.00437e-05
0.00526675
-7.13748e-06
0.0052637
-5.05581e-06
0.00526153
-3.57012e-06
0.00525999
-2.51376e-06
0.0052589
-1.76579e-06
0.00525813
-1.23824e-06
0.00525758
-8.67142e-07
0.00525719
-6.06348e-07
0.00525692
-4.22965e-07
0.00525672
-2.93871e-07
0.00525659
-2.0311e-07
0.00525649
-1.39714e-07
0.00525642
-9.59071e-08
0.00525638
-6.59594e-08
0.00525634
-4.53479e-08
0.00525632
-3.15244e-08
0.0052563
-2.1519e-08
0.00525629
-1.52782e-08
0.00525628
-9.97305e-09
0.00525628
-7.25885e-09
0.00525627
-5.95022e-09
0.00525627
-4.27522e-09
0.00525627
-5.128e-09
0.00525626
-7.30853e-09
-1.06956e-08
0.009803
-0.000555186
0.00913128
-0.000644239
0.00852776
-0.000765721
0.00796447
-0.000719324
0.0073347
-0.000535496
0.00671603
-0.0003434
0.00624527
-0.000219899
0.00593207
-0.000151254
0.00572622
-0.000109959
0.00558323
-8.19889e-05
0.00547767
-6.10395e-05
0.005398
-4.57419e-05
0.00533802
-3.42874e-05
0.00529333
-2.54928e-05
0.00526042
-1.87795e-05
0.0052364
-1.37084e-05
0.00521899
-9.92076e-06
0.00520645
-7.12427e-06
0.00519745
-5.08191e-06
0.00519101
-3.60398e-06
0.00518641
-2.54204e-06
0.00518314
-1.78336e-06
0.00518082
-1.24448e-06
0.00517917
-8.64333e-07
0.005178
-5.98108e-07
0.00517717
-4.1273e-07
0.00517659
-2.83948e-07
0.00517618
-1.94399e-07
0.00517589
-1.32041e-07
0.00517568
-8.87597e-08
0.00517554
-5.90845e-08
0.00517544
-3.91531e-08
0.00517537
-2.59457e-08
0.00517532
-1.73239e-08
0.00517528
-1.14271e-08
0.00517526
-7.71409e-09
0.00517524
-4.2175e-09
0.00517523
-3.18206e-09
0.00517522
-6.95387e-10
0.00517522
-1.03855e-09
0.00517521
-1.73354e-09
0.00517521
6.89393e-10
0.0051752
-3.06906e-09
0.0051752
-5.02008e-09
-5.83965e-09
0.00785235
0.00720811
0.00644239
0.00572306
0.00518757
0.00484417
0.00462427
0.00447302
0.00436306
0.00428107
0.00422003
0.00417429
0.00414
0.00411451
0.00409573
0.00408202
0.0040721
0.00406497
0.00405989
0.00405629
0.00405375
0.00405196
0.00405072
0.00404985
0.00404925
0.00404884
0.00404856
0.00404836
0.00404823
0.00404814
0.00404808
0.00404804
0.00404802
0.004048
0.00404799
0.00404798
0.00404798
0.00404797
0.00404797
0.00404797
0.00404797
0.00404797
0.00404797
0.00404796
-0.000563756
0.000563756
-0.000580961
1.72056e-05
-0.000169102
-0.000411859
0.000574626
-0.000743728
0.00137958
-0.000804956
0.0021032
-0.000723616
0.00268151
-0.000578311
0.00311
-0.000428492
0.0034126
-0.000302599
0.00362019
-0.000207587
0.00376035
-0.000140166
0.00385433
-9.39742e-05
0.00391724
-6.29079e-05
0.00395942
-4.21802e-05
0.00398779
-2.83735e-05
0.00400695
-1.91641e-05
0.00401996
-1.30023e-05
0.00402881
-8.85835e-06
0.00403487
-6.05219e-06
0.00403901
-4.14018e-06
0.00404184
-2.83413e-06
0.00404378
-1.94288e-06
0.00404512
-1.33484e-06
0.00404604
-9.17972e-07
0.00404667
-6.29561e-07
0.00404709
-4.2883e-07
0.00404738
-2.89803e-07
0.00404758
-1.95126e-07
0.00404771
-1.3201e-07
0.0040478
-9.02749e-08
0.00404786
-6.20647e-08
0.00404791
-4.22546e-08
0.00404793
-2.79057e-08
0.00404795
-1.73212e-08
0.00404796
-1.01545e-08
0.00404797
-5.44707e-09
0.00404797
-3.83198e-09
0.00404797
-1.99099e-09
0.00404798
-3.02154e-09
0.00404798
-1.9047e-09
0.00404798
-9.17646e-10
0.00404798
-3.65108e-09
0.00404798
-3.0045e-11
0.00404798
1.11853e-09
-8.98768e-10
-0.000565398
0.00112915
-0.000583845
3.56531e-05
-6.64191e-05
-0.000929285
0.00084772
-0.00165787
0.00187089
-0.00182813
0.00277327
-0.001626
0.00347647
-0.00128151
0.00398978
-0.000941804
0.00435223
-0.000665044
0.00460427
-0.000459631
0.00477857
-0.000314469
0.00489904
-0.000214439
0.00498244
-0.000146306
0.00504033
-0.000100074
0.00508064
-6.86854e-05
0.0051088
-4.73187e-05
0.00512851
-3.27171e-05
0.00514234
-2.26905e-05
0.00515206
-1.57715e-05
0.0051589
-1.09787e-05
0.00516372
-7.65184e-06
0.00516712
-5.33988e-06
0.00516951
-3.7303e-06
0.0051712
-2.60604e-06
0.00517239
-1.81813e-06
0.00517323
-1.2655e-06
0.00517381
-8.79186e-07
0.00517423
-6.10759e-07
0.00517452
-4.25112e-07
0.00517473
-2.96605e-07
0.00517487
-2.0685e-07
0.00517498
-1.4331e-07
0.00517505
-9.80461e-08
0.00517509
-6.59722e-08
0.00517513
-4.39807e-08
0.00517515
-2.93016e-08
0.00517517
-2.05826e-08
0.00517518
-1.43448e-08
0.00517519
-1.15399e-08
0.0051752
-8.34225e-09
0.0051752
-6.00682e-09
0.0051752
-6.35029e-09
0.00517521
-3.32693e-09
0.00517521
-2.93971e-09
-5.14532e-09
-0.00142807
0.00255722
-0.0011816
-0.000210819
-0.000183021
-0.00192786
0.000969716
-0.0028106
0.00213872
-0.00299712
0.00310135
-0.00258863
0.00379799
-0.00197815
0.00426852
-0.00141233
0.00457974
-0.00097627
0.00478718
-0.000667069
0.00492786
-0.000455153
0.00502486
-0.000311435
0.00509256
-0.000214004
0.00514019
-0.000147708
0.00517388
-0.000102369
0.00519776
-7.12057e-05
0.00521473
-4.96799e-05
0.00522678
-3.47423e-05
0.00523534
-2.4335e-05
0.00524143
-1.70633e-05
0.00524575
-1.19742e-05
0.00524882
-8.40882e-06
0.00525099
-5.90735e-06
0.00525254
-4.14891e-06
0.00525363
-2.9108e-06
0.0052544
-2.03922e-06
0.00525495
-1.42718e-06
0.00525534
-9.98872e-07
0.00525561
-6.99709e-07
0.00525581
-4.90489e-07
0.00525594
-3.43514e-07
0.00525604
-2.39476e-07
0.00525611
-1.65512e-07
0.00525616
-1.13252e-07
0.00525619
-7.71151e-08
0.00525621
-5.26985e-08
0.00525623
-3.68546e-08
0.00525624
-2.61424e-08
0.00525625
-1.95002e-08
0.00525625
-1.44383e-08
0.00525626
-1.08618e-08
0.00525626
-9.45132e-09
0.00525627
-6.61755e-09
0.00525627
-6.526e-09
-9.30866e-09
-0.000301595
0.00285882
0.000518658
-0.00103107
0.00151331
-0.00292251
0.00250225
-0.00379954
0.00334491
-0.00383979
0.00399591
-0.00323963
0.00444437
-0.00242661
0.00472831
-0.00169627
0.00490164
-0.0011496
0.00500975
-0.000775176
0.0050808
-0.00052621
0.00513
-0.000360633
0.0051653
-0.0002493
0.00519108
-0.000173485
0.00521
-0.000121299
0.00522389
-8.50893e-05
0.00523403
-5.98197e-05
0.0052414
-4.2111e-05
0.00524673
-2.96664e-05
0.00525057
-2.09073e-05
0.00525334
-1.47377e-05
0.00525532
-1.03895e-05
0.00525673
-7.32209e-06
0.00525774
-5.15633e-06
0.00525845
-3.62702e-06
0.00525896
-2.54853e-06
0.00525933
-1.78984e-06
0.00525959
-1.25724e-06
0.00525977
-8.833e-07
0.0052599
-6.2008e-07
0.00525999
-4.34278e-07
0.00526005
-3.0278e-07
0.0052601
-2.09713e-07
0.00526013
-1.44466e-07
0.00526015
-9.95778e-08
0.00526017
-6.91322e-08
0.00526018
-4.8729e-08
0.00526019
-3.45553e-08
0.00526019
-2.50407e-08
0.0052602
-1.83193e-08
0.0052602
-1.36805e-08
0.0052602
-1.15906e-08
0.0052602
-8.56367e-09
0.00526021
-9.18622e-09
-1.21631e-08
0.00327324
0.00461886
0.00577407
0.00640275
0.00632488
0.0059821
0.00566661
0.00545926
0.00534451
0.0052871
0.00526059
0.00524973
0.00524656
0.00524696
0.00524879
0.00525098
0.00525304
0.0052548
0.00525621
0.0052573
0.00525813
0.00525874
0.00525919
0.00525952
0.00525975
0.00525993
0.00526005
0.00526014
0.0052602
0.00526024
0.00526027
0.00526029
0.00526031
0.00526032
0.00526033
0.00526034
0.00526034
0.00526034
0.00526034
0.00526035
0.00526035
0.00526035
0.00526035
0.00526035
)
;

boundaryField
{
    inlet
    {
        type            calculated;
        value           nonuniform List<scalar> 5(-0.01 -0.01 -0.01 -0.01 -0.01);
    }
    outlet
    {
        type            calculated;
        value           nonuniform List<scalar> 10(0.00526035 0.0052602 0.00525626 0.0051752 0.00404796 0.00404798 0.00517522 0.00525627 0.00526021 0.00526035);
    }
    upperWall
    {
        type            calculated;
        value           uniform 0;
    }
    lowerWall
    {
        type            calculated;
        value           uniform 0;
    }
    frontAndBack
    {
        type            empty;
        value           nonuniform List<scalar> 0();
    }
}


// ************************************************************************* //
