/*--------------------------------*- C++ -*----------------------------------*\
  =========                 |
  \\      /  F ield         | OpenFOAM: The Open Source CFD Toolbox
   \\    /   O peration     | Website:  https://openfoam.org
    \\  /    A nd           | Version:  10
     \\/     M anipulation  |
\*---------------------------------------------------------------------------*/
FoamFile
{
    format      ascii;
    class       volScalarField;
    location    "3.875";
    object      p;
}
// * * * * * * * * * * * * * * * * * * * * * * * * * * * * * * * * * * * * * //

dimensions      [0 2 -2 0 0 0 0];

internalField   nonuniform List<scalar> 
400
(
-2.31678e-11
-3.06237e-05
-1.00834e-05
3.609e-05
0.000113975
0.000224156
0.000366998
0.000542607
0.000750255
0.000987933
0.00125193
0.00153639
0.00183298
0.00213064
0.0024158
0.00267296
0.00288534
0.00303698
0.00312559
0.00310566
3.14053e-05
-4.96626e-07
2.11491e-05
6.51416e-05
0.000138948
0.000243744
0.0003803
0.000549093
0.000749757
0.000980675
0.00123853
0.00151757
0.00181029
0.00210571
0.00239027
0.00264828
0.00286251
0.00301685
0.00311006
0.00308882
7.64426e-06
-2.93252e-05
-9.38999e-06
3.1856e-05
0.000102639
0.000204363
0.000338192
0.00050513
0.000705413
0.000938038
0.00120028
0.00148758
0.00179204
0.00210264
0.00240521
0.00268268
0.00291553
0.00308465
0.00318789
0.00316221
-4.72119e-05
-8.84972e-05
-7.08932e-05
-3.32671e-05
3.35398e-05
0.000131327
0.000261898
0.000427069
0.000628021
0.000864784
0.00113566
0.00143673
0.00176138
0.00209841
0.00243249
0.00274409
0.00300993
0.00320581
0.00332749
0.00329989
-0.000138923
-0.000184942
-0.000170391
-0.000137267
-7.53128e-05
1.78056e-05
0.000144734
0.000308373
0.000511202
0.000754721
0.00103877
0.00136077
0.00171524
0.00209124
0.00247245
0.00283634
0.00315396
0.00339278
0.00354443
0.00351698
-0.000267668
-0.000319431
-0.000308831
-0.000281507
-0.00022593
-0.000139117
-1.7381e-05
0.000143559
0.000347868
0.000599033
0.000899061
0.00124744
0.00164111
0.00206982
0.00251658
0.00295537
0.00334974
0.00365443
0.00385314
0.00382952
-0.000433581
-0.000492382
-0.000486884
-0.000467233
-0.000420431
-0.000342774
-0.000229361
-7.42398e-05
0.000128889
0.000386134
0.000702541
0.00108052
0.00152121
0.0020163
0.00254959
0.00309177
0.00359714
0.00400184
0.0042743
0.00426346
-0.00063715
-0.000704516
-0.000705559
-0.00069607
-0.000661413
-0.000597158
-0.000497075
-0.000353317
-0.000157043
0.000101207
0.000430805
0.000840218
0.0013301
0.00190347
0.00254603
0.00322684
0.00389013
0.00444737
0.00483673
0.0048611
-0.000878972
-0.000956612
-0.000965837
-0.000969569
-0.000951409
-0.000906305
-0.000826697
-0.000702745
-0.000522833
-0.000273704
5.90765e-05
0.000489709
0.00103025
0.00168985
0.0024635
0.0033243
0.00420865
0.00499968
0.00557794
0.00569356
-0.00115974
-0.00124946
-0.00126848
-0.00128888
-0.00129242
-0.00127368
-0.00122394
-0.00113146
-0.000981882
-0.000757913
-0.000439213
-2.96079e-06
0.000574238
0.00131507
0.00223286
0.00331588
0.00450193
0.00564869
0.00654268
0.0068857
-0.00148044
-0.00158401
-0.00161396
-0.00165441
-0.00168537
-0.00170141
-0.00169297
-0.00164685
-0.0015464
-0.00137073
-0.00109367
-0.000682964
-9.9742e-05
0.000691825
0.00174395
0.00307685
0.00465548
0.00633384
0.00777272
0.00865503
-0.001843
-0.00196175
-0.00200239
-0.00206552
-0.00212942
-0.00218923
-0.00223502
-0.00225279
-0.00222467
-0.00212767
-0.00193173
-0.00159685
-0.00107081
-0.000287949
0.000835809
0.00238755
0.00442009
0.00684956
0.00919964
0.0114345
-0.00225169
-0.00238561
-0.00243371
-0.0025201
-0.00262119
-0.00273338
-0.00284672
-0.00294721
-0.00301745
-0.00303518
-0.00297075
-0.00278272
-0.00241172
-0.00177253
-0.00076402
0.000829374
0.00323697
0.00657348
0.0104191
0.0152722
-0.0027154
-0.00285881
-0.0029035
-0.00300996
-0.00315167
-0.00332494
-0.00351881
-0.00371986
-0.00391338
-0.0040817
-0.00420184
-0.00424175
-0.00415129
-0.00384527
-0.00318484
-0.00200071
0.000175135
0.0039978
0.00940102
0.0184559
-0.00325861
-0.00342067
-0.00345117
-0.00357614
-0.00374733
-0.00397165
-0.00424379
-0.00455341
-0.00488877
-0.00523914
-0.00559654
-0.00595503
-0.00630867
-0.00664719
-0.00696648
-0.00725052
-0.00717285
-0.00481563
0.000305554
0.0145228
-0.00396072
-0.00391962
-0.00387737
-0.003962
-0.00417885
-0.00450154
-0.00490582
-0.00536904
-0.00587809
-0.00642965
-0.00703628
-0.00773214
-0.00858989
-0.00973741
-0.0114916
-0.0142269
-0.0185858
-0.0201146
-0.0169356
0.00321118
-0.00443794
-0.00490658
-0.00475591
-0.00495178
-0.00515846
-0.00547376
-0.0058935
-0.00640769
-0.00700955
-0.00770133
-0.00850975
-0.00950785
-0.0108708
-0.0128713
-0.0163851
-0.0216227
-0.0321523
-0.0394318
-0.0362829
-0.00548058
-0.00762802
-0.00512386
-0.00473069
-0.00448787
-0.00476126
-0.00528427
-0.00597522
-0.00675566
-0.00760697
-0.00851306
-0.00952371
-0.0106934
-0.0123401
-0.0146012
-0.0192143
-0.0253978
-0.0376606
-0.0459174
-0.0402091
0.0116712
-0.00446835
-0.00735763
-0.00662356
-0.00703288
-0.00708669
-0.00734953
-0.0077938
-0.00838722
-0.00909961
-0.00991824
-0.0108147
-0.0118635
-0.0134516
-0.0154789
-0.0202958
-0.0263356
-0.036558
-0.0373115
-0.0146937
0.0705187
-0.0289016
-0.00407283
-0.00312696
-0.00284049
-0.00316426
-0.00395457
-0.0050507
-0.00616455
-0.00737776
-0.00850574
-0.00982402
-0.011097
-0.0129915
-0.0151832
-0.0182518
-0.0201764
-0.0179019
0.00567022
0.0696985
0.207871
)
;

boundaryField
{
    movingWall
    {
        type            zeroGradient;
    }
    fixedWalls
    {
        type            zeroGradient;
    }
    frontAndBack
    {
        type            empty;
    }
}


// ************************************************************************* //
