/*--------------------------------*- C++ -*----------------------------------*\
  =========                 |
  \\      /  F ield         | OpenFOAM: The Open Source CFD Toolbox
   \\    /   O peration     | Website:  https://openfoam.org
    \\  /    A nd           | Version:  10
     \\/     M anipulation  |
\*---------------------------------------------------------------------------*/
FoamFile
{
    format      ascii;
    class       volScalarField;
    location    "7.5";
    object      p;
}
// * * * * * * * * * * * * * * * * * * * * * * * * * * * * * * * * * * * * * //

dimensions      [0 2 -2 0 0 0 0];

internalField   nonuniform List<scalar> 
496
(
26.2431
26.4327
22.9965
16.9094
26.8418
27.454
23.4009
17.1213
31.7684
29.4857
20.9604
10.459
39.7858
36.4857
32.8685
16.8384
8.34294
-1.01989
8.16829
-0.715437
-5.0077
-9.55203
-34.6233
-60.3536
-8.01175
-12.4794
-14.5109
-15.4308
-8.08972
-13.65
-16.8251
-18.2412
-2.9006
-3.22181
-7.16727
-13.6597
-30.3442
-14.3857
-7.3774
-9.59453
-16.0947
-16.7616
-17.4306
-17.9455
-18.1871
-17.9968
-17.7165
-17.0611
-16.1734
-15.004
-13.5233
-11.9818
-10.2881
-8.89886
-7.51456
-6.58026
-5.89526
-5.63118
-5.2943
-4.75019
-4.59356
-4.16248
-3.69346
-2.87004
-1.80178
-0.648908
0.641799
1.20828
1.69938
1.61712
1.53075
1.30859
0.753562
0.201247
-0.592993
-0.843457
-0.958226
-0.8792
-0.462433
-0.203189
-18.7538
-19.0623
-19.1721
-18.7654
-18.2565
-18.0279
-17.8283
-17.1621
-16.2402
-14.9833
-13.5355
-12.0638
-10.4355
-8.77352
-7.01714
-5.91064
-5.51638
-5.20818
-5.22743
-4.99417
-4.74559
-4.33187
-3.95191
-3.25545
-2.15912
-0.677152
0.675037
1.51323
1.97212
1.78783
1.45418
1.21698
0.435132
-0.191126
-0.695405
-1.0664
-1.24776
-1.15104
-0.686732
-0.205599
-18.5266
-20.852
-20.7763
-19.7477
-19.2849
-19.0981
-18.4795
-17.8338
-17.1822
-15.8788
-14.2134
-12.1788
-10.1773
-8.10603
-6.51982
-5.6594
-5.23576
-5.72621
-6.20474
-6.47943
-6.39426
-5.65993
-4.41544
-2.8065
-1.50221
0.0674443
1.04323
2.07546
2.29073
1.75073
1.1663
-0.224547
-1.0888
-1.99548
-1.8506
-1.5945
-1.00843
0.113583
-0.258872
-0.360015
-17.0065
-20.7231
-18.6625
-18.1225
-19.6929
-19.9243
-18.3697
-18.2931
-18.1142
-17.2222
-15.5809
-13.2369
-10.308
-6.85962
-4.63655
-3.24178
-3.61855
-4.6298
-5.81793
-7.48355
-7.57277
-7.51858
-6.17565
-4.4242
-2.15093
1.42031
4.17719
5.34074
4.14419
2.83778
1.52453
-0.123982
-1.26481
-2.8738
-2.73923
-3.33901
-2.02076
0.671027
2.78719
2.5396
44.4377
45.8917
60.1814
72.5689
44.3664
46.3225
60.6832
73.1239
-33.2651
-28.1263
-15.0497
-32.5232
-34.0526
-24.8293
-20.3433
-18.4525
-20.8263
-18.4958
-19.6544
-24.0973
-19.8008
-17.5382
-20.1238
-18.158
-16.8589
-15.663
-14.4494
-12.7384
-10.8037
-9.09592
-7.6168
-6.11305
-5.33127
-5.35851
-5.64815
-5.99231
-6.12835
-5.79915
-4.74559
-3.73489
-2.41567
-0.774822
0.259863
0.424411
0.0813988
0.0975733
-0.0431671
-0.304176
-0.515864
-1.51332
-2.69723
-2.42123
-1.63314
-0.746958
0.0936096
0.403267
-26.2664
-22.7668
-21.377
-21.2034
-20.9907
-22.6437
-19.4729
-15.8392
-14.5107
-13.9038
-12.7006
-11.7755
-11.2401
-11.3577
-11.2884
-10.2824
-8.61703
-7.03202
-5.41819
-3.56289
-2.10727
-1.29109
-1.10022
-1.44219
-1.79807
-2.29321
-2.82516
-3.95287
-3.78079
-2.91503
-1.66304
-0.261783
1.30579
2.20836
1.54555
1.04547
0.365584
0.269539
0.0851549
-0.394303
39.7741
36.8098
33.6302
18.1253
32.6791
30.1014
21.4781
10.8221
27.711
28.1768
23.7304
17.5131
26.8929
27.166
23.7511
17.4729
-31.4463
-58.9365
-4.4258
-8.65511
8.4727
-0.422812
8.7583
-0.488219
-28.3873
-7.05831
-9.5942
-15.629
-2.06299
-2.95883
-8.63253
-14.8352
-7.98851
-13.3462
-16.2427
-18.0109
-7.41968
-11.842
-14.2512
-15.4931
-17.7407
-19.1756
-20.6562
-20.6935
-18.6293
-18.2236
-18.1107
-15.6928
-13.2698
-11.0476
-10.4758
-11.5028
-12.0308
-12.5254
-12.2552
-11.7198
-10.0892
-7.49906
-4.39148
-0.797574
1.74495
2.67538
1.66133
0.160933
-1.33341
-3.16567
-3.80686
-4.12333
-4.10561
-3.33381
-2.26064
0.478069
3.4872
6.68017
6.22873
4.71002
3.16548
1.69046
0.412263
-0.507764
-18.7498
-20.5358
-21.0282
-20.0479
-18.6795
-17.5757
-16.5523
-15.405
-14.6009
-13.4962
-12.2332
-12.1061
-12.2392
-12.0977
-11.3468
-10.0466
-8.2919
-6.06824
-4.14637
-2.32024
-1.44906
-0.60888
-0.387605
-1.02865
-1.90024
-2.88104
-3.20441
-3.13088
-2.46382
-1.57414
-0.762852
0.765832
1.9256
3.17151
3.70026
3.59528
2.90822
1.65067
0.475362
-0.569496
-19.3476
-19.7933
-19.6912
-19.1654
-18.2521
-17.2294
-16.0289
-14.9486
-14.095
-13.4612
-12.5587
-11.707
-11.3244
-10.8255
-10.0261
-8.94161
-7.85053
-6.49649
-4.861
-3.13498
-1.70781
-0.92936
-0.580556
-0.828911
-1.34625
-1.62602
-1.64469
-1.23211
-1.08588
-1.01289
-0.864309
-0.0506451
1.58521
2.66179
3.62565
3.56784
2.93523
2.00932
0.955915
0.208164
-16.5413
-17.3808
-17.9578
-18.2705
-17.8879
-17.1053
-16.0315
-15.0076
-14.0031
-13.4262
-12.8601
-12.0749
-11.4267
-10.6763
-9.93381
-8.78451
-7.6524
-6.37217
-4.87869
-3.49881
-2.02095
-1.30756
-0.892204
-1.05316
-1.28784
-1.33716
-1.24984
-0.906892
-0.955185
-0.816397
-0.566785
0.110574
1.41384
2.4639
3.36788
3.45906
3.01653
2.258
1.37956
0.46208
)
;

boundaryField
{
    inlet
    {
        type            zeroGradient;
    }
    outlet
    {
        type            fixedValue;
        value           uniform 0;
    }
    obstacle
    {
        type            zeroGradient;
    }
    upperWall
    {
        type            zeroGradient;
    }
    lowerWall
    {
        type            zeroGradient;
    }
    frontAndBack
    {
        type            empty;
    }
}


// ************************************************************************* //
