/*--------------------------------*- C++ -*----------------------------------*\
  =========                 |
  \\      /  F ield         | OpenFOAM: The Open Source CFD Toolbox
   \\    /   O peration     | Website:  https://openfoam.org
    \\  /    A nd           | Version:  10
     \\/     M anipulation  |
\*---------------------------------------------------------------------------*/
FoamFile
{
    format      ascii;
    class       volVectorField;
    location    "7.5";
    object      U;
}
// * * * * * * * * * * * * * * * * * * * * * * * * * * * * * * * * * * * * * //

dimensions      [0 1 -1 0 0 0 0];

internalField   nonuniform List<vector> 
496
(
(9.92524 0.0707663 0)
(9.97986 -0.168873 0)
(10.1787 -0.104373 0)
(10.7895 -0.218163 0)
(9.97535 0.514251 0)
(9.89846 -1.28293 0)
(10.1717 -0.296857 0)
(10.8928 -1.13895 0)
(10.699 1.37709 0)
(9.23942 -3.00541 0)
(11.1481 -0.170575 0)
(10.9351 -4.15423 0)
(11.7712 1.65667 0)
(8.36353 -2.77098 0)
(12.5402 0.967311 0)
(10.3902 -6.75213 0)
(11.4254 -0.208668 2.35397e-18)
(12.1837 -0.181653 2.45953e-19)
(11.6119 -0.410154 -1.45422e-18)
(12.5527 0.232369 2.66695e-18)
(12.9888 -2.12453 -9.02338e-19)
(13.3953 -0.457774 -2.9131e-18)
(12.8905 -5.24546 -3.95014e-17)
(15.8293 -4.57244 6.84395e-17)
(12.7087 -0.183133 0)
(12.9932 -0.166016 0)
(13.1504 -0.099747 0)
(13.1545 0.0138041 0)
(13.102 0.152824 0)
(13.5045 -0.129415 0)
(13.7498 -0.567885 0)
(13.8384 -0.65867 0)
(12.6016 0.743295 0)
(12.957 1.1837 0)
(12.9191 0.741316 0)
(13.4327 0.36871 0)
(10.4065 -2.48825 0)
(10.1638 -1.50887 0)
(7.33607 -1.99949 0)
(8.19293 -0.211185 0)
(13.2186 0.096148 0)
(13.2094 0.201485 0)
(13.2651 0.248607 0)
(13.2508 0.325957 0)
(13.256 0.314403 0)
(13.1961 0.314717 0)
(13.1289 0.342116 0)
(13.0152 0.333088 0)
(12.8467 0.377086 0)
(12.6409 0.340921 0)
(12.3999 0.37189 0)
(12.1307 0.325993 0)
(11.9367 0.350347 0)
(11.7269 0.309961 0)
(11.7095 0.246976 0)
(11.6048 0.188209 0)
(11.7476 0.128153 0)
(11.7382 0.160998 0)
(11.8143 0.158849 0)
(11.6522 0.236175 0)
(11.4682 0.261867 0)
(11.1244 0.299961 0)
(10.6971 0.407674 0)
(10.2995 0.391715 0)
(9.9978 0.447463 0)
(9.73941 0.264623 0)
(9.8862 0.198703 0)
(9.89371 0.0796214 0)
(10.4976 -0.0239989 0)
(10.5901 0.0404149 0)
(11.1503 -0.0388574 0)
(11.1428 0.162698 0)
(11.2612 0.101071 0)
(11.141 0.325515 0)
(10.592 0.290281 0)
(10.3859 0.444884 0)
(9.5773 0.430283 0)
(9.62364 0.338511 0)
(9.18729 0.214205 0)
(9.41531 -0.0464394 0)
(13.8974 -0.679571 0)
(13.9121 -0.462873 0)
(13.9487 -0.363923 0)
(13.9307 -0.221644 0)
(13.8838 -0.203472 0)
(13.9099 -0.135001 0)
(13.8666 -0.0467519 0)
(13.8244 -0.0414275 0)
(13.6745 0.109922 0)
(13.5231 0.0738352 0)
(13.3091 0.168806 0)
(13.1132 0.0637762 0)
(12.9293 0.0368838 0)
(12.7299 -0.0189371 0)
(12.6551 -0.15617 0)
(12.6251 -0.131023 0)
(12.792 -0.309631 0)
(12.8808 -0.119798 0)
(13.0458 -0.114654 0)
(12.9572 0.185065 0)
(12.8731 0.368327 0)
(12.5682 0.400205 0)
(12.3488 0.431893 0)
(11.8656 0.0691517 0)
(11.627 0.0868448 0)
(11.2217 -0.297774 0)
(11.3064 -0.334935 0)
(11.32 -0.511384 0)
(11.6741 -0.710883 0)
(11.9613 -0.507129 0)
(12.2859 -0.676127 0)
(12.5997 -0.167703 0)
(12.7212 -0.0661144 0)
(12.901 0.414788 0)
(12.6031 0.534271 0)
(12.5603 0.35651 0)
(11.9664 0.310741 0)
(11.7684 -0.117189 0)
(11.3109 -0.0149299 0)
(11.4056 -0.140209 0)
(13.6999 0.0874971 0)
(13.8578 0.235437 0)
(14.0178 0.196855 0)
(13.6136 0.136252 0)
(13.8621 0.125289 0)
(13.6302 0.252223 0)
(13.8708 0.321797 0)
(13.6183 0.344689 0)
(13.8722 0.574365 0)
(13.5957 0.61882 0)
(13.5947 0.832742 0)
(13.3299 0.786719 0)
(13.1659 0.750806 0)
(13.0579 0.516426 0)
(12.831 0.182131 0)
(12.8363 0.00387701 0)
(12.777 -0.252889 0)
(12.9177 -0.152008 0)
(13.1391 -0.0954068 0)
(13.2391 0.235935 0)
(13.6318 0.70793 0)
(13.3035 1.00368 0)
(13.3343 1.53695 0)
(12.631 1.39063 0)
(12.5651 1.32803 0)
(12.1381 0.56353 0)
(11.8953 -0.092526 0)
(11.8504 -0.533156 0)
(11.3115 -0.924876 0)
(11.8552 -0.682821 0)
(11.337 -0.935567 0)
(12.1856 -0.433781 0)
(12.2384 -0.289725 0)
(12.9304 0.37068 0)
(13.126 0.83985 0)
(12.888 1.30883 0)
(12.9874 1.46114 0)
(12.4522 1.09148 0)
(12.9534 0.427988 0)
(12.6906 -0.242096 0)
(8.16881 -0.0714824 0)
(9.58262 0.0620355 0)
(9.18434 -0.33328 0)
(8.15698 -0.282828 0)
(8.95213 0.100392 0)
(9.21725 -0.274904 0)
(8.67176 -0.14739 0)
(9.2313 -0.038009 0)
(9.60116 0.0690153 0)
(9.7373 0.140079 0)
(10.2497 0.266727 0)
(9.96076 0.402762 0)
(10.1412 0.437135 0)
(9.2179 0.394083 0)
(9.10676 0.361644 0)
(8.52843 0.2283 0)
(8.442 0.0197973 0)
(8.61248 -0.293512 0)
(8.72167 -0.379353 0)
(9.69699 -0.340133 0)
(10.0599 -0.0993171 0)
(11.0537 0.223983 0)
(11.5696 0.455973 0)
(11.8636 0.599607 0)
(12.0608 0.544758 0)
(11.0557 0.529202 0)
(10.2873 0.54053 0)
(8.8179 0.49063 0)
(7.99952 0.217475 0)
(7.88594 -0.22856 0)
(7.1812 -0.771136 0)
(8.72763 -0.862983 0)
(8.31774 -0.91212 0)
(10.3983 -0.455193 0)
(10.3117 0.017237 0)
(11.8544 0.383326 0)
(11.8532 0.453441 0)
(11.5211 0.073089 0)
(10.9095 0.249656 0)
(8.66135 0.299626 0)
(12.5534 0.530892 -1.01758e-17)
(7.6967 -0.764643 -1.73279e-17)
(11.8253 -0.116304 3.01918e-17)
(4.74898 -4.61545 -8.23248e-17)
(11.6836 -0.611672 1.02163e-17)
(8.56048 0.846061 1.75421e-17)
(10.8578 -0.0236884 -3.04575e-17)
(5.48019 4.6221 8.2958e-17)
(-9.38184 2.01227 0)
(12.1023 5.37366 0)
(-11.031 0.409315 0)
(6.3564 -3.6444 0)
(5.09396 -4.87639 3.87205e-17)
(-4.66779 2.28865 0)
(7.48292 -0.841355 0)
(-1.63052 -2.06634 0)
(-1.02015 0.137543 0)
(1.55132 1.85075 0)
(-2.25302 -1.49254 0)
(0.698593 -0.671268 0)
(1.90111 1.01755 0)
(-1.8504 0.275739 0)
(0.00163679 -0.614349 0)
(1.26756 0.134147 0)
(1.07101 0.29484 0)
(1.08771 0.66169 0)
(1.12864 0.754243 0)
(1.4055 0.82765 0)
(1.38798 0.896435 0)
(1.37598 0.875438 0)
(1.78097 0.670748 0)
(2.10481 0.223096 0)
(2.15809 -0.446688 0)
(2.59517 -0.778193 0)
(3.24611 -0.912781 0)
(3.75163 -0.831266 0)
(4.33701 -0.450818 0)
(4.78259 0.0839598 0)
(4.97459 0.555888 0)
(5.00877 0.995012 0)
(5.01989 1.51279 0)
(4.47624 1.50743 0)
(4.32793 1.22227 0)
(4.36104 0.725285 0)
(4.45711 -0.246666 0)
(4.69501 -0.813441 0)
(4.85039 -1.63579 0)
(5.52717 -1.75832 0)
(5.68647 -1.86915 0)
(6.52635 -1.40889 0)
(6.99212 -0.63509 0)
(7.3468 0.124134 0)
(7.38268 0.998628 0)
(6.88436 1.46906 0)
(6.39269 2.16385 0)
(5.72775 1.17455 0)
(-2.16509 1.77712 0)
(1.70163 0.0265979 0)
(0.0275014 0.113492 0)
(0.297589 -1.77797 0)
(-1.71641 1.2026 0)
(1.51947 0.085728 0)
(0.101895 -1.72829 0)
(0.458396 -0.895938 0)
(-0.273023 -0.102013 0)
(0.835603 -0.14299 0)
(1.20404 -0.088568 0)
(1.75373 0.0437444 0)
(1.73768 0.341481 0)
(2.22763 0.340585 0)
(2.85797 -0.0776732 0)
(3.3794 -0.498582 0)
(3.27635 -0.795874 0)
(3.35979 -1.12989 0)
(3.37562 -1.39122 0)
(3.222 -1.35341 0)
(3.13298 -0.928275 0)
(3.35482 -0.303073 0)
(3.49683 0.471298 0)
(3.93493 0.976314 0)
(4.41053 1.27508 0)
(5.02311 1.35071 0)
(5.48507 1.1282 0)
(6.16378 0.641035 0)
(6.72987 -0.0371452 0)
(6.76868 -0.574831 0)
(6.88048 -1.13547 0)
(6.25483 -1.6412 0)
(6.04814 -1.72221 0)
(5.21737 -1.33375 0)
(5.86815 -0.591582 0)
(5.21218 0.473796 0)
(5.90374 1.43391 0)
(5.99882 1.72474 0)
(5.97482 2.36188 0)
(6.79595 1.38925 0)
(12.7835 -1.60365 0)
(7.46992 2.60919 0)
(13.8109 -0.890595 0)
(9.47347 6.51351 0)
(11.0312 -1.47061 0)
(8.78982 3.03379 0)
(11.3242 -0.0813559 0)
(10.4054 4.25007 0)
(10.1379 -0.550562 0)
(9.70366 1.3394 0)
(10.3069 0.294826 0)
(10.7061 1.18276 0)
(9.9791 -0.0958325 0)
(9.90857 0.200188 0)
(10.1748 0.126769 0)
(10.7539 0.19421 0)
(14.1524 5.21061 3.58772e-17)
(14.8798 4.43287 -6.68233e-17)
(12.9169 1.8721 0)
(12.6361 0.625178 0)
(11.6614 0.423952 0)
(12.3771 -0.140249 0)
(11.4322 0.232237 0)
(12.1779 0.157389 0)
(12.6044 2.53941 0)
(10.6228 1.98568 0)
(8.45012 0.815216 0)
(11.7016 0.880268 0)
(12.2188 -1.15747 0)
(12.2314 -0.887 0)
(12.6627 -0.445028 0)
(13.0947 -0.379739 0)
(12.9435 -0.0663749 0)
(13.3645 0.297918 0)
(13.5787 0.587878 0)
(13.7153 0.707094 0)
(12.6696 0.186973 0)
(13.0047 0.127699 0)
(13.1586 0.0493262 0)
(13.2435 0.0121596 0)
(9.58676 0.586535 0)
(10.781 0.272549 0)
(9.91745 0.335168 0)
(10.7239 0.243233 0)
(10.2976 0.34716 0)
(9.73941 -0.0689284 0)
(10.2572 -0.19844 0)
(10.1759 -0.263481 0)
(9.73468 -0.175126 0)
(9.59285 -0.055492 0)
(9.09931 0.0414971 0)
(9.76678 0.125237 0)
(9.49115 0.20505 0)
(10.1758 0.226006 0)
(10.3313 0.0249607 0)
(11.0579 -0.171913 0)
(11.3947 -0.362655 0)
(11.4972 -0.455829 0)
(11.3351 -0.449419 0)
(10.6117 -0.464646 0)
(9.84619 -0.350944 0)
(9.10062 -0.266386 0)
(8.46937 0.13449 0)
(8.4157 0.419669 0)
(8.58951 0.622097 0)
(9.12794 0.618253 0)
(10.0475 0.29645 0)
(10.3887 0.0322345 0)
(11.8349 -0.607818 0)
(11.6721 -0.68667 0)
(12.9184 -0.93401 0)
(11.9876 -0.586012 0)
(11.649 -0.748256 0)
(9.75787 -0.585337 0)
(8.41513 -0.548496 0)
(7.92291 0.00964431 0)
(6.97873 0.853126 0)
(7.86175 0.857242 0)
(7.63195 1.55107 0)
(8.96332 0.623039 0)
(13.4688 -0.322591 0)
(13.4294 -0.242845 0)
(13.6196 -0.331335 0)
(13.4521 -0.363336 0)
(13.3583 -0.471472 0)
(13.3165 -0.425239 0)
(13.1556 -0.489329 0)
(13.1928 -0.501046 0)
(13.043 -0.360389 0)
(13.1469 -0.313634 0)
(12.9241 -0.0308384 0)
(13.1107 -0.149854 0)
(13.2091 -0.170837 0)
(13.3219 -0.433421 0)
(13.3946 -0.736258 0)
(13.1797 -0.986307 0)
(12.9852 -1.33749 0)
(12.5473 -1.26912 0)
(12.3418 -1.13605 0)
(12.163 -0.616515 0)
(11.896 -0.0358838 0)
(11.973 0.263133 0)
(11.74 0.637228 0)
(12.1814 0.408275 0)
(12.1519 0.503894 0)
(12.7189 -0.00740628 0)
(12.9266 -0.309157 0)
(13.1083 -0.773527 0)
(13.1569 -1.4179 0)
(12.4146 -1.48203 0)
(12.4721 -1.84544 0)
(11.3303 -0.939569 0)
(11.7839 -0.438986 0)
(10.6573 0.530981 0)
(10.9494 0.866474 0)
(10.3843 0.891313 0)
(10.4526 1.04916 0)
(10.792 0.773685 0)
(10.9024 0.888353 0)
(11.7607 0.132191 0)
(13.8515 0.561654 0)
(13.8593 0.518453 0)
(13.8823 0.3098 0)
(13.7968 0.255363 0)
(13.7491 0.186683 0)
(13.6096 0.188531 0)
(13.5375 0.179651 0)
(13.3869 0.163732 0)
(13.3891 0.223628 0)
(13.3527 0.11844 0)
(13.3936 0.22915 0)
(13.3674 0.158999 0)
(13.4479 0.127234 0)
(13.338 -0.0231336 0)
(13.2419 -0.172804 0)
(12.9725 -0.173198 0)
(12.7731 -0.227684 0)
(12.4319 0.000801682 0)
(12.1383 0.0561048 0)
(11.899 0.251222 0)
(11.8144 0.352373 0)
(11.9723 0.422316 0)
(12.0828 0.564681 0)
(12.4686 0.381878 0)
(12.575 0.374673 0)
(12.889 -0.00559313 0)
(12.6886 -0.172093 0)
(12.6217 -0.425836 0)
(12.2528 -0.447515 0)
(11.9048 -0.204526 0)
(11.6063 -0.145883 0)
(10.9836 0.265857 0)
(11.0435 0.287955 0)
(10.7446 0.679689 0)
(11.2053 0.736238 0)
(11.3148 0.909566 0)
(11.917 0.88058 0)
(12.1293 0.7242 0)
(12.6606 0.657784 0)
(12.9438 0.0402097 0)
(13.3009 -0.152177 0)
(13.3224 -0.193566 0)
(13.3454 -0.34012 0)
(13.2888 -0.337767 0)
(13.2407 -0.402334 0)
(13.0575 -0.3876 0)
(12.9902 -0.390418 0)
(12.7887 -0.390153 0)
(12.7719 -0.317367 0)
(12.6572 -0.374107 0)
(12.7077 -0.2886 0)
(12.5866 -0.344817 0)
(12.5816 -0.313181 0)
(12.4121 -0.3889 0)
(12.2567 -0.405213 0)
(11.9027 -0.411091 0)
(11.6006 -0.507705 0)
(11.2126 -0.470635 0)
(10.9939 -0.528908 0)
(10.7152 -0.373283 0)
(10.7778 -0.310154 0)
(10.7619 -0.229391 0)
(11.1116 -0.12995 0)
(11.2259 -0.210786 0)
(11.4802 -0.113248 0)
(11.4545 -0.322425 0)
(11.2416 -0.280824 0)
(10.9973 -0.473026 0)
(10.3662 -0.528646 0)
(10.1275 -0.551466 0)
(9.51607 -0.633617 0)
(9.41743 -0.337675 0)
(9.30058 -0.326463 0)
(9.37705 0.00904775 0)
(9.98141 0.0033414 0)
(10.1045 0.135286 0)
(11.1062 0.082945 0)
(11.0602 -0.000675675 0)
(11.8565 -0.0601651 0)
(11.6422 -0.291036 0)
)
;

boundaryField
{
    inlet
    {
        type            fixedValue;
        value           uniform (10 0 0);
    }
    outlet
    {
        type            zeroGradient;
    }
    obstacle
    {
        type            noSlip;
    }
    upperWall
    {
        type            noSlip;
    }
    lowerWall
    {
        type            noSlip;
    }
    frontAndBack
    {
        type            empty;
    }
}


// ************************************************************************* //
