/*--------------------------------*- C++ -*----------------------------------*\
  =========                 |
  \\      /  F ield         | OpenFOAM: The Open Source CFD Toolbox
   \\    /   O peration     | Website:  https://openfoam.org
    \\  /    A nd           | Version:  10
     \\/     M anipulation  |
\*---------------------------------------------------------------------------*/
FoamFile
{
    format      ascii;
    class       volScalarField;
    location    "4.75";
    object      p;
}
// * * * * * * * * * * * * * * * * * * * * * * * * * * * * * * * * * * * * * //

dimensions      [0 2 -2 0 0 0 0];

internalField   nonuniform List<scalar> 
400
(
2.62397e-09
-2.56393e-05
3.07385e-06
6.26788e-05
0.000159396
0.000294026
0.000467521
0.000680725
0.000933672
0.00122498
0.00155123
0.00190624
0.00228075
0.00266108
0.0030299
0.00336653
0.00364792
0.0038513
0.00397172
0.00395795
2.62926e-05
-2.16377e-07
3.09774e-05
8.93268e-05
0.000182588
0.000312235
0.000479672
0.000686132
0.000932028
0.00121641
0.00153633
0.00188577
0.00225645
0.00263499
0.00300419
0.00334319
0.00362827
0.00383633
0.00396361
0.00394839
-6.58501e-06
-3.87648e-05
-9.19878e-06
4.61982e-05
0.000135988
0.0002619
0.000425801
0.000629573
0.000874418
0.00116026
0.00148505
0.00184433
0.00222973
0.00262815
0.0030217
0.00338773
0.00369921
0.00392836
0.00406986
0.00404867
-7.75474e-05
-0.000114151
-8.69845e-05
-3.56519e-05
4.93434e-05
0.000170145
0.000329353
0.000529852
0.000774069
0.0010634
0.00139736
0.00177258
0.00218251
0.00261466
0.00305023
0.00346339
0.00382144
0.00408871
0.00425636
0.00423247
-0.000192289
-0.000233437
-0.000209618
-0.000163558
-8.47164e-05
2.95834e-05
0.000182885
0.000379392
0.000623216
0.000917789
0.00126504
0.0016644
0.00210921
0.00259036
0.00308787
0.0035723
0.00400327
0.00433187
0.00454222
0.00451849
-0.00035058
-0.000397051
-0.000377663
-0.000338487
-0.000267862
-0.000162506
-1.77668e-05
0.000172149
0.000413469
0.000712313
0.00107377
0.00150042
0.00199078
0.00253693
0.00311958
0.00370557
0.0042446
0.00466827
0.00494642
0.00492842
-0.000551867
-0.000604769
-0.0005911
-0.000560982
-0.000501567
-0.000408981
-0.000277384
-9.91932e-05
0.000134327
0.000432691
0.000805352
0.00126006
0.00180128
0.00242645
0.00311917
0.00384411
0.00453933
0.00510973
0.00549608
0.0054986
-0.000795756
-0.000856423
-0.000849981
-0.000831645
-0.000787389
-0.000712892
-0.000601199
-0.0004429
-0.000226512
6.14831e-05
0.000436207
0.000912987
0.00150407
0.00221627
0.0030428
0.00395081
0.0048675
0.00566497
0.00622756
0.0062904
-0.00108175
-0.00115164
-0.00115399
-0.00115052
-0.00112618
-0.00107651
-0.00099376
-0.000866938
-0.000681927
-0.000421023
-6.26753e-05
0.000417848
0.00104668
0.00184061
0.00281689
0.00395401
0.00517691
0.00632415
0.00718473
0.00741098
-0.00140923
-0.00148982
-0.0015022
-0.00151667
-0.00151737
-0.00150033
-0.00145759
-0.00137724
-0.00124323
-0.00103423
-0.000722494
-0.000272882
0.000356077
0.00120789
0.00232366
0.00371887
0.00534449
0.00702588
0.00841303
0.00905366
-0.00177774
-0.00187031
-0.00189301
-0.0019277
-0.00195822
-0.00198185
-0.00199142
-0.00197529
-0.00191697
-0.00179337
-0.0015726
-0.00121091
-0.000649756
0.000185674
0.00136723
0.00298725
0.00508535
0.00755376
0.00988533
0.0115215
-0.00218772
-0.00229297
-0.00232417
-0.00237952
-0.00244303
-0.00251433
-0.00258821
-0.00265491
-0.00269986
-0.00270175
-0.00262942
-0.00243697
-0.00205586
-0.00138794
-0.000309826
0.00132344
0.00376813
0.00719994
0.0111056
0.0146881
-0.00264221
-0.00275963
-0.00279368
-0.00286651
-0.0029627
-0.00308559
-0.00323339
-0.00339979
-0.00357503
-0.00374448
-0.00388589
-0.00396494
-0.00392773
-0.00368914
-0.00312725
-0.00205828
-3.81142e-05
0.00388776
0.00964703
0.0164084
-0.00314688
-0.00326811
-0.00328952
-0.00337063
-0.00349682
-0.00367374
-0.00390175
-0.00417962
-0.00450547
-0.00487648
-0.00528869
-0.00573683
-0.0062168
-0.00673439
-0.00735394
-0.00816504
-0.00877379
-0.00672081
-0.000457125
0.0105511
-0.0037347
-0.00387208
-0.00386868
-0.00395147
-0.00408812
-0.00429686
-0.00458733
-0.00496711
-0.00544486
-0.00603386
-0.00675791
-0.00765815
-0.00882058
-0.0104167
-0.0128941
-0.0169328
-0.023055
-0.0250616
-0.0193836
-0.00304661
-0.00448377
-0.00441894
-0.00431667
-0.00432567
-0.00446481
-0.00473132
-0.00511926
-0.00562787
-0.00626867
-0.00706614
-0.00807139
-0.00938149
-0.011202
-0.0138519
-0.0182751
-0.0254413
-0.0374784
-0.0442628
-0.0403666
-0.016828
-0.00496183
-0.00539743
-0.00516534
-0.00524488
-0.00532679
-0.00553736
-0.0058897
-0.00640273
-0.00709597
-0.0079968
-0.00916905
-0.0107166
-0.0129482
-0.0161471
-0.0218445
-0.0299298
-0.0451448
-0.0536713
-0.0501493
-0.0140324
-0.00827127
-0.00575127
-0.00521853
-0.00477481
-0.00484127
-0.00517677
-0.00571995
-0.00642118
-0.00729013
-0.00833202
-0.00963434
-0.0112404
-0.0135825
-0.0166756
-0.0222493
-0.030069
-0.0422172
-0.0471245
-0.0368776
0.0163268
-0.00506679
-0.00799053
-0.00706026
-0.0072129
-0.00695943
-0.00693522
-0.00711343
-0.00752714
-0.00819326
-0.00906343
-0.0102346
-0.011648
-0.0137994
-0.0166507
-0.0217524
-0.0281413
-0.0364073
-0.0311992
-0.00397945
0.0811113
-0.0299622
-0.00499151
-0.00372824
-0.00312278
-0.00309205
-0.0035307
-0.00432133
-0.00521231
-0.00632378
-0.00749718
-0.00900553
-0.0107452
-0.013098
-0.0159692
-0.0194984
-0.0211559
-0.017862
0.0105994
0.0802366
0.219274
)
;

boundaryField
{
    movingWall
    {
        type            zeroGradient;
    }
    fixedWalls
    {
        type            zeroGradient;
    }
    frontAndBack
    {
        type            empty;
    }
}


// ************************************************************************* //
