/*--------------------------------*- C++ -*----------------------------------*\
  =========                 |
  \\      /  F ield         | OpenFOAM: The Open Source CFD Toolbox
   \\    /   O peration     | Website:  https://openfoam.org
    \\  /    A nd           | Version:  10
     \\/     M anipulation  |
\*---------------------------------------------------------------------------*/
FoamFile
{
    format      ascii;
    class       volVectorField;
    location    "0.225";
    object      U;
}
// * * * * * * * * * * * * * * * * * * * * * * * * * * * * * * * * * * * * * //

dimensions      [0 1 -1 0 0 0 0];

internalField   nonuniform List<vector> 
8000
(
(-0.000104288 0.000103839 3.68279e-08)
(-0.000315225 0.000105878 1.03111e-07)
(-0.000522951 0.000100473 1.03469e-07)
(-0.000717101 9.24613e-05 1.01829e-07)
(-0.000892794 8.21706e-05 9.27464e-08)
(-0.00104579 6.99224e-05 7.96294e-08)
(-0.00117251 5.60672e-05 6.39228e-08)
(-0.0012701 4.09665e-05 4.64988e-08)
(-0.00133641 2.49807e-05 2.79617e-08)
(-0.00137004 8.46366e-06 8.75602e-09)
(-0.00137026 -8.23682e-06 -1.07699e-08)
(-0.00133707 -2.47749e-05 -3.02461e-08)
(-0.00127112 -4.08009e-05 -4.92983e-08)
(-0.0011738 -5.59577e-05 -6.74471e-08)
(-0.00104722 -6.98798e-05 -8.40362e-08)
(-0.000894223 -8.21993e-05 -9.8085e-08)
(-0.000718387 -9.25586e-05 -1.07922e-07)
(-0.00052397 -0.000100629 -1.1033e-07)
(-0.000315874 -0.000106062 -9.74611e-08)
(-0.00010453 -0.000104037 -2.99595e-08)
(-0.000111766 0.000319592 -3.54478e-08)
(-0.000337706 0.00032577 2.98603e-08)
(-0.000560074 0.000309122 4.22611e-08)
(-0.000767773 0.000284407 4.45319e-08)
(-0.0009556 0.000252682 4.15062e-08)
(-0.00111904 0.000214954 3.58034e-08)
(-0.0012543 0.000172313 2.86297e-08)
(-0.0013584 0.000125875 2.06215e-08)
(-0.0014291 7.67446e-05 1.21302e-08)
(-0.00146495 2.60015e-05 3.34758e-09)
(-0.0014652 -2.52986e-05 -5.63527e-09)
(-0.00142983 -7.61067e-05 -1.46967e-08)
(-0.00135953 -0.000125362 -2.37105e-08)
(-0.00125573 -0.000171974 -3.2438e-08)
(-0.00112063 -0.000214823 -4.04434e-08)
(-0.000957193 -0.000252773 -4.69335e-08)
(-0.000769213 -0.000284714 -5.03662e-08)
(-0.000561217 -0.000309616 -4.75553e-08)
(-0.000338446 -0.000326388 -3.05735e-08)
(-0.000112033 -0.000320273 4.08581e-08)
(-0.00011752 0.000548952 -7.05142e-08)
(-0.000355003 0.000559326 6.13997e-09)
(-0.000588548 0.000530573 2.39645e-08)
(-0.000806418 0.000487916 2.83989e-08)
(-0.00100314 0.000433248 2.71681e-08)
(-0.00117404 0.000368348 2.33653e-08)
(-0.00131525 0.000295123 1.84121e-08)
(-0.00142377 0.000215497 1.2968e-08)
(-0.0014974 0.000131354 7.32019e-09)
(-0.00153473 4.45115e-05 1.55704e-09)
(-0.00153502 -4.32628e-05 -4.36137e-09)
(-0.00149825 -0.000130219 -1.04296e-08)
(-0.00142509 -0.000214583 -1.6649e-08)
(-0.00131693 -0.000294517 -2.28861e-08)
(-0.00117591 -0.000368111 -2.87742e-08)
(-0.00100503 -0.000433407 -3.35373e-08)
(-0.000808127 -0.00048846 -3.55698e-08)
(-0.000589907 -0.00053145 -3.14972e-08)
(-0.000355871 -0.000560444 -1.29693e-08)
(-0.000117819 -0.000550163 6.2112e-08)
(-0.000126354 0.000792563 -8.41429e-08)
(-0.000381575 0.000807233 -3.40918e-09)
(-0.000632245 0.000765294 1.66051e-08)
(-0.000865612 0.00070322 2.17266e-08)
(-0.0010758 0.000623872 2.08361e-08)
(-0.0012579 0.000529938 1.74781e-08)
(-0.00140798 0.000424239 1.32639e-08)
(-0.00152307 0.000309573 8.88876e-09)
(-0.00160103 0.000188625 4.58486e-09)
(-0.00164053 6.39418e-05 3.35261e-10)
(-0.00164089 -6.20327e-05 -4.01587e-09)
(-0.00160209 -0.000186889 -8.59634e-09)
(-0.00152472 -0.00030817 -1.35349e-08)
(-0.00141008 -0.000423303 -1.87934e-08)
(-0.00126025 -0.000529565 -2.40539e-08)
(-0.00107817 -0.000624107 -2.85145e-08)
(-0.000867767 -0.000704049 -3.04137e-08)
(-0.000633963 -0.00076664 -2.60213e-08)
(-0.000382675 -0.000808954 -6.24634e-09)
(-0.000126731 -0.000794427 7.4124e-08)
(-0.000138699 0.0010573 -9.5809e-08)
(-0.000418674 0.00107634 -8.24754e-09)
(-0.000693126 0.00101954 1.35181e-08)
(-0.000947852 0.000935756 1.86577e-08)
(-0.00117643 0.000829076 1.72838e-08)
(-0.00137368 0.000703305 1.35906e-08)
(-0.00153562 0.000562344 9.44223e-09)
(-0.00165939 0.000409955 5.5865e-09)
(-0.00174305 0.000249649 2.16867e-09)
(-0.0017854 8.46702e-05 -9.80533e-10)
(-0.00178586 -8.1926e-05 -4.10623e-09)
(-0.0017444 -0.000247149 -7.58557e-09)
(-0.00166152 -0.000407927 -1.16976e-08)
(-0.00153833 -0.000560982 -1.65323e-08)
(-0.00137672 -0.00070275 -2.18381e-08)
(-0.00117952 -0.000829399 -2.67726e-08)
(-0.000950673 -0.000936943 -2.93479e-08)
(-0.000695382 -0.00102148 -2.52793e-08)
(-0.000420121 -0.00107883 -4.28656e-09)
(-0.000139195 -0.00106 8.33255e-08)
(-0.000155085 0.00135067 -1.07898e-07)
(-0.000467841 0.00137407 -1.12808e-08)
(-0.00077357 0.00129995 1.18353e-08)
(-0.00105608 0.00119115 1.64367e-08)
(-0.00130825 0.00105338 1.39758e-08)
(-0.00152464 0.000891902 9.41731e-09)
(-0.00170133 0.000711924 4.99766e-09)
(-0.00183576 0.000518299 1.57693e-09)
(-0.00192632 0.000315376 -8.93548e-10)
(-0.0019721 0.000107028 -2.6806e-09)
(-0.00197271 -0.000103202 -4.37092e-09)
(-0.00192809 -0.000311883 -6.57757e-09)
(-0.00183855 -0.000515451 -9.80916e-09)
(-0.00170491 -0.000709992 -1.43482e-08)
(-0.00152867 -0.00089109 -2.00588e-08)
(-0.00131236 -0.0010538 -2.60694e-08)
(-0.00105986 -0.0011928 -3.00945e-08)
(-0.000776607 -0.00130268 -2.70638e-08)
(-0.000469796 -0.0013776 -4.98525e-09)
(-0.000155755 -0.0013545 9.20017e-08)
(-0.000176288 0.00168149 -1.21712e-07)
(-0.000531323 0.00170902 -1.36866e-08)
(-0.000876995 0.00161399 1.03119e-08)
(-0.00119443 0.00147548 1.32672e-08)
(-0.00147568 0.00130143 8.83178e-09)
(-0.00171514 0.00109907 3.03921e-09)
(-0.00190922 0.000875235 -1.67722e-09)
(-0.00205594 0.000636014 -4.27913e-09)
(-0.00215432 0.000386577 -5.14562e-09)
(-0.00220398 0.000131285 -4.9599e-09)
(-0.00220477 -0.000126043 -4.58998e-09)
(-0.00215665 -0.000381775 -4.94336e-09)
(-0.00205963 -0.000632072 -6.86541e-09)
(-0.00191397 -0.000872525 -1.09432e-08)
(-0.00172053 -0.00109788 -1.72757e-08)
(-0.00148123 -0.00130195 -2.50182e-08)
(-0.00119956 -0.00147772 -3.15039e-08)
(-0.000881151 -0.00161777 -3.05902e-08)
(-0.000534012 -0.00171395 -7.92999e-09)
(-0.00017721 -0.00168687 1.00746e-07)
(-0.000203451 0.00206045 -1.37797e-07)
(-0.000612398 0.00209139 -1.59691e-08)
(-0.00100829 0.00197022 7.70078e-09)
(-0.00136865 0.00179532 7.66835e-09)
(-0.00168466 0.00157789 6.17559e-11)
(-0.00195083 0.00132783 -7.29694e-09)
(-0.00216439 0.00105407 -1.16247e-08)
(-0.00232442 0.000764057 -1.27021e-08)
(-0.00243104 0.000463705 -1.11279e-08)
(-0.00248472 0.000157606 -7.97521e-09)
(-0.00248577 -0.000150501 -4.50509e-09)
(-0.00243412 -0.000457171 -1.98236e-09)
(-0.0023293 -0.000758645 -1.7361e-09)
(-0.00217072 -0.00105028 -4.80957e-09)
(-0.0019581 -0.00132609 -1.18551e-08)
(-0.0016922 -0.00157848 -2.21658e-08)
(-0.0013757 -0.00179831 -3.25336e-08)
(-0.00101404 -0.00197541 -3.55219e-08)
(-0.00061615 -0.00209826 -1.35653e-08)
(-0.000204742 -0.00206797 1.09191e-07)
(-0.000238298 0.00250102 -1.56349e-07)
(-0.000715934 0.00253374 -1.84504e-08)
(-0.00117451 0.00237858 2.31064e-09)
(-0.00158677 0.00215773 -3.14256e-09)
(-0.00194317 0.00188717 -1.45362e-08)
(-0.00223896 0.00158052 -2.31207e-08)
(-0.002473 0.00124936 -2.65783e-08)
(-0.0026463 0.000902605 -2.4997e-08)
(-0.00276077 0.00054668 -1.9545e-08)
(-0.00281818 0.00018597 -1.18766e-08)
(-0.00281955 -0.000176428 -3.78131e-09)
(-0.0027648 -0.000537858 3.28132e-09)
(-0.00265274 -0.000895213 7.16342e-09)
(-0.00248142 -0.00124407 6.22329e-09)
(-0.00224873 -0.00157795 -1.22441e-09)
(-0.00195344 -0.00188775 -1.48054e-08)
(-0.00159651 -0.00216166 -3.12442e-08)
(-0.00118257 -0.00238566 -4.11466e-08)
(-0.000721243 -0.00254328 -2.29469e-08)
(-0.000240135 -0.00251157 1.16081e-07)
(-0.000283523 0.00302098 -1.77335e-07)
(-0.000849356 0.00305193 -2.16504e-08)
(-0.00138605 0.00285078 -8.34348e-09)
(-0.00186009 0.00257004 -2.21071e-08)
(-0.00226188 0.00223286 -3.82738e-08)
(-0.00258864 0.00185811 -4.78633e-08)
(-0.00284231 0.00146054 -4.89372e-08)
(-0.00302709 0.00105055 -4.26149e-08)
(-0.00314768 0.000634571 -3.10939e-08)
(-0.00320783 0.000216066 -1.67953e-08)
(-0.0032096 -0.000203363 -2.11116e-09)
(-0.0031529 -0.000622745 1.11998e-08)
(-0.00303552 -0.00104049 2.05222e-08)
(-0.00285345 -0.00145315 2.33381e-08)
(-0.00260177 -0.00185424 1.72217e-08)
(-0.00227591 -0.00223324 6.03755e-10)
(-0.00187363 -0.00257507 -2.4429e-08)
(-0.00139746 -0.00286037 -4.60075e-08)
(-0.000856988 -0.00306521 -3.76731e-08)
(-0.000286188 -0.00303586 1.18795e-07)
(-0.000343543 0.00364484 -2.00249e-07)
(-0.00102441 0.00366657 -2.77849e-08)
(-0.00165851 0.00340049 -2.97978e-08)
(-0.00220471 0.00303922 -5.56228e-08)
(-0.0026551 0.00261678 -7.73401e-08)
(-0.00301128 0.00215907 -8.58774e-08)
(-0.00328056 0.00168458 -8.11564e-08)
(-0.00347228 0.00120475 -6.65894e-08)
(-0.00359525 0.000725153 -4.60388e-08)
(-0.00365611 0.000247141 -2.26128e-08)
(-0.00365836 -0.000230403 1.09698e-09)
(-0.00360192 -0.000709435 2.27632e-08)
(-0.00348315 -0.00119113 4.01564e-08)
(-0.00329517 -0.00167422 4.97255e-08)
(-0.00302882 -0.00215319 4.71254e-08)
(-0.00267427 -0.00261654 2.87979e-08)
(-0.00222366 -0.00304546 -6.36738e-09)
(-0.00167488 -0.00341337 -4.6813e-08)
(-0.0010356 -0.00368512 -5.93444e-08)
(-0.00034751 -0.00366609 1.11753e-07)
(-0.000426051 0.00440836 -2.23062e-07)
(-0.00126047 0.00440506 -4.46576e-08)
(-0.00201593 0.00404333 -7.39245e-08)
(-0.00264382 0.00357064 -1.15674e-07)
(-0.00314203 0.00303706 -1.40506e-07)
(-0.00352085 0.00247761 -1.42054e-07)
(-0.00379662 0.00191457 -1.24926e-07)
(-0.00398653 0.00135918 -9.68098e-08)
(-0.00410529 0.000814415 -6.37019e-08)
(-0.00416339 0.000277834 -2.87705e-08)
(-0.00416618 -0.000256052 6.09547e-09)
(-0.00411363 -0.000793739 3.84252e-08)
(-0.0040003 -0.00134084 6.71519e-08)
(-0.00381551 -0.00190003 8.81267e-08)
(-0.00354409 -0.00246857 9.44626e-08)
(-0.00316818 -0.00303536 7.79907e-08)
(-0.00267049 -0.00357791 3.35213e-08)
(-0.00203974 -0.0040604 -3.50694e-08)
(-0.00127732 -0.00443103 -8.66742e-08)
(-0.000432169 -0.00443916 8.29659e-08)
(-0.000545412 0.00536688 -2.41592e-07)
(-0.00159102 0.00530398 -9.55489e-08)
(-0.00249599 0.00479586 -1.6511e-07)
(-0.00321102 0.00416508 -2.21737e-07)
(-0.00374814 0.00348489 -2.39158e-07)
(-0.00413377 0.00280109 -2.20303e-07)
(-0.00439899 0.00213798 -1.80007e-07)
(-0.00457243 0.0015037 -1.31429e-07)
(-0.0046766 0.000895899 -8.20775e-08)
(-0.00472658 0.000305955 -3.39484e-08)
(-0.00472993 -0.000278033 1.32166e-08)
(-0.00468671 -0.000869045 5.81515e-08)
(-0.00458944 -0.00147921 1.01748e-07)
(-0.0044229 -0.00211758 1.40372e-07)
(-0.00416415 -0.00278708 1.64998e-07)
(-0.00378362 -0.00348011 1.60763e-07)
(-0.00324874 -0.00417256 1.10851e-07)
(-0.00253118 -0.00481788 1.0675e-08)
(-0.0016172 -0.00534034 -1.07381e-07)
(-0.000555323 -0.00541255 7.3112e-09)
(-0.000730517 0.0066118 -2.47767e-07)
(-0.0020767 0.00641112 -2.45806e-07)
(-0.00315853 0.00567188 -3.48997e-07)
(-0.00395484 0.00481278 -4.02553e-07)
(-0.00450602 0.00393945 -3.83334e-07)
(-0.00486776 0.00310638 -3.19844e-07)
(-0.00509402 0.00233421 -2.41434e-07)
(-0.0052286 0.00162271 -1.64829e-07)
(-0.00530304 0.000960014 -9.66218e-08)
(-0.00533732 0.000328265 -3.55259e-08)
(-0.00534118 -0.000293146 2.31394e-08)
(-0.00531481 -0.000925703 8.09269e-08)
(-0.00524884 -0.00159036 1.42366e-07)
(-0.00512338 -0.0023057 2.06322e-07)
(-0.00490662 -0.00308464 2.634e-07)
(-0.00455366 -0.00392866 2.92081e-07)
(-0.00400831 -0.00481826 2.57099e-07)
(-0.0032114 -0.00569893 1.25166e-07)
(-0.0021191 -0.00646167 -7.51856e-08)
(-0.000747642 -0.0066817 -1.70521e-07)
(-0.00104334 0.00830512 -2.35698e-07)
(-0.00283267 0.00778388 -6.65791e-07)
(-0.00409884 0.00667217 -6.9893e-07)
(-0.00494352 0.00548244 -6.87421e-07)
(-0.00545454 0.00435986 -5.72025e-07)
(-0.00573902 0.00335466 -4.2766e-07)
(-0.00588266 0.00247189 -2.93931e-07)
(-0.00594663 0.00169399 -1.84177e-07)
(-0.00597104 0.000993654 -9.84172e-08)
(-0.00597974 0.000340359 -2.86136e-08)
(-0.0059839 -0.000297257 3.69547e-08)
(-0.00598393 -0.000950749 1.04461e-07)
(-0.00596943 -0.00165194 1.84436e-07)
(-0.00591717 -0.00243239 2.81565e-07)
(-0.00578711 -0.00332107 3.90455e-07)
(-0.00551724 -0.00433797 4.86828e-07)
(-0.00501905 -0.00548095 5.15146e-07)
(-0.0041794 -0.006702 3.81924e-07)
(-0.00290468 -0.00785236 1.60994e-07)
(-0.00107534 -0.00841551 -5.57021e-07)
(-0.00162428 0.0107242 -1.06201e-07)
(-0.00408814 0.00947182 -1.75772e-06)
(-0.00546556 0.0077579 -1.28921e-06)
(-0.00626725 0.00610212 -1.07273e-06)
(-0.00663381 0.00467297 -7.68057e-07)
(-0.00675573 0.0034855 -5.02567e-07)
(-0.00675469 0.00250688 -3.03321e-07)
(-0.00670684 0.00168852 -1.65314e-07)
(-0.00665666 0.000980624 -7.22141e-08)
(-0.00662823 0.000336868 -4.03085e-09)
(-0.00663228 -0.00028561 5.74734e-08)
(-0.00666949 -0.000928492 1.26444e-07)
(-0.00673048 -0.00163514 2.20748e-07)
(-0.00679251 -0.00245308 3.55823e-07)
(-0.00681219 -0.00343441 5.3909e-07)
(-0.00671353 -0.00463159 7.54627e-07)
(-0.00637237 -0.00608355 9.35314e-07)
(-0.00558894 -0.00778291 8.89296e-07)
(-0.00421565 -0.00956045 1.00499e-06)
(-0.0016883 -0.0109206 -1.38124e-06)
(-0.00277444 0.0147553 -2.07758e-06)
(-0.00628822 0.011494 -4.63222e-06)
(-0.00747528 0.00880761 -2.04305e-06)
(-0.00802836 0.00652937 -1.43317e-06)
(-0.00807089 0.00475841 -8.45072e-07)
(-0.0079048 0.00341214 -4.46704e-07)
(-0.00767934 0.00238296 -2.04849e-07)
(-0.00747256 0.00157295 -6.96407e-08)
(-0.00732237 0.00090344 4.44256e-09)
(-0.00724565 0.000312042 5.10522e-08)
(-0.00724893 -0.000253559 9.31919e-08)
(-0.00733312 -0.000842527 1.50955e-07)
(-0.00749367 -0.00150752 2.48857e-07)
(-0.00771609 -0.00231192 4.18495e-07)
(-0.00796527 -0.00333681 6.96022e-07)
(-0.00816599 -0.00468513 1.09968e-06)
(-0.00816998 -0.00647421 1.5681e-06)
(-0.00766403 -0.00880604 1.70664e-06)
(-0.00653691 -0.0115816 3.55678e-06)
(-0.00292591 -0.0150268 -1.75543e-06)
(-0.00552583 0.0184467 1.11495e-05)
(-0.0106917 0.0129846 -6.32597e-06)
(-0.0104169 0.00937576 -1.05712e-06)
(-0.0102932 0.00645596 -1.03819e-06)
(-0.00972603 0.00442252 -4.30393e-07)
(-0.00910519 0.00302389 -6.24071e-08)
(-0.00856725 0.00204014 1.02163e-07)
(-0.00815927 0.00131622 1.53754e-07)
(-0.00789013 0.00074745 1.60726e-07)
(-0.00775749 0.000261308 1.58476e-07)
(-0.00775883 -0.000197615 1.6751e-07)
(-0.00789513 -0.000679273 2.03241e-07)
(-0.0081712 -0.00123891 2.93722e-07)
(-0.00859266 -0.001949 4.85241e-07)
(-0.00915557 -0.00291502 8.51515e-07)
(-0.00982001 -0.00429561 1.46996e-06)
(-0.0104605 -0.0063214 2.22296e-06)
(-0.0106732 -0.00928416 1.55387e-06)
(-0.0110613 -0.0129347 5.89158e-06)
(-0.00575083 -0.0192113 -1.47823e-05)
(-0.00841556 0.0389166 -3.79058e-05)
(-0.0149461 0.0160474 -2.786e-05)
(-0.0124614 0.00991842 -3.59682e-06)
(-0.0113111 0.00573302 -7.81509e-07)
(-0.00977413 0.0034821 6.89863e-07)
(-0.0085277 0.00220496 9.27993e-07)
(-0.00760958 0.0014177 7.95815e-07)
(-0.00697615 0.000889216 6.16345e-07)
(-0.00657964 0.00049869 4.77587e-07)
(-0.006386 0.000176831 3.9264e-07)
(-0.00637808 -0.000122794 3.58441e-07)
(-0.00655568 -0.000439805 3.80848e-07)
(-0.00693564 -0.000820376 4.87022e-07)
(-0.00755188 -0.0013339 7.58587e-07)
(-0.00845204 -0.00210397 1.40023e-06)
(-0.00967889 -0.00337323 2.88698e-06)
(-0.0112014 -0.00563985 6.19245e-06)
(-0.0122059 -0.0100094 9.82068e-06)
(-0.0149687 -0.0165316 3.84507e-05)
(-0.00730809 -0.0398878 2.79251e-05)
(0.0474529 0.0295151 4.36499e-05)
(0.040053 0.00984054 -3.58191e-05)
(0.0598203 0.0053775 1.21842e-05)
(0.0641105 0.00271601 5.84875e-06)
(0.0675588 0.00147228 3.43379e-06)
(0.069644 0.000862632 2.15643e-06)
(0.0709287 0.000529114 1.32818e-06)
(0.071733 0.000324273 8.63703e-07)
(0.0722128 0.000181695 6.25042e-07)
(0.0724466 6.84166e-05 5.20541e-07)
(0.0724685 -3.50844e-05 5.01579e-07)
(0.0722805 -0.000144412 5.48541e-07)
(0.0718527 -0.000278204 6.53217e-07)
(0.0711106 -0.000467492 8.0605e-07)
(0.0699016 -0.000775633 9.58905e-07)
(0.0679251 -0.0013459 8.71003e-07)
(0.0644592 -0.00251158 8.71208e-07)
(0.0606633 -0.00518135 -1.13445e-05)
(0.0402268 -0.00944842 2.97198e-05)
(0.0482428 -0.0291274 -6.84444e-05)
(-0.000108989 0.000108516 2.18513e-08)
(-0.000329453 0.000110722 1.18155e-07)
(-0.000546594 0.000105078 1.30028e-07)
(-0.000749493 9.66971e-05 1.32408e-07)
(-0.000933099 8.59335e-05 1.2289e-07)
(-0.00109298 7.31231e-05 1.06645e-07)
(-0.0012254 5.86324e-05 8.60505e-08)
(-0.00132737 4.28394e-05 6.25933e-08)
(-0.00139666 2.6121e-05 3.72948e-08)
(-0.00143179 8.84726e-06 1.08931e-08)
(-0.00143202 -8.61805e-06 -1.60192e-08)
(-0.00139732 -2.59132e-05 -4.28814e-08)
(-0.0013284 -4.26728e-05 -6.90624e-08)
(-0.00122671 -5.85232e-05 -9.37626e-08)
(-0.00109443 -7.30822e-05 -1.15884e-07)
(-0.000934555 -8.59654e-05 -1.33819e-07)
(-0.000750808 -9.67987e-05 -1.45038e-07)
(-0.000547637 -0.000105238 -1.45246e-07)
(-0.000330129 -0.000110919 -1.25573e-07)
(-0.000109233 -0.000108724 -4.54458e-08)
(-0.00011689 0.000334049 -4.56746e-08)
(-0.000353212 0.000340729 3.79744e-08)
(-0.000585804 0.000323323 5.912e-08)
(-0.000803015 0.000297467 6.51126e-08)
(-0.000999435 0.00026428 6.23308e-08)
(-0.00117034 0.000224816 5.46396e-08)
(-0.00131179 0.000180215 4.4056e-08)
(-0.00142064 0.000131643 3.1746e-08)
(-0.00149456 8.02558e-05 1.84016e-08)
(-0.00153204 2.71826e-05 4.43328e-09)
(-0.00153229 -2.64724e-05 -9.88497e-09)
(-0.0014953 -7.96122e-05 -2.43167e-08)
(-0.00142178 -0.000131127 -3.85371e-08)
(-0.00131324 -0.000179877 -5.20379e-08)
(-0.00117196 -0.000224691 -6.39781e-08)
(-0.00100106 -0.000264382 -7.29581e-08)
(-0.000804483 -0.000297788 -7.65649e-08)
(-0.000586972 -0.000323832 -7.05125e-08)
(-0.000353965 -0.000341369 -4.58743e-08)
(-0.000117155 -0.000334737 3.83163e-08)
(-0.000122902 0.00057378 -8.82958e-08)
(-0.000371309 0.000585026 4.54968e-09)
(-0.000615604 0.000554954 3.11054e-08)
(-0.000843456 0.00051033 4.00073e-08)
(-0.00104918 0.000453143 4.00215e-08)
(-0.00122789 0.000385257 3.53572e-08)
(-0.00137556 0.000308663 2.82623e-08)
(-0.00148903 0.000225376 1.99301e-08)
(-0.00156603 0.000137366 1.09624e-08)
(-0.00160505 4.65337e-05 1.62064e-09)
(-0.00160535 -4.52719e-05 -7.99533e-09)
(-0.00156689 -0.000136221 -1.78493e-08)
(-0.00149038 -0.000224457 -2.77998e-08)
(-0.00137727 -0.000308059 -3.74905e-08)
(-0.0012298 -0.000385029 -4.61752e-08)
(-0.0010511 -0.00045332 -5.24694e-08)
(-0.000845198 -0.0005109 -5.38575e-08)
(-0.00061699 -0.000555864 -4.57863e-08)
(-0.000372196 -0.000586179 -1.88036e-08)
(-0.000123209 -0.000575023 6.98502e-08)
(-0.000132143 0.000828371 -1.10349e-07)
(-0.000399108 0.000844285 -1.33486e-08)
(-0.000661317 0.000800425 1.59662e-08)
(-0.000905377 0.000735492 2.6264e-08)
(-0.00112519 0.000652493 2.73605e-08)
(-0.00131562 0.00055424 2.39548e-08)
(-0.00147256 0.000443683 1.85379e-08)
(-0.00159289 0.000323751 1.23547e-08)
(-0.00167442 0.000197249 5.93505e-09)
(-0.00171571 6.68423e-05 -5.91663e-10)
(-0.00171608 -6.49128e-05 -7.34814e-09)
(-0.00167549 -0.000195497 -1.44714e-08)
(-0.00159458 -0.00032234 -2.20176e-08)
(-0.00147469 -0.000442751 -2.97779e-08)
(-0.00131801 -0.000553883 -3.70786e-08)
(-0.0011276 -0.000652758 -4.24777e-08)
(-0.000907573 -0.000736364 -4.32091e-08)
(-0.000663068 -0.000801825 -3.42218e-08)
(-0.000400229 -0.000846066 -5.16123e-09)
(-0.000132528 -0.000830292 8.98517e-08)
(-0.000145056 0.00110502 -1.30454e-07)
(-0.000437915 0.0011257 -2.56171e-08)
(-0.000725001 0.0010663 6.15426e-09)
(-0.000991402 0.000978667 1.69496e-08)
(-0.00123044 0.000867083 1.80923e-08)
(-0.00143671 0.000735533 1.49742e-08)
(-0.00160606 0.000588098 1.0403e-08)
(-0.00173548 0.000428714 5.68096e-09)
(-0.00182295 0.000261051 1.24489e-09)
(-0.00186723 8.85047e-05 -2.95373e-09)
(-0.0018677 -8.5731e-05 -7.31472e-09)
(-0.00182433 -0.000258528 -1.22167e-08)
(-0.00173765 -0.000426674 -1.7965e-08)
(-0.00160882 -0.00058674 -2.45443e-08)
(-0.00143982 -0.000735002 -3.1373e-08)
(-0.00123359 -0.00086745 -3.69304e-08)
(-0.000994279 -0.000979919 -3.80957e-08)
(-0.000727303 -0.00106833 -2.90451e-08)
(-0.000439391 -0.00112829 1.88998e-09)
(-0.000145561 -0.00110782 1.05456e-07)
(-0.000162194 0.00141161 -1.51503e-07)
(-0.000489343 0.00143705 -3.60473e-08)
(-0.000809148 0.00135954 -1.92008e-09)
(-0.00110461 0.00124574 8.54438e-09)
(-0.00136832 0.00110164 8.81163e-09)
(-0.0015946 0.000932747 5.34315e-09)
(-0.00177938 0.000744508 1.2897e-09)
(-0.00191994 0.000541998 -1.98625e-09)
(-0.00201463 0.000329768 -4.26707e-09)
(-0.00206249 0.000111866 -5.85612e-09)
(-0.00206311 -0.000107999 -7.46734e-09)
(-0.00201643 -0.000326241 -9.85506e-09)
(-0.00192279 -0.000539133 -1.36849e-08)
(-0.00178302 -0.000742581 -1.92267e-08)
(-0.00159872 -0.000931968 -2.60557e-08)
(-0.00137252 -0.00110213 -3.25825e-08)
(-0.00110846 -0.00124748 -3.52236e-08)
(-0.000812249 -0.00136239 -2.70856e-08)
(-0.000491339 -0.00144072 5.34086e-09)
(-0.000162877 -0.00141557 1.19816e-07)
(-0.000184369 0.00175732 -1.75798e-07)
(-0.000555743 0.00178732 -4.691e-08)
(-0.00091733 0.00168795 -1.08285e-08)
(-0.00124931 0.00154307 -1.54989e-09)
(-0.00154344 0.00136103 -2.99781e-09)
(-0.00179385 0.00114937 -7.33931e-09)
(-0.0019968 0.000915269 -1.09557e-08)
(-0.00215022 0.000665076 -1.23393e-08)
(-0.00225308 0.000404202 -1.16166e-08)
(-0.00230499 0.000137209 -9.58976e-09)
(-0.00230581 -0.000131909 -7.40846e-09)
(-0.00225547 -0.000399354 -6.34185e-09)
(-0.00215399 -0.00066111 -7.55691e-09)
(-0.00200166 -0.000912566 -1.17556e-08)
(-0.00179936 -0.00114823 -1.8788e-08)
(-0.00154911 -0.00136164 -2.70727e-08)
(-0.00125456 -0.00154544 -3.25248e-08)
(-0.000921577 -0.0016919 -2.67806e-08)
(-0.00055849 -0.00179245 6.35674e-09)
(-0.000185311 -0.00176289 1.34201e-07)
(-0.000212778 0.00215332 -2.05018e-07)
(-0.000640544 0.00218718 -5.98758e-08)
(-0.00105466 0.00206046 -2.30715e-08)
(-0.00143154 0.00187753 -1.64985e-08)
(-0.00176202 0.00165012 -2.08585e-08)
(-0.00204036 0.00138858 -2.63027e-08)
(-0.00226367 0.00110226 -2.86707e-08)
(-0.00243101 0.000798947 -2.69711e-08)
(-0.00254249 0.000484826 -2.17245e-08)
(-0.00259861 0.000164701 -1.43582e-08)
(-0.00259968 -0.000157518 -6.67871e-09)
(-0.00254563 -0.000478228 -5.83355e-10)
(-0.002436 -0.000793499 2.07684e-09)
(-0.00227015 -0.00109848 2.10978e-11)
(-0.00204779 -0.0013869 -7.14036e-09)
(-0.00176972 -0.00165083 -1.80034e-08)
(-0.00143874 -0.0018807 -2.80774e-08)
(-0.00106055 -0.00206589 -2.70198e-08)
(-0.000644381 -0.00219432 5.03432e-09)
(-0.000214097 -0.00216112 1.487e-07)
(-0.000249223 0.00261372 -2.40814e-07)
(-0.000748837 0.00264974 -7.67775e-08)
(-0.00122852 0.0024875 -4.19588e-08)
(-0.00165968 0.0022565 -4.06685e-08)
(-0.00203239 0.00197351 -4.88178e-08)
(-0.00234171 0.0016528 -5.4895e-08)
(-0.00258644 0.00130644 -5.47273e-08)
(-0.00276765 0.000943793 -4.77572e-08)
(-0.00288733 0.000571556 -3.54823e-08)
(-0.00294734 0.000194321 -2.02567e-08)
(-0.00294874 -0.000184672 -4.63167e-09)
(-0.00289145 -0.000562645 8.95057e-09)
(-0.00277424 -0.000936348 1.77192e-08)
(-0.00259506 -0.00130116 1.93429e-08)
(-0.00235171 -0.0016503 1.2334e-08)
(-0.00204291 -0.00197425 -2.21511e-09)
(-0.00166964 -0.00226067 -1.92902e-08)
(-0.00123677 -0.0024949 -2.66798e-08)
(-0.00075427 -0.00265968 7.61379e-10)
(-0.000251101 -0.00262466 1.62338e-07)
(-0.000296521 0.00315705 -2.85269e-07)
(-0.000888387 0.0031916 -1.00474e-07)
(-0.00144978 0.00298126 -7.27029e-08)
(-0.00194555 0.00268763 -7.99896e-08)
(-0.00236572 0.00233498 -9.27828e-08)
(-0.00270743 0.00194303 -9.82401e-08)
(-0.00297268 0.00152724 -9.2461e-08)
(-0.0031659 0.00109845 -7.66039e-08)
(-0.00329196 0.000663412 -5.37159e-08)
(-0.00335483 0.00022574 -2.72683e-08)
(-0.00335664 -0.000212891 -6.05462e-10)
(-0.00329731 -0.000651463 2.34917e-08)
(-0.00317452 -0.00108832 4.14629e-08)
(-0.00298409 -0.00151984 4.96557e-08)
(-0.00272087 -0.00193926 4.49693e-08)
(-0.0023801 -0.00233556 2.65551e-08)
(-0.00195942 -0.002693 -1.11426e-09)
(-0.00146147 -0.00299131 -2.2941e-08)
(-0.000896205 -0.00320545 -7.37156e-09)
(-0.000299249 -0.00317252 1.72662e-07)
(-0.000359292 0.00380895 -3.41142e-07)
(-0.00107148 0.00383431 -1.37077e-07)
(-0.00173476 0.00355606 -1.25214e-07)
(-0.00230598 0.00317822 -1.44983e-07)
(-0.00277699 0.0027364 -1.61944e-07)
(-0.00314945 0.00225769 -1.62356e-07)
(-0.00343102 0.00176146 -1.45118e-07)
(-0.00363148 0.00125964 -1.14734e-07)
(-0.00376004 0.00075807 -7.64963e-08)
(-0.00382364 0.00025817 -3.48711e-08)
(-0.00382594 -0.000241232 6.46889e-09)
(-0.00376687 -0.000742181 4.46419e-08)
(-0.00364262 -0.00124591 7.60523e-08)
(-0.003446 -0.00175107 9.55974e-08)
(-0.00316743 -0.00225192 9.74033e-08)
(-0.00279665 -0.00273642 7.70519e-08)
(-0.00232542 -0.0031849 3.60581e-08)
(-0.00175154 -0.00356959 -9.31818e-09)
(-0.00108296 -0.00385366 -1.94725e-08)
(-0.000363358 -0.00383104 1.74134e-07)
(-0.000445579 0.00460675 -4.11384e-07)
(-0.00131837 0.00460648 -2.01679e-07)
(-0.00210858 0.00422823 -2.18668e-07)
(-0.00276524 0.00373385 -2.53505e-07)
(-0.00328625 0.0031758 -2.68688e-07)
(-0.00368238 0.00259071 -2.5364e-07)
(-0.00397073 0.00200187 -2.14534e-07)
(-0.00416928 0.00142104 -1.61462e-07)
(-0.00429344 0.000851331 -1.02318e-07)
(-0.00435414 0.000290185 -4.16574e-08)
(-0.00435699 -0.000268132 1.76835e-08)
(-0.00430198 -0.000830417 7.36573e-08)
(-0.00418341 -0.00140253 1.23685e-07)
(-0.00399011 -0.00198727 1.61755e-07)
(-0.00370622 -0.00258177 1.78388e-07)
(-0.00331308 -0.00317442 1.62593e-07)
(-0.00279262 -0.0037417 1.08562e-07)
(-0.00213303 -0.00424617 2.79325e-08)
(-0.00133567 -0.0046336 -3.10004e-08)
(-0.000451862 -0.00463881 1.54205e-07)
(-0.000570402 0.00560821 -5.00061e-07)
(-0.00166405 0.00554631 -3.31523e-07)
(-0.00261065 0.00501502 -3.89411e-07)
(-0.00335845 0.00435533 -4.33314e-07)
(-0.00392014 0.00364397 -4.27622e-07)
(-0.00432338 0.00292886 -3.76314e-07)
(-0.00460069 0.00223538 -2.99148e-07)
(-0.00478202 0.00157206 -2.13067e-07)
(-0.00489089 0.000936441 -1.27409e-07)
(-0.0049431 0.000319498 -4.48961e-08)
(-0.00494654 -0.000291209 3.43789e-08)
(-0.00490127 -0.000909255 1.11271e-07)
(-0.00479947 -0.00154732 1.85578e-07)
(-0.00462523 -0.00221486 2.51811e-07)
(-0.00435457 -0.00291492 2.97259e-07)
(-0.00395658 -0.00363955 3.01572e-07)
(-0.00339722 -0.00436356 2.42644e-07)
(-0.00264685 -0.00503825 1.18861e-07)
(-0.00169101 -0.00558437 -2.2207e-08)
(-0.000580608 -0.00565586 8.62356e-08)
(-0.000763961 0.00690874 -6.13504e-07)
(-0.00217194 0.0067037 -6.19328e-07)
(-0.00330353 0.00593083 -7.01269e-07)
(-0.00413634 0.00503242 -7.2047e-07)
(-0.00471273 0.00411912 -6.4932e-07)
(-0.00509097 0.00324794 -5.2646e-07)
(-0.00532753 0.00244043 -3.89623e-07)
(-0.00546822 0.00169639 -2.59707e-07)
(-0.005546 0.00100338 -1.43843e-07)
(-0.00558179 0.000342725 -3.96228e-08)
(-0.00558575 -0.000307113 5.84594e-08)
(-0.00555809 -0.000968602 1.57067e-07)
(-0.00548901 -0.00166365 2.60717e-07)
(-0.00535771 -0.00241167 3.67092e-07)
(-0.00513092 -0.00322618 4.62395e-07)
(-0.00476172 -0.00410869 5.16546e-07)
(-0.00419137 -0.0050388 4.82441e-07)
(-0.003358 -0.00595953 3.18152e-07)
(-0.00221572 -0.00675675 7.21034e-08)
(-0.000781665 -0.00698188 -8.67521e-08)
(-0.00109103 0.00867743 -7.67937e-07)
(-0.00296236 0.00813847 -1.28758e-06)
(-0.00428677 0.00697644 -1.2492e-06)
(-0.00517023 0.00573236 -1.14654e-06)
(-0.00570462 0.00455849 -9.25704e-07)
(-0.00600207 0.00350735 -6.81103e-07)
(-0.00615224 0.00258424 -4.61173e-07)
(-0.00621908 0.00177078 -2.80892e-07)
(-0.00624455 0.00103844 -1.37215e-07)
(-0.00625359 0.000355272 -1.75808e-08)
(-0.00625787 -0.000311507 9.26571e-08)
(-0.00625781 -0.000994893 2.09144e-07)
(-0.00624254 -0.00172815 3.44394e-07)
(-0.00618775 -0.00254428 5.03691e-07)
(-0.00605159 -0.00347353 6.77695e-07)
(-0.0057692 -0.00453681 8.30811e-07)
(-0.00524811 -0.00573183 8.87366e-07)
(-0.00436996 -0.00700841 7.28257e-07)
(-0.00303697 -0.0082106 4.43827e-07)
(-0.00112428 -0.00879337 -4.88154e-07)
(-0.0016984 0.0112019 -8.72307e-07)
(-0.00427481 0.00990178 -2.82121e-06)
(-0.00571561 0.00811129 -2.11123e-06)
(-0.00655439 0.00637996 -1.69101e-06)
(-0.00693775 0.00488559 -1.19608e-06)
(-0.00706522 0.00364395 -7.77255e-07)
(-0.0070641 0.00262066 -4.62714e-07)
(-0.00701402 0.00176495 -2.40659e-07)
(-0.0069615 0.00102473 -8.48303e-08)
(-0.00693173 0.000351549 3.34658e-08)
(-0.00693591 -0.0002994 1.42018e-07)
(-0.00697473 -0.000971698 2.65759e-07)
(-0.00703839 -0.00171068 4.28758e-07)
(-0.00710309 -0.00256601 6.50645e-07)
(-0.00712345 -0.00359216 9.37696e-07)
(-0.00702 -0.00484394 1.26169e-06)
(-0.00666301 -0.00636203 1.52622e-06)
(-0.00584334 -0.0081388 1.48929e-06)
(-0.00440745 -0.00999569 1.59506e-06)
(-0.0017653 -0.0114098 -1.384e-06)
(-0.00289927 0.0154178 -3.41734e-06)
(-0.00657243 0.0120162 -6.46147e-06)
(-0.0078158 0.00920979 -3.16429e-06)
(-0.00839584 0.00682657 -2.17157e-06)
(-0.00844035 0.00497473 -1.28391e-06)
(-0.00826668 0.0035671 -6.79742e-07)
(-0.00803091 0.002491 -3.05013e-07)
(-0.00781467 0.00164406 -8.56626e-08)
(-0.00765761 0.000943993 4.37981e-08)
(-0.00757736 0.000325577 1.32985e-07)
(-0.00758076 -0.000265893 2.19122e-07)
(-0.00766873 -0.00088182 3.33483e-07)
(-0.00783649 -0.00157725 5.11774e-07)
(-0.00806886 -0.00241846 7.96319e-07)
(-0.00832912 -0.00349017 1.22874e-06)
(-0.00853864 -0.00489997 1.818e-06)
(-0.00854254 -0.00677066 2.46388e-06)
(-0.00801192 -0.00921001 2.67552e-06)
(-0.00683307 -0.0121097 4.77707e-06)
(-0.00305916 -0.0157056 -1.81411e-06)
(-0.0057798 0.0192492 1.11948e-05)
(-0.0111795 0.013567 -8.77881e-06)
(-0.0108911 0.00980235 -2.16718e-06)
(-0.0107647 0.00674928 -1.70401e-06)
(-0.0101705 0.00462361 -7.29449e-07)
(-0.00952117 0.00316131 -1.41543e-07)
(-0.00895866 0.0021327 1.36686e-07)
(-0.00853204 0.00137575 2.45579e-07)
(-0.00825061 0.000781019 2.8444e-07)
(-0.00811192 0.000272661 3.08502e-07)
(-0.0081133 -0.000207256 3.52764e-07)
(-0.00825575 -0.000710965 4.43834e-07)
(-0.0085443 -0.00129622 6.23863e-07)
(-0.00898474 -0.00203877 9.56834e-07)
(-0.00957294 -0.0030488 1.53509e-06)
(-0.0102673 -0.00449194 2.43419e-06)
(-0.0109378 -0.00660887 3.47781e-06)
(-0.0111574 -0.00970654 2.78897e-06)
(-0.0115656 -0.0135137 7.75736e-06)
(-0.0060155 -0.0200703 -1.66929e-05)
(-0.00880141 0.0406321 -4.46063e-05)
(-0.0155967 0.0167559 -3.4167e-05)
(-0.0130044 0.0103713 -5.40516e-06)
(-0.0118059 0.00599361 -1.41025e-06)
(-0.010196 0.00364065 6.43717e-07)
(-0.00889173 0.00230538 1.11211e-06)