/*--------------------------------*- C++ -*----------------------------------*\
  =========                 |
  \\      /  F ield         | OpenFOAM: The Open Source CFD Toolbox
   \\    /   O peration     | Website:  https://openfoam.org
    \\  /    A nd           | Version:  10
     \\/     M anipulation  |
\*---------------------------------------------------------------------------*/
FoamFile
{
    format      ascii;
    class       surfaceScalarField;
    location    "4.225";
    object      phi;
}
// * * * * * * * * * * * * * * * * * * * * * * * * * * * * * * * * * * * * * //

dimensions      [0 3 -1 0 0 0 0];

internalField   nonuniform List<scalar> 
760
(
-8.88185e-06
8.88183e-06
-2.84137e-05
1.95319e-05
-5.04236e-05
2.20099e-05
-7.21901e-05
2.17665e-05
-9.28834e-05
2.06932e-05
-0.000112056
1.91725e-05
-0.000129272
1.72164e-05
-0.000144045
1.47731e-05
-0.000155832
1.17868e-05
-0.000164042
8.20995e-06
-0.000168054
4.01166e-06
-0.000167245
-8.09144e-07
-0.000161048
-6.19657e-06
-0.000149042
-1.20057e-05
-0.000131045
-1.79974e-05
-0.000107234
-2.38106e-05
-7.83654e-05
-2.88691e-05
-4.63112e-05
-3.20542e-05
-1.58984e-05
-3.04128e-05
-1.58984e-05
-2.0285e-05
2.91668e-05
-5.61027e-05
5.53496e-05
-9.52198e-05
6.1127e-05
-0.000133514
6.00607e-05
-0.000169515
5.6694e-05
-0.000202341
5.19984e-05
-0.000231194
4.60695e-05
-0.000255265
3.88443e-05
-0.000273719
3.02411e-05
-0.0002857
2.01904e-05
-0.000290323
8.6348e-06
-0.000286854
-4.27762e-06
-0.00027451
-1.85409e-05
-0.00025283
-3.36854e-05
-0.000221704
-4.91234e-05
-0.000181556
-6.39586e-05
-0.000133642
-7.67835e-05
-8.08576e-05
-8.48384e-05
-3.01811e-05
-8.10893e-05
-4.60795e-05
-2.41753e-05
5.33421e-05
-6.5778e-05
9.69524e-05
-0.000110852
0.000106201
-0.000154801
0.000104009
-0.000196007
9.79004e-05
-0.000233499
8.949e-05
-0.000266398
7.89691e-05
-0.000293826
6.62721e-05
-0.00031488
5.12948e-05
-0.000328636
3.39464e-05
-0.000334199
1.41981e-05
-0.000330546
-7.93006e-06
-0.000316862
-3.22257e-05
-0.000292531
-5.80162e-05
-0.000257292
-8.43621e-05
-0.000211463
-0.000109788
-0.000156327
-0.000131919
-9.51084e-05
-0.000146057
-3.58421e-05
-0.000140356
-8.19216e-05
-2.57825e-05
7.91246e-05
-7.02428e-05
0.000141413
-0.000118339
0.000154298
-0.000165238
0.000150908
-0.000209301
0.000141963
-0.000249561
0.00012975
-0.000285145
0.000114553
-0.000315169
9.62958e-05
-0.000338707
7.48329e-05
-0.000354779
5.00187e-05
-0.000362358
2.17771e-05
-0.00036036
-9.92804e-06
-0.000347575
-4.50106e-05
-0.00032305
-8.25415e-05
-0.000286128
-0.000121284
-0.000236787
-0.000159128
-0.000176151
-0.000192556
-0.000107708
-0.0002145
-4.06999e-05
-0.000207363
-0.000122622
-2.71994e-05
0.000106324
-7.4385e-05
0.000188598
-0.000125463
0.000205375
-0.000175361
0.000200806
-0.000222434
0.000189037
-0.00026575
0.000173065
-0.000304471
0.000153275
-0.000337738
0.000129562
-0.000364618
0.000101713
-0.000384071
6.94722e-05
-0.000394922
3.26282e-05
-0.000395871
-8.97907e-06
-0.000385299
-5.5583e-05
-0.000361706
-0.000106135
-0.000323752
-0.000159238
-0.000270714
-0.000212167
-0.000203286
-0.000259983
-0.000125251
-0.000292535
-4.76121e-05
-0.000285002
-0.000170234
-2.89545e-05
0.000135279
-7.94708e-05
0.000239115
-0.000134207
0.000260112
-0.000187792
0.000254391
-0.000238577
0.000239822
-0.000285686
0.000220174
-0.000328351
0.00019594
-0.00036577
0.000166982
-0.000397039
0.000132982
-0.000421084
9.35165e-05
-0.000436585
4.81289e-05
-0.000442017
-3.54632e-06
-0.000435187
-6.24136e-05
-0.000413839
-0.000127483
-0.000375594
-0.000197482
-0.000318536
-0.000269226
-0.000242404
-0.000336115
-0.000151092
-0.000383847
-5.81294e-05
-0.000377965
-0.000228363
-3.11548e-05
0.000166433
-8.5772e-05
0.000293732
-0.000144975
0.000319314
-0.000203023
0.000312439
-0.000258271
0.00029507
-0.000309934
0.000271837
-0.000357356
0.000243361
-0.000399852
0.000209478
-0.000436614
0.000169744
-0.0004666
0.000123503
-0.000488401
6.99296e-05
-0.000500252
8.30511e-06
-0.000499397
-6.32688e-05
-0.000482525
-0.000144355
-0.000445745
-0.000234262
-0.000385179
-0.000329792
-0.000298615
-0.000422678
-0.000189391
-0.000493071
-7.44656e-05
-0.00049289
-0.000302829
-3.38333e-05
0.000200267
-9.33776e-05
0.000353276
-0.000157871
0.000383808
-0.000221128
0.000375697
-0.000281525
0.000355467
-0.000338409
0.000328721
-0.000391303
0.000296256
-0.000439724
0.000257899
-0.000483067
0.000213087
-0.000520455
0.000160891
-0.000550552
0.000100026
-0.000571226
2.8979e-05
-0.000579619
-5.48754e-05
-0.000570925
-0.00015305
-0.000539206
-0.000265981
-0.000477501
-0.000391496
-0.000379917
-0.000520262
-0.000247417
-0.000625572
-0.000101066
-0.000639242
-0.000403894
-3.70446e-05
0.000237311
-0.000102406
0.000418637
-0.000173014
0.000454416
-0.000242159
0.000444842
-0.000308265
0.000421573
-0.000370875
0.000391331
-0.000429769
0.000355149
-0.000484777
0.000312907
-0.000535644
0.000263954
-0.000581851
0.000207099
-0.000622348
0.000140523
-0.000655144
6.17744e-05
-0.000677207
-3.28119e-05
-0.000682453
-0.000147804
-0.000662401
-0.000286033
-0.000605559
-0.000448338
-0.000499544
-0.000626278
-0.000339085
-0.000786031
-0.00014782
-0.000830506
-0.000551715
-4.09073e-05
0.000278219
-0.000113089
0.000490818
-0.000190643
0.00053197
-0.000266259
0.000520457
-0.000338456
0.000493771
-0.000407046
0.00045992
-0.000472166
0.00042027
-0.000534092
0.000374833
-0.000593105
0.000322967
-0.000649316
0.000263309
-0.000702356
0.000193563
-0.00075081
0.000110229
-0.000792408
8.78672e-06
-0.000820055
-0.000120157
-0.000823014
-0.000283074
-0.000783893
-0.000487459
-0.000679923
-0.000730248
-0.000492827
-0.000973127
-0.000238314
-0.00108502
-0.000790028
-4.56593e-05
0.000323878
-0.000125867
0.000571026
-0.000211219
0.000617322
-0.000293754
0.000602992
-0.000372173
0.00057219
-0.000446652
0.000534399
-0.000517792
0.000491409
-0.00058644
0.000443481
-0.000653617
0.000390145
-0.0007204
0.000330093
-0.000787681
0.000260844
-0.000855662
0.00017821
-0.00092256
7.5685e-05
-0.00098455
-5.81671e-05
-0.00102885
-0.000238776
-0.00103268
-0.000483629
-0.000959464
-0.000803462
-0.000766613
-0.00116598
-0.000431153
-0.00142048
-0.00122118
-5.1757e-05
0.000375635
-0.000141537
0.000660806
-0.000235562
0.000711347
-0.000325272
0.000692702
-0.000409706
0.000656625
-0.000489533
0.000614226
-0.000565906
0.000567782
-0.000640344
0.000517918
-0.000714756
0.000464557
-0.00079149
0.000406826
-0.000873292
0.000342646
-0.000963002
0.00026792
-0.00106243
0.000175113
-0.00117186
5.126e-05
-0.00128366
-0.000126971
-0.00137552
-0.000391769
-0.00139687
-0.000782114
-0.00125796
-0.00130489
-0.000822104
-0.00185633
-0.00204328
-6.0082e-05
0.000435717
-0.000161503
0.000762227
-0.000265058
0.000814902
-0.000361893
0.000789537
-0.000451679
0.000746411
-0.000535755
0.000698301
-0.000615892
0.000647919
-0.000694261
0.000596288
-0.000773642
0.000543938
-0.00085773
0.000490914
-0.000951543
0.000436458
-0.00106179
0.000378165
-0.00119698
0.000310301
-0.00136615
0.000220431
-0.00157826
8.51374e-05
-0.00182376
-0.000146267
-0.00204194
-0.000563931
-0.00203591
-0.00131092
-0.00144298
-0.00244926
-0.00348627
-7.25689e-05
0.000508286
-0.000188548
0.000878206
-0.000301978
0.000928332
-0.000405072
0.000892631
-0.000498945
0.000840284
-0.000585681
0.000785038
-0.000667512
0.00072975
-0.000747064
0.00067584
-0.000827789
0.000624663
-0.000914516
0.000577641
-0.00101446
0.000536407
-0.00113888
0.000502581
-0.00130525
0.000476673
-0.0015388
0.000453975
-0.00186921
0.000415554
-0.00230954
0.00029406
-0.00277503
-9.84433e-05
-0.00286969
-0.00121626
-0.00197467
-0.00334427
-0.00546094
-8.83929e-05
0.000596679
-0.000222697
0.00101251
-0.000348203
0.00105384
-0.000458854
0.00100328
-0.000555551
0.000936981
-0.000641977
0.000871464
-0.000721777
0.00080955
-0.000798164
0.000752227
-0.000874459
0.000700958
-0.000955101
0.000658283
-0.00104772
0.000629026
-0.00116611
0.00062097
-0.00133543
0.000645998
-0.00159634
0.000714882
-0.0020026
0.000821819
-0.00256191
0.000853363
-0.00312782
0.000467464
-0.00314313
-0.00120095
-0.00198398
-0.00450342
-0.00744493
-0.000150895
0.000747574
-0.000297609
0.00115922
-0.000417903
0.00117413
-0.000519413
0.00110479
-0.000610742
0.00102831
-0.000694453
0.000955175
-0.00077191
0.000887008
-0.000844066
0.000824383
-0.000912602
0.000769495
-0.00098004
0.000725721
-0.00105198
0.000700968
-0.00113892
0.000707908
-0.00126424
0.000771322
-0.0014598
0.000910436
-0.00177876
0.00114078
-0.00218093
0.00125553
-0.00257531
0.000861851
-0.00253294
-0.00124332
-0.00160084
-0.00543553
-0.00904576
-0.000103245
0.000850819
-0.00031544
0.00137142
-0.000481743
0.00134043
-0.000608861
0.00123191
-0.00070544
0.00112489
-0.000780372
0.00103011
-0.000840239
0.000946875
-0.000888507
0.000872651
-0.000927087
0.000808074
-0.000955269
0.000753903
-0.000972181
0.00071788
-0.000975485
0.000711212
-0.000970407
0.000766244
-0.000953122
0.00089315
-0.000960583
0.00114824
-0.00098598
0.00128093
-0.00107684
0.000952714
-0.00117343
-0.00114673
-0.000847782
-0.00576118
-0.00989355
-0.000390027
0.00124085
-0.000501017
0.00148241
-0.000606106
0.00144552
-0.000702712
0.00132852
-0.000756688
0.00117886
-0.000777275
0.00105069
-0.000774098
0.000943699
-0.00075125
0.000849802
-0.000714683
0.000771506
-0.000661339
0.000700559
-0.000592265
0.000648806
-0.000492752
0.000611699
-0.000350612
0.000624104
-0.000133439
0.000675977
0.000201689
0.000813116
0.00060179
0.000880825
0.00108155
0.000472959
0.00104447
-0.00110965
0.000614949
-0.00533165
-0.0092786
-0.0013252
0.00256605
-0.00127299
0.0014302
-0.00102927
0.0012018
-0.000682722
0.000981972
-0.00031648
0.000812623
4.67434e-05
0.000687469
0.000392385
0.000598057
0.000715561
0.000526627
0.0010187
0.000468367
0.00129837
0.000420894
0.00156793
0.00037924
0.00182991
0.00034972
0.00212033
0.000333682
0.00246531
0.000330999
0.00295898
0.00031945
0.00358985
0.000249951
0.00419769
-0.00013488
0.00420616
-0.00111812
0.0026671
-0.0037926
-0.0066115
0.00256605
0.00399624
0.00519804
0.00618002
0.00699264
0.00768011
0.00827817
0.00880479
0.00927316
0.00969405
0.0100733
0.010423
0.0107567
0.0110877
0.0114071
0.0116571
0.0115222
0.0104041
0.0066115
)
;

boundaryField
{
    movingWall
    {
        type            calculated;
        value           uniform 0;
    }
    fixedWalls
    {
        type            calculated;
        value           uniform 0;
    }
    frontAndBack
    {
        type            empty;
        value           nonuniform List<scalar> 0();
    }
}


// ************************************************************************* //
