/*--------------------------------*- C++ -*----------------------------------*\
  =========                 |
  \\      /  F ield         | OpenFOAM: The Open Source CFD Toolbox
   \\    /   O peration     | Website:  https://openfoam.org
    \\  /    A nd           | Version:  10
     \\/     M anipulation  |
\*---------------------------------------------------------------------------*/
FoamFile
{
    format      ascii;
    class       volScalarField;
    location    "8.725";
    object      p;
}
// * * * * * * * * * * * * * * * * * * * * * * * * * * * * * * * * * * * * * //

dimensions      [0 2 -2 0 0 0 0];

internalField   nonuniform List<scalar> 
400
(
5.20713e-09
-2.75581e-05
2.99323e-05
0.000141199
0.000314437
0.000552663
0.00086057
0.00124413
0.00170926
0.00226031
0.0028982
0.0036177
0.00440358
0.00522685
0.00604004
0.00677864
0.00736675
0.00774127
0.0079066
0.00779918
3.05219e-05
2.48764e-06
6.77386e-05
0.000181631
0.000353882
0.000588342
0.00089012
0.00126528
0.00171978
0.00225829
0.00288254
0.00358852
0.00436147
0.00517712
0.00598789
0.00672852
0.00731841
0.00768985
0.00785194
0.00772535
-3.96798e-05
-7.68142e-05
-1.34015e-05
9.56857e-05
0.0002609
0.000486297
0.000777561
0.00114175
0.00158638
0.00211855
0.0027431
0.0034599
0.00426058
0.00512155
0.00599411
0.00680321
0.00744777
0.0078353
0.00797591
0.00778566
-0.000188789
-0.000232247
-0.000173059
-7.22324e-05
8.1499e-05
0.000292544
0.000567445
0.000914713
0.0013442
0.00186667
0.00249235
0.00322767
0.0040706
0.0050025
0.00597717
0.00690533
0.00765222
0.00807156
0.00816695
0.00786464
-0.00042579
-0.000474479
-0.000422563
-0.000334121
-0.00019711
-6.684e-06
0.00024468
0.000567204
0.000973577
0.00147906
0.00210082
0.00285526
0.00375146
0.00478071
0.00590278
0.00701388
0.00792882
0.00840519
0.008411
0.00791932
-0.000749049
-0.000802829
-0.000761243
-0.000689678
-0.000575598
-0.000413946
-0.000196452
8.8572e-05
0.000456477
0.000927119
0.0015254
0.00228043
0.00321864
0.00434876
0.00565504
0.0070289
0.00821712
0.00880096
0.00864525
0.00783082
-0.00115299
-0.00121234
-0.00118417
-0.00113454
-0.00105086
-0.000928369
-0.000758952
-0.000530543
-0.000226434
0.000176358
0.000709228
0.00141387
0.00233983
0.00353079
0.00500354
0.00669947
0.00831021
0.00910921
0.00871285
0.0074068
-0.00162999
-0.00169568
-0.00168397
-0.0016616
-0.00161658
-0.00154538
-0.00144147
-0.00129473
-0.00109044
-0.000806777
-0.00041201
0.000138915
0.000908301
0.00197287
0.00340948
0.00534835
0.00752516
0.0087919
0.00823423
0.00655493
-0.00217038
-0.00224321
-0.00225037
-0.00225996
-0.00226149
-0.00225394
-0.00223443
-0.00219794
-0.00213697
-0.00204011
-0.00188968
-0.00165939
-0.00131808
-0.000815607
1.33096e-05
0.00151023
0.0040027
0.00631577
0.00655783
0.00567267
-0.0027626
-0.00284311
-0.00286998
-0.0029142
-0.00296778
-0.00303373
-0.0031153
-0.00321655
-0.00334391
-0.00350827
-0.00372924
-0.00404906
-0.00457843
-0.00551467
-0.006827
-0.00745964
-0.0055291
-0.00114258
0.00267583
0.00510042
-0.00339391
-0.00348225
-0.00352691
-0.00360472
-0.00371087
-0.00385407
-0.00404591
-0.00430321
-0.00465334
-0.00514313
-0.00585746
-0.00695738
-0.00878809
-0.0120528
-0.0169436
-0.0217372
-0.0214789
-0.0146297
-0.00602943
0.00143986
-0.00405168
-0.00414683
-0.00420221
-0.00430648
-0.00445803
-0.00467243
-0.00497022
-0.00538221
-0.00595952
-0.00679094
-0.00804071
-0.0100195
-0.0133243
-0.0191179
-0.0277573
-0.0369386
-0.0389219
-0.0308981
-0.0193549
-0.00773484
-0.00472764
-0.00482876
-0.00488323
-0.00500016
-0.00518017
-0.00544642
-0.00582724
-0.00636398
-0.00712552
-0.00822949
-0.00988989
-0.0124991
-0.0167721
-0.0238903
-0.0344121
-0.044869
-0.048121
-0.0404664
-0.0302057
-0.0175988
-0.00541323
-0.0055101
-0.00553612
-0.00563937
-0.00582268
-0.00611324
-0.00654037
-0.00714966
-0.00801444
-0.00925615
-0.0110944
-0.0138883
-0.0183655
-0.0252489
-0.0357423
-0.0445685
-0.0479539
-0.0410364
-0.0336715
-0.0219601
-0.0061352
-0.00623494
-0.00620835
-0.00627456
-0.00642127
-0.00668774
-0.0071046
-0.00771503
-0.00858626
-0.0098233
-0.0116257
-0.0142085
-0.0182526
-0.0240902
-0.0321068
-0.0386215
-0.0410569
-0.0350302
-0.0310485
-0.0196506
-0.00697811
-0.00688036
-0.0067195
-0.00665998
-0.00674212
-0.00697828
-0.00737962
-0.00796897
-0.00879455
-0.00992985
-0.0115329
-0.0137614
-0.0169824
-0.0212668
-0.0267552
-0.0308256
-0.0321917
-0.0267404
-0.0249904
-0.010282
-0.00743646
-0.00783436
-0.00748961
-0.00744666
-0.00738873
-0.00747883
-0.00772937
-0.00817347
-0.00885473
-0.00980675
-0.0111709
-0.0130189
-0.0155466
-0.0186482
-0.0224112
-0.0247237
-0.0250848
-0.01962
-0.0166948
0.00807957
-0.0108123
-0.00825753
-0.00755635
-0.00689099
-0.0067532
-0.0068768
-0.00720587
-0.00770385
-0.00839898
-0.00927008
-0.0105006
-0.0120804
-0.0141743
-0.0165498
-0.0192051
-0.0203053
-0.0196058
-0.0125625
-0.00301864
0.040096
-0.00743076
-0.0103863
-0.00921586
-0.00914412
-0.0086143
-0.0083218
-0.00822068
-0.00833712
-0.00872338
-0.00936167
-0.0103794
-0.0117397
-0.0137334
-0.0159904
-0.0187528
-0.0195665
-0.0179815
-0.00410606
0.0209909
0.0974928
-0.0326743
-0.00755407
-0.00592564
-0.00510806
-0.00485699
-0.0050238
-0.00549166
-0.00607063
-0.00685264
-0.00775937
-0.00903093
-0.0105102
-0.0124162
-0.0140422
-0.0150839
-0.0118372
-0.00137045
0.0326577
0.0986014
0.229005
)
;

boundaryField
{
    movingWall
    {
        type            zeroGradient;
    }
    fixedWalls
    {
        type            zeroGradient;
    }
    frontAndBack
    {
        type            empty;
    }
}


// ************************************************************************* //
