/*--------------------------------*- C++ -*----------------------------------*\
  =========                 |
  \\      /  F ield         | OpenFOAM: The Open Source CFD Toolbox
   \\    /   O peration     | Website:  https://openfoam.org
    \\  /    A nd           | Version:  10
     \\/     M anipulation  |
\*---------------------------------------------------------------------------*/
FoamFile
{
    format      ascii;
    class       volVectorField;
    location    "8.725";
    object      U;
}
// * * * * * * * * * * * * * * * * * * * * * * * * * * * * * * * * * * * * * //

dimensions      [0 1 -1 0 0 0 0];

internalField   nonuniform List<vector> 
400
(
(-0.000161155 0.000141584 0)
(-0.0012033 0.000446188 0)
(-0.00296578 0.000557147 0)
(-0.00477668 0.000594453 0)
(-0.00665491 0.000615079 0)
(-0.00856232 0.000637182 0)
(-0.0104859 0.000659968 0)
(-0.0124031 0.000675629 0)
(-0.0142674 0.000672976 0)
(-0.0160026 0.000637479 0)
(-0.0174964 0.00055156 0)
(-0.0185947 0.000396536 0)
(-0.0191054 0.000157625 0)
(-0.0188077 -0.00018152 0)
(-0.0174927 -0.000602859 0)
(-0.0150335 -0.00105442 0)
(-0.0114989 -0.00143001 0)
(-0.0073139 -0.00157745 0)
(-0.00284778 -0.00132662 0)
(-0.000277824 -0.000437049 0)
(-0.000521085 0.00122763 0)
(-0.00271266 0.00255567 0)
(-0.00607205 0.0030543 0)
(-0.00952262 0.00322271 0)
(-0.0130623 0.00328342 0)
(-0.0166025 0.00330917 0)
(-0.0200925 0.00330037 0)
(-0.0234716 0.00322826 0)
(-0.0266454 0.00304967 0)
(-0.0294776 0.00270999 0)
(-0.0317812 0.00214673 0)
(-0.0333135 0.00129544 0)
(-0.0337969 0.000102209 0)
(-0.0329152 -0.00144038 0)
(-0.0303724 -0.00325043 0)
(-0.0260111 -0.00511067 0)
(-0.019965 -0.00661485 0)
(-0.0128827 -0.00718136 0)
(-0.00537466 -0.00616801 0)
(-0.000776594 -0.00264514 0)
(-0.000682496 0.00318495 0)
(-0.00341697 0.00600709 0)
(-0.00752641 0.00706071 0)
(-0.0117172 0.00740092 0)
(-0.0159887 0.00748296 0)
(-0.020234 0.00745599 0)
(-0.0243925 0.00732591 0)
(-0.0283956 0.00703994 0)
(-0.0321405 0.00651571 0)
(-0.0354798 0.0056487 0)
(-0.0382121 0.00431949 0)
(-0.0400761 0.00240797 0)
(-0.0407426 -0.000181426 0)
(-0.039822 -0.00345699 0)
(-0.036927 -0.00726819 0)
(-0.0317829 -0.0111836 0)
(-0.0244527 -0.0143774 0)
(-0.0156966 -0.0155956 0)
(-0.0063356 -0.0134575 0)
(-0.000796881 -0.00610223 0)
(-0.000735828 0.00528348 0)
(-0.00369812 0.00971177 0)
(-0.0081408 0.011336 0)
(-0.0126549 0.011836 0)
(-0.0172547 0.0119279 0)
(-0.021836 0.0118438 0)
(-0.0263492 0.0115974 0)
(-0.0307403 0.0111144 0)
(-0.0349243 0.010275 0)
(-0.0387705 0.00892302 0)
(-0.0420851 0.00687214 0)
(-0.0445952 0.0039263 0)
(-0.0459333 -7.74275e-05 0)
(-0.045608 -0.00519974 0)
(-0.0430342 -0.0112869 0)
(-0.0376616 -0.017713 0)
(-0.029272 -0.0231444 0)
(-0.0186424 -0.0253521 0)
(-0.00694005 -0.0217565 0)
(-0.000519422 -0.00955492 0)
(-0.000738414 0.00747246 0)
(-0.00377822 0.0135977 0)
(-0.00836421 0.0158221 0)
(-0.0130278 0.0164955 0)
(-0.0178016 0.016617 0)
(-0.0225955 0.0165105 0)
(-0.0273853 0.016203 0)
(-0.0321489 0.0156029 0)
(-0.0368392 0.0145555 0)
(-0.0413659 0.0128494 0)
(-0.0455681 0.0102174 0)
(-0.0491766 0.00634944 0)
(-0.0517706 0.000945224 0)
(-0.0527451 -0.00618853 0)
(-0.0512394 -0.0150074 0)
(-0.0462148 -0.0247784 0)
(-0.0368293 -0.0335679 0)
(-0.0234885 -0.0376323 0)
(-0.00781494 -0.03203 0)
(4.85684e-05 -0.0131099 0)
(-0.000719124 0.00967051 0)
(-0.00376935 0.0175528 0)
(-0.00841606 0.0204083 0)
(-0.0131582 0.0212804 0)
(-0.0180455 0.0214702 0)
(-0.0230093 0.0214056 0)
(-0.0280609 0.0211359 0)
(-0.0332248 0.0205612 0)
(-0.0385119 0.0194983 0)
(-0.0439015 0.0176825 0)
(-0.0493048 0.014754 0)
(-0.054504 0.010254 0)
(-0.0590755 0.00365848 0)
(-0.0623366 -0.00552362 0)
(-0.0631328 -0.0175367 0)
(-0.0597114 -0.0318336 0)
(-0.049941 -0.0460075 0)
(-0.0327379 -0.054032 0)
(-0.010019 -0.0457393 0)
(0.000931498 -0.016806 0)
(-0.000688194 0.0118377 0)
(-0.00371532 0.0215199 0)
(-0.00838063 0.0250377 0)
(-0.0131603 0.026138 0)
(-0.0181193 0.026443 0)
(-0.0232134 0.0264989 0)
(-0.0284967 0.0263916 0)
(-0.0340535 0.0260284 0)
(-0.0399757 0.0252139 0)
(-0.0463486 0.0236425 0)
(-0.0532162 0.020866 0)
(-0.0605111 0.0162565 0)
(-0.0679601 0.00899333 0)
(-0.0749728 -0.00186284 0)
(-0.080271 -0.0171415 0)
(-0.0811688 -0.0373327 0)
(-0.072925 -0.0603744 0)
(-0.0507228 -0.0770938 0)
(-0.0167205 -0.0660088 0)
(0.00167751 -0.0217103 0)
(-0.000647937 0.0139523 0)
(-0.00362891 0.025469 0)
(-0.00828101 0.0296761 0)
(-0.0130562 0.0310282 0)
(-0.0180312 0.0314892 0)
(-0.0231858 0.0317416 0)
(-0.0286191 0.0319265 0)
(-0.0344847 0.0319819 0)
(-0.0409771 0.031732 0)
(-0.0483308 0.0308707 0)
(-0.0568043 0.0289044 0)
(-0.066639 0.0250791 0)
(-0.077972 0.01831 0)
(-0.0906845 0.00708921 0)
(-0.103926 -0.0107526 0)
(-0.113503 -0.0380775 0)
(-0.10945 -0.0757292 0)
(-0.081489 -0.109751 0)
(-0.0348937 -0.0984144 0)
(0.000108737 -0.031643 0)
(-0.000599824 0.0159959 0)
(-0.00351694 0.0293747 0)
(-0.00812568 0.0342867 0)
(-0.0128435 0.0358963 0)
(-0.0177542 0.0365325 0)
(-0.0228562 0.0370354 0)
(-0.0282896 0.037623 0)
(-0.0342755 0.0382947 0)
(-0.0411179 0.038941 0)
(-0.0492303 0.0393283 0)
(-0.0591663 0.0390334 0)
(-0.0716524 0.0373572 0)
(-0.0876564 0.0331955 0)
(-0.108243 0.0244764 0)
(-0.13272 0.00637171 0)
(-0.153764 -0.0301256 0)
(-0.15423 -0.0912167 0)
(-0.122575 -0.152426 0)
(-0.0715538 -0.14771 0)
(-0.00875937 -0.0551369 0)
(-0.000548541 0.0179559 0)
(-0.00339508 0.0332166 0)
(-0.00793593 0.0388278 0)
(-0.0125341 0.0406697 0)
(-0.0172758 0.041462 0)
(-0.0221678 0.0422241 0)
(-0.0273783 0.0432743 0)
(-0.0331805 0.0447078 0)
(-0.0399682 0.0465388 0)
(-0.0483182 0.048708 0)
(-0.0590831 0.0510464 0)
(-0.0735271 0.0532062 0)
(-0.0935693 0.054364 0)
(-0.121567 0.0515446 0)
(-0.15642 0.0346049 0)
(-0.185283 -0.0151011 0)
(-0.187335 -0.10739 0)
(-0.160487 -0.197985 0)
(-0.117239 -0.210658 0)
(-0.0280927 -0.106401 0)
(-0.000504828 0.0198344 0)
(-0.00329757 0.0369858 0)
(-0.00776294 0.0432531 0)
(-0.0121783 0.0452545 0)
(-0.0166305 0.046127 0)
(-0.0211204 0.0470879 0)
(-0.0258225 0.048571 0)
(-0.0310251 0.0507927 0)
(-0.0371538 0.053943 0)
(-0.0448585 0.0582409 0)
(-0.0551551 0.0639659 0)
(-0.0695898 0.0713724 0)
(-0.0903819 0.0797963 0)
(-0.120101 0.0839864 0)
(-0.155713 0.0664344 0)
(-0.182776 0.00152026 0)
(-0.184571 -0.117049 0)
(-0.168155 -0.233524 0)
(-0.139028 -0.28239 0)
(-0.0467685 -0.200306 0)
(-0.000491295 0.0216698 0)
(-0.00329371 0.0407263 0)
(-0.00770913 0.0475728 0)
(-0.0118852 0.0496066 0)
(-0.0159237 0.0504087 0)
(-0.0198077 0.0514123 0)
(-0.0236931 0.0531716 0)
(-0.0278307 0.0560254 0)
(-0.0325816 0.0603535 0)
(-0.0384895 0.0666853 0)
(-0.0463936 0.0757814 0)
(-0.0574784 0.0883863 0)
(-0.0730004 0.10335 0)
(-0.094545 0.112138 0)
(-0.118479 0.0920242 0)
(-0.135441 0.0153335 0)
(-0.137841 -0.115579 0)
(-0.13221 -0.251092 0)
(-0.123999 -0.341407 0)
(-0.0478498 -0.306808 0)
(-0.000538854 0.0235136 0)
(-0.00346806 0.0443986 0)
(-0.00791136 0.0515988 0)
(-0.0118296 0.0534357 0)
(-0.0153591 0.0539676 0)
(-0.0184522 0.0548062 0)
(-0.0212364 0.0565777 0)
(-0.0238806 0.0597051 0)
(-0.0265848 0.0646873 0)
(-0.0296134 0.0722293 0)
(-0.033316 0.0833056 0)
(-0.0380371 0.0986743 0)
(-0.0437389 0.116594 0)
(-0.0510959 0.126446 0)
(-0.0589133 0.104996 0)
(-0.0634658 0.0239136 0)
(-0.0677048 -0.105745 0)
(-0.072355 -0.245066 0)
(-0.0912094 -0.36457 0)
(-0.0346264 -0.382471 0)
(-0.000753599 0.0256905 0)
(-0.00411028 0.0486335 0)
(-0.00869792 0.0561127 0)
(-0.0122608 0.0575389 0)
(-0.0151348 0.057418 0)
(-0.0172953 0.0576273 0)
(-0.0188166 0.0588832 0)
(-0.0197512 0.0616477 0)
(-0.0201172 0.0664332 0)
(-0.0198579 0.0739224 0)
(-0.0188283 0.0850039 0)
(-0.0165061 0.100107 0)
(-0.0121623 0.117455 0)
(-0.00528174 0.126506 0)
(0.00100971 0.105996 0)
(0.00654795 0.0280194 0)
(-0.00354939 -0.0924565 0)
(-0.0194072 -0.222533 0)
(-0.0626091 -0.364689 0)
(-0.0212324 -0.434663 0)
(-0.00109745 0.0283733 0)
(-0.00491114 0.0520893 0)
(-0.00997776 0.0588156 0)
(-0.0134511 0.0590973 0)
(-0.015858 0.0582191 0)
(-0.0170721 0.0578996 0)
(-0.0172336 0.0586812 0)
(-0.0163602 0.060877 0)
(-0.0143493 0.0648884 0)
(-0.0108983 0.0712365 0)
(-0.0055945 0.08051 0)
(0.00270375 0.0928257 0)
(0.0147589 0.106589 0)
(0.0316404 0.113154 0)
(0.0463841 0.0954849 0)
(0.0584163 0.0291621 0)
(0.0434968 -0.0749353 0)
(0.0231397 -0.188119 0)
(-0.0407801 -0.349197 0)
(-0.00981864 -0.469922 0)
(-0.00318024 0.0305737 0)
(-0.00935608 0.0591803 0)
(-0.01373 0.0657859 0)
(-0.0161168 0.0654336 0)
(-0.017103 0.0627747 0)
(-0.0170371 0.0605754 0)
(-0.0159114 0.059496 0)
(-0.0135627 0.0598425 0)
(-0.00970267 0.061885 0)
(-0.00387959 0.0658904 0)
(0.00447225 0.0721985 0)
(0.0166206 0.0805819 0)
(0.0326011 0.0895612 0)
(0.0539259 0.0928147 0)
(0.0720305 0.0792381 0)
(0.0882226 0.0301209 0)
(0.0708751 -0.0511081 0)
(0.0505422 -0.145199 0)
(-0.0265782 -0.326271 0)
(0.00270593 -0.492325 0)
(-0.000952421 0.0439812 0)
(-0.0076461 0.0606159 0)
(-0.01705 0.0629725 0)
(-0.0194401 0.0590962 0)
(-0.0207581 0.0560362 0)
(-0.0198999 0.0540253 0)
(-0.017598 0.0530165 0)
(-0.0137255 0.0529135 0)
(-0.00809593 0.0538365 0)
(-0.000198187 0.0558442 0)
(0.0104181 0.0593485 0)
(0.024801 0.0639097 0)
(0.0422896 0.0684907 0)
(0.065159 0.0690639 0)
(0.0829802 0.0592052 0)
(0.101401 0.0268588 0)
(0.0827744 -0.0309398 0)
(0.0665786 -0.10534 0)
(-0.00940099 -0.302941 0)
(0.0216059 -0.502121 0)
(-0.0125627 0.0322272 0)
(-0.023227 0.0804071 0)
(-0.0211407 0.0804553 0)
(-0.0254122 0.075492 0)
(-0.0252555 0.0680839 0)
(-0.0232833 0.0619759 0)
(-0.0192184 0.0571111 0)
(-0.013241 0.0534039 0)
(-0.00542568 0.0508658 0)
(0.00469465 0.049282 0)
(0.0170724 0.0489011 0)
(0.032568 0.0491846 0)
(0.0496501 0.0504142 0)
(0.0716335 0.0496228 0)
(0.086231 0.0450782 0)
(0.106543 0.0288391 0)
(0.0927701 -0.00599719 0)
(0.100623 -0.0652091 0)
(0.0399364 -0.274057 0)
(0.0575259 -0.489774 0)
(-0.0776527 0.0958738 0)
(-0.0632524 0.0587799 0)
(-0.0652593 0.0599785 0)
(-0.0427444 0.0533501 0)
(-0.0249643 0.046379 0)
(-0.00433549 0.0412132 0)
(0.0151416 0.03745 0)
(0.0350017 0.0342609 0)
(0.0534414 0.0319568 0)
(0.0735153 0.0298866 0)
(0.0910285 0.0287351 0)
(0.113397 0.0276706 0)
(0.129171 0.027046 0)
(0.158138 0.0260074 0)
(0.168051 0.020733 0)
(0.202974 0.0118727 0)
(0.191597 -0.0213018 0)
(0.222993 -0.0741626 0)
(0.154234 -0.25182 0)
(0.124929 -0.433384 0)
(0.119382 0.140759 0)
(0.151976 0.0860656 0)
(0.228409 0.0634925 0)
(0.283875 0.0480386 0)
(0.325302 0.0374118 0)
(0.363619 0.0296569 0)
(0.392343 0.0242314 0)
(0.423561 0.0201807 0)
(0.443514 0.0172893 0)
(0.472104 0.0149859 0)
(0.484947 0.013288 0)
(0.514339 0.0119676 0)
(0.519866 0.010842 0)
(0.552148 0.00962529 0)
(0.547192 0.00761344 0)
(0.579326 0.00318061 0)
(0.547896 -0.00584526 0)
(0.55347 -0.0271021 0)
(0.419916 -0.0731816 0)
(0.275191 -0.151915 0)
)
;

boundaryField
{
    movingWall
    {
        type            fixedValue;
        value           uniform (1 0 0);
    }
    fixedWalls
    {
        type            noSlip;
    }
    frontAndBack
    {
        type            empty;
    }
}


// ************************************************************************* //
