/*--------------------------------*- C++ -*----------------------------------*\
  =========                 |
  \\      /  F ield         | OpenFOAM: The Open Source CFD Toolbox
   \\    /   O peration     | Website:  https://openfoam.org
    \\  /    A nd           | Version:  10
     \\/     M anipulation  |
\*---------------------------------------------------------------------------*/
FoamFile
{
    format      ascii;
    class       surfaceScalarField;
    location    "2.35";
    object      phi;
}
// * * * * * * * * * * * * * * * * * * * * * * * * * * * * * * * * * * * * * //

dimensions      [0 3 -1 0 0 0 0];

internalField   nonuniform List<scalar> 
760
(
-1.34084e-05
1.34084e-05
-3.43331e-05
2.09247e-05
-5.56454e-05
2.13123e-05
-7.58053e-05
2.01599e-05
-9.42393e-05
1.84341e-05
-0.000110503
1.62638e-05
-0.000124189
1.36861e-05
-0.000134923
1.07342e-05
-0.000142371
7.44729e-06
-0.000146243
3.87221e-06
-0.000146305
6.22352e-08
-0.000142391
-3.91375e-06
-0.000134431
-7.96086e-06
-0.000122465
-1.19652e-05
-0.000106673
-1.57928e-05
-8.73854e-05
-1.92872e-05
-6.51217e-05
-2.22636e-05
-4.07055e-05
-2.44162e-05
-1.6185e-05
-2.45205e-05
-1.6185e-05
-2.15796e-05
3.49879e-05
-5.27248e-05
5.20699e-05
-8.41908e-05
5.27783e-05
-0.000113872
4.9841e-05
-0.000140903
4.54652e-05
-0.000164618
3.99789e-05
-0.000184426
3.34937e-05
-0.0001998
2.61089e-05
-0.000210286
1.79325e-05
-0.000215494
9.08055e-06
-0.000215174
-2.58112e-07
-0.000209069
-1.00182e-05
-0.000197143
-1.98867e-05
-0.000179489
-2.96198e-05
-0.000156381
-3.89006e-05
-0.000128311
-4.73571e-05
-9.60264e-05
-5.45483e-05
-6.07004e-05
-5.97422e-05
-2.50786e-05
-6.01423e-05
-4.12636e-05
-2.36636e-05
5.86515e-05
-5.7641e-05
8.60473e-05
-9.18931e-05
8.70305e-05
-0.000124168
8.21164e-05
-0.000153549
7.48458e-05
-0.000179327
6.57566e-05
-0.000200875
5.50414e-05
-0.000217637
4.28715e-05
-0.000229133
2.94282e-05
-0.000234966
1.49141e-05
-0.000234805
-4.19366e-07
-0.00022839
-1.64338e-05
-0.00021565
-3.26264e-05
-0.000196645
-4.8625e-05
-0.000171624
-6.39209e-05
-0.000141078
-7.79036e-05
-0.000105786
-8.98404e-05
-6.70132e-05
-9.85149e-05
-2.77663e-05
-9.93892e-05
-6.90299e-05
-2.51506e-05
8.38021e-05
-6.13366e-05
0.000122233
-9.77954e-05
0.000123489
-0.000132153
0.000116474
-0.000163457
0.000106149
-0.000190977
9.32764e-05
-0.000214069
7.8134e-05
-0.000232163
6.09652e-05
-0.000244754
4.20196e-05
-0.000251407
2.15666e-05
-0.000251794
-3.22835e-08
-0.000245529
-2.26985e-05
-0.000232484
-4.56718e-05
-0.000212637
-6.84714e-05
-0.000186161
-9.0397e-05
-0.000153488
-0.000110577
-0.000115396
-0.000127932
-7.32468e-05
-0.000140664
-3.03706e-05
-0.000142265
-9.94005e-05
-2.70839e-05
0.000110886
-6.61231e-05
0.000161273
-0.000105445
0.000162811
-0.000142508
0.000153537
-0.000176313
0.000139955
-0.000206108
0.000123071
-0.000231235
0.000103261
-0.00025111
8.08403e-05
-0.000265211
5.61198e-05
-0.000273065
2.94216e-05
-0.000274269
1.17108e-06
-0.000268383
-2.85841e-05
-0.000255132
-5.89226e-05
-0.000234357
-8.9247e-05
-0.000206092
-0.000118662
-0.000170658
-0.000146011
-0.0001288
-0.00016979
-8.20018e-05
-0.000187462
-3.40647e-05
-0.000190203
-0.000133465
-2.9633e-05
0.000140519
-7.24042e-05
0.000204044
-0.000115458
0.000205864
-0.000156029
0.000194108
-0.000193062
0.000176988
-0.000225783
0.000155792
-0.000253528
0.000131006
-0.000275709
0.000103022
-0.000291794
7.22042e-05
-0.000301278
3.89059e-05
-0.000303669
3.56273e-06
-0.000298451
-3.38029e-05
-0.000285151
-7.22226e-05
-0.0002634
-0.000110998
-0.000233005
-0.000149057
-0.000194084
-0.000184932
-0.000147272
-0.000216602
-9.41742e-05
-0.00024056
-3.92519e-05
-0.000245125
-0.000172717
-3.28731e-05
0.000173392
-8.03639e-05
0.000251535
-0.000128104
0.000253605
-0.000173047
0.000239051
-0.000214071
0.000218013
-0.00025039
0.000192111
-0.00028135
0.000161966
-0.000306384
0.000128056
-0.000324966
9.07866e-05
-0.000336573
5.05133e-05
-0.000340645
7.63401e-06
-0.000336536
-3.79116e-05
-0.000323538
-8.52206e-05
-0.000300975
-0.000133561
-0.000268286
-0.000181746
-0.000225226
-0.000227992
-0.00017217
-0.000269657
-0.000110786
-0.000301944
-4.64212e-05
-0.00030949
-0.000219138
-3.68969e-05
0.000210289
-9.02215e-05
0.000304859
-0.000143698
0.000307081
-0.00019393
0.000289283
-0.000239729
0.000263812
-0.000280314
0.000232696
-0.000315077
0.000196728
-0.000343507
0.000156486
-0.000365129
0.000112408
-0.000379431
6.48154e-05
-0.000385803
1.40061e-05
-0.000383468
-4.02465e-05
-0.000371418
-9.72703e-05
-0.000348554
-0.000156426
-0.000313745
-0.000216555
-0.000266116
-0.000275621
-0.000205495
-0.000330278
-0.000133412
-0.000374027
-5.63766e-05
-0.000386525
-0.000275515
-4.18418e-05
0.000252131
-0.000102288
0.000365306
-0.000162671
0.000367464
-0.000219166
0.000345778
-0.000270527
0.000315173
-0.000316015
0.000278184
-0.000355119
0.000235832
-0.000387452
0.000188819
-0.000412653
0.000137609
-0.000430283
8.24456e-05
-0.000439726
2.34496e-05
-0.000440106
-3.98672e-05
-0.000430063
-0.000107312
-0.000407947
-0.000178542
-0.000371792
-0.00025271
-0.000319651
-0.000327762
-0.000250283
-0.000399646
-0.000164591
-0.00045972
-7.05243e-05
-0.000480592
-0.000346039
-4.79186e-05
0.00030005
-0.00011702
0.000434407
-0.000185633
0.000436076
-0.00024942
0.000409565
-0.000307102
0.000372855
-0.000358046
0.000329128
-0.000401924
0.000279709
-0.000438565
0.00022546
-0.000467822
0.000166866
-0.000489433
0.000104056
-0.000502863
3.68804e-05
-0.00050722
-3.55104e-05
-0.000500793
-0.000113739
-0.000481273
-0.000198062
-0.000445545
-0.000288438
-0.000389957
-0.000383349
-0.000311223
-0.00047838
-0.000208548
-0.000562395
-9.14758e-05
-0.000597664
-0.000437515
-5.54628e-05
0.000355512
-0.0001351
0.000514044
-0.000213459
0.000514436
-0.000285603
0.000481709
-0.000350286
0.000437538
-0.000407082
0.000385924
-0.000455966
0.000328593
-0.00049712
0.000266614
-0.000530757
0.000200503
-0.000556933
0.000130232
-0.000575354
5.53017e-05
-0.000585283
-2.5582e-05
-0.000584757
-0.000114264
-0.000570808
-0.000212012
-0.00053888
-0.000320366
-0.000482822
-0.000439408
-0.000395663
-0.000565539
-0.000272619
-0.000685439
-0.000124427
-0.000745856
-0.000561942
-6.50311e-05
0.000420543
-0.000157578
0.000606591
-0.000247432
0.00060429
-0.000328994
0.000563271
-0.00040119
0.000509734
-0.000463959
0.000448693
-0.000517753
0.000382387
-0.000563286
0.000312147
-0.000601315
0.000238532
-0.000632426
0.000161344
-0.000656795
7.96702e-05
-0.000674121
-8.25586e-06
-0.000682527
-0.000105858
-0.000678598
-0.000215941
-0.000656283
-0.000342681
-0.000606134
-0.000489557
-0.000515217
-0.000656456
-0.000370115
-0.000830541
-0.000180517
-0.000935453
-0.000742459
-7.76069e-05
0.00049815
-0.000186109
0.000715094
-0.000289452
0.000707633
-0.000381399
0.000655217
-0.000461317
0.000589653
-0.000529744
0.000517121
-0.000587841
0.000440484
-0.00063708
0.000361386
-0.000678998
0.00028045
-0.000714959
0.000197305
-0.000745922
0.000110633
-0.000772437
1.82584e-05
-0.000793395
-8.49e-05
-0.000805613
-0.000203722
-0.000802157
-0.000346137
-0.000770062
-0.000521652
-0.000687934
-0.000738584
-0.000526156
-0.000992319
-0.00028661
-0.001175
-0.00102907
-9.50573e-05
0.000593208
-0.000223519
0.000843556
-0.000342428
0.000826542
-0.000445389
0.000758177
-0.000532711
0.000676975
-0.000605812
0.000590222
-0.000666863
0.000501535
-0.00071836
0.000412883
-0.00076287
0.000324959
-0.000802826
0.000237262
-0.000840364
0.000148171
-0.000876994
5.48882e-05
-0.000914144
-4.77498e-05
-0.000950007
-0.000167859
-0.000978821
-0.000317323
-0.000985816
-0.000514657
-0.000940562
-0.000783838
-0.000785397
-0.00114748
-0.000494731
-0.00146567
-0.0015238
-0.000118502
0.00071171
-0.000272477
0.00099753
-0.00040996
0.000964025
-0.000524419
0.000872636
-0.000618105
0.000770661
-0.000693924
0.000666041
-0.000755552
0.000563163
-0.000806794
0.000464124
-0.000851447
0.000369612
-0.000893217
0.000279032
-0.000935544
0.000190498
-0.000981923
0.000101267
-0.00103809
8.42125e-06
-0.00110407
-0.000101886
-0.00118138
-0.000240009
-0.00125861
-0.00043743
-0.0013041
-0.000738343
-0.00120803
-0.00124355
-0.000886261
-0.00178744
-0.00241006
-0.000173338
0.000885048
-0.000350887
0.00117508
-0.000501678
0.00111482
-0.000623395
0.000994353
-0.000720399
0.000867665
-0.000795773
0.000741416
-0.000854291
0.00062168
-0.000901231
0.000511064
-0.000941979
0.00041036
-0.000981817
0.00031887
-0.00102652
0.0002352
-0.0010819
0.000156643
-0.001153
7.95297e-05
-0.00124926
-5.63153e-06
-0.00138592
-0.000103351
-0.00156177
-0.000261579
-0.00176048
-0.000539632
-0.00179762
-0.00120641
-0.0014405
-0.00214456
-0.00385057
-0.00017006
0.00105511
-0.000419306
0.00142433
-0.000610447
0.00130596
-0.000750257
0.00113416
-0.00084816
0.000965569
-0.000913523
0.000806778
-0.000957602
0.00066576
-0.000989444
0.000542906
-0.00101603
0.000436948
-0.00104273
0.000345565
-0.00107516
0.000267636
-0.0011198
0.000201279
-0.00118918
0.000148915
-0.00130274
0.000107922
-0.00148861
8.25189e-05
-0.00176459
1.44031e-05
-0.00213549
-0.000168733
-0.00226564
-0.00107626
-0.00174206
-0.00266814
-0.00559262
-0.000459719
0.00151483
-0.000643751
0.00160836
-0.000781392
0.0014436
-0.000881537
0.00123431
-0.00093035
0.00101438
-0.000945639
0.000822066
-0.000942015
0.000662136
-0.000929542
0.000530434
-0.000915924
0.00042333
-0.000906944
0.000336586
-0.000910496
0.000271187
-0.000930619
0.000221403
-0.000981001
0.000199297
-0.00106574
0.000192661
-0.00121458
0.000231363
-0.00140151
0.000201328
-0.00160272
3.24806e-05
-0.0016722
-0.00100678
-0.00104755
-0.00329279
-0.00664017
-0.00122051
0.00273533
-0.00112587
0.00151372
-0.000894686
0.00121241
-0.000601928
0.000941549
-0.000310592
0.000723047
-4.42396e-05
0.000555714
0.000187161
0.000430736
0.000381794
0.000335801
0.000540943
0.00026418
0.000670059
0.00020747
0.000772922
0.000168324
0.000858009
0.000136316
0.000938067
0.000119238
0.0010168
0.000113931
0.00115094
9.72228e-05
0.00126964
8.26297e-05
0.0014779
-0.000175785
0.00140936
-0.000938241
0.00103369
-0.00291712
-0.00560648
0.00273533
0.00424906
0.00546147
0.00640302
0.00712606
0.00768178
0.00811251
0.00844831
0.00871249
0.00891996
0.00908829
0.0092246
0.00934384
0.00945777
0.009555
0.00963763
0.00946184
0.0085236
0.00560648
)
;

boundaryField
{
    movingWall
    {
        type            calculated;
        value           uniform 0;
    }
    fixedWalls
    {
        type            calculated;
        value           uniform 0;
    }
    frontAndBack
    {
        type            empty;
        value           nonuniform List<scalar> 0();
    }
}


// ************************************************************************* //
