/*--------------------------------*- C++ -*----------------------------------*\
  =========                 |
  \\      /  F ield         | OpenFOAM: The Open Source CFD Toolbox
   \\    /   O peration     | Website:  https://openfoam.org
    \\  /    A nd           | Version:  10
     \\/     M anipulation  |
\*---------------------------------------------------------------------------*/
FoamFile
{
    format      ascii;
    class       volScalarField;
    location    "8.025";
    object      p;
}
// * * * * * * * * * * * * * * * * * * * * * * * * * * * * * * * * * * * * * //

dimensions      [0 2 -2 0 0 0 0];

internalField   nonuniform List<scalar> 
400
(
-1.51584e-08
-2.44097e-05
3.13341e-05
0.000138823
0.00030565
0.00053447
0.000829229
0.00119478
0.00163563
0.0021546
0.00275135
0.00342002
0.00414637
0.00490489
0.00565549
0.00634453
0.00690881
0.00729032
0.00748576
0.00741392
2.66937e-05
1.79146e-06
6.42631e-05
0.000173594
0.000338902
0.000563666
0.000852299
0.00120986
0.00164105
0.00214907
0.00273432
0.00339197
0.00410817
0.0048611
0.00561069
0.00630295
0.00687159
0.00725535
0.00745502
0.00736776
-3.95649e-05
-7.28799e-05
-1.22487e-05
9.26277e-05
0.000251639
0.000468519
0.000748287
0.00109699
0.00152078
0.00202498
0.00261253
0.00328174
0.00402396
0.00481737
0.00562143
0.00637517
0.00699787
0.00740955
0.00761133
0.00747413
-0.000177908
-0.000217132
-0.000160342
-6.28149e-05
8.61989e-05
0.000290852
0.000557075
0.000892374
0.00130511
0.00180386
0.00239599
0.00308478
0.00386513
0.00472491
0.00561993
0.00648037
0.00720228
0.0076663
0.00787084
0.00764691
-0.000396106
-0.000440372
-0.000389978
-0.000303244
-0.000168564
1.87389e-05
0.000265677
0.000581541
0.000977458
0.00146622
0.00206135
0.00277459
0.00361134
0.0045575
0.00558316
0.00660552
0.00748656
0.0080405
0.00824328
0.00786525
-0.000692745
-0.00074209
-0.000700686
-0.000628579
-0.00051352
-0.000350431
-0.000131303
0.000154879
0.000522107
0.000987749
0.00157249
0.00229887
0.00318539
0.00423536
0.0054297
0.00668318
0.00781507
0.00852663
0.0087142
0.00806261
-0.00106336
-0.00111841
-0.0010887
-0.00103565
-0.000946723
-0.000816829
-0.000637556
-0.000396792
-7.83809e-05
0.00033908
0.00088333
0.00158898
0.00249265
0.00361834
0.00500071
0.00655561
0.00807109
0.00907646
0.00922111
0.00812551
-0.00150202
-0.00156369
-0.00154841
-0.00151926
-0.00146388
-0.00137794
-0.00125373
-0.0010797
-0.000839469
-0.000509929
-5.88533e-05
0.000558383
0.00140165
0.00254171
0.00400256
0.00585115
0.00789057
0.00946228
0.00955176
0.00795258
-0.00200114
-0.00207044
-0.00207192
-0.00207117
-0.00205679
-0.00202623
-0.00197415
-0.00189201
-0.00176727
-0.00158128
-0.00130581
-0.000898602
-0.000299582
0.000575127
0.00184191
0.00365015
0.00615716
0.00873668
0.00904153
0.00757543
-0.0025516
-0.00262934
-0.00264869
-0.00267939
-0.00271185
-0.0027467
-0.00278309
-0.00281869
-0.00284993
-0.00287152
-0.00287596
-0.00285407
-0.00280238
-0.00273798
-0.00261227
-0.00198217
0.000175156
0.00418686
0.00633908
0.00710223
-0.00314319
-0.00322988
-0.00326586
-0.00332798
-0.00340939
-0.00351533
-0.00365162
-0.00382569
-0.00404913
-0.00434117
-0.00473576
-0.00529773
-0.00617358
-0.00769797
-0.0101486
-0.0129696
-0.0126316
-0.00720424
-0.000900008
0.00467751
-0.00376585
-0.00386094
-0.00390785
-0.00399626
-0.0041223
-0.00429725
-0.0045348
-0.00485429
-0.00528703
-0.00588637
-0.00674871
-0.00805562
-0.0101749
-0.0139052
-0.0199738
-0.0276998
-0.0308321
-0.0244724
-0.0139276
-0.00334902
-0.0044132
-0.00451617
-0.00456401
-0.00466753
-0.00482522
-0.0050557
-0.00538079
-0.00583089
-0.00645636
-0.00734354
-0.00864889
-0.0106599
-0.0139453
-0.019584
-0.0285231
-0.0396704
-0.0458725
-0.0399462
-0.0288416
-0.0153556
-0.00507833
-0.00517935
-0.00520273
-0.00529833
-0.00546688
-0.00573135
-0.00611614
-0.00665873
-0.00741892
-0.00849784
-0.0100812
-0.0124748
-0.0163271
-0.0226169
-0.0323816
-0.0437757
-0.0507441
-0.0451782
-0.0361841
-0.0228211
-0.00578927
-0.00589652
-0.00587359
-0.00594092
-0.00608354
-0.00633729
-0.00673006
-0.00730035
-0.00810701
-0.00924363
-0.0108981
-0.0133134
-0.0170811
-0.0229286
-0.0316092
-0.0406755
-0.046153
-0.0410513
-0.0354439
-0.022371
-0.00662886
-0.00654014
-0.00638974
-0.00634133
-0.00643127
-0.00666996
-0.00706714
-0.00764404
-0.0084457
-0.00953833
-0.0110851
-0.0132668
-0.016509
-0.0211034
-0.0274737
-0.0335052
-0.0370276
-0.0321565
-0.0290999
-0.0133068
-0.00710032
-0.00751102
-0.0071868
-0.00716489
-0.00712646
-0.00723023
-0.00748974
-0.00793808
-0.00861628
-0.00956716
-0.0109139
-0.0127679
-0.0154039
-0.0188147
-0.0233352
-0.0269741
-0.0287898
-0.0235109
-0.0194667
0.005681
-0.0104793
-0.00794109
-0.00726655
-0.00663464
-0.00652357
-0.00667038
-0.00701841
-0.00753093
-0.00823034
-0.00912626
-0.0103537
-0.0119531
-0.0141388
-0.0167656
-0.0199743
-0.0219134
-0.0220833
-0.0150895
-0.00468059
0.038361
-0.0071268
-0.0101043
-0.00897754
-0.00894314
-0.0084453
-0.00817464
-0.00809086
-0.00822505
-0.00862054
-0.00926513
-0.0102837
-0.0116472
-0.0137144
-0.0161577
-0.0193894
-0.0209391
-0.0201275
-0.00622574
0.0196742
0.0962764
-0.0323629
-0.00727855
-0.00569326
-0.0049075
-0.00468117
-0.00486832
-0.00535691
-0.00595456
-0.00675103
-0.00766874
-0.0089552
-0.0104627
-0.0124608
-0.0143056
-0.0157222
-0.0130208
-0.00307946
0.030923
0.0976276
0.228387
)
;

boundaryField
{
    movingWall
    {
        type            zeroGradient;
    }
    fixedWalls
    {
        type            zeroGradient;
    }
    frontAndBack
    {
        type            empty;
    }
}


// ************************************************************************* //
