/*--------------------------------*- C++ -*----------------------------------*\
  =========                 |
  \\      /  F ield         | OpenFOAM: The Open Source CFD Toolbox
   \\    /   O peration     | Website:  https://openfoam.org
    \\  /    A nd           | Version:  10
     \\/     M anipulation  |
\*---------------------------------------------------------------------------*/
FoamFile
{
    format      ascii;
    class       surfaceScalarField;
    location    "8.025";
    object      phi;
}
// * * * * * * * * * * * * * * * * * * * * * * * * * * * * * * * * * * * * * //

dimensions      [0 3 -1 0 0 0 0];

internalField   nonuniform List<scalar> 
760
(
-1.21009e-05
1.21009e-05
-3.90179e-05
2.6917e-05
-7.13615e-05
3.23436e-05
-0.000105357
3.39952e-05
-0.000139801
3.44444e-05
-0.000174321
3.452e-05
-0.000208548
3.42265e-05
-0.000241812
3.32648e-05
-0.000273018
3.12057e-05
-0.000300544
2.7526e-05
-0.000322183
2.16388e-05
-0.000335137
1.29542e-05
-0.000336155
1.01803e-06
-0.000321828
-1.43274e-05
-0.000289484
-3.23434e-05
-0.000238335
-5.11495e-05
-0.000171231
-6.71043e-05
-9.65956e-05
-7.46349e-05
-3.00408e-05
-6.65547e-05
-3.00408e-05
-2.8844e-05
4.0945e-05
-8.14047e-05
7.94776e-05
-0.000142669
9.36083e-05
-0.000206398
9.77237e-05
-0.000270173
9.82197e-05
-0.000332842
9.71888e-05
-0.000393347
9.47316e-05
-0.000450272
9.019e-05
-0.000501634
8.25676e-05
-0.00054475
7.06421e-05
-0.000576168
5.30563e-05
-0.000591625
2.84119e-05
-0.000586769
-3.83802e-06
-0.000556569
-4.45281e-05
-0.000497568
-9.13443e-05
-0.000409079
-0.000139639
-0.00029576
-0.000180423
-0.000170751
-0.000199644
-5.79323e-05
-0.000179374
-8.79731e-05
-3.6429e-05
7.73739e-05
-0.000100886
0.000143935
-0.000175197
0.000167919
-0.000251926
0.000174454
-0.000328235
0.000174528
-0.000402755
0.000171708
-0.000474267
0.000166244
-0.000541216
0.000157138
-0.000601468
0.00014282
-0.000652142
0.000121316
-0.000689483
9.03977e-05
-0.000708949
4.78774e-05
-0.000704869
-7.91745e-06
-0.000671229
-7.81683e-05
-0.000602991
-0.000159582
-0.000498049
-0.000244581
-0.00036088
-0.000317592
-0.000207431
-0.000353093
-6.88179e-05
-0.000317987
-0.000156791
-3.93298e-05
0.000116704
-0.000108974
0.000213579
-0.000189025
0.000247969
-0.000271545
0.000256973
-0.000353685
0.000256668
-0.000434213
0.000252237
-0.000512108
0.00024414
-0.000586049
0.000231079
-0.000654146
0.000210917
-0.000713698
0.000180867
-0.000760895
0.000137595
-0.000790574
7.75561e-05
-0.000796478
-2.01251e-06
-0.000769841
-0.000104806
-0.000702438
-0.000226984
-0.000588229
-0.00035879
-0.000429082
-0.000476738
-0.00024407
-0.000538106
-7.6227e-05
-0.000485829
-0.000233018
-4.01963e-05
0.0001569
-0.000112165
0.000285548
-0.000195073
0.000330877
-0.000280774
0.000342675
-0.000366592
0.000342486
-0.000451634
0.000337279
-0.000535318
0.000327823
-0.000616834
0.000312595
-0.000694843
0.000288927
-0.000767127
0.000253151
-0.000830112
0.00020058
-0.000878243
0.000125688
-0.000903385
2.31295e-05
-0.000894559
-0.000113633
-0.000837488
-0.000284055
-0.000718834
-0.000477444
-0.000533419
-0.000662153
-0.000300645
-0.000770881
-8.60077e-05
-0.000700466
-0.000319026
-4.02984e-05
0.000197199
-0.000113523
0.000358772
-0.000198291
0.000415645
-0.000286338
0.000430722
-0.000375245
0.000431393
-0.000464592
0.000426626
-0.000554428
0.000417659
-0.000644728
0.000402895
-0.000735061
0.000379259
-0.000824145
0.000342236
-0.000909177
0.000285611
-0.000984799
0.00020131
-0.00104161
7.99451e-05
-0.00106582
-8.94326e-05
-0.00103549
-0.000314384
-0.000924708
-0.000588223
-0.000711057
-0.000875803
-0.000402987
-0.00107895
-0.000105581
-0.000997871
-0.000424607
-4.00798e-05
0.000237278
-0.000114143
0.000432835
-0.000200354
0.000501857
-0.000290323
0.000520691
-0.000381917
0.000522986
-0.000475286
0.000519996
-0.000571292
0.000513665
-0.000670987
0.00050259
-0.000775308
0.000483581
-0.000884613
0.00045154
-0.000997865
0.000398863
-0.00111127
0.000314715
-0.001216
0.000184673
-0.00129842
-7.01318e-06
-0.0013272
-0.000285597
-0.00125799
-0.000657435
-0.00102884
-0.00110496
-0.000606577
-0.00150121
-0.000158008
-0.00144644
-0.000582615
-3.96433e-05
0.000276922
-0.00011429
0.000507482
-0.000201574
0.00058914
-0.000292897
0.000612014
-0.000386401
0.00061649
-0.000482854
0.000616448
-0.000584067
0.000614879
-0.000692464
0.000610987
-0.000810885
0.000602002
-0.000942288
0.000582944
-0.00108908
0.000545659
-0.00125182
0.000477453
-0.00142695
0.000359803
-0.00160171
0.000167743
-0.00175002
-0.000137289
-0.00179181
-0.000615637
-0.0015838
-0.00131297
-0.00100501
-0.00208
-0.000300683
-0.00215077
-0.000883298
-3.90417e-05
0.000315963
-0.000114063
0.000582503
-0.000201943
0.00067702
-0.000293732
0.000703804
-0.000387785
0.000710543
-0.000485467
0.000714129
-0.000589572
0.000718984
-0.00070404
0.000725455
-0.000834059
0.000732021
-0.000986186
0.00073507
-0.00116824
0.000727713
-0.00138898
0.000698189
-0.00165729
0.000628111
-0.00197606
0.000486522
-0.00231891
0.000205553
-0.00255698
-0.000377566
-0.00240471
-0.00146524
-0.0016571
-0.00282761
-0.000624998
-0.00318287
-0.0015083
-3.84365e-05
0.0003544
-0.000113763
0.00065783
-0.000201692
0.000764948
-0.000292734
0.000794846
-0.000385344
0.000803153
-0.000481379
0.000810165
-0.000584497
0.000822102
-0.000700053
0.00084101
-0.000835605
0.000867574
-0.0010018
0.000901265
-0.00121374
0.000939651
-0.00149283
0.000977279
-0.0018675
0.00100278
-0.00236124
0.000980265
-0.00292841
0.000772725
-0.0033507
4.47195e-05
-0.00325505
-0.00156088
-0.00245472
-0.00362794
-0.00119117
-0.00444643
-0.00269946
-3.8211e-05
0.000392611
-0.000114132
0.000733752
-0.000201637
0.000852453
-0.000290507
0.000883716
-0.000379139
0.000891785
-0.000469699
0.000900725
-0.00056637
0.000918773
-0.000675402
0.000950042
-0.000806049
0.00099822
-0.0009723
0.00106752
-0.00119583
0.00116318
-0.00150988
0.00129132
-0.00195742
0.00145032
-0.00256162
0.00158447
-0.00323488
0.00144598
-0.00369716
0.000507002
-0.00365787
-0.00160017
-0.00304905
-0.00423676
-0.00180723
-0.00568826
-0.00450669
-3.91594e-05
0.00043177
-0.000116687
0.000811279
-0.000203536
0.000939303
-0.000288689
0.000968868
-0.000370483
0.000973579
-0.000451157
0.000981398
-0.00053488
0.0010025
-0.000627801
0.00104296
-0.00073918
0.0011096
-0.000883366
0.0012117
-0.00108282
0.00136264
-0.00137048
0.00157898
-0.00178247
0.00186232
-0.00231383
0.00211582
-0.00285859
0.00199075
-0.0032073
0.000855707
-0.00324529
-0.00156218
-0.00293762
-0.00454443
-0.00193248
-0.00669339
-0.00643917
-4.23698e-05
0.00047414
-0.000123512
0.000892421
-0.000210105
0.0010259
-0.000290367
0.00104913
-0.000362509
0.00104572
-0.000428671
0.00104756
-0.000492512
0.00106634
-0.000558618
0.00110907
-0.000633567
0.00118455
-0.000727111
0.00130525
-0.000853463
0.00148899
-0.00102917
0.00175469
-0.00126733
0.00210047
-0.00154385
0.00239235
-0.00180588
0.00225278
-0.00197381
0.00102364
-0.00208478
-0.00145122
-0.00211174
-0.00451747
-0.00155847
-0.00724667
-0.00799764
-5.14834e-05
0.000525623
-0.000140334
0.000981272
-0.000226449
0.00111201
-0.00029914
0.00112182
-0.000358456
0.00110504
-0.000406639
0.00109574
-0.000445628
0.00110533
-0.000477586
0.00114103
-0.00050475
0.00121171
-0.000529299
0.0013298
-0.000553093
0.00151278
-0.000571463
0.00177306
-0.000578141
0.00210715
-0.000552364
0.00236657
-0.000523321
0.00222374
-0.000537611
0.00103793
-0.000706715
-0.00128211
-0.0010892
-0.00413499
-0.00104597
-0.00728989
-0.00904361
-6.31069e-05
0.00058873
-0.000163477
0.00108164
-0.000253736
0.00120227
-0.00032359
0.00119168
-0.000370836
0.00115228
-0.0003986
0.00112351
-0.000408959
0.00111569
-0.000402228
0.0011343
-0.000376627
0.00118611
-0.000327216
0.00128038
-0.000245236
0.0014308
-0.000111605
0.00163943
9.40883e-05
0.00190145
0.000362115
0.00209855
0.000629253
0.0019566
0.000695777
0.000971402
0.000419535
-0.00100587
-0.000282318
-0.00343314
-0.000629885
-0.00694232
-0.0096735
-0.000130711
0.000719442
-0.000245594
0.00119653
-0.000320708
0.00127738
-0.000364363
0.00123533
-0.00038663
0.00117455
-0.000390924
0.0011278
-0.000375703
0.00110046
-0.000336632
0.00109523
-0.000267267
0.00111675
-0.0001574
0.00117052
8.3177e-06
0.00126509
0.000243915
0.00140384
0.000572464
0.00157291
0.00098346
0.00168755
0.00136992
0.00157014
0.00149459
0.000846728
0.00115813
-0.000669406
0.000303951
-0.00257896
-0.000272024
-0.00636634
-0.00994552
-8.45159e-05
0.000803957
-0.000264578
0.00137659
-0.000379874
0.00139268
-0.000437995
0.00129345
-0.000454922
0.00119148
-0.000440822
0.0011137
-0.000398233
0.00105788
-0.000324488
0.00102148
-0.000213565
0.00100582
-5.3692e-05
0.00101064
0.00016796
0.00104343
0.000469283
0.00110251
0.000859609
0.00118258
0.00132232
0.00122483
0.00175199
0.00114048
0.00190332
0.000695401
0.00154945
-0.000315537
0.000727107
-0.00175662
0.00012088
-0.00576012
-0.00982464
-0.000380077
0.00118403
-0.000440385
0.0014369
-0.000492685
0.00144498
-0.00053409
0.00133486
-0.00052839
0.00118578
-0.000481549
0.00106686
-0.000397389
0.000973716
-0.000274223
0.000898316
-0.000112489
0.000844089
9.56044e-05
0.00080255
0.000355322
0.000783716
0.000679939
0.000777894
0.00106793
0.000794585
0.00149271
0.000800059
0.00189616
0.000737022
0.0020876
0.000503961
0.00198954
-0.000217474
0.00156963
-0.00133671
0.000871353
-0.00506184
-0.00895329
-0.00136249
0.00254652
-0.00132628
0.00140068
-0.00106899
0.00118769
-0.000699715
0.000965581
-0.00030982
0.000795882
8.44133e-05
0.000672626
0.000471626
0.000586503
0.00085099
0.000518952
0.00122476
0.000470319
0.00159769
0.000429617
0.00197813
0.000403281
0.00237323
0.000382794
0.0028003
0.000367517
0.00325198
0.00034838
0.00371377
0.000275224
0.00407398
0.000143751
0.00417021
-0.000313696
0.00399524
-0.00116174
0.00252962
-0.00359622
-0.00642367
0.00254652
0.00394721
0.0051349
0.00610048
0.00689636
0.00756899
0.00815549
0.00867444
0.00914476
0.00957438
0.00997766
0.0103605
0.010728
0.0110764
0.0113516
0.0114953
0.0111816
0.0100199
0.00642367
)
;

boundaryField
{
    movingWall
    {
        type            calculated;
        value           uniform 0;
    }
    fixedWalls
    {
        type            calculated;
        value           uniform 0;
    }
    frontAndBack
    {
        type            empty;
        value           nonuniform List<scalar> 0();
    }
}


// ************************************************************************* //
