/*--------------------------------*- C++ -*----------------------------------*\
  =========                 |
  \\      /  F ield         | OpenFOAM: The Open Source CFD Toolbox
   \\    /   O peration     | Website:  https://openfoam.org
    \\  /    A nd           | Version:  10
     \\/     M anipulation  |
\*---------------------------------------------------------------------------*/
FoamFile
{
    format      ascii;
    class       volScalarField;
    location    "2.9";
    object      p;
}
// * * * * * * * * * * * * * * * * * * * * * * * * * * * * * * * * * * * * * //

dimensions      [0 2 -2 0 0 0 0];

internalField   nonuniform List<scalar> 
400
(
-1.53225e-09
-2.97132e-05
-2.96349e-06
5.27507e-05
0.000142075
0.000264977
0.000420507
0.000607169
0.000822495
0.00106279
0.00132288
0.001596
0.00187362
0.00214563
0.00240055
0.0026261
0.00280976
0.00294018
0.00301624
0.00299727
2.90675e-05
-2.051e-06
2.45854e-05
7.76034e-05
0.000162812
0.000280686
0.00043062
0.000611447
0.000821014
0.00105592
0.00131126
0.00158038
0.00185516
0.00212548
0.00237977
0.00260559
0.00279009
0.00292179
0.00300044
0.00298013
-7.20279e-07
-3.59295e-05
-1.05625e-05
4.07405e-05
0.000124413
0.000241174
0.000390747
0.000572347
0.000784207
0.00102327
0.00128495
0.00156314
0.00184916
0.00213263
0.00240138
0.00264188
0.00283981
0.00298195
0.00306749
0.00304415
-6.39067e-05
-0.000103076
-7.92778e-05
-2.99201e-05
5.22325e-05
0.000168326
0.000318608
0.000502883
0.000719985
0.000967425
0.00124106
0.00153497
0.00184083
0.00214759
0.00244182
0.00270823
0.00293008
0.00309108
0.00318926
0.00316446
-0.000165867
-0.000209718
-0.000187847
-0.000140662
-5.9914e-05
5.61212e-05
0.000208403
0.000397535
0.000623186
0.000883676
0.00117556
0.00149329
0.0018287
0.00217025
0.00250308
0.00280927
0.00306833
0.0032592
0.00337757
0.00335239
-0.000307883
-0.000357646
-0.000338307
-0.000293967
-0.000215093
-9.92146e-05
5.55625e-05
0.000250897
0.000487575
0.000765039
0.00108088
0.00143032
0.00180572
0.00219504
0.00258184
0.0029449
0.00325844
0.00349411
0.00364341
0.00361948
-0.000491356
-0.000548578
-0.000532738
-0.00049255
-0.000416855
-0.000302239
-0.000145614
5.60392e-05
0.000304984
0.0006022
0.000946788
0.00133528
0.00176124
0.00221261
0.00267156
0.00311306
0.0035042
0.00380593
0.00400208
0.00398305
-0.000718234
-0.000784815
-0.000773908
-0.000739965
-0.000669785
-0.000558794
-0.000402413
-0.000195916
6.48441e-05
0.000382891
0.000759468
0.00119318
0.00167991
0.0022086
0.00276088
0.00330807
0.00380853
0.00420759
0.00447518
0.00446954
-0.000990787
-0.00106903
-0.00106504
-0.00104037
-0.000979297
-0.000875827
-0.000723575
-0.000515743
-0.000245872
9.16563e-05
0.000500962
0.000983693
0.0015398
0.00216095
0.00283034
0.00351709
0.00417029
0.00471394
0.00509206
0.00511986
-0.00131153
-0.00140421
-0.00140969
-0.00139841
-0.00135151
-0.00126128
-0.00111918
-0.000916001
-0.0006426
-0.000290246
0.000148844
0.000680286
0.00131042
0.00203647
0.00284734
0.00371391
0.00457787
0.00533868
0.005891
0.00600002
-0.00168327
-0.00179364
-0.00181171
-0.00181911
-0.0017931
-0.00172388
-0.00160039
-0.00141071
-0.00114281
-0.000784554
-0.000323632
0.000252958
0.000950939
0.00178668
0.00275886
0.00384842
0.00499731
0.00608495
0.00691833
0.00722213
-0.0021094
-0.0022411
-0.0022752
-0.0023078
-0.00231118
-0.00227295
-0.00217907
-0.00201472
-0.00176508
-0.00141508
-0.000948626
-0.000347905
0.000407206
0.00134306
0.00248109
0.00382874
0.00534839
0.00691915
0.008221
0.00897979
-0.00259486
-0.00275101
-0.00280436
-0.00286989
-0.00291309
-0.0029181
-0.0028673
-0.00274277
-0.00252735
-0.00220418
-0.00175507
-0.00115826
-0.000386188
0.000615097
0.00188946
0.0034952
0.00546003
0.00771252
0.00976813
0.0116341
-0.00314899
-0.0033304
-0.0034033
-0.00351054
-0.00360623
-0.00366918
-0.00367707
-0.00360857
-0.00344494
-0.00316961
-0.00276529
-0.00220757
-0.00145763
-0.000473808
0.000823585
0.00258525
0.00497928
0.00808678
0.0113411
0.0156723
-0.00377543
-0.00399212
-0.00408231
-0.00424242
-0.00440309
-0.00453841
-0.00462044
-0.00462391
-0.00452889
-0.0043218
-0.00399385
-0.00353574
-0.0029288
-0.00213254
-0.00104548
0.000561541
0.00307938
0.00713347
0.0119223
0.0206147
-0.00459141
-0.00464463
-0.00473787
-0.00494193
-0.00521109
-0.00547521
-0.00568176
-0.0057906
-0.00578156
-0.00565146
-0.00541076
-0.00507281
-0.0046515
-0.00413578
-0.00344689
-0.0024724
-0.000828486
0.00280088
0.00716563
0.0221004
-0.00521763
-0.00585043
-0.00587931
-0.00626909
-0.00659353
-0.00689048
-0.00711988
-0.00725292
-0.00727726
-0.00719448
-0.00703609
-0.00684971
-0.00672336
-0.00676983
-0.00714197
-0.00805107
-0.0102573
-0.00878168
-0.00614472
0.0186865
-0.00822104
-0.00594308
-0.00598292
-0.00618603
-0.00677411
-0.00740236
-0.00796139
-0.00835944
-0.00857139
-0.00859454
-0.00850829
-0.00838191
-0.00842682
-0.00885817
-0.0102693
-0.0127108
-0.0191392
-0.0208155
-0.0180932
0.0222709
-0.00548329
-0.00871594
-0.00852312
-0.00954357
-0.010071
-0.0105362
-0.0108543
-0.0109778
-0.0109364
-0.0107126
-0.0104209
-0.0101789
-0.010196
-0.0109424
-0.0133211
-0.0168833
-0.0268149
-0.0270952
-0.0138293
0.0551867
-0.0288495
-0.00488587
-0.0048701
-0.00549572
-0.00648825
-0.00761879
-0.00866064
-0.00938764
-0.00986432
-0.00993653
-0.00999645
-0.00981832
-0.0101506
-0.0105986
-0.0121464
-0.0128075
-0.0114123
0.00620124
0.0593159
0.181229
)
;

boundaryField
{
    movingWall
    {
        type            zeroGradient;
    }
    fixedWalls
    {
        type            zeroGradient;
    }
    frontAndBack
    {
        type            empty;
    }
}


// ************************************************************************* //
