/*--------------------------------*- C++ -*----------------------------------*\
  =========                 |
  \\      /  F ield         | OpenFOAM: The Open Source CFD Toolbox
   \\    /   O peration     | Website:  https://openfoam.org
    \\  /    A nd           | Version:  10
     \\/     M anipulation  |
\*---------------------------------------------------------------------------*/
FoamFile
{
    format      ascii;
    class       volScalarField;
    location    "5";
    object      p;
}
// * * * * * * * * * * * * * * * * * * * * * * * * * * * * * * * * * * * * * //

dimensions      [0 2 -2 0 0 0 0];

internalField   nonuniform List<scalar> 
475
(
-0.0534776
-0.0788335
-0.107977
-0.131866
-0.154222
-0.0792247
-0.0925474
-0.108906
-0.128079
-0.14503
-0.0774141
-0.0867398
-0.101768
-0.119235
-0.135794
-0.076734
-0.0876559
-0.102582
-0.11789
-0.131693
-0.0469532
-0.0739257
-0.0975364
-0.115243
-0.127985
-0.172675
-0.184483
-0.189689
-0.195928
-0.206448
-0.219865
-0.231616
-0.237122
-0.234275
-0.22354
-0.205941
-0.183722
-0.160755
-0.13975
-0.120542
-0.103224
-0.0913567
-0.08415
-0.0765592
-0.0679553
-0.0582159
-0.0450871
-0.0289821
-0.0140719
-0.00407384
0.00179791
0.00613872
0.0107299
0.015387
0.0190968
0.0212092
0.0217575
0.0211633
0.0198937
0.018292
0.0165572
0.0147837
0.01301
0.011248
0.0094928
0.0077483
0.00601364
0.0042889
0.00257038
0.000855773
-0.161853
-0.174391
-0.181729
-0.186025
-0.190248
-0.194626
-0.197418
-0.197511
-0.193183
-0.184655
-0.173247
-0.160953
-0.149443
-0.139243
-0.129554
-0.120013
-0.112916
-0.107359
-0.0992157
-0.0879562
-0.0739178
-0.0563143
-0.0376158
-0.0208905
-0.0086978
-0.000410105
0.00593431
0.0116147
0.0166793
0.0205314
0.022733
0.0233412
0.022734
0.021355
0.0195637
0.0175975
0.0155875
0.0135979
0.0116572
0.00976572
0.00792221
0.00611763
0.0043444
0.00259443
0.000859998
-0.149403
-0.159348
-0.165811
-0.168751
-0.169928
-0.169141
-0.16683
-0.16308
-0.157369
-0.15186
-0.147387
-0.146019
-0.144994
-0.140402
-0.136697
-0.135559
-0.132712
-0.125832
-0.114027
-0.0989888
-0.080542
-0.0591255
-0.0379791
-0.0205547
-0.0080327
0.000761966
0.00746849
0.0131201
0.0179048
0.0214895
0.0236021
0.0242603
0.0237243
0.0223558
0.020494
0.018394
0.0162213
0.0140724
0.0119878
0.009985
0.00805803
0.00619589
0.00438374
0.00260963
0.000861027
-0.142433
-0.150382
-0.155171
-0.156605
-0.155552
-0.151103
-0.14491
-0.136458
-0.128202
-0.122355
-0.122842
-0.135964
-0.146084
-0.140261
-0.129552
-0.12784
-0.13194
-0.131209
-0.12212
-0.105066
-0.0827272
-0.0586521
-0.0366929
-0.0193176
-0.00693865
0.0018389
0.00850324
0.0140029
0.0185769
0.022017
0.0240961
0.0248024
0.0243238
0.0229707
0.0210677
0.0188878
0.0166037
0.0143499
0.0121789
0.0101073
0.00813063
0.00623407
0.00439999
0.00261297
0.000858192
-0.137534
-0.144557
-0.148453
-0.149388
-0.146735
-0.140885
-0.132396
-0.121951
-0.112411
-0.10509
-0.108557
-0.125379
-0.140955
-0.146413
-0.143466
-0.137663
-0.131719
-0.123738
-0.112073
-0.0956001
-0.075275
-0.0535231
-0.0337803
-0.01784
-0.00604464
0.00262643
0.0093053
0.0147286
0.0191281
0.0223877
0.0243454
0.0249762
0.0244565
0.0230791
0.0211543
0.0189416
0.0166586
0.0143979
0.0122167
0.0101345
0.00814857
0.00624443
0.00440534
0.00261433
0.000857736
-0.202357
-0.204161
-0.206659
-0.211134
-0.221833
-0.238603
-0.255613
-0.265984
-0.264772
-0.250613
-0.2239
-0.186662
-0.142543
-0.0966974
-0.0541086
-0.0177672
0.0107116
0.0306226
0.0429628
0.0492799
0.0510304
0.0498134
0.0470785
0.0433381
0.0383657
0.0314877
0.0237466
0.0169816
0.0124276
0.0101877
0.00969477
0.0101919
0.0110209
0.0117235
0.01209
0.012047
0.0116126
0.0108451
0.00981179
0.00857578
0.00718987
0.00569682
0.00412772
0.00250625
0.000849215
-0.194145
-0.19758
-0.202394
-0.211731
-0.227125
-0.247552
-0.266077
-0.277296
-0.276995
-0.264319
-0.238469
-0.20133
-0.156349
-0.108917
-0.0653733
-0.0284622
0.000778432
0.0213161
0.0340597
0.0414392
0.0448863
0.0451461
0.0433104
0.0402002
0.0354338
0.0292254
0.0226712
0.0171192
0.013277
0.0111864
0.0105478
0.010857
0.0115342
0.0121312
0.0123999
0.0122694
0.011767
0.0109484
0.00987747
0.00861546
0.0072125
0.00570837
0.00413286
0.00250728
0.000848694
-0.203183
-0.201849
-0.204297
-0.213866
-0.232273
-0.255221
-0.275062
-0.28739
-0.287786
-0.274216
-0.24784
-0.211438
-0.167911
-0.121733
-0.0796642
-0.0444506
-0.0161438
0.00406469
0.0166725
0.0243457
0.0286927
0.0305112
0.0307198
0.0297849
0.0276758
0.0242784
0.0204577
0.0170633
0.0145969
0.0131882
0.0127094
0.0128152
0.0131141
0.0133134
0.0132449
0.0128576
0.0121614
0.0112069
0.0100397
0.00871162
0.00726531
0.00573353
0.0041413
0.00250658
0.000844713
-0.1906
-0.193073
-0.196348
-0.206692
-0.224373
-0.246136
-0.26481
-0.276538
-0.278699
-0.26853
-0.244925
-0.21188
-0.173409
-0.132471
-0.0948728
-0.0640284
-0.0393643
-0.0214157
-0.00977744
-0.0016391
0.0042093
0.00808044
0.0112306
0.0141619
0.0156703
0.0156749
0.0150203
0.0147667
0.015124
0.0156823
0.0160566
0.01615
0.0159791
0.0155572
0.0148947
0.0140131
0.0129413
0.011711
0.01036
0.00891151
0.00738465
0.00579915
0.00417233
0.00251729
0.000844327
-0.222735
-0.202247
-0.199381
-0.204756
-0.219168
-0.238707
-0.255566
-0.264736
-0.264548
-0.2543
-0.233061
-0.204082
-0.172237
-0.139811
-0.109611
-0.0850325
-0.0671748
-0.0541016
-0.0440087
-0.0354162
-0.0266054
-0.0175008
-0.00870598
-0.00150999
0.00357682
0.00637558
0.00861705
0.0115373
0.0147972
0.0174294
0.0188881
0.0192324
0.0187781
0.0178393
0.0166312
0.0152748
0.0138288
0.0123206
0.0107654
0.00917323
0.00754615
0.00589342
0.00422172
0.00253813
0.000847299
)
;

boundaryField
{
    inlet
    {
        type            zeroGradient;
    }
    outlet
    {
        type            fixedValue;
        value           uniform 0;
    }
    upperWall
    {
        type            zeroGradient;
    }
    lowerWall
    {
        type            zeroGradient;
    }
    frontAndBack
    {
        type            empty;
    }
}


// ************************************************************************* //
