/*--------------------------------*- C++ -*----------------------------------*\
  =========                 |
  \\      /  F ield         | OpenFOAM: The Open Source CFD Toolbox
   \\    /   O peration     | Website:  https://openfoam.org
    \\  /    A nd           | Version:  10
     \\/     M anipulation  |
\*---------------------------------------------------------------------------*/
FoamFile
{
    format      ascii;
    class       surfaceScalarField;
    location    "5";
    object      phi;
}
// * * * * * * * * * * * * * * * * * * * * * * * * * * * * * * * * * * * * * //

dimensions      [0 3 -1 0 0 0 0];

internalField   nonuniform List<scalar> 
890
(
0.00984194
0.000158057
0.00971808
0.000123864
0.00947157
0.000246505
0.00940868
6.28896e-05
0.00014212
0.00926656
0.0101188
3.92436e-05
0.0102027
3.99576e-05
0.0104091
4.01084e-05
0.0104674
4.56478e-06
-7.00333e-05
0.0106796
0.0100743
-3.50242e-05
0.0102157
-0.000101429
0.0103747
-0.0001189
0.0105262
-0.000147015
-0.000184791
0.010641
0.0100938
-0.000128859
0.0102121
-0.000219648
0.0103285
-0.000235309
0.0104207
-0.000239252
-0.000245325
0.0104812
0.00987114
0.00965149
0.00941618
0.00917693
0.00893161
0.00926419
-9.02924e-05
9.2672e-05
0.00928419
-0.000251409
0.000231402
0.00938659
-0.000363188
0.000260792
0.00956912
-0.0004518
0.000269264
0.00980135
-0.000597062
0.00036484
0.0100526
-0.000828612
0.000577315
0.0103022
-0.00112671
0.000877106
0.0105232
-0.0014691
0.00124814
0.0107162
-0.00185726
0.00166424
0.0108359
-0.0022266
0.00210693
0.0108727
-0.0025594
0.00252258
0.0108503
-0.00279565
0.00281807
0.0107213
-0.00288293
0.00301188
0.0104748
-0.00284432
0.00309085
0.0101619
-0.00266316
0.00297602
0.0097993
-0.00239839
0.00276103
0.00939662
-0.00205872
0.0024614
0.00894493
-0.00158645
0.00203814
0.0084685
-0.00109673
0.00157316
0.0080148
-0.000677031
0.00113073
0.00757221
-0.00023967
0.000682257
0.0071202
0.000212513
0.000239499
0.00667827
0.000574455
-0.000132523
0.00629606
0.000746258
-0.000364049
0.00602685
0.000775984
-0.000506778
0.00589128
0.000777799
-0.000642223
0.0058733
0.000819623
-0.000801648
0.00593237
0.00087993
-0.000939001
0.00602064
0.000903737
-0.000992001
0.00610208
0.000859102
-0.000940542
0.00615953
0.000752151
-0.000809604
0.00619161
0.000609771
-0.000641852
0.00620503
0.000460746
-0.000474168
0.00620791
0.000325798
-0.000328675
0.00620634
0.000215624
-0.000214055
0.00620377
0.000132797
-0.000130226
0.0062016
7.4966e-05
-7.27903e-05
0.00620014
3.72205e-05
-3.57642e-05
0.0061993
1.4489e-05
-1.36508e-05
0.00619894
1.76032e-06
-1.39968e-06
0.00619861
-4.16732e-06
4.50004e-06
0.00619833
-6.63157e-06
6.9082e-06
0.00619807
-6.38227e-06
6.63891e-06
0.00619781
-6.10458e-06
6.37165e-06
-4.12291e-06
4.30174e-06
0.0107495
-0.000160217
0.0107887
-0.000290631
0.0108303
-0.000404745
0.0109173
-0.000538846
0.0110024
-0.000682164
0.0110494
-0.00087553
0.0110571
-0.0011344
0.0110006
-0.00141265
0.010887
-0.00174366
0.0106856
-0.00202518
0.0104238
-0.00229764
0.0101058
-0.00247763
0.00968228
-0.0024594
0.00916896
-0.002331
0.00862052
-0.00211471
0.00804305
-0.00182092
0.00744203
-0.00145771
0.00684512
-0.000989541
0.00627126
-0.000522878
0.00570243
-0.000108196
0.00515613
0.000306625
0.00467849
0.00069015
0.00435852
0.000894427
0.00421844
0.00088634
0.00422466
0.00076976
0.00433473
0.000667728
0.00452201
0.000632345
0.00476052
0.000641418
0.00501946
0.000644806
0.00526887
0.000609683
0.00548813
0.000532893
0.0056682
0.000429702
0.00580865
0.000320293
0.00591366
0.000220795
0.00598921
0.000140066
0.00604158
8.04268e-05
0.00607647
4.00776e-05
0.00609872
1.4973e-05
0.00611215
1.05463e-06
0.0061199
-5.98644e-06
0.00612399
-8.25796e-06
0.00612588
-8.51809e-06
0.00612659
-7.09018e-06
0.00612665
-6.16334e-06
-3.91248e-06
0.0107357
-0.000254904
0.0107854
-0.000340373
0.010809
-0.00042833
0.0108235
-0.000553331
0.0108037
-0.000662415
0.0107537
-0.000825524
0.0106288
-0.00100942
0.0104516
-0.00123547
0.0102099
-0.00150199
0.00991128
-0.00172654
0.00958461
-0.00197097
0.00907446
-0.00196748
0.00844163
-0.00182657
0.00780638
-0.00169575
0.0070783
-0.00138664
0.00626559
-0.00100821
0.00547746
-0.000669572
0.00479527
-0.000307349
0.00423365
3.87434e-05
0.0037636
0.000361851
0.0034333
0.000636928
0.00331087
0.000812576
0.00337475
0.000830545
0.00353799
0.000723105
0.00372789
0.00057986
0.0039228
0.000472811
0.00413548
0.000419668
0.00437645
0.000400445
0.00463749
0.000383773
0.00489752
0.000349654
0.00513531
0.0002951
0.00533663
0.000228378
0.00549569
0.000161234
0.00561365
0.000102836
0.00569594
5.77788e-05
0.00574986
2.65089e-05
0.00578282
7.11679e-06
0.00580138
-3.58866e-06
0.00581077
-8.34034e-06
0.00581446
-9.67671e-06
0.00581516
-8.9502e-06
0.00581428
-7.63629e-06
0.00581295
-5.76928e-06
0.00581142
-4.62549e-06
-2.78773e-06
0.0105162
-0.000289826
0.0104956
-0.000319843
0.0104435
-0.000376239
0.0103214
-0.000431199
0.0101518
-0.000492801
0.00991596
-0.000589693
0.00957323
-0.000666689
0.00916163
-0.000823873
0.00860008
-0.000940439
0.00798713
-0.00111359
0.00732116
-0.001305
0.00645742
-0.00110374
0.00533721
-0.000706359
0.0040305
-0.000389049
0.00282952
-0.000185661
0.00190902
-8.77031e-05
0.0013076
-6.81526e-05
0.00099857
1.67811e-06
0.000926846
0.000110467
0.00104919
0.000239508
0.00133476
0.000351357
0.00174188
0.000405458
0.00218165
0.000390772
0.00257752
0.000327238
0.00290111
0.00025627
0.0031697
0.000204221
0.00341434
0.000175029
0.00365565
0.000159137
0.0038949
0.000144521
0.00412013
0.000124418
0.00431673
9.85004e-05
0.00447522
6.98901e-05
0.00459285
4.35996e-05
0.00467302
2.26655e-05
0.00472278
8.02684e-06
0.00475021
-9.24225e-07
0.00476255
-5.22288e-06
0.00476582
-6.85621e-06
0.0047643
-6.82657e-06
0.00476065
-6.02018e-06
0.00475655
-4.85834e-06
0.00475268
-3.75946e-06
0.0047496
-2.68676e-06
0.00474699
-2.01575e-06
-1.15091e-06
0.00864178
0.00832194
0.0079457
0.0075145
0.0070217
0.00643201
0.00576532
0.00494145
0.00400101
0.00288742
0.00158242
0.000478672
-0.000227687
-0.000616736
-0.000802396
-0.000890099
-0.000958252
-0.000956574
-0.000846107
-0.000606599
-0.000255242
0.000150216
0.000540988
0.000868226
0.0011245
0.00132872
0.00150375
0.00166288
0.0018074
0.00193182
0.00203032
0.00210021
0.00214381
0.00216648
0.00217451
0.00217358
0.00216836
0.0021615
0.00215468
0.00214866
0.0021438
0.00214004
0.00213735
0.00213534
3.0759e-05
-3.0759e-05
-9.24064e-05
0.000123165
-0.000540198
0.000447791
-0.00132263
0.000782436
-0.00221931
0.000896672
-0.00301825
0.000798945
-0.00362665
0.0006084
-0.0040177
0.000391051
-0.00416834
0.000150638
-0.00408677
-8.15725e-05
-0.00379521
-0.000291561
-0.00331197
-0.000483235
-0.00266685
-0.000645123
-0.00191229
-0.000754563
-0.00110308
-0.000809207
-0.000273457
-0.000829622
0.000542663
-0.000816119
0.00130909
-0.000766432
0.00200568
-0.000696589
0.00260342
-0.000597735
0.00306974
-0.00046632
0.00337637
-0.000306632
0.00349909
-0.000122718
0.00343223
6.6854e-05
0.00320701
0.000225219
0.00289396
0.000313054
0.00258016
0.000313802
0.0023262
0.000253963
0.00215207
0.000174126
0.00205104
0.000101031
0.00200554
4.54996e-05
0.00199647
9.06564e-06
0.00200701
-1.05403e-05
0.00202607
-1.90589e-05
0.002047
-2.09227e-05
0.00206634
-1.934e-05
0.00208273
-1.63939e-05
0.00209592
-1.31937e-05
0.00210613
-1.02093e-05
0.00211382
-7.69091e-06
0.00211944
-5.62029e-06
0.00212352
-4.07644e-06
0.00212632
-2.79975e-06
0.00212836
-2.04456e-06
-1.1565e-06
-0.000315067
0.000284308
-0.000899051
0.00070715
-0.00149493
0.00104367
-0.00198466
0.00127216
-0.00237359
0.0012856
-0.00264716
0.00107251
-0.00277586
0.000737108
-0.0027508
0.000365985
-0.00256592
-3.42437e-05
-0.00223723
-0.000410261
-0.00174165
-0.000787134
-0.00110186
-0.00112303
-0.000341629
-0.00140535
0.000484387
-0.00158058
0.00133051
-0.00165533
0.00217233
-0.00167145
0.00297547
-0.00161926
0.00370064
-0.0014916
0.00433161
-0.00132755
0.00486913
-0.00113526
0.00529765
-0.00089484
0.00562062
-0.000629595
0.00587966
-0.000381759
0.00608674
-0.00014023
0.00618917
0.000122797
0.00613137
0.000370851
0.00591582
0.000529349
0.00561163
0.000558159
0.00530549
0.000480266
0.00505592
0.000350597
0.00488159
0.000219827
0.00477459
0.000116073
0.00471759
4.64595e-05
0.0046929
5.62839e-06
0.00468612
-1.41434e-05
0.00468875
-2.19713e-05
0.00469557
-2.32149e-05
0.00470369
-2.13117e-05
0.00471154
-1.80597e-05
0.00471848
-1.46358e-05
0.00472419
-1.13302e-05
0.00472882
-8.7028e-06
0.00473222
-6.20306e-06
0.00473497
-4.78582e-06
-2.83617e-06
-0.000459802
0.00074411
-0.000582677
0.000830024
-0.000531679
0.000992676
-0.000400654
0.00114114
-0.000224138
0.00110909
-1.29505e-05
0.000861322
0.000237054
0.000487104
0.000539113
6.39251e-05
0.000929339
-0.000424469
0.00143549
-0.000916414
0.00202424
-0.00137588
0.00267031
-0.0017691
0.00336368
-0.00209873
0.00407529
-0.00229218
0.00475319
-0.00233323
0.00538769
-0.00230595
0.00596631
-0.00219788
0.00644416
-0.00196945
0.0068023
-0.00168569
0.00706129
-0.00139425
0.00722801
-0.00106156
0.0072947
-0.00069628
0.00729084
-0.000377906
0.00728788
-0.000137264
0.00731427
9.64066e-05
0.00732049
0.000364633
0.00724121
0.000608628
0.00705829
0.000741075
0.00680638
0.000732178
0.00654137
0.000615603
0.00630759
0.000453608
0.00612544
0.000298227
0.00599586
0.000176039
0.0059095
9.19884e-05
0.00585562
3.97374e-05
0.00582369
9.9621e-06
0.00580624
-5.7732e-06
0.00579784
-1.29091e-05
0.00579466
-1.48786e-05
0.00579442
-1.43927e-05
0.00579557
-1.2482e-05
0.00579736
-1.04924e-05
0.00579909
-7.93478e-06
0.0058008
-6.49313e-06
-4.00798e-06
-0.000115742
0.000859852
0.000182455
0.000531827
0.000636316
0.000538816
0.00120082
0.000576633
0.00181082
0.000499087
0.00241079
0.00026135
0.00299813
-0.000100237
0.00358781
-0.000525752
0.0041663
-0.00100296
0.00476283
-0.00151295
0.00537602
-0.00198906
0.00596744
-0.00236052
0.00653073
-0.00266202
0.00707811
-0.00283956
0.00756094
-0.00281606
0.00795078
-0.00269578
0.00825287
-0.00249998
0.00845911
-0.00217569
0.00855986
-0.00178644
0.00856541
-0.00139981
0.00850203
-0.000998181
0.00838006
-0.000574306
0.00820298
-0.000200831
0.00800721
5.85097e-05
0.00784741
0.000256203
0.00774311
0.000468941
0.00765334
0.000698395
0.00752659
0.000867826
0.00734436
0.000914406
0.00712211
0.000837858
0.00689104
0.000684675
0.00667991
0.000509355
0.00650566
0.000350284
0.00637305
0.000224607
0.0062786
0.000134188
0.00621511
7.34437e-05
0.00617439
3.49461e-05
0.00614953
1.19546e-05
0.00613517
-5.12792e-07
0.00612741
-6.63471e-06
0.00612361
-8.6866e-06
0.00612207
-8.94616e-06
0.00612164
-7.50886e-06
0.0061218
-6.65583e-06
-4.32985e-06
0.000952524
0.00171575
0.00251536
0.00336126
0.00422519
0.00506385
0.00584072
0.00656311
0.00722439
0.00781837
0.0083519
0.00880944
0.0091593
0.00941059
0.00957055
0.0096358
0.00959723
0.00945968
0.00924641
0.00897732
0.0086614
0.00832659
0.00799324
0.0076877
0.00743713
0.00726384
0.00716059
0.00708942
0.00701182
0.00690914
0.00678421
0.00665171
0.00652783
0.00642376
0.00634389
0.00628711
0.00624927
0.00622546
0.00621129
0.00620326
0.00619907
0.00619703
0.00619616
0.00619588
)
;

boundaryField
{
    inlet
    {
        type            calculated;
        value           nonuniform List<scalar> 5(-0.01 -0.01 -0.01 -0.01 -0.01);
    }
    outlet
    {
        type            calculated;
        value           nonuniform List<scalar> 10(0.00619763 0.00612643 0.00581029 0.00474535 0.00213418 0.00212952 0.00473664 0.00580197 0.00612212 0.00619585);
    }
    upperWall
    {
        type            calculated;
        value           uniform 0;
    }
    lowerWall
    {
        type            calculated;
        value           uniform 0;
    }
    frontAndBack
    {
        type            empty;
        value           nonuniform List<scalar> 0();
    }
}


// ************************************************************************* //
