/*--------------------------------*- C++ -*----------------------------------*\
  =========                 |
  \\      /  F ield         | OpenFOAM: The Open Source CFD Toolbox
   \\    /   O peration     | Website:  https://openfoam.org
    \\  /    A nd           | Version:  10
     \\/     M anipulation  |
\*---------------------------------------------------------------------------*/
FoamFile
{
    format      ascii;
    class       volVectorField;
    location    "5";
    object      U;
}
// * * * * * * * * * * * * * * * * * * * * * * * * * * * * * * * * * * * * * //

dimensions      [0 1 -1 0 0 0 0];

internalField   nonuniform List<vector> 
475
(
(0.974377 0.0163074 0)
(0.974992 0.006173 0)
(0.951252 0.0314508 0)
(0.953566 0.00190927 0)
(0.92084 0.0293851 0)
(0.998342 0.00927784 0)
(1.01411 0.0141266 0)
(1.02561 0.0146102 0)
(1.04434 0.0100713 0)
(1.05606 0.00151453 0)
(0.999899 0.000827217 0)
(1.0103 -0.0038728 0)
(1.02358 -0.00479341 0)
(1.04172 -0.00862116 0)
(1.05659 -0.0141913 0)
(1.00043 -0.0100323 0)
(1.01013 -0.0196699 0)
(1.02283 -0.0217932 0)
(1.035 -0.0232607 0)
(1.04488 -0.0247973 0)
(0.981252 -0.00995937 0)
(0.968277 -0.0187762 0)
(0.954531 -0.0217935 0)
(0.932278 -0.0225179 0)
(0.90868 -0.022335 0)
(0.923464 -0.0146984 0)
(0.933785 -0.0334999 0)
(0.938997 -0.0445318 0)
(0.946219 -0.0502102 0)
(0.962273 -0.0611891 0)
(0.984608 -0.0812079 0)
(1.01369 -0.108285 0)
(1.04138 -0.141972 0)
(1.0645 -0.180266 0)
(1.08408 -0.218455 0)
(1.09289 -0.254205 0)
(1.09285 -0.280028 0)
(1.08365 -0.29449 0)
(1.0636 -0.298849 0)
(1.03675 -0.285168 0)
(0.997128 -0.260385 0)
(0.955227 -0.230225 0)
(0.916191 -0.187426 0)
(0.869432 -0.139155 0)
(0.823327 -0.0944924 0)
(0.782649 -0.0516079 0)
(0.737963 -0.00826512 0)
(0.689495 0.0287337 0)
(0.644544 0.0533974 0)
(0.611016 0.0672385 0)
(0.592051 0.0773515 0)
(0.586122 0.0884176 0)
(0.589339 0.0982608 0)
(0.597303 0.101859 0)
(0.606094 0.0967968 0)
(0.61318 0.0845185 0)
(0.61768 0.0684162 0)
(0.619917 0.0517751 0)
(0.62068 0.0368166 0)
(0.62071 0.024625 0)
(0.620488 0.0154268 0)
(0.62025 0.00894761 0)
(0.620075 0.00466623 0)
(0.61996 0.0020405 0)
(0.619905 0.000527978 0)
(0.619879 -0.000215103 0)
(0.619854 -0.000554979 0)
(0.61982 -0.000587717 0)
(0.6198 -0.000592639 0)
(0.619763 -0.000411544 0)
(1.06811 -0.00761262 0)
(1.08028 -0.0206631 0)
(1.08525 -0.0321567 0)
(1.08887 -0.0437243 0)
(1.09429 -0.0590995 0)
(1.09952 -0.0796047 0)
(1.10271 -0.108498 0)
(1.1043 -0.141118 0)
(1.09846 -0.179566 0)
(1.08394 -0.214967 0)
(1.06144 -0.246146 0)
(1.02873 -0.268325 0)
(0.990936 -0.273219 0)
(0.945146 -0.266172 0)
(0.891835 -0.247036 0)
(0.831934 -0.217411 0)
(0.770505 -0.178358 0)
(0.712893 -0.126181 0)
(0.655693 -0.0766651 0)
(0.599898 -0.0372456 0)
(0.54533 0.0062436 0)
(0.491177 0.0536699 0)
(0.447224 0.0856305 0)
(0.423004 0.0933584 0)
(0.417599 0.0863234 0)
(0.425089 0.0785781 0)
(0.441198 0.076627 0)
(0.463265 0.0784403 0)
(0.488648 0.0788389 0)
(0.514459 0.0745015 0)
(0.538197 0.0652688 0)
(0.558358 0.053004 0)
(0.57447 0.0400303 0)
(0.58674 0.0281656 0)
(0.595706 0.0184273 0)
(0.602005 0.0111067 0)
(0.606264 0.00602911 0)
(0.60903 0.00275863 0)
(0.610734 0.000838344 0)
(0.611728 -0.000178969 0)
(0.612271 -0.00061324 0)
(0.612548 -0.000765308 0)
(0.612646 -0.000687106 0)
(0.612687 -0.000629992 0)
(0.612644 -0.000414417 0)
(1.06885 -0.0220967 0)
(1.07758 -0.0335734 0)
(1.08259 -0.0437726 0)
(1.08353 -0.0584322 0)
(1.08206 -0.07172 0)
(1.07881 -0.0900678 0)
(1.06865 -0.113551 0)
(1.05901 -0.137553 0)
(1.03695 -0.169141 0)
(1.01044 -0.195221 0)
(0.976562 -0.220279 0)
(0.929401 -0.232517 0)
(0.881493 -0.222994 0)
(0.817159 -0.206073 0)
(0.741204 -0.186896 0)
(0.665176 -0.160198 0)
(0.586077 -0.124043 0)
(0.512409 -0.0773649 0)
(0.449914 -0.027513 0)
(0.399254 0.0167324 0)
(0.35852 0.0578228 0)
(0.333452 0.0887539 0)
(0.329702 0.0984546 0)
(0.342535 0.088605 0)
(0.361738 0.0713244 0)
(0.381585 0.0577244 0)
(0.402045 0.0516141 0)
(0.424807 0.0504962 0)
(0.450179 0.049946 0)
(0.476636 0.0469468 0)
(0.501924 0.0408503 0)
(0.524169 0.03267 0)
(0.542338 0.0239723 0)
(0.556209 0.0160715 0)
(0.56615 0.00971278 0)
(0.572839 0.00510085 0)
(0.577048 0.00208294 0)
(0.5795 0.000296597 0)
(0.5808 -0.00061679 0)
(0.581387 -0.000982067 0)
(0.581549 -0.00101182 0)
(0.581519 -0.000920196 0)
(0.581364 -0.000720351 0)
(0.581253 -0.000596555 0)
(0.58103 -0.000366895 0)
(1.05101 -0.0308879 0)
(1.05053 -0.0366064 0)
(1.04963 -0.0432768 0)
(1.0386 -0.0528244 0)
(1.02716 -0.0605397 0)
(1.00616 -0.0740347 0)
(0.978196 -0.0865561 0)
(0.944638 -0.104692 0)
(0.892673 -0.124778 0)
(0.840028 -0.14178 0)
(0.763019 -0.16549 0)
(0.678348 -0.168311 0)
(0.600563 -0.151625 0)
(0.483152 -0.124739 0)
(0.336007 -0.0753583 0)
(0.222515 -0.0277045 0)
(0.150246 -0.00200546 0)
(0.109339 0.0150752 0)
(0.0924132 0.0336229 0)
(0.0964125 0.0513256 0)
(0.11804 0.066024 0)
(0.152947 0.0726114 0)
(0.195514 0.0685604 0)
(0.237936 0.0572207 0)
(0.274214 0.0452254 0)
(0.303733 0.0365709 0)
(0.329187 0.0317092 0)
(0.353377 0.0290011 0)
(0.377481 0.0264512 0)
(0.400927 0.0228806 0)
(0.422267 0.018225 0)
(0.440182 0.0131527 0)
(0.454044 0.00845057 0)
(0.463893 0.00465689 0)
(0.470285 0.0019659 0)
(0.474029 0.00028417 0)
(0.475906 -0.000627721 0)
(0.476587 -0.00100939 0)
(0.476604 -0.00106753 0)
(0.4763 -0.000970048 0)
(0.47588 -0.000796007 0)
(0.475476 -0.000624218 0)
(0.475095 -0.000447792 0)
(0.474854 -0.000339733 0)
(0.474536 -0.000195572 0)
(0.879462 -0.0251966 0)
(0.848248 -0.0254009 0)
(0.814745 -0.0298666 0)
(0.772924 -0.0313426 0)
(0.731766 -0.0353758 0)
(0.673633 -0.0415499 0)
(0.617349 -0.0437923 0)
(0.541051 -0.0574557 0)
(0.452795 -0.0599937 0)
(0.358875 -0.0761203 0)
(0.217749 -0.0910088 0)
(0.0887602 -0.0449078 0)
(0.00280993 0.0162187 0)
(-0.0470076 0.0420555 0)
(-0.0724158 0.0326367 0)
(-0.0857883 0.00676575 0)
(-0.0949083 -0.0111898 0)
(-0.0984911 -0.0142338 0)
(-0.0926281 -0.007553 0)
(-0.0746601 0.00200998 0)
(-0.0442773 0.00956762 0)
(-0.00512916 0.0126581 0)
(0.0355791 0.0121613 0)
(0.0714055 0.00951459 0)
(0.10026 0.00678973 0)
(0.12302 0.00493894 0)
(0.141877 0.0039607 0)
(0.158577 0.00342733 0)
(0.173794 0.00289952 0)
(0.187288 0.00218529 0)
(0.198456 0.00135524 0)
(0.206852 0.000603153 0)
(0.212472 4.09959e-05 0)
(0.215714 -0.000305897 0)
(0.217181 -0.000470342 0)
(0.217484 -0.000515293 0)
(0.217138 -0.000497068 0)
(0.21651 -0.000432817 0)
(0.215812 -0.000350916 0)
(0.215162 -0.000270255 0)
(0.214616 -0.00019765 0)
(0.214185 -0.000139182 0)
(0.213859 -9.25479e-05 0)
(0.213638 -6.23404e-05 0)
(0.213419 -3.27773e-05 0)
(0.00376885 -0.0349289 0)
(0.00199881 -0.0298136 0)
(-0.0196909 -0.000828668 0)
(-0.0851485 0.0367691 0)
(-0.180841 0.052847 0)
(-0.270457 0.0498275 0)
(-0.342431 0.0403043 0)
(-0.390962 0.029405 0)
(-0.41493 0.017573 0)
(-0.416012 0.00575652 0)
(-0.395862 -0.00665949 0)
(-0.355722 -0.0181891 0)
(-0.298578 -0.0278875 0)
(-0.228043 -0.0345507 0)
(-0.150005 -0.037484 0)
(-0.0682034 -0.0386758 0)
(0.0139318 -0.0378487 0)
(0.092883 -0.0345106 0)
(0.166148 -0.0291702 0)
(0.231253 -0.0225171 0)
(0.285429 -0.0138316 0)
(0.325649 -0.00195407 0)
(0.348312 0.0122001 0)
(0.350702 0.0238636 0)
(0.333984 0.0271088 0)
(0.304865 0.021551 0)
(0.272428 0.0128112 0)
(0.2439 0.00559599 0)
(0.222741 0.00119398 0)
(0.209326 -0.00100552 0)
(0.202297 -0.0018986 0)
(0.199788 -0.0021127 0)
(0.19999 -0.00202418 0)
(0.201561 -0.00177921 0)
(0.203613 -0.0014485 0)
(0.205657 -0.00112145 0)
(0.207459 -0.000841278 0)
(0.208946 -0.000615744 0)
(0.210117 -0.000439877 0)
(0.211012 -0.000307763 0)
(0.211675 -0.000210531 0)
(0.212158 -0.000141636 0)
(0.212504 -9.13271e-05 0)
(0.21273 -6.04964e-05 0)
(0.212951 -3.17349e-05 0)
(-0.0092386 0.030726 0)
(-0.0554394 0.057689 0)
(-0.120814 0.095052 0)
(-0.175231 0.120171 0)
(-0.225098 0.121754 0)
(-0.258091 0.103811 0)
(-0.279136 0.0755735 0)
(-0.282794 0.0440092 0)
(-0.270146 0.00942777 0)
(-0.242924 -0.0247547 0)
(-0.200508 -0.0569647 0)
(-0.142615 -0.0851503 0)
(-0.0724924 -0.108142 0)
(0.00715906 -0.122788 0)
(0.0921937 -0.129921 0)
(0.176471 -0.131785 0)
(0.257655 -0.128787 0)
(0.333646 -0.121025 0)
(0.40155 -0.109744 0)
(0.460219 -0.0948719 0)
(0.509175 -0.0765582 0)
(0.546852 -0.0567472 0)
(0.575281 -0.0351911 0)
(0.598961 -0.00924201 0)
(0.616125 0.0192287 0)
(0.619833 0.0415318 0)
(0.605914 0.0501361 0)
(0.578096 0.045437 0)
(0.545693 0.0336687 0)
(0.51694 0.0209843 0)
(0.495569 0.0107156 0)
(0.48171 0.00378055 0)
(0.473764 -0.000246471 0)
(0.469934 -0.00218969 0)
(0.468572 -0.00285649 0)
(0.468519 -0.00283449 0)
(0.469083 -0.0024976 0)
(0.469889 -0.00206383 0)
(0.470724 -0.00162871 0)
(0.471485 -0.00124661 0)
(0.472135 -0.000922084 0)
(0.472647 -0.000677064 0)
(0.473076 -0.000467213 0)
(0.473336 -0.000345921 0)
(0.473664 -0.00019745 0)
(-0.0309966 0.0187997 0)
(-0.0576514 0.074794 0)
(-0.0559975 0.104903 0)
(-0.0485123 0.126341 0)
(-0.0344414 0.126629 0)
(-0.0131971 0.101909 0)
(0.0101134 0.0639536 0)
(0.0350586 0.0233173 0)
(0.0709242 -0.0180913 0)
(0.117281 -0.0621372 0)
(0.173618 -0.10563 0)
(0.236375 -0.1446 0)
(0.305686 -0.177673 0)
(0.375836 -0.19779 0)
(0.444507 -0.205484 0)
(0.509054 -0.20619 0)
(0.567821 -0.197548 0)
(0.620335 -0.178906 0)
(0.662439 -0.157301 0)
(0.692855 -0.134425 0)
(0.714798 -0.105027 0)
(0.727561 -0.0714581 0)
(0.729643 -0.0428687 0)
(0.727364 -0.0197638 0)
(0.728881 0.00548238 0)
(0.732904 0.0341332 0)
(0.730934 0.0578642 0)
(0.717693 0.0681059 0)
(0.694712 0.063554 0)
(0.667516 0.0495979 0)
(0.641668 0.0332578 0)
(0.620505 0.0192703 0)
(0.604932 0.00935413 0)
(0.594344 0.00324273 0)
(0.587557 -9.9657e-05 0)
(0.583468 -0.00168593 0)
(0.58116 -0.00224845 0)
(0.57998 -0.00227257 0)
(0.579484 -0.00203855 0)
(0.579367 -0.00172381 0)
(0.579455 -0.0013773 0)
(0.579611 -0.00108841 0)
(0.579826 -0.000791266 0)
(0.579963 -0.000623946 0)
(0.580196 -0.000374967 0)
(-0.0249853 0.145401 0)
(0.000985736 0.10222 0)
(0.037884 0.10342 0)
(0.0889557 0.110624 0)
(0.146914 0.10419 0)
(0.207646 0.0789783 0)
(0.268559 0.0403439 0)
(0.325249 -0.00806175 0)
(0.386071 -0.0612799 0)
(0.449284 -0.1156 0)
(0.511185 -0.164799 0)
(0.572406 -0.206156 0)
(0.631362 -0.24182 0)
(0.685715 -0.262645 0)
(0.735561 -0.264357 0)
(0.777967 -0.258815 0)
(0.810105 -0.245345 0)
(0.834446 -0.218025 0)
(0.851227 -0.182765 0)
(0.856296 -0.147319 0)
(0.852738 -0.110881 0)
(0.845147 -0.0717967 0)
(0.830596 -0.0359831 0)
(0.809809 -0.00936656 0)
(0.790458 0.0122639 0)
(0.778114 0.0364998 0)
(0.770437 0.0620154 0)
(0.760753 0.0800114 0)
(0.745068 0.0841121 0)
(0.723953 0.0752352 0)
(0.70042 0.0590725 0)
(0.677736 0.041637 0)
(0.65822 0.026746 0)
(0.642888 0.0157291 0)
(0.631685 0.00837021 0)
(0.623981 0.00381235 0)
(0.618964 0.00117919 0)
(0.61585 -0.000228274 0)
(0.614008 -0.000878344 0)
(0.612982 -0.00111263 0)
(0.612464 -0.00109172 0)
(0.612226 -0.000993867 0)
(0.612163 -0.000787588 0)
(0.612145 -0.000670595 0)
(0.612212 -0.000425941 0)
(0.0820376 0.00361282 0)
(0.12158 -0.00654202 0)
(0.213134 -0.00341761 0)
(0.291729 -0.000994612 0)
(0.373659 -0.00922479 0)
(0.459599 -0.0307319 0)
(0.543695 -0.0631858 0)
(0.618968 -0.103186 0)
(0.689749 -0.146389 0)
(0.757674 -0.194232 0)
(0.815446 -0.240055 0)
(0.865491 -0.272165 0)
(0.906265 -0.29642 0)
(0.934923 -0.310922 0)
(0.952991 -0.304584 0)
(0.960353 -0.287714 0)
(0.960715 -0.263962 0)
(0.952071 -0.226366 0)
(0.934721 -0.182957 0)
(0.91261 -0.139493 0)
(0.883336 -0.0920935 0)
(0.849186 -0.0439507 0)
(0.815454 -0.00500963 0)
(0.782499 0.0199909 0)
(0.753516 0.0363926 0)
(0.732805 0.0536404 0)
(0.720393 0.0738157 0)
(0.712646 0.0906315 0)
(0.705465 0.0972771 0)
(0.696323 0.0920454 0)
(0.684663 0.0781694 0)
(0.671479 0.0606716 0)
(0.65842 0.0436673 0)
(0.646913 0.0294055 0)
(0.637732 0.0185627 0)
(0.630996 0.0109012 0)
(0.626394 0.00581432 0)
(0.623438 0.00262418 0)
(0.621644 0.000771967 0)
(0.620603 -0.000228453 0)
(0.620039 -0.000647446 0)
(0.619758 -0.000794526 0)
(0.619638 -0.000715182 0)
(0.619587 -0.000663155 0)
(0.619585 -0.000441868 0)
)
;

boundaryField
{
    inlet
    {
        type            fixedValue;
        value           uniform (1 0 0);
    }
    outlet
    {
        type            zeroGradient;
    }
    upperWall
    {
        type            noSlip;
    }
    lowerWall
    {
        type            noSlip;
    }
    frontAndBack
    {
        type            empty;
    }
}


// ************************************************************************* //
