/*--------------------------------*- C++ -*----------------------------------*\
  =========                 |
  \\      /  F ield         | OpenFOAM: The Open Source CFD Toolbox
   \\    /   O peration     | Website:  https://openfoam.org
    \\  /    A nd           | Version:  10
     \\/     M anipulation  |
\*---------------------------------------------------------------------------*/
FoamFile
{
    format      ascii;
    class       volVectorField;
    location    "8.525";
    object      U;
}
// * * * * * * * * * * * * * * * * * * * * * * * * * * * * * * * * * * * * * //

dimensions      [0 1 -1 0 0 0 0];

internalField   nonuniform List<vector> 
475
(
(0.974337 0.0161361 0)
(0.975767 0.00635736 0)
(0.950291 0.0315103 0)
(0.954408 0.00116673 0)
(0.920074 0.0302399 0)
(0.998377 0.00870465 0)
(1.01426 0.0147979 0)
(1.02515 0.0152038 0)
(1.04401 0.00862952 0)
(1.05548 0.00209945 0)
(0.999708 0.000266546 0)
(1.01 -0.00295759 0)
(1.02394 -0.00470444 0)
(1.04158 -0.00937475 0)
(1.05603 -0.0143966 0)
(0.999829 -0.010034 0)
(1.01034 -0.0195446 0)
(1.0225 -0.0220349 0)
(1.03574 -0.0231183 0)
(1.04409 -0.02562 0)
(0.980927 -0.00963401 0)
(0.969 -0.0192006 0)
(0.953812 -0.021753 0)
(0.933241 -0.0224073 0)
(0.907667 -0.0227897 0)
(0.924981 -0.0161696 0)
(0.93229 -0.0360073 0)
(0.937615 -0.0487657 0)
(0.943866 -0.0581678 0)
(0.95299 -0.0667428 0)
(0.965957 -0.0770223 0)
(0.98244 -0.0897497 0)
(1.00158 -0.10607 0)
(1.02136 -0.125276 0)
(1.04103 -0.147211 0)
(1.05831 -0.170423 0)
(1.07207 -0.193085 0)
(1.08039 -0.213692 0)
(1.08286 -0.229523 0)
(1.0782 -0.239507 0)
(1.06649 -0.242009 0)
(1.04768 -0.238113 0)
(1.02187 -0.229255 0)
(0.991804 -0.215846 0)
(0.961401 -0.19783 0)
(0.932378 -0.175813 0)
(0.904923 -0.149987 0)
(0.87954 -0.121709 0)
(0.856388 -0.0922534 0)
(0.836411 -0.0629103 0)
(0.82094 -0.0349571 0)
(0.809479 -0.00863542 0)
(0.80273 0.0150618 0)
(0.798981 0.0355693 0)
(0.799174 0.0529266 0)
(0.799936 0.0665891 0)
(0.80373 0.0770989 0)
(0.804524 0.0828065 0)
(0.808948 0.0859045 0)
(0.807214 0.0838292 0)
(0.810947 0.0812882 0)
(0.805228 0.0734648 0)
(0.807522 0.0674049 0)
(0.797918 0.0574678 0)
(0.798006 0.051051 0)
(0.784799 0.0436171 0)
(0.782999 0.0370653 0)
(0.767421 0.0326926 0)
(0.765781 0.0265401 0)
(0.747112 0.0260639 0)
(1.06881 -0.00856312 0)
(1.07767 -0.0211035 0)
(1.08281 -0.0330073 0)
(1.08407 -0.0439687 0)
(1.08496 -0.0550872 0)
(1.08534 -0.0676241 0)
(1.08611 -0.0825351 0)
(1.08595 -0.100439 0)
(1.08421 -0.120978 0)
(1.08013 -0.143297 0)
(1.07186 -0.16626 0)
(1.05967 -0.187509 0)
(1.04123 -0.204954 0)
(1.01772 -0.215321 0)
(0.987191 -0.217351 0)
(0.95097 -0.211403 0)
(0.90786 -0.203219 0)
(0.857954 -0.192263 0)
(0.805926 -0.175765 0)
(0.755699 -0.155009 0)
(0.708453 -0.13214 0)
(0.666276 -0.108763 0)
(0.629339 -0.085846 0)
(0.597308 -0.0634666 0)
(0.571195 -0.041912 0)
(0.552614 -0.021219 0)
(0.540171 -0.00137492 0)
(0.534436 0.017022 0)
(0.535259 0.0333284 0)
(0.541586 0.0474091 0)
(0.550677 0.058838 0)
(0.563175 0.0679406 0)
(0.575212 0.0733912 0)
(0.589876 0.0767299 0)
(0.600696 0.0754192 0)
(0.613795 0.0736408 0)
(0.620229 0.0671447 0)
(0.628969 0.0638777 0)
(0.630754 0.0563053 0)
(0.634401 0.0537421 0)
(0.634036 0.0465879 0)
(0.634389 0.042679 0)
(0.633831 0.0377617 0)
(0.632898 0.0336991 0)
(0.630381 0.0340367 0)
(1.06894 -0.0222765 0)
(1.07623 -0.0326951 0)
(1.08109 -0.0439433 0)
(1.08081 -0.0548999 0)
(1.07902 -0.0656182 0)
(1.07395 -0.0768394 0)
(1.06736 -0.0897787 0)
(1.05809 -0.104185 0)
(1.04535 -0.1212 0)
(1.02977 -0.138794 0)
(1.00816 -0.157976 0)
(0.983724 -0.17396 0)
(0.951847 -0.186743 0)
(0.915778 -0.18849 0)
(0.869745 -0.177634 0)
(0.814588 -0.159964 0)
(0.746479 -0.149711 0)
(0.674023 -0.142876 0)
(0.603595 -0.132333 0)
(0.530055 -0.113134 0)
(0.459709 -0.0884089 0)
(0.399436 -0.063307 0)
(0.350793 -0.0420668 0)
(0.312352 -0.025495 0)
(0.28378 -0.0119747 0)
(0.265251 -0.00010121 0)
(0.255163 0.0115098 0)
(0.252997 0.0227465 0)
(0.257362 0.0326398 0)
(0.267216 0.041359 0)
(0.281242 0.0488673 0)
(0.298835 0.0550515 0)
(0.318023 0.0591043 0)
(0.339132 0.0614934 0)
(0.359157 0.0612874 0)
(0.379976 0.0604463 0)
(0.397879 0.0570668 0)
(0.415675 0.0550033 0)
(0.431737 0.049425 0)
(0.445261 0.0471104 0)
(0.462049 0.0400338 0)
(0.469721 0.0379739 0)
(0.488241 0.0323117 0)
(0.489713 0.030787 0)
(0.509175 0.0296231 0)
(1.05079 -0.0300723 0)
(1.05078 -0.0360793 0)
(1.04898 -0.042545 0)
(1.03977 -0.0492808 0)
(1.02874 -0.0556999 0)
(1.01037 -0.0629605 0)
(0.989627 -0.0707215 0)
(0.961614 -0.0802486 0)
(0.928375 -0.0908821 0)
(0.888341 -0.103006 0)
(0.838399 -0.115865 0)
(0.784691 -0.126869 0)
(0.71617 -0.136274 0)
(0.649154 -0.132848 0)
(0.574786 -0.11372 0)
(0.484415 -0.0889469 0)
(0.358676 -0.0610299 0)
(0.234528 -0.0275473 0)
(0.142406 -0.00472219 0)
(0.0790127 -0.00204544 0)
(0.042336 -0.00629718 0)
(0.0225597 -0.00738692 0)
(0.0113143 -0.0055139 0)
(0.0053207 -0.00241622 0)
(0.00319806 0.00117753 0)
(0.00485461 0.00519515 0)
(0.0102927 0.00961369 0)
(0.019943 0.0139302 0)
(0.0334839 0.0182668 0)
(0.0505745 0.0225716 0)
(0.0708495 0.0265689 0)
(0.0939013 0.0300242 0)
(0.118943 0.0324818 0)
(0.145556 0.0339556 0)
(0.172532 0.0342276 0)
(0.199869 0.0337408 0)
(0.225969 0.0319244 0)
(0.251443 0.0300021 0)
(0.275248 0.0269068 0)
(0.296765 0.0245626 0)
(0.318743 0.0208236 0)
(0.333572 0.0190256 0)
(0.356114 0.0153863 0)
(0.362123 0.0148385 0)
(0.388587 0.0131079 0)
(0.880025 -0.0243546 0)
(0.848589 -0.0260683 0)
(0.815574 -0.0282823 0)
(0.776551 -0.0304222 0)
(0.735637 -0.0325093 0)
(0.686617 -0.0353547 0)
(0.636082 -0.0377518 0)
(0.57543 -0.0426268 0)
(0.512254 -0.0456976 0)
(0.436928 -0.0535544 0)
(0.354363 -0.0560265 0)
(0.26379 -0.0660778 0)
(0.148684 -0.065918 0)
(0.0533287 -0.0232636 0)
(-0.00885837 0.0263381 0)
(-0.0338636 0.0586371 0)
(-0.0359557 0.0687607 0)
(-0.0242246 0.0477552 0)
(-0.0136796 0.0118938 0)
(-0.0156779 -0.0168145 0)
(-0.0312836 -0.0267186 0)
(-0.0506723 -0.0251772 0)
(-0.0665467 -0.019561 0)
(-0.0777505 -0.0140396 0)
(-0.0844728 -0.00962436 0)
(-0.0869879 -0.00607994 0)
(-0.085764 -0.00308057 0)
(-0.0811615 -0.00049948 0)
(-0.0733001 0.00165297 0)
(-0.0623191 0.00347369 0)
(-0.0484324 0.00499825 0)
(-0.0319987 0.00621879 0)
(-0.0136046 0.00704903 0)
(0.00631004 0.00748132 0)
(0.0268757 0.00757015 0)
(0.0473458 0.00732711 0)
(0.0670412 0.00665857 0)
(0.0857052 0.00589244 0)
(0.102629 0.00491615 0)
(0.117855 0.00402918 0)
(0.131157 0.00314786 0)
(0.142234 0.00239576 0)
(0.152817 0.00188662 0)
(0.159126 0.00177603 0)
(0.171876 0.00164821 0)
(0.00286012 -0.024522 0)
(0.00331989 -0.0244033 0)
(-0.00478124 -0.0157883 0)
(-0.0231535 0.00136714 0)
(-0.0585199 0.0176891 0)
(-0.10382 0.0257836 0)
(-0.150948 0.027901 0)
(-0.195836 0.0271515 0)
(-0.234673 0.0242711 0)
(-0.264329 0.0199209 0)
(-0.282445 0.0144255 0)
(-0.287973 0.00813242 0)
(-0.281258 0.000770891 0)
(-0.262465 -0.00636935 0)
(-0.232133 -0.012949 0)
(-0.191813 -0.018319 0)
(-0.144313 -0.0215126 0)
(-0.0920943 -0.0235096 0)
(-0.0373295 -0.0238584 0)
(0.0176976 -0.0230653 0)
(0.0708291 -0.0213001 0)
(0.119682 -0.0184612 0)
(0.162367 -0.0147558 0)
(0.197295 -0.010543 0)
(0.223571 -0.00615722 0)
(0.240905 -0.00176292 0)
(0.248855 0.00226125 0)
(0.248715 0.00575554 0)
(0.241485 0.00829588 0)
(0.228802 0.00955421 0)
(0.212387 0.0100383 0)
(0.19401 0.0102851 0)
(0.175041 0.0101452 0)
(0.156652 0.00898986 0)
(0.139754 0.00670687 0)
(0.125732 0.00377448 0)
(0.115312 0.00089337 0)
(0.109073 -0.00141824 0)
(0.106072 -0.00293614 0)
(0.105906 -0.00376408 0)
(0.107362 -0.0041327 0)
(0.110267 -0.0039918 0)
(0.114258 -0.00329227 0)
(0.117497 -0.00267287 0)
(0.123563 -0.00152488 0)
(-0.00127129 0.0198863 0)
(-0.0199248 0.0339603 0)
(-0.0617831 0.0451288 0)
(-0.0977842 0.0562567 0)
(-0.132511 0.0644954 0)
(-0.159917 0.0659821 0)
(-0.181133 0.0620233 0)
(-0.195623 0.0537515 0)
(-0.202912 0.0421779 0)
(-0.201096 0.0268727 0)
(-0.189501 0.0100278 0)
(-0.167956 -0.00833742 0)
(-0.136732 -0.0272227 0)
(-0.0956138 -0.0451426 0)
(-0.0460043 -0.0611601 0)
(0.0108953 -0.0736331 0)
(0.0735504 -0.0821445 0)
(0.138263 -0.0865866 0)
(0.203329 -0.0873172 0)
(0.266394 -0.0847948 0)
(0.326077 -0.0793369 0)
(0.380947 -0.0710561 0)
(0.42939 -0.0603596 0)
(0.470151 -0.0478756 0)
(0.502432 -0.0346457 0)
(0.526384 -0.0212901 0)
(0.541174 -0.00836323 0)
(0.548147 0.00315542 0)
(0.547862 0.013148 0)
(0.540532 0.0210279 0)
(0.526792 0.0262034 0)
(0.509155 0.0282885 0)
(0.489336 0.0282191 0)
(0.469315 0.0269457 0)
(0.44975 0.0245203 0)
(0.432153 0.0203649 0)
(0.415994 0.0152447 0)
(0.403007 0.00988689 0)
(0.392357 0.00567578 0)
(0.38447 0.00191546 0)
(0.379271 -0.000481133 0)
(0.376076 -0.00300933 0)
(0.375014 -0.00428453 0)
(0.374712 -0.00524656 0)
(0.373679 -0.00533476 0)
(-0.0346896 -0.0097444 0)
(-0.0669682 0.0311641 0)
(-0.0752894 0.0510425 0)
(-0.0771536 0.0638324 0)
(-0.0706989 0.0695929 0)
(-0.0578123 0.0676138 0)
(-0.0407324 0.0596311 0)
(-0.0185639 0.0465319 0)
(0.00662089 0.0290346 0)
(0.0375166 0.00763509 0)
(0.0749904 -0.0168328 0)
(0.119515 -0.0437082 0)
(0.169954 -0.071133 0)
(0.224643 -0.0965306 0)
(0.283678 -0.11907 0)
(0.344199 -0.13598 0)
(0.40503 -0.14709 0)
(0.464639 -0.152336 0)
(0.521585 -0.152106 0)
(0.574681 -0.146892 0)
(0.623236 -0.136792 0)
(0.666443 -0.12236 0)
(0.703422 -0.104343 0)
(0.733583 -0.0838398 0)
(0.756526 -0.0621905 0)
(0.772729 -0.0404499 0)
(0.781938 -0.01931 0)
(0.785159 -0.00042804 0)
(0.782664 0.0158211 0)
(0.774807 0.029225 0)
(0.761799 0.03935 0)
(0.745766 0.0453171 0)
(0.727039 0.0479605 0)
(0.708253 0.0476924 0)
(0.688827 0.0451855 0)
(0.671012 0.0390936 0)
(0.652215 0.0313041 0)
(0.636654 0.022807 0)
(0.619907 0.0157359 0)
(0.609184 0.00973058 0)
(0.595988 0.00366117 0)
(0.591846 0.000257351 0)
(0.581461 -0.00321385 0)
(0.582816 -0.00231601 0)
(0.575016 -0.000125629 0)
(-0.0295086 0.141218 0)
(-0.0245636 0.0888859 0)
(-0.0116435 0.0721599 0)
(0.0164913 0.0628138 0)
(0.053425 0.0544828 0)
(0.0972753 0.0447348 0)
(0.146124 0.0311475 0)
(0.197808 0.0135292 0)
(0.251107 -0.00965634 0)
(0.307729 -0.0375166 0)
(0.366233 -0.067877 0)
(0.426324 -0.0989239 0)
(0.486847 -0.129447 0)
(0.546765 -0.157003 0)
(0.605037 -0.179723 0)
(0.660153 -0.196113 0)
(0.710778 -0.205337 0)
(0.756239 -0.207825 0)
(0.796383 -0.204166 0)
(0.831278 -0.194366 0)
(0.861249 -0.178486 0)
(0.886255 -0.157576 0)
(0.90613 -0.1327 0)
(0.921054 -0.105305 0)
(0.931081 -0.0769788 0)
(0.93702 -0.048943 0)
(0.938734 -0.0222089 0)
(0.937222 0.00219426 0)
(0.931993 0.02318 0)
(0.923982 0.0400898 0)
(0.912296 0.0533258 0)
(0.899439 0.0620313 0)
(0.883161 0.066554 0)
(0.867783 0.0669943 0)
(0.849353 0.0641876 0)
(0.834721 0.0586554 0)
(0.814846 0.0504001 0)
(0.801674 0.0419355 0)
(0.781418 0.0321992 0)
(0.772291 0.0254373 0)
(0.752756 0.0174113 0)
(0.746023 0.0112537 0)
(0.727073 0.00600625 0)
(0.723163 0.000767045 0)
(0.70817 0.00322568 0)
(0.0823143 0.00442448 0)
(0.119298 -0.00462886 0)
(0.203118 -0.00773153 0)
(0.268427 -0.0134572 0)
(0.330891 -0.0217285 0)
(0.394255 -0.0329379 0)
(0.457802 -0.0472211 0)
(0.521529 -0.0654123 0)
(0.584021 -0.0869317 0)
(0.646135 -0.112398 0)
(0.706059 -0.139997 0)
(0.762804 -0.167651 0)
(0.814993 -0.194089 0)
(0.861284 -0.216589 0)
(0.900562 -0.233373 0)
(0.932286 -0.243256 0)
(0.955946 -0.245726 0)
(0.971882 -0.241948 0)
(0.981492 -0.232813 0)
(0.986566 -0.218148 0)
(0.988253 -0.197757 0)
(0.987104 -0.172416 0)
(0.983627 -0.143181 0)
(0.978534 -0.11193 0)
(0.97242 -0.0803438 0)
(0.966614 -0.0496638 0)
(0.960381 -0.020928 0)
(0.954639 0.0053246 0)
(0.948188 0.0281329 0)
(0.94264 0.0468829 0)
(0.935212 0.0614907 0)
(0.929098 0.0718217 0)
(0.919094 0.0774985 0)
(0.912122 0.0796187 0)
(0.899515 0.0771343 0)
(0.892902 0.072793 0)
(0.87724 0.0645032 0)
(0.870381 0.0571565 0)
(0.85162 0.0472627 0)
(0.845083 0.0399276 0)
(0.824896 0.0319079 0)
(0.818943 0.025055 0)
(0.798166 0.0205668 0)
(0.793995 0.0150158 0)
(0.772322 0.0150489 0)
)
;

boundaryField
{
    inlet
    {
        type            fixedValue;
        value           uniform (1 0 0);
    }
    outlet
    {
        type            zeroGradient;
    }
    upperWall
    {
        type            noSlip;
    }
    lowerWall
    {
        type            noSlip;
    }
    frontAndBack
    {
        type            empty;
    }
}


// ************************************************************************* //
