/*--------------------------------*- C++ -*----------------------------------*\
  =========                 |
  \\      /  F ield         | OpenFOAM: The Open Source CFD Toolbox
   \\    /   O peration     | Website:  https://openfoam.org
    \\  /    A nd           | Version:  10
     \\/     M anipulation  |
\*---------------------------------------------------------------------------*/
FoamFile
{
    format      ascii;
    class       surfaceScalarField;
    location    "3.725";
    object      phi;
}
// * * * * * * * * * * * * * * * * * * * * * * * * * * * * * * * * * * * * * //

dimensions      [0 3 -1 0 0 0 0];

internalField   nonuniform List<scalar> 
22800
(
-2.69427e-06
2.96011e-06
-2.65839e-07
-8.31263e-06
5.4851e-06
1.33267e-07
-1.45207e-05
5.94507e-06
2.62977e-07
-2.0693e-05
5.84761e-06
3.24673e-07
-2.65913e-05
5.57528e-06
3.23084e-07
-3.20655e-05
5.19236e-06
2.81769e-07
-3.69745e-05
4.69621e-06
2.12859e-07
-4.11683e-05
4.07424e-06
1.19495e-07
-4.44811e-05
3.31413e-06
-1.29054e-09
-4.67548e-05
2.40374e-06
-1.30001e-07
-4.78081e-05
1.3442e-06
-2.90953e-07
-4.74746e-05
1.38861e-07
-4.72315e-07
-4.56115e-05
-1.19916e-06
-6.63992e-07
-4.21245e-05
-2.62577e-06
-8.61256e-07
-3.69907e-05
-4.08286e-06
-1.05085e-06
-3.02917e-05
-5.48677e-06
-1.21229e-06
-2.22623e-05
-6.71932e-06
-1.31006e-06
-1.3399e-05
-7.57278e-06
-1.29057e-06
-4.80058e-06
-7.47729e-06
-1.12109e-06
-4.39917e-06
-4.01406e-07
-5.22506e-06
9.08562e-06
-9.00458e-07
-1.44326e-05
1.52199e-05
-5.27283e-07
-2.43829e-05
1.62708e-05
-3.75429e-07
-3.41809e-05
1.59038e-05
-2.58188e-07
-4.34564e-05
1.5048e-05
-1.9716e-07
-5.1963e-05
1.38696e-05
-1.70593e-07
-5.94772e-05
1.23774e-05
-1.67067e-07
-6.57742e-05
1.05556e-05
-1.84347e-07
-7.06235e-05
8.38692e-06
-2.23447e-07
-7.37904e-05
5.85825e-06
-2.87619e-07
-7.50366e-05
2.96801e-06
-3.77615e-07
-7.4179e-05
-2.25075e-07
-4.93665e-07
-7.1001e-05
-3.75289e-06
-6.24265e-07
-6.54023e-05
-7.45649e-06
-7.68024e-07
-5.73747e-05
-1.11992e-05
-9.1118e-07
-4.70551e-05
-1.4776e-05
-1.03044e-06
-3.47929e-05
-1.78983e-05
-1.08324e-06
-2.13002e-05
-2.00557e-05
-1.00972e-06
-8.1104e-06
-1.98806e-05
-7.86527e-07
-1.25163e-05
6.68745e-09
-5.93936e-06
1.62013e-05
-1.1763e-06
-1.62517e-05
2.63535e-05
-8.21201e-07
-2.73396e-05
2.80176e-05
-6.58943e-07
-3.82307e-05
2.73128e-05
-5.17819e-07
-4.85306e-05
2.57784e-05
-4.30571e-07
-5.79763e-05
2.36907e-05
-3.75378e-07
-6.63295e-05
2.10715e-05
-3.40887e-07
-7.335e-05
1.79028e-05
-3.26779e-07
-7.87908e-05
1.41634e-05
-3.3569e-07
-8.24007e-05
9.8391e-06
-3.70929e-07
-8.39341e-05
4.93515e-06
-4.33757e-07
-8.31193e-05
-5.13424e-07
-5.26414e-07
-7.97483e-05
-6.4803e-06
-6.43595e-07
-7.3672e-05
-1.27529e-05
-7.79872e-07
-6.48436e-05
-1.91064e-05
-9.21191e-07
-5.33746e-05
-2.52035e-05
-1.04147e-06
-3.96221e-05
-3.05587e-05
-1.09207e-06
-2.43659e-05
-3.43073e-05
-1.00458e-06
-9.33712e-06
-3.41533e-05
-7.56137e-07
-2.19743e-05
1.20904e-07
-6.24522e-06
2.38534e-05
-1.40685e-06
-1.71512e-05
3.83311e-05
-1.07165e-06
-2.88742e-05
4.06442e-05
-9.03552e-07
-4.04031e-05
3.95874e-05
-7.4575e-07
-5.13382e-05
3.73532e-05
-6.39806e-07
-6.14169e-05
3.43338e-05
-5.64388e-07
-7.04006e-05
3.05641e-05
-5.08865e-07
-7.80457e-05
2.60218e-05
-4.73998e-07
-8.40955e-05
2.06768e-05
-4.63509e-07
-8.8279e-05
1.45043e-05
-4.81706e-07
-9.0313e-05
7.50179e-06
-5.32655e-07
-8.99227e-05
-2.8088e-07
-6.22832e-07
-8.67812e-05
-8.88305e-06
-7.38717e-07
-8.06707e-05
-1.79818e-05
-8.81645e-07
-7.14587e-05
-2.72828e-05
-1.03559e-06
-5.91883e-05
-3.63018e-05
-1.17222e-06
-4.41896e-05
-4.43225e-05
-1.23481e-06
-2.73059e-05
-5.00498e-05
-1.14125e-06
-1.04975e-05
-5.00968e-05
-8.64772e-07
-3.25914e-05
1.19561e-07
-6.55602e-06
3.20333e-05
-1.62395e-06
-1.81053e-05
5.11817e-05
-1.30124e-06
-3.05373e-05
5.42039e-05
-1.12777e-06
-4.27933e-05
5.28002e-05
-9.5681e-07
-5.44692e-05
4.98673e-05
-8.38071e-07
-6.53079e-05
4.59228e-05
-7.50276e-07
-7.50756e-05
4.10151e-05
-6.83315e-07
-8.35295e-05
3.51147e-05
-6.38953e-07
-9.04061e-05
2.81754e-05
-6.22099e-07
-9.54136e-05
2.01503e-05
-6.38445e-07
-9.82277e-05
1.10096e-05
-6.93653e-07
-9.85131e-05
7.98556e-07
-7.94094e-07
-9.58527e-05
-1.06112e-05
-9.3212e-07
-8.98991e-05
-2.28293e-05
-1.10617e-06
-8.03732e-05
-3.5509e-05
-1.29978e-06
-6.71785e-05
-4.80172e-05
-1.47935e-06
-5.05726e-05
-5.93524e-05
-1.57601e-06
-3.14724e-05
-6.76633e-05
-1.4867e-06
-1.21756e-05
-6.82212e-05
-1.17243e-06
-4.47477e-05
-1.92517e-08
-6.95517e-06
4.08555e-05
-1.86695e-06
-1.93175e-05
6.50967e-05
-1.55272e-06
-3.26464e-05
6.89061e-05
-1.37336e-06
-4.58201e-05
6.71633e-05
-1.18938e-06
-5.84302e-05
6.35367e-05
-1.05926e-06
-7.0229e-05
5.86834e-05
-9.61744e-07
-8.09941e-05
5.26676e-05
-8.87368e-07
-9.049e-05
4.54497e-05
-8.3907e-07
-9.8452e-05
3.69605e-05
-8.23111e-07
-0.000104572
2.71171e-05
-8.4673e-07
-0.000108487
1.58416e-05
-9.16917e-07
-0.000109764
3.11407e-06
-1.03827e-06
-0.000107909
-1.12398e-05
-1.22734e-06
-0.000102359
-2.69176e-05
-1.46091e-06
-9.26209e-05
-4.35192e-05
-1.72812e-06
-7.83613e-05
-6.02873e-05
-1.98943e-06
-5.96705e-05
-7.58863e-05
-2.15688e-06
-3.75138e-05
-8.77256e-05
-2.09431e-06
-1.46638e-05
-8.93355e-05
-1.73575e-06
-5.91265e-05
-2.84999e-07
-7.45524e-06
5.04769e-05
-2.16625e-06
-2.08239e-05
8.03275e-05
-1.8621e-06
-3.52543e-05
8.50121e-05
-1.6755e-06
-4.95455e-05
8.29295e-05
-1.47511e-06
-6.3286e-05
7.86076e-05
-1.33039e-06
-7.62445e-05
7.28625e-05
-1.22059e-06
-8.82194e-05
6.57799e-05
-1.13749e-06
-9.89945e-05
5.73105e-05
-1.08575e-06
-0.000108316
4.73561e-05
-1.07359e-06
-0.000115871
3.57829e-05
-1.11081e-06
-0.000121261
2.24385e-05
-1.20727e-06
-0.000123973
7.19693e-06
-1.37101e-06
-0.000123384
-1.01949e-05
-1.63391e-06
-0.000118673
-2.96654e-05
-1.9634e-06
-0.00010902
-5.08167e-05
-2.35527e-06
-9.37038e-05
-7.28408e-05
-2.76263e-06
-7.24675e-05
-9.40537e-05
-3.06905e-06
-4.62166e-05
-0.000110893
-3.08362e-06
-1.83728e-05
-0.000114496
-2.6829e-06
-7.66947e-05
-8.04676e-07
-8.06047e-06
6.10845e-05
-2.54712e-06
-2.26397e-05
9.71661e-05
-2.25935e-06
-3.83781e-05
0.000102813
-2.06261e-06
-5.3978e-05
0.000100368
-1.83843e-06
-6.90289e-05
9.53294e-05
-1.67099e-06
-8.33259e-05
8.87007e-05
-1.54117e-06
-9.67019e-05
8.05991e-05
-1.4431e-06
-0.000108978
7.09707e-05
-1.38403e-06
-0.000119934
5.96869e-05
-1.37513e-06
-0.000129273
4.65523e-05
-1.43013e-06
-0.000136584
3.13129e-05
-1.56373e-06
-0.000141289
1.36933e-05
-1.7915e-06
-0.000142644
-6.67584e-06
-2.16419e-06
-0.000139489
-3.01779e-05
-2.64185e-06
-0.00013056
-5.6507e-05
-3.23863e-06
-0.000114513
-8.49859e-05
-3.90201e-06
-9.04271e-05
-0.000113663
-4.47649e-06
-5.88484e-05
-0.000137792
-4.68006e-06
-2.40345e-05
-0.000145042
-4.26792e-06
-9.89435e-05
-1.78569e-06
-8.78378e-06
7.2908e-05
-3.03967e-06
-2.47955e-05
0.000115957
-2.77945e-06
-4.20498e-05
0.000122634
-2.56677e-06
-5.9135e-05
0.000119759
-2.3054e-06
-7.56481e-05
0.000113943
-2.10009e-06
-9.14251e-05
0.000106413
-1.93536e-06
-0.000106352
9.73357e-05
-1.80937e-06
-0.000120312
8.66637e-05
-1.73331e-06
-0.000133148
7.42453e-05
-1.7225e-06
-0.000144622
5.98227e-05
-1.79637e-06
-0.000154353
4.30224e-05
-1.97858e-06
-0.000161717
2.33612e-05
-2.30357e-06
-0.000165973
4.14476e-07
-2.83469e-06
-0.000165482
-2.71451e-05
-3.52368e-06
-0.000158456
-5.90831e-05
-4.45004e-06
-0.000142599
-9.52876e-05
-5.55563e-06
-0.000115795
-0.000133827
-6.63974e-06
-7.7569e-05
-0.000168737
-7.2806e-06
-3.30705e-05
-0.000182578
-6.96307e-06
-0.000128298
-3.7157e-06
-9.65849e-06
8.62533e-05
-3.68686e-06
-2.73585e-05
0.000137128
-3.47076e-06
-4.63426e-05
0.000144849
-3.23069e-06
-6.50685e-05
0.000141393
-2.90849e-06
-8.31537e-05
0.000134666
-2.6387e-06
-0.000100495
0.000126167
-2.4129e-06
-0.000117054
0.000116131
-2.23589e-06
-0.000132805
0.000104539
-2.12427e-06
-0.000147695
9.12346e-05
-2.09877e-06
-0.000161604
7.59172e-05
-2.18607e-06
-0.000174265
5.81052e-05
-2.42128e-06
-0.000185159
3.71063e-05
-2.85161e-06
-0.000193286
1.20553e-05
-3.51324e-06
-0.000197179
-1.86517e-05
-4.60056e-06
-0.000194066
-5.614e-05
-6.05637e-06
-0.000180382
-0.000101062
-7.90978e-06
-0.000152
-0.000152266
-9.94346e-06
-0.000106188
-0.000202992
-1.15564e-05
-4.83978e-05
-0.000228717
-1.16512e-05
-0.000168893
-7.80274e-06
-1.07589e-05
0.000101568
-4.55564e-06
-3.04659e-05
0.000161241
-4.40554e-06
-5.14055e-05
0.000169904
-4.11549e-06
-7.18967e-05
0.000165575
-3.69076e-06
-9.16032e-05
0.000157684
-3.31061e-06
-0.000110508
0.000148051
-2.97944e-06
-0.000128677
0.000137012
-2.7123e-06
-0.000146204
0.000124598
-2.53289e-06
-0.000163186
0.000110684
-2.46807e-06
-0.000179684
9.49685e-05
-2.5528e-06
-0.000195651
7.69082e-05
-2.83663e-06
-0.000210786
5.56287e-05
-3.38725e-06
-0.000224276
2.98243e-05
-4.27869e-06
-0.00023473
-2.33331e-06
-5.86486e-06
-0.000238639
-4.41475e-05
-8.08255e-06
-0.000230897
-9.76708e-05
-1.11333e-05
-0.000204231
-0.000164063
-1.48693e-05
-0.000151549
-0.000237148
-1.85258e-05
-7.63496e-05
-0.000283885
-2.00304e-05
-0.000228593
-1.66499e-05
-1.22408e-05
0.000119566
-5.75703e-06
-3.43821e-05
0.000189078
-5.69652e-06
-5.75185e-05
0.000198353
-5.31235e-06
-7.98516e-05
0.000192619
-4.71083e-06
-0.000101142
0.000183115
-4.14139e-06
-0.000121496
0.000172037
-3.63087e-06
-0.000141109
0.000159835
-3.20974e-06
-0.00016022
0.000146619
-2.91e-06
-0.000179112
0.00013234
-2.76413e-06
-0.0001981
0.000116771
-2.81488e-06
-0.000217488
9.94253e-05
-3.12887e-06
-0.000237443
7.93961e-05
-3.81191e-06
-0.000257695
5.51165e-05
-5.04059e-06
-0.000277049
2.40316e-05
-7.01067e-06
-0.000292542
-1.83678e-05
-1.0287e-05
-0.000297363
-7.77352e-05
-1.51142e-05
-0.000280035
-0.000159702
-2.16893e-05
-0.000225882
-0.000262024
-2.92771e-05
-0.000130911
-0.000343982
-3.48754e-05
-0.000322712
-3.67912e-05
-1.44358e-05
0.00014149
-7.48816e-06
-3.96047e-05
0.000221779
-7.53213e-06
-6.51799e-05
0.00023089
-6.96241e-06
-8.9347e-05
0.000222833
-6.0474e-06
-0.000112058
0.000210978
-5.15255e-06
-0.000133597
0.000197916
-4.34043e-06
-0.000154307
0.000184209
-3.6629e-06
-0.00017458
0.000170051
-3.16022e-06
-0.000194888
0.000155515
-2.86644e-06
-0.000215833
0.000140541
-2.82514e-06
-0.000238169
0.000124872
-3.11037e-06
-0.000262767
0.000107846
-3.85227e-06
-0.000290447
8.80729e-05
-5.27615e-06
-0.000321369
6.26944e-05
-7.74136e-06
-0.000354106
2.65058e-05
-1.21361e-05
-0.000381976
-3.08483e-05
-1.9017e-05
-0.000389295
-0.0001231
-2.92832e-05
-0.000348773
-0.000259732
-4.28134e-05
-0.000235691
-0.000399516
-5.75482e-05
-0.00047971
-7.8694e-05
-1.80724e-05
0.000169678
-1.01161e-05
-4.71153e-05
0.000261085
-1.02623e-05
-7.52689e-05
0.000268409
-9.36533e-06
-0.000101074
0.000256524
-7.88605e-06
-0.000124854
0.000241154
-6.39521e-06
-0.000147127
0.000225234
-5.04558e-06
-0.000168383
0.000209396
-3.93137e-06
-0.000189135
0.000193899
-3.09505e-06
-0.000210016
0.000178952
-2.55606e-06
-0.000231879
0.000164746
-2.34138e-06
-0.000255974
0.000151483
-2.51672e-06
-0.0002841
0.000139198
-3.22636e-06
-0.000318697
0.000127389
-4.72001e-06
-0.000362516
0.000113891
-7.37759e-06
-0.000417382
9.29734e-05
-1.1601e-05
-0.00048099
5.11172e-05
-1.83575e-05
-0.000538586
-3.54899e-05
-3.00139e-05
-0.000541342
-0.000210088
-4.68876e-05
-0.000421739
-0.000450302
-6.88173e-05
-0.000771158
-0.000130291
-2.39061e-05
0.000207929
-1.43453e-05
-5.80256e-05
0.000309229
-1.40249e-05
-8.89518e-05
0.000311685
-1.23496e-05
-0.00011625
0.000293589
-9.76656e-06
-0.000140559
0.000272847
-7.38387e-06
-0.00016277
0.000252747
-5.30049e-06
-0.00018367
0.000233889
-3.59304e-06
-0.000203876
0.000216392
-2.2874e-06
-0.000224015
0.000200474
-1.3828e-06
-0.000244939
0.000186543
-8.72988e-07
-0.0002681
0.000175386
-7.41456e-07
-0.000296025
0.000168116
-9.92801e-07
-0.000333234
0.000166228
-1.63025e-06
-0.000386697
0.000169958
-2.60461e-06
-0.000466242
0.000176028
-3.51031e-06
-0.000579392
0.000167374
-3.10584e-06
-0.000720734
0.00010604
-1.88382e-07
-0.000802594
-0.000135353
7.12432e-06
-0.000682431
-0.000584881
1.44166e-05
-0.00133849
-0.000115094
-4.3163e-05
0.000272767
-2.16742e-05
-8.02533e-05
0.000369049
-2.27293e-05
-0.000110511
0.00036119
-1.92481e-05
-0.000135534
0.000333316
-1.47044e-05
-0.000158177
0.00030552
-1.00296e-05
-0.000179291
0.000279843
-5.98235e-06
-0.000199283
0.000256633
-2.7518e-06
-0.000218287
0.000235751
-3.55467e-07
-0.00023657
0.000217548
1.20876e-06
-0.000254699
0.000202537
2.13464e-06
-0.000274154
0.000192274
2.56784e-06
-0.000297527
0.000188708
2.78142e-06
-0.000330658
0.000195913
3.44648e-06
-0.000383974
0.000217107
6.16673e-06
-0.000477798
0.000254447
1.54051e-05
-0.000632665
0.000280587
4.16532e-05
-0.00086699
0.000242136
9.82299e-05
-0.00104324
-0.000146609
0.000187511
-0.000914249
-0.000962225
0.000248348
-0.00221155
-4.11979e-05
-3.82264e-05
0.000346816
-3.58225e-05
-9.43285e-05
0.000454111
-2.89605e-05
-0.000133911
0.000423769
-2.29966e-05
-0.00016425
0.000377322
-1.36672e-05
-0.000186368
0.000334113
-6.47385e-06
-0.000203393
0.000297741
-8.73453e-07
-0.000217559
0.000267362
3.43733e-06
-0.000229842
0.000241621
6.41356e-06
-0.000240811
0.000220213
8.30328e-06
-0.000250269
0.000202651
9.34318e-06
-0.000258704
0.000190758
9.9513e-06
-0.000266961
0.000186096
1.08688e-05
-0.000280135
0.000195013
1.40732e-05
-0.000308912
0.000221355
2.45299e-05
-0.000387618
0.00027843
5.4723e-05
-0.00055186
0.000317745
0.000127084
-0.000864859
0.000282607
0.000272529
-0.00113212
-0.000311419
0.000432075
-0.000983947
-0.00154879
0.000438385
-0.0030738
-0.000121697
-0.000176354
0.000573802
-5.06332e-05
-0.000190884
0.000522917
-5.42748e-05
-0.000189064
0.00046488
-4.29302e-05
-0.000188798
0.000404391
-2.73362e-05
-0.000183537
0.000340459
-1.16073e-05
-0.000177584
0.000291345
4.43385e-07
-0.000172545
0.000253224
9.09875e-06
-0.000167779
0.000222149
1.47057e-05
-0.000163183
0.000197633
1.79848e-05
-0.000156979
0.000177194
1.92527e-05
-0.000149271
0.000163581
1.94704e-05
-0.000137812
0.000155187
1.94498e-05
-0.000125217
0.000159658
2.27598e-05
-0.000114549
0.000175104
3.55834e-05
-0.000129412
0.000216209
7.70842e-05
-0.000212431
0.000232944
0.00016782
-0.000422841
0.000145841
0.000347176
-0.00072526
-0.000527111
0.000518111
-0.000729274
-0.00193584
0.000391064
-0.00341412
-0.000388949
-0.000374556
0.00108881
-0.000140455
-0.000274915
0.000505454
-8.2179e-05
-0.000139832
0.000377578
-4.77803e-05
4.62206e-07
0.000278001
-1.39043e-05
0.000125431
0.000206908
8.58231e-06
0.000232329
0.000160138
2.43092e-05
0.000319997
0.000130541
3.50143e-05
0.000391811
0.000109332
4.10034e-05
0.000450401
9.51725e-05
4.38701e-05
0.000500499
8.37454e-05
4.33509e-05
0.000546625
7.69146e-05
4.05403e-05
0.000593019
7.26556e-05
3.61367e-05
0.000649502
7.09163e-05
3.22592e-05
0.000721076
7.38167e-05
2.9713e-05
0.000816834
6.80612e-05
5.23902e-05
0.000910438
4.83734e-05
9.09663e-05
0.000931618
-6.90845e-05
0.000193745
0.000587102
-0.000549141
0.000366545
8.19117e-05
-0.00157793
0.00014729
-0.00269905
-0.000633161
0.00123142
-0.000142608
0.00188099
-0.000144115
0.0023925
-0.000133932
0.00278246
-0.000111956
0.00307649
-8.71212e-05
0.00330175
-6.5127e-05
0.00347561
-4.3318e-05
0.00361134
-2.6398e-05
0.00371596
-9.44226e-06
0.00379826
1.43746e-06
0.00386434
1.08363e-05
0.00391998
1.70164e-05
0.00397493
1.59715e-05
0.00402574
2.29979e-05
0.00407848
1.53281e-05
0.00409368
3.31688e-05
0.00399266
3.19364e-05
0.0034266
1.69179e-05
0.00189446
-4.57903e-05
-0.000804592
-4.76419e-06
4.93826e-06
-4.39907e-07
-1.4049e-05
9.57649e-06
-1.58448e-07
-2.41736e-05
1.04142e-05
-2.65869e-08
-3.40519e-05
1.01525e-05
5.0482e-08
-4.33392e-05
9.54146e-06
6.89292e-08
-5.18225e-05
8.71793e-06
4.71382e-08
-5.92962e-05
7.69031e-06
-3.68876e-09
-6.55355e-05
6.45048e-06
-9.17421e-08
-7.03199e-05
4.988e-06
-2.04871e-07
-7.34073e-05
3.30152e-06
-3.44054e-07
-7.45802e-05
1.39063e-06
-5.08729e-07
-7.36296e-05
-7.27926e-07
-6.95024e-07
-7.03835e-05
-3.01483e-06
-8.95208e-07
-6.47388e-05
-5.40389e-06
-1.1021e-06
-5.669e-05
-7.80035e-06
-1.29925e-06
-4.63643e-05
-1.00749e-05
-1.46308e-06
-3.40772e-05
-1.20393e-05
-1.55784e-06
-2.05036e-05
-1.33273e-05
-1.53695e-06
-7.39626e-06
-1.2855e-05
-1.37339e-06
-7.0747e-06
-7.22965e-07
-9.68004e-06
1.47475e-05
-1.02968e-06
-2.56795e-05
2.58719e-05
-8.23221e-07
-4.27509e-05
2.77732e-05
-6.63123e-07
-5.92847e-05
2.69504e-05
-5.22327e-07
-7.46967e-05
2.51955e-05
-4.3916e-07
-8.86024e-05
2.28507e-05
-3.9773e-07
-0.00010065
1.99589e-05
-3.88129e-07
-0.000110494
1.6519e-05
-4.08424e-07
-0.000117798
1.25284e-05
-4.59878e-07
-0.000122234
7.9932e-06
-5.43922e-07
-0.00012349
2.93081e-06
-6.61547e-07
-0.000121319
-2.58081e-06
-8.11701e-07
-0.000115492
-8.48273e-06
-9.8311e-07
-0.000105912
-1.45851e-05
-1.16742e-06
-9.26188e-05
-2.06583e-05
-1.34607e-06
-7.58484e-05
-2.63851e-05
-1.4907e-06
-5.61057e-05
-3.13081e-05
-1.55716e-06
-3.44132e-05
-3.45373e-05
-1.49222e-06
-1.32739e-05
-3.35096e-05
-1.27126e-06
-1.98527e-05
-4.89203e-07
-1.11956e-05
2.60939e-05
-1.32706e-06
-2.93904e-05
4.44111e-05
-1.16564e-06
-4.86982e-05
4.74164e-05
-9.94372e-07
-6.73461e-05
4.59065e-05
-8.25937e-07
-8.47005e-05
4.28315e-05
-7.12223e-07
-0.000100342
3.87553e-05
-6.38245e-07
-0.000113888
3.37592e-05
-5.95031e-07
-0.000124967
2.78532e-05
-5.82327e-07
-0.000133214
2.10425e-05
-6.02809e-07
-0.000138276
1.33441e-05
-6.5944e-07
-0.00013983
4.80386e-06
-7.53756e-07
-0.000137532
-4.51924e-06
-8.85999e-07
-0.000131147
-1.44624e-05
-1.04844e-06
-0.00012053
-2.47509e-05
-1.23153e-06
-0.000105677
-3.50166e-05
-1.41549e-06
-8.68013e-05
-4.47338e-05
-1.56835e-06
-6.44274e-05
-5.31348e-05
-1.63928e-06
-3.9684e-05
-5.87192e-05
-1.56615e-06
-1.54124e-05
-5.72139e-05
-1.32339e-06
-3.46766e-05
-4.67621e-07
-1.1908e-05
3.81974e-05
-1.60232e-06
-3.13001e-05
6.42193e-05
-1.48774e-06
-5.18585e-05
6.83807e-05
-1.30939e-06
-7.17238e-05
6.61456e-05
-1.11964e-06
-9.02482e-05
6.1698e-05
-9.81865e-07
-0.000107009
5.58336e-05
-8.82239e-07
-0.000121618
4.86729e-05
-8.12968e-07
-0.000133697
4.02339e-05
-7.75435e-07
-0.000142868
3.05231e-05
-7.73916e-07
-0.000148749
1.95569e-05
-8.13126e-07
-0.000150969
7.3879e-06
-8.97007e-07
-0.000149152
-5.92946e-06
-1.02944e-06
-0.000142934
-2.02194e-05
-1.1997e-06
-0.000132064
-3.51021e-05
-1.40063e-06
-0.000116429
-5.00763e-05
-1.61087e-06
-9.61479e-05
-6.43922e-05
-1.79463e-06
-7.17099e-05
-7.69161e-05
-1.89157e-06
-4.43376e-05
-8.54076e-05
-1.8251e-06
-1.72496e-05
-8.36035e-05
-1.56322e-06
-5.12109e-05
-5.95722e-07
-1.26429e-05
5.10994e-05
-1.88294e-06
-3.33198e-05
8.54094e-05
-1.81448e-06
-5.5251e-05
9.08127e-05
-1.62865e-06
-7.64765e-05
8.78331e-05
-1.41881e-06
-9.63366e-05
8.19805e-05
-1.26047e-06
-0.000114412
7.42992e-05
-1.14072e-06
-0.000130319
6.49498e-05
-1.05296e-06
-0.000143678
5.39543e-05
-1.00026e-06
-0.000154099
4.13103e-05
-9.8882e-07
-0.00016117
2.70155e-05
-1.02558e-06
-0.000164459
1.10996e-05
-1.11698e-06
-0.000163506
-6.40706e-06
-1.26861e-06
-0.000157813
-2.53721e-05
-1.47247e-06
-0.000146953
-4.53465e-05
-1.72249e-06
-0.00013061
-6.57235e-05
-1.99514e-06
-0.000108717
-8.55173e-05
-2.24766e-06
-8.16613e-05
-0.000103142
-2.40508e-06
-5.07754e-05
-0.000115413
-2.3674e-06
-1.98292e-05
-0.000113638
-2.08466e-06
-7.01319e-05
-9.27404e-07
-1.3584e-05
6.50231e-05
-2.20673e-06
-3.58839e-05
0.000108345
-2.18832e-06
-5.95494e-05
0.000115098
-1.99324e-06
-8.24904e-05
0.000111346
-1.76077e-06
-0.000104034
0.000104045
-1.58036e-06
-0.00012377
9.45139e-05
-1.4403e-06
-0.000141329
8.29568e-05
-1.33558e-06
-0.000156339
6.93968e-05
-1.27142e-06
-0.000168406
5.38108e-05
-1.25641e-06
-0.000177093
3.61563e-05
-1.30031e-06
-0.000181903
1.64055e-05
-1.41292e-06
-0.000182279
-5.46554e-06
-1.60355e-06
-0.000177529
-2.94788e-05
-1.87137e-06
-0.000166978
-5.515e-05
-2.2085e-06
-0.000150001
-8.18366e-05
-2.59136e-06
-0.000126204
-0.000108335
-2.96851e-06
-9.5745e-05
-0.000132516
-3.24257e-06
-6.00321e-05
-0.000149944
-3.27551e-06
-2.36262e-05
-0.000148801
-2.97866e-06
-9.25174e-05
-1.52576e-06
-1.47721e-05
8.02372e-05
-2.60819e-06
-3.90947e-05
0.000133456
-2.65087e-06
-6.49049e-05
0.000141676
-2.44304e-06
-8.995e-05
0.000137096
-2.18059e-06
-0.000113545
0.00012828
-1.97052e-06
-0.0001353
0.000116851
-1.8032e-06
-0.000154872
0.000103068
-1.67618e-06
-0.000171919
8.6955e-05
-1.59771e-06
-0.000186059
6.84575e-05
-1.5798e-06
-0.000196846
4.74685e-05
-1.63628e-06
-0.000203725
2.38591e-05
-1.78188e-06
-0.000206045
-2.48457e-06
-2.03219e-06
-0.000202869
-3.18892e-05
-2.39874e-06
-0.000193193
-6.39171e-05
-2.87312e-06
-0.000175925
-9.80233e-05
-3.43598e-06
-0.000150123
-0.000132873
-4.02682e-06
-0.00011546
-0.000165732
-4.51624e-06
-7.32789e-05
-0.000190505
-4.7042e-06
-2.92253e-05
-0.000191113
-4.42368e-06
-0.000120008
-2.53885e-06
-1.62318e-05
9.70433e-05
-3.1214e-06
-4.30134e-05
0.000161222
-3.2435e-06
-7.13988e-05
0.000171015
-3.01631e-06
-9.89378e-05
0.000165507
-2.7102e-06
-0.000124938
0.000155065
-2.4553e-06
-0.000149047
0.000141664
-2.24579e-06
-0.000170972
0.000125634
-2.08333e-06
-0.000190426
0.000107005
-1.98058e-06
-0.000207077
8.56879e-05
-1.95426e-06
-0.000220502
6.14867e-05
-2.02406e-06
-0.000230115
3.41213e-05
-2.21228e-06
-0.000235196
3.34698e-06
-2.54205e-06
-0.000234547
-3.16508e-05
-3.05218e-06
-0.000226736
-7.06384e-05
-3.73123e-06
-0.000210014
-0.000113407
-4.57741e-06
-0.000182546
-0.000158717
-5.52552e-06
-0.00014306
-0.000203289
-6.40548e-06
-9.24267e-05
-0.0002389
-6.91835e-06
-3.77075e-05
-0.000243363
-6.73752e-06
-0.00015525
-4.25216e-06
-1.80032e-05
0.000115796
-3.78925e-06
-4.7729e-05
0.000192186
-4.01725e-06
-7.91414e-05
0.000203619
-3.75873e-06
-0.000109556
0.000197002
-3.3856e-06
-0.000138285
0.000184754
-3.05962e-06
-0.000165035
0.000169261
-2.78158e-06
-0.000189599
0.000150948
-2.55973e-06
-0.000211786
0.000129871
-2.41285e-06
-0.000231363
0.000105907
-2.3639e-06
-0.000247993
7.87609e-05
-2.44026e-06
-0.000261145
4.79673e-05
-2.67245e-06
-0.000269961
1.29515e-05
-3.09279e-06
-0.00027323
-2.74114e-05
-3.80513e-06
-0.000268906
-7.37075e-05
-4.77864e-06
-0.000254382
-0.000126324
-6.05697e-06
-0.000226461
-0.000184606
-7.58839e-06
-0.000182125
-0.000245101
-9.16352e-06
-0.000120849
-0.000297114
-1.0342e-05
-5.12602e-05
-0.000309447
-1.04678e-05
-0.000202993
-7.23198e-06
-2.01609e-05
0.000136943
-4.67278e-06
-5.33927e-05
0.000226989
-5.04267e-06
-8.83137e-05
0.000240041
-4.73123e-06
-0.000121969
0.000232
-4.25201e-06
-0.000153695
0.000217653
-3.8112e-06
-0.000183294
0.000199868
-3.42097e-06
-0.000210688
0.000179205
-3.09971e-06
-0.000235834
0.000155768
-2.87447e-06
-0.00025867
0.00012942
-2.77604e-06
-0.00027903
9.97766e-05
-2.84182e-06
-0.000296534
6.61695e-05
-3.11958e-06
-0.000310395
2.76397e-05
-3.67825e-06
-0.000319387
-1.73435e-05
-4.58964e-06
-0.000321026
-7.0707e-05
-5.96135e-06
-0.000311655
-0.000133881
-7.87005e-06
-0.000286133
-0.000207716
-1.03216e-05
-0.000238447
-0.000289627
-1.31029e-05
-0.000164861
-0.00036665
-1.56069e-05
-7.4685e-05
-0.000394725
-1.65497e-05
-0.000272822
-1.26589e-05
-2.28413e-05
0.000161093
-5.86484e-06
-6.02641e-05
0.00026643
-6.42311e-06
-9.92151e-05
0.000280896
-6.01977e-06
-0.000136442
0.000270906
-5.36906e-06
-0.000171349
0.00025399
-4.74155e-06
-0.000203883
0.000233591
-4.16856e-06
-0.000234145
0.000210439
-3.68368e-06
-0.000262311
0.000184724
-3.3245e-06
-0.000288564
0.000156335
-3.13007e-06
-0.000313029
0.000124836
-3.14752e-06
-0.000335639
8.93841e-05
-3.44085e-06
-0.000355905
4.86239e-05
-4.10599e-06
-0.000373003
7.73602e-07
-5.29697e-06
-0.000384117
-5.8325e-05
-7.13361e-06
-0.000384796
-0.000131395
-9.88964e-06
-0.000367498
-0.000222436
-1.37114e-05
-0.000321549
-0.000331941
-1.85045e-05
-0.000236954
-0.000446226
-2.35449e-05
-0.000119487
-0.000505663
-2.65591e-05
-0.000385901
-2.30575e-05
-2.62947e-05
0.000189144
-7.51307e-06
-6.87861e-05
0.00031154
-8.31524e-06
-0.000112336
0.000326884
-7.74974e-06
-0.000153407
0.000314083
-6.81739e-06
-0.000191548
0.000293876
-5.88543e-06
-0.000226922
0.000270351
-5.01702e-06
-0.000259877
0.000244453
-4.2683e-06
-0.000290866
0.000216493
-3.68935e-06
-0.000320408
0.00018644
-3.32613e-06
-0.000349049
0.000153893
-3.23161e-06
-0.000377279
0.000117966
-3.48047e-06
-0.000405347
7.70641e-05
-4.18423e-06
-0.000432732
2.86073e-05
-5.4892e-06
-0.000458034
-3.21518e-05
-7.8814e-06
-0.00047639
-0.000111667
-1.1659e-05
-0.000478254
-0.000218372
-1.73138e-05
-0.000446918
-0.000359772
-2.51939e-05
-0.000361422
-0.00052625
-3.47493e-05
-0.000212626
-0.000646485
-4.28501e-05
-0.00059135
-4.39686e-05
-3.09947e-05
0.00022251
-9.8598e-06
-7.97089e-05
0.000363687
-1.09655e-05
-0.00012846
0.000378779
-1.01072e-05
-0.000173534
0.000361814
-8.70444e-06
-0.000214768
0.000337233
-7.27568e-06
-0.000252644
0.000309821
-5.93425e-06
-0.000287824
0.000280739
-4.76823e-06
-0.000321091
0.00025044
-3.8416e-06
-0.000353351
0.000219036
-3.20237e-06
-0.00038567
0.000186284
-2.89605e-06
-0.000419295
0.000151472
-2.99257e-06
-0.000455574
0.00011311
-3.61868e-06
-0.000495674
6.84446e-05
-5.01373e-06
-0.000540533
1.25871e-05
-7.62199e-06
-0.000586954
-6.51707e-05
-1.22111e-05
-0.000626283
-0.000178455
-1.96056e-05
-0.000636352
-0.000347849
-3.11364e-05
-0.000576176
-0.000582118
-4.71211e-05
-0.000397653
-0.000817195
-6.53611e-05
-0.000984966
-8.27305e-05
-3.79745e-05
0.000263695
-1.33258e-05
-9.44982e-05
0.00042475
-1.48011e-05
-0.000148886
0.00043724
-1.34389e-05
-0.000197804
0.000414089
-1.12432e-05
-0.000241691
0.0003837
-8.97505e-06
-0.000281436
0.000351375
-6.85438e-06
-0.00031804
0.000318435
-5.02428e-06
-0.000352624
0.00028549
-3.56035e-06
-0.000386499
0.000252852
-2.49743e-06
-0.000421292
0.000220582
-1.8468e-06
-0.000459174
0.000188478
-1.64072e-06
-0.000503075
0.000155762
-1.97738e-06
-0.000556803
0.000120502
-3.04958e-06
-0.00062434
7.79418e-05
-5.19459e-06
-0.000709457
1.73251e-05
-8.97978e-06
-0.000810245
-8.03118e-05
-1.5713e-05
-0.000901716
-0.000258628
-2.77638e-05
-0.000904549
-0.000579824
-4.63487e-05
-0.00068726
-0.00103034
-7.29599e-05
-0.00167867
-0.000123844
-4.7149e-05
0.000315055
-1.85566e-05
-0.000113753
0.000497392
-2.0063e-05
-0.000174922
0.000503768
-1.77081e-05
-0.000228012
0.000471521
-1.41077e-05
-0.000273885
0.000432781
-1.05922e-05
-0.000314261
0.000393832
-7.38219e-06
-0.000350837
0.000356051
-4.63327e-06
-0.000385131
0.000319911
-2.41426e-06
-0.000418685
0.000285774
-7.50499e-07
-0.000453359
0.00025396
4.2251e-07
-0.000491947
0.000225112
1.21314e-06
-0.000538865
0.000199971
1.71618e-06
-0.000601426
0.000179361
2.07292e-06
-0.000690358
0.000161811
2.45815e-06
-0.000819403
0.000139584
3.27534e-06
-0.000992548
8.43076e-05
5.42028e-06
-0.00118422
-7.68071e-05
9.6574e-06
-0.00123641
-0.000536657
1.61524e-05
-0.000925318
-0.00133657
9.5529e-06
-0.00261301
-0.000106079
-7.79535e-05
0.000398181
-2.6847e-05
-0.000151334
0.000578012
-2.99687e-05
-0.000212735
0.000571667
-2.57469e-05
-0.000263943
0.000527945
-1.99202e-05
-0.000308759
0.000481395
-1.38272e-05
-0.000348509
0.000435915
-8.31574e-06
-0.000384315
0.000392804
-3.69827e-06
-0.000417196
0.000352512
-7.59583e-08
-0.000448609
0.000315801
2.5945e-06
-0.000480342
0.000283318
4.51003e-06
-0.000515546
0.000256909
5.97432e-06
-0.00055902
0.000238735
7.49191e-06
-0.000619934
0.000233666
1.00549e-05
-0.00071223
0.000244644
1.56293e-05
-0.000856429
0.000270504
2.86837e-05
-0.00105098
0.000262535
5.79764e-05
-0.00127046
0.000125092
0.000115808
-0.00131905
-0.000498989
0.000198442
-0.000899053
-0.00172047
0.000212251
-0.00348802
-6.52337e-05
-6.18991e-05
0.000465476
-4.12183e-05
-0.000168878
0.000695565
-3.95355e-05
-0.000252257
0.000664262
-3.22127e-05
-0.000314866
0.000598302
-2.14145e-05
-0.000361132
0.000533411
-1.22239e-05
-0.000395921
0.000474097
-4.26641e-06
-0.000423141
0.00042145
2.01158e-06
-0.000445446
0.000374586
6.64414e-06
-0.000465017
0.000333643
1.00332e-05
-0.000482897
0.000298057
1.24849e-05
-0.000501108
0.000270482
1.45882e-05
-0.000522082
0.000253131
1.74469e-05
-0.00055276
0.000254823
2.35943e-05
-0.000602133
0.00028025
3.82962e-05
-0.000693355
0.000342941
7.35079e-05
-0.000817295
0.000364749
0.00014881
-0.000985456
0.000276678
0.000289104
-0.00102921
-0.000459168
0.000436011
-0.000630755
-0.00204851
0.000367964
-0.00408095
-0.000159522
-0.00020399
0.000673937
-5.51035e-05
-0.000269777
0.000769095
-6.20173e-05
-0.000323676
0.000726551
-5.13201e-05
-0.000366785
0.000649242
-3.51674e-05
-0.000386381
0.000559755
-1.8355e-05
-0.000390933
0.000483385
-4.2927e-06
-0.000386611
0.000419806
6.42049e-06
-0.000376462
0.000365109
1.40332e-05
-0.000364023
0.000320004
1.91853e-05
-0.000349232
0.000280264
2.22542e-05
-0.000334848
0.000251195
2.43731e-05
-0.000318414
0.000229323
2.68244e-05
-0.000302269
0.000227819
3.36191e-05
-0.000278087
0.000240487
5.1165e-05
-0.000248017
0.00029291
9.70454e-05
-0.0002105
0.000306661
0.00018839
-0.000133522
0.000196792
0.000350084
-0.000162074
-0.000423274
0.00051077
2.02423e-05
-0.00216237
0.000322605
-0.00409149
-0.000358168
-0.000653415
0.00130734
-0.000120446
-0.000611786
0.000734939
-8.96523e-05
-0.00048196
0.000609383
-6.04379e-05
-0.000305218
0.000488638
-3.00428e-05
-0.000123272
0.000393621
-7.22976e-06
5.10754e-05
0.000322924
1.04225e-05
0.000210264
0.000271645
2.39863e-05
0.000353446
0.000229667
3.32636e-05
0.000480422
0.000197551
3.93473e-05
0.00059227
0.000169924
4.18421e-05
0.000694167
0.000147983
4.18554e-05
0.000786174
0.000133208
4.02446e-05
0.000885196
0.000121661
3.9395e-05
0.000994511
0.000119639
4.12461e-05
0.00116037
0.000115183
6.42617e-05
0.00136583
8.80867e-05
0.000104082
0.00160999
-3.05256e-05
0.000176901
0.00167171
-0.000441731
0.000323281
0.00116759
-0.00164508
0.000134114
-0.00305505
-0.00050201
0.00128168
-0.000116942
0.00199977
-0.000127265
0.00259915
-0.000123933
0.00308665
-0.000110821
0.00348619
-9.30401e-05
0.00381889
-7.49006e-05
0.00410201
-5.47908e-05
0.00434293
-3.76464e-05
0.00455059
-1.95589e-05
0.00472756
-5.60885e-06
0.00488109
5.28986e-06
0.00501524
1.6074e-05
0.00513623
1.66506e-05
0.00525284
2.60194e-05
0.00535955
2.38011e-05
0.005452
2.88059e-05
0.0054109
4.25113e-05
0.00498262
3.47218e-06
0.00332714
-3.53931e-05
-0.0005325
-5.20653e-06
5.2736e-06
-5.06977e-07
-1.53579e-05
1.04382e-05
-4.45239e-07
-2.64006e-05
1.13772e-05
-3.61129e-07
-3.71357e-05
1.10741e-05
-2.88508e-07
-4.71907e-05
1.03766e-05
-2.52639e-07
-5.6339e-05
9.44337e-06