/*--------------------------------*- C++ -*----------------------------------*\
  =========                 |
  \\      /  F ield         | OpenFOAM: The Open Source CFD Toolbox
   \\    /   O peration     | Website:  https://openfoam.org
    \\  /    A nd           | Version:  10
     \\/     M anipulation  |
\*---------------------------------------------------------------------------*/
FoamFile
{
    format      ascii;
    class       surfaceScalarField;
    location    "1.65";
    object      phi;
}
// * * * * * * * * * * * * * * * * * * * * * * * * * * * * * * * * * * * * * //

dimensions      [0 3 -1 0 0 0 0];

internalField   nonuniform List<scalar> 
890
(
0.00984314
0.000156863
0.00968451
0.000158624
0.00950823
0.000176285
0.00924724
0.00026099
0.000205586
0.00904165
0.0101391
1.77994e-05
0.0102351
6.25598e-05
0.0103456
6.57955e-05
0.0105663
4.0293e-05
-0.000103183
0.0108751
0.0100711
-5.32613e-05
0.01022
-8.63381e-05
0.0103713
-8.55509e-05
0.0105599
-0.000148268
-0.000239362
0.010696
0.0100756
-0.000128819
0.0102105
-0.000221329
0.010362
-0.000236979
0.0104457
-0.000232022
-0.000263116
0.0104695
0.00987118
0.00964985
0.00941287
0.00918085
0.00891773
0.00934874
0.000155146
-0.000462234
0.00999345
-0.000122491
-0.000522219
0.0106802
-0.00088782
0.000201076
0.0110302
-0.00168607
0.00133607
0.0109318
-0.00287487
0.00297331
0.0104859
-0.00401402
0.00445985
0.00954695
-0.0039403
0.00487928
0.0081241
-0.00298608
0.00440893
0.00682826
-0.00223394
0.00352978
0.00618448
-0.0017125
0.00235628
0.0060547
-0.0011103
0.00124008
0.00605378
-0.000510087
0.000511007
0.00599743
-0.000110215
0.00016657
0.00588723
6.5642e-05
4.4556e-05
0.00577191
0.000105496
9.82933e-06
0.00568235
9.24589e-05
-2.90119e-06
0.00562071
6.93477e-05
-7.7053e-06
0.00558171
5.03725e-05
-1.13734e-05
0.0055583
3.71297e-05
-1.37209e-05
0.00554457
2.81919e-05
-1.44674e-05
0.00553667
2.18786e-05
-1.39716e-05
0.00553221
1.71582e-05
-1.26976e-05
0.00552979
1.34834e-05
-1.10643e-05
0.00552857
1.05673e-05
-9.35264e-06
0.00552805
8.24913e-06
-7.72488e-06
0.00552787
6.41053e-06
-6.23423e-06
0.00552785
4.95428e-06
-4.93701e-06
0.0055279
3.80877e-06
-3.85574e-06
0.00552797
2.9133e-06
-2.9791e-06
0.00552803
2.21729e-06
-2.28235e-06
0.00552809
1.67961e-06
-1.73659e-06
0.00552814
1.26671e-06
-1.31389e-06
0.00552817
9.51288e-07
-9.89132e-07
0.0055282
7.11464e-07
-7.41489e-07
0.00552823
5.29824e-07
-5.53338e-07
0.00552824
3.93147e-07
-4.11164e-07
0.00552826
2.90508e-07
-3.0451e-07
0.00552827
2.13618e-07
-2.23938e-07
0.00552828
1.5723e-07
-1.64985e-07
0.00552828
1.14359e-07
-1.20344e-07
0.00552829
8.24468e-08
-8.63474e-08
0.00552829
6.13697e-08
-6.45653e-08
0.00552829
3.9507e-08
-4.21833e-08
0.00552829
3.14663e-08
-3.30628e-08
1.47683e-08
-1.59056e-08
0.0111156
-8.54067e-05
0.011391
-0.000397831
0.0114878
-0.000984603
0.0113094
-0.00150767
0.0105592
-0.00212469
0.00914806
-0.00260289
0.00756895
-0.0023612
0.00620686
-0.00162399
0.00520243
-0.0012295
0.00469198
-0.00120205
0.00466323
-0.00108156
0.00487984
-0.000726694
0.00512083
-0.000351203
0.00529571
-0.000109244
0.00539687
4.33767e-06
0.00545463
3.47059e-05
0.00548452
3.9456e-05
0.00549999
3.48956e-05
0.00550845
2.86706e-05
0.00551355
2.30992e-05
0.0055169
1.85283e-05
0.00551922
1.48309e-05
0.00552087
1.1834e-05
0.00552204
9.40208e-06
0.00552286
7.42954e-06
0.00552345
5.81617e-06
0.00552391
4.49975e-06
0.00552427
3.44853e-06
0.00552456
2.62414e-06
0.00552479
1.98546e-06
0.00552497
1.49534e-06
0.00552512
1.12137e-06
0.00552523
8.37788e-07
0.00552532
6.23071e-07
0.00552539
4.61474e-07
0.00552544
3.40697e-07
0.00552548
2.50111e-07
0.00552551
1.83914e-07
0.00552553
1.34544e-07
0.00552555
9.76287e-08
0.00552556
7.11764e-08
0.00552557
5.18766e-08
0.00552558
3.29041e-08
0.00552558
2.68364e-08
1.19328e-08
0.0109324
-0.000321769
0.0110198
-0.0004852
0.0108611
-0.000825945
0.0106506
-0.00129711
0.0102227
-0.00169685
0.00947392
-0.00185409
0.00893049
-0.00181777
0.00878232
-0.00147582
0.00855743
-0.00100461
0.00793072
-0.000575344
0.00710903
-0.000259869
0.00643657
-5.42358e-05
0.00600886
7.65038e-05
0.00577198
0.000127643
0.00564998
0.000126332
0.00558008
0.000104608
0.00553973
7.98079e-05
0.00551594
5.86897e-05
0.00550197
4.26322e-05
0.00549408
3.09968e-05
0.00548993
2.268e-05
0.00548805
1.67095e-05
0.00548751
1.2375e-05
0.00548771
9.19355e-06
0.0054883
6.84542e-06
0.00548901
5.10655e-06
0.0054897
3.81142e-06
0.0054903
2.84558e-06
0.0054908
2.12329e-06
0.0054912
1.58155e-06
0.00549152
1.17587e-06
0.00549177
8.71441e-07
0.00549197
6.44511e-07
0.00549212
4.73991e-07
0.00549223
3.47975e-07
0.00549232
2.54817e-07
0.00549238
1.84695e-07
0.00549243
1.36716e-07
0.00549246
9.79373e-08
0.00549249
7.10509e-08
0.00549251
5.33823e-08
0.00549252
3.57753e-08
0.00549253
2.3039e-08
0.00549254
1.98423e-08
7.58955e-09
0.0105225
-0.000374789
0.0104948
-0.000457537
0.0102272
-0.00055829
0.00978443
-0.000854351
0.00918991
-0.00110233
0.00836607
-0.00103025
0.00740067
-0.000852369
0.00662372
-0.000698876
0.00607608
-0.000456969
0.00562983
-0.00012909
0.00526427
0.000105684
0.005038
0.000172036
0.00496237
0.000152134
0.00497418
0.00011583
0.00501516
8.53549e-05
0.0050579
6.18721e-05
0.00509298
4.4724e-05
0.00511917
3.25028e-05
0.00513798
2.38149e-05
0.00515139
1.75944e-05
0.00516098
1.30889e-05
0.0051679
9.78672e-06
0.00517294
7.34128e-06
0.00517661
5.51466e-06
0.00517932
4.13894e-06
0.00518133
3.09482e-06
0.00518284
2.30168e-06
0.00518398
1.70358e-06
0.00518485
1.25655e-06
0.00518551
9.24081e-07
0.00518601
6.78404e-07
0.00518638
4.96042e-07
0.00518666
3.62544e-07
0.00518687
2.6265e-07
0.00518703
1.90724e-07
0.00518715
1.37881e-07
0.00518723
9.81079e-08
0.0051873
7.3948e-08
0.00518735
5.03749e-08
0.00518738
3.78246e-08
0.0051874
2.93862e-08
0.00518742
1.61279e-08
0.00518743
1.22677e-08
0.00518744
1.08304e-08
2.51646e-09
0.00854294
0.00808541
0.00752712
0.00667277
0.00557043
0.00454018
0.00368781
0.00298894
0.00253197
0.00240288
0.00250856
0.0026806
0.00283273
0.00294857
0.00303392
0.00309579
0.00314052
0.00317302
0.00319683
0.00321443
0.00322752
0.0032373
0.00324465
0.00325016
0.0032543
0.00325739
0.0032597
0.0032614
0.00326266
0.00326358
0.00326426
0.00326475
0.00326512
0.00326538
0.00326557
0.00326571
0.00326581
0.00326588
0.00326593
0.00326597
0.003266
0.00326601
0.00326603
0.00326604
-0.000810441
0.000810441
-0.00174849
0.000938046
-0.00269056
0.00094207
-0.00326599
0.000575431
-0.00318879
-7.71989e-05
-0.00244068
-0.000748109
-0.00124894
-0.00119174
5.80034e-05
-0.00130695
0.0012134
-0.0011554
0.00209205
-0.000878651
0.00268964
-0.000597585
0.00305643
-0.000366797
0.00325736
-0.000200925
0.00335147
-9.41129e-05
0.00338357
-3.20963e-05
0.00338368
-1.14301e-07
0.00336977
1.391e-05
0.00335159
1.81863e-05
0.00333374
1.7848e-05
0.00331825
1.54909e-05
0.00330564
1.26118e-05
0.00329574
9.89732e-06
0.00328814
7.59402e-06
0.0032824
5.74352e-06
0.0032781
4.29956e-06
0.0032749
3.19647e-06
0.00327254
2.36596e-06
0.00327079
1.74577e-06
0.00326951
1.28418e-06
0.00326857
9.41522e-07
0.00326788
6.87161e-07
0.00326738
5.00476e-07
0.00326702
3.62762e-07
0.00326675
2.64136e-07
0.00326656
1.91441e-07
0.00326642
1.39106e-07
0.00326632
1.02476e-07
0.00326625
7.10734e-08
0.00326619
5.38477e-08
0.00326616
3.70554e-08
0.00326613
2.29819e-08
0.00326611
2.17671e-08
0.0032661
1.21647e-08
0.00326609
7.8167e-09
6.42303e-09
-0.000659368
0.00146981
-0.00183313
0.00211181
-0.00280145
0.00191038
-0.00318132
0.000955302
-0.00284558
-0.000412934
-0.00189027
-0.00170342
-0.000492497
-0.00258951
0.000989086
-0.00278853
0.00228307
-0.00244938
0.00327364
-0.00186921
0.00398358
-0.00130753
0.00446917
-0.000852383
0.00478479
-0.000516546
0.00497964
-0.000288967
0.00509334
-0.000145796
0.00515563
-6.24065e-05
0.00518752
-1.79768e-05
0.00520258
3.12837e-06
0.00520744
1.29847e-05
0.00520748
1.54552e-05
0.0052054
1.46927e-05
0.00520261
1.26837e-05
0.00519981
1.0393e-05
0.0051973
8.26066e-06
0.00519516
6.43198e-06
0.00519342
4.941e-06
0.00519202
3.7597e-06
0.00519093
2.83951e-06
0.00519008
2.13114e-06
0.00518943
1.59087e-06
0.00518894
1.18153e-06
0.00518857
8.74692e-07
0.00518828
6.4491e-07
0.00518807
4.75584e-07
0.00518791
3.49424e-07
0.0051878
2.56177e-07
0.00518771
1.88884e-07
0.00518765
1.3515e-07
0.0051876
9.98524e-08
0.00518757
7.17651e-08
0.00518754
4.78813e-08
0.00518752
3.8823e-08
0.00518751
2.48551e-08
0.0051875
1.74745e-08
1.05362e-08
-0.000509311
0.00197912
-0.00136317
0.00296567
-0.00169724
0.00224445
-0.00154334
0.0008014
-0.000908683
-0.00104759
0.000145719
-0.00275783
0.00138682
-0.00383061
0.00266461
-0.00406631
0.00366101
-0.00344579
0.00430243
-0.00251064
0.00470108
-0.00170618
0.00497107
-0.00112237
0.00516315
-0.000708625
0.00529485
-0.000420667
0.00538009
-0.000231035
0.00543269
-0.000115011
0.00546376
-4.90472e-05
0.00548048
-1.35841e-05
0.00548966
3.7996e-06
0.00549495
1.01725e-05
0.00549747
1.21674e-05
0.00549832
1.18325e-05
0.00549821
1.05052e-05
0.00549762
8.85102e-06
0.00549686
7.18898e-06
0.0054961
5.70484e-06
0.0054954
4.45326e-06
0.00549481
3.43398e-06
0.00549432
2.62284e-06
0.00549392
1.98806e-06
0.00549361
1.49737e-06
0.00549336
1.1225e-06
0.00549316
8.37859e-07
0.00549302
6.23841e-07
0.0054929
4.62707e-07
0.00549282
3.41917e-07
0.00549275
2.52516e-07
0.00549271
1.83906e-07
0.00549267
1.35093e-07
0.00549264
9.82318e-08
0.00549262
6.86744e-08
0.00549261
5.24658e-08
0.0054926
3.45343e-08
0.00549259
2.60604e-08
1.36408e-08
7.03179e-05
0.0019088
0.000481393
0.00255459
0.00126206
0.00146379
0.00214904
-8.5586e-05
0.00308294
-0.00198149
0.00404254
-0.00371742
0.0048896
-0.00467767
0.00557089
-0.00474761
0.00602281
-0.00389771
0.00613382
-0.00262165
0.00599065
-0.00156301
0.00579413
-0.000925844
0.00565464
-0.000569137
0.0055806
-0.000346625
0.00554776
-0.000198195
0.00553481
-0.000102059
0.00553068
-4.4924e-05
0.00553056
-1.34621e-05
0.00553213
2.23455e-06
0.00553161
1.06881e-05
0.00553077
1.30087e-05
0.00552992
1.26797e-05
0.00552919
1.12378e-05
0.00552858
9.4596e-06
0.00552806
7.71346e-06
0.0055276
6.15724e-06
0.00552722
4.83946e-06
0.00552689
3.76005e-06
0.00552662
2.89416e-06
0.0055264
2.21023e-06
0.00552622
1.67695e-06
0.00552607
1.26566e-06
0.00552596
9.50766e-07
0.00552587
7.11647e-07
0.00552581
5.30514e-07
0.00552575
3.93833e-07
0.00552572
2.91579e-07
0.00552569
2.13879e-07
0.00552566
1.57263e-07
0.00552565
1.14644e-07
0.00552563
8.15488e-08
0.00552562
6.12862e-08
0.00552562
4.03543e-08
0.00552561
3.13787e-08
1.55615e-08
0.00144657
0.00347894
0.00514381
0.00639429
0.00738611
0.00812854
0.00833014
0.00799146
0.00762354
0.00735817
0.00703524
0.0066204
0.00621783
0.00591576
0.0057274
0.00562244
0.00556981
0.00554497
0.00553349
0.00552971
0.00552875
0.00552873
0.0055289
0.00552901
0.005529
0.00552892
0.00552882
0.00552873
0.00552864
0.00552857
0.00552851
0.00552846
0.00552842
0.00552839
0.00552837
0.00552835
0.00552834
0.00552833
0.00552832
0.00552832
0.00552831
0.00552831
0.00552831
0.00552831
)
;

boundaryField
{
    inlet
    {
        type            calculated;
        value           nonuniform List<scalar> 5(-0.01 -0.01 -0.01 -0.01 -0.01);
    }
    outlet
    {
        type            calculated;
        value           nonuniform List<scalar> 10(0.0055283 0.00552558 0.00549255 0.00518745 0.00326604 0.00326609 0.0051875 0.00549259 0.00552561 0.0055283);
    }
    upperWall
    {
        type            calculated;
        value           uniform 0;
    }
    lowerWall
    {
        type            calculated;
        value           uniform 0;
    }
    frontAndBack
    {
        type            empty;
        value           nonuniform List<scalar> 0();
    }
}


// ************************************************************************* //
