/*--------------------------------*- C++ -*----------------------------------*\
  =========                 |
  \\      /  F ield         | OpenFOAM: The Open Source CFD Toolbox
   \\    /   O peration     | Website:  https://openfoam.org
    \\  /    A nd           | Version:  10
     \\/     M anipulation  |
\*---------------------------------------------------------------------------*/
FoamFile
{
    format      ascii;
    class       volVectorField;
    location    "1.65";
    object      U;
}
// * * * * * * * * * * * * * * * * * * * * * * * * * * * * * * * * * * * * * //

dimensions      [0 1 -1 0 0 0 0];

internalField   nonuniform List<vector> 
475
(
(0.990023 0.0162497 0)
(0.953353 0.012546 0)
(0.979018 0.0196189 0)
(0.925336 0.023795 0)
(0.940268 0.0299045 0)
(1.0013 0.00901595 0)
(1.01467 0.0144693 0)
(1.03245 0.0112839 0)
(1.04013 0.0237855 0)
(1.07532 0.00687347 0)
(1.00223 -0.00398508 0)
(1.00838 0.000769852 0)
(1.02344 0.0046054 0)
(1.04716 -0.0137957 0)
(1.05747 -0.0239761 0)
(1.00169 -0.00930205 0)
(1.0065 -0.0209035 0)
(1.02334 -0.024083 0)
(1.04319 -0.0184514 0)
(1.04269 -0.0268951 0)
(0.981766 -0.0106866 0)
(0.968389 -0.0179133 0)
(0.952144 -0.0198621 0)
(0.934196 -0.0255112 0)
(0.907464 -0.0230826 0)
(0.903372 0.0103248 0)
(0.930215 -0.0152424 0)
(1.02565 -0.0831422 0)
(1.10226 -0.166028 0)
(1.13362 -0.301582 0)
(1.09852 -0.439033 0)
(1.01582 -0.458938 0)
(0.88353 -0.386529 0)
(0.724926 -0.301362 0)
(0.629197 -0.208257 0)
(0.605339 -0.108929 0)
(0.605639 -0.0318423 0)
(0.602925 0.00815335 0)
(0.593574 0.0193536 0)
(0.581805 0.0172338 0)
(0.571581 0.0119845 0)
(0.564285 0.00777803 0)
(0.559542 0.00511631 0)
(0.556642 0.00354269 0)
(0.554931 0.00262808 0)
(0.55394 0.00203487 0)
(0.553374 0.00160958 0)
(0.553059 0.00128199 0)
(0.552893 0.00101968 0)
(0.552815 0.000806721 0)
(0.552787 0.000634283 0)
(0.552782 0.000495274 0)
(0.552785 0.000383882 0)
(0.552792 0.000295441 0)
(0.552799 0.000225913 0)
(0.552805 0.000171759 0)
(0.55281 0.00012993 0)
(0.552816 9.78283e-05 0)
(0.552818 7.33461e-05 0)
(0.552823 5.47444e-05 0)
(0.552822 4.06933e-05 0)
(0.552827 3.01381e-05 0)
(0.552824 2.2178e-05 0)
(0.552828 1.63486e-05 0)
(0.552828 1.19183e-05 0)
(0.552827 8.57568e-06 0)
(0.552831 6.404e-06 0)
(0.552828 4.16052e-06 0)
(0.55283 3.28586e-06 0)
(0.55283 1.56442e-06 0)
(1.09175 0.0115715 0)
(1.11163 -0.0160287 0)
(1.14096 -0.0847464 0)
(1.15363 -0.148885 0)
(1.13249 -0.241962 0)
(1.01208 -0.329499 0)
(0.82575 -0.296824 0)
(0.671388 -0.187469 0)
(0.559217 -0.131341 0)
(0.484489 -0.125326 0)
(0.458416 -0.106993 0)
(0.472504 -0.067403 0)
(0.49962 -0.0297664 0)
(0.521952 -0.00713246 0)
(0.535663 0.00235124 0)
(0.543135 0.00503071 0)
(0.54717 0.00494979 0)
(0.549283 0.00412427 0)
(0.550412 0.0032856 0)
(0.551068 0.00259835 0)
(0.551487 0.00205836 0)
(0.551776 0.0016313 0)
(0.551982 0.00128988 0)
(0.55213 0.0010157 0)
(0.552234 0.000795302 0)
(0.552308 0.000618349 0)
(0.552363 0.000477528 0)
(0.552405 0.000366583 0)
(0.552439 0.000279869 0)
(0.552465 0.000212581 0)
(0.552487 0.000160734 0)
(0.552503 0.000121009 0)
(0.552518 9.07318e-05 0)
(0.552527 6.77414e-05 0)
(0.552537 5.03518e-05 0)
(0.55254 3.73069e-05 0)
(0.552548 2.75131e-05 0)
(0.552548 2.02348e-05 0)
(0.552553 1.48814e-05 0)
(0.552554 1.08178e-05 0)
(0.552554 7.8286e-06 0)
(0.552558 5.80622e-06 0)
(0.552557 3.70396e-06 0)
(0.552558 2.97467e-06 0)
(0.552558 1.37875e-06 0)
(1.07733 -0.0241762 0)
(1.10348 -0.0543157 0)
(1.09145 -0.104631 0)
(1.07289 -0.158917 0)
(1.06295 -0.202191 0)
(1.00189 -0.218881 0)
(0.906918 -0.201015 0)
(0.869028 -0.15084 0)
(0.877182 -0.112195 0)
(0.840495 -0.105047 0)
(0.750289 -0.0958964 0)
(0.666742 -0.0665354 0)
(0.614755 -0.0336293 0)
(0.585261 -0.0115966 0)
(0.569083 -0.000964194 0)
(0.56037 0.00300796 0)
(0.555334 0.00385506 0)
(0.552357 0.00354687 0)
(0.550609 0.00295422 0)
(0.549611 0.00237947 0)
(0.549073 0.0018946 0)
(0.548814 0.00149979 0)
(0.548722 0.00118021 0)
(0.548724 0.000921823 0)
(0.548776 0.000713878 0)
(0.54885 0.000548476 0)
(0.548926 0.000418764 0)
(0.548994 0.000317945 0)
(0.549051 0.000240171 0)
(0.549098 0.00018062 0)
(0.549135 0.000135347 0)
(0.549164 0.000101036 0)
(0.549187 7.51896e-05 0)
(0.549203 5.56893e-05 0)
(0.549219 4.11088e-05 0)
(0.549225 3.02502e-05 0)
(0.549237 2.21136e-05 0)
(0.549238 1.62727e-05 0)
(0.549246 1.18259e-05 0)
(0.549248 8.57939e-06 0)
(0.549249 6.28766e-06 0)
(0.549253 4.48301e-06 0)
(0.549252 2.84663e-06 0)
(0.549254 2.35029e-06 0)
(0.549255 9.89949e-07 0)
(1.04769 -0.0443104 0)
(1.05842 -0.0484864 0)
(1.03994 -0.0689578 0)
(1.00287 -0.110915 0)
(0.96224 -0.133307 0)
(0.889995 -0.139503 0)
(0.782127 -0.152519 0)
(0.688989 -0.146613 0)
(0.632368 -0.093741 0)
(0.587643 -0.0173506 0)
(0.542883 0.0363261 0)
(0.510657 0.0518349 0)
(0.496505 0.0448764 0)
(0.494746 0.0330566 0)
(0.498431 0.0231497 0)
(0.503226 0.0158072 0)
(0.507383 0.0106979 0)
(0.510537 0.00724585 0)
(0.512816 0.00493706 0)
(0.514438 0.00339504 0)
(0.515594 0.00236075 0)
(0.516425 0.00166187 0)
(0.517027 0.00118523 0)
(0.517467 0.000856453 0)
(0.517789 0.000626347 0)
(0.518027 0.000461764 0)
(0.518205 0.000341472 0)
(0.518339 0.000252559 0)
(0.51844 0.000186652 0)
(0.518517 0.000137755 0)
(0.518575 0.000101578 0)
(0.518619 7.46729e-05 0)
(0.518653 5.48615e-05 0)
(0.518676 4.00067e-05 0)
(0.518697 2.91702e-05 0)
(0.518707 2.12152e-05 0)
(0.518721 1.51681e-05 0)
(0.518725 1.13554e-05 0)
(0.518733 7.93148e-06 0)
(0.518736 5.79022e-06 0)
(0.518738 4.54082e-06 0)
(0.518743 2.75958e-06 0)
(0.518742 1.84347e-06 0)
(0.518744 1.68315e-06 0)
(0.518745 5.50422e-07 0)
(0.875206 -0.0271918 0)
(0.835046 -0.0394572 0)
(0.785564 -0.0390194 0)
(0.719851 -0.0552406 0)
(0.61935 -0.0857836 0)
(0.502713 -0.0689551 0)
(0.403256 -0.0196348 0)
(0.325915 0.00556763 0)
(0.269788 0.00191364 0)
(0.243092 -0.00715305 0)
(0.243486 -0.0118407 0)
(0.258418 -0.0124783 0)
(0.275366 -0.0101731 0)
(0.28906 -0.00683032 0)
(0.29918 -0.00399444 0)
(0.30654 -0.00204335 0)
(0.311858 -0.000827255 0)
(0.315706 -0.000122324 0)
(0.318511 0.000248559 0)
(0.320575 0.000411103 0)
(0.322106 0.000450707 0)
(0.323247 0.000423243 0)
(0.324103 0.000364104 0)
(0.324745 0.000295188 0)
(0.325227 0.000229504 0)
(0.325588 0.000173494 0)
(0.325857 0.000128854 0)
(0.326057 9.47181e-05 0)
(0.326205 6.92311e-05 0)
(0.326313 5.04087e-05 0)
(0.326393 3.66191e-05 0)
(0.326451 2.64655e-05 0)
(0.326494 1.91075e-05 0)
(0.326525 1.36407e-05 0)
(0.326548 9.80208e-06 0)
(0.326564 6.97275e-06 0)
(0.326577 4.92112e-06 0)
(0.326583 3.73057e-06 0)
(0.326592 2.41704e-06 0)
(0.326594 1.93866e-06 0)
(0.326599 1.45879e-06 0)
(0.326601 6.02119e-07 0)
(0.326601 6.44913e-07 0)
(0.326604 5.20998e-07 0)
(0.326604 -2.76353e-08 0)
(-0.0397561 0.000194851 0)
(-0.127192 0.0316733 0)
(-0.235352 0.0384479 0)
(-0.315385 0.0330428 0)
(-0.333683 0.00256868 0)
(-0.287558 -0.0290179 0)
(-0.184295 -0.0516051 0)
(-0.0572968 -0.0575787 0)
(0.0670921 -0.049818 0)
(0.168354 -0.0359051 0)
(0.241941 -0.0221961 0)
(0.289842 -0.0114673 0)
(0.317763 -0.00431648 0)
(0.331965 -0.00025406 0)
(0.337763 0.00164076 0)
(0.33898 0.00224471 0)
(0.338024 0.00218591 0)
(0.336259 0.00185776 0)
(0.334365 0.00149454 0)
(0.332648 0.0011596 0)
(0.331216 0.000878352 0)
(0.330077 0.000655309 0)
(0.329196 0.000483939 0)
(0.328526 0.00035479 0)
(0.328022 0.000258685 0)
(0.327647 0.00018799 0)
(0.32737 0.000136415 0)
(0.327165 9.89324e-05 0)
(0.327014 7.16741e-05 0)
(0.326902 5.18101e-05 0)
(0.326821 3.72815e-05 0)
(0.326762 2.67646e-05 0)
(0.326719 1.91143e-05 0)
(0.326688 1.37515e-05 0)
(0.326666 9.8421e-06 0)
(0.326648 7.12588e-06 0)
(0.326638 5.20193e-06 0)
(0.326627 3.52559e-06 0)
(0.326623 2.72294e-06 0)
(0.326617 1.70372e-06 0)
(0.326615 1.03003e-06 0)
(0.326613 1.10434e-06 0)
(0.32661 4.60189e-07 0)
(0.326611 3.01124e-07 0)
(0.326609 3.8294e-07 0)
(-0.0129446 0.166413 0)
(-0.12075 0.165014 0)
(-0.261955 0.157694 0)
(-0.316555 0.0860749 0)
(-0.312565 -0.015833 0)
(-0.242112 -0.123251 0)
(-0.118835 -0.192276 0)
(0.026398 -0.206585 0)
(0.165995 -0.182528 0)
(0.279579 -0.140179 0)
(0.36467 -0.0975704 0)
(0.424868 -0.0623473 0)
(0.465063 -0.0364001 0)
(0.490296 -0.01896 0)
(0.505226 -0.00824347 0)
(0.51355 -0.00226002 0)
(0.517886 0.000716952 0)
(0.519967 0.0019507 0)
(0.520793 0.00221461 0)
(0.520932 0.00202174 0)
(0.52076 0.001686 0)
(0.520473 0.00134379 0)
(0.520166 0.00104583 0)
(0.519883 0.000802287 0)
(0.519639 0.000608563 0)
(0.519439 0.000457742 0)
(0.519279 0.000342213 0)
(0.519152 0.000254685 0)
(0.519053 0.000188796 0)
(0.518977 0.000139442 0)
(0.518919 0.000102532 0)
(0.518875 7.52054e-05 0)
(0.518843 5.48946e-05 0)
(0.518817 4.01581e-05 0)
(0.5188 2.92543e-05 0)
(0.518784 2.12977e-05 0)
(0.518777 1.57281e-05 0)
(0.518766 1.106e-05 0)
(0.518763 8.28234e-06 0)
(0.518758 5.90787e-06 0)
(0.518754 3.72865e-06 0)
(0.518755 3.2513e-06 0)
(0.518751 2.03537e-06 0)
(0.518751 1.30017e-06 0)
(0.51875 8.84502e-07 0)
(0.00319139 0.115419 0)
(-0.11084 0.235907 0)
(-0.176959 0.202311 0)
(-0.180521 0.0877169 0)
(-0.128955 -0.0799737 0)
(-0.0435314 -0.239303 0)
(0.0800196 -0.33828 0)
(0.207175 -0.351752 0)
(0.317557 -0.301689 0)
(0.398295 -0.228523 0)
(0.449458 -0.160926 0)
(0.483422 -0.107121 0)
(0.507406 -0.0672913 0)
(0.524001 -0.0396518 0)
(0.53479 -0.0217512 0)
(0.541437 -0.0109077 0)
(0.545381 -0.00475097 0)
(0.547598 -0.00147663 0)
(0.548768 0.000120035 0)
(0.549399 0.000865653 0)
(0.549731 0.00112138 0)
(0.549864 0.00112043 0)
(0.549877 0.00099978 0)
(0.549825 0.000837369 0)
(0.549745 0.00067571 0)
(0.549662 0.000532519 0)
(0.549584 0.000412898 0)
(0.549517 0.000316405 0)
(0.54946 0.000240266 0)
(0.549414 0.000181117 0)
(0.549378 0.000135678 0)
(0.549348 0.000101199 0)
(0.549327 7.51752e-05 0)
(0.549308 5.57698e-05 0)
(0.549298 4.12339e-05 0)
(0.549285 3.04013e-05 0)
(0.549281 2.24335e-05 0)
(0.549271 1.6246e-05 0)
(0.54927 1.19342e-05 0)
(0.549266 8.62036e-06 0)
(0.549262 5.94515e-06 0)
(0.549263 4.62142e-06 0)
(0.54926 3.00816e-06 0)
(0.54926 2.24648e-06 0)
(0.549259 1.23857e-06 0)
(0.00280729 0.26949 0)
(0.0100837 0.354277 0)
(0.0755513 0.233458 0)
(0.161052 0.0640344 0)
(0.265784 -0.143766 0)
(0.374572 -0.334171 0)
(0.466588 -0.448672 0)
(0.525884 -0.462468 0)
(0.57528 -0.378993 0)
(0.607475 -0.264093 0)
(0.60515 -0.173236 0)
(0.586217 -0.113217 0)
(0.569669 -0.072018 0)
(0.5602 -0.0426967 0)
(0.555761 -0.0229624 0)
(0.553922 -0.010863 0)
(0.553256 -0.00415847 0)
(0.553103 -0.00076839 0)
(0.553177 0.000792518 0)
(0.553233 0.00136193 0)
(0.553168 0.00145267 0)
(0.553074 0.00133235 0)
(0.552981 0.00113762 0)
(0.552904 0.000935194 0)
(0.552843 0.000753128 0)
(0.552791 0.000597484 0)
(0.552747 0.000467904 0)
(0.55271 0.000362505 0)
(0.552678 0.00027831 0)
(0.552652 0.000212043 0)
(0.552632 0.000160523 0)
(0.552615 0.000120913 0)
(0.552603 9.06731e-05 0)
(0.552591 6.77782e-05 0)
(0.552586 5.04619e-05 0)
(0.552577 3.7414e-05 0)
(0.552575 2.76826e-05 0)
(0.552568 2.02648e-05 0)
(0.552568 1.48876e-05 0)
(0.552565 1.08596e-05 0)
(0.552563 7.68201e-06 0)
(0.552565 5.79927e-06 0)
(0.552561 3.82951e-06 0)
(0.552562 2.95296e-06 0)
(0.552561 1.49749e-06 0)
(0.0204017 0.09879 0)
(0.251971 0.135371 0)
(0.423938 0.0500866 0)
(0.57592 -0.0842585 0)
(0.710748 -0.263231 0)
(0.809016 -0.419035 0)
(0.853351 -0.498318 0)
(0.817597 -0.501685 0)
(0.762077 -0.417434 0)
(0.740996 -0.275347 0)
(0.721283 -0.149256 0)
(0.682448 -0.0770139 0)
(0.638352 -0.0447477 0)
(0.602864 -0.0290949 0)
(0.579436 -0.0188252 0)
(0.565844 -0.0112851 0)
(0.558707 -0.005941 0)
(0.555283 -0.00248232 0)
(0.553713 -0.000467462 0)
(0.553067 0.00052516 0)
(0.55288 0.000946299 0)
(0.552855 0.00105759 0)
(0.552875 0.00101135 0)
(0.552896 0.000892881 0)
(0.552903 0.00074928 0)
(0.552899 0.00060867 0)
(0.552889 0.000484076 0)
(0.552879 0.000379153 0)
(0.552869 0.000293522 0)
(0.552861 0.000225162 0)
(0.552854 0.000171467 0)
(0.552848 0.000129811 0)
(0.552845 9.77698e-05 0)
(0.55284 7.33326e-05 0)
(0.55284 5.47642e-05 0)
(0.552835 4.07191e-05 0)
(0.552837 3.01815e-05 0)
(0.552832 2.21945e-05 0)
(0.552833 1.63544e-05 0)
(0.552832 1.19372e-05 0)
(0.55283 8.54045e-06 0)
(0.552833 6.40079e-06 0)
(0.55283 4.20419e-06 0)
(0.552831 3.2914e-06 0)
(0.55283 1.60937e-06 0)
)
;

boundaryField
{
    inlet
    {
        type            fixedValue;
        value           uniform (1 0 0);
    }
    outlet
    {
        type            zeroGradient;
    }
    upperWall
    {
        type            noSlip;
    }
    lowerWall
    {
        type            noSlip;
    }
    frontAndBack
    {
        type            empty;
    }
}


// ************************************************************************* //
