/*--------------------------------*- C++ -*----------------------------------*\
  =========                 |
  \\      /  F ield         | OpenFOAM: The Open Source CFD Toolbox
   \\    /   O peration     | Website:  https://openfoam.org
    \\  /    A nd           | Version:  10
     \\/     M anipulation  |
\*---------------------------------------------------------------------------*/
FoamFile
{
    format      ascii;
    class       volScalarField;
    location    "3.9";
    object      p;
}
// * * * * * * * * * * * * * * * * * * * * * * * * * * * * * * * * * * * * * //

dimensions      [0 2 -2 0 0 0 0];

internalField   nonuniform List<scalar> 
496
(
32.9323
32.8689
28.6134
22.0731
34.1207
33.9095
28.4864
22.0743
39.0972
36.0753
27.0641
16.1726
45.7808
42.5893
40.0433
23.6117
13.5297
4.32651
12.9899
3.83797
-0.00737104
-4.05476
-26.0772
-55.4538
-2.66929
-7.20251
-9.37567
-10.3834
-4.26045
-9.45132
-11.6151
-12.4341
1.97855
0.41662
-6.10299
-11.2331
-24.3772
2.27564
-3.70975
-11.5719
-10.9857
-11.4694
-11.6968
-11.5869
-11.6998
-12.3198
-13.4522
-14.1704
-14.2205
-13.4116
-12.0138
-10.4816
-9.05765
-8.22363
-7.40805
-6.61809
-5.87395
-5.79182
-6.32082
-6.35241
-5.71344
-4.63233
-4.08592
-3.8291
-3.51861
-2.78619
-1.87156
-1.36625
-1.15286
-1.3154
-1.49493
-1.64417
-1.85074
-1.92957
-1.95657
-1.76862
-1.49221
-1.1274
-0.666432
-0.250279
-13.108
-13.1884
-12.4399
-11.7187
-11.738
-12.5434
-13.6471
-14.3658
-14.4668
-13.6369
-12.1748
-10.3827
-8.87701
-7.98
-7.34522
-6.71443
-5.89983
-5.65584
-5.92331
-6.08523
-5.63865
-4.84418
-4.3482
-3.94589
-3.38161
-2.60319
-1.70696
-1.14861
-0.996382
-1.27048
-1.53044
-1.72641
-1.94624
-2.08719
-2.0497
-1.81445
-1.5414
-1.12239
-0.704165
-0.257189
-13.3256
-13.0187
-12.5907
-12.3912
-12.7691
-14.0015
-15.1695
-15.895
-15.7429
-14.7172
-12.8492
-10.4096
-8.46453
-7.33327
-7.0802
-6.81216
-6.22069
-6.01195
-6.07609
-6.23384
-5.75881
-5.20964
-4.6165
-3.85159
-3.10194
-2.20314
-1.48428
-0.995214
-1.25255
-1.7774
-2.17718
-2.69345
-2.70747
-2.62293
-2.52837
-2.25595
-1.75348
-1.14603
-0.662319
-0.178097
-11.7983
-10.4188
-9.51697
-10.4765
-12.4193
-14.0529
-15.2359
-16.6179
-17.2529
-16.139
-13.4921
-10.4792
-8.11646
-6.47434
-6.13303
-5.70987
-5.5462
-5.7806
-6.06772
-6.46051
-6.37135
-6.6196
-5.99671
-4.98961
-3.59765
-1.25516
0.433835
1.17134
0.313699
-0.578201
-1.59712
-2.3977
-2.6725
-3.15376
-3.01668
-2.89681
-2.17911
-1.67648
-1.07227
0.0652755
49.8689
52.8377
66.7587
79.088
50.7026
51.7921
66.479
78.9672
-42.1071
-33.4142
-14.776
-10.3037
-39.3697
-37.112
-6.74473
-17.6363
-14.9492
-12.1754
-15.5282
-13.3994
-13.5059
-14.3292
-16.3934
-17.726
-16.2362
-14.6957
-12.7291
-10.6467
-9.03268
-7.43927
-5.87016
-5.03232
-4.947
-5.27398
-5.3715
-5.27044
-5.89053
-5.58918
-4.96257
-4.95664
-4.04781
-2.69609
-2.12503
-1.71322
-1.51357
-2.0074
-2.34868
-2.39094
-2.51536
-2.51793
-2.03427
-1.80603
-1.67779
-1.15192
-0.5311
-0.0861336
-12.608
-16.0277
-15.2963
-14.1025
-15.6123
-16.2772
-16.4506
-15.83
-16.797
-15.7054
-12.5366
-10.5354
-8.98522
-7.59705
-5.90177
-4.78624
-4.36665
-3.68085
-3.22238
-3.61089
-3.86047
-3.86738
-3.93451
-4.2692
-4.39967
-4.35968
-4.25759
-4.33724
-4.41301
-3.95956
-3.45878
-2.9529
-2.58037
-1.85398
-1.07098
-0.601382
-0.342822
-0.00719713
0.0306343
-0.170796
46.1397
41.9538
38.7031
22.6688
37.1615
35.2637
26.6552
16.7751
32.5983
34.0312
30.5091
24.3584
32.3716
33.1923
30.1157
23.7446
-26.71
-51.1525
1.8213
-3.32331
15.5702
6.56315
15.0997
5.84033
-20.8098
-12.2492
-3.24492
-6.33515
2.26811
-0.171997
-3.88376
-7.4673
-0.720979
-6.76662
-11.1086
-12.864
-1.54439
-6.48587
-9.4673
-10.6521
-11.9808
-13.4346
-14.6237
-14.6158
-15.7191
-17.0052
-18.2916
-17.4185
-15.3321
-13.6386
-11.9724
-10.8208
-9.20633
-7.85652
-5.93645
-4.31952
-3.37248
-2.67095
-2.18556
-1.78038
-2.60256
-3.02744
-3.56074
-4.26385
-4.71529
-5.53123
-5.4575
-5.50184
-5.10267
-4.60722
-4.1411
-3.26378
-2.46936
-1.3555
-0.281758
0.766591
0.870412
0.795982
0.620773
-0.0121756
-11.7405
-14.7448
-16.2569
-15.3358
-14.4947
-14.9246
-15.8269
-15.9587
-14.7789
-13.288
-11.8025
-10.7477
-9.4812
-8.11045
-6.57741
-5.0679
-4.066
-3.38053
-3.24619
-2.954
-3.03053
-3.29417
-3.65293
-4.27215
-4.63006
-4.94406
-4.95879
-4.78116
-4.42896
-3.93006
-3.46338
-2.77403
-2.21624
-1.64494
-1.06664
-0.561327
-0.173001
-0.124845
-0.0988281
-0.201971
-13.3657
-13.9067
-14.5711
-14.7254
-14.2429
-14.0574
-14.4159
-14.8575
-14.4221
-13.1507
-11.7034
-10.2737
-9.0848
-7.8369
-6.71872
-5.54696
-4.61071
-4.12022
-3.85934
-3.68343
-3.30614
-3.20413
-3.35504
-3.77834
-4.23224
-4.28278
-4.30116
-4.16583
-4.10615
-3.87048
-3.5474
-3.14651
-2.61309
-2.02137
-1.40747
-0.782346
-0.20437
0.110507
0.205147
0.16411
-11.0276
-11.4789
-12.5189
-13.9552
-14.2121
-13.9589
-13.9703
-14.3124
-14.1
-13.0961
-11.7429
-10.2061
-9.02068
-7.88748
-6.85073
-5.73626
-4.91658
-4.50985
-4.16504
-3.83325
-3.25634
-3.08117
-3.29089
-3.83343
-4.19625
-4.18925
-4.19068
-4.05948
-3.9931
-3.73276
-3.39156
-2.99174
-2.48711
-2.00627
-1.40406
-0.847527
-0.341719
-0.0282524
0.0571087
0.0473791
)
;

boundaryField
{
    inlet
    {
        type            zeroGradient;
    }
    outlet
    {
        type            fixedValue;
        value           uniform 0;
    }
    obstacle
    {
        type            zeroGradient;
    }
    upperWall
    {
        type            zeroGradient;
    }
    lowerWall
    {
        type            zeroGradient;
    }
    frontAndBack
    {
        type            empty;
    }
}


// ************************************************************************* //
