/*--------------------------------*- C++ -*----------------------------------*\
  =========                 |
  \\      /  F ield         | OpenFOAM: The Open Source CFD Toolbox
   \\    /   O peration     | Website:  https://openfoam.org
    \\  /    A nd           | Version:  10
     \\/     M anipulation  |
\*---------------------------------------------------------------------------*/
FoamFile
{
    format      ascii;
    class       volScalarField;
    location    "3.8";
    object      p;
}
// * * * * * * * * * * * * * * * * * * * * * * * * * * * * * * * * * * * * * //

dimensions      [0 2 -2 0 0 0 0];

internalField   nonuniform List<scalar> 
496
(
30.3773
29.5507
26.3279
20.5681
31.5632
31.1649
27.0078
20.5145
36.5543
34.6527
27.5957
17.0789
42.9114
41.3888
37.5566
24.1452
12.5061
3.33894
11.8002
2.90046
2.36359
-3.77278
-25.0569
-48.8501
-4.10263
-8.98694
-11.7106
-13.3556
-5.11109
-10.5489
-14.1027
-15.9954
0.34663
-2.06172
-8.96206
-12.7891
-20.3411
-11.4615
-12.6805
-8.58203
-14.4301
-14.886
-15.0671
-14.7725
-14.4002
-14.3695
-13.8544
-12.4379
-10.5409
-9.62138
-9.5858
-9.43659
-8.12326
-6.3476
-5.62473
-5.91821
-6.55378
-6.36686
-5.91789
-5.67692
-5.87247
-6.27778
-6.34122
-6.30977
-6.02201
-5.82509
-5.46844
-4.91571
-4.36624
-3.71652
-3.27208
-2.74608
-2.31804
-1.87863
-1.41651
-1.094
-0.742259
-0.563209
-0.408105
-0.163779
-16.5795
-16.6324
-16.4035
-15.7507
-15.2771
-14.9116
-14.0175
-12.408
-10.7873
-9.79189
-9.44389
-9.06406
-7.84792
-6.45607
-5.61671
-5.69865
-6.03451
-5.96659
-5.81122
-5.72696
-5.99036
-6.40443
-6.55257
-6.51431
-6.21318
-5.96376
-5.46643
-4.94762
-4.3577
-3.69862
-3.19096
-2.5414
-2.0974
-1.57024
-1.19941
-0.973751
-0.702459
-0.58808
-0.330362
-0.11903
-15.5184
-17.1253
-17.0346
-16.7559
-16.5057
-15.6178
-14.2281
-12.5859
-11.0747
-9.7788
-9.18107
-8.59356
-7.57148
-6.67999
-6.18936
-5.79335
-5.45786
-5.55081
-5.86573
-6.09969
-6.6744
-6.89575
-7.01899
-6.79774
-6.5617
-6.17977
-5.59353
-5.14495
-4.34482
-3.79671
-3.0998
-2.5613
-2.04014
-1.67834
-1.37062
-1.12931
-1.25807
-1.29565
-0.992553
-0.435314
-13.1323
-17.6521
-17.9654
-18.4231
-17.9152
-16.339
-14.7644
-13.1435
-11.1351
-9.44996
-8.94792
-8.23323
-7.59612
-6.82102
-5.31709
-4.48487
-3.72687
-4.37021
-4.95219
-5.78145
-6.75548
-7.01827
-7.43609
-7.27652
-7.21798
-6.29424
-5.95463
-5.56123
-4.52159
-4.08843
-2.87637
-2.08242
-1.28156
-0.734265
-0.434768
-0.581953
-1.34215
-1.23318
-1.51808
-1.12234
46.6271
49.0309
62.4567
75.5366
45.7355
46.4803
60.4152
72.4796
-25.9806
-52.0572
-29.0622
-9.595
-30.9296
-40.1693
-35.5467
-15.1819
-19.0785
-11.1337
-21.7541
-20.9635
-15.8364
-16.9287
-17.1082
-14.3927
-9.80156
-8.30599
-7.74516
-7.62597
-7.41823
-6.84643
-6.14323
-5.92516
-5.69874
-5.58548
-6.14796
-6.84124
-6.84991
-6.65873
-7.01152
-6.88121
-6.17661
-5.78447
-5.52124
-4.97444
-4.45625
-3.96819
-3.27962
-2.92022
-2.39721
-1.63727
-1.70972
-1.5653
-1.28836
-1.00315
-1.05259
-0.610968
-11.0024
-16.747
-14.9797
-21.3982
-17.1609
-17.095
-16.3224
-11.7488
-8.97775
-8.2317
-6.37721
-5.81693
-6.70547
-7.21089
-7.40339
-7.7821
-7.88895
-7.64127
-8.02627
-7.94008
-7.43796
-6.89014
-6.30715
-6.06531
-5.25716
-4.6114
-4.49225
-4.26578
-3.89573
-3.66419
-3.64066
-3.58893
-3.5399
-3.45514
-2.91081
-2.40471
-1.72859
-0.848674
-0.0116758
0.188844
40.8959
37.2552
32.6198
15.6266
32.2131
29.7808
21.4319
10.8453
27.0786
27.3496
23.1273
16.8466
26.4187
26.1412
22.3984
16.6962
-38.7463
-63.2653
-5.5985
-10.8475
7.74309
-1.22835
8.33903
-1.20521
-33.0016
-14.7921
-2.59366
-12.7141
-4.33258
-3.86693
-8.38069
-13.6571
-8.78117
-14.1503
-16.6179
-16.8553
-8.53084
-12.5653
-13.8016
-14.1882
-14.7207
-13.3878
-15.8802
-16.9864
-17.8873
-17.9304
-15.1313
-10.8492
-6.63152
-5.71367
-5.89868
-6.35747
-7.06414
-7.31601
-8.30452
-8.84814
-9.65899
-9.4713
-8.80834
-8.54911
-7.67759
-6.92009
-5.53449
-4.7363
-4.00649
-3.66639
-3.38834
-3.17898
-3.57275
-3.3895
-3.72942
-3.74901
-3.99132
-3.86748
-3.35957
-2.85199
-1.63288
-0.696102
0.626952
1.15814
-16.0624
-16.0263
-15.9615
-16.5315
-16.6711
-15.7769
-13.3242
-10.5865
-8.5184
-7.43164
-7.14258
-7.34993
-7.8301
-7.6532
-7.88288
-8.34897
-8.63874
-8.56112
-7.92437
-7.54932
-6.89202
-6.43104
-5.85424
-5.37218
-4.93457
-4.54693
-4.41883
-4.01717
-4.1339
-3.95612
-3.88185
-3.83451
-3.7176
-3.45246
-2.85796
-2.19665
-1.36411
-0.868396
-0.436426
-0.0774837
-16.5826
-16.3363
-15.915
-15.6475
-15.068
-14.0014
-12.5336
-10.8841
-9.58609
-8.58044
-8.05857
-7.71015
-7.35335
-7.33568
-7.53522
-8.14372
-8.34441
-8.20031
-7.76458
-7.42256
-7.13449
-6.64745
-6.05959
-5.43865
-4.89575
-4.4341
-4.11267
-3.83795
-3.47996
-3.42994
-3.36768
-3.37386
-3.15196
-2.93071
-2.54471
-2.08607
-1.62329
-1.08814
-0.57053
-0.133223
-14.3431
-14.485
-14.6213
-14.6251
-14.1537
-13.4159
-12.6306
-11.1745
-9.6302
-8.64039
-8.42266
-7.90231
-7.14426
-7.03821
-7.50967
-8.37665
-8.53288
-8.18976
-7.57149
-7.20019
-6.98182
-6.52506
-6.08518
-5.46047
-5.08175
-4.63811
-4.31038
-3.95332
-3.63224
-3.57465
-3.44474
-3.41981
-3.23395
-2.95345
-2.58811
-2.09586
-1.67681
-1.13979
-0.716755
-0.252001
)
;

boundaryField
{
    inlet
    {
        type            zeroGradient;
    }
    outlet
    {
        type            fixedValue;
        value           uniform 0;
    }
    obstacle
    {
        type            zeroGradient;
    }
    upperWall
    {
        type            zeroGradient;
    }
    lowerWall
    {
        type            zeroGradient;
    }
    frontAndBack
    {
        type            empty;
    }
}


// ************************************************************************* //
