/*--------------------------------*- C++ -*----------------------------------*\
  =========                 |
  \\      /  F ield         | OpenFOAM: The Open Source CFD Toolbox
   \\    /   O peration     | Website:  https://openfoam.org
    \\  /    A nd           | Version:  10
     \\/     M anipulation  |
\*---------------------------------------------------------------------------*/
FoamFile
{
    format      ascii;
    class       surfaceScalarField;
    location    "3.8";
    object      phi;
}
// * * * * * * * * * * * * * * * * * * * * * * * * * * * * * * * * * * * * * //

dimensions      [0 3 -1 0 0 0 0];

internalField   nonuniform List<scalar> 
928
(
0.0979182
0.00208179
0.102871
-0.0049528
0.107476
-0.00460515
-0.00831252
0.115789
0.0966558
0.00542597
0.105844
-0.0141406
0.104666
-0.00342749
-0.0162808
0.112634
0.0961876
0.00923842
0.10638
-0.0243331
0.10421
-0.00125703
-0.0332834
0.121212
0.0999788
0.00925959
0.0955348
-0.019889
0.0953734
-0.00109567
0.144951
-0.0828614
0.111159
0.00462986
-0.0162451
0.127404
0.110101
0.00716288
-0.0399751
0.133831
0.1248
0.00357503
-0.0416418
0.126467
0.148527
0.106885
0.127707
-0.000303077
0.128802
-0.00109523
0.130432
-0.00162971
-0.00135971
0.131792
0.134194
-0.000665371
0.136093
-0.0029942
0.135739
-0.00127619
-0.00167692
0.136056
0.134338
-0.00853715
0.139648
-0.00830412
0.13228
0.00609156
-0.0056289
0.136232
0.113927
-0.0155796
0.109574
-0.00395115
0.0874227
0.0282431
0.097464
-0.0156703
0.132779
-0.000987667
0.133536
-0.000757153
0.132879
0.00065697
0.132467
0.000412671
0.130581
0.00188564
0.128863
0.00171833
0.126702
0.00216123
0.12484
0.00186166
0.122706
0.00213394
0.120236
0.00246991
0.118527
0.00170881
0.116616
0.00191129
0.116064
0.000552303
0.115263
0.000800457
0.115408
-0.000144907
0.115686
-0.000278278
0.116675
-0.000988804
0.118552
-0.00187647
0.119796
-0.00124459
0.121376
-0.00157943
0.121687
-0.000311142
0.121977
-0.000290013
0.121238
0.000739046
0.120204
0.00103369
0.119004
0.00120048
0.117143
0.00186026
0.115839
0.0013045
0.11394
0.00189934
0.112694
0.00124507
0.111211
0.00148356
0.110183
0.00102747
0.109462
0.000721045
0.108805
0.000657468
0.108701
0.000103719
0.108282
0.000419116
0.108163
0.000119082
0.10737
0.000792734
0.106386
0.000983826
0.104452
0.0019346
0.0022324
0.137601
-0.00253201
0.138015
-0.00117126
0.138283
0.000388733
0.137996
0.000699899
0.136468
0.00341306
0.134824
0.00336302
0.133388
0.00359692
0.131771
0.0034782
0.129475
0.00443047
0.127536
0.00440869
0.125678
0.00356732
0.123942
0.00364737
0.123108
0.00138594
0.122415
0.00149375
0.122441
-0.000171373
0.123074
-0.000911347
0.124452
-0.00236688
0.126613
-0.00403681
0.128354
-0.00298598
0.130529
-0.00375462
0.131581
-0.00136334
0.132662
-0.00137025
0.132815
0.000585256
0.132848
0.00100112
0.132349
0.00169993
0.131272
0.00293663
0.130661
0.00191545
0.129148
0.00341247
0.12851
0.00188301
0.127202
0.00279198
0.126492
0.00173717
0.125912
0.00130083
0.125361
0.00120891
0.125865
-0.00040054
0.125502
0.00078195
0.126399
-0.000778139
0.125939
0.00125311
0.125462
0.00146117
0.12485
0.00254633
0.00371625
0.134309
-0.000608627
0.134067
-0.000929308
0.136026
-0.00157027
0.135245
0.00148061
0.13391
0.0047487
0.133609
0.00366386
0.13299
0.00421548
0.129982
0.00648674
0.127217
0.0071957
0.125502
0.00612373
0.123389
0.00567954
0.122303
0.00473368
0.120331
0.00335803
0.119264
0.00256116
0.118411
0.000681268
0.118817
-0.00131719
0.119814
-0.00336422
0.120378
-0.00460055
0.12191
-0.00451851
0.122849
-0.00469341
0.123919
-0.00243273
0.125024
-0.00247622
0.126498
-0.000887904
0.127543
-4.41237e-05
0.127935
0.00130805
0.128874
0.00199712
0.128885
0.00190494
0.128961
0.00333589
0.128783
0.00206109
0.12863
0.00294557
0.128304
0.00206282
0.12823
0.00137484
0.12794
0.00149907
0.127683
-0.000143413
0.12791
0.000555002
0.128481
-0.00134938
0.129042
0.000691934
0.130116
0.00038737
0.130568
0.00209448
0.00395278
0.0962381
0.000617277
0.0970575
-0.00174867
0.103567
-0.00808021
0.100928
0.00411997
0.104338
0.00133836
0.109587
-0.00158446
0.111847
0.00195474
0.11054
0.00779427
0.114767
0.00296846
0.117778
0.00311307
0.120335
0.00312223
0.121358
0.00371034
0.119661
0.00505581
0.116678
0.00554428
0.112402
0.00495659
0.106668
0.00441737
0.100061
0.00324226
0.0943062
0.00115449
0.0902605
-0.000472892
0.087726
-0.0021589
0.0866133
-0.00132002
0.0876463
-0.00350919
0.0897736
-0.00301522
0.0903603
-0.00063087
0.0930809
-0.00141256
0.0953655
-0.00028746
0.096313
0.000957455
0.0977908
0.0018581
0.0974454
0.00240646
0.0967413
0.00364969
0.0953064
0.00349769
0.0935577
0.00312363
0.0914772
0.00357953
0.0900544
0.00127937
0.0907054
-9.60368e-05
0.0904073
-0.00105124
0.0930923
-0.00199305
0.0963556
-0.00287596
0.100116
-0.00166595
0.00106588
0.107902
0.00135713
0.0881605
-0.000147063
0.0828841
0.00418079
2.26546e-05
0.111842
-0.0104848
0.0892942
0.0224007
0.091966
0.00150899
0.0919886
-0.0129398
-0.00263986
0.0252408
-0.0421317
0.000860914
0.052623
-0.0173668
0.00255745
-0.00726186
0.004622
-0.0258979
-0.0234956
0.0114401
0.015285
0.0150452
-0.0209719
0.0121431
-0.00896835
0.00241185
0.00798255
0.0144458
-0.0201142
0.00297814
0.0155876
0.0041497
0.000166812
0.00892451
-0.00635928
0.0156203
-0.00474108
0.0218239
0.00159067
0.019226
0.00556643
0.0184663
0.00387276
0.0203343
0.00125418
0.0213258
0.00271887
0.0202736
0.00610804
0.0178788
0.00793906
0.0157174
0.00711795
0.0146882
0.00544657
0.015318
0.00261249
0.0149983
0.00147416
0.0145745
-4.90526e-05
0.0166811
-0.00426546
0.0180569
-0.00269583
0.0186282
-0.00408051
0.020845
-0.00523202
0.0230561
-0.002842
0.0248384
-0.00319487
0.0267848
-0.0022338
0.0280842
-0.000341997
0.029173
0.000769332
0.0304148
0.00116466
0.031009
0.00305549
0.0312512
0.00325549
0.0321656
0.00220927
0.0333974
0.00234773
0.0341667
0.000510061
0.036264
-0.00219341
0.0388189
-0.00360612
0.0407916
-0.0039657
0.0443483
-0.00643269
0.047125
-0.00444268
0.000122103
0.00197884
0.00409802
0.011141
-0.00117956
-0.00854643
-0.000426774
-0.000885387
0.00792659
0.00163087
-0.00234945
-0.00286036
-0.00186805
-0.00256848
-0.00503297
0.00242234
-0.00340014
0.00837869
-0.000389921
0.0149032
-0.00265176
0.0170107
-0.000853305
0.016042
0.0036876
0.017366
0.00478396
0.0211367
0.00416845
0.0240093
0.00424531
0.0263743
0.00308155
0.0280446
0.000942174
0.0290684
0.000450402
0.0296141
-0.000594732
0.0287564
-0.00340774
0.0297103
-0.00364972
0.0293321
-0.00370231
0.0279774
-0.00387739
0.029432
-0.00429658
0.0300163
-0.00377915
0.0297759
-0.0019934
0.0311848
-0.00175094
0.0325968
-0.000642655
0.0339791
-0.000217579
0.0364736
0.000560923
0.0387976
0.00093152
0.0406846
0.000322293
0.04297
6.2324e-05
0.0450173
-0.00153725
0.0450081
-0.00218418
0.045382
-0.00398006
0.0463025
-0.00488622
0.0453136
-0.00544374
0.0454538
-0.00458296
-0.00144671
0.100805
-0.0112897
0.0908005
0.0324051
0.0952418
-0.00293232
0.0412775
0.145953
0.0959755
-0.00726519
0.110663
0.0177177
0.106047
0.00168352
0.019932
0.127393
0.095594
-0.00285918
0.106684
0.00662809
0.104896
0.00347081
0.00979622
0.115032
0.0971408
0.103769
0.10724
0.117036
0.149912
-0.00395947
0.0495087
0.100404
0.131941
-0.00850841
0.0418391
0.139611
0.111878
-0.00535474
0.0166575
0.13706
0.111681
0.128339
0.104787
0.000238838
0.0788732
0.00241812
0.0929821
0.00117606
-0.0047272
0.0767374
0.140134
-0.000283941
0.144807
-0.00225521
0.145524
0.00045904
0.00168582
0.139111
0.138316
-0.00154028
0.136267
-0.000206224
0.136142
0.000584502
0.000969774
0.136858
0.126798
0.126592
0.127177
0.128146
0.0797117
0.00112368
0.0776382
0.000893931
0.0749105
0.00230094
0.0816905
0.00114661
0.0806915
-0.00135045
0.0825318
-0.00370835
0.0822179
-0.00471912
0.0841799
-0.00536213
0.0875776
-0.00378756
0.0871048
-0.002179
0.0879812
-0.00172967
0.0907177
0.000951017
0.0946188
0.000882897
0.097065
0.00172229
0.101693
-0.000383189
0.105924
-0.00114898
0.109626
-0.00276031
0.114397
-0.00431998
0.117616
-0.00381394
0.119491
-0.00528298
0.119441
-0.0035996
0.119162
-0.00342339
0.116794
-0.00150909
0.113089
-0.000591231
0.109607
-0.00029801
0.106194
0.00142024
0.104386
5.68734e-05
0.101894
0.00184928
0.101865
-0.000188505
0.101858
0.000568218
0.10363
-0.000840617
0.105685
-0.00173248
0.107918
-0.00217141
0.110882
-0.00450108
0.112533
-0.0038351
0.114041
-0.00548814
0.113115
-0.0039596
0.111066
-0.00339497
0.108419
-0.00193569
0.000395165
0.139717
0.000518284
0.139764
0.00084664
0.140428
0.00163648
0.141993
-0.00041789
0.141511
-0.00086901
0.140732
-0.00292895
0.139291
-0.00327846
0.137445
-0.00351581
0.136649
-0.00299144
0.13514
-0.000670554
0.133908
-0.000497341
0.133375
0.00148372
0.134166
9.2688e-05
0.135327
0.000561111
0.135917
-0.000973508
0.136473
-0.00170456
0.135743
-0.00203051
0.135055
-0.00363204
0.133836
-0.00259457
0.132446
-0.00389308
0.130829
-0.00198331
0.12958
-0.00217414
0.128601
-0.000529574
0.127705
0.000303934
0.126955
0.000452054
0.12666
0.0017157
0.126254
0.00046266
0.126458
0.00164524
0.126471
-0.000201313
0.126714
0.000325098
0.127075
-0.00120167
0.127238
-0.00189549
0.127123
-0.00205639
0.126171
-0.0035494
0.124939
-0.0026031
0.123474
-0.00402296
0.121799
-0.00228467
0.120732
-0.00232794
0.119601
-0.000804683
0.000868154
0.136502
0.000873741
0.137068
0.000280908
0.138256
0.000449095
0.138444
-0.000606127
0.138139
-0.000563751
0.13675
-0.00154083
0.135035
-0.00156293
0.133192
-0.0016733
0.131598
-0.00139665
0.131414
-0.000486654
0.131218
-0.000301342
0.131722
0.000979692
0.131941
-0.000126866
0.132607
-0.000104383
0.1325
-0.000866309
0.131859
-0.00106409
0.131089
-0.00126084
0.129483
-0.00202592
0.128514
-0.00162481
0.126849
-0.00222822
0.12588
-0.00101424
0.124892
-0.00118645
0.124392
-3.00953e-05
0.124552
0.000144486
0.124647
0.000356997
0.125456
0.000906974
0.125854
6.47366e-05
0.126966
0.000533206
0.127075
-0.00031098
0.127682
-0.000281471
0.127419
-0.000938863
0.126755
-0.0012319
0.126104
-0.00140449
0.124667
-0.00211318
0.123673
-0.00160919
0.121801
-0.00215061
0.120619
-0.0011028
0.119248
-0.000957185
0.118552
-0.000107921
0.000394756
0.12902
0.129301
0.12975
0.129144
0.12858
0.127039
0.125477
0.123803
0.122407
0.12192
0.121619
0.122598
0.122471
0.122367
0.121501
0.120437
0.119176
0.11715
0.115525
0.113297
0.112283
0.111096
0.111066
0.111211
0.111568
0.112475
0.112539
0.113072
0.112761
0.11248
0.111541
0.110309
0.108905
0.106792
0.105182
0.103032
0.101929
0.100972
0.100864
)
;

boundaryField
{
    inlet
    {
        type            calculated;
        value           nonuniform List<scalar> 10(-0.1 -0.1 -0.1 -0.1 -0.1 -0.1 -0.1 -0.1 -0.1 -0.1);
    }
    outlet
    {
        type            calculated;
        value           nonuniform List<scalar> 10(0.102219 0.123366 0.130331 0.103003 0.0480688 0.0470227 0.106577 0.119128 0.119025 0.101259);
    }
    obstacle
    {
        type            calculated;
        value           uniform 0;
    }
    upperWall
    {
        type            calculated;
        value           uniform 0;
    }
    lowerWall
    {
        type            calculated;
        value           uniform 0;
    }
    frontAndBack
    {
        type            empty;
        value           nonuniform List<scalar> 0();
    }
}


// ************************************************************************* //
