/*--------------------------------*- C++ -*----------------------------------*\
  =========                 |
  \\      /  F ield         | OpenFOAM: The Open Source CFD Toolbox
   \\    /   O peration     | Website:  https://openfoam.org
    \\  /    A nd           | Version:  10
     \\/     M anipulation  |
\*---------------------------------------------------------------------------*/
FoamFile
{
    format      ascii;
    class       volScalarField;
    location    "3.025";
    object      p;
}
// * * * * * * * * * * * * * * * * * * * * * * * * * * * * * * * * * * * * * //

dimensions      [0 2 -2 0 0 0 0];

internalField   nonuniform List<scalar> 
400
(
-2.86279e-09
-3.0697e-05
-6.19369e-06
4.61175e-05
0.00013115
0.000249019
0.00039901
0.000579912
0.000789564
0.00102457
0.00128005
0.00154944
0.00182436
0.00209466
0.00234876
0.00257412
0.00275784
0.00288816
0.00296399
0.00294393
3.01725e-05
-1.89699e-06
2.26222e-05
7.22435e-05
0.000153085
0.000265785
0.000409984
0.000584808
0.000788422
0.00101775
0.00126818
0.00153326
0.00180508
0.0020735
0.00232685
0.00255243
0.002737
0.0028687
0.00294732
0.00292591
2.53737e-06
-3.37658e-05
-1.06238e-05
3.70638e-05
0.000116068
0.000227271
0.000370654
0.000545748
0.000751136
0.000984117
0.00124043
0.00151428
0.00179716
0.00207875
0.00234674
0.00258734
0.00278575
0.00292822
0.00301398
0.00298931
-5.73362e-05
-9.76823e-05
-7.62928e-05
-3.09046e-05
4.60864e-05
0.000155987
0.000299326
0.00047626
0.000686021
0.000926539
0.00119407
0.00148305
0.00178546
0.00209035
0.00238417
0.00265128
0.00287432
0.0030363
0.00313518
0.00310891
-0.000154921
-0.00020001
-0.000180811
-0.000138083
-6.31803e-05
4.57788e-05
0.000190065
0.00037068
0.000587758
0.000840127
0.00112485
0.00143685
0.00176837
0.00210805
0.00244098
0.00274883
0.0030103
0.00320325
0.00332317
0.00329644
-0.000291296
-0.000342348
-0.000326015
-0.000286758
-0.00021462
-0.000106984
3.83849e-05
0.000223602
0.000450009
0.000717675
0.00102485
0.00136737
0.0017382
0.00212563
0.00251328
0.00287948
0.00319735
0.00343695
0.00358924
0.00356383
-0.000467628
-0.000526172
-0.000513731
-0.00047939
-0.000411545
-0.000306666
-0.000161294
2.81101e-05
0.000264479
0.000549584
0.00088338
0.00126321
0.00168349
0.00213279
0.00259354
0.00304031
0.00343882
0.00374754
0.00394917
0.00392912
-0.000685589
-0.000753486
-0.000746409
-0.000719202
-0.000658226
-0.000558829
-0.000416062
-0.00022461
2.04802e-05
0.00032324
0.000686048
0.00110858
0.00158773
0.00211372
0.00266887
0.00322429
0.00373675
0.00414793
0.00442527
0.00442016
-0.00094713
-0.00102661
-0.00102687
-0.00100991
-0.000959623
-0.000870004
-0.000734325
-0.000545152
-0.000295079
2.27874e-05
0.000414157
0.000882433
0.00142729
0.00204417
0.00271738
0.00341622
0.0040882
0.00465248
0.00504776
0.00508054
-0.0012544
-0.0013481
-0.00135817
-0.00135558
-0.00132121
-0.00124749
-0.0011256
-0.000945687
-0.000697549
-0.000370962
4.37996e-05
0.00055533
0.00116888
0.00188779
0.00270265
0.0035858
0.00447796
0.0052733
0.00585571
0.00598157
-0.00160984
-0.00172078
-0.00174355
-0.00176048
-0.00174879
-0.00169907
-0.00160015
-0.00143948
-0.0012039
-0.00087965
-0.000452251
9.32585e-05
0.000769536
0.0015921
0.00256584
0.00367592
0.0048651
0.00600828
0.0068957
0.00724589
-0.00201646
-0.00214792
-0.00218634
-0.0022289
-0.00224822
-0.00223272
-0.00216845
-0.00204011
-0.00183173
-0.0015264
-0.00110543
-0.000547324
0.000173835
0.00108322
0.00221414
0.00358238
0.00515541
0.00681165
0.00821148
0.00908466
-0.00247896
-0.00263353
-0.00268987
-0.00276494
-0.00282516
-0.0028561
-0.00284056
-0.00276036
-0.00259722
-0.00233234
-0.00194461
-0.00140793
-0.000686643
0.00026131
0.00150891
0.00312496
0.00514979
0.00752249
0.00974013
0.0119121
-0.0030064
-0.00318407
-0.00325686
-0.00337169
-0.00348457
-0.00357636
-0.00362557
-0.00361104
-0.00351296
-0.00331282
-0.00299097
-0.00252061
-0.00186172
-0.000947393
0.000284618
0.00201848
0.00444592
0.00767959
0.0111754
0.0160914
-0.00360536
-0.00381419
-0.00389876
-0.00406233
-0.00423729
-0.00440249
-0.00453184
-0.00460002
-0.004586
-0.00447399
-0.00425309
-0.00391234
-0.00343234
-0.00277241
-0.00183952
-0.000338523
0.00207086
0.00616048
0.011156
0.0207727
-0.0043843
-0.00441882
-0.0044949
-0.00469099
-0.00496999
-0.00526636
-0.00552981
-0.0057194
-0.00581184
-0.00580039
-0.00569354
-0.00550514
-0.00525222
-0.004928
-0.00445733
-0.00380818
-0.00254438
0.000633018
0.00470062
0.0207345
-0.0049734
-0.0055762
-0.00558063
-0.0059554
-0.00628357
-0.00661315
-0.00690688
-0.00713317
-0.00727605
-0.00733248
-0.00733056
-0.00731948
-0.00739584
-0.00769899
-0.00844094
-0.00991801
-0.0132017
-0.0125992
-0.0103191
0.0155803
-0.00799208
-0.00566337
-0.00562897
-0.00577346
-0.00633997
-0.00699198
-0.00761984
-0.00812805
-0.00848507
-0.00867757
-0.00877842
-0.00885552
-0.00913218
-0.00984761
-0.0117067
-0.0146886
-0.0222669
-0.0252246
-0.0226316
0.0199727
-0.00514321
-0.00829305
-0.00801741
-0.0089598
-0.00945245
-0.00994805
-0.0103653
-0.0106363
-0.0107778
-0.0107578
-0.0106655
-0.0106354
-0.0108593
-0.0118324
-0.014619
-0.0185032
-0.0290771
-0.0298245
-0.0152095
0.0568587
-0.0286794
-0.00453077
-0.00435468
-0.00484321
-0.00576988
-0.00691517
-0.0080476
-0.00891481
-0.00958382
-0.00986957
-0.010152
-0.0102092
-0.0107693
-0.0114788
-0.0132789
-0.014146
-0.012724
0.00534441
0.0601783
0.185564
)
;

boundaryField
{
    movingWall
    {
        type            zeroGradient;
    }
    fixedWalls
    {
        type            zeroGradient;
    }
    frontAndBack
    {
        type            empty;
    }
}


// ************************************************************************* //
