/*--------------------------------*- C++ -*----------------------------------*\
  =========                 |
  \\      /  F ield         | OpenFOAM: The Open Source CFD Toolbox
   \\    /   O peration     | Website:  https://openfoam.org
    \\  /    A nd           | Version:  10
     \\/     M anipulation  |
\*---------------------------------------------------------------------------*/
FoamFile
{
    format      ascii;
    class       surfaceScalarField;
    location    "2.95";
    object      phi;
}
// * * * * * * * * * * * * * * * * * * * * * * * * * * * * * * * * * * * * * //

dimensions      [0 3 -1 0 0 0 0];

internalField   nonuniform List<scalar> 
890
(
0.00984264
0.00015736
0.00973784
0.000104796
0.00947527
0.000262573
0.00949579
-2.05215e-05
0.000111142
0.00938465
0.0101238
3.35523e-05
0.0101835
4.50726e-05
0.0104085
3.75758e-05
0.0104416
-5.35458e-05
-0.000102488
0.0106552
0.0100703
-3.67395e-05
0.0102129
-9.7487e-05
0.0103919
-0.000141462
0.010497
-0.000158651
-0.000226704
0.0106212
0.0100862
-0.000122942
0.0102169
-0.000228224
0.0103279
-0.000252404
0.010403
-0.000233757
-0.000273766
0.01045
0.00987706
0.00964883
0.00939643
0.00916267
0.00888891
0.00920112
-0.000240346
0.000423876
0.00924087
-0.000268988
0.000229241
0.00943373
-0.000276972
8.41087e-05
0.00978177
-0.000358319
1.02805e-05
0.0101872
-0.00059093
0.000185546
0.0105564
-0.00108901
0.000719788
0.0108529
-0.00179197
0.00149548
0.0109464
-0.00251476
0.00242124
0.0107883
-0.00321446
0.0033725
0.0104142
-0.00363529
0.0040094
0.0097379
-0.00360082
0.00427714
0.00881929
-0.00323926
0.00415788
0.00782579
-0.00234828
0.00334178
0.00675622
-0.00111712
0.00218669
0.00576715
-0.000292238
0.00128131
0.00515778
-2.58566e-05
0.000635221
0.00502137
5.54052e-05
8.10061e-05
0.00517319
0.000198132
-0.00034995
0.0054014
0.000369953
-0.000598167
0.00558995
0.000469337
-0.000657888
0.0057095
0.000476904
-0.000596448
0.00577271
0.00042108
-0.000484287
0.00580167
0.000338344
-0.000367309
0.00581359
0.000254954
-0.000266875
0.00581839
0.00018391
-0.000188711
0.00582071
0.000128826
-0.00013114
0.00582229
8.84871e-05
-9.00695e-05
0.00582364
5.99648e-05
-6.13184e-05
0.00582484
4.02274e-05
-4.14259e-05
0.00582586
2.67523e-05
-2.77744e-05
0.0058267
1.76359e-05
-1.84686e-05
0.00582735
1.15138e-05
-1.21657e-05
0.00582784
7.43156e-06
-7.9266e-06
0.00582821
4.73124e-06
-5.09768e-06
0.00582848
2.9609e-06
-3.22548e-06
0.00582866
1.8138e-06
-2.00231e-06
0.0058288
1.07778e-06
-1.20912e-06
0.00582888
6.19648e-07
-7.09402e-07
0.00582895
3.33012e-07
-3.93773e-07
0.00582899
1.68878e-07
-2.0835e-07
0.00582901
7.03221e-08
-9.57622e-08
0.00582903
2.38169e-08
-4.1179e-08
0.00582904
3.78864e-09
-1.42247e-08
0.00582905
1.02681e-10
-7.79171e-09
2.04242e-08
-2.62571e-08
0.0106781
-0.00026331
0.0107349
-0.000325776
0.0108718
-0.000413839
0.0110959
-0.000582441
0.0112751
-0.000770124
0.0113323
-0.00114618
0.0112127
-0.00167233
0.0108836
-0.00218571
0.0103652
-0.00269601
0.00968358
-0.00295372
0.00874652
-0.00266376
0.00762536
-0.0021181
0.0066579
-0.00138082
0.00594873
-0.000407953
0.00536554
0.000290953
0.00492382
0.000415867
0.00470887
0.000270346
0.00472795
0.000179058
0.00489332
0.000204583
0.00510326
0.000259396
0.00529681
0.000283356
0.00545091
0.000266974
0.00556404
0.000225215
0.00564346
0.000175541
0.00569794
0.000129424
0.00573496
9.18116e-05
0.00576003
6.34157e-05
0.00577701
4.2987e-05
0.0057885
2.87338e-05
0.00579627
1.89843e-05
0.0058015
1.24027e-05
0.00580501
8.00593e-06
0.00580735
5.09314e-06
0.0058089
3.1825e-06
0.00580991
1.94227e-06
0.00581058
1.14693e-06
0.00581101
6.46453e-07
0.00581129
3.4101e-07
0.00581147
1.54834e-07
0.00581158
5.62111e-08
0.00581165
2.91203e-10
0.0058117
-2.15989e-08
0.00581173
-2.37992e-08
0.00581175
-2.00272e-08
5.86148e-09
0.0106832
-0.000325279
0.0107182
-0.000360809
0.0107768
-0.000472442
0.0108221
-0.000627687
0.0108378
-0.000785831
0.0107393
-0.00104774
0.0104961
-0.00142912
0.0101722
-0.00186177
0.0096327
-0.00215653
0.00889317
-0.00221418
0.0081064
-0.00187699
0.00729134
-0.00130304
0.00665281
-0.000742292
0.00640314
-0.000158288
0.00637887
0.000315229
0.00627561
0.000519125
0.0060193
0.00052666
0.0057343
0.000464052
0.00553545
0.000403437
0.00544505
0.000349793
0.00543415
0.000294252
0.00546519
0.00023594
0.00551054
0.000179861
0.00555493
0.000131151
0.00559207
9.22859e-05
0.00562069
6.31926e-05
0.00564172
4.23885e-05
0.00565673
2.79743e-05
0.00566726
1.8201e-05
0.00567457
1.16752e-05
0.00567961
7.36804e-06
0.00568305
4.55949e-06
0.0056854
2.74632e-06
0.00568698
1.59716e-06
0.00568804
8.81972e-07
0.00568875
4.444e-07
0.0056892
1.90244e-07
0.0056895
4.6746e-08
0.00568968
-2.89171e-08
0.00568979
-5.71559e-08
0.00568987
-6.98179e-08
0.00568991
-6.34728e-08
0.00568993
-4.82771e-08
0.00568995
-3.76328e-08
-8.8283e-09
0.0104384
-0.000313611
0.0104235
-0.000345906
0.0103625
-0.000411484
0.0102097
-0.000474876
0.010023
-0.000599105
0.00968866
-0.000713423
0.00917483
-0.000915286
0.00859517
-0.00128211
0.0078129
-0.00137427
0.00668503
-0.00108631
0.00550393
-0.0006959
0.00452984
-0.000328944
0.00386048
-7.29313e-05
0.00358274
0.000119446
0.00361753
0.000280445
0.00376559
0.00037106
0.00391901
0.000373246
0.00406306
0.000319997
0.00421462
0.000251875
0.00437448
0.000189935
0.00452891
0.000139822
0.00466415
0.000100699
0.00477323
7.07853e-05
0.00485583
4.85514e-05
0.00491557
3.25495e-05
0.00495738
2.13761e-05
0.004986
1.37728e-05
0.00500527
8.70313e-06
0.00501809
5.37899e-06
0.00502653
3.23203e-06
0.00503204
1.8665e-06
0.00503558
1.0165e-06
0.00503783
4.96731e-07
0.00503923
1.9282e-07
0.00504009
2.33519e-08
0.0050406
-6.84348e-08
0.0050409
-1.05694e-07
0.00504106
-1.16506e-07
0.00504114
-1.09224e-07
0.00504118
-9.34592e-08
0.00504119
-7.95926e-08
0.00504119
-6.07682e-08
0.00504118
-4.39884e-08
0.00504118
-3.26234e-08
-1.1363e-08
0.0085753
0.00822939
0.00781791
0.00734303
0.00674393
0.0060305
0.00511522
0.00383311
0.00245884
0.00137253
0.00067663
0.000347686
0.000274755
0.000394201
0.000674646
0.00104571
0.00141895
0.00173895
0.00199082
0.00218076
0.00232058
0.00242128
0.00249206
0.00254062
0.00257316
0.00259454
0.00260831
0.00261702
0.0026224
0.00262563
0.00262749
0.00262851
0.00262901
0.0026292
0.00262922
0.00262916
0.00262905
0.00262893
0.00262882
0.00262873
0.00262865
0.00262859
0.00262855
0.00262851
-0.000239671
0.000239671
-0.000718847
0.000479175
-0.00162282
0.000903971
-0.00279567
0.00117285
-0.00391785
0.00112218
-0.00473623
0.000818375
-0.00507978
0.000343553
-0.00486001
-0.000219768
-0.004124
-0.000736011
-0.00293357
-0.00119043
-0.0014372
-0.00149636
0.000142301
-0.00157951
0.00157401
-0.00143171
0.00265647
-0.00108246
0.00331298
-0.000656508
0.00359034
-0.000277354
0.00360179
-1.14495e-05
0.00347662
0.000125165
0.00330056
0.00017606
0.00312772
0.000172837
0.00298198
0.000145748
0.00286939
0.000112584
0.0027875
8.18914e-05
0.00273051
5.69877e-05
0.00269218
3.83334e-05
0.0026671
2.50851e-05
0.00265107
1.6026e-05
0.00264106
1.001e-05
0.00263495
6.10526e-06
0.00263134
3.61806e-06
0.00262927
2.0625e-06
0.00262817
1.10652e-06
0.00262763
5.36575e-07
0.00262743
2.05323e-07
0.0026274
2.50579e-08
0.00262747
-6.64173e-08
0.00262758
-1.08987e-07
0.00262769
-1.15188e-07
0.0026278
-1.0971e-07
0.0026279
-9.68768e-08
0.00262798
-7.83654e-08
0.00262804
-6.23811e-08
0.00262808
-4.55838e-08
0.00262812
-3.15054e-08
-1.06898e-08
-0.000560718
0.00080039
-0.00128807
0.00120652
-0.00210624
0.00172215
-0.00285584
0.00192245
-0.00342568
0.00169202
-0.00373746
0.00113015
-0.00369255
0.000298648
-0.00326243
-0.000649887
-0.00242481
-0.00157363
-0.00123504
-0.00238021
0.000194696
-0.0029261
0.00169781
-0.00308262
0.00309366
-0.00282756
0.00424539
-0.0022342
0.0050444
-0.00145551
0.005479
-0.000711952
0.00564653
-0.000178987
0.00565366
0.000118038
0.00559018
0.000239539
0.00550092
0.000262105
0.00540779
0.000238872
0.00532228
0.000198091
0.00524974
0.00015444
0.00519158
0.000115146
0.00514698
8.29327e-05
0.00511399
5.80754e-05
0.0050903
3.97105e-05
0.00507371
2.65994e-05
0.00506233
1.74894e-05
0.00505466
1.12902e-05
0.00504957
7.15014e-06
0.00504625
4.42738e-06
0.00504412
2.66931e-06
0.00504277
1.55042e-06
0.00504194
8.52585e-07
0.00504145
4.31591e-07
0.00504116
1.78222e-07
0.005041
4.21063e-08
0.00504092
-2.959e-08
0.00504089
-6.38147e-08
0.00504088
-7.00416e-08
0.00504088
-6.36212e-08
0.00504089
-5.13512e-08
0.00504089
-3.7067e-08
-7.76483e-09
-0.000189564
0.000989954
-0.000256688
0.00127365
-0.000370171
0.00183563
-0.000426757
0.00197903
-0.000377908
0.00164317
-0.000206658
0.000958902
0.000106159
-1.41693e-05
0.000665121
-0.00120885
0.00142525
-0.00233376
0.00227896
-0.00323391
0.00323059
-0.00387773
0.00419405
-0.00404608
0.00499904
-0.00363255
0.00564537
-0.00288053
0.00613695
-0.00194709
0.0064046
-0.000979605
0.00644669
-0.000221083
0.00635185
0.000212882
0.00622089
0.000370504
0.00610212
0.000380868
0.00600736
0.000333631
0.00593326
0.000272195
0.00587449
0.000213207
0.00582765
0.000161987
0.00579077
0.00011981
0.0057624
8.64537e-05
0.0057411
6.10034e-05
0.00572551
4.2197e-05
0.00571432
2.86768e-05
0.00570643
1.91759e-05
0.00570096
1.26271e-05
0.0056972
8.18401e-06
0.00569465
5.2155e-06
0.00569294
3.25818e-06
0.00569181
1.98432e-06
0.00569107
1.17277e-06
0.00569059
6.58175e-07
0.00569029
3.47091e-07
0.0056901
1.5995e-07
0.00568998
5.498e-08
0.00568991
5.17396e-10
0.00568986
-2.03942e-08
0.00568984
-2.54575e-08
0.00568982
-1.98649e-08
6.76246e-09
0.000367306
0.000622648
0.00100737
0.000633585
0.00167465
0.00116835
0.00238625
0.00126744
0.00304051
0.000988915
0.00366407
0.000335343
0.00429169
-0.000641787
0.0048913
-0.00180847
0.00551061
-0.00295307
0.00607077
-0.00379407
0.00654175
-0.00434871
0.00692825
-0.00443258
0.00708574
-0.00379005
0.00703158
-0.00282636
0.00697129
-0.0018868
0.00696122
-0.000969533
0.00691267
-0.000172536
0.00676338
0.000362169
0.00655621
0.000577677
0.00635293
0.000584151
0.00618935
0.000497207
0.00607148
0.000390072
0.0059906
0.000294085
0.00593572
0.000216866
0.00589818
0.000157352
0.00587213
0.000112502
0.00585384
7.92892e-05
0.00584094
5.51042e-05
0.00583183
3.7781e-05
0.00582544
2.55648e-05
0.00582099
1.70748e-05
0.00581793
1.12523e-05
0.00581583
7.31119e-06
0.00581441
4.67615e-06
0.00581346
2.93448e-06
0.00581283
1.80229e-06
0.00581242
1.07252e-06
0.00581215
6.16974e-07
0.00581198
3.32994e-07
0.00581186
1.67336e-07
0.00581179
6.95597e-08
0.00581175
2.41946e-08
0.00581172
3.02075e-09
0.0058117
-2.4055e-11
2.08434e-08
0.00104652
0.00190935
0.0031618
0.00443952
0.00561398
0.00666911
0.00752281
0.00813559
0.00855502
0.00877035
0.00869879
0.00842408
0.00797582
0.00733615
0.00673065
0.00639634
0.00630481
0.00631703
0.00629654
0.0062228
0.00612356
0.00602934
0.00595612
0.00590611
0.00587475
0.00585611
0.00584533
0.00583912
0.00583547
0.00583326
0.00583187
0.00583096
0.00583034
0.00582992
0.00582963
0.00582943
0.00582929
0.0058292
0.00582914
0.0058291
0.00582907
0.00582906
0.00582904
0.00582904
)
;

boundaryField
{
    inlet
    {
        type            calculated;
        value           nonuniform List<scalar> 5(-0.01 -0.01 -0.01 -0.01 -0.01);
    }
    outlet
    {
        type            calculated;
        value           nonuniform List<scalar> 10(0.00582905 0.00581176 0.00568996 0.00504118 0.0026285 0.00262813 0.00504089 0.00568981 0.00581169 0.00582903);
    }
    upperWall
    {
        type            calculated;
        value           uniform 0;
    }
    lowerWall
    {
        type            calculated;
        value           uniform 0;
    }
    frontAndBack
    {
        type            empty;
        value           nonuniform List<scalar> 0();
    }
}


// ************************************************************************* //
