/*--------------------------------*- C++ -*----------------------------------*\
  =========                 |
  \\      /  F ield         | OpenFOAM: The Open Source CFD Toolbox
   \\    /   O peration     | Website:  https://openfoam.org
    \\  /    A nd           | Version:  10
     \\/     M anipulation  |
\*---------------------------------------------------------------------------*/
FoamFile
{
    format      ascii;
    class       volScalarField;
    location    "9.85";
    object      p;
}
// * * * * * * * * * * * * * * * * * * * * * * * * * * * * * * * * * * * * * //

dimensions      [0 2 -2 0 0 0 0];

internalField   nonuniform List<scalar> 
400
(
3.84423e-08
-3.41783e-05
2.34582e-05
0.000136468
0.000313907
0.000559222
0.00087825
0.00127881
0.00176933
0.00235704
0.00304528
0.00383001
0.00469397
0.00560058
0.00648633
0.00726363
0.00783208
0.00813043
0.00819155
0.00802291
3.77853e-05
3.32351e-06
7.06504e-05
0.000187775
0.00036533
0.000607587
0.00092067
0.00131222
0.00179036
0.00236245
0.00303281
0.00379913
0.00464508
0.00553993
0.00642086
0.00719758
0.00776073
0.0080416
0.00808284
0.00789606
-3.69954e-05
-8.16721e-05
-1.59745e-05
9.59282e-05
0.000265326
0.000496562
0.000796217
0.00117285
0.00163624
0.00219664
0.00286266
0.00363737
0.00451348
0.00546328
0.0064199
0.0072754
0.00788478
0.00814364
0.00810999
0.0078473
-0.000201645
-0.000253335
-0.000192384
-9.01882e-05
6.52424e-05
0.000278423
0.0005566
0.000909663
0.00134981
0.00189153
0.00255042
0.00333896
0.00425929
0.00529148
0.00637109
0.00736323
0.00806136
0.00828245
0.0080987
0.00771463
-0.00046772
-0.000524973
-0.000472763
-0.000385678
-0.00025113
-6.44137e-05
0.000182387
0.000500558
0.000905009
0.00141509
0.00205477
0.00285034
0.00382054
0.00495887
0.00621169
0.00741574
0.00826525
0.0084277
0.0079884
0.00741519
-0.000833379
-0.00089576
-0.000856248
-0.000790024
-0.0006843
-0.000534582
-0.00033293
-6.73687e-05
0.000278755
0.00072862
0.00131377
0.00207499
0.00305465
0.00427326
0.00572409
0.00722732
0.0083312
0.00840522
0.00763241
0.00673828
-0.00129111
-0.00135882
-0.00133585
-0.0012967
-0.00122902
-0.00112932
-0.000991015
-0.000803741
-0.000551977
-0.000212684
0.000247672
0.0008764
0.00173667
0.00290226
0.00441651
0.00622931
0.0077255
0.00778688
0.00682009
0.00553636
-0.00183016
-0.00190372
-0.00190082
-0.0018949
-0.00187503
-0.00183994
-0.00178661
-0.00170978
-0.00160138
-0.00144835
-0.00122991
-0.000918168
-0.000475494
0.000186892
0.00127001
0.00302216
0.00500421
0.00571607
0.00531645
0.00403089
-0.00243694
-0.00251675
-0.0025364
-0.00256864
-0.00260503
-0.00264829
-0.00270183
-0.00277023
-0.00286097
-0.0029865
-0.00317013
-0.00346957
-0.00401093
-0.00486535
-0.00562011
-0.00504197
-0.00267703
0.000468139
0.00270543
0.00336311
-0.00309542
-0.00318149
-0.00322389
-0.00329609
-0.00339311
-0.00352353
-0.0037001
-0.00394237
-0.00428284
-0.00477817
-0.00553163
-0.00675053
-0.00889306
-0.0123824
-0.0167991
-0.0188371
-0.0163037
-0.00961464
-0.00267145
0.00246029
-0.00378838
-0.0038802
-0.00394193
-0.00405088
-0.0042057
-0.00442251
-0.00472517
-0.00515124
-0.00576441
-0.00667819
-0.0081049
-0.0104464
-0.0145194
-0.0210737
-0.0295978
-0.034931
-0.0327853
-0.0234204
-0.0124171
-0.00306094
-0.00449883
-0.00459449
-0.00466586
-0.00480042
-0.005
-0.0052886
-0.00569974
-0.00628636
-0.00713799
-0.00841192
-0.0103996
-0.0136175
-0.0190605
-0.0274035
-0.0381169
-0.0448489
-0.0433576
-0.0340719
-0.0232472
-0.012009
-0.00521566
-0.00531368
-0.00538001
-0.00552138
-0.00574149
-0.00607166
-0.00655118
-0.00724006
-0.00823795
-0.00971303
-0.0119776
-0.0155045
-0.021301
-0.029703
-0.0403746
-0.0466061
-0.0456415
-0.037576
-0.0289758
-0.0184009
-0.00592809
-0.00601766
-0.00604798
-0.00616447
-0.00637319
-0.0067086
-0.00720783
-0.00792865
-0.0089652
-0.010463
-0.0127287
-0.0160094
-0.0212827
-0.0284496
-0.0370699
-0.0418809
-0.0414208
-0.0346813
-0.0294209
-0.0197999
-0.00666151
-0.00674826
-0.00671479
-0.00677872
-0.0069321
-0.00722019
-0.00767781
-0.00835432
-0.00932879
-0.0106983
-0.0127007
-0.0155367
-0.0196812
-0.0249724
-0.03109
-0.03435
-0.0338545
-0.0280303
-0.0258166
-0.016088
-0.00750405
-0.00739022
-0.00721107
-0.00713243
-0.00720179
-0.00743525
-0.00784666
-0.00846057
-0.00932895
-0.0105322
-0.0122089
-0.014478
-0.0175544
-0.0211896
-0.0251809
-0.0268167
-0.0262505
-0.0210527
-0.0205967
-0.00691709
-0.00793688
-0.0083125
-0.00793211
-0.00785392
-0.00776519
-0.00783681
-0.00808009
-0.00852718
-0.0092207
-0.0102145
-0.0115934
-0.0134034
-0.0157525
-0.0183134
-0.0209848
-0.021827
-0.020956
-0.0158995
-0.0138478
0.0108004
-0.0113024
-0.00871895
-0.00797361
-0.00725434
-0.00707582
-0.00716719
-0.00747519
-0.00796094
-0.00864997
-0.00956446
-0.0107928
-0.0123333
-0.014284
-0.0162536
-0.01815
-0.0182555
-0.0167075
-0.00995098
-0.0011203
0.0421047
-0.00787516
-0.01079
-0.00954407
-0.00941177
-0.00883557
-0.00851366
-0.00839775
-0.0085103
-0.00890738
-0.00957065
-0.0106127
-0.0119673
-0.0138438
-0.0157866
-0.0179256
-0.0178628
-0.0155058
-0.00194939
0.0222739
0.0987588
-0.0331193
-0.00793856
-0.00624053
-0.00537201
-0.00508536
-0.00522594
-0.00567489
-0.00624652
-0.00703383
-0.00795528
-0.00923073
-0.0106752
-0.0124478
-0.0137649
-0.0142897
-0.0103804
0.000661246
0.034544
0.0997026
0.229781
)
;

boundaryField
{
    movingWall
    {
        type            zeroGradient;
    }
    fixedWalls
    {
        type            zeroGradient;
    }
    frontAndBack
    {
        type            empty;
    }
}


// ************************************************************************* //
