/*--------------------------------*- C++ -*----------------------------------*\
  =========                 |
  \\      /  F ield         | OpenFOAM: The Open Source CFD Toolbox
   \\    /   O peration     | Website:  https://openfoam.org
    \\  /    A nd           | Version:  10
     \\/     M anipulation  |
\*---------------------------------------------------------------------------*/
FoamFile
{
    format      ascii;
    class       volScalarField;
    location    "5";
    object      p;
}
// * * * * * * * * * * * * * * * * * * * * * * * * * * * * * * * * * * * * * //

dimensions      [0 2 -2 0 0 0 0];

internalField   nonuniform List<scalar> 
400
(
2.39513e-09
-2.41052e-05
7.85561e-06
7.28203e-05
0.000176992
0.000321272
0.000506779
0.000734562
0.00100487
0.0013165
0.0016661
0.00204732
0.00244996
0.00285997
0.00325871
0.00362364
0.00392945
0.00415102
0.00428246
0.00427029
2.48578e-05
-6.86328e-08
3.47234e-05
9.8684e-05
0.000199572
0.000338978
0.000518489
0.000739538
0.00100275
0.00130736
0.00165051
0.00202619
0.0024249
0.00283335
0.00323284
0.00360065
0.00391076
0.00413758
0.00427653
0.00426275
-1.15013e-05
-4.22916e-05
-9.12183e-06
5.18194e-05
0.000149103
0.000284582
0.000460323
0.000678449
0.000940417
0.0012464
0.0015945
0.00198004
0.00239511
0.00282522
0.00325134
0.0036488
0.00398796
0.00423797
0.00439241
0.00437197
-8.8669e-05
-0.000123947
-9.32228e-05
-3.64882e-05
5.57618e-05
0.000185801
0.000356453
0.000570899
0.000831903
0.00114122
0.00149873
0.00190163
0.00234225
0.00280871
0.00328053
0.00372965
0.00412003
0.00441191
0.00459486
0.00457102
-0.000212305
-0.000252111
-0.00022486
-0.000173648
-8.79423e-05
3.5074e-05
0.000199201
0.000408995
0.000669013
0.000983193
0.00135398
0.00178097
0.00225957
0.00277876
0.00331775
0.00384468
0.00431517
0.00467448
0.00490404
0.00487946
-0.000382084
-0.000427141
-0.00040452
-0.000360556
-0.000283628
-0.000170315
-1.56841e-05
0.00018647
0.000442928
0.000760524
0.00114519
0.00160048
0.00212618
0.00271463
0.00334554
0.00398322
0.00457238
0.00503654
0.00534034
0.00532035
-0.000597241
-0.00064862
-0.000631989
-0.000597567
-0.000532613
-0.00043313
-0.000292994
-0.000104179
0.000142704
0.000458094
0.000852717
0.00133594
0.00191327
0.00258478
0.00333374
0.00412249
0.00488321
0.00550987
0.00593284
0.00593247
-0.000857086
-0.000916095
-0.00090703
-0.000884996
-0.000836181
-0.000756191
-0.000637836
-0.000471285
-0.00024437
5.74827e-05
0.000450925
0.000953167
0.00157822
0.00234066
0.00323151
0.00421806
0.00522178
0.00610077
0.00672009
0.00678156
-0.00116074
-0.00122882
-0.00122892
-0.00122246
-0.00119472
-0.0011413
-0.00105434
-0.000922551
-0.000731222
-0.000461576
-9.02923e-05
0.000410351
0.0010711
0.00190969
0.00295343
0.00418369
0.00552205
0.00679128
0.00774774
0.00798315
-0.00150713
-0.0015857
-0.00159622
-0.00160839
-0.00160696
-0.00158815
-0.00154415
-0.00146307
-0.00132856
-0.00111855
-0.000803799
-0.000346506
0.000299089
0.00118103
0.00236086
0.00385633
0.00562814
0.00749488
0.00905588
0.00974819
-0.00189521
-0.00198553
-0.00200665
-0.00203961
-0.00206914
-0.00209298
-0.00210448
-0.00209253
-0.00204101
-0.00192686
-0.00171748
-0.00136728
-0.00081338
2.69712e-05
0.00122763
0.00292289
0.0051727
0.00790984
0.0105702
0.0122931
-0.00232482
-0.00242754
-0.00245721
-0.00251102
-0.0025743
-0.0026474
-0.00272618
-0.00280209
-0.00286191
-0.00288577
-0.00284405
-0.00269224
-0.00236276
-0.00175467
-0.000738786
0.000826051
0.0033152
0.007044
0.0114877
0.0152008
-0.00279836
-0.00291304
-0.00294528
-0.0030162
-0.00311203
-0.00323725
-0.00339188
-0.00357172
-0.00376967
-0.00397454
-0.00416873
-0.00432464
-0.00439895
-0.00432636
-0.00402114
-0.00334085
-0.00181164
0.00196044
0.00811098
0.0151671
-0.0033202
-0.00343822
-0.00345669
-0.00353434
-0.00365869
-0.00383695
-0.00407179
-0.00436513
-0.00471909
-0.00513643
-0.00562173
-0.00618388
-0.00684374
-0.0076583
-0.00880618
-0.0105403
-0.0125812
-0.0112489
-0.00471279
0.00684955
-0.00392406
-0.00405792
-0.00404996
-0.00412669
-0.00425854
-0.00446562
-0.00475999
-0.00515301
-0.00565857
-0.00629748
-0.00710542
-0.00814435
-0.00954342
-0.0115471
-0.0147691
-0.0200871
-0.0282375
-0.0311652
-0.0253557
-0.00820807
-0.0046886
-0.00462202
-0.00451192
-0.00451041
-0.00463786
-0.00489482
-0.00527835
-0.00579196
-0.0064526
-0.00729245
-0.00837501
-0.00981806
-0.0118741
-0.014921
-0.0200875
-0.0281539
-0.0416149
-0.048428
-0.0445743
-0.0202929
-0.00517166
-0.0056064
-0.00536243
-0.00542574
-0.00548708
-0.00567821
-0.00601413
-0.00651794
-0.00721482
-0.00813751
-0.00935888
-0.0109918
-0.0133877
-0.0168648
-0.023072
-0.0315588
-0.0465282
-0.0533802
-0.0496108
-0.0135259
-0.00850047
-0.00598411
-0.00543288
-0.00496102
-0.00499646
-0.00529898
-0.00581009
-0.00648406
-0.00733511
-0.00837317
-0.00969016
-0.0113302
-0.0137197
-0.0170495
-0.022673
-0.0302625
-0.0413013
-0.0445428
-0.0334683
0.0191044
-0.00528819
-0.00823284
-0.00727721
-0.00739978
-0.00709902
-0.00702547
-0.00715299
-0.00751461
-0.00814362
-0.00898981
-0.0101507
-0.011601
-0.0137906
-0.0167646
-0.0218426
-0.0278326
-0.0354577
-0.0284957
-0.000883112
0.0832678
-0.0302585
-0.00527932
-0.00396931
-0.00332915
-0.00325266
-0.00363387
-0.00436711
-0.0052031
-0.00626155
-0.00741737
-0.00890011
-0.0106678
-0.013066
-0.0159148
-0.0194135
-0.0206825
-0.0167667
0.0126564
0.0829887
0.221567
)
;

boundaryField
{
    movingWall
    {
        type            zeroGradient;
    }
    fixedWalls
    {
        type            zeroGradient;
    }
    frontAndBack
    {
        type            empty;
    }
}


// ************************************************************************* //
