/*--------------------------------*- C++ -*----------------------------------*\
  =========                 |
  \\      /  F ield         | OpenFOAM: The Open Source CFD Toolbox
   \\    /   O peration     | Website:  https://openfoam.org
    \\  /    A nd           | Version:  10
     \\/     M anipulation  |
\*---------------------------------------------------------------------------*/
FoamFile
{
    format      ascii;
    class       volScalarField;
    location    "4.475";
    object      p;
}
// * * * * * * * * * * * * * * * * * * * * * * * * * * * * * * * * * * * * * //

dimensions      [0 2 -2 0 0 0 0];

internalField   nonuniform List<scalar> 
8000
(
-2.70487e-06
-1.75103e-05
1.12899e-05
6.82087e-05
0.000158541
0.000282854
0.000441644
0.000634952
0.000861854
0.00112022
0.00140617
0.00171361
0.00203371
0.00235479
0.00266267
0.00294113
0.00317305
0.00334229
0.00344565
0.00344974
4.5268e-06
-8.89192e-06
2.13115e-05
7.70838e-05
0.000165044
0.000286136
0.000441134
0.000630374
0.000853285
0.00110801
0.00139094
0.00169602
0.0020149
0.00233651
0.00264631
0.00292779
0.00316332
0.00333619
0.00344392
0.00344724
-3.61518e-05
-5.21966e-05
-2.30191e-05
3.07205e-05
0.000116335
0.000235007
0.000387892
0.000575819
0.000798813
0.00105564
0.00134327
0.00165662
0.00198768
0.00232472
0.0026528
0.00295408
0.00320872
0.00339696
0.00351533
0.00351688
-0.00011226
-0.000130778
-0.000103325
-5.24798e-05
2.98526e-05
0.000145206
0.000295335
0.000481839
0.000705651
0.000966578
0.0012627
0.00158966
0.00194012
0.00230314
0.00266255
0.0029982
0.0032864
0.00350217
0.00363983
0.00364228
-0.000230115
-0.000251541
-0.000226573
-0.000179519
-0.000101396
9.76441e-06
0.000156483
0.000341384
0.000566654
0.000833575
0.00114184
0.00148864
0.00186736
0.00226796
0.00267331
0.00306038
0.0034003
0.00365974
0.00382841
0.00383448
-0.000391067
-0.000416058
-0.000394409
-0.000352345
-0.000279891
-0.000174591
-3.3017e-05
0.000148705
0.00037437
0.000647211
0.000969143
0.00133964
0.00175414
0.00220417
0.00267196
0.00313128
0.00354632
0.00387171
0.00408836
0.00410281
-0.000596408
-0.000625773
-0.000608427
-0.000572964
-0.00050833
-0.000411584
-0.000278316
-0.000103221
0.000119433
0.000395387
0.00072963
0.0011252
0.00158167
0.00208997
0.00263739
0.00319365
0.0037145
0.00413799
0.00442852
0.00446157
-0.000847695
-0.000882367
-0.000870451
-0.000843598
-0.000789643
-0.000705277
-0.000585131
-0.000422395
-0.000209172
6.32684e-05
0.000403848
0.000820397
0.00131728
0.00189202
0.00253588
0.0032173
0.00388363
0.00445207
0.00485761
0.00493241
-0.0011468
-0.00118775
-0.00118239
-0.0011664
-0.00112657
-0.0010595
-0.000959037
-0.000816986
-0.000623259
-0.000365874
-3.12805e-05
0.000394624
0.000923811
0.00156004
0.00231431
0.00314966
0.00401049
0.0047918
0.00537856
0.00554906
-0.00149618
-0.00154431
-0.0015463
-0.0015433
-0.00152129
-0.00147722
-0.00140457
-0.00129415
-0.00113402
-0.000909081
-0.000600904
-0.000187822
0.000354159
0.00105068
0.00189736
0.00290245
0.00401027
0.00509876
0.00597325
0.00635892
-0.00189949
-0.00195532
-0.00196454
-0.00197588
-0.00197498
-0.00195976
-0.00192404
-0.00185836
-0.00174978
-0.0015811
-0.00132991
-0.000967642
-0.000459268
0.000235132
0.00115949
0.00232267
0.00371766
0.00523373
0.00656981
0.00742459
-0.00236281
-0.00242591
-0.00244026
-0.00246546
-0.00248741
-0.00250593
-0.00251606
-0.00250911
-0.00247265
-0.00238942
-0.00223555
-0.00197804
-0.00157141
-0.00095546
-6.36789e-05
0.00118922
0.00284025
0.00488588
0.00691217
0.00878331
-0.00289719
-0.0029647
-0.00297834
-0.00301317
-0.00305648
-0.00311104
-0.00317406
-0.00323868
-0.00329492
-0.00332862
-0.00331953
-0.00323804
-0.00303992
-0.00265801
-0.00199578
-0.000901232
0.000842379
0.00337975
0.00637393
0.0101829
-0.00352302
-0.00358427
-0.00358299
-0.00361689
-0.00367602
-0.00376585
-0.00388518
-0.00403012
-0.00419529
-0.00437332
-0.00455384
-0.00472086
-0.00484906
-0.00489148
-0.00476451
-0.00428759
-0.00307727
-0.000397182
0.00347198
0.0107186
-0.00428153
-0.00433008
-0.00429899
-0.00431945
-0.00437569
-0.00448201
-0.00464396
-0.00486317
-0.00514083
-0.00547948
-0.0058852
-0.00636789
-0.00694601
-0.00763054
-0.00842469
-0.00917342
-0.00945667
-0.00718619
-0.00204073
0.00995872
-0.00532105
-0.00514501
-0.0050029
-0.00493621
-0.00497163
-0.00510763
-0.00533538
-0.0056475
-0.00604699
-0.00654453
-0.00716788
-0.00796174
-0.00901082
-0.0103952
-0.0122828
-0.0144311
-0.0167465
-0.0150806
-0.010063
0.00770804
-0.00630334
-0.00642815
-0.00616514
-0.006096
-0.00604741
-0.00610332
-0.00627574
-0.00657092
-0.00700194
-0.00758339
-0.00835894
-0.0093886
-0.0108475
-0.0128292
-0.0158039
-0.019256
-0.0246826
-0.0251828
-0.0208004
0.00581978
-0.0101241
-0.00731916
-0.00676399
-0.00618263
-0.0060454
-0.00614695
-0.0064381
-0.00686853
-0.00743729
-0.00814574
-0.00906962
-0.0102118
-0.0119403
-0.0141384
-0.0178519
-0.0220527
-0.0297686
-0.031201
-0.0258607
0.0154172
-0.00993622
-0.0107864
-0.00944322
-0.00906548
-0.00847626
-0.00813939
-0.00803923
-0.00816471
-0.00851391
-0.00906395
-0.00987173
-0.0109501
-0.0126229
-0.0148262
-0.0187662
-0.023222
-0.0308996
-0.0283099
-0.0143756
0.0547523
-0.0342367
-0.00887525
-0.00743533
-0.00613895
-0.00554491
-0.0055928
-0.00599723
-0.00653498
-0.00724279
-0.00803972
-0.00913697
-0.0103575
-0.0122224
-0.0141872
-0.0170936
-0.0180861
-0.017129
0.00217266
0.04581
0.157363
-2.28035e-06
-2.47565e-05
3.26552e-06
5.96624e-05
0.000150327
0.000275593
0.000435643
0.000630557
0.000859582
0.00112054
0.00140946
0.0017201
0.00204395
0.00236912
0.00268115
0.00296344
0.00319812
0.00336769
0.00346924
0.00345999
1.70854e-05
-5.34263e-06
2.46442e-05
7.97548e-05
0.000167443
0.000288417
0.000443378
0.000632708
0.000855902
0.00111116
0.00139493
0.00170108
0.00202179
0.00234533
0.00265727
0.0029409
0.00317788
0.00335042
0.00345696
0.00344599
-1.98034e-05
-4.66529e-05
-1.7819e-05
3.50643e-05
0.000120271
0.000238671
0.000391353
0.000579212
0.000802328
0.00105955
0.00134795
0.00166254
0.00199521
0.00233433
0.00266488
0.00296872
0.00322519
0.0034132
0.00353029
0.00351481
-9.29322e-05
-0.000123257
-9.61463e-05
-4.62534e-05
3.55793e-05
0.00015054
0.000300322
0.000486606
0.000710418
0.000971674
0.00126852
0.00159652
0.0019492
0.00231469
0.00267708
0.00301586
0.00330641
0.0035221
0.00365836
0.00364112
-0.000208568
-0.0002427
-0.000218034
-0.000171945
-9.43098e-05
1.64741e-05
0.000162874
0.000347603
0.000572959
0.000840368
0.00114971
0.00149859
0.00187947
0.00228323
0.00269257
0.00308398
0.00342729
0.003687
0.00385406
0.00383715
-0.000367326
-0.000406031
-0.000384598
-0.00034346
-0.000271419
-0.0001664
-2.50215e-05
0.000156693
0.000382667
0.000656303
0.000979729
0.00135263
0.00177069
0.0022252
0.00269872
0.00316442
0.00358481
0.00391136
0.00412618
0.00411341
-0.000570102
-0.000614381
-0.000597125
-0.000562521
-0.0004982
-0.000401611
-0.000268372
-9.30554e-05
0.000130222
0.000407403
0.00074371
0.00114235
0.0016029
0.00211915
0.00267528
0.00324152
0.00377142
0.00419831
0.00448708
0.00448788
-0.000818281
-0.000869308
-0.000857322
-0.000831256
-0.000777514
-0.00069318
-0.000572884
-0.000409664
-0.000195433
7.88033e-05
0.000422335
0.000843443
0.00134726
0.00193292
0.00258993
0.00328754
0.00397
0.00454755
0.00495238
0.00499115
-0.00111358
-0.00117262
-0.001167
-0.00115173
-0.00111205
-0.00104492
-0.000944152
-0.00080136
-0.000606209
-0.000346345
-7.62826e-06
0.000424845
0.000964904
0.00161921
0.00239138
0.00325339
0.00414376
0.00494738
0.00553863
0.00567781
-0.00145823
-0.00152653
-0.00152805
-0.00152578
-0.00150392
-0.00145978
-0.00138676
-0.00127542
-0.00111348
-0.000885359
-0.000571804
-0.00014993
0.000404919
0.00111464
0.00200128
0.00305349
0.00421657
0.00535673
0.00625657
0.00665567
-0.00185551
-0.00193409
-0.00194261
-0.0019548
-0.00195419
-0.00193906
-0.00190308
-0.00183646
-0.00172587
-0.00155346
-0.00129576
-0.00092255
-0.000397892
0.000311124
0.00129426
0.00253728
0.0040326
0.00565924
0.0070813
0.00812585
-0.00231072
-0.00239993
-0.00241334
-0.00243971
-0.00246239
-0.00248147
-0.00249175
-0.00248419
-0.00244587
-0.0023587
-0.00219736
-0.00192607
-0.00149314
-0.000820829
0.000117845
0.00146633
0.00328293
0.00553838
0.00781912
0.0103811
-0.0028334
-0.00293216
-0.00294483
-0.0029816
-0.00302635
-0.00308223
-0.00314617
-0.00321103
-0.00326619
-0.00329658
-0.00328033
-0.00318473
-0.00295976
-0.00252939
-0.00179452
-0.000616342
0.00131758
0.00419598
0.00760868
0.0129533
-0.0034391
-0.00353729
-0.00353398
-0.0035714
-0.00363482
-0.00372917
-0.00385229
-0.00399967
-0.00416553
-0.00434171
-0.00451636
-0.00467078
-0.00477595
-0.00478209
-0.0046136
-0.00411815
-0.0029356
-0.000415216
0.00312709
0.0127173
-0.00416609
-0.00427561
-0.00424376
-0.00427296
-0.00433482
-0.00444618
-0.00461233
-0.00483494
-0.00511484
-0.00545361
-0.00585698
-0.00633372
-0.00690339
-0.00759747
-0.00850085
-0.00968095
-0.0108984
-0.00968518
-0.00706103
0.00759362
-0.00512716
-0.00501506
-0.00488205
-0.0048302
-0.00488574
-0.00504014
-0.00528358
-0.00560934
-0.00601953
-0.00652257
-0.0071477
-0.00793977
-0.0089936
-0.0104427
-0.0126262
-0.0157799
-0.0202587
-0.0213475
-0.020682
-0.000748255
-0.00591108
-0.00626281
-0.00600877
-0.00600078
-0.00598346
-0.00606706
-0.00625938
-0.00657233
-0.00701246
-0.0075977
-0.00837085
-0.00939478
-0.0108503
-0.0129075
-0.0162825
-0.0209546
-0.0292882
-0.0337864
-0.034811
-0.00481214
-0.00953561
-0.006898
-0.00638198
-0.00587112
-0.00584098
-0.00603052
-0.00638962
-0.00686495
-0.00746136
-0.00817787
-0.00909095
-0.0102167
-0.0118888
-0.0140487
-0.0181069
-0.0233682
-0.0330445
-0.0382326
-0.0374698
0.011585
-0.00713467
-0.00967129
-0.00874766
-0.0087772
-0.00841165
-0.00822798
-0.00821169
-0.00837742
-0.00874495
-0.00927874
-0.0100577
-0.0110299
-0.0126161
-0.0146648
-0.0187873
-0.0239753
-0.0324581
-0.0320577
-0.0164382
0.0627279
-0.0318474
-0.00691631
-0.0058137
-0.00509025
-0.00487411
-0.0051256
-0.00569351
-0.0063238
-0.00713223
-0.00793704
-0.00907437
-0.0102339
-0.0120755
-0.0140944
-0.0170018
-0.0184053
-0.0167059
0.00471022
0.0598443
0.188712
3.05244e-06
-2.27313e-05
4.7558e-06
6.07291e-05
0.000151558
0.000277177
0.000437971
0.000633998
0.000864473
0.0011273
0.00141862
0.00173228
0.00205945
0.00238826
0.002704
0.00298967
0.00322679
0.00339698
0.00349766
0.00348203
2.80616e-05
1.44112e-06
3.1091e-05
8.55443e-05
0.000172947
0.000293851
0.000448961
0.000638706
0.000862634
0.00111902
0.00140437
0.00171264
0.00203592
0.00236238
0.00267739
0.00296389
0.00320296
0.00337603
0.00348203
0.00346491
-5.95028e-06
-3.77953e-05
-9.37779e-06
4.271e-05
0.00012749
0.000245667
0.000398339
0.000586464
0.000810211
0.00106852
0.00135853
0.00167537
0.00201089
0.00235336
0.00268754
0.00299491
0.00325405
0.00344293
0.00355958
0.00353692
-7.62629e-05
-0.000112089
-8.54214e-05
-3.64307e-05
4.48714e-05
0.000159504
0.000309181
0.000495664
0.00072008
0.000982461
0.00128108
0.00161173
0.00196776
0.00233737
0.00270436
0.00304773
0.00334196
0.00355919
0.00369531
0.00366985
-0.000189336
-0.000229403
-0.000205168
-0.000160033
-8.29597e-05
2.74814e-05
0.000173791
0.00035879
0.000584906
0.000853717
0.00116523
0.00151693
0.00190261
0.00231185
0.00272746
0.00312536
0.00347422
0.00373674
0.00390426
0.0038778
-0.000345355
-0.00039044
-0.000369393
-0.000329225
-0.00025774
-0.000153033
-1.16664e-05
0.000170473
0.000397481
0.000672976
0.000999318
0.00137662
0.00180037
0.00226236
0.00274477
0.00322008
0.00364921
0.00398096
0.00419752
0.00417358
-0.000544889
-0.000596055
-0.000579115
-0.000545497
-0.000481727
-0.000385423
-0.00025211
-7.61842e-05
0.000148467
0.000428092
0.0007683
0.00117268
0.00164092
0.00216769
0.0027367
0.00331753
0.00386163
0.0042983
0.00459144
0.0045797
-0.000789046
-0.000847579
-0.000835834
-0.0008108
-0.000757651
-0.000673627
-0.000553222
-0.000389246
-0.000173313
0.000103976
0.000452417
0.000880813
0.00139522
0.00199585
0.00267155
0.00339153
0.00409738
0.00469347
0.00510798
0.00513507
-0.00107923
-0.00114654
-0.0011411
-0.00112699
-0.00108805
-0.00102137
-0.00092059
-0.000777023
-0.000579951
-0.00031648
2.82806e-05
0.000470279
0.00102389
0.0016996
0.00249809
0.00339409
0.00432286
0.00516129
0.00577325
0.0059102
-0.00141726
-0.00149478
-0.00149647
-0.0014956
-0.00147481
-0.00143149
-0.00135879
-0.0012469
-0.00108309
-0.000851088
-0.000530588
-9.72207e-05
0.000476218
0.00121199
0.00213536
0.00323834
0.00446355
0.0056677
0.00661282
0.00703921
-0.00180574
-0.00189474
-0.0019035
-0.00191757
-0.00191865
-0.00190506
-0.00187012
-0.00180362
-0.00169169
-0.00151565
-0.00125075
-0.000864678
-0.00031744
0.000436092
0.00145552
0.00276823
0.00435935
0.00609958
0.00762224
0.00877617
-0.0022489
-0.00235005
-0.00236391
-0.00239304
-0.00241851
-0.0024404
-0.00245305
-0.00244695
-0.00240859
-0.00231899
-0.00215155
-0.00186839
-0.00141544
-0.000719324
0.00028969
0.00172323
0.00366917
0.00610956
0.00859796
0.0113614
-0.00275454
-0.00286744
-0.00288112
-0.00292219
-0.00297149
-0.00303216
-0.00310059
-0.00316919
-0.0032267
-0.00325723
-0.00323769
-0.00313362
-0.00289198
-0.00243377
-0.00165453
-0.000408189
0.0016361
0.00474017
0.00844823
0.0140247
-0.00333421
-0.00344839
-0.00344677
-0.00349098
-0.00356243
-0.0036655
-0.00379714
-0.00395219
-0.00412433
-0.00430476
-0.00448078
-0.00463368
-0.00473415
-0.00473467
-0.00457479
-0.00414743
-0.00310448
-0.000554677
0.00319317
0.0128582
-0.00402358
-0.00415677
-0.00412813
-0.00416975
-0.00424409
-0.00436851
-0.00454748
-0.00478243
-0.00507373
-0.00542287
-0.00583489
-0.00632223
-0.00690798
-0.00764227
-0.00867004
-0.0101805
-0.0119779
-0.0112623
-0.00853723
0.00573103
-0.004922
-0.00483578
-0.00470978
-0.00467422
-0.00475064
-0.00492756
-0.00519378
-0.00554143
-0.00597146
-0.00649502
-0.00713771
-0.007949
-0.00903549
-0.0105653
-0.0129875
-0.0167451
-0.0224622
-0.0247365
-0.023738
-0.00437279
-0.00557247
-0.00597876
-0.00574279
-0.00577835
-0.00579654
-0.00591708
-0.00614591
-0.00649369
-0.00696958
-0.0075844
-0.00837937
-0.00942238
-0.0109052
-0.0130391
-0.0166813
-0.021933
-0.0314313
-0.0368466
-0.0367176
-0.00668176
-0.00914489
-0.00653857
-0.00600646
-0.00552255
-0.00554561
-0.00579818
-0.00622018
-0.00675462
-0.0074051
-0.00816165
-0.00909835
-0.0102351
-0.0118992
-0.0141063
-0.0182474
-0.0239621
-0.0334956
-0.0382431
-0.0335592
0.0136468
-0.00604837
-0.00883376
-0.00803036
-0.00818353
-0.00791864
-0.00783319
-0.00791361
-0.00818916
-0.0086518
-0.00925493
-0.0100762
-0.0110508
-0.0126222
-0.0146937
-0.0188407
-0.0242721
-0.031984
-0.0294138
-0.00917008
0.0690305
-0.0311122
-0.00610093
-0.00499669
-0.00439061
-0.00430803
-0.00466773
-0.0053362
-0.00605308
-0.00694618
-0.00780984
-0.00898427
-0.0101939
-0.0120013
-0.0141522
-0.0169112
-0.0182492
-0.0154686
0.00894175
0.069895
0.201177
9.77694e-06
-1.80511e-05
8.95824e-06
6.45072e-05
0.000155329
0.000281348
0.000442854
0.000639953
0.000871906
0.00113666
0.00143038
0.00174691
0.00207735
0.00240972
0.00272905
0.00301799
0.00325755
0.00342882
0.00352945
0.0035107
3.76572e-05
8.90135e-06
3.81887e-05
9.21562e-05
0.000179399
0.0003004
0.000455874
0.0006463
0.000871287
0.00112917
0.0014165
0.00172728
0.00205352
0.00238329
0.00270175
0.00299146
0.00323299
0.0034072
0.00351336
0.00349302
5.68373e-06
-2.86139e-05
-6.12361e-07
5.08963e-05
0.00013543
0.000253615
0.000406568
0.000595311
0.00082009
0.00107992
0.00137203
0.0016916
0.00203044
0.00237673
0.002715
0.0030263
0.0032886
0.00347911
0.0035962
0.00356983
-6.23022e-05
-0.000100811
-7.45868e-05
-2.62489e-05
5.4738e-05
0.00016931
0.000319215
0.000506298
0.000731788
0.000995826
0.00129679
0.00163063
0.00199069
0.00236508
0.00273733
0.00308592
0.00338457
0.00360439
0.00374154
0.00371195
-0.000173021
-0.000215993
-0.000192215
-0.000147779
-7.10453e-05
3.93291e-05
0.000185898
0.000371588
0.000598967
0.000869758
0.00118409
0.00153953
0.00193064
0.00234625
0.00276905
0.0031744
0.00352989
0.00379677
0.00396645
0.00393548
-0.00032641
-0.000374645
-0.000354056
-0.000314618
-0.000243477
-0.000138812
2.88989e-06
0.000185884
0.000414449
0.000692425
0.00102237
0.00140408
0.0018354
0.00230605
0.00279859
0.00328487
0.00372438
0.00406364
0.00428448
0.0042559
-0.000522801
-0.000577407
-0.000560925
-0.000528078
-0.000464668
-0.000368392
-0.000234672
-5.77158e-05
0.000168837
0.000451575
0.000796564
0.00120836
0.00168485
0.00222335
0.00280683
0.00340409
0.00396474
0.0044146
0.00471606
0.00470044
-0.000763075
-0.000825395
-0.000814123
-0.000789941
-0.00073722
-0.000653273
-0.000532452
-0.000367327
-0.000149189
0.000131804
0.000486032
0.00092298
0.0014491
0.00206593
0.00276221
0.00350684
0.00423922
0.00485878
0.00528934
0.00531607
-0.00104836
-0.00111987
-0.00111496
-0.00110186
-0.00106351
-0.000997087
-0.000896027
-0.000751351
-0.000551931
-0.000284304
6.72046e-05
0.000519593
0.00108867
0.00178571
0.0026127
0.00354508
0.00451603
0.00539619
0.00603946
0.00618709
-0.00138005
-0.00146229
-0.00146462
-0.00146506
-0.00144521
-0.00140253
-0.00132994
-0.00121727
-0.0010513
-0.000815062
-0.0004872
-4.18953e-05
0.000549878
0.00131263
0.00227404
0.00342892
0.00471956
0.00599654
0.00700487
0.00747045
-0.00176016
-0.00185451
-0.00186414
-0.00188003
-0.00188266
-0.00187043
-0.00183637
-0.00176989
-0.00165654
-0.00147688
-0.00120493
-0.00080655
-0.000239102
0.000547128
0.00161161
0.00299238
0.00467924
0.00654204
0.00819296
0.00945389
-0.00219198
-0.00229928
-0.0023144
-0.00234617
-0.00237422
-0.00239868
-0.00241354
-0.00240891
-0.00237073
-0.00227926
-0.00210674
-0.00181353
-0.00134302
-0.00061845
0.000440875
0.00195023
0.00401707
0.00664543
0.00938381
0.0123567
-0.0026818
-0.00280201
-0.00281765
-0.00286272
-0.00291617
-0.00298123
-0.00305395
-0.00312635
-0.00318673
-0.00321858
-0.00319805
-0.00308959
-0.00283832
-0.00236289
-0.00155547
-0.000265214
0.00187359
0.00519435
0.00932216
0.0152244
-0.0032383
-0.00336104
-0.00336227
-0.00341246
-0.00349072
-0.00360133
-0.00374068
-0.00390318
-0.00408216
-0.00426862
-0.00444968
-0.00460794
-0.00471469
-0.00472717
-0.00459838
-0.00424632
-0.0033306
-0.000804993
0.00342554
0.0133963
-0.00389503
-0.00404092
-0.00401712
-0.00406904
-0.00415388
-0.00428955
-0.00448004
-0.00472657
-0.00502956
-0.00539062
-0.00581693
-0.00632296
-0.00693996
-0.00773706
-0.0089108
-0.0107468
-0.0132116
-0.0130376
-0.00993546
0.00462429
-0.00474202
-0.00467032
-0.00455164
-0.00452922
-0.00462152
-0.00481657
-0.00510211
-0.00546917
-0.00591903
-0.00646239
-0.0071278
-0.00796919
-0.00910928
-0.010748
-0.0134288
-0.0177709
-0.0247628
-0.0281308
-0.0269503
-0.00685427
-0.00530588
-0.00574889
-0.00552164
-0.00558664
-0.00563025
-0.00577817
-0.00603476
-0.00640967
-0.00691136
-0.00755216
-0.00837451
-0.00945003
-0.010989
-0.0132315
-0.0171723
-0.0229739
-0.0336623
-0.0399221
-0.0398672
-0.00789379
-0.00879647
-0.00622301
-0.00569391
-0.00523574
-0.00529117
-0.00558432
-0.0060502
-0.00662599
-0.00731611
-0.00810837
-0.00907656
-0.0102401
-0.0119406
-0.0142309
-0.0185405
-0.0246486
-0.0347053
-0.0394204
-0.0343207
0.0155511
-0.00543857
-0.00837573
-0.00758098
-0.00779999
-0.00758465
-0.00755575
-0.00769459
-0.00802135
-0.00853269
-0.00917902
-0.0100366
-0.011031
-0.0126329
-0.0147393
-0.0189942
-0.0245835
-0.0323176
-0.0289942
-0.00767367
0.0741714
-0.0304925
-0.00547197
-0.00437834
-0.00383198
-0.00382822
-0.00426438
-0.00501002
-0.00579657
-0.00675553
-0.00767562
-0.00889351
-0.0101489
-0.0119734
-0.014182
-0.0169803
-0.018283
-0.0152704
0.0106776
0.0739814
0.209447
1.70353e-05
-1.14894e-05
1.53258e-05
7.06845e-05
0.000161561
0.000287891
0.000449989
0.000648007
0.000881258
0.00114774
0.00144364
0.00176281
0.0020963
0.00243199
0.00275469
0.00304677
0.00328885
0.00346164
0.00356292
0.00354308
4.6132e-05
1.65633e-05
4.5662e-05
9.93977e-05
0.00018664
0.000307866
0.000463831
0.000655067
0.000881241
0.00114074
0.00143018
0.00174355
0.00207282
0.00240595
0.00272789
0.0030209
0.00326513
0.00344105
0.00354806
0.00352673
1.54975e-05
-1.97294e-05
8.05233e-06
5.92787e-05
0.00014377
0.000262147
0.000415572
0.000605132
0.000831146
0.00109271
0.0013871
0.00170957
0.00205187
0.0024021
0.00274454
0.0030599
0.00332566
0.00351847
0.00363681
0.00360938
-5.07292e-05
-9.02612e-05
-6.42798e-05
-1.6269e-05
6.46409e-05
0.00017938
0.000329757
0.000517699
0.000744536
0.00101051
0.00131411
0.00165138
0.00201568
0.00239501
0.00277266
0.00312668
0.00343014
0.00365338
0.00379254
0.0037619
-0.000159456
-0.000203548
-0.00018003
-0.000135954
-5.93137e-05
5.12337e-05
0.000198319
0.000384983
0.000613923
0.000887012
0.00120453
0.00156417
0.00196074
0.00238288
0.00281303
0.00322605
0.00358867
0.00386093
0.004034
0.0040021
-0.000310507
-0.000359966
-0.000339651
-0.000300608
-0.000229572
-0.000124719
1.75664e-05
0.000201684
0.000432097
0.000712861
0.00104678
0.00143398
0.00187226
0.00235164
0.00285442
0.00335184
0.00380221
0.00415018
0.00437682
0.00434777
-0.000504068
-0.000560014
-0.000543831
-0.000511431
-0.000448161
-0.000351707
-0.000217359
-3.91395e-05
0.000189557
0.000475633
0.000825512
0.00124405
0.00172976
0.00228004
0.00287785
0.00349143
0.00406886
0.0045331
0.00484467
0.00482991
-0.000740839
-0.000804634
-0.000793708
-0.00077007
-0.000717582
-0.000633538
-0.000512125
-0.000345679
-0.000125171
0.000159657
0.000519721
0.000965108
0.00150291
0.00213533
0.00285146
0.00361984
0.00437816
0.00502181
0.00547022
0.00550123
-0.0010217
-0.00109485
-0.00109037
-0.00107799
-0.00104008
-0.000973765
-0.000872306
-0.000726432
-0.000524627
-0.000252891
0.000105169
0.000567497
0.00115114
0.00186805
0.00272173
0.00368805
0.00469868
0.00561919
0.00629465
0.00645487
-0.00134771
-0.00143177
-0.0014347
-0.00143615
-0.00141709
-0.00137495
-0.0013024
-0.00118897
-0.00102098
-0.000780813
-0.000446213
9.88692e-06
0.000618172
0.00140504
0.00240073
0.0036022
0.00495202
0.00629587
0.00736432
0.00786072
-0.00172036
-0.00181677
-0.00182727
-0.00184464
-0.00184866
-0.00183767
-0.00180448
-0.00173813
-0.00162371
-0.00144108
-0.00116325
-0.000754581
-0.000170438
0.000642185
0.00174642
0.0031862
0.00495676
0.00692798
0.00869318
0.0100232
-0.00214222
-0.00225188
-0.00226827
-0.00230224
-0.00233258
-0.0023594
-0.00237644
-0.00237348
-0.00233601
-0.00224367
-0.0020678
-0.00176734
-0.00128346
-0.000535708
0.000561758
0.00213437
0.00430436
0.0070958
0.0100463
0.0131376
-0.00261852
-0.0027415
-0.00275905
-0.00280739
-0.00286443
-0.00293344
-0.00301025
-0.00308662
-0.00315051
-0.00318505
-0.00316599
-0.00305678
-0.00280157
-0.00231669
-0.00149092
-0.000169117
0.00204924
0.00556274
0.0100647
0.0161263
-0.00315618
-0.00328216
-0.00328603
-0.00334089
-0.0034246
-0.00354152
-0.00368778
-0.00385752
-0.00404394
-0.00423816
-0.00442829
-0.00459541
-0.00471466
-0.00474597
-0.0046505
-0.00435585
-0.00351938
-0.000959504
0.00380805
0.0139211
-0.00378794
-0.00393864
-0.00391868
-0.00397784
-0.00407062
-0.00421532
-0.00441578
-0.0046732
-0.00498822
-0.00536312
-0.0058062
-0.00633532
-0.0069885
-0.00784817
-0.00914523
-0.0112321
-0.0142239
-0.0143169
-0.0105236
0.00427077
-0.00459852
-0.00453223
-0.00441868
-0.00440502
-0.00450789
-0.00471583
-0.00501619
-0.00539963
-0.00586752
-0.00643133
-0.00712168
-0.00799797
-0.00919634
-0.0109395
-0.0138425
-0.0186322
-0.0265793
-0.0306511
-0.028704
-0.00799081
-0.00511678
-0.00557212
-0.00534683
-0.00542703
-0.00548504
-0.00565011
-0.00592583
-0.00632184
-0.00684622
-0.00751268
-0.0083649
-0.00947949
-0.0110845
-0.0134377
-0.0176461
-0.0238959
-0.0355395
-0.0424216
-0.0413812
-0.00846875
-0.00854398
-0.00598704
-0.00546376
-0.00501882
-0.00508874
-0.00540288
-0.00589432
-0.00649915
-0.00721905
-0.00804303
-0.00904444
-0.0102442
-0.0120024
-0.0143824
-0.0188813
-0.025326
-0.0358967
-0.0406811
-0.0339946
0.01668
-0.00516102
-0.00812311
-0.00730312
-0.00753535
-0.0073318
-0.00732475
-0.00749149
-0.00785082
-0.00839573
-0.00908132
-0.00997647
-0.011002
-0.0126559
-0.0148138
-0.0191997
-0.0249252
-0.0327204
-0.0289132
-0.00555917
0.0771987
-0.0301662
-0.0051301
-0.00402548
-0.00348583
-0.00350576
-0.00397535
-0.00476088
-0.00558957
-0.00659168
-0.00755561
-0.00881313
-0.0101136
-0.0119838
-0.0142614
-0.0171366
-0.0184682
-0.0152518
0.0115551
0.0768636
0.213434
2.3993e-05
-4.77673e-06
2.19476e-05
7.72469e-05
0.000168247
0.000294915
0.000457602
0.000656509
0.000890996
0.0011591
0.00145704
0.00177866
0.00211496
0.00245371
0.00277954
0.00307457
0.00331912
0.00349361
0.00359583
0.00357571
5.36406e-05
2.3797e-05
5.28095e-05
0.000106477
0.000193828
0.000315365
0.00047189
0.000663987
0.000891377
0.0011525
0.00144399
0.00175988
0.00209204
0.00242838
0.00275364
0.00304982
0.00329675
0.00347458
0.00358269
0.00356119
2.39511e-05
-1.15849e-05
1.60983e-05
6.72364e-05
0.000151822
0.000270503
0.000424496
0.000614952
0.000842258
0.00110557
0.00140224
0.00172753
0.00207317
0.00242715
0.00277358
0.00309285
0.00336204
0.00355735
0.00367721
0.00364963
-4.09333e-05
-8.08041e-05
-5.4933e-05
-7.03146e-06
7.396e-05
0.000189004
0.000339975
0.000528885
0.00075715
0.00102511
0.00133134
0.00167197
0.00204034
0.0024244
0.00280719
0.00316641
0.00347459
0.00370143
0.00384289
0.00381223
-0.000148023
-0.000192481
-0.000169086
-0.000125139
-4.8424e-05
6.24425e-05
0.000210176
0.000397921
0.000628502
0.000903927
0.00122462
0.0015884
0.00199014
0.00241844
0.00285553
0.00327582
0.0036453
0.00392302
0.00409972
0.0040681
-0.000297082
-0.000346935
-0.000326761
-0.000287874
-0.000216775
-0.000111591
3.13994e-05
0.000216734
0.000449044
0.000732587
0.0010704
0.00146288
0.00190771
0.00239524
0.00290756
0.00341535
0.00387596
0.00423245
0.00446501
0.00443685
-0.000488201
-0.000544571
-0.00052856
-0.000496365
-0.000433071
-0.000336306
-0.000201226
-2.16813e-05
0.000209157
0.000498465
0.000852974
0.00127782
0.00177214
0.00233327
0.00294422
0.0035727
0.00416555
0.00464337
0.00496475
0.00495217
-0.000721937
-0.000786191
-0.000775498
-0.000752155
-0.00069974
-0.000615474
-0.000493386
-0.000325596
-0.000102791
0.000185657
0.000551123
0.00100422
0.00155266
0.00219915
0.00293308
0.0037227
0.00450422
0.00516971
0.00563468
0.00567067
-0.000998969
-0.00107262
-0.00106848
-0.00105656
-0.00101891
-0.000952586
-0.00085066
-0.000703609
-0.000499568
-0.000224075
0.000139879
0.000611019
0.0012074
0.0019419
0.002819
0.00381492
0.00486006
0.00581577
0.00651973
0.00669086
-0.00132009
-0.00140471
-0.00140814
-0.00141031
-0.00139185
-0.00135008
-0.00127751
-0.00116337
-0.000993577
-0.000749983
-0.000409561
5.57988e-05
0.000678132
0.00148563
0.00251055
0.0037516
0.00515147
0.0065516
0.00767068
0.00818984
-0.00168641
-0.00178346
-0.0017947
-0.00181319
-0.00181831
-0.00180835
-0.00177589
-0.00170972
-0.0015945
-0.00140952
-0.00112697
-0.000709977
-0.000112193
0.000721655
0.00185895
0.00334766
0.00518732
0.00724712
0.00910413
0.0104795
-0.00209997
-0.00221036
-0.00222786
-0.0022635
-0.00229569
-0.00232448
-0.00234343
-0.00234207
-0.00230554
-0.00221299
-0.00203502
-0.00172941
-0.00123546
-0.000469551
0.000657844
0.00228193
0.00453609
0.00745852
0.0105716
0.013738
-0.00256533
-0.00268917
-0.00270832
-0.00275912
-0.00281902
-0.00289127
-0.00297161
-0.00305162
-0.00311904
-0.00315675
-0.00314008
-0.00303206
-0.0027757
-0.00228519
-0.00144569
-9.84329e-05
0.00218781
0.00585906
0.0106509
0.016816
-0.00308849
-0.00321541
-0.00322142
-0.00327967
-0.00336753
-0.00348942
-0.00364138
-0.00381745
-0.00401084
-0.00421272
-0.00441124
-0.00458919
-0.00472188
-0.00477105
-0.00470144
-0.0044433
-0.00364253
-0.00103109
0.00417163
0.0143969
-0.00370217
-0.00385434
-0.00383718
-0.00390119
-0.00399965
-0.00415116
-0.00435957
-0.0046262
-0.00495199
-0.0053399
-0.00579953
-0.00635153
-0.00703896
-0.00795343
-0.00934821
-0.0116185
-0.0149836
-0.0152098
-0.0108316
0.00419059
-0.00448737
-0.00442263
-0.00431257
-0.00430457
-0.00441449
-0.00463149
-0.00494288
-0.00533931
-0.0058225
-0.00640464
-0.00711874
-0.00802884
-0.00928175
-0.0111156
-0.0141983
-0.0193231
-0.0279347
-0.0325158
-0.0299212
-0.00864491
-0.00498279
-0.00544179
-0.0052163
-0.00530383
-0.00536967
-0.00554537
-0.00583406
-0.0062455
-0.00678809
-0.00747631
-0.00835651
-0.00950985
-0.0111798
-0.0136343
-0.0180676
-0.0246768
-0.0370711
-0.0444808
-0.0427187
-0.00896011
-0.00836297
-0.00581454
-0.0052973
-0.00485977
-0.00493644
-0.00526161
-0.0057686
-0.00639247
-0.00713478
-0.007984
-0.00901631
-0.0102534
-0.0120757
-0.0145416
-0.0192296
-0.0259665
-0.0370412
-0.0420316
-0.0344602
0.0171559
-0.00501061
-0.00797279
-0.00712735
-0.00736064
-0.00715593
-0.00715593
-0.00733574
-0.0077138
-0.00828299
-0.0089938
-0.00992114
-0.0109789
-0.0126908
-0.014907
-0.0194296
-0.0252814
-0.0332361
-0.0292477
-0.00478926
0.0789338
-0.0299608
-0.00491853
-0.00380351
-0.00326008
-0.00328586
-0.00376899
-0.00457492
-0.00542781
-0.00645929
-0.00745365
-0.00874887
-0.010088
-0.0120167
-0.014357
-0.0173356
-0.018714
-0.0154682
0.0117799
0.078186
0.215626
3.01534e-05
1.34275e-06
2.8059e-05
8.3393e-05
0.00017456
0.000301564
0.0004648
0.000664511
0.000900101
0.00116965
0.00146938
0.00179315
0.00213191
0.00247333
0.00280191
0.00309956
0.00334636
0.0035225
0.00362573
0.00360565
6.00692e-05
3.01586e-05
5.916e-05
0.000112862
0.000200382
0.000322257
0.000479334
0.000672245
0.000900757
0.00116335
0.0014567
0.00177482
0.00210956
0.00244874
0.00277694
0.00307595
0.00332535
0.00350502
0.00361429
0.00359293
3.10497e-05
-4.55819e-06
2.31083e-05
7.42734e-05
0.000159026
0.000278052
0.00043262
0.000623936
0.000852448
0.00111737
0.00141609
0.00174391
0.00209251
0.00244982
0.00279977
0.00312252
0.00339481
0.0035925
0.00371389
0.00368654
-3.28255e-05
-7.27734e-05
-4.69259e-05
9.9414e-07
8.21518e-05
0.000197553
0.000349136
0.000538983
0.00076859
0.00103838
0.001347
0.00169063
0.00206261
0.00245082
0.00283814
0.00320194
0.00351435
0.00374452
0.0038882
0.00385794
-0.000138613
-0.000183152
-0.00015979
-0.000115837
-3.89563e-05
7.22849e-05
0.000220681
0.000409469
0.000641579
0.000919138
0.00124269
0.00161016
0.00201644
0.00245011
0.00289324
0.00331986
0.00369538
0.00397802
0.00415809
0.00412717
-0.000286047
-0.000335984
-0.00031586
-0.000276986
-0.000205733
-0.000100165
4.35345e-05
0.000230023
0.000464074
0.000750119
0.00109138
0.00148848
0.00193901
0.00243358
0.00295409
0.00347078
0.00394019
0.00430415
0.00454197
0.00451508
-0.000475151
-0.00053161
-0.00051568
-0.000483539
-0.000420128
-0.000323002
-0.000187201
-6.42437e-06
0.000226343
0.000518508