/*--------------------------------*- C++ -*----------------------------------*\
  =========                 |
  \\      /  F ield         | OpenFOAM: The Open Source CFD Toolbox
   \\    /   O peration     | Website:  https://openfoam.org
    \\  /    A nd           | Version:  10
     \\/     M anipulation  |
\*---------------------------------------------------------------------------*/
FoamFile
{
    format      ascii;
    class       surfaceScalarField;
    location    "4.475";
    object      phi;
}
// * * * * * * * * * * * * * * * * * * * * * * * * * * * * * * * * * * * * * //

dimensions      [0 3 -1 0 0 0 0];

internalField   nonuniform List<scalar> 
22800
(
-2.2446e-06
2.58059e-06
-3.3196e-07
-7.39757e-06
5.06016e-06
9.28018e-08
-1.33022e-05
5.64987e-06
2.5473e-07
-1.93053e-05
5.66977e-06
3.33324e-07
-2.51575e-05
5.51748e-06
3.34735e-07
-3.07168e-05
5.27327e-06
2.8607e-07
-3.58503e-05
4.93132e-06
2.02147e-07
-4.04032e-05
4.46831e-06
8.45759e-08
-4.41987e-05
3.85753e-06
-6.20385e-08
-4.70374e-05
3.07484e-06
-2.36105e-07
-4.86935e-05
2.10374e-06
-4.4767e-07
-4.89317e-05
9.39121e-07
-7.00891e-07
-4.75279e-05
-4.3054e-07
-9.73307e-07
-4.43123e-05
-1.95574e-06
-1.25983e-06
-3.91943e-05
-3.57705e-06
-1.54092e-06
-3.22205e-05
-5.18832e-06
-1.7855e-06
-2.36539e-05
-6.62675e-06
-1.9399e-06
-1.41224e-05
-7.60581e-06
-1.92565e-06
-4.96293e-06
-7.46893e-06
-1.69055e-06
-4.23279e-06
-7.30141e-07
-4.68019e-06
8.35458e-06
-1.0938e-06
-1.34541e-05
1.45543e-05
-7.2023e-07
-2.32248e-05
1.59638e-05
-5.43281e-07
-3.30364e-05
1.58832e-05
-4.01797e-07
-4.24905e-05
1.53013e-05
-3.29687e-07
-5.13407e-05
1.44252e-05
-3.01774e-07
-5.93643e-05
1.32584e-05
-3.03492e-07
-6.63237e-05
1.1762e-05
-3.34316e-07
-7.19574e-05
9.88868e-06
-3.97509e-07
-7.59783e-05
7.59279e-06
-4.96978e-07
-7.80724e-05
4.83321e-06
-6.35416e-07
-7.79522e-05
1.63085e-06
-8.11933e-07
-7.53239e-05
-2.02442e-06
-1.03438e-06
-6.99506e-05
-6.0557e-06
-1.27339e-06
-6.17403e-05
-1.02719e-05
-1.51538e-06
-5.07888e-05
-1.44152e-05
-1.72469e-06
-3.74936e-05
-1.8087e-05
-1.83498e-06
-2.27646e-05
-2.05782e-05
-1.75658e-06
-8.50162e-06
-2.02872e-05
-1.44469e-06
-1.24023e-05
-3.32163e-07
-5.43262e-06
1.52381e-05
-1.45088e-06
-1.54121e-05
2.56493e-05
-1.11549e-06
-2.64469e-05
2.79289e-05
-9.30299e-07
-3.74855e-05
2.76821e-05
-7.60384e-07
-4.81006e-05
2.65711e-05
-6.54657e-07
-5.80298e-05
2.49433e-05
-5.88866e-07
-6.7035e-05
2.28141e-05
-5.50464e-07
-7.48629e-05
2.01304e-05
-5.40559e-07
-8.12334e-05
1.68245e-05
-5.65314e-07
-8.5838e-05
1.28287e-05
-6.31238e-07
-8.83523e-05
8.08982e-06
-7.42361e-07
-8.84109e-05
2.59481e-06
-9.05369e-07
-8.56582e-05
-3.66651e-06
-1.11058e-06
-7.98211e-05
-1.05404e-05
-1.35234e-06
-7.07371e-05
-1.77477e-05
-1.60825e-06
-5.84516e-05
-2.48638e-05
-1.83694e-06
-4.33597e-05
-3.12192e-05
-1.95964e-06
-2.64666e-05
-3.56009e-05
-1.8704e-06
-9.95573e-06
-3.52777e-05
-1.52039e-06
-2.20813e-05
-2.76644e-07
-5.69581e-06
2.26732e-05
-1.73927e-06
-1.62329e-05
3.76315e-05
-1.44503e-06
-2.78775e-05
4.08314e-05
-1.25793e-06
-3.9538e-05
4.04118e-05
-1.06912e-06
-5.07868e-05
3.8761e-05
-9.41103e-07
-6.13686e-05
3.63758e-05
-8.50772e-07
-7.10521e-05
3.32847e-05
-7.87047e-07
-7.95865e-05
2.9418e-05
-7.53168e-07
-8.66875e-05
2.46818e-05
-7.563e-07
-9.20299e-05
1.89758e-05
-8.04652e-07
-9.52469e-05
1.22128e-05
-9.05951e-07
-9.59409e-05
4.35479e-06
-1.06605e-06
-9.36639e-05
-4.6438e-06
-1.2997e-06
-8.79941e-05
-1.46362e-05
-1.57403e-06
-7.86363e-05
-2.52317e-05
-1.87377e-06
-6.55119e-05
-3.58362e-05
-2.15193e-06
-4.89608e-05
-4.54547e-05
-2.31565e-06
-3.0073e-05
-5.22548e-05
-2.2339e-06
-1.13579e-05
-5.21494e-05
-1.8434e-06
-3.3036e-05
-4.03275e-07
-5.89763e-06
3.05711e-05
-2.00034e-06
-1.69483e-05
5.0422e-05
-1.73982e-06
-2.91845e-05
5.46197e-05
-1.5521e-06
-4.14733e-05
5.40509e-05
-1.35026e-06
-5.33906e-05
5.18873e-05
-1.20907e-06
-6.4697e-05
4.87885e-05
-1.10613e-06
-7.51786e-05
4.47978e-05
-1.03156e-06
-8.45973e-05
3.98272e-05
-9.90458e-07
-9.26717e-05
3.37487e-05
-9.92397e-07
-9.90624e-05
2.64151e-05
-1.04854e-06
-0.000103361
1.76805e-05
-1.16929e-06
-0.000105085
7.44087e-06
-1.36161e-06
-0.000103685
-4.39182e-06
-1.65228e-06
-9.8542e-05
-1.77769e-05
-2.00235e-06
-8.91373e-05
-3.22383e-05
-2.3982e-06
-7.51594e-05
-4.70315e-05
-2.78264e-06
-5.67933e-05
-6.0784e-05
-3.03668e-06
-3.52119e-05
-7.08473e-05
-2.98894e-06
-1.34078e-05
-7.14089e-05
-2.54455e-06
-4.56723e-05
-7.71477e-07
-6.14331e-06
3.89978e-05
-2.2834e-06
-1.78144e-05
6.41476e-05
-2.05456e-06
-3.07703e-05
6.94426e-05
-1.86697e-06
-4.38234e-05
6.87582e-05
-1.65412e-06
-5.65551e-05
6.61225e-05
-1.50352e-06
-6.875e-05
6.23769e-05
-1.39359e-06
-8.02215e-05
5.75851e-05
-1.31591e-06
-9.07568e-05
5.16403e-05
-1.27784e-06
-0.000100091
4.43743e-05
-1.29172e-06
-0.00010788
3.55765e-05
-1.3726e-06
-0.000113677
2.50144e-05
-1.53625e-06
-0.000116909
1.24736e-05
-1.80053e-06
-0.000116899
-2.2175e-06
-2.18445e-06
-0.000112748
-1.92629e-05
-2.66553e-06
-0.000103602
-3.81551e-05
-3.22901e-06
-8.87655e-05
-5.80631e-05
-3.8048e-06
-6.81094e-05
-7.72053e-05
-4.23477e-06
-4.28078e-05
-9.18717e-05
-4.27718e-06
-1.65455e-05
-9.38996e-05
-3.77158e-06
-6.07403e-05
-1.47745e-06
-6.44904e-06
4.80723e-05
-2.6254e-06
-1.88751e-05
7.9008e-05
-2.43435e-06
-3.2697e-05
8.55116e-05
-2.24717e-06
-4.66573e-05
8.47396e-05
-2.02111e-06
-6.03464e-05
8.16705e-05
-1.85899e-06
-7.35829e-05
7.73542e-05
-1.74082e-06
-8.6222e-05
7.18849e-05
-1.66064e-06
-9.80945e-05
6.51418e-05
-1.62895e-06
-0.000108973
5.69148e-05
-1.66205e-06
-0.000118534
4.69182e-05
-1.78049e-06
-0.000126314
3.48018e-05
-2.00783e-06
-0.000131651
2.01834e-05
-2.37227e-06
-0.000133736
2.77245e-06
-2.90574e-06
-0.000131316
-1.80808e-05
-3.60144e-06
-0.000123055
-4.19715e-05
-4.44524e-06
-0.000107635
-6.81254e-05
-5.35771e-06
-8.432e-05
-9.43953e-05
-6.12463e-06
-5.40432e-05
-0.000115764
-6.38484e-06
-2.1418e-05
-0.000120688
-5.83637e-06
-7.93979e-05
-2.76046e-06
-6.81625e-06
5.7943e-05
-3.0545e-06
-2.01374e-05
9.52432e-05
-2.91409e-06
-3.49638e-05
0.000103064
-2.72619e-06
-4.99527e-05
0.000102209
-2.48004e-06
-6.47085e-05
9.87246e-05
-2.2983e-06
-7.90969e-05
9.39068e-05
-2.16413e-06
-9.3034e-05
8.78975e-05
-2.07551e-06
-0.000106419
8.05744e-05
-2.04749e-06
-0.000119095
7.16931e-05
-2.10201e-06
-0.000130802
6.0892e-05
-2.26749e-06
-0.000141106
4.76854e-05
-2.57903e-06
-0.00014932
3.14758e-05
-3.07845e-06
-0.000154377
1.16309e-05
-3.80116e-06
-0.00015487
-1.27292e-05
-4.85923e-06
-0.000148657
-4.20173e-05
-6.16696e-06
-0.00013349
-7.56256e-05
-7.66686e-06
-0.000107521
-0.000111288
-9.07604e-06
-7.08917e-05
-0.000142548
-9.84457e-06
-2.92627e-05
-0.000152973
-9.34472e-06
-0.000103499
-5.16127e-06
-7.25552e-06
6.88007e-05
-3.60216e-06
-2.1622e-05
0.000113142
-3.53228e-06
-3.75815e-05
0.000122364
-3.33989e-06
-5.36888e-05
0.000121376
-3.06006e-06
-6.957e-05
0.000117448
-2.84244e-06
-8.51549e-05
0.000112168
-2.6758e-06
-0.000100443
0.00010575
-2.56425e-06
-0.000115432
9.8093e-05
-2.52921e-06
-0.00013008
8.89413e-05
-2.60031e-06
-0.000144246
7.78751e-05
-2.81721e-06
-0.000157605
6.42772e-05
-3.23262e-06
-0.000169518
4.73e-05
-3.91138e-06
-0.000178841
2.58713e-05
-4.91693e-06
-0.000183928
-1.12912e-06
-6.5131e-06
-0.000181717
-3.56816e-05
-8.5467e-06
-0.000168648
-7.76416e-05
-1.10532e-05
-0.000140931
-0.000125331
-1.36742e-05
-9.6836e-05
-0.000171058
-1.55859e-05
-4.26285e-05
-0.000191713
-1.54672e-05
-0.000136083
-1.00451e-05
-7.80128e-06
8.09143e-05
-4.31229e-06
-2.33929e-05
0.000133074
-4.34088e-06
-4.06086e-05
0.000143714
-4.13498e-06
-5.78851e-05
0.00014245
-3.79702e-06
-7.48838e-05
0.000137961
-3.51449e-06
-9.16184e-05
0.000132188
-3.28572e-06
-0.000108196
0.000125451
-3.12399e-06
-0.000124747
0.000117703
-3.05916e-06
-0.000141392
0.000108717
-3.13078e-06
-0.000158189
9.80661e-05
-3.3937e-06
-0.000175041
8.50555e-05
-3.92675e-06
-0.000191532
6.86313e-05
-4.8402e-06
-0.000206648
4.72845e-05
-6.29656e-06
-0.00021838
1.9057e-05
-8.45479e-06
-0.000223375
-1.89986e-05
-1.16879e-05
-0.000216014
-6.91067e-05
-1.58959e-05
-0.000189452
-0.000131128
-2.07645e-05
-0.000138161
-0.000197195
-2.51546e-05
-6.69565e-05
-0.000236361
-2.65559e-05
-0.000182606
-2.04336e-05
-8.53496e-06
9.47023e-05
-5.25311e-06
-2.55953e-05
0.000155552
-5.41691e-06
-4.41936e-05
0.000167491
-5.17839e-06
-6.26431e-05
0.000165638
-4.7393e-06
-8.06655e-05
0.000160326
-4.34214e-06
-9.83844e-05
0.000153908
-4.00091e-06
-0.000116036
0.000146845
-3.74221e-06
-0.000133911
0.000139184
-3.60635e-06
-0.000152337
0.000130787
-3.6443e-06
-0.00017165
0.000121308
-3.92876e-06
-0.000192122
0.000110098
-4.57087e-06
-0.000213785
9.60356e-05
-5.74126e-06
-0.000236095
7.72857e-05
-7.6913e-06
-0.000257322
5.10099e-05
-1.0726e-05
-0.000274099
1.34153e-05
-1.56368e-05
-0.000278789
-4.19195e-05
-2.24973e-05
-0.000260324
-0.000118301
-3.12924e-05
-0.000206305
-0.000210511
-4.0702e-05
-0.000114775
-0.000281038
-4.68532e-05
-0.000253678
-4.37031e-05
-9.62905e-06
0.000110869
-6.53804e-06
-2.852e-05
0.000181324
-6.88093e-06
-4.86393e-05
0.000194182
-6.57173e-06
-6.8204e-05
0.000191159
-5.95586e-06
-8.70474e-05
0.000184529
-5.35961e-06
-0.000105439
0.000177122
-4.82269e-06
-0.000123763
0.000169559
-4.39064e-06
-0.000142473
0.00016201
-4.11524e-06
-0.000162121
0.000154494
-4.05855e-06
-0.000183381
0.000146879
-4.31076e-06
-0.000207042
0.000138777
-5.01799e-06
-0.000233895
0.000129313
-6.42395e-06
-0.00026442
0.000116731
-8.91966e-06
-0.000298072
9.77579e-05
-1.30961e-05
-0.000331734
6.67906e-05
-1.97134e-05
-0.000358869
1.53911e-05
-3.01761e-05
-0.000362697
-6.96291e-05
-4.48432e-05
-0.000319772
-0.000190628
-6.28081e-05
-0.000206863
-0.000313594
-8.03541e-05
-0.000367652
-9.28884e-05
-1.14431e-05
0.000130679
-8.36652e-06
-3.27193e-05
0.000211522
-8.9225e-06
-5.45031e-05
0.000224425
-8.45921e-06
-7.50291e-05
0.000219217
-7.53216e-06
-9.43452e-05
0.000210445
-6.59997e-06
-0.000112926
0.00020144
-5.73718e-06
-0.000131309
0.000192956
-5.0128e-06
-0.000150082
0.000185272
-4.48939e-06
-0.000169971
0.000178619
-4.23673e-06
-0.000191948
0.000173209
-4.35304e-06
-0.000217349
0.000169181
-5.00391e-06
-0.000247955
0.000166399
-6.48041e-06
-0.000285932
0.000163987
-9.27937e-06
-0.000333302
0.000159305
-1.4177e-05
-0.000390695
0.000146418
-2.22339e-05
-0.000452906
0.00011266
-3.50576e-05
-0.000504308
3.66659e-05
-5.48934e-05
-0.000498949
-0.000116086
-7.98999e-05
-0.000371535
-0.000332602
-0.000108407
-0.000582872
-0.000156315
-1.47684e-05
0.000156597
-1.115e-05
-3.92748e-05
0.00024807
-1.20409e-05
-6.27505e-05
0.000259228
-1.13278e-05
-8.385e-05
0.000250159
-9.8428e-06
-0.000103094
0.000237952
-8.2628e-06
-0.000121221
0.000226345
-6.77775e-06
-0.00013887
0.000216124
-5.51924e-06
-0.000156677
0.000207645
-4.5656e-06
-0.000175438
0.000201351
-3.97095e-06
-0.000196273
0.000197858
-3.81399e-06
-0.00022092
0.000198072
-4.2442e-06
-0.000252102
0.000203119
-5.53652e-06
-0.000294109
0.000214143
-8.14945e-06
-0.000352935
0.000230821
-1.26895e-05
-0.000436064
0.000248969
-1.94222e-05
-0.000546858
0.000250576
-2.71226e-05
-0.000673166
0.000196281
-3.33078e-05
-0.00074077
-1.70825e-05
-3.13996e-05
-0.000611234
-0.000434592
-2.75463e-05
-0.00105442
-0.000139685
-2.03159e-05
0.000192315
-1.54018e-05
-4.91762e-05
0.000292784
-1.58541e-05
-7.44998e-05
0.000298998
-1.44457e-05
-9.61545e-05
0.000283694
-1.188e-05
-0.00011476
0.000266006
-9.44912e-06
-0.00013146
0.000250284
-7.23961e-06
-0.000147174
0.000237193
-5.35592e-06
-0.000162581
0.000226907
-3.85414e-06
-0.000178319
0.000219857
-2.76941e-06
-0.000195234
0.000216916
-2.14219e-06
-0.000214905
0.000219746
-2.0034e-06
-0.000240276
0.000230857
-2.36739e-06
-0.000277452
0.000254407
-3.08814e-06
-0.000337
0.000293426
-3.05691e-06
-0.000438224
0.000348244
1.94792e-06
-0.000600967
0.000389775
2.35433e-05
-0.000832855
0.000350462
7.77073e-05
-0.00100966
-1.53197e-05
0.000175042
-0.0008634
-0.000831241
0.000250391
-0.00189509
-2.27291e-05
-4.03127e-05
0.000255919
-2.32913e-05
-7.19179e-05
0.000349903
-2.55142e-05
-9.51902e-05
0.000344869
-2.25988e-05
-0.000112526
0.000319241
-1.8211e-05
-0.000127525
0.000294432
-1.34266e-05
-0.000141391
0.000273223
-9.07247e-06
-0.000154587
0.000255789
-5.40104e-06
-0.000167087
0.000241923
-2.51663e-06
-0.000178867
0.000232017
-3.79373e-07
-0.000189851
0.000226885
1.01543e-06
-0.000200854
0.000228891
1.85789e-06
-0.000213788
0.00024118
2.61092e-06
-0.000235367
0.000271151
4.83571e-06
-0.000277581
0.00032223
1.34092e-05
-0.000377812
0.000405903
4.25727e-05
-0.000577005
0.000466832
0.000122137
-0.000923579
0.000415393
0.000281642
-0.00120299
-0.000220778
0.000484871
-0.00102037
-0.00152424
0.000510378
-0.00285986
-5.56088e-05
-3.42603e-05
0.000328408
-3.82281e-05
-8.36492e-05
0.000433045
-3.37522e-05
-0.000115545
0.000404818
-2.80533e-05
-0.000137761
0.000360141
-1.86839e-05
-0.00015141
0.000319417
-1.13358e-05
-0.000160112
0.000286965
-5.03972e-06
-0.000165945
0.000261693
-7.08921e-08
-0.000169933
0.000241909
4.00237e-06
-0.000172041
0.000227289
6.8365e-06
-0.000171182
0.000217339
8.68664e-06
-0.000166536
0.000214291
9.95373e-06
-0.000156725
0.000219659
1.17099e-05
-0.000146297
0.000243408
1.73151e-05
-0.000144798
0.000284295
3.64356e-05
-0.000201872
0.000371286
9.16912e-05
-0.000382497
0.000425027
0.00022243
-0.000775529
0.000348979
0.000459447
-0.00113296
-0.000524311
0.000660964
-0.000989669
-0.00215014
0.000482617
-0.00355247
-0.000297056
-0.00017727
0.000556562
-5.08839e-05
-0.000184538
0.000498002
-5.76893e-05
-0.000172621
0.000442522
-4.96214e-05
-0.000161302
0.000384188
-3.53662e-05
-0.000144724
0.000322358
-1.95179e-05
-0.000127388
0.000275891
-6.26197e-06
-0.000111174
0.000241586
3.89321e-06
-9.53113e-05
0.000214877
1.11692e-05
-7.92174e-05
0.000195196
1.59985e-05
-6.0067e-05
0.000179663
1.85257e-05
-3.63132e-05
0.000171075
1.94631e-05
-3.74205e-06
0.000167317
1.97713e-05
3.97566e-05
0.000176683
2.32262e-05
8.77902e-05
0.000196293
3.99689e-05
0.000126633
0.000239772
9.26712e-05
8.04361e-05
0.000256567
0.000214656
-0.000112465
0.000129069
0.000412811
-0.000506008
-0.000700146
0.000569377
-0.000651916
-0.00228478
0.000280547
-0.00367231
-0.000532073
-0.000371817
0.00108222
-0.000153839
-0.000267027
0.000493311
-0.000100099
-0.000123327
0.000364931
-6.61083e-05
2.88178e-05
0.000265024
-3.2981e-05
0.0001683
0.000193362
-1.04873e-05
0.00029088
0.000146942
6.36897e-06
0.000394297
0.000118343
1.9826e-05
0.0004812
9.87559e-05
2.92179e-05
0.000554603
8.62177e-05
3.55759e-05
0.000618809
7.69233e-05
3.85336e-05
0.000679026
7.22265e-05
3.86307e-05
0.00074194
6.96121e-05
3.4791e-05
0.000816231
7.11107e-05
3.12819e-05
0.000914578
7.32893e-05
2.46563e-05
0.00104319
6.94803e-05
4.16759e-05
0.0011698
3.78041e-05
9.2158e-05
0.00123674
-9.11724e-05
0.000153302
0.000863578
-0.000622254
0.000295268
0.000182786
-0.00168065
7.66594e-05
-0.00277601
-0.000713518
0.00122781
-0.000145592
0.00187285
-0.000151727
0.00238298
-0.000145199
0.00277484
-0.000126837
0.00307342
-0.000105225
0.00330703
-8.66651e-05
0.00349321
-6.78345e-05
0.00364411
-5.21436e-05
0.00376706
-3.67361e-05
0.0038678
-2.38171e-05
0.00395391
-1.38788e-05
0.00402673
-3.21132e-06
0.00409814
-3.01437e-07
0.00416409
7.34071e-06
0.00422375
9.81664e-06
0.00424744
1.41187e-05
0.00412372
3.25457e-05
0.00350818
-6.7091e-06
0.00191492
-8.73938e-05
-0.00086109
-4.16793e-06
4.42022e-06
-5.8425e-07
-1.30318e-05
9.24602e-06
-2.89357e-07
-2.30363e-05
1.03874e-05
-1.28185e-07
-3.29859e-05
1.03086e-05
-2.5679e-08
-4.24962e-05
9.84649e-06
-1.44086e-09
-5.13548e-05
9.18415e-06
-3.9557e-08
-5.93582e-05
8.32602e-06
-1.2041e-07
-6.62773e-05
7.24626e-06
-2.42581e-07
-7.18503e-05
5.91783e-06
-4.0688e-07
-7.57874e-05
4.31582e-06
-6.14852e-07
-7.77893e-05
2.42073e-06
-8.66488e-07
-7.75617e-05
2.31621e-07
-1.16013e-06
-7.48177e-05
-2.23358e-06
-1.48369e-06
-6.93505e-05
-4.90341e-06
-1.82366e-06
-6.10681e-05
-7.66895e-06
-2.15436e-06
-5.00552e-05
-1.03606e-05
-2.43776e-06
-3.66741e-05
-1.27053e-05
-2.61573e-06
-2.18109e-05
-1.4175e-05
-2.61383e-06
-7.66594e-06
-1.34571e-05
-2.37841e-06
-6.99875e-06
-1.39734e-06
-9.25544e-06
1.39334e-05
-1.35158e-06
-2.53464e-05
2.58018e-05
-1.18504e-06
-4.29984e-05
2.84919e-05
-9.95761e-07
-6.03731e-05
2.81024e-05
-8.20957e-07
-7.67981e-05
2.66629e-05
-7.21042e-07
-9.18652e-05
2.46272e-05
-6.77738e-07
-0.000105201
2.20392e-05
-6.80408e-07
-0.000116424
1.88639e-05
-7.29211e-07
-0.000125132
1.50563e-05
-8.2788e-07
-0.000130909
1.05762e-05
-9.80883e-07
-0.00013332
5.38822e-06
-1.1913e-06
-0.000132006
-4.36016e-07
-1.45905e-06
-0.000126569
-6.93195e-06
-1.77313e-06
-0.000116771
-1.38591e-05
-2.11483e-06
-0.000102547
-2.09543e-05
-2.45479e-06
-8.40898e-05
-2.77973e-05
-2.74492e-06
-6.1998e-05
-3.37224e-05
-2.90973e-06
-3.7635e-05
-3.74359e-05
-2.85867e-06
-1.42154e-05
-3.57889e-05
-2.53251e-06
-2.02489e-05
-1.29731e-06
-1.1004e-05
2.52444e-05
-1.75782e-06
-2.96944e-05
4.50493e-05
-1.67261e-06
-5.00408e-05
4.93828e-05
-1.47477e-06
-6.99852e-05
4.855e-05
-1.26358e-06
-8.87878e-05
4.59333e-05
-1.12249e-06
-0.000105999
4.22853e-05
-1.03587e-06
-0.000121209
3.7693e-05
-9.94375e-07
-0.000134001
3.21162e-05
-1.00069e-06
-0.000143942
2.54935e-05
-1.06147e-06
-0.000150581
1.77681e-05
-1.18392e-06
-0.000153472
8.91054e-06
-1.37344e-06
-0.000152126
-1.05429e-06
-1.63357e-06
-0.00014612
-1.2096e-05
-1.9527e-06
-0.000135139
-2.38758e-05
-2.3163e-06
-0.000119041
-3.59691e-05
-2.6914e-06
-9.79685e-05
-4.76847e-05
-3.02227e-06
-7.25316e-05
-5.78999e-05
-3.21895e-06
-4.42518e-05
-6.44139e-05
-3.17233e-06
-1.68466e-05
-6.19008e-05
-2.8136e-06
-3.59521e-05
-1.42007e-06
-1.17311e-05
3.73566e-05
-2.1204e-06
-3.16913e-05
6.56827e-05
-2.11814e-06
-5.33871e-05
7.17394e-05
-1.91869e-06
-7.46574e-05
7.0433e-05
-1.68186e-06
-9.47513e-05
6.65969e-05
-1.51086e-06
-0.000113222
6.12978e-05
-1.39243e-06
-0.000129664
5.46666e-05
-1.31929e-06
-0.000143658
4.66544e-05
-1.29691e-06
-0.000154762
3.7176e-05
-1.33498e-06
-0.000162497
2.61428e-05
-1.44419e-06
-0.000166353
1.34946e-05
-1.63431e-06
-0.000165813
-7.46027e-07
-1.91432e-06
-0.000160267
-1.66648e-05
-2.27676e-06
-0.000149241
-3.37716e-05
-2.70375e-06
-0.000132404
-5.15201e-05
-3.16023e-06
-0.00010973
-6.8929e-05
-3.58174e-06
-8.17527e-05
-8.43335e-05
-3.85908e-06
-5.01262e-05
-9.44213e-05
-3.8529e-06
-1.91289e-05
-9.12718e-05
-3.4698e-06
-5.36481e-05
-1.8362e-06
-1.23524e-05
5.01871e-05
-2.47845e-06
-3.34974e-05
8.76465e-05
-2.55853e-06
-5.64981e-05
9.55468e-05
-2.35879e-06
-7.90906e-05
9.37762e-05
-2.10097e-06
-0.000100521
8.87262e-05
-1.90773e-06
-0.000120362
8.18e-05
-1.76807e-06
-0.000138224
7.3175e-05
-1.67705e-06
-0.000153706
6.27885e-05
-1.64327e-06
-0.00016636
5.05185e-05
-1.6802e-06
-0.000175684
3.62207e-05
-1.8031e-06
-0.000181095
1.97635e-05
-2.02673e-06
-0.00018197
1.13172e-06
-2.36426e-06
-0.00017751
-1.9956e-05
-2.82142e-06
-0.00016698
-4.2928e-05
-3.37598e-06
-0.000149726
-6.71806e-05
-3.99206e-06
-0.000125394
-9.14519e-05
-4.59107e-06
-9.43095e-05
-0.000113424
-5.031e-06
-5.82625e-05
-0.000128336
-5.12121e-06
-2.23572e-05
-0.000125006
-4.71551e-06
-7.40986e-05
-2.67816e-06
-1.31145e-05
6.38995e-05
-2.88138e-06
-3.56968e-05
0.000111226
-3.05134e-06
-6.02872e-05
0.000121122
-2.85141e-06
-8.44927e-05
0.0001189
-2.57221e-06
-0.000107559
0.000112647
-2.35788e-06
-0.000129087
0.000104135
-2.20021e-06
-0.000148725
9.35941e-05
-2.09726e-06
-0.000166099
8.09461e-05
-2.06159e-06
-0.00018078
6.60195e-05
-2.11157e-06
-0.000192251
4.8587e-05
-2.26853e-06
-0.000199871
2.84003e-05
-2.55288e-06
-0.000202848
5.28205e-06
-2.97341e-06
-0.000200212
-2.11708e-05
-3.60541e-06
-0.000190809
-5.06239e-05
-4.37264e-06
-0.000173502
-8.24598e-05
-5.25669e-06
-0.000147386
-0.000115209
-6.16402e-06
-0.000112338
-0.000145802
-6.90405e-06
-7.01936e-05
-0.00016756
-7.19762e-06
-2.72433e-05
-0.000164936
-6.79208e-06
-9.86963e-05
-4.12304e-06
-1.4071e-05
7.87178e-05
-3.37261e-06
-3.84222e-05
0.000136793
-3.65096e-06
-6.49501e-05
0.000148852
-3.4495e-06
-9.11012e-05
0.000146172
-3.14254e-06
-0.000116125
0.000138712
-2.9003e-06
-0.000139667
0.000128655
-2.71868e-06
-0.000161432
0.000116299
-2.60023e-06
-0.000181105
0.000101553
-2.56299e-06
-0.000198305
8.41899e-05
-2.63217e-06
-0.000212534
6.3874e-05
-2.83853e-06
-0.000223113
4.01874e-05
-3.21631e-06
-0.000229103
1.27087e-05
-3.80861e-06
-0.000229319
-1.92122e-05
-4.64808e-06
-0.000222083
-5.5727e-05
-5.73501e-06
-0.000205547
-9.63934e-05
-7.04764e-06
-0.000177897
-0.000139742
-8.4751e-06
-0.000138124
-0.00018194
-9.75893e-06
-8.7782e-05
-0.000213815
-1.04724e-05
-3.47823e-05
-0.000213626
-1.01456e-05
-0.000129706
-6.53342e-06
-1.52415e-05
9.48969e-05
-3.99207e-06
-4.17227e-05
0.000164768
-4.40799e-06
-7.05449e-05
0.000179149
-4.20068e-06
-9.89594e-05
0.000175959
-3.85203e-06
-0.000126227
0.000167247
-3.56565e-06
-0.00015206
0.000155668
-3.3438e-06
-0.00017625
0.000141609
-3.19571e-06
-0.000198581
0.000124984
-3.14702e-06
-0.000218771
0.00010551
-3.23232e-06
-0.0002364
8.27304e-05
-3.49535e-06
-0.000250811
5.60093e-05
-3.98942e-06
-0.000260983
2.45829e-05
-4.78049e-06
-0.000265518
-1.25488e-05
-5.93038e-06
-0.000262137
-5.64667e-05
-7.50033e-06
-0.00024802
-0.000107195
-9.48248e-06
-0.000219924
-0.000163731
-1.1773e-05
-0.000175173
-0.000221734
-1.40334e-05
-0.000114236
-0.000268988
-1.5609e-05
-4.69538e-05
-0.00027468
-1.55739e-05
-0.000171195
-1.06257e-05
-1.66592e-05
0.000112742
-4.78764e-06
-4.56671e-05
0.000195626
-5.38241e-06
-7.71434e-05
0.000212445
-5.15961e-06
-0.000108107
0.000208607
-4.74441e-06
-0.000137843
0.000198526
-4.38444e-06
-0.000166159
0.000185399
-4.09187e-06
-0.000192974
0.000169744
-3.88562e-06
-0.000218222
0.000151505
-3.80145e-06
-0.000241792
0.000130366
-3.88605e-06
-0.000263432
0.000105754
-4.20007e-06
-0.000282625
7.67922e-05
-4.82234e-06
-0.000298374
4.2277e-05
-5.8569e-06
-0.000309294
8.99521e-07
-7.44536e-06
-0.000312358
-5.02386e-05
-9.67748e-06
-0.000303644
-0.000111788
-1.26671e-05
-0.000277807
-0.000184263
-1.63583e-05
-0.000229226
-0.000263639
-2.03501e-05
-0.000155647
-0.000334477
-2.36757e-05
-6.81411e-05
-0.000353154
-2.4499e-05
-0.000231504
-1.78769e-05
-1.83939e-05
0.000132649
-5.82616e-06
-5.039e-05
0.000229937
-6.65554e-06
-8.48901e-05
0.000249208
-6.3982e-06
-0.000118644
0.000244438
-5.87441e-06
-0.000150985
0.000232744
-5.39138e-06
-0.000181851
0.000217956
-4.97658e-06
-0.000211335
0.000200767
-4.66275e-06
-0.000239589
0.000181198
-4.49847e-06
-0.000266756
0.000158947
-4.54492e-06
-0.000292886
0.000133373
-4.8833e-06
-0.000317794
0.000103399
-5.62492e-06
-0.000340827
6.73847e-05
-6.91528e-06
-0.000360403
2.30902e-05
-8.91124e-06
-0.000373814
-3.31555e-05
-1.21265e-05
-0.000375597
-0.000105099
-1.65948e-05
-0.000357757
-0.000195516
-2.24832e-05
-0.000309977
-0.000302717
-2.94672e-05
-0.000224335
-0.000409021
-3.62525e-05
-0.000108877
-0.00045567
-3.94979e-05
-0.000329337
-3.14775e-05
-2.05836e-05
0.000155188
-7.20826e-06
-5.61448e-05
0.000268427
-8.3455e-06
-9.40605e-05
0.000289963
-8.0178e-06
-0.000130787
0.000283741
-7.31558e-06
-0.000165745
0.000269989
-6.62891e-06
-0.000199055
0.000253274
-6.0088e-06
-0.000231036
0.000234514
-5.50736e-06
-0.000262117
0.00021386
-5.18845e-06
-0.00029279
0.000191105
-5.12866e-06
-0.000323558
0.000165643
-5.43146e-06
-0.000354804
0.000136322
-6.24828e-06
-0.000386541
0.000101185
-7.80457e-06
-0.000417822
5.71256e-05
-1.04453e-05
-0.000446745
-2.93178e-07
-1.46656e-05
-0.00046705
-7.94255e-05
-2.10048e-05
-0.000468303
-0.000186709
-3.00509e-05
-0.000433841
-0.000326602
-4.18695e-05
-0.000345225
-0.000483265
-5.50739e-05
-0.000195276
-0.000587869
-6.46036e-05
-0.000510181
-5.81351e-05
-2.34894e-05
0.000181232
-9.09265e-06
-6.33862e-05
0.000312074
-1.06309e-05
-0.000105142
0.000335315
-1.0168e-05
-0.000144937
0.000326752
-9.17163e-06
-0.000182362
0.000310205
-8.15125e-06
-0.000217785
0.000291068
-7.19467e-06
-0.000251802
0.000270522
-6.38112e-06
-0.000285167
0.000248901
-5.79114e-06
-0.000318793
0.000226187
-5.51416e-06
-0.000353774
0.000201984
-5.67051e-06
-0.000391358
0.000175333
-6.44486e-06
-0.000432796
0.000144333
-8.1343e-06
-0.000478869
0.000105477
-1.11983e-05
-0.000528762
5.27521e-05
-1.62478e-05
-0.000579201
-2.40084e-05
-2.46919e-05
-0.000619095
-0.000139426
-3.75652e-05
-0.000625225
-0.000309342
-5.59732e-05
-0.000559102
-0.000533095
-7.91008e-05
-0.000370445
-0.000755573
-0.000101307
-0.000867272
-0.000106242
-2.76001e-05
0.000212203
-1.17373e-05
-7.28994e-05
0.00036223
-1.378e-05
-0.000118954
0.000385969
-1.30578e-05
-0.000161785
0.000373626
-1.15749e-05
-0.000201298
0.000353137
-1.00183e-05
-0.000238216
0.000330776
-8.52702e-06
-0.000273462
0.00030797
-7.2151e-06
-0.000308115
0.000285245
-6.17989e-06
-0.000343503
0.000262854
-5.51581e-06
-0.000381347
0.000240815
-5.3413e-06
-0.000423942
0.000218766
-5.84086e-06
-0.000474309
0.000195551
-7.33116e-06
-0.000536147
0.000168388
-1.03527e-05
-0.000613096
0.000131294
-1.57708e-05
-0.000707417
7.29327e-05
-2.48533e-05
-0.000813582
-2.84501e-05
-3.98693e-05
-0.000902365
-0.000213236
-6.22163e-05
-0.000893459
-0.000531225
-9.06759e-05
-0.000651323
-0.000984396
-0.00012172
-0.00152079
-0.000154119
-3.40747e-05
0.000250749
-1.56209e-05
-8.62959e-05
0.000420784
-1.83733e-05
-0.000136864
0.000442434
-1.72244e-05
-0.000182256
0.000424105
-1.49308e-05
-0.000223146
0.000398212
-1.24478e-05
-0.000260686
0.000371583
-1.00452e-05
-0.00029606
0.000345736
-7.91113e-06
-0.00033058
0.000321362
-6.16281e-06
-0.000365901
0.000299081
-4.87723e-06
-0.000404277
0.000279509
-4.13152e-06
-0.000449022
0.000263319
-4.05215e-06
-0.00050517
0.000251032
-4.8695e-06
-0.000580373
0.000242416
-6.97415e-06
-0.000685082
0.000234204
-1.089e-05
-0.000830435
0.000215626
-1.67621e-05
-0.00101621
0.000153166
-2.29591e-05
-0.00120325
-3.35792e-05
-2.5933e-05
-0.00124162
-0.000504482
-1.97651e-05
-0.000899466
-0.00133303
-2.10645e-05
-0.00244083
-0.000119108
-4.24213e-05
0.000299044
-2.12755e-05
-0.000103664
0.000490438
-2.42648e-05
-0.000160016
0.000506532
-2.21925e-05
-0.000208632
0.000479321
-1.84799e-05
-0.000250243
0.000445096
-1.47221e-05
-0.000286883
0.000412134
-1.11498e-05
-0.000320438
0.000381893
-7.95923e-06
-0.000352537
0.000354862
-5.25471e-06
-0.000384865
0.000331727
-3.08698e-06
-0.0004196
0.000313557
-1.45538e-06
-0.000460344
0.000302372
-3.12608e-07
-0.000513313
0.000301069
5.64007e-07
-0.000589505
0.000313883
1.63734e-06
-0.000705433
0.000342561
4.51358e-06
-0.000880832
0.000378608
1.43652e-05
-0.00111306
0.000365232
4.37029e-05
-0.0013506
0.000170259
0.000111409
-0.0013818
-0.000519409
0.000221169
-0.000928419
-0.00178878
0.000252758
-0.00335447
-3.75118e-05
-7.45588e-05
0.000380858
-3.05469e-05
-0.000142117
0.000568179
-3.56979e-05
-0.000196327
0.000570192
-3.20489e-05
-0.000240061
0.00053106
-2.62149e-05
-0.000278155
0.000489532
-1.9769e-05
-0.000312252
0.000450795
-1.36371e-05
-0.000343374
0.000415819
-8.20456e-06
-0.000372189
0.000384804
-3.64416e-06
-0.00039971
0.000358826
4.27808e-08
-0.000427298
0.000339205
2.95554e-06
-0.000457797
0.000329234
5.49496e-06
-0.000496055
0.000333409
8.52883e-06
-0.000552828
0.000361101
1.43903e-05
-0.000641694
0.000415715
2.91214e-05
-0.000786035
0.000497314
6.82079e-05
-0.000972231
0.000510776
0.000162789
-0.00118445
0.000320824
0.000343292
-0.00122436
-0.000543804
0.000549181
-0.000780922
-0.00219072
0.000468875
-0.00407473
-0.000116267
-5.56602e-05
0.000444788
-4.64978e-05
-0.000155161
0.000682164
-4.82366e-05
-0.00023097
0.000659093
-4.11447e-05
-0.00028588
0.000597436
-3.01506e-05
-0.000324988
0.000537689
-2.03837e-05
-0.000353219
0.000485386
-1.13999e-05
-0.000374417
0.000440587
-3.64123e-06
-0.000390404
0.000402139
2.65412e-06
-0.000402636
0.000370279
7.61565e-06
-0.000411191
0.000344777
1.16693e-05
-0.000416635
0.000329178
1.5454e-05
-0.000418612
0.000326449
2.0648e-05
-0.000422146
0.000350176
3.1774e-05
-0.000428243
0.000398858
5.9389e-05
-0.00046375
0.000496755
0.000127757
-0.000529149
0.000524581
0.000274024
-0.000655046
0.000382562
0.000523605
-0.000744029
-0.000507192
0.000713335
-0.000451663
-0.00241152
0.000411058
-0.00449219
-0.000331259
-0.000199319
0.000651765
-5.8543e-05
-0.000253532
0.000748714
-7.00253e-05
-0.000299175
0.000717816
-6.27011e-05
-0.000335952
0.000646182
-4.73352e-05
-0.000349327
0.000561483
-2.99369e-05
-0.000346829
0.000490938
-1.43125e-05
-0.000334633
0.000433472
-1.18695e-06
-0.000314826
0.000384822
8.67899e-06
-0.000290727
0.000345964
1.62149e-05
-0.000261138
0.000312187
2.15267e-05
-0.000227666
0.00028961
2.55594e-05
-0.000184245
0.000273029
2.97693e-05
-0.000129529
0.000279512
3.91748e-05
-5.51892e-05
0.00029968
6.48073e-05
5.50309e-05
0.000353819
0.000125388
0.000161944
0.000375053
0.000257271
0.000308056
0.000208133
0.000441129
0.000255075
-0.000471529
0.000586696
0.000247981
-0.00233239
0.000208502
-0.00429746
-0.000478824
-0.000661195
0.0012963
-0.000137175
-0.000622522
0.000722353
-0.00011241
-0.000489898
0.000601575
-8.24919e-05
-0.000306701
0.000483072
-5.3068e-05
-0.000115982
0.000390622
-3.03457e-05
6.92872e-05
0.000322636
-1.05975e-05
0.000242343
0.000274272
5.97055e-06
0.000401463
0.000236185
1.87347e-05
0.000547153
0.000207022
2.88272e-05
0.000679757
0.000182427
3.5689e-05
0.000803688
0.000164893
3.94173e-05
0.000921986
0.000149673
3.98498e-05
0.00104788
0.000144147
4.07543e-05
0.00119031
0.0001414
4.0504e-05
0.00139279
0.000134545
5.84691e-05
0.00163731
0.00010932
0.000113373
0.00190722
-5.26123e-05
0.000144134
0.00194636
-0.000461852
0.000246453
0.00134257
-0.00169552
4.35909e-05
-0.0031108
-0.000557617
0.00127306
-0.000122352
0.0019808
-0.000137116
0.00257405
-0.000136876
0.00305744
-0.000127158
0.00345549
-0.000112646
0.00378982
-9.83661e-05
0.00407839
-8.21284e-05
0.00432899
-6.65603e-05
0.00455085
-5.15718e-05
0.00474528
-3.58222e-05
0.0049206
-2.43067e-05
0.00507803
-1.09693e-05
0.00522446
-2.5817e-06
0.00536936
3.84309e-06
0.00549819
1.55346e-05
0.00561028
1.13436e-05
0.00555568
3.45374e-05
0.00509908
-1.19661e-05
0.00339469
-7.85227e-05
-0.000577199
-4.65601e-06
4.76165e-06
-6.89894e-07
-1.45517e-05
1.0265e-05
-6.58742e-07
-2.56897e-05
1.15715e-05
-5.61625e-07
-3.67029e-05
1.14615e-05
-4.74024e-07
-4.7169e-05
1.09015e-05
-4.36849e-07
-5.68683e-05
1.0106e-05
-4.46192e-07
-6.55806e-05