/*--------------------------------*- C++ -*----------------------------------*\
  =========                 |
  \\      /  F ield         | OpenFOAM: The Open Source CFD Toolbox
   \\    /   O peration     | Website:  https://openfoam.org
    \\  /    A nd           | Version:  10
     \\/     M anipulation  |
\*---------------------------------------------------------------------------*/
FoamFile
{
    format      ascii;
    class       surfaceScalarField;
    location    "8.925";
    object      phi;
}
// * * * * * * * * * * * * * * * * * * * * * * * * * * * * * * * * * * * * * //

dimensions      [0 3 -1 0 0 0 0];

internalField   nonuniform List<scalar> 
760
(
-1.33431e-05
1.33431e-05
-4.30475e-05
2.97044e-05
-7.88477e-05
3.58002e-05
-0.000116737
3.78888e-05
-0.000155509
3.8772e-05
-0.000194867
3.93583e-05
-0.000234506
3.96396e-05
-0.000273747
3.92409e-05
-0.000311347
3.76001e-05
-0.00034534
3.39929e-05
-0.00037291
2.75693e-05
-0.000390349
1.74395e-05
-0.000393232
2.88277e-06
-0.000376806
-1.64261e-05
-0.00033742
-3.93859e-05
-0.000274312
-6.31082e-05
-0.000192223
-8.20881e-05
-0.000103617
-8.86064e-05
-2.91162e-05
-7.45008e-05
-2.91162e-05
-3.2197e-05
4.55401e-05
-9.07961e-05
8.83036e-05
-0.000159403
0.000104407
-0.000231369
0.000109855
-0.000304187
0.00011159
-0.000376716
0.000111888
-0.000447876
0.000110799
-0.000516086
0.000107451
-0.000578971
0.000100486
-0.000633149
8.8171e-05
-0.000674089
6.85093e-05
-0.000696004
3.93546e-05
-0.000692941
-1.80993e-07
-0.000657734
-5.16327e-05
-0.00058565
-0.00011147
-0.000476124
-0.000172635
-0.00033668
-0.000221532
-0.000186866
-0.00023842
-5.88726e-05
-0.000202494
-8.79888e-05
-4.09571e-05
8.64972e-05
-0.000113279
0.000160626
-0.000197053
0.000188181
-0.000284301
0.000197103
-0.000372034
0.000199323
-0.000458861
0.000198715
-0.000543513
0.000195451
-0.000624233
0.00018817
-0.000698456
0.000174708
-0.000762541
0.000152256
-0.000811538
0.000117507
-0.000839254
6.70701e-05
-0.0008379
-1.53503e-06
-0.000798869
-9.0663e-05
-0.000714945
-0.000195395
-0.000583357
-0.000304222
-0.000411626
-0.000393264
-0.000224739
-0.000425306
-6.74649e-05
-0.000359768
-0.000155454
-4.43425e-05
0.00013084
-0.000122637
0.000238921
-0.000213059
0.000278602
-0.000307067
0.000291111
-0.000401666
0.000293922
-0.000495647
0.000292696
-0.000588005
0.000287809
-0.000677326
0.000277491
-0.000761425
0.000258808
-0.000836991
0.000227822
-0.000899142
0.000179658
-0.00094097
0.000108897
-0.000953465
1.09605e-05
-0.000924724
-0.000119404
-0.000842154
-0.000277965
-0.000696708
-0.000449668
-0.000491822
-0.000598149
-0.000259277
-0.000657852
-6.839e-05
-0.000550656
-0.000223844
-4.51299e-05
0.000175969
-0.000125694
0.000319485
-0.000218973
0.000371882
-0.00031624
0.000388378
-0.000414733
0.000392415
-0.000513683
0.000391646
-0.000612692
0.000386817
-0.000711091
0.000375891
-0.000807547
0.000355264
-0.000899573
0.000319848
-0.000982833
0.000262918
-0.00105017
0.000176232
-0.00109044
5.12327e-05
-0.00108817
-0.000121677
-0.00102186
-0.000344272
-0.000869847
-0.000601681
-0.000622735
-0.000845261
-0.000315676
-0.000964911
-6.80585e-05
-0.000798273
-0.000291902
-4.47369e-05
0.000220706
-0.000125869
0.000400617
-0.00022035
0.000466363
-0.000319409
0.000487437
-0.000420623
0.000493629
-0.000523851
0.000494874
-0.000629556
0.000492522
-0.000738195
0.00048453
-0.000849812
0.000466881
-0.000963465
0.000433502
-0.0010763
0.000375751
-0.00118207
0.000281998
-0.00126887
0.000138035
-0.00131817
-7.23724e-05
-0.00129684
-0.000365606
-0.00115979
-0.000738727
-0.000863504
-0.00114155
-0.000432796
-0.00139562
-7.777e-05
-0.0011533
-0.000369672
-4.3718e-05
0.000264424
-0.000124522
0.000481421
-0.000219272
0.000561113
-0.000319174
0.000587338
-0.000422174
0.00059663
-0.000528852
0.000601551
-0.000640754
0.000604425
-0.000759838
0.000603614
-0.00088816
0.000595202
-0.00102738
0.000572724
-0.00117783
0.000526202
-0.00133688
0.00044105
-0.00149597
0.000297123
-0.00163742
6.90776e-05
-0.00171653
-0.000286502
-0.00164533
-0.000809922
-0.00130588
-0.001481
-0.000691641
-0.00200986
-0.00013816
-0.00170678
-0.000507832
-4.22346e-05
0.000306659
-0.000122053
0.000561239
-0.000216242
0.000655302
-0.000315902
0.000686998
-0.000419303
0.00070003
-0.000527755
0.000710004
-0.000643992
0.000720662
-0.000771784
0.000731405
-0.000915887
0.000739306
-0.0010819
0.000738736
-0.00127581
0.000720111
-0.00150309
0.000668331
-0.00176642
0.000560451
-0.00205387
0.000356533
-0.00231727
-2.31007e-05
-0.00238127
-0.000745931
-0.00201883
-0.00184344
-0.00120675
-0.00282194
-0.000352196
-0.00256133
-0.000860028
-4.0376e-05
0.000347035
-0.000118645
0.000639508
-0.000211361
0.000748018
-0.000309343
0.00078498
-0.000411059
0.000801746
-0.00051845
0.000817395
-0.000635367
0.000837579
-0.00076741
0.000863448
-0.000922351
0.000894247
-0.00111089
0.00092728
-0.00134769
0.000956908
-0.00165226
0.000972898
-0.00204681
0.000954998
-0.00253197
0.000841702
-0.00300982
0.000454741
-0.00323651
-0.000519236
-0.00290019
-0.00217975
-0.00201944
-0.00370269
-0.000843119
-0.00373766
-0.00170315
-3.83519e-05
0.000385387
-0.000114706
0.000715862
-0.000205005
0.000838317
-0.00029956
0.000879535
-0.000396816
0.000899003
-0.000499115
0.000919694
-0.000611106
0.00094957
-0.000739819
0.000992161
-0.000895648
0.00105008
-0.00109419
0.00112582
-0.00135924
0.00122195
-0.00172508
0.00133874
-0.00222812
0.00145804
-0.00286438
0.00147797
-0.00348411
0.00107447
-0.00378609
-0.000217261
-0.00358188
-0.00238396
-0.00286998
-0.00441458
-0.00152648
-0.00508116
-0.00322963
-3.66161e-05
0.000422003
-0.000111147
0.000790393
-0.000198256
0.000925426
-0.000287502
0.000968781
-0.000377055
0.000988556
-0.000469293
0.00101193
-0.000569033
0.00104931
-0.000683689
0.00110682
-0.000824596
0.00119098
-0.00100946
0.00131069
-0.00126593
0.00147842
-0.00163229
0.0017051
-0.0021382
0.00196395
-0.00274775
0.00208751
-0.00330418
0.0016309
-0.00357576
5.43189e-05
-0.00353113
-0.00242859
-0.00308804
-0.00485767
-0.00191096
-0.00625824
-0.00514059
-3.60977e-05
0.000458101
-0.000109791
0.000864087
-0.000193331
0.00100897
-0.000275404
0.00105085
-0.000353872
0.00106702
-0.000430774
0.00108883
-0.000510229
0.00112877
-0.000598365
0.00119495
-0.00070433
0.00129695
-0.000841838
0.0014482
-0.0010305
0.00166708
-0.0012924
0.00196699
-0.00163479
0.00230635
-0.00200902
0.00246175
-0.00233171
0.00195359
-0.00252455
0.000247156
-0.0026093
-0.00234384
-0.00249489
-0.00497208
-0.00173608
-0.00701705
-0.00687667
-3.79281e-05
0.000496029
-0.00011293
0.000939088
-0.000193431
0.00108947
-0.000267233
0.00112466
-0.000331783
0.00113157
-0.000388594
0.00114564
-0.000440555
0.00118073
-0.000491022
0.00124542
-0.000544251
0.00135018
-0.000605301
0.00150925
-0.000679176
0.00174095
-0.000764949
0.00205277
-0.000857865
0.00239927
-0.000930503
0.00253438
-0.00100394
0.00202703
-0.00110219
0.000345408
-0.00130627
-0.00213977
-0.00154705
-0.0047313
-0.0012703
-0.0072938
-0.00814697
-4.61008e-05
0.00054213
-0.000127008
0.00102
-0.000204555
0.00116701
-0.000267573
0.00118767
-0.000315326
0.00117933
-0.000349225
0.00117954
-0.000370123
0.00120162
-0.000378342
0.00125364
-0.000372918
0.00134475
-0.000350103
0.00148643
-0.000301881
0.00169273
-0.000210212
0.0019611
-6.39169e-05
0.00225297
0.000108663
0.0023618
0.000239948
0.00189574
0.000171235
0.000414121
-0.000162037
-0.00180649
-0.00073621
-0.00415713
-0.000865962
-0.00716405
-0.00901293
-5.7018e-05
0.000599148
-0.000148006
0.00111098
-0.000227846
0.00124685
-0.000285679
0.00124551
-0.000318461
0.00121211
-0.00032851
0.00118959
-0.00031688
0.00119
-0.000282266
0.00121902
-0.000220252
0.00128274
-0.000121675
0.00138786
2.98632e-05
0.00154119
0.000249869
0.00174109
0.000556709
0.00194613
0.000913906
0.00200461
0.00117271
0.00163694
0.00112002
0.000466803
0.000660729
-0.0013472
-0.000137128
-0.00335927
-0.000543097
-0.00675808
-0.00955603
-0.00012478
0.000723928
-0.000230018
0.00121622
-0.000293536
0.00131037
-0.000323467
0.00127544
-0.000328901
0.00121754
-0.000312914
0.00117361
-0.000273428
0.00115051
-0.00020535
0.00115095
-0.000101298
0.00117869
5.04744e-05
0.00123608
0.00026256
0.00132911
0.000555376
0.00144827
0.00093412
0.00156739
0.00135731
0.00158142
0.00167586
0.00131839
0.0016477
0.000494963
0.0011495
-0.000848992
0.000257102
-0.00246688
-0.000288127
-0.00621285
-0.00984415
-8.04374e-05
0.000804365
-0.000251743
0.00138753
-0.000354506
0.00141313
-0.000395935
0.00131687
-0.000393532
0.00121514
-0.000357734
0.00113781
-0.000290851
0.00108363
-0.00018976
0.00104986
-4.8418e-05
0.00103734
0.000143823
0.00104384
0.000397717
0.00107522
0.000725428
0.00112056
0.00112239
0.00117042
0.00154915
0.00115466
0.0018763
0.000991234
0.00186806
0.000503206
0.00141205
-0.00039298
0.000613235
-0.00166807
8.37366e-05
-0.00568335
-0.00976042
-0.000376728
0.00118109
-0.000427695
0.00143849
-0.000466402
0.00145184
-0.000492474
0.00134294
-0.000470582
0.00119325
-0.00040698
0.0010742
-0.000304861
0.000981507
-0.000162001
0.000906996
2.13026e-05
0.000854041
0.000250893
0.000814254
0.000530197
0.000795912
0.000865672
0.000785087
0.00124583
0.000790266
0.00162851
0.000771978
0.00194402
0.000675727
0.00202219
0.000425039
0.00187212
-0.000242915
0.00149794
-0.00129389
0.000843905
-0.00502931
-0.00891651
-0.00136295
0.00254404
-0.00132335
0.0013989
-0.0010594
0.00118788
-0.000682714
0.000966256
-0.000286111
0.000796646
0.000114478
0.000673615
0.000508395
0.00058759
0.000895479
0.000519912
0.00127759
0.000471932
0.00166059
0.00043125
0.00205112
0.000405386
0.00245331
0.000382894
0.00287864
0.00036494
0.0033126
0.00033801
0.00372873
0.000259601
0.00402832
0.000125452
0.00410758
-0.000322178
0.00395682
-0.00114313
0.00251045
-0.00358294
-0.00640606
0.00254404
0.00394294
0.00513082
0.00609708
0.00689373
0.00756734
0.00815493
0.00867485
0.00914678
0.00957803
0.00998341
0.0103663
0.0107312
0.0110693
0.0113289
0.0114543
0.0111321
0.00998901
0.00640606
)
;

boundaryField
{
    movingWall
    {
        type            calculated;
        value           uniform 0;
    }
    fixedWalls
    {
        type            calculated;
        value           uniform 0;
    }
    frontAndBack
    {
        type            empty;
        value           nonuniform List<scalar> 0();
    }
}


// ************************************************************************* //
