/*--------------------------------*- C++ -*----------------------------------*\
  =========                 |
  \\      /  F ield         | OpenFOAM: The Open Source CFD Toolbox
   \\    /   O peration     | Website:  https://openfoam.org
    \\  /    A nd           | Version:  10
     \\/     M anipulation  |
\*---------------------------------------------------------------------------*/
FoamFile
{
    format      ascii;
    class       volScalarField;
    location    "5";
    object      p;
}
// * * * * * * * * * * * * * * * * * * * * * * * * * * * * * * * * * * * * * //

dimensions      [0 2 -2 0 0 0 0];

internalField   nonuniform List<scalar> 
8000
(
-5.9935e-07
-8.45237e-06
2.6587e-05
9.17191e-05
0.000192678
0.000330425
0.000505788
0.000719159
0.000969858
0.0012561
0.00157401
0.00191715
0.00227602
0.00263813
0.00298695
0.00330389
0.00356903
0.00376332
0.00388241
0.00389062
7.61196e-06
-1.53011e-06
3.45237e-05
9.85702e-05
0.000197309
0.000331959
0.00050363
0.000712996
0.000959802
0.00124245
0.0015574
0.00189842
0.00225625
0.00261889
0.00297004
0.00329063
0.00356008
0.00375862
0.00388265
0.00388981
-3.71434e-05
-4.97162e-05
-1.51616e-05
4.64673e-05
0.000142469
0.00027424
0.000443271
0.000650786
0.00089718
0.00118156
0.00150113
0.00185065
0.00222167
0.00260139
0.00297309
0.00331618
0.00360752
0.00382368
0.00395981
0.00396473
-0.000122005
-0.000137233
-0.000104738
-4.64507e-05
4.56776e-05
0.000173375
0.00033875
0.000543846
0.000790088
0.00107782
0.00140554
0.00176909
0.00216065
0.00256868
0.0029752
0.00335719
0.00368702
0.00393479
0.00409293
0.00409843
-0.000252761
-0.000270861
-0.000241212
-0.000187312
-0.000100261
2.20968e-05
0.000182666
0.000384586
0.000630683
0.000922964
0.00126188
0.00164529
0.00206734
0.00251528
0.00297242
0.00341213
0.00380084
0.00409877
0.00429236
0.00430132
-0.000430441
-0.000451952
-0.000426053
-0.000377913
-0.00029771
-0.000182814
-2.94055e-05
0.000166969
0.000410891
0.000706595
0.00105714
0.00146321
0.00192125
0.00242184
0.0029471
0.00346733
0.00394129
0.00431507
0.00456382
0.00458152
-0.000655909
-0.000681563
-0.000660487
-0.000619903
-0.000549038
-0.000444836
-0.000302523
-0.000116201
0.000120753
0.000415336
0.000774146
0.00120199
0.00169979
0.00226179
0.00287169
0.00349844
0.00409172
0.00457837
0.00491284
0.00495141
-0.000930155
-0.000960821
-0.000945772
-0.000914923
-0.000856598
-0.000767493
-0.000641997
-0.000472792
-0.000251086
3.32676e-05
0.000391241
0.000833423
0.00136753
0.00199463
0.00270172
0.00346301
0.00421863
0.00487207
0.00534089
0.0054296
-0.00125433
-0.00129091
-0.00128304
-0.00126427
-0.0012222
-0.00115364
-0.00105247
-0.00091023
-0.000716148
-0.000456881
-0.000116622
0.000322186
0.000876804
0.00155905
0.00236829
0.00328796
0.00425594
0.00515324
0.00583449
0.00604448
-0.00163
-0.0016733
-0.00167332
-0.0016687
-0.00164666
-0.00160467
-0.00153675
-0.00143395
-0.00128417
-0.00107149
-0.000775602
-0.000371565
0.000169495
0.000877139
0.0017738
0.00285199
0.00407614
0.00531939
0.0063406
0.00682841
-0.00205976
-0.00211019
-0.00211772
-0.00212827
-0.00212925
-0.00211961
-0.00209439
-0.00204524
-0.00196011
-0.00182212
-0.00160827
-0.00128794
-0.000821652
-0.00016077
0.000748186
0.00194835
0.00343465
0.00513568
0.00669998
0.00779235
-0.00254853
-0.0026055
-0.00261794
-0.00264244
-0.00266737
-0.0026942
-0.00272017
-0.00273886
-0.00274023
-0.00270937
-0.00262472
-0.00245526
-0.0021565
-0.00166527
-0.000896826
0.000253954
0.00190641
0.00408235
0.00643787
0.00879966
-0.00310623
-0.00316677
-0.00317747
-0.0032104
-0.00325615
-0.00332001
-0.00340261
-0.0035008
-0.0036089
-0.00371788
-0.00381371
-0.00387461
-0.00386689
-0.00373627
-0.00339516
-0.00269141
-0.00131842
0.00112673
0.00438195
0.00912899
-0.00375094
-0.00380351
-0.00379662
-0.00382538
-0.00388417
-0.00398194
-0.0041218
-0.00430518
-0.00453305
-0.00480617
-0.00512528
-0.0054899
-0.00589849
-0.0063396
-0.00678528
-0.00709519
-0.00684
-0.00464724
-0.000103022
0.0084058
-0.00452446
-0.00456412
-0.00452477
-0.00453521
-0.00458543
-0.00469449
-0.00487273
-0.0051286
-0.00547165
-0.00591575
-0.00648283
-0.00720432
-0.00813595
-0.00934163
-0.0109037
-0.0126396
-0.0140716
-0.0119299
-0.00602748
0.00662088
-0.00558051
-0.00539398
-0.00523559
-0.00514799
-0.00516523
-0.00529137
-0.00552366
-0.00586355
-0.00632285
-0.00692384
-0.0077135
-0.00875644
-0.0101794
-0.0120866
-0.0147586
-0.0177903
-0.0213445
-0.0201745
-0.0147742
0.0032223
-0.00654648
-0.0066641
-0.00637968
-0.00628213
-0.00620313
-0.00623639
-0.00639788
-0.00670441
-0.00717933
-0.00784577
-0.00876808
-0.0100183
-0.0118095
-0.0141576
-0.0179278
-0.0218801
-0.0289964
-0.0302644
-0.0255362
0.00205723
-0.0104034
-0.00759075
-0.00699818
-0.00636533
-0.00617761
-0.00623449
-0.0064916
-0.00690782
-0.00749619
-0.00825527
-0.00929144
-0.010639
-0.0126037
-0.0151503
-0.0192778
-0.0239286
-0.0322872
-0.0333928
-0.0264523
0.0159659
-0.0101608
-0.0110309
-0.00963492
-0.00920255
-0.00854402
-0.00814784
-0.00798887
-0.00807898
-0.00843052
-0.00901572
-0.00992261
-0.0111478
-0.0130321
-0.0154652
-0.0195644
-0.023961
-0.0310508
-0.0265563
-0.0100661
0.0590257
-0.0345995
-0.00921925
-0.00769584
-0.00631887
-0.00564148
-0.00560859
-0.00594338
-0.00642669
-0.00712076
-0.00793857
-0.00911673
-0.0104731
-0.0125323
-0.0146745
-0.0176728
-0.0184413
-0.0166816
0.00456736
0.0502541
0.161744
3.88284e-06
-1.46511e-05
1.87652e-05
8.30992e-05
0.000184336
0.000322903
0.000499443
0.000714371
0.000967347
0.00125635
0.00157754
0.00192449
0.00228762
0.00265426
0.00300793
0.00332947
0.00359801
0.00379288
0.00390997
0.00390398
2.15261e-05
2.66019e-06
3.8271e-05
0.000101593
0.000200067
0.000334608
0.000506248
0.000715713
0.000962842
0.0012461
0.00156206
0.00190457
0.00226444
0.00262946
0.00298323
0.00330648
0.00357785
0.00377631
0.00389919
0.00389102
-1.99736e-05
-4.38173e-05
-9.62167e-06
5.1195e-05
0.000146844
0.000278384
0.000447245
0.000654692
0.000901227
0.00118607
0.00150654
0.00185748
0.00223062
0.00261301
0.00298778
0.0033341
0.00362791
0.00384416
0.00397908
0.00396547
-0.000102018
-0.000129519
-9.72986e-05
-3.98714e-05
5.18405e-05
0.000179207
0.000344289
0.000549221
0.000795538
0.00108368
0.0014123
0.00177741
0.00217149
0.0025827
0.00299307
0.00337916
0.0037122
0.00396035
0.00411719
0.00410102
-0.000230712
-0.000261985
-0.00023254
-0.000179487
-9.28171e-05
2.92518e-05
0.000189585
0.000391427
0.000637734
0.000930667
0.00127083
0.00165619
0.00208085
0.00253364
0.00299611
0.00344163
0.00383508
0.00413398
0.0043261
0.00430958
-0.000406435
-0.000442087
-0.000416297
-0.00036894
-0.00028902
-0.000174292
-2.09605e-05
0.000175545
0.000419951
0.000716685
0.00106904
0.00147792
0.00194012
0.00244709
0.00298003
0.00350893
0.00399043
0.00436659
0.00461367
0.00460116
-0.000629672
-0.000670591
-0.000649496
-0.00060961
-0.000538906
-0.000434719
-0.00029228
-0.000105549
0.000132276
0.000428438
0.000789877
0.0012218
0.00172531
0.00229646
0.00291825
0.00355877
0.00416488
0.00465756
0.00499052
0.00499383
-0.000901256
-0.000948525
-0.000933307
-0.000903069
-0.000844792
-0.000755553
-0.000629717
-0.000459787
-0.000236741
4.99056e-05
0.000411646
0.000859759
0.00140313
0.0020416
0.00276818
0.00355195
0.00433047
0.0049987
0.00546866
0.00552029
-0.00122221
-0.00127699
-0.00126879
-0.00125057
-0.00120848
-0.00113968
-0.00103798
-0.000894719
-0.000698799
-0.00043642
-9.10415e-05
0.000356066
0.000923531
0.00162408
0.00246261
0.00341951
0.00442958
0.0053619
0.00605658
0.00624274
-0.00159391
-0.00165733
-0.00165687
-0.00165281
-0.00163075
-0.00158853
-0.00152001
-0.00141597
-0.00126392
-0.00104732
-0.000744845
-0.000329847
0.000228879
0.000964359
0.00189874
0.00304169
0.00434498
0.00566871
0.00674447
0.00729041
-0.00201862
-0.00209156
-0.00209846
-0.00210969
-0.00211083
-0.00210114
-0.00207546
-0.00202508
-0.00193745
-0.00179493
-0.00157313
-0.00123907
-0.000749068
-4.93642e-05
0.00091395
0.00220582
0.00383536
0.0057098
0.00744573
0.00891171
-0.00250056
-0.00258313
-0.00259482
-0.00262033
-0.00264586
-0.00267316
-0.00269911
-0.00271694
-0.00271603
-0.0026805
-0.00258713
-0.00240192
-0.00207499
-0.00153389
-0.000682307
0.000570356
0.00240957
0.00490786
0.00770386
0.0110919
-0.00304836
-0.00313953
-0.0031496
-0.00318435
-0.00323135
-0.00329629
-0.0033795
-0.00347764
-0.00358431
-0.00368942
-0.00377717
-0.00382282
-0.00378779
-0.0036116
-0.00320438
-0.00242024
-0.000932856
0.00175806
0.00537826
0.0120223
-0.00367489
-0.00376379
-0.00375523
-0.00378717
-0.00384978
-0.00395152
-0.00409467
-0.00428005
-0.00450828
-0.00477915
-0.0050918
-0.00544398
-0.00583326
-0.00625943
-0.00674768
-0.00728165
-0.0074334
-0.00575683
-0.00226395
0.00871939
-0.0044205
-0.00452008
-0.00447999
-0.00449881
-0.00455401
-0.00466707
-0.00484832
-0.00510644
-0.00545098
-0.00589464
-0.00645873
-0.00717585
-0.00810824
-0.00936426
-0.0111828
-0.0137416
-0.0168757
-0.0167748
-0.0137907
0.00136152
-0.0054017
-0.00528129
-0.00513153
-0.00505761
-0.00509246
-0.00523427
-0.00547971
-0.0058298
-0.0062964
-0.00690138
-0.0076891
-0.00873047
-0.0101679
-0.012184
-0.0152832
-0.0196732
-0.0260547
-0.02838
-0.0274788
-0.00726704
-0.00617479
-0.0065197
-0.00624341
-0.00620338
-0.00615057
-0.00620577
-0.00638311
-0.00670144
-0.00717973
-0.00784311
-0.00875384
-0.00998753
-0.011769
-0.0142431
-0.0183618
-0.0237402
-0.0337303
-0.0389881
-0.0400406
-0.00795706
-0.00984237
-0.00719953
-0.00664321
-0.00607041
-0.00598079
-0.00611566
-0.00643312
-0.00688781
-0.00749191
-0.00825215
-0.0092687
-0.0105656
-0.0125326
-0.0149121
-0.0193699
-0.0250582
-0.0349684
-0.0394883
-0.0362591
0.0138351
-0.00739832
-0.00995998
-0.00897087
-0.00892743
-0.00847047
-0.00820305
-0.00812304
-0.00824208
-0.0085969
-0.00914678
-0.00999943
-0.0111182
-0.012887
-0.0152088
-0.0194589
-0.0245446
-0.032428
-0.029691
-0.0115433
0.0673566
-0.0322665
-0.00729369
-0.00608451
-0.00527356
-0.00496187
-0.00511631
-0.00560592
-0.00616927
-0.00694815
-0.00776933
-0.00895336
-0.0102669
-0.0122538
-0.0144608
-0.0174879
-0.018643
-0.0163708
0.00696083
0.0644034
0.193342
1.16372e-05
-1.1186e-05
2.11604e-05
8.48324e-05
0.000186113
0.000325199
0.000502681
0.000719001
0.00097374
0.0012651
0.00158932
0.00194006
0.00230764
0.0026791
0.00303773
0.00336383
0.00363573
0.00383166
0.00394782
0.00393454
3.45763e-05
1.09459e-05
4.60197e-05
0.000108594
0.000206775
0.000341305
0.00051321
0.000723275
0.000971407
0.00125617
0.00157422
0.00191948
0.00228288
0.00265197
0.00301007
0.00333742
0.00361186
0.00381132
0.0039337
0.00391848
-4.13195e-06
-3.34402e-05
2.87527e-07
6.02694e-05
0.000155501
0.00028687
0.00045582
0.000663717
0.000911164
0.00119751
0.00152016
0.00187403
0.00225117
0.00263824
0.00301817
0.00336958
0.00366736
0.00388516
0.00401972
0.00399775
-8.33275e-05
-0.000116762
-8.4954e-05
-2.842e-05
6.27986e-05
0.000189904
0.000354994
0.000560312
0.000807536
0.00109729
0.00142839
0.0017971
0.00219584
0.00261289
0.00302992
0.00342275
0.00376131
0.00401201
0.0041689
0.00414301
-0.000209404
-0.000247048
-0.000217962
-0.000165816
-7.96379e-05
4.21883e-05
0.000202588
0.000404948
0.000652404
0.000947353
0.00129067
0.00168056
0.00211123
0.00257183
0.00304344
0.00349855
0.00390033
0.0042037
0.00439671
0.00436864
-0.000382321
-0.000424832
-0.00039933
-0.000352863
-0.000273387
-0.000158822
-5.28196e-06
0.000191988
0.000437948
0.000737329
0.00109378
0.00150856
0.00197909
0.00249673
0.00304263
0.00358577
0.00408039
0.00446464
0.00471439
0.00468795
-0.00060225
-0.000650611
-0.000629715
-0.000590697
-0.000520389
-0.000416282
-0.000273474
-8.56886e-05
0.000154178
0.000453771
0.000820537
0.00126028
0.00177498
0.002361
0.00300172
0.00366393
0.00429132
0.00479901
0.00513829
0.00512525
-0.000869781
-0.000925206
-0.000910093
-0.000880733
-0.000822849
-0.000733661
-0.000607344
-0.000436103
-0.000210523
8.04236e-05
0.000448963
0.000907268
0.00146434
0.00212455
0.00287879
0.00369574
0.00450913
0.00520551
0.0056894
0.00572456
-0.00118566
-0.00124947
-0.00124129
-0.00122404
-0.00118245
-0.00111379
-0.00101165
-0.000866954
-0.000668132
-0.000400662
-4.69381e-05
0.000413193
0.0010006
0.00172824
0.00260614
0.00361305
0.00467988
0.00566444
0.00638985
0.00656943
-0.00155087
-0.00162441
-0.00162392
-0.00162105
-0.00159978
-0.00155803
-0.00148935
-0.00138405
-0.00122903
-0.00100686
-0.000694824
-0.000264175
0.000319054
0.00108916
0.00207736
0.00329225
0.00468562
0.00610495
0.00725138
0.00782348
-0.00196705
-0.00205146
-0.00205838
-0.00207124
-0.00207375
-0.00206523
-0.00204008
-0.0019891
-0.00189905
-0.00175127
-0.0015198
-0.00116906
-0.000651441
9.31024e-05
0.00112253
0.0025057
0.00426762
0.00631109
0.00820495
0.00975117
-0.00243736
-0.00253312
-0.00254495
-0.00257291
-0.00260089
-0.00263059
-0.00265839
-0.00267699
-0.00267508
-0.00263577
-0.00253426
-0.00233402
-0.00198076
-0.00139606
-0.000481624
0.000870352
0.00286103
0.00561255
0.00868522
0.0121397
-0.0029688
-0.00307567
-0.00308645
-0.00312514
-0.00317624
-0.0032454
-0.00333244
-0.00343358
-0.00354181
-0.00364623
-0.00372989
-0.00376649
-0.00371535
-0.00351488
-0.00308301
-0.00229672
-0.000789807
0.00207404
0.00601312
0.0126522
-0.00356996
-0.00367652
-0.00366915
-0.00370728
-0.00377732
-0.00388708
-0.00403796
-0.00423018
-0.00446398
-0.00473879
-0.00505346
-0.00540631
-0.00579849
-0.00624451
-0.00681699
-0.00758379
-0.00806845
-0.00660309
-0.00288505
0.00774106
-0.00427919
-0.00440402
-0.00436644
-0.00439662
-0.00446336
-0.0045885
-0.00478149
-0.0050508
-0.00540575
-0.00585914
-0.00643303
-0.00716442
-0.00812783
-0.00946719
-0.0115231
-0.0146652
-0.0189431
-0.019544
-0.0165265
-0.00190694
-0.00519864
-0.00510572
-0.00496193
-0.00490302
-0.00495713
-0.00511972
-0.00538591
-0.00575573
-0.00624075
-0.00686307
-0.00766661
-0.00872836
-0.0102079
-0.0123442
-0.0157586
-0.0208547
-0.0286807
-0.0321103
-0.030867
-0.0111841
-0.00584047
-0.0062411
-0.0059814
-0.00598206
-0.00596117
-0.006049
-0.00625725
-0.00660534
-0.00711312
-0.00780216
-0.00872768
-0.0099719
-0.0117682
-0.0143446
-0.0186973
-0.0245528
-0.0351665
-0.0403244
-0.03987
-0.0086112
-0.00946183
-0.00685094
-0.00627091
-0.00571793
-0.00567606
-0.00586882
-0.00624169
-0.00674459
-0.00739598
-0.00819092
-0.00921642
-0.0105048
-0.0124013
-0.0149218
-0.0193479
-0.0252456
-0.0343665
-0.0377186
-0.030896
0.0164573
-0.00631386
-0.00913293
-0.00826312
-0.00833858
-0.00797429
-0.00779628
-0.00779483
-0.00798851
-0.0084252
-0.00903585
-0.00991069
-0.0110291
-0.0127565
-0.0151331
-0.0193711
-0.0245436
-0.0315973
-0.0266635
-0.00471022
0.0730273
-0.0315498
-0.00648744
-0.00527061
-0.00457451
-0.00438714
-0.00463626
-0.00520761
-0.00584125
-0.00668217
-0.00756081
-0.00874952
-0.0101104
-0.0120504
-0.014327
-0.0172417
-0.018232
-0.0148474
0.0110684
0.0741274
0.205445
2.01665e-05
-5.08984e-06
2.65707e-05
8.97367e-05
0.000191063
0.000330638
0.000509036
0.00072674
0.000983399
0.00127727
0.00160465
0.00195915
0.00233129
0.00270771
0.0030714
0.00340219
0.00367772
0.00387543
0.00399177
0.00397484
4.59994e-05
1.9886e-05
5.45077e-05
0.000116565
0.000214635
0.000349377
0.000521838
0.000732873
0.000982469
0.00126928
0.00159001
0.00193849
0.00230624
0.00268004
0.00304307
0.00337509
0.00365324
0.00385464
0.00397752
0.00395865
9.34858e-06
-2.27643e-05
1.05291e-05
6.99392e-05
0.000164995
0.000296501
0.000465939
0.000674759
0.000923674
0.00121215
0.00153772
0.00189556
0.00227721
0.00266971
0.00305553
0.00341272
0.00371527
0.00393575
0.00407123
0.00404497
-6.747e-05
-0.000103959
-7.25621e-05
-1.66379e-05
7.43659e-05
0.000201568
0.000367123
0.00057339
0.000822189
0.0011143
0.0014487
0.00182157
0.00222634
0.00265028
0.00307498
0.00347554
0.00382076
0.0040756
0.00423427
0.00420348
-0.000191158
-0.0002321
-0.000203406
-0.000151883
-6.59089e-05
5.60495e-05
0.000216998
0.000420472
0.000669799
0.000967611
0.00131504
0.00171076
0.00214854
0.00261823
0.00310035
0.00356652
0.00397833
0.00428847
0.00448488
0.00445124
-0.000361447
-0.000407515
-0.000382378
-0.000336533
-0.000257224
-0.000142451
1.17839e-05
0.000210426
0.000458691
0.00076164
0.00112334
0.00154552
0.00202554
0.00255551
0.00311625
0.00367568
0.00418594
0.00458166
0.00483782
0.00480523
-0.000578277
-0.000630497
-0.000609938
-0.000571551
-0.000501384
-0.000396999
-0.000253347
-6.3908e-05
0.000178751
0.00048271
0.000855954
0.00130489
0.00183241
0.00243542
0.00309735
0.00378394
0.00443613
0.00496379
0.00531527
0.00529622
-0.000842025
-0.00090167
-0.000886882
-0.000858203
-0.000800487
-0.000711014
-0.000583771
-0.000410654
-0.000181827
0.00011431
0.000490747
0.000960679
0.00153458
0.00221749
0.00300172
0.00385501
0.00470786
0.00543962
0.00594692
0.00597891
-0.00115316
-0.00122164
-0.00121381
-0.00119737
-0.00115608
-0.00108727
-0.000984273
-0.000837653
-0.000635306
-0.000361973
9.95021e-07
0.00047508
0.00108273
0.00184046
0.00275982
0.00381971
0.00494857
0.00599545
0.0067674
0.00695447
-0.00151231
-0.00159105
-0.00159101
-0.00158921
-0.00156857
-0.00152702
-0.00145782
-0.00135087
-0.00119243
-0.00096415
-0.000641923
-0.000194969
0.000413201
0.00121987
0.00226039
0.00354793
0.00503534
0.00656302
0.0078058
0.00841462
-0.00192052
-0.00201081
-0.00201837
-0.00203278
-0.00203649
-0.00202885
-0.00200394
-0.00195211
-0.00185945
-0.00170632
-0.00146529
-0.00109849
-0.000555077
0.000229486
0.00131965
0.00279159
0.00468383
0.0069076
0.00899531
0.0106203
-0.00238004
-0.00248252
-0.00249532
-0.0025256
-0.00255576
-0.00258751
-0.00261688
-0.00263612
-0.00263334
-0.0025908
-0.00248246
-0.00226983
-0.00189552
-0.0012769
-0.00031076
0.00111976
0.0032474
0.00625288
0.00967194
0.0132625
-0.0028964
-0.00301124
-0.00302369
-0.003066
-0.00312074
-0.00319362
-0.00328416
-0.00338826
-0.00349849
-0.00360347
-0.00368576
-0.00371858
-0.003661
-0.00345277
-0.00301928
-0.00224931
-0.000754953
0.00228076
0.00672677
0.0135449
-0.00347523
-0.00359111
-0.00358616
-0.00362968
-0.00370574
-0.00382209
-0.00397965
-0.00417827
-0.00441806
-0.00469858
-0.00501941
-0.00538118
-0.00579056
-0.00627834
-0.00695849
-0.00796941
-0.00887021
-0.00766028
-0.0035148
0.00730754
-0.00415302
-0.00429112
-0.00425763
-0.00429714
-0.00437325
-0.00450829
-0.0047113
-0.0049907
-0.00535599
-0.00582082
-0.00640966
-0.00716539
-0.00817628
-0.00962011
-0.0119202
-0.0156258
-0.0211091
-0.0224647
-0.0193142
-0.00423686
-0.00502247
-0.00494523
-0.00480792
-0.00476103
-0.00482904
-0.00500724
-0.00528978
-0.00567595
-0.00617732
-0.00681673
-0.00764166
-0.00873516
-0.0102773
-0.0125521
-0.0163007
-0.0220503
-0.0313397
-0.0356484
-0.0346343
-0.0139049
-0.00557947
-0.00601822
-0.00576552
-0.00579323
-0.00579428
-0.00590506
-0.00613579
-0.00650565
-0.00703378
-0.00774188
-0.00868759
-0.00995637
-0.0117986
-0.014479
-0.0191187
-0.0253813
-0.0369251
-0.042101
-0.042039
-0.0089912
-0.00912144
-0.00654594
-0.00596656
-0.00543615
-0.00542133
-0.00564786
-0.00605694
-0.00659443
-0.00727456
-0.00809499
-0.00913864
-0.0104399
-0.0123445
-0.0149296
-0.0194543
-0.0255312
-0.034706
-0.0374739
-0.0308287
0.0190153
-0.0057162
-0.00869191
-0.0078319
-0.00796896
-0.00764401
-0.00751033
-0.00755181
-0.00778838
-0.00825779
-0.00889775
-0.00979085
-0.0109172
-0.0126547
-0.0150639
-0.0193667
-0.0245909
-0.0315662
-0.025717
-0.00330114
0.0778843
-0.0309557
-0.00588613
-0.00467449
-0.00403342
-0.00391467
-0.00422721
-0.00486016
-0.0055496
-0.00643896
-0.00736261
-0.00857542
-0.00997034
-0.01192
-0.0142172
-0.0171424
-0.0179931
-0.0143168
0.0131827
0.0781051
0.213483
2.8982e-05
2.89292e-06
3.42897e-05
9.72633e-05
0.000198735
0.000338789
0.000518045
0.000737048
0.000995519
0.00129179
0.00162219
0.00198035
0.00235687
0.00273808
0.00310668
0.0034421
0.00372142
0.00392151
0.00403893
0.00402067
5.60451e-05
2.89857e-05
6.3396e-05
0.000125244
0.000223408
0.000358548
0.000531762
0.000743979
0.000995267
0.00128436
0.00160805
0.00196022
0.0023323
0.00271097
0.00307909
0.00341599
0.00369822
0.00390229
0.00402652
0.00400648
2.07586e-05
-1.2419e-05
2.06674e-05
7.9842e-05
0.000174971
0.000306859
0.00047705
0.000687087
0.000937786
0.00122872
0.00155753
0.00191949
0.00230614
0.00270437
0.00309633
0.00345956
0.00376733
0.00399136
0.00412876
0.00410117
-5.42705e-05
-9.19188e-05
-6.07202e-05
-5.0487e-06
8.60216e-05
0.000213612
0.000379958
0.000587538
0.000838308
0.0011332
0.00147131
0.00184896
0.00225997
0.00269118
0.00312388
0.00353255
0.00388503
0.00414508
0.00430676
0.00427453
-0.000175951
-0.000218149
-0.000189643
-0.000138379
-5.23195e-05
7.00757e-05
0.000231919
0.000436898
0.000688525
0.000989638
0.00134149
0.00174215
0.00218887
0.00266823
0.00316126
0.00363892
0.00406146
0.00437969
0.00458105
0.00454589
-0.000343909
-0.000391337
-0.00036638
-0.000320796
-0.000241374
-0.000126096
2.91708e-05
0.000229568
0.000480565
0.00078755
0.00115507
0.001586
0.00207499
0.00261759
0.00319349
0.00376959
0.00429616
0.00470489
0.00496942
0.00493541
-0.000557951
-0.000611646
-0.000591268
-0.000553164
-0.000482876
-0.000377941
-0.000233135
-4.16944e-05
0.000204139
0.000512861
0.000892985
0.00135153
0.00189183
0.00251207
0.0031953
0.00390624
0.00458356
0.00513266
0.00549862
0.00547877
-0.000818283
-0.000879538
-0.000864959
-0.000836629
-0.000778845
-0.000688849
-0.000560414
-0.000385137
-0.000152775
0.000148797
0.000533227
0.00101452
0.00160441
0.0023103
0.00312401
0.00401258
0.00490408
0.00567173
0.00620468
0.00623802
-0.00112515
-0.0011954
-0.00118785
-0.00117191
-0.00113071
-0.00106154
-0.000957482
-0.000808742
-0.00060272
-0.000323487
4.84496e-05
0.000535389
0.00116059
0.00194889
0.00290763
0.00401716
0.00520455
0.00631152
0.00713055
0.00732492
-0.00147883
-0.00155955
-0.00155993
-0.0015589
-0.00153867
-0.00149714
-0.00142729
-0.00131861
-0.00115679
-0.000922589
-0.000590602
-0.000127891
0.000505018
0.00134258
0.00242946
0.00378229
0.00535505
0.00698275
0.00831595
0.00894614
-0.00187991
-0.00197242
-0.00198065
-0.00199627
-0.00200095
-0.00199401
-0.00196925
-0.00191661
-0.00182161
-0.00166373
-0.00141424
-0.00103328
-0.000467472
0.000349718
0.00149031
0.00303957
0.00504569
0.00743126
0.00969489
0.0113461
-0.0023299
-0.00243493
-0.00244877
-0.00248092
-0.00251291
-0.00254643
-0.00257724
-0.00259726
-0.00259412
-0.00254944
-0.00243619
-0.00221447
-0.00182468
-0.00118101
-0.000175352
0.00131756
0.00356084
0.00679608
0.0105249
0.0141429
-0.00283332
-0.00295116
-0.00296528
-0.00301047
-0.00306824
-0.00314435
-0.00323815
-0.00334532
-0.00345821
-0.00356523
-0.00364877
-0.00368219
-0.00362503
-0.00341819
-0.00299111
-0.00224208
-0.000770846
0.00244507
0.00739449
0.014242
-0.003394
-0.0035134
-0.00351077
-0.00355842
-0.00363917
-0.00376086
-0.00392421
-0.00412898
-0.00437536
-0.00466328
-0.00499332
-0.00536916
-0.00580303
-0.00633742
-0.00711847
-0.00835108
-0.00970678
-0.00851274
-0.00371474
0.00723065
-0.00404769
-0.00419077
-0.0041606
-0.00420659
-0.00428959
-0.00443232
-0.00464376
-0.00493246
-0.00530847
-0.00578654
-0.00639366
-0.00717835
-0.0082418
-0.00978708
-0.0123008
-0.0164574
-0.0227873
-0.0246872
-0.0209025
-0.00535347
-0.00488174
-0.00481057
-0.00467793
-0.00463905
-0.00471603
-0.0049049
-0.00519955
-0.00559919
-0.00611581
-0.0067736
-0.00762275
-0.00875388
-0.0103661
-0.0127755
-0.0168318
-0.0231207
-0.0336055
-0.03842
-0.0367129
-0.0151963
-0.00539554
-0.0058473
-0.00559527
-0.00563679
-0.00564971
-0.00577421
-0.00601969
-0.00640551
-0.00695119
-0.00767972
-0.00865002
-0.0099522
-0.0118578
-0.014646
-0.0195697
-0.0261451
-0.0386694
-0.0436652
-0.0424571
-0.00898387
-0.00887246
-0.00631688
-0.00574332
-0.00522571
-0.00522198
-0.00546471
-0.00589309
-0.0064518
-0.00715366
-0.00799683
-0.00906387
-0.0103896
-0.0123357
-0.0149799
-0.0196474
-0.0258892
-0.0352483
-0.0375801
-0.0293339
0.0206873
-0.00544843
-0.0084534
-0.00756959
-0.0077194
-0.00740094
-0.00728226
-0.00734172
-0.00760053
-0.00809385
-0.00875344
-0.00967555
-0.0108207
-0.0125932
-0.0150401
-0.0194383
-0.0247101
-0.0316421
-0.024982
-0.000781345
0.0808392
-0.0306442
-0.00556468
-0.00434118
-0.00370515
-0.00360496
-0.00394275
-0.00460468
-0.00532427
-0.00624345
-0.00719751
-0.00843753
-0.00986342
-0.0118467
-0.0141813
-0.0171517
-0.0179661
-0.0139743
0.0144016
0.0811575
0.217415
3.7291e-05
1.09255e-05
4.22364e-05
0.000105202
0.000206918
0.000347506
0.000527641
0.000747935
0.00100818
0.00130676
0.00164007
0.00200174
0.00238234
0.00276803
0.00314126
0.00348108
0.00376414
0.00396684
0.00408571
0.00406706
6.4893e-05
3.75207e-05
7.18648e-05
0.000133707
0.000232109
0.000367762
0.000541831
0.000755313
0.00100836
0.00129977
0.00162641
0.0019822
0.00235848
0.00274184
0.00311487
0.0034565
0.0037428
0.00394977
0.00407569
0.00405543
3.0564e-05
-2.95913e-06
3.00664e-05
8.92321e-05
0.000184601
0.000317014
0.000488092
0.000699464
0.000952041
0.0012455
0.00157757
0.00194361
0.00233511
0.00273885
0.00313672
0.00350579
0.00381872
0.00404653
0.00418621
0.00415838
-4.31085e-05
-8.11292e-05
-4.99845e-05
5.67832e-06
9.7001e-05
0.000225149
0.000392448
0.000601488
0.000854354
0.00115212
0.00149401
0.00187652
0.00229345
0.00273161
0.00317195
0.0035884
0.00394797
0.00421342
0.00437848
0.00434608
-0.000163147
-0.000205742
-0.000177285
-0.000126025
-3.96879e-05
8.33211e-05
0.000246227
0.000452859
0.000706903
0.0010114
0.00136783
0.00177474
0.00222865
0.00271706
0.00322042
0.00370896
0.0041418
0.00446816
0.00467477
0.00463959
-0.000329128
-0.000376978
-0.000352069
-0.00030649
-0.000226766
-0.000110814
4.56401e-05
0.000247917
0.000501711
0.000812687
0.00118566
0.00162358
0.00212243
0.00267717
0.00326732
0.00385897
0.00440087
0.00482224
0.00509522
0.0050615
-0.000540774
-0.000594916
-0.000574601
-0.000536522
-0.000465934
-0.000360291
-0.000214202
-2.06752e-05
0.000228334
0.000541679
0.000928284
0.0013956
0.00194764
0.00258418
0.00328715
0.00402041
0.00472077
0.00528994
0.00566988
0.00565101
-0.000798157
-0.000859894
-0.000845418
-0.00081718
-0.000759154
-0.000668491
-0.000538763
-0.000361293
-0.000125485
0.000181228
0.000572946
0.00106393
0.00166609
0.00239519
0.00323614
0.00415641
0.00508244
0.00588245
0.00643906
0.00647491
-0.00110134
-0.00117212
-0.00116476
-0.00114904
-0.00110776
-0.00103809
-0.000932895
-0.000782058
-0.000572548
-0.00028789
9.19023e-05
0.000588236
0.00121314
0.00204438
0.00303976
0.00419288
0.00543121
0.00659047
0.00745091
0.00765113
-0.00145035
-0.00153165
-0.00153237
-0.0015318
-0.00151179
-0.00147012
-0.00139954
-0.00128919
-0.00112425
-0.000884723
-0.000543843
-6.52713e-05
0.000604911
0.00145253
0.00257691
0.0039851
0.00563024
0.00734211
0.00875092
0.00939404
-0.00184538
-0.00193856
-0.00194736
-0.00196381
-0.00196919
-0.00196272
-0.00193799
-0.00188459
-0.00178758
-0.00162571
-0.00136903
-0.00097568
-0.000389225
0.000452332
0.00163341
0.00324717
0.00534795
0.0078661
0.0102729
0.0119327
-0.00228747
-0.00239327
-0.00240801
-0.00244153
-0.00247492
-0.00250982
-0.00254182
-0.00256258
-0.0025594
-0.0025134
-0.00239679
-0.00216845
-0.00176706
-0.00110472
-6.76995e-05
0.00147614
0.00381579
0.00723874
0.0112234
0.0148411
-0.00278046
-0.00289923
-0.00291474
-0.00296204
-0.00302213
-0.00310081
-0.00319734
-0.00330733
-0.00342303
-0.00353281
-0.00361908
-0.00365523
-0.00360113
-0.00339816
-0.00297649
-0.00223676
-0.000764586
0.00262429
0.00797889
0.0148401
-0.00332724
-0.00344769
-0.00344695
-0.00349756
-0.00358177
-0.00370755
-0.0038756
-0.00408574
-0.00433843
-0.00463417
-0.00497488
-0.00536561
-0.00582366
-0.00640049
-0.00726292
-0.00865337
-0.0102917
-0.00909422
-0.00373565
0.00733588
-0.00396363
-0.00410825
-0.00408054
-0.00413079
-0.00421857
-0.00436695
-0.00458499
-0.00488155
-0.00526732
-0.00575835
-0.00638412
-0.00719783
-0.00831121
-0.00994588
-0.0126366
-0.0171427
-0.0241408
-0.026343
-0.0219612
-0.00597713
-0.00477315
-0.0047039
-0.00457455
-0.00454081
-0.00462362
-0.00481978
-0.00512325
-0.00553352
-0.00606324
-0.00673812
-0.00761153
-0.00878092
-0.0104619
-0.0129927
-0.017312
-0.0240309
-0.03549
-0.0406777
-0.0383716
-0.0160749
-0.00526642
-0.00572221
-0.00546919
-0.00551719
-0.00553614
-0.00566869
-0.00592378
-0.00632118
-0.00688097
-0.00762755
-0.00862276
-0.00996147
-0.0119359
-0.01483
-0.0200163
-0.0268116
-0.0403748
-0.0453059
-0.0433485
-0.00915474
-0.00869475
-0.00615027
-0.00558336
-0.00507351
-0.00507465
-0.00532488
-0.00576385
-0.00633585
-0.00705406
-0.00791549
-0.0090065
-0.0103614
-0.0123648
-0.015071
-0.0199018
-0.0263161
-0.0360152
-0.0381805
-0.0290683
0.0216214
-0.00530804
-0.00831523
-0.00740692
-0.00755796
-0.00723616
-0.00712002
-0.00718583
-0.00745514
-0.0079638
-0.00864067
-0.00958521
-0.0107517
-0.0125705
-0.0150605
-0.0195674
-0.0248935
-0.0319153
-0.0247829
0.000339935
0.0827028
-0.03045
-0.00536944
-0.00413626
-0.00349615
-0.00339947
-0.00374563
-0.00442083
-0.00515521
-0.0060942
-0.007068
-0.0083357
-0.00978881
-0.0118197
-0.0141959
-0.0172382
-0.0180334
-0.0139563
0.0149945
0.0827924
0.219721
4.45949e-05
1.8194e-05
4.95311e-05
0.000112607
0.000214621
0.000355744
0.000536709
0.000758191
0.00102004
0.00132071
0.00165664
0.00202152
0.00240565
0.00279527
0.00317259
0.00351634
0.0038028
0.00400801
0.00412839
0.00410975
7.24446e-05
4.50034e-05
7.93756e-05
0.000141333
0.00024004
0.000376237
0.000551147
0.000765835
0.00102052
0.00131407
0.00164338
0.00200238
0.00238247
0.00277002
0.00314741
0.00349329
0.0037833
0.00399304
0.00412068
0.00410058
3.87885e-05
5.19434e-06
3.82519e-05
9.75368e-05
0.000193224
0.000326206
0.00049817
0.000710827
0.00096517
0.00126096
0.001596
0.00196571
0.00236156
0.00277021
0.00317332
0.00354759
0.00386518
0.00409655
0.00423847
0.00421086
-3.38715e-05
-7.19651e-05
-4.07831e-05
1.50067e-05
0.000106669
0.000235426
0.000403687
0.000614139
0.00086898
0.0011694
0.00151475
0.00190165
0.00232384
0.00276813
0.00321521
0.00363852
0.00400442
0.00427482
0.00444308
0.00441103
-0.000152612
-0.000195281
-0.000166782
-0.000115387
-2.86837e-05
9.49882e-05
0.000258956
0.000467174
0.000723477
0.00103108
0.00139167
0.00180407
0.00226443
0.00276074
0.0032731
0.0037711
0.00421295
0.00454657
0.004758
0.00472338
-0.000316987
-0.000364909
-0.000339961
-0.000294246
-0.000214135
-9.74689e-05
6.01519e-05
0.000264205
0.000520575
0.000835155
0.001213
0.00165719
0.00216461
0.00272981
0.00333219
0.00393713
0.00449217
0.00492449
0.00520494
0.00517212
-0.000526662
-0.000580877
-0.00056054
-0.000522343
-0.000451374
-0.000344995
-0.000197667
-2.20362e-06
0.000249684
0.000567151