/*--------------------------------*- C++ -*----------------------------------*\
  =========                 |
  \\      /  F ield         | OpenFOAM: The Open Source CFD Toolbox
   \\    /   O peration     | Website:  https://openfoam.org
    \\  /    A nd           | Version:  10
     \\/     M anipulation  |
\*---------------------------------------------------------------------------*/
FoamFile
{
    format      ascii;
    class       surfaceScalarField;
    location    "5";
    object      phi;
}
// * * * * * * * * * * * * * * * * * * * * * * * * * * * * * * * * * * * * * //

dimensions      [0 3 -1 0 0 0 0];

internalField   nonuniform List<scalar> 
22800
(
-2.1653e-06
2.54454e-06
-3.78348e-07
-7.2215e-06
5.00703e-06
4.91664e-08
-1.31169e-05
5.66447e-06
2.30928e-07
-1.91887e-05
5.75202e-06
3.198e-07
-2.51801e-05
5.66888e-06
3.22468e-07
-3.09544e-05
5.50492e-06
2.69421e-07
-3.63826e-05
5.25288e-06
1.75282e-07
-4.13041e-05
4.88249e-06
3.90388e-08
-4.55347e-05
4.35653e-06
-1.25969e-07
-4.88433e-05
3.64255e-06
-3.33942e-07
-5.09662e-05
2.71157e-06
-5.8864e-07
-5.16153e-05
1.54494e-06
-8.95844e-07
-5.05048e-05
1.30424e-07
-1.24095e-06
-4.73967e-05
-1.50242e-06
-1.60569e-06
-4.21456e-05
-3.28234e-06
-1.96872e-06
-3.47702e-05
-5.08582e-06
-2.28955e-06
-2.55594e-05
-6.71228e-06
-2.49855e-06
-1.5251e-05
-7.81244e-06
-2.49592e-06
-5.3648e-06
-7.67447e-06
-2.21176e-06
-4.31297e-06
-1.05183e-06
-4.55377e-06
8.31475e-06
-1.21644e-06
-1.32471e-05
1.45595e-05
-8.59182e-07
-2.30821e-05
1.61714e-05
-6.71911e-07
-3.30795e-05
1.62686e-05
-5.19109e-07
-4.28238e-05
1.58573e-05
-4.44187e-07
-5.207e-05
1.51692e-05
-4.18066e-07
-6.05955e-05
1.42055e-05
-4.27108e-07
-6.81528e-05
1.29119e-05
-4.7215e-07
-7.44568e-05
1.12193e-05
-5.58736e-07
-7.91796e-05
9.05786e-06
-6.92452e-07
-8.19481e-05
6.3576e-06
-8.77571e-07
-8.23922e-05
3.10477e-06
-1.11575e-06
-8.01556e-05
-6.87976e-07
-1.41812e-06
-7.48802e-05
-5.0304e-06
-1.74741e-06
-6.64043e-05
-9.67252e-06
-2.08575e-06
-5.47874e-05
-1.43178e-05
-2.38492e-06
-4.04675e-05
-1.84748e-05
-2.55736e-06
-2.45168e-05
-2.1277e-05
-2.48614e-06
-9.11872e-06
-2.09705e-05
-2.10207e-06
-1.27139e-05
-7.17813e-07
-5.32815e-06
1.52701e-05
-1.62721e-06
-1.52863e-05
2.58434e-05
-1.32576e-06
-2.64625e-05
2.84816e-05
-1.13404e-06
-3.77711e-05
2.85276e-05
-9.50416e-07
-4.87658e-05
2.76886e-05
-8.3659e-07
-5.91847e-05
2.63558e-05
-7.6766e-07
-6.87912e-05
2.45428e-05
-7.30757e-07
-7.73223e-05
2.21734e-05
-7.30478e-07
-8.44734e-05
1.91462e-05
-7.75803e-07
-8.98928e-05
1.53521e-05
-8.74767e-07
-9.31924e-05
1.06921e-05
-1.03489e-06
-9.3931e-05
5.10625e-06
-1.26296e-06
-9.16423e-05
-1.41943e-06
-1.55716e-06
-8.59377e-05
-8.83065e-06
-1.90436e-06
-7.65518e-05
-1.67814e-05
-2.27703e-06
-6.34734e-05
-2.47782e-05
-2.61809e-06
-4.71276e-05
-3.1999e-05
-2.82169e-06
-2.87043e-05
-3.6954e-05
-2.74623e-06
-1.0743e-05
-3.66207e-05
-2.31116e-06
-2.27262e-05
-7.30623e-07
-5.57391e-06
2.27967e-05
-1.95269e-06
-1.60745e-05
3.80528e-05
-1.70888e-06
-2.78503e-05
4.1777e-05
-1.51947e-06
-3.97762e-05
4.177e-05
-1.3165e-06
-5.14082e-05
4.04993e-05
-1.17875e-06
-6.24966e-05
3.85275e-05
-1.08337e-06
-7.28168e-05
3.5883e-05
-1.01996e-06
-8.21151e-05
3.24656e-05
-9.93958e-07
-9.00884e-05
2.81352e-05
-1.01568e-06
-9.63714e-05
2.27348e-05
-1.09971e-06
-0.000100532
1.61097e-05
-1.25745e-06
-0.000102074
8.14761e-06
-1.4988e-06
-0.000100462
-1.18814e-06
-1.84351e-06
-9.50921e-05
-1.1949e-05
-2.25143e-06
-8.55316e-05
-2.36371e-05
-2.7048e-06
-7.15908e-05
-3.55834e-05
-3.13553e-06
-5.36065e-05
-4.65683e-05
-3.4149e-06
-3.28754e-05
-5.43208e-05
-3.3643e-06
-1.2351e-05
-5.427e-05
-2.87503e-06
-3.40724e-05
-1.00484e-06
-5.71689e-06
3.0753e-05
-2.23937e-06
-1.66534e-05
5.10346e-05
-2.04535e-06
-2.89475e-05
5.59311e-05
-1.85995e-06
-4.1438e-05
5.59054e-05
-1.64491e-06
-5.36901e-05
5.42459e-05
-1.49458e-06
-6.54783e-05
5.17033e-05
-1.38756e-06
-7.66046e-05
4.83246e-05
-1.3153e-06
-8.68386e-05
4.39858e-05
-1.28619e-06
-9.58908e-05
3.85017e-05
-1.31419e-06
-0.00010339
3.16499e-05
-1.41613e-06
-0.000108863
2.31933e-05
-1.61061e-06
-0.000111717
1.29188e-05
-1.91666e-06
-0.000111304
7.53126e-07
-2.35419e-06
-0.000106766
-1.36026e-05
-2.88477e-06
-9.73853e-05
-2.95203e-05
-3.49749e-06
-8.26566e-05
-4.62046e-05
-4.10757e-06
-6.26901e-05
-6.19897e-05
-4.5451e-06
-3.88545e-05
-7.35907e-05
-4.56571e-06
-1.4726e-05
-7.43928e-05
-4.00574e-06
-4.71532e-05
-1.64516e-06
-5.87565e-06
3.9171e-05
-2.54242e-06
-1.73115e-05
6.48678e-05
-2.39733e-06
-3.02089e-05
7.1046e-05
-2.21755e-06
-4.33593e-05
7.10498e-05
-1.99394e-06
-5.63406e-05
6.9064e-05
-1.83669e-06
-6.89616e-05
6.60502e-05
-1.72603e-06
-8.10645e-05
6.20833e-05
-1.65576e-06
-9.24592e-05
5.70181e-05
-1.63757e-06
-0.000102888
5.06207e-05
-1.68974e-06
-0.000111993
4.25895e-05
-1.83497e-06
-0.000119273
3.25722e-05
-2.09856e-06
-0.000124056
2.0208e-05
-2.50639e-06
-0.00012545
5.22311e-06
-3.07673e-06
-0.000122416
-1.27874e-05
-3.84893e-06
-0.000113707
-3.34891e-05
-4.73989e-06
-9.83155e-05
-5.59278e-05
-5.66841e-06
-7.59091e-05
-7.79888e-05
-6.40732e-06
-4.77943e-05
-9.51063e-05
-6.59918e-06
-1.84271e-05
-9.77973e-05
-5.96274e-06
-6.27569e-05
-2.82346e-06
-6.07021e-06
4.8144e-05
-2.90273e-06
-1.81019e-05
7.9715e-05
-2.81543e-06
-3.17086e-05
8.72954e-05
-2.64272e-06
-4.5621e-05
8.73715e-05
-2.40933e-06
-5.94337e-05
8.51207e-05
-2.24403e-06
-7.30015e-05
8.17478e-05
-2.12976e-06
-8.6225e-05
7.73707e-05
-2.06382e-06
-9.89777e-05
7.18332e-05
-2.06247e-06
-0.000111064
6.48566e-05
-2.1499e-06
-0.00012217
5.60533e-05
-2.35717e-06
-0.000131805
4.49289e-05
-2.72179e-06
-0.000139221
3.09096e-05
-3.28587e-06
-0.00014334
1.34284e-05
-4.08641e-06
-0.000142786
-8.13124e-06
-5.20973e-06
-0.00013566
-3.40553e-05
-6.5598e-06
-0.000120133
-6.34084e-05
-8.04636e-06
-9.50291e-05
-9.37341e-05
-9.35895e-06
-6.12366e-05
-0.000118946
-9.95311e-06
-2.43287e-05
-0.000125428
-9.27689e-06
-8.2134e-05
-4.95156e-06
-6.30149e-06
5.77953e-05
-3.34985e-06
-1.90293e-05
9.57797e-05
-3.33694e-06
-3.34395e-05
0.000104877
-3.17141e-06
-4.81864e-05
0.00010504
-2.92177e-06
-6.28866e-05
0.000102561
-2.74046e-06
-7.74556e-05
9.89317e-05
-2.61494e-06
-9.18738e-05
9.43367e-05
-2.54783e-06
-0.000106108
8.86294e-05
-2.56177e-06
-0.000120066
8.1504e-05
-2.68926e-06
-0.000133536
7.24962e-05
-2.97372e-06
-0.000146096
6.09611e-05
-3.47173e-06
-0.000156998
4.60633e-05
-4.25129e-06
-0.000165
2.68187e-05
-5.38907e-06
-0.000168449
2.38013e-06
-7.06244e-06
-0.000164492
-2.88654e-05
-9.14643e-06
-0.000150141
-6.61574e-05
-1.16017e-05
-0.000122682
-0.000107187
-1.40062e-05
-8.18112e-05
-0.000144296
-1.55209e-05
-3.41701e-05
-0.00015807
-1.49991e-05
-0.000107323
-8.98153e-06
-6.58003e-06
6.82907e-05
-3.91534e-06
-2.01125e-05
0.000113314
-4.00137e-06
-3.54048e-05
0.00012401
-3.84051e-06
-5.10175e-05
0.000124214
-3.56093e-06
-6.65957e-05
0.000121486
-3.34662e-06
-8.21322e-05
0.000117661
-3.19232e-06
-9.77111e-05
0.000113024
-3.10848e-06
-0.000113428
0.000107473
-3.12633e-06
-0.000129346
0.000100711
-3.28961e-06
-0.000145428
9.22373e-05
-3.65915e-06
-0.000161436
8.12888e-05
-4.31977e-06
-0.000176765
6.67776e-05
-5.38469e-06
-0.000190196
4.7251e-05
-7.002e-06
-0.00019946
2.0984e-05
-9.33952e-06
-0.000201406
-1.42234e-05
-1.26956e-05
-0.000190975
-5.97555e-05
-1.68333e-05
-0.000162917
-0.000113942
-2.13035e-05
-0.000114252
-0.00016809
-2.48703e-05
-5.1659e-05
-0.000195417
-2.52469e-05
-0.00014161
-1.73716e-05
-6.94306e-06
7.98764e-05
-4.64261e-06
-2.14191e-05
0.000132651
-4.86106e-06
-3.76632e-05
0.000144951
-4.69737e-06
-5.4125e-05
0.000145038
-4.36291e-06
-7.04894e-05
0.000141936
-4.08506e-06
-8.68445e-05
0.000137886
-3.86994e-06
-0.000103401
0.000133319
-3.73911e-06
-0.000120416
0.000128223
-3.73477e-06
-0.000138161
0.000122371
-3.91479e-06
-0.000156866
0.000115306
-4.3628e-06
-0.000176616
0.000106243
-5.20351e-06
-0.000197149
9.39316e-05
-6.62113e-06
-0.000217508
7.64791e-05
-8.86912e-06
-0.000235487
5.12034e-05
-1.22408e-05
-0.000247224
1.48999e-05
-1.73863e-05
-0.00024572
-3.69671e-05
-2.42919e-05
-0.000221834
-0.000105254
-3.25741e-05
-0.00016724
-0.000182116
-4.05684e-05
-8.48676e-05
-0.000233559
-4.42291e-05
-0.000190939
-3.55386e-05
-7.47944e-06
9.2955e-05
-5.59919e-06
-2.31081e-05
0.000154273
-5.99339e-06
-4.03776e-05
0.000168031
-5.81002e-06
-5.76191e-05
0.000167657
-5.37719e-06
-7.45792e-05
0.00016388
-4.98408e-06
-9.1463e-05
0.000159423
-4.65402e-06
-0.000108624
0.000154904
-4.42398e-06
-0.000126499
0.000150447
-4.34909e-06
-0.000145604
0.00014598
-4.5031e-06
-0.000166521
0.000141218
-4.99564e-06
-0.000189819
0.000135541
-5.99938e-06
-0.000215882
0.000127784
-7.78983e-06
-0.00024452
0.000115905
-1.07882e-05
-0.000274238
9.65272e-05
-1.56054e-05
-0.000300862
6.45555e-05
-2.30316e-05
-0.000317212
1.36189e-05
-3.4236e-05
-0.000308041
-6.55227e-05
-4.89028e-05
-0.000256122
-0.00016858
-6.54556e-05
-0.000150981
-0.000260497
-7.82023e-05
-0.000266148
-7.5773e-05
-8.37572e-06
0.000108229
-6.89807e-06
-2.54982e-05
0.000178916
-7.52072e-06
-4.3885e-05
0.000193702
-7.28426e-06
-6.17759e-05
0.000192226
-6.67752e-06
-7.9025e-05
0.000187211
-6.08234e-06
-9.59858e-05
0.000181933
-5.54917e-06
-0.000113162
0.000177216
-5.13608e-06
-0.000131158
0.000173353
-4.91089e-06
-0.000150726
0.00017051
-4.96228e-06
-0.000172824
0.00016874
-5.42497e-06
-0.000198642
0.000167882
-6.52233e-06
-0.000229541
0.000167316
-8.63345e-06
-0.000266735
0.000165488
-1.23886e-05
-0.000310509
0.00015904
-1.87387e-05
-0.000358911
0.000141813
-2.8856e-05
-0.00040401
0.000103159
-4.44411e-05
-0.000429948
2.77916e-05
-6.73765e-05
-0.000401421
-0.000101912
-9.5195e-05
-0.000273842
-0.000264936
-0.000123141
-0.000396869
-0.00014312
-1.00129e-05
0.000126977
-8.73549e-06
-2.91895e-05
0.000207713
-9.62058e-06
-4.88078e-05
0.00022257
-9.25008e-06
-6.71279e-05
0.000218883
-8.33717e-06
-8.42102e-05
0.000211702
-7.40817e-06
-0.000100617
0.000204885
-6.54512e-06
-0.000117
0.000199426
-5.82708e-06
-0.000134066
0.00019575
-5.33026e-06
-0.000152709
0.000194309
-5.15519e-06
-0.000174157
0.000195637
-5.44806e-06
-0.000200156
0.000200338
-6.45666e-06
-0.000233151
0.000208925
-8.6153e-06
-0.000276416
0.000221415
-1.26618e-05
-0.000333753
0.00023607
-1.96927e-05
-0.000408409
0.000247414
-3.09449e-05
-0.000498659
0.00024064
-4.7231e-05
-0.000586103
0.000183934
-6.86986e-05
-0.000610234
1.18546e-05
-8.96355e-05
-0.0004709
-0.000296486
-0.000107783
-0.000693939
-0.00017383
-1.32411e-05
0.000151774
-1.15561e-05
-3.53536e-05
0.00024274
-1.29139e-05
-5.6198e-05
0.000255763
-1.23481e-05
-7.44685e-05
0.000248047
-1.08934e-05
-9.07359e-05
0.000237267
-9.29823e-06
-0.000105839
0.000227762
-7.77392e-06
-0.000120475
0.000220534
-6.47217e-06
-0.00013534
0.000216107
-5.49288e-06
-0.000151298
0.000215182
-4.9149e-06
-0.000169593
0.000218792
-4.86014e-06
-0.000192211
0.000228498
-5.54218e-06
-0.000222365
0.000246398
-7.31937e-06
-0.000265439
0.00027518
-1.06905e-05
-0.000329628
0.000316101
-1.58425e-05
-0.000427106
0.000365882
-2.09887e-05
-0.000567395
0.000400091
-1.91614e-05
-0.000743781
0.000358226
2.09338e-06
-0.000863649
7.02454e-05
6.14768e-05
-0.000715953
-0.000559757
0.000115575
-0.00134171
-6.81836e-05
-1.86818e-05
0.000186212
-1.5756e-05
-4.48725e-05
0.000285613
-1.6683e-05
-6.71578e-05
0.000293514
-1.5466e-05
-8.54603e-05
0.000279322
-1.29724e-05
-0.00010039
0.000262756
-1.05593e-05
-0.000113166
0.000248863
-8.32465e-06
-0.000124731
0.000238492
-6.39332e-06
-0.000135743
0.00023196
-4.84023e-06
-0.000146767
0.000229928
-3.72216e-06
-0.000158541
0.000233656
-3.09059e-06
-0.000172551
0.000245496
-2.98765e-06
-0.000191577
0.00026878
-3.35576e-06
-0.000222366
0.000309568
-3.59856e-06
-0.000277427
0.000371624
-4.6222e-07
-0.0003846
0.000456185
1.68695e-05
-0.000579124
0.000520333
7.42822e-05
-0.000883931
0.000459465
0.000203568
-0.00112642
-7.64166e-05
0.000389152
-0.000933971
-0.00120735
0.00045514
-0.00228467
8.99449e-06
-3.91109e-05
0.000249129
-2.3806e-05
-6.81856e-05
0.00034137
-2.66819e-05
-8.79011e-05
0.000337364
-2.41346e-05
-0.000100945
0.000312288
-1.99217e-05
-0.000111192
0.000288206
-1.52026e-05
-0.000120028
0.00026851
-1.08106e-05
-0.000127905
0.000253398
-7.03033e-06
-0.000134635
0.000242681
-3.99078e-06
-0.000139932
0.000236934
-1.70876e-06
-0.00014325
0.000237077
-1.03307e-07
-0.000144761
0.000246069
9.38592e-07
-0.00014547
0.000267244
2.24496e-06
-0.000152252
0.000309965
6.38456e-06
-0.000179099
0.000376445
2.20252e-05
-0.000276632
0.000481078
7.26396e-05
-0.000509859
0.000550456
0.000203104
-0.000937063
0.00044497
0.000441699
-0.00125841
-0.000427937
0.000672869
-0.00102921
-0.00199141
0.00055486
-0.00317359
-0.000140293
-3.28975e-05
0.000321093
-3.90661e-05
-7.93657e-05
0.000423772
-3.59337e-05
-0.000107369
0.000395927
-3.05594e-05
-0.000124964
0.000351287
-2.14047e-05
-0.000133405
0.000310856
-1.42088e-05
-0.000136381
0.000279295
-7.80906e-06
-0.000136029
0.000255579
-2.53276e-06
-0.000133079
0.000238036
1.69494e-06
-0.000127349
0.000226315
4.88912e-06
-0.000117004
0.000219717
7.01491e-06
-0.000100343
0.000220932
8.47594e-06
-7.47015e-05
0.0002309
1.07019e-05
-4.30661e-05
0.000260319
1.80113e-05
-1.85268e-05
0.000308507
4.33997e-05
-4.86062e-05
0.000397254
0.000113904
-0.000233411
0.000456397
0.000278864
-0.000651048
0.000314905
0.000547702
-0.00104011
-0.000741851
0.000702974
-0.000947021
-0.00246585
0.000381352
-0.00373875
-0.000381864
-0.000178282
0.000549968
-5.05932e-05
-0.000182534
0.000487089
-5.90645e-05
-0.000165883
0.000432059
-5.27822e-05
-0.000148811
0.000373912
-3.96972e-05
-0.0001257
0.000311972
-2.42276e-05
-0.000101346
0.00026569
-1.07489e-05
-7.74969e-05
0.000232076
-3.45933e-07
-5.34317e-05
0.00020647
7.50141e-06
-2.83058e-05
0.000188408
1.27816e-05
1.14692e-06
0.000174585
1.56794e-05
3.72497e-05
0.000168203
1.66264e-05
8.537e-05
0.000165925
1.68549e-05
0.000148155
0.000176882
2.06515e-05
0.000226259
0.000194165
3.62375e-05
0.000297137
0.000234055
9.23207e-05
0.000293226
0.000237283
0.000223026
0.000120004
7.72587e-05
0.000410868
-0.000322286
-0.000821206
0.000521644
-0.000573863
-0.00240017
0.000185898
-0.00375079
-0.000561819
-0.000371052
0.00108073
-0.000159708
-0.000264508
0.000489014
-0.00010847
-0.00011707
0.000360004
-7.53824e-05
4.07505e-05
0.000259472
-4.33816e-05
0.000187194
0.00018714
-2.16121e-05
0.000317779
0.000140202
-5.09672e-06
0.000430163
0.000111303
8.38884e-06
0.000526482
9.16086e-05
1.85424e-05
0.000609514
7.94129e-05
2.59628e-05
0.000684022
7.01608e-05
2.99162e-05
0.000754596
6.65276e-05
3.11002e-05
0.000829077
6.35911e-05
2.78527e-05
0.000915446
6.68105e-05
2.37027e-05
0.00102516
6.57898e-05
1.86587e-05
0.00116889
6.2206e-05
2.81219e-05
0.00130014
2.05251e-05
8.55104e-05
0.00136805
-0.000123714
0.000133063
0.000981512
-0.000665126
0.000230457
0.000235403
-0.00170301
4.89553e-05
-0.00278503
-0.00073036
0.00122737
-0.00014664
0.00187083
-0.000154447
0.00238039
-0.000149554
0.00277245
-0.000132589
0.00307211
-0.000112517
0.00330757
-9.52642e-05
0.00349726
-7.83842e-05
0.00365275
-6.38835e-05
0.00378252
-5.03598e-05
0.00389097
-3.82822e-05
0.00398678
-2.92838e-05
0.00407017
-1.98001e-05
0.0041516
-1.4616e-05
0.00422766
-1.0275e-05
0.00429155
-1.68745e-06
0.00431407
-1.99442e-06
0.00416897
2.13885e-05
0.00351916
-1.53151e-05
0.00190907
-9.29277e-05
-0.000875957
-4.00939e-06
4.32051e-06
-6.89471e-07
-1.27943e-05
9.23528e-06
-4.01238e-07
-2.28941e-05
1.0554e-05
-2.2322e-07
-3.30604e-05
1.05973e-05
-1.11161e-07
-4.28833e-05
1.02356e-05
-9.01993e-08
-5.21555e-05
9.67893e-06
-1.37255e-07
-6.06747e-05
8.93313e-06
-2.38672e-07
-6.8204e-05
7.96141e-06
-3.93049e-07
-7.44508e-05
6.72344e-06
-6.02647e-07
-7.90885e-05
5.1753e-06
-8.71554e-07
-8.17565e-05
3.28083e-06
-1.20148e-06
-8.20831e-05
1.02144e-06
-1.59069e-06
-7.96964e-05
-1.59641e-06
-2.03122e-06
-7.42951e-05
-4.50682e-06
-2.50014e-06
-6.57124e-05
-7.5882e-06
-2.96324e-06
-5.3997e-05
-1.06369e-05
-3.36801e-06
-3.95536e-05
-1.33076e-05
-3.6344e-06
-2.34446e-05
-1.49436e-05
-3.66125e-06
-8.20015e-06
-1.40888e-05
-3.36737e-06
-7.17486e-06
-2.07712e-06
-9.17674e-06
1.38586e-05
-1.57782e-06
-2.54538e-05
2.61148e-05
-1.46168e-06
-4.35971e-05
2.92875e-05
-1.2621e-06
-6.16518e-05
2.92033e-05
-1.07042e-06
-7.88902e-05
2.79946e-05
-9.64813e-07
-9.48886e-05
2.61871e-05
-9.27841e-07
-0.000109261
2.38273e-05
-9.48814e-07
-0.000121598
2.08562e-05
-1.03014e-06
-0.00013145
1.71958e-05
-1.1786e-06
-0.000138332
1.27668e-05
-1.40193e-06
-0.000141718
7.49362e-06
-1.70514e-06
-0.000141127
1.40108e-06
-2.08548e-06
-0.00013605
-5.53963e-06
-2.55191e-06
-0.00012611
-1.31379e-05
-3.05641e-06
-0.000111142
-2.10782e-05
-3.56454e-06
-9.13001e-05
-2.88539e-05
-4.00944e-06
-6.726e-05
-3.56192e-05
-4.28578e-06
-4.06632e-05
-3.97594e-05
-4.26716e-06
-1.52499e-05
-3.77519e-05
-3.85223e-06
-2.09699e-05
-2.17271e-06
-1.10662e-05
2.53601e-05
-2.06245e-06
-3.01946e-05
4.59753e-05
-2.05782e-06
-5.13276e-05
5.1141e-05
-1.85464e-06
-7.22531e-05
5.08003e-05
-1.622e-06
-9.21626e-05
4.85364e-05
-1.46888e-06
-0.000110586
4.52246e-05
-1.38165e-06
-0.000127097
4.09596e-05
-1.3521e-06
-0.000141249
3.56641e-05
-1.38629e-06
-0.000152558
2.9224e-05
-1.49505e-06
-0.000160497
2.15211e-05
-1.69019e-06
-0.000164516
1.24595e-05
-1.9818e-06
-0.000164015
2.01583e-06
-2.3789e-06
-0.000158399
-9.85012e-06
-2.86261e-06
-0.000147209
-2.28137e-05
-3.4187e-06
-0.000130169
-3.63951e-05
-3.99989e-06
-0.000107355
-4.97593e-05
-4.52692e-06
-7.9444e-05
-6.14809e-05
-4.87084e-06
-4.82802e-05
-6.87945e-05
-4.87498e-06
-1.82439e-05
-6.56843e-05
-4.41501e-06
-3.74706e-05
-2.47385e-06
-1.18143e-05
3.77075e-05
-2.48578e-06
-3.22707e-05
6.73144e-05
-2.59163e-06
-5.48281e-05
7.45722e-05
-2.3932e-06
-7.71609e-05
7.39501e-05
-2.1335e-06
-9.84507e-05
7.05951e-05
-1.94752e-06
-0.000118237
6.57526e-05
-1.82536e-06
-0.000136103
5.95676e-05
-1.76191e-06
-0.000151608
5.19424e-05
-1.76705e-06
-0.000164262
4.2719e-05
-1.85623e-06
-0.000173515
3.17212e-05
-2.04678e-06
-0.00017875
1.87901e-05
-2.35375e-06
-0.000179305
3.85793e-06
-2.78554e-06
-0.000174415
-1.32164e-05
-3.36762e-06
-0.000163377
-3.20586e-05
-4.04379e-06
-0.000145665
-5.20371e-05
-4.77487e-06
-0.000121112
-7.19815e-05
-5.46634e-06
-9.02766e-05
-8.97734e-05
-5.95822e-06
-5.51702e-05
-0.00010122
-6.04514e-06
-2.08965e-05
-9.72803e-05
-5.55283e-06
-5.61562e-05
-3.2157e-06
-1.23672e-05
5.07298e-05
-2.89443e-06
-3.39394e-05
8.99511e-05
-3.10987e-06
-5.77495e-05
9.94409e-05
-2.91856e-06
-8.13705e-05
9.85651e-05
-2.63888e-06
-0.000103989
9.415e-05
-2.43106e-06
-0.000125174
8.78386e-05
-2.28893e-06
-0.000144541
7.98307e-05
-2.21087e-06
-0.000161678
7.00045e-05
-2.2114e-06
-0.000176107
5.81453e-05
-2.31181e-06
-0.000187257
4.39926e-05
-2.53677e-06
-0.000194445
2.72783e-05
-2.91088e-06
-0.000196851
7.80572e-06
-3.45855e-06
-0.000193537
-1.46911e-05
-4.19404e-06
-0.000183434
-3.99589e-05
-5.08727e-06
-0.000165589
-6.72875e-05
-6.09251e-06
-0.00013938
-9.52049e-05
-7.09236e-06
-0.000105051
-0.000120775
-7.87255e-06
-6.47596e-05
-0.000137938
-8.13921e-06
-2.46823e-05
-0.000133745
-7.61848e-06
-7.78652e-05
-4.61844e-06
-1.30124e-05
6.45444e-05
-3.3446e-06
-3.58826e-05
0.000114104
-3.67997e-06
-6.11638e-05
0.000126002
-3.49724e-06
-8.63052e-05
0.000124912
-3.19913e-06
-0.000110503
0.000119484
-2.97312e-06
-0.000133371
0.000111798
-2.81747e-06
-0.00015458
0.000102119
-2.73507e-06
-0.000173767
9.03008e-05
-2.74633e-06
-0.000190493
7.60617e-05
-2.88015e-06
-0.000204192
5.90278e-05
-3.17144e-06
-0.000214121
3.87665e-05
-3.65815e-06
-0.000219309
1.48674e-05
-4.38041e-06
-0.000218555
-1.31532e-05
-5.36847e-06
-0.000210314
-4.54285e-05
-6.61981e-06
-0.000192979
-8.12838e-05
-8.07934e-06
-0.000165165
-0.000119079
-9.60794e-06
-0.000126465
-0.00015497
-1.09129e-05
-7.90154e-05
-0.000180439
-1.15476e-05
-3.05341e-05
-0.000177153
-1.10356e-05
-0.000104236
-6.98639e-06
-1.38155e-05
7.93421e-05
-3.88495e-06
-3.82619e-05
0.000140099
-4.36436e-06
-6.53097e-05
0.000154597
-4.19052e-06
-9.22544e-05
0.000153316
-3.8687e-06
-0.000118308
0.000146912
-3.61878e-06
-0.000143148
0.000137953
-3.44513e-06
-0.000166526
0.00012679
-3.357e-06
-0.000188168
0.000113263
-3.38276e-06
-0.000207715
9.70203e-05
-3.56172e-06
-0.000224652
7.75514e-05
-3.94324e-06
-0.000238225
5.42032e-05
-4.58554e-06
-0.000247329
2.624e-05
-5.55453e-06
-0.000250505
-7.14997e-06
-6.91336e-06
-0.000245585
-4.68484e-05
-8.71e-06
-0.000230039
-9.2497e-05
-1.08932e-05
-0.000201245
-0.000142608
-1.3311e-05
-0.000157526
-0.000192484
-1.55636e-05
-0.000100483
-0.000230481
-1.69533e-05
-3.98687e-05
-0.000230465
-1.65792e-05
-0.000138127
-1.09298e-05
-1.4795e-05
9.53458e-05
-4.5585e-06
-4.11236e-05
0.00016831
-5.21877e-06
-7.02371e-05
0.000185591
-5.0512e-06
-9.92428e-05
0.000184092
-4.69192e-06
-0.000127377
0.000176707
-4.40153e-06
-0.000154405
0.00016656
-4.19317e-06
-0.000180198
0.00015412
-4.08501e-06
-0.000204617
0.000139237
-4.11609e-06
-0.00022745
0.000121503
-4.33969e-06
-0.000248315
0.000100268
-4.82521e-06
-0.000266541
7.46178e-05
-5.66061e-06
-0.000280974
4.33767e-05
-6.9546e-06
-0.000289984
5.30031e-06
-8.82972e-06
-0.000290683
-4.17867e-05
-1.14249e-05
-0.000279337
-9.82621e-05
-1.47277e-05
-0.000251434
-0.000163495
-1.86184e-05
-0.000202947
-0.000232403
-2.25745e-05
-0.000133766
-0.000289668
-2.55153e-05
-5.56809e-05
-0.000297893
-2.56563e-05
-0.000185119
-1.76703e-05
-1.59811e-05
0.000112827
-5.41513e-06
-4.45276e-05
0.000199162
-6.30721e-06
-7.59985e-05
0.000219359
-6.13806e-06
-0.000107275
0.000217523
-5.71575e-06
-0.00013763
0.000209069
-5.35361e-06
-0.000166948
0.000197763
-5.07749e-06
-0.00019526
0.000184241
-4.91783e-06
-0.000222627
0.000168406
-4.92739e-06
-0.00024907
0.000149834
-5.17717e-06
-0.000274466
0.000127768
-5.76299e-06
-0.000298392
0.000101038
-6.81392e-06
-0.000319891
6.79842e-05
-8.4934e-06
-0.000337069
2.64676e-05
-1.09911e-05
-0.000346895
-2.65794e-05
-1.47211e-05
-0.000344011
-9.41006e-05
-1.97409e-05
-0.000321284
-0.000177031
-2.60237e-05
-0.000270703
-0.000271282
-3.30057e-05
-0.000188081
-0.000358064
-3.90959e-05
-8.49878e-05
-0.000385377
-4.08563e-05
-0.000257679
-2.97998e-05
-1.74434e-05
0.000132151
-6.52352e-06
-4.86042e-05
0.000233177
-7.71535e-06
-8.27247e-05
0.00025631
-7.52759e-06
-0.000116421
0.000253855
-6.99871e-06
-0.000149022
0.000244097
-6.51202e-06
-0.000180569
0.000231552
-6.1117e-06
-0.0002113
0.000217078
-5.84473e-06
-0.000241545
0.000200696
-5.78044e-06
-0.000271658
0.000182043
-6.0108e-06
-0.000301931
0.000160342
-6.66429e-06
-0.000332428
0.000134258
-7.92614e-06
-0.000362687
0.000101684
-1.00621e-05
-0.000391124
5.94872e-05
-1.34524e-05
-0.000415001
3.62591e-06
-1.85688e-05
-0.000427557
-7.29996e-05
-2.59317e-05
-0.000418782
-0.0001742
-3.58978e-05
-0.000374694
-0.000299863
-4.80805e-05
-0.000282707
-0.00043024
-6.03806e-05
-0.00014534
-0.000500168
-6.68049e-05
-0.000385645
-5.29122e-05
-1.93246e-05
0.000153863
-7.98688e-06
-5.36127e-05
0.000271039
-9.56717e-06
-9.06912e-05
0.000296906
-9.32772e-06
-0.000126882
0.000293289
-8.62064e-06
-0.00016161
0.000281765
-7.92424e-06
-0.000195114
0.000267711
-7.3092e-06
-0.000227889
0.000252274
-6.84435e-06
-0.000260587
0.000235663
-6.61749e-06
-0.000293992
0.000217686
-6.74178e-06
-0.000328979
0.000197712
-7.37852e-06
-0.000366408
0.00017446
-8.77196e-06
-0.000406856
0.00014564
-1.12974e-05
-0.000450062
0.000107406
-1.55013e-05
-0.000493729
5.37874e-05
-2.21005e-05
-0.000532783
-2.43409e-05
-3.2636e-05
-0.000554576
-0.000138822
-4.78209e-05
-0.000537966
-0.000297334
-6.80411e-05
-0.000454293
-0.000488244
-9.11239e-05
-0.000274923
-0.000649552
-0.000108188
-0.000640356
-9.59853e-05
-2.18989e-05
0.000178832
-9.96833e-06
-6.00306e-05
0.000313701
-1.20513e-05
-0.000100408
0.0003417
-1.17005e-05
-0.000139075
0.000335977
-1.06983e-05
-0.000175627
0.000321891
-9.65631e-06
-0.000210562
0.000305782
-8.68527e-06
-0.000244666
0.000289126
-7.88328e-06
-0.000278943
0.000272385
-7.35618e-06
-0.000314651
0.000255665
-7.23332e-06
-0.000353384
0.00023872
-7.70031e-06
-0.000397117
0.000220722
-9.05156e-06
-0.000448128
0.00019979
-1.1772e-05
-0.000508584
0.000172123
-1.66493e-05
-0.000579332
0.00013065
-2.48533e-05
-0.000658692
6.39694e-05
-3.78066e-05
-0.000737335
-4.64343e-05
-5.81865e-05
-0.000786721
-0.000228479
-8.68445e-05
-0.000744053
-0.000505092
-0.000121015
-0.000510579
-0.000855966
-0.000150201
-0.00114126
-0.000152796
-2.56681e-05
0.000208495
-1.27301e-05
-6.86827e-05
0.000362533
-1.54377e-05
-0.000112754
0.000391375
-1.48541e-05
-0.000153756
0.000382006
-1.33644e-05
-0.000191592
0.000364093
-1.17751e-05
-0.00022712
0.000345011
-1.02462e-05
-0.000261452
0.000326539
-8.90796e-06
-0.000295906
0.000309389
-7.88058e-06
-0.000332146
0.000294049
-7.29869e-06
-0.000372444
0.000280915
-7.34475e-06
-0.000420001
0.000270132
-8.30971e-06
-0.000479314
0.000261176
-1.06894e-05
-0.000556472
0.000251935
-1.53153e-05
-0.000658869
0.000236768
-2.34146e-05
-0.000792889
0.000203401
-3.63568e-05
-0.000955155
0.000123114
-5.45124e-05
-0.00110504
-7.08433e-05
-7.64496e-05
-0.00111371
-0.000494229
-9.1827e-05
-0.000790835
-0.00118493
-0.000101697
-0.00195457
-0.000151354
-3.18983e-05
0.000245629
-1.67911e-05
-8.13242e-05
0.000419462
-2.04174e-05
-0.000129195
0.000446368
-1.94706e-05
-0.000171869
0.000430967
-1.71804e-05
-0.000210094
0.000407655
-1.46348e-05
-0.000245165
0.000384444
-1.21355e-05
-0.000278383
0.000363179
-9.89492e-06
-0.000311202
0.000344773
-8.05703e-06
-0.000345524
0.000330186
-6.73043e-06
-0.000384045
0.000320618
-6.04144e-06
-0.000430946
0.00031767
-6.17917e-06
-0.000492824
0.000323165
-7.43014e-06
-0.000580095
0.000338693
-1.01768e-05
-0.000707256
0.000362398
-1.43106e-05
-0.000889259
0.000381468
-1.70514e-05
-0.00112038
0.000343703
-8.6289e-06
-0.00133906
0.000118967
3.09621e-05
-0.00135938
-0.000528282
0.000115846
-0.000923254
-0.0016625
0.000157021
-0.00289595
-5.00567e-05
-3.98231e-05
0.000292286
-2.259e-05
-9.76823e-05
0.000487252
-2.66129e-05
-0.000150758
0.00050878
-2.48028e-05
-0.000195994
0.00048435
-2.11195e-05
-0.000234023
0.000452431
-1.73067e-05
-0.000266998
0.00042271
-1.36159e-05
-0.000296863
0.000396915
-1.02639e-05
-0.000325298
0.00037574
-7.37222e-06
-0.000354035
0.000360208
-5.00697e-06
-0.00038537
0.000352047
-3.18435e-06
-0.00042337
0.000354489
-1.80696e-06
-0.000475003
0.000371957
-5.14409e-07
-0.000552897
0.000411056
1.93303e-06
-0.000674498
0.000473462
1.0074e-05
-0.0008588
0.000544753
3.78863e-05
-0.00109585
0.000538587
0.000116445
-0.00133669
0.000278249
0.000285127
-0.00136062
-0.000609783
0.00049459
-0.00087313
-0.00215972
0.000464866
-0.00372046
-3.96225e-05
-7.25364e-05
0.000373272
-3.22561e-05
-0.000136808
0.000563515
-3.86735e-05
-0.000186686
0.000570009
-3.5486e-05
-0.000225421
0.000532964
-2.98004e-05
-0.000258338
0.000493487
-2.33414e-05
-0.000287284
0.000457894
-1.7049e-05
-0.000313183
0.000427129
-1.13451e-05
-0.000336487
0.000401486
-6.43313e-06
-0.000357886
0.000382225
-2.32708e-06
-0.000378212
0.000371188
1.08255e-06
-0.000399841
0.000372751
4.30524e-06
-0.000426826
0.000392467
8.71973e-06
-0.000469549
0.000441876
1.82867e-05
-0.000539766
0.000521717
4.39876e-05
-0.000661825
0.000626637
0.000112814
-0.000827508
0.00063358
0.000273794
-0.00104058
0.000377871
0.000555152
-0.00110224
-0.000655715
0.000780462
-0.000697238
-0.00249917
0.000489308
-0.00434182
-0.000216171
-5.2834e-05
0.000436045
-4.90049e-05
-0.000148339
0.000675932
-5.28462e-05
-0.000219357
0.000656614
-4.61454e-05
-0.000268808
0.000596325
-3.53148e-05
-0.000302258
0.000538258
-2.55294e-05
-0.00032468
0.000488807
-1.62998e-05
-0.000339588
0.000447628
-8.12429e-06
-0.000348711
0.000413398
-1.09318e-06
-0.000352724
0.000386629
4.49782e-06
-0.000350809
0.000367058
9.22919e-06
-0.000342627
0.000359164
1.38805e-05
-0.00032559
0.000365516
2.06161e-05
-0.000302582
0.00040154
3.53395e-05
-0.000271731
0.000461638
7.26268e-05
-0.000259079
0.00056417
0.00016372
-0.000287592
0.000588611
0.000352345
-0.00039463
0.000388599
0.000644011
-0.000517044
-0.000597378
0.000767051
-0.000312518
-0.0026057
0.000283351
-0.00463423
-0.000401977
-0.000197555
0.000642905
-5.98974e-05
-0.00024569
0.000739058
-7.40558e-05
-0.000286232
0.000713136
-6.8763e-05
-0.000318504
0.000643261
-5.43607e-05
-0.000327093
0.00055981
-3.7191e-05
-0.000319075
0.000491271
-2.12303e-05
-0.000300422
0.000436194
-7.56536e-06
-0.000272843
0.00038999
3.33022e-06
-0.000239327
0.000354257
1.16377e-05
-0.00019778
0.000323418
1.77719e-05
-0.000148998
0.00030463
2.2379e-05
-8.56836e-05
0.000291675
2.7381e-05
-1.70987e-06
0.000300809
3.74087e-05
0.000105266
0.000324678
6.62226e-05
0.000255249
0.000374126
0.000132381
0.000407769
0.000384743
0.000274375
0.000572337
0.000186774
0.000448125
0.000499105
-0.000534728
0.000532227
0.00036672
-0.00239295
0.000105537
-0.00432665
-0.00050268
-0.000664322
0.00129298
-0.000145458
-0.000626589
0.000717122
-0.000124268
-0.000492376
0.000598168
-9.46272e-05
-0.00030598
0.000479913
-6.64299e-05
-0.000111071
0.000387837
-4.45483e-05
7.95566e-05
0.000320666
-2.51196e-05
0.000259189
0.000273075
-8.12434e-06
0.000426448
0.000235567
5.70685e-06
0.000581498
0.000208377
1.67922e-05
0.000725761
0.000184135
2.4936e-05
0.000862397
0.000169013
3.00809e-05
0.000995341
0.000155101
3.14841e-05
0.00113722
0.000149925
3.27118e-05
0.00129654
0.000149457
3.45581e-05
0.00151546
0.000137802
4.55208e-05
0.0017674
0.000110443
0.000107869
0.00202478
-6.83793e-05
0.00013084
0.00204093
-0.000496905
0.000176484
0.00138739
-0.0017008
1.03375e-05
-0.00311373
-0.000555891
0.00127126
-0.000124922
0.00197542
-0.000141488
0.00256659
-0.000142556
0.003048
-0.000134087
0.00344448
-0.000121156
0.00377799
-0.000108107
0.00406692
-9.42373e-05
0.0043188
-8.02003e-05
0.00454407
-6.72546e-05
0.00474345
-5.35256e-05
0.0049255
-4.23176e-05
0.00509247
-3.16694e-05
0.0052486
-2.08266e-05
0.00540532
-1.75393e-05
0.00554417
-2.73519e-06
0.00566045
-7.82945e-06
0.00559724
1.62168e-05
0.00511719
-3.21665e-05
0.00340729
-8.38252e-05
-0.000582391
-4.5202e-06
4.65774e-06
-8.27017e-07
-1.44307e-05
1.03393e-05
-8.30121e-07
-2.57941e-05
1.18689e-05
-7.28642e-07
-3.71589e-05
1.18903e-05
-6.36653e-07
-4.80686e-05
1.14248e-05
-6.05276e-07
-5.83018e-05
1.07259e-05
-6.29906e-07
-6.76403e-05
9.80613e-06
-7.06294e-07
-7.58255e-05