/*--------------------------------*- C++ -*----------------------------------*\
  =========                 |
  \\      /  F ield         | OpenFOAM: The Open Source CFD Toolbox
   \\    /   O peration     | Website:  https://openfoam.org
    \\  /    A nd           | Version:  10
     \\/     M anipulation  |
\*---------------------------------------------------------------------------*/
FoamFile
{
    format      ascii;
    class       volVectorField;
    location    "5";
    object      U;
}
// * * * * * * * * * * * * * * * * * * * * * * * * * * * * * * * * * * * * * //

dimensions      [0 1 -1 0 0 0 0];

internalField   nonuniform List<vector> 
8000
(
(-4.6233e-05 6.05982e-05 -1.9832e-05)
(-0.000408946 0.000157301 1.63611e-05)
(-0.00101823 0.000184401 2.90317e-05)
(-0.0016165 0.000190676 3.46874e-05)
(-0.00222316 0.000192107 3.43515e-05)
(-0.00281407 0.00019211 3.03385e-05)
(-0.00337661 0.00018991 2.38082e-05)
(-0.00389688 0.000183762 1.48936e-05)
(-0.00435774 0.000171591 3.02434e-06)
(-0.00473845 0.000151709 -1.15914e-05)
(-0.00501416 0.000122655 -2.86746e-05)
(-0.00515708 8.38155e-05 -4.78945e-05)
(-0.00513805 3.42519e-05 -6.93445e-05)
(-0.00493009 -2.6781e-05 -9.24038e-05)
(-0.00451324 -9.55393e-05 -0.000115502)
(-0.00387925 -0.000166921 -0.000136046)
(-0.00304119 -0.000232508 -0.000149387)
(-0.00206191 -0.000277767 -0.000148598)
(-0.000947745 -0.000272892 -0.000128703)
(-0.000172964 -0.000134943 -5.28691e-05)
(-0.000139063 0.000473691 -7.659e-05)
(-0.000803811 0.000879777 -4.69554e-05)
(-0.00181957 0.000987435 -3.35641e-05)
(-0.00281275 0.000998995 -2.3949e-05)
(-0.00380612 0.000980071 -1.93698e-05)
(-0.00476066 0.000945617 -1.78462e-05)
(-0.00565372 0.000894989 -1.83505e-05)
(-0.0064627 0.000823789 -2.08984e-05)
(-0.00716112 0.000726607 -2.58627e-05)
(-0.00771829 0.000598439 -3.35867e-05)
(-0.00809891 0.000434861 -4.42952e-05)
(-0.00826569 0.000232285 -5.80815e-05)
(-0.00818173 -9.6189e-06 -7.57146e-05)
(-0.00780994 -0.000285487 -9.48209e-05)
(-0.00712313 -0.000583396 -0.000114668)
(-0.00611343 -0.000883083 -0.000132383)
(-0.00480324 -0.00115194 -0.000142243)
(-0.00328239 -0.00133295 -0.000136406)
(-0.00156541 -0.00131062 -0.000109985)
(-0.000321942 -0.000764686 -1.78365e-05)
(-0.000166917 0.00117195 -0.000103865)
(-0.000934881 0.00200662 -7.72665e-05)
(-0.00209229 0.00221847 -6.3517e-05)
(-0.0032178 0.00222607 -5.17716e-05)
(-0.00434003 0.0021638 -4.46921e-05)
(-0.00541634 0.00206266 -4.03784e-05)
(-0.00642258 0.00192346 -3.79007e-05)
(-0.00733478 0.00173976 -3.74005e-05)
(-0.00812471 0.00150319 -3.93608e-05)
(-0.0087596 0.00120505 -4.43476e-05)
(-0.00920248 0.000837598 -5.28515e-05)
(-0.00941167 0.000395226 -6.53274e-05)
(-0.00934097 -0.000121514 -8.17769e-05)
(-0.00894646 -0.000702868 -0.000101268)
(-0.00819402 -0.00132547 -0.000122416)
(-0.00706633 -0.00194885 -0.00014197)
(-0.00558035 -0.00250746 -0.000153077)
(-0.0038343 -0.00288565 -0.000146358)
(-0.00184039 -0.00284963 -0.000116342)
(-0.000382131 -0.00175422 -1.10996e-05)
(-0.000172207 0.00189446 -0.000124411)
(-0.000980559 0.00317872 -0.000100832)
(-0.00220191 0.00349515 -8.7176e-05)
(-0.00338738 0.00349686 -7.42065e-05)
(-0.00457255 0.00339119 -6.56145e-05)
(-0.00571419 0.00322554 -5.95792e-05)
(-0.00678957 0.00300191 -5.52604e-05)
(-0.00777585 0.00271145 -5.29811e-05)
(-0.00864542 0.00234213 -5.34137e-05)
(-0.00936499 0.00188076 -5.72697e-05)
(-0.00989482 0.0013149 -6.52331e-05)
(-0.0101886 0.000636292 -7.80243e-05)
(-0.0101943 -0.000156034 -9.68618e-05)
(-0.00985342 -0.00105397 -0.000119303)
(-0.00911223 -0.00202435 -0.00014453)
(-0.00793532 -0.00300766 -0.000168637)
(-0.00632365 -0.00390269 -0.000183423)
(-0.00438065 -0.00452464 -0.000177313)
(-0.00211539 -0.00449998 -0.000143374)
(-0.000440323 -0.00281215 -1.99932e-05)
(-0.000172416 0.00266852 -0.000141707)
(-0.00101037 0.00443709 -0.000120517)
(-0.00228592 0.00486585 -0.000107046)
(-0.00352458 0.00486366 -9.34129e-05)
(-0.00476905 0.0047166 -8.41363e-05)
(-0.00597644 0.00448989 -7.7454e-05)
(-0.00712687 0.00418711 -7.26056e-05)
(-0.00820012 0.00379695 -7.00449e-05)
(-0.00917049 0.00330311 -7.06192e-05)
(-0.0100052 0.00268671 -7.53311e-05)
(-0.0106625 0.00192833 -8.51879e-05)
(-0.0110894 0.00101169 -0.000101296)
(-0.0112239 -7.09293e-05 -0.00012491)
(-0.0109892 -0.00131015 -0.000153886)
(-0.0103042 -0.00267386 -0.000187699)
(-0.00910243 -0.00408404 -0.000221396)
(-0.00735287 -0.00539864 -0.000244276)
(-0.00515612 -0.0063456 -0.000240813)
(-0.00251718 -0.00637346 -0.000201246)
(-0.000529916 -0.00402249 -4.90744e-05)
(-0.000172297 0.00348578 -0.0001596)
(-0.0010438 0.00577492 -0.000140572)
(-0.00238199 0.00632602 -0.00012738)
(-0.00368276 0.00632432 -0.000113366)
(-0.00499665 0.00614141 -0.000103832)
(-0.00628167 0.00586228 -9.70866e-05)
(-0.00752207 0.00549275 -9.24745e-05)
(-0.00870186 0.00501916 -9.06019e-05)
(-0.00979906 0.0044204 -9.25169e-05)
(-0.0107833 0.00367025 -9.95309e-05)
(-0.0116122 0.00273936 -0.000113101)
(-0.012228 0.00159905 -0.000134779)
(-0.0125532 0.000227736 -0.000165681)
(-0.0124906 -0.00137564 -0.000207807)
(-0.0119235 -0.0031866 -0.000256852)
(-0.010732 -0.00511412 -0.000307853)
(-0.00883141 -0.00697026 -0.000346556)
(-0.00630064 -0.00837183 -0.000350579)
(-0.00313328 -0.00852853 -0.000303916)
(-0.000677348 -0.00543822 -0.000107218)
(-0.000172448 0.00435298 -0.000180781)
(-0.00108436 0.00720468 -0.000164317)
(-0.0024969 0.00788976 -0.000151515)
(-0.00386991 0.00789343 -0.000137111)
(-0.00526331 0.0076812 -0.000127323)
(-0.00663649 0.00736059 -0.000120596)
(-0.00797941 0.00694081 -0.000116451)
(-0.00928236 0.00640643 -0.00011572)
(-0.0105298 0.00573146 -0.000119746)
(-0.011697 0.00488112 -0.000130282)
(-0.0127446 0.00381289 -0.000149451)
(-0.0136117 0.00247994 -0.00017963)
(-0.0142092 0.000839035 -0.00022295)
(-0.0144155 -0.00113775 -0.000285188)
(-0.0140648 -0.00344849 -0.000359864)
(-0.0129626 -0.00600275 -0.000441744)
(-0.0109326 -0.00856994 -0.000511388)
(-0.00798881 -0.0106287 -0.000534981)
(-0.00409348 -0.0110532 -0.000481805)
(-0.000929146 -0.0071572 -0.000218587)
(-0.000172717 0.00528131 -0.000207025)
(-0.00113246 0.0087453 -0.000194028)
(-0.00263099 0.00957642 -0.000181665)
(-0.00408417 0.00958876 -0.00016656)
(-0.00556332 0.00935255 -0.000156125)
(-0.00702982 0.00900156 -0.000149059)
(-0.00848115 0.00855037 -0.000145167)
(-0.00991649 0.00798327 -0.000145618)
(-0.0113304 0.00727037 -0.000152191)
(-0.0127086 0.0063683 -0.000167303)
(-0.0140208 0.00521931 -0.000194121)
(-0.01521 0.00375222 -0.000236375)
(-0.01618 0.00188834 -0.000298339)
(-0.0167906 -0.000445321 -0.000392654)
(-0.0168165 -0.00327877 -0.000509097)
(-0.0159585 -0.00657312 -0.000645752)
(-0.0138984 -0.0100716 -0.000775959)
(-0.0104977 -0.0130941 -0.000847754)
(-0.00564227 -0.0140357 -0.00079727)
(-0.00138666 -0.00933471 -0.000440756)
(-0.00017353 0.0062849 -0.000240138)
(-0.00118983 0.0104193 -0.000232027)
(-0.00278604 0.0114068 -0.000220021)
(-0.00432423 0.0114268 -0.000203495)
(-0.00588996 0.011168 -0.000191504)
(-0.00744718 0.0107954 -0.000183182)
(-0.00900292 0.0103317 -0.000178773)
(-0.0105681 0.00976378 -0.000179919)
(-0.0121515 0.00906049 -0.000189016)
(-0.013756 0.00817213 -0.000209455)
(-0.0153699 0.00702646 -0.00024604)
(-0.0169534 0.00552503 -0.000305291)
(-0.0184195 0.00354316 -0.000396223)
(-0.0196007 0.000942527 -0.000527241)
(-0.0202344 -0.00238913 -0.000718511)
(-0.0199075 -0.00650472 -0.000952799)
(-0.018071 -0.011187 -0.00120079)
(-0.0142837 -0.0156118 -0.00138585)
(-0.0082693 -0.017517 -0.00137983)
(-0.00228117 -0.0122146 -0.000914302)
(-0.000176744 0.00738357 -0.00028262)
(-0.00126226 0.0122551 -0.000281413)
(-0.00296938 0.0134043 -0.00026941)
(-0.00459425 0.0134228 -0.000250085)
(-0.00624078 0.0131349 -0.000234832)
(-0.00787621 0.0127429 -0.000223496)
(-0.00951908 0.012282 -0.000216971)
(-0.0111947 0.0117452 -0.000217521)
(-0.0129303 0.0111054 -0.000228349)
(-0.0147526 0.0103125 -0.000254166)
(-0.0166799 0.00928585 -0.000302125)
(-0.018708 0.00790406 -0.000382933)
(-0.0207811 0.00599432 -0.000511161)
(-0.0227507 0.00333019 -0.00070313)
(-0.0243299 -0.00035065 -0.00100335)
(-0.0249886 -0.00523582 -0.00140223)
(-0.0239066 -0.0113166 -0.00187375)
(-0.0201021 -0.0177037 -0.00231409)
(-0.0129581 -0.021357 -0.00249678)
(-0.00412696 -0.0161999 -0.00201733)
(-0.000187066 0.00860824 -0.000338459)
(-0.0013632 0.0142923 -0.000346861)
(-0.00319868 0.0155978 -0.000333957)
(-0.00490883 0.0155913 -0.000309335)
(-0.00662259 0.0152541 -0.000287832)
(-0.00831173 0.0148332 -0.000270409)
(-0.010008 0.0143803 -0.000258887)
(-0.0117528 0.0139 -0.000256292)
(-0.0135939 0.0133761 -0.00026677)
(-0.0155871 0.0127688 -0.000296602)
(-0.0177926 0.0120035 -0.000355866)
(-0.0202635 0.0109515 -0.000460878)
(-0.0230191 0.00940364 -0.00063677)
(-0.0259893 0.0070398 -0.000920492)
(-0.0289109 0.00342217 -0.00135589)
(-0.0312557 -0.00193944 -0.00202287)
(-0.0319409 -0.00933236 -0.00288286)
(-0.0291508 -0.0181836 -0.00384547)
(-0.0216021 -0.0248173 -0.00460369)
(-0.00805401 -0.021936 -0.00461579)
(-0.000215015 0.0100113 -0.000414576)
(-0.00152011 0.0165899 -0.000435931)
(-0.00350914 0.0180258 -0.00042017)
(-0.00529985 0.0179468 -0.000385738)
(-0.00705803 0.0175186 -0.000352817)
(-0.00876251 0.0170402 -0.000324157)
(-0.0104599 0.0165835 -0.000302869)
(-0.0122071 0.0161687 -0.000292746)
(-0.014071 0.0157989 -0.000298882)
(-0.0161366 0.0154598 -0.000329207)
(-0.0185118 0.0151068 -0.000397126)
(-0.0213281 0.0146409 -0.000525666)
(-0.0247255 0.0138658 -0.000753372)
(-0.0288004 0.0124206 -0.00113804)
(-0.0335028 0.00970267 -0.0017502)
(-0.03841 0.00480102 -0.00269639)
(-0.042444 -0.0033006 -0.00412448)
(-0.042869 -0.0147336 -0.0059105)
(-0.0371044 -0.0262792 -0.00788273)
(-0.016117 -0.0306262 -0.00954236)
(-0.000283724 0.011683 -0.000523635)
(-0.00178694 0.0192318 -0.00056044)
(-0.00396524 0.0207303 -0.000537019)
(-0.00582646 0.0204951 -0.000484544)
(-0.00759356 0.0199078 -0.000431843)
(-0.00925859 0.019321 -0.000384079)
(-0.0108854 0.0188235 -0.000345754)
(-0.0125429 0.0184539 -0.000321172)
(-0.0143087 0.0182427 -0.000316213)
(-0.0162858 0.018216 -0.000339773)
(-0.0186195 0.0183888 -0.000407335)
(-0.0215163 0.0187423 -0.00054634)
(-0.0252651 0.0191774 -0.000803644)
(-0.0302341 0.0194082 -0.00124974)
(-0.0368343 0.0188062 -0.00196921)
(-0.0453397 0.0160927 -0.00305071)
(-0.0548875 0.00908829 -0.00466471)
(-0.0617293 -0.00492859 -0.00673353)
(-0.0612315 -0.0257383 -0.00896642)
(-0.0295442 -0.0479182 -0.0135159)
(-0.000447581 0.0138021 -0.000695251)
(-0.00227845 0.0224276 -0.000757084)
(-0.00468343 0.0239008 -0.00072214)
(-0.00658181 0.0233939 -0.000636383)
(-0.0082991 0.0225148 -0.000543458)
(-0.00985436 0.0216928 -0.000456472)
(-0.0113263 0.0210477 -0.000384399)
(-0.0127847 0.0206407 -0.000333075)
(-0.0143036 0.0205313 -0.000307265)
(-0.0159827 0.0207965 -0.000314889)
(-0.0179747 0.0215407 -0.000370452)
(-0.020525 0.0228862 -0.000499134)
(-0.0240466 0.0249481 -0.000738078)
(-0.0292006 0.0276809 -0.00111451)
(-0.03706 0.0306196 -0.00156933)
(-0.0490454 0.0319348 -0.00184624)
(-0.0658517 0.0274174 -0.00156913)
(-0.0830011 0.00709812 0.000246535)
(-0.0919196 -0.0342864 0.00287258)
(-0.0451784 -0.0905302 -0.00693073)
(-0.000762109 0.0167925 -0.000960299)
(-0.00306764 0.0259828 -0.000996029)
(-0.00576366 0.0269941 -0.000917066)
(-0.00770555 0.025875 -0.000763769)
(-0.00935048 0.0246018 -0.000616991)
(-0.010716 0.0235648 -0.000485233)
(-0.0119154 0.022816 -0.000375403)
(-0.0130286 0.0223771 -0.00029124)
(-0.0141113 0.0223112 -0.000236223)
(-0.0152206 0.0227378 -0.000215668)
(-0.016453 0.0238685 -0.000234771)
(-0.017994 0.0260003 -0.000297414)
(-0.0202737 0.0295532 -0.00038306)
(-0.0241641 0.0347826 -0.000332061)
(-0.0316543 0.0415236 0.000419868)
(-0.0459833 0.0466723 0.00320091)
(-0.0724426 0.0427515 0.00960017)
(-0.104724 0.00653091 0.0199257)
(-0.124097 -0.0766393 0.0269438)
(-0.0538679 -0.176967 0.00204994)
(-0.00207079 0.0199974 -0.0015029)
(-0.00557374 0.0317057 -0.00164865)
(-0.00798156 0.0323493 -0.00147589)
(-0.00953467 0.0307473 -0.0011979)
(-0.0106661 0.0286596 -0.000895313)
(-0.0116008 0.0268135 -0.000622019)
(-0.012426 0.0253562 -0.000395292)
(-0.0131494 0.02435 -0.000221374)
(-0.0137434 0.02387 -9.99006e-05)
(-0.0141606 0.0240349 -2.94529e-05)
(-0.0143717 0.0251168 -4.73667e-06)
(-0.0143826 0.0275089 9.52184e-06)
(-0.0145304 0.0319768 0.00014762)
(-0.0155852 0.0389253 0.000880951)
(-0.0206921 0.0489559 0.00353152)
(-0.0346909 0.0563715 0.0109624)
(-0.0705734 0.0491723 0.0252148)
(-0.115761 -0.0213076 0.0406217)
(-0.14241 -0.164991 0.0364449)
(-0.0516234 -0.284205 -0.0114793)
(-0.00136882 0.0315658 -0.00254276)
(-0.00547968 0.0356106 -0.00223385)
(-0.00996147 0.0340549 -0.00187023)
(-0.0117504 0.0303409 -0.00126064)
(-0.0130765 0.0276837 -0.000769022)
(-0.013577 0.0257403 -0.000347357)
(-0.0136758 0.0243549 -1.47003e-05)
(-0.0134988 0.0233874 0.000226719)
(-0.0130721 0.0228582 0.000381074)
(-0.0122814 0.0228138 0.000463495)
(-0.010981 0.0235816 0.000492076)
(-0.00881789 0.0253965 0.000540103)
(-0.00598978 0.0293794 0.00083207)
(-0.00220657 0.0355987 0.00212588)
(-0.00186209 0.0459774 0.00618472)
(-0.0069933 0.0523212 0.0166345)
(-0.0428085 0.0369406 0.0344832)
(-0.0873553 -0.0681742 0.0448066)
(-0.129398 -0.242455 0.0223343)
(-0.0452291 -0.362279 -0.0390903)
(-0.0122749 0.0295497 -0.00344542)
(-0.0213931 0.0513347 -0.00398977)
(-0.0164292 0.0471236 -0.00346116)
(-0.0162186 0.0422728 -0.00249364)
(-0.013844 0.0366026 -0.00139237)
(-0.0114067 0.0319366 -0.000473493)
(-0.00895936 0.0282678 0.000230885)
(-0.00654586 0.0254488 0.000705131)
(-0.00414204 0.0234028 0.000996961)
(-0.00140768 0.0219562 0.00111883)
(0.00164326 0.0212923 0.00109993)
(0.00598844 0.0214189 0.00101227)
(0.011032 0.0232746 0.00108313)
(0.0193005 0.0267315 0.00182433)
(0.025089 0.0342488 0.00528414)
(0.0362355 0.0393743 0.0141336)
(0.0187047 0.0253023 0.0283386)
(0.00474891 -0.0832591 0.0348823)
(-0.0757183 -0.25922 0.00791925)
(-0.0244923 -0.399439 -0.0570311)
(-0.0463525 0.0889114 -0.0120112)
(-0.0300037 0.0420536 -0.00786755)
(-0.0210096 0.0357962 -0.00532734)
(-0.00316239 0.0287762 -0.00290278)
(0.011596 0.0225404 -0.00118792)
(0.0257761 0.0184666 0.000103216)
(0.0377566 0.0159013 0.00105044)
(0.0482769 0.0139994 0.00168029)
(0.0569405 0.0127572 0.00210475)
(0.0651458 0.0116911 0.00227198)
(0.0717207 0.0113128 0.00225062)
(0.0798827 0.0109187 0.00192065)
(0.0858111 0.0114887 0.00152395)
(0.0989807 0.0115465 0.000985412)
(0.104119 0.0115532 0.00168451)
(0.132688 0.0061536 0.005379)
(0.118649 -0.0116555 0.0103591)
(0.153562 -0.088119 0.0192918)
(0.0293054 -0.237185 0.000474075)
(0.0295499 -0.371859 -0.0672513)
(0.117639 0.111837 -0.0112303)
(0.144206 0.0595622 -0.0117077)
(0.216486 0.0393752 -0.0112595)
(0.260879 0.0262741 -0.00985459)
(0.293426 0.0175196 -0.0081877)
(0.320222 0.0116886 -0.00676608)
(0.340668 0.00804516 -0.00538229)
(0.358911 0.00569082 -0.00425282)
(0.371396 0.0042588 -0.00319309)
(0.385709 0.00330437 -0.00226497)
(0.392014 0.00281132 -0.00167745)
(0.406656 0.00252575 -0.000836133)
(0.405949 0.00251945 -0.000847964)
(0.426341 0.00235721 -0.000194056)
(0.413947 0.00197296 -0.000242999)
(0.444373 -0.000989512 0.000458397)
(0.402529 -0.00906935 0.00135283)
(0.423541 -0.0318261 0.000573497)
(0.255907 -0.0748534 -0.00825392)
(0.165468 -0.13989 -0.0769016)
(-9.67151e-05 0.00010669 -5.64856e-05)
(-0.000740032 0.000303545 -8.50677e-06)
(-0.00178972 0.000359049 1.27379e-05)
(-0.00280371 0.000365111 2.39933e-05)
(-0.00380882 0.000357747 2.49223e-05)
(-0.00476832 0.000345328 1.8909e-05)
(-0.00566223 0.000327309 7.63365e-06)
(-0.00646947 0.000301417 -8.74524e-06)
(-0.00716362 0.000265415 -3.07662e-05)
(-0.00771365 0.000216765 -5.85869e-05)
(-0.00808494 0.000153342 -9.21803e-05)
(-0.0082407 7.43279e-05 -0.000131208)
(-0.00814303 -2.13842e-05 -0.000175138)
(-0.00775715 -0.000131698 -0.000222079)
(-0.0070587 -0.000251637 -0.000268702)
(-0.00603911 -0.000372939 -0.000309695)
(-0.00471816 -0.000481127 -0.000336324)
(-0.00318346 -0.000548728 -0.000336575)
(-0.0014483 -0.00051366 -0.000301508)
(-0.000258072 -0.000225866 -0.000160732)
(-0.000305075 0.00079492 -0.000158252)
(-0.00158273 0.00159887 -0.000124228)
(-0.00346281 0.00181274 -0.000100633)
(-0.00527824 0.00181556 -8.09211e-05)
(-0.00705415 0.00174851 -7.06899e-05)
(-0.00872543 0.00164611 -6.71014e-05)
(-0.0102523 0.00151021 -6.86061e-05)
(-0.0115964 0.00133567 -7.53423e-05)
(-0.0127149 0.00111647 -8.8007e-05)
(-0.0135608 0.00084633 -0.000107355)
(-0.0140831 0.000520087 -0.000133908)
(-0.0142315 0.000134486 -0.00016763)
(-0.0139552 -0.000307494 -0.000209571)
(-0.0132082 -0.000794609 -0.000254942)
(-0.0119619 -0.00130671 -0.000301069)
(-0.0102117 -0.00181033 -0.000341546)
(-0.00799685 -0.00224936 -0.000365271)
(-0.00544941 -0.00251715 -0.000358135)
(-0.00260091 -0.0023795 -0.000310344)
(-0.00054167 -0.00126377 -0.000134448)
(-0.000378301 0.00194889 -0.000210554)
(-0.00189543 0.00358074 -0.000185363)
(-0.00409046 0.00399643 -0.000161153)
(-0.00619925 0.00397643 -0.000137113)
(-0.00825399 0.00380386 -0.000121868)
(-0.0101815 0.00354852 -0.000112856)
(-0.0119376 0.00321755 -0.000108752)
(-0.0134804 0.00280431 -0.000110019)
(-0.0147633 0.00229935 -0.000117705)
(-0.0157358 0.0016932 -0.000132988)
(-0.016344 0.000978247 -0.000156895)
(-0.01653 0.000150877 -0.000190338)
(-0.0162327 -0.000782689 -0.000232171)
(-0.0153978 -0.00180178 -0.00028077)
(-0.013987 -0.00286589 -0.000332132)
(-0.0119848 -0.00390757 -0.000378788)
(-0.00942536 -0.00481455 -0.000407282)
(-0.00645453 -0.00537228 -0.000400443)
(-0.0031029 -0.0051134 -0.000346734)
(-0.00065487 -0.00289094 -0.00014482)
(-0.000402256 0.00313851 -0.000253166)
(-0.00202507 0.00563652 -0.000236948)
(-0.00437146 0.00625486 -0.000213047)
(-0.00662074 0.00620678 -0.000186313)
(-0.00881529 0.00592616 -0.000167794)
(-0.01088 0.00551849 -0.000155206)
(-0.0127721 0.00499565 -0.000147484)
(-0.0144504 0.00434891 -0.000145471)
(-0.0158687 0.00356478 -0.000150639)
(-0.0169748 0.00262879 -0.000164605)
(-0.0177109 0.00152853 -0.000188837)
(-0.0180129 0.000258408 -0.000224452)
(-0.0178083 -0.00117606 -0.00027397)
(-0.0170217 -0.00275113 -0.000331939)
(-0.0155896 -0.00440957 -0.000395338)
(-0.0134706 -0.00605071 -0.000455227)
(-0.010677 -0.00749992 -0.000495154)
(-0.00736225 -0.00841584 -0.000493229)
(-0.00355507 -0.00805931 -0.000433831)
(-0.000750175 -0.00463111 -0.000193471)
(-0.000416898 0.00440539 -0.000291831)
(-0.00212436 0.00783117 -0.000284039)
(-0.00460199 0.00866474 -0.000260685)
(-0.00697704 0.00858958 -0.000232194)
(-0.00930252 0.00820107 -0.000211802)
(-0.0115033 0.00764283 -0.000197484)
(-0.01354 0.00693188 -0.000188446)
(-0.0153748 0.00605716 -0.000185915)
(-0.0169636 0.00500009 -0.000191849)
(-0.0182543 0.00373905 -0.000208537)
(-0.0191848 0.00225288 -0.000238256)
(-0.0196802 0.000526568 -0.00028335)
(-0.0196523 -0.00143982 -0.000345858)
(-0.0189986 -0.00362493 -0.000421951)
(-0.0176152 -0.00596207 -0.000508502)
(-0.0154148 -0.00831842 -0.000594291)
(-0.0123648 -0.0104457 -0.000657494)
(-0.00861513 -0.0118411 -0.000667637)
(-0.00419506 -0.0114252 -0.000600916)
(-0.000890556 -0.00662723 -0.000296923)
(-0.000434171 0.00574397 -0.000333275)
(-0.00223988 0.0101644 -0.000334257)
(-0.00487074 0.0112295 -0.000311627)
(-0.00739398 0.011131 -0.000281751)
(-0.00987436 0.010639 -0.000260112)
(-0.0122375 0.00993825 -0.000244992)
(-0.0144497 0.00905183 -0.000235948)
(-0.0164786 0.00796612 -0.000234681)
(-0.0182848 0.00665623 -0.000243763)
(-0.0198186 0.00509057 -0.000266338)
(-0.0210155 0.00323433 -0.000305858)
(-0.0217909 0.00105579 -0.000365998)
(-0.0220371 -0.00146338 -0.000449342)
(-0.0216152 -0.00431702 -0.000557575)
(-0.0203643 -0.00744068 -0.000683579)
(-0.018124 -0.0106749 -0.000814808)
(-0.0147818 -0.013685 -0.000921669)
(-0.0104555 -0.0157588 -0.000958756)
(-0.00516995 -0.0153633 -0.000884983)
(-0.0011187 -0.0089907 -0.000480487)
(-0.000456494 0.00716998 -0.00038273)
(-0.00238265 0.0126636 -0.000394137)
(-0.00519851 0.0139788 -0.000372348)
(-0.0078985 0.0138607 -0.000340804)
(-0.0105615 0.0132698 -0.000317634)
(-0.0131149 0.0124369 -0.000301574)
(-0.0155327 0.0113923 -0.0002927)
(-0.0177916 0.0101204 -0.000293371)
(-0.0198608 0.008589 -0.000307018)
(-0.0216978 0.00675384 -0.000338008)
(-0.0232405 0.00456057 -0.000391553)
(-0.0243979 0.00195097 -0.000473558)
(-0.0250445 -0.00112564 -0.000589552)
(-0.0249994 -0.00470013 -0.000746959)
(-0.0240249 -0.00873421 -0.000937411)
(-0.0218513 -0.0130609 -0.00114719)
(-0.0182289 -0.0172542 -0.0013357)
(-0.013176 -0.02033 -0.00143262)
(-0.00669221 -0.020117 -0.00135879)
(-0.00150749 -0.0119299 -0.000800869)
(-0.000484396 0.00870473 -0.000444239)
(-0.00255598 0.0153648 -0.000468879)
(-0.0055909 0.0169494 -0.000447823)
(-0.00849489 0.0168122 -0.000413581)
(-0.0113644 0.0161246 -0.000387629)
(-0.0141294 0.0151694 -0.000369409)
(-0.0167751 0.0139866 -0.000359761)
(-0.0192912 0.0125602 -0.000361958)
(-0.0216615 0.0108515 -0.000380627)
(-0.023858 0.00880167 -0.00042189)
(-0.0258302 0.0063317 -0.000493621)
(-0.0274898 0.00334486 -0.000605476)
(-0.0287027 -0.000264297 -0.000768542)
(-0.0292474 -0.00458123 -0.00100084)
(-0.0287933 -0.00964669 -0.00129369)
(-0.0269173 -0.0153297 -0.001638)
(-0.0231478 -0.0211309 -0.00197921)
(-0.0172661 -0.0257284 -0.00220792)
(-0.0091894 -0.0260292 -0.0021626)
(-0.00222547 -0.0158193 -0.00138104)
(-0.000519198 0.0103725 -0.000522251)
(-0.00276475 0.0183076 -0.000564167)
(-0.00605461 0.0201783 -0.000543315)
(-0.00918679 0.0200157 -0.000504312)
(-0.0122798 0.0192276 -0.000473038)
(-0.0152676 0.0181563 -0.000450022)
(-0.0181503 0.016856 -0.000437202)
(-0.0209359 0.0153134 -0.000439068)
(-0.0236299 0.0134855 -0.00046183)
(-0.0262296 0.0113006 -0.000514032)
(-0.028711 0.00865227 -0.000607409)
(-0.0310096 0.00539603 -0.000757223)
(-0.0329901 0.00135175 -0.000982646)
(-0.0344166 -0.00366526 -0.00131571)
(-0.0348784 -0.00984074 -0.00177705)
(-0.0337485 -0.0171632 -0.00235001)
(-0.0302271 -0.025139 -0.00297506)
(-0.0236179 -0.0320723 -0.00348937)
(-0.0136145 -0.0335828 -0.00357348)
(-0.00369373 -0.0214279 -0.00250369)
(-0.000564377 0.0122042 -0.000622885)
(-0.00301972 0.0215386 -0.000687565)
(-0.00660433 0.0237045 -0.000665612)
(-0.00998533 0.0234978 -0.000618188)
(-0.0133099 0.0225941 -0.000577136)
(-0.0165178 0.0214053 -0.000544626)
(-0.0196281 0.0200046 -0.000524133)
(-0.0226727 0.0183869 -0.000521675)
(-0.025687 0.0165111 -0.00054543)
(-0.0287062 0.0142979 -0.000607075)
(-0.0317522 0.0116182 -0.000723832)
(-0.0348116 0.0082784 -0.000920896)
(-0.0377927 0.00400716 -0.00123391)
(-0.0404951 -0.00154846 -0.00170597)
(-0.0424657 -0.00876339 -0.00240649)
(-0.0428855 -0.0179288 -0.00334964)
(-0.0405427 -0.0287403 -0.00448891)
(-0.0339236 -0.0392028 -0.00560472)
(-0.0221612 -0.0434016 -0.00613312)
(-0.00700313 -0.0304988 -0.00486794)
(-0.000627474 0.0142436 -0.000755531)
(-0.00334246 0.0251166 -0.000850153)
(-0.00726937 0.027571 -0.000824377)
(-0.0109161 0.0272812 -0.000762298)
(-0.014469 0.0262288 -0.000704057)
(-0.0178763 0.0249061 -0.000654268)
(-0.0211804 0.0234121 -0.000618506)
(-0.024442 0.0217567 -0.000604572)
(-0.0277334 0.0199099 -0.000622785)
(-0.0311396 0.0177975 -0.000688284)
(-0.0347511 0.0152826 -0.000824613)
(-0.0386472 0.0121347 -0.00106886)
(-0.042858 0.00798847 -0.00147661)
(-0.0472805 0.00230156 -0.00212594)
(-0.051576 -0.00560384 -0.00314622)
(-0.0549191 -0.0164851 -0.0046544)
(-0.0556866 -0.030596 -0.00663884)
(-0.0512156 -0.0460793 -0.00888222)
(-0.0392906 -0.0560234 -0.0105788)
(-0.0146663 -0.046931 -0.00989866)
(-0.000723811 0.0165589 -0.000935529)
(-0.0037734 0.0291231 -0.00106914)
(-0.00810303 0.031831 -0.00103438)
(-0.0120275 0.0313861 -0.000947111)
(-0.0157911 0.030123 -0.000859484)
(-0.019355 0.0286263 -0.000779919)
(-0.0227897 0.0270269 -0.00071685)
(-0.0261874 0.0253568 -0.000679877)
(-0.0296602 0.0236091 -0.000681247)
(-0.0333497 0.021735 -0.000739259)
(-0.0374353 0.0196202 -0.000883875)
(-0.0421349 0.0170409 -0.00116555)
(-0.0476832 0.0135902 -0.00166753)
(-0.0542562 0.00857688 -0.00251484)
(-0.0618706 0.000935914 -0.00386158)
(-0.0701159 -0.0107297 -0.00595632)
(-0.0773158 -0.0278678 -0.00896788)
(-0.0792053 -0.0500762 -0.0125421)
(-0.0701874 -0.0718949 -0.0158839)
(-0.0291749 -0.0795472 -0.01764)
(-0.000883713 0.0192538 -0.00118867)
(-0.00438432 0.0336466 -0.00136941)
(-0.00919592 0.0365061 -0.00131427)
(-0.013404 0.0357855 -0.00118388)
(-0.0173417 0.0342238 -0.00104847)
(-0.0209917 0.0324954 -0.000921067)
(-0.0244595 0.0307572 -0.000813164)
(-0.0278683 0.0290682 -0.000735767)
(-0.0313632 0.0274592 -0.000702405)
(-0.0351358 0.0259314 -0.000732522)
(-0.0394525 0.0244374 -0.000858562)
(-0.0446909 0.0228321 -0.00113708)
(-0.0513781 0.0207794 -0.00166386)
(-0.0601973 0.0175865 -0.00258064)
(-0.0719564 0.0119929 -0.00404346)
(-0.0873015 0.00180834 -0.00611628)
(-0.104477 -0.0167133 -0.00866448)
(-0.115633 -0.0488649 -0.0105934)
(-0.109669 -0.0961597 -0.011767)
(-0.0429473 -0.145234 -0.0192578)
(-0.00118482 0.0225453 -0.00157033)
(-0.00534945 0.0390346 -0.00182453)
(-0.0107198 0.0419518 -0.00173902)
(-0.0151672 0.0408002 -0.00153475)
(-0.0191968 0.0387373 -0.00130984)
(-0.0228353 0.0365866 -0.00109285)
(-0.0262177 0.0345637 -0.000904125)
(-0.0294816 0.0327651 -0.000757494)
(-0.0327881 0.031264 -0.000664309)
(-0.0363564 0.0301326 -0.000640509)
(-0.0405114 0.0294479 -0.000712803)
(-0.0457637 0.0292527 -0.000924906)
(-0.0529305 0.029477 -0.00133566)
(-0.0632501 0.0297064 -0.00195641)
(-0.0784915 0.0287136 -0.00251187)
(-0.100244 0.0227977 -0.00195296)
(-0.125688 0.00276653 0.00194203)
(-0.141416 -0.0498061 0.0115414)
(-0.13589 -0.141067 0.0189724)
(-0.0401431 -0.24419 -0.00593722)
(-0.00161038 0.0268224 -0.00212741)
(-0.00654983 0.044534 -0.00236906)
(-0.0127257 0.0468864 -0.00219761)
(-0.0175069 0.0448648 -0.00185931)
(-0.0216448 0.0422932 -0.00152074)
(-0.0251507 0.0398768 -0.0012005)
(-0.0282505 0.0377328 -0.000917473)
(-0.0311243 0.0359168 -0.000682859)
(-0.0339318 0.0345262 -0.000505167)
(-0.0368567 0.0337161 -0.000392312)
(-0.0401858 0.0337347 -0.000345997)
(-0.0444197 0.0349098 -0.000348225)
(-0.0504686 0.037633 -0.000301881)
(-0.0598302 0.041899 0.000252876)
(-0.0748826 0.046377 0.00284737)
(-0.0974726 0.0443398 0.0110598)
(-0.125453 0.0197894 0.0294514)
(-0.140469 -0.0583062 0.0546664)
(-0.138977 -0.194475 0.0591101)
(-0.0252442 -0.338682 -0.000815348)
(-0.00366582 0.0310161 -0.00313778)
(-0.0107005 0.0537511 -0.00361625)
(-0.0164634 0.0557786 -0.00329066)
(-0.0208031 0.0530878 -0.00274013)
(-0.0243226 0.049197 -0.00211716)
(-0.0273875 0.0455201 -0.00152643)
(-0.0301016 0.0423241 -0.00100709)
(-0.0325324 0.0397232 -0.000577416)
(-0.034729 0.037831 -0.000240326)
(-0.0367549 0.0368354 1.00191e-05)
(-0.0387419 0.0371122 0.000203514)
(-0.0409501 0.0392328 0.000462074)
(-0.0440588 0.0441289 0.0011704)
(-0.0490949 0.0520371 0.00351938)
(-0.0583714 0.0615112 0.0106107)
(-0.0730348 0.0617835 0.0282292)
(-0.0969653 0.0346744 0.059649)
(-0.109283 -0.0654277 0.0879851)
(-0.120041 -0.241874 0.0670881)
(-0.00807213 -0.415716 -0.0198854)
(-0.00175362 0.0457962 -0.00501443)
(-0.00928609 0.0575288 -0.00490681)
(-0.0196664 0.0566917 -0.00419894)
(-0.0246176 0.0515675 -0.00308355)
(-0.0288797 0.0476955 -0.00213859)
(-0.0315521 0.0444786 -0.00126917)
(-0.0333604 0.0417854 -0.000524109)
(-0.0345247 0.0394969 8.4741e-05)
(-0.0351598 0.0377392 0.000558582)
(-0.0352442 0.0366633 0.000907743)
(-0.0347289 0.0367771 0.00119415)
(-0.0333722 0.0385734 0.00164108)
(-0.0313631 0.0434808 0.00284456)
(-0.028148 0.0512562 0.0064781)
(-0.0265107 0.0623274 0.0161058)
(-0.0233385 0.0634256 0.0373389)
(-0.0377486 0.038091 0.0707628)
(-0.0404343 -0.0707435 0.0887291)
(-0.071414 -0.270065 0.0466744)
(0.0188609 -0.467868 -0.0430696)
(-0.0120657 0.0372758 -0.00627518)
(-0.0254075 0.080279 -0.00749948)
(-0.0252005 0.0772185 -0.00682708)
(-0.0313568 0.070929 -0.00525208)
(-0.032828 0.0628872 -0.00336286)
(-0.0327394 0.0558211 -0.00168435)
(-0.0312389 0.0498488 -0.000309223)
(-0.0288243 0.0449078 0.000736052)
(-0.0257506 0.0409919 0.00149056)
(-0.021903 0.0379052 0.00195892)
(-0.0175816 0.036022 0.00220243)
(-0.0117595 0.0354157 0.00243013)
(-0.00548589 0.0376279 0.00314028)
(0.00532042 0.0422209 0.00566004)
(0.0152721 0.0518325 0.0128939)
(0.0374959 0.0556089 0.0290885)
(0.0399849 0.0414984 0.0505777)
(0.0723383 -0.0500654 0.0637097)
(0.0179757 -0.258722 0.0245188)
(0.0684248 -0.471623 -0.0594251)
(-0.0757104 0.101232 -0.0181644)
(-0.0612428 0.0626812 -0.0130502)
(-0.060685 0.0607649 -0.00931288)
(-0.0393447 0.0525636 -0.00582819)
(-0.0210621 0.0444718 -0.00331105)
(-0.00118866 0.0384637 -0.00122943)
(0.0171335 0.0340682 0.000469559)
(0.0347752 0.0303174 0.00180346)
(0.0503981 0.0275523 0.00284334)
(0.0661441 0.0248465 0.00348812)
(0.0789453 0.0233261 0.00378535)
(0.0944089 0.0216485 0.00357844)
(0.104384 0.0216455 0.00333032)
(0.125271 0.0219308 0.00293455)
(0.132149 0.0217466 0.00402561)
(0.174005 0.0189195 0.0110619)
(0.169723 -0.00706419 0.0147895)
(0.229102 -0.063216 0.0236389)
(0.158737 -0.237483 0.00779055)
(0.148978 -0.420398 -0.0730496)
(0.119382 0.139943 -0.0165152)
(0.151543 0.0856925 -0.0177596)
(0.229665 0.0634223 -0.0174179)
(0.284005 0.0480591 -0.0157988)
(0.325458 0.0371481 -0.0137331)
(0.362952 0.0291095 -0.0118672)
(0.391854 0.0234068 -0.0100246)
(0.421916 0.0191952 -0.00833071)
(0.441281 0.0161357 -0.00679223)
(0.468527 0.0137005 -0.00527018)
(0.479296 0.0119173 -0.00408074)
(0.507554 0.0105998 -0.00298675)
(0.509503 0.00936248 -0.0019321)
(0.542179 0.00901287 -0.00175679)
(0.533577 0.00739283 -7.13392e-05)
(0.57161 0.0055985 -0.000939129)
(0.541918 -0.00348242 0.00262813)
(0.561763 -0.0239298 -0.00342213)
(0.433965 -0.0708611 -0.00746553)
(0.303443 -0.149045 -0.0840672)
(-0.000108233 0.000108818 -7.88095e-05)
(-0.000834602 0.00033747 -6.83158e-05)
(-0.0020187 0.000402127 -5.47552e-05)
(-0.00315575 0.00040807 -4.43517e-05)
(-0.00427582 0.000397524 -4.13024e-05)
(-0.00533825 0.000380702 -4.43681e-05)
(-0.00632162 0.000357277 -5.28222e-05)
(-0.00720307 0.00032485 -6.67083e-05)
(-0.00795453 0.000280879 -8.618e-05)
(-0.00854339 0.000222905 -0.000111804)
(-0.00893307 0.000148927 -0.000143922)