/*--------------------------------*- C++ -*----------------------------------*\
  =========                 |
  \\      /  F ield         | OpenFOAM: The Open Source CFD Toolbox
   \\    /   O peration     | Website:  https://openfoam.org
    \\  /    A nd           | Version:  10
     \\/     M anipulation  |
\*---------------------------------------------------------------------------*/
FoamFile
{
    format      ascii;
    class       volVectorField;
    location    "8.45";
    object      U;
}
// * * * * * * * * * * * * * * * * * * * * * * * * * * * * * * * * * * * * * //

dimensions      [0 1 -1 0 0 0 0];

internalField   nonuniform List<vector> 
400
(
(-0.000156653 0.000138664 0)
(-0.00116875 0.000434674 0)
(-0.00287931 0.000542466 0)
(-0.00463411 0.000577959 0)
(-0.0064495 0.000596516 0)
(-0.00828685 0.000615718 0)
(-0.0101317 0.000634757 0)
(-0.011961 0.000646173 0)
(-0.0137293 0.000639472 0)
(-0.0153642 0.000601321 0)
(-0.0167603 0.000515881 0)
(-0.0177756 0.000366562 0)
(-0.0182343 0.000140552 0)
(-0.0179363 -0.000176309 0)
(-0.0166925 -0.000568042 0)
(-0.0143858 -0.00098922 0)
(-0.0110692 -0.00134644 0)
(-0.00711974 -0.001502 0)
(-0.00284827 -0.00129189 0)
(-0.000317981 -0.000457832 0)
(-0.000503506 0.0011911 0)
(-0.0026244 0.00247891 0)
(-0.00587399 0.00295959 0)
(-0.00920432 0.00311601 0)
(-0.0126107 0.00316498 0)
(-0.0160049 0.00317733 0)
(-0.0193362 0.00315388 0)
(-0.0225445 0.00306796 0)
(-0.0255399 0.00287997 0)
(-0.0281943 0.00254054 0)
(-0.0303347 0.00199394 0)
(-0.0317388 0.00118327 0)
(-0.0321541 6.14157e-05 0)
(-0.0312948 -0.00137639 0)
(-0.0288941 -0.00305784 0)
(-0.0248067 -0.00479248 0)
(-0.0191418 -0.00622199 0)
(-0.012475 -0.00681953 0)
(-0.00531855 -0.00596626 0)
(-0.000820745 -0.00266707 0)
(-0.000657747 0.00308185 0)
(-0.00329858 0.00581424 0)
(-0.00726589 0.00682579 0)
(-0.011302 0.00713756 0)
(-0.0154037 0.00719343 0)
(-0.0194654 0.00713894 0)
(-0.0234265 0.00698113 0)
(-0.0272198 0.00667182 0)
(-0.0307473 0.00613616 0)
(-0.0338709 0.00528022 0)
(-0.0364043 0.00399794 0)
(-0.0381089 0.00218396 0)
(-0.0386847 -0.000244152 0)
(-0.0377805 -0.00329521 0)
(-0.0350495 -0.00683151 0)
(-0.0302436 -0.0104755 0)
(-0.0234093 -0.0135 0)
(-0.015216 -0.0147781 0)
(-0.00632326 -0.0129947 0)
(-0.000878363 -0.00612463 0)
(-0.000708282 0.00510518 0)
(-0.0035671 0.00938869 0)
(-0.00785363 0.0109451 0)
(-0.0121984 0.0114 0)
(-0.016613 0.0114514 0)
(-0.0209938 0.0113256 0)
(-0.0252906 0.0110378 0)
(-0.0294494 0.0105204 0)
(-0.0333879 0.00966464 0)
(-0.0369821 0.00832994 0)
(-0.0400513 0.00635059 0)
(-0.0423443 0.00355424 0)
(-0.0435298 -0.000200714 0)
(-0.0431617 -0.00496433 0)
(-0.040715 -0.0105981 0)
(-0.0357062 -0.0165527 0)
(-0.0279385 -0.0216604 0)
(-0.0180993 -0.023947 0)
(-0.00706271 -0.0210139 0)
(-0.000687413 -0.00966057 0)
(-0.000711572 0.00721618 0)
(-0.00364891 0.0131395 0)
(-0.00807917 0.0152691 0)
(-0.012573 0.0158798 0)
(-0.0171594 0.0159448 0)
(-0.0217482 0.0157797 0)
(-0.026312 0.0154124 0)
(-0.0308259 0.0147594 0)
(-0.035241 0.0136798 0)
(-0.0394684 0.0119829 0)
(-0.0433545 0.00942967 0)
(-0.046649 0.00574585 0)
(-0.0489649 0.000668996 0)
(-0.0497538 -0.00596161 0)
(-0.0482478 -0.0140999 0)
(-0.0435363 -0.0230969 0)
(-0.0349019 -0.0312661 0)
(-0.0227412 -0.0353551 0)
(-0.00814008 -0.0309329 0)
(-0.000261979 -0.0134294 0)
(-0.000695511 0.00934088 0)
(-0.00365251 0.0169653 0)
(-0.00815474 0.0196985 0)
(-0.0127368 0.0204887 0)
(-0.0174444 0.0206037 0)
(-0.0222069 0.0204589 0)
(-0.0270297 0.0201031 0)
(-0.0319298 0.0194446 0)
(-0.0369103 0.0183154 0)
(-0.0419428 0.0164746 0)
(-0.0469349 0.0135985 0)
(-0.0516753 0.00927865 0)
(-0.0557658 0.00305716 0)
(-0.0585718 -0.00548791 0)
(-0.0590529 -0.0165664 0)
(-0.0556901 -0.0296436 0)
(-0.0467234 -0.0426028 0)
(-0.0313375 -0.0503423 0)
(-0.010487 -0.0440854 0)
(0.000426379 -0.0175393 0)
(-0.000669611 0.011445 0)
(-0.0036189 0.020818 0)
(-0.0081594 0.0241856 0)
(-0.0127967 0.0251833 0)
(-0.017592 0.025392 0)
(-0.0224973 0.0253407 0)
(-0.0275576 0.025112 0)
(-0.0328447 0.0246188 0)
(-0.0384341 0.0236793 0)
(-0.0443913 0.0220122 0)
(-0.0507377 0.0192087 0)
(-0.057383 0.0147018 0)
(-0.0640378 0.00775737 0)
(-0.0701342 -0.00244712 0)
(-0.0744793 -0.0165726 0)
(-0.0747962 -0.0348895 0)
(-0.0673183 -0.0555132 0)
(-0.0478889 -0.0710393 0)
(-0.0167726 -0.0632455 0)
(0.00103359 -0.0229334 0)
(-0.000635811 0.0135108 0)
(-0.00355937 0.0246739 0)
(-0.00811341 0.0287036 0)
(-0.0127715 0.0299312 0)
(-0.0176076 0.0302721 0)
(-0.0225964 0.030386 0)
(-0.0278256 0.0304056 0)
(-0.0334313 0.0302697 0)
(-0.0395828 0.02981 0)
(-0.0464791 0.0287375 0)
(-0.0543301 0.0265913 0)
(-0.0633095 0.0226723 0)
(-0.0734582 0.0159827 0)
(-0.0845324 0.00519716 0)
(-0.0957504 -0.0113757 0)
(-0.103902 -0.0358244 0)
(-0.10105 -0.0687997 0)
(-0.076824 -0.100081 0)
(-0.0328306 -0.0935599 0)
(-0.000192004 -0.0328076 0)
(-0.000595331 0.0155236 0)
(-0.00347974 0.0285137 0)
(-0.0080236 0.0332226 0)
(-0.012657 0.034686 0)
(-0.0174634 0.0351782 0)
(-0.0224357 0.0355097 0)
(-0.0277017 0.0358835 0)
(-0.0334627 0.0362917 0)
(-0.0399906 0.0366209 0)
(-0.0476493 0.0366368 0)
(-0.0569113 0.0359209 0)
(-0.0683686 0.0337824 0)
(-0.0827591 0.0291531 0)
(-0.100897 0.0202674 0)
(-0.122522 0.00348711 0)
(-0.142428 -0.02811 0)
(-0.145649 -0.0810516 0)
(-0.116627 -0.13919 0)
(-0.0654491 -0.140571 0)
(-0.00771951 -0.0545801 0)
(-0.000552512 0.0174737 0)
(-0.00339443 0.0323219 0)
(-0.00790903 0.0377072 0)
(-0.0124626 0.0393833 0)
(-0.0171443 0.0400109 0)
(-0.0219574 0.0405722 0)
(-0.0270594 0.0413626 0)
(-0.0327048 0.0424594 0)
(-0.0392556 0.043856 0)
(-0.0472341 0.0454626 0)
(-0.0574 0.0470611 0)
(-0.0708631 0.0482358 0)
(-0.0892758 0.0481956 0)
(-0.11483 0.0447141 0)
(-0.147595 0.0302224 0)
(-0.177628 -0.0112927 0)
(-0.183352 -0.0937982 0)
(-0.155088 -0.184649 0)
(-0.110283 -0.201879 0)
(-0.025756 -0.100976 0)
(-0.000517609 0.0193653 0)
(-0.00333584 0.0360941 0)
(-0.00781744 0.0421177 0)
(-0.0122333 0.0439384 0)
(-0.0166785 0.0446326 0)
(-0.0211539 0.0453734 0)
(-0.0258288 0.0465639 0)
(-0.0309799 0.0483923 0)
(-0.0370125 0.0510095 0)
(-0.0445396 0.0545694 0)
(-0.0545106 0.0592437 0)
(-0.0683806 0.0651831 0)
(-0.0883224 0.0719903 0)
(-0.117152 0.0760099 0)
(-0.153458 0.063036 0)
(-0.184392 0.00786233 0)
(-0.188822 -0.103599 0)
(-0.169033 -0.22298 0)
(-0.138778 -0.271445 0)
(-0.0452436 -0.188693 0)
(-0.000512326 0.0212366 0)
(-0.00336986 0.0398739 0)
(-0.00784514 0.046464 0)
(-0.0120698 0.0483085 0)
(-0.0161595 0.0489297 0)
(-0.0201026 0.0497106 0)
(-0.0240571 0.05117 0)
(-0.028276 0.0536131 0)
(-0.0331238 0.0573721 0)
(-0.039153 0.0628989 0)
(-0.0472268 0.0708458 0)
(-0.0586184 0.0819495 0)
(-0.0748677 0.0957149 0)
(-0.0979284 0.105696 0)
(-0.125163 0.0915875 0)
(-0.146476 0.0239765 0)
(-0.149599 -0.103639 0)
(-0.140872 -0.243878 0)
(-0.129659 -0.334434 0)
(-0.0487318 -0.297861 0)
(-0.000567468 0.0231391 0)
(-0.00357967 0.0436262 0)
(-0.00812398 0.0505677 0)
(-0.0121366 0.0522176 0)
(-0.0157738 0.0525794 0)
(-0.018999 0.0532122 0)
(-0.021949 0.0547072 0)
(-0.0248073 0.0574584 0)
(-0.0278 0.0619282 0)
(-0.0312422 0.0687731 0)
(-0.0355846 0.0789319 0)
(-0.0413605 0.0933081 0)
(-0.048848 0.110935 0)
(-0.0588425 0.123104 0)
(-0.070047 0.107617 0)
(-0.07756 0.0342999 0)
(-0.0807048 -0.0954992 0)
(-0.0820197 -0.242243 0)
(-0.0971501 -0.364357 0)
(-0.0368671 -0.379886 0)
(-0.000786869 0.025392 0)
(-0.0042463 0.0479687 0)
(-0.0089691 0.0551902 0)
(-0.0126691 0.0564376 0)
(-0.0157043 0.0561702 0)
(-0.0180625 0.0562107 0)
(-0.0198303 0.0572437 0)
(-0.0210811 0.0597126 0)
(-0.0218676 0.0641151 0)
(-0.0221965 0.0711293 0)
(-0.0220354 0.0816854 0)
(-0.0210564 0.09645 0)
(-0.0186469 0.114213 0)
(-0.0144024 0.125849 0)
(-0.0101514 0.110772 0)
(-0.00541171 0.0385596 0)
(-0.0126115 -0.0837017 0)
(-0.0247659 -0.221816 0)
(-0.0661084 -0.366213 0)
(-0.0224627 -0.434569 0)
(-0.0011328 0.0281612 0)
(-0.0050666 0.0515581 0)
(-0.0102935 0.0580457 0)
(-0.0139349 0.0581758 0)
(-0.0165419 0.057186 0)
(-0.0180007 0.0567454 0)
(-0.0184625 0.0573698 0)
(-0.0179641 0.059365 0)
(-0.0164299 0.0631377 0)
(-0.0136024 0.0692363 0)
(-0.00912387 0.0783746 0)
(-0.00203119 0.0907768 0)
(0.00849754 0.105414 0)
(0.0239178 0.114333 0)
(0.03815 0.100991 0)
(0.0509451 0.0380423 0)
(0.0391152 -0.0687883 0)
(0.0210199 -0.188875 0)
(-0.0425618 -0.351878 0)
(-0.0101708 -0.471659 0)
(-0.00321433 0.030468 0)
(-0.00950836 0.05881 0)
(-0.0140546 0.06519 0)
(-0.0166295 0.0647025 0)
(-0.0178484 0.0619716 0)
(-0.018064 0.059703 0)
(-0.0172747 0.0585327 0)
(-0.0153276 0.0587657 0)
(-0.0119472 0.060688 0)
(-0.00665607 0.0646194 0)
(0.0009913 0.0709699 0)
(0.0123167 0.0796527 0)
(0.0275319 0.0896205 0)
(0.0483068 0.0948165 0)
(0.0669069 0.084077 0)
(0.0845336 0.0367839 0)
(0.0704394 -0.04762 0)
(0.0518449 -0.146685 0)
(-0.0260356 -0.328455 0)
(0.00282769 -0.493703 0)
(-0.000969257 0.0439406 0)
(-0.00775765 0.0603704 0)
(-0.0173282 0.0625472 0)
(-0.0199449 0.0585957 0)
(-0.0215393 0.0555188 0)
(-0.0209948 0.0534934 0)
(-0.0190408 0.05245 0)
(-0.0155585 0.0522945 0)
(-0.0103526 0.0531616 0)
(-0.00292583 0.0551703 0)
(0.00716958 0.0587101 0)
(0.0211199 0.0635837 0)
(0.0383877 0.0688494 0)
(0.0613834 0.0706652 0)
(0.0802459 0.0624307 0)
(0.10059 0.0309501 0)
(0.0847118 -0.0293479 0)
(0.0689365 -0.106456 0)
(-0.00860576 -0.304114 0)
(0.022014 -0.503142 0)
(-0.0125569 0.0322553 0)
(-0.0233329 0.08032 0)
(-0.021428 0.0802582 0)
(-0.0259283 0.0752691 0)
(-0.0260178 0.0678703 0)
(-0.0242957 0.0617641 0)
(-0.0204935 0.0568859 0)
(-0.0148023 0.0531568 0)
(-0.00727668 0.0505867 0)
(0.00251677 0.0489748 0)
(0.0145472 0.0486003 0)
(0.0298124 0.0490223 0)
(0.046909 0.0505456 0)
(0.0691999 0.0502906 0)
(0.0847254 0.0465081 0)
(0.106629 0.0305847 0)
(0.0945495 -0.00557117 0)
(0.102264 -0.0662161 0)
(0.0402913 -0.274839 0)
(0.0579561 -0.490532 0)
(-0.0776343 0.0959319 0)
(-0.0632598 0.0588064 0)
(-0.0653512 0.0599535 0)
(-0.0429571 0.0533161 0)
(-0.0252818 0.0463527 0)
(-0.00475517 0.04119 0)
(0.0146235 0.0374287 0)
(0.0343702 0.0342375 0)
(0.0526987 0.0319314 0)
(0.0726238 0.0298372 0)
(0.0900123 0.0286799 0)
(0.112218 0.027652 0)
(0.127954 0.0270942 0)
(0.157135 0.0262381 0)
(0.167266 0.0211218 0)
(0.203226 0.0123419 0)
(0.192563 -0.021073 0)
(0.223825 -0.0745364 0)
(0.154604 -0.252037 0)
(0.125078 -0.433686 0)
(0.119402 0.140776 0)
(0.152031 0.0860962 0)
(0.228479 0.0635156 0)
(0.283938 0.0480548 0)
(0.325348 0.0374205 0)
(0.363653 0.029655 0)
(0.392349 0.0242207 0)
(0.423563 0.0201822 0)
(0.443488 0.0172725 0)
(0.472071 0.0149793 0)
(0.484865 0.0132794 0)
(0.5143 0.0119738 0)
(0.519778 0.010854 0)
(0.552205 0.00969228 0)
(0.547334 0.00769263 0)
(0.579723 0.00329881 0)
(0.548555 -0.00586 0)
(0.554112 -0.027219 0)
(0.420314 -0.0732793 0)
(0.275326 -0.152081 0)
)
;

boundaryField
{
    movingWall
    {
        type            fixedValue;
        value           uniform (1 0 0);
    }
    fixedWalls
    {
        type            noSlip;
    }
    frontAndBack
    {
        type            empty;
    }
}


// ************************************************************************* //
