/*--------------------------------*- C++ -*----------------------------------*\
  =========                 |
  \\      /  F ield         | OpenFOAM: The Open Source CFD Toolbox
   \\    /   O peration     | Website:  https://openfoam.org
    \\  /    A nd           | Version:  10
     \\/     M anipulation  |
\*---------------------------------------------------------------------------*/
FoamFile
{
    format      ascii;
    class       volScalarField;
    location    "2.8";
    object      p;
}
// * * * * * * * * * * * * * * * * * * * * * * * * * * * * * * * * * * * * * //

dimensions      [0 2 -2 0 0 0 0];

internalField   nonuniform List<scalar> 
400
(
-4.15624e-10
-2.85994e-05
4.93226e-07
5.97395e-05
0.00015355
0.000281741
0.000443149
0.000636017
0.000857596
0.0011039
0.00136952
0.00164742
0.00192898
0.00220402
0.00246112
0.00268817
0.0028729
0.00300426
0.00308108
0.0030633
2.7852e-05
-2.17244e-06
2.67192e-05
8.32891e-05
0.000173074
0.000296388
0.0004524
0.000639676
0.000855773
0.00109699
0.00135814
0.00163235
0.00191132
0.00218486
0.00244147
0.00266885
0.00285443
0.00298702
0.00306629
0.0030472
-4.19948e-06
-3.8188e-05
-1.04561e-05
4.46085e-05
0.000133144
0.000255709
0.000411792
0.00060032
0.000819209
0.00106507
0.00133301
0.00161664
0.00190706
0.00219383
0.00246481
0.00270668
0.00290544
0.00304824
0.00313423
0.00311229
-7.08825e-05
-0.000108747
-8.24013e-05
-2.89453e-05
5.85363e-05
0.00018103
0.000338529
0.00053052
0.000755479
0.00101053
0.00129116
0.00159111
0.00190175
0.00221191
0.00250823
0.00277565
0.00299784
0.00315908
0.00325737
0.00323411
-0.000177489
-0.000219961
-0.000195288
-0.000143544
-5.6826e-05
6.64329e-05
0.000226914
0.000424866
0.000659537
0.000928789
0.00122871
0.00155332
0.00189405
0.00223917
0.00257382
0.00288039
0.00313896
0.00332929
0.00344716
0.00342361
-0.000325485
-0.000373798
-0.000351334
-0.000301845
-0.000216173
-9.19906e-05
7.22909e-05
0.000277926
0.000525212
0.000813031
0.00113837
0.0014959
0.00187739
0.00227051
0.00265875
0.0030212
0.00333288
0.00356667
0.00371441
0.0036921
-0.000516486
-0.000572198
-0.00055285
-0.000506795
-0.000423268
-0.000298979
-0.000131166
8.2736e-05
0.000344412
0.000654157
0.00101031
0.00140862
0.00184183
0.00229739
0.00275724
0.00319663
0.00358373
0.00388131
0.00407406
0.00405637
-0.000752689
-0.000817727
-0.000802886
-0.000762238
-0.000682981
-0.000560627
-0.000390931
-0.000169672
0.000106623
0.000440143
0.00083116
0.00127722
0.00177297
0.00230658
0.00285914
0.00340213
0.00389511
0.00428621
0.00454719
0.00454181
-0.00103665
-0.00111338
-0.00110502
-0.00107272
-0.00100112
-0.000884249
-0.000716047
-0.000490258
-0.000201197
0.000155758
0.000583529
0.00108236
0.00165022
0.00227769
0.00294691
0.00362669
0.00426728
0.00479653
0.00516244
0.00518736
-0.00137122
-0.00146252
-0.00146326
-0.00144338
-0.00138433
-0.00127831
-0.00111706
-0.000891932
-0.000594639
-0.000217622
0.000245514
0.000798972
0.00144478
0.00217995
0.00299096
0.00384731
0.00469138
0.00542709
0.00595735
0.00605514
-0.00175956
-0.00186888
-0.00188199
-0.00187992
-0.00184006
-0.00175233
-0.00160587
-0.00138931
-0.00109156
-0.000701876
-0.000209829
0.000394962
0.00111736
0.00196815
0.00294292
0.00401943
0.00513874
0.00618447
0.00697775
0.0072496
-0.00220538
-0.00233667
-0.00236597
-0.00238849
-0.0023764
-0.00231672
-0.00219542
-0.00199819
-0.00171121
-0.00132092
-0.000813192
-0.000172797
0.000617542
0.00157857
0.00272619
0.00406092
0.00553965
0.0070438
0.0082715
0.00895104
-0.00271393
-0.00287076
-0.00292021
-0.00297567
-0.00300211
-0.00298263
-0.00289936
-0.00273481
-0.00247287
-0.00209829
-0.00159484
-0.000943033
-0.000117007
0.000926832
0.00222649
0.00382858
0.00574376
0.00789848
0.00983143
0.011481
-0.00329484
-0.00347874
-0.00355001
-0.00364829
-0.00372657
-0.0037621
-0.00373192
-0.00361502
-0.00339389
-0.00305369
-0.00257909
-0.00194787
-0.00112486
-6.74751e-05
0.00128873
0.00308286
0.00543595
0.00842619
0.0114856
0.0153719
-0.00394937
-0.00417215
-0.0042656
-0.00441969
-0.00456428
-0.00466994
-0.00470799
-0.00465346
-0.00448796
-0.00420012
-0.0037829
-0.00322803
-0.0025164
-0.00160158
-0.000384971
0.00135031
0.00389427
0.00785613
0.0124281
0.0203775
-0.00480304
-0.00487273
-0.00497825
-0.00518466
-0.00543955
-0.00566999
-0.0058225
-0.00585867
-0.00576191
-0.00553234
-0.00518183
-0.00472252
-0.00416308
-0.00348204
-0.00256597
-0.00120268
0.000531832
0.00435576
0.00888667
0.022906
-0.00546507
-0.00612294
-0.00617045
-0.00656641
-0.00688056
-0.0071418
-0.00730949
-0.00735848
-0.00728056
-0.00708202
-0.00679722
-0.00647311
-0.0061921
-0.00605272
-0.00618609
-0.0068348
-0.00810617
-0.0059453
-0.00294463
0.0209188
-0.00846331
-0.00623138
-0.00633315
-0.00657902
-0.00717414
-0.00777015
-0.00825989
-0.00855542
-0.00864024
-0.00852218
-0.00828545
-0.00800114
-0.00787074
-0.00809092
-0.00918198
-0.0112327
-0.0166815
-0.017254
-0.0143504
0.0241856
-0.00583501
-0.00914212
-0.00901439
-0.010089
-0.010629
-0.0110479
-0.0112633
-0.0112489
-0.0110474
-0.0106566
-0.0102067
-0.00980267
-0.00966771
-0.0102328
-0.0122996
-0.015592
-0.024829
-0.0247697
-0.0126101
0.0539138
-0.0290616
-0.00526494
-0.00538369
-0.00611526
-0.00714426
-0.008239
-0.00918383
-0.00977614
-0.0100811
-0.00997622
-0.00985623
-0.00949748
-0.00965849
-0.00990349
-0.0112618
-0.011761
-0.0103603
0.00696813
0.0586015
0.177472
)
;

boundaryField
{
    movingWall
    {
        type            zeroGradient;
    }
    fixedWalls
    {
        type            zeroGradient;
    }
    frontAndBack
    {
        type            empty;
    }
}


// ************************************************************************* //
