/*--------------------------------*- C++ -*----------------------------------*\
  =========                 |
  \\      /  F ield         | OpenFOAM: The Open Source CFD Toolbox
   \\    /   O peration     | Website:  https://openfoam.org
    \\  /    A nd           | Version:  10
     \\/     M anipulation  |
\*---------------------------------------------------------------------------*/
FoamFile
{
    format      ascii;
    class       surfaceScalarField;
    location    "2.8";
    object      phi;
}
// * * * * * * * * * * * * * * * * * * * * * * * * * * * * * * * * * * * * * //

dimensions      [0 3 -1 0 0 0 0];

internalField   nonuniform List<scalar> 
760
(
-1.21575e-05
1.21575e-05
-3.30037e-05
2.08462e-05
-5.475e-05
2.17464e-05
-7.55183e-05
2.07683e-05
-9.46764e-05
1.91581e-05
-0.000111769
1.70924e-05
-0.000126368
1.45992e-05
-0.000138063
1.16948e-05
-0.000146464
8.40101e-06
-0.000151214
4.74984e-06
-0.000152001
7.87638e-07
-0.000148568
-3.433e-06
-0.000140763
-7.805e-06
-0.000128557
-1.2206e-05
-0.00011208
-1.64776e-05
-9.16539e-05
-2.04259e-05
-6.78495e-05
-2.38043e-05
-4.16828e-05
-2.61668e-05
-1.58143e-05
-2.58685e-05
-1.58143e-05
-2.14956e-05
3.36531e-05
-5.44666e-05
5.38171e-05
-8.84158e-05
5.56956e-05
-0.0001207
5.30521e-05
-0.000150312
4.87701e-05
-0.00017652
4.3301e-05
-0.000198667
3.67462e-05
-0.000216148
2.91754e-05
-0.000228413
2.06667e-05
-0.000234975
1.13111e-05
-0.000235454
1.26672e-06
-0.000229515
-9.37206e-06
-0.000216998
-2.03216e-05
-0.000197924
-3.12799e-05
-0.000172534
-4.18682e-05
-0.00014134
-5.16192e-05
-0.000105206
-5.99389e-05
-6.56231e-05
-6.57494e-05
-2.62425e-05
-6.52491e-05
-4.20568e-05
-2.40123e-05
5.76655e-05
-6.05038e-05
9.03086e-05
-9.79582e-05
9.31501e-05
-0.000133522
8.86163e-05
-0.000166121
8.13686e-05
-0.000194968
7.21485e-05
-0.00021936
6.1138e-05
-0.000238651
4.84662e-05
-0.000252256
3.42714e-05
-0.000259663
1.87184e-05
-0.00026043
2.03334e-06
-0.00025415
-1.56522e-05
-0.000240645
-3.38262e-05
-0.000219884
-5.20405e-05
-0.000192067
-6.96857e-05
-0.000157695
-8.59911e-05
-0.000117669
-9.99647e-05
-7.36133e-05
-0.000109805
-2.95725e-05
-0.00010929
-7.16292e-05
-2.55019e-05
8.31674e-05
-6.43517e-05
0.000129158
-0.000104204
0.000133003
-0.00014206
0.000126472
-0.000176809
0.000116118
-0.000207649
0.000102988
-0.000233856
8.73452e-05
-0.000254766
6.93764e-05
-0.000269766
4.92718e-05
-0.000278297
2.72492e-05
-0.000279876
3.61252e-06
-0.000274
-2.15283e-05
-0.000260354
-4.74727e-05
-0.000238788
-7.36066e-05
-0.000209387
-9.90859e-05
-0.000172561
-0.000122817
-0.000129189
-0.000143337
-8.10245e-05
-0.00015797
-3.25805e-05
-0.000157734
-0.00010421
-2.73221e-05
0.000110489
-6.90599e-05
0.000170896
-0.000111878
0.000175821
-0.000152586
0.000167179
-0.000190032
0.000153564
-0.000223395
0.000136351
-0.000251943
0.000115893
-0.000274995
9.24287e-05
-0.000291912
6.61885e-05
-0.000302083
3.74206e-05
-0.000304928
6.45704e-06
-0.000299852
-2.66044e-05
-0.000286347
-6.09777e-05
-0.000264053
-9.59008e-05
-0.000232837
-0.000130301
-0.000192932
-0.000162722
-0.000145141
-0.000191128
-9.1375e-05
-0.000211735
-3.68315e-05
-0.000212277
-0.000141041
-2.97071e-05
0.000140197
-7.51903e-05
0.000216379
-0.000121846
0.000222477
-0.000166229
0.000211562
-0.00020714
0.000194474
-0.000243743
0.000172955
-0.000275303
0.000147453
-0.000301137
0.000118262
-0.000320584
8.56354e-05
-0.000332984
4.98212e-05
-0.000337662
1.11353e-05
-0.000333875
-3.03913e-05
-0.000320865
-7.39884e-05
-0.000297966
-0.0001188
-0.000264694
-0.000163574
-0.000220954
-0.000206462
-0.000167353
-0.00024473
-0.000105948
-0.00027314
-4.28985e-05
-0.000275327
-0.00018394
-3.27264e-05
0.000172923
-8.29197e-05
0.000266573
-0.00013437
0.000273927
-0.000183315
0.000260507
-0.000228498
0.000239658
-0.000269083
0.00021354
-0.000304351
0.000182721
-0.000333638
0.000147548
-0.000356287
0.000108285
-0.000371606
6.51406e-05
-0.000378824
1.8353e-05
-0.000377037
-3.21778e-05
-0.000365156
-8.58698e-05
-0.000342087
-0.000141869
-0.0003068
-0.000198861
-0.000258621
-0.000254641
-0.000197719
-0.000305632
-0.00012618
-0.000344679
-5.14737e-05
-0.000350034
-0.000235413
-3.64492e-05
0.000209372
-9.24205e-05
0.000322544
-0.000149697
0.000331203
-0.000204128
0.000314938
-0.000254403
0.000289933
-0.000299705
0.000258842
-0.000339365
0.000222382
-0.000372782
0.000180965
-0.000399347
0.00013485
-0.000418375
8.41692e-05
-0.000429027
2.90046e-05
-0.000430249
-3.09561e-05
-0.000420545
-9.5573e-05
-0.000398256
-0.000164158
-0.000361532
-0.000235585
-0.000308708
-0.000307464
-0.000239052
-0.000375287
-0.000154335
-0.000429396
-6.37414e-05
-0.000440627
-0.000299155
-4.09805e-05
0.000250353
-0.000103938
0.000385501
-0.000168164
0.000395429
-0.000229041
0.000375816
-0.000285216
0.000346109
-0.000335929
0.000309555
-0.000380616
0.000267069
-0.000418802
0.000219151
-0.000450002
0.00016605
-0.000473612
0.000107779
-0.000488789
4.41811e-05
-0.000494392
-2.53527e-05
-0.000488482
-0.000101484
-0.000468695
-0.000183945
-0.000432029
-0.000272251
-0.000375209
-0.000364285
-0.00029571
-0.000454786
-0.000194175
-0.000530931
-8.18896e-05
-0.000552913
-0.000381044
-4.64881e-05
0.000296841
-0.000117838
0.000456851
-0.000190252
0.000467843
-0.000258562
0.000444126
-0.000321404
0.00040895
-0.000378132
0.000366283
-0.000428368
0.000317305
-0.000471857
0.00026264
-0.000508344
0.000202537
-0.00053743
0.000136864
-0.000558391
6.51429e-05
-0.000570147
-1.35967e-05
-0.000570369
-0.000101262
-0.000555931
-0.000198383
-0.00052232
-0.000305862
-0.00046381
-0.000422795
-0.000374561
-0.000544035
-0.000252234
-0.000653257
-0.000110243
-0.000694904
-0.000491287
-5.32499e-05
0.000350091
-0.000134685
0.000538286
-0.000216669
0.000549826
-0.000293406
0.000520864
-0.000363585
0.000479129
-0.000426769
0.000429467
-0.000482871
0.000373406
-0.000531983
0.000311752
-0.000574228
0.000244782
-0.000609581
0.000172217
-0.000637625
9.31877e-05
-0.000657713
6.4908e-06
-0.000667211
-9.17645e-05
-0.000662492
-0.000203102
-0.00063729
-0.000331064
-0.000582462
-0.000477622
-0.000486558
-0.000639939
-0.0003404
-0.000799416
-0.000158017
-0.000877287
-0.000649304
-6.17434e-05
0.000411834
-0.000155369
0.000631912
-0.000248467
0.000642924
-0.000334588
0.000606985
-0.000412603
0.000557144
-0.000482418
0.000499281
-0.000544377
0.000435365
-0.000599073
0.000366448
-0.00064719
0.000292899
-0.000689329
0.000214356
-0.000725786
0.000129645
-0.000756043
3.67471e-05
-0.000778923
-6.88837e-05
-0.000790205
-0.00019182
-0.000782259
-0.00033901
-0.000741888
-0.000517994
-0.000649086
-0.000732741
-0.000481382
-0.00096712
-0.000246595
-0.00111207
-0.000895899
-7.28476e-05
0.000484682
-0.000181321
0.000740386
-0.00028722
0.000748823
-0.000383558
0.000703322
-0.000469622
0.000643209
-0.000545841
0.000575501
-0.000613165
0.000502689
-0.000672854
0.000426138
-0.000726341
0.000346385
-0.000775088
0.000263104
-0.000820416
0.000174973
-0.000863073
7.94033e-05
-0.000903546
-2.84099e-05
-0.000938792
-0.000156574
-0.000961532
-0.000316271
-0.000955253
-0.000524272
-0.000889099
-0.000798895
-0.000718129
-0.00113809
-0.000425297
-0.00140491
-0.0013212
-8.82663e-05
0.000572948
-0.000215087
0.000867206
-0.000335376
0.000869112
-0.000442395
0.000810341
-0.000536249
0.000737063
-0.000618077
0.000657329
-0.000689616
0.000574229
-0.000752954
0.000489476
-0.000810432
0.000403863
-0.00086461
0.000317282
-0.000918303
0.000228666
-0.000974465
0.000135566
-0.00103483
3.19537e-05
-0.00110268
-8.87269e-05
-0.00117435
-0.000244595
-0.00123423
-0.000464398
-0.0012437
-0.000789424
-0.00111851
-0.00126327
-0.00077758
-0.00174584
-0.00209878
-0.000108466
0.000681414
-0.000258478
0.00101722
-0.000395692
0.00100633
-0.000513938
0.000928587
-0.000614783
0.000837908
-0.000700577
0.000743123
-0.000774267
0.000647919
-0.00083892
0.000554129
-0.000897789
0.000462732
-0.000954487
0.00037398
-0.00101316
0.000287341
-0.00107911
0.000201517
-0.00116109
0.000113932
-0.00126832
1.85024e-05
-0.00140609
-0.000106829
-0.00157342
-0.000297066
-0.00173924
-0.000623608
-0.00173914
-0.00126337
-0.00134876
-0.00213622
-0.00344754
-0.000163129
0.000844543
-0.000331807
0.0011859
-0.000477537
0.00115206
-0.000600645
0.00105169
-0.000705282
0.000942545
-0.000793099
0.000830939
-0.000866684
0.000721504
-0.000929476
0.00061692
-0.000985771
0.000519027
-0.00104052
0.000428725
-0.00110024
0.000347067
-0.00117271
0.000273986
-0.00126951
0.000210735
-0.00140583
0.000154823
-0.0016094
9.67382e-05
-0.00189235
-1.41164e-05
-0.00224766
-0.000268295
-0.00239062
-0.00112042
-0.00185928
-0.00266755
-0.00530682
-0.000140263
0.000984806
-0.000380741
0.00142637
-0.000569978
0.00134129
-0.000715902
0.00119762
-0.000825418
0.00105206
-0.000905788
0.000911309
-0.00096562
0.000781337
-0.00101235
0.000663652
-0.00105189
0.000558565
-0.00108855
0.00046539
-0.00112844
0.000386956
-0.00117852
0.000324065
-0.00125427
0.000286487
-0.00137979
0.000280337
-0.00160008
0.000317026
-0.00193809
0.000323898
-0.0023913
0.000184919
-0.00253319
-0.000978536
-0.00174998
-0.00345076
-0.0070568
-0.000422222
0.00140703
-0.000586945
0.0015911
-0.000720209
0.00147456
-0.000829035
0.00130644
-0.000890331
0.00111336
-0.000918281
0.000939259
-0.000925176
0.000788233
-0.000919566
0.000658042
-0.000908993
0.000547992
-0.000897257
0.000453653
-0.000893014
0.000382712
-0.000897083
0.000328134
-0.000922534
0.000311939
-0.000966603
0.000324406
-0.00105298
0.000403406
-0.00115672
0.000427636
-0.00124724
0.000275435
-0.001267
-0.00095877
-0.00063952
-0.00407824
-0.00769632
-0.00125857
0.0026656
-0.00117102
0.00150354
-0.000931653
0.00123519
-0.000613611
0.000988402
-0.000291224
0.00079097
1.10009e-05
0.000637034
0.000281376
0.000517857
0.000518429
0.00042099
0.000721178
0.000345243
0.000894929
0.000279902
0.00104387
0.000233773
0.00117467
0.000197329
0.0013132
0.000173409
0.00146041
0.000177198
0.00171021
0.000153607
0.00199333
0.000144513
0.00236654
-9.77713e-05
0.00239921
-0.000991435
0.00161132
-0.00329036
-0.006085
0.0026656
0.00416914
0.00540434
0.00639274
0.00718371
0.00782074
0.0083386
0.00875959
0.00910483
0.00938473
0.00961851
0.00981583
0.00998924
0.0101664
0.01032
0.0104646
0.0103668
0.00937536
0.006085
)
;

boundaryField
{
    movingWall
    {
        type            calculated;
        value           uniform 0;
    }
    fixedWalls
    {
        type            calculated;
        value           uniform 0;
    }
    frontAndBack
    {
        type            empty;
        value           nonuniform List<scalar> 0();
    }
}


// ************************************************************************* //
