/*--------------------------------*- C++ -*----------------------------------*\
  =========                 |
  \\      /  F ield         | OpenFOAM: The Open Source CFD Toolbox
   \\    /   O peration     | Website:  https://openfoam.org
    \\  /    A nd           | Version:  10
     \\/     M anipulation  |
\*---------------------------------------------------------------------------*/
FoamFile
{
    format      ascii;
    class       volScalarField;
    location    "8";
    object      p;
}
// * * * * * * * * * * * * * * * * * * * * * * * * * * * * * * * * * * * * * //

dimensions      [0 2 -2 0 0 0 0];

internalField   nonuniform List<scalar> 
400
(
1.38156e-07
-2.40729e-05
3.18765e-05
0.000139677
0.000306887
0.000536133
0.000831321
0.00119725
0.00163834
0.00215735
0.00275386
0.00342194
0.00414734
0.00490462
0.0056539
0.00634185
0.00690568
0.00728759
0.00748405
0.00741359
2.64601e-05
1.79305e-06
6.44586e-05
0.000174088
0.000339773
0.000564969
0.000854051
0.00121203
0.00164352
0.00215167
0.00273678
0.00339397
0.00410937
0.00486116
0.0056095
0.00630073
0.00686901
0.00725332
0.00745422
0.00736852
-4.00496e-05
-7.30826e-05
-1.22358e-05
9.29705e-05
0.000252405
0.000469785
0.000750095
0.00109933
0.00152357
0.00202805
0.00261561
0.00328446
0.00402588
0.00481807
0.0056207
0.0063732
0.00699549
0.00740803
0.0076117
0.0074766
-0.000178556
-0.000217473
-0.000160438
-6.25314e-05
8.69824e-05
0.000292244
0.000559154
0.00089517
0.00130858
0.00180785
0.00240023
0.00308886
0.00386861
0.00472693
0.00562016
0.00647898
0.00720032
0.00766572
0.00787348
0.00765273
-0.0003968
-0.000440748
-0.000390069
-0.000302886
-0.0001676
2.0463e-05
0.000268294
0.000585139
0.00098205
0.00147169
0.00206743
0.00278075
0.00361679
0.00456168
0.00558517
0.00660527
0.00748536
0.00804142
0.00824993
0.00787676
-0.000693382
-0.000742408
-0.000700672
-0.000628031
-0.000512235
-0.000348193
-0.000127902
0.000159627
0.000528317
0.00099541
0.00158139
0.0023085
0.00319489
0.00424369
0.00543537
0.00668561
0.00781568
0.00853022
0.00872823
0.00808388
-0.00106388
-0.00111862
-0.00108852
-0.00103485
-0.000945035
-0.00081396
-0.000633183
-0.000390586
-7.00437e-05
0.000349743
0.000896309
0.00160393
0.00250889
0.00363517
0.00501426
0.00656486
0.00807697
0.00908595
0.00924877
0.00816337
-0.0015024
-0.00156379
-0.00154808
-0.00151821
-0.0014618
-0.00137443
-0.00124832
-0.00107184
-0.000828564
-0.000495401
-4.02718e-05
0.000581133
0.00142806
0.00256998
0.00403286
0.00587875
0.00791336
0.0094889
0.00960587
0.00801534
-0.00200143
-0.00207049
-0.00207151
-0.00207
-0.00205446
-0.00202223
-0.00196783
-0.00188253
-0.00175359
-0.00156215
-0.00127988
-0.000864561
-0.00025607
0.000629503
0.00190744
0.00372373
0.00623095
0.00881694
0.00914289
0.00766509
-0.00255191
-0.00262947
-0.00264838
-0.0026783
-0.00270955
-0.00274259
-0.00277631
-0.00280805
-0.00283377
-0.00284761
-0.00284145
-0.00280527
-0.00273361
-0.0026389
-0.0024703
-0.00179856
0.000378211
0.00438554
0.00649907
0.00720917
-0.00314367
-0.00323026
-0.00326587
-0.00332731
-0.00340758
-0.00351174
-0.00364525
-0.00381499
-0.00403171
-0.00431349
-0.00469276
-0.00523237
-0.00607465
-0.00754308
-0.00991211
-0.0126459
-0.0122954
-0.00689975
-0.000673071
0.00482931
-0.00376669
-0.00386181
-0.00390848
-0.00399641
-0.0041216
-0.0042951
-0.00453018
-0.00484546
-0.00527097
-0.00585805
-0.00670026
-0.00797609
-0.0100495
-0.0137037
-0.0196721
-0.0273072
-0.030447
-0.0241428
-0.0136672
-0.00314968
-0.00441459
-0.00451773
-0.00456555
-0.00466893
-0.00482628
-0.00505601
-0.0053796
-0.00582669
-0.00644611
-0.00732122
-0.00860356
-0.0105767
-0.0138167
-0.0193892
-0.0282595
-0.0393858
-0.0456691
-0.039812
-0.0286974
-0.0151973
-0.00508045
-0.00518179
-0.00520545
-0.00530137
-0.00547028
-0.00573508
-0.00612002
-0.00666222
-0.00742025
-0.00849171
-0.0100525
-0.0123935
-0.0162116
-0.0224654
-0.0322073
-0.0436451
-0.0507417
-0.0452502
-0.0362264
-0.0227971
-0.0057923
-0.00590003
-0.00587771
-0.0059459
-0.00608962
-0.00634486
-0.00673975
-0.00731328
-0.00812485
-0.00926729
-0.0109138
-0.0132123
-0.0169723
-0.0228212
-0.0315276
-0.0406812
-0.0462868
-0.0412425
-0.0355802
-0.0224337
-0.00663283
-0.00654467
-0.00639519
-0.00634808
-0.00643973
-0.00668076
-0.00708147
-0.00766449
-0.00847868
-0.00960358
-0.01125
-0.0130449
-0.0163903
-0.0210273
-0.0274434
-0.0335535
-0.0371699
-0.0323408
-0.0292321
-0.013392
-0.00710559
-0.00751697
-0.00719401
-0.0071737
-0.00713728
-0.00724349
-0.00750629
-0.0079593
-0.0086443
-0.00960368
-0.0109479
-0.0126948
-0.0153322
-0.0187624
-0.0233184
-0.0270133
-0.0288958
-0.0236368
-0.0195501
0.00561936
-0.0104853
-0.00794782
-0.0072747
-0.00664471
-0.00653561
-0.00668458
-0.00703492
-0.00754969
-0.00825035
-0.00914415
-0.0103575
-0.0119192
-0.0140942
-0.0167272
-0.0199581
-0.0219322
-0.022141
-0.0151609
-0.00471162
0.0383318
-0.00713417
-0.0101126
-0.00898774
-0.00895524
-0.00845921
-0.00819003
-0.00810743
-0.00824189
-0.00863539
-0.00927424
-0.0102802
-0.0116243
-0.0136815
-0.0161247
-0.0193723
-0.0209499
-0.0201709
-0.00627257
0.0196577
0.0962667
-0.03237
-0.0072871
-0.00570375
-0.00491961
-0.00469463
-0.00488282
-0.00537209
-0.00596904
-0.00676248
-0.0076738
-0.00894968
-0.0104441
-0.0124346
-0.0142806
-0.0157078
-0.0130267
-0.00310682
0.0308916
0.0976282
0.228406
)
;

boundaryField
{
    movingWall
    {
        type            zeroGradient;
    }
    fixedWalls
    {
        type            zeroGradient;
    }
    frontAndBack
    {
        type            empty;
    }
}


// ************************************************************************* //
