/*--------------------------------*- C++ -*----------------------------------*\
  =========                 |
  \\      /  F ield         | OpenFOAM: The Open Source CFD Toolbox
   \\    /   O peration     | Website:  https://openfoam.org
    \\  /    A nd           | Version:  10
     \\/     M anipulation  |
\*---------------------------------------------------------------------------*/
FoamFile
{
    format      ascii;
    class       surfaceScalarField;
    location    "8";
    object      phi;
}
// * * * * * * * * * * * * * * * * * * * * * * * * * * * * * * * * * * * * * //

dimensions      [0 3 -1 0 0 0 0];

internalField   nonuniform List<scalar> 
760
(
-1.20653e-05
1.20651e-05
-3.89057e-05
2.68403e-05
-7.11543e-05
3.22486e-05
-0.000105042
3.3888e-05
-0.000139368
3.43256e-05
-0.000173756
3.43879e-05
-0.000207835
3.40796e-05
-0.000240939
3.31038e-05
-0.000271974
3.10346e-05
-0.000299328
2.73537e-05
-0.000320808
2.14805e-05
-0.00033364
1.28321e-05
-0.000334601
9.60722e-07
-0.000320314
-1.42868e-05
-0.000288135
-3.21792e-05
-0.000237277
-5.08577e-05
-0.000170555
-6.67223e-05
-9.63033e-05
-7.42515e-05
-3.00133e-05
-6.629e-05
-3.00133e-05
-2.87538e-05
4.08189e-05
-8.11536e-05
7.92401e-05
-0.000142222
9.3317e-05
-0.00020573
9.7396e-05
-0.000269264
9.78594e-05
-0.00033167
9.67944e-05
-0.000391894
9.43027e-05
-0.000448522
8.97317e-05
-0.000499581
8.20939e-05
-0.000542407
7.01794e-05
-0.000573572
5.26462e-05
-0.000588854
2.81138e-05
-0.000583936
-3.95697e-06
-0.000553842
-4.43816e-05
-0.000495147
-9.08732e-05
-0.00040717
-0.000138835
-0.00029451
-0.000179382
-0.000170167
-0.000198594
-5.7828e-05
-0.000178629
-8.78413e-05
-3.63087e-05
7.71276e-05
-0.000100558
0.000143489
-0.000174617
0.000167376
-0.000251068
0.000173846
-0.000327074
0.000173866
-0.000401269
0.000170989
-0.000472437
0.000165471
-0.000539025
0.00015632
-0.000598913
0.000141982
-0.000649238
0.000120504
-0.000686274
8.96822e-05
-0.000705517
4.7357e-05
-0.00070135
-8.12349e-06
-0.00066782
-7.79116e-05
-0.000599946
-0.000158748
-0.000495641
-0.000243141
-0.000359323
-0.0003157
-0.000206752
-0.000351165
-6.87426e-05
-0.000316639
-0.000156584
-3.91974e-05
0.000116325
-0.000108614
0.000212906
-0.00018839
0.000247153
-0.000270606
0.000256062
-0.000352417
0.000255676
-0.000432592
0.000251164
-0.000510109
0.000242988
-0.000583649
0.00022986
-0.000651332
0.000209665
-0.000710469
0.000179641
-0.00075728
0.000136493
-0.000786647
7.67234e-05
-0.000792356
-2.41425e-06
-0.000765751
-0.000104517
-0.000698692
-0.000225807
-0.00058521
-0.000356623
-0.000427153
-0.000473757
-0.000243341
-0.000534977
-7.62702e-05
-0.00048371
-0.000232854
-4.00665e-05
0.000156391
-0.000111809
0.000284649
-0.000194443
0.000329786
-0.000279838
0.000341458
-0.000365323
0.00034116
-0.00045
0.000335842
-0.000533283
0.000326271
-0.00061436
0.000310937
-0.000691893
0.000287197
-0.000763669
0.000251418
-0.000826136
0.00019896
-0.000873776
0.000124363
-0.000898548
2.23581e-05
-0.00088954
-0.000113524
-0.000832673
-0.000282675
-0.000714776
-0.000474519
-0.000530765
-0.000657768
-0.000299784
-0.000765957
-8.62532e-05
-0.000697241
-0.000319107
-4.01816e-05
0.000196573
-0.000113198
0.000357665
-0.000197709
0.000414298
-0.000285465
0.000429214
-0.000374047
0.000429742
-0.000463029
0.000424824
-0.00055245
0.000415691
-0.000642274
0.000400761
-0.000732058
0.000376982
-0.000820517
0.000339876
-0.000904849
0.000283292
-0.000979726
0.00019924
-0.00103582
7.84497e-05
-0.00105943
-8.99086e-05
-0.00102891
-0.000313198
-0.000918695
-0.000584734
-0.0007068
-0.000869664
-0.000401618
-0.00107114
-0.000106056
-0.000992803
-0.000425163
-3.99837e-05
0.000236557
-0.000113869
0.00043155
-0.000199854
0.000500283
-0.000289559
0.000518919
-0.00038085
0.000521033
-0.000473867
0.000517841
-0.000569455
0.00051128
-0.000668645
0.000499951
-0.000772348
0.000480684
-0.000880893
0.000448421
-0.000993221
0.00039562
-0.00110553
0.000311548
-0.00120902
0.000181938
-0.00129003
-8.89128e-06
-0.00131771
-0.000285523
-0.00124832
-0.000654121
-0.00102123
-0.00109676
-0.000603711
-0.00148865
-0.000158456
-0.00143806
-0.00058362
-3.95742e-05
0.000276131
-0.000114083
0.000506059
-0.000201182
0.000587382
-0.000292282
0.000610019
-0.000385521
0.000614272
-0.000481653
0.000613973
-0.000582467
0.000612094
-0.000690353
0.000607837
-0.000808107
0.000598438
-0.000938627
0.000578941
-0.00108425
0.000541241
-0.00124542
0.000472724
-0.00141848
0.000354998
-0.00159073
0.000163353
-0.00173609
-0.000140157
-0.00177636
-0.000613852
-0.00157103
-0.0013021
-0.000999322
-0.00206036
-0.000300088
-0.00213729
-0.000883708
-3.90052e-05
0.000315136
-0.000113939
0.000580993
-0.000201687
0.000675129
-0.000293307
0.000701639
-0.000387151
0.000708115
-0.000484567
0.00071139
-0.000588325
0.000715852
-0.00070232
0.000721832
-0.00083168
0.000727798
-0.000982863
0.000730125
-0.00116354
0.00072192
-0.00138224
0.000691425
-0.00164751
0.000620265
-0.00196198
0.00047782
-0.00230024
0.000198102
-0.0025363
-0.000377792
-0.00238862
-0.00144977
-0.00164837
-0.00280061
-0.000620915
-0.00316475
-0.00150462
-3.84373e-05
0.000353574
-0.000113734
0.00065629
-0.000201595
0.00076299
-0.000292537
0.000792581
-0.000385013
0.000800592
-0.000480869
0.000807245
-0.000583734
0.000818717
-0.000698917
0.000837016
-0.000833907
0.000862787
-0.000999226
0.000895444
-0.00120976
0.000932458
-0.00148657
0.000968232
-0.00185761
0.000991307
-0.0023464
0.000966605
-0.0029094
0.000761104
-0.00333317
4.59761e-05
-0.00324285
-0.00154009
-0.00244389
-0.00359957
-0.00118186
-0.00442677
-0.00268649
-3.8252e-05
0.000391825
-0.000114207
0.000732245
-0.000201716
0.000850499
-0.000290567
0.000881432
-0.000379162
0.000889187
-0.000469658
0.000897742
-0.000566219
0.000915277
-0.000675057
0.000945854
-0.000805363
0.000993093
-0.000971011
0.00106109
-0.00119347
0.00115492
-0.00150567
0.00128043
-0.0019505
0.00143614
-0.00255223
0.00156834
-0.00322631
0.00143518
-0.00369348
0.00051315
-0.00365737
-0.0015762
-0.0030434
-0.00421354
-0.00180048
-0.0056697
-0.00448696
-3.924e-05
0.000431066
-0.000116866
0.000809871
-0.000203798
0.000937431
-0.000289023
0.000966657
-0.000370891
0.000971055
-0.000451642
0.000978493
-0.00053544
0.000999075
-0.000628421
0.00103884
-0.000739826
0.0011045
-0.000883973
0.00120524
-0.00108329
0.00135424
-0.00137082
0.00156795
-0.00178327
0.00184859
-0.00231716
0.00210223
-0.00286763
0.00198565
-0.00322235
0.00086787
-0.00326003
-0.00153852
-0.00294612
-0.00452745
-0.00193597
-0.00667985
-0.00642293
-4.24887e-05
0.000473554
-0.000123793
0.000891176
-0.000210543
0.00102418
-0.000290969
0.00104708
-0.000363303
0.00104339
-0.000429694
0.00104488
-0.000493817
0.0010632
-0.00056028
0.0011053
-0.000635705
0.00117992
-0.000729933
0.00129947
-0.000857366
0.00148167
-0.001035
0.00174559
-0.00127668
0.00209026
-0.001559
0.00238455
-0.00182765
0.00225431
-0.00199997
0.00104019
-0.00210959
-0.0014289
-0.00213001
-0.00450703
-0.00156763
-0.00724223
-0.00799056
-5.16291e-05
0.000525183
-0.000140691
0.000980237
-0.000227033
0.00111052
-0.000299979
0.00112003
-0.000359599
0.00110301
-0.000408155
0.00109344
-0.000447612
0.00110265
-0.000480177
0.00113786
-0.000508165
0.00120791
-0.000533912
0.00132521
-0.000559531
0.00150729
-0.000580776
0.00176684
-0.000591914
0.0021014
-0.000571358
0.002364
-0.000547071
0.00223002
-0.000561998
0.00105511
-0.00072748
-0.00126341
-0.00110323
-0.00413129
-0.00105285
-0.00729261
-0.00904341
-6.32739e-05
0.000588457
-0.000163897
0.00108086
-0.000254435
0.00120106
-0.000324613
0.00119021
-0.00037225
0.00115065
-0.000400493
0.00112168
-0.000411448
0.00111361
-0.000405471
0.00113189
-0.000380858
0.0011833
-0.000332815
0.00127717
-0.000252853
0.00142733
-0.000121868
0.00163585
8.06251e-05
0.0018989
0.000344802
0.00209982
0.000610572
0.00196425
0.000679327
0.000986359
0.000408755
-0.000992843
-0.000288803
-0.00343373
-0.000633516
-0.0069479
-0.00967692
-0.000130873
0.00071933
-0.000246015
0.001196
-0.000321445
0.00127649
-0.000365479
0.00123424
-0.000388213
0.00117338
-0.000393072
0.00112654
-0.000378531
0.00109907
-0.000340281
0.00109364
-0.000271906
0.00111492
-0.000163203
0.00116847
1.13463e-06
0.00126299
0.000234843
0.00140214
0.000561325
0.00157242
0.000971252
0.00168989
0.00135863
0.00157687
0.00148729
0.000857694
0.00115617
-0.000661725
0.000303693
-0.00258124
-0.000272289
-0.00637191
-0.00994921
-8.46291e-05
0.000803959
-0.000264927
0.0013763
-0.000380567
0.00139213
-0.000439152
0.00129283
-0.000456618
0.00119085
-0.000443127
0.00111305
-0.000401226
0.00105717
-0.00032827
0.00102068
-0.00021825
0.0010049
-5.94065e-05
0.00100963
0.000161189
0.00104239
0.000461581
0.00110175
0.000851376
0.00118263
0.0013147
0.00122656
0.00174688
0.0011447
0.00190306
0.000701513
0.00155321
-0.000311878
0.000731069
-0.0017591
0.000122231
-0.00576308
-0.00982698
-0.000380171
0.00118413
-0.000440739
0.00143687
-0.000493411
0.0014448
-0.000535234
0.00133465
-0.000529974
0.00118559
-0.000483594
0.00106667
-0.000399938
0.000973512
-0.000277337
0.000898079
-0.00011624
0.000843807
9.11778e-05
0.000802208
0.00035023
0.00078334
0.000674367
0.000777613
0.00106239
0.000794605
0.00148819
0.000800765
0.00189409
0.0007388
0.00208913
0.000506475
0.00199351
-0.000216262
0.00157243
-0.00133802
0.000872371
-0.00506302
-0.00895461
-0.00136247
0.0025466
-0.00132633
0.00140073
-0.00106922
0.00118769
-0.000700141
0.000965569
-0.000310417
0.000795863
8.36498e-05
0.000672604
0.000470676
0.000586486
0.00084983
0.000518925
0.00122336
0.000470276
0.00159598
0.000429588
0.00197611
0.000403214
0.00237093
0.000382788
0.00279794
0.000367594
0.00325003
0.000348679
0.00371311
0.00027572
0.00407524
0.000144343
0.00417227
-0.000313291
0.00399661
-0.00116236
0.00253038
-0.00359679
-0.00642424
0.0025466
0.00394733
0.00513502
0.00610059
0.00689645
0.00756906
0.00815554
0.00867447
0.00914474
0.00957433
0.00997755
0.0103603
0.0107279
0.0110766
0.0113523
0.0114967
0.0111834
0.010021
0.00642424
)
;

boundaryField
{
    movingWall
    {
        type            calculated;
        value           uniform 0;
    }
    fixedWalls
    {
        type            calculated;
        value           uniform 0;
    }
    frontAndBack
    {
        type            empty;
        value           nonuniform List<scalar> 0();
    }
}


// ************************************************************************* //
