/*--------------------------------*- C++ -*----------------------------------*\
  =========                 |
  \\      /  F ield         | OpenFOAM: The Open Source CFD Toolbox
   \\    /   O peration     | Website:  https://openfoam.org
    \\  /    A nd           | Version:  10
     \\/     M anipulation  |
\*---------------------------------------------------------------------------*/
FoamFile
{
    format      ascii;
    class       volVectorField;
    location    "8";
    object      U;
}
// * * * * * * * * * * * * * * * * * * * * * * * * * * * * * * * * * * * * * //

dimensions      [0 1 -1 0 0 0 0];

internalField   nonuniform List<vector> 
400
(
(-0.000148265 0.000132659 0)
(-0.00111082 0.000414984 0)
(-0.00273712 0.000517589 0)
(-0.00440024 0.000549988 0)
(-0.00611318 0.000565153 0)
(-0.00783668 0.000579739 0)
(-0.00955441 0.000592934 0)
(-0.0112425 0.000597857 0)
(-0.0128574 0.000585118 0)
(-0.0143326 0.000543209 0)
(-0.0155739 0.000458832 0)
(-0.0164567 0.000318407 0)
(-0.0168297 0.000111822 0)
(-0.0165233 -0.000171485 0)
(-0.0153784 -0.000518503 0)
(-0.0132941 -0.000892466 0)
(-0.0103061 -0.00121754 0)
(-0.00672484 -0.00137712 0)
(-0.00278796 -0.00121878 0)
(-0.000363586 -0.000474019 0)
(-0.000474846 0.00113027 0)
(-0.00248325 0.00235465 0)
(-0.00555853 0.00280628 0)
(-0.00869703 0.00294311 0)
(-0.0118909 0.00297342 0)
(-0.0150535 0.00296493 0)
(-0.0181334 0.00291904 0)
(-0.0210727 0.00281231 0)
(-0.0237877 0.00261055 0)
(-0.0261635 0.00227225 0)
(-0.0280476 0.00175146 0)
(-0.0292481 0.00100236 0)
(-0.0295493 -1.21189e-05 0)
(-0.0287108 -0.0012935 0)
(-0.0265099 -0.00278097 0)
(-0.022822 -0.00432037 0)
(-0.0177282 -0.00561991 0)
(-0.0117028 -0.00623258 0)
(-0.005137 -0.00558346 0)
(-0.000863277 -0.00264082 0)
(-0.000618172 0.00291529 0)
(-0.00311118 0.00550657 0)
(-0.00685409 0.0064504 0)
(-0.0106451 0.00671634 0)
(-0.0144782 0.00673124 0)
(-0.0182504 0.00663455 0)
(-0.0219012 0.00643478 0)
(-0.0253661 0.00609067 0)
(-0.0285541 0.0055387 0)
(-0.0313413 0.00470057 0)
(-0.0335641 0.00348962 0)
(-0.0350168 0.0018214 0)
(-0.035444 -0.000367279 0)
(-0.0345497 -0.00308159 0)
(-0.0320464 -0.00620391 0)
(-0.0277284 -0.00942868 0)
(-0.0216254 -0.0121647 0)
(-0.0142824 -0.013466 0)
(-0.00617151 -0.0121301 0)
(-0.000971067 -0.00603256 0)
(-0.000664544 0.00481966 0)
(-0.00336061 0.0088757 0)
(-0.00740126 0.0103232 0)
(-0.0114786 0.010706 0)
(-0.0156008 0.0106945 0)
(-0.0196665 0.0105051 0)
(-0.0236242 0.010155 0)
(-0.0274203 0.00958655 0)
(-0.0309766 0.00870758 0)
(-0.0341797 0.00740069 0)
(-0.0368692 0.00553026 0)
(-0.0388258 0.0029586 0)
(-0.0397678 -0.000424931 0)
(-0.0393187 -0.00465635 0)
(-0.0370443 -0.00961343 0)
(-0.0325526 -0.0148512 0)
(-0.0256824 -0.0194269 0)
(-0.016997 -0.0217163 0)
(-0.00705567 -0.0196031 0)
(-0.000904747 -0.00960698 0)
(-0.000669097 0.00680786 0)
(-0.00344566 0.012414 0)
(-0.00763112 0.0143916 0)
(-0.011857 0.0149023 0)
(-0.0161484 0.01488 0)
(-0.0204148 0.0146257 0)
(-0.0246248 0.0141685 0)
(-0.0287491 0.0134369 0)
(-0.0327366 0.012311 0)
(-0.0365012 0.0106305 0)
(-0.0399006 0.00819798 0)
(-0.0427134 0.00479237 0)
(-0.0446073 0.000206022 0)
(-0.0451131 -0.00567834 0)
(-0.0435958 -0.0128112 0)
(-0.0393259 -0.0206561 0)
(-0.0317472 -0.0278572 0)
(-0.0212413 -0.0318037 0)
(-0.0083607 -0.0288147 0)
(-0.000698585 -0.01358 0)
(-0.000658131 0.0088172 0)
(-0.00346892 0.0160371 0)
(-0.00774406 0.0185741 0)
(-0.0120731 0.019234 0)
(-0.0164974 0.0192331 0)
(-0.0209432 0.0189661 0)
(-0.0254073 0.0184807 0)
(-0.0298958 0.0176972 0)
(-0.0344003 0.0164709 0)
(-0.0388827 0.0145968 0)
(-0.0432465 0.0118043 0)
(-0.0472932 0.00775797 0)
(-0.050667 0.0020937 0)
(-0.0528159 -0.00550626 0)
(-0.0528622 -0.0151996 0)
(-0.0495881 -0.0264958 0)
(-0.0416877 -0.0376656 0)
(-0.0287589 -0.0447198 0)
(-0.0108712 -0.040899 0)
(-0.000339341 -0.0181615 0)
(-0.000640045 0.0108219 0)
(-0.00346705 0.0197098 0)
(-0.00781085 0.0228367 0)
(-0.0122224 0.0236711 0)
(-0.0167586 0.0237304 0)
(-0.0213657 0.0235154 0)
(-0.026075 0.0231029 0)
(-0.0309395 0.0224149 0)
(-0.0360116 0.0212911 0)
(-0.041329 0.0194879 0)
(-0.0468839 0.0166568 0)
(-0.0525625 0.0123236 0)
(-0.0580645 0.00588752 0)
(-0.0628598 -0.00330813 0)
(-0.0658892 -0.0157321 0)
(-0.0653484 -0.0314206 0)
(-0.0586069 -0.0486881 0)
(-0.0429063 -0.0619957 0)
(-0.0167063 -0.0580873 0)
(-6.67574e-05 -0.0241899 0)
(-0.000616257 0.0128107 0)
(-0.00344915 0.0234188 0)
(-0.00784778 0.0271639 0)
(-0.0123188 0.0281931 0)
(-0.0169334 0.0283472 0)
(-0.0216582 0.0282487 0)
(-0.0265632 0.0280169 0)
(-0.0317584 0.0275927 0)
(-0.0373757 0.0268215 0)
(-0.0435636 0.0254431 0)
(-0.0504642 0.0230515 0)
(-0.0581626 0.0190411 0)
(-0.0665919 0.0125592 0)
(-0.0753764 0.00252143 0)
(-0.0837126 -0.0122501 0)
(-0.0893567 -0.0329703 0)
(-0.0870629 -0.0596052 0)
(-0.0685545 -0.085546 0)
(-0.0304347 -0.0846379 0)
(-0.00108173 -0.0341808 0)
(-0.000587681 0.0147743 0)
(-0.00341979 0.0271539 0)
(-0.00785953 0.0315364 0)
(-0.0123562 0.0327662 0)
(-0.0169935 0.0330336 0)
(-0.0217559 0.0331005 0)
(-0.0267517 0.0331468 0)
(-0.0321508 0.0331554 0)
(-0.0381779 0.0330105 0)
(-0.045123 0.0324833 0)
(-0.053344 0.0311751 0)
(-0.0632518 0.028433 0)
(-0.0752762 0.0232581 0)
(-0.0898148 0.0141842 0)
(-0.106793 -0.00117176 0)
(-0.123326 -0.0268935 0)
(-0.129005 -0.0680726 0)
(-0.10676 -0.117379 0)
(-0.0575098 -0.12682 0)
(-0.00672318 -0.0540984 0)
(-0.0005582 0.0167078 0)
(-0.00339169 0.0309074 0)
(-0.00786226 0.0359288 0)
(-0.0123406 0.0373391 0)
(-0.0169216 0.0377077 0)
(-0.0216015 0.0379565 0)
(-0.0265207 0.0383454 0)
(-0.0319026 0.0389267 0)
(-0.0380591 0.0396674 0)
(-0.0454288 0.0404429 0)
(-0.054629 0.0409833 0)
(-0.0665268 0.0407919 0)
(-0.0823491 0.0390406 0)
(-0.103765 0.0341243 0)
(-0.131719 0.0215657 0)
(-0.161021 -0.00956996 0)
(-0.172843 -0.073991 0)
(-0.14665 -0.158421 0)
(-0.0977022 -0.185957 0)
(-0.0220061 -0.0942312 0)
(-0.000537371 0.0186189 0)
(-0.00339464 0.0346822 0)
(-0.00789873 0.0403119 0)
(-0.01231 0.0418416 0)
(-0.0167367 0.0422532 0)
(-0.0211782 0.0426473 0)
(-0.0257929 0.0433795 0)
(-0.030836 0.0445966 0)
(-0.0366756 0.0463948 0)
(-0.0438579 0.0488407 0)
(-0.0532113 0.0519581 0)
(-0.0659973 0.0557006 0)
(-0.0841462 0.0597561 0)
(-0.110459 0.0621608 0)
(-0.145831 0.0539539 0)
(-0.181008 0.0137701 0)
(-0.192028 -0.080596 0)
(-0.168199 -0.20086 0)
(-0.133556 -0.253266 0)
(-0.0424508 -0.170079 0)
(-0.000545528 0.0205461 0)
(-0.00348935 0.0385219 0)
(-0.00805615 0.0446955 0)
(-0.0123525 0.0462334 0)
(-0.0165157 0.0465648 0)
(-0.0205403 0.0469897 0)
(-0.0245843 0.0479695 0)
(-0.028898 0.0497578 0)
(-0.0338409 0.0526134 0)
(-0.0399585 0.0568672 0)
(-0.0481045 0.0629778 0)
(-0.0595957 0.0715313 0)
(-0.0762783 0.082631 0)
(-0.10058 0.0926533 0)
(-0.132004 0.086525 0)
(-0.160653 0.0347992 0)
(-0.167452 -0.0822215 0)
(-0.152651 -0.228037 0)
(-0.137124 -0.318711 0)
(-0.0497827 -0.27908 0)
(-0.000613361 0.0225416 0)
(-0.00375698 0.0423995 0)
(-0.0084588 0.0489193 0)
(-0.0126168 0.0502641 0)
(-0.0164194 0.0503499 0)
(-0.019845 0.0506468 0)
(-0.0230416 0.0516877 0)
(-0.0262113 0.0538177 0)
(-0.029613 0.0574357 0)
(-0.033627 0.0631035 0)
(-0.0388293 0.071644 0)
(-0.0460146 0.0840343 0)
(-0.056069 0.100323 0)
(-0.0699457 0.114657 0)
(-0.0870633 0.1082 0)
(-0.101046 0.0486521 0)
(-0.104851 -0.0766664 0)
(-0.100491 -0.234058 0)
(-0.108741 -0.360691 0)
(-0.0404277 -0.373189 0)
(-0.000840823 0.0249154 0)
(-0.00446405 0.0469106 0)
(-0.00940013 0.0537094 0)
(-0.0133163 0.0546636 0)
(-0.0166063 0.0541558 0)
(-0.0192753 0.0539149 0)
(-0.0214282 0.054571 0)
(-0.0231694 0.0565329 0)
(-0.0246036 0.0602662 0)
(-0.0258396 0.0664226 0)
(-0.0270168 0.0759396 0)
(-0.0280747 0.0897057 0)
(-0.0289146 0.107599 0)
(-0.0290182 0.122446 0)
(-0.0295813 0.115882 0)
(-0.0279901 0.0548455 0)
(-0.0316585 -0.066878 0)
(-0.0370992 -0.218787 0)
(-0.0730921 -0.368779 0)
(-0.0255164 -0.433706 0)
(-0.00119084 0.0278243 0)
(-0.00531799 0.0507134 0)
(-0.0108003 0.0568089 0)
(-0.0147096 0.0566898 0)
(-0.0176377 0.0555147 0)
(-0.01949 0.0548666 0)
(-0.0204351 0.055215 0)
(-0.0205398 0.0568501 0)
(-0.0197724 0.0601785 0)
(-0.0179667 0.0657874 0)
(-0.0149237 0.0745133 0)
(-0.00972506 0.0867805 0)
(-0.00200352 0.102427 0)
(0.0103874 0.114861 0)
(0.0228164 0.108431 0)
(0.0359705 0.0532059 0)
(0.0286567 -0.0559766 0)
(0.0152774 -0.188592 0)
(-0.0463407 -0.356341 0)
(-0.0114064 -0.474264 0)
(-0.00327053 0.0303041 0)
(-0.00975333 0.0582235 0)
(-0.0145751 0.0642295 0)
(-0.0174555 0.0635195 0)
(-0.0190551 0.0606699 0)
(-0.0197322 0.0582804 0)
(-0.0194965 0.0569447 0)
(-0.0182127 0.0569626 0)
(-0.0156216 0.0586378 0)
(-0.0112724 0.0623536 0)
(-0.00487604 0.0686769 0)
(0.00502441 0.0777555 0)
(0.0187013 0.0890303 0)
(0.0381792 0.0974823 0)
(0.0569593 0.0916736 0)
(0.0764326 0.0487592 0)
(0.0678388 -0.0398002 0)
(0.0529351 -0.148586 0)
(-0.0258075 -0.332766 0)
(0.00293075 -0.496798 0)
(-0.000999009 0.043881 0)
(-0.00793819 0.0599812 0)
(-0.0177759 0.0618663 0)
(-0.0207635 0.0577967 0)
(-0.0228113 0.0546926 0)
(-0.022783 0.0526371 0)
(-0.0214054 0.0515252 0)
(-0.0185769 0.0512646 0)
(-0.0141056 0.0520103 0)
(-0.00748709 0.0539441 0)
(0.00166986 0.0575117 0)
(0.0147622 0.0628287 0)
(0.0314708 0.0691428 0)
(0.0544516 0.0730869 0)
(0.0747629 0.0677621 0)
(0.0981743 0.0384377 0)
(0.0873694 -0.02535 0)
(0.0733267 -0.108024 0)
(-0.00646017 -0.306384 0)
(0.0224219 -0.505038 0)
(-0.0125461 0.0323106 0)
(-0.023509 0.0801881 0)
(-0.0218978 0.0799447 0)
(-0.0267675 0.0749174 0)
(-0.0272537 0.0675358 0)
(-0.0259352 0.06143 0)
(-0.0225627 0.0565265 0)
(-0.0173453 0.0527528 0)
(-0.0103287 0.0501189 0)
(-0.00111082 0.0484518 0)
(0.0102977 0.0480409 0)
(0.0250946 0.0486676 0)
(0.0420842 0.0506452 0)
(0.0647458 0.0513088 0)
(0.0817468 0.0489476 0)
(0.106376 0.0337891 0)
(0.097559 -0.004301 0)
(0.105626 -0.0678335 0)
(0.0412349 -0.276324 0)
(0.0586542 -0.49209 0)
(-0.0775995 0.0960358 0)
(-0.0632616 0.058861 0)
(-0.0654786 0.0599203 0)
(-0.0432812 0.0532708 0)
(-0.0257634 0.0463189 0)
(-0.00539743 0.0411615 0)
(0.0138239 0.0374038 0)
(0.03339 0.0342062 0)
(0.0515291 0.0318932 0)
(0.0712007 0.029769 0)
(0.0883753 0.0285926 0)
(0.110265 0.0276151 0)
(0.125904 0.0271628 0)
(0.155366 0.0266235 0)
(0.165746 0.0217848 0)
(0.203664 0.0132061 0)
(0.194106 -0.0205558 0)
(0.225478 -0.0753691 0)
(0.155336 -0.252633 0)
(0.125516 -0.434348 0)
(0.11944 0.1408 0)
(0.152121 0.0861396 0)
(0.228598 0.0635487 0)
(0.28405 0.0480807 0)
(0.325437 0.03743 0)
(0.363715 0.0296468 0)
(0.392378 0.0242141 0)
(0.4236 0.0201799 0)
(0.443457 0.0172359 0)
(0.472045 0.0149883 0)
(0.484778 0.0132555 0)
(0.514268 0.011984 0)
(0.519657 0.0108955 0)
(0.552395 0.00980316 0)
(0.547583 0.0078833 0)
(0.580525 0.00351484 0)
(0.549766 -0.00582607 0)
(0.555416 -0.0273327 0)
(0.421149 -0.0734463 0)
(0.275472 -0.152244 0)
)
;

boundaryField
{
    movingWall
    {
        type            fixedValue;
        value           uniform (1 0 0);
    }
    fixedWalls
    {
        type            noSlip;
    }
    frontAndBack
    {
        type            empty;
    }
}


// ************************************************************************* //
