/*--------------------------------*- C++ -*----------------------------------*\
  =========                 |
  \\      /  F ield         | OpenFOAM: The Open Source CFD Toolbox
   \\    /   O peration     | Website:  https://openfoam.org
    \\  /    A nd           | Version:  10
     \\/     M anipulation  |
\*---------------------------------------------------------------------------*/
FoamFile
{
    format      ascii;
    class       volVectorField;
    location    "5.15";
    object      U;
}
// * * * * * * * * * * * * * * * * * * * * * * * * * * * * * * * * * * * * * //

dimensions      [0 1 -1 0 0 0 0];

internalField   nonuniform List<vector> 
8000
(
(-4.66119e-05 6.12897e-05 -2.04305e-05)
(-0.000409239 0.000157576 1.59906e-05)
(-0.00101947 0.000185117 2.89402e-05)
(-0.00162146 0.000191986 3.4766e-05)
(-0.00223359 0.000194106 3.44803e-05)
(-0.00283182 0.000194987 3.0449e-05)
(-0.0034037 0.000193828 2.38406e-05)
(-0.00393528 0.000188802 1.47572e-05)
(-0.00440926 0.000177662 2.46832e-06)
(-0.00480432 0.000158669 -1.26829e-05)
(-0.00509449 0.000130176 -3.05164e-05)
(-0.00525063 9.13777e-05 -5.07633e-05)
(-0.00524206 4.13285e-05 -7.34139e-05)
(-0.00503951 -2.07745e-05 -9.77027e-05)
(-0.00462083 -9.14412e-05 -0.000122217)
(-0.00397667 -0.000165245 -0.00014413)
(-0.0031198 -0.000233249 -0.000158469)
(-0.00211552 -0.000280118 -0.000157884)
(-0.000973094 -0.000275452 -0.000137074)
(-0.000178245 -0.00013606 -5.79589e-05)
(-0.000138776 0.000476411 -7.82038e-05)
(-0.00080333 0.000883019 -4.89e-05)
(-0.0018218 0.000993741 -3.53861e-05)
(-0.00282176 0.00100834 -2.56369e-05)
(-0.00382478 0.00099246 -2.10176e-05)
(-0.00479171 0.000961468 -1.95274e-05)
(-0.00570007 0.000914662 -2.01353e-05)
(-0.00652712 0.000847332 -2.28845e-05)
(-0.00724589 0.00075359 -2.82073e-05)
(-0.00782474 0.000628018 -3.6472e-05)
(-0.00822684 0.000465604 -4.79666e-05)
(-0.00841271 0.000262209 -6.2879e-05)
(-0.00834313 1.69336e-05 -8.18539e-05)
(-0.00797824 -0.000264862 -0.000102533)
(-0.00728772 -0.000571292 -0.000124029)
(-0.00626175 -0.000881079 -0.000143313)
(-0.00492248 -0.00115966 -0.000154287)
(-0.00336341 -0.00134694 -0.000148608)
(-0.00160324 -0.00132479 -0.000120925)
(-0.000329545 -0.000771809 -2.38969e-05)
(-0.000166726 0.00117888 -0.000106331)
(-0.000935564 0.0020173 -8.03319e-05)
(-0.00209769 0.00223648 -6.65352e-05)
(-0.0032322 0.0022505 -5.4652e-05)
(-0.00436652 0.00219431 -4.74957e-05)
(-0.00545783 0.00209977 -4.31652e-05)
(-0.00648216 0.00196765 -4.07335e-05)
(-0.00741543 0.00179095 -4.03652e-05)
(-0.00822893 0.00156051 -4.26118e-05)
(-0.0088889 0.00126664 -4.80987e-05)
(-0.00935673 0.00090052 -5.73901e-05)
(-0.00958857 0.000455521 -7.09692e-05)
(-0.00953543 -6.85781e-05 -8.90038e-05)
(-0.00914979 -0.000663124 -0.000110354)
(-0.00839395 -0.00130373 -0.000133517)
(-0.00724778 -0.00194829 -0.000155024)
(-0.00572735 -0.00252741 -0.000167577)
(-0.00393488 -0.00291897 -0.000161131)
(-0.00188712 -0.00288314 -0.000129605)
(-0.000391182 -0.00177172 -1.82196e-05)
(-0.000171809 0.00190732 -0.000127421)
(-0.000980688 0.00319935 -0.000104693)
(-0.0022065 0.00352742 -9.10684e-05)
(-0.00340083 0.00353876 -7.79629e-05)
(-0.00459812 0.00344205 -6.92752e-05)
(-0.0057551 0.00328608 -6.31951e-05)
(-0.00684934 0.00307285 -5.89017e-05)
(-0.00785812 0.00279278 -5.67658e-05)
(-0.00875354 0.00243265 -5.75132e-05)
(-0.00950144 0.00197783 -6.19242e-05)
(-0.0100605 0.00141419 -7.08033e-05)
(-0.0103818 0.000731603 -8.50173e-05)
(-0.010411 -7.27013e-05 -0.00010591)
(-0.0100849 -0.000989629 -0.000130541)
(-0.00934459 -0.00198784 -0.000158436)
(-0.00815069 -0.00300482 -0.000185249)
(-0.00650146 -0.00393346 -0.000202106)
(-0.00450423 -0.0045785 -0.00019656)
(-0.00217305 -0.00455534 -0.000160823)
(-0.000451233 -0.00284104 -2.94578e-05)
(-0.000171376 0.00268703 -0.000145014)
(-0.00100807 0.00446758 -0.000124934)
(-0.0022859 0.00491255 -0.000111576)
(-0.00353153 0.00492346 -9.78332e-05)
(-0.00478656 0.00478858 -8.84792e-05)
(-0.00600823 0.00457518 -8.17759e-05)
(-0.00717725 0.00428694 -7.69935e-05)
(-0.00827384 0.00391161 -7.46475e-05)
(-0.0092723 0.00343143 -7.56673e-05)
(-0.0101394 0.00282555 -8.11448e-05)
(-0.010832 0.00207223 -9.21972e-05)
(-0.0112952 0.00115254 -0.000109995)
(-0.0114613 5.61342e-05 -0.00013548)
(-0.0112502 -0.00120868 -0.0001684)
(-0.0105757 -0.00261096 -0.000206175)
(-0.00936212 -0.00406967 -0.000243949)
(-0.00757364 -0.00543484 -0.000270148)
(-0.0053135 -0.00641912 -0.000267877)
(-0.00259185 -0.00645245 -0.00022613)
(-0.000544134 -0.00406325 -6.29929e-05)
(-0.000170323 0.00350853 -0.000163048)
(-0.00103773 0.00581351 -0.000145418)
(-0.00237468 0.00638563 -0.000132434)
(-0.00367931 0.00640086 -0.000118361)
(-0.00500104 0.0062339 -0.000108799)
(-0.00629824 0.00597254 -0.000102097)
(-0.00755613 0.00562289 -9.76441e-05)
(-0.00875955 0.00517027 -9.61227e-05)
(-0.00988705 0.00459185 -9.86852e-05)
(-0.0109082 0.00385897 -0.000106777)
(-0.0117798 0.00293921 -0.000122025)
(-0.0124418 0.00180027 -0.000146137)
(-0.0128127 0.000417184 -0.000180472)
(-0.0127897 -0.00121656 -0.000227564)
(-0.0122469 -0.00307643 -0.000282494)
(-0.011054 -0.00506983 -0.00033993)
(-0.00911591 -0.00699913 -0.000384277)
(-0.00651084 -0.00845959 -0.000390943)
(-0.00323671 -0.00863115 -0.000341575)
(-0.000698121 -0.00549108 -0.000129237)
(-0.00016929 0.00437777 -0.00018428)
(-0.00107341 0.00724846 -0.000169552)
(-0.00247998 0.00795958 -0.000157068)
(-0.0038526 0.00798439 -0.000142672)
(-0.0052499 0.0077925 -0.00013292)
(-0.00663194 0.0074951 -0.000126323)
(-0.00799008 0.00710201 -0.000122459)
(-0.00931598 0.00659686 -0.000122261)
(-0.0105953 0.00595181 -0.000127209)
(-0.0118042 0.0051293 -0.000139242)
(-0.012903 0.00408293 -0.000160744)
(-0.0138294 0.00276084 -0.000194369)
(-0.0144903 0.0011136 -0.000242498)
(-0.0147577 -0.000893099 -0.00031223)
(-0.0144545 -0.00325821 -0.000396151)
(-0.0133702 -0.00589666 -0.000488695)
(-0.0113114 -0.0085661 -0.000568493)
(-0.00828289 -0.0107166 -0.000598202)
(-0.00424803 -0.0111753 -0.000542138)
(-0.000963923 -0.00722313 -0.000256093)
(-0.000168124 0.00530522 -0.000210497)
(-0.0011155 0.00879032 -0.000199641)
(-0.0026021 0.00965264 -0.000187721)
(-0.00404931 0.00969066 -0.000172696)
(-0.00552695 0.00947971 -0.000162362)
(-0.00699736 0.00915828 -0.000155509)
(-0.00845988 0.00874212 -0.000152029)
(-0.00991568 0.00821486 -0.000153216)
(-0.0113614 0.00754488 -0.000161036)
(-0.0127847 0.006686 -0.000178175)
(-0.0141569 0.00557612 -0.000208211)
(-0.0154206 0.00413781 -0.000255488)
(-0.0164774 0.00228392 -0.000325574)
(-0.0171762 -6.73325e-05 -0.000428259)
(-0.0172832 -0.00295565 -0.000560776)
(-0.01648 -0.00635042 -0.00071567)
(-0.0144151 -0.00998586 -0.000864872)
(-0.0109266 -0.0131485 -0.000950985)
(-0.00589291 -0.014162 -0.000900208)
(-0.00145355 -0.00941642 -0.000510399)
(-0.00016726 0.00630426 -0.000243493)
(-0.00116575 0.0104605 -0.000238011)
(-0.00274276 0.0114843 -0.000226585)
(-0.00426791 0.0115347 -0.000210206)
(-0.00582489 0.0113064 -0.000198361)
(-0.00737893 0.0109703 -0.000190314)
(-0.0089393 0.0105513 -0.000186425)
(-0.0105196 0.0100361 -0.000188501)
(-0.0121317 0.00939239 -0.00019918)
(-0.0137819 0.00856814 -0.000222236)
(-0.0154617 0.00748696 -0.000263072)
(-0.0171341 0.00604366 -0.000329169)
(-0.0187105 0.00410325 -0.000430544)
(-0.0200188 0.001513 -0.00057745)
(-0.0207868 -0.00186153 -0.000792673)
(-0.0205734 -0.00607469 -0.00105754)
(-0.0187862 -0.010925 -0.0013417)
(-0.0149332 -0.0155541 -0.00156021)
(-0.00871044 -0.0176034 -0.00156707)
(-0.00242416 -0.0123155 -0.00105684)
(-0.000168597 0.00739403 -0.000285733)
(-0.00123009 0.0122864 -0.000287749)
(-0.00290945 0.0134768 -0.000276474)
(-0.00451258 0.01353 -0.00025735)
(-0.00614101 0.0132776 -0.000242258)
(-0.00776349 0.0129294 -0.000231212)
(-0.00940109 0.0125234 -0.000225258)
(-0.0110824 0.0120539 -0.000226871)
(-0.0128387 0.0114936 -0.000239568)
(-0.0147014 0.0107913 -0.00026857)
(-0.016695 0.0098637 -0.000321874)
(-0.0188213 0.00858357 -0.000411577)
(-0.0210301 0.00676757 -0.000554336)
(-0.0231747 0.00417045 -0.000770723)
(-0.02495 0.000504313 -0.00110114)
(-0.0258116 -0.00445231 -0.0015557)
(-0.0248951 -0.0106983 -0.00209625)
(-0.0211155 -0.0173555 -0.00261306)
(-0.0137833 -0.0212824 -0.00285297)
(-0.00444689 -0.0163135 -0.00233737)
(-0.00017695 0.00860485 -0.000341164)
(-0.00132232 0.0143067 -0.000353515)
(-0.00312037 0.0156575 -0.000341509)
(-0.00479843 0.0156893 -0.000317131)
(-0.0064825 0.0153918 -0.000295763)
(-0.00814585 0.0150211 -0.000278574)
(-0.00982288 0.0146332 -0.000267577)
(-0.0115585 0.0142351 -0.000266049)
(-0.0134051 0.0138122 -0.000278534)
(-0.0154248 0.0133262 -0.000311979)
(-0.0176858 0.0127029 -0.000377605)
(-0.0202516 0.0118118 -0.000493689)
(-0.0231543 0.0104369 -0.000688817)
(-0.0263354 0.00824251 -0.00100386)
(-0.0295439 0.00476183 -0.00148669)
(-0.0322252 -0.000551597 -0.00223029)
(-0.0332693 -0.00805383 -0.003217)
(-0.0307412 -0.0171778 -0.00433598)
(-0.0231501 -0.0242965 -0.00526071)
(-0.00875151 -0.0220376 -0.00532341)
(-0.000203037 0.0099888 -0.000416651)
(-0.00147053 0.0165796 -0.000442839)
(-0.00341175 0.0180639 -0.000428222)
(-0.00515857 0.0180253 -0.000394099)
(-0.00687318 0.0176391 -0.000361254)
(-0.0085358 0.0172156 -0.000332695)
(-0.0101955 0.0168322 -0.000311763)
(-0.0119124 0.016513 -0.00030253)
(-0.0137581 0.0162652 -0.000310555)
(-0.0158235 0.0160789 -0.000344564)
(-0.018226 0.0159156 -0.000419361)
(-0.0211109 0.0156814 -0.000560468)
(-0.0246384 0.0151839 -0.000810791)
(-0.0289335 0.0140598 -0.00123559)
(-0.0339815 0.0116904 -0.00191731)
(-0.0394158 0.00712032 -0.00295168)
(-0.0441111 -0.000807401 -0.00452272)
(-0.0451961 -0.012439 -0.00654332)
(-0.0397107 -0.0248484 -0.00877676)
(-0.0174037 -0.030838 -0.0106051)
(-0.000270255 0.0116354 -0.000524719)
(-0.00172969 0.0191875 -0.000567248)
(-0.00384981 0.0207351 -0.000545288)
(-0.00565427 0.0205401 -0.000493227)
(-0.00736187 0.0199949 -0.000440644)
(-0.00896584 0.0194651 -0.000392928)
(-0.010532 0.019046 -0.000354777)
(-0.0121317 0.0187815 -0.00033073)
(-0.0138458 0.0187084 -0.000327189)
(-0.0157818 0.0188614 -0.000353901)
(-0.0180926 0.0192674 -0.000427816)
(-0.0209975 0.0199237 -0.000578789)
(-0.0248071 0.0207518 -0.000857378)
(-0.0299287 0.0214886 -0.00133782)
(-0.0368465 0.0215222 -0.00210433)
(-0.0459584 0.0195228 -0.00323807)
(-0.0564994 0.0130975 -0.00486377)
(-0.0644852 -0.00131283 -0.00681463)
(-0.0646243 -0.0243319 -0.0088101)
(-0.0311815 -0.0498269 -0.0136218)
(-0.00043395 0.0137278 -0.000695488)
(-0.00221704 0.0223482 -0.00076482)
(-0.00455391 0.0238715 -0.000732134)
(-0.00638121 0.023403 -0.000647201)
(-0.00802085 0.0225621 -0.000554379)
(-0.0094934 0.0217934 -0.000467134)
(-0.0108787 0.0212245 -0.000394684)
(-0.012247 0.020923 -0.000343224)
(-0.0136729 0.0209568 -0.000317957)
(-0.0152567 0.0214149 -0.000327602)
(-0.0171527 0.0224202 -0.000387842)
(-0.0196113 0.0241209 -0.000524835)
(-0.0230599 0.0266717 -0.000774554)
(-0.0281925 0.0300699 -0.00115031)
(-0.0361805 0.0338759 -0.00154317)
(-0.0486342 0.0360831 -0.00158575)
(-0.066647 0.0319414 -0.000743687)
(-0.0856749 0.00989102 0.00210368)
(-0.0955108 -0.0363601 0.0057417)
(-0.0461828 -0.0970069 -0.0051463)
(-0.000748419 0.0166886 -0.000957791)
(-0.00300212 0.0258565 -0.00100184)
(-0.00562188 0.026908 -0.000926269)
(-0.00748128 0.0258167 -0.000774495)
(-0.00903257 0.024572 -0.000628332)
(-0.0102941 0.0235811 -0.000496661)
(-0.0113797 0.0229029 -0.000386633)
(-0.0123677 0.0225645 -0.000302175)
(-0.0133109 0.0226365 -0.000246977)
(-0.0142606 0.0232497 -0.000226874)
(-0.0153068 0.0246373 -0.000247704)
(-0.0166243 0.027125 -0.000311054)
(-0.0186404 0.0311811 -0.000385962)
(-0.0222442 0.0370791 -0.000267927)
(-0.0295944 0.0446657 0.000730646)
(-0.0442564 0.0504171 0.00418324)
(-0.0724971 0.0459856 0.0118913)
(-0.107526 0.00527912 0.0236409)
(-0.126889 -0.087072 0.0301253)
(-0.0532679 -0.18809 0.00236852)
(-0.00206301 0.0198505 -0.0015006)
(-0.00552427 0.0315239 -0.00165509)
(-0.00785252 0.0322091 -0.00148871)
(-0.00930551 0.0306324 -0.00121447)
(-0.0103196 0.0285652 -0.000914382)
(-0.0111235 0.0267553 -0.000641998)
(-0.0118058 0.0253547 -0.000415051)
(-0.0123704 0.0244288 -0.000240178)
(-0.012784 0.0240602 -0.000117692)
(-0.0129853 0.0243733 -4.63659e-05)
(-0.0129291 0.0256582 -2.20841e-05)
(-0.0125923 0.0283245 -2.50771e-06)
(-0.0123117 0.0331838 0.000163524)
(-0.0128195 0.0405598 0.00101627)
(-0.0175301 0.0512548 0.0040143)
(-0.0316265 0.058573 0.012285)
(-0.0694762 0.0495694 0.027697)
(-0.116745 -0.0289393 0.0429816)
(-0.142065 -0.180674 0.0357304)
(-0.0509534 -0.292957 -0.0141108)
(-0.00136165 0.0314291 -0.00254147)
(-0.00542818 0.0354368 -0.00225342)
(-0.00982308 0.0338812 -0.00189776)
(-0.0115054 0.030157 -0.00129486)
(-0.0127037 0.0274995 -0.000807095)
(-0.0130575 0.0255752 -0.000386296)
(-0.0129955 0.0242276 -5.20678e-05)
(-0.0126358 0.0233154 0.000192817)
(-0.0120002 0.0228636 0.000348644)
(-0.0109592 0.0229121 0.000430454)
(-0.00935136 0.0238074 0.000455191)
(-0.00677466 0.025784 0.000499888)
(-0.00348637 0.0299579 0.000794807)
(0.00110733 0.0363973 0.00220172)
(0.00202475 0.04695 0.00637833)
(-0.00216499 0.0531331 0.0173719)
(-0.0383107 0.035278 0.035406)
(-0.0829363 -0.0762875 0.0443814)
(-0.126185 -0.251605 0.0198827)
(-0.0455509 -0.366877 -0.0406876)
(-0.012324 0.0293719 -0.00342683)
(-0.0213938 0.0510824 -0.00399753)
(-0.0163396 0.0468806 -0.0034998)
(-0.0159982 0.0420345 -0.00255663)
(-0.0134698 0.0363604 -0.00146688)
(-0.0108581 0.0317008 -0.000550244)
(-0.00822201 0.0280471 0.000157392)
(-0.00559721 0.0252564 0.000638195)
(-0.00296862 0.023252 0.000931427)
(3.15563e-05 0.0218493 0.00105665)
(0.00339653 0.0212403 0.00103279)
(0.0081308 0.0213989 0.000921963)
(0.0136344 0.0232606 0.000972768)
(0.0225455 0.0266747 0.00170322)
(0.028996 0.033817 0.00511794)
(0.0413528 0.0387395 0.0140051)
(0.0242247 0.0233486 0.0278587)
(0.0114522 -0.0873164 0.03367)
(-0.0723226 -0.262037 0.00683322)
(-0.0238749 -0.401726 -0.0572548)
(-0.0463692 0.0888028 -0.0120847)
(-0.0299695 0.0418408 -0.0079878)
(-0.0209421 0.0355824 -0.00547351)
(-0.00296273 0.0285554 -0.00307921)
(0.0119354 0.022303 -0.00138981)
(0.0262962 0.0182116 -0.000108524)
(0.038473 0.0156379 0.000846554)
(0.0492354 0.0137311 0.00148424)
(0.058125 0.0124972 0.00191551)
(0.0666263 0.0114425 0.00209132)
(0.0734252 0.0110873 0.00207266)
(0.0819731 0.0106858 0.00175377)
(0.0880769 0.0112599 0.00133958)
(0.101733 0.0112092 0.000818577)
(0.106803 0.0110502 0.00140765)
(0.135988 0.0051856 0.00512497)
(0.121147 -0.0133694 0.00989308)
(0.156307 -0.0899751 0.0182305)
(0.030929 -0.237769 0.000382211)
(0.0303295 -0.371815 -0.0675396)
(0.117639 0.111885 -0.0112319)
(0.1442 0.0595845 -0.0117311)
(0.216439 0.0393709 -0.0113134)
(0.260854 0.0262472 -0.00993317)
(0.293395 0.0174744 -0.00829343)
(0.320247 0.011624 -0.00689683)
(0.340698 0.00796742 -0.00554541)
(0.359078 0.00559048 -0.00443464)
(0.371572 0.00415758 -0.00341551)
(0.386166 0.00317335 -0.00249285)
(0.39247 0.00270237 -0.00193874)
(0.407544 0.00236653 -0.00113294)
(0.406844 0.00241701 -0.00108064)
(0.427662 0.00218075 -0.000537773)
(0.415288 0.00179438 -0.00048102)
(0.445758 -0.00117782 0.000174715)
(0.403773 -0.00935966 0.0010688)
(0.424092 -0.032083 0.000531263)
(0.255527 -0.0750322 -0.0083184)
(0.165256 -0.139877 -0.0772313)
(-9.58082e-05 0.000106341 -5.87809e-05)
(-0.00073839 0.000303359 -1.0747e-05)
(-0.00179132 0.000360403 1.10384e-05)
(-0.00281296 0.000367719 2.26225e-05)
(-0.00382842 0.000361499 2.35587e-05)
(-0.00480083 0.000350413 1.73007e-05)
(-0.00571042 0.000333907 5.54805e-06)
(-0.00653609 0.00030957 -1.15899e-05)
(-0.00725084 0.000275033 -3.47962e-05)
(-0.0078226 0.000227456 -6.421e-05)
(-0.00821527 0.000164483 -9.99192e-05)
(-0.00838985 8.50034e-05 -0.000141662)
(-0.008306 -1.21174e-05 -0.000188843)
(-0.00792613 -0.000125062 -0.000239246)
(-0.00722298 -0.000248722 -0.000289582)
(-0.0061861 -0.00037442 -0.000334047)
(-0.00483502 -0.000486737 -0.000363208)
(-0.00326113 -0.000556591 -0.000364169)
(-0.00148285 -0.000520315 -0.000327162)
(-0.000264298 -0.000227482 -0.000177749)
(-0.000304428 0.000796372 -0.000163425)
(-0.00158569 0.00160553 -0.000130688)
(-0.00347862 0.00182734 -0.000106851)
(-0.00531377 0.0018358 -8.67758e-05)
(-0.00711368 0.00177335 -7.64528e-05)
(-0.00881247 0.0016757 -7.30416e-05)
(-0.0103702 0.00154474 -7.5003e-05)
(-0.011748 0.00137484 -8.2546e-05)
(-0.0129019 0.00115934 -9.64766e-05)
(-0.0137832 0.000891047 -0.000117644)
(-0.0143385 0.000563986 -0.000146676)
(-0.0145138 0.000174142 -0.000183712)
(-0.014255 -0.000276484 -0.000229623)
(-0.013512 -0.000776519 -0.000279541)
(-0.0122521 -0.00130522 -0.000330411)
(-0.0104683 -0.00182733 -0.000375295)
(-0.00819968 -0.00228303 -0.000402171)
(-0.00558447 -0.00255937 -0.000395783)
(-0.00266172 -0.0024157 -0.000345074)
(-0.000553005 -0.00127752 -0.000156201)
(-0.000378889 0.00195741 -0.000217829)
(-0.00190483 0.00360525 -0.000194732)
(-0.00412077 0.00403849 -0.000170454)
(-0.00625761 0.00402993 -0.000145974)
(-0.00834471 0.00386601 -0.000130493)
(-0.0103079 0.00361903 -0.000121496)
(-0.0121027 0.00329634 -0.000117689)
(-0.0136867 0.00289036 -0.00011963)
(-0.0150121 0.00239039 -0.000128506)
(-0.0160264 0.00178539 -0.000145644)
(-0.0166731 0.00106614 -0.000172205)
(-0.0168907 0.000227506 -0.000209025)
(-0.016614 -0.000725493 -0.000255767)
(-0.0157833 -0.00177265 -0.000309825)
(-0.0143556 -0.00287217 -0.000367046)
(-0.012312 -0.00395297 -0.000419307)
(-0.00968575 -0.00489519 -0.000451977)
(-0.00662942 -0.0054712 -0.000446339)
(-0.00318208 -0.00519948 -0.00038917)
(-0.000669548 -0.0029276 -0.000170983)
(-0.000402963 0.00315732 -0.000261932)
(-0.00203581 0.00568376 -0.000248549)
(-0.00440531 0.00632946 -0.000224772)
(-0.00668494 0.00629828 -0.000197582)
(-0.00891435 0.00602997 -0.000178762)
(-0.0110176 0.00563404 -0.000166114)
(-0.0129517 0.00512272 -0.000158639)
(-0.0146752 0.004486 -0.000157312)
(-0.0161409 0.00370852 -0.000163775)
(-0.017295 0.00277353 -0.000179847)
(-0.0180767 0.0016661 -0.000207249)
(-0.0184182 0.00037811 -0.000247541)
(-0.0182424 -0.00108663 -0.000302838)
(-0.0174678 -0.00270544 -0.000367623)
(-0.0160237 -0.00441994 -0.000438877)
(-0.0138629 -0.00612419 -0.000506583)
(-0.0109947 -0.00763175 -0.000552621)
(-0.00757892 -0.00857995 -0.00055297)
(-0.00365395 -0.0082047 -0.00048957)
(-0.000768319 -0.00469477 -0.000227979)
(-0.000416713 0.00443427 -0.000301664)
(-0.00213231 0.00790159 -0.00029744)
(-0.00463122 0.00877289 -0.000274418)
(-0.00703532 0.00872048 -0.000245519)
(-0.00939494 0.00834849 -0.000224855)
(-0.0116343 0.00780618 -0.000210528)
(-0.0137145 0.00711115 -0.000201845)
(-0.0155977 0.00625076 -0.000200208)
(-0.0172393 0.00520397 -0.000207806)
(-0.0185859 0.00394602 -0.000227206)
(-0.0195727 0.00245218 -0.000261011)
(-0.0201209 0.00070375 -0.000311789)
(-0.0201366 -0.00130276 -0.000381281)
(-0.0195097 -0.00354813 -0.000467854)
(-0.0181268 -0.005965 -0.000565844)
(-0.0158903 -0.00841412 -0.000663397)
(-0.0127604 -0.0106307 -0.000736427)
(-0.00889146 -0.0120799 -0.000751061)
(-0.00432358 -0.0116416 -0.00067965)
(-0.000914465 -0.00672322 -0.000346179)
(-0.000432533 0.00578096 -0.00034396)
(-0.00224264 0.0102559 -0.000349287)
(-0.00489067 0.0113696 -0.000327229)
(-0.00743968 0.0113004 -0.00029705)
(-0.00995177 0.01083 -0.000275243)
(-0.0123523 0.0101508 -0.000260265)
(-0.0146085 0.00928658 -0.000251816)
(-0.0166888 0.00822205 -0.000251821)
(-0.0185538 0.00692926 -0.000263159)
(-0.0201533 0.00537261 -0.000289365)
(-0.0214207 0.00351239 -0.000334366)
(-0.0222674 0.00131136 -0.000402288)
(-0.0225797 -0.00125424 -0.000496387)
(-0.0222089 -0.0041839 -0.000618907)
(-0.0209805 -0.00741367 -0.00076192)
(-0.018718 -0.0107779 -0.000911645)
(-0.0152942 -0.0139204 -0.00103513)
(-0.0108258 -0.0160828 -0.00108139)
(-0.00534902 -0.0156671 -0.00100224)
(-0.00115414 -0.00912839 -0.000554815)
(-0.000452984 0.00721204 -0.000394195)
(-0.00237844 0.0127724 -0.000410832)
(-0.00520559 0.0141478 -0.000389896)
(-0.00792652 0.0140663 -0.00035819)
(-0.0106172 0.0135033 -0.000334994)
(-0.0132053 0.0126991 -0.000319275)
(-0.0156666 0.0116854 -0.000311305)
(-0.0179791 0.0104448 -0.000313738)
(-0.0201134 0.0089416 -0.000330412)
(-0.0220273 0.0071267 -0.000366242)
(-0.0236578 0.00493933 -0.000427155)
(-0.0249104 0.00231315 -0.000519886)
(-0.0256543 -0.000812328 -0.000651009)
(-0.0256966 -0.00447309 -0.000829417)
(-0.0247811 -0.00864027 -0.00104614)
(-0.0226143 -0.0131429 -0.00128611)
(-0.018919 -0.0175287 -0.00150394)
(-0.0136995 -0.02075 -0.00162029)
(-0.00696408 -0.0205329 -0.00154152)
(-0.00156817 -0.0121299 -0.000918999)
(-0.000478583 0.0087479 -0.000456472)
(-0.00254302 0.0154858 -0.000487383)
(-0.00558157 0.0171428 -0.000467501)
(-0.00849988 0.0170501 -0.000433246)
(-0.0113912 0.0163978 -0.000407404)
(-0.0141863 0.0154803 -0.00038972)
(-0.0168729 0.0143399 -0.000381293)
(-0.0194432 0.0129587 -0.000385782)
(-0.0218835 0.0112945 -0.000408355)
(-0.0241682 0.00928319 -0.000455913)
(-0.0262479 0.00683788 -0.000537429)
(-0.0280339 0.00385111 -0.000663927)
(-0.0293831 0.000203902 -0.000847924)
(-0.0300651 -0.00420282 -0.00110966)
(-0.0297306 -0.00942539 -0.00144515)
(-0.0279181 -0.0153377 -0.00183976)
(-0.0241111 -0.0214141 -0.00223424)
(-0.0180499 -0.0262499 -0.00250487)
(-0.00964776 -0.0265953 -0.00246115)
(-0.00234655 -0.016131 -0.00158086)
(-0.00051063 0.0104118 -0.000535252)
(-0.00274116 0.0184344 -0.000584679)
(-0.00602501 0.0203899 -0.00056536)
(-0.00916275 0.0202805 -0.000526476)
(-0.0122692 0.0195359 -0.000495404)
(-0.0152798 0.0185129 -0.000473056)
(-0.0181977 0.0172689 -0.000461707)
(-0.0210347 0.0157895 -0.000466335)
(-0.0238008 0.0140285 -0.000493866)
(-0.0264977 0.0119088 -0.000553921)
(-0.0291057 0.00931566 -0.000659881)
(-0.0315629 0.00609177 -0.000829525)
(-0.0337315 0.00203921 -0.0010861)
(-0.0353679 -0.0030561 -0.00146216)
(-0.0360412 -0.00939724 -0.00198769)
(-0.03508 -0.0169998 -0.00264369)
(-0.0316168 -0.0253557 -0.00336668)
(-0.0248692 -0.0326733 -0.00397214)
(-0.0144833 -0.0343569 -0.00408682)
(-0.00397021 -0.0219803 -0.00287069)
(-0.000552621 0.0122338 -0.000636645)
(-0.00298363 0.0216631 -0.000710331)
(-0.00655048 0.0239265 -0.000690307)
(-0.00992583 0.0237818 -0.000643097)
(-0.0132525 0.0229304 -0.000602254)
(-0.0164721 0.0218014 -0.000570419)
(-0.0196076 0.020473 -0.000551488)
(-0.0226959 0.01894 -0.000552079)
(-0.0257785 0.0171594 -0.000581276)
(-0.028898 0.0150476 -0.000652193)
(-0.0320851 0.0124679 -0.000784343)
(-0.0353352 0.00921297 -0.00100659)
(-0.0385655 0.00498887 -0.00135956)
(-0.0415694 -0.000591183 -0.0018934)
(-0.0438863 -0.00794335 -0.00268586)
(-0.0446648 -0.017414 -0.0037691)
(-0.0426067 -0.0287111 -0.00508636)
(-0.0360509 -0.0397685 -0.00639523)
(-0.0239604 -0.0444596 -0.007044)
(-0.00768386 -0.0316333 -0.00560185)
(-0.000612193 0.0142568 -0.000770031)
(-0.00329226 0.0252296 -0.000875474)
(-0.00718756 0.0277938 -0.000852079)
(-0.0108147 0.0275742 -0.000790273)
(-0.0143548 0.0265824 -0.000732136)
(-0.0177583 0.0253312 -0.000682846)
(-0.021072 0.0239264 -0.000648472)
(-0.0243624 0.0223796 -0.000637512)
(-0.0277095 0.0206611 -0.000661379)
(-0.0312085 0.0186951 -0.000737004)
(-0.034964 0.01634 -0.000890946)
(-0.0390731 0.0133547 -0.00116539)
(-0.0435856 0.00935175 -0.00162459)
(-0.0484171 0.00375053 -0.00236082)
(-0.0532568 -0.00419744 -0.00351061)
(-0.0572777 -0.0152982 -0.00521581)
(-0.0587901 -0.0299266 -0.00749607)
(-0.0549093 -0.0462697 -0.0100827)
(-0.042919 -0.0574558 -0.012053)
(-0.0161948 -0.0494644 -0.0112645)
(-0.000704863 0.0165487 -0.000950764)
(-0.00370812 0.0292148 -0.00109745)
(-0.00799046 0.0320438 -0.00106568)
(-0.0118788 0.0316761 -0.00097873)
(-0.0156111 0.0304801 -0.000890978)
(-0.0191507 0.0290651 -0.000811501)
(-0.0225726 0.027571 -0.000749303)
(-0.0259752 0.0260336 -0.000714724)
(-0.0294788 0.0244492 -0.000721224)
(-0.0332375 0.0227722 -0.000789153)
(-0.0374487 0.0208902 -0.000952046)
(-0.0423579 0.0185768 -0.00126664)
(-0.0482408 0.0154133 -0.00182697)
(-0.0553327 0.0106788 -0.00277431)
(-0.0637044 0.00325254 -0.00428587)
(-0.0730705 -0.00835911 -0.00660657)
(-0.081738 -0.0258244 -0.0099029)
(-0.0849381 -0.0492805 -0.0137407)
(-0.0758655 -0.0740716 -0.0171231)
(-0.0312066 -0.0854849 -0.0189703)
(-0.000861053 0.0192115 -0.00120454)
(-0.00430366 0.0337027 -0.00140078)
(-0.00905142 0.0366916 -0.00134922)
(-0.0132047 0.0360525 -0.00121924)
(-0.0170889 0.0345626 -0.00108363)
(-0.020689 0.0329246 -0.000955996)
(-0.0241144 0.0313054 -0.000848299)
(-0.0274938 0.0297702 -0.000772181)
(-0.03098 0.0283568 -0.00074242)
(-0.034776 0.0270759 -0.000780517)
(-0.0391682 0.0258915 -0.000922455)
(-0.0445675 0.0246712 -0.00123069)
(-0.0515559 0.023091 -0.0018098)
(-0.0609088 0.0204661 -0.00280853)
(-0.0735871 0.0155253 -0.00436602)
(-0.0903742 0.00588375 -0.00646078)
(-0.109303 -0.0128786 -0.00866474)
(-0.121462 -0.0479351 -0.00944669)
(-0.114497 -0.102022 -0.00920339)
(-0.0430676 -0.157068 -0.0180062)
(-0.00116015 0.0224709 -0.00158793)
(-0.00525748 0.0390595 -0.0018623)
(-0.0105464 0.042117 -0.00178211)
(-0.0149163 0.0410498 -0.00157881)
(-0.0188655 0.0390573 -0.00135326)
(-0.0224237 0.0369967 -0.00113492)
(-0.0257286 0.0350958 -0.000944759)
(-0.0289204 0.0334604 -0.000797385)
(-0.0321644 0.032175 -0.00070513)
(-0.0356872 0.0313282 -0.000685604)
(-0.0398289 0.0310203 -0.000767937)
(-0.0451283 0.0313271 -0.000997884)
(-0.0524537 0.0322234 -0.00142974)
(-0.0631243 0.033336 -0.00203332)
(-0.0790315 0.0333864 -0.00237389)
(-0.101762 0.0281259 -0.000984183)
(-0.128089 0.00682623 0.00500557)
(-0.143629 -0.0513522 0.0179718)
(-0.136798 -0.15142 0.0266149)
(-0.0381126 -0.257131 -0.00339211)
(-0.00158225 0.0267053 -0.00214437)
(-0.00643975 0.0444977 -0.00240943)
(-0.0125187 0.0469803 -0.00224505)
(-0.0172056 0.0450326 -0.00190886)
(-0.0212411 0.0425256 -0.00157035)
(-0.0246365 0.040199 -0.00124891)
(-0.0276193 0.0381806 -0.000963961)
(-0.0303696 0.0365333 -0.000727147)
(-0.033046 0.0353667 -0.000547504)
(-0.0358318 0.0348552 -0.000433642)
(-0.0390158 0.0352796 -0.000387117)
(-0.0431044 0.0370163 -0.000383036)
(-0.0490226 0.0405181 -0.000291216)
(-0.0582837 0.0457774 0.000474074)
(-0.0733023 0.0512426 0.0037997)
(-0.0957538 0.049224 0.0139531)
(-0.123773 0.0223599 0.0358691)
(-0.139056 -0.0617958 0.0635793)
(-0.137213 -0.205694 0.064181)
(-0.0238389 -0.348229 -0.00184859)
(-0.00364392 0.0308481 -0.0031598)
(-0.0106117 0.0536598 -0.0036645)
(-0.016265 0.0558394 -0.00335186)
(-0.0204747 0.0532256 -0.00280761)
(-0.0238504 0.0493892 -0.00218762)
(-0.0267632 0.0457895 -0.00159645)
(-0.0293182 0.0427022 -0.00107426)
(-0.031577 0.0402485 -0.000640166)
(-0.0335797 0.0385518 -0.000297752)
(-0.0353761 0.0378163 -4.09859e-05)
(-0.0370794 0.0384517 0.000161225)
(-0.0389224 0.0410672 0.000448925)
(-0.0415703 0.0466417 0.00126015)
(-0.0459822 0.0553184 0.00396254)
(-0.0545271 0.0653807 0.0120067)
(-0.0682374 0.0650119 0.0316229)
(-0.0921821 0.0355856 0.0654243)
(-0.105105 -0.0704247 0.092524)
(-0.115761 -0.252375 0.0647942)
(-0.0072092 -0.423174 -0.0225096)
(-0.001723 0.045638 -0.00504843)
(-0.00917664 0.0574402 -0.00499288)
(-0.0194362 0.056676 -0.00429621)
(-0.0242422 0.0515723 -0.00318901)
(-0.028345 0.0477364 -0.00224891)
(-0.0308474 0.0445876 -0.00137927)
(-0.0324757 0.041991 -0.000629643)
(-0.0334382 0.0398275 -1.27879e-05)
(-0.0338391 0.0382253 0.000468785)
(-0.0336341 0.0373463 0.000826136)
(-0.0327512 0.0377248 0.00111864)
(-0.0308965 0.039858 0.00158514)
(-0.0282364 0.0451922 0.00285147)
(-0.0240484 0.0534141 0.00676129)
(-0.0213998 0.0646811 0.0168264)
(-0.0164641 0.0653518 0.0391038)
(-0.0303407 0.0380674 0.0728299)
(-0.0326925 -0.0745977 0.0879235)
(-0.0655973 -0.275561 0.0423183)
(0.0198382 -0.471197 -0.0441668)
(-0.0121092 0.0370513 -0.00627484)
(-0.0252815 0.0800768 -0.00755466)
(-0.0249299 0.0771251 -0.00693963)
(-0.0309597 0.0708796 -0.00540484)
(-0.0323018 0.0628661 -0.00353254)
(-0.032067 0.0558532 -0.00185536)
(-0.0303966 0.0499531 -0.000474137)
(-0.0277803 0.0450916 0.000579649)
(-0.0244686 0.0412697 0.00134356)
(-0.0203166 0.0382843 0.00182392)
(-0.0156297 0.0365263 0.00206477)
(-0.00932089 0.0360489 0.00227751)
(-0.00241663 0.0383776 0.00298543)
(0.00919345 0.0430111 0.00551096)
(0.0200714 0.0523457 0.0127641)
(0.0435291 0.0557072 0.0290706)
(0.0461588 0.0404179 0.0498338)
(0.0789341 -0.0518868 0.0611431)
(0.022134 -0.26005 0.0220917)
(0.0695058 -0.471898 -0.0599424)
(-0.0757924 0.101061 -0.0183499)
(-0.0612994 0.0624604 -0.0133166)
(-0.0607684 0.0606548 -0.00960818)
(-0.039328 0.0524761 -0.00616851)
(-0.0209776 0.0443985 -0.00368393)
(-0.000975814 0.0384107 -0.00161641)
(0.0174829 0.0340459 7.83216e-05)
(0.0353187 0.0303171 0.00140779)
(0.0511115 0.0275928 0.00246213)
(0.0671677 0.0249268 0.00312629)
(0.0801924 0.0234484 0.00343747)
(0.0960935 0.0218366 0.00325115)
(0.106383 0.0218292 0.00298512)
(0.12774 0.0221009 0.0026644)
(0.134908 0.0217436 0.00354208)
(0.177176 0.0186265 0.0106539)
(0.172344 -0.00789509 0.0144757)
(0.231449 -0.0650084 0.0215573)
(0.159846 -0.238173 0.0072297)
(0.149413 -0.420584 -0.0728771)
(0.11936 0.139972 -0.0165641)
(0.151511 0.0856702 -0.0178523)
(0.229525 0.0633768 -0.017552)
(0.283887 0.0479985 -0.0159629)
(0.325258 0.0370779 -0.0139382)
(0.362782 0.02904 -0.0121)
(0.391584 0.0233518 -0.0103083)
(0.421771 0.01911 -0.00865765)
(0.44102 0.0160877 -0.00716634)
(0.468461 0.0136445 -0.0057072)
(0.479266 0.0118731 -0.00452337)
(0.507626 0.0106038 -0.0035465)
(0.509901 0.00934669 -0.002428)
(0.542584 0.00906235 -0.00236402)
(0.534295 0.00734266 -0.000642285)
(0.572407 0.00555024 -0.00154234)
(0.542632 -0.00343839 0.00203955)
(0.562336 -0.0240948 -0.00401151)
(0.433661 -0.0703428 -0.00755178)
(0.303733 -0.148561 -0.0840014)
(-0.000107233 0.000107969 -8.2609e-05)
(-0.00083432 0.000337605 -7.29086e-05)
(-0.00202505 0.000404291 -5.90823e-05)
(-0.00317347 0.000411623 -4.8488e-05)
(-0.00430759 0.000402225 -4.55951e-05)
(-0.00538649 0.00038672 -4.91692e-05)
(-0.00638888 0.000364776 -5.84917e-05)
(-0.00729182 0.00033383 -7.36576e-05)
(-0.00806664 0.000291132 -9.48438e-05)
(-0.00867962 0.000233969 -0.000122779)
(-0.00909247 0.000160073 -0.00015785)
(-0.00926396 6.84959e-05 -0.000199942)