/*--------------------------------*- C++ -*----------------------------------*\
  =========                 |
  \\      /  F ield         | OpenFOAM: The Open Source CFD Toolbox
   \\    /   O peration     | Website:  https://openfoam.org
    \\  /    A nd           | Version:  10
     \\/     M anipulation  |
\*---------------------------------------------------------------------------*/
FoamFile
{
    format      ascii;
    class       surfaceScalarField;
    location    "7.525";
    object      phi;
}
// * * * * * * * * * * * * * * * * * * * * * * * * * * * * * * * * * * * * * //

dimensions      [0 3 -1 0 0 0 0];

internalField   nonuniform List<scalar> 
22800
(
-2.76765e-06
3.43758e-06
-6.74587e-07
-8.74522e-06
6.25239e-06
-2.74815e-07
-1.58497e-05
7.16968e-06
-6.52489e-08
-2.34094e-05
7.50995e-06
4.97863e-08
-3.11575e-05
7.69893e-06
4.91846e-08
-3.89767e-05
7.85632e-06
-3.70847e-08
-4.67627e-05
7.96892e-06
-1.82985e-07
-5.43324e-05
7.98044e-06
-4.10698e-07
-6.14105e-05
7.81338e-06
-7.35354e-07
-6.76098e-05
7.3767e-06
-1.17739e-06
-7.24233e-05
6.57108e-06
-1.75757e-06
-7.52343e-05
5.3018e-06
-2.49077e-06
-7.53601e-05
3.50262e-06
-3.37688e-06
-7.2136e-05
1.16659e-06
-4.39069e-06
-6.50575e-05
-1.62225e-06
-5.45623e-06
-5.4006e-05
-4.6028e-06
-6.44863e-06
-3.95618e-05
-7.30831e-06
-7.13596e-06
-2.33074e-05
-9.00752e-06
-7.24682e-06
-8.01885e-06
-8.7303e-06
-6.55828e-06
-4.26119e-06
-3.75766e-06
-5.42139e-06
1.07363e-05
-1.87729e-06
-1.55276e-05
1.80653e-05
-1.70672e-06
-2.72924e-05
2.04807e-05
-1.54617e-06
-3.96958e-05
2.1311e-05
-1.39766e-06
-5.2291e-05
2.16429e-05
-1.34871e-06
-6.48431e-05
2.17875e-05
-1.37908e-06
-7.71298e-05
2.17385e-05
-1.48301e-06
-8.88475e-05
2.13738e-05
-1.67564e-06
-9.95694e-05
2.05172e-05
-1.98187e-06
-0.000108719
1.89583e-05
-2.43167e-06
-0.00011556
1.64675e-05
-3.05582e-06
-0.000119196
1.28161e-05
-3.8778e-06
-0.000118681
7.8879e-06
-4.90061e-06
-0.000113118
1.71934e-06
-6.11604e-06
-0.000101767
-5.57658e-06
-7.39697e-06
-8.44889e-05
-1.3308e-05
-8.57242e-06
-6.21428e-05
-2.02926e-05
-9.36187e-06
-3.70316e-05
-2.47075e-05
-9.41116e-06
-1.32828e-05
-2.4098e-05
-8.38113e-06
-1.31514e-05
-4.39264e-06
-6.32956e-06
1.96092e-05
-2.54341e-06
-1.79683e-05
3.22358e-05
-2.53179e-06
-3.14196e-05
3.63402e-05
-2.4082e-06
-4.55323e-05
3.7658e-05
-2.2343e-06
-5.98194e-05
3.8074e-05
-2.14401e-06
-7.40313e-05
3.81252e-05
-2.12584e-06
-8.79367e-05
3.78239e-05
-2.18001e-06
-0.000101223
3.69892e-05
-2.32891e-06
-0.000113447
3.53478e-05
-2.6065e-06
-0.000123999
3.25642e-05
-3.05436e-06
-0.000132081
2.82658e-05
-3.71651e-06
-0.000136721
2.20885e-05
-4.63187e-06
-0.000136776
1.37692e-05
-5.8259e-06
-0.000131062
3.28345e-06
-7.2787e-06
-0.000118601
-9.17273e-06
-8.86464e-06
-9.90254e-05
-2.25122e-05
-1.03715e-05
-7.31378e-05
-3.47587e-05
-1.14215e-05
-4.36042e-05
-4.27108e-05
-1.15303e-05
-1.54865e-05
-4.19815e-05
-1.02342e-05
-2.34345e-05
-5.20334e-06
-6.54335e-06
2.91949e-05
-3.04228e-06
-1.86951e-05
4.75658e-05
-3.17823e-06
-3.27297e-05
5.34674e-05
-3.09256e-06
-4.74643e-05
5.52991e-05
-2.90651e-06
-6.24282e-05
5.58314e-05
-2.79355e-06
-7.74085e-05
5.58549e-05
-2.74945e-06
-9.22176e-05
5.54141e-05
-2.78097e-06
-0.000106591
5.42813e-05
-2.91894e-06
-0.000120128
5.20936e-05
-3.20815e-06
-0.000132242
4.83838e-05
-3.70558e-06
-0.000142109
4.26082e-05
-4.47585e-06
-0.000148639
3.42006e-05
-5.58246e-06
-0.00015048
2.26854e-05
-7.07534e-06
-0.00014611
7.88422e-06
-8.97075e-06
-0.000134061
-1.00719e-05
-1.11496e-05
-0.000113355
-2.99265e-05
-1.32911e-05
-8.44952e-05
-4.87377e-05
-1.48813e-05
-5.04579e-05
-6.15552e-05
-1.51929e-05
-1.7574e-05
-6.13314e-05
-1.3534e-05
-3.41427e-05
-6.86578e-06
-6.47415e-06
3.90976e-05
-3.42855e-06
-1.87471e-05
6.35333e-05
-3.69461e-06
-3.29805e-05
7.13454e-05
-3.64454e-06
-4.79882e-05
7.37661e-05
-3.45924e-06
-6.33368e-05
7.45249e-05
-3.34483e-06
-7.88763e-05
7.47005e-05
-3.3062e-06
-9.44977e-05
7.4393e-05
-3.35742e-06
-0.000110025
7.33479e-05
-3.53954e-06
-0.000125146
7.1127e-05
-3.91178e-06
-0.000139345
6.71347e-05
-4.55238e-06
-0.000151806
6.06272e-05
-5.55773e-06
-0.000161335
5.07624e-05
-7.03297e-06
-0.000166295
3.67178e-05
-9.07265e-06
-0.000164622
1.79305e-05
-1.17189e-05
-0.000154153
-5.61624e-06
-1.49246e-05
-0.000132908
-3.29424e-05
-1.82296e-05
-0.000100642
-6.01165e-05
-2.08866e-05
-6.05041e-05
-7.99659e-05
-2.17274e-05
-2.0695e-05
-8.16042e-05
-1.95364e-05
-4.48957e-05
-9.9421e-06
-6.28447e-06
4.91574e-05
-3.77536e-06
-1.85205e-05
7.99383e-05
-4.16898e-06
-3.28057e-05
8.97864e-05
-4.15589e-06
-4.79534e-05
9.28939e-05
-3.98007e-06
-6.3576e-05
9.40261e-05
-3.87866e-06
-7.96038e-05
9.45959e-05
-3.86751e-06
-9.60353e-05
9.47946e-05
-3.97018e-06
-0.000112822
9.43759e-05
-4.24076e-06
-0.000129796
9.28587e-05
-4.75806e-06
-0.000146573
8.9542e-05
-5.6304e-06
-0.000162428
8.34828e-05
-7.00057e-06
-0.000176122
7.34995e-05
-9.04336e-06
-0.000185739
5.82733e-05
-1.19383e-05
-0.000188596
3.66023e-05
-1.58147e-05
-0.000181463
7.99072e-06
-2.07403e-05
-0.000160843
-2.7391e-05
-2.61709e-05
-0.000124901
-6.51092e-05
-3.09491e-05
-7.63536e-05
-9.53965e-05
-3.31172e-05
-2.59846e-05
-0.00010171
-3.02634e-05
-5.54923e-05
-1.5388e-05
-6.01872e-06
5.93153e-05
-4.13923e-06
-1.81256e-05
9.67182e-05
-4.67298e-06
-3.23617e-05
0.000108722
-4.69955e-06
-4.75314e-05
0.000112598
-4.53422e-06
-6.32942e-05
0.000114237
-4.4483e-06
-7.96742e-05
0.000115447
-4.47098e-06
-9.68021e-05
0.000116561
-4.63858e-06
-0.000114801
0.000117398
-5.02249e-06
-0.000133711
0.000117496
-5.72812e-06
-0.000153378
0.000116116
-6.90678e-06
-0.000173296
0.000112172
-8.77125e-06
-0.000192355
0.000104166
-1.16076e-05
-0.000208503
9.01807e-05
-1.57601e-05
-0.000218421
6.80795e-05
-2.15589e-05
-0.000217327
3.60973e-05
-2.92002e-05
-0.000200155
-6.01683e-06
-3.85467e-05
-0.000161602
-5.60716e-05
-4.75907e-05
-0.000102362
-0.000101527
-5.31094e-05
-3.5908e-05
-0.000118231
-4.99328e-05
-6.58888e-05
-2.55116e-05
-5.68505e-06
6.9555e-05
-4.5546e-06
-1.75828e-05
0.000113867
-5.2509e-06
-3.16543e-05
0.000128111
-5.31699e-06
-4.66757e-05
0.000132773
-5.15331e-06
-6.23481e-05
0.000134981
-5.07137e-06
-7.8794e-05
0.00013701
-5.11696e-06
-9.62953e-05
0.000139405
-5.34287e-06
-0.000115184
0.000142129
-5.84271e-06
-0.000135776
0.000144844
-6.75601e-06
-0.000158268
0.0001469
-8.29198e-06
-0.000182554
0.000147222
-1.07638e-05
-0.000207913
0.000144154
-1.46289e-05
-0.000232525
0.000135303
-2.05105e-05
-0.000252811
0.000117508
-2.91416e-05
-0.000262846
8.72812e-05
-4.1149e-05
-0.000254042
4.20471e-05
-5.68681e-05
-0.000217564
-1.80425e-05
-7.45078e-05
-0.000147194
-8.40891e-05
-8.78074e-05
-5.66718e-05
-0.0001226
-8.61529e-05
-7.62535e-05
-4.63071e-05
-5.30293e-06
7.99081e-05
-5.05016e-06
-1.69281e-05
0.000131432
-5.94048e-06
-3.06994e-05
0.000147923
-6.04129e-06
-4.53355e-05
0.000153267
-5.85851e-06
-6.05661e-05
0.000155964
-5.75299e-06
-7.66065e-05
0.000158841
-5.79066e-06
-9.38886e-05
0.000162731
-6.04386e-06
-0.000112967
0.00016784
-6.63226e-06
-0.000134484
0.000174098
-7.73682e-06
-0.000159096
0.00018115
-9.63849e-06
-0.000187313
0.00018822
-1.27806e-05
-0.000219182
0.000193883
-1.78611e-05
-0.000253702
0.000195758
-2.59346e-05
-0.000287912
0.000190146
-3.84281e-05
-0.000315523
0.000171812
-5.692e-05
-0.000325727
0.000134178
-8.19269e-05
-0.000301676
7.06779e-05
-0.000112772
-0.000226731
-1.93832e-05
-0.000139651
-0.000102322
-0.000104262
-0.000142746
-9.09345e-05
-8.76413e-05
-4.93256e-06
9.05032e-05
-5.66251e-06
-1.62777e-05
0.000149566
-6.7883e-06
-2.96171e-05
0.000168175
-6.91284e-06
-4.35769e-05
0.000173903
-6.67579e-06
-5.78948e-05
0.000176783
-6.50008e-06
-7.28633e-05
0.000180285
-6.47559e-06
-8.90395e-05
0.000185604
-6.69648e-06
-0.00010717
0.00019328
-7.3091e-06
-0.0001282
0.000203663
-8.53658e-06
-0.00015327
0.000216957
-1.07366e-05
-0.000183666
0.000233117
-1.45009e-05
-0.000220599
0.000251631
-2.08157e-05
-0.000264702
0.000271104
-3.12427e-05
-0.00031509
0.000288512
-4.79776e-05
-0.000367687
0.0002978
-7.33908e-05
-0.000411497
0.000286279
-0.00010829
-0.000422066
0.000228866
-0.00014762
-0.000359669
9.73376e-05
-0.000179118
-0.000196191
-8.07962e-05
-0.000186944
-0.000139137
-0.000147988
-4.70729e-06
0.000101662
-6.45121e-06
-1.58899e-05
0.000168613
-7.86481e-06
-2.87133e-05
0.000188991
-7.99255e-06
-4.16817e-05
0.000194519
-7.64741e-06
-5.45192e-05
0.000196952
-7.33222e-06
-6.7577e-05
0.000200508
-7.1649e-06
-8.14827e-05
0.000206771
-7.26155e-06
-9.70839e-05
0.000216672
-7.79035e-06
-0.000115505
0.000231091
-9.0062e-06
-0.000138232
0.000251008
-1.1324e-05
-0.000167187
0.000277528
-1.54554e-05
-0.000204792
0.000311776
-2.254e-05
-0.000253961
0.000354552
-3.42799e-05
-0.000317756
0.000404873
-5.25648e-05
-0.000397795
0.000455304
-7.74658e-05
-0.000488306
0.000479738
-0.000102948
-0.000562556
0.000418205
-0.000115089
-0.000547657
0.000186375
-0.000103936
-0.000349039
-0.000167125
-0.000112289
-0.000319037
-0.00016914
-4.88593e-06
0.000114073
-7.52511e-06
-1.62493e-05
0.00018928
-9.3034e-06
-2.85723e-05
0.000210728
-9.41346e-06
-4.02327e-05
0.000215065
-8.88569e-06
-5.09718e-05
0.000216019
-8.32753e-06
-6.11799e-05
0.000218617
-7.9011e-06
-7.14788e-05
0.000224816
-7.74606e-06
-8.26605e-05
0.000235896
-8.04252e-06
-9.57878e-05
0.000253273
-9.0545e-06
-0.000112338
0.000278758
-1.11992e-05
-0.000134421
0.000314787
-1.51766e-05
-0.000165162
0.000364346
-2.18293e-05
-0.000209479
0.000430666
-3.17969e-05
-0.000275377
0.000513576
-4.28048e-05
-0.000375309
0.000599353
-4.41167e-05
-0.000519256
0.000636536
-1.28509e-05
-0.000692307
0.000518762
7.2494e-05
-0.000765987
9.38603e-05
0.000166195
-0.000518458
-0.000544074
0.00012942
-0.000762046
-7.54489e-05
-5.92652e-06
0.00012905
-9.05104e-06
-1.81593e-05
0.000212732
-1.12193e-05
-3.01435e-05
0.000233917
-1.12052e-05
-4.02141e-05
0.000235499
-1.03635e-05
-4.82226e-05
0.000233473
-9.44565e-06
-5.4616e-05
0.000233663
-8.65272e-06
-5.99468e-05
0.000238274
-8.12661e-06
-6.47347e-05
0.000248713
-8.02865e-06
-6.96185e-05
0.000266755
-8.59889e-06
-7.54854e-05
0.000294771
-1.01464e-05
-8.38661e-05
0.000336243
-1.30751e-05
-9.76861e-05
0.000395349
-1.71826e-05
-0.000123818
0.000476798
-1.99999e-05
-0.000178163
0.000578257
-1.03369e-05
-0.000297216
0.000679414
3.89919e-05
-0.000528502
0.000696452
0.00017137
-0.000862169
0.000465395
0.000387035
-0.00100701
-0.000292485
0.000531183
-0.000669005
-0.00126803
0.000385951
-0.00147415
4.31005e-05
-8.88444e-06
0.000149555
-1.16199e-05
-2.32011e-05
0.000241513
-1.44643e-05
-3.50145e-05
0.000260136
-1.44055e-05
-4.30004e-05
0.000256592
-1.31071e-05
-4.75662e-05
0.000249566
-1.15277e-05
-4.93317e-05
0.000245455
-1.00268e-05
-4.86196e-05
0.000246383
-8.82155e-06
-4.55094e-05
0.0002537
-8.09767e-06
-3.99243e-05
0.000269185
-8.01536e-06
-3.16361e-05
0.000295156
-8.6728e-06
-2.09715e-05
0.000335553
-9.9751e-06
-1.03426e-05
0.000394805
-1.00847e-05
-9.64317e-06
0.000478381
-2.28282e-06
-4.80454e-05
0.000581808
3.48513e-05
-0.000195986
0.000683219
0.000144137
-0.000544327
0.000672344
0.000372448
-0.00103059
0.000283879
0.000667776
-0.00118435
-0.000881509
0.000742791
-0.000812459
-0.00204579
0.000405872
-0.00229969
1.30784e-05
-1.42293e-05
0.000179138
-1.53542e-05
-3.21211e-05
0.000277474
-1.80691e-05
-4.43403e-05
0.00028987
-1.75153e-05
-5.07145e-05
0.000278309
-1.53428e-05
-5.17026e-05
0.000263604
-1.30492e-05
-4.82238e-05
0.000252875
-1.08984e-05
-4.06504e-05
0.000247907
-9.09805e-06
-2.86604e-05
0.000249497
-7.78703e-06
-1.1368e-05
0.000258989
-7.09547e-06
1.27083e-05
0.000277949
-6.86932e-06
4.43937e-05
0.000310427
-6.55933e-06
8.31776e-05
0.000359201
-3.17981e-06
0.00011863
0.000429902
1.30272e-05
0.000113046
0.000518052
6.93404e-05
-3.40222e-05
0.000612983
0.000217304
-0.000424065
0.000574452
0.000487935
-0.000946724
3.93768e-05
0.000767161
-0.00116086
-0.00134066
0.000673291
-0.000905856
-0.00257091
0.00027011
-0.00307606
-0.000129482
-3.55512e-05
0.000238106
-2.34169e-05
-5.72327e-05
0.000327029
-2.78738e-05
-6.62452e-05
0.000325373
-2.64903e-05
-6.56941e-05
0.000300798
-2.30409e-05
-5.95924e-05
0.000276395
-1.88932e-05
-4.93894e-05
0.0002576
-1.4928e-05
-3.4979e-05
0.000245056
-1.15589e-05
-1.50228e-05
0.000238526
-8.98466e-06
1.24614e-05
0.000238869
-7.36476e-06
5.00664e-05
0.00024667
-6.32621e-06
0.000101083
0.000264818
-5.40681e-06
0.000167358
0.00029409
-1.1639e-06
0.00024174
0.000339328
1.61909e-05
0.000296903
0.000392505
7.03836e-05
0.000240909
0.000454699
0.000214277
-4.19982e-05
0.000403696
0.000453663
-0.00051746
-0.00014218
0.000657019
-0.000906738
-0.0014502
0.000498813
-0.000860316
-0.00280319
0.000185854
-0.00364809
-0.000288294
-3.01688e-05
0.000307305
-3.90304e-05
-6.94574e-05
0.00040543
-3.91122e-05
-8.63473e-05
0.000377538
-3.5275e-05
-8.92873e-05
0.00033137
-2.76313e-05
-8.02512e-05
0.000289003
-2.16443e-05
-6.2903e-05
0.00025643
-1.61779e-05
-3.90088e-05
0.000232853
-1.1691e-05
-8.18649e-06
0.000216047
-8.34396e-06
3.09769e-05
0.000206122
-6.41631e-06
8.20127e-05
0.000201364
-5.73014e-06
0.000148761
0.000204029
-5.96003e-06
0.000235968
0.000211523
-4.64051e-06
0.000340109
0.000228185
7.00162e-06
0.00044929
0.000240958
4.2367e-05
0.000507213
0.000254467
0.000142309
0.000405515
0.000191212
0.000314182
3.21219e-05
-0.000214185
0.000445398
-0.000503327
-0.00129257
0.000377826
-0.000689571
-0.0027435
0.000126561
-0.00390767
-0.000429984
-0.000180653
0.000536226
-4.82671e-05
-0.000177849
0.000463558
-6.09323e-05
-0.000148802
0.000408166
-5.96749e-05
-0.000115654
0.000349418
-5.11968e-05
-7.37044e-05
0.000285553
-3.84994e-05
-2.79533e-05
0.00023744
-2.6762e-05
2.00508e-05
0.000202634
-1.7785e-05
7.1779e-05
0.000175782
-1.14629e-05
0.000128518
0.000157461
-8.07814e-06
0.000194887
0.000142788
-7.79287e-06
0.000272768
0.000135963
-9.81426e-06
0.000368645
0.00012902
-1.3373e-05
0.000478018
0.000130716
-1.19036e-05
0.000594235
0.000121155
3.5865e-06
0.000690972
0.000106306
5.14249e-05
0.000703431
2.15372e-05
0.000157215
0.000513941
-0.000249272
0.000224577
-3.93124e-06
-0.0010255
0.000250799
-0.000378768
-0.00241673
4.80646e-05
-0.00371983
-0.000566609
-0.000370952
0.00107785
-0.000170672
-0.000261503
0.000481217
-0.000127108
-0.000105995
0.000350815
-9.81573e-05
6.48365e-05
0.000249059
-7.04715e-05
0.00022754
0.00017565
-5.28001e-05
0.000376759
0.000127018
-3.87971e-05
0.000510756
9.69912e-05
-2.83537e-05
0.000632244
7.53486e-05
-2.10546e-05
0.000743658
6.24576e-05
-1.64111e-05
0.000850246
5.1163e-05
-1.49621e-05
0.000955689
4.69658e-05
-1.64464e-05
0.00106592
4.04928e-05
-2.16998e-05
0.00118438
3.94265e-05
-2.71752e-05
0.00130475
2.81076e-05
-2.73182e-05
0.00142147
7.38148e-06
-1.78e-05
0.00148404
-6.65927e-05
2.55578e-05
0.00141301
-0.000255934
7.76944e-05
0.00100942
-0.000731026
0.000109116
0.000277512
-0.00168497
1.47624e-07
-0.00274704
-0.000695283
0.00122689
-0.00014904
0.00186825
-0.000160143
0.00237838
-0.000159319
0.00277226
-0.000144814
0.00307525
-0.000127341
0.00331471
-0.000112444
0.00351
-9.83031e-05
0.00367313
-8.77757e-05
0.00381264
-7.70589e-05
0.00393466
-7.08486e-05
0.00404521
-6.35859e-05
0.0041478
-6.21025e-05
0.00424414
-5.69105e-05
0.00433068
-5.84363e-05
0.00438581
-4.77468e-05
0.00436675
-4.75286e-05
0.0041367
-2.58891e-05
0.00346215
-5.64769e-05
0.00189501
-0.000117823
-0.000852031
-4.71906e-06
5.40324e-06
-1.35877e-06
-1.48929e-05
1.11285e-05
-1.22955e-06
-2.70161e-05
1.30957e-05
-1.0377e-06
-3.96982e-05
1.36519e-05
-9.20027e-07
-5.24583e-05
1.37561e-05
-9.46769e-07
-6.51074e-05
1.37108e-05
-1.09868e-06
-7.74432e-05
1.35258e-05
-1.373e-06
-8.91759e-05
1.31095e-05
-1.78751e-06
-9.98784e-05
1.23376e-05
-2.37056e-06
-0.000108969
1.1067e-05
-3.15414e-06
-0.000115705
9.14597e-06
-4.16736e-06
-0.000119204
6.43519e-06
-5.42641e-06
-0.000118505
2.8449e-06
-6.92073e-06
-0.00011268
-1.62062e-06
-8.59535e-06
-0.00010105
-6.76891e-06
-1.03176e-05
-8.34955e-05
-1.21183e-05
-1.18847e-05
-6.08651e-05
-1.67709e-05
-1.29954e-05
-3.55417e-05
-1.92767e-05
-1.32936e-05
-1.2141e-05
-1.75622e-05
-1.23967e-05
-7.78075e-06
-8.11794e-06
-1.06861e-05
1.70814e-05
-2.86927e-06
-2.98304e-05
3.17937e-05
-3.22766e-06
-5.20237e-05
3.68544e-05
-3.11159e-06
-7.50175e-05
3.81868e-05
-2.93874e-06
-9.79031e-05
3.81952e-05
-2.90225e-06
-0.000120203
3.76406e-05
-3.00927e-06
-0.000141472
3.6581e-05
-3.26923e-06
-0.000161154
3.48303e-05
-3.71435e-06
-0.00017852
3.21106e-05
-4.38901e-06
-0.000192638
2.80966e-05
-5.34238e-06
-0.000202374
2.2445e-05
-6.61957e-06
-0.000206398
1.48282e-05
-8.24704e-06
-0.000203377
5.13523e-06
-1.02115e-05
-0.000192015
-6.62528e-06
-1.24731e-05
-0.000171379
-1.99961e-05
-1.48058e-05
-0.000141428
-3.37101e-05
-1.69321e-05
-0.000103561
-4.55777e-05
-1.84217e-05
-6.14843e-05
-5.20113e-05
-1.87535e-05
-2.22961e-05
-4.78635e-05
-1.7268e-05
-2.38195e-05
-1.065e-05
-1.3178e-05
3.14791e-05
-3.7632e-06
-3.62149e-05
5.67323e-05
-4.43341e-06
-6.26661e-05
6.52723e-05
-4.37498e-06
-8.98929e-05
6.73435e-05
-4.16425e-06
-0.000116853
6.70822e-05
-4.07061e-06
-0.000143
6.57806e-05
-4.11958e-06
-0.000167833
6.35658e-05
-4.3317e-06
-0.000190744
6.01649e-05
-4.7522e-06
-0.000210945
5.51473e-05
-5.44173e-06
-0.000227427
4.79934e-05
-6.4695e-06
-0.000238939
3.81442e-05
-7.90335e-06
-0.000244032
2.50847e-05
-9.796e-06
-0.000241064
8.50562e-06
-1.2164e-05
-0.000228368
-1.16574e-05
-1.49423e-05
-0.000204695
-3.46295e-05
-1.79047e-05
-0.000169687
-5.83979e-05
-2.06913e-05
-0.000124728
-7.92424e-05
-2.27162e-05
-7.41611e-05
-9.08723e-05
-2.32359e-05
-2.6779e-05
-8.41499e-05
-2.13298e-05
-4.29609e-05
-1.2841e-05
-1.4084e-05
4.70067e-05
-4.48583e-06
-3.8757e-05
8.36591e-05
-5.43206e-06
-6.70207e-05
9.58762e-05
-5.43275e-06
-9.6082e-05
9.87021e-05
-5.20371e-06
-0.000124897
9.81802e-05
-5.0769e-06
-0.000152957
9.61858e-05
-5.09448e-06
-0.000179816
9.29343e-05
-5.28983e-06
-0.000204924
8.80775e-05
-5.72409e-06
-0.000227539
8.10338e-05
-6.47916e-06
-0.000246667
7.10694e-05
-7.65347e-06
-0.000261001
5.73542e-05
-9.35241e-06
-0.000268891
3.90649e-05
-1.16723e-05
-0.000268378
1.55968e-05
-1.46799e-05
-0.000257289
-1.33614e-05
-1.83556e-05
-0.000233496
-4.71306e-05
-2.24419e-05
-0.000195827
-8.29023e-05
-2.64559e-05
-0.000145186
-0.000115214
-2.95507e-05
-8.64756e-05
-0.000134224
-3.05512e-05
-3.07447e-05
-0.000125343
-2.80723e-05
-6.39611e-05
-1.66103e-05
-1.43738e-05
6.30581e-05
-5.10618e-06
-3.98382e-05
0.000111744
-6.3154e-06
-6.90747e-05
0.000127845
-6.37682e-06
-9.92156e-05
0.00013153
-6.14589e-06
-0.000129263
0.000130897
-6.01367e-06
-0.000158807
0.000128463
-6.03987e-06
-0.000187522
0.000124564
-6.27334e-06
-0.000214985
0.000118797
-6.79587e-06
-0.000240579
0.000110435
-7.71856e-06
-0.000263392
9.85122e-05
-9.18198e-06
-0.000282099
8.18538e-05
-1.1351e-05
-0.000294847
5.91754e-05
-1.43952e-05
-0.000299178
2.93131e-05
-1.8458e-05
-0.000292149
-8.4965e-06
-2.36123e-05
-0.000270337
-5.42458e-05
-2.9622e-05
-0.000231046
-0.000104585
-3.58381e-05
-0.00017399
-0.000152163
-4.09935e-05
-0.000104362
-0.000182478
-4.31015e-05
-3.65624e-05
-0.000172952
-3.97265e-05
-8.74989e-05
-2.29667e-05
-1.44735e-05
7.94625e-05
-5.70634e-06
-4.04809e-05
0.00014077
-7.18697e-06
-7.04682e-05
0.00016099
-7.31393e-06
-0.000101509
0.000165683
-7.09203e-06
-0.000132673
0.000165155
-6.97274e-06
-0.000163684
0.000162643
-7.03571e-06
-0.000194391
0.00015865
-7.34908e-06
-0.000224572
0.000152759
-8.02123e-06
-0.000253823
0.00014413
-9.2026e-06
-0.000281412
0.000131564
-1.10931e-05
-0.000306104
0.000113491
-1.39463e-05
-0.00032592
8.80065e-05
-1.80587e-05
-0.000337879
5.30697e-05
-2.3736e-05
-0.000338131
7.13852e-06
-3.11976e-05
-0.00032133
-5.14036e-05
-4.03835e-05
-0.000282315
-0.000119302
-5.04684e-05
-0.000218233
-0.000187643
-5.95509e-05
-0.00013339
-0.000236302
-6.41367e-05
-4.66914e-05
-0.000230446
-5.94674e-05
-0.000116339
-3.32394e-05
-1.45193e-05
9.61994e-05
-6.35685e-06
-4.10187e-05
0.000170735
-8.1391e-06
-7.17054e-05
0.000195314
-8.33629e-06
-0.000103581
0.000201147
-8.12267e-06
-0.000135791
0.000200933
-8.0164e-06
-0.000168225
0.000198727
-8.12087e-06
-0.000200959
0.000195273
-8.52802e-06
-0.000234055
0.000190213
-9.37982e-06
-0.000267438
0.000182663
-1.08783e-05
-0.000300726
0.00017125
-1.33054e-05
-0.000332981
0.00015402
-1.70449e-05
-0.000362351
0.000128364
-2.25951e-05
-0.000385585
9.10719e-05
-3.05283e-05
-0.000397499
3.88363e-05
-4.1343e-05
-0.000391189
-3.12741e-05
-5.56395e-05
-0.000357521
-0.000119043
-7.24742e-05
-0.000288553
-0.00021522
-8.89818e-05
-0.000184115
-0.000294842
-9.90077e-05
-6.69424e-05
-0.000304738
-9.28134e-05
-0.000158817
-4.99758e-05
-1.45437e-05
0.000113299
-7.11034e-06
-4.15342e-05
0.000201718
-9.24279e-06
-7.28772e-05
0.00023085
-9.51024e-06
-0.000105468
0.000237872
-9.28834e-06
-0.000138529
0.000238095
-9.17273e-06
-0.000172136
0.000236512
-9.29499e-06
-0.000206643
0.000234212
-9.77534e-06
-0.000242482
0.000231005
-1.07956e-05
-0.00028005
0.000226097
-1.26211e-05
-0.000319539
0.000218087
-1.564e-05
-0.000360643
0.000204778
-2.04178e-05
-0.000402086
0.000182934
-2.77554e-05
-0.000440915
0.000148096
-3.87053e-05
-0.00047145
9.47629e-05
-5.45335e-05
-0.000485316
1.77918e-05
-7.6349e-05
-0.000468679
-8.85823e-05
-0.000103965
-0.000404821
-0.000220366
-0.000133219
-0.000280178
-0.000354188
-0.000153104
-0.000112758
-0.000413108
-0.000145204
-0.000240134
-7.77483e-05
-1.45777e-05
0.000130845
-8.01837e-06
-4.20871e-05
0.000233855
-1.05681e-05
-7.40139e-05
0.000267634
-1.08983e-05
-0.000107096
0.000275729
-1.06324e-05
-0.000140621
0.000276326
-1.04588e-05
-0.000174863
0.000275506
-1.05418e-05
-0.000210482
0.000274819
-1.10326e-05
-0.000248349
0.000274396
-1.21557e-05
-0.000289476
0.000273733
-1.42462e-05
-0.000334891
0.000271679
-1.78163e-05
-0.000385376
0.00026614
-2.36568e-05
-0.00044099
0.000253664
-3.29787e-05
-0.00050024
0.000228961
-4.7549e-05
-0.000558896
0.000184595
-6.96039e-05
-0.00060788
0.000111087
-0.000101232
-0.000632788
-2.35396e-06
-0.000143247
-0.000599755
-0.000179373
-0.000186798
-0.00046559
-0.000414254
-0.00021375
-0.000216801
-0.000603183
-0.00020146
-0.000425541
-0.000119035
-1.47044e-05
0.000149035
-9.14857e-06
-4.28349e-05
0.000267401
-1.22044e-05
-7.52636e-05
0.00030573
-1.25798e-05
-0.000108507
0.000314508
-1.22113e-05
-0.000141899
0.000315118
-1.19001e-05
-0.000175907
0.000314886
-1.18479e-05
-0.000211495
0.000315949
-1.22373e-05
-0.000249993
0.000318915
-1.33315e-05
-0.000293095
0.000323827
-1.55279e-05
-0.000342875
0.000330179
-1.94564e-05
-0.000401704
0.000336608
-2.61395e-05
-0.000471976
0.000340355
-3.72341e-05
-0.000555561
0.000336572
-5.52689e-05
-0.000652831
0.000317302
-8.34147e-05
-0.000759781
0.000268115
-0.000123469
-0.000857851
0.000156859
-0.000169433
-0.000897703
-8.46635e-05
-0.000202477
-0.000774202
-0.000517803
-0.00019907
-0.000408176
-0.000975048
-0.000181106
-0.000827698
-0.000154006
-1.51061e-05
0.000168295
-1.0605e-05
-4.41264e-05
0.000302839
-1.42818e-05
-7.70184e-05
0.000345298
-1.46692e-05
-0.000110015
0.000353967
-1.41102e-05
-0.000142477
0.000353794
-1.35465e-05
-0.000175048
0.000353513
-1.32211e-05
-0.000208952
0.000355934
-1.33439e-05
-0.0002459
0.000362275
-1.42025e-05
-0.000288211
0.000373361
-1.62283e-05
-0.000339011
0.000389769
-2.01144e-05
-0.000402486
0.000411636
-2.70098e-05
-0.00048411
0.000438205
-3.8766e-05
-0.000590978
0.000467052
-5.78915e-05
-0.000731408
0.000490894
-8.57262e-05
-0.000909092
0.000484108
-0.000115775
-0.00110371
0.000370186
-0.000121662
-0.00123149
-9.79051e-06
-6.21811e-05
-0.00112485
-0.000756321
2.7949e-05
-0.000639638
-0.00156973
-2.81772e-06
-0.00150841
-0.000128062
-1.61445e-05
0.000189477
-1.25621e-05
-4.66308e-05
0.000341047
-1.7026e-05
-8.00527e-05
0.000386696
-1.73889e-05
-0.000112338
0.000393886
-1.65192e-05
-0.000142912
0.000391578
-1.55378e-05
-0.000172578
0.000390024
-1.47464e-05
-0.000202716
0.000392707
-1.43812e-05
-0.000235241
0.00040149
-1.47326e-05
-0.000272828
0.000418107
-1.62135e-05
-0.000319326
0.000444531
-1.94633e-05
-0.000380409
0.000483019
-2.54751e-05
-0.000464273
0.000535733
-3.54934e-05
-0.000582649
0.000603139
-4.95086e-05
-0.000750011
0.000675188
-5.9736e-05
-0.000974677
0.000702083
-3.74254e-05
-0.00123336
0.000544097
7.19254e-05
-0.00143069
-2.69361e-05
0.000286961
-0.00133364
-0.00112575
0.000438582
-0.000777983
-0.00224242
0.000246444
-0.00233688
-2.49668e-05
-1.8371e-05
0.000214072
-1.52751e-05
-5.13497e-05
0.000383456
-2.0649e-05
-8.55982e-05
0.000430581
-2.08423e-05
-0.000116783
0.00043418
-1.94727e-05
-0.000144444
0.000427684
-1.78905e-05
-0.000169546
0.000422918
-1.64444e-05
-0.000193535
0.000423941
-1.53706e-05
-0.000218236
0.000433082
-1.49198e-05
-0.000246121
0.00045281
-1.54165e-05
-0.000280891
0.000486411
-1.72569e-05
-0.000328361
0.000538203
-2.07893e-05
-0.000397292
0.000612786
-2.53042e-05
-0.000501157
0.00071196
-2.49562e-05
-0.000656778
0.000818157
2.31535e-06
-0.000883985
0.000855473
0.000112808
-0.00117396
0.00063578
0.00036966
-0.00143522
-8.9295e-05
0.000710654
-0.00135589
-0.00145361
0.000779715
-0.00080067
-0.00274001
0.000328314
-0.00312609
3.16429e-05
-2.34917e-05
0.000245364
-1.94207e-05
-6.08226e-05
0.000432549
-2.62267e-05
-9.59419e-05
0.00047758
-2.62851e-05
-0.00012496
0.000474287
-2.41959e-05
-0.00014834
0.000461154
-2.16182e-05
-0.00016735
0.000450977
-1.90752e-05
-0.000183164
0.000447811
-1.68779e-05
-0.000197044
0.000454134
-1.52706e-05
-0.000210698
0.000472875
-1.44261e-05
-0.000226611
0.000508003
-1.4352e-05
-0.000249149
0.000565188
-1.44224e-05
-0.000285164
0.000649905
-1.11882e-05
-0.000347719
0.000764823
7.4095e-06
-0.000457381
0.000883825
7.88453e-05
-0.000655539
0.000926251
0.000271516
-0.000953682
0.000677448
0.000628924
-0.00124957
-0.000111476
0.000985844
-0.00119445
-0.00160563
0.000839701
-0.0007449
-0.00299769
0.000214003
-0.00379988
-5.80294e-05
-3.01059e-05
0.000285295
-2.51795e-05
-7.37597e-05
0.000491053
-3.29196e-05
-0.00011168
0.000530374
-3.23892e-05
-0.000140237
0.000516585
-2.90831e-05
-0.000159368
0.000492585
-2.53493e-05
-0.000170929
0.000473291
-2.16521e-05
-0.000176365
0.000462459
-1.83094e-05
-0.000176531
0.000462018
-1.5504e-05
-0.000171978
0.000474527
-1.33e-05
-0.000163113
0.0005036
-1.13317e-05
-0.000151665
0.000555347
-8.16621e-06
-0.000140543
0.000634163
1.43907e-06
-0.00014093
0.000744339
3.38982e-05
-0.000174426
0.000856356
0.000130305
-0.000301141
0.000911513
0.000358758
-0.000539995
0.000676629
0.000727608
-0.0007977
-8.12258e-05
0.000994615
-0.000847524
-0.00155087
0.000668348
-0.000593569
-0.00308428
0.000102746
-0.00431789
-0.000205044
-6.36437e-05
0.000360932
-3.54095e-05
-0.000114065
0.000559564
-4.59628e-05
-0.000146405
0.000580885
-4.46623e-05
-0.000164211
0.000551248
-3.98972e-05
-0.000173102
0.000516571
-3.39876e-05
-0.000175069
0.000488325
-2.79955e-05
-0.000170239
0.000468565
-2.24953e-05
-0.000157547
0.000458127
-1.77851e-05
-0.000135577
0.000459142
-1.39495e-05
-0.00010188
0.000473939
-1.03619e-05
-5.47203e-05
0.000508364
-5.58351e-06
7.69984e-06
0.000564316
6.26314e-06
8.03071e-05
0.000647498
4.04248e-05
0.000145562
0.000732725
0.00012876
0.000164388
0.00077541
0.000331554
5.22637e-05
0.000606161
0.000636255
-0.000120867
-4.43351e-05
0.000793259
-0.000355621
-0.00129278
0.000475481
-0.000331372
-0.00297534
5.26679e-05
-0.00462276
-0.000314795
-4.40006e-05
0.0004195
-5.35981e-05
-0.000125005
0.000665441
-6.39844e-05
-0.000176783
0.000656846
-5.94575e-05
-0.000202603
0.000599431
-4.99933e-05
-0.000209613
0.000543356
-4.14195e-05
-0.000202801
0.000498431
-3.30961e-05
-0.00018465
0.000464386
-2.56633e-05
-0.000155037
0.000439562
-1.93922e-05
-0.000112732
0.000424988
-1.45672e-05
-5.36278e-05
0.000419748
-1.06441e-05
2.64441e-05
0.000429024
-6.69183e-06
0.000131755
0.000452201
2.1641e-06
0.000265372
0.000494169
2.67128e-05
0.000419474
0.000534313
8.66774e-05
0.0005653
0.000552015
0.000219877
0.000618273
0.000438116
0.000429254
0.00050483
-6.13914e-06
0.000520645
0.000181905
-0.000926758
0.000334729
3.85794e-05
-0.00272305
1.75941e-05
-0.00462956
-0.000384601
-0.000191565
0.000624496
-6.16987e-05
-0.000220731
0.000717507
-8.38325e-05
-0.000240363
0.000701993
-8.51897e-05
-0.000251872
0.00063532
-7.55772e-05
-0.000238497
0.000552965
-6.14838e-05
-0.000206233
0.000486811
-4.7405e-05
-0.000159607
0.000435304
-3.53294e-05
-9.88046e-05
0.000393109
-2.5812e-05
-2.52533e-05
0.000362711
-1.93521e-05
6.39759e-05
0.000338133
-1.54072e-05
0.000170766
0.00032629
-1.38706e-05
0.000302081
0.000319666
-1.2153e-05
0.00045865
0.000328612
-2.91606e-06
0.000634979
0.000334826
2.67449e-05
0.000823266
0.000326669
8.84839e-05
0.000956636
0.000251249
0.000210712
0.00100484
-7.57864e-05
0.000246019
0.000833589
-0.000684128
0.000179422
0.000517912
-0.00234948
-9.83088e-06
-0.0042383
-0.000439957
-0.000666905
0.00128599
-0.000165256
-0.000626626
0.000706164
-0.000156044
-0.000484546
0.000591028
-0.000129273
-0.00028701
0.000473267
-0.000105955
-8.04462e-05
0.000381807
-8.82052e-05
0.000124549
0.000315106
-7.20876e-05
0.000321643
0.000268758
-5.89012e-05
0.00051025
0.000231759
-4.83124e-05
0.000691148
0.000205859
-4.0458e-05
0.000866687
0.000183264
-3.56323e-05
0.00104128
0.000169388
-3.41331e-05
0.00121706
0.000157348
-3.51712e-05
0.00140635
0.000150176
-3.80277e-05
0.00160177
0.000142659
-3.05705e-05
0.00181836
0.000112744
-2.04608e-05
0.00201375
5.84295e-05
2.29914e-05
0.00210346
-0.000149244
6.1441e-05
0.00204756
-0.000559532
4.04167e-05
0.00139209
-0.00166407
-2.97913e-05
-0.00305685
-0.000484647
0.00126961
-0.000132669
0.00196975
-0.000154118
0.00256021
-0.000158751
0.0030409
-0.000152234
0.00343726
-0.00014189
0.00377078
-0.000130858
0.00406057
-0.000119342
0.00431468
-0.000110125
0.00454354
-0.000100062
0.00474982
-9.38643e-05
0.00494115
-8.55273e-05
0.00512089
-8.44915e-05
0.00529064
-7.6481e-05
0.00545598
-8.11254e-05
0.00558843
-6.74485e-05
0.00567701
-7.76768e-05
0.00555645
-5.45708e-05
0.00504106
-0.000100622
0.0033732
-0.000114035
-0.000535678
-5.35254e-06
5.71148e-06
-1.7177e-06
-1.70627e-05
1.25111e-05
-2.03058e-06
-3.10134e-05
1.48952e-05
-1.98219e-06
-4.55124e-05
1.55083e-05
-1.92936e-06
-5.99876e-05
1.55251e-05
-1.99662e-06
-7.42218e-05
1.53316e-05
-2.19604e-06
-8.80016e-05
1.4946e-05
-2.53928e-06
-0.000101005
1.42682e-05
-3.0521e-06
-0.000112766
1.31586e-05
-3.76803e-06