/*--------------------------------*- C++ -*----------------------------------*\
  =========                 |
  \\      /  F ield         | OpenFOAM: The Open Source CFD Toolbox
   \\    /   O peration     | Website:  https://openfoam.org
    \\  /    A nd           | Version:  10
     \\/     M anipulation  |
\*---------------------------------------------------------------------------*/
FoamFile
{
    format      ascii;
    class       surfaceScalarField;
    location    "3.3";
    object      phi;
}
// * * * * * * * * * * * * * * * * * * * * * * * * * * * * * * * * * * * * * //

dimensions      [0 3 -1 0 0 0 0];

internalField   nonuniform List<scalar> 
760
(
-1.07183e-05
1.07182e-05
-3.10617e-05
2.03435e-05
-5.28892e-05
2.18275e-05
-7.39817e-05
2.10925e-05
-9.36409e-05
1.96592e-05
-0.000111411
1.77699e-05
-0.000126855
1.54441e-05
-0.00013953
1.26756e-05
-0.000148993
9.46269e-06
-0.000154808
5.81456e-06
-0.000156563
1.75578e-06
-0.000153894
-2.66965e-06
-0.000146527
-7.36676e-06
-0.000134327
-1.22004e-05
-0.000117341
-1.69851e-05
-9.5863e-05
-2.14784e-05
-7.05183e-05
-2.53447e-05
-4.25762e-05
-2.79421e-05
-1.54194e-05
-2.71568e-05
-1.54194e-05
-2.10077e-05
3.17259e-05
-5.52255e-05
5.45613e-05
-9.12272e-05
5.78291e-05
-0.000125799
5.56641e-05
-0.000157774
5.16347e-05
-0.000186363
4.63588e-05
-0.000210849
3.99301e-05
-0.00023055
3.23766e-05
-0.000244818
2.37304e-05
-0.000253044
1.40404e-05
-0.000254688
3.39988e-06
-0.000249307
-8.05037e-06
-0.000236565
-2.0109e-05
-0.000216358
-3.24073e-05
-0.000188848
-4.44949e-05
-0.000154547
-5.578e-05
-0.000114443
-6.54484e-05
-7.0449e-05
-7.19362e-05
-2.7307e-05
-7.02988e-05
-4.27264e-05
-2.40126e-05
5.57385e-05
-6.25425e-05
9.30913e-05
-0.000102891
9.81778e-05
-0.000141551
9.43239e-05
-0.000177264
8.73476e-05
-0.000209173
7.82683e-05
-0.000236504
6.72609e-05
-0.000258522
5.43946e-05
-0.000274531
3.97391e-05
-0.000283883
2.33924e-05
-0.000285998
5.51512e-06
-0.000280278
-1.37704e-05
-0.000266377
-3.40102e-05
-0.000244115
-5.46692e-05
-0.000213585
-7.50252e-05
-0.000175267
-9.40975e-05
-0.000130193
-0.000110522
-8.04608e-05
-0.000121669
-3.13969e-05
-0.000119363
-7.41233e-05
-2.55145e-05
8.1253e-05
-6.65593e-05
0.000134136
-0.000109508
0.000141127
-0.000150679
0.000135494
-0.000188782
0.000125451
-0.000222948
0.000112435
-0.000252389
9.67023e-05
-0.000276352
7.83577e-05
-0.00029411
5.74965e-05
-0.000304959
3.42418e-05
-0.000308245
8.80048e-06
-0.000303283
-1.87316e-05
-0.00028951
-4.77832e-05
-0.000266563
-7.76162e-05
-0.000234358
-0.000107231
-0.000193226
-0.00013523
-0.000144141
-0.000159607
-8.93741e-05
-0.000176435
-3.4925e-05
-0.000173812
-0.000109048
-2.71834e-05
0.000108436
-7.1082e-05
0.000178035
-0.000117034
0.000187079
-0.000161142
0.000179603
-0.000202088
0.000166396
-0.000238996
0.000149343
-0.000271078
0.000128784
-0.000297569
0.000104849
-0.000317714
7.76418e-05
-0.00033075
4.72769e-05
-0.000335898
1.39488e-05
-0.00033234
-2.22895e-05
-0.000319256
-6.08672e-05
-0.000295976
-0.000100896
-0.000262072
-0.000141135
-0.000217577
-0.000179725
-0.000163316
-0.000213868
-0.000101763
-0.000237988
-3.99006e-05
-0.000235675
-0.000148949
-2.93455e-05
0.000137782
-7.68928e-05
0.000225582
-0.00012668
0.000236866
-0.000174535
0.000227457
-0.000219098
0.000210959
-0.000259501
0.000189746
-0.000294966
0.000164249
-0.000324736
0.000134619
-0.000348037
0.000100943
-0.000364048
6.32874e-05
-0.000371871
2.17722e-05
-0.000370503
-2.36581e-05
-0.000358769
-7.26008e-05
-0.000335569
-0.000124095
-0.00029994
-0.000176764
-0.000251371
-0.000228294
-0.000190338
-0.000274902
-0.000119471
-0.000308854
-4.71488e-05
-0.000307997
-0.000196098
-3.20734e-05
0.000169855
-8.418e-05
0.000277689
-0.000138729
0.000291415
-0.000191201
0.000279929
-0.000240201
0.000259959
-0.00028488
0.000234425
-0.000324497
0.000203866
-0.000358332
0.000168454
-0.000385627
0.000128237
-0.000405526
8.31865e-05
-0.000417021
3.3267e-05
-0.000418921
-2.17582e-05
-0.000409597
-8.19239e-05
-0.000387361
-0.000146332
-0.000350438
-0.000213687
-0.000297384
-0.000281348
-0.000227909
-0.000344377
-0.000144586
-0.000392177
-5.77009e-05
-0.000394882
-0.000253799
-3.54171e-05
0.000205272
-9.30738e-05
0.000335345
-0.00015336
0.000351701
-0.000211338
0.000337908
-0.000265582
0.000314202
-0.000315291
0.000284134
-0.000359804
0.00024838
-0.000398489
0.000207138
-0.000430657
0.000160406
-0.00045548
0.000108009
-0.000471879
4.96665e-05
-0.000478526
-1.51116e-05
-0.000473254
-8.71958e-05
-0.000453625
-0.000165961
-0.000416692
-0.000250619
-0.000359473
-0.000338567
-0.000280102
-0.000423748
-0.000180493
-0.000491786
-7.34148e-05
-0.000501961
-0.000327213
-3.94557e-05
0.000244728
-0.000103759
0.000399649
-0.000170815
0.000418757
-0.000235191
0.000402283
-0.000295444
0.000374456
-0.00035087
0.000339561
-0.000400947
0.000298457
-0.000445205
0.000251396
-0.00048312
0.000198321
-0.000513987
0.000138876
-0.00053675
7.24297e-05
-0.000550095
-1.76683e-06
-0.000551282
-8.60085e-05
-0.000537037
-0.000180207
-0.00050281
-0.000284846
-0.000443209
-0.000398168
-0.000353375
-0.000513582
-0.000233071
-0.000612089
-9.79522e-05
-0.00063708
-0.000425166
-4.43265e-05
0.000289055
-0.00011653
0.000471852
-0.000191461
0.000493688
-0.00026311
0.000473932
-0.000330061
0.000441407
-0.000391766
0.000401265
-0.000447924
0.000354615
-0.000498331
0.000301803
-0.000542757
0.000242746
-0.000580792
0.000176911
-0.000611635
0.000103273
-0.000633866
2.04639e-05
-0.000644955
-7.49189e-05
-0.000640472
-0.00018469
-0.000613969
-0.00031135
-0.000556556
-0.000455581
-0.000458132
-0.000612005
-0.000313065
-0.000757157
-0.000139091
-0.000811053
-0.000564257
-5.02726e-05
0.000339327
-0.000131868
0.000553447
-0.000215866
0.000577686
-0.000295624
0.000553691
-0.000369823
0.000515606
-0.000438163
0.000469606
-0.000500669
0.000417121
-0.000557527
0.000358661
-0.00060896
0.000294179
-0.000655067
0.000223018
-0.000695588
0.000143794
-0.000729434
5.43096e-05
-0.000754757
-4.95952e-05
-0.000766437
-0.00017301
-0.000756199
-0.000321588
-0.000710634
-0.000501146
-0.000611229
-0.00071141
-0.000441277
-0.000927109
-0.000214665
-0.00103766
-0.000778922
-5.77317e-05
0.000397059
-0.000150564
0.00064628
-0.000244916
0.000672038
-0.000333523
0.000642298
-0.000415303
0.000597386
-0.00049033
0.000544633
-0.000559075
0.000485866
-0.000622248
0.000421834
-0.000680691
0.000352623
-0.000735266
0.000277594
-0.000786648
0.000195176
-0.000834865
0.000102527
-0.000879279
-5.1811e-06
-0.000915759
-0.00013653
-0.000935328
-0.000302019
-0.000920123
-0.000516351
-0.000839956
-0.000791578
-0.000658695
-0.00110837
-0.000368836
-0.00132752
-0.00114776
-6.75397e-05
0.000464599
-0.000173949
0.000752689
-0.000279982
0.000778071
-0.000377985
0.000740301
-0.000467352
0.000686752
-0.000548693
0.000625973
-0.000623054
0.000560227
-0.000691785
0.000490564
-0.000756483
0.000417321
-0.000818996
0.000340107
-0.000881387
0.000257567
-0.000945662
0.000166801
-0.00101378
6.29362e-05
-0.00108539
-6.49232e-05
-0.00115397
-0.000233436
-0.0012014
-0.000468917
-0.00118524
-0.000807743
-0.0010362
-0.0012574
-0.000682169
-0.00168156
-0.00182993
-8.1362e-05
0.000545961
-0.000204493
0.00087582
-0.000323248
0.000896826
-0.000430713
0.000847766
-0.00052718
0.00078322
-0.000613925
0.000712718
-0.00069265
0.000638952
-0.00076541
0.000563324
-0.000834613
0.000486524
-0.00090323
0.000408725
-0.00097515
0.000329486
-0.00105538
0.000247028
-0.00114929
0.000156851
-0.00126309
4.88773e-05
-0.00140317
-9.33612e-05
-0.00156119
-0.000310893
-0.00168899
-0.000679946
-0.0016548
-0.00129159
-0.00123792
-0.00209844
-0.00306784
-9.93482e-05
0.000645309
-0.000243482
0.00101995
-0.000377026
0.00103037
-0.000494442
0.000965182
-0.000596985
0.000885762
-0.000687263
0.000802996
-0.000768149
0.000719838
-0.0008424
0.000637575
-0.000912964
0.000557088
-0.000983416
0.000479177
-0.00105885
0.000404916
-0.00114717
0.000335347
-0.00126148
0.000271163
-0.00142118
0.000208581
-0.00164825
0.000133704
-0.00196011
9.65216e-07
-0.00231791
-0.000322143
-0.00243834
-0.00117116
-0.00185878
-0.00267801
-0.00492662
-0.000156408
0.000801717
-0.000315076
0.00117862
-0.000451298
0.00116659
-0.000568748
0.00108263
-0.000672868
0.000989883
-0.000765108
0.000895236
-0.000847076
0.000801806
-0.000920711
0.00071121
-0.00098903
0.000625408
-0.001056
0.00054615
-0.0011282
0.000477116
-0.00121512
0.000422269
-0.00133422
0.000390257
-0.00151389
0.000388256
-0.00179741
0.000417218
-0.00220263
0.000406188
-0.0026909
0.00016613
-0.0028457
-0.00101636
-0.0019925
-0.0035312
-0.00691912
-0.000119574
0.000921291
-0.000347806
0.00140685
-0.000529697
0.00134848
-0.000672377
0.00122531
-0.000782817
0.00110032
-0.00086836
0.000980779
-0.000936192
0.000869638
-0.000991775
0.000766792
-0.00103962
0.000673249
-0.00108218
0.000588716
-0.00112431
0.000519241
-0.00117197
0.000469927
-0.00124039
0.000458678
-0.00135475
0.000502616
-0.00156626
0.000628732
-0.00187394
0.000713869
-0.00230157
0.000593756
-0.00237473
-0.000943198
-0.0014681
-0.00443783
-0.00838723
-0.000400453
0.00132174
-0.000542272
0.00154867
-0.000665251
0.00147146
-0.000773016
0.00133308
-0.000836517
0.00116382
-0.000867621
0.00101188
-0.000877371
0.000879387
-0.000872162
0.000761584
-0.000859297
0.000660384
-0.000839514
0.000568934
-0.000819681
0.000499407
-0.000796251
0.000446496
-0.000774669
0.000437097
-0.000741677
0.000469624
-0.000700447
0.000587501
-0.000630555
0.000643977
-0.000486718
0.000449919
-0.000490929
-0.000938987
-0.000159883
-0.00476888
-0.00854711
-0.00128814
0.00260989
-0.00121337
0.0014739
-0.000970087
0.00122818
-0.000635695
0.000998684
-0.000289718
0.000817847
4.25494e-05
0.000679616
0.000347502
0.000574434
0.00062345
0.000485636
0.000868555
0.000415278
0.00108597
0.000351524
0.00128474
0.000300629
0.00146451
0.000266729
0.00166712
0.00023449
0.00189406
0.000242678
0.00225901
0.000222551
0.0027211
0.000181891
0.00323842
-6.74058e-05
0.00332589
-0.00102645
0.00213564
-0.00357863
-0.00641147
0.00260989
0.00408378
0.00531197
0.00631065
0.0071285
0.00780811
0.00838255
0.00886818
0.00928346
0.00963499
0.00993561
0.0102023
0.0104368
0.0106795
0.0109021
0.011084
0.0110165
0.0099901
0.00641147
)
;

boundaryField
{
    movingWall
    {
        type            calculated;
        value           uniform 0;
    }
    fixedWalls
    {
        type            calculated;
        value           uniform 0;
    }
    frontAndBack
    {
        type            empty;
        value           nonuniform List<scalar> 0();
    }
}


// ************************************************************************* //
