/*--------------------------------*- C++ -*----------------------------------*\
  =========                 |
  \\      /  F ield         | OpenFOAM: The Open Source CFD Toolbox
   \\    /   O peration     | Website:  https://openfoam.org
    \\  /    A nd           | Version:  10
     \\/     M anipulation  |
\*---------------------------------------------------------------------------*/
FoamFile
{
    format      ascii;
    class       surfaceScalarField;
    location    "8.225";
    object      phi;
}
// * * * * * * * * * * * * * * * * * * * * * * * * * * * * * * * * * * * * * //

dimensions      [0 3 -1 0 0 0 0];

internalField   nonuniform List<scalar> 
760
(
-1.2386e-05
1.2386e-05
-3.99197e-05
2.75337e-05
-7.30273e-05
3.31076e-05
-0.000107884
3.48567e-05
-0.000143284
3.54e-05
-0.000178868
3.55838e-05
-0.000214278
3.54103e-05
-0.000248843
3.45644e-05
-0.000281432
3.2589e-05
-0.000310352
2.89202e-05
-0.000333271
2.29191e-05
-0.000347208
1.39372e-05
-0.000348675
1.46739e-06
-0.000333992
-1.46835e-05
-0.000300278
-3.37136e-05
-0.00024672
-5.35581e-05
-0.000176494
-7.02265e-05
-9.87727e-05
-7.7721e-05
-3.0166e-05
-6.86068e-05
-3.0166e-05
-2.95738e-05
4.19599e-05
-8.34373e-05
8.13971e-05
-0.000146289
9.59597e-05
-0.000211801
0.000100368
-0.000277529
0.000101128
-0.000342321
0.000100375
-0.000405111
9.82008e-05
-0.000464448
9.39016e-05
-0.000518267
8.6408e-05
-0.000563742
7.43944e-05
-0.000597201
5.6378e-05
-0.000614075
3.08114e-05
-0.000609695
-2.91256e-06
-0.000578589
-4.57891e-05
-0.000517033
-9.52703e-05
-0.000424319
-0.000146271
-0.000305604
-0.000188942
-0.000175206
-0.000208119
-5.86295e-05
-0.000185183
-8.87955e-05
-3.74037e-05
7.93636e-05
-0.000103547
0.000147541
-0.000179892
0.000172304
-0.000258884
0.000179359
-0.000337643
0.000179888
-0.000414795
0.000177527
-0.000489107
0.000172513
-0.000558981
0.000163775
-0.000622194
0.000149621
-0.000675711
0.000127911
-0.000715536
9.62029e-05
-0.000736801
5.20766e-05
-0.000733389
-6.32424e-06
-0.000698803
-8.03756e-05
-0.000627534
-0.00016654
-0.000517312
-0.000256492
-0.000373129
-0.000333125
-0.000212539
-0.000368709
-6.92192e-05
-0.000328503
-0.000158015
-4.04039e-05
0.000119767
-0.000111898
0.000219035
-0.000194172
0.000254578
-0.000279155
0.000264342
-0.00036396
0.000264693
-0.000447357
0.000260924
-0.000528326
0.000253482
-0.000605524
0.000240973
-0.000677001
0.000221098
-0.000739926
0.000190836
-0.000790267
0.000146544
-0.000822491
8.43007e-05
-0.000829957
1.14175e-06
-0.000803008
-0.000107325
-0.000732717
-0.000236831
-0.000612439
-0.00037677
-0.000444257
-0.000501307
-0.000249387
-0.000563579
-7.5558e-05
-0.000502332
-0.000233573
-4.12507e-05
0.000161018
-0.000115054
0.000292838
-0.000200182
0.000339706
-0.000288359
0.00035252
-0.000376886
0.00035322
-0.000464892
0.00034893
-0.000551829
0.000340419
-0.000636916
0.00032606
-0.00071881
0.000302992
-0.000795233
0.00026726
-0.000862457
0.000213767
-0.000914606
0.00013645
-0.000942787
2.93232e-05
-0.0009354
-0.000114712
-0.000876613
-0.000295618
-0.000751616
-0.000501767
-0.000554443
-0.00069848
-0.000306767
-0.000811255
-8.35512e-05
-0.000725548
-0.000317124
-4.12468e-05
0.000202265
-0.000116158
0.000367749
-0.000203006
0.000426554
-0.000293414
0.000442928
-0.000384954
0.000444761
-0.000477263
0.000441238
-0.000570471
0.000433627
-0.000664648
0.000420237
-0.000759452
0.000397795
-0.000853656
0.000361464
-0.000944425
0.000304537
-0.00102619
0.000218217
-0.00108901
9.21457e-05
-0.001118
-8.5731e-05
-0.00108934
-0.000324278
-0.000973824
-0.000617279
-0.000745268
-0.000927036
-0.00041296
-0.00114356
-0.000101135
-0.00103737
-0.000418259
-4.08594e-05
0.000243124
-0.000116364
0.000443254
-0.00020441
0.0005146
-0.000296515
0.000535034
-0.000390559
0.000538804
-0.000486779
0.000537458
-0.000586175
0.000533024
-0.000689979
0.000524041
-0.000799341
0.000507158
-0.000914854
0.000476977
-0.0010357
0.000425379
-0.00115819
0.000340713
-0.00127337
0.00020732
-0.00136728
8.18607e-06
-0.00140562
-0.000285944
-0.00133764
-0.000685252
-0.00109036
-0.00117432
-0.000628436
-0.00160549
-0.000153877
-0.00151193
-0.000572136
-4.02026e-05
0.000283327
-0.000115961
0.000519013
-0.000204739
0.000603377
-0.000297868
0.000628163
-0.000393514
0.000634451
-0.000492558
0.000636501
-0.000597001
0.000637467
-0.000709539
0.000636579
-0.00083339
0.000631009
-0.00097201
0.000615596
-0.00112846
0.000581827
-0.00130409
0.000516349
-0.00149639
0.000399619
-0.00169259
0.000204385
-0.00186527
-0.000113267
-0.00191821
-0.000632306
-0.00168532
-0.00140721
-0.00104941
-0.0022414
-0.00030626
-0.00225508
-0.000878396
-3.93356e-05
0.000322663
-0.000115065
0.000594742
-0.000204004
0.000692317
-0.000297154
0.000721313
-0.00039289
0.000730187
-0.000492703
0.000736314
-0.000599608
0.000744372
-0.000717889
0.000754859
-0.000853251
0.000766371
-0.00101305
0.000775399
-0.00120638
0.000775153
-0.00144395
0.000753923
-0.00173758
0.000693249
-0.00209204
0.000558845
-0.00247087
0.000265556
-0.00272062
-0.000382556
-0.00252799
-0.00159985
-0.00172744
-0.00304194
-0.000661697
-0.00332083
-0.00154009
-3.84283e-05
0.000361091
-0.000113992
0.000670306
-0.000202461
0.000780786
-0.000294302
0.000813154
-0.00038797
0.000823855
-0.000485434
0.000833777
-0.000590569
0.000849508
-0.000709092
0.000873382
-0.000849153
0.000906432
-0.0010224
0.000948651
-0.0012457
0.000998444
-0.00154339
0.00105161
-0.00194738
0.00109724
-0.00247979
0.00109126
-0.00307568
0.000861448
-0.00347982
2.15814e-05
-0.00334469
-0.00173497
-0.00254473
-0.00384191
-0.00126779
-0.00459776
-0.00280788
-3.78779e-05
0.000398969
-0.00011352
0.000745948
-0.000200978
0.000868243
-0.000289983
0.000902159
-0.000378891
0.000912763
-0.000469929
0.000924815
-0.000567442
0.000947021
-0.000677962
0.000983902
-0.000811247
0.00103972
-0.000982202
0.00111961
-0.00121413
0.00123038
-0.00154246
0.00137994
-0.00200999
0.00156477
-0.00262963
0.0017109
-0.00329034
0.00152216
-0.0037122
0.000443443
-0.00365439
-0.00179279
-0.00308743
-0.00440887
-0.00185312
-0.00583208
-0.004661
-3.85062e-05
0.000437475
-0.000115228
0.000822669
-0.000201403
0.000954419
-0.00028595
0.000986706
-0.000367116
0.000993928
-0.00044712
0.00100482
-0.000530168
0.00103007
-0.000622476
0.00107621
-0.000733424
0.00115067
-0.000877523
0.0012637
-0.00107728
0.00143013
-0.00136445
0.00166712
-0.00176972
0.00197004
-0.0022763
0.00221748
-0.0027731
0.00201895
-0.00307646
0.000746808
-0.00312016
-0.00174908
-0.00285962
-0.00466941
-0.00189908
-0.00679262
-0.00656008
-4.14096e-05
0.000478885
-0.000121242
0.000902502
-0.000206553
0.00103973
-0.000285468
0.00106562
-0.000356043
0.0010645
-0.000420308
0.00106908
-0.000481797
0.00109156
-0.000544894
0.00113931
-0.000615788
0.00122156
-0.000703416
0.00135133
-0.000820328
0.00154704
-0.000979458
0.00182625
-0.00118786
0.00217845
-0.00141757
0.00244719
-0.00162881
0.00223019
-0.00176589
0.000883887
-0.00188977
-0.00162521
-0.00196862
-0.00459056
-0.00148711
-0.00727413
-0.00804719
-5.031e-05
0.000529195
-0.00013745
0.000989641
-0.00022173
0.00112401
-0.00029235
0.00113624
-0.000349195
0.00112135
-0.000394343
0.00111423
-0.000429517
0.00112673
-0.000456513
0.0011663
-0.000476911
0.00124196
-0.000491637
0.00136606
-0.000500376
0.00155578
-0.000495519
0.00182139
-0.000466497
0.00214942
-0.000400618
0.00238131
-0.000337547
0.00216712
-0.000351926
0.000898265
-0.000552946
-0.00142419
-0.000985919
-0.00415758
-0.000995176
-0.00726487
-0.00904237
-6.17658e-05
0.00059096
-0.000160096
0.00108797
-0.000248099
0.00121201
-0.000315342
0.00120348
-0.000359434
0.00116544
-0.000383329
0.00113813
-0.000388887
0.00113229
-0.000376067
0.00115348
-0.0003425
0.00120839
-0.000282156
0.00130571
-0.000184168
0.00145779
-2.88864e-05
0.00166611
0.000201285
0.00191925
0.000497026
0.00208557
0.00077154
0.00189261
0.000817205
0.0008526
0.000496104
-0.00110309
-0.000236486
-0.003425
-0.000603438
-0.00689792
-0.0096458
-0.000129409
0.00072037
-0.000242199
0.00120076
-0.000314773
0.00128459
-0.00035539
0.0012441
-0.000373914
0.00118396
-0.000373685
0.0011379
-0.000353026
0.00111163
-0.000307408
0.00110787
-0.000230135
0.00113112
-0.000110903
0.00118648
6.58164e-05
0.00128107
0.000315639
0.00141629
0.000659316
0.00157558
0.00107745
0.00166744
0.00145449
0.00151557
0.00154609
0.000760994
0.00116816
-0.000725155
0.000301614
-0.00255845
-0.000271966
-0.00632434
-0.00991777
-8.36084e-05
0.000803978
-0.000261768
0.00137892
-0.000374299
0.00139712
-0.000428708
0.00129851
-0.000441324
0.00119658
-0.000422361
0.00111894
-0.000374276
0.00106354
-0.000294259
0.00102785
-0.000176194
0.00101305
-8.19647e-06
0.00101849
0.000221322
0.00105155
0.000529605
0.001108
0.000923545
0.00118164
0.00138051
0.00121048
0.00178932
0.00110675
0.00190236
0.000647958
0.00151858
-0.000341381
0.00069621
-0.00173608
0.000110515
-0.00573865
-0.00980725
-0.000379325
0.0011833
-0.000437556
0.00143715
-0.000486871
0.00144643
-0.000524912
0.00133655
-0.000515665
0.00118733
-0.000465123
0.0010684
-0.000376938
0.000975359
-0.000249291
0.000900201
-8.25478e-05
0.000846311
0.000130715
0.000805222
0.000395583
0.000786687
0.000723618
0.000779968
0.00111102
0.000794236
0.00152726
0.000794237
0.00191108
0.000722931
0.00207454
0.000484497
0.00195917
-0.000226015
0.00154943
-0.00132633
0.000863825
-0.00505304
-0.00894343
-0.00136265
0.00254596
-0.00132577
0.00140027
-0.00106706
0.00118772
-0.000696203
0.000965691
-0.000304901
0.000796031
9.0673e-05
0.000672821
0.000479375
0.000586657
0.000860427
0.000519148
0.00123607
0.000470673
0.00161142
0.00042987
0.0019943
0.0004038
0.00239141
0.000382865
0.00281873
0.000366911
0.00326697
0.000345998
0.00371852
0.000271387
0.00406382
0.000139188
0.00415435
-0.00031654
0.00398501
-0.001157
0.00252408
-0.00359211
-0.00641934
0.00254596
0.00394623
0.00513395
0.00609964
0.00689567
0.00756849
0.00815515
0.0086743
0.00914497
0.00957484
0.00997864
0.0103615
0.0107284
0.0110744
0.0113458
0.011485
0.0111685
0.0100115
0.00641934
)
;

boundaryField
{
    movingWall
    {
        type            calculated;
        value           uniform 0;
    }
    fixedWalls
    {
        type            calculated;
        value           uniform 0;
    }
    frontAndBack
    {
        type            empty;
        value           nonuniform List<scalar> 0();
    }
}


// ************************************************************************* //
