/*--------------------------------*- C++ -*----------------------------------*\
  =========                 |
  \\      /  F ield         | OpenFOAM: The Open Source CFD Toolbox
   \\    /   O peration     | Website:  https://openfoam.org
    \\  /    A nd           | Version:  10
     \\/     M anipulation  |
\*---------------------------------------------------------------------------*/
FoamFile
{
    format      ascii;
    class       volScalarField;
    location    "1";
    object      p;
}
// * * * * * * * * * * * * * * * * * * * * * * * * * * * * * * * * * * * * * //

dimensions      [0 2 -2 0 0 0 0];

internalField   nonuniform List<scalar> 
8000
(
9.73254e-10
4.18609e-05
0.000169575
0.000370746
0.000641352
0.000975041
0.00136379
0.00179819
0.00226761
0.00276041
0.00326415
0.00376584
0.00425215
0.0047098
0.00512586
0.00548817
0.00578577
0.0060095
0.00615304
0.00620221
-4.21916e-05
-1.38822e-07
0.000129221
0.000332768
0.0006066
0.000944348
0.00133793
0.00177787
0.00225344
0.0027529
0.00326369
0.00377266
0.00426633
0.00473119
0.00515407
0.00552254
0.00582538
0.0060532
0.00619959
0.00624949
-0.000173
-0.000129793
4.56975e-06
0.000216035
0.000500587
0.000851615
0.00126077
0.00171826
0.00221304
0.00273303
0.0032653
0.00379619
0.00431176
0.00479793
0.00524086
0.0056274
0.00594556
0.00618521
0.00633939
0.00639172
-0.0003871
-0.000341536
-0.000198913
2.56076e-05
0.000327768
0.000700558
0.00113516
0.00162128
0.00214734
0.00270069
0.00326779
0.00383432
0.00438552
0.00490638
0.00538203
0.00579813
0.00614143
0.00640056
0.00656758
0.00662438
-0.000690211
-0.000641179
-0.000486787
-0.00024372
8.33914e-05
0.000486938
0.000957422
0.00148384
0.00205388
0.00265412
0.00327019
0.00388692
0.00448843
0.00505849
0.00558074
0.00603916
0.00641865
0.00670599
0.00689171
0.00695522
-0.00109029
-0.00103662
-0.000866612
-0.000599002
-0.000238971
0.000205034
0.000722594
0.00130176
0.00192929
0.00259081
0.00327099
0.00395357
0.00462137
0.0052566
0.00584102
0.00635632
0.00678486
0.00711075
0.00732221
0.00739511
-0.00159768
-0.0015381
-0.00134814
-0.0010493
-0.000647524
-0.000152424
0.000424367
0.00106971
0.00176921
0.00250743
0.00326795
0.00403336
0.004785
0.00550327
0.00616762
0.00675684
0.00724984
0.00762693
0.00787296
0.00795874
-0.00222571
-0.00215875
-0.00194382
-0.00160605
-0.00115255
-0.000594475
5.49339e-05
0.000781048
0.00156816
0.00239965
0.00325798
0.00412465
0.0049795
0.00580099
0.00656586
0.00724934
0.00782577
0.00827016
0.00856225
0.00866569
-0.00299126
-0.00291513
-0.00266918
-0.00228342
-0.00176658
-0.00113201
-0.000395038
0.000427861
0.00131948
0.00226198
0.00323685
0.0042247
0.00520411
0.00615162
0.00704112
0.00784355
0.00852735
0.00906014
0.00941397
0.0095419
-0.00391562
-0.003828
-0.0035435
-0.00309862
-0.00250459
-0.0017778
-0.000936355
9.87174e-07
0.00101533
0.00208774
0.00319895
0.0043292
0.00545637
0.00655559
0.00759794
0.0085496
0.00937161
0.0100213
0.0104589
0.010622
-0.00502596
-0.00492346
-0.00459058
-0.00407245
-0.00338416
-0.00254643
-0.00158109
-0.000509723
0.000646928
0.001869
0.00313704
0.00443174
0.00573128
0.00701053
0.00823861
0.00937679
0.0103773
0.0111835
0.0117371
0.0119529
-0.00635755
-0.00623466
-0.00584003
-0.00522986
-0.00442557
-0.00345404
-0.00234209
-0.00111484
0.000204957
0.0015969
0.00304217
0.00452318
0.00602012
0.00750955
0.00896065
0.0103311
0.0115631
0.0125824
0.0133006
0.0136005
-0.00795786
-0.00780443
-0.00732907
-0.0066007
-0.00565176
-0.00451764
-0.00323189
-0.00182415
-0.000319343
0.00126228
0.00290391
0.00459116
0.00630902
0.00803886
0.00975349
0.0114105
0.012944
0.0142585
0.0152166
0.0156597
-0.00989483
-0.00968986
-0.00910534
-0.00822055
-0.00708779
-0.00575354
-0.00426083
-0.00264488
-0.000932546
0.000857034
0.0027112
0.00461994
0.00657752
0.0085745
0.0105933
0.0125984
0.0145223
0.0162545
0.017572
0.0182727
-0.0122556
-0.0119657
-0.0112306
-0.0101313
-0.00875911
-0.0071749
-0.0054345
-0.00357908
-0.00163675
0.000375983
0.00245211
0.00459092
0.0067979
0.00907932
0.0114361
0.013852
0.0162727
0.0186048
0.0204606
0.0216848
-0.0153017
-0.0147756
-0.0137981
-0.0123813
-0.0106883
-0.0087872
-0.00674866
-0.00461893
-0.00242534
-0.000179475
0.00211993
0.00448471
0.00693511
0.00949982
0.0122093
0.0150845
0.0181058
0.021284
0.0239296
0.0263013
-0.0186355
-0.0180764
-0.0168506
-0.0150044
-0.0128831
-0.0105788
-0.00818181
-0.00574068
-0.00327833
-0.000797433
0.0017155
0.00428599
0.00695072
0.00976419
0.0127939
0.016119
0.0197777
0.0241428
0.0277609
0.0326813
-0.0257258
-0.0225432
-0.0207626
-0.0180783
-0.0153224
-0.0124915
-0.00966712
-0.00688312
-0.00414574
-0.00144117
0.00126052
0.00400806
0.00683393
0.00985074
0.0131896
0.0170807
0.0216007
0.0278543
0.0333793
0.0427243
-0.030205
-0.0283549
-0.0254668
-0.0219121
-0.0182146
-0.0146079
-0.0112184
-0.00803259
-0.00500787
-0.00209836
0.000743765
0.00356925
0.00646117
0.0094751
0.0126768
0.0164538
0.01993
0.0281071
0.031452
0.0514338
-0.0569251
-0.0311291
-0.02831
-0.0235891
-0.019215
-0.0153705
-0.0118285
-0.00851118
-0.00538471
-0.00240041
0.000496377
0.00336627
0.00628204
0.00939004
0.0128409
0.0174732
0.023177
0.0355039
0.0498149
0.0957334
6.4929e-07
3.96502e-05
0.000167017
0.00036811
0.000638881
0.000972882
0.00136204
0.00179692
0.00226688
0.00276027
0.00326462
0.00376693
0.00425388
0.00471214
0.00512876
0.00549154
0.00578944
0.00601321
0.00615643
0.00620264
-3.85964e-05
4.9849e-07
0.000129411
0.000332656
0.000606369
0.000944099
0.00133772
0.00177773
0.00225341
0.00275302
0.00326397
0.00377313
0.00426701
0.00473208
0.00515516
0.00552378
0.00582667
0.0060543
0.00620028
0.00624706
-0.000168542
-0.000128497
5.36547e-06
0.000216484
0.00050086
0.000851803
0.00126092
0.0017184
0.00221321
0.00273325
0.0032656
0.00379661
0.00431231
0.00479862
0.00524168
0.00562832
0.00594647
0.0061859
0.0063396
0.00638858
-0.00038193
-0.000339763
-0.000197686
2.64438e-05
0.000328389
0.000701049
0.00113556
0.00162163
0.00214767
0.00270103
0.00326816
0.00383477
0.00438606
0.00490703
0.00538279
0.00579896
0.00614223
0.00640109
0.00656759
0.00662077
-0.000684289
-0.00063897
-0.000485176
-0.000242545
8.43157e-05
0.0004877
0.000958068
0.0014844
0.00205439
0.00265461
0.00327071
0.00388748
0.00448907
0.00505923
0.00558159
0.00604007
0.00641953
0.00670657
0.0068917
0.0069512
-0.00108345
-0.00103392
-0.000864571
-0.000597454
-0.000237713
0.000206097
0.000723513
0.00130257
0.00193003
0.00259151
0.0032717
0.00395431
0.00462219
0.00525753
0.00584206
0.00635745
0.00678596
0.00711151
0.00732231
0.00739069
-0.00158968
-0.00153476
-0.00134555
-0.00104727
-0.000645843
-0.00015098
0.000425629
0.00107083
0.00177024
0.00250841
0.00326892
0.00403435
0.00478608
0.00550448
0.00616896
0.00675831
0.00725129
0.00762804
0.00787333
0.0079539
-0.00221616
-0.00215455
-0.00194047
-0.00160339
-0.00115031
-0.000592535
5.66378e-05
0.000782568
0.00156955
0.00240096
0.00325927
0.00412597
0.00498091
0.00580255
0.00656762
0.00725129
0.00782776
0.00827181
0.00856312
0.00866042
-0.00297962
-0.00290972
-0.00266479
-0.00227987
-0.00176358
-0.00112942
-0.00039277
0.000429874
0.0013213
0.00226369
0.00323853
0.0042264
0.00520593
0.00615364
0.00704342
0.00784614
0.00853011
0.0090626
0.00941553
0.00953625
-0.0039011
-0.00382085
-0.0035376
-0.00309383
-0.00250056
-0.00177435
-0.000933381
3.59408e-06
0.00101767
0.0020899
0.00320106
0.00433134
0.00545865
0.00655816
0.00760092
0.00855307
0.00937546
0.010025
0.0104617
0.0106162
-0.0050073
-0.00491371
-0.0045825
-0.00406592
-0.00337875
-0.0025419
-0.00157726
-0.000506442
0.000649813
0.00187163
0.00313959
0.00443431
0.00573406
0.0070137
0.00824239
0.00938138
0.0103827
0.0111892
0.011742
0.0119476
-0.00633272
-0.0062209
-0.00582873
-0.00522086
-0.00441833
-0.00344818
-0.00233731
-0.00111088
0.000208342
0.00159992
0.00304505
0.00452609
0.00602334
0.0075133
0.0089653
0.010337
0.0115706
0.012591
0.0133088
0.0135972
-0.00792327
-0.0077842
-0.00731289
-0.00658824
-0.00564221
-0.00451032
-0.00322623
-0.00181969
-0.000315698
0.0012654
0.00290673
0.00459406
0.0063123
0.0080429
0.00975882
0.0114179
0.0129541
0.0142717
0.0152302
0.0156624
-0.00984415
-0.00965888
-0.00908184
-0.00820342
-0.00707564
-0.00574501
-0.00425481
-0.00264053
-0.000929271
0.000859528
0.00271286
0.0046221
0.00658013
0.00857801
0.0105984
0.0126064
0.0145348
0.0162742
0.0175942
0.0182889
-0.0121724
-0.0119148
-0.011196
-0.0101085
-0.00874508
-0.00716655
-0.00542968
-0.00357638
-0.00163531
0.000376649
0.00245261
0.00459089
0.00679792
0.00907988
0.0114382
0.0138578
0.0162851
0.018633
0.0204956
0.0217337
-0.0151794
-0.014697
-0.0137518
-0.0123548
-0.0106765
-0.00878349
-0.00674921
-0.00462148
-0.00242876
-0.000183324
0.00211574
0.00447993
0.00692953
0.00949325
0.0122021
0.0150785
0.0181048
0.0213123
0.0239667
0.0264183
-0.0183391
-0.0179291
-0.0167855
-0.0149827
-0.0128867
-0.0105917
-0.00819726
-0.00575574
-0.00329224
-0.000810477
0.00170238
0.00427148
0.00693323
0.00974093
0.0127608
0.0160736
0.0197123
0.0241285
0.0277411
0.0329506
-0.0253062
-0.0222877
-0.0207157
-0.0181039
-0.0153818
-0.0125521
-0.00971993
-0.00692674
-0.00418202
-0.00147291
0.00123025
0.00397487
0.00679452
0.00979813
0.0131125
0.0169776
0.0214268
0.0277488
0.0332171
0.043017
-0.0292707
-0.0283717
-0.0257129
-0.0222346
-0.0185072
-0.0148267
-0.0113768
-0.00814875
-0.00509657
-0.00217109
0.000676977
0.00349969
0.0063721
0.00934644
0.0124496
0.0161367
0.0191707
0.0274729
0.0300129
0.0517405
-0.0554833
-0.0304309
-0.0282561
-0.0238123
-0.0194328
-0.0155559
-0.0119799
-0.00862969
-0.00547972
-0.00248247
0.000417037
0.00327877
0.00616552
0.00922688
0.0125562
0.0171063
0.0225007
0.0351231
0.0505295
0.0987854
1.38128e-06
3.98551e-05
0.000167031
0.000367989
0.0006387
0.000972699
0.0013619
0.00179686
0.00226693
0.00276045
0.00326497
0.00376745
0.00425457
0.00471299
0.00512975
0.00549262
0.00579055
0.00601423
0.0061573
0.00620294
-3.72411e-05
1.24862e-06
0.000129943
0.000333017
0.00060663
0.000944294
0.00133789
0.0017779
0.0022536
0.00275326
0.00326428
0.00377353
0.0042675
0.00473266
0.00515581
0.00552446
0.00582732
0.00605484
0.00620064
0.00624684
-0.000166811
-0.000127417
6.2012e-06
0.000217104
0.000501334
0.000852177
0.00126123
0.00171868
0.00221348
0.00273354
0.00326594
0.003797
0.00431276
0.00479913
0.00524224
0.00562889
0.005947
0.00618628
0.00633979
0.00638813
-0.000379785
-0.000338326
-0.000196523
2.73529e-05
0.000329113
0.000701638
0.00113606
0.00162206
0.00214806
0.00270141
0.00326855
0.00383517
0.00438651
0.00490752
0.00538331
0.00579948
0.00614268
0.00640139
0.00656767
0.00662015
-0.000681673
-0.00063714
-0.000483658
-0.000241324
8.53114e-05
0.000488522
0.000958756
0.00148499
0.00205491
0.00265509
0.00327117
0.00388794
0.00448956
0.00505975
0.00558212
0.0060406
0.00641999
0.00670686
0.00689176
0.00695048
-0.00108026
-0.00103161
-0.000862629
-0.000595865
-0.000236402
0.000207186
0.000724422
0.00130334
0.00193069
0.00259211
0.00327225
0.00395486
0.00462275
0.00525812
0.00584267
0.00635806
0.0067865
0.00711188
0.00732242
0.00738992
-0.00158574
-0.00153185
-0.00134307
-0.00104522
-0.000644143
-0.00014957
0.000426799
0.00107181
0.00177106
0.00250913
0.00326958
0.00403499
0.00478672
0.00550516
0.00616969
0.00675905
0.00725199
0.00762855
0.00787357
0.00795315
-0.00221123
-0.00215082
-0.00193727
-0.00160073
-0.00114811
-0.000590731
5.81149e-05
0.000783779
0.00157055
0.00240181
0.00326003
0.00412669
0.00498164
0.00580334
0.00656848
0.00725221
0.00782868
0.00827257
0.00856357
0.00865977
-0.00297332
-0.00290487
-0.00266062
-0.00227642
-0.00176076
-0.00112713
-0.00039094
0.000431334
0.00132247
0.00226465
0.00323935
0.00422717
0.00520671
0.00615451
0.00704441
0.00784728
0.00853133
0.00906374
0.00941643
0.00953586
-0.0038929
-0.00381443
-0.00353211
-0.00308934
-0.00249694
-0.0017715
-0.000931168
5.28703e-06
0.00101896
0.00209089
0.00320186
0.00433205
0.00545939
0.00655902
0.007602
0.00855443
0.00937707
0.0100267
0.0104633
0.0106163
-0.00499638
-0.00490506
-0.00457518
-0.00406003
-0.00337414
-0.0025384
-0.00157468
-0.000504592
0.0006511
0.00187251
0.00314019
0.00443478
0.00573454
0.00701437
0.0082434
0.00938289
0.0103847
0.0111916
0.0117445
0.0119487
-0.00631781
-0.00620902
-0.00581885
-0.00521315
-0.00441255
-0.00344403
-0.00233448
-0.00110906
0.000209386
0.0016004
0.00304516
0.00452601
0.0060232
0.00751345
0.00896593
0.0103384
0.011573
0.0125945
0.0133128
0.0136
-0.00790235
-0.00776754
-0.00729948
-0.0065782
-0.00563514
-0.00450566
-0.00322345
-0.0018183
-0.000315333
0.00126505
0.00290588
0.00459299
0.00631115
0.00804194
0.0097584
0.0114186
0.0129565
0.0142763
0.0152364
0.0156681
-0.00981403
-0.00963513
-0.00906356
-0.00819056
-0.00706741
-0.00574035
-0.00425275
-0.00264028
-0.000930278
0.000857743
0.00271043
0.00461931
0.00657709
0.00857496
0.0105958
0.0126051
0.0145362
0.0162798
0.0176033
0.0183007
-0.0121272
-0.0118801
-0.0111711
-0.0100926
-0.00873646
-0.00716308
-0.00542961
-0.00357841
-0.00163861
0.000372569
0.00244799
0.00458546
0.00679178
0.00907319
0.0114315
0.0138522
0.0162827
0.0186384
0.0205079
0.0217564
-0.0151146
-0.0146472
-0.0137193
-0.0123369
-0.0106696
-0.00878363
-0.00675335
-0.00462773
-0.00243614
-0.00019144
0.00210686
0.00446992
0.006918
0.00947995
0.0121873
0.0150638
0.018093
0.0213135
0.023979
0.0264596
-0.0182305
-0.0178544
-0.0167432
-0.0149652
-0.0128858
-0.0105999
-0.00820973
-0.00576973
-0.0033066
-0.000825111
0.00168693
0.00425425
0.00691295
0.00971611
0.0127303
0.0160386
0.0196735
0.0241122
0.0277361
0.0330246
-0.0251441
-0.0221778
-0.0206684
-0.0180938
-0.0153952
-0.0125756
-0.00974625
-0.00695262
-0.00420662
-0.00149676
0.00120588
0.00394846
0.00676293
0.009759
0.0130635
0.0169225
0.0213616
0.0277177
0.03321
0.0431198
-0.0290249
-0.0282735
-0.0256953
-0.0222695
-0.0185643
-0.0148846
-0.0114288
-0.00819394
-0.00513627
-0.0022077
0.000640246
0.00345853
0.00632182
0.00928005
0.0123523
0.0160203
0.0189626
0.02733
0.0297763
0.0518462
-0.0551241
-0.0302444
-0.0282001
-0.0238334
-0.0194775
-0.0156074
-0.0120305
-0.00867596
-0.00552192
-0.00252273
0.000375353
0.00323119
0.00610519
0.00914753
0.0124445
0.0169757
0.0223391
0.0350729
0.0507072
0.0994051
2.18037e-06
4.02105e-05
0.000167176
0.000367982
0.000638621
0.000972607
0.00136184
0.00179687
0.00226704
0.00276068
0.00326533
0.00376796
0.00425522
0.00471378
0.00513066
0.0054936
0.00579153
0.00601514
0.00615804
0.00620324
-3.5974e-05
2.07797e-06
0.000130549
0.00033344
0.000606927
0.000944522
0.00133809
0.0017781
0.00225384
0.00275355
0.00326464
0.00377397
0.00426802
0.00473326
0.00515646
0.00552515
0.00582798
0.00605539
0.00620099
0.00624672
-0.000165174
-0.000126249
7.12286e-06
0.000217819
0.000501898
0.000852635
0.00126162
0.00171903
0.00221382
0.00273389
0.00326631
0.00379741
0.00431323
0.00479965
0.0052428
0.00562945
0.00594751
0.00618666
0.00633996
0.00638781
-0.000377745
-0.000336796
-0.000195269
2.83658e-05
0.000329938
0.000702318
0.00113663
0.00162255
0.0021485
0.00270183
0.00326897
0.00383561
0.00438697
0.00490802
0.00538383
0.00579999
0.00614313
0.00640169
0.00656773
0.00661968
-0.000679165
-0.000635196
-0.000482031
-0.000239982
8.642e-05
0.000489441
0.000959523
0.00148564
0.00205547
0.0026556
0.00327165
0.00388842
0.00449005
0.00506026
0.00558266
0.00604112
0.00642043
0.00670714
0.00689178
0.00694991
-0.00107718
-0.00102916
-0.000860551
-0.000594132
-0.000234961
0.000208381
0.000725413
0.00130417
0.00193139
0.00259272
0.00327281
0.0039554
0.00462329
0.00525869
0.00584326
0.00635864
0.00678701
0.00711222
0.00732248
0.00738932
-0.00158191
-0.00152875
-0.00134041
-0.001043
-0.000642295
-0.000148046
0.00042805
0.00107283
0.00177191
0.00250985
0.00327022
0.0040356
0.00478733
0.00550579
0.00617036
0.00675973
0.00725263
0.00762904
0.00787375
0.00795258
-0.0022064
-0.00214685
-0.00193387
-0.00159788
-0.00114575
-0.000588808
5.96656e-05
0.000785022
0.00157155
0.00240263
0.00326074
0.00412734
0.0049823
0.00580404
0.00656925
0.00725304
0.00782951
0.00827326
0.00856397
0.00865931
-0.00296715
-0.00289973
-0.00265621
-0.00227275
-0.00175776
-0.00112473
-0.000389053
0.000432798
0.0013236
0.00226554
0.00324008
0.00422782
0.00520737
0.00615524
0.00704527
0.00784828
0.00853242
0.00906475
0.00941718
0.00953565
-0.00388486
-0.00380768
-0.00352634
-0.00308459
-0.00249314
-0.00176854
-0.000928926
6.94349e-06
0.00102016
0.00209176
0.00320251
0.00433261
0.00545995
0.0065597
0.00760289
0.00855559
0.00937846
0.0100282
0.0104646
0.0106165
-0.0049857
-0.00489606
-0.00456756
-0.00405388
-0.00336936
-0.00253483
-0.00157211
-0.00050283
0.000652244
0.0018732
0.00314059
0.00443504
0.0057348
0.00701479
0.00824416
0.00938409
0.0103864
0.0111937
0.0117467
0.0119498
-0.00630333
-0.0061968
-0.00580871
-0.00520519
-0.00440662
-0.00343984
-0.00233171
-0.00110739
0.000210233
0.00160064
0.00304497
0.00452559
0.00602278
0.00751319
0.00896613
0.0103394
0.0115749
0.0125974
0.0133163
0.0136027
-0.00788228
-0.00775071
-0.00728589
-0.00656799
-0.00562797
-0.00450102
-0.00322079
-0.00181711
-0.000315215
0.00126435
0.00290457
0.00459132
0.00630935
0.0080403
0.00975734
0.0114186
0.0129582
0.01428
0.0152416
0.0156737
-0.00978558
-0.00961162
-0.00904537
-0.00817768
-0.00705916
-0.00573576
-0.00425084
-0.00264027
-0.000931632
0.000855342
0.00270721
0.00461557
0.00657297
0.00857078
0.0105922
0.0126028
0.0145364
0.0162841
0.0176109
0.0183112
-0.0120858
-0.0118468
-0.0111469
-0.010077
-0.00872787
-0.00715965
-0.00542969
-0.00358084
-0.00164261
0.000367428
0.00244196
0.00457846
0.0067839
0.00906465
0.0114229
0.0138448
0.0162788
0.0186418
0.0205178
0.021776
-0.0150556
-0.0146005
-0.0136881
-0.0123194
-0.0106626
-0.00878363
-0.00675762
-0.00463451
-0.00244444
-0.000200853
0.00209634
0.00445802
0.00690434
0.00946436
0.0121702
0.0150465
0.0180789
0.0213116
0.0239879
0.0264952
-0.0181351
-0.0177857
-0.0167037
-0.0149484
-0.0128847
-0.0106073
-0.00822152
-0.00578352
-0.00332135
-0.000840624
0.00167024
0.0042355
0.006891
0.00968977
0.0126988
0.0160031
0.0196357
0.0240932
0.0277286
0.033086
-0.0250121
-0.0220846
-0.0206248
-0.0180843
-0.0154068
-0.0125964
-0.00977009
-0.00697666
-0.00423012
-0.00152012
0.00118161
0.00392218
0.00673142
0.00972045
0.0130163
0.0168698
0.0213027
0.0276884
0.0332028
0.0432184
-0.0288352
-0.0281753
-0.0256672
-0.0222885
-0.0186062
-0.0149307
-0.0114723
-0.00823315
-0.00517182
-0.00224137
0.000605805
0.00341945
0.00627455
0.00921838
0.0122654
0.0159134
0.0187886
0.0272086
0.0296051
0.0519666
-0.054835
-0.0300664
-0.0281288
-0.0238402
-0.0195148
-0.0156536
-0.012077
-0.0087191
-0.00556149
-0.00256047
0.000336616
0.00318768
0.006052
0.00907975
0.0123532
0.0168693
0.0222079
0.0350184
0.0507773
0.0998355
2.99854e-06
4.08682e-05
0.000167715
0.000368413
0.000638965
0.000972892
0.0013621
0.00179712
0.0022673
0.00276098
0.00326568
0.00376837
0.0042557
0.00471432
0.00513124
0.00549419
0.00579211
0.00601566
0.00615847
0.00620352
-3.49439e-05
2.92984e-06
0.000131263
0.000334025
0.000607406
0.000944922
0.00133843
0.00177842
0.00225415
0.00275387
0.00326499
0.00377436
0.00426845
0.00473373
0.00515696
0.00552565
0.00582845
0.00605579
0.00620129
0.00624688
-0.000163892
-0.000125162
8.05359e-06
0.000218596
0.000502544
0.000853175
0.00126208
0.00171944
0.00221419
0.00273425
0.00326668
0.0037978
0.00431365
0.00480009
0.00524325
0.0056299
0.00594791
0.00618699
0.00634018
0.00638787
-0.000376141
-0.000335408
-0.000194063
2.93876e-05
0.000330796
0.000703038
0.00113723
0.00162307
0.00214896
0.00270225
0.00326937
0.00383601
0.00438738
0.00490844
0.00538426
0.0058004
0.00614349
0.00640196
0.00656789
0.00661967
-0.00067716
-0.000633436
-0.000480487
-0.000238663
8.75325e-05
0.000490372
0.000960301
0.00148629
0.00205603
0.00265608
0.00327209
0.00388885
0.00449047
0.00506069
0.00558308
0.00604153
0.00642079
0.00670741
0.00689193
0.00694986
-0.00107466
-0.00102694
-0.000858585
-0.000592446
-0.00023354
0.000209563
0.000726388
0.00130497
0.00193205
0.00259328
0.0032733
0.00395585
0.00462374
0.00525913
0.0058437
0.00635907
0.0067874
0.00711251
0.00732265
0.00738929
-0.00157873
-0.00152591
-0.00133791
-0.00104085
-0.000640494
-0.000146564
0.000429251
0.0010738
0.00177269
0.00251048
0.00327075
0.00403606
0.00478777
0.00550624
0.00617082
0.00676021
0.00725308
0.00762938
0.007874
0.0079526
-0.00220235
-0.00214322
-0.00193066
-0.00159514
-0.00114348
-0.00058697
6.1121e-05
0.000786152
0.00157242
0.0024033
0.00326126
0.00412778
0.00498271
0.00580446
0.00656972
0.00725356
0.00783005
0.00827376
0.00856438
0.00865948
-0.00296192
-0.00289504
-0.00265208
-0.00226926
-0.00175491
-0.00112248
-0.000387326
0.000434078
0.00132452
0.00226618
0.00324053
0.00422815
0.00520766
0.00615557
0.00704568
0.00784881
0.00853306
0.00906544
0.00941782
0.00953606
-0.00387803
-0.00380154
-0.00352098
-0.00308013
-0.00248958
-0.00176582
-0.000926933
8.32281e-06
0.00102104
0.00209227
0.00320275
0.00433268
0.00545997
0.00655977
0.00760311
0.00855602
0.00937917
0.0100291
0.0104656
0.0106174
-0.00497666
-0.00488795
-0.00456058
-0.00404819
-0.00336496
-0.0025316
-0.00156991
-0.000501467
0.000652933
0.00187338
0.0031404
0.00443463
0.00573432
0.00701439
0.00824398
0.00938429
0.0103871
0.0111949
0.0117482
0.0119513
-0.0062912
-0.006186
-0.00579957
-0.00519797
-0.00440127
-0.00343616
-0.00232943
-0.00110626
0.000210463
0.00160019
0.00304405
0.00452438
0.00602145
0.00751193
0.00896519
0.010339
0.0115754
0.0125988
0.0133184
0.0136051
-0.00786581
-0.00773619
-0.00727394
-0.0065589
-0.00562161
-0.00449704
-0.00321874
-0.00181659
-0.000315852
0.00126286
0.00290245
0.00458879
0.0063066
0.00803758
0.00975499
0.011417
0.0129579
0.0142814
0.0152447
0.0156777
-0.00976301
-0.009592
-0.00902978
-0.00816644
-0.00705193
-0.00573187
-0.00424956
-0.00264094
-0.000933708
0.000852206
0.0027032
0.00461098
0.00656796
0.00856561
0.0105873
0.012599
0.0145345
0.0162851
0.0176149
0.0183178
-0.0120546
-0.0118202
-0.0111268
-0.0100635
-0.00872023
-0.0071566
-0.00543004
-0.00358353
-0.00164697
0.000361852
0.00243543
0.00457094
0.00677551
0.00905567
0.0114139
0.0138369
0.0162735
0.0186413
0.0205225
0.0217868
-0.0150133
-0.0145649
-0.0136627
-0.0123039
-0.0106555
-0.00878267
-0.00676084
-0.00464043
-0.00245216
-0.000209924
0.00208604
0.00444637
0.0068912
0.00944976
0.0121547
0.0150315
0.0180669
0.0213076
0.0239921
0.0265127
-0.0180753
-0.0177376
-0.016672
-0.0149318
-0.0128796
-0.0106102
-0.00822933
-0.00579417
-0.0033337
-0.000854274
0.00165519
0.0042186
0.00687161
0.00966744
0.0126736
0.0159768
0.0196109
0.0240805
0.0277266
0.0331131
-0.0249327
-0.0220225
-0.020588
-0.0180681
-0.0154057
-0.012605
-0.00978407
-0.00699327
-0.00424804
-0.00153909
0.00116124
0.00389995
0.00670538
0.00969001
0.0129817
0.0168341
0.0212688
0.0276727
0.0332055
0.0432628
-0.0287364
-0.0281041
-0.0256281
-0.0222766
-0.0186132
-0.014948
-0.0114942
-0.00825674
-0.00519593
-0.00226615
0.000579307
0.00338912
0.006239
0.00917492
0.0122107
0.0158521
0.018709
0.0271589
0.0295577
0.0520163
-0.0546991
-0.0299707
-0.0280771
-0.0238253
-0.0195203
-0.0156714
-0.0121006
-0.00874485
-0.00558793
-0.00258769
0.000307464
0.00315468
0.00601299
0.00903279
0.0122964
0.0168083
0.022146
0.034994
0.0507969
0.0999715
3.76303e-06
4.15407e-05
0.000168295
0.000368899
0.000639372
0.000973239
0.0013624
0.0017974
0.00226758
0.00276127
0.003266
0.00376872
0.00425608
0.00471473
0.00513167
0.00549463
0.00579253
0.00601603
0.00615878
0.00620376
-3.40532e-05
3.7276e-06
0.000131961
0.000334621
0.000607911
0.000945352
0.00133881
0.00177875
0.00225447
0.00275418
0.00326531
0.0037747
0.00426881
0.00473411
0.00515736
0.00552604
0.00582881
0.0060561
0.00620155
0.00624705
-0.000162811
-0.000124181
8.9229e-06
0.000219347
0.000503184
0.00085372
0.00126254
0.00171984
0.00221456
0.0027346
0.00326702
0.00379815
0.004314
0.00480045
0.00524362
0.00563025
0.00594824
0.00618726
0.00634038
0.00638798
-0.000374798
-0.000334179
-0.000192965
3.03432e-05
0.000331614
0.000703731
0.00113782
0.00162357
0.0021494
0.00270264
0.00326973
0.00383636
0.00438773
0.00490879
0.0053846
0.00580073
0.00614379
0.0064022
0.00656806
0.00661973
-0.00067548
-0.000631888
-0.000479096
-0.000237449
8.85704e-05
0.000491247
0.000961031
0.0014869
0.00205654
0.00265652
0.00327249
0.00388921
0.00449082
0.00506104
0.00558342
0.00604186
0.00642108
0.00670764
0.00689208
0.00694992
-0.00107255
-0.00102498
-0.000856822
-0.000590908
-0.000232231
0.000210656
0.000727286
0.0013057
0.00193265
0.00259377
0.00327372
0.00395622
0.00462408
0.00525947
0.00584404
0.0063594
0.00678771
0.00711277
0.00732283
0.00738935
-0.00157605
-0.00152342
-0.00133567
-0.0010389
-0.000638851
-0.000145212
0.000430339
0.00107465
0.00177336
0.002511
0.00327116
0.00403642
0.0047881
0.00550656
0.00617115
0.00676055
0.00725341
0.0076297
0.00787424
0.00795273
-0.00219892
-0.00214003
-0.0019278
-0.00159268
-0.00114143
-0.000585313
6.24176e-05
0.000787136
0.00157314
0.00240382
0.00326164
0.00412807
0.00498297
0.00580472
0.00657001
0.00725389
0.00783042
0.00827414
0.00856471
0.0086597
-0.0029575
-0.00289093
-0.00264842
-0.00226614
-0.00175235
-0.00112047
-0.000385813
0.000435164
0.00132526
0.00226664
0.00324079
0.0042283
0.00520776
0.00615568
0.00704587
0.0078491
0.00853345
0.00906591
0.0094183
0.00953645
-0.00387227
-0.00379621
-0.00351628
-0.00307618
-0.00248643
-0.00176342
-0.00092522
9.45494e-06
0.0010217
0.00209256
0.00320277
0.00433254
0.00545978
0.00655961
0.00760308
0.00855618
0.00937955
0.0100297
0.0104662
0.010618
-0.00496911
-0.004881
-0.00455452
-0.00404322
-0.00336111
-0.00252881
-0.00156805
-0.000500396
0.000653371
0.00187332
0.00313999
0.00443401
0.00573361
0.00701372
0.0082435
0.00938414
0.0103874
0.0111956
0.0117491
0.0119523
-0.00628122
-0.00617687
-0.00579177
-0.00519173
-0.00439663
-0.00343301
-0.00232756
-0.00110544
0.000210454
0.00159954
0.00304292
0.00452294
0.00601987
0.0075104
0.00896392
0.0103382
0.0115753
0.0125994
0.0133197
0.0136067
-0.00785255
-0.00772419
-0.0072639
-0.00655116
-0.00561617
-0.00449365
-0.00321708
-0.00181631
-0.000316642
0.00126124
0.00290019
0.0045861
0.00630368
0.00803466
0.00975238
0.0114151
0.0129571
0.0142819
0.0152463
0.0156803
-0.00974531
-0.0095762
-0.00901695
-0.008157
-0.00704575
-0.00572852
-0.00424849
-0.00264163
-0.00093575
0.00084912
0.00269927
0.00460648
0.00656305
0.00856056
0.0105825
0.0125951
0.0145321
0.016285
0.0176169
0.0183216
-0.012031
-0.0117995
-0.0111106
-0.0100522
-0.0087136
-0.00715379
-0.00543014
-0.00358582
-0.00165086
0.000356736
0.00242937
0.00456395
0.00676779
0.00904749
0.0114058
0.0138297
0.0162684
0.0186399
0.0205247
0.0217929
-0.0149823
-0.014538
-0.0136425
-0.012291
-0.010649
-0.00878113
-0.00676294
-0.00464509
-0.00245863
-0.000217784
0.00207698
0.0044361
0.00687973
0.00943728
0.0121417
0.0150193
0.0180572
0.0213034
0.0239937
0.0265224
-0.0180336
-0.0177026
-0.0166473
-0.0149176
-0.0128741
-0.010611
-0.00823436
-0.00580202
-0.00334345
-0.000865506
0.00164255
0.00420439
0.00685555
0.00964947
0.0126542
0.0159573
0.0195934
0.024071
0.0277247
0.0331276
-0.0248799
-0.0219791
-0.0205595
-0.0180535
-0.0154022
-0.012609
-0.00979281
-0.00700485
-0.00426145
-0.00155396
0.00114487
0.00388196
0.00668469
0.00966656
0.0129561
0.0168084
0.0212457
0.0276611
0.0332057
0.043287
-0.0286724
-0.0280533
-0.0255961
-0.0222631
-0.0186132
-0.0149564
-0.0115072
-0.00827235
-0.00521308
-0.00228464
0.000559001
0.00336587
0.00621231
0.00914351
0.0121733
0.0158114
0.0186613
0.0271287
0.0295332
0.0520433
-0.0546153
-0.0299062
-0.0280375
-0.0238091
-0.01952
-0.0156807
-0.0121152
-0.00876214
-0.00560677
-0.00260789
0.000285381
0.00312976
0.00598429
0.00899954
0.0122582
0.0167685
0.0221071
0.0349758
0.0507994
0.100035
4.43422e-06
4.21647e-05
0.000168857
0.000369394
0.000639801
0.000973611
0.00136273
0.0017977
0.00226786
0.00276154
0.00326627
0.003769
0.00425638
0.00471504
0.00513199
0.00549494
0.00579283
0.0060163
0.00615901
0.00620396
-3.33031e-05
4.42797e-06
0.000132595
0.000335179
0.000608396
0.000945772
0.00133917
0.00177908
0.00225476
0.00275446
0.00326559
0.00377498
0.0042691
0.00473441
0.00515766
0.00552633
0.00582908
0.00605634
0.00620175
0.00624722
-0.000161919
-0.000123345
9.68274e-06
0.000220018
0.000503767
0.000854222
0.00126298
0.00172022
0.0022149
0.0027349
0.00326731
0.00379843
0.00431428
0.00480074
0.0052439
0.00563053
0.00594849
0.00618748
0.00634056
0.00638812
-0.000373702
-0.000333147
-0.000192024
3.11762e-05
0.000332336
0.000704348
0.00113834
0.00162402
0.00214978
0.00270297
0.00327004
0.00383665
0.00438801
0.00490907
0.00538487
0.00580099
0.00614402
0.0064024
0.00656822
0.00661986
-0.000674111
-0.000630596
-0.000477917
-0.000236405
8.94716e-05
0.00049201
0.000961669
0.00148743
0.00205698
0.0026569
0.00327281
0.0038895
0.0044911
0.0050613
0.00558368
0.0060421
0.00642131
0.00670784
0.00689224
0.00695003
-0.00107082
-0.00102335
-0.000855334
-0.000589596
-0.000231106
0.000211597
0.000728057
0.00130632
0.00193315
0.00259417
0.00327405
0.0039565
0.00462434
0.00525971
0.00584428
0.00635964
0.00678793
0.00711297
0.007323
0.00738948
-0.00157386
-0.00152135
-0.00133378
-0.00103725
-0.000637451
-0.000144059
0.000431262
0.00107537
0.00177391
0.00251142
0.00327148
0.00403667
0.00478831
0.00550677
0.00617136
0.00676077
0.00725364
0.00762992
0.00787444
0.00795289
-0.00219613
-0.00213739
-0.00192541
-0.0015906
-0.00113969
-0.000583913
6.35038e-05
0.000787946
0.00157372
0.00240422
0.0032619
0.00412824
0.00498309
0.00580484
0.00657015
0.00725408
0.00783064
0.00827438
0.00856497
0.00865993
-0.00295391
-0.00288754
-0.00264538
-0.00226353
-0.00175021
-0.00111879
-0.000384562
0.00043604
0.00132582
0.00226696
0.00324092
0.00422831
0.00520772
0.00615565
0.00704588
0.00784919
0.00853364
0.00906618
0.00941863
0.00953676
-0.00386762
-0.00379185
-0.0035124
-0.00307291
-0.00248381
-0.00176144
-0.000923821
1.03459e-05
0.00102217
0.00209269
0.00320267
0.00433228
0.00545944
0.00655929
0.00760285
0.0085561
0.00937965
0.01003
0.0104667
0.0106185
-0.00496307
-0.00487537
-0.00454958
-0.00403913
-0.00335794
-0.00252652
-0.00156656
-0.000499582
0.000653625
0.00187314
0.00313948
0.00443329
0.00573279
0.00701292
0.00824284
0.00938373
0.0103873
0.0111958
0.0117496
0.0119529
-0.00627336
-0.00616959
-0.00578548
-0.00518666
-0.00439285
-0.00343044
-0.00232606
-0.00110485
0.00021031
0.00159882
0.00304177
0.00452151
0.0060183