/*--------------------------------*- C++ -*----------------------------------*\
  =========                 |
  \\      /  F ield         | OpenFOAM: The Open Source CFD Toolbox
   \\    /   O peration     | Website:  https://openfoam.org
    \\  /    A nd           | Version:  10
     \\/     M anipulation  |
\*---------------------------------------------------------------------------*/
FoamFile
{
    format      ascii;
    class       surfaceScalarField;
    location    "1";
    object      phi;
}
// * * * * * * * * * * * * * * * * * * * * * * * * * * * * * * * * * * * * * //

dimensions      [0 3 -1 0 0 0 0];

internalField   nonuniform List<scalar> 
22800
(
-5.26517e-06
5.27776e-06
-1.25893e-08
-1.15153e-05
6.21295e-06
3.71462e-08
-1.75478e-05
5.98497e-06
4.7579e-08
-2.31405e-05
5.54266e-06
5.0029e-08
-2.81489e-05
4.96104e-06
4.74e-08
-3.24501e-05
4.25954e-06
4.15997e-08
-3.59405e-05
3.45679e-06
3.36715e-08
-3.85369e-05
2.57219e-06
2.41802e-08
-4.01758e-05
1.62541e-06
1.35017e-08
-4.0814e-05
6.36305e-07
1.90048e-09
-4.04287e-05
-3.75105e-07
-1.02055e-08
-3.90182e-05
-1.38782e-06
-2.2655e-08
-3.66035e-05
-2.37976e-06
-3.50125e-08
-3.32294e-05
-3.32725e-06
-4.68257e-08
-2.89669e-05
-4.20498e-06
-5.74895e-08
-2.39143e-05
-4.98646e-06
-6.61408e-08
-1.8198e-05
-5.64494e-06
-7.13761e-08
-1.19747e-05
-6.15242e-06
-7.08728e-08
-5.48997e-06
-6.42359e-06
-6.11609e-08
-5.48143e-06
-8.53845e-09
-6.45282e-06
1.17971e-05
-6.65581e-08
-1.40073e-05
1.37818e-05
-1.43379e-08
-2.12932e-05
1.32715e-05
-6.1982e-10
-2.80433e-05
1.22865e-05
6.259e-09
-3.40825e-05
1.09914e-05
8.7567e-09
-3.92631e-05
9.43135e-06
8.77981e-09
-4.34622e-05
7.64859e-06
7.31109e-09
-4.65814e-05
5.68668e-06
4.7765e-09
-4.85467e-05
3.5893e-06
1.36329e-09
-4.93078e-05
1.40004e-06
-2.6155e-09
-4.88384e-05
-8.37145e-07
-7.35455e-09
-4.71367e-05
-3.07708e-06
-1.24366e-08
-4.42275e-05
-5.27124e-06
-1.77352e-08
-4.01637e-05
-7.36816e-06
-2.29276e-08
-3.50289e-05
-9.31226e-06
-2.75312e-08
-2.89397e-05
-1.10448e-05
-3.07738e-08
-2.20473e-05
-1.25061e-05
-3.12735e-08
-1.45407e-05
-1.36324e-05
-2.66554e-08
-6.71426e-06
-1.42364e-05
-1.36269e-08
-1.22376e-05
4.18783e-08
-6.81971e-06
1.87035e-05
-8.66117e-08
-1.48038e-05
2.17981e-05
-3.23169e-08
-2.24953e-05
2.09801e-05
-1.7073e-08
-2.96135e-05
1.94133e-05
-8.6324e-09
-3.59754e-05
1.73577e-05
-4.38013e-09
-4.14281e-05
1.48866e-05
-2.45662e-09
-4.58461e-05
1.20684e-05
-1.86163e-09
-4.91296e-05
8.97234e-06
-2.16216e-09
-5.12039e-05
5.66686e-06
-3.26395e-09
-5.20181e-05
2.21934e-06
-5.01996e-09
-5.15432e-05
-1.30474e-06
-7.36119e-09
-4.97766e-05
-4.83345e-06
-1.01986e-08
-4.67395e-05
-8.295e-06
-1.33652e-08
-4.24817e-05
-1.16093e-05
-1.65889e-08
-3.70852e-05
-1.46894e-05
-1.94216e-08
-3.06673e-05
-1.74416e-05
-2.10993e-08
-2.33838e-05
-1.97694e-05
-2.01978e-08
-1.54334e-05
-2.15686e-05
-1.42209e-08
-7.12843e-06
-2.25416e-05
2.42352e-10
-1.94245e-05
5.84644e-08
-7.30037e-06
2.61062e-05
-1.02349e-07
-1.58464e-05
3.03889e-05
-4.47373e-08
-2.40688e-05
2.92306e-05
-2.80931e-08
-3.16662e-05
2.70291e-05
-1.84501e-08
-3.84451e-05
2.41498e-05
-1.31407e-08
-4.42475e-05
2.06991e-05
-1.00808e-08
-4.89459e-05
1.6775e-05
-8.27436e-09
-5.24409e-05
1.24747e-05
-7.33705e-09
-5.46586e-05
7.89165e-06
-7.12243e-09
-5.55478e-05
3.11611e-06
-7.57808e-09
-5.50778e-05
-1.76607e-06
-8.67437e-09
-5.32411e-05
-6.65977e-06
-1.03402e-08
-5.00532e-05
-1.14704e-05
-1.24537e-08
-4.55573e-05
-1.60905e-05
-1.47608e-08
-3.98296e-05
-2.04002e-05
-1.68139e-08
-3.29855e-05
-2.42679e-05
-1.78114e-08
-2.51849e-05
-2.75538e-05
-1.62176e-08
-1.66394e-05
-3.01048e-05
-9.30723e-09
-7.68973e-06
-3.14978e-05
6.48741e-09
-2.71832e-05
6.90506e-08
-7.97434e-06
3.41993e-05
-1.18762e-07
-1.73038e-05
3.97746e-05
-5.6221e-08
-2.62627e-05
3.82274e-05
-3.78984e-08
-3.45203e-05
3.53137e-05
-2.70037e-08
-4.18693e-05
3.15195e-05
-2.07107e-08
-4.81458e-05
2.69923e-05
-1.67536e-08
-5.3222e-05
2.18654e-05
-1.40653e-08
-5.70014e-05
1.62663e-05
-1.22459e-08
-5.94129e-05
1.03142e-05
-1.11615e-08
-6.04063e-05
4.12033e-06
-1.07826e-08
-5.99487e-05
-2.21252e-06
-1.1108e-08
-5.80261e-05
-8.57037e-06
-1.20899e-08
-5.46442e-05
-1.48386e-05
-1.36554e-08
-4.98346e-05
-2.08846e-05
-1.55627e-08
-4.36626e-05
-2.65548e-05
-1.73499e-08
-3.62375e-05
-3.16749e-05
-1.81446e-08
-2.7722e-05
-3.6053e-05
-1.62315e-08
-1.83444e-05
-3.94738e-05
-8.53001e-09
-8.48646e-06
-4.13646e-05
8.89696e-09
-3.57475e-05
7.78208e-08
-8.87064e-06
4.32083e-05
-1.38403e-07
-1.92367e-05
5.02098e-05
-6.91854e-08
-2.91626e-05
4.82022e-05
-4.87477e-08
-3.82781e-05
4.44655e-05
-3.63445e-08
-4.63593e-05
3.96296e-05
-2.89437e-08
-5.32377e-05
3.38948e-05
-2.40405e-08
-5.87894e-05
2.74375e-05
-2.04708e-08
-6.29249e-05
2.04197e-05
-1.78106e-08
-6.55805e-05
1.29858e-05
-1.59339e-08
-6.67099e-05
5.26457e-06
-1.48357e-08
-6.62782e-05
-2.62967e-06
-1.45506e-08
-6.42619e-05
-1.05717e-05
-1.50473e-08
-6.06521e-05
-1.84321e-05
-1.63172e-08
-5.5461e-05
-2.60575e-05
-1.81331e-08
-4.87342e-05
-3.32616e-05
-2.0012e-08
-4.05666e-05
-3.98216e-05
-2.09808e-08
-3.11191e-05
-4.54814e-05
-1.90692e-08
-2.06389e-05
-4.99433e-05
-1.06852e-08
-9.56302e-06
-5.24491e-05
8.60271e-09
-4.53968e-05
8.62851e-08
-1.00276e-05
5.33994e-05
-1.63507e-07
-2.17233e-05
6.19912e-05
-8.56459e-08
-3.2876e-05
5.94172e-05
-6.24763e-08
-4.30637e-05
5.47013e-05
-4.80767e-08
-5.20446e-05
4.86498e-05
-3.91977e-08
-5.96506e-05
4.15338e-05
-3.30416e-08
-6.57689e-05
3.35841e-05
-2.83316e-08
-7.03261e-05
2.50015e-05
-2.4619e-08
-7.3273e-05
1.59545e-05
-2.17892e-08
-7.45722e-05
6.58362e-06
-1.98674e-08
-7.41885e-05
-2.99449e-06
-1.89331e-08
-7.2085e-05
-1.26562e-05
-1.89676e-08
-6.82315e-05
-2.22655e-05
-2.0056e-08
-6.26091e-05
-3.16579e-05
-2.20026e-08
-5.52293e-05
-4.06171e-05
-2.43079e-08
-4.61576e-05
-4.88674e-05
-2.58748e-08
-3.55423e-05
-5.60723e-05
-2.43893e-08
-2.36476e-05
-6.18225e-05
-1.55443e-08
-1.09823e-05
-6.51202e-05
5.7124e-09
-5.64741e-05
9.50203e-08
-1.15013e-05
6.50973e-05
-1.96553e-07
-2.48761e-05
7.54736e-05
-1.07704e-07
-3.7553e-05
7.21751e-05
-8.09213e-08
-4.90455e-05
6.62576e-05
-6.37197e-08
-5.90956e-05
5.87525e-05
-5.2679e-08
-6.75452e-05
5.00281e-05
-4.46635e-08
-7.4307e-05
4.03842e-05
-3.82813e-08
-7.9338e-05
3.00656e-05
-3.30644e-08
-8.26155e-05
1.9261e-05
-2.89151e-08
-8.41191e-05
8.11309e-06
-2.58942e-08
-8.38169e-05
-3.27258e-06
-2.41341e-08
-8.16548e-05
-1.47947e-05
-2.36258e-08
-7.7571e-05
-2.63248e-05
-2.45744e-08
-7.1499e-05
-3.7703e-05
-2.68711e-08
-6.33938e-05
-4.86924e-05
-3.00231e-08
-5.32662e-05
-5.89621e-05
-3.28015e-08
-4.12292e-05
-6.80768e-05
-3.24514e-08
-2.7554e-05
-7.54741e-05
-2.36832e-08
-1.28396e-05
-7.98352e-05
5.99228e-10
-6.94175e-05
1.03809e-07
-1.33758e-05
7.87141e-05
-2.41007e-07
-2.88581e-05
9.10942e-05
-1.38244e-07
-4.3406e-05
8.68295e-05
-1.0649e-07
-5.64536e-05
7.93903e-05
-8.51387e-08
-6.7735e-05
7.01046e-05
-7.07452e-08
-7.71221e-05
5.9475e-05
-5.98137e-08
-8.45764e-05
4.78894e-05
-5.08508e-08
-9.01079e-05
3.56405e-05
-4.33763e-08
-9.37394e-05
2.29297e-05
-3.7307e-08
-9.54798e-05
9.88622e-06
-3.27361e-08
-9.53073e-05
-3.41528e-06
-2.98454e-08
-9.31468e-05
-1.69265e-05
-2.86241e-08
-8.88916e-05
-3.05505e-05
-2.94291e-08
-8.24052e-05
-4.41571e-05
-3.23247e-08
-7.35517e-05
-5.7509e-05
-3.69066e-08
-6.22458e-05
-7.02262e-05
-4.18477e-08
-4.8523e-05
-8.17558e-05
-4.38548e-08
-3.26339e-05
-9.13269e-05
-3.62364e-08
-1.52828e-05
-9.71762e-05
-1.00587e-08
-8.48119e-05
1.11662e-07
-1.57804e-05
9.47968e-05
-3.02279e-07
-3.39116e-05
0.000109407
-1.81776e-07
-5.07389e-05
0.000103799
-1.42732e-07
-6.56038e-05
9.43701e-05
-1.14877e-07
-7.82543e-05
8.28502e-05
-9.50488e-08
-8.8628e-05
6.99281e-05
-7.94095e-08
-9.67739e-05
5.61017e-05
-6.6389e-08
-0.000102789
4.17112e-05
-5.54869e-08
-0.000106769
2.69563e-05
-4.66082e-08
-0.000108771
1.19278e-05
-3.9844e-08
-0.000108793
-3.35757e-06
-3.5392e-08
-0.000106739
-1.89475e-05
-3.32037e-08
-0.000102441
-3.48145e-05
-3.38316e-08
-9.56615e-05
-5.08993e-05
-3.75827e-08
-8.61256e-05
-6.70005e-05
-4.43711e-08
-7.3586e-05
-8.27128e-05
-5.29349e-08
-5.79252e-05
-9.73572e-05
-5.942e-08
-3.93092e-05
-0.000109888
-5.52301e-08
-1.85509e-05
-0.000117906
-2.82804e-08
-0.000103479
1.15864e-07
-1.89223e-05
0.000114108
-3.89367e-07
-4.04051e-05
0.000131136
-2.4583e-07
-5.99944e-05
0.000123584
-1.95103e-07
-7.69339e-05
0.000111466
-1.56472e-07
-9.1035e-05
9.70789e-05
-1.27527e-07
-0.000102364
8.13608e-05
-1.04161e-07
-0.000111116
6.49388e-05
-8.473e-08
-0.000117527
4.81905e-05
-6.86653e-08
-0.000121802
3.1287e-05
-5.5767e-08
-0.000124072
1.42441e-05
-4.59909e-08
-0.000124372
-3.01758e-06
-3.94449e-08
-0.000122588
-2.06962e-05
-3.59624e-08
-0.000118477
-3.88889e-05
-3.63377e-08
-0.000111661
-5.76738e-05
-4.1206e-08
-0.00010166
-7.69501e-05
-5.10884e-08
-8.7967e-05
-9.63409e-05
-6.53381e-08
-7.018e-05
-0.000115064
-7.98505e-08
-4.82439e-05
-0.00013174
-8.36707e-08
-2.30488e-05
-0.000143043
-5.86858e-08
-0.000126638
1.10243e-07
-2.31499e-05
0.000137776
-5.18026e-07
-4.89149e-05
0.000157244
-3.43481e-07
-7.18299e-05
0.000146771
-2.72012e-07
-9.10572e-05
0.000130908
-2.14647e-07
-0.000106577
0.000112769
-1.70002e-07
-0.00011869
9.36073e-05
-1.33855e-07
-0.000127828
7.41816e-05
-1.04403e-07
-0.000134434
5.48769e-05
-8.08177e-08
-0.000138875
3.57906e-05
-6.24575e-08
-0.000141389
1.68077e-05
-4.87831e-08
-0.000142068
-2.29927e-06
-3.959e-08
-0.000140788
-2.19421e-05
-3.42826e-08
-0.000137229
-4.24139e-05
-3.4133e-08
-0.000130839
-6.40233e-05
-4.01462e-08
-0.000120846
-8.68889e-05
-5.40767e-08
-0.000106334
-0.000110776
-7.66628e-08
-8.64099e-05
-0.000134884
-1.04755e-07
-6.05145e-05
-0.00015751
-1.25612e-07
-2.95044e-05
-0.000173945
-1.0821e-07
-0.000156223
8.06809e-08
-2.90811e-05
0.000167575
-7.17352e-07
-6.03693e-05
0.00018903
-4.97908e-07
-8.7239e-05
0.000174026
-3.859e-07
-0.000108839
0.000152803
-2.94805e-07
-0.000125535
0.000129687
-2.22663e-07
-0.000138028
0.000106266
-1.65586e-07
-0.00014712
8.3395e-05
-1.2111e-07
-0.000153556
6.14002e-05
-8.73059e-08
-0.000157925
4.02209e-05
-6.21402e-08
-0.000160609
1.95356e-05
-4.38717e-08
-0.000161775
-1.10187e-06
-3.13201e-08
-0.000161316
-2.23775e-05
-2.31511e-08
-0.000158845
-4.48639e-05
-2.12935e-08
-0.000153621
-6.9219e-05
-2.78982e-08
-0.000144512
-9.59521e-05
-4.63096e-08
-0.000129992
-0.000125216
-8.00672e-08
-0.000108328
-0.000156417
-1.2978e-07
-7.79223e-05
-0.000187731
-1.85407e-07
-3.9347e-05
-0.000212333
-1.86525e-07
-0.000195565
-4.7805e-09
-3.79006e-05
0.000206516
-1.04024e-06
-7.63162e-05
0.000228194
-7.48237e-07
-0.000107746
0.000206009
-5.52558e-07
-0.000131504
0.000176961
-3.99924e-07
-0.000148742
0.000147205
-2.7963e-07
-0.000160832
0.000118546
-1.89818e-07
-0.000169145
9.18326e-05
-1.24862e-07
-0.000174826
6.71605e-05
-7.88803e-08
-0.000178733
4.4174e-05
-4.64403e-08
-0.000181426
2.22517e-05
-2.29728e-08
-0.000183182
6.60483e-07
-6.51543e-09
-0.000183939
-2.16269e-05
5.76939e-09
-0.000183289
-4.55241e-05
1.06613e-08
-0.000180335
-7.21803e-05
7.84461e-09
-0.000173558
-0.00010272
-1.00542e-08
-0.000160664
-0.000138054
-5.69343e-08
-0.000138561
-0.000178382
-1.38163e-07
-0.000103562
-0.000222464
-2.65263e-07
-5.56361e-05
-0.000259949
-3.1069e-07
-0.000250997
-2.0391e-07
-5.19007e-05
0.00026006
-1.64369e-06
-9.93241e-05
0.000276793
-1.17536e-06
-0.000135682
0.000243154
-7.87375e-07
-0.000160747
0.000202545
-5.19806e-07
-0.000177195
0.000163971
-3.17428e-07
-0.000187538
0.000129071
-1.82037e-07
-0.000193926
9.83145e-05
-9.3894e-08
-0.000197983
7.1254e-05
-3.70297e-08
-0.000200856
4.70451e-05
1.84378e-09
-0.000203291
2.46615e-05
2.48795e-08
-0.000205669
2.99204e-06
4.7061e-08
-0.000208084
-1.92727e-05
6.02046e-08
-0.000210176
-4.35053e-05
7.36561e-08
-0.000211017
-7.14213e-05
8.16339e-08
-0.0002088
-0.000105011
7.39883e-08
-0.000200425
-0.000146463
3.39014e-08
-0.00018102
-0.000197711
-7.5836e-08
-0.000142737
-0.000260401
-3.45827e-07
-8.39135e-05
-0.000318302
-4.70018e-07
-0.000334226
-6.84412e-07
-7.75889e-05
0.000340117
-2.4676e-06
-0.0001346
0.000335564
-1.75999e-06
-0.000174816
0.000284397
-1.02685e-06
-0.000198795
0.000227113
-5.88553e-07
-0.000211979
0.000177422
-2.66941e-07
-0.000218423
0.000135598
-8.28692e-08
-0.000221213
0.000101087
1.7692e-08
-0.000222448
7.24209e-05
6.8462e-08
-0.000223514
4.8013e-05
9.79963e-08
-0.000225285
2.6313e-05
1.19125e-07
-0.000228249
5.81659e-06
1.39725e-07
-0.00023269
-1.50013e-05
1.6922e-07
-0.0002385
-3.79025e-05
2.07208e-07
-0.000245008
-6.51666e-05
2.53346e-07
-0.000250471
-9.98427e-05
2.95441e-07
-0.000251227
-0.000146007
3.00176e-07
-0.000240832
-0.000208319
2.12525e-07
-0.000203665
-0.000297318
-2.49659e-07
-0.000136901
-0.000384654
-4.11798e-07
-0.000469401
-1.72711e-06
-0.000110292
0.00045621
-5.80145e-06
-0.000183089
0.000411538
-3.17746e-06
-0.000228274
0.00033091
-1.32804e-06
-0.000247807
0.000247102
-4.56465e-07
-0.000253632
0.000183206
4.04653e-08
-0.00025292
0.000134642
2.43363e-07
-0.000249821
9.76776e-05
3.10588e-07
-0.000246734
6.90139e-05
3.19566e-07
-0.000245034
4.60006e-05
3.12952e-07
-0.000245559
2.65251e-05
3.12825e-07
-0.000248888
8.8118e-06
3.33611e-07
-0.000255459
-8.81249e-06
3.8217e-07
-0.000265692
-2.81413e-05
4.71936e-07
-0.000279599
-5.18767e-05
6.1699e-07
-0.000296404
-8.38644e-05
8.26378e-07
-0.000312678
-0.000130807
1.07391e-06
-0.0003234
-0.000198913
1.31579e-06
-0.000297701
-0.000323491
4.75e-07
-0.000235068
-0.000447893
6.05895e-07
-0.000700562
-3.90691e-06
-0.000236654
0.000699274
-6.40904e-06
-0.000287743
0.000466796
-4.16877e-06
-0.000307622
0.000351217
-4.28774e-07
-0.000306393
0.000245303
5.70264e-07
-0.000294417
0.00017015
1.08043e-06
-0.000280314
0.000119434
1.10478e-06
-0.000267654
8.40364e-05
9.81446e-07
-0.000257967
5.84897e-05
8.36349e-07
-0.000251994
3.93027e-05
7.24903e-07
-0.000250182
2.40476e-05
6.66281e-07
-0.000252948
1.09091e-05
6.67918e-07
-0.000260867
-1.64981e-06
7.56935e-07
-0.000275437
-1.45163e-05
9.44923e-07
-0.000298003
-3.05749e-05
1.26457e-06
-0.000330521
-5.31024e-05
1.75606e-06
-0.000371511
-9.21326e-05
2.31509e-06
-0.000419375
-0.000154295
3.24601e-06
-0.000429566
-0.000315102
1.80157e-06
-0.000371762
-0.000508617
2.92078e-06
-0.00106628
-6.04139e-06
-0.000347466
0.00106189
-1.51481e-05
-0.000327291
0.000446879
-2.57935e-07
-0.000279462
0.000299537
3.85147e-06
-0.000222347
0.000183095
5.09383e-06
-0.000168102
0.000111325
4.57927e-06
-0.000125171
7.29928e-05
3.51094e-06
-9.34034e-05
4.96477e-05
2.62101e-06
-7.09505e-05
3.40511e-05
1.98566e-06
-5.63135e-05
2.30879e-05
1.57787e-06
-4.85291e-05
1.49009e-05
1.36226e-06
-4.71742e-05
8.23334e-06
1.32087e-06
-5.23313e-05
2.05684e-06
1.45049e-06
-6.43901e-05
-4.31702e-06
1.85944e-06
-8.41803e-05
-1.3452e-05
2.66731e-06
-0.000113492
-2.80786e-05
4.28813e-06
-0.00015171
-6.03956e-05
6.48038e-06
-0.000195548
-0.000123054
1.25971e-05
-0.000240955
-0.000280945
1.12489e-05
-0.000225438
-0.000545381
2.12482e-05
-0.00128309
-8.63518e-06
0.00108388
-2.19967e-05
0.00154637
-1.56044e-05
0.00184897
-3.0665e-06
0.0020293
2.77087e-06
0.00213685
3.77451e-06
0.00220635
3.49294e-06
0.00225309
2.90092e-06
0.00228486
2.28415e-06
0.00230613
1.8224e-06
0.00231947
1.55369e-06
0.00232623
1.47198e-06
0.00232671
1.58435e-06
0.00232039
1.99681e-06
0.00230428
2.6647e-06
0.00227177
4.42793e-06
0.00220603
5.34404e-06
0.00207218
1.0793e-05
0.00178441
6.82593e-06
0.00124233
-3.3023e-06
-4.07525e-05
-6.27372e-06
6.27918e-06
-1.80491e-08
-1.37113e-05
7.46275e-06
1.19485e-08
-2.08766e-05
7.19206e-06
2.08928e-08
-2.75088e-05
6.65737e-06
2.47803e-08
-3.34409e-05
5.95461e-06
2.49144e-08
-3.85296e-05
5.10786e-06
2.24409e-08
-4.26539e-05
4.13986e-06
1.80875e-08
-4.57162e-05
3.07416e-06
1.23176e-08
-4.76428e-05
1.93461e-06
5.49036e-09
-4.83837e-05
7.45191e-07
-2.33923e-09
-4.79135e-05
-4.6986e-07
-1.05734e-08
-4.62316e-05
-1.68549e-06
-1.90726e-08
-4.33638e-05
-2.87525e-06
-2.75407e-08
-3.93642e-05
-4.0109e-06
-3.55217e-08
-3.43169e-05
-5.06231e-06
-4.24581e-08
-2.83375e-05
-5.99801e-06
-4.76032e-08
-2.15727e-05
-6.78626e-06
-4.98863e-08
-1.42025e-05
-7.39332e-06
-4.78002e-08
-6.51325e-06
-7.71078e-06
-3.95748e-08
-6.51372e-06
-8.07438e-09
-7.76668e-06
1.40306e-05
-5.1264e-08
-1.68382e-05
1.65415e-05
-2.15415e-08
-2.55725e-05
1.59354e-05
-9.64156e-09
-3.36519e-05
1.47453e-05
-2.25698e-09
-4.08716e-05
1.31818e-05
1.31086e-09
-4.70578e-05
1.13004e-05
2.41376e-09
-5.20652e-05
9.15259e-06
1.99103e-09
-5.57779e-05
6.79114e-06
4.37877e-10
-5.81086e-05
4.26902e-06
-2.28359e-09
-5.89991e-05
1.63874e-06
-5.71849e-09
-5.842e-05
-1.04674e-06
-9.55578e-09
-5.63708e-05
-3.7333e-06
-1.38067e-08
-5.28826e-05
-6.36295e-06
-1.82071e-08
-4.80198e-05
-8.87434e-06
-2.23654e-08
-4.18825e-05
-1.12013e-05
-2.57699e-08
-3.46093e-05
-1.32743e-05
-2.76931e-08
-2.63777e-05
-1.50221e-05
-2.70397e-08
-1.74069e-05
-1.63685e-05
-2.22382e-08
-8.04393e-06
-1.70758e-05
-1.16054e-08
-1.45376e-05
2.18254e-08
-8.21766e-06
2.22294e-05
-6.78315e-08
-1.78149e-05
2.61433e-05
-3.68917e-08
-2.70444e-05
2.51721e-05
-2.4213e-08
-3.55724e-05
2.32804e-05
-1.57923e-08
-4.31848e-05
2.08004e-05
-1.06342e-08
-4.97014e-05
1.78222e-05
-7.68255e-09
-5.49736e-05
1.44292e-05
-6.24452e-09
-5.88838e-05
1.07052e-05
-5.93829e-09
-6.13445e-05
6.73296e-06
-6.53338e-09
-6.22967e-05
2.59384e-06
-7.86984e-09
-6.17079e-05
-1.6332e-06
-9.79082e-09
-5.95767e-05
-5.86243e-06
-1.21952e-08
-5.59304e-05
-1.00078e-05
-1.48443e-08
-5.08299e-05
-1.39741e-05
-1.73933e-08
-4.43736e-05
-1.76576e-05
-1.93512e-08
-3.67013e-05
-2.09477e-05
-1.99883e-08
-2.79958e-05
-2.37297e-05
-1.81718e-08
-1.84879e-05
-2.58784e-05
-1.22461e-08
-8.54595e-06
-2.7017e-05
-4.85509e-10
-2.30592e-05
3.41621e-08
-8.80026e-06
3.10101e-05
-8.27933e-08
-1.90761e-05
3.64248e-05
-5.03715e-08
-2.89453e-05
3.50493e-05
-3.61642e-08
-3.80492e-05
3.23924e-05
-2.64975e-08
-4.61617e-05
2.89199e-05
-2.00692e-08
-5.30965e-05
2.47627e-05
-1.57944e-08
-5.87029e-05
2.00403e-05
-1.29759e-08
-6.2864e-05
1.48702e-05
-1.12487e-08
-6.54933e-05
9.36553e-06
-1.04189e-08
-6.65317e-05
3.63505e-06
-1.03575e-08
-6.5945e-05
-2.21761e-06
-1.09972e-08
-6.37264e-05
-8.07919e-06
-1.22096e-08
-5.98964e-05
-1.38365e-05
-1.37811e-08
-5.45084e-05
-1.93614e-05
-1.5392e-08
-4.76544e-05
-2.45119e-05
-1.65459e-08
-3.94716e-05
-2.91318e-05
-1.64729e-08
-3.01481e-05
-3.30554e-05
-1.39471e-08
-1.99293e-05
-3.60994e-05
-7.15516e-09
-9.21719e-06
-3.77284e-05
5.74952e-09
-3.225e-05
4.26523e-08
-9.61619e-06
4.06066e-05
-9.90561e-08
-2.0837e-05
4.76536e-05
-6.42542e-08
-3.15926e-05
4.58154e-05
-4.83499e-08
-4.14891e-05
4.22991e-05
-3.71127e-08
-5.02844e-05
3.77237e-05
-2.92967e-08
-5.77854e-05
3.22707e-05
-2.36894e-08
-6.38416e-05
2.6102e-05
-1.95728e-08
-6.83393e-05
1.93723e-05
-1.65881e-08
-7.11959e-05
1.22256e-05
-1.4565e-08
-7.23541e-05
4.79581e-06
-1.34192e-08
-7.1777e-05
-2.79276e-06
-1.30806e-08
-6.94504e-05
-1.04044e-05
-1.34366e-08
-6.53839e-05
-1.79023e-05
-1.43141e-08
-5.96173e-05
-2.51282e-05
-1.53997e-08
-5.22301e-05
-3.19003e-05
-1.61723e-08
-4.33523e-05
-3.80119e-05
-1.57871e-08
-3.31754e-05
-4.32358e-05
-1.28645e-08
-2.19639e-05
-4.7314e-05
-5.34327e-09
-1.01682e-05
-4.95241e-05
8.91694e-09
-4.23898e-05
4.93219e-08
-1.07011e-05
5.1288e-05
-1.1867e-07
-2.31721e-05
6.01359e-05
-8.05349e-08
-3.50913e-05
5.77483e-05
-6.24563e-08
-4.60175e-05
5.32382e-05
-4.92584e-08
-5.56893e-05
4.74062e-05
-3.97098e-08
-6.39087e-05
4.04985e-05
-3.25141e-08
-7.05299e-05
3.27296e-05
-2.69261e-08
-7.54486e-05
2.42958e-05
-2.25889e-08
-7.85911e-05
1.53715e-05
-1.93413e-08
-7.9905e-05
6.11196e-06
-1.71138e-08
-7.93516e-05
-3.34487e-06
-1.58653e-08
-7.6906e-05
-1.28495e-05
-1.55097e-08
-7.25609e-05
-2.22478e-05
-1.59081e-08
-6.63333e-05
-3.13571e-05
-1.6751e-08
-5.82799e-05
-3.99563e-05
-1.74806e-08
-4.85142e-05
-4.77815e-05
-1.71445e-08
-3.72252e-05
-5.45297e-05
-1.41387e-08
-2.46992e-05
-5.98447e-05
-6.03102e-09
-1.14518e-05
-6.27726e-05
9.77292e-09
-5.38103e-05
5.50373e-08
-1.21018e-05
6.33701e-05
-1.43776e-07
-2.61766e-05
7.42263e-05
-1.01246e-07
-3.95717e-05
7.11611e-05
-8.02605e-08
-5.17845e-05
6.54673e-05
-6.4397e-08
-6.25329e-05
5.81679e-05
-5.24892e-08
-7.16199e-05
4.95956e-05
-4.31667e-08
-7.89137e-05
4.00309e-05
-3.56602e-08
-8.43299e-05
2.97169e-05
-2.96058e-08
-8.78126e-05
1.88573e-05
-2.48521e-08
-8.93204e-05
7.62125e-06
-2.13527e-08
-8.88147e-05
-3.85044e-06
-1.91e-08
-8.62558e-05
-1.54093e-05
-1.80328e-08
-8.16108e-05
-2.68948e-05
-1.80586e-08
-7.48608e-05
-3.81103e-05
-1.88824e-08
-6.60225e-05
-4.8799e-05
-1.99113e-08
-5.51753e-05
-5.86344e-05
-2.0057e-08
-4.24933e-05
-6.72187e-05
-1.74071e-08
-2.82819e-05
-7.40627e-05
-8.98054e-09
-1.31418e-05
-7.79155e-05
8.58359e-09
-6.69173e-05
6.00955e-08
-1.38865e-05
7.7237e-05
-1.7697e-07
-2.99867e-05
9.03476e-05
-1.28783e-07
-4.52159e-05
8.64132e-05
-1.03786e-07
-5.89942e-05
7.92659e-05
-8.41135e-08
-7.10211e-05
7.02109e-05
-6.87981e-08
-8.11131e-05
5.96994e-05
-5.64271e-08
-8.91697e-05
4.80954e-05
-4.62128e-08
-9.51432e-05
3.56952e-05
-3.77894e-08
-9.90107e-05
2.27268e-05
-3.10178e-08
-0.000100751
9.36179e-06
-2.58699e-08
-0.000100331
-4.27293e-06
-2.23688e-08
-9.76892e-05
-1.80538e-05
-2.04736e-08
-9.27574e-05
-3.1831e-05
-2.01612e-08
-8.54605e-05
-4.54128e-05
-2.11844e-08
-7.57488e-05
-5.85178e-05
-2.29388e-08
-6.36379e-05
-7.07539e-05
-2.41897e-08
-4.92603e-05
-8.16061e-05
-2.2622e-08
-3.2929e-05
-9.04032e-05
-1.44555e-08
-1.53502e-05
-9.54983e-05
4.553e-09
-8.22278e-05
6.4194e-08
-1.61572e-05
9.33751e-05
-2.219e-07
-3.48005e-05
0.000109019
-1.66443e-07
-5.22812e-05
0.000103923
-1.35686e-07
-6.79247e-05
9.49346e-05
-1.10345e-07
-8.14231e-05
8.37285e-05
-8.99134e-08
-9.26301e-05
7.09196e-05
-7.29997e-08
-0.000101505
5.69787e-05
-5.88221e-08
-0.000108066
4.22592e-05
-4.70224e-08
-0.000112343
2.70042e-05
-3.74556e-08
-0.000114352
1.13684e-05
-3.00861e-08
-0.000114071
-4.55915e-06
-2.49406e-08
-0.000111416
-2.07156e-05
-2.19864e-08
-0.000106264
-3.69909e-05
-2.12972e-08
-9.84583e-05
-5.32281e-05
-2.27455e-08
-8.78426e-05
-6.91446e-05
-2.57912e-08
-7.43197e-05
-8.42896e-05
-2.90932e-08
-5.79312e-05
-9.80086e-05
-2.98548e-08
-3.89649e-05
-0.000109382
-2.31737e-08
-1.82513e-05
-0.000116218
-3.86365e-09
-0.000100434
6.62267e-08
-1.90708e-05
0.000112428
-2.84098e-07
-4.09112e-05
0.000130897
-2.19139e-07
-6.1135e-05
0.000124184
-1.79683e-07
-7.89572e-05
0.000112788
-1.45576e-07
-9.409e-05
9.88835e-05
-1.17232e-07
-0.000106468
8.33116e-05
-9.33985e-08
-0.000116158
6.66751e-05
-7.3349e-08
-0.000123281
4.93842e-05
-5.67122e-08
-0.000127959
3.16786e-05
-4.32719e-08
-0.000130263
1.3666e-05
-3.29047e-08
-0.000130196
-4.63613e-06
-2.55666e-08
-0.000127649
-2.32754e-05
-2.11869e-08
-0.000122426
-4.22275e-05
-1.99681e-08
-0.000114251
-6.14186e-05
-2.20263e-08
-0.000102805
-8.06081e-05
-2.70692e-08
-8.77997e-05
-9.93138e-05
-3.38225e-08
-6.90979e-05
-0.000116731
-3.90159e-08
-4.68869e-05
-0.000131612
-3.62203e-08
-2.21261e-05
-0.00014099
-1.77217e-08
-0.000122508
6.37991e-08
-2.28775e-05
0.000135288
-3.72345e-07
-4.87639e-05
0.000156832
-2.94517e-07
-7.23112e-05
0.000147777
-2.41116e-07
-9.26191e-05
0.000133132
-1.92955e-07
-0.00010948
0.000115769
-1.52084e-07
-0.000122987
9.68317e-05
-1.17598e-07
-0.000133385
7.70771e-05
-8.88612e-08
-0.000140963
5.69593e-05
-6.53821e-08
-0.000145974
3.6681e-05
-4.67011e-08
-0.000148581
1.62586e-05
-3.24037e-08
-0.000148825
-4.40926e-06
-2.21966e-08
-0.000146576
-2.55444e-05
-1.591e-08
-0.000141551
-4.72747e-05
-1.38652e-08
-0.000133307
-6.96872e-05
-1.65511e-08
-0.000121283
-9.26593e-05
-2.42608e-08
-0.000104884
-0.000115741
-3.63328e-08
-8.3641e-05
-0.000138005
-4.93009e-08
-5.74792e-05
-0.000157803
-5.49257e-08
-2.74513e-05
-0.000171035
-4.08709e-08
-0.000149901
5.19882e-08
-2.79957e-05
0.000163267
-5.01101e-07
-5.90521e-05
0.00018795
-4.0478e-07
-8.66003e-05
0.000175381
-3.27561e-07
-0.000109646
0.000156219
-2.56155e-07
-0.000128192
0.00013434
-1.95103e-07
-0.000142617
0.000111267
-1.442e-07
-0.000153455
8.79134e-05
-1.02798e-07
-0.000161245
6.47384e-05
-6.99662e-08
-0.000166434
4.18529e-05
-4.4557e-08
-0.000169313
1.91136e-05
-2.54299e-08
-0.000169987
-3.76315e-06
-1.17911e-08
-0.000168315
-2.72469e-05
-3.27373e-09
-0.000163919
-5.17049e-05
-1.82096e-10
-0.000156149
-7.74945e-05
-2.79592e-09
-0.000144099
-0.00010475
-1.3084e-08
-0.000126696
-0.000133189
-3.23029e-08
-0.00010289
-0.000161857
-5.80032e-08
-7.20152e-05
-0.000188723
-8.04119e-08
-3.5086e-05
-0.000207995
-7.77366e-08
-0.000184927
2.09117e-08
-3.51617e-05
0.000198406
-6.94998e-07
-7.28876e-05
0.000225747
-5.6965e-07
-0.000105191
0.000207748
-4.49195e-07
-0.000131072
0.000182144
-3.38416e-07
-0.000151003
0.000154293
-2.44559e-07
-0.000165856
0.000126123
-1.68661e-07
-0.000176613
9.86585e-05
-1.09517e-07
-0.000184178
7.22808e-05
-6.47944e-08
-0.000189261
4.69053e-05
-3.15601e-08
-0.000192323
2.21395e-05
-7.5288e-09
-0.000193559
-2.57009e-06
1.16647e-08
-0.000192845
-2.80099e-05
2.57976e-08
-0.000189715
-5.48889e-05
3.31339e-08
-0.000183295
-8.39747e-05
3.16663e-08
-0.000172248
-0.00011586
1.73337e-08
-0.000154788
-0.000150716
-1.31644e-08
-0.000128881
-0.000187837
-5.75369e-08
-9.2633e-05
-0.000225045
-1.12009e-07
-4.67146e-05
-0.000253966
-1.33764e-07
-0.000231591
-5.58561e-08
-4.57704e-05
0.000244132
-9.95735e-07
-9.21113e-05
0.00027216
-8.1985e-07
-0.000129897
0.000245599
-6.17477e-07
-0.000158348
0.000210634
-4.39354e-07
-0.000178898
0.000174855
-2.92382e-07
-0.000193235
0.00014045
-1.79974e-07
-0.000203031
0.000108428
-9.81762e-08
-0.000209672
7.88837e-05
-4.03797e-08
-0.000214188
5.13757e-05
-8.89233e-10
-0.000217253
2.51485e-05
3.30927e-08
-0.000219178
-7.10274e-07
5.77961e-08
-0.000219898
-2.73618e-05
7.81742e-08
-0.000218913
-5.59559e-05
9.2496e-08
-0.000215153
-8.78246e-05
9.7782e-08
-0.000206822
-0.000124288
8.64837e-08
-0.000191228
-0.000166413
4.73798e-08
-0.000164745
-0.000214429
-2.92606e-08
-0.000123031
-0.00026688
-1.43607e-07
-6.59985e-05
-0.000311093
-2.15941e-07
-0.000297582
-2.11249e-07
-6.24222e-05
0.000306415
-1.5039e-06
-0.00011973
0.000329501
-1.20894e-06
-0.000163467
0.00028939
-8.40579e-07
-0.00019347
0.000240663
-5.46315e-07
-0.000213041
0.000194424
-3.15688e-07
-0.000225253
0.000152635
-1.54926e-07
-0.000232719
0.000115849
-4.88921e-08
-0.000237403
8.35096e-05
2.08269e-08
-0.000240678
5.45815e-05
7.09027e-08
-0.00024343
2.78186e-05
1.07146e-07
-0.000246123
1.89084e-06
1.38644e-07
-0.000248812
-2.47801e-05
1.67159e-07
-0.000251075
-5.38146e-05
1.95716e-07
-0.000251793
-8.72437e-05
2.19159e-07
-0.000248826
-0.000127407
2.25258e-07
-0.000238523
-0.000176874
1.92014e-07
-0.000215175
-0.000237939
8.58851e-08
-0.000169597
-0.000312656
-1.48136e-07
-9.9656e-05
-0.000381197
-3.06984e-07
-0.000397375
-5.47371e-07
-9.29263e-05
0.000399083
-2.20992e-06
-0.000161922
0.00039847
-1.73262e-06
-0.000210347
0.000337865
-1.07735e-06
-0.000239052
0.000269387
-6.08022e-07
-0.000254693
0.000210058
-2.59987e-07
-0.00026221
0.000160116
-4.65673e-08
-0.000265355
0.000118931
8.09822e-08
-0.000266667
8.47364e-05
1.53769e-07
-0.0002678
5.56142e-05
1.97596e-07
-0.000269786
2.96931e-05
2.31218e-07
-0.000273191
5.16881e-06
2.66471e-07
-0.000278325
-1.97885e-05
3.11839e-07
-0.000285025
-4.72774e-05
3.69541e-07
-0.000292461
-7.99896e-05
4.35791e-07
-0.00029856
-0.000121507
4.94475e-07
-0.000299014
-0.000176631
5.10105e-07
-0.000286313
-0.000250851
4.24203e-07
-0.000242223
-0.000356987
-9.06052e-09
-0.000162982
-0.000460606
-2.44656e-07
-0.000560842
-1.24149e-06
-0.000129916
0.000527584
-4.38614e-06
-0.000219084
0.000487243
-2.78221e-06
-0.000273958
0.000392758
-1.34738e-06
-0.000297574
0.000293072
-5.25118e-07
-0.000304455
0.00021699
-1.00497e-08
-0.0003034
0.000159065
2.39174e-07
-0.000299491
0.000114981
3.51548e-07
-0.000295635
8.08052e-05
3.95111e-07
-0.000293481
5.33594e-05
4.12929e-07
-0.000294006
3.0099e-05
4.325e-07
-0.000297887
8.91135e-06
4.71811e-07
-0.000305601
-1.2234e-05
5.41514e-07
-0.000317588
-3.54714e-05
6.52836e-07
-0.000333804
-6.3965e-05
8.0849e-07
-0.000353293
-0.000102188
9.96612e-07
-0.000371979
-0.000158046
1.17546e-06
-0.000384294
-0.000238494
1.27337e-06
-0.000354675
-0.000386735
6.04758e-07
-0.000279802
-0.000535305
4.3245e-07
-0.00084196
-2.59111e-06
-0.000277037
0.000803245
-5.03395e-06
-0.000342835
0.000552393
-3.51998e-06
-0.000368395
0.000418811
-9.22347e-07
-0.000367564
0.000292687
1.24889e-07
-0.00035299
0.000202802
6.94023e-07
-0.000335654
0.000141971
8.64358e-07
-0.000320071
9.95156e-05
8.6356e-07
-0.000308145
6.89107e-05
8.05262e-07
-0.00030076
4.59476e-05
7.51459e-07
-0.000298411
2.7684e-05
7.32592e-07
-0.000301519
1.19212e-05
7.65311e-07
-0.00031078
-3.08446e-06
8.69053e-07
-0.000327777
-1.85968e-05
1.06673e-06
-0.000353981
-3.7858e-05
1.36184e-06
-0.000391579
-6.45864e-05
1.75237e-06
-0.000438396
-0.000111036
2.12274e-06
-0.000492448
-0.000183759
2.56277e-06
-0.000503143
-0.000375589
1.35065e-06
-0.000427924
-0.000609116
1.51288e-06
-0.00127154
-4.38599e-06
-0.000426228
0.00122433
-1.00054e-05
-0.000402815
0.000530782
-2.06119e-06
-0.000342021
0.000360627
1.24093e-06
-0.000268845
0.000222036
2.56909e-06
-0.000199593
0.000135423
2.70539e-06
-0.000145006
8.85694e-05
2.32484e-06
-0.000104724
5.99507e-05
1.90418e-06
-7.62773e-05
4.08877e-05
1.56203e-06
-5.76296e-05
2.7547e-05
1.33063e-06
-4.74247e-05
1.76235e-05
1.21791e-06
-4.49927e-05
9.57895e-06
1.23116e-06
-5.01721e-05
2.15956e-06
1.38592e-06
-6.32249e-05
-5.42239e-06
1.73782e-06
-8.46e-05
-1.61884e-05
2.37285e-06
-0.000115554
-3.28416e-05
3.49746e-06
-0.000154816
-7.02159e-05
4.92197e-06
-0.000193539
-0.000140835
8.39513e-06
-0.000241102
-0.000323844
7.06623e-06
-0.000205863
-0.000634875
1.1769e-05
-0.00147977
-6.26597e-06
0.00121657
-1.42306e-05
0.00174248
-1.07332e-05
0.00210339
-3.34972e-06
0.00232725
9.40866e-07
0.00246432
2.13218e-06
0.00255408
2.29698e-06
0.00261485
2.08958e-06
0.00265625
1.77176e-06
0.00268411
1.50221e-06
0.00270195
1.34066e-06
0.00271169
1.30705e-06
0.00271402
1.41951e-06
0.00270885
1.7451e-06
0.00269307
2.25511e-06
0.00266125
3.40382e-06
0.00259238
3.99475e-06
0.00245533
7.00822e-06
0.00213407
4.24601e-06
0.00149727
-1.38098e-06
-2.32503e-05
-6.33208e-06
6.33429e-06
-2.02599e-08
-1.38483e-05
7.53699e-06
-8.82133e-09
-2.10894e-05
7.26424e-06
-2.22096e-09