/*--------------------------------*- C++ -*----------------------------------*\
  =========                 |
  \\      /  F ield         | OpenFOAM: The Open Source CFD Toolbox
   \\    /   O peration     | Website:  https://openfoam.org
    \\  /    A nd           | Version:  10
     \\/     M anipulation  |
\*---------------------------------------------------------------------------*/
FoamFile
{
    format      ascii;
    class       volVectorField;
    location    "1";
    object      U;
}
// * * * * * * * * * * * * * * * * * * * * * * * * * * * * * * * * * * * * * //

dimensions      [0 1 -1 0 0 0 0];

internalField   nonuniform List<vector> 
8000
(
(-0.00025183 0.00024871 -7.14986e-07)
(-0.000829482 0.000293846 3.31226e-06)
(-0.00145789 0.000283128 4.08193e-06)
(-0.00204085 0.000262286 4.2002e-06)
(-0.00257239 0.000234872 3.93127e-06)
(-0.00303918 0.000201776 3.43008e-06)
(-0.00342981 0.000163862 2.77724e-06)
(-0.00373495 0.000122037 2.01427e-06)
(-0.00394727 7.72306e-05 1.16736e-06)
(-0.00406145 3.03882e-05 2.56706e-07)
(-0.00407419 -1.75346e-05 -6.93156e-07)
(-0.00398424 -6.5537e-05 -1.65897e-06)
(-0.00379257 -0.000112554 -2.61836e-06)
(-0.00350244 -0.000157453 -3.53929e-06)
(-0.00311963 -0.000199028 -4.37904e-06)
(-0.00265258 -0.000236024 -5.07538e-06)
(-0.0021126 -0.000267181 -5.52273e-06)
(-0.0015138 -0.000291195 -5.53745e-06)
(-0.000863937 -0.00030402 -4.81183e-06)
(-0.000263123 -0.000258566 -6.00885e-07)
(-0.000309594 0.000836392 -4.98354e-06)
(-0.00101249 0.00098031 -7.96677e-07)
(-0.00177134 0.000944207 2.46603e-07)
(-0.00247538 0.000874346 7.16981e-07)
(-0.0031168 0.000782462 8.54941e-07)
(-0.0036795 0.000671675 8.16705e-07)
(-0.00414984 0.000544952 6.78707e-07)
(-0.00451678 0.00040537 4.71229e-07)
(-0.00477172 0.000256039 2.05358e-07)
(-0.00490844 0.000100075 -1.10683e-07)
(-0.00492313 -5.93797e-05 -4.54544e-07)
(-0.00481438 -0.000218991 -8.29218e-07)
(-0.0045833 -0.000375329 -1.22176e-06)
(-0.00423376 -0.000524679 -1.61093e-06)
(-0.00377256 -0.000663059 -1.9643e-06)
(-0.00320967 -0.000786291 -2.22751e-06)
(-0.00255858 -0.00089015 -2.29721e-06)
(-0.00183624 -0.000970175 -1.98546e-06)
(-0.00105252 -0.00101303 -9.92965e-07)
(-0.000322723 -0.000868103 3.45539e-06)
(-0.000327155 0.00151999 -6.4729e-06)
(-0.00107012 0.00177279 -2.11883e-06)
(-0.00187183 0.00170672 -9.79145e-07)
(-0.00261467 0.00157974 -4.00391e-07)
(-0.00329073 0.00141294 -1.38143e-07)
(-0.00388322 0.00121216 -3.39915e-08)
(-0.00437814 0.000982917 -1.58401e-08)
(-0.00476423 0.000730811 -5.6917e-08)
(-0.00503283 0.000461442 -1.45303e-07)
(-0.00517767 0.000180353 -2.76238e-07)
(-0.00519476 -0.000106894 -4.46671e-07)
(-0.00508251 -0.000394518 -6.52166e-07)
(-0.00484183 -0.000676445 -8.83365e-07)
(-0.00447623 -0.000946093 -1.1233e-06)
(-0.00399225 -0.00119634 -1.34249e-06)
(-0.0033998 -0.00141961 -1.48754e-06)
(-0.00271262 -0.00160813 -1.45212e-06)
(-0.0019484 -0.00175361 -1.0387e-06)
(-0.0011174 -0.00183201 6.17078e-08)
(-0.000342649 -0.00157747 4.72631e-06)
(-0.000350216 0.00223345 -7.57242e-06)
(-0.00114562 0.00260058 -2.94982e-06)
(-0.00200336 0.0025023 -1.71244e-06)
(-0.00279685 0.00231482 -1.05634e-06)
(-0.0035178 0.00206917 -7.22072e-07)
(-0.00414865 0.00177421 -5.44072e-07)
(-0.00467505 0.00143822 -4.47271e-07)
(-0.0050857 0.00106948 -4.04485e-07)
(-0.00537201 0.000676065 -4.06407e-07)
(-0.00552777 0.000265868 -4.50552e-07)
(-0.00554888 -0.00015329 -5.3663e-07)
(-0.00543343 -0.000573404 -6.62369e-07)
(-0.0051818 -0.000985872 -8.21567e-07)
(-0.00479685 -0.00138132 -9.98839e-07)
(-0.00428448 -0.00174941 -1.16509e-06)
(-0.00365416 -0.00207895 -1.26449e-06)
(-0.00291973 -0.00235819 -1.18257e-06)
(-0.00209972 -0.00257443 -7.04099e-07)
(-0.00120524 -0.00269197 5.04289e-07)
(-0.00036974 -0.00232226 5.50982e-06)
(-0.000382627 0.00300555 -8.699e-06)
(-0.00125134 0.00349615 -3.67904e-06)
(-0.00218699 0.00336169 -2.32502e-06)
(-0.00305051 0.00310731 -1.59138e-06)
(-0.00383307 0.0027752 -1.20018e-06)
(-0.00451613 0.0023779 -9.70968e-07)
(-0.00508506 0.00192689 -8.22883e-07)
(-0.00552875 0.00143334 -7.27519e-07)
(-0.0058389 0.000907896 -6.7664e-07)
(-0.00600953 0.000360628 -6.69768e-07)
(-0.00603652 -0.000198654 -7.0867e-07)
(-0.0059175 -0.000759943 -7.92318e-07)
(-0.00565202 -0.00131242 -9.18195e-07)
(-0.00524186 -0.00184403 -1.0721e-06)
(-0.00469172 -0.00234112 -1.22428e-06)
(-0.0040102 -0.00278845 -1.31417e-06)
(-0.00321088 -0.00316956 -1.21418e-06)
(-0.00231327 -0.00346627 -6.81744e-07)
(-0.00132972 -0.00362929 6.56315e-07)
(-0.000408296 -0.0031352 6.16934e-06)
(-0.000425809 0.00385765 -1.00433e-05)
(-0.00139183 0.00448359 -4.48667e-06)
(-0.00243018 0.00430709 -2.98683e-06)
(-0.0033852 0.00397654 -2.16149e-06)
(-0.00424735 0.0035472 -1.70928e-06)
(-0.00499705 0.00303624 -1.43009e-06)
(-0.0056197 0.00245901 -1.23526e-06)
(-0.00610479 0.00182992 -1.09442e-06)
(-0.00644483 0.00116217 -9.99799e-07)
(-0.00663442 0.000467773 -9.52639e-07)
(-0.00666955 -0.00024189 -9.57327e-07)
(-0.00654729 -0.000955371 -1.01393e-06)
(-0.00626598 -0.00166007 -1.12499e-06)
(-0.00582564 -0.00234155 -1.27768e-06)
(-0.00522897 -0.00298281 -1.4412e-06)
(-0.00448275 -0.00356403 -1.54824e-06)
(-0.00359967 -0.004063 -1.45257e-06)
(-0.00260003 -0.0044544 -8.72202e-07)
(-0.00149769 -0.00467244 6.2411e-07)
(-0.000460519 -0.00404211 6.82923e-06)
(-0.000481669 0.004814 -1.17608e-05)
(-0.00157301 0.00559013 -5.51065e-06)
(-0.00274245 0.00536294 -3.8245e-06)
(-0.00381269 0.00494312 -2.87917e-06)
(-0.00477345 0.00440173 -2.34667e-06)
(-0.00560433 0.00376201 -2.00244e-06)
(-0.00629139 0.00304414 -1.74847e-06)
(-0.00682559 0.0022662 -1.55198e-06)
(-0.00720105 0.00144387 -1.4058e-06)
(-0.00741359 0.000590682 -1.31346e-06)
(-0.00745967 -0.000281161 -1.28278e-06)
(-0.00733568 -0.00115965 -1.31461e-06)
(-0.0070382 -0.00203123 -1.419e-06)
(-0.0065646 -0.00287967 -1.58567e-06)
(-0.00591421 -0.00368475 -1.78327e-06)
(-0.00509052 -0.00442158 -1.93621e-06)
(-0.00410393 -0.00506075 -1.87336e-06)
(-0.00297486 -0.00556737 -1.25774e-06)
(-0.00171874 -0.00585476 4.23119e-07)
(-0.000529579 -0.00507364 7.53783e-06)
(-0.000553041 0.00590381 -1.40166e-05)
(-0.00180351 0.00684807 -6.88707e-06)
(-0.00313729 0.00655736 -4.95841e-06)
(-0.00434923 0.00602975 -3.84614e-06)
(-0.00542856 0.00535603 -3.19578e-06)
(-0.00635465 0.00456769 -2.75368e-06)
(-0.00711552 0.00369105 -2.41132e-06)
(-0.00770507 0.00274835 -2.13365e-06)
(-0.00812036 0.00175755 -1.91474e-06)
(-0.00835946 0.000732913 -1.76117e-06)
(-0.00841989 -0.000313663 -1.68505e-06)
(-0.00829736 -0.00137102 -1.68768e-06)
(-0.00798599 -0.00242605 -1.78855e-06)
(-0.00747917 -0.00346185 -1.98404e-06)
(-0.0067709 -0.00445554 -2.24398e-06)
(-0.00585891 -0.00537675 -2.48421e-06)
(-0.00474883 -0.00618708 -2.50205e-06)
(-0.00345944 -0.00683859 -1.88681e-06)
(-0.00200726 -0.00721709 -2.91016e-08)
(-0.000620354 -0.0062683 8.28264e-06)
(-0.000644235 0.00716341 -1.70411e-05)
(-0.00209611 0.00829657 -8.80219e-06)
(-0.0036341 0.00792304 -6.54618e-06)
(-0.00501743 0.00726114 -5.18764e-06)
(-0.00623564 0.00642729 -4.35184e-06)
(-0.00726933 0.00546435 -3.75186e-06)
(-0.00811075 0.00440651 -3.26847e-06)
(-0.00875911 0.00328068 -2.86494e-06)
(-0.0092165 0.00210659 -2.53714e-06)
(-0.00948481 0.000897972 -2.29526e-06)
(-0.00956361 -0.000335334 -2.15593e-06)
(-0.00944808 -0.00158512 -2.11989e-06)
(-0.00912903 -0.00284103 -2.21773e-06)
(-0.00859409 -0.00408744 -2.45908e-06)
(-0.00782912 -0.00530015 -2.82077e-06)
(-0.00682224 -0.00644335 -3.21266e-06)
(-0.00556997 -0.00746773 -3.39378e-06)
(-0.00408573 -0.00830741 -2.84985e-06)
(-0.00238532 -0.00881072 -8.19996e-07)
(-0.000740533 -0.00767627 8.99973e-06)
(-0.000762047 0.00863985 -2.11979e-05)
(-0.00247025 0.00998461 -1.15531e-05)
(-0.00426119 0.00949847 -8.82497e-06)
(-0.00584906 0.00866386 -7.07889e-06)
(-0.00722551 0.00763145 -5.93541e-06)
(-0.00837545 0.00645997 -5.07146e-06)
(-0.00929921 0.00519357 -4.35783e-06)
(-0.010005 0.00386414 -3.75651e-06)
(-0.0105031 0.00249215 -3.26483e-06)
(-0.0108014 0.00108885 -2.89553e-06)
(-0.010903 -0.000340593 -2.66805e-06)
(-0.0108031 -0.00179394 -2.57965e-06)
(-0.0104883 -0.00326698 -2.67482e-06)
(-0.00993829 -0.00474888 -2.98042e-06)
(-0.00912682 -0.00621681 -3.49699e-06)
(-0.00802671 -0.00763065 -4.14011e-06)
(-0.00661808 -0.00892853 -4.62795e-06)
(-0.00490165 -0.0100204 -4.30459e-06)
(-0.00288778 -0.0107018 -2.15782e-06)
(-0.000902848 -0.0093661 9.50486e-06)
(-0.000917711 0.010397 -2.71026e-05)
(-0.0029565 0.0119752 -1.56505e-05)
(-0.00506084 0.0113295 -1.217e-05)
(-0.00688929 0.0102654 -9.77265e-06)
(-0.00843973 0.00898091 -8.09679e-06)
(-0.00970725 0.00755649 -6.78251e-06)
(-0.0107066 0.00604857 -5.69058e-06)
(-0.0114606 0.00449378 -4.78104e-06)
(-0.0119918 0.00291143 -4.04897e-06)
(-0.0123176 0.00130719 -3.50212e-06)
(-0.0124464 -0.00032221 -3.15591e-06)
(-0.0123745 -0.00198461 -2.9977e-06)
(-0.012084 -0.0036867 -3.08938e-06)
(-0.0115439 -0.00542779 -3.48223e-06)
(-0.0107109 -0.00719186 -4.21725e-06)
(-0.00953424 -0.00893815 -5.2557e-06)
(-0.00796617 -0.0105919 -6.29355e-06)
(-0.0059805 -0.0120322 -6.49899e-06)
(-0.00357188 -0.0129779 -4.39858e-06)
(-0.00112953 -0.0114364 9.35332e-06)
(-0.00113087 0.0125263 -3.58588e-05)
(-0.00360474 0.0143515 -2.20107e-05)
(-0.00609743 0.0134709 -1.71788e-05)
(-0.00820337 0.0120918 -1.36224e-05)
(-0.00993468 0.0104801 -1.09959e-05)
(-0.0113078 0.00874486 -8.90567e-06)
(-0.012362 0.0069567 -7.19948e-06)
(-0.0131422 0.0051554 -5.82709e-06)
(-0.0136897 0.00335532 -4.76161e-06)
(-0.0140351 0.001552 -3.98147e-06)
(-0.0141948 -0.000271377 -3.48202e-06)
(-0.0141676 -0.00213806 -3.22671e-06)
(-0.0139315 -0.00407194 -3.30758e-06)
(-0.0134435 -0.00609002 -3.80555e-06)
(-0.0126372 -0.00819207 -4.83366e-06)
(-0.0114271 -0.0103461 -6.45495e-06)
(-0.0097201 -0.0124692 -8.43104e-06)
(-0.00743686 -0.014404 -9.78654e-06)
(-0.00453568 -0.0157565 -8.07087e-06)
(-0.00146186 -0.0140371 7.49499e-06)
(-0.001438 0.0151669 -4.95614e-05)
(-0.00449988 0.0172259 -3.23146e-05)
(-0.00747119 0.0159865 -2.47668e-05)
(-0.00988672 0.0141621 -1.90617e-05)
(-0.011787 0.0121176 -1.47032e-05)
(-0.0132308 0.00999752 -1.12928e-05)
(-0.0142961 0.00788642 -8.63481e-06)
(-0.015062 0.00582151 -6.6166e-06)
(-0.0155953 0.00380555 -5.12785e-06)
(-0.0159443 0.00181778 -4.0602e-06)
(-0.0161365 -0.0001782 -3.35687e-06)
(-0.0161751 -0.00222779 -2.92792e-06)
(-0.016036 -0.00437966 -2.93773e-06)
(-0.0156641 -0.0066788 -3.52493e-06)
(-0.014967 -0.00915429 -4.92035e-06)
(-0.0138118 -0.0118001 -7.36364e-06)
(-0.0120341 -0.0145433 -1.08444e-05)
(-0.0094528 -0.017197 -1.46033e-05)
(-0.00595463 -0.0191914 -1.39448e-05)
(-0.0019815 -0.0174139 1.52301e-06)
(-0.00191147 0.0185314 -7.21399e-05)
(-0.00579355 0.0207451 -4.94891e-05)
(-0.00934082 0.0189459 -3.6139e-05)
(-0.0120801 0.0164754 -2.63932e-05)
(-0.0140997 0.0138524 -1.88848e-05)
(-0.0155392 0.011258 -1.33424e-05)
(-0.0165381 0.00878152 -9.35296e-06)
(-0.0172231 0.00644547 -6.54874e-06)
(-0.0176935 0.00423077 -4.597e-06)
(-0.0180188 0.00209188 -3.18216e-06)
(-0.0182404 -3.39543e-05 -2.33114e-06)
(-0.0183691 -0.00221979 -1.56651e-06)
(-0.0183825 -0.00454877 -1.3453e-06)
(-0.0182181 -0.00710626 -1.84519e-06)
(-0.0177584 -0.00997005 -3.46368e-06)
(-0.0168165 -0.013188 -6.77531e-06)
(-0.0151296 -0.0167352 -1.25139e-05)
(-0.0123185 -0.0204477 -2.13473e-05)
(-0.00816026 -0.0234607 -2.34637e-05)
(-0.0028665 -0.0220177 -1.30739e-05)
(-0.00269348 0.023143 -0.000115666)
(-0.00775456 0.0251385 -7.97335e-05)
(-0.0119547 0.0224182 -5.25027e-05)
(-0.0149898 0.0189851 -3.49787e-05)
(-0.0170049 0.0155927 -2.19257e-05)
(-0.0183018 0.0124242 -1.33594e-05)
(-0.0191087 0.00954906 -7.84895e-06)
(-0.0196127 0.00695381 -4.33226e-06)
(-0.0199488 0.0045815 -2.02276e-06)
(-0.020209 0.00235165 -2.62372e-07)
(-0.0204481 0.000168731 1.28512e-06)
(-0.0206898 -0.00207357 2.01798e-06)
(-0.0209224 -0.0044989 2.74288e-06)
(-0.0210853 -0.0072458 3.02323e-06)
(-0.0210486 -0.0104649 2.09624e-06)
(-0.0205773 -0.0143007 -1.46104e-06)
(-0.019309 -0.0188408 -9.7059e-06)
(-0.0164826 -0.0240842 -2.89103e-05)
(-0.0118274 -0.0287013 -3.59412e-05)
(-0.00455494 -0.0286744 -4.91554e-05)
(-0.0042371 0.0285225 -0.000175807)
(-0.0110843 0.0302737 -0.000121705)
(-0.0157477 0.0263204 -6.89871e-05)
(-0.0189172 0.0215352 -3.99009e-05)
(-0.0206603 0.0171539 -1.8686e-05)
(-0.0215817 0.0133218 -6.96314e-06)
(-0.0220068 0.0100456 -6.0557e-07)
(-0.0221887 0.0072395 2.79887e-06)
(-0.0222933 0.00478726 4.66628e-06)
(-0.022429 0.0025614 5.94452e-06)
(-0.0226628 0.000429631 7.12949e-06)
(-0.0230335 -0.0017499 8.78317e-06)
(-0.0235513 -0.00413681 1.09755e-05)
(-0.0241802 -0.0069302 1.37437e-05)
(-0.0248086 -0.0103766 1.63949e-05)
(-0.0251873 -0.0147725 1.69619e-05)
(-0.0249223 -0.0204311 1.13523e-05)
(-0.0225877 -0.0278763 -2.39199e-05)
(-0.0182981 -0.0348514 -3.16748e-05)
(-0.00805061 -0.0387994 -0.000129048)
(-0.0062433 0.0416504 -0.000437413)
(-0.0156248 0.0376777 -0.000229894)
(-0.0209802 0.0310431 -8.97941e-05)
(-0.0241586 0.0239377 -2.92839e-05)
(-0.0251898 0.018223 4.14809e-06)
(-0.0253702 0.0136653 1.6439e-05)
(-0.0251424 0.0100521 1.9869e-05)
(-0.0248153 0.00714989 1.97573e-05)
(-0.0245654 0.00474743 1.88445e-05)
(-0.0244998 0.00265992 1.84737e-05)
(-0.0246876 0.000720549 1.95425e-05)
(-0.0251791 -0.00123491 2.24093e-05)
(-0.026019 -0.00338935 2.80867e-05)
(-0.0272326 -0.0060104 3.77171e-05)
(-0.0287845 -0.0094742 5.23286e-05)
(-0.030503 -0.0143683 7.08908e-05)
(-0.0322506 -0.0213707 9.06567e-05)
(-0.0312621 -0.0322421 3.05308e-05)
(-0.0296321 -0.0433302 4.83101e-05)
(-0.0149753 -0.0568502 -0.000297993)
(-0.015453 0.0461381 -0.000466826)
(-0.0297095 0.0440281 -0.00029646)
(-0.02943 0.0345952 -1.06662e-05)
(-0.0311583 0.0254113 5.45454e-05)
(-0.0300833 0.0183939 8.53325e-05)
(-0.0287233 0.0132021 8.19534e-05)
(-0.0273606 0.00941101 6.98078e-05)
(-0.0262329 0.00658809 5.75113e-05)
(-0.0254457 0.00440546 4.84559e-05)
(-0.0250538 0.00262183 4.35322e-05)
(-0.0250958 0.00104857 4.29435e-05)
(-0.0256204 -0.000483561 4.87031e-05)
(-0.0267322 -0.00214611 6.14853e-05)
(-0.0285739 -0.0041624 8.41104e-05)
(-0.0313301 -0.00686072 0.000120393)
(-0.0349971 -0.0109527 0.000164367)
(-0.0402404 -0.0167418 0.00024035)
(-0.0418031 -0.0301594 0.000134911)
(-0.0467742 -0.0421653 0.000241901)
(-0.0230376 -0.0796813 -0.000461667)
(-0.0321234 0.102471 -0.001178)
(-0.0359596 0.0469504 2.83906e-05)
(-0.0299067 0.0341652 0.000341993)
(-0.0251823 0.0220879 0.000421033)
(-0.0191725 0.0144444 0.000364701)
(-0.0144127 0.00987877 0.000271533)
(-0.010737 0.00685801 0.000197477)
(-0.00806543 0.00474364 0.000146046)
(-0.00623765 0.00320242 0.000113569)
(-0.00513172 0.00201281 9.63098e-05)
(-0.00468118 0.0010198 9.22395e-05)
(-0.00486745 9.19451e-05 0.000100699)
(-0.0057253 -0.000920846 0.000130224)
(-0.00730028 -0.00225128 0.000190403)
(-0.00984109 -0.00434054 0.000314111)
(-0.0124418 -0.0085933 0.000489696)
(-0.019691 -0.0164902 0.000975292)
(-0.0165395 -0.0366026 0.000891456)
(-0.0365201 -0.0673833 0.00171018)
(-0.00234208 -0.146455 -0.000671755)
(0.112207 0.0947078 -0.00170294)
(0.119866 0.0412326 -0.00122351)
(0.176862 0.0244196 -0.00022067)
(0.196388 0.0142957 0.000245103)
(0.208944 0.00819616 0.000307809)
(0.217621 0.00499358 0.000274238)
(0.223291 0.00323343 0.00022139)
(0.227088 0.00216586 0.000170043)
(0.229669 0.00146991 0.000132781)
(0.231361 0.000984481 0.000111334)
(0.23234 0.000618994 0.000104367)
(0.232685 0.000321006 0.000111945)
(0.23234 3.46167e-05 0.000141905)
(0.231297 -0.000354294 0.000191355)
(0.228384 -0.000968815 0.000326417)
(0.225441 -0.0026498 0.000397958)
(0.210431 -0.00601852 0.000839465)
(0.209204 -0.015357 0.000536564)
(0.133117 -0.0320647 -0.000259452)
(0.135977 -0.0889185 -0.00323671)
(-0.000299659 0.000295477 -1.64112e-06)
(-0.000987822 0.000352586 3.24432e-06)
(-0.00173572 0.000339888 4.39878e-06)
(-0.00242767 0.00031472 4.74518e-06)
(-0.00305777 0.00028163 4.55785e-06)
(-0.00361049 0.000241721 4.02536e-06)
(-0.00407249 0.000196047 3.25561e-06)
(-0.00443284 0.000145711 2.31028e-06)
(-0.004683 9.1835e-05 1.23323e-06)
(-0.00481678 3.55613e-05 5.81201e-08)
(-0.00483041 -2.19489e-05 -1.19089e-06)
(-0.00472259 -7.95088e-05 -2.47274e-06)
(-0.00449456 -0.000135843 -3.74491e-06)
(-0.00415029 -0.000189603 -4.95547e-06)
(-0.00369667 -0.000239354 -6.03627e-06)
(-0.00314367 -0.000283605 -6.89193e-06)
(-0.00250451 -0.000320864 -7.37359e-06)
(-0.00179556 -0.000349562 -7.24637e-06)
(-0.00102461 -0.000364554 -6.17505e-06)
(-0.000311674 -0.000306809 -9.67763e-07)
(-0.000372286 0.000994295 -7.04532e-06)
(-0.00121765 0.00117638 -1.90789e-06)
(-0.00212894 0.00113354 -3.87766e-07)
(-0.00297238 0.00104916 4.02909e-07)
(-0.00373984 0.00093825 7.26484e-07)
(-0.00441233 0.000804661 7.73858e-07)
(-0.00497375 0.000652006 6.43868e-07)
(-0.00541107 0.000484017 3.85156e-07)
(-0.00571414 0.00030446 2.68615e-08)
(-0.0058757 0.0001171 -4.19272e-07)
(-0.00589139 -7.42797e-05 -9.32005e-07)
(-0.00575969 -0.000265693 -1.49405e-06)
(-0.00548212 -0.00045303 -2.07634e-06)
(-0.0050634 -0.000631863 -2.63961e-06)
(-0.00451175 -0.000797458 -3.12674e-06)
(-0.00383905 -0.00094486 -3.44975e-06)
(-0.00306125 -0.00106906 -3.45995e-06)
(-0.0021982 -0.00116468 -2.91513e-06)
(-0.00126024 -0.00121481 -1.49437e-06)
(-0.000386177 -0.00103076 4.0005e-06)
(-0.000393868 0.00180662 -9.22783e-06)
(-0.0012884 0.00212636 -3.90539e-06)
(-0.00225212 0.00204794 -2.21664e-06)
(-0.00314289 0.00189465 -1.23985e-06)
(-0.00395253 0.0016934 -7.23583e-07)
(-0.00466125 0.00145143 -4.67084e-07)
(-0.00525246 0.0011754 -3.68805e-07)
(-0.00571289 0.000872136 -3.84249e-07)
(-0.00603234 0.000548406 -4.91113e-07)
(-0.0062035 0.000210897 -6.78313e-07)
(-0.0062218 -0.000133711 -9.39174e-07)
(-0.00608555 -0.000478477 -1.25581e-06)
(-0.00579601 -0.000816142 -1.6056e-06)
(-0.00535754 -0.00113886 -1.95464e-06)
(-0.00477806 -0.00143817 -2.24922e-06)
(-0.0040694 -0.00170509 -2.40188e-06)
(-0.00324782 -0.00193041 -2.25915e-06)
(-0.00233406 -0.00210416 -1.56625e-06)
(-0.00133883 -0.00219588 5.62794e-09)
(-0.000410306 -0.00187271 5.75221e-06)
(-0.000421808 0.00265295 -1.10176e-05)
(-0.00137981 0.00311714 -5.38592e-06)
(-0.00241117 0.00300049 -3.53327e-06)
(-0.0033629 0.00277427 -2.40561e-06)
(-0.00422645 0.00247805 -1.74961e-06)
(-0.00498111 0.00212276 -1.35366e-06)
(-0.00560992 0.00171844 -1.11124e-06)
(-0.00609956 0.00127512 -9.77748e-07)
(-0.00643994 0.000802599 -9.34314e-07)
(-0.00662384 0.00031037 -9.7278e-07)
(-0.00664659 -0.000192156 -1.08719e-06)
(-0.00650615 -0.000695381 -1.26623e-06)
(-0.00620317 -0.00118904 -1.49253e-06)
(-0.00574125 -0.00166196 -1.73403e-06)
(-0.00512758 -0.00210188 -1.93675e-06)
(-0.00437352 -0.00249552 -2.00874e-06)
(-0.00349541 -0.00282896 -1.78438e-06)
(-0.00251498 -0.003087 -9.85453e-07)
(-0.00144383 -0.00322443 7.4107e-07)
(-0.000442658 -0.00275506 6.89628e-06)
(-0.00046103 0.00356833 -1.2908e-05)
(-0.00150766 0.00418844 -6.80658e-06)
(-0.00263298 0.00402881 -4.75599e-06)
(-0.0036689 0.00372192 -3.47143e-06)
(-0.00460634 0.00332155 -2.68595e-06)
(-0.00542345 0.00284311 -2.17095e-06)
(-0.00610298 0.00230055 -1.81235e-06)
(-0.00663184 0.00170741 -1.56403e-06)
(-0.00700034 0.00107655 -1.40855e-06)
(-0.00720155 0.000420127 -1.34014e-06)
(-0.00723082 -0.000250071 -1.35607e-06)
(-0.00708559 -0.000922048 -1.44856e-06)
(-0.00676557 -0.00158289 -1.60501e-06)
(-0.00627311 -0.00221826 -1.79453e-06)
(-0.00561403 -0.00281194 -1.96104e-06)
(-0.00479861 -0.00334588 -2.00423e-06)
(-0.00384297 -0.00380061 -1.73881e-06)
(-0.00276993 -0.00415434 -8.50104e-07)
(-0.00159238 -0.00434483 1.05621e-06)
(-0.000488613 -0.00371745 7.82728e-06)
(-0.000513278 0.00457836 -1.51737e-05)
(-0.00167753 0.00536936 -8.43131e-06)
(-0.0029267 0.00515966 -6.12927e-06)
(-0.00407258 0.00476087 -4.65312e-06)
(-0.00510545 0.0042433 -3.7178e-06)
(-0.00600223 0.00362804 -3.07144e-06)
(-0.00674574 0.00293372 -2.59025e-06)
(-0.00732369 0.00217783 -2.22595e-06)
(-0.00772736 0.00137631 -1.96236e-06)
(-0.0079506 0.000543653 -1.79659e-06)
(-0.0079889 -0.000306465 -1.7299e-06)
(-0.0078391 -0.00116031 -1.75689e-06)
(-0.00749949 -0.00200285 -1.87121e-06)
(-0.00697041 -0.00281691 -2.04329e-06)
(-0.00625531 -0.00358231 -2.21406e-06)
(-0.00536238 -0.0042756 -2.27134e-06)
(-0.00430668 -0.00487049 -2.00173e-06)
(-0.00311194 -0.0053367 -1.0375e-06)
(-0.00179262 -0.00559135 1.07795e-06)
(-0.000550781 -0.00479064 8.69367e-06)
(-0.000580879 0.00571185 -1.80697e-05)
(-0.00189664 0.0066925 -1.04943e-05)
(-0.0033039 0.00642228 -7.86463e-06)
(-0.00458824 0.00591569 -6.13305e-06)
(-0.00573929 0.00526296 -4.9964e-06)
(-0.00673305 0.00449261 -4.17468e-06)
(-0.00755319 0.00362914 -3.53346e-06)
(-0.00818926 0.00269446 -3.02269e-06)
(-0.00863453 0.00170752 -2.62786e-06)
(-0.00888434 0.000684639 -2.34943e-06)
(-0.00893479 -0.000359511 -2.1934e-06)
(-0.00878198 -0.00141051 -2.15649e-06)
(-0.00842218 -0.00245218 -2.24138e-06)
(-0.00785259 -0.00346523 -2.42161e-06)
(-0.00707273 -0.00442565 -2.63557e-06)
(-0.00608695 -0.00530399 -2.75637e-06)
(-0.00490762 -0.00606544 -2.53242e-06)
(-0.00355859 -0.00666836 -1.52057e-06)
(-0.00205586 -0.00700392 8.25931e-07)
(-0.000632884 -0.0060109 9.55076e-06)
(-0.000667283 0.0070034 -2.18878e-05)
(-0.00217548 0.00819638 -1.32504e-05)
(-0.00378097 0.00785014 -1.01828e-05)
(-0.00523557 0.00721328 -8.09098e-06)
(-0.00652867 0.00640084 -6.66082e-06)
(-0.00763606 0.0054514 -5.58132e-06)
(-0.0085439 0.00439689 -4.70837e-06)
(-0.00924532 0.00326426 -3.99104e-06)
(-0.0097372 0.00207521 -3.41676e-06)
(-0.0100176 0.000846922 -2.9895e-06)
(-0.0100841 -0.000406285 -2.72051e-06)
(-0.00993177 -0.00167099 -2.60842e-06)
(-0.00955421 -0.00293155 -2.66808e-06)
(-0.00894388 -0.00416782 -2.8816e-06)
(-0.00809408 -0.00535267 -3.18757e-06)
(-0.00700237 -0.0064501 -3.44333e-06)
(-0.00567554 -0.00741474 -3.34787e-06)
(-0.00413548 -0.00818941 -2.35178e-06)
(-0.00239904 -0.00863128 2.19437e-07)
(-0.000740623 -0.00742368 1.03701e-05)
(-0.000777727 0.00849589 -2.70364e-05)
(-0.00252958 0.00992759 -1.70504e-05)
(-0.00438143 0.00948196 -1.33731e-05)
(-0.00604197 0.00868275 -1.07469e-05)
(-0.00750135 0.00767698 -8.86582e-06)
(-0.00873701 0.0065171 -7.38896e-06)
(-0.00974035 0.00524455 -6.16548e-06)
(-0.010511 0.00389189 -5.14424e-06)
(-0.0110519 0.00248293 -4.31358e-06)
(-0.0113658 0.00103422 -3.67965e-06)
(-0.0114527 -0.000442407 -3.25781e-06)
(-0.0113072 -0.00193704 -3.04767e-06)
(-0.010919 -0.00343727 -3.07969e-06)
(-0.0102737 -0.00492446 -3.35427e-06)
(-0.00935503 -0.00636985 -3.81913e-06)
(-0.00814928 -0.007731 -4.31982e-06)
(-0.00665252 -0.00894957 -4.49556e-06)
(-0.00488034 -0.0099471 -3.64619e-06)
(-0.00284818 -0.0105347 -8.89977e-07)
(-0.000883058 -0.0090882 1.10293e-05)
(-0.000920451 0.0102447 -3.4147e-05)
(-0.00298251 0.0119442 -2.24337e-05)
(-0.00513963 0.0113632 -1.78554e-05)
(-0.00704585 0.0103552 -1.43946e-05)
(-0.00869454 0.00910971 -1.17935e-05)
(-0.0100685 0.00769852 -9.68855e-06)
(-0.0111691 0.00617508 -7.92626e-06)
(-0.012007 0.00457788 -6.45352e-06)
(-0.0125949 0.00293156 -5.25492e-06)
(-0.012943 0.00124963 -4.33303e-06)
(-0.0130553 -0.000461696 -3.70244e-06)
(-0.0129266 -0.00219963 -3.36005e-06)
(-0.0125416 -0.00395902 -3.35576e-06)
(-0.0118765 -0.00572685 -3.71836e-06)
(-0.0109006 -0.00747588 -4.42921e-06)
(-0.00958241 -0.0091585 -5.34097e-06)
(-0.00789858 -0.0107015 -6.03257e-06)
(-0.00584977 -0.0119976 -5.59948e-06)
(-0.0034444 -0.0127933 -2.81645e-06)
(-0.00107517 -0.0110855 1.12238e-05)
(-0.00110903 0.0123247 -4.42532e-05)
(-0.00357121 0.0143204 -3.0281e-05)
(-0.00610663 0.0135476 -2.42605e-05)
(-0.00830172 0.0122623 -1.94307e-05)
(-0.0101583 0.0107127 -1.56451e-05)
(-0.0116717 0.00899703 -1.25336e-05)
(-0.012861 0.00718331 -9.94068e-06)
(-0.0137545 0.00531569 -7.80328e-06)
(-0.0143802 0.00341724 -6.08819e-06)
(-0.0147591 0.0014947 -4.77696e-06)
(-0.014902 -0.000455918 -3.86972e-06)
(-0.0148046 -0.00244384 -3.35198e-06)
(-0.0144462 -0.00447687 -3.29422e-06)
(-0.0137906 -0.00655387 -3.76553e-06)
(-0.0127867 -0.00865548 -4.81529e-06)
(-0.0113753 -0.0107332 -6.36668e-06)
(-0.00950022 -0.0126984 -7.97666e-06)
(-0.00713054 -0.014407 -8.48883e-06)
(-0.00425537 -0.0155121 -6.03504e-06)
(-0.00134317 -0.0135323 1.02861e-05)
(-0.00136709 0.0148425 -5.91283e-05)
(-0.00435575 0.0171539 -4.20809e-05)
(-0.00736003 0.0160985 -3.35347e-05)
(-0.00988802 0.0144334 -2.63623e-05)
(-0.0119601 0.0124899 -2.05849e-05)
(-0.013598 0.0104006 -1.58511e-05)
(-0.0148505 0.00825073 -1.19926e-05)
(-0.0157731 0.00608784 -8.90844e-06)
(-0.0164159 0.00392881 -6.50494e-06)
(-0.0168162 0.00176806 -4.70025e-06)
(-0.0169939 -0.000414693 -3.45329e-06)
(-0.0169476 -0.00264711 -2.69466e-06)
(-0.0166517 -0.00495748 -2.5298e-06)
(-0.0160551 -0.0073655 -3.09882e-06)
(-0.0150799 -0.00987023 -4.5721e-06)
(-0.0136258 -0.0124331 -7.04116e-06)
(-0.0115831 -0.0149554 -1.0183e-05)
(-0.00885838 -0.0172501 -1.26584e-05)
(-0.00539735 -0.0188324 -1.12434e-05)
(-0.00173606 -0.0166073 6.74357e-06)
(-0.00173826 0.0179591 -8.19609e-05)
(-0.00543779 0.020575 -6.0393e-05)
(-0.00901998 0.0190893 -4.70325e-05)
(-0.0119189 0.0168886 -3.57287e-05)
(-0.0141915 0.0144254 -2.65555e-05)
(-0.015911 0.0118751 -1.92346e-05)
(-0.0171739 0.00933899 -1.3524e-05)
(-0.0180765 0.00686129 -9.18298e-06)
(-0.0187 0.00444461 -5.9422e-06)
(-0.0191027 0.00206357 -3.58838e-06)
(-0.0193172 -0.000325878 -1.94769e-06)
(-0.0193474 -0.00277757 -8.59238e-07)
(-0.0191647 -0.00534955 -4.70173e-07)
(-0.0187033 -0.00809455 -1.00651e-06)
(-0.0178542 -0.0110459 -2.85482e-06)
(-0.016461 -0.0141952 -6.47324e-06)
(-0.0143308 -0.0174551 -1.20085e-05)
(-0.0112496 -0.020603 -1.83959e-05)
(-0.00707958 -0.0229406 -1.93807e-05)
(-0.00235165 -0.020604 -2.54043e-06)
(-0.00230856 0.0219149 -0.000118419)
(-0.00699763 0.0247508 -8.94201e-05)
(-0.0112756 0.0225975 -6.6406e-05)
(-0.014562 0.0196232 -4.77339e-05)
(-0.0169742 0.0164684 -3.27792e-05)
(-0.0186847 0.0133521 -2.15102e-05)
(-0.0198644 0.0103808 -1.33334e-05)
(-0.0206675 0.00758093 -7.53431e-06)
(-0.0212137 0.0049283 -3.44352e-06)
(-0.0215867 0.00236758 -5.62434e-07)
(-0.0218351 -0.000176784 1.46152e-06)
(-0.0219713 -0.00279321 3.17393e-06)
(-0.0219687 -0.0055793 4.13958e-06)
(-0.0217515 -0.00863577 4.05378e-06)
(-0.0211805 -0.0120535 2.18905e-06)
(-0.0200355 -0.0158874 -2.54915e-06)
(-0.0180079 -0.0201062 -1.13932e-05)
(-0.0146506 -0.0245138 -2.55918e-05)
(-0.00969906 -0.0280551 -3.19919e-05)
(-0.00340357 -0.0260654 -2.3751e-05)
(-0.00324282 0.0273195 -0.000184329)
(-0.0093484 0.029949 -0.000137393)
(-0.0144193 0.0267011 -9.31193e-05)
(-0.0180603 0.0225792 -6.10772e-05)
(-0.0204635 0.0185088 -3.65464e-05)
(-0.0219988 0.0147103 -1.98788e-05)
(-0.0229451 0.0112671 -8.95923e-06)
(-0.023529 0.00816148 -1.95354e-06)
(-0.0239133 0.00532352 2.62298e-06)
(-0.0242077 0.00265543 6.00203e-06)
(-0.0244779 4.22838e-05 9.00709e-06)
(-0.0247498 -0.00264358 1.11588e-05)
(-0.0250071 -0.0055487 1.33603e-05)
(-0.0251774 -0.00883649 1.49456e-05)
(-0.0251056 -0.0126838 1.45975e-05)
(-0.0245142 -0.0172592 9.93249e-06)
(-0.0229778 -0.0226646 -2.47533e-06)
(-0.0196004 -0.0288989 -3.16318e-05)
(-0.0140694 -0.0343412 -4.74878e-05)
(-0.00542206 -0.0339945 -7.34229e-05)
(-0.0050781 0.0334783 -0.00027467)
(-0.0133215 0.0359741 -0.000202498)
(-0.0189649 0.0312882 -0.000120659)
(-0.0227692 0.0255709 -6.86982e-05)
(-0.024843 0.0203311 -3.04479e-05)
(-0.0259252 0.015748 -7.95659e-06)
(-0.0264112 0.0118324 4.61287e-06)
(-0.0266086 0.00848061 1.14279e-05)
(-0.0267168 0.0055511 1.53491e-05)
(-0.0268646 0.0028896 1.82313e-05)
(-0.0271303 0.000337045 2.11644e-05)
(-0.0275581 -0.00227582 2.5129e-05)
(-0.0281568 -0.00513991 3.02784e-05)
(-0.0288811 -0.00849012 3.64322e-05)
(-0.0295965 -0.0126161 4.20725e-05)
(-0.0300088 -0.0178659 4.34707e-05)
(-0.0296591 -0.0246074 3.39197e-05)
(-0.0268691 -0.0334781 -1.82293e-05)
(-0.0218097 -0.0417403 -4.03937e-05)
(-0.00962681 -0.0461872 -0.000179626)
(-0.00733758 0.0487401 -0.000613056)
(-0.0185822 0.0446525 -0.00035169)
(-0.025183 0.0368536 -0.00015415)
(-0.0290249 0.0283971 -5.52675e-05)
(-0.0302535 0.0215856 2.76358e-06)
(-0.030449 0.016145 2.80837e-05)
(-0.0301516 0.0118328 3.7522e-05)
(-0.0297395 0.0083702 3.97263e-05)
(-0.029425 0.00550304 3.97848e-05)
(-0.0293348 0.00300845 4.04757e-05)
(-0.0295489 0.000685715 4.35829e-05)
(-0.0301244 -0.00166061 5.00045e-05)
(-0.0311094 -0.00425135 6.12747e-05)
(-0.0325283 -0.007401 7.86188e-05)
(-0.0343352 -0.0115504 0.000102382)
(-0.0363252 -0.0173913 0.000128584)
(-0.0383561 -0.0257056 0.000150511)
(-0.0371793 -0.038636 6.01658e-05)
(-0.0353631 -0.0517433 6.32573e-05)
(-0.017857 -0.0678378 -0.000396766)
(-0.0179209 0.0529158 -0.00067989)
(-0.0351672 0.0523727 -0.000454123)
(-0.0352008 0.0412196 -6.71337e-05)
(-0.0373916 0.0302887 4.69428e-05)
(-0.0360831 0.0218876 0.000108784)
(-0.0344153 0.0156591 0.000117846)
(-0.0327356 0.0111175 0.000108676)
(-0.0313468 0.00774072 9.54004e-05)
(-0.0303763 0.00513161 8.47812e-05)
(-0.0298865 0.00299789 7.9544e-05)
(-0.0299175 0.00111157 8.0949e-05)
(-0.0305248 -0.000731337 9.19129e-05)
(-0.0318228 -0.00273121 0.00011429)
(-0.0339656 -0.00515415 0.000150633)
(-0.0371612 -0.00837619 0.000203755)
(-0.0413709 -0.0132513 0.00026127)
(-0.0474175 -0.0200566 0.0003481)
(-0.048978 -0.0360818 0.00019057)
(-0.054734 -0.0506033 0.000281824)
(-0.0257965 -0.096654 -0.000635802)
(-0.0407795 0.117214 -0.00152562)
(-0.0436831 0.0549316 -9.27472e-05)
(-0.0368693 0.040561 0.000335121)
(-0.0306299 0.0263452 0.00048163)
(-0.0229473 0.0172398 0.000449696)
(-0.0168965 0.0117739 0.000355777)
(-0.012232 0.00814921 0.00027297)
(-0.00884905 0.00561133 0.000211903)
(-0.00653118 0.00376324 0.000172143)
(-0.00511018 0.00233723 0.000151523)
(-0.00448906 0.00114565 0.000149071)
(-0.00462491 2.96506e-05 0.000165264)
(-0.00553936 -0.00118223 0.000210441)
(-0.00724412 -0.00276835 0.000297186)
(-0.0100104 -0.00521968 0.000464072)
(-0.0125145 -0.0102474 0.00068743)
(-0.0204527 -0.0194597 0.00128043)
(-0.0151239 -0.0433559 0.00112763)
(-0.0384049 -0.0804662 0.00204704)
(0.00359448 -0.172208 -0.000926721)
(0.124366 0.111395 -0.00220999)
(0.135068 0.0508692 -0.00161391)
(0.199955 0.0304435 -0.000385204)
(0.224611 0.0180724 0.000236094)
(0.240459 0.0104309 0.000367362)
(0.251546 0.00632872 0.000355752)