/*--------------------------------*- C++ -*----------------------------------*\
  =========                 |
  \\      /  F ield         | OpenFOAM: The Open Source CFD Toolbox
   \\    /   O peration     | Website:  https://openfoam.org
    \\  /    A nd           | Version:  10
     \\/     M anipulation  |
\*---------------------------------------------------------------------------*/
FoamFile
{
    format      ascii;
    class       volScalarField;
    location    "7.4";
    object      p;
}
// * * * * * * * * * * * * * * * * * * * * * * * * * * * * * * * * * * * * * //

dimensions      [0 2 -2 0 0 0 0];

internalField   nonuniform List<scalar> 
400
(
4.89653e-07
-2.09519e-05
3.30067e-05
0.000136337
0.000296168
0.0005148
0.000795523
0.00114223
0.00155825
0.00204521
0.00260169
0.00322132
0.0038905
0.00458615
0.00527362
0.00590741
0.00643415
0.0068024
0.00700467
0.00695915
2.4782e-05
2.4837e-06
6.22133e-05
0.000166711
0.000324598
0.00053898
0.000813639
0.00115276
0.00155994
0.00203725
0.00258397
0.0031946
0.00385594
0.0045476
0.00523515
0.00587289
0.00640533
0.00677872
0.0069888
0.00693215
-3.73438e-05
-6.7589e-05
-9.74273e-06
9.05852e-05
0.000242805
0.000450298
0.000717458
0.00104943
0.00145119
0.00192663
0.00247721
0.00309997
0.00378579
0.00451444
0.00525055
0.00594336
0.00652683
0.00693292
0.00715663
0.00706355
-0.000165768
-0.000201622
-0.000147323
-5.36015e-05
8.9849e-05
0.000286865
0.000542766
0.000864134
0.00125803
0.00173127
0.00228907
0.00293284
0.00365668
0.00444488
0.00526204
0.00605027
0.00672607
0.00719233
0.00744227
0.0072899
-0.000367358
-0.00040813
-0.000359529
-0.000275307
-0.000144241
3.80787e-05
0.000278107
0.000584213
0.0009661
0.00143444
0.00199979
0.00267003
0.00344686
0.00431801
0.00525305
0.00618537
0.00700707
0.00757352
0.00786662
0.00760635
-0.000640889
-0.000686764
-0.000646087
-0.000574675
-0.000460541
-0.000298749
-8.17088e-05
0.000200812
0.000561439
0.00101528
0.00157948
0.0022713
0.00310298
0.0040746
0.00516417
0.00630157
0.00734792
0.00808063
0.00844437
0.00798478
-0.0009828
-0.00103452
-0.00100415
-0.000949481
-0.000858024
-0.000724616
-0.00054089
-0.000295116
2.79717e-05
0.000447911
0.000989026
0.00168008
0.00254997
0.00361662
0.00488574
0.00629484
0.00767849
0.00869789
0.00917988
0.0083744
-0.00138846
-0.00144707
-0.00142951
-0.001396
-0.00133395
-0.00123858
-0.00110161
-0.000910899
-0.000649759
-0.000295529
0.00018234
0.000824342
0.00168117
0.00280526
0.00422248
0.00593259
0.00779064
0.00933078
0.0100018
0.00872266
-0.00185198
-0.00191862
-0.0019161
-0.00190809
-0.00188247
-0.00183573
-0.00176104
-0.00164781
-0.00148081
-0.00123797
-0.000887425
-0.000383864
0.000336768
0.00135576
0.00276304
0.00464813
0.00705316
0.00954215
0.0105524
0.00900343
-0.00236614
-0.00244186
-0.00245566
-0.00247639
-0.00249322
-0.00250512
-0.00250847
-0.00249684
-0.00246053
-0.00238498
-0.00224831
-0.00201672
-0.00163946
-0.00104617
-0.000134138
0.0013066
0.00384309
0.00763271
0.00952553
0.00911691
-0.00292284
-0.0030084
-0.0030378
-0.00308804
-0.00315051
-0.00322797
-0.00332212
-0.00343381
-0.00356409
-0.00371476
-0.00388987
-0.0040994
-0.00437442
-0.00481143
-0.00553902
-0.00627546
-0.00528626
-0.000435174
0.00430115
0.00775944
-0.00351419
-0.00360946
-0.00364979
-0.00372592
-0.00383194
-0.00397585
-0.0041661
-0.00441338
-0.00473429
-0.00515631
-0.00572816
-0.00654166
-0.00778517
-0.00988763
-0.0135189
-0.0185657
-0.0211793
-0.0159717
-0.00757021
0.00120439
-0.00413548
-0.00424014
-0.00428269
-0.0043756
-0.00451528
-0.00471667
-0.00499609
-0.00537474
-0.00588709
-0.00659152
-0.00759257
-0.00908684
-0.011468
-0.0154993
-0.0224417
-0.0320524
-0.0393889
-0.0350751
-0.0244583
-0.011035
-0.00478144
-0.00488601
-0.00490729
-0.00499679
-0.00515322
-0.00539599
-0.00574494
-0.00623006
-0.00689872
-0.00783107
-0.00917185
-0.0111789
-0.0143935
-0.0196934
-0.0285276
-0.0401411
-0.0498987
-0.0466989
-0.0372032
-0.0222318
-0.00548146
-0.0055951
-0.00557536
-0.00564394
-0.00578346
-0.00602688
-0.00639949
-0.00693533
-0.00768579
-0.00873396
-0.0102344
-0.0124269
-0.0159043
-0.0213034
-0.0302886
-0.0410005
-0.0500033
-0.0468955
-0.0398242
-0.0247576
-0.00631711
-0.00623581
-0.0060946
-0.00605614
-0.0061536
-0.00639592
-0.00679161
-0.00736016
-0.00814367
-0.00921087
-0.010703
-0.0127695
-0.0159908
-0.0207089
-0.0278879
-0.0357595
-0.0418924
-0.0385456
-0.0340856
-0.0167639
-0.00679971
-0.00722084
-0.00691454
-0.00691125
-0.00689141
-0.00701025
-0.00728243
-0.00774089
-0.00842611
-0.009386
-0.0107569
-0.0125123
-0.0152568
-0.0189288
-0.0241867
-0.0292146
-0.0329751
-0.0286153
-0.0233666
0.00264416
-0.01018
-0.00765517
-0.00700528
-0.00640411
-0.00631878
-0.00649056
-0.00686236
-0.0073973
-0.00811695
-0.00903649
-0.0102681
-0.0118725
-0.0141466
-0.0170009
-0.0207791
-0.0236345
-0.0249314
-0.0185623
-0.0070116
0.0362818
-0.00685557
-0.00984893
-0.00876039
-0.00875977
-0.0082917
-0.00804632
-0.00798812
-0.0081445
-0.00855957
-0.00922519
-0.0102479
-0.0116243
-0.0137578
-0.0163484
-0.0200796
-0.0223813
-0.0225095
-0.0087994
0.0178253
0.0947703
-0.0320777
-0.00702326
-0.00548097
-0.00472461
-0.00452028
-0.004732
-0.00524887
-0.0058682
-0.00669005
-0.00763145
-0.00893747
-0.0104793
-0.0125791
-0.014638
-0.0164411
-0.0143436
-0.0050303
0.0287678
0.0963363
0.227745
)
;

boundaryField
{
    movingWall
    {
        type            zeroGradient;
    }
    fixedWalls
    {
        type            zeroGradient;
    }
    frontAndBack
    {
        type            empty;
    }
}


// ************************************************************************* //
