/*--------------------------------*- C++ -*----------------------------------*\
  =========                 |
  \\      /  F ield         | OpenFOAM: The Open Source CFD Toolbox
   \\    /   O peration     | Website:  https://openfoam.org
    \\  /    A nd           | Version:  10
     \\/     M anipulation  |
\*---------------------------------------------------------------------------*/
FoamFile
{
    format      ascii;
    class       volScalarField;
    location    "3.95";
    object      p;
}
// * * * * * * * * * * * * * * * * * * * * * * * * * * * * * * * * * * * * * //

dimensions      [0 2 -2 0 0 0 0];

internalField   nonuniform List<scalar> 
496
(
32.0843
32.6627
28.8996
21.9041
32.8529
33.5242
28.4326
21.7923
37.8234
35.1287
25.7193
14.418
45.0033
41.9275
38.6901
22.5124
12.9385
3.83546
12.6888
3.67784
-1.31052
-4.91869
-29.1363
-58.2186
-2.86682
-7.04233
-9.05703
-10.1088
-3.94796
-9.20727
-11.5995
-12.7604
2.71463
2.38771
-2.82709
-9.86203
-26.8585
-0.0404078
-0.851316
-11.1426
-11.0586
-11.8925
-12.5
-12.5379
-12.2023
-11.8735
-11.7346
-12.232
-12.6161
-12.6845
-12.1751
-11.3155
-10.2574
-9.03836
-8.0723
-7.06991
-6.19061
-5.24459
-4.72466
-4.71327
-4.78338
-4.51663
-3.81976
-3.58398
-3.73478
-4.00547
-3.83857
-3.25706
-2.65137
-1.92958
-1.14506
-0.286506
0.373811
0.647227
0.58347
0.318124
0.0896752
-0.00334772
-0.0275821
-0.0314208
-13.4539
-13.6351
-13.4767
-12.8351
-12.1032
-11.6201
-11.6663
-11.7887
-12.0602
-12.2284
-12.0991
-11.5899
-10.3303
-8.98395
-7.95078
-7.07634
-6.23968
-5.21593
-4.46661
-4.22681
-4.39592
-4.29542
-3.86329
-3.59977
-3.68262
-3.98288
-3.93851
-3.54677
-2.88117
-2.0398
-1.10426
-0.110957
0.593384
0.868362
0.695866
0.329681
0.0427417
-0.0959837
-0.0934361
-0.0770969
-14.1028
-15.1105
-13.9687
-12.9482
-12.746
-12.911
-13.0267
-12.9724
-12.9009
-13.2466
-13.1063
-12.1284
-10.6767
-9.37587
-8.06872
-7.05285
-6.05305
-5.01313
-4.23735
-4.04599
-4.32697
-4.51095
-4.61594
-4.32857
-4.17342
-4.1144
-3.76636
-3.44695
-2.70924
-1.91332
-1.08491
0.117932
0.650922
0.701799
0.156338
-0.355968
-0.720586
-0.87356
-0.648294
-0.387463
-12.872
-13.3119
-12.9532
-12.8548
-13.4074
-12.9444
-11.7381
-10.9169
-12.3319
-13.2925
-13.141
-12.0356
-10.8932
-9.98279
-8.26094
-6.64175
-5.04633
-3.9382
-3.3912
-3.26252
-3.59967
-4.28501
-5.04947
-4.79467
-5.04321
-4.88893
-4.59348
-4.51148
-3.8945
-2.81079
-0.168847
1.94648
3.13305
2.88769
1.63276
0.55296
-0.488897
-0.942916
-1.4692
-1.0425
50.2236
52.3643
67.2203
78.4963
50.9353
52.3753
66.5544
79.4797
-37.7122
-12.7833
-14.1677
-16.791
-29.8042
-24.3609
-9.32322
-21.4396
-15.7059
-15.3934
-14.1309
-15.1672
-14.3763
-13.6995
-14.2374
-14.3799
-13.6447
-13.0351
-12.3522
-12.1373
-11.727
-10.6561
-8.47446
-6.57724
-5.15181
-4.22891
-3.65283
-3.06048
-3.23483
-3.9584
-3.85008
-4.27829
-5.119
-4.20622
-3.67386
-3.68613
-3.24121
-2.4902
-1.55252
-0.414241
0.347456
0.252828
-0.0502445
-0.24449
-0.741652
-0.891611
-0.654799
-0.249429
-9.38324
-14.8618
-11.636
-12.004
-13.4656
-14.1011
-13.8684
-13.2367
-15.3561
-15.6745
-14.0764
-12.7865
-11.5197
-10.1448
-8.44179
-6.9239
-6.20023
-4.93286
-3.82145
-3.3254
-3.12393
-2.85367
-2.31853
-2.26154
-2.26227
-2.2033
-2.1592
-2.39491
-2.49493
-2.49393
-2.53711
-2.22326
-2.19605
-2.47743
-2.10632
-1.67943
-1.44364
-0.963028
-0.112865
0.265809
46.6316
43.0222
39.782
24.3873
38.459
36.3249
28.4096
18.0826
33.8973
34.6007
31.1924
24.8732
33.3883
33.5945
30.4486
24.4914
-23.6055
-49.1523
3.34738
-1.76616
15.9227
7.2802
15.8423
6.66262
-18.3091
-10.3242
-7.27513
-3.94107
3.44672
2.13331
-2.68687
-7.68881
-0.136267
-5.48384
-9.33043
-11.6751
-0.553489
-5.34138
-7.74059
-9.15192
-7.83729
-9.09102
-10.6643
-11.9983
-12.952
-14.1898
-15.9753
-17.3475
-16.0482
-14.9618
-13.9668
-12.7938
-11.492
-9.79311
-8.57761
-7.0596
-6.0415
-5.11158
-4.30176
-3.32537
-2.26046
-1.97855
-0.840356
-0.53538
-0.512998
-0.819517
-1.33073
-1.68697
-2.39533
-2.71698
-3.31247
-3.41914
-3.30538
-3.23765
-2.93551
-2.53468
-1.70776
-1.12292
-0.174613
0.763803
-10.2112
-11.6359
-12.2203
-12.8459
-12.9114
-12.9928
-13.5554
-14.6021
-15.0676
-14.4079
-13.4039
-12.1677
-11.1064
-9.9122
-8.81673
-7.49898
-6.29246
-5.30798
-4.433
-3.89417
-3.11491
-2.5378
-1.87754
-1.37646
-1.35628
-1.37612
-1.66743
-1.88747
-2.2826
-2.52399
-2.65807
-2.94132
-2.83223
-2.66591
-2.37572
-1.99564
-1.40289
-0.882332
-0.383399
-0.136904
-12.0287
-11.6228
-11.4477
-11.9609
-12.5481
-12.6929
-12.871
-13.3344
-14.1165
-14.1816
-13.3529
-12.0337
-10.686
-9.61054
-8.49103
-7.42343
-6.24769
-5.28215
-4.59927
-4.1718
-3.6796
-2.87493
-2.24295
-1.74834
-1.66972
-1.71867
-1.70718
-1.73586
-1.70495
-1.99781
-2.08762
-2.19407
-2.1887
-2.17791
-2.206
-2.10129
-1.88456
-1.42527
-0.916995
-0.328974
-9.8128
-9.98301
-10.014
-10.7206
-12.2064
-13.1496
-13.1284
-12.9302
-13.5008
-13.8859
-13.2531
-11.8479
-10.3584
-9.27745
-8.32092
-7.5105
-6.4705
-5.5748
-4.8882
-4.33455
-3.79266
-2.95572
-2.2922
-1.82891
-1.79208
-1.83971
-1.75404
-1.68868
-1.72495
-1.87539
-1.97566
-2.0761
-2.12869
-2.15563
-2.17334
-2.01706
-1.75577
-1.28877
-0.773262
-0.254766
)
;

boundaryField
{
    inlet
    {
        type            zeroGradient;
    }
    outlet
    {
        type            fixedValue;
        value           uniform 0;
    }
    obstacle
    {
        type            zeroGradient;
    }
    upperWall
    {
        type            zeroGradient;
    }
    lowerWall
    {
        type            zeroGradient;
    }
    frontAndBack
    {
        type            empty;
    }
}


// ************************************************************************* //
