/*--------------------------------*- C++ -*----------------------------------*\
  =========                 |
  \\      /  F ield         | OpenFOAM: The Open Source CFD Toolbox
   \\    /   O peration     | Website:  https://openfoam.org
    \\  /    A nd           | Version:  10
     \\/     M anipulation  |
\*---------------------------------------------------------------------------*/
FoamFile
{
    format      ascii;
    class       surfaceScalarField;
    location    "3.95";
    object      phi;
}
// * * * * * * * * * * * * * * * * * * * * * * * * * * * * * * * * * * * * * //

dimensions      [0 3 -1 0 0 0 0];

internalField   nonuniform List<scalar> 
928
(
0.0951807
0.00481928
0.103774
-0.0085935
0.106599
-0.00282478
-0.0103044
0.116903
0.0940273
0.010792
0.106309
-0.0208752
0.101207
0.00227725
-0.0212214
0.112124
0.0955039
0.0152881
0.106448
-0.0318197
0.102229
0.00649672
-0.0426503
0.123658
0.105328
0.00996008
0.0962503
-0.0227419
0.103513
-0.000765799
0.150388
-0.089525
0.111795
0.00510826
-0.0159686
0.127764
0.107082
0.0101499
-0.0423537
0.133467
0.121375
0.0124324
-0.0446561
0.123678
0.16282
0.118164
0.127251
0.000512863
0.127148
0.00010337
0.128805
-0.00165719
-0.00172295
0.130528
0.131657
0.00232299
0.13025
0.00151095
0.132219
-0.00362677
-0.00366935
0.134166
0.123206
0.00279511
0.128251
-0.00353452
0.128513
-0.00388892
-0.00112453
0.125968
0.105866
0.0150932
0.115464
-0.0131329
0.116626
-0.0050503
0.104948
0.0105532
0.131582
-0.00105475
0.131997
-0.000414595
0.131219
0.000778369
0.131057
0.000162004
0.130649
0.000407449
0.130752
-0.000102749
0.130409
0.000343172
0.130212
0.000196297
0.130394
-0.000181433
0.130325
6.86882e-05
0.130415
-8.96325e-05
0.129275
0.00114022
0.12831
0.000965082
0.126574
0.00173528
0.124828
0.00174617
0.122836
0.0019924
0.120797
0.00203855
0.119424
0.00137311
0.11782
0.0016044
0.117067
0.000753035
0.115953
0.00111339
0.115242
0.00071105
0.11395
0.00129221
0.112108
0.00184204
0.110109
0.00199875
0.107579
0.00253029
0.105732
0.00184717
0.103598
0.00213411
0.102601
0.000996546
0.102293
0.000308411
0.103153
-0.000860669
0.105302
-0.00214907
0.107672
-0.0023699
0.110478
-0.00280549
0.112282
-0.00180398
0.113616
-0.00133396
0.113679
-6.30074e-05
0.113139
0.000539848
0.111697
0.00144198
0.00216166
0.134025
-0.000913672
0.133819
-0.000209065
0.134063
0.000534647
0.134709
-0.000484613
0.134954
0.000162868
0.134912
-6.10464e-05
0.134771
0.000484194
0.135283
-0.000315184
0.135998
-0.000896893
0.136596
-0.000529388
0.136979
-0.000471884
0.13675
0.00136891
0.136719
0.000996335
0.135802
0.00265184
0.134539
0.00300959
0.133035
0.00349555
0.131679
0.00339547
0.130789
0.0022622
0.129837
0.00255708
0.129405
0.00118467
0.128591
0.00192768
0.128263
0.00103886
0.127318
0.00223748
0.126174
0.00298622
0.124928
0.00324466
0.123085
0.00437253
0.121246
0.00368679
0.118751
0.00462911
0.116698
0.0030492
0.115187
0.00181936
0.114923
-0.000596538
0.11623
-0.00345556
0.118226
-0.00436625
0.121044
-0.00562382
0.123279
-0.00403848
0.125511
-0.00356671
0.126993
-0.00154462
0.127846
-0.000313052
0.128261
0.00102679
0.00278833
0.12591
-0.00085495
0.126386
-0.000685386
0.128207
-0.00128631
0.128866
-0.00114332
0.128797
0.000231438
0.128442
0.000293993
0.128846
8.03e-05
0.129529
-0.00099868
0.129432
-0.000799581
0.12927
-0.000367514
0.129419
-0.000620141
0.130787
6.76863e-07
0.131279
0.000504576
0.131375
0.00255567
0.130805
0.00357905
0.130645
0.00365551
0.13081
0.0032312
0.131054
0.00201767
0.131696
0.00191557
0.131708
0.00117214
0.132515
0.0011207
0.132505
0.00104906
0.131964
0.00277872
0.131268
0.00368177
0.128872
0.00564127
0.125474
0.0077697
0.121134
0.00802725
0.117303
0.00846028
0.114026
0.00632548
0.111776
0.00406951
0.111152
2.80719e-05
0.111241
-0.00354442
0.112177
-0.00530302
0.113252
-0.0066989
0.114427
-0.00521283
0.115796
-0.00493591
0.117502
-0.00325068
0.119155
-0.00196652
0.120976
-0.000793557
0.00166341
0.110141
-0.00604825
0.107871
0.00158422
0.10961
-0.0030249
0.108021
0.000445544
0.103133
0.00511917
0.100987
0.00244082
0.0984219
0.00264509
0.0950736
0.00234957
0.0921922
0.0020818
0.0890351
0.00278967
0.0878355
0.000579466
0.0881999
-0.000363784
0.0888327
-0.000128187
0.0891646
0.00222375
0.0900894
0.00265422
0.0926594
0.00108551
0.0943904
0.00150028
0.0963905
1.75167e-05
0.0989836
-0.000677558
0.101796
-0.00164059
0.105665
-0.00274789
0.10839
-0.0016759
0.112926
-0.00175703
0.117774
-0.00116631
0.121257
0.00215852
0.125884
0.00314255
0.130424
0.00348678
0.133453
0.00543161
0.133423
0.00635545
0.130437
0.0070554
0.122777
0.00768801
0.112147
0.00708547
0.101249
0.00559547
0.0918671
0.0026826
0.0861606
0.000493725
0.0833001
-0.00207541
0.083566
-0.00351665
0.0853023
-0.00370278
0.0882454
-0.00373669
-0.000974642
0.10939
0.000570452
0.0877028
-0.0010551
0.0870347
-9.76879e-05
-0.00249039
0.111563
-0.0109928
0.0886224
0.0218858
0.0901858
-0.00166108
0.0876954
-0.00241367
0.0175069
0.0092689
-0.0248155
0.0264536
-0.022235
0.0289893
0.00801756
0.00618967
0.0113172
0.0121135
-0.0307394
-0.00791766
-0.00220383
0.0167552
0.00431638
0.022848
-0.0208787
0.0115004
0.0129318
0.00887551
-0.000400016
0.00739453
0.00192652
0.00604281
0.00647089
0.00309975
0.00538388
0.00608207
-0.000337235
0.0131987
-0.00476705
0.0110351
0.00424544
0.00844417
0.00538056
0.00879458
0.000229055
0.00984443
-0.00141364
0.0123881
-0.00267184
0.0160801
-0.00146832
0.0195563
-0.000821961
0.0216868
-0.00104494
0.023571
-0.000383924
0.0268309
-0.00324237
0.0302872
-0.00413385
0.0313684
-0.00272182
0.0337826
-0.00516207
0.0372504
-0.00514371
0.0380439
-0.00255052
0.0391879
-0.00231038
0.0414971
-0.000150642
0.0410467
0.00359292
0.0394196
0.00511387
0.0381047
0.00674655
0.035895
0.00856515
0.0329499
0.0100005
0.0311901
0.00944775
0.0305345
0.00774108
0.0298674
0.0062626
0.0301882
0.0023618
0.0314165
-0.00073459
0.0318891
-0.00254801
0.0330241
-0.00465168
0.0358356
-0.00651422
0.0376738
-0.00557492
-0.00214211
0.00269934
-0.00682278
0.0104206
0.0052105
0.00780826
0.00221238
0.00431893
0.00541584
0.00713136
0.00365846
0.00696159
0.00555366
0.00498169
0.00164266
-0.000442963
0.000657606
0.000244929
0.00355755
0.00600032
-0.000374824
0.00919003
-0.00296066
0.0106198
-0.00284341
0.0112835
-0.00333558
0.0138192
-0.00400395
0.0167598
-0.00376263
0.0187067
-0.00299177
0.0217767
-0.00345396
0.0233552
-0.00482085
0.0230044
-0.00378302
0.0238893
-0.00360678
0.0235207
-0.00479344
0.0233434
-0.00496641
0.023627
-0.00283417
0.0232321
-0.00191551
0.024373
-0.00129151
0.0263128
0.00165312
0.0276571
0.00376961
0.0293945
0.00500911
0.0320634
0.00589623
0.0357724
0.00629157
0.0393903
0.00582987
0.0429813
0.00415003
0.0462736
0.00297038
0.0486284
6.91228e-06
0.0494434
-0.00154955
0.0495622
-0.00266685
0.0489116
-0.00400102
0.0472584
-0.00486105
0.0462146
-0.00453106
-0.00240192
0.103248
-0.0142406
0.092742
0.0323916
0.0965741
-0.00549324
0.0400553
0.144214
0.0950618
-0.00930243
0.109892
0.0175612
0.103255
0.00114351
0.0185953
0.124715
0.0947189
-0.00402134
0.105001
0.00727857
0.102933
0.00321223
0.00946103
0.112067
0.0959787
0.103257
0.106469
0.11593
0.151437
-0.00722306
0.0472021
0.104235
0.126386
-0.00889397
0.0410407
0.132548
0.109066
-0.00589264
0.0170281
0.133078
0.110038
0.127066
0.110135
0.0054175
0.0774874
0.00190812
0.071062
0.00422164
0.000732598
0.0746458
0.137058
0.000907583
0.137012
0.00195416
0.139943
0.00129069
0.00230962
0.138366
0.134447
-0.000461107
0.135585
0.000816205
0.135308
0.00156744
0.00130296
0.136315
0.126605
0.127421
0.128988
0.130291
0.0668283
0.000994721
0.0700984
0.00194032
0.0700644
0.00224644
0.0722984
0.00318178
0.0731824
0.0027745
0.0770219
0.00171412
0.0786431
2.14526e-05
0.0804816
-0.00118084
0.0856151
-0.00157601
0.0870451
-0.00180479
0.0877824
-0.00369794
0.0890641
-0.00412515
0.0904716
-0.00474305
0.0906942
-0.00422661
0.0915702
-0.00463857
0.0928009
-0.00422248
0.0933793
-0.00403235
0.0929861
-0.0044277
0.0928664
-0.00366326
0.0925871
-0.00332748
0.0896074
-0.00181379
0.086133
-0.00149194
0.0840151
-0.000716359
0.0811982
0.000901443
0.0790691
0.000837569
0.0782688
0.00245341
0.0800369
0.00200157
0.0821253
0.00292071
0.0861253
0.0018962
0.0911292
0.00128772
0.0966933
0.000265775
0.103253
-0.00241013
0.109143
-0.00291933
0.114876
-0.00572586
0.119154
-0.00582789
0.123304
-0.00681651
0.124835
-0.00553244
0.124403
-0.00442913
0.122959
-0.00308679
-0.000422393
0.136028
0.00333274
0.136298
0.00167039
0.136591
0.00195251
0.138902
0.000871491
0.140294
0.00138182
0.141294
0.000714997
0.14089
0.000424714
0.140705
-0.000995428
0.142083
-0.00295403
0.142654
-0.00237611
0.142429
-0.00347232
0.1414
-0.0030961
0.141157
-0.00450034
0.140918
-0.00398777
0.140669
-0.00438981
0.140649
-0.00420208
0.140004
-0.00338717
0.139343
-0.00376695
0.138127
-0.00244705
0.137726
-0.00292632
0.136894
-0.000982541
0.135763
-0.000361161
0.134607
0.000440223
0.133538
0.00197036
0.132549
0.00182627
0.131825
0.00317762
0.131597
0.00222943
0.13204
0.00247839
0.132836
0.00109982
0.134229
-0.000105251
0.135738
-0.00124357
0.136627
-0.00329859
0.137227
-0.00352008
0.136536
-0.00503471
0.134828
-0.00411946
0.132642
-0.00463084
0.130253
-0.00314348
0.128096
-0.00227198
0.126251
-0.00124183
0.000764425
0.138313
0.00133493
0.139217
0.000766123
0.140192
0.000977791
0.141067
-4.02131e-06
0.142419
3.0462e-05
0.143243
-0.000109877
0.143515
0.000153587
0.142789
-0.000269937
0.14147
-0.00163471
0.140751
-0.00165693
0.139375
-0.00209659
0.137927
-0.00164785
0.13574
-0.00231362
0.133912
-0.00216035
0.131955
-0.00243252
0.130162
-0.00240857
0.128674
-0.0018992
0.126999
-0.00209199
0.12585
-0.00129815
0.124526
-0.00160276
0.124173
-0.000629671
0.124183
-0.000371249
0.124414
0.000209741
0.125476
0.000907922
0.126271
0.00103152
0.127829
0.00161991
0.128902
0.00115648
0.130186
0.00119405
0.131058
0.000227731
0.131214
-0.000261195
0.131063
-0.00109286
0.129708
-0.00194312
0.128508
-0.00232008
0.12638
-0.00290629
0.124584
-0.00232429
0.122456
-0.00250265
0.120645
-0.00133276
0.119364
-0.000990532
0.118205
-8.26112e-05
0.000596746
0.131626
0.132392
0.13337
0.133366
0.133397
0.133287
0.13344
0.133171
0.131536
0.129879
0.127782
0.126134
0.123821
0.12166
0.119228
0.116819
0.11492
0.112828
0.11153
0.109927
0.109298
0.108926
0.109136
0.110044
0.111076
0.112695
0.113852
0.115046
0.115274
0.115012
0.11392
0.111977
0.109656
0.10675
0.104426
0.101923
0.10059
0.0995999
0.0995173
)
;

boundaryField
{
    inlet
    {
        type            calculated;
        value           nonuniform List<scalar> 10(-0.1 -0.1 -0.1 -0.1 -0.1 -0.1 -0.1 -0.1 -0.1 -0.1);
    }
    outlet
    {
        type            calculated;
        value           nonuniform List<scalar> 10(0.109535 0.127635 0.122101 0.0908835 0.0388413 0.0464744 0.12098 0.125064 0.118373 0.100114);
    }
    obstacle
    {
        type            calculated;
        value           uniform 0;
    }
    upperWall
    {
        type            calculated;
        value           uniform 0;
    }
    lowerWall
    {
        type            calculated;
        value           uniform 0;
    }
    frontAndBack
    {
        type            empty;
        value           nonuniform List<scalar> 0();
    }
}


// ************************************************************************* //
