/*--------------------------------*- C++ -*----------------------------------*\
  =========                 |
  \\      /  F ield         | OpenFOAM: The Open Source CFD Toolbox
   \\    /   O peration     | Website:  https://openfoam.org
    \\  /    A nd           | Version:  10
     \\/     M anipulation  |
\*---------------------------------------------------------------------------*/
FoamFile
{
    format      ascii;
    class       volVectorField;
    location    "6.075";
    object      U;
}
// * * * * * * * * * * * * * * * * * * * * * * * * * * * * * * * * * * * * * //

dimensions      [0 1 -1 0 0 0 0];

internalField   nonuniform List<vector> 
400
(
(-0.000103775 9.53872e-05 0)
(-0.000871325 0.000331281 0)
(-0.00217601 0.000411933 0)
(-0.00347504 0.000429811 0)
(-0.0047823 0.000430996 0)
(-0.00605844 0.000428101 0)
(-0.0072825 0.000420351 0)
(-0.00843052 0.000403444 0)
(-0.00946869 0.000372275 0)
(-0.0103524 0.000321347 0)
(-0.0110256 0.000245225 0)
(-0.0114221 0.000139458 0)
(-0.0114677 4.28527e-07 0)
(-0.0110865 -0.000172468 0)
(-0.0102143 -0.000371982 0)
(-0.00881247 -0.000582128 0)
(-0.00689874 -0.000771709 0)
(-0.00461895 -0.000885738 0)
(-0.00204879 -0.000822926 0)
(-0.000339714 -0.000375252 0)
(-0.000364232 0.000881787 0)
(-0.00196444 0.00188518 0)
(-0.00440129 0.00221566 0)
(-0.00681664 0.00226977 0)
(-0.00921259 0.00222962 0)
(-0.011512 0.00214775 0)
(-0.0136659 0.0020265 0)
(-0.015626 0.0018541 0)
(-0.0173332 0.00161494 0)
(-0.0187161 0.00129206 0)
(-0.01969 0.000868588 0)
(-0.0201602 0.000329847 0)
(-0.0200249 -0.000331547 0)
(-0.0191814 -0.00110485 0)
(-0.0175457 -0.00195796 0)
(-0.0150757 -0.00282514 0)
(-0.011816 -0.003586 0)
(-0.00798842 -0.00402645 0)
(-0.00372513 -0.00376458 0)
(-0.000736511 -0.00199838 0)
(-0.00047011 0.00228224 0)
(-0.00242691 0.00437291 0)
(-0.00534531 0.00503741 0)
(-0.00821683 0.00511821 0)
(-0.0110491 0.00498559 0)
(-0.0137535 0.00474758 0)
(-0.0162744 0.00441418 0)
(-0.0185583 0.00396734 0)
(-0.0205412 0.00338059 0)
(-0.0221463 0.00262421 0)
(-0.023284 0.00166852 0)
(-0.0238501 0.000488623 0)
(-0.0237236 -0.000925767 0)
(-0.0227798 -0.00255685 0)
(-0.0209116 -0.00434082 0)
(-0.0180488 -0.00614596 0)
(-0.0142182 -0.00772882 0)
(-0.00966417 -0.00865079 0)
(-0.00453195 -0.00813689 0)
(-0.000902931 -0.0045505 0)
(-0.000502995 0.00374997 0)
(-0.00261048 0.00699058 0)
(-0.00574906 0.00799224 0)
(-0.0088269 0.00808989 0)
(-0.0118646 0.00785796 0)
(-0.0147729 0.00746194 0)
(-0.0175001 0.00691907 0)
(-0.0199965 0.00620478 0)
(-0.0222015 0.00528083 0)
(-0.0240397 0.00410227 0)
(-0.0254183 0.0026225 0)
(-0.0262233 0.000801521 0)
(-0.0263161 -0.00138199 0)
(-0.025533 -0.0039189 0)
(-0.0237085 -0.00672513 0)
(-0.0207045 -0.00960775 0)
(-0.0164862 -0.0121865 0)
(-0.0113033 -0.013745 0)
(-0.00531124 -0.0130164 0)
(-0.00104461 -0.00736894 0)
(-0.000514057 0.0052928 0)
(-0.00271277 0.0097565 0)
(-0.00600255 0.011114 0)
(-0.00922863 0.0112333 0)
(-0.0124255 0.0109082 0)
(-0.0155077 0.0103653 0)
(-0.0184323 0.00963022 0)
(-0.0211595 0.00867185 0)
(-0.0236372 0.00743893 0)
(-0.0257962 0.00586757 0)
(-0.0275427 0.00388642 0)
(-0.0287507 0.00142661 0)
(-0.0292561 -0.00156221 0)
(-0.0288423 -0.00509492 0)
(-0.027255 -0.00908929 0)
(-0.0242416 -0.0133006 0)
(-0.0196398 -0.0171889 0)
(-0.0136598 -0.0196725 0)
(-0.00646328 -0.0188093 0)
(-0.00126 -0.0107099 0)
(-0.000522428 0.00688669 0)
(-0.00280913 0.0126448 0)
(-0.00625165 0.0143816 0)
(-0.00963177 0.0145337 0)
(-0.0129983 0.0141304 0)
(-0.0162721 0.0134649 0)
(-0.0194232 0.0125732 0)
(-0.0224266 0.0114181 0)
(-0.0252456 0.00993459 0)
(-0.0278242 0.00803562 0)
(-0.0300755 0.00561584 0)
(-0.0318666 0.00256053 0)
(-0.033009 -0.00123766 0)
(-0.0332213 -0.00585091 0)
(-0.032127 -0.011243 0)
(-0.0292951 -0.0171454 0)
(-0.0243386 -0.0228385 0)
(-0.0173193 -0.0267559 0)
(-0.00834459 -0.0259626 0)
(-0.00163808 -0.0148656 0)
(-0.00053259 0.00853374 0)
(-0.00292007 0.0156635 0)
(-0.00653579 0.0178062 0)
(-0.0100885 0.0180039 0)
(-0.013643 0.0175408 0)
(-0.0171285 0.0167838 0)
(-0.0205324 0.0157826 0)
(-0.0238507 0.0144967 0)
(-0.0270709 0.0128471 0)
(-0.0301625 0.0107214 0)
(-0.0330601 0.00797114 0)
(-0.0356409 0.00441435 0)
(-0.0377026 -0.000148855 0)
(-0.0389057 -0.00588398 0)
(-0.0387291 -0.0128897 0)
(-0.036485 -0.020951 0)
(-0.0314165 -0.0291939 0)
(-0.0231944 -0.0354293 0)
(-0.0116442 -0.0352178 0)
(-0.00237469 -0.0203997 0)
(-0.000544883 0.0102441 0)
(-0.00304933 0.0188331 0)
(-0.00686135 0.0214088 0)
(-0.010602 0.0216619 0)
(-0.0143547 0.0211554 0)
(-0.0180589 0.0203395 0)
(-0.0217236 0.0192831 0)
(-0.0253735 0.0179472 0)
(-0.0290315 0.016244 0)
(-0.0327098 0.014037 0)
(-0.036391 0.0111312 0)
(-0.0399949 0.00726278 0)
(-0.043324 0.00210456 0)
(-0.0460295 -0.0046952 0)
(-0.0474765 -0.0134716 0)
(-0.0466546 -0.024217 0)
(-0.0422585 -0.0360534 0)
(-0.0331109 -0.0461301 0)
(-0.0180497 -0.0477828 0)
(-0.00400132 -0.0284988 0)
(-0.000559979 0.0120285 0)
(-0.00319993 0.0221752 0)
(-0.00723095 0.0252068 0)
(-0.0111674 0.0255167 0)
(-0.0151149 0.0249756 0)
(-0.0190241 0.0241287 0)
(-0.0229302 0.0230725 0)
(-0.0268934 0.0217787 0)
(-0.0309845 0.0201607 0)
(-0.0352789 0.0180682 0)
(-0.0398387 0.015266 0)
(-0.0446763 0.0114051 0)
(-0.0496922 0.00599504 0)
(-0.0546171 -0.00159836 0)
(-0.0587963 -0.012012 0)
(-0.0609966 -0.0257871 0)
(-0.059255 -0.0424388 0)
(-0.0507043 -0.0588874 0)
(-0.0314133 -0.0655988 0)
(-0.00783896 -0.0417784 0)
(-0.000580943 0.0139011 0)
(-0.00338141 0.0257131 0)
(-0.00765597 0.0292133 0)
(-0.0117881 0.0295656 0)
(-0.0159106 0.0289835 0)
(-0.019986 0.028121 0)
(-0.0240779 0.027113 0)
(-0.0282879 0.0259545 0)
(-0.0327449 0.0245776 0)
(-0.0376086 0.0228421 0)
(-0.0430619 0.0205003 0)
(-0.0492879 0.017143 0)
(-0.0564082 0.0121276 0)
(-0.0643574 0.00452826 0)
(-0.072861 -0.00680209 0)
(-0.0809335 -0.0231218 0)
(-0.0859135 -0.0455541 0)
(-0.0814705 -0.0724801 0)
(-0.05732 -0.0919136 0)
(-0.0158073 -0.0658749 0)
(-0.000615354 0.0158859 0)
(-0.00361597 0.0294784 0)
(-0.00816576 0.0334392 0)
(-0.0124859 0.0337937 0)
(-0.016746 0.0331392 0)
(-0.0209201 0.0322541 0)
(-0.0251011 0.031322 0)
(-0.0294315 0.0303767 0)
(-0.0341002 0.0293926 0)
(-0.0393615 0.0282766 0)
(-0.0455513 0.0268255 0)
(-0.0530973 0.0246514 0)
(-0.0625051 0.0210706 0)
(-0.0743208 0.0149788 0)
(-0.0890757 0.00473318 0)
(-0.107011 -0.0121765 0)
(-0.124368 -0.0403374 0)
(-0.126961 -0.0849343 0)
(-0.0945611 -0.132382 0)
(-0.0273259 -0.110718 0)
(-0.000679098 0.0180278 0)
(-0.00394755 0.0335226 0)
(-0.00881896 0.0379038 0)
(-0.0133123 0.0381818 0)
(-0.0176539 0.0373851 0)
(-0.02183 0.0364327 0)
(-0.02596 0.0355674 0)
(-0.0302204 0.0348752 0)
(-0.034849 0.0344006 0)
(-0.0401834 0.0341481 0)
(-0.0467118 0.0340463 0)
(-0.0551486 0.0338773 0)
(-0.0665282 0.0331659 0)
(-0.0823247 0.0310347 0)
(-0.104621 0.025708 0)
(-0.134624 0.0119236 0)
(-0.164981 -0.023707 0)
(-0.169159 -0.100507 0)
(-0.125156 -0.194731 0)
(-0.0391806 -0.184185 0)
(-0.000802099 0.0203916 0)
(-0.00445048 0.0378689 0)
(-0.00971395 0.0425413 0)
(-0.0143631 0.0426068 0)
(-0.018714 0.0415733 0)
(-0.0227657 0.040488 0)
(-0.0266635 0.0396391 0)
(-0.0306015 0.039174 0)
(-0.0348313 0.0392298 0)
(-0.0397239 0.0399549 0)
(-0.0458557 0.0415079 0)
(-0.0541457 0.0440384 0)
(-0.0660405 0.0476377 0)
(-0.0837627 0.0520336 0)
(-0.110537 0.0549576 0)
(-0.146981 0.0451878 0)
(-0.179808 -0.00417093 0)
(-0.17512 -0.126825 0)
(-0.133654 -0.270474 0)
(-0.0493217 -0.281694 0)
(-0.0010658 0.0232339 0)
(-0.00532476 0.0429795 0)
(-0.0110533 0.0478817 0)
(-0.0157703 0.0475814 0)
(-0.020004 0.0460618 0)
(-0.0237917 0.0445802 0)
(-0.0272783 0.043513 0)
(-0.0306333 0.0430799 0)
(-0.0340743 0.0435155 0)
(-0.0379213 0.0451386 0)
(-0.0426851 0.0484123 0)
(-0.0492149 0.0539907 0)
(-0.0588973 0.0627125 0)
(-0.0735611 0.0745468 0)
(-0.095822 0.085169 0)
(-0.123894 0.0753666 0)
(-0.148589 0.00969847 0)
(-0.138598 -0.148316 0)
(-0.122866 -0.32731 0)
(-0.047525 -0.384031 0)
(-0.00144104 0.0267204 0)
(-0.00634532 0.0476282 0)
(-0.0128074 0.0519553 0)
(-0.0177459 0.0507615 0)
(-0.0219327 0.0487737 0)
(-0.0253303 0.0471196 0)
(-0.0281611 0.0460419 0)
(-0.0305958 0.0457001 0)
(-0.0327693 0.0463616 0)
(-0.0348288 0.0484707 0)
(-0.0370153 0.0527523 0)
(-0.0397047 0.0602631 0)
(-0.0436707 0.0723189 0)
(-0.0493385 0.0883711 0)
(-0.0582149 0.10258 0)
(-0.0670818 0.0903605 0)
(-0.0800478 0.0176373 0)
(-0.0717046 -0.151021 0)
(-0.0909101 -0.354571 0)
(-0.0287204 -0.466692 0)
(-0.00350777 0.0299116 0)
(-0.0106988 0.0561498 0)
(-0.0165874 0.0603984 0)
(-0.0207468 0.0587154 0)
(-0.0239615 0.0553527 0)
(-0.026596 0.0523297 0)
(-0.0287106 0.0500453 0)
(-0.0302789 0.0487157 0)
(-0.0312108 0.0485977 0)
(-0.0313602 0.0501134 0)
(-0.0305379 0.0540356 0)
(-0.0283806 0.0614555 0)
(-0.025015 0.0739053 0)
(-0.0187522 0.0900375 0)
(-0.0121936 0.104914 0)
(0.0015603 0.0930169 0)
(0.000396496 0.0228025 0)
(0.00520857 -0.132983 0)
(-0.0464832 -0.3518 0)
(-0.00708695 -0.510432 0)
(-0.00116539 0.0438823 0)
(-0.0086696 0.0585965 0)
(-0.0195493 0.0592435 0)
(-0.0241162 0.0547669 0)
(-0.0280929 0.0515337 0)
(-0.0302809 0.0492081 0)
(-0.0314099 0.047582 0)
(-0.0315242 0.0465443 0)
(-0.0305562 0.0462728 0)
(-0.0282066 0.0470743 0)
(-0.0240166 0.0496697 0)
(-0.0168304 0.0547211 0)
(-0.00659781 0.0636428 0)
(0.0105273 0.0753196 0)
(0.030085 0.0857675 0)
(0.0602044 0.0766658 0)
(0.0662266 0.0183861 0)
(0.0705382 -0.102815 0)
(-0.00324976 -0.323903 0)
(0.0187595 -0.521036 0)
(-0.012413 0.0328454 0)
(-0.0243227 0.0798851 0)
(-0.0239242 0.0787783 0)
(-0.0302531 0.0736115 0)
(-0.0323145 0.0663293 0)
(-0.0326362 0.0601545 0)
(-0.0311076 0.0550497 0)
(-0.0280529 0.0509683 0)
(-0.0235738 0.0479008 0)
(-0.0173959 0.0457018 0)
(-0.00956646 0.044781 0)
(0.00143528 0.0453087 0)
(0.0151977 0.0485133 0)
(0.0360429 0.0534579 0)
(0.0573518 0.0592158 0)
(0.0928774 0.0533739 0)
(0.0998695 0.0178238 0)
(0.125195 -0.0668448 0)
(0.0551389 -0.288151 0)
(0.0602768 -0.504691 0)
(-0.0772388 0.0967304 0)
(-0.0629731 0.0594271 0)
(-0.06539 0.0599255 0)
(-0.0440482 0.0532528 0)
(-0.0269998 0.0463547 0)
(-0.00726957 0.0411941 0)
(0.0113309 0.0374607 0)
(0.0300656 0.0342548 0)
(0.0472756 0.0318594 0)
(0.0655979 0.0295909 0)
(0.0813869 0.028224 0)
(0.101174 0.0271428 0)
(0.115633 0.0270402 0)
(0.143362 0.0276199 0)
(0.15476 0.0247718 0)
(0.202346 0.0186937 0)
(0.196961 -0.015351 0)
(0.238349 -0.0796663 0)
(0.165433 -0.262646 0)
(0.127354 -0.441778 0)
(0.119748 0.140737 0)
(0.152435 0.0861657 0)
(0.229358 0.0635799 0)
(0.28472 0.0481421 0)
(0.325987 0.0374633 0)
(0.364365 0.0296683 0)
(0.392845 0.024246 0)
(0.424313 0.020238 0)
(0.44403 0.0173199 0)
(0.472674 0.0151618 0)
(0.485475 0.0133905 0)
(0.514974 0.0123665 0)
(0.520408 0.0112492 0)
(0.554481 0.0108191 0)
(0.549572 0.00936343 0)
(0.586494 0.00552661 0)
(0.557723 -0.00392921 0)
(0.566934 -0.0273827 0)
(0.429661 -0.0726815 0)
(0.276303 -0.152078 0)
)
;

boundaryField
{
    movingWall
    {
        type            fixedValue;
        value           uniform (1 0 0);
    }
    fixedWalls
    {
        type            noSlip;
    }
    frontAndBack
    {
        type            empty;
    }
}


// ************************************************************************* //
