/*--------------------------------*- C++ -*----------------------------------*\
  =========                 |
  \\      /  F ield         | OpenFOAM: The Open Source CFD Toolbox
   \\    /   O peration     | Website:  https://openfoam.org
    \\  /    A nd           | Version:  10
     \\/     M anipulation  |
\*---------------------------------------------------------------------------*/
FoamFile
{
    format      ascii;
    class       surfaceScalarField;
    location    "7.55";
    object      phi;
}
// * * * * * * * * * * * * * * * * * * * * * * * * * * * * * * * * * * * * * //

dimensions      [0 3 -1 0 0 0 0];

internalField   nonuniform List<scalar> 
928
(
0.0959726
0.00402738
0.103279
-0.00730597
0.106864
-0.00358509
-0.00909321
0.115957
0.0948885
0.00913884
0.105766
-0.0181835
0.102823
-0.000641685
-0.0185983
0.112328
0.0957588
0.01338
0.109292
-0.0317164
0.103529
0.00512075
-0.0402196
0.125151
0.10292
0.0104598
0.0929672
-0.0217633
0.0977606
0.000327317
0.145731
-0.0881896
0.110983
0.00497362
-0.0160071
0.12699
0.109133
0.00816819
-0.0406133
0.133739
0.126205
0.00711373
-0.0468172
0.132409
0.152844
0.106027
0.126683
0.00030756
0.126878
-0.000195495
0.128076
-0.00119769
-0.00195815
0.130034
0.134943
-0.000896055
0.13415
0.00059751
0.134169
-0.00121695
-0.00402365
0.136235
0.134616
-0.00310312
0.133737
0.00147607
0.13689
-0.00437002
-0.00597329
0.13884
0.111498
-0.00857369
0.0842248
0.0287489
0.0799686
-0.00011384
0.0875102
-0.0135149
0.131777
-0.00174306
0.132918
-0.00114059
0.13286
5.80155e-05
0.132273
0.000586557
0.131128
0.00114504
0.130563
0.000565476
0.129824
0.000738645
0.128968
0.000856272
0.128501
0.00046729
0.127705
0.000795384
0.127063
0.0006418
0.125335
0.00172865
0.123597
0.00173808
0.120725
0.00287186
0.117675
0.00304937
0.114834
0.00284186
0.1122
0.00263359
0.111173
0.00102737
0.110079
0.00109308
0.111111
-0.00103115
0.111892
-0.000781371
0.113354
-0.00146223
0.113983
-0.000629075
0.113023
0.000959853
0.111553
0.00147029
0.107151
0.00440184
0.103716
0.00343495
0.0983834
0.00533299
0.0956498
0.0027336
0.0936017
0.00204815
0.093602
-3.77842e-07
0.0960905
-0.00248847
0.0988688
-0.00277831
0.103338
-0.00446872
0.106343
-0.00300509
0.109352
-0.00300888
0.109867
-0.000515277
0.108912
0.000955034
0.104754
0.00415819
0.00398105
0.138285
-0.00379346
0.138494
-0.00134958
0.138202
0.00034981
0.138339
0.000449498
0.138493
0.000991531
0.138362
0.000696229
0.137218
0.00188268
0.136948
0.00112643
0.137199
0.0002161
0.136843
0.00115198
0.136262
0.00122262
0.134974
0.0030161
0.133532
0.00318015
0.13154
0.00486427
0.12924
0.00534968
0.12694
0.00514112
0.124125
0.00544903
0.122639
0.00251289
0.121932
0.00180068
0.122745
-0.00184422
0.124244
-0.00228087
0.125834
-0.00305147
0.127574
-0.00236913
0.127383
0.00115017
0.126964
0.00189003
0.124295
0.00707007
0.121365
0.0063655
0.11739
0.00930801
0.113419
0.0067044
0.110668
0.00479957
0.109654
0.00101337
0.110862
-0.00369625
0.112808
-0.00472511
0.116366
-0.0080263
0.119016
-0.00565543
0.122807
-0.00679961
0.124641
-0.00234936
0.126296
-0.000699402
0.12617
0.00428389
0.0064903
0.135688
-0.000641857
0.13389
0.000448684
0.135509
-0.00126867
0.137007
-0.00104836
0.136886
0.00111201
0.135936
0.00164624
0.136156
0.00166248
0.136343
0.000939501
0.135642
0.000917286
0.135352
0.00144217
0.135229
0.00134573
0.136358
0.00188657
0.136439
0.003099
0.135982
0.0053216
0.133857
0.00747507
0.131181
0.00781658
0.129392
0.00723828
0.127348
0.00455638
0.12641
0.00273887
0.124878
-0.000311676
0.125109
-0.0025123
0.126013
-0.00395523
0.127681
-0.00403759
0.130881
-0.00204971
0.132592
0.000179288
0.13354
0.00612218
0.130907
0.00899874
0.127844
0.0123703
0.123938
0.0106108
0.120633
0.00810428
0.118241
0.00340544
0.11507
-0.000525462
0.113188
-0.00284251
0.111533
-0.00637127
0.112131
-0.00625364
0.114637
-0.00930541
0.118385
-0.00609744
0.123376
-0.00569048
0.126104
0.00155559
0.0059183
0.0883731
-0.00150477
0.0824933
0.00632849
0.087269
-0.00604434
0.0892033
-0.00298271
0.0862684
0.00404691
0.0844889
0.00342575
0.0866808
-0.000529444
0.0858823
0.00173808
0.0861207
0.000678835
0.0870027
0.000560173
0.0895241
-0.00117564
0.093322
-0.00191136
0.0979358
-0.00151476
0.102401
0.000856187
0.105072
0.00480401
0.105156
0.00773313
0.102872
0.00952219
0.0977322
0.00969602
0.0915342
0.0089369
0.0859244
0.00529812
0.0831723
0.000239715
0.0833381
-0.004121
0.08721
-0.00790954
0.0933861
-0.00822582
0.100195
-0.00662962
0.108082
-0.00176476
0.115177
0.00190359
0.120549
0.0069981
0.121338
0.00982171
0.116646
0.0127965
0.106435
0.0136166
0.0942128
0.0116969
0.0832196
0.00815069
0.0771686
-0.000320289
0.076139
-0.00522398
0.0793339
-0.0125003
0.0866472
-0.0134108
0.0937619
-0.0128052
0.103519
-0.00820135
0.000716965
0.11083
-0.000370551
0.0884652
0.000601829
0.089317
-0.000524458
0.00112739
0.109829
-0.0101998
0.0880874
0.0223436
0.0873496
0.000213428
0.088477
0.0089261
-0.0174998
0.0199942
0.0176809
0.00233738
0.0175429
-0.0352525
0.024075
-0.00399085
-0.0135089
0.00369574
0.0099943
0.0180773
0.00316141
-0.0130836
-0.00409164
0.0112177
0.0113526
-0.000608213
0.0181544
-0.00574617
-0.000906393
0.009948
-0.0186769
0.00285762
0.0111373
-0.0071409
0.0134243
0.000917971
-0.00858832
0.00663479
-0.00397873
0.00724933
6.42889e-05
0.00825532
-0.000445814
0.0104202
-0.00334052
0.0147148
-0.00620601
0.0187976
-0.00559749
0.0214067
-0.00175295
0.0238648
0.00234593
0.025118
0.00647995
0.0253469
0.00929329
0.0255341
0.00950877
0.0263816
0.00808938
0.0286879
0.00299188
0.0314028
-0.00247525
0.0353719
-0.00809007
0.0397665
-0.0123042
0.0449753
-0.0134345
0.0512389
-0.0128933
0.0562761
-0.00680188
0.0594022
-0.00122254
0.0601686
0.00623173
0.0582725
0.0117178
0.0556677
0.0154013
0.0528056
0.0164786
0.0517588
0.0127436
0.0525424
0.00736716
0.0543351
-0.00211301
0.0562804
-0.00716926
0.0603579
-0.0165779
0.0636282
-0.0166811
0.06918
-0.018357
0.0743542
-0.0133755
0.000980027
-0.00783502
0.00610399
0.00782242
0.00249691
0.0041977
0.00271832
-0.00644648
-0.0080327
-0.00315023
0.00784103
0.00799084
0.0022832
0.00624994
-0.00684742
0.00433001
-0.00205879
0.00559105
-0.00119676
0.00965203
-0.00450679
0.0133689
-0.00705743
0.0147451
-0.00758217
0.014824
-0.00567638
0.0163286
-0.00325758
0.0194144
-0.000739894
0.0247584
0.00113597
0.0292658
0.00478594
0.033986
0.00478856
0.0389743
0.00310109
0.0430043
-0.00103811
0.0453028
-0.00477383
0.0450231
-0.00781037
0.0439926
-0.0112737
0.0417426
-0.0111845
0.041015
-0.0121658
0.0416722
-0.00745909
0.0432549
-0.00280521
0.0463102
0.00317646
0.0499354
0.00809258
0.05528
0.0100566
0.0614785
0.0102801
0.0680042
0.00621799
0.0736374
0.0017339
0.0767734
-0.00524897
0.0768366
-0.00723251
0.073767
-0.0135082
0.0686202
-0.0115342
0.065158
-0.0148948
0.0629207
-0.0111383
0.001596
0.10401
-0.0142096
0.0947958
0.0315576
0.10031
-0.00530094
0.0405119
0.148275
0.0955943
-0.00980394
0.107645
0.0195067
0.103455
-0.00111044
0.0201004
0.123866
0.094429
-0.00423291
0.106012
0.00792407
0.101895
0.00300655
0.00989235
0.112103
0.0957671
0.103691
0.106698
0.11659
0.157966
-0.00969094
0.0436468
0.114319
0.124218
-0.0100423
0.041364
0.1265
0.107589
-0.00552852
0.0159155
0.133037
0.111062
0.126977
0.101586
-0.000776064
0.110059
0.00152134
0.109237
0.00398368
0.00414685
0.100999
0.127873
-0.00214859
0.130478
-0.00108372
0.131853
0.00260912
0.0052561
0.130743
0.132132
-0.00124287
0.13068
0.00036783
0.131926
0.00136378
0.00220371
0.134978
0.125734
0.126102
0.127466
0.129669
0.103602
0.0035011
0.104947
0.00115137
0.10552
0.00214581
0.0982554
-0.000768487
0.10354
0.00255627
0.105511
0.000312342
0.101038
-0.00237484
0.103237
-0.00425762
0.106187
-0.00414602
0.106468
-0.00478796
0.104527
-0.00511635
0.10066
-0.00371513
0.097652
-0.00266873
0.0951904
-0.000795971
0.0931449
0.00130559
0.092551
0.00172984
0.0948806
0.00245628
0.0998982
-0.000229052
0.104885
-0.00188605
0.110786
-0.00693885
0.115629
-0.00961641
0.118445
-0.0106269
0.117368
-0.0101966
0.111658
-0.00547439
0.103395
-0.0039028
0.0931163
0.00281985
0.0875522
0.00275885
0.0831168
0.00761187
0.084896
0.0063134
0.089196
0.00575662
0.0960527
0.00342336
0.104676
-0.00240526
0.111598
-0.00518799
0.119307
-0.0129579
0.123488
-0.0114137
0.122778
-0.0127978
0.116573
-0.00532912
0.104093
-0.002415
0.09061
0.00234443
0.00712678
0.130839
0.00340505
0.131142
0.000848498
0.132213
0.00107509
0.131741
-0.000296567
0.134299
-2.00623e-06
0.135413
-0.000801113
0.133576
-0.000537736
0.132046
-0.00272755
0.131346
-0.00344629
0.130223
-0.00366521
0.129217
-0.0041106
0.127797
-0.00229472
0.127042
-0.00191405
0.126299
-5.28455e-05
0.126961
0.000643983
0.127908
0.000783016
0.129359
0.00100524
0.131247
-0.00211772
0.131946
-0.00258448
0.130989
-0.0059822
0.127506
-0.00613333
0.124296
-0.00741689
0.120975
-0.00687591
0.118991
-0.00349057
0.116648
-0.00155932
0.115737
0.00373055
0.115122
0.00337366
0.116483
0.00625124
0.118716
0.00408014
0.121791
0.00268153
0.125834
-0.000619243
0.128427
-0.00499857
0.129008
-0.00576829
0.125907
-0.0098576
0.121363
-0.00686943
0.116859
-0.00829438
0.113033
-0.00150279
0.109499
0.00111896
0.10598
0.00586363
0.00885466
0.1363
0.00208259
0.136288
0.000860754
0.136915
0.000448298
0.137367
-0.000749092
0.137726
-0.000360957
0.137745
-0.000819659
0.137699
-0.000492155
0.136173
-0.00120079
0.134507
-0.00178107
0.132691
-0.0018486
0.130926
-0.00234576
0.129903
-0.00127145
0.129058
-0.00106948
0.12892
8.55343e-05
0.129632
-6.87966e-05
0.130454
-3.90433e-05
0.131505
-4.53441e-05
0.130801
-0.00141341
0.129865
-0.00164864
0.127642
-0.00375945
0.124803
-0.00329414
0.121616
-0.00423014
0.117608
-0.00286722
0.115708
-0.00159055
0.114765
-0.000616848
0.116165
0.00233024
0.117881
0.00165829
0.120687
0.00344536
0.123461
0.0013058
0.125268
0.000874817
0.125921
-0.00127303
0.124176
-0.00325272
0.122537
-0.00412932
0.118476
-0.00579723
0.11483
-0.00322326
0.110377
-0.00384101
0.108085
0.000788993
0.107753
0.00145062
0.109389
0.00422799
0.00532621
0.131752
0.132613
0.133061
0.132312
0.131951
0.131131
0.130639
0.129438
0.127657
0.125809
0.123463
0.122192
0.121122
0.121208
0.121139
0.1211
0.121054
0.119641
0.117992
0.114233
0.110939
0.106709
0.103841
0.102251
0.101634
0.103964
0.105623
0.109068
0.110374
0.111249
0.109976
0.106723
0.102593
0.0967963
0.093573
0.089732
0.090521
0.0919716
0.0961996
)
;

boundaryField
{
    inlet
    {
        type            calculated;
        value           nonuniform List<scalar> 10(-0.1 -0.1 -0.1 -0.1 -0.1 -0.1 -0.1 -0.1 -0.1 -0.1);
    }
    outlet
    {
        type            calculated;
        value           nonuniform List<scalar> 10(0.100772 0.123661 0.126676 0.10872 0.0740911 0.0623048 0.0850793 0.104252 0.112917 0.101526);
    }
    obstacle
    {
        type            calculated;
        value           uniform 0;
    }
    upperWall
    {
        type            calculated;
        value           uniform 0;
    }
    lowerWall
    {
        type            calculated;
        value           uniform 0;
    }
    frontAndBack
    {
        type            empty;
        value           nonuniform List<scalar> 0();
    }
}


// ************************************************************************* //
