/*--------------------------------*- C++ -*----------------------------------*\
  =========                 |
  \\      /  F ield         | OpenFOAM: The Open Source CFD Toolbox
   \\    /   O peration     | Website:  https://openfoam.org
    \\  /    A nd           | Version:  10
     \\/     M anipulation  |
\*---------------------------------------------------------------------------*/
FoamFile
{
    format      ascii;
    class       volVectorField;
    location    "7.5";
    object      U;
}
// * * * * * * * * * * * * * * * * * * * * * * * * * * * * * * * * * * * * * //

dimensions      [0 1 -1 0 0 0 0];

internalField   nonuniform List<vector> 
400
(
(-0.000137495 0.000124189 0)
(-0.00104507 0.00039218 0)
(-0.00257972 0.000489054 0)
(-0.00414202 0.000517865 0)
(-0.00574257 0.000529287 0)
(-0.00734173 0.000538969 0)
(-0.00892143 0.000546104 0)
(-0.0104573 0.000544471 0)
(-0.0119083 0.000525865 0)
(-0.013214 0.000480609 0)
(-0.0142913 0.000397867 0)
(-0.0150333 0.000266962 0)
(-0.0153127 8.02423e-05 0)
(-0.0149894 -0.000169679 0)
(-0.0139341 -0.000471918 0)
(-0.0120642 -0.000797159 0)
(-0.00940397 -0.00108516 0)
(-0.0062055 -0.00123937 0)
(-0.00264828 -0.00112099 0)
(-0.000386322 -0.000468941 0)
(-0.000443404 0.00106168 0)
(-0.00233244 0.00221993 0)
(-0.00522312 0.00263978 0)
(-0.00815671 0.00275492 0)
(-0.0111242 0.00276542 0)
(-0.0140407 0.00273542 0)
(-0.0168549 0.00266682 0)
(-0.0195113 0.00253953 0)
(-0.0219331 0.00232485 0)
(-0.0240181 0.00198896 0)
(-0.0256347 0.00149523 0)
(-0.0266208 0.000808194 0)
(-0.0267963 -9.95197e-05 0)
(-0.0259651 -0.00122552 0)
(-0.0239479 -0.002519 0)
(-0.0206437 -0.00385733 0)
(-0.0161148 -0.00500821 0)
(-0.0107455 -0.00560024 0)
(-0.00483341 -0.00510987 0)
(-0.000870141 -0.00253513 0)
(-0.000575701 0.00273458 0)
(-0.00291298 0.00517873 0)
(-0.00641925 0.00604884 0)
(-0.00995005 0.00626495 0)
(-0.0134989 0.00623713 0)
(-0.0169657 0.00609768 0)
(-0.0202911 0.0058562 0)
(-0.0234131 0.0054784 0)
(-0.0262485 0.00491201 0)
(-0.0286873 0.00409402 0)
(-0.0305886 0.00295621 0)
(-0.0317783 0.0014337 0)
(-0.0320437 -0.000519558 0)
(-0.031143 -0.00290003 0)
(-0.0288467 -0.00561064 0)
(-0.0249916 -0.00840742 0)
(-0.0195991 -0.0108199 0)
(-0.0131046 -0.0120704 0)
(-0.00585076 -0.0110764 0)
(-0.0010165 -0.00577166 0)
(-0.000617972 0.00451306 0)
(-0.00314317 0.00833159 0)
(-0.0069251 0.00966092 0)
(-0.0107193 0.00996588 0)
(-0.014533 0.00988942 0)
(-0.0182674 0.00963639 0)
(-0.0218703 0.00922493 0)
(-0.0252888 0.00860746 0)
(-0.0284491 0.00770828 0)
(-0.0312489 0.00643269 0)
(-0.033548 0.00467387 0)
(-0.0351597 0.00232698 0)
(-0.035846 -0.000687681 0)
(-0.0352999 -0.00439848 0)
(-0.0331762 -0.00868928 0)
(-0.0291657 -0.0132068 0)
(-0.0231454 -0.0172066 0)
(-0.0155642 -0.019377 0)
(-0.00679633 -0.0178668 0)
(-0.00105502 -0.00926453 0)
(-0.000624066 0.00637197 0)
(-0.00323231 0.0116468 0)
(-0.0071606 0.0134597 0)
(-0.0111032 0.0138629 0)
(-0.0150833 0.0137509 0)
(-0.019011 0.0134073 0)
(-0.022851 0.0128616 0)
(-0.0265698 0.0120544 0)
(-0.0301152 0.0108865 0)
(-0.0334043 0.00922749 0)
(-0.0363074 0.00692027 0)
(-0.0386304 0.00379395 0)
(-0.0401009 -0.000307124 0)
(-0.0403228 -0.0054627 0)
(-0.0387813 -0.0116136 0)
(-0.0349185 -0.0183252 0)
(-0.0283156 -0.0245294 0)
(-0.0193086 -0.0281637 0)
(-0.00820621 -0.0261738 0)
(-0.00104993 -0.0132725 0)
(-0.0006185 0.00826017 0)
(-0.00327632 0.0150574 0)
(-0.00731278 0.0173818 0)
(-0.011374 0.017902 0)
(-0.0154987 0.0177819 0)
(-0.019611 0.0173923 0)
(-0.0236989 0.0167787 0)
(-0.0277583 0.0158739 0)
(-0.0317706 0.0145565 0)
(-0.0356894 0.0126576 0)
(-0.0394173 0.00995806 0)
(-0.0427727 0.00619261 0)
(-0.0454443 0.00108145 0)
(-0.0469637 -0.00559669 0)
(-0.0466153 -0.0139339 0)
(-0.0434473 -0.0235144 0)
(-0.0365049 -0.0329494 0)
(-0.0256576 -0.0391404 0)
(-0.0107345 -0.036927 0)
(-0.0010275 -0.0180805 0)
(-0.000608529 0.0101604 0)
(-0.0033073 0.0185412 0)
(-0.00744361 0.0214071 0)
(-0.0116149 0.0220663 0)
(-0.0158757 0.0219716 0)
(-0.0201667 0.0215915 0)
(-0.0245056 0.0209959 0)
(-0.0289273 0.0201168 0)
(-0.0334623 0.0188168 0)
(-0.0381238 0.0168909 0)
(-0.04288 0.0140517 0)
(-0.0476051 0.00991759 0)
(-0.0520097 0.00402189 0)
(-0.0555971 -0.00413086 0)
(-0.0574692 -0.0148875 0)
(-0.0562046 -0.0281266 0)
(-0.0499481 -0.0423717 0)
(-0.0371738 -0.0533476 0)
(-0.0160507 -0.0518414 0)
(-0.00118781 -0.0244674 0)
(-0.000595127 0.0120677 0)
(-0.00333238 0.0220954 0)
(-0.00756575 0.0255312 0)
(-0.0118356 0.0263474 0)
(-0.0162122 0.0263082 0)
(-0.0206541 0.0259936 0)
(-0.0252132 0.0255093 0)
(-0.029973 0.0247995 0)
(-0.0350302 0.0237261 0)
(-0.0404861 0.0220618 0)
(-0.0464233 0.0194602 0)
(-0.0528538 0.015417 0)
(-0.0596356 0.00923624 0)
(-0.0663583 6.50021e-05 0)
(-0.0721721 -0.0129329 0)
(-0.0753245 -0.0304368 0)
(-0.0724664 -0.0517342 0)
(-0.0584543 -0.0719631 0)
(-0.0279511 -0.0741218 0)
(-0.00238131 -0.0345068 0)
(-0.000578997 0.0139787 0)
(-0.00335518 0.0257187 0)
(-0.00768236 0.0297458 0)
(-0.0120291 0.0307241 0)
(-0.0164812 0.0307571 0)
(-0.0210137 0.0305527 0)
(-0.0257146 0.0302668 0)
(-0.0307214 0.0298753 0)
(-0.0362112 0.0292647 0)
(-0.042404 0.0282202 0)
(-0.0495541 0.0263778 0)
(-0.0579212 0.023151 0)
(-0.0676949 0.0176517 0)
(-0.0789085 0.00864399 0)
(-0.0913436 -0.00550409 0)
(-0.103198 -0.0269313 0)
(-0.108246 -0.0583309 0)
(-0.0935844 -0.0960533 0)
(-0.0512254 -0.109366 0)
(-0.00677486 -0.053076 0)
(-0.000563658 0.0158935 0)
(-0.00338707 0.0294124 0)
(-0.0078073 0.0340361 0)
(-0.012199 0.0351589 0)
(-0.0166642 0.0352552 0)
(-0.0211911 0.0351798 0)
(-0.0259001 0.0351558 0)
(-0.0309808 0.0352137 0)
(-0.0366925 0.0353007 0)
(-0.0433889 0.0352713 0)
(-0.0515473 0.0348322 0)
(-0.0617967 0.0334546 0)
(-0.0749476 0.0302718 0)
(-0.0920305 0.0239062 0)
(-0.113881 0.0117055 0)
(-0.138648 -0.0124319 0)
(-0.153966 -0.0590623 0)
(-0.136347 -0.12748 0)
(-0.0858844 -0.163242 0)
(-0.0184687 -0.0887011 0)
(-0.000558007 0.0178243 0)
(-0.0034553 0.0331872 0)
(-0.0079787 0.0383842 0)
(-0.0123771 0.0395971 0)
(-0.0167733 0.0397082 0)
(-0.0211629 0.0397371 0)
(-0.0256895 0.0399895 0)
(-0.0305815 0.0405736 0)
(-0.0361615 0.0415381 0)
(-0.0428973 0.0428785 0)
(-0.0514778 0.0445029 0)
(-0.0629283 0.0461788 0)
(-0.0787828 0.0474427 0)
(-0.101344 0.0470909 0)
(-0.132746 0.0403806 0)
(-0.168547 0.0129028 0)
(-0.187868 -0.0580305 0)
(-0.166094 -0.168002 0)
(-0.122381 -0.230593 0)
(-0.0381826 -0.152658 0)
(-0.000581017 0.0198102 0)
(-0.00361548 0.0370874 0)
(-0.00827481 0.0428008 0)
(-0.0126392 0.0440023 0)
(-0.0168697 0.0440215 0)
(-0.0209632 0.0440635 0)
(-0.0250733 0.0445285 0)
(-0.0294392 0.0456176 0)
(-0.0344015 0.0475176 0)
(-0.0404718 0.0504421 0)
(-0.0484434 0.0546507 0)
(-0.0595566 0.0604635 0)
(-0.0756821 0.0680641 0)
(-0.099512 0.0758657 0)
(-0.132749 0.0747843 0)
(-0.168117 0.0398484 0)
(-0.182625 -0.0575985 0)
(-0.16242 -0.203195 0)
(-0.139119 -0.297408 0)
(-0.0507219 -0.253609 0)
(-0.000663292 0.0219052 0)
(-0.00394683 0.0410968 0)
(-0.00881233 0.0471474 0)
(-0.0131187 0.0481548 0)
(-0.017089 0.0479379 0)
(-0.0207135 0.0478642 0)
(-0.0241475 0.0484006 0)
(-0.027604 0.0498372 0)
(-0.0313624 0.0524994 0)
(-0.0358426 0.0568325 0)
(-0.0417013 0.0634841 0)
(-0.0499469 0.0733267 0)
(-0.0619733 0.086951 0)
(-0.0792179 0.101327 0)
(-0.102555 0.10265 0)
(-0.125022 0.0595084 0)
(-0.13322 -0.0534714 0)
(-0.122085 -0.218129 0)
(-0.122706 -0.34909 0)
(-0.0446386 -0.359112 0)
(-0.000900237 0.0244085 0)
(-0.00469919 0.0457838 0)
(-0.00986053 0.0521084 0)
(-0.0140048 0.0527357 0)
(-0.0175641 0.0519603 0)
(-0.0205588 0.0513999 0)
(-0.023111 0.0516205 0)
(-0.0253535 0.0529867 0)
(-0.0274396 0.0559158 0)
(-0.0295706 0.0609996 0)
(-0.0320392 0.0691148 0)
(-0.0351526 0.0813115 0)
(-0.0393109 0.0981581 0)
(-0.0442419 0.115101 0)
(-0.0512662 0.116691 0)
(-0.0557757 0.0697648 0)
(-0.0592095 -0.0451427 0)
(-0.0575179 -0.211165 0)
(-0.08485 -0.369622 0)
(-0.0294867 -0.43121 0)
(-0.00125575 0.0274706 0)
(-0.00559311 0.0498164 0)
(-0.0113489 0.0554711 0)
(-0.0155451 0.0550734 0)
(-0.0188202 0.0536887 0)
(-0.021099 0.0527962 0)
(-0.0225678 0.0528103 0)
(-0.0233255 0.0539962 0)
(-0.0233904 0.0567454 0)
(-0.0226976 0.0616541 0)
(-0.0211554 0.0696044 0)
(-0.0182462 0.0814171 0)
(-0.0137371 0.0974191 0)
(-0.00553254 0.112875 0)
(0.00293005 0.113788 0)
(0.0149798 0.0691163 0)
(0.0107192 -0.0383215 0)
(0.00341637 -0.185842 0)
(-0.0518848 -0.361373 0)
(-0.0141066 -0.476253 0)
(-0.00333348 0.0301405 0)
(-0.0100183 0.0576055 0)
(-0.0151362 0.063185 0)
(-0.0183533 0.0622256 0)
(-0.0203759 0.0592433 0)
(-0.0215673 0.0567079 0)
(-0.0219506 0.055164 0)
(-0.0214151 0.0548999 0)
(-0.0197335 0.0562281 0)
(-0.0165327 0.0595851 0)
(-0.0114466 0.0656692 0)
(-0.00338146 0.0748692 0)
(0.00805504 0.0874012 0)
(0.0254962 0.0989916 0)
(0.043278 0.0991939 0)
(0.0639203 0.0630547 0)
(0.0608073 -0.0276451 0)
(0.0510727 -0.148879 0)
(-0.0271265 -0.338171 0)
(0.0023966 -0.501092 0)
(-0.0010359 0.0438298 0)
(-0.0081358 0.0595705 0)
(-0.0182614 0.061134 0)
(-0.0216616 0.0569414 0)
(-0.0242139 0.0538072 0)
(-0.024763 0.0517073 0)
(-0.0240341 0.0505005 0)
(-0.0219514 0.0500952 0)
(-0.0183371 0.0506647 0)
(-0.0127109 0.0524465 0)
(-0.0046929 0.0559927 0)
(0.00722832 0.0615009 0)
(0.0229665 0.0689737 0)
(0.0454974 0.0752756 0)
(0.0669021 0.0736163 0)
(0.0934451 0.0478021 0)
(0.0886925 -0.0183851 0)
(0.0780623 -0.109293 0)
(-0.00360193 -0.309837 0)
(0.0228348 -0.507935 0)
(-0.0125306 0.0323912 0)
(-0.0237101 0.0800603 0)
(-0.0224212 0.0796107 0)
(-0.0276921 0.0745449 0)
(-0.0286085 0.0671863 0)
(-0.027731 0.0610776 0)
(-0.0248355 0.0561372 0)
(-0.0201548 0.0523039 0)
(-0.0137395 0.0495895 0)
(-0.00521819 0.0478283 0)
(0.00540563 0.0473459 0)
(0.0195275 0.0481162 0)
(0.036181 0.0505459 0)
(0.0589826 0.0522731 0)
(0.077495 0.0517404 0)
(0.105333 0.0378682 0)
(0.10062 -0.00161877 0)
(0.110474 -0.0693538 0)
(0.0436179 -0.278375 0)
(0.0588251 -0.494173 0)
(-0.0775495 0.0961692 0)
(-0.0632432 0.0589437 0)
(-0.0655768 0.0598961 0)
(-0.0435964 0.0532354 0)
(-0.0262328 0.0462963 0)
(-0.00604022 0.0411463 0)
(0.0130167 0.0373893 0)
(0.032385 0.0341875 0)
(0.0503041 0.0318698 0)
(0.0696821 0.0297058 0)
(0.0865853 0.0285021 0)
(0.108053 0.0275625 0)
(0.123548 0.0272142 0)
(0.153106 0.0270268 0)
(0.163662 0.0225466 0)
(0.204116 0.0143373 0)
(0.195615 -0.0197937 0)
(0.22773 -0.0764668 0)
(0.156601 -0.253787 0)
(0.126129 -0.435655 0)
(0.119491 0.140817 0)
(0.152219 0.0861754 0)
(0.228745 0.0635782 0)
(0.2842 0.0481038 0)
(0.325546 0.0374313 0)
(0.363796 0.0296453 0)
(0.392465 0.024213 0)
(0.423663 0.020157 0)
(0.443458 0.0172188 0)
(0.472107 0.0150071 0)
(0.484721 0.0132114 0)
(0.514302 0.0120541 0)
(0.519635 0.0109344 0)
(0.552711 0.00994553 0)
(0.54792 0.00819594 0)
(0.581653 0.00376854 0)
(0.55133 -0.00558285 0)
(0.557339 -0.0274625 0)
(0.42237 -0.0735112 0)
(0.275718 -0.152115 0)
)
;

boundaryField
{
    movingWall
    {
        type            fixedValue;
        value           uniform (1 0 0);
    }
    fixedWalls
    {
        type            noSlip;
    }
    frontAndBack
    {
        type            empty;
    }
}


// ************************************************************************* //
