/*--------------------------------*- C++ -*----------------------------------*\
  =========                 |
  \\      /  F ield         | OpenFOAM: The Open Source CFD Toolbox
   \\    /   O peration     | Website:  https://openfoam.org
    \\  /    A nd           | Version:  10
     \\/     M anipulation  |
\*---------------------------------------------------------------------------*/
FoamFile
{
    format      ascii;
    class       volVectorField;
    location    "0.625";
    object      U;
}
// * * * * * * * * * * * * * * * * * * * * * * * * * * * * * * * * * * * * * //

dimensions      [0 1 -1 0 0 0 0];

internalField   nonuniform List<vector> 
400
(
(-0.000239349 0.00023608 0)
(-0.000751247 0.000261198 0)
(-0.00128074 0.000249473 0)
(-0.00177445 0.000230169 0)
(-0.0022222 0.000205134 0)
(-0.00261323 0.000175159 0)
(-0.00293828 0.000141082 0)
(-0.00318986 0.000103771 0)
(-0.00336228 6.41024e-05 0)
(-0.00345162 2.29408e-05 0)
(-0.00345574 -1.88517e-05 0)
(-0.00337425 -6.04008e-05 0)
(-0.00320853 -0.000100813 0)
(-0.00296185 -0.000139158 0)
(-0.00263939 -0.000174469 0)
(-0.00224834 -0.000205761 0)
(-0.00179795 -0.000232065 0)
(-0.00129918 -0.000252453 0)
(-0.000762817 -0.000264923 0)
(-0.000243232 -0.000239832 0)
(-0.000276925 0.000757908 0)
(-0.000867039 0.000836029 0)
(-0.00147538 0.000798351 0)
(-0.00204237 0.000736365 0)
(-0.00255625 0.000656015 0)
(-0.00300469 0.000559913 0)
(-0.00337715 0.000450782 0)
(-0.00366522 0.000331421 0)
(-0.00386251 0.000204618 0)
(-0.00396467 7.31188e-05 0)
(-0.00396932 -6.03578e-05 0)
(-0.00387601 -0.000193069 0)
(-0.0036863 -0.000322198 0)
(-0.00340379 -0.000444803 0)
(-0.00303428 -0.000557809 0)
(-0.00258586 -0.000658053 0)
(-0.00206902 -0.000742401 0)
(-0.00149632 -0.000807809 0)
(-0.000880181 -0.00084783 0)
(-0.000281338 -0.000769794 0)
(-0.000291734 0.00133863 0)
(-0.000913385 0.00147354 0)
(-0.00155383 0.00140664 0)
(-0.00214998 0.00129684 0)
(-0.00268956 0.00115472 0)
(-0.00315976 0.000985028 0)
(-0.00354982 0.000792658 0)
(-0.00385123 0.000582572 0)
(-0.00405766 0.000359649 0)
(-0.00416479 0.000128637 0)
(-0.00417024 -0.000105796 0)
(-0.00407349 -0.000338961 0)
(-0.00387598 -0.000566021 0)
(-0.00358114 -0.000781888 0)
(-0.00319463 -0.000981183 0)
(-0.00272454 -0.00115831 0)
(-0.00218154 -0.00130763 0)
(-0.00157868 -0.0014236 0)
(-0.000928999 -0.00149475 0)
(-0.000296976 -0.00136001 0)
(-0.000313136 0.00194995 0)
(-0.000980149 0.00214459 0)
(-0.00166658 0.00204609 0)
(-0.00230436 0.00188508 0)
(-0.00288033 0.00167721 0)
(-0.0033811 0.00142967 0)
(-0.00379568 0.00114976 0)
(-0.00411561 0.000844759 0)
(-0.0043347 0.00052166 0)
(-0.0044488 0.000187168 0)
(-0.00445556 -0.000152209 0)
(-0.00435439 -0.000489955 0)
(-0.00414645 -0.000819322 0)
(-0.00383482 -0.00113312 0)
(-0.00342483 -0.0014236 0)
(-0.00292435 -0.00168255 0)
(-0.00234421 -0.00190155 0)
(-0.00169806 -0.00207215 0)
(-0.000999966 -0.00217727 0)
(-0.000319784 -0.00198295 0)
(-0.000343188 0.00261289 0)
(-0.0010737 0.00287172 0)
(-0.00182417 0.00273765 0)
(-0.00251951 0.00251964 0)
(-0.00314538 0.00223923 0)
(-0.00368767 0.00190665 0)
(-0.00413524 0.001532 0)
(-0.00447989 0.0011251 0)
(-0.00471584 0.000695105 0)
(-0.00483926 0.000250596 0)
(-0.00484795 -0.000200273 0)
(-0.00474118 -0.000649385 0)
(-0.00451968 -0.00108827 0)
(-0.00418591 -0.00150771 0)
(-0.00374451 -0.00189754 0)
(-0.00320288 -0.00224663 0)
(-0.0025718 -0.00254326 0)
(-0.00186564 -0.00277539 0)
(-0.00109989 -0.00291927 0)
(-0.000351973 -0.002661 0)
(-0.00038319 0.00334623 0)
(-0.00119796 0.00367495 0)
(-0.00203281 0.00349943 0)
(-0.00280323 0.00321601 0)
(-0.00349334 0.00285346 0)
(-0.00408834 0.00242585 0)
(-0.00457724 0.00194673 0)
(-0.00495252 0.00142872 0)
(-0.00520921 0.000883204 0)
(-0.00534419 0.000320423 0)
(-0.00535556 -0.000250156 0)
(-0.0052424 -0.000819208 0)
(-0.00500479 -0.00137688 0)
(-0.0046441 -0.00191216 0)
(-0.00416376 -0.0024124 0)
(-0.0035701 -0.00286321 0)
(-0.00287346 -0.00324883 0)
(-0.00208881 -0.00355255 0)
(-0.00123347 -0.00374233 0)
(-0.000395115 -0.00341461 0)
(-0.000435015 0.00417161 0)
(-0.0013585 0.00457711 0)
(-0.00230114 0.00435155 0)
(-0.00316605 0.0039908 0)
(-0.00393555 0.00353283 0)
(-0.00459439 0.00299686 0)
(-0.00513238 0.0024007 0)
(-0.00554342 0.00176015 0)
(-0.00582413 0.00108878 0)
(-0.00597262 0.000398111 0)
(-0.00598758 -0.00030165 0)
(-0.00586791 -0.00100064 0)
(-0.00561263 -0.00168825 0)
(-0.00522142 -0.00235205 0)
(-0.00469556 -0.00297702 0)
(-0.00403932 -0.0035451 0)
(-0.00326176 -0.00403549 0)
(-0.00237804 -0.00442523 0)
(-0.00140753 -0.00467147 0)
(-0.000451514 -0.00426776 0)
(-0.000501435 0.00511515 0)
(-0.00156344 0.00560529 0)
(-0.00264151 0.00531703 0)
(-0.00362263 0.00486206 0)
(-0.00448729 0.00429051 0)
(-0.00522047 0.00362864 0)
(-0.00581396 0.00289963 0)
(-0.00626444 0.00212291 0)
(-0.00657125 0.00131398 0)
(-0.00673462 0.000484998 0)
(-0.00675432 -0.000354036 0)
(-0.006629 -0.00119382 0)
(-0.00635619 -0.00202396 0)
(-0.00593288 -0.00283144 0)
(-0.00535681 -0.00359917 0)
(-0.00462859 -0.00430505 0)
(-0.00375436 -0.00492197 0)
(-0.00274841 -0.00541837 0)
(-0.00163215 -0.00573682 0)
(-0.000524636 -0.00525002 0)
(-0.000586638 0.00620958 0)
(-0.00182484 0.00679254 0)
(-0.00307171 0.00642262 0)
(-0.0041934 0.00584926 0)
(-0.005169 0.00513922 0)
(-0.00598527 0.00432855 0)
(-0.00663811 0.00344724 0)
(-0.00712908 0.00251865 0)
(-0.00746205 0.00155971 0)
(-0.00764064 0.000582104 0)
(-0.0076664 -0.00040586 0)
(-0.00753783 -0.00139711 0)
(-0.00725026 -0.00238312 0)
(-0.00679664 -0.00335164 0)
(-0.00616916 -0.0042843 0)
(-0.00536215 -0.00515482 0)
(-0.00437604 -0.00592826 0)
(-0.00322198 -0.00656119 0)
(-0.00192252 -0.00697584 0)
(-0.000619812 -0.00639926 0)
(-0.000697164 0.00749765 0)
(-0.00216106 0.00818043 0)
(-0.00361783 0.00769972 0)
(-0.00490703 0.00697287 0)
(-0.00600803 0.00609 0)
(-0.00691246 0.00510074 0)
(-0.00762386 0.00404356 0)
(-0.00815197 0.00294581 0)
(-0.00850781 0.00182476 0)
(-0.0087002 0.000689798 0)
(-0.00873353 -0.000454675 0)
(-0.00860626 -0.00160624 0)
(-0.00831073 -0.00276085 0)
(-0.00783405 -0.00390925 0)
(-0.00715998 -0.00503343 0)
(-0.00627259 -0.00610339 0)
(-0.00516192 -0.00707487 0)
(-0.00383151 -0.00788814 0)
(-0.00230223 -0.00843641 0)
(-0.000745565 -0.00776619 0)
(-0.000843714 0.00903779 0)
(-0.00260097 0.00982273 0)
(-0.00431896 0.00918536 0)
(-0.00580431 0.00825321 0)
(-0.00704116 0.00714986 0)
(-0.00803172 0.00594342 0)
(-0.00879305 0.00468242 0)
(-0.00934789 0.00339759 0)
(-0.00971807 0.00210447 0)
(-0.00992007 0.000807283 0)
(-0.00996244 -0.000496793 0)
(-0.009844 -0.0018133 0)
(-0.00955327 -0.00314623 0)
(-0.00906922 -0.00449312 0)
(-0.00836331 -0.00583961 0)
(-0.00740363 -0.00715362 0)
(-0.00616225 -0.0083807 0)
(-0.00462677 -0.00943961 0)
(-0.00280927 -0.0101814 0)
(-0.000916245 -0.00942224 0)
(-0.00104483 0.0109143 0)
(-0.0031919 0.0117905 0)
(-0.00523487 0.0109226 0)
(-0.00694394 0.00970754 0)
(-0.00831787 0.00831738 0)
(-0.00937992 0.00684423 0)
(-0.0101697 0.00534776 0)
(-0.0107299 0.00385958 0)
(-0.0110981 0.00238941 0)
(-0.0113015 0.000931987 0)
(-0.0113541 -0.000527002 0)
(-0.0112557 -0.00200547 0)
(-0.0109906 -0.00352016 0)
(-0.0105274 -0.00508069 0)
(-0.00982048 -0.00668227 0)
(-0.00881373 -0.00829609 0)
(-0.00744969 -0.0098584 0)
(-0.00568497 -0.0112613 0)
(-0.00350751 -0.0122946 0)
(-0.00115763 -0.0114742 0)
(-0.00133508 0.0132575 0)
(-0.00401487 0.0141777 0)
(-0.00645876 0.0129591 0)
(-0.00841119 0.0113438 0)
(-0.00990453 0.00957481 0)
(-0.0110014 0.00777404 0)
(-0.0117777 0.00600945 0)
(-0.0123062 0.00430683 0)
(-0.0126457 0.00266347 0)
(-0.0128365 0.00105877 0)
(-0.0128999 -0.000538314 0)
(-0.0128372 -0.00216343 0)
(-0.0126285 -0.00385202 0)
(-0.0122313 -0.00563298 0)
(-0.0115787 -0.00752002 0)
(-0.0105798 -0.00949827 0)
(-0.0091297 -0.0115041 0)
(-0.00712767 -0.0134002 0)
(-0.00450988 -0.0148842 0)
(-0.00152032 -0.0140956 0)
(-0.00178555 0.0162812 0)
(-0.00521642 0.0171038 0)
(-0.00813692 0.0153408 0)
(-0.0103303 0.013147 0)
(-0.0118877 0.0108762 0)
(-0.0129453 0.00867815 0)
(-0.0136369 0.00661661 0)
(-0.0140759 0.00469932 0)
(-0.0143462 0.00290121 0)
(-0.0145033 0.00117868 0)
(-0.0145763 -0.000522078 0)
(-0.0145694 -0.00226007 0)
(-0.0144601 -0.00409604 0)
(-0.0141954 -0.0060874 0)
(-0.0136858 -0.00827955 0)
(-0.0127978 -0.0106894 0)
(-0.0113543 -0.013276 0)
(-0.00914552 -0.015891 0)
(-0.00602909 -0.018085 0)
(-0.00211641 -0.017585 0)
(-0.0025511 0.0204163 0)
(-0.00707262 0.0207254 0)
(-0.0104974 0.0180934 0)
(-0.0128784 0.0150545 0)
(-0.0143736 0.0121287 0)
(-0.015261 0.00946228 0)
(-0.0157566 0.00708893 0)
(-0.0160217 0.00497744 0)
(-0.0161663 0.00306559 0)
(-0.0162598 0.00127765 0)
(-0.0163387 -0.000468702 0)
(-0.0164111 -0.00226022 0)
(-0.0164558 -0.00418891 0)
(-0.0164148 -0.00635047 0)
(-0.0161807 -0.00883975 0)
(-0.0155762 -0.0117348 0)
(-0.0143346 -0.015059 0)
(-0.0120391 -0.0187152 0)
(-0.00847959 -0.0220375 0)
(-0.00319766 -0.0224824 0)
(-0.00402509 0.0257412 0)
(-0.0101885 0.0250692 0)
(-0.013906 0.0211533 0)
(-0.0162983 0.0169124 0)
(-0.01748 0.0131602 0)
(-0.0179849 0.00997409 0)
(-0.0181215 0.00730862 0)
(-0.0180989 0.0050594 0)
(-0.0180456 0.0031079 0)
(-0.0180372 0.00133611 0)
(-0.0181138 -0.000369662 0)
(-0.0182892 -0.00212367 0)
(-0.0185499 -0.00405084 0)
(-0.0188457 -0.00629296 0)
(-0.0190694 -0.00901429 0)
(-0.0190163 -0.0123952 0)
(-0.0183374 -0.0166024 0)
(-0.0162593 -0.0217413 0)
(-0.0126937 -0.0268018 0)
(-0.00534435 -0.0296586 0)
(-0.00642483 0.0369219 0)
(-0.0150361 0.0309136 0)
(-0.0187665 0.0245618 0)
(-0.0208708 0.0184739 0)
(-0.0213028 0.0136889 0)
(-0.021101 0.00998415 0)
(-0.020658 0.00711506 0)
(-0.0202079 0.00484382 0)
(-0.0198741 0.00296993 0)
(-0.019721 0.00132821 0)
(-0.0197812 -0.000223434 0)
(-0.0200741 -0.00181273 0)
(-0.0206058 -0.00359769 0)
(-0.0213575 -0.00576122 0)
(-0.02226 -0.00855251 0)
(-0.0231377 -0.012324 0)
(-0.02365 -0.0175479 0)
(-0.0223899 -0.0249345 0)
(-0.0201109 -0.0329224 0)
(-0.00967135 -0.0424241 0)
(-0.0144467 0.0423943 0)
(-0.0272356 0.0349558 0)
(-0.0262396 0.0265866 0)
(-0.0268747 0.0187891 0)
(-0.0255919 0.0131811 0)
(-0.0241306 0.00919699 0)
(-0.0227984 0.00634874 0)
(-0.021755 0.0042459 0)
(-0.0210523 0.00260994 0)
(-0.020705 0.00124151 0)
(-0.0207135 -1.40485e-05 0)
(-0.0211058 -0.00129973 0)
(-0.0219209 -0.00275514 0)
(-0.0231967 -0.00458001 0)
(-0.0249891 -0.00705912 0)
(-0.0273055 -0.0106401 0)
(-0.0301294 -0.0159084 0)
(-0.030896 -0.0248657 0)
(-0.0337437 -0.0337283 0)
(-0.0177388 -0.0560615 0)
(-0.0246799 0.0931036 0)
(-0.0335349 0.0403207 0)
(-0.0275088 0.0275811 0)
(-0.0244445 0.0167573 0)
(-0.0198228 0.0104481 0)
(-0.0161866 0.00682918 0)
(-0.0134538 0.00453086 0)
(-0.011521 0.00296886 0)
(-0.0102566 0.00183106 0)
(-0.00956397 0.000926107 0)
(-0.00939411 0.000123547 0)
(-0.00973325 -0.000696621 0)
(-0.0106147 -0.00164594 0)
(-0.0121226 -0.00292351 0)
(-0.0143539 -0.0049055 0)
(-0.0172394 -0.00842153 0)
(-0.0217091 -0.0148246 0)
(-0.021205 -0.0287256 0)
(-0.0329919 -0.0487019 0)
(-0.00858819 -0.111201 0)
(0.102473 0.0794262 0)
(0.100005 0.0307659 0)
(0.149502 0.0176336 0)
(0.162618 0.00966486 0)
(0.172271 0.00527533 0)
(0.178749 0.00311447 0)
(0.182807 0.00194566 0)
(0.185434 0.00124446 0)
(0.187118 0.000782866 0)
(0.188104 0.000445722 0)
(0.188515 0.000168475 0)
(0.188391 -9.21497e-05 0)
(0.187692 -0.000388404 0)
(0.186256 -0.000793769 0)
(0.183607 -0.00147534 0)
(0.179518 -0.00292019 0)
(0.169211 -0.00580308 0)
(0.165096 -0.0136853 0)
(0.106198 -0.0250939 0)
(0.115073 -0.0745237 0)
)
;

boundaryField
{
    movingWall
    {
        type            fixedValue;
        value           uniform (1 0 0);
    }
    fixedWalls
    {
        type            noSlip;
    }
    frontAndBack
    {
        type            empty;
    }
}


// ************************************************************************* //
