/*--------------------------------*- C++ -*----------------------------------*\
  =========                 |
  \\      /  F ield         | OpenFOAM: The Open Source CFD Toolbox
   \\    /   O peration     | Website:  https://openfoam.org
    \\  /    A nd           | Version:  10
     \\/     M anipulation  |
\*---------------------------------------------------------------------------*/
FoamFile
{
    format      ascii;
    class       surfaceScalarField;
    location    "8.7";
    object      phi;
}
// * * * * * * * * * * * * * * * * * * * * * * * * * * * * * * * * * * * * * //

dimensions      [0 3 -1 0 0 0 0];

internalField   nonuniform List<scalar> 
890
(
0.00984606
0.000153939
0.00971721
0.000128848
0.00946787
0.000249347
0.00941586
5.20013e-05
0.000148939
0.00926693
0.0101197
3.42385e-05
0.0102016
4.69702e-05
0.0104073
4.35809e-05
0.0104659
-6.52804e-06
-6.76232e-05
0.0106824
0.0100717
-3.74495e-05
0.0102153
-9.66427e-05
0.0103784
-0.000119556
0.0105215
-0.000149588
-0.000189828
0.0106437
0.0100897
-0.000127161
0.010214
-0.000220932
0.0103306
-0.000236122
0.0104189
-0.000237929
-0.000251135
0.0104802
0.00987284
0.00965191
0.00941579
0.00917786
0.00892672
0.00927015
-9.98627e-05
9.66403e-05
0.00929394
-0.00026254
0.000238743
0.00936553
-0.00038572
0.000314136
0.00947105
-0.00049099
0.000385471
0.00960223
-0.00059628
0.000465091
0.00976143
-0.000729057
0.000569865
0.00993752
-0.000877245
0.000701147
0.0101224
-0.0010523
0.000867451
0.0103084
-0.00125389
0.00106783
0.0104794
-0.0014724
0.00130139
0.0106239
-0.00170108
0.0015566
0.0107298
-0.00191525
0.00180938
0.0107886
-0.00210511
0.00204633
0.0107888
-0.00223874
0.00223856
0.0107192
-0.00230173
0.00237128
0.010562
-0.00227153
0.00242875
0.0103325
-0.00218439
0.00241388
0.0100806
-0.00210017
0.00235201
0.00981313
-0.00197111
0.00223863
0.00953181
-0.00178765
0.00206897
0.00924648
-0.00156993
0.00185526
0.00896597
-0.0013233
0.00160381
0.00870206
-0.00106207
0.00132597
0.00847471
-0.000808421
0.00103577
0.00829166
-0.000561183
0.000744234
0.00815432
-0.000325067
0.000462407
0.00805976
-0.000102117
0.000196681
0.00800227
0.000108127
-5.06439e-05
0.00798414
0.000298577
-0.000280444
0.00799224
0.000465591
-0.000473691
0.00801904
0.000599142
-0.000625941
0.00805392
0.000708909
-0.000743784
0.00809001
0.000775424
-0.00081152
0.00811744
0.000821514
-0.000848945
0.00813471
0.000811993
-0.000829256
0.00813425
0.000797933
-0.000797476
0.00812425
0.000729742
-0.000719746
0.00809514
0.000679603
-0.00065049
0.00805825
0.000591063
-0.000554169
0.00799954
0.000531011
-0.000472303
0.00793492
0.000464354
-0.000399733
0.00785326
0.000404529
-0.000322867
0.0077693
0.000366938
-0.000282978
0.00767879
0.000314989
-0.000224481
0.000295274
-0.000201441
0.0107485
-0.000165929
0.0107725
-0.000286565
0.0107938
-0.000407039
0.0108207
-0.000517888
0.0108515
-0.00062699
0.0108664
-0.00074401
0.0108698
-0.000880656
0.0108539
-0.00103634
0.010818
-0.001218
0.0107525
-0.00140692
0.0106496
-0.00159814
0.0105002
-0.00176587
0.0103059
-0.00191087
0.0100504
-0.00198325
0.00971972
-0.001971
0.0093018
-0.00185362
0.00884233
-0.00172491
0.00836072
-0.00161856
0.00787707
-0.00148746
0.00740073
-0.00131132
0.00695517
-0.00112436
0.00653837
-0.000906507
0.0061682
-0.000691897
0.00585946
-0.000499678
0.00562389
-0.000325608
0.00546236
-0.000163542
0.00536101
-7.69976e-07
0.0053319
0.000137242
0.00536019
0.000270281
0.005436
0.000389782
0.00554433
0.000490811
0.00567528
0.000577959
0.00581443
0.00063628
0.00595647
0.000679474
0.0060854
0.000683059
0.00619996
0.000683372
0.00629112
0.000638588
0.00635808
0.000612641
0.00640321
0.000545932
0.00641827
0.000515951
0.00643017
0.000452452
0.00641856
0.000416141
0.00641612
0.000369376
0.0064013
0.000329804
0.000313599
0.0107287
-0.000250923
0.0107742
-0.000332111
0.0107885
-0.000421333
0.0107823
-0.000511664
0.0107542
-0.000598908
0.0107026
-0.000692335
0.0106226
-0.000800732
0.0105118
-0.000925529
0.0103621
-0.00106831
0.0101766
-0.00122142
0.00996174
-0.00138325
0.00971301
-0.00151715
0.00941391
-0.00161177
0.00898589
-0.00155522
0.00842153
-0.00140664
0.00780315
-0.00123524
0.00718872
-0.00111049
0.00649313
-0.000922964
0.00574728
-0.000741608
0.00504391
-0.000607946
0.00439061
-0.000471063
0.00382682
-0.000342713
0.00336752
-0.000232604
0.00301229
-0.000144441
0.00275766
-7.09869e-05
0.00259785
-3.72864e-06
0.00252859
6.84887e-05
0.00252613
0.000139709
0.00258665
0.000209756
0.00269943
0.000276998
0.00285183
0.00033842
0.00303602
0.000393763
0.00323761
0.000434687
0.00345197
0.000465119
0.00366047
0.000474563
0.00386615
0.000477688
0.00405007
0.000454668
0.00422499
0.000437726
0.00437601
0.000394911
0.0045194
0.000372563
0.00465041
0.000321437
0.00476759
0.000298958
0.00488231
0.000254663
0.0049761
0.000236014
0.000218472
0.01051
-0.000280689
0.0104974
-0.000319496
0.0104383
-0.000362252
0.0103343
-0.000407634
0.0101855
-0.000450117
0.0099941
-0.000500974
0.00974489
-0.000551525
0.00944141
-0.000622043
0.00906209
-0.000689
0.00862365
-0.000782973
0.00810175
-0.000861352
0.0075479
-0.000963297
0.00696228
-0.00102616
0.00623505
-0.000827988
0.00531183
-0.000483427
0.00423949
-0.000162887
0.00308414
4.4854e-05
0.00203105
0.000130126
0.00121839
7.10598e-05
0.000674507
-6.40682e-05
0.000366757
-0.000163313
0.000198754
-0.00017471
0.000107265
-0.000141114
6.17384e-05
-9.89152e-05
5.06226e-05
-5.9871e-05
7.04002e-05
-2.35063e-05
0.00012764
1.12492e-05
0.00022482
4.25291e-05
0.000359963
7.46129e-05
0.00053048
0.000106482
0.000732647
0.000136253
0.000963268
0.000163142
0.00121423
0.00018372
0.00148127
0.000198083
0.0017518
0.000204032
0.00202445
0.000205042
0.00228346
0.000195657
0.0025357
0.000185486
0.00276426
0.000166348
0.00298539
0.00015143
0.00317794
0.00012889
0.00336177
0.000115128
0.00352163
9.48033e-05
0.00367003
8.7611e-05
7.78466e-05
0.00864603
0.00832654
0.00796428
0.00755665
0.00710653
0.00660556
0.00605404
0.00543199
0.00474299
0.00396002
0.00309867
0.00213537
0.00110922
0.000281227
-0.0002022
-0.000365087
-0.000320233
-0.000190108
-0.000119048
-0.000183116
-0.000346429
-0.000521139
-0.000662253
-0.000761168
-0.000821039
-0.000844545
-0.000833296
-0.000790767
-0.000716154
-0.000609673
-0.000473419
-0.000310277
-0.000126557
7.15259e-05
0.000275558
0.0004806
0.000676257
0.000861742
0.00102809
0.00117952
0.00130841
0.00142354
0.00151834
0.00160595
2.94772e-05
-2.94772e-05
-1.12487e-05
4.07259e-05
-0.000139539
0.000128291
-0.000398973
0.000259433
-0.000780059
0.000381086
-0.00121807
0.000438014
-0.00166399
0.000445913
-0.00207449
0.000410504
-0.00241883
0.000344339
-0.00266957
0.000250744
-0.00281031
0.000140738
-0.00282406
1.37457e-05
-0.00271669
-0.000107368
-0.00249007
-0.000226622
-0.00215293
-0.00033714
-0.00172531
-0.000427613
-0.00123432
-0.000490998
-0.000704698
-0.000529617
-0.000159303
-0.000545395
0.000382147
-0.000541451
0.000895508
-0.000513361
0.0013596
-0.000464095
0.00175669
-0.000397085
0.00207342
-0.00031673
0.00230273
-0.000229318
0.00244227
-0.000139538
0.00249301
-5.0734e-05
0.00246524
2.77647e-05
0.00237331
9.19274e-05
0.00223194
0.000141379
0.00205847
0.00017347
0.00186979
0.000188678
0.00167986
0.000189932
0.00149939
0.00018047
0.00133458
0.000164804
0.00119804
0.000136538
0.00109835
9.96967e-05
0.0010386
5.97437e-05
0.00101204
2.65651e-05
0.0010129
-8.67607e-07
0.00102882
-1.59124e-05
0.0010586
-2.97827e-05
0.00109503
-3.64278e-05
0.00113616
-4.11277e-05
-3.5014e-05
-9.551e-05
6.60328e-05
-0.000407217
0.000352433
-0.000782186
0.00050326
-0.00113548
0.000612723
-0.00143161
0.000677224
-0.00166841
0.000674808
-0.00184252
0.000620021
-0.00195069
0.000518677
-0.00198419
0.000377843
-0.0019302
0.000196752
-0.0017764
-1.30572e-05
-0.00153566
-0.000226997
-0.00118995
-0.000453083
-0.000748697
-0.000667873
-0.000224418
-0.000861419
0.000359892
-0.00101192
0.000984665
-0.00111577
0.00162829
-0.00117325
0.00227197
-0.00118907
0.00289272
-0.0011622
0.0034734
-0.00109404
0.00399788
-0.000988571
0.00445281
-0.000852023
0.00482822
-0.000692137
0.00511882
-0.000519918
0.00532499
-0.000345704
0.00544779
-0.000173536
0.0054899
-1.4344e-05
0.00546124
0.00012059
0.00536886
0.00023376
0.00522127
0.00032106
0.0050357
0.000374241
0.00483036
0.000395276
0.00462087
0.000389958
0.00441699
0.000368682
0.00422879
0.000324741
0.00406416
0.000264322
0.00393108
0.000192826
0.00382951
0.00012814
0.0037532
7.54443e-05
0.00370615
3.11336e-05
0.00367868
-2.31685e-06
0.00367186
-2.96031e-05
0.00367358
-4.28451e-05
-3.27743e-05
-0.000519732
0.000585765
-0.000715694
0.000548394
-0.000779007
0.000566573
-0.000752452
0.000586168
-0.000653474
0.000578246
-0.000504863
0.000526197
-0.000312551
0.000427709
-7.94569e-05
0.000285583
0.000201678
9.67078e-05
0.000540242
-0.000141812
0.000938416
-0.000411231
0.00140063
-0.000689207
0.00191268
-0.000965132
0.00246949
-0.00122469
0.00305648
-0.0014484
0.00366023
-0.00161567
0.00426396
-0.00171951
0.00485237
-0.00176165
0.00541154
-0.00174824
0.00593244
-0.0016831
0.0064029
-0.0015645
0.00681305
-0.00139872
0.00715639
-0.00119537
0.00743006
-0.000965804
0.00763364
-0.000723494
0.00776931
-0.000481376
0.0078424
-0.000246631
0.00785915
-3.10921e-05
0.0078136
0.000166138
0.00772041
0.000326957
0.00758706
0.000454409
0.00742096
0.000540341
0.00723229
0.000583947
0.00703322
0.000589029
0.00683537
0.000566531
0.00664194
0.000518165
0.00646168
0.000444584
0.00629193
0.000362578
0.00614608
0.000273991
0.00601764
0.000203876
0.00591591
0.000132871
0.00583772
7.58666e-05
0.00577488
3.32413e-05
0.0057411
-9.06931e-06
1.92241e-06
-0.000262413
0.000848179
-0.000195148
0.000481128
9.76141e-06
0.000361665
0.00032667
0.000269259
0.000729976
0.00017494
0.00119366
6.2514e-05
0.00169463
-7.32608e-05
0.00222025
-0.000240038
0.00276884
-0.000451888
0.00333386
-0.000706828
0.00391219
-0.000989564
0.00450045
-0.00127746
0.00509392
-0.00155861
0.00567914
-0.0018099
0.00624239
-0.00201166
0.00677431
-0.00214759
0.00726334
-0.00220854
0.00770406
-0.00220238
0.00809539
-0.00213956
0.00843444
-0.00202215
0.00871957
-0.00184963
0.00895051
-0.00162966
0.00912837
-0.00137323
0.00925674
-0.00109417
0.00934001
-0.000806767
0.00938155
-0.000522917
0.00938881
-0.000253893
0.00936894
-1.12155e-05
0.00930821
0.000226868
0.00921838
0.000416785
0.0091061
0.00056669
0.00897142
0.000675021
0.00881914
0.000736226
0.00865016
0.000758009
0.00848147
0.000735223
0.00830811
0.000691521
0.00814115
0.000611545
0.00797249
0.000531242
0.00781644
0.000430037
0.00767395
0.000346368
0.00753708
0.000269742
0.00741672
0.000196231
0.00729341
0.000156546
0.00718743
9.69143e-05
8.55719e-05
0.000944819
0.00166469
0.00234049
0.00299522
0.00363525
0.00426763
0.00489552
0.00552293
0.00613887
0.00673343
0.00730047
0.00783239
0.00832011
0.00874877
0.00910838
0.00938955
0.00959489
0.00974453
0.00984359
0.00989041
0.00989604
0.0098702
0.00982294
0.00976453
0.009702
0.00964149
0.00958428
0.00952242
0.00946884
0.00941194
0.00935269
0.00928392
0.00920863
0.00911769
0.00902366
0.0089177
0.0088095
0.00869025
0.00856612
0.00844019
0.0083102
0.00818356
0.00805713
0.00792956
)
;

boundaryField
{
    inlet
    {
        type            calculated;
        value           nonuniform List<scalar> 5(-0.01 -0.01 -0.01 -0.01 -0.01);
    }
    outlet
    {
        type            calculated;
        value           nonuniform List<scalar> 10(0.00758495 0.00638298 0.00507122 0.00381066 0.0016838 0.00117117 0.00367134 0.00570641 0.00710378 0.00781369);
    }
    upperWall
    {
        type            calculated;
        value           uniform 0;
    }
    lowerWall
    {
        type            calculated;
        value           uniform 0;
    }
    frontAndBack
    {
        type            empty;
        value           nonuniform List<scalar> 0();
    }
}


// ************************************************************************* //
