/*--------------------------------*- C++ -*----------------------------------*\
  =========                 |
  \\      /  F ield         | OpenFOAM: The Open Source CFD Toolbox
   \\    /   O peration     | Website:  https://openfoam.org
    \\  /    A nd           | Version:  10
     \\/     M anipulation  |
\*---------------------------------------------------------------------------*/
FoamFile
{
    format      ascii;
    class       volScalarField;
    location    "4";
    object      p;
}
// * * * * * * * * * * * * * * * * * * * * * * * * * * * * * * * * * * * * * //

dimensions      [0 2 -2 0 0 0 0];

internalField   nonuniform List<scalar> 
475
(
-0.0492812
-0.0744208
-0.104045
-0.128013
-0.150706
-0.0745292
-0.0882503
-0.104609
-0.123596
-0.140076
-0.0728727
-0.0822269
-0.0972327
-0.11465
-0.130885
-0.0721064
-0.0827489
-0.0977719
-0.113113
-0.126326
-0.0422542
-0.0691003
-0.0927247
-0.110154
-0.122731
-0.169322
-0.18053
-0.183851
-0.192209
-0.208062
-0.226356
-0.241111
-0.2463
-0.240778
-0.223453
-0.195809
-0.164093
-0.132012
-0.102011
-0.0753009
-0.0562017
-0.0453455
-0.0319622
-0.0128398
0.00201734
0.0097594
0.0152961
0.0211697
0.0269091
0.0311134
0.0332195
0.0335371
0.0326726
0.0311608
0.0293512
0.0274303
0.0254819
0.0235379
0.0216074
0.0196919
0.0177894
0.0158972
0.0140119
0.0121311
0.0102562
0.00838654
0.00652013
0.00465577
0.00279283
0.000930759
-0.157003
-0.169551
-0.176387
-0.182022
-0.187668
-0.194234
-0.199133
-0.198574
-0.193022
-0.180047
-0.163163
-0.146638
-0.12942
-0.112577
-0.0957232
-0.079531
-0.0663721
-0.0500577
-0.0283143
-0.00936305
0.00284512
0.0116635
0.0193369
0.025756
0.0303041
0.032833
0.0336188
0.0331297
0.0318329
0.0300882
0.0281284
0.0260859
0.0240285
0.021987
0.0199735
0.0179906
0.0160364
0.0141081
0.0121983
0.0103019
0.00841589
0.00653794
0.00466571
0.0027975
0.000931799
-0.144583
-0.154327
-0.160374
-0.163851
-0.164293
-0.164363
-0.162482
-0.15807
-0.152977
-0.145755
-0.141679
-0.139286
-0.132139
-0.124951
-0.117597
-0.104901
-0.0876258
-0.0645167
-0.0373139
-0.014202
0.0011626
0.0116642
0.0196411
0.0257604
0.0300882
0.0326816
0.0337137
0.0334936
0.0323866
0.0307226
0.0287513
0.0266396
0.024488
0.0223494
0.0202486
0.0181924
0.0161797
0.0142041
0.0122607
0.0103417
0.00844057
0.00655239
0.00467337
0.0028008
0.000932325
-0.137318
-0.144414
-0.14891
-0.150288
-0.147454
-0.143156
-0.135602
-0.127284
-0.119285
-0.114825
-0.125678
-0.138139
-0.134443
-0.125362
-0.12043
-0.112894
-0.0979961
-0.0728496
-0.0418727
-0.0158815
0.00173
0.0129031
0.0205383
0.0261703
0.0302625
0.0328412
0.0339685
0.0338594
0.0328222
0.03117
0.0291629
0.0269884
0.0247662
0.0225573
0.0203985
0.0182976
0.0162518
0.014253
0.0122924
0.0103612
0.00845195
0.0065584
0.00467595
0.0028013
0.00093183
-0.131987
-0.13818
-0.141718
-0.141748
-0.138134
-0.131054
-0.121335
-0.110434
-0.0993323
-0.0982006
-0.11164
-0.130058
-0.138216
-0.134526
-0.124218
-0.109444
-0.0901858
-0.0662887
-0.0354758
-0.0133521
0.00294385
0.0140126
0.021697
0.0272062
0.0310489
0.0333927
0.0343633
0.0341669
0.033081
0.0313937
0.0293532
0.0271434
0.0248842
0.0226507
0.0204685
0.0183482
0.0162872
0.014277
0.0123081
0.0103709
0.00845758
0.00656134
0.00467728
0.0028016
0.000931645
-0.196421
-0.19836
-0.201858
-0.210729
-0.229133
-0.254938
-0.277986
-0.287049
-0.276458
-0.245793
-0.196642
-0.134584
-0.0684205
-0.00669154
0.0443986
0.0805593
0.100165
0.105166
0.100607
0.0909001
0.0786529
0.0656872
0.0534268
0.0432965
0.0359644
0.0312109
0.0283519
0.0266455
0.0255079
0.0245623
0.0236024
0.0225343
0.0213277
0.0199848
0.018521
0.0169585
0.0153177
0.0136162
0.0118689
0.0100875
0.00828149
0.00645802
0.00462224
0.00277809
0.00092825
-0.186853
-0.190874
-0.197942
-0.213182
-0.237971
-0.268099
-0.293616
-0.305159
-0.297958
-0.270001
-0.222111
-0.159606
-0.0918609
-0.0284476
0.0243797
0.063938
0.0868836
0.0950727
0.0932947
0.0853384
0.0742439
0.061855
0.0508296
0.0420686
0.0357775
0.0316236
0.0290033
0.0273115
0.0260826
0.0250143
0.0239379
0.0227745
0.0214969
0.0201039
0.0186013
0.0170126
0.0153537
0.0136397
0.0118836
0.0100963
0.00828644
0.0064605
0.00462329
0.00277822
0.000928003
-0.197149
-0.194375
-0.199904
-0.217258
-0.246656
-0.279904
-0.307989
-0.321877
-0.315199
-0.287881
-0.241733
-0.181593
-0.115688
-0.0545982
-0.00335335
0.0366762
0.0618186
0.072239
0.0731158
0.0684188
0.0605415
0.0521766
0.0450914
0.0397037
0.0355966
0.0325221
0.0302734
0.0285743
0.0271714
0.0258827
0.0245972
0.0232566
0.0218374
0.0203359
0.0187636
0.0171232
0.0154287
0.0136892
0.0119152
0.0101158
0.00829783
0.0064665
0.00462586
0.00277876
0.000927528
-0.186085
-0.187304
-0.192013
-0.2086
-0.235178
-0.264744
-0.289951
-0.304046
-0.302016
-0.280611
-0.240426
-0.188018
-0.130058
-0.0754519
-0.0302636
0.00481745
0.0283843
0.0400576
0.0440227
0.0440887
0.0428859
0.0378512
0.0358112
0.0350545
0.0343207
0.0332201
0.0318175
0.0302834
0.0287216
0.0271617
0.0255976
0.0240143
0.0223999
0.0207481
0.0190578
0.0173303
0.015569
0.0137823
0.0119757
0.0101543
0.00832158
0.00648031
0.0046331
0.00278183
0.000927975
-0.217997
-0.192096
-0.191604
-0.202638
-0.22443
-0.249954
-0.272318
-0.283233
-0.279422
-0.260357
-0.22622
-0.18308
-0.136372
-0.0916674
-0.0546346
-0.0283457
-0.00978209
0.00449728
0.0143617
0.019039
0.018713
0.0220899
0.025732
0.0295564
0.0322295
0.0332035
0.0328192
0.031629
0.0300492
0.0283153
0.0265352
0.024746
0.0229545
0.0211579
0.0193528
0.0175373
0.0157123
0.0138807
0.0120437
0.0102
0.0083508
0.00649804
0.00464303
0.00278652
0.000929038
)
;

boundaryField
{
    inlet
    {
        type            zeroGradient;
    }
    outlet
    {
        type            fixedValue;
        value           uniform 0;
    }
    upperWall
    {
        type            zeroGradient;
    }
    lowerWall
    {
        type            zeroGradient;
    }
    frontAndBack
    {
        type            empty;
    }
}


// ************************************************************************* //
