/*--------------------------------*- C++ -*----------------------------------*\
  =========                 |
  \\      /  F ield         | OpenFOAM: The Open Source CFD Toolbox
   \\    /   O peration     | Website:  https://openfoam.org
    \\  /    A nd           | Version:  10
     \\/     M anipulation  |
\*---------------------------------------------------------------------------*/
FoamFile
{
    format      ascii;
    class       surfaceScalarField;
    location    "4";
    object      phi;
}
// * * * * * * * * * * * * * * * * * * * * * * * * * * * * * * * * * * * * * //

dimensions      [0 3 -1 0 0 0 0];

internalField   nonuniform List<scalar> 
890
(
0.00984006
0.000159939
0.00972269
0.000117376
0.00946707
0.000255617
0.00943162
3.54496e-05
0.0001366
0.00929502
0.0101258
3.4123e-05
0.0101967
4.65149e-05
0.0104062
4.61202e-05
0.0104593
-1.77004e-05
-8.90477e-05
0.010685
0.0100729
-3.88193e-05
0.0102133
-9.38118e-05
0.0103781
-0.000118716
0.0105196
-0.000159244
-0.000210783
0.0106414
0.0100884
-0.000127209
0.0102144
-0.000219796
0.0103318
-0.000236184
0.0104182
-0.000245592
-0.000261297
0.0104687
0.00987279
0.00965299
0.00941681
0.00917122
0.00890992
0.00927645
-0.000120488
0.000139062
0.00930731
-0.000290759
0.000259898
0.00946218
-0.000397238
0.000242365
0.0096772
-0.000449379
0.000234357
0.00993941
-0.000657511
0.000395301
0.0102262
-0.000929909
0.00064311
0.0104801
-0.00125533
0.00100139
0.0107067
-0.00174057
0.00151404
0.010843
-0.00215351
0.00201723
0.0108638
-0.00256058
0.00253977
0.010791
-0.00295216
0.00302492
0.0105802
-0.00312189
0.00333269
0.0102277
-0.00314151
0.00349403
0.00976599
-0.00292433
0.00338603
0.00918461
-0.00245415
0.00303553
0.00853641
-0.00195586
0.00260406
0.00784654
-0.00128289
0.00197276
0.00707317
-0.000389482
0.00116285
0.00628327
0.000300431
0.000489476
0.00565499
0.000579053
4.92267e-05
0.00531662
0.000610859
-0.000272489
0.00526232
0.000640212
-0.000585916
0.00538394
0.000717462
-0.000839079
0.00556654
0.000778996
-0.000961594
0.00573508
0.000773866
-0.00094241
0.00585905
0.000699372
-0.000823339
0.00593738
0.000581609
-0.000659944
0.00598152
0.000450826
-0.000494966
0.00600437
0.000329068
-0.000351913
0.00601565
0.000227849
-0.000239132
0.0060213
0.00015036
-0.00015601
0.0060244
9.47598e-05
-9.78576e-05
0.00602634
5.69538e-05
-5.8893e-05
0.00602767
3.24332e-05
-3.37709e-05
0.00602863
1.7202e-05
-1.81545e-05
0.00602929
8.15654e-06
-8.81964e-06
0.00602975
3.03264e-06
-3.49126e-06
0.0060301
2.90256e-07
-6.41602e-07
0.00603026
-9.53166e-07
7.92062e-07
0.00603032
-1.44435e-06
1.38224e-06
0.00603034
-1.48406e-06
1.46786e-06
0.00603033
-1.36917e-06
1.37927e-06
0.00603031
-1.08323e-06
1.10292e-06
0.00603029
-9.20475e-07
9.44341e-07
-5.4688e-07
5.6042e-07
0.0107278
-0.000163284
0.0107605
-0.000323496
0.0108401
-0.000476859
0.0109423
-0.000551543
0.0110328
-0.000747974
0.0110772
-0.000974397
0.011075
-0.0012531
0.0109852
-0.00165077
0.0107955
-0.00196377
0.0105407
-0.00230576
0.0101832
-0.00259466
0.00968777
-0.00262649
0.00906218
-0.00251591
0.00836636
-0.00222851
0.0075992
-0.00168699
0.00675582
-0.00111248
0.00594488
-0.000471953
0.00524739
0.000308013
0.00470281
0.000845009
0.00435992
0.000921942
0.00423225
0.000738534
0.00430322
0.000569236
0.00451465
0.000506038
0.00479078
0.000502867
0.00506916
0.000495478
0.00531338
0.000455155
0.00550977
0.000385221
0.00565868
0.000301913
0.00576691
0.000220845
0.00584302
0.000151732
0.00589513
9.82503e-05
0.00592998
5.99087e-05
0.0059528
3.41338e-05
0.00596745
1.77867e-05
0.00597665
7.99677e-06
0.00598229
2.52056e-06
0.00598562
-2.96715e-07
0.00598756
-1.64694e-06
0.00598865
-2.04749e-06
0.00598922
-2.01324e-06
0.00598948
-1.74791e-06
0.00598958
-1.4612e-06
0.00598959
-1.09388e-06
0.00598955
-8.87851e-07
-5.15833e-07
0.0107288
-0.000250667
0.0107676
-0.000362289
0.0107787
-0.000487979
0.0108046
-0.000577472
0.0107897
-0.000733065
0.0107089
-0.000893602
0.0105767
-0.00112086
0.0103235
-0.0013976
0.0100487
-0.00168902
0.00974112
-0.00199815
0.00922189
-0.00207543
0.00858398
-0.00198858
0.00786059
-0.00179253
0.00701613
-0.00138405
0.00617642
-0.000847283
0.00540488
-0.000340942
0.00480514
0.000127792
0.00451848
0.000594667
0.00449224
0.000871246
0.00456683
0.000847361
0.00462901
0.000676348
0.00467936
0.000518885
0.00475851
0.000426895
0.00488324
0.000378136
0.00503982
0.000338897
0.0052033
0.00029167
0.00535303
0.000235497
0.00547766
0.000177285
0.00557404
0.000124457
0.00564427
8.15082e-05
0.00569289
4.96281e-05
0.00572506
2.77359e-05
0.00574547
1.37296e-05
0.00575788
5.3759e-06
0.00576513
7.46266e-07
0.0057691
-1.45417e-06
0.00577113
-2.32909e-06
0.00577198
-2.49279e-06
0.00577222
-2.28517e-06
0.00577214
-1.93967e-06
0.00577194
-1.5453e-06
0.00577169
-1.21357e-06
0.00577147
-8.73737e-07
0.00577127
-6.83717e-07
-3.91238e-07
0.0105016
-0.00028357
0.010483
-0.000343708
0.0103838
-0.000388782
0.0102695
-0.000463116
0.0100715
-0.00053508
0.00979361
-0.000615728
0.00944305
-0.000770296
0.00891512
-0.000869672
0.00832271
-0.00109661
0.00768882
-0.00136425
0.00685083
-0.00123744
0.00572226
-0.000860002
0.00442318
-0.000493451
0.00326244
-0.000223311
0.00246567
-5.05126e-05
0.00204686
7.78673e-05
0.00195252
0.000222134
0.00217008
0.000377101
0.00258856
0.000452766
0.00300562
0.000430307
0.00333342
0.000348545
0.00358383
0.000268473
0.00379873
0.000211996
0.00400364
0.000173228
0.0042008
0.000141738
0.00438056
0.000111914
0.00453286
8.31896e-05
0.00465275
5.74009e-05
0.00474085
3.63518e-05
0.00480162
2.07368e-05
0.00484109
1.01577e-05
0.00486522
3.61045e-06
0.00487903
-8.2864e-08
0.00488627
-1.86527e-06
0.00488954
-2.52069e-06
0.00489063
-2.54436e-06
0.00489058
-2.27535e-06
0.00488999
-1.90529e-06
0.00488923
-1.52336e-06
0.00488847
-1.17834e-06
0.0048878
-8.7984e-07
0.00488724
-6.51692e-07
0.00488682
-4.52677e-07
0.00488647
-3.37028e-07
-1.84694e-07
0.00862635
0.00828264
0.00789386
0.00743075
0.00689567
0.00627994
0.00550964
0.00463997
0.00354336
0.00217911
0.000941667
8.16647e-05
-0.000411787
-0.000635098
-0.000685611
-0.000607744
-0.000385609
-8.50847e-06
0.000444258
0.000874565
0.00122311
0.00149158
0.00170358
0.00187681
0.00201854
0.00213046
0.00221365
0.00227105
0.0023074
0.00232814
0.00233829
0.0023419
0.00234182
0.00233996
0.00233744
0.00233489
0.00233262
0.00233071
0.00232919
0.00232801
0.00232713
0.00232648
0.00232603
0.00232569
-4.99966e-05
4.99966e-05
-0.000284091
0.000234094
-0.000915107
0.000631017
-0.00188094
0.000965833
-0.0029104
0.00102946
-0.0037836
0.000873194
-0.00440174
0.000618143
-0.00471256
0.000310814
-0.00468309
-2.94689e-05
-0.00435139
-0.000331699
-0.00373126
-0.000620124
-0.00286477
-0.000866499
-0.00182464
-0.00104012
-0.000680906
-0.00114374
0.00050045
-0.00118136
0.00163552
-0.00113507
0.00262037
-0.000984847
0.00335942
-0.000739056
0.0037863
-0.000426876
0.00388087
-9.45658e-05
0.00371752
0.000163345
0.00341212
0.000305405
0.00308266
0.000329454
0.00280235
0.000280308
0.00259613
0.000206222
0.00245967
0.000136463
0.00237711
8.25606e-05
0.00233144
4.56669e-05
0.00230891
2.2532e-05
0.00229988
9.03533e-06
0.00229816
1.71422e-06
0.0023001
-1.93888e-06
0.00230357
-3.46756e-06
0.00230741
-3.83888e-06
0.00231101
-3.60354e-06
0.00231414
-3.12724e-06
0.00231672
-2.58354e-06
0.00231878
-2.06372e-06
0.00232039
-1.60174e-06
0.0023216
-1.21632e-06
0.0023225
-8.98646e-07
0.00232316
-6.60746e-07
0.00232362
-4.5661e-07
0.00232396
-3.3868e-07
-1.85221e-07
-0.000436978
0.000486975
-0.00110113
0.000898249
-0.0017716
0.00130149
-0.0023299
0.00152413
-0.00277793
0.00147749
-0.00307264
0.00116791
-0.00318408
0.000729582
-0.00308668
0.000213416
-0.00279709
-0.000319057
-0.00227861
-0.000850177
-0.00154562
-0.00135311
-0.000630084
-0.00178204
0.00038633
-0.00205654
0.00144218
-0.00219958
0.00251793
-0.00225711
0.00354522
-0.00216236
0.00443737
-0.001877
0.00517489
-0.00147657
0.00576017
-0.00101216
0.00615269
-0.000487087
0.00629243
2.36065e-05
0.00620405
0.000393784
0.0059793
0.000554207
0.00571402
0.000545591
0.00547141
0.000448831
0.00527813
0.000329737
0.00513682
0.00022387
0.00503922
0.000143268
0.00497455
8.72041e-05
0.0049332
5.03826e-05
0.00490775
2.7166e-05
0.0048928
1.30079e-05
0.00488462
4.71827e-06
0.0048807
8.14751e-08
0.00487921
-2.11091e-06
0.00487909
-3.00936e-06
0.00487967
-3.16264e-06
0.00488053
-2.92534e-06
0.00488143
-2.50731e-06
0.00488227
-2.05167e-06
0.00488297
-1.60347e-06
0.00488356
-1.24386e-06
0.00488399
-8.88133e-07
0.00488434
-6.91465e-07
-3.94266e-07
-0.000412029
0.000899003
-0.000452435
0.000938656
-0.000387823
0.00123688
-0.000278847
0.00141515
-0.000102782
0.00130143
0.000118679
0.000946445
0.000389477
0.000458784
0.000734719
-0.000131825
0.00121441
-0.000798746
0.00180223
-0.001438
0.00247286
-0.00202375
0.00321088
-0.00252006
0.00398496
-0.00283061
0.00470738
-0.00292201
0.00535694
-0.00290668
0.00593698
-0.00274239
0.00637407
-0.00231409
0.00664576
-0.00174826
0.00684516
-0.00121156
0.0070276
-0.00066952
0.00715016
-9.89606e-05
0.007127
0.000416944
0.00697226
0.000708956
0.0067462
0.000771644
0.00651178
0.000683251
0.00630698
0.000534542
0.00614518
0.000385668
0.0060249
0.000263551
0.00593881
0.00017329
0.00587883
0.000110363
0.00583802
6.7972e-05
0.00581093
4.01031e-05
0.00579343
2.2214e-05
0.00578243
1.1082e-05
0.00577586
4.46219e-06
0.00577208
7.67959e-07
0.00577011
-1.1876e-06
0.0057692
-2.02258e-06
0.0057689
-2.20195e-06
0.00576891
-2.06804e-06
0.00576907
-1.76303e-06
0.00576929
-1.46259e-06
0.00576949
-1.08998e-06
0.00576969
-8.84059e-07
-5.1424e-07
2.28059e-06
0.000896723
0.000449816
0.00049112
0.00102916
0.000657533
0.00169195
0.000752363
0.00239902
0.000594356
0.00306471
0.000280757
0.00369504
-0.000171549
0.00431868
-0.000755463
0.00490439
-0.00138446
0.00548969
-0.00202331
0.00605233
-0.00258638
0.00655891
-0.00302664
0.00705658
-0.00332828
0.00748844
-0.00335387
0.00776824
-0.00318648
0.00793341
-0.00290756
0.00799126
-0.00237194
0.00788745
-0.00164445
0.00767629
-0.0010004
0.00749638
-0.000489607
0.00740285
-5.43318e-06
0.00733304
0.000486755
0.00721985
0.000822138
0.00704426
0.000947238
0.00683364
0.000893868
0.00662579
0.000742399
0.0064463
0.000565152
0.00630499
0.000404859
0.0062007
0.000277588
0.0061272
0.000183859
0.00607717
0.000118004
0.00604401
7.32605e-05
0.00602252
4.37088e-05
0.00600886
2.4743e-05
0.00600036
1.29562e-05
0.00599523
5.90278e-06
0.00599217
1.86628e-06
0.00599043
-2.80512e-07
0.00598946
-1.233e-06
0.00598897
-1.58134e-06
0.00598876
-1.55022e-06
0.0059887
-1.4005e-06
0.00598871
-1.09732e-06
0.00598875
-9.2737e-07
-5.49536e-07
0.00103578
0.0017868
0.0026867
0.00367342
0.00466308
0.00558695
0.00641678
0.00717536
0.00780813
0.00832459
0.00876313
0.00906918
0.00923493
0.0092671
0.00911614
0.00881264
0.00841346
0.00793186
0.00742093
0.00698055
0.00670263
0.00660347
0.00658653
0.00657217
0.00652363
0.00644269
0.0063479
0.00625779
0.00618347
0.00612819
0.00609019
0.00606559
0.0060504
0.00604138
0.00603618
0.00603326
0.00603164
0.00603071
0.00603027
0.00603007
0.00602999
0.00602997
0.00602998
0.00602999
)
;

boundaryField
{
    inlet
    {
        type            calculated;
        value           nonuniform List<scalar> 5(-0.01 -0.01 -0.01 -0.01 -0.01);
    }
    outlet
    {
        type            calculated;
        value           nonuniform List<scalar> 10(0.00603027 0.00598952 0.00577115 0.00488626 0.0023255 0.00232414 0.00488455 0.00576981 0.00598879 0.00603);
    }
    upperWall
    {
        type            calculated;
        value           uniform 0;
    }
    lowerWall
    {
        type            calculated;
        value           uniform 0;
    }
    frontAndBack
    {
        type            empty;
        value           nonuniform List<scalar> 0();
    }
}


// ************************************************************************* //
