/*--------------------------------*- C++ -*----------------------------------*\
  =========                 |
  \\      /  F ield         | OpenFOAM: The Open Source CFD Toolbox
   \\    /   O peration     | Website:  https://openfoam.org
    \\  /    A nd           | Version:  10
     \\/     M anipulation  |
\*---------------------------------------------------------------------------*/
FoamFile
{
    format      ascii;
    class       volVectorField;
    location    "4";
    object      U;
}
// * * * * * * * * * * * * * * * * * * * * * * * * * * * * * * * * * * * * * //

dimensions      [0 1 -1 0 0 0 0];

internalField   nonuniform List<vector> 
475
(
(0.971545 0.0171879 0)
(0.978112 0.00478019 0)
(0.947986 0.0323703 0)
(0.956655 -0.000613865 0)
(0.919754 0.0302573 0)
(0.997812 0.00881023 0)
(1.01528 0.0143041 0)
(1.02505 0.0155873 0)
(1.04382 0.00787386 0)
(1.05619 -0.000102913 0)
(1.00004 9.23973e-05 0)
(1.00972 -0.00253529 0)
(1.02381 -0.00447727 0)
(1.04184 -0.0103669 0)
(1.056 -0.0166183 0)
(1.00018 -0.0101525 0)
(1.00974 -0.0192999 0)
(1.02267 -0.0220622 0)
(1.03664 -0.0240698 0)
(1.0427 -0.0273812 0)
(0.980905 -0.0095448 0)
(0.968993 -0.0192285 0)
(0.953908 -0.0217215 0)
(0.933558 -0.0228639 0)
(0.905499 -0.0231341 0)
(0.927726 -0.0196362 0)
(0.937785 -0.0351389 0)
(0.944221 -0.0434897 0)
(0.951156 -0.0478195 0)
(0.97149 -0.0651385 0)
(0.999957 -0.0881196 0)
(1.03109 -0.118966 0)
(1.05894 -0.167861 0)
(1.08444 -0.211582 0)
(1.0967 -0.253078 0)
(1.0913 -0.295844 0)
(1.07794 -0.322493 0)
(1.04613 -0.333256 0)
(1.00445 -0.317185 0)
(0.94761 -0.276966 0)
(0.877782 -0.23229 0)
(0.820872 -0.170455 0)
(0.754682 -0.0891513 0)
(0.665753 -0.0189803 0)
(0.586588 0.0220224 0)
(0.539538 0.0459789 0)
(0.523883 0.0669811 0)
(0.530046 0.0849548 0)
(0.546898 0.0945899 0)
(0.56533 0.0934091 0)
(0.580269 0.0833871 0)
(0.590364 0.0685643 0)
(0.59634 0.052689 0)
(0.599537 0.0382378 0)
(0.601132 0.0263987 0)
(0.601912 0.0174222 0)
(0.602317 0.0110199 0)
(0.602555 0.00667854 0)
(0.602713 0.00386081 0)
(0.602826 0.00210325 0)
(0.602905 0.00104953 0)
(0.602959 0.000444296 0)
(0.602997 0.000113831 0)
(0.603021 -5.03735e-05 0)
(0.603032 -0.000120741 0)
(0.603036 -0.000136409 0)
(0.603035 -0.0001316 0)
(0.603033 -0.000106519 0)
(0.60303 -9.21484e-05 0)
(0.603027 -5.52175e-05 0)
(1.0685 -0.00911343 0)
(1.07878 -0.0254306 0)
(1.0842 -0.0400233 0)
(1.09029 -0.046183 0)
(1.09477 -0.0658205 0)
(1.0988 -0.0912889 0)
(1.10779 -0.122558 0)
(1.1042 -0.168288 0)
(1.09548 -0.206254 0)
(1.07681 -0.245725 0)
(1.03917 -0.28171 0)
(0.999504 -0.291254 0)
(0.94157 -0.287933 0)
(0.872193 -0.262613 0)
(0.800618 -0.207931 0)
(0.713946 -0.150133 0)
(0.632957 -0.0770463 0)
(0.562074 0.0156214 0)
(0.493591 0.0808692 0)
(0.444855 0.0919209 0)
(0.422976 0.0748175 0)
(0.422468 0.0608723 0)
(0.438276 0.0582437 0)
(0.46411 0.0603581 0)
(0.492912 0.0601803 0)
(0.519633 0.0553223 0)
(0.5419 0.0468214 0)
(0.559196 0.0368111 0)
(0.571978 0.0271321 0)
(0.581073 0.0188792 0)
(0.587354 0.0124546 0)
(0.591586 0.00779767 0)
(0.594374 0.0046167 0)
(0.596175 0.0025557 0)
(0.597316 0.0012845 0)
(0.598021 0.000543343 0)
(0.598446 0.000138066 0)
(0.598691 -6.24857e-05 0)
(0.59883 -0.000147778 0)
(0.598905 -0.000172641 0)
(0.598943 -0.000162347 0)
(0.598958 -0.000142746 0)
(0.598961 -0.00011007 0)
(0.598959 -9.17498e-05 0)
(0.598952 -5.41728e-05 0)
(1.06848 -0.0215678 0)
(1.07841 -0.0354254 0)
(1.07813 -0.0499884 0)
(1.08216 -0.058474 0)
(1.07921 -0.0781373 0)
(1.07174 -0.0982759 0)
(1.06878 -0.122844 0)
(1.04678 -0.159013 0)
(1.02487 -0.190446 0)
(0.993601 -0.222768 0)
(0.943448 -0.245041 0)
(0.897108 -0.2415 0)
(0.827993 -0.224023 0)
(0.739218 -0.194991 0)
(0.658833 -0.1419 0)
(0.578258 -0.0820482 0)
(0.506868 -0.021633 0)
(0.462864 0.0440357 0)
(0.446218 0.0898985 0)
(0.449828 0.0952378 0)
(0.458721 0.0753554 0)
(0.464301 0.0549827 0)
(0.470152 0.0444857 0)
(0.480473 0.0411974 0)
(0.495145 0.0394158 0)
(0.511768 0.0359425 0)
(0.527889 0.0303917 0)
(0.541877 0.0237689 0)
(0.553035 0.0172685 0)
(0.561362 0.0117043 0)
(0.567242 0.00740927 0)
(0.5712 0.00435891 0)
(0.573749 0.0023424 0)
(0.575323 0.00109544 0)
(0.576255 0.000375443 0)
(0.57678 -7.23397e-06 0)
(0.577056 -0.000186921 0)
(0.577183 -0.000248998 0)
(0.577228 -0.00024776 0)
(0.577228 -0.000220164 0)
(0.57721 -0.000180481 0)
(0.577185 -0.000145015 0)
(0.577159 -0.00010599 0)
(0.57714 -8.42534e-05 0)
(0.577115 -4.85993e-05 0)
(1.04968 -0.030453 0)
(1.0514 -0.0384019 0)
(1.04274 -0.0472047 0)
(1.03705 -0.0554831 0)
(1.01782 -0.066854 0)
(0.996677 -0.0797548 0)
(0.96746 -0.0982906 0)
(0.922159 -0.116228 0)
(0.875765 -0.139859 0)
(0.797984 -0.168028 0)
(0.716236 -0.177142 0)
(0.641691 -0.166392 0)
(0.518362 -0.129242 0)
(0.372296 -0.0707144 0)
(0.271737 -0.0192378 0)
(0.216588 0.0160539 0)
(0.194571 0.044742 0)
(0.20398 0.0697275 0)
(0.237266 0.0809332 0)
(0.279275 0.075296 0)
(0.316879 0.0614693 0)
(0.345746 0.0490686 0)
(0.368839 0.0402949 0)
(0.389794 0.0337127 0)
(0.410059 0.0278506 0)
(0.429166 0.0221092 0)
(0.445998 0.0165747 0)
(0.459735 0.0116228 0)
(0.470158 0.0075759 0)
(0.477553 0.00454963 0)
(0.482482 0.0024661 0)
(0.485574 0.0011403 0)
(0.487394 0.000363528 0)
(0.488386 -4.99097e-05 0)
(0.488869 -0.000238107 0)
(0.489057 -0.000299948 0)
(0.489089 -0.00029642 0)
(0.489045 -0.000263603 0)
(0.488971 -0.000219656 0)
(0.488889 -0.000175573 0)
(0.488816 -0.000134372 0)
(0.488753 -0.000101917 0)
(0.488701 -7.17716e-05 0)
(0.488667 -5.46376e-05 0)
(0.488627 -3.05268e-05 0)
(0.878933 -0.0241748 0)
(0.845405 -0.0284297 0)
(0.809106 -0.0282554 0)
(0.769612 -0.0345954 0)
(0.716945 -0.0382275 0)
(0.665963 -0.0407105 0)
(0.593557 -0.0537099 0)
(0.514678 -0.053854 0)
(0.426491 -0.0742931 0)
(0.28466 -0.101238 0)
(0.141259 -0.0619365 0)
(0.0393256 0.00179425 0)
(-0.0233551 0.0269966 0)
(-0.0559828 0.021817 0)
(-0.0690113 0.00829363 0)
(-0.068073 0.00199897 0)
(-0.0530844 0.005085 0)
(-0.0224822 0.0120072 0)
(0.0211687 0.0153076 0)
(0.0668554 0.0138537 0)
(0.105721 0.0096188 0)
(0.136327 0.00574291 0)
(0.1602 0.0033032 0)
(0.179405 0.00205575 0)
(0.195135 0.00139441 0)
(0.207803 0.00090362 0)
(0.217528 0.00045576 0)
(0.224508 7.22308e-05 0)
(0.229136 -0.000205917 0)
(0.231933 -0.000367895 0)
(0.233428 -0.000431971 0)
(0.234078 -0.000428123 0)
(0.234228 -0.00038491 0)
(0.234113 -0.000325608 0)
(0.233882 -0.000263336 0)
(0.233622 -0.000205235 0)
(0.233377 -0.00015545 0)
(0.233166 -0.000115344 0)
(0.232994 -8.39379e-05 0)
(0.232858 -5.98679e-05 0)
(0.232756 -4.19227e-05 0)
(0.232679 -2.89092e-05 0)
(0.232624 -1.89859e-05 0)
(0.232586 -1.28936e-05 0)
(0.23255 -6.38515e-06 0)
(-0.000736545 -0.0338931 0)
(-0.00938824 -0.0238045 0)
(-0.0451205 0.0113667 0)
(-0.133921 0.0477008 0)
(-0.246667 0.0595286 0)
(-0.346892 0.0538228 0)
(-0.423267 0.0414008 0)
(-0.465795 0.0264751 0)
(-0.47536 0.010232 0)
(-0.454467 -0.00770396 0)
(-0.405099 -0.0247739 0)
(-0.329451 -0.0391075 0)
(-0.233756 -0.0495868 0)
(-0.124638 -0.0544427 0)
(-0.00860976 -0.0549888 0)
(0.107505 -0.0498383 0)
(0.214172 -0.0381142 0)
(0.302174 -0.0216063 0)
(0.363008 -0.00264802 0)
(0.389841 0.0141628 0)
(0.38431 0.0238853 0)
(0.357863 0.0242924 0)
(0.32424 0.0187459 0)
(0.293109 0.0120314 0)
(0.268824 0.00662567 0)
(0.251955 0.00303217 0)
(0.241271 0.000942255 0)
(0.23506 -0.000125139 0)
(0.231785 -0.000580378 0)
(0.230294 -0.000705954 0)
(0.229813 -0.000673483 0)
(0.22986 -0.000577998 0)
(0.230153 -0.000468993 0)
(0.230532 -0.000368498 0)
(0.230913 -0.000281924 0)
(0.231254 -0.00021192 0)
(0.231542 -0.000157242 0)
(0.231776 -0.000115171 0)
(0.23196 -8.30481e-05 0)
(0.232101 -5.90797e-05 0)
(0.232206 -4.12097e-05 0)
(0.232285 -2.83316e-05 0)
(0.232341 -1.86942e-05 0)
(0.232378 -1.26908e-05 0)
(0.232414 -6.24866e-06 0)
(-0.0165201 0.0466057 0)
(-0.0710253 0.0752057 0)
(-0.14415 0.12017 0)
(-0.208351 0.144222 0)
(-0.264314 0.139935 0)
(-0.30247 0.113191 0)
(-0.323592 0.0752195 0)
(-0.32079 0.0303207 0)
(-0.299762 -0.0181273 0)
(-0.25558 -0.0657416 0)
(-0.192129 -0.10901 0)
(-0.108759 -0.145032 0)
(-0.0122603 -0.169152 0)
(0.0931687 -0.183892 0)
(0.198982 -0.189038 0)
(0.302718 -0.180765 0)
(0.398338 -0.157504 0)
(0.479732 -0.122974 0)
(0.547297 -0.0795928 0)
(0.599354 -0.0317671 0)
(0.628089 0.0106341 0)
(0.629714 0.0379432 0)
(0.611751 0.0473607 0)
(0.585409 0.0439635 0)
(0.558995 0.0346522 0)
(0.536797 0.0244 0)
(0.520016 0.0157284 0)
(0.508166 0.00938415 0)
(0.500183 0.00516682 0)
(0.495006 0.00255356 0)
(0.491768 0.00102829 0)
(0.489829 0.000194887 0)
(0.488734 -0.000220986 0)
(0.488173 -0.000394062 0)
(0.487934 -0.000437749 0)
(0.487876 -0.000414246 0)
(0.487914 -0.000361659 0)
(0.487996 -0.000300201 0)
(0.48809 -0.000239794 0)
(0.488181 -0.000186357 0)
(0.48826 -0.000140281 0)
(0.488326 -0.000105109 0)
(0.488379 -7.33763e-05 0)
(0.488414 -5.55272e-05 0)
(0.488455 -3.0891e-05 0)
(-0.0305666 0.0409467 0)
(-0.0471865 0.0949453 0)
(-0.0407919 0.13042 0)
(-0.0369522 0.15048 0)
(-0.0220718 0.143717 0)
(-0.000596733 0.108402 0)
(0.0220423 0.0602309 0)
(0.0524774 0.00654117 0)
(0.0946606 -0.0521716 0)
(0.151149 -0.113296 0)
(0.216081 -0.171832 0)
(0.288909 -0.221828 0)
(0.36495 -0.252207 0)
(0.439973 -0.266406 0)
(0.505807 -0.271734 0)
(0.563714 -0.258716 0)
(0.61448 -0.223032 0)
(0.649541 -0.176924 0)
(0.671496 -0.126651 0)
(0.692139 -0.0680629 0)
(0.711433 -0.00680996 0)
(0.718357 0.040977 0)
(0.708289 0.0645235 0)
(0.687219 0.066403 0)
(0.66285 0.056097 0)
(0.640274 0.042161 0)
(0.621788 0.0293872 0)
(0.60775 0.0194436 0)
(0.597567 0.0123495 0)
(0.5904 0.00753998 0)
(0.585476 0.00438646 0)
(0.582176 0.00237688 0)
(0.580021 0.00113643 0)
(0.578654 0.000404174 0)
(0.577818 -3.78993e-06 0)
(0.577332 -0.000207822 0)
(0.577066 -0.000287125 0)
(0.576938 -0.000297124 0)
(0.576887 -0.000270598 0)
(0.57688 -0.000230506 0)
(0.576893 -0.000185199 0)
(0.576915 -0.000147214 0)
(0.576938 -0.000106846 0)
(0.576956 -8.46442e-05 0)
(0.576981 -4.87513e-05 0)
(-0.0208697 0.155454 0)
(0.0215327 0.102571 0)
(0.0726539 0.126855 0)
(0.130509 0.142597 0)
(0.200646 0.127856 0)
(0.269957 0.0920236 0)
(0.333387 0.0400584 0)
(0.39632 -0.0283204 0)
(0.461975 -0.0985676 0)
(0.525236 -0.164992 0)
(0.585368 -0.224264 0)
(0.639668 -0.276799 0)
(0.68733 -0.313212 0)
(0.732583 -0.321199 0)
(0.766138 -0.315444 0)
(0.783732 -0.296207 0)
(0.794004 -0.246256 0)
(0.793841 -0.179768 0)
(0.776658 -0.122249 0)
(0.754844 -0.0702637 0)
(0.743167 -0.0135724 0)
(0.738183 0.0393383 0)
(0.729909 0.0749235 0)
(0.714619 0.0872337 0)
(0.694115 0.0810552 0)
(0.672366 0.065653 0)
(0.652659 0.0486512 0)
(0.636606 0.0340201 0)
(0.624463 0.0228847 0)
(0.615753 0.0149514 0)
(0.609745 0.00950163 0)
(0.605724 0.00584445 0)
(0.603095 0.00344076 0)
(0.601412 0.00189956 0)
(0.600356 0.000945604 0)
(0.59971 0.000380264 0)
(0.599324 6.70602e-05 0)
(0.5991 -9.0298e-05 0)
(0.598976 -0.000157134 0)
(0.598911 -0.000174449 0)
(0.598879 -0.00016159 0)
(0.598869 -0.000141574 0)
(0.598868 -0.00010903 0)
(0.598871 -9.10143e-05 0)
(0.598879 -5.38403e-05 0)
(0.103733 0.000814513 0)
(0.119442 -0.0123398 0)
(0.226769 -0.00204409 0)
(0.313047 0.0031657 0)
(0.412074 -0.0126814 0)
(0.507755 -0.0393444 0)
(0.595984 -0.077769 0)
(0.67884 -0.129299 0)
(0.754332 -0.183932 0)
(0.815597 -0.243531 0)
(0.864163 -0.294783 0)
(0.903361 -0.328788 0)
(0.924507 -0.352685 0)
(0.930318 -0.351563 0)
(0.919466 -0.327522 0)
(0.894225 -0.29404 0)
(0.861508 -0.234789 0)
(0.817257 -0.152612 0)
(0.764613 -0.0815409 0)
(0.715017 -0.0314202 0)
(0.679538 0.0119445 0)
(0.663045 0.0535411 0)
(0.659237 0.085243 0)
(0.658367 0.0992141 0)
(0.655162 0.0960359 0)
(0.648388 0.0819921 0)
(0.639276 0.0639777 0)
(0.629813 0.0467345 0)
(0.621525 0.0324831 0)
(0.615095 0.0216986 0)
(0.610534 0.0139977 0)
(0.607513 0.00872493 0)
(0.605615 0.00523495 0)
(0.604472 0.00299608 0)
(0.603806 0.00160439 0)
(0.603428 0.000769638 0)
(0.603219 0.000288955 0)
(0.603104 2.84851e-05 0)
(0.603041 -9.65145e-05 0)
(0.603012 -0.000145295 0)
(0.603 -0.000149204 0)
(0.602996 -0.000138229 0)
(0.602996 -0.00010988 0)
(0.602998 -9.39531e-05 0)
(0.603 -5.59835e-05 0)
)
;

boundaryField
{
    inlet
    {
        type            fixedValue;
        value           uniform (1 0 0);
    }
    outlet
    {
        type            zeroGradient;
    }
    upperWall
    {
        type            noSlip;
    }
    lowerWall
    {
        type            noSlip;
    }
    frontAndBack
    {
        type            empty;
    }
}


// ************************************************************************* //
