/*--------------------------------*- C++ -*----------------------------------*\
  =========                 |
  \\      /  F ield         | OpenFOAM: The Open Source CFD Toolbox
   \\    /   O peration     | Website:  https://openfoam.org
    \\  /    A nd           | Version:  10
     \\/     M anipulation  |
\*---------------------------------------------------------------------------*/
FoamFile
{
    format      ascii;
    class       volScalarField;
    location    "9.85";
    object      p;
}
// * * * * * * * * * * * * * * * * * * * * * * * * * * * * * * * * * * * * * //

dimensions      [0 2 -2 0 0 0 0];

internalField   nonuniform List<scalar> 
475
(
-0.0305186
-0.0559215
-0.0851799
-0.108649
-0.131141
-0.0563517
-0.0696748
-0.0859573
-0.105017
-0.122017
-0.0544944
-0.0639072
-0.0788503
-0.0963451
-0.112755
-0.0539042
-0.064746
-0.0796102
-0.0951365
-0.108784
-0.0241032
-0.051017
-0.0747103
-0.0924447
-0.10535
-0.149303
-0.160426
-0.164914
-0.166354
-0.167125
-0.167976
-0.169068
-0.169969
-0.169953
-0.168304
-0.164526
-0.158351
-0.149815
-0.139315
-0.127536
-0.115046
-0.102241
-0.0894171
-0.0775473
-0.0685837
-0.0636226
-0.062291
-0.0631031
-0.0644055
-0.0654168
-0.0660276
-0.0665446
-0.0669774
-0.0668314
-0.0656641
-0.0630557
-0.059279
-0.0542914
-0.0483205
-0.0418116
-0.0350044
-0.0285633
-0.0225162
-0.0171595
-0.0126027
-0.00879452
-0.00583811
-0.00349905
-0.00169353
-0.000420105
-0.138691
-0.150349
-0.156241
-0.157795
-0.157384
-0.156305
-0.154806
-0.152836
-0.150231
-0.146886
-0.142764
-0.137905
-0.132349
-0.126087
-0.119168
-0.111308
-0.10237
-0.0923929
-0.0830599
-0.0763493
-0.073074
-0.0727956
-0.0744932
-0.0763593
-0.0775373
-0.0778041
-0.0776921
-0.0774235
-0.0766158
-0.0744854
-0.0710928
-0.066434
-0.0602739
-0.0530574
-0.0450473
-0.0367505
-0.028793
-0.0212875
-0.0147954
-0.00934112
-0.00513866
-0.00224136
-0.000350078
0.000493085
0.000539736
-0.12623
-0.135871
-0.141604
-0.143902
-0.143736
-0.141938
-0.139009
-0.135337
-0.131143
-0.126828
-0.12276
-0.119725
-0.118273
-0.118346
-0.117729
-0.113133
-0.103606
-0.093475
-0.0867505
-0.0832692
-0.0809996
-0.0795645
-0.0789593
-0.0788755
-0.0789982
-0.079107
-0.0791427
-0.0788539
-0.0778642
-0.0759611
-0.0726735
-0.0677887
-0.0614088
-0.0538461
-0.0453682
-0.0366428
-0.0280403
-0.0200468
-0.0131044
-0.00737752
-0.0031064
-0.000260355
0.00134123
0.00163558
0.00104563
-0.119739
-0.127749
-0.132809
-0.134975
-0.134545
-0.131941
-0.127702
-0.122304
-0.116203
-0.110196
-0.105254
-0.103174
-0.105239
-0.113011
-0.122398
-0.121133
-0.10684
-0.0885099
-0.0782099
-0.0772675
-0.0806243
-0.0833185
-0.0844143
-0.08393
-0.082755
-0.081455
-0.0802526
-0.0791038
-0.0775454
-0.0750505
-0.0714352
-0.0663895
-0.0600354
-0.0524836
-0.0441658
-0.0355013
-0.0269697
-0.0191087
-0.0122169
-0.006639
-0.0024174
0.000334967
0.00180454
0.00194092
0.00125408
-0.115158
-0.122506
-0.127342
-0.129449
-0.128837
-0.125775
-0.120834
-0.114572
-0.107754
-0.101108
-0.0961089
-0.0940858
-0.0975409
-0.107738
-0.118715
-0.121415
-0.113359
-0.100612
-0.0896191
-0.0833595
-0.081575
-0.0816487
-0.0817529
-0.0815507
-0.0810601
-0.0803677
-0.0794979
-0.0783116
-0.0765338
-0.0738627
-0.0699335
-0.0647545
-0.0583453
-0.0508469
-0.0426544
-0.0341716
-0.0258922
-0.018209
-0.01153
-0.00607526
-0.00197757
0.000697774
0.00209545
0.00217235
0.00150259
-0.17396
-0.174317
-0.174613
-0.175198
-0.175917
-0.177012
-0.178655
-0.180761
-0.182589
-0.183039
-0.180671
-0.174372
-0.163619
-0.148467
-0.129407
-0.107552
-0.0844637
-0.0619084
-0.0413594
-0.0238726
-0.00979401
2.44598e-05
0.00599611
0.00857863
0.00847211
0.0064314
0.0032037
-0.000625321
-0.00467754
-0.00855561
-0.0122555
-0.0157391
-0.0189261
-0.0216973
-0.0239223
-0.0254609
-0.0262383
-0.026252
-0.0254723
-0.0238402
-0.0213163
-0.0178654
-0.0135446
-0.00852206
-0.00298256
-0.16891
-0.170828
-0.171461
-0.172768
-0.174392
-0.176518
-0.179218
-0.182221
-0.184898
-0.186125
-0.184445
-0.178817
-0.168682
-0.153806
-0.134747
-0.11268
-0.0890758
-0.0662157
-0.0453498
-0.0275887
-0.0135053
-0.00340021
0.00284161
0.00568122
0.00586899
0.00414629
0.00122012
-0.00229264
-0.00604101
-0.00985031
-0.0133698
-0.0165701
-0.0194302
-0.021864
-0.0237811
-0.0251442
-0.0259023
-0.0259667
-0.0252808
-0.0237784
-0.0214392
-0.0181771
-0.0139069
-0.00890724
-0.00326944
-0.177764
-0.176622
-0.176076
-0.175841
-0.176488
-0.178247
-0.181057
-0.184467
-0.187538
-0.189288
-0.18776
-0.182128
-0.171992
-0.157255
-0.138472
-0.116829
-0.0939842
-0.0718369
-0.0517873
-0.0347694
-0.021352
-0.0118244
-0.00606483
-0.00355185
-0.00348233
-0.00509833
-0.00772582
-0.0108444
-0.0140732
-0.0171696
-0.019949
-0.0221024
-0.0236837
-0.0248025
-0.0256188
-0.0261002
-0.0261813
-0.0257994
-0.0247907
-0.0231799
-0.0208213
-0.0176142
-0.0135575
-0.00868135
-0.00327313
-0.165415
-0.168283
-0.169823
-0.171555
-0.173377
-0.175836
-0.179029
-0.182636
-0.185781
-0.187329
-0.185937
-0.180522
-0.170762
-0.156779
-0.139224
-0.119291
-0.0985152
-0.0785117
-0.060608
-0.0456886
-0.0342977
-0.0266107
-0.0223053
-0.020705
-0.0210233
-0.0225581
-0.0246939
-0.0270274
-0.0291689
-0.0308907
-0.0321151
-0.0324665
-0.0320522
-0.0310513
-0.0298148
-0.0283511
-0.0266361
-0.0248379
-0.0228334
-0.0206514
-0.0180836
-0.015021
-0.0114715
-0.00729689
-0.00278606
-0.201401
-0.182442
-0.179106
-0.17662
-0.175762
-0.176673
-0.17864
-0.180956
-0.182724
-0.182812
-0.1802
-0.174216
-0.164624
-0.151692
-0.136196
-0.119153
-0.101712
-0.0849968
-0.0701915
-0.0584375
-0.0504133
-0.0458847
-0.0439976
-0.0437611
-0.0445157
-0.0458058
-0.0473062
-0.0487199
-0.049668
-0.0497951
-0.0487285
-0.0466025
-0.0436697
-0.0399759
-0.0359437
-0.0317316
-0.0275984
-0.0236755
-0.0200224
-0.0167429
-0.013673
-0.0106814
-0.00776777
-0.00475912
-0.00173367
)
;

boundaryField
{
    inlet
    {
        type            zeroGradient;
    }
    outlet
    {
        type            fixedValue;
        value           uniform 0;
    }
    upperWall
    {
        type            zeroGradient;
    }
    lowerWall
    {
        type            zeroGradient;
    }
    frontAndBack
    {
        type            empty;
    }
}


// ************************************************************************* //
