/*--------------------------------*- C++ -*----------------------------------*\
  =========                 |
  \\      /  F ield         | OpenFOAM: The Open Source CFD Toolbox
   \\    /   O peration     | Website:  https://openfoam.org
    \\  /    A nd           | Version:  10
     \\/     M anipulation  |
\*---------------------------------------------------------------------------*/
FoamFile
{
    format      ascii;
    class       surfaceScalarField;
    location    "0.3";
    object      phi;
}
// * * * * * * * * * * * * * * * * * * * * * * * * * * * * * * * * * * * * * //

dimensions      [0 3 -1 0 0 0 0];

internalField   nonuniform List<scalar> 
760
(
-5.57716e-06
5.57716e-06
-1.13555e-05
5.77837e-06
-1.6844e-05
5.48852e-06
-2.18962e-05
5.0522e-06
-2.63873e-05
4.49108e-06
-3.02102e-05
3.82284e-06
-3.32768e-05
3.06666e-06
-3.55191e-05
2.24226e-06
-3.68884e-05
1.36928e-06
-3.73553e-05
4.66959e-07
-3.69095e-05
-4.45782e-07
-3.55594e-05
-1.35011e-06
-3.33325e-05
-2.22694e-06
-3.02758e-05
-3.05669e-06
-2.64565e-05
-3.81928e-06
-2.19622e-05
-4.49436e-06
-1.69001e-05
-5.06209e-06
-1.1396e-05
-5.5041e-06
-5.59795e-06
-5.79802e-06
-5.59795e-06
-6.06743e-06
1.16446e-05
-1.23423e-05
1.20532e-05
-1.83e-05
1.14462e-05
-2.37807e-05
1.05329e-05
-2.86492e-05
9.35949e-06
-3.279e-05
7.9637e-06
-3.61095e-05
6.38609e-06
-3.85352e-05
4.66797e-06
-4.00159e-05
2.85006e-06
-4.0521e-05
9.72039e-07
-4.00395e-05
-9.27359e-07
-3.858e-05
-2.8096e-06
-3.61713e-05
-4.63558e-06
-3.2863e-05
-6.36498e-06
-2.87262e-05
-7.95609e-06
-2.38542e-05
-9.36634e-06
-1.83625e-05
-1.05538e-05
-1.23874e-05
-1.14792e-05
-6.09066e-06
-1.20948e-05
-1.16886e-05
-6.37994e-06
1.80245e-05
-1.29753e-05
1.86486e-05
-1.92306e-05
1.77015e-05
-2.49768e-05
1.62792e-05
-3.00729e-05
1.44555e-05
-3.44003e-05
1.22911e-05
-3.78642e-05
9.85001e-06
-4.03927e-05
7.19643e-06
-4.19354e-05
4.39281e-06
-4.24625e-05
1.49907e-06
-4.19631e-05
-1.42678e-06
-4.04454e-05
-4.32727e-06
-3.79371e-05
-7.14387e-06
-3.44865e-05
-9.81561e-06
-3.0164e-05
-1.22785e-05
-2.50639e-05
-1.44664e-05
-1.93048e-05
-1.63129e-05
-1.30291e-05
-1.77549e-05
-6.40763e-06
-1.87163e-05
-1.80962e-05
-6.85737e-06
2.48819e-05
-1.39405e-05
2.57317e-05
-2.06467e-05
2.44077e-05
-2.67932e-05
2.24256e-05
-3.22299e-05
1.98922e-05
-3.68344e-05
1.68957e-05
-4.05113e-05
1.3527e-05
-4.31904e-05
9.87551e-06
-4.48237e-05
6.02608e-06
-4.53829e-05
2.05834e-06
-4.4858e-05
-1.95174e-06
-4.3256e-05
-5.92929e-06
-4.06022e-05
-9.79763e-06
-3.69421e-05
-1.34757e-05
-3.23443e-05
-1.68764e-05
-2.69029e-05
-1.99078e-05
-2.07406e-05
-2.24752e-05
-1.40086e-05
-2.4487e-05
-6.8925e-06
-2.58323e-05
-2.49888e-05
-7.52522e-06
3.24071e-05
-1.52881e-05
3.34946e-05
-2.26191e-05
3.17388e-05
-2.93152e-05
2.91217e-05
-3.52151e-05
2.57921e-05
-4.01924e-05
2.1873e-05
-4.41531e-05
1.74877e-05
-4.70311e-05
1.27536e-05
-4.87834e-05
7.77834e-06
-4.93852e-05
2.66016e-06
-4.88274e-05
-2.50951e-06
-4.71155e-05
-7.64126e-06
-4.42703e-05
-1.26428e-05
-4.0332e-05
-1.7414e-05
-3.53639e-05
-2.18445e-05
-2.94586e-05
-2.58131e-05
-2.27423e-05
-2.91915e-05
-1.53778e-05
-3.18516e-05
-7.5716e-06
-3.36385e-05
-3.25604e-05
-8.41191e-06
4.0819e-05
-1.70729e-05
4.21556e-05
-2.5222e-05
3.98879e-05
-3.26287e-05
3.65283e-05
-3.91187e-05
3.22821e-05
-4.45636e-05
2.73179e-05
-4.8875e-05
2.1799e-05
-5.19958e-05
1.58744e-05
-5.38922e-05
9.67469e-06
-5.45458e-05
3.31384e-06
-5.39497e-05
-3.10561e-06
-5.21063e-05
-9.4847e-06
-4.90292e-05
-1.57199e-05
-4.47481e-05
-2.16951e-05
-3.93165e-05
-2.72761e-05
-3.28204e-05
-3.23091e-05
-2.53877e-05
-3.66242e-05
-1.71941e-05
-4.00451e-05
-8.47478e-06
-4.23578e-05
-4.10351e-05
-9.55912e-06
5.03782e-05
-1.93742e-05
5.19707e-05
-2.85606e-05
4.90742e-05
-3.68523e-05
4.48201e-05
-4.40621e-05
3.94919e-05
-5.00647e-05
3.33204e-05
-5.4785e-05
2.65193e-05
-5.81836e-05
1.9273e-05
-6.02429e-05
1.1734e-05
-6.09557e-05
4.02666e-06
-6.03187e-05
-3.7427e-06
-5.83294e-05
-1.14739e-05
-5.49894e-05
-1.90599e-05
-5.03109e-05
-2.63736e-05
-4.43281e-05
-3.32589e-05
-3.71122e-05
-3.9525e-05
-2.87869e-05
-4.49496e-05
-1.95409e-05
-4.92911e-05
-9.64592e-06
-5.22528e-05
-5.0681e-05
-1.10282e-05
6.14064e-05
-2.23067e-05
6.32491e-05
-3.27835e-05
5.9551e-05
-4.2149e-05
5.41856e-05
-5.02061e-05
4.7549e-05
-5.68437e-05
3.99581e-05
-6.20146e-05
3.16902e-05
-6.57103e-05
2.29688e-05
-6.79405e-05
1.39641e-05
-6.87162e-05
4.80239e-06
-6.80401e-05
-4.41883e-06
-6.59028e-05
-1.36113e-05
-6.22862e-05
-2.26765e-05
-5.71735e-05
-3.14863e-05
-5.05658e-05
-3.98666e-05
-4.25042e-05
-4.75865e-05
-3.30961e-05
-5.43578e-05
-2.25389e-05
-5.98482e-05
-1.11499e-05
-6.36418e-05
-6.1831e-05
-1.29115e-05
7.43179e-05
-2.60385e-05
7.63761e-05
-3.81021e-05
7.16146e-05
-4.87413e-05
6.48248e-05
-5.77609e-05
5.65685e-05
-6.50852e-05
4.72825e-05
-7.0718e-05
3.73229e-05
-7.47034e-05
2.69542e-05
-7.70945e-05
1.63553e-05
-7.79309e-05
5.63875e-06
-7.72247e-05
-5.125e-06
-7.49562e-05
-1.58797e-05
-7.10777e-05
-2.6555e-05
-6.55266e-05
-3.70374e-05
-5.82485e-05
-4.71448e-05
-4.92295e-05
-5.66055e-05
-3.85376e-05
-6.50497e-05
-2.63663e-05
-7.20196e-05
-1.30849e-05
-7.69231e-05
-7.49159e-05
-1.53525e-05
8.96705e-05
-3.08216e-05
9.18452e-05
-4.48199e-05
8.56129e-05
-5.69349e-05
7.69398e-05
-6.70003e-05
6.6634e-05
-7.50142e-05
5.52963e-05
-8.1069e-05
4.33778e-05
-8.52934e-05
3.11785e-05
-8.78072e-05
1.8869e-05
-8.86923e-05
6.52386e-06
-8.79756e-05
-5.84172e-06
-8.56225e-05
-1.82328e-05
-8.15421e-05
-3.06354e-05
-7.56027e-05
-4.29769e-05
-6.76612e-05
-5.50862e-05
-5.76087e-05
-6.6658e-05
-4.54323e-05
-7.72261e-05
-3.12906e-05
-8.61612e-05
-1.56044e-05
-9.26093e-05
-9.05203e-05
-1.85851e-05
0.000108256
-3.70437e-05
0.000110304
-5.33809e-05
0.00010195
-6.71526e-05
9.07116e-05
-7.82796e-05
7.77609e-05
-8.68997e-05
6.39164e-05
-9.32537e-05
4.97318e-05
-9.75994e-05
3.55243e-05
-0.000100155
2.14243e-05
-0.000101062
7.43111e-06
-0.000100369
-6.53476e-06
-9.80217e-05
-2.058e-05
-9.38688e-05
-3.47882e-05
-8.76785e-05
-4.91671e-05
-7.91728e-05
-6.35919e-05
-6.80852e-05
-7.77457e-05
-5.425e-05
-9.10613e-05
-3.77261e-05
-0.000102685
-1.89604e-05
-0.000111375
-0.000109481
-2.3009e-05
0.000131265
-4.53181e-05
0.000132613
-6.44444e-05
0.000121076
-7.99819e-05
0.000106249
-9.20552e-05
8.98342e-05
-0.000101054
7.29152e-05
-0.000107453
5.61311e-05
-0.000111704
3.97747e-05
-0.000114159
2.38801e-05
-0.000115042
8.31351e-06
-0.000114426
-7.15092e-06
-0.000112234
-2.27717e-05
-0.000108239
-3.8783e-05
-0.000102073
-5.53338e-05
-9.32561e-05
-7.24084e-05
-8.12749e-05
-8.97269e-05
-6.56899e-05
-0.000106646
-4.63299e-05
-0.000122045
-2.35866e-05
-0.000134118
-0.000133067
-2.93417e-05
0.000160606
-5.66398e-05
0.000159911
-7.90017e-05
0.000143438
-9.62383e-05
0.000123486
-0.000108903
0.000102499
-0.000117811
8.18238e-05
-0.00012381
6.21294e-05
-0.000127615
4.35802e-05
-0.000129752
2.60168e-05
-0.000130535
9.09687e-06
-0.000130073
-7.61368e-06
-0.000128263
-2.45817e-05
-0.00012479
-4.22555e-05
-0.00011912
-6.10044e-05
-0.000110502
-8.10263e-05
-9.80307e-05
-0.000102198
-8.08052e-05
-0.000123872
-5.81743e-05
-0.000144676
-3.02697e-05
-0.000162023
-0.000163337
-3.89434e-05
0.00019955
-7.26655e-05
0.000193633
-9.85552e-05
0.000169328
-0.000117041
0.000141972
-0.000129501
0.000114958
-0.000137488
8.9811e-05
-0.000142378
6.70197e-05
-0.000145218
4.64201e-05
-0.00014672
2.75192e-05
-0.000147297
9.67391e-06
-0.00014709
-7.82133e-06
-0.000145976
-2.56949e-05
-0.000143559
-4.46727e-05
-0.000139124
-6.54401e-05
-0.000131593
-8.85571e-05
-0.000119515
-0.000114275
-0.000101191
-0.000142196
-7.50515e-05
-0.000170816
-4.05143e-05
-0.00019656
-0.000203851
-5.45041e-05
0.000254054
-9.62135e-05
0.000235343
-0.000125377
0.000198491
-0.00014384
0.000160435
-0.000154577
0.000125695
-0.000160295
9.55291e-05
-0.000163034
6.97592e-05
-0.000164191
4.75772e-05
-0.000164643
2.79711e-05
-0.000164872
9.90245e-06
-0.000165042
-7.65095e-06
-0.000165029
-2.57077e-05
-0.000164387
-4.53149e-05
-0.00016226
-6.75673e-05
-0.000157241
-9.35763e-05
-0.00014721
-0.000124306
-0.000129256
-0.00016015
-0.00010002
-0.000200051
-5.73275e-05
-0.000239252
-0.000261179
-8.17178e-05
0.000335772
-0.000132155
0.000285779
-0.000162768
0.000229105
-0.000178356
0.000176023
-0.000184746
0.000132084
-0.000186161
9.69442e-05
-0.000185335
6.8934e-05
-0.000183916
4.61583e-05
-0.000182832
2.68869e-05
-0.000182547
9.61757e-06
-0.000183222
-6.97621e-06
-0.000184761
-2.41691e-05
-0.000186766
-4.33093e-05
-0.000188376
-6.5957e-05
-0.000187986
-9.39664e-05
-0.000182831
-0.000129462
-0.000168453
-0.000174528
-0.000138337
-0.000230168
-8.70079e-05
-0.000290581
-0.000348187
-0.000130748
0.00046652
-0.00018832
0.000343351
-0.000215032
0.000255817
-0.000222252
0.000183243
-0.000220085
0.000129917
-0.000214397
9.12559e-05
-0.000208318
6.28549e-05
-0.000203379
4.12192e-05
-0.000200275
2.3783e-05
-0.000199308
8.65108e-06
-0.000200592
-5.69301e-06
-0.0002041
-2.06608e-05
-0.000209634
-3.7775e-05
-0.000216628
-5.89627e-05
-0.000223711
-8.68836e-05
-0.00022789
-0.000125282
-0.000223272
-0.000179146
-0.000198621
-0.000254819
-0.000142355
-0.000346847
-0.000490542
-0.000243559
0.000710078
-0.00028098
0.000380772
-0.000287005
0.000261841
-0.000275293
0.000171531
-0.000258261
0.000112886
-0.000242126
7.51206e-05
-0.000229121
4.98501e-05
-0.000219848
3.19463e-05
-0.000214352
1.82876e-05
-0.000212559
6.85718e-06
-0.000214473
-3.77878e-06
-0.000220181
-1.49529e-05
-0.000229887
-2.80688e-05
-0.000243732
-4.51171e-05
-0.000261399
-6.92176e-05
-0.000281102
-0.000105579
-0.000297709
-0.00016254
-0.000295372
-0.000257156
-0.000259626
-0.000382593
-0.000750168
-0.00034079
0.00105087
-0.000346867
0.000386849
-0.000318193
0.000233167
-0.000274594
0.000127933
-0.000235454
7.3745e-05
-0.000205453
4.51197e-05
-0.000183998
2.83947e-05
-0.000169719
1.76676e-05
-0.000161464
1.0033e-05
-0.00015852
3.91335e-06
-0.00016063
-1.66906e-06
-0.000168021
-7.56179e-06
-0.00018137
-1.47202e-05
-0.000201786
-2.47008e-05
-0.000230541
-4.04626e-05
-0.000267901
-6.82192e-05
-0.000309457
-0.000120983
-0.000333978
-0.000232635
-0.000320379
-0.000396193
-0.00107055
0.00105087
0.00143772
0.00167088
0.00179882
0.00187256
0.00191768
0.00194608
0.00196374
0.00197378
0.00197769
0.00197602
0.00196846
0.00195374
0.00192904
0.00188858
0.00182036
0.00169937
0.00146674
0.00107055
)
;

boundaryField
{
    movingWall
    {
        type            calculated;
        value           uniform 0;
    }
    fixedWalls
    {
        type            calculated;
        value           uniform 0;
    }
    frontAndBack
    {
        type            empty;
        value           nonuniform List<scalar> 0();
    }
}


// ************************************************************************* //
