/*--------------------------------*- C++ -*----------------------------------*\
  =========                 |
  \\      /  F ield         | OpenFOAM: The Open Source CFD Toolbox
   \\    /   O peration     | Website:  https://openfoam.org
    \\  /    A nd           | Version:  10
     \\/     M anipulation  |
\*---------------------------------------------------------------------------*/
FoamFile
{
    format      ascii;
    class       volVectorField;
    location    "9.35";
    object      U;
}
// * * * * * * * * * * * * * * * * * * * * * * * * * * * * * * * * * * * * * //

dimensions      [0 1 -1 0 0 0 0];

internalField   nonuniform List<vector> 
400
(
(-0.000169585 0.000145939 0)
(-0.00127855 0.00047046 0)
(-0.00315886 0.000588573 0)
(-0.00509639 0.000629783 0)
(-0.00711685 0.000655087 0)
(-0.00918371 0.000684031 0)
(-0.0112876 0.000715872 0)
(-0.0134082 0.000742041 0)
(-0.0154966 0.000749708 0)
(-0.0174676 0.000721328 0)
(-0.0191908 0.000634715 0)
(-0.0204823 0.000465505 0)
(-0.0211073 0.000193264 0)
(-0.0207916 -0.000202241 0)
(-0.0192761 -0.000698206 0)
(-0.0164142 -0.00122292 0)
(-0.0123306 -0.00163392 0)
(-0.00758531 -0.00174143 0)
(-0.00272688 -0.00136893 0)
(-0.000153538 -0.000357643 0)
(-0.0005609 0.00130781 0)
(-0.00291722 0.00273047 0)
(-0.00653364 0.00327043 0)
(-0.0102645 0.00346614 0)
(-0.0141157 0.00355455 0)
(-0.0179982 0.00361281 0)
(-0.0218628 0.00364016 0)
(-0.0256465 0.00360277 0)
(-0.0292452 0.00344859 0)
(-0.0325013 0.00310959 0)
(-0.0351924 0.00250541 0)
(-0.0370237 0.00155168 0)
(-0.037651 0.000176742 0)
(-0.0366806 -0.00163428 0)
(-0.0337451 -0.00376843 0)
(-0.028662 -0.00593022 0)
(-0.0216486 -0.00757883 0)
(-0.0135623 -0.00799099 0)
(-0.00532041 -0.00650035 0)
(-0.000626656 -0.00247758 0)
(-0.00074009 0.00342087 0)
(-0.0036957 0.00645545 0)
(-0.00814102 0.00760668 0)
(-0.0126959 0.00801289 0)
(-0.0173683 0.00815775 0)
(-0.0220489 0.0081985 0)
(-0.0266778 0.00813771 0)
(-0.0311827 0.00791103 0)
(-0.0354495 0.00741698 0)
(-0.0393073 0.0065237 0)
(-0.0425149 0.0050765 0)
(-0.0447534 0.00291624 0)
(-0.0456188 -8.51054e-05 0)
(-0.0446205 -0.00393644 0)
(-0.041265 -0.00844252 0)
(-0.0352162 -0.0130154 0)
(-0.0266003 -0.0165482 0)
(-0.0164465 -0.0174474 0)
(-0.00610403 -0.0142432 0)
(-0.000547502 -0.00580634 0)
(-0.000800568 0.00569685 0)
(-0.00400866 0.0104686 0)
(-0.00882205 0.0122507 0)
(-0.0137366 0.0128562 0)
(-0.0187761 0.0130462 0)
(-0.0238348 0.0130655 0)
(-0.0288656 0.0129233 0)
(-0.0338149 0.0125281 0)
(-0.038591 0.0117321 0)
(-0.0430468 0.0103383 0)
(-0.0469551 0.00810663 0)
(-0.0499867 0.00477795 0)
(-0.0516819 0.000132734 0)
(-0.0514314 -0.00591105 0)
(-0.0484865 -0.0131542 0)
(-0.0421204 -0.0207478 0)
(-0.0320653 -0.0268742 0)
(-0.0193922 -0.028574 0)
(-0.00627886 -0.0229703 0)
(-6.12933e-05 -0.00889155 0)
(-0.000801749 0.00807087 0)
(-0.00408575 0.0146762 0)
(-0.00904241 0.0171216 0)
(-0.0141086 0.0179424 0)
(-0.0193275 0.0182009 0)
(-0.0246108 0.0182404 0)
(-0.0299419 0.0180834 0)
(-0.0353068 0.0176181 0)
(-0.0406633 0.0166545 0)
(-0.045919 0.0149287 0)
(-0.0508963 0.0121 0)
(-0.0552809 0.00776443 0)
(-0.0585642 0.0015207 0)
(-0.0599968 -0.00690937 0)
(-0.0584712 -0.0174869 0)
(-0.0525774 -0.0292372 0)
(-0.0410912 -0.0394878 0)
(-0.0245856 -0.0429686 0)
(-0.00657429 -0.0337518 0)
(0.000826145 -0.0117141 0)
(-0.000774752 0.0104433 0)
(-0.00404729 0.0189391 0)
(-0.00903787 0.0220804 0)
(-0.0141595 0.0231451 0)
(-0.0194733 0.023517 0)
(-0.0249166 0.0236517 0)
(-0.0305157 0.0235978 0)
(-0.0363144 0.023236 0)
(-0.0423453 0.0223448 0)
(-0.0486091 0.0205988 0)
(-0.0550313 0.0175462 0)
(-0.0613852 0.0125976 0)
(-0.0671991 0.00505795 0)
(-0.0716824 -0.00575122 0)
(-0.0733567 -0.0202038 0)
(-0.0697172 -0.0377425 0)
(-0.0574535 -0.0550287 0)
(-0.0353295 -0.0629051 0)
(-0.00858152 -0.0483402 0)
(0.00206035 -0.0142148 0)
(-0.000731577 0.0127603 0)
(-0.0039437 0.0231788 0)
(-0.00890522 0.0270473 0)
(-0.0140209 0.0283892 0)
(-0.0193667 0.0289281 0)
(-0.0249083 0.0292491 0)
(-0.0307224 0.0294454 0)
(-0.0369261 0.029411 0)
(-0.0436541 0.0289185 0)
(-0.0510474 0.0276039 0)
(-0.0592178 0.0249217 0)
(-0.0681775 0.020096 0)
(-0.077729 0.0120861 0)
(-0.0872666 -0.000396903 0)
(-0.095159 -0.0187823 0)
(-0.0971739 -0.0442508 0)
(-0.085808 -0.073758 0)
(-0.056726 -0.0917525 0)
(-0.0172971 -0.0707486 0)
(0.00277606 -0.0179933 0)
(-0.000675578 0.0149895 0)
(-0.00379186 0.0273483 0)
(-0.00867488 0.0319697 0)
(-0.0137239 0.0336146 0)
(-0.0190239 0.034366 0)
(-0.0245673 0.0349594 0)
(-0.0304812 0.0355552 0)
(-0.036963 0.0360919 0)
(-0.0442725 0.0363796 0)
(-0.0527401 0.0360771 0)
(-0.062764 0.0346249 0)
(-0.0747969 0.031161 0)
(-0.0893035 0.0243984 0)
(-0.106451 0.012188 0)
(-0.124571 -0.00941472 0)
(-0.135981 -0.0455885 0)
(-0.12694 -0.0952379 0)
(-0.0924891 -0.131628 0)
(-0.042319 -0.107452 0)
(-0.000131071 -0.0289979 0)
(-0.000608998 0.0171042 0)
(-0.00360152 0.0314083 0)
(-0.00836045 0.0367937 0)
(-0.0132717 0.0387461 0)
(-0.0184219 0.0397286 0)
(-0.0238213 0.04065 0)
(-0.029639 0.0417649 0)
(-0.0361456 0.0430947 0)
(-0.0437239 0.0445475 0)
(-0.052917 0.0459078 0)
(-0.0644934 0.0467746 0)
(-0.0795427 0.046467 0)
(-0.0996196 0.0436965 0)
(-0.126054 0.0349553 0)
(-0.15586 0.0113351 0)
(-0.17611 -0.0402789 0)
(-0.169901 -0.118218 0)
(-0.138063 -0.177951 0)
(-0.0868824 -0.16205 0)
(-0.012114 -0.0584152 0)
(-0.000537527 0.0190849 0)
(-0.00339197 0.0353264 0)
(-0.0079896 0.0414627 0)
(-0.0126846 0.0436917 0)
(-0.0175565 0.0448768 0)
(-0.0226191 0.0461238 0)
(-0.0280632 0.0478072 0)
(-0.0342048 0.0500711 0)
(-0.0415118 0.0529938 0)
(-0.0506909 0.0566167 0)
(-0.0628171 0.0609304 0)
(-0.0795043 0.0657223 0)
(-0.103165 0.0696341 0)
(-0.135679 0.0665218 0)
(-0.172002 0.0397691 0)
(-0.194781 -0.0306322 0)
(-0.191703 -0.137048 0)
(-0.170743 -0.220978 0)
(-0.127656 -0.231781 0)
(-0.0338589 -0.122031 0)
(-0.000473189 0.0209293 0)
(-0.00320224 0.0390838 0)
(-0.00762275 0.0459153 0)
(-0.0120266 0.0483357 0)
(-0.0164811 0.0496284 0)
(-0.0209834 0.0511128 0)
(-0.0257159 0.0532961 0)
(-0.0309866 0.0564676 0)
(-0.037257 0.0609249 0)
(-0.0452424 0.0670646 0)
(-0.0560645 0.0754222 0)
(-0.0713221 0.0862772 0)
(-0.0930039 0.0974734 0)
(-0.122353 0.0988241 0)
(-0.153129 0.0671807 0)
(-0.170647 -0.0184455 0)
(-0.170662 -0.143761 0)
(-0.160232 -0.252254 0)
(-0.134417 -0.304701 0)
(-0.0495854 -0.224505 0)
(-0.000440873 0.0226771 0)
(-0.00311031 0.0427263 0)
(-0.00737793 0.0501636 0)
(-0.0114291 0.0526327 0)
(-0.0153326 0.0538547 0)
(-0.0190539 0.0553761 0)
(-0.0227369 0.0578328 0)
(-0.0266166 0.0616436 0)
(-0.031025 0.067302 0)
(-0.0364445 0.0755091 0)
(-0.0435764 0.0871935 0)
(-0.053245 0.102748 0)
(-0.0660874 0.118761 0)
(-0.0827424 0.121633 0)
(-0.0990521 0.0859016 0)
(-0.107757 -0.00808652 0)
(-0.111242 -0.138515 0)
(-0.111585 -0.260946 0)
(-0.111342 -0.349807 0)
(-0.0444733 -0.32124 0)
(-0.000471849 0.0243813 0)
(-0.0032043 0.0462065 0)
(-0.00740447 0.0539994 0)
(-0.0110927 0.0562625 0)
(-0.0143581 0.0571824 0)
(-0.0171229 0.0584867 0)
(-0.019487 0.0608785 0)
(-0.0215754 0.0648422 0)
(-0.0235123 0.070949 0)
(-0.0254145 0.0799802 0)
(-0.0273646 0.0928905 0)
(-0.0292317 0.109828 0)
(-0.0306155 0.126877 0)
(-0.0319364 0.12945 0)
(-0.0335836 0.093406 0)
(-0.0347189 -0.00161745 0)
(-0.0442629 -0.125305 0)
(-0.0561629 -0.248169 0)
(-0.0804306 -0.363788 0)
(-0.0304639 -0.386293 0)
(-0.000677029 0.0263797 0)
(-0.00379282 0.0501845 0)
(-0.00806004 0.0582505 0)
(-0.0112978 0.0600813 0)
(-0.01379 0.0602897 0)
(-0.0154807 0.0608702 0)
(-0.0164122 0.0626068 0)
(-0.0165834 0.065995 0)
(-0.0159269 0.0715633 0)
(-0.0142201 0.0799607 0)
(-0.0110607 0.0919019 0)
(-0.00556373 0.107212 0)
(0.00293323 0.122469 0)
(0.0146593 0.124415 0)
(0.0230468 0.0917167 0)
(0.0279714 0.00463585 0)
(0.010888 -0.107573 0)
(-0.0106151 -0.222198 0)
(-0.0559797 -0.361091 0)
(-0.0199276 -0.4339 0)
(-0.00101754 0.0288631 0)
(-0.00455323 0.0533278 0)
(-0.00924478 0.0605965 0)
(-0.0123251 0.0612204 0)
(-0.0142675 0.0605894 0)
(-0.0149156 0.0605268 0)
(-0.0143844 0.0616308 0)
(-0.0126471 0.0642216 0)
(-0.00954781 0.0686736 0)
(-0.00468009 0.0753766 0)
(0.00255194 0.0847817 0)
(0.013403 0.0964031 0)
(0.0281823 0.107517 0)
(0.0474646 0.108173 0)
(0.0619134 0.0814449 0)
(0.0711093 0.0109259 0)
(0.0491724 -0.0842223 0)
(0.0254581 -0.184454 0)
(-0.0383732 -0.343319 0)
(-0.00921505 -0.466418 0)
(-0.00310387 0.03082 0)
(-0.00900493 0.0600455 0)
(-0.0129777 0.0671587 0)
(-0.0149337 0.0671116 0)
(-0.0153921 0.0646138 0)
(-0.0146904 0.0625574 0)
(-0.0128096 0.0616554 0)
(-0.00956708 0.0622087 0)
(-0.00469394 0.0644469 0)
(0.00239115 0.0684889 0)
(0.0122387 0.0745508 0)
(0.0259085 0.0819257 0)
(0.0431284 0.0884554 0)
(0.065114 0.0874465 0)
(0.0812426 0.0680965 0)
(0.0935536 0.0169247 0)
(0.0697073 -0.0561846 0)
(0.0469734 -0.141488 0)
(-0.0277508 -0.322578 0)
(0.00216523 -0.490037 0)
(-0.000917607 0.0440768 0)
(-0.00739086 0.0611884 0)
(-0.0164086 0.0639582 0)
(-0.0182851 0.0602604 0)
(-0.0189789 0.0572398 0)
(-0.0174152 0.0552513 0)
(-0.0143373 0.0542999 0)
(-0.00960234 0.0542805 0)
(-0.00307032 0.0552703 0)
(0.00583765 0.0572824 0)
(0.0174949 0.0604801 0)
(0.0326176 0.0642312 0)
(0.0502597 0.0672041 0)
(0.072516 0.0651761 0)
(0.0876784 0.0520558 0)
(0.101733 0.0189038 0)
(0.0781478 -0.0328444 0)
(0.0623428 -0.102332 0)
(-0.010351 -0.300281 0)
(0.0206166 -0.499861 0)
(-0.012576 0.0321713 0)
(-0.0229912 0.0806168 0)
(-0.0204886 0.0809148 0)
(-0.0242339 0.076019 0)
(-0.0235111 0.0685941 0)
(-0.0209656 0.0624765 0)
(-0.0163091 0.0576372 0)
(-0.00970572 0.0539697 0)
(-0.0012223 0.0514776 0)
(0.00957808 0.0499408 0)
(0.0225836 0.0494645 0)
(0.0384632 0.0493804 0)
(0.0553042 0.0499021 0)
(0.0763987 0.0479967 0)
(0.0888571 0.0420091 0)
(0.10574 0.025464 0)
(0.0889032 -0.00635445 0)
(0.0976582 -0.0631932 0)
(0.0390348 -0.272743 0)
(0.0568869 -0.488512 0)
(-0.0776899 0.0957502 0)
(-0.0632243 0.0587328 0)
(-0.0650226 0.0600447 0)
(-0.0422301 0.0534428 0)
(-0.0241944 0.0464547 0)
(-0.00331799 0.0412812 0)
(0.0163906 0.0375178 0)
(0.0365152 0.034339 0)
(0.0552154 0.0320486 0)
(0.0756091 0.029988 0)
(0.0933676 0.0288453 0)
(0.116025 0.0276822 0)
(0.131788 0.0268876 0)
(0.160211 0.0254942 0)
(0.169466 0.0199068 0)
(0.202425 0.010935 0)
(0.189448 -0.0215767 0)
(0.221451 -0.0735147 0)
(0.153652 -0.251495 0)
(0.124589 -0.432713 0)
(0.119338 0.140714 0)
(0.15185 0.0859871 0)
(0.228257 0.0634315 0)
(0.283739 0.0479992 0)
(0.325214 0.0373936 0)
(0.363563 0.0296503 0)
(0.392345 0.0242556 0)
(0.423597 0.0201933 0)
(0.44363 0.0173168 0)
(0.472227 0.0150023 0)
(0.48517 0.0133186 0)
(0.514511 0.0119344 0)
(0.520047 0.0108194 0)
(0.552103 0.00948151 0)
(0.546868 0.00746922 0)
(0.578542 0.00299704 0)
(0.546591 -0.00582024 0)
(0.55223 -0.026833 0)
(0.419242 -0.0729602 0)
(0.27479 -0.151607 0)
)
;

boundaryField
{
    movingWall
    {
        type            fixedValue;
        value           uniform (1 0 0);
    }
    fixedWalls
    {
        type            noSlip;
    }
    frontAndBack
    {
        type            empty;
    }
}


// ************************************************************************* //
