/*--------------------------------*- C++ -*----------------------------------*\
  =========                 |
  \\      /  F ield         | OpenFOAM: The Open Source CFD Toolbox
   \\    /   O peration     | Website:  https://openfoam.org
    \\  /    A nd           | Version:  10
     \\/     M anipulation  |
\*---------------------------------------------------------------------------*/
FoamFile
{
    format      ascii;
    class       volScalarField;
    location    "3.775";
    object      p;
}
// * * * * * * * * * * * * * * * * * * * * * * * * * * * * * * * * * * * * * //

dimensions      [0 2 -2 0 0 0 0];

internalField   nonuniform List<scalar> 
475
(
-0.0476689
-0.0726843
-0.102563
-0.126585
-0.149736
-0.0727014
-0.0865187
-0.102887
-0.121578
-0.13798
-0.0709716
-0.0804391
-0.0954386
-0.112717
-0.128962
-0.0701076
-0.0809532
-0.095963
-0.110899
-0.124254
-0.0402453
-0.0672138
-0.0907636
-0.10803
-0.120444
-0.168111
-0.177093
-0.180275
-0.1894
-0.206181
-0.227043
-0.243397
-0.249426
-0.242911
-0.221131
-0.189084
-0.153103
-0.116847
-0.0828381
-0.0561076
-0.041041
-0.0275015
-0.00896278
0.00644364
0.0143078
0.0191038
0.0246916
0.0302985
0.0342749
0.0361267
0.0362554
0.0352817
0.0337139
0.0318719
0.0299241
0.0279468
0.0259697
0.0240027
0.0220476
0.0201038
0.0181696
0.016243
0.0143217
0.0124029
0.0104887
0.00857822
0.00667001
0.00476327
0.00285752
0.00095237
-0.154598
-0.166516
-0.173592
-0.17895
-0.184964
-0.19357
-0.198941
-0.198683
-0.191794
-0.176079
-0.157447
-0.138036
-0.117952
-0.0974399
-0.0777648
-0.0625509
-0.0464022
-0.0256324
-0.00653786
0.00590144
0.0145635
0.0221924
0.0285692
0.0329884
0.0353687
0.0360496
0.0355106
0.0342018
0.0324622
0.0305095
0.0284684
0.0264037
0.0243466
0.0223098
0.0202969
0.0183074
0.0163393
0.0143883
0.0124505
0.0105216
0.00859989
0.00668354
0.00477109
0.00286135
0.000953331
-0.142286
-0.151617
-0.15792
-0.160713
-0.161337
-0.161909
-0.159689
-0.15638
-0.149925
-0.141359
-0.138288
-0.133951
-0.124805
-0.115254
-0.103393
-0.0878156
-0.0662577
-0.0386776
-0.0144843
0.00215053
0.0134835
0.0219848
0.0283075
0.0326094
0.0351083
0.0360633
0.0358037
0.0346891
0.0330358
0.0310809
0.028982
0.0268348
0.0246912
0.0225759
0.0204968
0.0184528
0.0164411
0.0144571
0.0124956
0.0105508
0.00861833
0.00669462
0.00477719
0.00286412
0.00095387
-0.134779
-0.141599
-0.146305
-0.146592
-0.144001
-0.139479
-0.131516
-0.124494
-0.114961
-0.111812
-0.125877
-0.134302
-0.127832
-0.118672
-0.11052
-0.0977701
-0.0763214
-0.0464268
-0.0185184
0.00151683
0.0142122
0.0225775
0.0284862
0.0326368
0.0351859
0.0362662
0.0361261
0.0350829
0.0334441
0.0314593
0.0293054
0.0270945
0.0248897
0.0227213
0.0205998
0.0185257
0.0164923
0.0144923
0.012519
0.0105657
0.00862738
0.00669974
0.00477965
0.00286488
0.000953672
-0.129305
-0.135439
-0.138731
-0.138164
-0.134469
-0.127027
-0.116787
-0.105515
-0.0950656
-0.0959093
-0.111942
-0.128555
-0.132818
-0.125561
-0.111561
-0.0926601
-0.0688141
-0.0411139
-0.0163061
0.00245324
0.0151611
0.0237432
0.0296405
0.0335721
0.0358694
0.0367616
0.0365045
0.0353891
0.0336986
0.0316698
0.0294755
0.0272281
0.024992
0.0227978
0.0206559
0.0185654
0.0165198
0.0145109
0.0125311
0.0105733
0.00863187
0.00670217
0.00478083
0.00286523
0.000953575
-0.193072
-0.195145
-0.199156
-0.20976
-0.230951
-0.25978
-0.284173
-0.291473
-0.276167
-0.2374
-0.178098
-0.106751
-0.0341843
0.0300959
0.0785405
0.106966
0.116447
0.112594
0.101504
0.0874646
0.0733742
0.060433
0.0497711
0.041861
0.0364711
0.032984
0.0307161
0.0291127
0.0278012
0.0265637
0.0252886
0.0239289
0.0224705
0.0209187
0.0192853
0.0175852
0.0158321
0.0140379
0.0122126
0.0103642
0.00849903
0.00662195
0.00473641
0.00284511
0.000949874
-0.183324
-0.187443
-0.1953
-0.212595
-0.240603
-0.274245
-0.302099
-0.312847
-0.301539
-0.266085
-0.207632
-0.135179
-0.0607433
0.00627756
0.0586357
0.0915253
0.104931
0.104475
0.0955274
0.0826134
0.0691386
0.0574506
0.048198
0.0413909
0.0366826
0.0335117
0.0313156
0.0296573
0.0282444
0.0269019
0.025536
0.0241041
0.0225933
0.0210044
0.0193442
0.0176253
0.0158591
0.0140558
0.012224
0.0103712
0.00850312
0.00662413
0.00473742
0.00284536
0.000949736
-0.193955
-0.190579
-0.19745
-0.217435
-0.25058
-0.288087
-0.318995
-0.332861
-0.323104
-0.289374
-0.232948
-0.161955
-0.0895589
-0.024857
0.0281043
0.0638337
0.0800344
0.0825972
0.0771755
0.0677741
0.0585415
0.0509347
0.0451293
0.0406048
0.0371086
0.0344425
0.0323493
0.0305991
0.0290236
0.0275113
0.0259956
0.0244414
0.0228346
0.0211729
0.0194614
0.0177057
0.0159142
0.0140929
0.0122483
0.0103866
0.00851248
0.00662937
0.00473996
0.00284616
0.000949546
-0.183149
-0.183673
-0.189455
-0.207941
-0.237535
-0.270994
-0.299141
-0.314392
-0.310119
-0.2828
-0.234461
-0.172375
-0.107558
-0.0502314
-0.00360289
0.0291747
0.0460978
0.0514888
0.0504511
0.0463224
0.0425338
0.0406536
0.0397353
0.0386653
0.0371926
0.0354589
0.0336454
0.031852
0.0301028
0.0283847
0.0266757
0.0249576
0.0232192
0.0214553
0.0196652
0.0178506
0.0160138
0.0141605
0.0122923
0.010415
0.00853041
0.00664009
0.00474581
0.0028488
0.000950036
-0.215341
-0.186466
-0.188085
-0.200267
-0.223854
-0.253203
-0.27781
-0.289457
-0.285017
-0.261378
-0.220685
-0.16992
-0.11678
-0.0692931
-0.0329214
-0.0081514
0.00907894
0.0200571
0.0248171
0.0255558
0.0267351
0.0299672
0.033571
0.0359286
0.0365823
0.0359466
0.0345768
0.0328673
0.0310336
0.0291704
0.0273083
0.0254509
0.0235943
0.0217341
0.0198676
0.0179938
0.0161131
0.0142275
0.0123404
0.0104481
0.00855212
0.00665365
0.00475367
0.00285267
0.000951012
)
;

boundaryField
{
    inlet
    {
        type            zeroGradient;
    }
    outlet
    {
        type            fixedValue;
        value           uniform 0;
    }
    upperWall
    {
        type            zeroGradient;
    }
    lowerWall
    {
        type            zeroGradient;
    }
    frontAndBack
    {
        type            empty;
    }
}


// ************************************************************************* //
