/*--------------------------------*- C++ -*----------------------------------*\
  =========                 |
  \\      /  F ield         | OpenFOAM: The Open Source CFD Toolbox
   \\    /   O peration     | Website:  https://openfoam.org
    \\  /    A nd           | Version:  10
     \\/     M anipulation  |
\*---------------------------------------------------------------------------*/
FoamFile
{
    format      ascii;
    class       surfaceScalarField;
    location    "3.775";
    object      phi;
}
// * * * * * * * * * * * * * * * * * * * * * * * * * * * * * * * * * * * * * //

dimensions      [0 3 -1 0 0 0 0];

internalField   nonuniform List<scalar> 
890
(
0.00983707
0.000162929
0.009724
0.00011307
0.00946941
0.000254588
0.00944482
2.45969e-05
0.000135526
0.00930929
0.0101245
3.84089e-05
0.0101921
4.54989e-05
0.0104123
3.43892e-05
0.0104602
-2.33367e-05
-7.66625e-05
0.0106724
0.0100718
-3.33984e-05
0.0102149
-9.75912e-05
0.0103822
-0.000132891
0.0105183
-0.000159445
-0.000197033
0.0106387
0.0100912
-0.00012457
0.0102178
-0.000224171
0.0103273
-0.000242434
0.0104122
-0.000244361
-0.000253371
0.0104685
0.00987543
0.00965126
0.00940882
0.00916446
0.00891109
0.0092821
-0.000153012
0.000180199
0.00932369
-0.000309272
0.00026769
0.00946232
-0.000370103
0.000231472
0.00968841
-0.000468847
0.00024275
0.00996453
-0.000663144
0.000387025
0.0102563
-0.000916683
0.000624958
0.0105409
-0.00133457
0.00104993
0.0107556
-0.00177936
0.00156468
0.0108415
-0.00221587
0.00212996
0.010848
-0.0027461
0.00273956
0.0107346
-0.0031062
0.0032196
0.0104349
-0.00325589
0.00355566
0.00998097
-0.00318132
0.0036352
0.00938991
-0.00281543
0.00340649
0.00871583
-0.00234298
0.00301706
0.00798575
-0.00165395
0.00238403
0.0071603
-0.000674811
0.00150026
0.00629266
0.000141492
0.000726147
0.00559421
0.000484048
0.0002144
0.00522738
0.000531987
-0.000165152
0.00517614
0.000563378
-0.000512137
0.00531556
0.000647125
-0.000786546
0.00551394
0.000716821
-0.000915197
0.00569096
0.000719892
-0.00089692
0.00581773
0.0006538
-0.000780563
0.00589617
0.000544841
-0.000623283
0.00593976
0.000422931
-0.000466527
0.00596226
0.000309498
-0.000331992
0.00597352
0.000215456
-0.000226716
0.00597935
0.000143616
-0.000149449
0.00598269
9.20457e-05
-9.53897e-05
0.00598486
5.6813e-05
-5.89823e-05
0.00598639
3.37055e-05
-3.52327e-05
0.00598749
1.9085e-05
-2.01856e-05
0.00598827
1.01369e-05
-1.09163e-05
0.0059888
4.85863e-06
-5.38697e-06
0.00598915
1.85924e-06
-2.2141e-06
0.00598941
2.41858e-07
-4.95628e-07
0.00598954
-5.13611e-07
3.79474e-07
0.0059896
-8.20138e-07
7.62609e-07
0.00598962
-8.63385e-07
8.39105e-07
0.00598963
-8.06317e-07
8.01012e-07
0.00598963
-6.40423e-07
6.43946e-07
0.00598962
-5.4478e-07
5.52671e-07
-3.09094e-07
3.12701e-07
0.0107191
-0.000199689
0.0107608
-0.000351028
0.0108239
-0.000433171
0.01093
-0.000574973
0.0110433
-0.000776356
0.0110957
-0.000969172
0.0110939
-0.00133269
0.0109964
-0.00168188
0.0107876
-0.00200704
0.0104917
-0.00245022
0.0100661
-0.00268057
0.00948283
-0.00267267
0.00879483
-0.00249332
0.00800037
-0.00202097
0.00710056
-0.00144317
0.00623283
-0.000786223
0.00550675
5.12679e-05
0.00491697
0.000731273
0.00451061
0.000890408
0.00432433
0.000718271
0.004355
0.000532702
0.00454514
0.000456984
0.0048097
0.000452266
0.00507928
0.000450316
0.0053149
0.000418176
0.00550282
0.000356916
0.00564398
0.000281777
0.00574564
0.000207834
0.00581663
0.000144465
0.00586503
9.52156e-05
0.0058974
5.96793e-05
0.00591869
3.55223e-05
0.00593249
1.99112e-05
0.00594129
1.02761e-05
0.00594683
4.60295e-06
0.00595023
1.45938e-06
0.00595224
-1.56159e-07
0.00595344
-9.51076e-07
0.00595412
-1.19648e-06
0.00595449
-1.18681e-06
0.00595466
-1.03941e-06
0.00595473
-8.75503e-07
0.00595475
-6.57531e-07
0.00595474
-5.34523e-07
-2.99327e-07
0.0107126
-0.000273597
0.0107476
-0.000386098
0.0107783
-0.000463837
0.0108016
-0.000598268
0.01078
-0.000754751
0.0107034
-0.000892599
0.0105363
-0.00116554
0.0103004
-0.00144602
0.0100413
-0.00174793
0.0096539
-0.00206282
0.00908611
-0.00211278
0.00839629
-0.00198285
0.00760632
-0.00170335
0.00675869
-0.00117334
0.00592572
-0.000610196
0.00524822
-0.000108721
0.00489395
0.000405535
0.00484431
0.000780912
0.00489781
0.000836913
0.00492112
0.000694952
0.00491619
0.000537636
0.00493662
0.000436556
0.00500935
0.000379535
0.00512437
0.000335291
0.00525637
0.000286184
0.0053829
0.00023038
0.00549088
0.000173795
0.00557571
0.000123012
0.00563826
8.19143e-05
0.0056821
5.13673e-05
0.00571157
3.02139e-05
0.00573066
1.64356e-05
0.00574261
7.95614e-06
0.00574986
3.02656e-06
0.00575413
3.33767e-07
0.00575651
-9.17796e-07
0.00575777
-1.4196e-06
0.00575833
-1.51152e-06
0.00575853
-1.39329e-06
0.00575853
-1.19098e-06
0.00575845
-9.5647e-07
0.00575833
-7.57017e-07
0.00575822
-5.47024e-07
0.00575811
-4.28975e-07
-2.3811e-07
0.0104902
-0.000295259
0.0104539
-0.000349781
0.0103793
-0.000389235
0.0102566
-0.000475611
0.0100385
-0.000536595
0.00977794
-0.000632061
0.00938933
-0.000776931
0.00884612
-0.00090281
0.00828601
-0.00118782
0.00760617
-0.00138298
0.00665707
-0.00116368
0.00545232
-0.000778102
0.00416939
-0.000420418
0.00315608
-0.000160024
0.00253185
1.40306e-05
0.0022637
0.000159433
0.00234758
0.000321653
0.00269736
0.000431126
0.00309243
0.000441842
0.00341289
0.000374494
0.00365677
0.000293755
0.00386308
0.000230247
0.00405874
0.000183873
0.00424729
0.000146747
0.00441966
0.000113808
0.00456611
8.39343e-05
0.00468179
5.81161e-05
0.00476733
3.74688e-05
0.00482699
2.22551e-05
0.00486647
1.18911e-05
0.00489134
5.34301e-06
0.00490625
1.52603e-06
0.00491471
-5.04885e-07
0.00491918
-1.44749e-06
0.00492125
-1.73527e-06
0.00492202
-1.68153e-06
0.00492207
-1.47937e-06
0.00492179
-1.23076e-06
0.00492139
-9.8475e-07
0.00492096
-7.63997e-07
0.00492058
-5.73922e-07
0.00492025
-4.27878e-07
0.00492
-2.98429e-07
0.00491979
-2.22834e-07
-1.18779e-07
0.00861583
0.00826605
0.00787682
0.00740121
0.00686461
0.00623255
0.00545562
0.00455281
0.00336499
0.001982
0.000818324
4.02221e-05
-0.000380196
-0.000540221
-0.00052619
-0.000366758
-4.51041e-05
0.000386022
0.000827864
0.00120236
0.00149611
0.00172636
0.00191023
0.00205698
0.00217079
0.00225472
0.00231284
0.00235031
0.00237256
0.00238445
0.0023898
0.00239132
0.00239082
0.00238937
0.00238763
0.00238595
0.00238447
0.00238324
0.00238226
0.00238149
0.00238092
0.00238049
0.00238019
0.00237997
-7.74215e-05
7.74215e-05
-0.000348058
0.000270636
-0.00102884
0.000680787
-0.00203561
0.00100676
-0.00309383
0.00105822
-0.00397985
0.000886022
-0.00459029
0.000610438
-0.00485689
0.000266602
-0.00475494
-0.000101948
-0.00431091
-0.000444037
-0.00354989
-0.000761019
-0.00253655
-0.00101334
-0.00134824
-0.0011883
-7.16488e-05
-0.0012766
0.00119077
-0.00126242
0.0023175
-0.00112673
0.00318666
-0.000869162
0.00371648
-0.000529824
0.00388741
-0.000170928
0.00377547
0.000111937
0.00350416
0.000271312
0.00319316
0.000311004
0.00291876
0.000274392
0.00270964
0.000209127
0.00256538
0.000144261
0.00247327
9.21098e-05
0.00241828
5.49868e-05
0.00238766
3.06208e-05
0.0023721
1.55616e-05
0.00236537
6.72635e-06
0.00236354
1.83059e-06
0.00236424
-6.98185e-07
0.0023661
-1.85957e-06
0.00236832
-2.21818e-06
0.00237048
-2.16467e-06
0.0023724
-1.9185e-06
0.00237401
-1.60809e-06
0.00237531
-1.30038e-06
0.00237633
-1.02065e-06
0.00237711
-7.83078e-07
0.0023777
-5.84777e-07
0.00237813
-4.33366e-07
0.00237843
-3.01167e-07
0.00237865
-2.24052e-07
-1.18972e-07
-0.000465632
0.000543054
-0.00113979
0.000944796
-0.00182848
0.00136948
-0.00241377
0.00159204
-0.00288371
0.00152817
-0.00319268
0.00119499
-0.00330313
0.000720879
-0.003181
0.00014448
-0.00284122
-0.000441736
-0.00224346
-0.0010418
-0.00140627
-0.0015982
-0.000386601
-0.00203301
0.000715221
-0.00229012
0.00187794
-0.00243931
0.00303012
-0.0024146
0.00405922
-0.00215583
0.00492258
-0.00173252
0.00560158
-0.00120883
0.00604541
-0.000614754
0.0062142
-5.68556e-05
0.00614867
0.000336842
0.0059521
0.000507576
0.00571653
0.000509961
0.00549846
0.000427197
0.00532122
0.000321503
0.00518792
0.000225407
0.00509261
0.000150296
0.00502693
9.63056e-05
0.00498306
5.94291e-05
0.00495467
3.51144e-05
0.00493694
1.95585e-05
0.00492635
9.89809e-06
0.00492036
4.12459e-06
0.00491729
8.52707e-07
0.00491596
-8.35509e-07
0.00491561
-1.56468e-06
0.00491578
-1.77481e-06
0.00491618
-1.70636e-06
0.00491666
-1.49792e-06
0.00491712
-1.24585e-06
0.00491753
-9.8821e-07
0.00491787
-7.73785e-07
0.00491812
-5.55105e-07
0.00491833
-4.33757e-07
-2.3967e-07
-0.000384823
0.000927877
-0.000406595
0.000966568
-0.000352723
0.0013156
-0.000258808
0.00149813
-9.5167e-05
0.00136453
0.000112783
0.000987043
0.000384038
0.000449624
0.000739706
-0.000211188
0.00123879
-0.00094082
0.00185202
-0.00165503
0.00257341
-0.00231959
0.0033655
-0.0028251
0.00413628
-0.00306091
0.00485092
-0.00315395
0.0055171
-0.00308078
0.00604689
-0.00268562
0.00640337
-0.002089
0.00667637
-0.00148183
0.00690971
-0.000848095
0.00704604
-0.000193177
0.0070212
0.000361683
0.0068654
0.00066337
0.00664947
0.000725897
0.00643424
0.000642419
0.00625077
0.000504976
0.00610712
0.000369058
0.00599984
0.000257573
0.00592196
0.000174186
0.00586659
0.000114797
0.00582802
7.36872e-05
0.00580175
4.58295e-05
0.00578429
2.73583e-05
0.005773
1.54171e-05
0.0057659
7.94802e-06
0.0057616
3.46724e-06
0.0057591
9.32883e-07
0.00575773
-4.06234e-07
0.00575707
-1.04472e-06
0.0057568
-1.2293e-06
0.00575675
-1.19374e-06
0.0057568
-1.04058e-06
0.0057569
-8.74304e-07
0.005757
-6.54899e-07
0.0057571
-5.33245e-07
-2.98786e-07
5.40788e-05
0.000873798
0.000541982
0.000478665
0.00115113
0.000706456
0.00184877
0.000800487
0.00257792
0.000635388
0.00324031
0.000324651
0.00387157
-0.000181638
0.00448589
-0.000825505
0.00507348
-0.00152841
0.00563828
-0.00221983
0.00615485
-0.00283617
0.0066728
-0.00334305
0.00716618
-0.00355428
0.00751055
-0.00349832
0.00772471
-0.00329493
0.00782185
-0.00278276
0.00773938
-0.00200654
0.00753798
-0.00128043
0.00737382
-0.000683932
0.007296
-0.000115358
0.00723104
0.000426646
0.00711114
0.000783265
0.0069294
0.000907636
0.0067212
0.000850627
0.00652432
0.00070185
0.0063601
0.000533274
0.00623408
0.000383601
0.00614257
0.000265692
0.00607857
0.000178793
0.00603498
0.000117282
0.00600586
7.49511e-05
0.00598671
4.65089e-05
0.00597429
2.78364e-05
0.00596635
1.58895e-05
0.00596135
8.4608e-06
0.00595828
4.00302e-06
0.00595644
1.43352e-06
0.00595537
2.70465e-08
0.00595476
-6.13325e-07
0.00595443
-8.70674e-07
0.00595428
-8.89873e-07
0.00595423
-8.19073e-07
0.00595422
-6.46049e-07
0.00595423
-5.47925e-07
-3.10324e-07
0.001054
0.00180035
0.00273828
0.00378152
0.00480393
0.00575354
0.00662183
0.007361
0.00796255
0.00848228
0.00886572
0.00907833
0.00915925
0.00906742
0.00878954
0.00839081
0.00788454
0.00733025
0.00686072
0.00658021
0.00649472
0.00649144
0.00648388
0.00643758
0.00635887
0.00626886
0.00618594
0.00611964
0.00607171
0.00603955
0.00601911
0.00600663
0.00599924
0.00599494
0.00599249
0.0059911
0.00599032
0.00598985
0.00598962
0.00598951
0.00598946
0.00598944
0.00598944
0.00598945
)
;

boundaryField
{
    inlet
    {
        type            calculated;
        value           nonuniform List<scalar> 5(-0.01 -0.01 -0.01 -0.01 -0.01);
    }
    outlet
    {
        type            calculated;
        value           nonuniform List<scalar> 10(0.00598961 0.00595473 0.00575805 0.00491967 0.00237985 0.00237877 0.00491845 0.00575716 0.00595424 0.00598945);
    }
    upperWall
    {
        type            calculated;
        value           uniform 0;
    }
    lowerWall
    {
        type            calculated;
        value           uniform 0;
    }
    frontAndBack
    {
        type            empty;
        value           nonuniform List<scalar> 0();
    }
}


// ************************************************************************* //
