/*--------------------------------*- C++ -*----------------------------------*\
  =========                 |
  \\      /  F ield         | OpenFOAM: The Open Source CFD Toolbox
   \\    /   O peration     | Website:  https://openfoam.org
    \\  /    A nd           | Version:  10
     \\/     M anipulation  |
\*---------------------------------------------------------------------------*/
FoamFile
{
    format      ascii;
    class       volScalarField;
    location    "0.475";
    object      p;
}
// * * * * * * * * * * * * * * * * * * * * * * * * * * * * * * * * * * * * * //

dimensions      [0 2 -2 0 0 0 0];

internalField   nonuniform List<scalar> 
496
(
21.7749
21.7447
18.6317
12.8496
22.4145
22.883
19.0629
13.1272
27.0911
25.0886
17.3342
7.55986
34.1459
31.6883
28.1904
14.1901
4.92448
-3.78451
4.77764
-3.88708
-6.54095
-11.5017
-34.7507
-58.2377
-10.4335
-14.6301
-16.2341
-15.6707
-11.2789
-16.7744
-19.7191
-19.5819
-5.88825
-9.45994
-13.8699
-12.3732
-30.5753
-19.109
-20.726
-19.5391
-14.0244
-12.4815
-11.6551
-11.5746
-11.9615
-12.4998
-12.8789
-12.8768
-12.5763
-12.1263
-11.5517
-10.7547
-9.67741
-8.40514
-7.16886
-6.19738
-5.51989
-4.97706
-4.38338
-3.65071
-2.85396
-2.22177
-1.89692
-1.72804
-1.49806
-1.18594
-0.907213
-0.728532
-0.615472
-0.521523
-0.428903
-0.350983
-0.280542
-0.216159
-0.145774
-0.0746734
-0.0058211
0.0358822
0.0514645
0.0423608
-17.6256
-15.5742
-14.1699
-13.4059
-13.1456
-13.1107
-13.1491
-13.1811
-13.024
-12.5777
-11.8552
-10.8951
-9.75651
-8.53361
-7.34821
-6.35885
-5.5989
-4.97603
-4.35987
-3.65737
-2.90209
-2.25053
-1.83365
-1.60348
-1.36663
-1.0428
-0.728588
-0.518794
-0.403211
-0.311381
-0.234713
-0.17394
-0.147219
-0.127973
-0.119223
-0.103542
-0.0959052
-0.0831975
-0.0704562
-0.0487284
-10.4836
-10.3252
-11.1069
-11.9045
-12.4468
-12.8189
-13.2259
-13.518
-13.3332
-12.7763
-11.9135
-10.8692
-9.73346
-8.56839
-7.42516
-6.40099
-5.55373
-4.85534
-4.23582
-3.61395
-2.96595
-2.36517
-1.92305
-1.66723
-1.46276
-1.19948
-0.913204
-0.703749
-0.584781
-0.498708
-0.410132
-0.324381
-0.256446
-0.197328
-0.143732
-0.0997323
-0.0626284
-0.0425231
-0.0253898
-0.0146207
-13.9249
-11.1362
-11.5249
-12.7132
-13.7934
-14.7601
-15.2494
-14.7953
-14.0275
-13.1584
-12.1695
-11.058
-9.85889
-8.61029
-7.38538
-6.24911
-5.24181
-4.3855
-3.64732
-2.98559
-2.37725
-1.84438
-1.4162
-1.11349
-0.877183
-0.647868
-0.4092
-0.206675
-0.0675195
0.0282162
0.107202
0.184603
0.235023
0.267762
0.276615
0.268514
0.249326
0.208893
0.16228
0.0901884
37.9823
39.9791
54.0906
66.9625
37.1094
38.5592
52.7171
64.439
-35.7833
-49.8468
-26.6952
-12.8094
-31.2965
-40.9858
-38.4663
-21.0356
-9.16197
-12.0529
-12.3955
-12.6337
-13.5838
-14.5869
-14.9712
-14.827
-14.2583
-13.4264
-12.4728
-11.4083
-10.2198
-8.94544
-7.70735
-6.54163
-5.48653
-4.57502
-3.78528
-3.10552
-2.5169
-2.00012
-1.57242
-1.23935
-0.986522
-0.765159
-0.554554
-0.36158
-0.22746
-0.133569
-0.066178
-0.00643772
0.0316173
0.0496434
0.0583169
0.0519039
0.0480369
0.0258508
0.00339476
-0.0143028
-3.59852
-10.5695
-11.9649
-12.4052
-13.4813
-14.5671
-14.9917
-14.8376
-14.274
-13.4389
-12.4826
-11.4166
-10.2276
-8.95354
-7.71592
-6.55037
-5.49504
-4.58253
-3.79137
-3.11023
-2.52057
-2.00302
-1.57459
-1.24095
-0.987716
-0.7661
-0.555341
-0.362282
-0.228046
-0.134045
-0.0664937
-0.00658411
0.0315257
0.0492732
0.0577771
0.0517917
0.0487137
0.026989
0.00436868
-0.0139885
31.9523
28.6427
24.5575
7.50762
23.9095
21.3515
12.3057
1.09306
18.7309
19.0749
14.5897
8.22293
17.9603
17.9174
14.3669
8.16722
-46.9438
-75.3078
-15.2079
-18.8764
-0.721097
-8.94292
-0.227664
-8.81933
-46.9917
-26.0952
-8.54001
-6.11273
-9.59769
-5.52504
-6.96748
-9.96065
-15.336
-19.3507
-20.2458
-18.768
-14.4679
-16.5657
-15.9707
-14.358
-9.71912
-12.3142
-13.045
-13.2825
-13.8764
-14.7656
-15.3579
-14.898
-14.0833
-13.1927
-12.1954
-11.0801
-9.87978
-8.63158
-7.40767
-6.27191
-5.26394
-4.40546
-3.66394
-2.99835
-2.38653
-1.85114
-1.42114
-1.11698
-0.879477
-0.649359
-0.410126
-0.207292
-0.0678929
0.0280648
0.107486
0.185015
0.234214
0.264785
0.272184
0.265155
0.248682
0.210372
0.163741
0.090176
-11.6682
-12.0802
-12.0602
-12.1502
-12.4312
-12.8211
-13.1966
-13.5671
-13.3984
-12.8265
-11.9533
-10.9053
-9.76691
-8.59929
-7.45399
-6.42773
-5.57747
-4.87581
-4.25277
-3.62661
-2.9744
-2.37103
-1.92797
-1.67168
-1.46672
-1.20316
-0.916666
-0.70666
-0.586566
-0.498337
-0.406882
-0.319851
-0.254603
-0.200762
-0.150545
-0.104815
-0.0630974
-0.0395761
-0.0224605
-0.0140749
-16.6617
-15.0322
-13.986
-13.4141
-13.2028
-13.1531
-13.1786
-13.2162
-13.071
-12.6262
-11.8986
-10.9324
-9.78856
-8.56202
-7.37414
-6.38169
-5.61846
-4.99364
-4.37595
-3.67067
-2.91191
-2.2579
-1.83977
-1.60857
-1.37093
-1.04714
-0.73342
-0.523274
-0.405325
-0.30922
-0.228614
-0.167773
-0.146023
-0.133322
-0.127588
-0.109272
-0.0960251
-0.0793448
-0.066721
-0.0479735
-12.9696
-12.1376
-11.784
-11.8276
-12.1378
-12.5727
-12.9048
-12.9011
-12.6139
-12.1735
-11.5995
-10.7969
-9.71303
-8.43653
-7.19743
-6.22231
-5.54109
-4.99597
-4.40057
-3.66504
-2.86468
-2.22964
-1.90284
-1.73231
-1.50136
-1.18979
-0.912922
-0.735051
-0.619019
-0.519091
-0.422225
-0.345508
-0.280866
-0.222371
-0.153615
-0.0790503
-0.00500205
0.0398456
0.0550773
0.0432089
)
;

boundaryField
{
    inlet
    {
        type            zeroGradient;
    }
    outlet
    {
        type            fixedValue;
        value           uniform 0;
    }
    obstacle
    {
        type            zeroGradient;
    }
    upperWall
    {
        type            zeroGradient;
    }
    lowerWall
    {
        type            zeroGradient;
    }
    frontAndBack
    {
        type            empty;
    }
}


// ************************************************************************* //
