/*--------------------------------*- C++ -*----------------------------------*\
  =========                 |
  \\      /  F ield         | OpenFOAM: The Open Source CFD Toolbox
   \\    /   O peration     | Website:  https://openfoam.org
    \\  /    A nd           | Version:  10
     \\/     M anipulation  |
\*---------------------------------------------------------------------------*/
FoamFile
{
    format      ascii;
    class       volScalarField;
    location    "0.1";
    object      p;
}
// * * * * * * * * * * * * * * * * * * * * * * * * * * * * * * * * * * * * * //

dimensions      [0 2 -2 0 0 0 0];

internalField   nonuniform List<scalar> 
8000
(
-2.35287e-09
0.000102597
0.000309425
0.000615043
0.00101154
0.00148878
0.0020347
0.00263567
0.00327683
0.00394249
0.00461641
0.00528221
0.00592364
0.00652497
0.00707132
0.00754901
0.00794595
0.00825194
0.00845903
0.00856177
-0.000102268
2.90034e-06
0.000214884
0.000528057
0.000934254
0.00142303
0.001982
0.00259717
0.00325338
0.00393457
0.00462419
0.00530553
0.00596202
0.0065776
0.00713703
0.0076263
0.00803297
0.00834654
0.00855881
0.00866414
-0.000313962
-0.000203449
1.92576e-05
0.00034813
0.000774455
0.00128715
0.00187311
0.00251768
0.00320495
0.00391821
0.00464025
0.00535369
0.00604129
0.00668631
0.00727282
0.00778608
0.00821296
0.0085423
0.00876535
0.00887604
-0.000640502
-0.000521664
-0.000282283
7.09586e-05
0.000528465
0.00107812
0.00170574
0.00239554
0.00313057
0.00389309
0.0046649
0.00542763
0.00616306
0.00685342
0.0074817
0.00803206
0.00849023
0.00884405
0.00908385
0.00920291
-0.00109052
-0.00096005
-0.000697405
-0.000310254
0.000190503
0.000791257
0.00147627
0.00222823
0.00302874
0.0038587
0.0046986
0.00552882
0.00632983
0.00708249
0.00776834
0.00836998
0.0088716
0.00925949
0.00952267
0.00965343
-0.0016761
-0.00153018
-0.00123673
-0.000804841
-0.000247283
0.000420253
0.00117992
0.00201241
0.00289748
0.00381435
0.00474196
0.00565916
0.00654488
0.00737827
0.00813902
0.00880771
0.0093664
0.00979925
0.0100934
0.0102397
-0.00241324
-0.00224734
-0.00191414
-0.00142486
-0.000794892
-4.27974e-05
0.000810792
0.00174402
0.00273441
0.00375924
0.0047957
0.00582097
0.0068122
0.0077466
0.00860161
0.00935524
0.0099867
0.0104773
0.0108114
0.0109779
-0.00332268
-0.00313115
-0.00274725
-0.00218531
-0.00146451
-0.000607305
0.000362007
0.00141842
0.00253686
0.00369247
0.00486062
0.00601679
0.00713632
0.00819428
0.00916546
0.0100247
0.0107475
0.0113112
0.0116965
0.0118887
-0.00443092
-0.00420648
-0.00375796
-0.0031044
-0.00227045
-0.00128398
-0.000173981
0.00103069
0.00230205
0.00361308
0.0049375
0.00624926
0.00752204
0.00872873
0.0098412
0.0108304
0.0116671
0.0123231
0.0127735
0.0129989
-0.00577198
-0.00550476
-0.0049732
-0.00420371
-0.003229
-0.00208435
-0.000804877
0.000576066
0.00202741
0.00352023
0.005027
0.00652075
0.00797393
0.0093575
0.0106402
0.0117886
0.012767
0.0135399
0.014074
0.0143427
-0.00738989
-0.00706581
-0.00642579
-0.00550824
-0.00435779
-0.00301998
-0.00153765
5.06974e-05
0.00171108
0.00341327
0.00512952
0.00683289
0.00849559
0.0100873
0.0115739
0.0129166
0.0140722
0.0149945
0.0156383
0.0159644
-0.00934291
-0.00894048
-0.00815546
-0.007046
-0.00567463
-0.00410088
-0.00237708
-0.000547195
0.00135258
0.00329208
0.00524489
0.00718585
0.00908851
0.0109227
0.012652
0.0142323
0.0156106
0.0167268
0.0175174
0.0179229
-0.0117105
-0.0111944
-0.0102095
-0.00884675
-0.00719523
-0.00533302
-0.00332359
-0.00121576
0.00095384
0.00315734
0.00537214
0.00757736
0.00975044
0.0118635
0.01388
0.0157507
0.0174119
0.0187842
0.0197774
0.0202984
-0.0146061
-0.013913
-0.0126426
-0.0109388
-0.00892885
-0.00671446
-0.00437018
-0.00194728
0.000520444
0.00301097
0.00550901
0.00800148
0.0104732
0.0129023
0.0152552
0.0174807
0.0195036
0.0212213
0.0225042
0.0232056
-0.0182009
-0.0172062
-0.0155139
-0.013342
-0.0108713
-0.00822937
-0.005498
-0.00272535
6.32355e-05
0.00285666
0.00565155
0.00844702
0.0112399
0.0140195
0.016761
0.0194167
0.0219047
0.0240965
0.0258084
0.0268179
-0.0227713
-0.0212105
-0.0188765
-0.0160542
-0.0129933
-0.00983954
-0.00667084
-0.00352161
-0.000400047
0.0027004
0.00579366
0.00889601
0.0120217
0.015178
0.0183577
0.0215276
0.0246108
0.0274613
0.0298263
0.0314149
-0.0287833
-0.0260748
-0.0227489
-0.0190271
-0.0152227
-0.0114732
-0.00782898
-0.00429283
-0.000843614
0.00255078
0.00592692
0.00932268
0.0127751
0.0163172
0.0199718
0.0237384
0.0275696
0.0313298
0.0347047
0.0374723
-0.0373302
-0.0319008
-0.0270596
-0.0221257
-0.0174192
-0.0130122
-0.0088844
-0.00497986
-0.00123363
0.00241897
0.00604072
0.00969367
0.0134411
0.0173487
0.0214835
0.025905
0.0306389
0.0356195
0.0405304
0.0460636
-0.0467476
-0.0380686
-0.0314385
-0.0250321
-0.0193374
-0.0142838
-0.00972174
-0.00551035
-0.00153054
0.0023178
0.00612315
0.00997021
0.0139477
0.0181566
0.0227175
0.0277749
0.0334858
0.0399402
0.0466189
0.0556146
-0.0771368
-0.0469894
-0.0364829
-0.02752
-0.0206784
-0.0150655
-0.0101993
-0.00580093
-0.00169014
0.00226331
0.00616585
0.0101169
0.014223
0.0186152
0.0234764
0.0290929
0.0359591
0.0450544
0.0557505
0.0862457
-2.45898e-08
0.000102541
0.00030936
0.00061498
0.00101149
0.00148873
0.00203466
0.00263564
0.00327681
0.00394248
0.00461642
0.00528222
0.00592367
0.00652501
0.00707137
0.00754907
0.00794601
0.008252
0.00845909
0.00856179
-0.000102251
2.87924e-06
0.000214853
0.000528026
0.000934226
0.00142301
0.00198198
0.00259716
0.00325337
0.00393456
0.0046242
0.00530554
0.00596204
0.00657762
0.00713705
0.00762633
0.008033
0.00834657
0.00855884
0.00866412
-0.000313934
-0.000203462
1.92352e-05
0.000348106
0.000774434
0.00128713
0.0018731
0.00251767
0.00320495
0.00391821
0.00464026
0.00535369
0.0060413
0.00668633
0.00727284
0.00778611
0.00821298
0.00854232
0.00876536
0.00887601
-0.000640468
-0.000521674
-0.000282302
7.09376e-05
0.000528446
0.0010781
0.00170573
0.00239553
0.00313057
0.00389309
0.0046649
0.00542763
0.00616307
0.00685344
0.00748172
0.00803208
0.00849026
0.00884407
0.00908387
0.00920288
-0.00109048
-0.00096006
-0.000697424
-0.000310274
0.000190486
0.000791243
0.00147626
0.00222822
0.00302874
0.0038587
0.0046986
0.00552882
0.00632984
0.0070825
0.00776836
0.00837
0.00887162
0.00925951
0.00952269
0.00965339
-0.00167605
-0.00153019
-0.00123675
-0.000804861
-0.000247299
0.000420241
0.00117991
0.00201241
0.00289748
0.00381435
0.00474196
0.00565917
0.00654489
0.00737828
0.00813904
0.00880773
0.00936642
0.00979928
0.0100934
0.0102397
-0.0024132
-0.00224735
-0.00191416
-0.00142488
-0.000794905
-4.28048e-05
0.000810789
0.00174402
0.00273441
0.00375924
0.0047957
0.00582097
0.0068122
0.00774661
0.00860162
0.00935525
0.00998672
0.0104773
0.0108115
0.0109778
-0.00332263
-0.00313116
-0.00274728
-0.00218533
-0.00146451
-0.000607307
0.000362012
0.00141843
0.00253687
0.00369247
0.00486062
0.00601679
0.00713632
0.00819428
0.00916547
0.0100247
0.0107476
0.0113113
0.0116965
0.0118887
-0.00443087
-0.00420651
-0.00375799
-0.00310442
-0.00227046
-0.00128397
-0.000173966
0.00103071
0.00230206
0.00361309
0.0049375
0.00624925
0.00752203
0.00872872
0.0098412
0.0108304
0.0116671
0.0123231
0.0127735
0.0129989
-0.00577194
-0.0055048
-0.00497323
-0.00420372
-0.00322899
-0.00208433
-0.000804847
0.000576093
0.00202743
0.00352023
0.005027
0.00652074
0.00797391
0.00935748
0.0106402
0.0117886
0.012767
0.0135399
0.0140741
0.0143427
-0.00738986
-0.00706586
-0.00642582
-0.00550823
-0.00435775
-0.00301993
-0.0015376
5.07423e-05
0.00171111
0.00341328
0.00512951
0.00683287
0.00849556
0.0100873
0.0115739
0.0129166
0.0140722
0.0149946
0.0156384
0.0159644
-0.00934291
-0.00894055
-0.00815546
-0.00704595
-0.00567455
-0.00410078
-0.00237699
-0.000547127
0.00135262
0.0032921
0.00524488
0.00718581
0.00908845
0.0109226
0.0126519
0.0142322
0.0156106
0.0167269
0.0175175
0.017923
-0.0117106
-0.0111945
-0.0102094
-0.00884663
-0.00719507
-0.00533287
-0.00332346
-0.00121566
0.000953898
0.00315736
0.00537212
0.00757731
0.00975035
0.0118634
0.0138798
0.0157506
0.0174118
0.0187842
0.0197775
0.0202986
-0.0146064
-0.013913
-0.0126425
-0.0109386
-0.00892857
-0.00671422
-0.00437
-0.00194716
0.000520516
0.00301099
0.00550899
0.00800141
0.0104731
0.0129022
0.015255
0.0174804
0.0195034
0.0212212
0.0225043
0.023206
-0.0182015
-0.017206
-0.0155135
-0.0133415
-0.0108709
-0.00822904
-0.00549777
-0.0027252
6.33134e-05
0.00285668
0.00565152
0.00844694
0.0112398
0.0140193
0.0167607
0.0194163
0.0219043
0.0240962
0.0258084
0.0268186
-0.0227725
-0.0212097
-0.0188756
-0.0160534
-0.0129927
-0.00983913
-0.00667059
-0.00352147
-0.000399979
0.00270041
0.00579363
0.00889593
0.0120216
0.0151777
0.0183573
0.021527
0.02461
0.0274605
0.0298257
0.0314166
-0.0287852
-0.0260721
-0.0227472
-0.0190259
-0.0152219
-0.0114728
-0.00782877
-0.00429274
-0.000843586
0.00255077
0.00592688
0.00932261
0.012775
0.016317
0.0199713
0.0237376
0.0275683
0.0313283
0.0347023
0.0374752
-0.0373411
-0.0318954
-0.0270574
-0.0221243
-0.0174185
-0.0130119
-0.00888436
-0.00497989
-0.00123368
0.00241892
0.00604068
0.00969362
0.013441
0.0173485
0.021483
0.0259041
0.0306372
0.0356171
0.0405251
0.0460756
-0.0467164
-0.038043
-0.0314335
-0.0250305
-0.0193373
-0.0142841
-0.00972208
-0.00551062
-0.00153074
0.00231766
0.00612306
0.00997015
0.0139477
0.0181565
0.0227171
0.0277738
0.0334827
0.0399334
0.0465902
0.0555863
-0.0771896
-0.0469605
-0.0364942
-0.0275243
-0.0206807
-0.0150668
-0.0102
-0.00580135
-0.00169041
0.00226312
0.00616571
0.0101168
0.014223
0.0186153
0.0234767
0.0290938
0.0359614
0.0450652
0.0557236
0.0863064
-3.48885e-08
0.00010252
0.000309335
0.000614955
0.00101146
0.00148871
0.00203465
0.00263563
0.00327681
0.00394248
0.00461642
0.00528223
0.00592368
0.00652503
0.00707139
0.0075491
0.00794604
0.00825203
0.00845911
0.00856181
-0.000102256
2.86591e-06
0.000214836
0.000528007
0.000934208
0.00142299
0.00198196
0.00259715
0.00325336
0.00393456
0.0046242
0.00530555
0.00596205
0.00657763
0.00713707
0.00762635
0.00803302
0.00834659
0.00855885
0.00866413
-0.000313936
-0.00020347
1.92233e-05
0.000348093
0.000774421
0.00128712
0.00187309
0.00251766
0.00320494
0.00391821
0.00464026
0.0053537
0.00604131
0.00668634
0.00727285
0.00778612
0.008213
0.00854234
0.00876537
0.00887601
-0.000640465
-0.000521678
-0.00028231
7.09278e-05
0.000528436
0.00107809
0.00170572
0.00239553
0.00313057
0.00389309
0.0046649
0.00542764
0.00616308
0.00685344
0.00748173
0.00803209
0.00849027
0.00884408
0.00908387
0.00920288
-0.00109048
-0.00096006
-0.00069743
-0.000310281
0.000190479
0.000791238
0.00147626
0.00222822
0.00302874
0.0038587
0.0046986
0.00552882
0.00632984
0.00708251
0.00776836
0.00837001
0.00887163
0.00925952
0.00952269
0.00965339
-0.00167604
-0.00153019
-0.00123675
-0.000804865
-0.000247303
0.000420239
0.00117991
0.00201241
0.00289748
0.00381435
0.00474196
0.00565917
0.00654489
0.00737829
0.00813904
0.00880774
0.00936643
0.00979929
0.0100934
0.0102397
-0.00241318
-0.00224735
-0.00191416
-0.00142488
-0.000794906
-4.28035e-05
0.000810792
0.00174402
0.00273441
0.00375924
0.0047957
0.00582097
0.0068122
0.00774661
0.00860162
0.00935526
0.00998673
0.0104773
0.0108115
0.0109778
-0.00332261
-0.00313116
-0.00274727
-0.00218533
-0.00146451
-0.0006073
0.000362019
0.00141844
0.00253687
0.00369247
0.00486062
0.00601679
0.00713632
0.00819428
0.00916547
0.0100247
0.0107476
0.0113113
0.0116965
0.0118886
-0.00443085
-0.00420649
-0.00375798
-0.00310441
-0.00227044
-0.00128395
-0.000173952
0.00103072
0.00230207
0.00361309
0.0049375
0.00624925
0.00752202
0.00872871
0.00984119
0.0108304
0.0116671
0.0123231
0.0127735
0.0129988
-0.00577191
-0.00550478
-0.00497321
-0.0042037
-0.00322896
-0.0020843
-0.000804822
0.000576114
0.00202745
0.00352024
0.005027
0.00652073
0.00797389
0.00935746
0.0106402
0.0117885
0.012767
0.0135399
0.0140741
0.0143426
-0.00738982
-0.00706583
-0.00642578
-0.00550819
-0.0043577
-0.00301988
-0.00153756
5.07739e-05
0.00171113
0.00341329
0.00512951
0.00683285
0.00849553
0.0100872
0.0115739
0.0129166
0.0140722
0.0149946
0.0156383
0.0159644
-0.00934286
-0.0089405
-0.0081554
-0.00704588
-0.00567447
-0.00410071
-0.00237693
-0.000547082
0.00135265
0.00329211
0.00524488
0.00718579
0.00908841
0.0109225
0.0126519
0.0142321
0.0156106
0.0167269
0.0175174
0.017923
-0.0117105
-0.0111944
-0.0102094
-0.00884651
-0.00719495
-0.00533276
-0.00332338
-0.0012156
0.000953934
0.00315737
0.00537211
0.00757727
0.00975029
0.0118633
0.0138797
0.0157505
0.0174117
0.0187842
0.0197775
0.0202986
-0.0146063
-0.0139129
-0.0126423
-0.0109384
-0.00892839
-0.00671407
-0.00436989
-0.00194708
0.000520557
0.003011
0.00550897
0.00800136
0.010473
0.0129021
0.0152549
0.0174802
0.0195032
0.0212211
0.0225043
0.023206
-0.0182014
-0.0172058
-0.0155132
-0.0133412
-0.0108706
-0.00822884
-0.00549763
-0.00272512
6.33563e-05
0.00285669
0.00565149
0.00844688
0.0112397
0.0140191
0.0167605
0.019416
0.021904
0.024096
0.0258082
0.0268187
-0.0227725
-0.0212092
-0.0188751
-0.016053
-0.0129924
-0.0098389
-0.00667044
-0.00352139
-0.000399944
0.00270041
0.00579359
0.00889585
0.0120214
0.0151776
0.018357
0.0215267
0.0246096
0.0274601
0.0298253
0.0314168
-0.0287851
-0.0260711
-0.0227464
-0.0190253
-0.0152215
-0.0114725
-0.00782865
-0.00429268
-0.000843573
0.00255075
0.00592683
0.00932253
0.0127748
0.0163168
0.019971
0.0237371
0.0275676
0.0313275
0.0347015
0.0374757
-0.0373417
-0.0318937
-0.0270563
-0.0221237
-0.0174182
-0.0130118
-0.00888431
-0.00497989
-0.00123371
0.00241888
0.00604061
0.00969353
0.0134408
0.0173483
0.0214827
0.0259035
0.0306364
0.0356158
0.0405235
0.0460768
-0.046712
-0.0380382
-0.0314319
-0.0250298
-0.0193372
-0.0142841
-0.00972215
-0.0055107
-0.00153082
0.00231758
0.00612297
0.00997005
0.0139476
0.0181563
0.0227168
0.0277732
0.0334815
0.0399314
0.0465853
0.055583
-0.0771954
-0.0469564
-0.0364949
-0.0275248
-0.0206811
-0.0150671
-0.0102002
-0.00580149
-0.00169053
0.00226302
0.00616561
0.0101167
0.0142228
0.0186151
0.0234765
0.0290937
0.0359614
0.0450659
0.0557203
0.0863144
-4.44129e-08
0.000102508
0.00030932
0.000614939
0.00101145
0.0014887
0.00203463
0.00263562
0.0032768
0.00394248
0.00461642
0.00528224
0.00592369
0.00652504
0.00707141
0.00754911
0.00794606
0.00825205
0.00845913
0.00856182
-0.000102262
2.85696e-06
0.000214824
0.000527995
0.000934196
0.00142298
0.00198195
0.00259714
0.00325336
0.00393456
0.0046242
0.00530555
0.00596206
0.00657764
0.00713708
0.00762636
0.00803303
0.00834661
0.00855886
0.00866413
-0.000313936
-0.000203475
1.92154e-05
0.000348084
0.000774412
0.00128711
0.00187308
0.00251766
0.00320494
0.00391821
0.00464026
0.0053537
0.00604132
0.00668635
0.00727286
0.00778613
0.00821301
0.00854235
0.00876538
0.00887602
-0.000640461
-0.000521679
-0.000282315
7.09216e-05
0.00052843
0.00107809
0.00170571
0.00239552
0.00313057
0.00389309
0.0046649
0.00542764
0.00616308
0.00685345
0.00748174
0.0080321
0.00849028
0.00884409
0.00908388
0.00920288
-0.00109047
-0.000960059
-0.000697431
-0.000310285
0.000190476
0.000791235
0.00147625
0.00222822
0.00302874
0.0038587
0.0046986
0.00552882
0.00632985
0.00708252
0.00776837
0.00837002
0.00887164
0.00925952
0.00952269
0.00965339
-0.00167603
-0.00153019
-0.00123675
-0.000804866
-0.000247304
0.000420239
0.00117991
0.00201241
0.00289748
0.00381435
0.00474196
0.00565917
0.00654489
0.00737829
0.00813904
0.00880775
0.00936643
0.00979929
0.0100934
0.0102397
-0.00241317
-0.00224734
-0.00191416
-0.00142487
-0.000794902
-4.27996e-05
0.000810796
0.00174403
0.00273442
0.00375925
0.00479571
0.00582097
0.0068122
0.00774661
0.00860162
0.00935526
0.00998673
0.0104773
0.0108115
0.0109778
-0.00332259
-0.00313114
-0.00274727
-0.00218532
-0.0014645
-0.000607291
0.000362028
0.00141844
0.00253688
0.00369247
0.00486062
0.00601678
0.00713631
0.00819427
0.00916546
0.0100247
0.0107476
0.0113113
0.0116965
0.0118886
-0.00443083
-0.00420648
-0.00375796
-0.00310439
-0.00227043
-0.00128393
-0.000173936
0.00103073
0.00230208
0.0036131
0.00493749
0.00624924
0.00752201
0.0087287
0.00984118
0.0108304
0.0116671
0.0123231
0.0127735
0.0129988
-0.00577188
-0.00550476
-0.00497318
-0.00420367
-0.00322894
-0.00208427
-0.000804796
0.000576134
0.00202746
0.00352024
0.005027
0.00652072
0.00797387
0.00935743
0.0106402
0.0117885
0.012767
0.0135399
0.0140741
0.0143426
-0.00738978
-0.00706579
-0.00642574
-0.00550814
-0.00435766
-0.00301984
-0.00153752
5.08028e-05
0.00171114
0.0034133
0.0051295
0.00683284
0.0084955
0.0100872
0.0115738
0.0129165
0.0140722
0.0149945
0.0156383
0.0159644
-0.00934281
-0.00894044
-0.00815534
-0.00704581
-0.0056744
-0.00410065
-0.00237688
-0.000547042
0.00135268
0.00329212
0.00524487
0.00718576
0.00908837
0.0109225
0.0126518
0.0142321
0.0156105
0.0167268
0.0175174
0.0179229
-0.0117105
-0.0111943
-0.0102092
-0.0088464
-0.00719484
-0.00533267
-0.0033233
-0.00121555
0.000953963
0.00315738
0.0053721
0.00757724
0.00975023
0.0118633
0.0138797
0.0157504
0.0174116
0.0187841
0.0197774
0.0202985
-0.0146062
-0.0139127
-0.0126421
-0.0109382
-0.00892824
-0.00671394
-0.00436979
-0.00194702
0.000520592
0.00301101
0.00550895
0.00800132
0.0104729
0.012902
0.0152547
0.0174801
0.0195031
0.0212209
0.0225042
0.023206
-0.0182013
-0.0172055
-0.015513
-0.013341
-0.0108704
-0.00822868
-0.00549752
-0.00272505
6.33912e-05
0.00285669
0.00565147
0.00844682
0.0112396
0.014019
0.0167603
0.0194158
0.0219038
0.0240958
0.0258081
0.0268188
-0.0227724
-0.0212088
-0.0188747
-0.0160526
-0.0129921
-0.00983871
-0.00667032
-0.00352132
-0.000399916
0.0027004
0.00579356
0.00889578
0.0120213
0.0151774
0.0183568
0.0215264
0.0246092
0.0274597
0.0298251
0.0314169
-0.0287851
-0.0260704
-0.0227457
-0.0190248
-0.0152212
-0.0114723
-0.00782854
-0.00429263
-0.000843561
0.00255073
0.00592678
0.00932245
0.0127747
0.0163166
0.0199707
0.0237367
0.0275671
0.0313269
0.0347009
0.0374759
-0.037342
-0.0318924
-0.0270553
-0.0221231
-0.0174179
-0.0130116
-0.00888425
-0.00497988
-0.00123372
0.00241884
0.00604055
0.00969344
0.0134407
0.0173481
0.0214824
0.025903
0.0306357
0.0356149
0.0405223
0.0460775
-0.0467092
-0.038035
-0.0314306
-0.0250293
-0.019337
-0.014284
-0.00972217
-0.00551075
-0.00153087
0.00231752
0.0061229
0.00996996
0.0139474
0.0181561
0.0227165
0.0277727
0.0334808
0.03993
0.046582
0.0555809
-0.0771996
-0.0469539
-0.0364952
-0.027525
-0.0206813
-0.0150672
-0.0102003
-0.00580158
-0.0016906
0.00226294
0.00616553
0.0101166
0.0142227
0.018615
0.0234764
0.0290935
0.0359613
0.0450661
0.0557182
0.0863198
-5.03447e-08
0.000102501
0.000309311
0.000614929
0.00101144
0.00148869
0.00203463
0.00263561
0.0032768
0.00394248
0.00461642
0.00528224
0.00592369
0.00652505
0.00707142
0.00754913
0.00794607
0.00825206
0.00845914
0.00856183
-0.000102266
2.85108e-06
0.000214817
0.000527987
0.000934188
0.00142297
0.00198195
0.00259714
0.00325336
0.00393456
0.0046242
0.00530556
0.00596206
0.00657765
0.00713709
0.00762637
0.00803304
0.00834661
0.00855887
0.00866414
-0.000313938
-0.000203478
1.92104e-05
0.000348078
0.000774406
0.0012871
0.00187308
0.00251765
0.00320494
0.00391821
0.00464026
0.00535371
0.00604132
0.00668635
0.00727287
0.00778614
0.00821302
0.00854235
0.00876538
0.00887602
-0.00064046
-0.00052168
-0.000282317
7.09184e-05
0.000528426
0.00107809
0.00170571
0.00239552
0.00313056
0.00389309
0.0046649
0.00542764
0.00616309
0.00685345
0.00748174
0.0080321
0.00849028
0.0088441
0.00908388
0.00920288
-0.00109047
-0.000960056
-0.000697431
-0.000310285
0.000190475
0.000791234
0.00147625
0.00222822
0.00302874
0.0038587
0.0046986
0.00552883
0.00632985
0.00708252
0.00776837
0.00837002
0.00887164
0.00925953
0.00952269
0.00965338
-0.00167603
-0.00153018
-0.00123675
-0.000804863
-0.000247301
0.000420241
0.00117992
0.00201241
0.00289748
0.00381435
0.00474196
0.00565917
0.00654489
0.00737829
0.00813904
0.00880775
0.00936643
0.00979929
0.0100934
0.0102397
-0.00241316
-0.00224733
-0.00191415
-0.00142487
-0.000794896
-4.27938e-05
0.000810801
0.00174403
0.00273442
0.00375925
0.00479571
0.00582097
0.0068122
0.00774661
0.00860162
0.00935526
0.00998673
0.0104773
0.0108115
0.0109778
-0.00332258
-0.00313113
-0.00274725
-0.00218531
-0.00146449
-0.00060728
0.000362038
0.00141845
0.00253688
0.00369248
0.00486062
0.00601678
0.00713631
0.00819426
0.00916546
0.0100247
0.0107475
0.0113113
0.0116965
0.0118886
-0.00443081
-0.00420646
-0.00375794
-0.00310437
-0.00227041
-0.00128392
-0.00017392
0.00103074
0.00230209
0.0036131
0.00493749
0.00624924
0.007522
0.00872869
0.00984116
0.0108304
0.0116671
0.0123231
0.0127735
0.0129988
-0.00577184
-0.00550473
-0.00497315
-0.00420364
-0.0032289
-0.00208425
-0.000804773
0.000576152
0.00202747
0.00352025
0.00502699
0.00652071
0.00797386
0.00935741
0.0106402
0.0117885
0.012767
0.0135399
0.0140741
0.0143426
-0.00738974
-0.00706575
-0.0064257
-0.00550809
-0.00435761
-0.0030198
-0.00153748
5.08281e-05
0.00171116
0.0034133
0.0051295
0.00683282
0.00849548
0.0100872
0.0115738
0.0129165
0.0140721
0.0149945
0.0156383
0.0159644
-0.00934275
-0.00894038
-0.00815527
-0.00704574
-0.00567433
-0.00410059
-0.00237683
-0.000547008
0.0013527
0.00329212
0.00524486
0.00718574
0.00908833
0.0109224
0.0126517
0.014232
0.0156105
0.0167268
0.0175174
0.0179229
-0.0117104
-0.0111942
-0.0102091
-0.0088463
-0.00719475
-0.00533259
-0.00332324
-0.00121551
0.000953987
0.00315739
0.00537208
0.00757721
0.00975018
0.0118632
0.0138796
0.0157503
0.0174115
0.018784
0.0197774
0.0202985
-0.0146061
-0.0139126
-0.012642
-0.010938
-0.00892811
-0.00671384
-0.00436971
-0.00194696
0.000520619
0.00301101
0.00550893
0.00800127
0.0104729
0.0129019
0.0152546
0.01748
0.019503
0.0212208
0.0225041
0.0232059
-0.0182011
-0.0172053
-0.0155127
-0.0133408
-0.0108702
-0.00822855
-0.00549742
-0.00272499
6.34185e-05
0.00285669
0.00565144
0.00844676
0.0112395
0.0140189
0.0167602
0.0194156
0.0219036
0.0240956
0.0258079
0.0268187
-0.0227721
-0.0212085
-0.0188744
-0.0160523
-0.0129919
-0.00983855
-0.00667022
-0.00352126
-0.000399893
0.0027004
0.00579352
0.00889571
0.0120212
0.0151772
0.0183566
0.0215261
0.024609
0.0274595
0.0298248
0.0314168
-0.0287848
-0.0260699
-0.0227453
-0.0190245
-0.015221
-0.0114722
-0.00782844
-0.00429258
-0.000843549
0.00255071
0.00592674
0.00932237
0.0127746
0.0163164
0.0199705
0.0237364
0.0275667
0.0313265
0.0347005
0.0374758
-0.0373416
-0.0318916
-0.0270547
-0.0221227
-0.0174176
-0.0130115
-0.00888418
-0.00497985
-0.00123373
0.00241881
0.0060405
0.00969336
0.0134406
0.0173479
0.0214821
0.0259027
0.0306352
0.0356143
0.0405217
0.0460774
-0.0467083
-0.0380337
-0.0314299
-0.0250289
-0.0193368
-0.0142839
-0.00972213
-0.00551075
-0.0015309
0.00231748
0.00612283
0.00996987
0.0139473
0.0181559
0.0227162
0.0277724
0.0334803
0.0399293
0.0465809
0.0555803
-0.0772004
-0.046953
-0.0364949
-0.0275249
-0.0206812
-0.0150672
-0.0102003
-0.00580161
-0.00169064
0.00226289
0.00616546
0.0101165
0.0142226
0.0186148
0.0234762
0.0290933
0.0359611
0.0450659
0.0557175
0.0863211
-5.42093e-08
0.000102496
0.000309306
0.000614923
0.00101143
0.00148869
0.00203462
0.00263561
0.0032768
0.00394248
0.00461643
0.00528225
0.0059237
0.00652505
0.00707142
0.00754913
0.00794608
0.00825206
0.00845914
0.00856183
-0.000102269
2.84744e-06
0.000214813
0.000527982
0.000934184
0.00142297
0.00198195
0.00259714
0.00325336
0.00393456
0.0046242
0.00530556
0.00596206
0.00657765
0.0071371
0.00762638
0.00803305
0.00834662
0.00855888
0.00866415
-0.000313939
-0.00020348
1.92077e-05
0.000348075
0.000774403
0.0012871
0.00187308
0.00251765
0.00320494
0.00391821
0.00464026
0.00535371
0.00604132
0.00668636
0.00727288
0.00778615
0.00821302
0.00854236
0.00876539
0.00887602
-0.000640459
-0.00052168
-0.000282318
7.09171e-05
0.000528425
0.00107808
0.00170571
0.00239552
0.00313056
0.00389309
0.00466491
0.00542764
0.00616309
0.00685346
0.00748174
0.00803211
0.00849029
0.0088441
0.00908388
0.00920288
-0.00109046
-0.000960053
-0.000697429
-0.000310284
0.000190475
0.000791234
0.00147625
0.00222822
0.00302874
0.0038587
0.0046986
0.00552883
0.00632985
0.00708252
0.00776837
0.00837002
0.00887164
0.00925953
0.00952269
0.00965338
-0.00167602
-0.00153017
-0.00123674
-0.000804859
-0.000247298
0.000420244
0.00117992
0.00201241
0.00289748
0.00381435
0.00474196
0.00565917
0.00654489
0.00737829
0.00813904
0.00880775
0.00936643
0.00979929
0.0100934
0.0102397
-0.00241315
-0.00224732
-0.00191414
-0.00142486
-0.000794889
-4.27871e-05
0.000810807
0.00174403
0.00273442
0.00375925
0.0047957
0.00582097
0.0068122
0.0077466
0.00860162
0.00935525
0.00998672
0.0104773
0.0108115
0.0109778
-0.00332256
-0.00313111
-0.00274724
-0.00218529
-0.00146448
-0.000607268
0.000362047
0.00141846
0.00253689
0.00369248
0.00486062
0.00601678
0.0071363
0.00819426
0.00916545
0.0100247
0.0107475
0.0113113
0.0116965
0.0118886
-0.00443078
-0.00420643
-0.00375792
-0.00310435
-0.00227039
-0.0012839
-0.000173906
0.00103076
0.0023021
0.0036131
0.00493749
0.00624923
0.00752199
0.00872868
0.00984115
0.0108304
0.0116671
0.0123231
0.0127735
0.0129988
-0.00577181
-0.00550469
-0.00497312
-0.00420361
-0.00322888
-0.00208422
-0.000804752
0.000576167
0.00202748
0.00352025
0.00502699
0.0065207
0.00797384
0.00935739
0.0106401
0.0117885
0.0127669
0.0135399
0.0140741
0.0143426
-0.00738969
-0.0070657
-0.00642565
-0.00550805
-0.00435757
-0.00301976
-0.00153745
5.08496e-05
0.00171117
0.00341331
0.00512949
0.00683281
0.00849546
0.0100871
0.0115737
0.0129165
0.0140721
0.0149945
0.0156383
0.0159643
-0.00934268
-0.00894031
-0.00815521
-0.00704567
-0.00567428
-0.00410054
-0.00237679
-0.000546979
0.00135271
0.00329213
0.00524485
0.00718572
0.0090883
0.0109224
0.0126517
0.014232
0.0156104
0.0167267
0.0175173
0.0179229
-0.0117103
-0.0111942
-0.0102091
-0.00884621
-0.00719467
-0.00533252
-0.00332319
-0.00121547
0.000954006
0.00315739
0.00537207
0.00757718
0.00975014
0.0118631
0.0138795
0.0157502
0.0174114
0.018784
0.0197773
0.0202984
-0.014606
-0.0139125
-0.0126418
-0.0109379
-0.008928
-0.00671375
-0.00436965
-0.00194692
0.00052064
0.00301101
0.00550891
0.00800124
0.0104728
0.0129018
0.0152545
0.0174799
0.0195029
0.0212207
0.022504
0.0232059
-0.018201
-0.0172051
-0.0155126
-0.0133406
-0.0108701
-0.00822844
-0.00549735
-0.00272494
6.34399e-05
0.00285669
0.00565141
0.00844672
0.0112394
0.0140188
0.01676
0.0194155
0.0219034
0.0240954
0.0258078
0.0268186
-0.022772
-0.0212082
-0.0188741
-0.0160521
-0.0129917
-0.00983843
-0.00667013
-0.00352122
-0.000399874
0.00270039
0.00579349
0.00889566
0.0120211
0.0151771
0.0183565
0.0215259
0.0246087
0.0274592
0.0298246
0.0314167
-0.0287846
-0.0260695
-0.0227449
-0.0190242
-0.0152208
-0.0114721
-0.00782836
-0.00429254
-0.000843537
0.0025507
0.0059267
0.0093223
0.0127745
0.0163163
0.0199703
0.0237362
0.0275665
0.0313262
0.0347002
0.0374757
-0.0373414
-0.0318912
-0.0270543
-0.0221224
-0.0174174
-0.0130114
-0.00888411
-0.00497982
-0.00123373
0.00241879
0.00604045
0.00969328
0.0134405
0.0173477
0.0214819
0.0259024
0.0306349
0.0356139
0.0405214
0.0460773
-0.0467077
-0.038033
-0.0314295
-0.0250286
-0.0193366
-0.0142838
-0.00972209
-0.00551073
-0.00153091
0.00231744
0.00612278
0.00996979
0.0139472
0.0181558
0.022716
0.0277721
0.0334799
0.0399289
0.0465804
0.05558
-0.0772005
-0.0469525
-0.0364946
-0.0275247
-0.0206811
-0.0150671
-0.0102003
-0.0058016
-0.00169066
0.00226285
0.00616541
0.0101164
0.0142225
0.0186147
0.023476
0.0290931
0.0359609
0.0450657
0.0557172
0.0863216
-5.66782e-08
0.000102493
0.000309303
0.00061492
0.00101143
0.00148868
0.00203462
0.00263561
0.0032768
0.00394248
0.00461643
0.00528225
0.0059237
0.00652506
0.00707143
0.00754914
0.00794608
0.00825207
0.00845915
0.00856184
-0.000102271
2.84534e-06
0.00021481
0.000527979
0.000934181
0.00142297
0.00198194
0.00259714
0.00325336
0.00393456
0.0046242
0.00530556
0.00596207
0.00657766
0.0071371
0.00762638
0.00803305
0.00834662
0.00855888
0.00866415
-0.00031394
-0.000203481
1.92064e-05
0.000348073
0.000774401
0.0012871
0.00187308
0.00251765
0.00320494
0.00391821
0.00464026
0.00535371
0.00604133
0.00668636
0.00727288
0.00778615
0.00821303
0.00854236
0.00876539
0.00887603
-0.000640458
-0.000521679
-0.000282318
7.09171e-05
0.000528425
0.00107808
0.00170571
0.00239552
0.00313056
0.00389309
0.00466491
0.00542764
0.00616309
0.00685346
0.00748175
0.00803211
0.00849029
0.0088441
0.00908388
0.00920288
-0.00109046
-0.00096005
-0.000697426
-0.000310282
0.000190477
0.000791236
0.00147625
0.00222822
0.00302874
0.0038587
0.0046986
0.00552883
0.00632985
0.00708252
0.00776837
0.00837002
0.00887164
0.00925953
0.00952269
0.00965338
-0.00167601
-0.00153017
-0.00123674
-0.000804854
-0.000247294
0.000420248
0.00117992
0.00201241
0.00289748
0.00381435
0.00474196
0.00565917
0.00654489
0.00737829
0.00813904
0.00880774
0.00936643
0.00979929
0.0100934
0.0102397
-0.00241314
-0.00224731
-0.00191413
-0.00142485
-0.000794881
-4.27807e-05
0.000810812
0.00174404
0.00273443
0.00375925
0.0047957
0.00582097
0.00681219
0.0077466
0.00860161
0.00935525
0.00998672
0.0104773
0.0108115
0.0109778
-0.00332254
-0.0031311
-0.00274722
-0.00218528
-0.00146446
-0.000607258
0.000362056
0.00141846
0.00253689
0.00369248
0.00486062
0.00601677
0.0071363
0.00819425
0.00916544
0.0100247
0.0107475
0.0113113
0.0116965
0.0118886
-0.00443076
-0.00420641
-0.0037579
-0.00310433
-0.00227037
-0.00128388
-0.000173893
0.00103077
0.0023021
0.0036131
0.00493749
0.00624922
0.00752198
0.00872867
0.00984114
0.0108304
0.0116671
0.0123231
0.0127735
0.0129988
-0.00577178
-0.00550466
-0.00497309
-0.00420358
-0.00322885
-0.0020842
-0.000804734
0.00057618
0.00202749
0.00352025
0.00502699
0.00652069
0.00797383
0.00935738
0.0106401
0.0117884
0.0127669
0.0135398
0.014074
0.0143426
-0.00738965
-0.00706566
-0.00642561
-0.00550801
-0.00435753
-0.00301973
-0.00153743
5.08669e-05
0.00171118
0.00341331
0.00512949
0.00683279
0.00849544
0.0100871
0.0115737
0.0129164
0.0140721
0.0149944
0.0156383
0.0159643
-0.00934263
-0.00894026
-0.00815515
-0.00704562
-0.00567423
-0.0041005
-0.00237676
-0.000546957
0.00135272
0.00329213
0.00524484
0.0071857
0.00908828
0.0109224
0.0126517
0.0142319
0.0156104
0.0167267
0.0175173
0.0179228
-0.0117102
-0.0111941
-0.010209
-0.00884614
-0.0071946
-0.00533247
-0.00332315
-0.00121544
0.000954021
0.00315739
0.00537206
0.00757716
0.00975011
0.0118631
0.0138795
0.0157502
0.0174114
0.0187839
0.0197773
0.0202984
-0.0146059
-0.0139124
-0.0126417
-0.0109378
-0.00892792
-0.00671368
-0.0043696
-0.00194689
0.000520656
0.00301102
0.00550889
0.00800121