/*--------------------------------*- C++ -*----------------------------------*\
  =========                 |
  \\      /  F ield         | OpenFOAM: The Open Source CFD Toolbox
   \\    /   O peration     | Website:  https://openfoam.org
    \\  /    A nd           | Version:  10
     \\/     M anipulation  |
\*---------------------------------------------------------------------------*/
FoamFile
{
    format      ascii;
    class       volScalarField;
    location    "6";
    object      p;
}
// * * * * * * * * * * * * * * * * * * * * * * * * * * * * * * * * * * * * * //

dimensions      [0 2 -2 0 0 0 0];

internalField   nonuniform List<scalar> 
8000
(
1.35587e-08
-2.41286e-06
3.05173e-05
9.81981e-05
0.000202173
0.000343829
0.000524136
0.000743438
0.00100116
0.00129572
0.00162304
0.00197629
0.00234518
0.00271594
0.00307097
0.00339038
0.00365372
0.00384351
0.00394838
0.00396235
-1.6985e-07
-2.92487e-06
3.09853e-05
9.83182e-05
0.000200575
0.000339662
0.000516863
0.000732915
0.00098767
0.00127955
0.00160484
0.00195704
0.00232623
0.0026986
0.00305683
0.00338039
0.00364815
0.00384218
0.0039503
0.00396249
-4.55124e-05
-5.07182e-05
-1.81677e-05
4.71476e-05
0.000146634
0.000282546
0.0004566
0.000670115
0.000923645
0.00121639
0.00154549
0.00190522
0.00228617
0.00267462
0.00305222
0.00339666
0.00368395
0.003893
0.00400878
0.00401777
-0.000137211
-0.000144876
-0.000114694
-5.2585e-05
4.29496e-05
0.000174601
0.000344716
0.00055547
0.000808501
0.00110429
0.00144138
0.00181535
0.00221769
0.00263481
0.00304719
0.00342923
0.00375194
0.00398846
0.00411878
0.00412561
-0.000277753
-0.000287858
-0.000260824
-0.000203096
-0.000112937
1.28965e-05
0.000177551
0.000384329
0.000636332
0.000935851
0.00128348
0.00167687
0.00210919
0.00256742
0.0030309
0.00346966
0.00384723
0.00412733
0.00428151
0.00428666
-0.000468726
-0.000481676
-0.00045876
-0.0004069
-0.000324095
-0.000206509
-5.00845e-05
0.000149812
0.000398106
0.000699448
0.0010573
0.00147249
0.00194111
0.00245193
0.00298381
0.0035021
0.00395996
0.00430638
0.00449812
0.00450151
-0.000711014
-0.000727441
-0.000709832
-0.000665749
-0.000593027
-0.000487297
-0.000343601
-0.000155887
8.28486e-05
0.000380126
0.000743167
0.0011774
0.00168378
0.0022551
0.00287186
0.00349617
0.00406824
0.00451475
0.0047665
0.00476917
-0.00100533
-0.00102597
-0.00101501
-0.000980989
-0.000921806
-0.000832791
-0.000708287
-0.000540948
-0.000321674
-3.97794e-05
0.000316451
0.000758429
0.0012946
0.00192581
0.00263923
0.00339637
0.00412683
0.00472525
0.00507682
0.0050867
-0.0013524
-0.00137799
-0.00137497
-0.00135339
-0.00131166
-0.00124527
-0.00114831
-0.00101261
-0.000827397
-0.000579027
-0.000251052
0.000175089
0.000717779
0.00138989
0.00219709
0.00309957
0.00404226
0.00487238
0.00539879
0.0054498
-0.0017532
-0.00178431
-0.00179005
-0.00178284
-0.00176234
-0.0017249
-0.00166519
-0.00157514
-0.00144333
-0.00125431
-0.000987832
-0.00061832
-0.00011519
0.000554069
0.00140305
0.00241182
0.00361863
0.00479804
0.00564553
0.00585449
-0.00220959
-0.00224632
-0.00226042
-0.00226812
-0.00227144
-0.00226862
-0.00225603
-0.00222713
-0.00217175
-0.00207515
-0.00191656
-0.00166743
-0.00128949
-0.000733369
6.22027e-05
0.00117426
0.0024642
0.00412693
0.0055658
0.00626674
-0.0027256
-0.00276704
-0.00278664
-0.0028069
-0.00283386
-0.00286892
-0.00291151
-0.0029584
-0.00300332
-0.00303621
-0.00304182
-0.00299755
-0.00287035
-0.00261071
-0.00213672
-0.00129514
0.000148162
0.00211138
0.0045334
0.00648139
-0.00330997
-0.00335318
-0.00337082
-0.00339608
-0.00344157
-0.00351312
-0.00361438
-0.00374721
-0.00391218
-0.00410885
-0.00433575
-0.00459015
-0.00486734
-0.00515589
-0.00540592
-0.00540782
-0.00459595
-0.00222351
0.00183976
0.00612657
-0.00398097
-0.00401845
-0.004018
-0.00403226
-0.00408368
-0.00418319
-0.00433903
-0.00455907
-0.00485295
-0.0052343
-0.00572377
-0.00635345
-0.00717284
-0.0082462
-0.00959384
-0.0109154
-0.0110378
-0.00811486
-0.00188054
0.00525416
-0.00477851
-0.00479411
-0.0047433
-0.0047156
-0.00474871
-0.00485758
-0.0050533
-0.00534869
-0.00576252
-0.00632399
-0.00707991
-0.00810436
-0.00951157
-0.0114381
-0.0139392
-0.0166041
-0.0176721
-0.0143946
-0.00678446
0.00375382
-0.00577584
-0.0057221
-0.00555196
-0.00543525
-0.00541809
-0.00551045
-0.00572155
-0.00606596
-0.00656939
-0.00727361
-0.00824805
-0.00959983
-0.0114962
-0.014123
-0.0175385
-0.0214372
-0.0242321
-0.0222427
-0.0144528
0.000863077
-0.00713303
-0.00696761
-0.0065581
-0.00624882
-0.00611016
-0.00613501
-0.00631886
-0.00666835
-0.00721072
-0.00799186
-0.00909391
-0.010624
-0.0128215
-0.0158892
-0.0199617
-0.0249183
-0.0302085
-0.0299344
-0.0214533
0.000801096
-0.00962813
-0.00858631
-0.00749958
-0.00693231
-0.00668127
-0.00664085
-0.00678347
-0.00710408
-0.00764426
-0.00843028
-0.00955638
-0.0111337
-0.0134073
-0.016589
-0.0209369
-0.0263057
-0.0321317
-0.0305886
-0.0169011
0.0197431
-0.011604
-0.0117163
-0.00969065
-0.00840359
-0.00772622
-0.00741514
-0.00737458
-0.00755019
-0.00800613
-0.00871787
-0.00979489
-0.0113092
-0.0135401
-0.0165589
-0.0205825
-0.0247596
-0.0273994
-0.0181897
0.0104343
0.0737447
-0.0298392
-0.0130207
-0.0078005
-0.00661904
-0.00618879
-0.00598124
-0.00606663
-0.00639379
-0.00701218
-0.00784243
-0.0091029
-0.0107437
-0.0131919
-0.0161322
-0.0195491
-0.0208181
-0.0162136
0.00743107
0.0612781
0.152077
3.59681e-06
-7.1373e-06
2.3322e-05
9.05992e-05
0.00019486
0.000337186
0.000518444
0.00073926
0.000999395
0.00129676
0.0016274
0.00198449
0.00235783
0.00273349
0.00309372
0.00341797
0.00368475
0.00387533
0.0039765
0.00397811
1.20829e-05
1.44101e-06
3.41245e-05
0.000101265
0.000203422
0.000342504
0.000519789
0.000736094
0.000991358
0.00128406
0.0016106
0.00196453
0.00233598
0.00271131
0.00307275
0.00339941
0.00366935
0.00386381
0.00396904
0.00396791
-2.90114e-05
-4.3596e-05
-1.22347e-05
5.29062e-05
0.000152182
0.000287906
0.000461808
0.000675278
0.000928956
0.00122216
0.00155219
0.00191346
0.00229671
0.00268817
0.00306933
0.00341734
0.0037072
0.00391684
0.00402924
0.00402171
-0.000118147
-0.000136235
-0.00010731
-4.53764e-05
4.99167e-05
0.000181339
0.000351256
0.000561928
0.000815109
0.00111143
0.00144961
0.00182542
0.00223056
0.00265159
0.00306857
0.00345533
0.00378156
0.00401897
0.00414514
0.00413213
-0.000256784
-0.000278043
-0.000252288
-0.000194686
-0.00010472
2.09499e-05
0.000185501
0.000392336
0.000644703
0.000945073
0.00129427
0.0016902
0.0021262
0.00258988
0.00305976
0.0035052
0.00388786
0.00416935
0.00431817
0.00429907
-0.000446009
-0.000470848
-0.000449211
-0.000397378
-0.000314654
-0.000197083
-4.05563e-05
0.000159682
0.000408738
0.000711498
0.00107174
0.00149063
0.00196436
0.00248308
0.00302454
0.00355302
0.00401889
0.00436776
0.0045523
0.0045244
-0.000686394
-0.000715559
-0.000699219
-0.000655039
-0.000582258
-0.000476355
-0.000332291
-0.000143852
9.6192e-05
0.000395679
0.000762297
0.00120201
0.00171648
0.00229847
0.00293062
0.00357155
0.0041573
0.00460896
0.00485097
0.00481057
-0.000978493
-0.00101289
-0.0010032
-0.000968954
-0.000909586
-0.000820219
-0.000695066
-0.000526569
-0.000305326
-2.02214e-05
0.00034111
0.000790987
0.00133861
0.00198436
0.00272421
0.00351058
0.00426619
0.00487659
0.00521607
0.00516303
-0.00132292
-0.00136349
-0.00136177
-0.00133988
-0.00129791
-0.00123104
-0.0011332
-0.000995927
-0.00080804
-0.000555308
-0.000220358
0.000216817
0.000775224
0.00145879
0.00231741
0.00327735
0.00426693
0.00512648
0.00564264
0.00560055
-0.0017205
-0.0017681
-0.00177522
-0.0017677
-0.001747
-0.00170911
-0.00164841
-0.00155649
-0.00142138
-0.00122683
-0.000951222
-0.000566568
-3.72855e-05
0.00068433
0.00157722
0.00270107
0.00398864
0.00524241
0.00610451
0.0061965
-0.00217281
-0.00222792
-0.00224359
-0.0022511
-0.00225447
-0.00225143
-0.00223799
-0.00220717
-0.00214813
-0.00204507
-0.00187545
-0.00160767
-0.00119806
-0.000589418
0.000278783
0.00148076
0.00305036
0.00488227
0.00644203
0.00710815
-0.00268335
-0.00274562
-0.00276712
-0.00278753
-0.00281508
-0.00285048
-0.00289271
-0.00293803
-0.00297942
-0.00300553
-0.00299892
-0.00293346
-0.0027707
-0.00245477
-0.00189927
-0.000949405
0.000648883
0.0030499
0.0058464
0.00815794
-0.00325979
-0.00332723
-0.00334738
-0.00337342
-0.00342042
-0.00349329
-0.00359514
-0.0037273
-0.00388954
-0.00408006
-0.00429511
-0.00452871
-0.00477426
-0.00503012
-0.00527876
-0.00532974
-0.00453406
-0.00198187
0.00257134
0.0081276
-0.00391769
-0.00398388
-0.00398701
-0.00400358
-0.00405842
-0.00416098
-0.00431894
-0.00453978
-0.00483246
-0.00520935
-0.00568929
-0.00630324
-0.00710859
-0.00821915
-0.0097844
-0.0116496
-0.0125355
-0.0103068
-0.00412011
0.00542349
-0.00469325
-0.00474677
-0.00470309
-0.00467911
-0.00471737
-0.00483121
-0.00503094
-0.00532894
-0.00574331
-0.00630209
-0.00705092
-0.00806628
-0.00948475
-0.0115528
-0.0145813
-0.018478
-0.0215154
-0.020158
-0.0134203
-0.00028439
-0.00564389
-0.00563211
-0.00547073
-0.00536828
-0.00536668
-0.00547163
-0.00569197
-0.00604244
-0.00654797
-0.00724879
-0.0082133
-0.00955428
-0.0114771
-0.0143024
-0.0184452
-0.0239835
-0.0295139
-0.0301631
-0.0243662
-0.00648282
-0.00684101
-0.00681898
-0.00646249
-0.00617145
-0.00605065
-0.00609189
-0.00628888
-0.00664712
-0.0071902
-0.00795793
-0.00903437
-0.0105436
-0.0127368
-0.0159602
-0.020672
-0.0270478
-0.0351061
-0.0369843
-0.0319516
-0.00452474
-0.00927924
-0.00822526
-0.00713575
-0.00666187
-0.00650309
-0.00652942
-0.0067197
-0.00707319
-0.00761345
-0.00837909
-0.00946737
-0.0109715
-0.0131872
-0.0164468
-0.0212265
-0.0275078
-0.034645
-0.0350423
-0.023549
0.0204764
-0.00930896
-0.0108657
-0.00915612
-0.0080857
-0.00755035
-0.00734969
-0.00738271
-0.0076091
-0.00804741
-0.00871836
-0.00972362
-0.0111396
-0.0132761
-0.0163045
-0.0206138
-0.0252419
-0.0284864
-0.0199099
0.0116202
0.0818056
-0.0275065
-0.0116037
-0.00671669
-0.00580508
-0.00561479
-0.00555994
-0.00574731
-0.0061265
-0.00677185
-0.00759691
-0.00881847
-0.0104099
-0.0127999
-0.0158231
-0.0193996
-0.020919
-0.0156297
0.00966117
0.0713936
0.17372
1.17581e-05
-3.36444e-06
2.54562e-05
9.21646e-05
0.000196569
0.000339601
0.000522091
0.00074461
0.00100689
0.0013072
0.00164167
0.00200351
0.00238248
0.00276432
0.00313085
0.00346071
0.00373134
0.00392284
0.00402104
0.004014
2.63662e-05
1.07949e-05
4.23375e-05
0.000109035
0.000211034
0.00035026
0.000528009
0.000745163
0.00100177
0.00129646
0.00162574
0.00198325
0.00235922
0.00273974
0.00310664
0.00343829
0.0037117
0.00390707
0.0040098
0.00399998
-1.06182e-05
-3.10301e-05
-8.16405e-07
6.38397e-05
0.000162809
0.000298465
0.00047258
0.000686649
0.000941467
0.00123653
0.00156929
0.00193431
0.00232246
0.00271977
0.0031073
0.00346132
0.00375551
0.00396644
0.00407596
0.00405784
-9.64554e-05
-0.000121026
-9.33027e-05
-3.18891e-05
6.30361e-05
0.000194327
0.000364411
0.000575693
0.00083012
0.00112856
0.00146998
0.00185036
0.00226156
0.00269002
0.00311534
0.0035102
0.00384247
0.00408195
0.00420465
0.00417851
-0.000232177
-0.000260414
-0.000235877
-0.000178768
-8.91358e-05
3.64683e-05
0.000201317
0.000408995
0.000663
0.00096612
0.00131953
0.00172147
0.00216558
0.00263935
0.00312089
0.00357803
0.00396975
0.00425472
0.00439918
0.00436303
-0.000418479
-0.000450796
-0.000430364
-0.000378944
-0.00029645
-0.000178782
-2.16979e-05
0.000179798
0.000431135
0.000737614
0.00110351
0.00153053
0.00201555
0.00254861
0.00310721
0.0036535
0.00413383
0.00448897
0.00466783
0.00461611
-0.000655597
-0.000692813
-0.000677655
-0.000633787
-0.000561113
-0.000454921
-0.00030998
-0.000119767
0.000123378
0.000427855
0.000802077
0.00125286
0.00178235
0.00238606
0.00304395
0.00371297
0.00432293
0.00478663
0.00502139
0.00494487
-0.000943831
-0.000986963
-0.000978444
-0.000944438
-0.000885098
-0.000795293
-0.000668975
-0.000498182
-0.000272951
1.86154e-05
0.000390019
0.000854972
0.00142416
0.00210227
0.00287929
0.00371061
0.00450799
0.00514242
0.00547371
0.00536221
-0.00128354
-0.00133369
-0.00133318
-0.00131153
-0.00126962
-0.0012023
-0.00110315
-0.000963195
-0.000770524
-0.000509865
-0.000162252
0.000294731
0.000884575
0.00162294
0.00252532
0.00355666
0.00461898
0.00552774
0.00603774
0.00589996
-0.00167523
-0.00173342
-0.00174188
-0.00173476
-0.00171438
-0.00167628
-0.00161441
-0.00151972
-0.00137939
-0.00117587
-0.000885601
-0.000477583
8.62856e-05
0.000846395
0.00183433
0.00307225
0.00448474
0.0058413
0.00670706
0.0066559
-0.00211993
-0.00218688
-0.00220415
-0.00221247
-0.00221675
-0.00221415
-0.00220014
-0.00216701
-0.00210299
-0.00199078
-0.00180556
-0.0015122
-0.00106208
-0.000393379
0.00055503
0.00189576
0.00366458
0.00569019
0.0072851
0.00779926
-0.00262018
-0.00269585
-0.00271948
-0.00274147
-0.00277103
-0.00280808
-0.00285098
-0.00289525
-0.0029329
-0.00295118
-0.00293052
-0.00284168
-0.00264249
-0.00227584
-0.00165706
-0.000651706
0.0011004
0.00378093
0.00672709
0.00904036
-0.00318198
-0.00326492
-0.00328814
-0.00331712
-0.00336789
-0.00344437
-0.00354894
-0.00368225
-0.00384329
-0.00402926
-0.00423534
-0.00445505
-0.00468566
-0.00494714
-0.0052703
-0.00547987
-0.00481256
-0.00204199
0.00277145
0.00872704
-0.00381742
-0.00390164
-0.00390938
-0.00393148
-0.0039932
-0.00410253
-0.00426635
-0.00449159
-0.00478682
-0.00516422
-0.00564359
-0.00626055
-0.00709025
-0.0083076
-0.0101837
-0.0126092
-0.0140855
-0.012065
-0.00571162
0.00455388
-0.00455757
-0.00463431
-0.00459925
-0.00458426
-0.00463335
-0.00475812
-0.00496784
-0.00527439
-0.00569567
-0.0062603
-0.00701682
-0.00805211
-0.00953487
-0.011804
-0.0153612
-0.0202127
-0.0244491
-0.0239653
-0.0172971
-0.00330628
-0.0054466
-0.00546123
-0.0053113
-0.00522661
-0.00524579
-0.00537057
-0.00560828
-0.00597329
-0.00649046
-0.00720074
-0.00817513
-0.00953981
-0.0115329
-0.0145897
-0.019322
-0.0258457
-0.0326864
-0.0341825
-0.0285067
-0.0103154
-0.00650456
-0.00655154
-0.00623357
-0.00597293
-0.00588205
-0.00595193
-0.00617411
-0.00655279
-0.00711067
-0.00788863
-0.00896685
-0.0104848
-0.0127127
-0.0161085
-0.0212728
-0.0282178
-0.0367742
-0.038626
-0.0336645
-0.00645231
-0.00884369
-0.007818
-0.0067297
-0.00629917
-0.0062008
-0.00628534
-0.00652405
-0.00691203
-0.00747757
-0.00825622
-0.00933659
-0.0108421
-0.0130268
-0.0163879
-0.0214189
-0.0278962
-0.0345946
-0.034282
-0.0214655
0.0214692
-0.00806178
-0.0100745
-0.00850483
-0.00755001
-0.00711159
-0.00699346
-0.00709235
-0.00735784
-0.00783306
-0.00851318
-0.00952084
-0.0109097
-0.0130249
-0.0161205
-0.0205738
-0.0252187
-0.0278356
-0.0177662
0.0160266
0.0871517
-0.0263623
-0.0106868
-0.00593831
-0.00514391
-0.00506652
-0.0051032
-0.00535358
-0.0057815
-0.0064459
-0.00728988
-0.00848428
-0.0100723
-0.0124425
-0.0155542
-0.0191829
-0.0205526
-0.0140925
0.0130864
0.0789929
0.185529
2.18472e-05
4.60513e-06
3.24938e-05
9.88852e-05
0.00020349
0.000347205
0.000530875
0.000755132
0.00101981
0.00132327
0.00166171
0.0020284
0.00241311
0.0028012
0.00317402
0.0035095
0.00378416
0.00397727
0.00407431
0.00406305
3.95597e-05
2.16621e-05
5.24705e-05
0.000118879
0.000220923
0.000360562
0.000539142
0.000757636
0.00101621
0.0013136
0.00164641
0.00200826
0.00238976
0.00277636
0.00314947
0.00348677
0.00376432
0.0039615
0.00406333
0.00404936
5.3867e-06
-1.77302e-05
1.17376e-05
7.60729e-05
0.000175008
0.000310975
0.000485814
0.00070114
0.0009579
0.00125575
0.00159229
0.00196209
0.00235644
0.00276075
0.00315566
0.00351657
0.00381596
0.0040293
0.00413787
0.00411462
-7.77109e-05
-0.000105294
-7.8351e-05
-1.72774e-05
7.75916e-05
0.000209185
0.000380026
0.000592675
0.00084928
0.00115095
0.00149685
0.00188321
0.0023019
0.00273923
0.00317419
0.00357835
0.00391787
0.00416091
0.00428261
0.0042499
-0.000210729
-0.000242221
-0.000218476
-0.000161686
-7.20658e-05
5.3931e-05
0.000219705
0.000429046
0.000685722
0.000992856
0.00135201
0.00176183
0.00221555
0.00270118
0.00319608
0.00366652
0.00406902
0.00435959
0.00450298
0.00445788
-0.000394169
-0.00042998
-0.000410336
-0.000359182
-0.00027661
-0.000158393
-1.15948e-07
0.000203483
0.000458189
0.00076975
0.00114295
0.00158005
0.00207827
0.0026279
0.0032057
0.00377181
0.00426888
0.00463329
0.00481106
0.00474601
-0.000628034
-0.000669013
-0.00065464
-0.000610986
-0.000538144
-0.000431236
-0.000284808
-9.19898e-05
0.000155344
0.000466197
0.000849715
0.00131354
0.0018607
0.00248786
0.00317363
0.00387278
0.00450958
0.00498929
0.00522328
0.00512508
-0.000912404
-0.00095962
-0.000951909
-0.000918106
-0.000858565
-0.000767945
-0.00063991
-0.00046606
-0.000235834
6.34792e-05
0.000446454
0.000928049
0.00151928
0.00223094
0.00304787
0.00392508
0.00476617
0.00542913
0.00576108
0.00561219
-0.00124738
-0.00130201
-0.00130238
-0.00128102
-0.00123901
-0.00117093
-0.00107002
-0.000926761
-0.000728518
-0.000458971
-9.76188e-05
0.000380028
0.00100069
0.00177992
0.00273682
0.00383659
0.00497004
0.00593102
0.00644556
0.00624338
-0.00163311
-0.00169625
-0.00170578
-0.00169918
-0.00167901
-0.00164048
-0.00157713
-0.0014793
-0.00133335
-0.00112051
-0.000815503
-0.000384937
0.00021194
0.00101416
0.00207931
0.00341327
0.00493894
0.00639406
0.00727344
0.00712141
-0.00207006
-0.00214256
-0.00216123
-0.00217054
-0.00217565
-0.00217333
-0.00215859
-0.00212312
-0.00205426
-0.00193355
-0.00173437
-0.00141877
-0.000934237
-0.000212574
0.000802886
0.00224564
0.00417188
0.00637346
0.00800962
0.00841134
-0.00255985
-0.00264183
-0.00266737
-0.00269117
-0.00272261
-0.00276117
-0.00280473
-0.00284823
-0.00288301
-0.00289536
-0.00286453
-0.00275967
-0.00253702
-0.00214171
-0.0014996
-0.000450221
0.00143036
0.00435272
0.00742713
0.00974182
-0.003107
-0.00319724
-0.00322325
-0.00325529
-0.00330954
-0.00338937
-0.00349669
-0.0036317
-0.00379303
-0.00397763
-0.00418087
-0.00439774
-0.00463121
-0.00492121
-0.00533911
-0.00571025
-0.00514003
-0.00221715
0.00285138
0.009113
-0.00372103
-0.00381375
-0.0038256
-0.00385276
-0.00392039
-0.00403573
-0.00420517
-0.00443539
-0.00473498
-0.00511686
-0.00560315
-0.00623558
-0.00710592
-0.00843782
-0.0106008
-0.013536
-0.015537
-0.0136743
-0.00711764
0.00380849
-0.00442932
-0.00451674
-0.00448831
-0.00448119
-0.00453935
-0.00467351
-0.00489236
-0.0052076
-0.00563743
-0.00621181
-0.00698344
-0.00804958
-0.00960509
-0.0120625
-0.01607
-0.021707
-0.0268401
-0.0267288
-0.0199447
-0.00526833
-0.00526867
-0.00529725
-0.00515649
-0.00508396
-0.0051174
-0.00525679
-0.00550851
-0.00588651
-0.0064158
-0.00713843
-0.00812969
-0.0095267
-0.0115964
-0.0148508
-0.0200295
-0.027246
-0.0347827
-0.0363159
-0.0306766
-0.0120081
-0.00624712
-0.00631949
-0.00601804
-0.00577687
-0.00570642
-0.00579661
-0.00603798
-0.00643377
-0.00700606
-0.0077953
-0.00888414
-0.0104203
-0.0126977
-0.0162261
-0.0216549
-0.0291654
-0.0370217
-0.038698
-0.0340183
-0.00643672
-0.00849263
-0.00749854
-0.0064227
-0.00601353
-0.00594291
-0.00605708
-0.00632401
-0.00673623
-0.00732108
-0.00811
-0.00919084
-0.0106965
-0.0129039
-0.0163278
-0.0214669
-0.0278985
-0.0338707
-0.032968
-0.0202013
0.0233388
-0.00750286
-0.0096249
-0.0080836
-0.00716752
-0.00676517
-0.00668477
-0.00681774
-0.00711342
-0.00761182
-0.00830712
-0.00929745
-0.0106909
-0.0128165
-0.0159446
-0.02043
-0.0249076
-0.026947
-0.0159893
0.0186876
0.0911453
-0.0257819
-0.010141
-0.0054193
-0.00467084
-0.00464365
-0.00472687
-0.00501533
-0.00547766
-0.00616291
-0.00702239
-0.00821487
-0.00980606
-0.0121938
-0.0153301
-0.0189457
-0.0200708
-0.0129498
0.0154569
0.0829922
0.191655
3.24119e-05
1.43928e-05
4.19033e-05
0.00010824
0.000213166
0.00035762
0.0005425
0.000768522
0.00103561
0.00134223
0.00168461
0.00205598
0.00244638
0.00284057
0.00321948
0.00356045
0.00383928
0.00403463
0.00413183
0.00411875
5.15056e-05
3.27212e-05
6.3197e-05
0.000129561
0.000231878
0.000372166
0.000551842
0.000771975
0.00103284
0.00133327
0.00166987
0.00203583
0.00242366
0.00281658
0.00319603
0.00353913
0.00382114
0.00402081
0.00412299
0.00410733
1.91048e-05
-5.02571e-06
2.41027e-05
8.83858e-05
0.000187575
0.000324173
0.000500108
0.000717115
0.000976282
0.00127741
0.00161826
0.00199393
0.00239423
0.00280575
0.00320823
0.00357623
0.00388122
0.00409776
0.00420683
0.00418144
-6.19297e-05
-9.06376e-05
-6.40461e-05
-3.02122e-06
9.21182e-05
0.000224387
0.000396421
0.000610933
0.000870262
0.00117571
0.00152652
0.00191802
0.00234601
0.00279269
0.00323752
0.00365116
0.00399837
0.00424594
0.00436841
0.00433275
-0.000192691
-0.000225399
-0.000202007
-0.000145239
-5.52904e-05
7.1492e-05
0.000238653
0.000450186
0.000710119
0.0010219
0.00138754
0.00180692
0.00226956
0.00276718
0.00327553
0.00375935
0.00417303
0.00447037
0.00461495
0.00456545
-0.000373611
-0.000410727
-0.000391433
-0.000340261
-0.000257278
-0.000138125
2.17996e-05
0.000228022
0.000486672
0.000803926
0.00118508
0.00163296
0.00214446
0.00271057
0.00330726
0.00389284
0.00440681
0.00478179
0.00496141
0.00488905
-0.000604559
-0.000646944
-0.000632927
-0.000589227
-0.000515905
-0.00040792
-0.000259582
-6.36856e-05
0.000188341
0.00050607
0.000899331
0.00137654
0.00194148
0.002591
0.00330339
0.00403126
0.00469422
0.00519107
0.0054281
0.00531673
-0.000885448
-0.000934194
-0.000926876
-0.000893046
-0.000833019
-0.000741256
-0.000611137
-0.000433847
-0.000198263
0.000109067
0.000503686
0.00100178
0.00161621
0.0023568
0.00321053
0.00412995
0.00501199
0.00570369
0.00604104
0.00586739
-0.00121616
-0.00127247
-0.00127334
-0.00125206
-0.00120967
-0.00114055
-0.00103757
-0.000890761
-0.00068681
-0.00040849
-3.40376e-05
0.000462554
0.00110918
0.00192617
0.00293207
0.00409226
0.00528986
0.00630065
0.00682528
0.00657679
-0.00159653
-0.00166156
-0.00167175
-0.00166548
-0.00164525
-0.00160601
-0.00154094
-0.00143988
-0.00128845
-0.00106693
-0.000748625
-0.000298261
0.000327348
0.00117143
0.00229458
0.00370824
0.00533179
0.00687673
0.00777604
0.00754436
-0.00202653
-0.00210118
-0.00212082
-0.0021309
-0.00213651
-0.00213416
-0.00211849
-0.00208072
-0.00200753
-0.00187956
-0.00166896
-0.00133591
-0.000825492
-6.79008e-05
0.00100033
0.00252522
0.00458179
0.00693974
0.00862384
0.00892556
-0.00250709
-0.00259153
-0.00261853
-0.00264378
-0.0026766
-0.00271621
-0.00276015
-0.00280302
-0.00283569
-0.00284399
-0.00280662
-0.00269217
-0.00245688
-0.00204871
-0.00139816
-0.000330985
0.00165042
0.00479212
0.00799749
0.0102956
-0.00304164
-0.00313477
-0.00316292
-0.0031974
-0.00325428
-0.00333666
-0.00344622
-0.00358296
-0.00374547
-0.00393094
-0.00413575
-0.00435729
-0.00460478
-0.00493646
-0.00546184
-0.00601141
-0.00553869
-0.00243548
0.00290501
0.00941838
-0.00363813
-0.00373432
-0.00374928
-0.00378022
-0.00385214
-0.00397197
-0.00414593
-0.00438072
-0.00468535
-0.00507396
-0.00557171
-0.00622716
-0.0071479
-0.00860023
-0.011047
-0.0144762
-0.0169343
-0.0150648
-0.00814121
0.00333763
-0.00432194
-0.00441372
-0.00438979
-0.00438826
-0.00445276
-0.00459364
-0.00481949
-0.00514215
-0.00558054
-0.00616658
-0.00695765
-0.0080617
-0.00969845
-0.0123449
-0.0167809
-0.0231478
-0.0290407
-0.0289777
-0.0217484
-0.00650859
-0.00512653
-0.00516169
-0.00502736
-0.00496239
-0.00500447
-0.0051531
-0.00541439
-0.00580232
-0.00634251
-0.00707882
-0.00809134
-0.00952873
-0.0116855
-0.0151383
-0.0207359
-0.0285518
-0.0367055
-0.0380528
-0.0318981
-0.0129842
-0.00606342
-0.00614333
-0.00584862
-0.00561792
-0.00555883
-0.00566064
-0.00591371
-0.00632103
-0.00690493
-0.0077065
-0.00881162
-0.0103772
-0.0127193
-0.0163972
-0.0221492
-0.0298431
-0.0377176
-0.0391799
-0.0335008
-0.00613767
-0.00824134
-0.00727172
-0.00620834
-0.00581016
-0.00575048
-0.00587677
-0.00615682
-0.00658189
-0.00717904
-0.00797808
-0.00906909
-0.0105895
-0.0128228
-0.0163223
-0.0215701
-0.0279791
-0.0335829
-0.0322011
-0.0187631
0.0250526
-0.00723516
-0.00937354
-0.00783102
-0.00692289
-0.00652835
-0.00645889
-0.00660592
-0.00691466
-0.00742589
-0.00813106
-0.00913249
-0.0105259
-0.0126708
-0.0158288
-0.0203415
-0.0247169
-0.0264172
-0.0147874
0.0207301
0.0940395
-0.0254802
-0.00983101
-0.00509786
-0.00436383
-0.00435619
-0.00445806
-0.00476544
-0.00524498
-0.00594558
-0.00681502
-0.00801931
-0.00961716
-0.0120283
-0.0151795
-0.0187859
-0.0197708
-0.0122594
0.0169371
0.0854532
0.195166
4.24962e-05
2.42867e-05
5.1732e-05
0.000118209
0.00022357
0.000368823
0.00055494
0.000782718
0.00105218
0.00136186
0.00170807
0.00208407
0.00247962
0.00287941
0.00326398
0.00361011
0.00389303
0.00409092
0.00418897
0.00417515
6.22021e-05
4.3156e-05
7.35666e-05
0.000140079
0.000242829
0.000383905
0.000564803
0.000786683
0.00104992
0.00135345
0.00169401
0.00206519
0.00245791
0.00285665
0.00324209
0.00359072
0.00387716
0.00407961
0.0041828
0.00416656
3.0944e-05
6.51939e-06
3.55839e-05
0.000100024
0.000199661
0.000337075
0.000514284
0.000733138
0.000994849
0.00129935
0.00164448
0.00202515
0.00243195
0.00285041
0.00326006
0.00363481
0.00394528
0.00416533
0.00427566
0.00424947
-4.85579e-05
-7.75875e-05
-5.10565e-05
1.01447e-05
0.00010577
0.000238926
0.000412361
0.000628932
0.000891145
0.00120049
0.00155647
0.00195534
0.00238996
0.00284523
0.00329931
0.00372187
0.0040765
0.00432886
0.004453
0.0044161
-0.000177499
-0.000210551
-0.000187211
-0.000130234
-3.97351e-05
8.805e-05
0.000256809
0.000470719
0.000734033
0.00105045
0.00142209
0.00184814
0.00232176
0.00283097
0.00335183
0.00384804
0.00427228
0.00457652
0.00472338
0.0046717
-0.000356297
-0.000393776
-0.000374527
-0.000323111
-0.000239504
-0.00011921
4.25494e-05
0.000251542
0.000514202
0.000837064
0.00122581
0.00168355
0.00220775
0.00278903
0.00340287
0.00400608
0.00453557
0.0049209
0.00510367
0.00502718
-0.000584746
-0.000627518
-0.00061355
-0.00056959
-0.000495589
-0.000386348
-0.000235956
-3.69041e-05
0.000219771
0.00054413
0.000946576
0.00143614
0.00201722
0.00268672
0.00342267
0.00417588
0.00486215
0.00537502
0.00561658
0.00549698
-0.000862639
-0.000911808
-0.000904574
-0.000870513
-0.000809816
-0.000716761
-0.000584464
-0.000403752
-0.000163016
0.000151826
0.000557109
0.00106999
0.00170443
0.00247049
0.00335596
0.00431162
0.00522914
0.00594655
0.00629073
0.00610035
-0.00118969
-0.00124647
-0.00124751
-0.00122611
-0.00118318
-0.00111287
-0.00100779
-0.000857543
-0.00064828
-0.000362025
2.39751e-05
0.000536948
0.00120598
0.00205437
0.00310121
0.00431192
0.00556376
0.00661761
0.00715311
0.00687104
-0.00156547
-0.00163105
-0.00164158
-0.00163541
-0.00161491
-0.00157481
-0.00150802
-0.00140393
-0.00124762
-0.00101858
-0.000689067
-0.000222304
0.000426919
0.00130408
0.00247418
0.00395313
0.00565811
0.00727885
0.00819715
0.00790271
-0.00198963
-0.00206491
-0.00208514
-0.0020957
-0.00210153
-0.00209892
-0.00208229
-0.00204245
-0.00196565
-0.00183188
-0.00161243
-0.00126621
-0.000736472
4.88056e-05
0.00115579
0.00274807
0.00491383
0.00740434
0.00912937
0.00934138
-0.00246254
-0.00254775
-0.00257571
-0.00260199
-0.00263574
-0.00267601
-0.00272016
-0.00276256
-0.00279384
-0.00279962
-0.00275844
-0.00263876
-0.00239709
-0.00198307
-0.00132804
-0.000247115
0.00182868
0.00516924
0.00848199
0.0107349
-0.00298699
-0.00308105
-0.00311067
-0.00314691
-0.00320566
-0.00328989
-0.00340121
-0.0035396
-0.0037038
-0.00389151
-0.00410024
-0.00432977
-0.00459437
-0.00496697
-0.00558629
-0.00627682
-0.0058511
-0.00253415
0.00305785
0.00971198
-0.00357007
-0.00366744
-0.00368453
-0.00371811
-0.003793
-0.00391606
-0.00409353
-0.00433234
-0.0046421
-0.00503832
-0.00554917
-0.00622924
-0.00719875
-0.00875988
-0.0114523
-0.0152918
-0.0180683
-0.016049
-0.00871789
0.00316487
-0.00423631
-0.00432957
-0.00430852
-0.00431071
-0.0043794
-0.00452491
-0.00475594
-0.00508474
-0.00553118
-0.00612926
-0.00694092
-0.00808372
-0.00979843
-0.0126159
-0.0174284
-0.0244259
-0.0309031
-0.0306938
-0.0229065
-0.00718478
-0.00501803
-0.00505589
-0.00492569
-0.00486533
-0.00491251
-0.00506681
-0.0053345
-0.00572991
-0.00627969
-0.00702991
-0.00806547
-0.0095459
-0.0117892
-0.0154268
-0.0214021
-0.0297951
-0.0385024
-0.0395761
-0.0327678
-0.0135832
-0.00593292
-0.00601416
-0.00572234
-0.00549705
-0.00544392
-0.00555199
-0.00581189
-0.00622681
-0.00682002
-0.00763426
-0.0087595
-0.0103616
-0.0127719
-0.0165968
-0.0226124
-0.0306504
-0.038753
-0.0398236
-0.033375
-0.00593593
-0.00806991
-0.0071141
-0.00605933
-0.00566721
-0.00561176
-0.0057424
-0.00602807
-0.00645943
-0.00706449
-0.00787343
-0.00898009
-0.0105292
-0.0127854
-0.0163747
-0.02175
-0.0282438
-0.0336773
-0.0319306
-0.0177565
0.0263177
-0.00709235
-0.00922198
-0.00767402
-0.0067652
-0.00636981
-0.00630088
-0.00645282
-0.00676521
-0.00728287
-0.00799495
-0.0090076
-0.0104143
-0.0125863
-0.0157876
-0.0203525
-0.0247195
-0.0262555
-0.0140184
0.0222674
0.0960602
-0.0253157
-0.00965367
-0.00490453
-0.00417147
-0.00416881
-0.00427508
-0.00458943
-0.00507504
-0.00578508
-0.00666167
-0.00788009
-0.00949086
-0.0119292
-0.0151112
-0.0187395
-0.0196735
-0.0119216
0.0179349
0.0871544
0.197382
5.13902e-05
3.32036e-05
6.07346e-05
0.000127455
0.000233301
0.000379348
0.000566639
0.00079605
0.00106768
0.00138014
0.00172978
0.00210986
0.00250997
0.00291468
0.0033042
0.0036549
0.00394153
0.00414189
0.00424102
0.00422694
7.13873e-05
5.2313e-05
8.27997e-05
0.000149565
0.000252812
0.000394698
0.00057679
0.000800333
0.00106578
0.00137216
0.00171627
0.00209181
0.0024892
0.00289311
0.00328383
0.00363736
0.00392781
0.00413295
0.00423737
0.00422102
4.08907e-05
1.64342e-05
4.55807e-05
0.000110289
0.000210451
0.000348718
0.000527194
0.000747823
0.00101192
0.00131952
0.00166853
0.00205388
0.00246627
0.00289084
0.0033068
0.00368748
0.00400289
0.00422626
0.00433807
0.00431168
-3.74839e-05
-6.65445e-05
-3.99211e-05
2.15733e-05
0.000117769
0.000251856
0.000426684
0.000645233
0.000910142
0.00122304
0.00158356
0.00198816
0.00242944
0.00289235
0.00335449
0.00378482
0.00414599
0.00440279
0.00452885
0.00449148
-0.000165005
-0.000198085
-0.00017464
-0.000117337
-2.62061e-05
0.000102617
0.000272946
0.000489116
0.000755557
0.00107615
0.00145311
0.00188537
0.00236822
0.00288748
0.00341907
0.00392588
0.00435925
0.00466971
0.0048191
0.00476636
-0.000342095
-0.000379598
-0.000360232
-0.00030846
-0.000224157
-0.000102709
6.08206e-05
0.000272403
0.000538723
0.000866625
0.00126217
0.00172893
0.00226354
0.00285754
0.00348577
0.00410374
0.00464632
0.00504066
0.0052268
0.005148
-0.000568504
-0.000611298
-0.000597216
-0.000552888
-0.000478152
-0.000367667
-0.000215333
-1.33893e-05
0.000247452
0.000577655
0.000988103
0.00148833
0.00208277
0.0027688
0.00352412