/*--------------------------------*- C++ -*----------------------------------*\
  =========                 |
  \\      /  F ield         | OpenFOAM: The Open Source CFD Toolbox
   \\    /   O peration     | Website:  https://openfoam.org
    \\  /    A nd           | Version:  10
     \\/     M anipulation  |
\*---------------------------------------------------------------------------*/
FoamFile
{
    format      ascii;
    class       surfaceScalarField;
    location    "6";
    object      phi;
}
// * * * * * * * * * * * * * * * * * * * * * * * * * * * * * * * * * * * * * //

dimensions      [0 3 -1 0 0 0 0];

internalField   nonuniform List<scalar> 
22800
(
-2.00352e-06
2.44754e-06
-4.44368e-07
-6.81113e-06
4.87157e-06
-6.39554e-08
-1.26489e-05
5.62873e-06
2.09064e-07
-1.87316e-05
5.77662e-06
3.06046e-07
-2.4803e-05
5.76507e-06
3.06371e-07
-3.07368e-05
5.68877e-06
2.44944e-07
-3.64056e-05
5.5383e-06
1.30548e-07
-4.16355e-05
5.2734e-06
-4.35078e-08
-4.6252e-05
4.83743e-06
-2.20918e-07
-4.9974e-05
4.19804e-06
-4.7606e-07
-5.24854e-05
3.31468e-06
-8.03224e-07
-5.34388e-05
2.1584e-06
-1.20496e-06
-5.24877e-05
7.16003e-07
-1.66707e-06
-4.93192e-05
-1.01091e-06
-2.15763e-06
-4.37691e-05
-2.89827e-06
-2.65174e-06
-3.58785e-05
-4.80495e-06
-3.08564e-06
-2.60287e-05
-6.4844e-06
-3.36537e-06
-1.51313e-05
-7.53457e-06
-3.36293e-06
-5.12973e-06
-7.13401e-06
-2.86754e-06
-3.71774e-06
-1.41203e-06
-4.31169e-06
8.15472e-06
-1.39549e-06
-1.27333e-05
1.43956e-05
-1.10238e-06
-2.25856e-05
1.63072e-05
-8.26203e-07
-3.27467e-05
1.6626e-05
-6.88222e-07
-4.2781e-05
1.64183e-05
-6.18905e-07
-5.24424e-05
1.59503e-05
-6.00215e-07
-6.15048e-05
1.52257e-05
-6.24937e-07
-6.97051e-05
1.41718e-05
-6.98078e-07
-7.67266e-05
1.26916e-05
-8.32705e-07
-8.21799e-05
1.06862e-05
-1.03471e-06
-8.56173e-05
8.06274e-06
-1.31061e-06
-8.65539e-05
4.75975e-06
-1.66478e-06
-8.45348e-05
8.0851e-07
-2.1116e-06
-7.90929e-05
-3.8575e-06
-2.59523e-06
-7.00316e-05
-8.86343e-06
-3.09612e-06
-5.74441e-05
-1.38566e-05
-3.53587e-06
-4.19238e-05
-1.82093e-05
-3.79543e-06
-2.48399e-05
-2.08965e-05
-3.72198e-06
-8.98292e-06
-1.99612e-05
-3.0299e-06
-1.15043e-05
-1.19643e-06
-5.14964e-06
1.52621e-05
-1.95776e-06
-1.49423e-05
2.59745e-05
-1.7863e-06
-2.62536e-05
2.91326e-05
-1.51401e-06
-3.7854e-05
2.95727e-05
-1.34625e-06
-4.92779e-05
2.90716e-05
-1.22939e-06
-6.026e-05
2.80867e-05
-1.1543e-06
-7.05581e-05
2.66414e-05
-1.11754e-06
-7.98926e-05
2.46331e-05
-1.12682e-06
-8.79204e-05
2.19163e-05
-1.1968e-06
-9.42227e-05
1.83307e-05
-1.34234e-06
-9.83054e-05
1.3723e-05
-1.5775e-06
-9.96158e-05
7.98381e-06
-1.91367e-06
-9.75883e-05
1.13957e-06
-2.3585e-06
-9.16707e-05
-6.90188e-06
-2.87325e-06
-8.15353e-05
-1.55714e-05
-3.42742e-06
-6.71972e-05
-2.42669e-05
-3.92782e-06
-4.92711e-05
-3.19063e-05
-4.22903e-06
-2.93172e-05
-3.67062e-05
-4.14425e-06
-1.06284e-05
-3.5323e-05
-3.32706e-06
-2.09248e-05
-1.20785e-06
-5.3898e-06
2.29922e-05
-2.34027e-06
-1.575e-05
3.85862e-05
-2.25141e-06
-2.77018e-05
4.30644e-05
-1.97996e-06
-3.9957e-05
4.36231e-05
-1.7952e-06
-5.20598e-05
4.28276e-05
-1.65321e-06
-6.37645e-05
4.13417e-05
-1.55025e-06
-7.48489e-05
3.92119e-05
-1.48605e-06
-8.50488e-05
3.63048e-05
-1.47179e-06
-9.4027e-05
3.24205e-05
-1.52597e-06
-0.000101352
2.73259e-05
-1.67013e-06
-0.000106487
2.07827e-05
-1.92485e-06
-0.000108792
1.25975e-05
-2.30838e-06
-0.000107563
2.7498e-06
-2.83907e-06
-0.000102042
-8.94517e-06
-3.47785e-06
-9.16579e-05
-2.17715e-05
-4.18419e-06
-7.62193e-05
-3.486e-05
-4.84554e-06
-5.62695e-05
-4.65842e-05
-5.27185e-06
-3.35742e-05
-5.4187e-05
-5.21451e-06
-1.20944e-05
-5.25636e-05
-4.23916e-06
-3.13962e-05
-1.62303e-06
-5.48189e-06
3.11407e-05
-2.66654e-06
-1.62059e-05
5.19693e-05
-2.6591e-06
-2.86192e-05
5.78712e-05
-2.39347e-06
-4.1386e-05
5.85921e-05
-2.20221e-06
-5.40697e-05
5.75617e-05
-2.0505e-06
-6.64605e-05
5.56722e-05
-1.93963e-06
-7.83761e-05
5.30004e-05
-1.87289e-06
-8.9589e-05
4.93835e-05
-1.86573e-06
-9.97876e-05
4.45608e-05
-1.94176e-06
-0.000108541
3.82092e-05
-2.12955e-06
-0.00011527
2.99709e-05
-2.45944e-06
-0.000119222
1.9511e-05
-2.96107e-06
-0.000119492
6.67275e-06
-3.65332e-06
-0.00011504
-8.86577e-06
-4.53183e-06
-0.000104859
-2.64351e-05
-5.51723e-06
-8.83789e-05
-4.48649e-05
-6.47494e-06
-6.59417e-05
-6.18795e-05
-7.14189e-06
-3.95584e-05
-7.34107e-05
-7.15961e-06
-1.41843e-05
-7.19926e-05
-5.94502e-06
-4.30875e-05
-2.49304e-06
-5.55814e-06
3.9701e-05
-3.00218e-06
-1.66462e-05
6.61378e-05
-3.08041e-06
-2.95402e-05
7.35891e-05
-2.82388e-06
-4.28522e-05
7.45369e-05
-2.6327e-06
-5.61699e-05
7.33599e-05
-2.48048e-06
-6.93332e-05
7.12096e-05
-2.37415e-06
-8.2219e-05
6.82079e-05
-2.32169e-06
-9.46611e-05
6.41698e-05
-2.3442e-06
-0.000106401
5.87731e-05
-2.47264e-06
-0.000117036
5.15896e-05
-2.74535e-06
-0.000125962
4.21033e-05
-3.20641e-06
-0.000132316
2.97661e-05
-3.90042e-06
-0.000134925
1.4139e-05
-4.85759e-06
-0.000132427
-5.20368e-06
-6.16042e-06
-0.000123082
-2.81561e-05
-7.62355e-06
-0.000105686
-5.31475e-05
-9.11408e-06
-8.00999e-05
-7.722e-05
-1.02452e-05
-4.85317e-05
-9.45226e-05
-1.04563e-05
-1.73847e-05
-9.42545e-05
-8.88497e-06
-5.64484e-05
-4.02375e-06
-5.6445e-06
4.8736e-05
-3.39055e-06
-1.71455e-05
8.12068e-05
-3.56797e-06
-3.05745e-05
9.03406e-05
-3.3226e-06
-4.4479e-05
9.15743e-05
-3.13284e-06
-5.84767e-05
9.03391e-05
-2.98157e-06
-7.24723e-05
8.80885e-05
-2.88316e-06
-8.64256e-05
8.50135e-05
-2.85229e-06
-0.000100264
8.09259e-05
-2.918e-06
-0.000113823
7.5454e-05
-3.12174e-06
-0.000126779
6.80632e-05
-3.51707e-06
-0.000138556
5.80512e-05
-4.17129e-06
-0.000148205
4.45721e-05
-5.15747e-06
-0.000154289
2.67492e-05
-6.52585e-06
-0.000155144
4.19823e-06
-8.54674e-06
-0.000147801
-2.47046e-05
-1.07949e-05
-0.00013012
-5.75788e-05
-1.32497e-05
-0.00010089
-9.11511e-05
-1.52983e-05
-6.22044e-05
-0.000117207
-1.60015e-05
-2.24382e-05
-0.000120081
-1.394e-05
-7.2214e-05
-6.67263e-06
-5.74437e-06
5.83437e-05
-3.86335e-06
-1.77133e-05
9.73389e-05
-4.16318e-06
-3.17191e-05
0.000108276
-3.92923e-06
-4.6226e-05
0.000109817
-3.73587e-06
-6.08871e-05
0.000108578
-3.57822e-06
-7.56895e-05
0.000106372
-3.48113e-06
-9.07023e-05
0.000103495
-3.46878e-06
-0.000105986
9.9791e-05
-3.58129e-06
-0.00012153
9.48729e-05
-3.87515e-06
-0.000137168
8.81286e-05
-4.42682e-06
-0.000152457
7.86791e-05
-5.3395e-06
-0.000166495
6.53519e-05
-6.74153e-06
-0.000177691
4.67332e-05
-8.78799e-06
-0.000183439
2.15357e-05
-1.15895e-05
-0.000180508
-1.22032e-05
-1.5432e-05
-0.000164317
-5.40942e-05
-1.96758e-05
-0.000131695
-0.00010021
-2.35634e-05
-8.37043e-05
-0.000139708
-2.54892e-05
-3.09765e-05
-0.000149924
-2.28847e-05
-9.17323e-05
-1.14581e-05
-5.87091e-06
6.86662e-05
-4.45161e-06
-1.83725e-05
0.000114747
-4.90666e-06
-3.29779e-05
0.000127562
-4.68106e-06
-4.80428e-05
0.000129353
-4.47066e-06
-6.32616e-05
0.000128085
-4.28803e-06
-7.87216e-05
0.000126005
-4.17299e-06
-9.46286e-05
0.000123565
-4.1628e-06
-0.000111218
0.000120693
-4.31247e-06
-0.000128699
0.000117053
-4.69913e-06
-0.000147167
0.000112029
-5.43227e-06
-0.00016646
0.000104642
-6.67012e-06
-0.000185906
9.34328e-05
-8.6354e-06
-0.000203933
7.63685e-05
-1.1608e-05
-0.000217554
5.0917e-05
-1.57604e-05
-0.000222687
1.51034e-05
-2.21737e-05
-0.000211855
-3.53184e-05
-2.9608e-05
-0.000178115
-9.68449e-05
-3.71046e-05
-0.000119224
-0.000156651
-4.19488e-05
-4.69648e-05
-0.000182949
-3.92334e-05
-0.000117787
-2.09104e-05
-6.0681e-06
7.99305e-05
-5.19618e-06
-1.92055e-05
0.000133735
-5.85009e-06
-3.44257e-05
0.000148406
-5.62399e-06
-4.99442e-05
0.000150242
-5.37084e-06
-6.55068e-05
0.000148777
-5.12865e-06
-8.13189e-05
0.000146776
-4.95858e-06
-9.7745e-05
0.000144907
-4.91536e-06
-0.000115229
0.00014325
-5.07254e-06
-0.000134257
0.000141615
-5.53336e-06
-0.000155302
0.000139525
-6.45107e-06
-0.000178683
0.000136085
-8.06179e-06
-0.000204297
0.000129773
-1.07267e-05
-0.000231121
0.000118154
-1.49612e-05
-0.000256334
9.76107e-05
-2.14803e-05
-0.000273839
6.34535e-05
-3.08453e-05
-0.000276839
1.20276e-05
-4.4346e-05
-0.000249055
-6.61604e-05
-5.84688e-05
-0.000180961
-0.000155143
-6.96015e-05
-8.00235e-05
-0.000214924
-6.89627e-05
-0.000156133
-4.16773e-05
-6.4375e-06
9.25278e-05
-6.1598e-06
-2.04069e-05
0.000154774
-7.06954e-06
-3.6273e-05
0.000171096
-6.82385e-06
-5.20796e-05
0.000172532
-6.48341e-06
-6.76484e-05
0.000170469
-6.12354e-06
-8.33245e-05
0.000168288
-5.8361e-06
-9.96405e-05
0.000166921
-5.69803e-06
-0.000117255
0.000166668
-5.80392e-06
-0.000136957
0.000167603
-6.28645e-06
-0.00015967
0.000169588
-7.35098e-06
-0.000186383
0.00017213
-9.33156e-06
-0.000217947
0.000174109
-1.27721e-05
-0.000254584
0.000173306
-1.8516e-05
-0.000294921
0.000165659
-2.77109e-05
-0.000334215
0.000144115
-4.13674e-05
-0.000359358
9.81916e-05
-6.10216e-05
-0.000355946
1.70374e-05
-8.66098e-05
-0.000289398
-0.000114372
-0.000107319
-0.000150599
-0.000239399
-0.000114324
-0.000220839
-8.58928e-05
-7.1838e-06
0.000107158
-7.44618e-06
-2.23642e-05
0.00017864
-8.68596e-06
-3.89542e-05
0.00019607
-8.38325e-06
-5.48173e-05
0.000196276
-7.88069e-06
-6.9917e-05
0.000192879
-7.31e-06
-8.47728e-05
0.000189951
-6.80715e-06
-0.000100077
0.000188701
-6.47636e-06
-0.000116661
0.000189685
-6.43274e-06
-0.000135564
0.000193342
-6.83585e-06
-0.000158124
0.00020009
-7.94115e-06
-0.000186067
0.000210254
-1.01811e-05
-0.000221498
0.000223822
-1.42818e-05
-0.000266713
0.000239891
-2.13697e-05
-0.000323526
0.000255372
-3.28996e-05
-0.000391205
0.000261961
-5.01673e-05
-0.000460252
0.000240054
-7.28157e-05
-0.00050057
0.000155759
-9.84048e-05
-0.000464289
-2.94267e-05
-0.000121226
-0.000287427
-0.00027566
-0.000140601
-0.000356488
-0.000151778
-8.69888e-06
0.000125092
-9.23528e-06
-2.57927e-05
0.000206629
-1.08956e-05
-4.32568e-05
0.000223995
-1.0461e-05
-5.88504e-05
0.000221544
-9.67467e-06
-7.2844e-05
0.000215621
-8.74912e-06
-8.60035e-05
0.000210994
-7.88331e-06
-9.91514e-05
0.000209064
-7.21471e-06
-0.000113184
0.000210591
-6.87411e-06
-0.000129213
0.000216406
-7.03518e-06
-0.000148771
0.000227627
-7.97952e-06
-0.000174092
0.000245762
-1.01872e-05
-0.000208461
0.000272619
-1.44279e-05
-0.000256681
0.000309774
-2.16632e-05
-0.000325542
0.000356475
-3.22425e-05
-0.000422637
0.000403107
-4.40505e-05
-0.000547902
0.00041556
-5.02411e-05
-0.000671595
0.000318922
-3.94696e-05
-0.000700941
1.67834e-05
-1.68638e-05
-0.000488329
-0.000442933
-4.53405e-05
-0.000669223
-0.000175593
-1.1745e-05
0.000148716
-1.1879e-05
-3.19831e-05
0.00024098
-1.41126e-05
-5.05027e-05
0.000255923
-1.3409e-05
-6.5304e-05
0.000248447
-1.21018e-05
-7.73412e-05
0.000238223
-1.05645e-05
-8.77592e-05
0.000230511
-9.09912e-06
-9.74603e-05
0.000226643
-7.87818e-06
-0.000107221
0.000227385
-7.0338e-06
-0.000117911
0.000233822
-6.72637e-06
-0.000130783
0.000247705
-7.20614e-06
-0.00014794
0.000271776
-8.85713e-06
-0.000173113
0.000309878
-1.20856e-05
-0.000213252
0.00036637
-1.64567e-05
-0.000281485
0.000442352
-1.76445e-05
-0.000400205
0.00052416
-2.33266e-06
-0.000593074
0.000556923
5.15059e-05
-0.000836214
0.000405483
0.000156579
-0.000967852
-0.000112628
0.000261049
-0.00069356
-0.000925895
0.000208671
-0.00127058
-9.22044e-05
-1.77435e-05
0.000182359
-1.58999e-05
-4.32489e-05
0.000285111
-1.86256e-05
-6.29418e-05
0.000292893
-1.72772e-05
-7.59452e-05
0.000276671
-1.52203e-05
-8.4775e-05
0.00025986
-1.28067e-05
-9.12155e-05
0.000247399
-1.04475e-05
-9.61655e-05
0.00023998
-8.3866e-06
-0.000100021
0.00023801
-6.76946e-06
-0.000102999
0.000242527
-5.72671e-06
-0.000105401
0.000255508
-5.40065e-06
-0.00010823
0.000280467
-5.86198e-06
-0.000114352
0.000322527
-6.52694e-06
-0.00013205
0.000387916
-3.847e-06
-0.000182812
0.000478819
1.42947e-05
-0.00031419
0.000577828
7.77103e-05
-0.000590271
0.000610569
0.000222436
-0.000981323
0.00035954
0.000436995
-0.00118167
-0.000489327
0.000577047
-0.00084477
-0.00168031
0.000417517
-0.00208435
-3.09995e-05
-3.02133e-05
0.000235546
-2.29733e-05
-6.40187e-05
0.000346294
-2.73773e-05
-8.34494e-05
0.000337548
-2.52241e-05
-9.25094e-05
0.000306767
-2.10364e-05
-9.63908e-05
0.000280168
-1.64266e-05
-9.74615e-05
0.000260674
-1.22049e-05
-9.64202e-05
0.000247564
-8.62597e-06
-9.30184e-05
0.00024038
-5.77174e-06
-8.65357e-05
0.000239742
-3.697e-06
-7.5697e-05
0.000247032
-2.36269e-06
-5.95684e-05
0.000265633
-1.29472e-06
-3.86725e-05
0.000300371
1.26001e-06
-2.09175e-05
0.000358673
1.14871e-05
-3.54276e-05
0.000443741
4.95883e-05
-0.000157704
0.00054257
0.000157534
-0.000482164
0.000567315
0.000367714
-0.000957698
0.000207762
0.000627312
-0.00119541
-0.000944943
0.000693326
-0.000913334
-0.00234515
0.000382765
-0.00285092
-0.00014676
-5.15059e-05
0.00032542
-3.83681e-05
-0.000101433
0.000434547
-3.83261e-05
-0.000119535
0.000386695
-3.10439e-05
-0.000119479
0.000331876
-2.5165e-05
-0.000113552
0.000292985
-1.87436e-05
-0.000105345
0.000264964
-1.24972e-05
-9.50715e-05
0.000244359
-7.06817e-06
-8.15515e-05
0.000229657
-2.79735e-06
-6.34178e-05
0.000221245
3.62631e-07
-3.75708e-05
0.000218729
2.45611e-06
-7.50078e-07
0.000225005
3.80741e-06
5.00235e-05
0.000242352
7.24509e-06
0.0001103
0.000278217
2.01796e-05
0.000155019
0.000335452
6.35695e-05
0.000105575
0.000413434
0.00017858
-0.000140005
0.00042518
0.000387714
-0.000568206
1.06093e-05
0.000625354
-0.000915802
-0.0011895
0.000592151
-0.000868927
-0.00262808
0.000236057
-0.00337792
-0.000341926
-0.000106475
0.000479742
-4.78471e-05
-0.000168815
0.000560781
-6.38949e-05
-0.000165213
0.000443906
-6.08128e-05
-0.000140542
0.000353437
-4.62327e-05
-0.000109516
0.000292277
-3.03191e-05
-7.57179e-05
0.000247797
-1.66302e-05
-4.0194e-05
0.000215047
-6.21196e-06
-2.1919e-06
0.000190336
1.31934e-06
3.85198e-05
0.000174055
6.47844e-06
8.5929e-05
0.000162386
8.93422e-06
0.000143262
0.0001583
9.3715e-06
0.000217826
0.000158551
9.23746e-06
0.000310064
0.00017129
1.46893e-05
0.000415335
0.000190015
4.01661e-05
0.000486792
0.000221635
0.000120343
0.00043569
0.00020272
0.000273562
0.000121336
-0.000114002
0.000438966
-0.000359578
-0.00111683
0.00040825
-0.000629917
-0.00244509
8.7347e-05
-0.00348432
-0.000523518
-0.000453101
0.00109692
-0.000164072
-0.000338431
0.000557087
-0.000110976
-0.000121908
0.000314428
-8.70454e-05
6.73376e-05
0.000226365
-6.21739e-05
0.000227048
0.000173545
-4.09781e-05
0.000364823
0.000133839
-2.38176e-05
0.000484555
0.000105977
-1.06617e-05
0.000591084
8.57339e-05
-1.92686e-06
0.000685227
7.33266e-05
6.58521e-06
0.000774071
6.30357e-05
1.05066e-05
0.000860485
6.01826e-05
1.17027e-05
0.00095327
5.72295e-05
8.53635e-06
0.00105357
6.50873e-05
5.89937e-06
0.00116834
6.86865e-05
6.5578e-06
0.00128732
7.03777e-05
3.22819e-05
0.00136797
3.22748e-05
8.97911e-05
0.00126638
-0.000179663
0.000167258
0.000783006
-0.000820244
0.000186781
0.000178603
-0.0018085
-3.21903e-05
-0.00261813
-0.000687594
0.00126731
-0.000170397
0.00198353
-0.000159134
0.00244371
-0.000145747
0.00280034
-0.000130266
0.00308673
-0.000112849
0.003318
-9.74279e-05
0.00350659
-8.2606e-05
0.00366361
-7.12921e-05
0.00379663
-5.96934e-05
0.00391276
-5.30895e-05
0.00401663
-4.36864e-05
0.00411664
-4.27828e-05
0.00421531
-3.35816e-05
0.00432079
-3.68005e-05
0.00440986
-1.86934e-05
0.00446046
-1.83232e-05
0.00427455
6.248e-06
0.00349779
-4.34853e-05
0.00182106
-0.000131764
-0.000797066
-3.73124e-06
4.15834e-06
-8.71466e-07
-1.22661e-05
9.15195e-06
-6.81075e-07
-2.23808e-05
1.075e-05
-4.26173e-07
-3.27169e-05
1.09446e-05
-3.02497e-07
-4.28352e-05
1.07083e-05
-2.83739e-07
-5.25245e-05
1.02803e-05
-3.46087e-07
-6.15826e-05
9.66785e-06
-4.79193e-07
-6.9766e-05
8.82313e-06
-6.8321e-07
-7.67219e-05
7.69323e-06
-9.58161e-07
-8.20785e-05
6.20052e-06
-1.31994e-06
-8.5395e-05
4.28746e-06
-1.77413e-06
-8.62007e-05
1.92089e-06
-2.32011e-06
-8.40164e-05
-9.05423e-07
-2.94597e-06
-7.84474e-05
-4.11194e-06
-3.61467e-06
-6.92799e-05
-7.54455e-06
-4.27466e-06
-5.65964e-05
-1.09271e-05
-4.84209e-06
-4.09545e-05
-1.38063e-05
-5.2009e-06
-2.3737e-05
-1.53721e-05
-5.20834e-06
-8.03241e-06
-1.39223e-05
-4.64991e-06
-6.54033e-06
-2.90415e-06
-8.97776e-06
1.36657e-05
-1.92509e-06
-2.52627e-05
2.63313e-05
-1.99681e-06
-4.39025e-05
3.02755e-05
-1.7118e-06
-6.27843e-05
3.06482e-05
-1.50994e-06
-8.10561e-05
2.97637e-05
-1.4025e-06
-9.82526e-05
2.82568e-05
-1.38024e-06
-0.000113962
2.61905e-05
-1.43848e-06
-0.000127728
2.34757e-05
-1.58387e-06
-0.000139023
1.99849e-05
-1.82915e-06
-0.00014725
1.55811e-05
-2.18908e-06
-0.000151748
1.01484e-05
-2.67274e-06
-0.00015186
3.64768e-06
-3.27956e-06
-0.000146903
-3.96165e-06
-4.01316e-06
-0.000136358
-1.24444e-05
-4.80787e-06
-0.000119993
-2.14025e-05
-5.6024e-06
-9.80318e-05
-3.01408e-05
-6.28359e-06
-7.14325e-05
-3.75073e-05
-6.69383e-06
-4.24188e-05
-4.14659e-05
-6.64185e-06
-1.55605e-05
-3.79934e-05
-5.81716e-06
-1.99145e-05
-3.38285e-06
-1.11379e-05
2.54533e-05
-2.60737e-06
-3.06978e-05
4.69957e-05
-2.89074e-06
-5.27906e-05
5.34664e-05
-2.6122e-06
-7.50302e-05
5.39092e-05
-2.36764e-06
-9.64625e-05
5.21654e-05
-2.19879e-06
-0.000116559
4.93071e-05
-2.10791e-06
-0.000134855
4.5465e-05
-2.09588e-06
-0.000150847
4.05162e-05
-2.17524e-06
-0.000163961
3.42677e-05
-2.36594e-06
-0.000173542
2.65086e-05
-2.68921e-06
-0.000178859
1.70515e-05
-3.16263e-06
-0.000179137
5.80692e-06
-3.79509e-06
-0.000173583
-7.29113e-06
-4.58316e-06
-0.000161534
-2.18916e-05
-5.47526e-06
-0.00014261
-3.73582e-05
-6.39595e-06
-0.000116949
-5.25217e-05
-7.20784e-06
-8.55758e-05
-6.53952e-05
-7.71414e-06
-5.10612e-05
-7.24515e-05
-7.67328e-06
-1.88255e-05
-6.68553e-05
-6.70086e-06
-3.61229e-05
-3.82491e-06
-1.1961e-05
3.82141e-05
-3.1401e-06
-3.3033e-05
6.94151e-05
-3.59874e-06
-5.67676e-05
7.85507e-05
-3.3296e-06
-8.06304e-05
7.90355e-05
-3.05872e-06
-0.000103659
7.63934e-05
-2.85292e-06
-0.000125341
7.21623e-05
-2.72311e-06
-0.000145231
6.65448e-05
-2.67568e-06
-0.000162839
5.93821e-05
-2.72967e-06
-0.000177591
5.04064e-05
-2.91279e-06
-0.000188804
3.93078e-05
-3.25581e-06
-0.000195676
2.57843e-05
-3.78631e-06
-0.000197302
9.64774e-06
-4.52314e-06
-0.000192668
-9.28037e-06
-5.48318e-06
-0.000180809
-3.06263e-05
-6.60273e-06
-0.000160998
-5.35555e-05
-7.79788e-06
-0.000133071
-7.63986e-05
-8.89584e-06
-9.79572e-05
-9.6147e-05
-9.63338e-06
-5.85827e-05
-0.000107363
-9.67782e-06
-2.14809e-05
-9.96755e-05
-8.52079e-06
-5.43074e-05
-4.91951e-06
-1.24674e-05
5.16513e-05
-3.63636e-06
-3.46172e-05
9.31767e-05
-4.27085e-06
-5.95992e-05
0.000105156
-4.01697e-06
-8.47624e-05
0.000105728
-3.7316e-06
-0.000109159
0.000102246
-3.50664e-06
-0.000132325
9.67506e-05
-3.36164e-06
-0.000153869
8.95251e-05
-3.3094e-06
-0.000173348
8.03726e-05
-3.37689e-06
-0.000190217
6.89358e-05
-3.60192e-06
-0.000203782
5.47707e-05
-4.02827e-06
-0.000213157
3.74002e-05
-4.69996e-06
-0.000217244
1.64308e-05
-5.65734e-06
-0.00021475
-8.50541e-06
-6.92175e-06
-0.000204196
-3.72641e-05
-8.44841e-06
-0.000184256
-6.8878e-05
-1.01351e-05
-0.000154173
-0.0001012
-1.1756e-05
-0.000114575
-0.000129951
-1.29361e-05
-6.88208e-05
-0.0001471
-1.31765e-05
-2.512e-05
-0.000137581
-1.17399e-05
-7.50243e-05
-6.89598e-06
-1.29957e-05
6.58117e-05
-4.16681e-06
-3.62836e-05
0.000118378
-4.994e-06
-6.26071e-05
0.000133416
-4.75992e-06
-8.91928e-05
0.000134147
-4.46613e-06
-0.000115117
0.000129921
-4.23133e-06
-0.000139988
0.000123333
-4.08499e-06
-0.000163499
0.000114763
-4.04824e-06
-0.000185293
0.000103981
-4.15848e-06
-0.000204894
9.05307e-05
-4.46731e-06
-0.00022163
7.37982e-05
-5.03715e-06
-0.000234554
5.30552e-05
-5.93736e-06
-0.000242364
2.75805e-05
-7.24019e-06
-0.000243417
-3.31037e-06
-8.99911e-06
-0.000235506
-4.01436e-05
-1.1192e-05
-0.000216369
-8.19331e-05
-1.37059e-05
-0.000184194
-0.000126241
-1.62479e-05
-0.000138864
-0.000167267
-1.82584e-05
-8.41127e-05
-0.000193378
-1.89303e-05
-3.06374e-05
-0.00018286
-1.70819e-05
-9.95441e-05
-1.01414e-05
-1.36342e-05
8.0842e-05
-4.78675e-06
-3.8261e-05
0.000145277
-5.83968e-06
-6.61399e-05
0.0001636
-5.62786e-06
-9.43523e-05
0.000164551
-5.32373e-06
-0.000122008
0.000159672
-5.07704e-06
-0.000148812
0.000152184
-4.92987e-06
-0.000174584
0.000142596
-4.91462e-06
-0.000199103
0.000130665
-5.08282e-06
-0.000222026
0.000115838
-5.50527e-06
-0.000242783
9.73098e-05
-6.27167e-06
-0.000260439
7.40305e-05
-7.4906e-06
-0.000273501
4.47737e-05
-9.28871e-06
-0.000280077
8.53854e-06
-1.17985e-05
-0.000276907
-3.6834e-05
-1.50264e-05
-0.000260415
-9.0319e-05
-1.89011e-05
-0.000226988
-0.000149863
-2.3055e-05
-0.000174845
-0.000208072
-2.66364e-05
-0.000107584
-0.000248374
-2.82671e-05
-3.93533e-05
-0.000239164
-2.58657e-05
-0.000130202
-1.53677e-05
-1.44075e-05
9.69304e-05
-5.54418e-06
-4.06103e-05
0.000174189
-6.87248e-06
-7.02652e-05
0.000196008
-6.68189e-06
-0.000100274
0.000197179
-6.35516e-06
-0.000129792
0.000191692
-6.08056e-06
-0.000158652
0.00018348
-5.91687e-06
-0.000186845
0.000173232
-5.91164e-06
-0.00021436
0.000160734
-6.1352e-06
-0.000241084
0.000145371
-6.68431e-06
-0.000266674
0.00012616
-7.68736e-06
-0.000290368
0.000101697
-9.3117e-06
-0.000310717
7.0135e-05
-1.17544e-05
-0.000325253
2.94727e-05
-1.51862e-05
-0.000330281
-2.32908e-05
-2.01043e-05
-0.000320067
-8.97489e-05
-2.62165e-05
-0.000288151
-0.00016828
-3.31744e-05
-0.000229337
-0.000250717
-3.97322e-05
-0.000145394
-0.000314323
-4.34826e-05
-5.43561e-05
-0.000312585
-4.05027e-05
-0.000172107
-2.39092e-05
-1.53474e-05
0.000114317
-6.49109e-06
-4.33914e-05
0.000205488
-8.16204e-06
-7.50267e-05
0.000230947
-7.98565e-06
-0.000106932
0.000232223
-7.61011e-06
-0.000138317
0.000226062
-7.27323e-06
-0.000169182
0.000217228
-7.05624e-06
-0.000199745
0.00020666
-7.02655e-06
-0.000230285
0.000194239
-7.27831e-06
-0.000261039
0.000179369
-7.94182e-06
-0.000292076
0.000160963
-9.1985e-06
-0.000323059
0.000137312
-1.13023e-05
-0.000352872
0.000105905
-1.45923e-05
-0.000378854
6.33748e-05
-1.95276e-05
-0.000397514
6.33661e-06
-2.6728e-05
-0.000400081
-7.31937e-05
-3.61622e-05
-0.000376503
-0.000173641
-4.7825e-05
-0.000315022
-0.00028945
-5.98523e-05
-0.000211032
-0.000392169
-6.80932e-05
-8.37388e-05
-0.000414048
-6.50634e-05
-0.000238326
-3.84307e-05
-1.65292e-05
0.000133347
-7.69661e-06
-4.6745e-05
0.000239652
-9.79841e-06
-8.0558e-05
0.000268755
-9.61908e-06
-0.00011437
0.000269813
-9.14846e-06
-0.000147468
0.000262721
-8.68947e-06
-0.000180057
0.000253213
-8.35354e-06
-0.000212638
0.000242558
-8.23312e-06
-0.000245856
0.000230836
-8.45046e-06
-0.000280438
0.000217592
-9.17523e-06
-0.000317084
0.000201812
-1.06536e-05
-0.000356261
0.000181678
-1.32515e-05
-0.00039778
0.0001542
-1.75031e-05
-0.000440046
0.000114797
-2.41175e-05
-0.000478707
5.72912e-05
-3.37743e-05
-0.000505744
-2.84906e-05
-4.85113e-05
-0.00050533
-0.000150916
-6.74845e-05
-0.000454787
-0.000309977
-8.84847e-05
-0.000332847
-0.000478916
-0.000104793
-0.000147505
-0.00056464
-0.000103713
-0.000363347
-6.41608e-05
-1.81109e-05
0.000154562
-9.2637e-06
-5.09675e-05
0.00027735
-1.1911e-05
-8.71752e-05
0.000309834
-1.16945e-05
-0.000122807
0.000310014
-1.10528e-05
-0.000157267
0.000301432
-1.03756e-05
-0.000191012
0.000290937
-9.81529e-06
-0.000224867
0.00028021
-9.49458e-06
-0.000259905
0.000269635
-9.56529e-06
-0.000297442
0.000259079
-1.02365e-05
-0.000339037
0.000247877
-1.18212e-05
-0.000386397
0.000234518
-1.4811e-05
-0.000441081
0.000216087
-1.9975e-05
-0.000503769
0.000187407
-2.84376e-05
-0.000572285
0.000139827
-4.17305e-05
-0.00064101
6.02015e-05
-6.13344e-05
-0.000689527
-7.53207e-05
-8.81003e-05
-0.000679621
-0.000288049
-0.000118444
-0.000554281
-0.000569414
-0.000142161
-0.000281888
-0.00080489
-0.000146467
-0.00062483
-0.000106298
-2.03944e-05
0.000178865
-1.13551e-05
-5.66173e-05
0.000319584
-1.46971e-05
-9.54931e-05
0.000354707
-1.43804e-05
-0.000132744
0.00035283
-1.3446e-05
-0.000167981
0.000341761
-1.24023e-05
-0.000201981
0.000329587
-1.14576e-05
-0.000235915
0.000318438
-1.07704e-05
-0.000271275
0.000309081
-1.05187e-05
-0.000309983
0.000301892
-1.094e-05
-0.000354571
0.00029692
-1.23956e-05
-0.00040837
0.000293606
-1.54702e-05
-0.0004756
0.000290137
-2.11024e-05
-0.000561099
0.000282192
-3.06548e-05
-0.000668918
0.000260361
-4.56151e-05
-0.000797002
0.00020466
-6.65422e-05
-0.000926626
7.33138e-05
-9.18259e-05
-0.000991971
-0.000208813
-0.000112296
-0.000884726
-0.000676719
-0.000121167
-0.000504969
-0.00119062
-0.000134624
-0.0011323
-0.00014928
-2.39275e-05
0.000207793
-1.4236e-05
-6.46833e-05
0.000367904
-1.84595e-05
-0.000106592
0.00040408
-1.79262e-05
-0.000145097
0.000398172
-1.65105e-05
-0.000180246
0.000383039
-1.48791e-05
-0.000213243
0.000368019
-1.3317e-05
-0.000245594
0.0003556
-1.20256e-05
-0.000279104
0.000346916
-1.11995e-05
-0.00031614
0.00034297
-1.10776e-05
-0.000360061
0.000344873
-1.20122e-05
-0.000415845
0.00035376
-1.45578e-05
-0.000490848
0.000370235
-1.95228e-05
-0.000595354
0.000392701
-2.76663e-05
-0.0007414
0.000412348
-3.81838e-05
-0.000934076
0.000398443
-4.51576e-05
-0.00114708
0.000270399
-3.43253e-05
-0.00129143
-0.00011325
9.32529e-06
-0.0012059
-0.000840995
6.18767e-05
-0.000725973
-0.00173123
1.53377e-05
-0.00189524
-0.000138624
-2.97509e-05
0.000244043
-1.83776e-05
-7.68823e-05
0.000424687
-2.37639e-05
-0.000122186
0.000458794
-2.28184e-05
-0.000161296
0.000445768
-2.05891e-05
-0.000195147
0.000424331
-1.80046e-05
-0.000225549
0.000404794
-1.54722e-05
-0.000254281
0.000389694
-1.32406e-05
-0.000283217
0.000380322
-1.15029e-05
-0.000314753
0.000378232
-1.04526e-05
-0.000352469
0.000385711
-1.03272e-05
-0.000402215
0.000406042
-1.1393e-05
-0.000473557
0.000443131
-1.36402e-05
-0.00058096
0.000498948
-1.53004e-05
-0.000741777
0.000563892
-8.37206e-06
-0.000963756
0.000590248
2.7841e-05
-0.00121993
0.000451473
0.000126602
-0.00140829
-6.17905e-05
0.000293485
-0.00134368
-0.00105395
0.0004094
-0.000811148
-0.00231136
0.000256264
-0.00273053
-6.80606e-05
-3.94936e-05
0.000292095
-2.44586e-05
-9.60964e-05
0.000493769
-3.1105e-05
-0.000145388
0.000520097
-2.92887e-05
-0.000183792
0.000494836
-2.5884e-05
-0.000214451
0.000464122
-2.19387e-05
-0.000240237
0.000438124
-1.79925e-05
-0.00026308
0.000418536
-1.43846e-05
-0.000284499
0.000406287
-1.13162e-05
-0.000306203
0.000403109
-8.89977e-06
-0.000330844
0.00041209
-7.13806e-06
-0.0003633
0.000438315
-5.67931e-06
-0.000412455
0.0004886
-2.84116e-06
-0.000492925
0.00056795
7.62122e-06
-0.000623492
0.000664035
4.4719e-05
-0.000817048
0.000714132
0.000147383
-0.00106531
0.000567435
0.000354736
-0.00128747
-2.68821e-05
0.000624251
-0.00125674
-0.00121226
0.000704615
-0.000757413
-0.00273954
0.000346372
-0.00344004
-7.89049e-05
-5.82201e-05
0.000361492
-3.41506e-05
-0.000127689
0.000579036
-4.31753e-05
-0.000178393
0.000585868
-4.02915e-05
-0.000213614
0.000543434
-3.44119e-05
-0.000239095
0.000500948
-2.77718e-05
-0.000258375
0.000466539
-2.13403e-05
-0.000273254
0.000440327
-1.5538e-05
-0.000284447
0.00042223
-1.05224e-05
-0.000292287
0.000413517
-6.26544e-06
-0.00029716
0.000417069
-2.46949e-06
-0.000300724
0.000438658
1.92669e-06
-0.00030728
0.000485852
1.05646e-05
-0.000327614
0.000565908
3.3863e-05
-0.000380536
0.000668112
9.84329e-05
-0.000492063
0.000732427
0.000250766
-0.000679811
0.00060624
0.000516657
-0.000904918
3.11185e-05
0.000794418
-0.000925472
-0.0012396
0.000741226
-0.000596338
-0.00290748
0.000221573
-0.00394297
-0.000240167
-8.83808e-05
0.000463018
-5.15135e-05
-0.000184836
0.000696534
-5.93694e-05
-0.000235942
0.000657676
-5.17447e-05
-0.000259723
0.000585224
-4.31745e-05
-0.00027334
0.00052959
-3.37684e-05
-0.000281293
0.000486369
-2.43741e-05
-0.000283888
0.000451621
-1.57666e-05
-0.000280151
0.000423993
-8.29742e-06
-0.000269003
0.000404669
-1.93811e-06
-0.000247996
0.000395035
3.48401e-06
-0.000215323
0.000400201
9.59137e-06
-0.000167732
0.00042474
2.07662e-05
-0.000107615
0.000477684
4.82863e-05
-4.73677e-05
0.000554157
0.000117278
-2.5142e-05
0.000620898
0.000267884
-8.74553e-05
0.000548551
0.000507716
-0.000225377
6.33019e-05
0.000731093
-0.000342576
-0.00110446
0.000574204
-0.000244757
-0.00285648
8.72385e-05
-0.00413075
-0.000398901
-9.85127e-05
0.000579225
-6.55406e-05
-0.000219331
0.000837338
-8.38802e-05
-0.000284411
0.000741748
-7.98052e-05
-0.000310635
0.000630384
-6.51695e-05
-0.000308822
0.000545221
-4.77628e-05
-0.000288056
0.000480537
-3.15636e-05
-0.000254233
0.000429245
-1.76586e-05
-0.000209683
0.00038703
-6.26768e-06
-0.000156263
0.000355539
2.18845e-06
-9.14282e-05
0.000330518
8.61689e-06
-1.33666e-05
0.000317701
1.38095e-05
8.60453e-05
0.000313507
2.10583e-05
0.000208748
0.000330981
3.86895e-05
0.000361351
0.000359074
8.26455e-05
0.000524583
0.000394742
0.000183267
0.000650674
0.000351576
0.000344446
0.000662546
1.44528e-05
0.000475943
0.000486881
-0.000873364
0.000352819
0.000302865
-0.00258085
-4.26693e-06
-0.00388479
-0.000466616
-0.000772672
0.00133354
-0.000145718
-0.000715149
0.000803
-0.000134161
-0.000489622
0.000542422
-0.000113247
-0.000269208
0.000438638
-9.08417e-05
-6.37768e-05
0.000368524
-6.97127e-05
0.000132859
0.000310517
-5.04333e-05
0.000318391
0.000266404
-3.33532e-05
0.000493252
0.000229766
-1.95237e-05
0.000657715
0.000205069
-7.40852e-06
0.000815707
0.000182539
4.93373e-07
0.000968225
0.00017103
5.85596e-06
0.00112179
0.000160408
8.07301e-06
0.00128123
0.000164829
1.26095e-05
0.0014554
0.000170071
2.13886e-05
0.00166104
0.000168136
5.32449e-05
0.0018715
0.000123422
0.00010749
0.00196362
-6.38046e-05
0.000153398
0.00185721
-0.000683542
0.000103369
0.00115696
-0.00183553
-7.7261e-05
-0.0029008
-0.000514626
0.00129991
-0.000136768
0.00209329
-0.000149515
0.00263565
-0.000145681
0.00308188
-0.000137862
0.00346434
-0.00012678
0.00379251
-0.00011508
0.00407864
-0.00010233
0.00432894
-9.18247e-05
0.00455369
-7.93768e-05
0.00475542
-7.22823e-05
0.00494221
-5.94474e-05
0.00511797
-5.81322e-05
0.00529243
-4.32173e-05
0.0054731
-4.7399e-05
0.00564772
-2.51755e-05
0.00578887
-3.60528e-05
0.0057365
-5.18237e-06
0.00508143
-7.19618e-05
0.00321653
-0.000102399
-0.000481331
-4.23815e-06
4.44481e-06
-1.07812e-06
-1.40443e-05
1.03275e-05
-1.20241e-06
-2.56319e-05
1.22264e-05
-1.06501e-06
-3.73855e-05
1.24181e-05
-9.67011e-07
-4.88023e-05
1.2076e-05
-9.42935e-07
-5.96536e-05
1.14962e-05
-9.91032e-07
-6.97182e-05
1.06953e-05
-1.10982e-06
-7.87189e-05
9.62089e-06
-1.30332e-06