/*--------------------------------*- C++ -*----------------------------------*\
  =========                 |
  \\      /  F ield         | OpenFOAM: The Open Source CFD Toolbox
   \\    /   O peration     | Website:  https://openfoam.org
    \\  /    A nd           | Version:  10
     \\/     M anipulation  |
\*---------------------------------------------------------------------------*/
FoamFile
{
    format      ascii;
    class       volVectorField;
    location    "6";
    object      U;
}
// * * * * * * * * * * * * * * * * * * * * * * * * * * * * * * * * * * * * * //

dimensions      [0 1 -1 0 0 0 0];

internalField   nonuniform List<vector> 
8000
(
(-6.41311e-05 8.23175e-05 -2.28721e-05)
(-0.000395839 0.000184462 7.50889e-06)
(-0.000963814 0.000217507 2.41255e-05)
(-0.00156978 0.00022526 2.92301e-05)
(-0.00218019 0.000227979 2.88521e-05)
(-0.00278265 0.000229391 2.51925e-05)
(-0.00336514 0.000228608 1.90769e-05)
(-0.00391293 0.000223414 1.01291e-05)
(-0.00440864 0.000210763 -3.44312e-06)
(-0.00482942 0.00018917 -2.00971e-05)
(-0.00514531 0.000156657 -3.96216e-05)
(-0.0053228 0.000111617 -6.20527e-05)
(-0.00532671 5.31775e-05 -8.76308e-05)
(-0.00512318 -1.86903e-05 -0.000115139)
(-0.00468738 -9.94849e-05 -0.000143057)
(-0.00401214 -0.000182182 -0.000167725)
(-0.00311703 -0.000256057 -0.000183625)
(-0.00205711 -0.000303387 -0.000182958)
(-0.000950353 -0.00028678 -0.000152816)
(-0.000202701 -0.000138782 -7.12682e-05)
(-0.000160727 0.000478051 -7.82697e-05)
(-0.000782781 0.000883892 -5.83023e-05)
(-0.00175158 0.00101085 -4.0486e-05)
(-0.00277002 0.00103495 -3.21002e-05)
(-0.00378516 0.0010284 -2.81294e-05)
(-0.00477444 0.0010079 -2.70426e-05)
(-0.00571535 0.000972644 -2.83056e-05)
(-0.00658373 0.000916769 -3.21968e-05)
(-0.00735079 0.000832342 -3.95581e-05)
(-0.00798122 0.000712976 -5.06222e-05)
(-0.00843278 0.000552078 -6.5681e-05)
(-0.00865855 0.000344784 -8.50621e-05)
(-0.00861054 8.99672e-05 -0.000109541)
(-0.00824118 -0.000207466 -0.000136244)
(-0.00751577 -0.000532419 -0.000164032)
(-0.00642729 -0.000858326 -0.00018856)
(-0.00500765 -0.00114366 -0.000202891)
(-0.00333896 -0.00132086 -0.000197591)
(-0.00159532 -0.0012577 -0.000155602)
(-0.000367202 -0.000698209 -4.97466e-05)
(-0.000194704 0.00115449 -0.000111866)
(-0.000925864 0.00199008 -9.92843e-05)
(-0.00204469 0.00224112 -8.15162e-05)
(-0.00321034 0.00227953 -7.13759e-05)
(-0.00436749 0.00224526 -6.45616e-05)
(-0.00549292 0.00217401 -6.00379e-05)
(-0.00656224 0.00206706 -5.75158e-05)
(-0.00754976 0.00191566 -5.74181e-05)
(-0.0084246 0.00170772 -6.0541e-05)
(-0.00914869 0.00143041 -6.76944e-05)
(-0.00967614 0.0010716 -7.9698e-05)
(-0.00995421 0.000622595 -9.72844e-05)
(-0.00992612 8.2015e-05 -0.00012098)
(-0.00953428 -0.000538848 -0.000148655)
(-0.00873249 -0.00121176 -0.000178685)
(-0.00750284 -0.00188393 -0.000205893)
(-0.00587351 -0.00247116 -0.00022194)
(-0.00393376 -0.00283619 -0.000215469)
(-0.0018852 -0.00272012 -0.000166078)
(-0.000434204 -0.00159703 -4.3012e-05)
(-0.000201461 0.00190485 -0.0001338)
(-0.000972258 0.00321276 -0.000126113)
(-0.00215689 0.0035926 -0.00010831)
(-0.00338815 0.00364221 -9.71796e-05)
(-0.00461176 0.00357707 -8.8896e-05)
(-0.00580709 0.00345283 -8.2703e-05)
(-0.00695174 0.00327294 -7.84805e-05)
(-0.00802183 0.00302562 -7.68365e-05)
(-0.00898768 0.00269373 -7.87903e-05)
(-0.009811 0.00225786 -8.54993e-05)
(-0.0104433 0.00169882 -9.81451e-05)
(-0.0108257 0.00100154 -0.000117846)
(-0.01089 0.000160804 -0.000145631)
(-0.0105613 -0.000810692 -0.000179469)
(-0.0097702 -0.00187403 -0.000217186)
(-0.00847518 -0.00294844 -0.000252589)
(-0.00668893 -0.00390011 -0.000274889)
(-0.00450319 -0.00450667 -0.000269285)
(-0.00215525 -0.00435407 -0.000210608)
(-0.000490988 -0.00259531 -6.09081e-05)
(-0.000201439 0.00269891 -0.000151933)
(-0.000994065 0.00451212 -0.000148837)
(-0.00222442 0.00502855 -0.000131285)
(-0.00350493 0.00509169 -0.000119806)
(-0.00478267 0.00499949 -0.000111004)
(-0.00604083 0.0048292 -0.000104367)
(-0.00726084 0.00458686 -9.99532e-05)
(-0.00842279 0.00425762 -9.8579e-05)
(-0.00950029 0.00381856 -0.000101542)
(-0.0104566 0.00324218 -0.000110389)
(-0.0112414 0.00249913 -0.00012679)
(-0.0117885 0.00156308 -0.00015242)
(-0.0120142 0.000418825 -0.000188388)
(-0.0118194 -0.000925667 -0.000234565)
(-0.011098 -0.00242991 -0.000286663)
(-0.00976582 -0.00398467 -0.000337353)
(-0.00780352 -0.00539632 -0.000371839)
(-0.00529841 -0.00633072 -0.000369332)
(-0.00253899 -0.00617264 -0.000296819)
(-0.000573181 -0.00369521 -0.000103452)
(-0.000200272 0.00353313 -0.000170372)
(-0.00101371 0.00588721 -0.000172066)
(-0.00229103 0.0065519 -0.000154964)
(-0.00362346 0.00663438 -0.000143538)
(-0.00495949 0.00652292 -0.00013478)
(-0.00628715 0.00631898 -0.000128444)
(-0.00759344 0.00603224 -0.000124826)
(-0.00886461 0.00564514 -0.000125022)
(-0.0100802 0.00512857 -0.000130691)
(-0.0112079 0.00444518 -0.000143902)
(-0.0121982 0.00355175 -0.000167022)
(-0.0129781 0.00240434 -0.000202498)
(-0.0134462 0.000968664 -0.000252168)
(-0.0134746 -0.000764989 -0.000320392)
(-0.0129028 -0.00277091 -0.000397338)
(-0.0115758 -0.00491356 -0.000475616)
(-0.00941376 -0.00693043 -0.000533742)
(-0.00647826 -0.00833542 -0.000540064)
(-0.00312274 -0.00823645 -0.000447004)
(-0.000701478 -0.00493493 -0.000180652)
(-0.000198855 0.00441108 -0.000191693)
(-0.00103593 0.00734569 -0.000198969)
(-0.00236624 0.00817183 -0.00018245)
(-0.0037558 0.00828023 -0.000171182)
(-0.00515456 0.00815877 -0.000162581)
(-0.00655667 0.00793672 -0.000156768)
(-0.00795661 0.00762929 -0.000154388)
(-0.0093496 0.00721747 -0.000156935)
(-0.0107249 0.00666638 -0.0001666)
(-0.0120592 0.00592783 -0.000186229)
(-0.013309 0.00494117 -0.000219387)
(-0.014399 0.00363694 -0.000269929)
(-0.0152122 0.00194667 -0.000341285)
(-0.0155933 -0.000178893 -0.000446782)
(-0.0153049 -0.00272357 -0.000565055)
(-0.0140813 -0.00558138 -0.000693482)
(-0.0117339 -0.0084102 -0.00079867)
(-0.00824565 -0.010518 -0.000828806)
(-0.00403291 -0.0106139 -0.000707478)
(-0.000909763 -0.00637015 -0.000317324)
(-0.000197253 0.00534084 -0.000217697)
(-0.00106143 0.00890158 -0.000231961)
(-0.00245077 0.00990219 -0.000216074)
(-0.00390019 0.0100411 -0.000204716)
(-0.00536108 0.00991734 -0.000195894)
(-0.0068351 0.00969293 -0.000190268)
(-0.00832641 0.00939164 -0.000188993)
(-0.00984247 0.00899561 -0.000194141)
(-0.011387 0.00846638 -0.000208672)
(-0.0129529 0.00774609 -0.000236613)
(-0.0145119 0.00675534 -0.000283417)
(-0.0159992 0.00539295 -0.000355906)
(-0.0172937 0.00354224 -0.000462378)
(-0.0181885 0.00109404 -0.000609908)
(-0.0183888 -0.00199759 -0.000812101)
(-0.0174907 -0.0056941 -0.00103434)
(-0.0150756 -0.00960803 -0.00123481)
(-0.0109455 -0.0127886 -0.00132643)
(-0.00552673 -0.0133641 -0.00117369)
(-0.00127942 -0.00809486 -0.000570345)
(-0.000196165 0.00633413 -0.000250111)
(-0.00109229 0.0105734 -0.000273386)
(-0.00254653 0.0117589 -0.000258021)
(-0.00405491 0.0119272 -0.000245858)
(-0.00557008 0.0118034 -0.000235804)
(-0.00710276 0.0115887 -0.000229321)
(-0.00866901 0.0113198 -0.000228292)
(-0.0102918 0.0109842 -0.000235584)
(-0.0119948 0.0105449 -0.000255235)
(-0.0137951 0.00993925 -0.000293005)
(-0.0156926 0.00907282 -0.000357281)
(-0.01765 0.00781242 -0.000459921)
(-0.0195601 0.00598343 -0.000615552)
(-0.0212044 0.00338293 -0.000835356)
(-0.0222316 -0.000178072 -0.00117413)
(-0.0220522 -0.00471488 -0.00156657)
(-0.0199085 -0.0100069 -0.00195754)
(-0.0152026 -0.0148201 -0.00220221)
(-0.00817879 -0.0164702 -0.00204301)
(-0.00202201 -0.01029 -0.00108112)
(-0.000197976 0.00740872 -0.000291214)
(-0.00113533 0.0123862 -0.000326251)
(-0.00266225 0.0137602 -0.000310999)
(-0.00422526 0.0139461 -0.000296621)
(-0.00577837 0.0138135 -0.00028341)
(-0.0073432 0.0136113 -0.000274023)
(-0.00894965 0.0133944 -0.00027134)
(-0.0106388 0.0131621 -0.00027924)
(-0.0124584 0.0128865 -0.000303159)
(-0.0144581 0.0125109 -0.000351181)
(-0.0166811 0.0119382 -0.00043583)
(-0.0191445 0.0110151 -0.000576324)
(-0.0218013 0.00951308 -0.000800134)
(-0.0244721 0.00711483 -0.0011452)
(-0.0267295 0.00343803 -0.00164751)
(-0.0279288 -0.00182739 -0.00236935)
(-0.0268795 -0.00854346 -0.00312871)
(-0.0221268 -0.0157243 -0.00373104)
(-0.0132601 -0.0196397 -0.0036989)
(-0.00366863 -0.0132855 -0.00222923)
(-0.000208214 0.00859425 -0.000344557)
(-0.00120626 0.0143775 -0.000395047)
(-0.00281953 0.0159302 -0.00037895)
(-0.00443043 0.0161029 -0.00035985)
(-0.00599568 0.0159347 -0.000340187)
(-0.00755082 0.0157309 -0.000324392)
(-0.00914109 0.0155708 -0.000316649)
(-0.0108262 0.0154721 -0.00032203)
(-0.012679 0.0154273 -0.00034759)
(-0.0147857 0.0154022 -0.000404267)
(-0.0172448 0.0153222 -0.000509965)
(-0.020155 0.0150471 -0.000694106)
(-0.0235832 0.0143335 -0.00100251)
(-0.0274929 0.0127843 -0.00149706)
(-0.0316128 0.00979162 -0.00223955)
(-0.035096 0.00453206 -0.0033355)
(-0.0365471 -0.00352928 -0.00479836)
(-0.0333745 -0.0137032 -0.00607502)
(-0.0231397 -0.0220471 -0.00655118)
(-0.00732571 -0.0176716 -0.00481689)
(-0.000238169 0.00994301 -0.000416124)
(-0.00133642 0.0166075 -0.000487034)
(-0.00306166 0.0183044 -0.00046809)
(-0.00471219 0.0184028 -0.000439958)
(-0.00625308 0.0181439 -0.00040845)
(-0.00773994 0.0178987 -0.000380634)
(-0.00923465 0.0177743 -0.000362349)
(-0.0108127 0.017813 -0.000359877)
(-0.0125663 0.0180386 -0.000381834)
(-0.0146131 0.0184611 -0.000442059)
(-0.0171058 0.019065 -0.000564158)
(-0.0202389 0.0197814 -0.000788224)
(-0.0242432 0.0204366 -0.00117773)
(-0.0293583 0.0206547 -0.00181898)
(-0.035716 0.0196664 -0.00280584)
(-0.0429191 0.01602 -0.0042085)
(-0.0490341 0.00749222 -0.00606137)
(-0.0501179 -0.00698388 -0.00802735)
(-0.0404946 -0.023775 -0.00943148)
(-0.0143566 -0.0256841 -0.00908454)
(-0.000309917 0.0115495 -0.000516536)
(-0.00158459 0.0191757 -0.000614338)
(-0.00346746 0.0209362 -0.000588364)
(-0.00514674 0.0208517 -0.000543912)
(-0.00661275 0.0204081 -0.000491963)
(-0.00795496 0.020047 -0.000443474)
(-0.00925368 0.0199009 -0.000406348)
(-0.0105928 0.0200365 -0.000387864)
(-0.0120693 0.020517 -0.000397618)
(-0.0138108 0.021416 -0.00045134)
(-0.0159992 0.0228182 -0.000576281)
(-0.0189026 0.0247997 -0.000817391)
(-0.0229205 0.0273734 -0.00123621)
(-0.0286677 0.0303305 -0.00188267)
(-0.037039 0.0327935 -0.00274224)
(-0.0487181 0.0322195 -0.00369908)
(-0.0622716 0.0235086 -0.00449246)
(-0.0717356 0.00132856 -0.00502686)
(-0.0652512 -0.0311044 -0.00670728)
(-0.0240418 -0.045079 -0.0114849)
(-0.000467479 0.0135934 -0.000666742)
(-0.00206056 0.0222637 -0.000801604)
(-0.00417383 0.0239215 -0.000760393)
(-0.00585906 0.0234663 -0.000685536)
(-0.0071768 0.0226882 -0.000597806)
(-0.00827849 0.0220933 -0.000514557)
(-0.00926596 0.0218231 -0.000446054)
(-0.010219 0.0219567 -0.000399857)
(-0.0112143 0.0225919 -0.000385189)
(-0.0123495 0.023873 -0.000417017)
(-0.013778 0.0260104 -0.000519805)
(-0.0157667 0.0292803 -0.000725087)
(-0.0188123 0.0339674 -0.00103666)
(-0.0239265 0.0400768 -0.00130303)
(-0.0331568 0.0464441 -0.00104061)
(-0.0494248 0.0487425 0.000521703)
(-0.0731168 0.0374038 0.00387808)
(-0.0954959 0.00111665 0.00806754)
(-0.0926759 -0.0575877 0.00737838)
(-0.0310037 -0.0880529 -0.00653556)
(-0.000794885 0.016374 -0.000900083)
(-0.00296376 0.0260874 -0.00107347)
(-0.00542068 0.0272959 -0.000995586)
(-0.00705343 0.0262 -0.000872758)
(-0.00810032 0.0249057 -0.000730112)
(-0.0088356 0.0239333 -0.000592606)
(-0.00938753 0.0233987 -0.000474763)
(-0.00981299 0.0233694 -0.000384945)
(-0.0101356 0.0239584 -0.000331026)
(-0.01037 0.0253594 -0.000323633)
(-0.0105601 0.0278936 -0.000374749)
(-0.0108557 0.0320193 -0.000473689)
(-0.0117292 0.0382701 -0.000487308)
(-0.0145622 0.0467933 0.000148313)
(-0.0229503 0.0559776 0.00274053)
(-0.0437293 0.0595621 0.00883352)
(-0.080763 0.0416469 0.0185216)
(-0.11716 -0.0223445 0.0271952)
(-0.114912 -0.123782 0.022251)
(-0.0309808 -0.163835 -0.00258529)
(-0.00149884 0.0205676 -0.00132397)
(-0.00473283 0.0314883 -0.00159635)
(-0.00759244 0.0316599 -0.00146182)
(-0.00895805 0.0293165 -0.00121072)
(-0.00952774 0.0271156 -0.000935588)
(-0.00974026 0.025512 -0.000685658)
(-0.00972865 0.0245028 -0.000477178)
(-0.00950234 0.0240806 -0.000315797)
(-0.00900645 0.0243285 -0.000205913)
(-0.00813118 0.0254239 -0.000149651)
(-0.00674459 0.0277288 -0.000139513)
(-0.00477035 0.0317705 -0.000100447)
(-0.00248953 0.0382538 0.000275949)
(-0.00141787 0.0474367 0.00194483)
(-0.00636794 0.0576237 0.00698172)
(-0.0286673 0.0603035 0.0173407)
(-0.0758769 0.0285202 0.0310423)
(-0.11938 -0.0780125 0.0360703)
(-0.123529 -0.217766 0.0185266)
(-0.0254343 -0.261456 -0.0159427)
(-0.00267822 0.0284666 -0.00223545)
(-0.00786426 0.037909 -0.00228376)
(-0.0114945 0.0349802 -0.00186198)
(-0.0121962 0.0313119 -0.0014838)
(-0.0117497 0.0284479 -0.00107467)
(-0.0110018 0.0263178 -0.000683414)
(-0.0100711 0.0247874 -0.000347329)
(-0.00888634 0.0237993 -8.86224e-05)
(-0.00732036 0.0234254 8.0316e-05)
(-0.00514273 0.0237486 0.000163848)
(-0.00205449 0.0251035 0.000187785)
(0.00233405 0.0278957 0.000260624)
(0.00809132 0.0328936 0.000767053)
(0.0142726 0.0404636 0.00280197)
(0.0166851 0.0497185 0.00865635)
(0.00333439 0.0505531 0.0200835)
(-0.0392789 0.00700023 0.0331333)
(-0.0817728 -0.124748 0.0298545)
(-0.114624 -0.277207 0.00496635)
(-0.0146343 -0.3442 -0.0377512)
(-0.0049312 0.0328432 -0.00285649)
(-0.0143363 0.0522649 -0.00392987)
(-0.0179215 0.0459295 -0.00372797)
(-0.0157867 0.0376392 -0.00277859)
(-0.0126812 0.0318883 -0.00175938)
(-0.00933912 0.0278304 -0.000898475)
(-0.00583457 0.0248496 -0.000221487)
(-0.00212872 0.0226228 0.000251162)
(0.00175195 0.0211508 0.000523364)
(0.00615197 0.0202464 0.000633794)
(0.0112857 0.0201649 0.000610636)
(0.0179733 0.0209267 0.000506658)
(0.0262591 0.0233075 0.00062079)
(0.0366991 0.0271775 0.00183379)
(0.046235 0.0327164 0.00608148)
(0.0494907 0.0319015 0.0150529)
(0.0255786 -0.0073679 0.0247872)
(-0.00644433 -0.130211 0.020694)
(-0.0813376 -0.280502 -0.00292833)
(0.0083485 -0.371251 -0.0492687)
(-0.0570327 0.084828 -0.0103043)
(-0.0389344 0.0518931 -0.00710807)
(-0.0225682 0.0324192 -0.0056158)
(-0.00222939 0.0250039 -0.00403477)
(0.0150609 0.0203024 -0.00267607)
(0.0300145 0.0165731 -0.0014822)
(0.0427678 0.0138585 -0.000508777)
(0.0542291 0.0118838 0.000176935)
(0.0639265 0.0107026 0.00061191)
(0.0734615 0.00978555 0.000811824)
(0.0815603 0.00962629 0.000846071)
(0.0914521 0.00953328 0.000639459)
(0.0996736 0.0107324 0.000376755)
(0.112232 0.0116985 0.000268762)
(0.119348 0.0131168 0.00161003)
(0.133789 0.0086092 0.00499631)
(0.116949 -0.0165109 0.0102096)
(0.117663 -0.0964018 0.0115137)
(0.0138487 -0.215258 -0.00681877)
(0.0643743 -0.300222 -0.0530175)
(0.134144 0.0889483 -0.0110103)
(0.161502 0.0614035 -0.0105238)
(0.216853 0.040295 -0.00966351)
(0.262675 0.0281246 -0.0086479)
(0.295775 0.0206901 -0.007487)
(0.321755 0.0154887 -0.00641075)
(0.341672 0.0118263 -0.00537133)
(0.359742 0.00904573 -0.00450706)
(0.372736 0.00719592 -0.00372416)
(0.387203 0.00562147 -0.00311435)
(0.3952 0.00479921 -0.00257061)
(0.409479 0.00396011 -0.00226535)
(0.413078 0.00385182 -0.00189608)
(0.430484 0.00361149 -0.00186338)
(0.426359 0.00359445 -0.00124628)
(0.445384 0.00205444 -0.000865134)
(0.413458 -0.00440441 0.000316831)
(0.410567 -0.0221976 -0.00131118)
(0.27052 -0.0544176 -0.0072288)
(0.218153 -0.098184 -0.0543406)
(-0.000121722 0.000137664 -6.79918e-05)
(-0.00071882 0.000349729 -2.82007e-05)
(-0.00171695 0.000420369 1.59433e-06)
(-0.00275929 0.000431444 1.32424e-05)
(-0.00378722 0.000426573 1.39911e-05)
(-0.00478175 0.000415716 7.26508e-06)
(-0.00572368 0.000398465 -5.63766e-06)
(-0.00659098 0.000372158 -2.50775e-05)
(-0.0073539 0.000334117 -5.27171e-05)
(-0.00797615 0.000280233 -8.80492e-05)
(-0.00841672 0.000207445 -0.000131194)
(-0.00862968 0.000113779 -0.000182079)
(-0.00856655 -1.64676e-06 -0.000240251)
(-0.00818229 -0.000135996 -0.000302519)
(-0.00744512 -0.00028226 -0.000364625)
(-0.00634674 -0.000428501 -0.000418505)
(-0.00491631 -0.000554987 -0.000452575)
(-0.00323284 -0.000625965 -0.000451628)
(-0.00147897 -0.000563858 -0.000391717)
(-0.000308116 -0.000242664 -0.00021923)
(-0.000346184 0.000798695 -0.0001787)
(-0.00158207 0.00162747 -0.00016254)
(-0.00343461 0.00189208 -0.000129355)
(-0.00534729 0.00192279 -0.000110016)
(-0.00721609 0.00187623 -0.000100197)
(-0.00899864 0.00179333 -9.78396e-05)
(-0.0106532 0.00167662 -0.000102122)
(-0.0121369 0.00151891 -0.000113639)
(-0.0134008 0.0013112 -0.000133831)
(-0.0143883 0.00104258 -0.000163751)
(-0.0150361 0.00070414 -0.000204193)
(-0.0152776 0.000290731 -0.000255443)
(-0.0150441 -0.000196095 -0.000318363)
(-0.0142735 -0.000744135 -0.000386566)
(-0.0129257 -0.00132671 -0.000455647)
(-0.0109978 -0.00189747 -0.000515226)
(-0.00854404 -0.00238053 -0.000550069)
(-0.00569247 -0.00264142 -0.000540811)
(-0.00272613 -0.00240787 -0.000454641)
(-0.000631401 -0.00120779 -0.000222153)
(-0.000437386 0.00192583 -0.000248354)
(-0.00194234 0.00361251 -0.000250844)
(-0.00415002 0.00412867 -0.000217942)
(-0.00640887 0.00417082 -0.000194489)
(-0.00860526 0.00404236 -0.000178486)
(-0.0106925 0.00382764 -0.000168977)
(-0.0126228 0.00353618 -0.000165675)
(-0.0143485 0.00315738 -0.000169646)
(-0.015816 0.0026754 -0.000182718)
(-0.0169637 0.00207314 -0.000206821)
(-0.0177219 0.00133563 -0.000243694)
(-0.0180148 0.000454414 -0.000294516)
(-0.0177622 -0.000566291 -0.000359544)
(-0.0168886 -0.00170302 -0.000433884)
(-0.015339 -0.00290335 -0.000511833)
(-0.0130976 -0.00407468 -0.000580872)
(-0.0102165 -0.00506332 -0.000622275)
(-0.00683724 -0.00559811 -0.000612115)
(-0.00329023 -0.00514911 -0.000510545)
(-0.000766019 -0.00275341 -0.000237977)
(-0.000467656 0.00316889 -0.000298452)
(-0.00208797 0.00579197 -0.000315329)
(-0.00446499 0.00656875 -0.000282877)
(-0.00688938 0.00661499 -0.000256974)
(-0.00924657 0.00639573 -0.000237467)
(-0.0114928 0.00604075 -0.000224144)
(-0.0135821 0.00556664 -0.000217184)
(-0.0154684 0.00495941 -0.000218189)
(-0.017099 0.00419633 -0.00022964)
(-0.0184113 0.00325192 -0.000254313)
(-0.019331 0.00210244 -0.00029483)
(-0.0197721 0.000732108 -0.000353294)
(-0.0196376 -0.000857851 -0.000431534)
(-0.0188252 -0.00263911 -0.00052407)
(-0.0172462 -0.00453589 -0.000624203)
(-0.0148506 -0.00640636 -0.000716458)
(-0.0116677 -0.00800528 -0.000776093)
(-0.00784383 -0.00889505 -0.000770887)
(-0.00376932 -0.0082336 -0.000649758)
(-0.000868662 -0.00447723 -0.000312178)
(-0.000483691 0.00447846 -0.00034274)
(-0.00218133 0.00809936 -0.000373644)
(-0.004684 0.00915055 -0.000342233)
(-0.00723737 0.00920246 -0.000315173)
(-0.00972725 0.00889537 -0.00029409)
(-0.0121152 0.00840727 -0.000279477)
(-0.0143606 0.00776223 -0.000272033)
(-0.0164227 0.00694253 -0.000273996)
(-0.0182529 0.00591725 -0.000288666)
(-0.0197898 0.00464941 -0.000319907)
(-0.0209548 0.003101 -0.000371714)
(-0.0216489 0.00124098 -0.00044788)
(-0.0217519 -0.000941671 -0.000550559)
(-0.0211214 -0.00342601 -0.000677118)
(-0.0196118 -0.00612153 -0.000817792)
(-0.0171103 -0.00883561 -0.000953061)
(-0.0135959 -0.0112098 -0.00104812)
(-0.00920889 -0.0125877 -0.0010558)
(-0.00442642 -0.0117272 -0.000904959)
(-0.00100953 -0.00640157 -0.000457091)
(-0.000500273 0.00585547 -0.000389033)
(-0.00227876 0.0105419 -0.000434947)
(-0.00491521 0.0118876 -0.000405002)
(-0.00760848 0.0119518 -0.000377535)
(-0.0102448 0.0115653 -0.000355972)
(-0.012793 0.0109587 -0.000341599)
(-0.0152206 0.0101648 -0.000335794)
(-0.0174956 0.0091622 -0.000341631)
(-0.0195775 0.00791032 -0.000363517)
(-0.0214103 0.00635703 -0.000406839)
(-0.0229142 0.00444313 -0.000477663)
(-0.0239776 0.00211149 -0.000582286)
(-0.0244542 -0.000676845 -0.000725314)
(-0.0241482 -0.0039302 -0.000909684)
(-0.0228286 -0.00756011 -0.00111962)
(-0.0202793 -0.0113291 -0.00133187)
(-0.0163804 -0.0147392 -0.00149484)
(-0.011231 -0.0168324 -0.00153364)
(-0.0054202 -0.0158195 -0.00133835)
(-0.00122496 -0.00862862 -0.000703688)
(-0.000520906 0.00731121 -0.000442826)
(-0.00239545 0.01314 -0.000506191)
(-0.00518816 0.0148026 -0.000477959)
(-0.00804251 0.0148864 -0.000450115)
(-0.0108452 0.0144306 -0.000428128)
(-0.0135746 0.0137243 -0.000414306)
(-0.0162096 0.0128113 -0.000410974)
(-0.0187315 0.0116677 -0.000422365)
(-0.0211141 0.0102429 -0.000454449)
(-0.0233137 0.00846631 -0.00051487)
(-0.025257 0.00625004 -0.000613037)
(-0.0268257 0.0034959 -0.000759698)
(-0.0278529 0.000111018 -0.000965047)
(-0.0280808 -0.00395611 -0.00124313)
(-0.0271588 -0.00867267 -0.00156828)
(-0.0247109 -0.0137809 -0.0019184)
(-0.020431 -0.0186224 -0.00221369)
(-0.014289 -0.0218192 -0.0023274)
(-0.00697989 -0.0207882 -0.00207063)
(-0.0015701 -0.0113222 -0.00111589)
(-0.000546575 0.00886255 -0.000508451)
(-0.0025357 0.0159226 -0.000593191)
(-0.00550998 0.0179247 -0.000566649)
(-0.00854531 0.0180319 -0.000537566)
(-0.0115289 0.0175143 -0.000513989)
(-0.0144512 0.0167274 -0.00049963)
(-0.0173065 0.0157301 -0.000498131)
(-0.0200954 0.0144988 -0.000515313)
(-0.022814 0.0129743 -0.000559331)
(-0.0254424 0.0110672 -0.000641138)
(-0.0279289 0.008655 -0.000775241)
(-0.0301676 0.00558358 -0.000979151)
(-0.031969 0.00168018 -0.00127137)
(-0.0330306 -0.0031923 -0.00168416)
(-0.032874 -0.0091409 -0.00221679)
(-0.0308719 -0.0159396 -0.00281582)
(-0.0263908 -0.0227932 -0.00337137)
(-0.0190774 -0.0277658 -0.00366312)
(-0.00961125 -0.027075 -0.0033377)
(-0.00218399 -0.014803 -0.0018258)
(-0.000578935 0.0105305 -0.000590346)
(-0.00270451 0.018924 -0.000701907)
(-0.00588688 0.0212843 -0.000676543)
(-0.00911874 0.0214105 -0.000644168)
(-0.0122877 0.0208311 -0.000616253)
(-0.0153998 0.0199785 -0.000598478)
(-0.0184688 0.0189325 -0.000596265)
(-0.0215214 0.0176752 -0.000617524)
(-0.0245859 0.0161446 -0.000673339)
(-0.0276811 0.0142358 -0.000779351)
(-0.0307989 0.011792 -0.000957862)
(-0.0338731 0.00859408 -0.00123947)
(-0.0367275 0.00436109 -0.00166448)
(-0.0390679 -0.00122735 -0.00227797)
(-0.0402857 -0.00842858 -0.0031359)
(-0.0394292 -0.0172628 -0.00417083)
(-0.0353563 -0.0269226 -0.00522733)
(-0.0269957 -0.034837 -0.00592645)
(-0.0145606 -0.035434 -0.00558453)
(-0.00345159 -0.0198375 -0.00313111)
(-0.000622133 0.0123434 -0.000694374)
(-0.0029135 0.0221858 -0.00083995)
(-0.00633408 0.0249134 -0.000814413)
(-0.00977326 0.0250383 -0.000774957)
(-0.0131196 0.0243826 -0.000737735)
(-0.0163983 0.0234681 -0.000711175)
(-0.0196478 0.0224034 -0.000703029)
(-0.0229267 0.0211847 -0.000723766)
(-0.0263058 0.0197571 -0.000788082)
(-0.0298597 0.0180121 -0.000917635)
(-0.0336527 0.0157694 -0.00114533)
(-0.0377082 0.0127493 -0.0015204)
(-0.0419542 0.00854416 -0.00211084)
(-0.0461184 0.00260645 -0.0029977)
(-0.0496111 -0.00562443 -0.00432351)
(-0.0512643 -0.016665 -0.00611082)
(-0.0491391 -0.0300404 -0.00805338)
(-0.0407593 -0.0428371 -0.00957049)
(-0.0247158 -0.0471319 -0.00945744)
(-0.00634422 -0.0283188 -0.00573447)
(-0.000684955 0.0143439 -0.000829388)
(-0.0031868 0.0257638 -0.00101836)
(-0.0068845 0.0288483 -0.00098982)
(-0.0105377 0.0289256 -0.000936871)
(-0.0140382 0.0281548 -0.000882148)
(-0.0174363 0.0271618 -0.000837935)
(-0.0207991 0.0260928 -0.000814911)
(-0.024222 0.0249685 -0.00082639)
(-0.027825 0.0237564 -0.000890995)
(-0.0317531 0.0223665 -0.00103726)
(-0.0361741 0.020624 -0.00131105)
(-0.0412611 0.0182219 -0.00178598)
(-0.0471419 0.014655 -0.00257335)
(-0.0537873 0.00915322 -0.00382623)
(-0.0608828 0.000629048 -0.00569525)
(-0.0672505 -0.0121623 -0.00832357)
(-0.0700469 -0.0300268 -0.0114894)
(-0.0642901 -0.0507344 -0.0140176)
(-0.0447975 -0.0642067 -0.0146483)
(-0.0124634 -0.0444658 -0.010787)
(-0.000784475 0.0166015 -0.0010097)
(-0.00356997 0.0297397 -0.00125425)
(-0.00760042 0.0331354 -0.0012173)
(-0.0114708 0.0330765 -0.00114032)
(-0.015084 0.0321151 -0.00105515)
(-0.0185259 0.0309954 -0.000979529)
(-0.0218962 0.0299076 -0.000927689)
(-0.0253272 0.0289073 -0.000915672)
(-0.028987 0.0280029 -0.000965494)
(-0.0330948 0.0271554 -0.00111181)
(-0.0379413 0.0262474 -0.0014125)
(-0.0439051 0.0250201 -0.00196343)
(-0.0514509 0.0229692 -0.00291028)
(-0.0610832 0.0191785 -0.00443105)
(-0.073125 0.0120126 -0.00665466)
(-0.086899 -0.00125335 -0.0094898)
(-0.0983337 -0.0243695 -0.01224)
(-0.0983965 -0.0586365 -0.0139665)
(-0.0760347 -0.0921722 -0.0155757)
(-0.0212922 -0.0781889 -0.0174151)
(-0.000952496 0.0192326 -0.00125936)
(-0.00414449 0.034233 -0.00157454)
(-0.00859091 0.0378298 -0.00151876)
(-0.0126761 0.0374847 -0.00140097)
(-0.0163369 0.0362085 -0.00126562)
(-0.0197147 0.0348717 -0.00113812)
(-0.0229469 0.0337078 -0.00103703)
(-0.0261954 0.0328124 -0.000980461)
(-0.0296619 0.0322518 -0.000991879)
(-0.033621 0.0320758 -0.00110814)
(-0.0384736 0.0322954 -0.00139061)
(-0.0448149 0.0328201 -0.00193525)
(-0.0535172 0.0333186 -0.00285403)
(-0.0658198 0.0328912 -0.00415173)
(-0.0831254 0.0291548 -0.00542309)
(-0.105199 0.0163584 -0.00543645)
(-0.126051 -0.0154455 -0.00230133)
(-0.132019 -0.073441 0.00283217)
(-0.106686 -0.141301 -0.000145158)
(-0.0254882 -0.143411 -0.0181618)
(-0.00125113 0.0224556 -0.0016231)
(-0.00505838 0.0394784 -0.00203219)
(-0.0100365 0.0430603 -0.00193938)
(-0.0143151 0.0421636 -0.0017497)
(-0.0179238 0.0403682 -0.00153025)
(-0.0210954 0.0386658 -0.00131888)
(-0.0240102 0.037312 -0.00113886)
(-0.0268435 0.0364302 -0.00100861)
(-0.0297964 0.0361483 -0.000949197)
(-0.0331469 0.0366325 -0.000991183)
(-0.0373328 0.0380916 -0.00117807)
(-0.0430727 0.0407285 -0.00154596)
(-0.0515263 0.044541 -0.00199613)
(-0.0645263 0.0486208 -0.00186895)
(-0.0844177 0.0490554 0.000781789)
(-0.111394 0.0353386 0.00933151)
(-0.13763 -0.00970085 0.0256209)
(-0.146945 -0.0972676 0.0403181)
(-0.120934 -0.204411 0.0302389)
(-0.0182088 -0.23185 -0.00906255)
(-0.00178259 0.0265588 -0.00216581)
(-0.0065459 0.0455391 -0.002667)
(-0.0122548 0.0486247 -0.00249126)
(-0.0166748 0.0468924 -0.00219838)
(-0.0200539 0.0444036 -0.00185867)
(-0.0228208 0.0421912 -0.00152326)
(-0.0252088 0.0405008 -0.0012248)
(-0.0273765 0.0394634 -0.000983386)
(-0.029469 0.0392552 -0.000814735)
(-0.0316772 0.0401546 -0.000732328)
(-0.0343318 0.0425883 -0.000731294)
(-0.0380431 0.0470972 -0.000701428)
(-0.0439012 0.0540181 -0.000111915)
(-0.0538839 0.0621693 0.00282946)
(-0.0710534 0.0657179 0.0121056)
(-0.0969124 0.0503044 0.0323245)
(-0.124977 -0.00538427 0.060899)
(-0.137551 -0.118198 0.0751015)
(-0.117787 -0.260062 0.0470218)
(-0.00376131 -0.317961 -0.00716323)
(-0.00287443 0.0321249 -0.00307397)
(-0.00920002 0.0539264 -0.00379651)
(-0.0156349 0.0560517 -0.00352)
(-0.0199042 0.0524418 -0.00297063)
(-0.0228213 0.048573 -0.00236097)
(-0.0249908 0.0454577 -0.00178806)
(-0.0266606 0.0431485 -0.00128825)
(-0.027936 0.0416627 -0.000875544)
(-0.0288529 0.0411463 -0.000554549)
(-0.0294222 0.0419102 -0.00031324)
(-0.0297 0.0445273 -8.17634e-05)
(-0.0298972 0.0497581 0.000439219)
(-0.0306369 0.0582101 0.00222745)
(-0.0335265 0.0685438 0.0079631)
(-0.0420549 0.0740413 0.0227084)
(-0.0604575 0.0588529 0.0499924)
(-0.087223 -0.00129694 0.0807561)
(-0.0997489 -0.133249 0.0823617)
(-0.0992168 -0.300935 0.0377835)
(0.0154181 -0.392805 -0.0237342)
(-0.0045219 0.0429334 -0.00487071)
(-0.0140329 0.0614382 -0.00522671)
(-0.0216448 0.0591309 -0.00439818)
(-0.0251692 0.0547015 -0.00362721)
(-0.0268476 0.0506484 -0.00277834)
(-0.0278796 0.0472617 -0.0019348)
(-0.0283964 0.0445456 -0.00117664)
(-0.0283331 0.0425044 -0.000546253)
(-0.0275845 0.0413048 -5.81838e-05)
(-0.0259663 0.041225 0.000307207)
(-0.0232418 0.042864 0.000657639)
(-0.0190819 0.0469234 0.00138505)
(-0.0133516 0.0542474 0.00359103)
(-0.00662 0.0640361 0.0099447)
(-0.00188908 0.0711214 0.0250576)
(-0.0041265 0.0602232 0.0507599)
(-0.0219959 0.00397994 0.0767595)
(-0.0273656 -0.129695 0.0678361)
(-0.0613319 -0.314593 0.0233465)
(0.045069 -0.437283 -0.0436895)
(-0.00263634 0.0416339 -0.00608002)
(-0.0149226 0.0814747 -0.00800843)
(-0.0269947 0.0776723 -0.00760103)
(-0.0310196 0.0663825 -0.00596624)
(-0.0316196 0.0580677 -0.00411498)
(-0.0302668 0.0519758 -0.00248216)
(-0.0273966 0.0471542 -0.00114069)
(-0.0233731 0.0432427 -0.000119048)
(-0.0184612 0.0403249 0.00060356)
(-0.012482 0.0383082 0.00105106)
(-0.00546312 0.0376759 0.00129881)
(0.00346671 0.0386249 0.00161645)
(0.0143832 0.0422966 0.00280563)
(0.0287425 0.0480871 0.00670516)
(0.0439923 0.0540885 0.0168867)
(0.0593125 0.0481952 0.0349039)
(0.0561054 0.00740809 0.0522647)
(0.0644499 -0.106093 0.0453301)
(0.00734292 -0.293177 0.0096284)
(0.0971073 -0.427203 -0.0566796)
(-0.0938815 0.101581 -0.0171833)
(-0.0723288 0.0768694 -0.013042)
(-0.0605591 0.0569388 -0.0107092)
(-0.037788 0.0485067 -0.00808198)
(-0.0168134 0.0420303 -0.00578054)
(0.00368206 0.036514 -0.00374031)
(0.0226784 0.0321359 -0.00202315)
(0.0411245 0.0285426 -0.000726619)
(0.0574785 0.0260423 0.000266353)
(0.0744963 0.0238549 0.000889582)
(0.0888163 0.0227729 0.00124862)
(0.106022 0.0219063 0.00114518)
(0.119179 0.022939 0.00117611)
(0.139229 0.0244651 0.00148322)
(0.149401 0.0263227 0.00448932)
(0.177983 0.0229652 0.0108393)
(0.169362 -0.00593151 0.0179887)
(0.193614 -0.075002 0.0173651)
(0.140907 -0.215989 -0.00174315)
(0.188421 -0.332405 -0.0657464)
(0.133978 0.112681 -0.0176976)
(0.16876 0.0877775 -0.0176755)
(0.23086 0.0651423 -0.016683)
(0.286058 0.0507451 -0.0153247)
(0.328291 0.0412231 -0.0136888)
(0.364902 0.0339668 -0.0121364)
(0.393386 0.0285327 -0.0105456)
(0.422589 0.0239132 -0.00928621)
(0.442825 0.0206169 -0.00787298)
(0.468675 0.017571 -0.00709805)
(0.482234 0.0156 -0.00570647)
(0.507803 0.0136435 -0.00567129)
(0.515434 0.0125968 -0.00410785)
(0.543424 0.0116587 -0.00487697)
(0.543123 0.0110688 -0.00232938)
(0.571299 0.00921821 -0.00349613)
(0.548748 0.00323277 0.000602126)
(0.550866 -0.015106 -0.0058595)
(0.450473 -0.04818 -0.00813033)
(0.364142 -0.0980552 -0.0667919)
(-0.000135265 0.000139213 -0.000100156)
(-0.000819221 0.000389176 -9.82612e-05)
(-0.00196739 0.000473225 -7.85144e-05)
(-0.00315763 0.000484707 -6.69194e-05)
(-0.00432208 0.000476294 -6.43719e-05)
(-0.00544019 0.000460352 -6.96633e-05)
(-0.00649109 0.000436798 -8.22642e-05)
(-0.00745023 0.000402666 -0.000102355)
(-0.00828628 0.000354506 -0.000130118)
(-0.00896086 0.000288605 -0.000167121)
(-0.0094294 0.000201832 -0.000213945)
(-0.00964293 9.21603e-05 -0.000270319)
(-0.00954971 -4.21956e-05 -0.000334817)