/*--------------------------------*- C++ -*----------------------------------*\
  =========                 |
  \\      /  F ield         | OpenFOAM: The Open Source CFD Toolbox
   \\    /   O peration     | Website:  https://openfoam.org
    \\  /    A nd           | Version:  10
     \\/     M anipulation  |
\*---------------------------------------------------------------------------*/
FoamFile
{
    format      ascii;
    class       volVectorField;
    location    "0.35";
    object      U;
}
// * * * * * * * * * * * * * * * * * * * * * * * * * * * * * * * * * * * * * //

dimensions      [0 1 -1 0 0 0 0];

internalField   nonuniform List<vector> 
400
(
(-0.000158006 0.000156751 0)
(-0.000482286 0.000164028 0)
(-0.000806247 0.000155912 0)
(-0.00110905 0.000143572 0)
(-0.0013832 0.00012768 0)
(-0.00162208 0.000108735 0)
(-0.00182009 8.72763e-05 0)
(-0.00197275 6.38636e-05 0)
(-0.00207668 3.90538e-05 0)
(-0.00212963 1.33952e-05 0)
(-0.00213045 -1.25718e-05 0)
(-0.00207907 -3.8308e-05 0)
(-0.00197648 -6.32665e-05 0)
(-0.00182481 -8.68862e-05 0)
(-0.00162732 -0.000108592 0)
(-0.00138845 -0.000127801 0)
(-0.00111379 -0.000143948 0)
(-0.000809988 -0.000156507 0)
(-0.000484659 -0.000164779 0)
(-0.000158812 -0.000157542 0)
(-0.000173526 0.000488192 0)
(-0.00052931 0.000510421 0)
(-0.000884303 0.00048509 0)
(-0.00121591 0.000446581 0)
(-0.00151593 0.000397026 0)
(-0.00177716 0.000338004 0)
(-0.00199354 0.000271217 0)
(-0.00216024 0.00019841 0)
(-0.00227368 0.000121308 0)
(-0.00233147 4.1603e-05 0)
(-0.00233239 -3.90486e-05 0)
(-0.00227635 -0.000118995 0)
(-0.0021644 -0.000196558 0)
(-0.00199879 -0.00027001 0)
(-0.00178301 -0.000337566 0)
(-0.00152179 -0.000397412 0)
(-0.0012212 -0.000447764 0)
(-0.000888491 -0.000486959 0)
(-0.000531968 -0.000512777 0)
(-0.000174429 -0.00049067 0)
(-0.000182501 0.000845374 0)
(-0.000556623 0.000883227 0)
(-0.000929643 0.000839106 0)
(-0.00127764 0.000772128 0)
(-0.00159202 0.000686068 0)
(-0.00186532 0.000583748 0)
(-0.00209134 0.000468167 0)
(-0.00226526 0.000342355 0)
(-0.00238353 0.000209279 0)
(-0.0024438 7.18094e-05 0)
(-0.00244487 -6.72612e-05 0)
(-0.00238666 -0.000205157 0)
(-0.00227016 -0.00033905 0)
(-0.00209754 -0.000466004 0)
(-0.00187223 -0.000582955 0)
(-0.00159897 -0.000686745 0)
(-0.00128393 -0.000774232 0)
(-0.000934624 -0.000842443 0)
(-0.000559789 -0.00088744 0)
(-0.000183577 -0.000849809 0)
(-0.000196138 0.00122392 0)
(-0.000598046 0.0012781 0)
(-0.000998271 0.00121356 0)
(-0.0013709 0.00111585 0)
(-0.0017067 0.000990623 0)
(-0.00199786 0.000842152 0)
(-0.00223807 0.000674885 0)
(-0.00242253 0.000493238 0)
(-0.0025478 0.000301449 0)
(-0.00261167 0.000103548 0)
(-0.00261301 -9.65911e-05 0)
(-0.00255169 -0.000295135 0)
(-0.00242863 -0.000488161 0)
(-0.00224582 -0.000671544 0)
(-0.00200653 -0.000840902 0)
(-0.00171544 -0.00099163 0)
(-0.00137884 -0.00111906 0)
(-0.00100458 -0.00121868 0)
(-0.000602061 -0.00128459 0)
(-0.000197503 -0.00123076 0)
(-0.000215233 0.00163506 0)
(-0.00065597 0.00170653 0)
(-0.00109403 0.00161899 0)
(-0.00150065 0.00148695 0)
(-0.00186576 0.00131839 0)
(-0.00218111 0.00111935 0)
(-0.00244031 0.000896009 0)
(-0.00263876 0.000654294 0)
(-0.00277328 0.000399756 0)
(-0.0028419 0.000137533 0)
(-0.00284362 -0.000127526 0)
(-0.00277829 -0.000390658 0)
(-0.00264663 -0.00064695 0)
(-0.00245034 -0.000891139 0)
(-0.00219236 -0.00111748 0)
(-0.00187717 -0.00131978 0)
(-0.00151106 -0.00149155 0)
(-0.00110233 -0.0016264 0)
(-0.000661269 -0.00171596 0)
(-0.000217035 -0.00164502 0)
(-0.000240605 0.00209051 0)
(-0.000732809 0.00218038 0)
(-0.00122066 0.00206602 0)
(-0.00167155 0.00189444 0)
(-0.0020743 0.00167663 0)
(-0.00242024 0.00142094 0)
(-0.00270313 0.00113559 0)
(-0.00291878 0.000828256 0)
(-0.00306456 0.000505805 0)
(-0.00313895 0.000174373 0)
(-0.0031412 -0.000160411 0)
(-0.00307112 -0.000493079 0)
(-0.00292911 -0.000817929 0)
(-0.00271635 -0.00112867 0)
(-0.00243517 -0.00141818 0)
(-0.00208951 -0.00167846 0)
(-0.00168551 -0.00190083 0)
(-0.00123186 -0.00207644 0)
(-0.000739984 -0.00219373 0)
(-0.000243047 -0.00210465 0)
(-0.000273456 0.00260389 0)
(-0.00083207 0.00271329 0)
(-0.00138354 0.00256654 0)
(-0.0018901 0.00234805 0)
(-0.00233927 0.00207282 0)
(-0.00272215 0.0017523 0)
(-0.003033 0.00139732 0)
(-0.00326855 0.00101747 0)
(-0.00342716 0.000620924 0)
(-0.00350812 0.000214598 0)
(-0.00351107 -0.000195445 0)
(-0.00343581 -0.00060341 0)
(-0.00328222 -0.00100315 0)
(-0.00305059 -0.00138759 0)
(-0.00274215 -0.00174825 0)
(-0.00235981 -0.0020751 0)
(-0.0019091 -0.00235673 0)
(-0.00139889 -0.00258097 0)
(-0.00084196 -0.00273197 0)
(-0.000276828 -0.00262376 0)
(-0.000315558 0.00319174 0)
(-0.000958878 0.00332148 0)
(-0.00159035 0.00313417 0)
(-0.00216535 0.00285828 0)
(-0.00267004 0.00251445 0)
(-0.00309574 0.00211838 0)
(-0.00343797 0.00168417 0)
(-0.00369518 0.00122358 0)
(-0.00386743 0.00074596 0)
(-0.00395532 0.000258584 0)
(-0.00395921 -0.000232601 0)
(-0.00387883 -0.000722101 0)
(-0.00371329 -0.0012039 0)
(-0.00346145 -0.00167055 0)
(-0.00312268 -0.00211239 0)
(-0.00269799 -0.00251713 0)
(-0.00219147 -0.00286991 0)
(-0.00161166 -0.00315401 0)
(-0.000972707 -0.00334749 0)
(-0.000320287 -0.00321958 0)
(-0.000369581 0.0038749 0)
(-0.00112084 0.00402487 0)
(-0.00185218 0.00378478 0)
(-0.00250992 0.00343644 0)
(-0.00307917 0.00300866 0)
(-0.00355243 0.00252304 0)
(-0.0039278 0.0019978 0)
(-0.00420676 0.00144705 0)
(-0.00439216 0.00088094 0)
(-0.00448668 0.000306445 0)
(-0.00449176 -0.000271506 0)
(-0.00440711 -0.000848681 0)
(-0.00423067 -0.00142011 0)
(-0.00395908 -0.00197872 0)
(-0.00358873 -0.00251407 0)
(-0.00311734 -0.00301148 0)
(-0.00254609 -0.00345175 0)
(-0.00188208 -0.00381187 0)
(-0.00114045 -0.00406107 0)
(-0.000376322 -0.00391399 0)
(-0.000439692 0.00468075 0)
(-0.00132955 0.00484861 0)
(-0.00218536 0.00453696 0)
(-0.00294158 0.00409429 0)
(-0.00358345 0.00356138 0)
(-0.00410661 0.00296802 0)
(-0.00451396 0.00233752 0)
(-0.00481203 0.00168628 0)
(-0.00500803 0.00102455 0)
(-0.00510777 0.000357843 0)
(-0.00511434 -0.000311263 0)
(-0.00502744 -0.000981237 0)
(-0.00484333 -0.00164957 0)
(-0.00455541 -0.00231076 0)
(-0.00415544 -0.00295443 0)
(-0.00363567 -0.00356366 0)
(-0.00299199 -0.00411399 0)
(-0.0022278 -0.00457373 0)
(-0.00135782 -0.00489909 0)
(-0.000449488 -0.00473603 0)
(-0.000532726 0.0056471 0)
(-0.00160339 0.0058253 0)
(-0.00261442 0.00541249 0)
(-0.00348564 0.00484313 0)
(-0.00420543 0.00417576 0)
(-0.00477629 0.00345123 0)
(-0.00520954 0.00269876 0)
(-0.00551973 0.00193651 0)
(-0.0057206 0.00117342 0)
(-0.00582249 0.000411736 0)
(-0.00583084 -0.00035028 0)
(-0.00574541 -0.00111576 0)
(-0.00556019 -0.00188668 0)
(-0.00526395 -0.00266111 0)
(-0.00484163 -0.00343035 0)
(-0.0042769 -0.00417599 0)
(-0.00355632 -0.00486766 0)
(-0.00267546 -0.00546198 0)
(-0.00164498 -0.00589591 0)
(-0.000547347 -0.00572617 0)
(-0.0006607 0.0068292 0)
(-0.00197268 0.00699795 0)
(-0.00317704 0.00643627 0)
(-0.00417848 0.00569185 0)
(-0.00497535 0.00484932 0)
(-0.00558361 0.00396387 0)
(-0.00602869 0.00307089 0)
(-0.00633738 0.0021884 0)
(-0.00653281 0.00132138 0)
(-0.00663147 0.000466112 0)
(-0.00664184 -0.00038603 0)
(-0.00656383 -0.00124542 0)
(-0.00638868 -0.00212118 0)
(-0.00609909 -0.00301785 0)
(-0.00567031 -0.00393143 0)
(-0.00507298 -0.00484441 0)
(-0.00427817 -0.00572067 0)
(-0.00326609 -0.00650198 0)
(-0.00203555 -0.00709695 0)
(-0.000683396 -0.00694426 0)
(-0.00084656 0.00831274 0)
(-0.00249007 0.00842354 0)
(-0.00393196 0.00763496 0)
(-0.00507279 0.00664251 0)
(-0.00593341 0.00556887 0)
(-0.00655472 0.00448658 0)
(-0.00698502 0.00343455 0)
(-0.00726925 0.00242624 0)
(-0.00744289 0.00145836 0)
(-0.0075299 0.000517605 0)
(-0.00754238 -0.000414791 0)
(-0.00748056 -0.00135954 0)
(-0.00733262 -0.00233625 0)
(-0.00707419 -0.00335989 0)
(-0.00666819 -0.00443585 0)
(-0.00606614 -0.00555283 0)
(-0.00521412 -0.00667272 0)
(-0.00406395 -0.00772009 0)
(-0.00258845 -0.00856226 0)
(-0.000883789 -0.00848425 0)
(-0.00113697 0.0102389 0)
(-0.00325101 0.010176 0)
(-0.00497188 0.00903182 0)
(-0.00624482 0.00768122 0)
(-0.0071313 0.00630286 0)
(-0.00771793 0.0049838 0)
(-0.00808904 0.00375776 0)
(-0.00831357 0.00262552 0)
(-0.00844144 0.00156919 0)
(-0.00850462 0.000561033 0)
(-0.00851898 -0.000431478 0)
(-0.0084853 -0.00144266 0)
(-0.00838902 -0.00250634 0)
(-0.00819868 -0.00365297 0)
(-0.00786325 -0.00490441 0)
(-0.00730985 -0.00626474 0)
(-0.00644571 -0.00770461 0)
(-0.00517064 -0.00913715 0)
(-0.00341155 -0.0103689 0)
(-0.0012024 -0.0105032 0)
(-0.00163182 0.0128628 0)
(-0.00443601 0.012344 0)
(-0.00644348 0.0106317 0)
(-0.00780208 0.00876163 0)
(-0.00863086 0.00698921 0)
(-0.00909984 0.00539552 0)
(-0.00934331 0.0039913 0)
(-0.00945782 0.00275095 0)
(-0.00950738 0.00163276 0)
(-0.00953057 0.000589085 0)
(-0.00954607 -0.000429697 0)
(-0.00955543 -0.0014741 0)
(-0.00954293 -0.00259553 0)
(-0.00947226 -0.00384543 0)
(-0.00927995 -0.00527191 0)
(-0.00886632 -0.00690977 0)
(-0.00808684 -0.00875962 0)
(-0.00674698 -0.0107495 0)
(-0.00471112 -0.0126044 0)
(-0.00175647 -0.0132809 0)
(-0.00256081 0.0165289 0)
(-0.00640908 0.0149937 0)
(-0.00857481 0.0123812 0)
(-0.00988777 0.0097768 0)
(-0.0104974 0.00751582 0)
(-0.0107158 0.00562731 0)
(-0.0107336 0.00406504 0)
(-0.0106721 0.00275578 0)
(-0.0106033 0.00162256 0)
(-0.0105671 0.000592536 0)
(-0.0105821 -0.000402393 0)
(-0.0106511 -0.00142912 0)
(-0.0107603 -0.0025576 0)
(-0.010875 -0.00386521 0)
(-0.0109276 -0.00543765 0)
(-0.0107975 -0.00736293 0)
(-0.0102857 -0.00971128 0)
(-0.00903962 -0.0124857 0)
(-0.00689753 -0.0153341 0)
(-0.00281217 -0.0172997 0)
(-0.00432453 0.0231046 0)
(-0.00978052 0.0182814 0)
(-0.0116845 0.0141484 0)
(-0.0126671 0.0105219 0)
(-0.012779 0.00769806 0)
(-0.012549 0.00554164 0)
(-0.0122132 0.0038881 0)
(-0.0118985 0.00258527 0)
(-0.0116688 0.00150926 0)
(-0.0115536 0.000560938 0)
(-0.0115658 -0.000343108 0)
(-0.0117086 -0.00128226 0)
(-0.011977 -0.00234115 0)
(-0.0123502 -0.00362267 0)
(-0.0127754 -0.00525963 0)
(-0.0131375 -0.0074233 0)
(-0.013207 -0.0103187 0)
(-0.0123997 -0.0141749 0)
(-0.0107581 -0.0186384 0)
(-0.0049399 -0.0241522 0)
(-0.00895252 0.0278988 0)
(-0.016986 0.0204361 0)
(-0.0162939 0.0150825 0)
(-0.0162603 0.0104628 0)
(-0.0153899 0.00721385 0)
(-0.014432 0.00495806 0)
(-0.0135923 0.00336345 0)
(-0.0129504 0.00218891 0)
(-0.012525 0.00126858 0)
(-0.012315 0.000486223 0)
(-0.0123192 -0.000247557 0)
(-0.0125411 -0.00101253 0)
(-0.0129905 -0.00189775 0)
(-0.0136804 -0.00301888 0)
(-0.0146108 -0.0045442 0)
(-0.0157324 -0.00672745 0)
(-0.0169016 -0.00993655 0)
(-0.0172561 -0.0147257 0)
(-0.0183445 -0.0201735 0)
(-0.009734 -0.0307493 0)
(-0.0135258 0.0601772 0)
(-0.0222808 0.0249786 0)
(-0.0182853 0.0160615 0)
(-0.0166653 0.00939529 0)
(-0.0141765 0.00572667 0)
(-0.0121667 0.00364563 0)
(-0.0106755 0.00235681 0)
(-0.0096384 0.00149234 0)
(-0.00898142 0.000857761 0)
(-0.00865089 0.000340104 0)
(-0.00861856 -0.000136552 0)
(-0.00888355 -0.000635702 0)
(-0.00947184 -0.00123226 0)
(-0.0104345 -0.00204026 0)
(-0.0118425 -0.00326639 0)
(-0.0137494 -0.00532502 0)
(-0.016164 -0.00903849 0)
(-0.0171157 -0.0163575 0)
(-0.0222685 -0.0267665 0)
(-0.00963218 -0.063913 0)
(0.06993 0.0474336 0)
(0.0620277 0.0164139 0)
(0.0932573 0.00919187 0)
(0.0999514 0.00474448 0)
(0.105483 0.00255537 0)
(0.108943 0.00149172 0)
(0.111073 0.000914759 0)
(0.112417 0.000565743 0)
(0.113233 0.000328222 0)
(0.113654 0.000144407 0)
(0.113738 -1.89711e-05 0)
(0.113494 -0.000187842 0)
(0.112879 -0.000391448 0)
(0.111777 -0.000680327 0)
(0.109942 -0.00115929 0)
(0.106932 -0.00207092 0)
(0.101305 -0.00394088 0)
(0.0965453 -0.00842034 0)
(0.0629858 -0.0150219 0)
(0.0728171 -0.0460915 0)
)
;

boundaryField
{
    movingWall
    {
        type            fixedValue;
        value           uniform (1 0 0);
    }
    fixedWalls
    {
        type            noSlip;
    }
    frontAndBack
    {
        type            empty;
    }
}


// ************************************************************************* //
