/*--------------------------------*- C++ -*----------------------------------*\
  =========                 |
  \\      /  F ield         | OpenFOAM: The Open Source CFD Toolbox
   \\    /   O peration     | Website:  https://openfoam.org
    \\  /    A nd           | Version:  10
     \\/     M anipulation  |
\*---------------------------------------------------------------------------*/
FoamFile
{
    format      ascii;
    class       volScalarField;
    location    "2.6";
    object      p;
}
// * * * * * * * * * * * * * * * * * * * * * * * * * * * * * * * * * * * * * //

dimensions      [0 2 -2 0 0 0 0];

internalField   nonuniform List<scalar> 
475
(
-0.0345451
-0.0578673
-0.0896161
-0.11423
-0.138847
-0.0595415
-0.0725259
-0.0871464
-0.106956
-0.123947
-0.0563467
-0.0657512
-0.0800247
-0.0978972
-0.113945
-0.055417
-0.0663652
-0.0806198
-0.0949038
-0.10808
-0.0252994
-0.0522212
-0.0751903
-0.0918158
-0.103746
-0.152953
-0.141385
-0.15392
-0.197378
-0.249233
-0.284698
-0.285568
-0.247601
-0.183255
-0.109945
-0.0484843
-0.00841449
0.0140149
0.0233881
0.0277171
0.0345701
0.0423465
0.0481965
0.0512315
0.0522357
0.0519114
0.0507708
0.0491527
0.0472646
0.0452256
0.0431022
0.040932
0.0387367
0.0365286
0.0343144
0.0320977
0.0298805
0.0276636
0.0254475
0.0232321
0.0210176
0.0188038
0.0165904
0.0143776
0.0121651
0.0099528
0.00774087
0.00552897
0.00331727
0.00110576
-0.13867
-0.150017
-0.162408
-0.177665
-0.197325
-0.211188
-0.204057
-0.174495
-0.134403
-0.0886041
-0.0480294
-0.0193907
0.00192835
0.015945
0.0238687
0.0320111
0.0391325
0.0446472
0.0482353
0.0499897
0.0503703
0.0497909
0.0485742
0.0469545
0.045086
0.0430654
0.0409533
0.0387873
0.0365908
0.0343778
0.0321565
0.029932
0.027707
0.0254829
0.0232604
0.0210397
0.0188208
0.0166034
0.0143874
0.0121723
0.009958
0.00774448
0.00553133
0.0033186
0.00110619
-0.125768
-0.134223
-0.140118
-0.143828
-0.149841
-0.154349
-0.145509
-0.128092
-0.112647
-0.0920145
-0.0661337
-0.0456242
-0.0301921
-0.0145027
0.00464658
0.0219506
0.0355931
0.0434333
0.0474949
0.0494832
0.0500858
0.0496908
0.0486098
0.0470727
0.045242
0.0432293
0.0411077
0.0389238
0.0367063
0.0344725
0.0322325
0.029992
0.0277537
0.025519
0.023288
0.0210607
0.0188366
0.0166152
0.0143961
0.0121786
0.00996255
0.0077476
0.00553335
0.00331973
0.00110653
-0.117234
-0.122636
-0.126967
-0.125954
-0.122195
-0.118702
-0.105605
-0.0941352
-0.0957466
-0.0923368
-0.0777679
-0.0632286
-0.0478702
-0.0254061
-0.00247248
0.0161632
0.0293917
0.0383551
0.0442122
0.0475883
0.0490582
0.0491746
0.0483828
0.0470039
0.0452565
0.0432843
0.041179
0.0389977
0.0367757
0.0345339
0.0322847
0.0300349
0.0277882
0.0255461
0.0233091
0.0210768
0.0188487
0.0166242
0.0144026
0.0121834
0.00996596
0.00774989
0.00553485
0.00332054
0.00110674
-0.111267
-0.115728
-0.117844
-0.114595
-0.107373
-0.0972048
-0.0830008
-0.0751757
-0.0813355
-0.0869961
-0.082015
-0.0691928
-0.051469
-0.0287604
-0.00463883
0.0160397
0.0310517
0.0405968
0.0461435
0.0489941
0.0500336
0.0498531
0.0488637
0.047352
0.0455128
0.0434748
0.041321
0.0391036
0.0368544
0.0345924
0.032328
0.0300671
0.027812
0.0255637
0.023322
0.0210863
0.0188556
0.0166292
0.0144062
0.0121859
0.00996769
0.00775104
0.00553562
0.00332095
0.00110684
-0.183324
-0.187365
-0.202099
-0.231127
-0.271025
-0.294983
-0.280269
-0.222394
-0.126914
-0.0192569
0.0711851
0.125661
0.144761
0.140612
0.1264
0.11013
0.0953443
0.0831104
0.073336
0.0656618
0.0596729
0.0549669
0.0511882
0.0480457
0.0453185
0.04285
0.0405349
0.0383056
0.0361205
0.0339549
0.0317948
0.029633
0.0274658
0.025292
0.0231116
0.0209252
0.0187337
0.0165379
0.0143386
0.0121367
0.00993258
0.00772686
0.00552002
0.0033124
0.00110423
-0.174394
-0.179208
-0.200881
-0.242827
-0.296845
-0.332903
-0.327774
-0.273351
-0.174918
-0.0570398
0.0455072
0.110153
0.135925
0.134306
0.120763
0.105097
0.0913532
0.080269
0.0715099
0.0646237
0.0591734
0.0547982
0.0512005
0.0481418
0.045442
0.0429716
0.0406419
0.038394
0.0361907
0.0340093
0.0318364
0.0296644
0.0274892
0.0253094
0.0231245
0.0209347
0.0187406
0.0165429
0.0143423
0.0121392
0.0099343
0.00772803
0.00552073
0.00331278
0.00110436
-0.183586
-0.182044
-0.211615
-0.266031
-0.333435
-0.383827
-0.389878
-0.337827
-0.237169
-0.108846
0.00403776
0.0790193
0.111807
0.11538
0.105366
0.0927155
0.0820625
0.0739766
0.0675994
0.0623144
0.0579002
0.054173
0.0509536
0.0480983
0.0454971
0.0430669
0.0407464
0.0384929
0.036278
0.034083
0.0318966
0.0297124
0.0275269
0.0253385
0.0231466
0.0209513
0.0187531
0.0165521
0.014349
0.0121441
0.0099377
0.00773037
0.00552217
0.00331352
0.00110458
-0.172381
-0.171303
-0.200904
-0.255756
-0.32488
-0.38003
-0.391002
-0.34804
-0.256035
-0.138341
-0.0310526
0.041852
0.0746562
0.081626
0.0779691
0.0727712
0.0691144
0.06585
0.0625727
0.0592858
0.0561471
0.0532222
0.0504968
0.0479324
0.045491
0.0431393
0.0408497
0.038601
0.0363778
0.0341691
0.0319679
0.0297699
0.0275723
0.0253739
0.0231739
0.0209722
0.0187688
0.0165639
0.0143578
0.0121504
0.00994222
0.00773349
0.00552416
0.0033146
0.00110491
-0.197777
-0.155258
-0.184508
-0.232035
-0.293766
-0.342281
-0.354026
-0.315558
-0.234429
-0.135321
-0.0475425
0.0107559
0.0377249
0.0451223
0.0459989
0.0484762
0.0523294
0.0552825
0.0561224
0.0554261
0.0538726
0.0519038
0.0497599
0.0475506
0.0453225
0.0430941
0.0408714
0.0386551
0.0364439
0.0342358
0.0320291
0.029823
0.0276166
0.0254099
0.0232024
0.0209945
0.018786
0.0165769
0.0143675
0.0121576
0.00994741
0.00773711
0.00552651
0.0033159
0.00110533
)
;

boundaryField
{
    inlet
    {
        type            zeroGradient;
    }
    outlet
    {
        type            fixedValue;
        value           uniform 0;
    }
    upperWall
    {
        type            zeroGradient;
    }
    lowerWall
    {
        type            zeroGradient;
    }
    frontAndBack
    {
        type            empty;
    }
}


// ************************************************************************* //
