/*--------------------------------*- C++ -*----------------------------------*\
  =========                 |
  \\      /  F ield         | OpenFOAM: The Open Source CFD Toolbox
   \\    /   O peration     | Website:  https://openfoam.org
    \\  /    A nd           | Version:  10
     \\/     M anipulation  |
\*---------------------------------------------------------------------------*/
FoamFile
{
    format      ascii;
    class       volScalarField;
    location    "5.7";
    object      p;
}
// * * * * * * * * * * * * * * * * * * * * * * * * * * * * * * * * * * * * * //

dimensions      [0 2 -2 0 0 0 0];

internalField   nonuniform List<scalar> 
400
(
2.64644e-09
-2.11754e-05
1.91676e-05
9.83071e-05
0.000222455
0.000392844
0.000611106
0.000878919
0.00119716
0.00156516
0.00197979
0.00243442
0.00291785
0.00341337
0.00389819
0.00434416
0.00471918
0.004991
0.00515155
0.00513963
2.22006e-05
3.06127e-07
4.44027e-05
0.000123212
0.000244522
0.000410304
0.000622684
0.000883729
0.00119469
0.00155535
0.00196313
0.00241191
0.00289099
0.00338485
0.00387086
0.00432067
0.00470121
0.00497945
0.00514881
0.00513418
-2.34191e-05
-5.17222e-05
-9.25847e-06
6.63055e-05
0.000183582
0.000344824
0.00055269
0.000810041
0.00111912
0.00148087
0.00189402
0.00235402
0.00285209
0.00337223
0.00389116
0.00437794
0.00479475
0.00510143
0.00528895
0.00526404
-0.000117621
-0.000150649
-0.000110823
-3.99528e-05
7.15072e-05
0.000226256
0.000427788
0.000680156
0.000987164
0.00135167
0.00177461
0.00225368
0.00278188
0.00334557
0.00392039
0.00447147
0.00495244
0.0053106
0.00553179
0.00549812
-0.000266098
-0.000303679
-0.000267783
-0.000203281
-9.96316e-05
4.64402e-05
0.000239491
0.000485114
0.00078919
0.00115727
0.0015935
0.00209915
0.00267044
0.00329669
0.00395324
0.00460067
0.00518173
0.00562332
0.00589996
0.00585639
-0.000468278
-0.000510983
-0.000480427
-0.000424397
-0.000331348
-0.000197385
-1.67551e-05
0.000217929
0.000515065
0.00088363
0.00133224
0.00186728
0.00249031
0.00319698
0.00396418
0.00474836
0.00547813
0.00605093
0.00641729
0.00636194
-0.000722733
-0.000771548
-0.000747946
-0.000703092
-0.000624484
-0.000507691
-0.000345784
-0.000129491
0.000152398
0.00051294
0.000966429
0.0015263
0.00220063
0.00300266
0.00390923
0.00487842
0.00582376
0.00660294
0.00711765
0.00705302
-0.00102784
-0.00108402
-0.00106919
-0.00103878
-0.000979472
-0.000886584
-0.000752281
-0.000565623
-0.00031263
2.41686e-05
0.000465917
0.00103704
0.00176354
0.00264948
0.00371329
0.00491886
0.00616913
0.00727373
0.0080454
0.00799381
-0.00138151
-0.00144644
-0.00144218
-0.00142973
-0.00139528
-0.00133442
-0.00123904
-0.00109723
-0.000892963
-0.000604995
-0.000205803
0.000339137
0.00106952
0.00202223
0.00324394
0.0047259
0.00639006
0.00801068
0.00924717
0.00930394
-0.00178115
-0.00185621
-0.00186384
-0.00187254
-0.00186852
-0.00184842
-0.00180493
-0.00172652
-0.00159675
-0.00139251
-0.00108168
-0.000620346
5.04764e-05
0.00100444
0.00229806
0.00402394
0.00618152
0.00859676
0.0106837
0.0111614
-0.00222394
-0.00231031
-0.00232983
-0.00236162
-0.00239253
-0.00242131
-0.00244285
-0.00244785
-0.00242229
-0.00234533
-0.00218615
-0.00189914
-0.00141779
-0.000649576
0.000520417
0.00222342
0.00474583
0.00823226
0.0118878
0.0133711
-0.00270767
-0.00280592
-0.00283471
-0.00288881
-0.00295649
-0.00303979
-0.00313738
-0.00324447
-0.0033529
-0.00344961
-0.00351441
-0.00351676
-0.00340977
-0.0031227
-0.00256283
-0.00157076
0.000378451
0.00450379
0.0102499
0.0141
-0.00323273
-0.00334258
-0.0033741
-0.00344545
-0.00354655
-0.00368441
-0.00386345
-0.00408544
-0.00435198
-0.00466491
-0.00502704
-0.0054447
-0.00593427
-0.00655172
-0.0074755
-0.00888038
-0.0100158
-0.00714573
-0.000114042
0.00823995
-0.00379996
-0.00391257
-0.00392835
-0.00400376
-0.00413069
-0.00431974
-0.00457886
-0.0049179
-0.00535064
-0.00589828
-0.00659709
-0.00751439
-0.00878502
-0.0106848
-0.0139024
-0.0191275
-0.0261391
-0.0261627
-0.0188627
-0.00490816
-0.00444304
-0.00457036
-0.00455607
-0.00462522
-0.00475322
-0.00496451
-0.00527599
-0.00570711
-0.00628452
-0.0070499
-0.00807479
-0.00948685
-0.0115569
-0.0147515
-0.0202578
-0.0290349
-0.0418816
-0.045375
-0.038889
-0.020162
-0.00524167
-0.00517263
-0.0050504
-0.00503271
-0.00514369
-0.00538826
-0.0057692
-0.0062979
-0.00700194
-0.00793093
-0.00917646
-0.0108968
-0.0134596
-0.0173014
-0.0240641
-0.0338456
-0.0488687
-0.0536272
-0.0483347
-0.0249644
-0.00573416
-0.00616965
-0.00590395
-0.00594142
-0.00596788
-0.0061254
-0.00643136
-0.00691505
-0.00761029
-0.00856138
-0.00985851
-0.0116243
-0.014291
-0.0180534
-0.0246587
-0.0335927
-0.0460325
-0.0494575
-0.0423546
-0.00997132
-0.00909481
-0.00658645
-0.00600076
-0.00547982
-0.00546417
-0.00570835
-0.00615785
-0.00677428
-0.00757383
-0.00857889
-0.0098914
-0.0115621
-0.0140088
-0.0173688
-0.0226684
-0.0289591
-0.0364904
-0.0357055
-0.0229135
0.0259526
-0.00585353
-0.00884235
-0.00784169
-0.00791882
-0.00754304
-0.0073823
-0.00741963
-0.00768489
-0.00821393
-0.0089934
-0.0101034
-0.0115666
-0.0138146
-0.0167634
-0.0217237
-0.0266614
-0.0317871
-0.0213294
0.00690218
0.0877465
-0.0309576
-0.00596519
-0.00456488
-0.00387557
-0.00373799
-0.00402837
-0.00464993
-0.00539437
-0.00632836
-0.00741079
-0.00884642
-0.0105375
-0.0129664
-0.0156425
-0.0187473
-0.0189281
-0.0129018
0.0185299
0.0890155
0.225053
)
;

boundaryField
{
    movingWall
    {
        type            zeroGradient;
    }
    fixedWalls
    {
        type            zeroGradient;
    }
    frontAndBack
    {
        type            empty;
    }
}


// ************************************************************************* //
