/*--------------------------------*- C++ -*----------------------------------*\
  =========                 |
  \\      /  F ield         | OpenFOAM: The Open Source CFD Toolbox
   \\    /   O peration     | Website:  https://openfoam.org
    \\  /    A nd           | Version:  10
     \\/     M anipulation  |
\*---------------------------------------------------------------------------*/
FoamFile
{
    format      ascii;
    class       surfaceScalarField;
    location    "0.4";
    object      phi;
}
// * * * * * * * * * * * * * * * * * * * * * * * * * * * * * * * * * * * * * //

dimensions      [0 3 -1 0 0 0 0];

internalField   nonuniform List<scalar> 
890
(
0.00988568
0.000114322
0.00994651
-6.08273e-05
0.00971259
0.000233911
0.0107193
-0.00100675
-0.000290971
0.0110103
0.0101195
-5.17463e-06
0.0101131
-5.44297e-05
0.0106056
-0.000258567
0.0102217
-0.000622903
-0.000662553
0.0105933
0.0100404
-4.55543e-05
0.0102263
-0.000240347
0.0102694
-0.000301639
0.0102376
-0.000591104
-0.000808581
0.0103836
0.0101001
-0.000145607
0.0101312
-0.000271516
0.0101778
-0.000348215
0.0100234
-0.000436735
-0.000428849
0.0096437
0.00985439
0.00958288
0.00923466
0.00879793
0.00836908
0.0112881
-0.00301693
0.00273916
0.0115966
-0.00405515
0.00374659
0.0102592
-0.00318327
0.00452067
0.00843278
-0.00222409
0.00405056
0.00701069
-0.00159315
0.00301524
0.00614811
-0.0012134
0.00207598
0.00568359
-0.000950877
0.0014154
0.00544502
-0.0007411
0.000979668
0.00532249
-0.000566967
0.000689494
0.00525682
-0.000425743
0.000491417
0.00521929
-0.000315454
0.000352978
0.00519648
-0.000231823
0.000254634
0.00518192
-0.000169549
0.000184114
0.00517229
-0.000123659
0.000133286
0.00516577
-9.00361e-05
9.6554e-05
0.00516128
-6.54797e-05
6.99713e-05
0.00515814
-4.75785e-05
5.07173e-05
0.00515593
-3.4548e-05
3.67626e-05
0.00515436
-2.50755e-05
2.66455e-05
0.00515324
-1.81966e-05
1.93114e-05
0.00515245
-1.32027e-05
1.39969e-05
0.00515188
-9.57614e-06
1.01461e-05
0.00515146
-6.94181e-06
7.35472e-06
0.00515116
-5.02928e-06
5.32978e-06
0.00515095
-3.64298e-06
3.8605e-06
0.00515079
-2.63989e-06
2.79515e-06
0.00515068
-1.91461e-06
2.02414e-06
0.0051506
-1.38961e-06
1.46738e-06
0.00515055
-1.00843e-06
1.06514e-06
0.0051505
-7.30714e-07
7.73353e-07
0.00515047
-5.2818e-07
5.609e-07
0.00515045
-3.81051e-07
4.05935e-07
0.00515043
-2.74823e-07
2.92727e-07
0.00515042
-1.98523e-07
2.09732e-07
0.00515041
-1.44103e-07
1.50913e-07
0.00515041
-1.05063e-07
1.09342e-07
0.0051504
-7.68975e-08
8.00165e-08
0.0051504
-5.62714e-08
5.9092e-08
0.0051504
-4.11608e-08
4.41082e-08
0.00515039
-3.04681e-08
3.3183e-08
0.00515039
-2.32114e-08
2.54837e-08
0.00515039
-1.82382e-08
1.97385e-08
0.00515039
-1.50846e-08
1.55846e-08
0.00515039
-1.65456e-08
1.59818e-08
-1.64111e-08
1.48991e-08
0.00932327
-0.00174689
0.00768809
-0.00241998
0.00675235
-0.00224753
0.00624567
-0.00171741
0.00597763
-0.00132511
0.0058097
-0.00104547
0.00567063
-0.000811815
0.0055469
-0.000617368
0.00544345
-0.000463518
0.00536306
-0.000345346
0.00530345
-0.000255845
0.00526028
-0.00018866
0.00522932
-0.000138587
0.00520716
-0.000101496
0.00519128
-7.41561e-05
0.00517988
-5.40801e-05
0.00517168
-3.93803e-05
0.00516578
-2.86428e-05
0.00516152
-2.08158e-05
0.00515844
-1.5119e-05
0.00515621
-1.09761e-05
0.0051546
-7.96414e-06
0.00515343
-5.77517e-06
0.00515259
-4.1857e-06
0.00515198
-3.03311e-06
0.00515154
-2.19843e-06
0.00515122
-1.59427e-06
0.00515099
-1.15649e-06
0.00515082
-8.38548e-07
0.00515069
-6.07354e-07
0.0051506
-4.39336e-07
0.00515054
-3.1738e-07
0.0051505
-2.29129e-07
0.00515046
-1.65539e-07
0.00515044
-1.19978e-07
0.00515042
-8.73663e-08
0.00515041
-6.3674e-08
0.0051504
-4.65362e-08
0.00515039
-3.41858e-08
0.00515039
-2.55748e-08
0.00515038
-1.95808e-08
0.00515038
-1.55245e-08
0.00515038
-1.31732e-08
0.00515038
-1.49093e-08
-1.56948e-08
0.00965603
-0.00101932
0.00852644
-0.00129039
0.00761527
-0.00133635
0.00702865
-0.00113079
0.00659445
-0.000890904
0.00623406
-0.000685087
0.00594704
-0.000524792
0.00573053
-0.000400862
0.00557165
-0.000304632
0.00545603
-0.00022973
0.00537202
-0.000171837
0.005311
-0.000127637
0.00526669
-9.42799e-05
0.00523454
-6.93404e-05
0.00521121
-5.08273e-05
0.00519428
-3.71577e-05
0.00518201
-2.71057e-05
0.00517311
-1.97398e-05
0.00516665
-1.43586e-05
0.00516197
-1.04362e-05
0.00515857
-7.58032e-06
0.00515611
-5.50178e-06
0.00515432
-3.98956e-06
0.00515303
-2.89076e-06
0.00515209
-2.09412e-06
0.00515141
-1.51773e-06
0.00515092
-1.10089e-06
0.00515056
-7.98899e-07
0.0051503
-5.79387e-07
0.00515011
-4.19344e-07
0.00514997
-3.0267e-07
0.00514987
-2.18066e-07
0.0051498
-1.57279e-07
0.00514975
-1.13938e-07
0.00514971
-8.28631e-08
0.00514969
-6.05101e-08
0.00514967
-4.41997e-08
0.00514965
-3.2388e-08
0.00514964
-2.34753e-08
0.00514963
-1.76188e-08
0.00514963
-1.28263e-08
0.00514962
-1.08152e-08
0.00514962
-9.56863e-09
0.00514962
-1.1156e-08
-1.41118e-08
0.00915754
-0.00053317
0.00852214
-0.000654984
0.00780786
-0.000622078
0.00717439
-0.000497324
0.00666591
-0.00038242
0.00627904
-0.000298223
0.00598721
-0.000232957
0.00576618
-0.000179835
0.005599
-0.000137449
0.00547343
-0.000104167
0.00537989
-7.82927e-05
0.00531067
-5.84109e-05
0.0052597
-4.331e-05
0.00522231
-3.19523e-05
0.00519496
-2.34769e-05
0.00517499
-1.71917e-05
0.00516044
-1.2555e-05
0.00514985
-9.14975e-06
0.00514215
-6.65825e-06
0.00513655
-4.83998e-06
0.00513249
-3.51478e-06
0.00512954
-2.54965e-06
0.00512739
-1.84752e-06
0.00512584
-1.33775e-06
0.00512472
-9.6858e-07
0.0051239
-7.01686e-07
0.00512331
-5.08666e-07
0.00512288
-3.68711e-07
0.00512256
-2.66909e-07
0.00512234
-1.92789e-07
0.00512217
-1.39008e-07
0.00512206
-1.00215e-07
0.00512197
-7.22768e-08
0.00512191
-5.23504e-08
0.00512187
-3.8137e-08
0.00512183
-2.77737e-08
0.00512181
-2.00082e-08
0.00512179
-1.46222e-08
0.00512178
-1.01191e-08
0.00512177
-8.4938e-09
0.00512176
-5.18852e-09
0.00512175
-5.49907e-09
0.00512175
-6.29389e-09
0.00512175
-5.71092e-09
-9.56615e-09
0.00783591
0.00718092
0.00655885
0.00606152
0.0056791
0.00538088
0.00514792
0.00496809
0.00483064
0.00472647
0.00464818
0.00458977
0.00454646
0.0045145
0.00449103
0.00447384
0.00446128
0.00445213
0.00444547
0.00444063
0.00443712
0.00443457
0.00443272
0.00443138
0.00443042
0.00442971
0.0044292
0.00442884
0.00442857
0.00442838
0.00442824
0.00442814
0.00442806
0.00442801
0.00442797
0.00442795
0.00442793
0.00442791
0.0044279
0.00442789
0.00442789
0.00442788
0.00442788
0.00442787
3.58196e-06
-3.58195e-06
0.000651984
-0.000648402
0.00135214
-0.000700151
0.00204545
-0.000693315
0.00264702
-0.000601566
0.00312519
-0.000478177
0.00348672
-0.000361528
0.00375227
-0.000265544
0.00394418
-0.000191913
0.00408173
-0.000137554
0.00417999
-9.82574e-05
0.00425014
-7.01492e-05
0.00430026
-5.01253e-05
0.00433613
-3.58646e-05
0.00436183
-2.57004e-05
0.00438028
-1.84505e-05
0.00439355
-1.3271e-05
0.00440311
-9.55839e-06
0.00441
-6.88765e-06
0.00441496
-4.96382e-06
0.00441854
-3.58005e-06
0.00442113
-2.58641e-06
0.004423
-1.87159e-06
0.00442435
-1.35444e-06
0.00442533
-9.78471e-07
0.00442604
-7.0514e-07
0.00442654
-5.07694e-07
0.00442691
-3.66485e-07
0.00442718
-2.66141e-07
0.00442737
-1.94287e-07
0.00442751
-1.41509e-07
0.00442762
-1.02567e-07
0.00442769
-7.36258e-08
0.00442774
-5.20454e-08
0.00442778
-3.65754e-08
0.0044278
-2.60211e-08
0.00442782
-1.91789e-08
0.00442784
-1.43322e-08
0.00442785
-1.16019e-08
0.00442786
-7.91239e-09
0.00442786
-7.45698e-09
0.00442787
-4.30894e-09
0.00442787
-1.97186e-09
0.00442787
-2.36763e-09
6.25753e-10
5.87309e-05
-6.23129e-05
0.000728416
-0.00131809
0.00157676
-0.00154849
0.00243161
-0.00154817
0.00314307
-0.00131302
0.0036876
-0.00102271
0.00408879
-0.000762715
0.00437931
-0.000556066
0.00458817
-0.000400768
0.00473796
-0.000287344
0.00484539
-0.00020569
0.00492252
-0.000147284
0.00497798
-0.000105581
0.0050179
-7.57895e-05
0.00504669
-5.44827e-05
0.00506746
-3.92245e-05
0.00508247
-2.82781e-05
0.00509331
-2.0406e-05
0.00510116
-1.47327e-05
0.00510684
-1.06406e-05
0.00511095
-7.69034e-06
0.00511392
-5.56358e-06
0.00511608
-4.02809e-06
0.00511764
-2.91626e-06
0.00511877
-2.10943e-06
0.00511959
-1.52418e-06
0.00512018
-1.10114e-06
0.00512062
-7.96809e-07
0.00512093
-5.7825e-07
0.00512115
-4.20505e-07
0.00512132
-3.05593e-07
0.00512144
-2.21281e-07
0.00512152
-1.5919e-07
0.00512158
-1.13705e-07
0.00512163
-8.11352e-08
0.00512166
-5.84421e-08
0.00512168
-4.28812e-08
0.0051217
-3.19141e-08
0.00512171
-2.43639e-08
0.00512172
-1.79324e-08
0.00512173
-1.42385e-08
0.00512174
-9.80989e-09
0.00512174
-7.24506e-09
0.00512175
-6.90807e-09
-4.9257e-09
-0.000778425
0.000716112
0.000301833
-0.00239834
0.00157792
-0.00282458
0.0026284
-0.00259865
0.00340251
-0.00208714
0.00393588
-0.00155608
0.00429755
-0.00112439
0.00454521
-0.000803726
0.00471745
-0.000573006
0.0048389
-0.000408794
0.00492543
-0.00029222
0.00498751
-0.000209367
0.00503225
-0.000150319
0.00506458
-0.000108115
0.00508797
-7.78802e-05
0.00510493
-5.61764e-05
0.00511721
-4.05652e-05
0.00512612
-2.93131e-05
0.00513258
-2.11903e-05
0.00513726
-1.53237e-05
0.00514066
-1.10875e-05
0.00514312
-8.02784e-06
0.00514491
-5.81491e-06
0.0051462
-4.21114e-06
0.00514714
-3.04743e-06
0.00514782
-2.20383e-06
0.00514831
-1.59416e-06
0.00514867
-1.15494e-06
0.00514893
-8.38412e-07
0.00514912
-6.092e-07
0.00514926
-4.42377e-07
0.00514936
-3.20349e-07
0.00514943
-2.30588e-07
0.00514948
-1.6498e-07
0.00514952
-1.18048e-07
0.00514954
-8.52011e-08
0.00514956
-6.24919e-08
0.00514958
-4.6533e-08
0.00514959
-3.48899e-08
0.0051496
-2.62141e-08
0.0051496
-2.0173e-08
0.00514961
-1.496e-08
0.00514961
-1.12288e-08
0.00514962
-1.08462e-08
-1.04956e-08
0.000573812
0.0001423
0.00116266
-0.00298719
0.00221359
-0.00387551
0.00321303
-0.00359809
0.00392342
-0.00279753
0.00435955
-0.00199221
0.00462001
-0.00138485
0.00478158
-0.000965294
0.00488752
-0.000678946
0.00496041
-0.000481684
0.00501217
-0.000343986
0.00504957
-0.000246762
0.0050768
-0.000177552
0.0050967
-0.000128014
0.00511125
-9.24299e-05
0.00512188
-6.68069e-05
0.00512964
-4.83213e-05
0.00513529
-3.49658e-05
0.00513941
-2.53089e-05
0.00514241
-1.83243e-05
0.00514459
-1.32719e-05
0.00514618
-9.61506e-06
0.00514733
-6.96571e-06
0.00514816
-5.04478e-06
0.00514877
-3.6522e-06
0.00514921
-2.6439e-06
0.00514953
-1.9151e-06
0.00514976
-1.38873e-06
0.00514993
-1.00786e-06
0.00515005
-7.31163e-07
0.00515014
-5.29704e-07
0.0051502
-3.82967e-07
0.00515025
-2.75994e-07
0.00515028
-1.98479e-07
0.00515031
-1.43154e-07
0.00515033
-1.03903e-07
0.00515034
-7.61044e-08
0.00515035
-5.60376e-08
0.00515036
-4.13539e-08
0.00515036
-3.09138e-08
0.00515037
-2.36139e-08
0.00515037
-1.79809e-08
0.00515037
-1.42667e-08
0.00515037
-1.44604e-08
-1.37308e-08
0.00288146
0.00364087
0.00428603
0.0047385
0.00495621
0.00503999
0.00507054
0.00508492
0.00509546
0.0051052
0.00511419
0.00512206
0.00512862
0.0051339
0.00513802
0.00514118
0.00514358
0.00514538
0.00514671
0.0051477
0.00514843
0.00514896
0.00514935
0.00514963
0.00514984
0.00514999
0.0051501
0.00515018
0.00515024
0.00515028
0.00515031
0.00515033
0.00515035
0.00515036
0.00515037
0.00515037
0.00515038
0.00515038
0.00515038
0.00515038
0.00515039
0.00515039
0.00515039
0.00515039
)
;

boundaryField
{
    inlet
    {
        type            calculated;
        value           nonuniform List<scalar> 5(-0.01 -0.01 -0.01 -0.01 -0.01);
    }
    outlet
    {
        type            calculated;
        value           nonuniform List<scalar> 10(0.00515039 0.00515037 0.00514961 0.00512174 0.00442786 0.00442787 0.00512175 0.00514962 0.00515038 0.00515039);
    }
    upperWall
    {
        type            calculated;
        value           uniform 0;
    }
    lowerWall
    {
        type            calculated;
        value           uniform 0;
    }
    frontAndBack
    {
        type            empty;
        value           nonuniform List<scalar> 0();
    }
}


// ************************************************************************* //
