/*--------------------------------*- C++ -*----------------------------------*\
  =========                 |
  \\      /  F ield         | OpenFOAM: The Open Source CFD Toolbox
   \\    /   O peration     | Website:  https://openfoam.org
    \\  /    A nd           | Version:  10
     \\/     M anipulation  |
\*---------------------------------------------------------------------------*/
FoamFile
{
    format      ascii;
    class       volVectorField;
    location    "0.4";
    object      U;
}
// * * * * * * * * * * * * * * * * * * * * * * * * * * * * * * * * * * * * * //

dimensions      [0 1 -1 0 0 0 0];

internalField   nonuniform List<vector> 
475
(
(0.949942 0.0218772 0)
(1.00703 -0.0371882 0)
(0.934455 0.0883057 0)
(1.08218 -0.128129 0)
(0.992243 0.010805 0)
(1.00499 -0.00283367 0)
(0.979264 0.0212577 0)
(1.06749 -0.0348914 0)
(1.04244 -0.0586454 0)
(1.04372 -0.050959 0)
(0.991191 0.00236397 0)
(0.991393 -0.0282085 0)
(1.04823 -0.0205593 0)
(1.03702 -0.0651859 0)
(1.01941 -0.0984516 0)
(0.992725 -0.013372 0)
(0.994672 -0.0258391 0)
(1.03693 -0.0398101 0)
(1.0281 -0.0560783 0)
(0.980902 -0.0580087 0)
(0.972712 -0.0099947 0)
(0.958082 -0.0221601 0)
(0.964901 -0.0255005 0)
(0.914336 -0.0279422 0)
(0.851898 -0.0296384 0)
(1.11916 -0.252518 0)
(1.23023 -0.334651 0)
(1.12344 -0.364547 0)
(0.910681 -0.322511 0)
(0.745065 -0.241563 0)
(0.643247 -0.170861 0)
(0.58438 -0.121966 0)
(0.552944 -0.0884522 0)
(0.536745 -0.0644942 0)
(0.528182 -0.0470265 0)
(0.523406 -0.0342513 0)
(0.520573 -0.0249202 0)
(0.518797 -0.0181167 0)
(0.517638 -0.0131631 0)
(0.516858 -0.00955978 0)
(0.516322 -0.00694031 0)
(0.51595 -0.00503698 0)
(0.515689 -0.0036547 0)
(0.515505 -0.00265132 0)
(0.515374 -0.00192321 0)
(0.51528 -0.00139486 0)
(0.515212 -0.00101141 0)
(0.515164 -0.000733133 0)
(0.515129 -0.00053129 0)
(0.515104 -0.000385017 0)
(0.515087 -0.000279098 0)
(0.515074 -0.000202403 0)
(0.515064 -0.000146802 0)
(0.515057 -0.000106421 0)
(0.515052 -7.70758e-05 0)
(0.515048 -5.57787e-05 0)
(0.515046 -4.03544e-05 0)
(0.515044 -2.92004e-05 0)
(0.515043 -2.11616e-05 0)
(0.515042 -1.53583e-05 0)
(0.515041 -1.11616e-05 0)
(0.51504 -8.11964e-06 0)
(0.515039 -5.92385e-06 0)
(0.51504 -4.35672e-06 0)
(0.515037 -3.23893e-06 0)
(0.515044 -2.48269e-06 0)
(0.515032 -1.95578e-06 0)
(0.515047 -1.59226e-06 0)
(0.515039 -1.7026e-06 0)
(0.515039 -1.58508e-06 0)
(1.02961 -0.295626 0)
(0.859476 -0.413029 0)
(0.710937 -0.29037 0)
(0.63804 -0.160166 0)
(0.605454 -0.110198 0)
(0.58723 -0.0944981 0)
(0.572712 -0.0814188 0)
(0.559845 -0.0663435 0)
(0.548753 -0.0516459 0)
(0.539765 -0.0390788 0)
(0.532919 -0.0290976 0)
(0.527901 -0.0214691 0)
(0.524284 -0.0157543 0)
(0.52169 -0.0115208 0)
(0.519829 -0.00840576 0)
(0.518491 -0.0061234 0)
(0.51753 -0.00445542 0)
(0.516839 -0.00323863 0)
(0.516341 -0.00235237 0)
(0.515982 -0.00170783 0)
(0.515721 -0.00123961 0)
(0.515531 -0.000899584 0)
(0.515394 -0.000652581 0)
(0.515296 -0.0004731 0)
(0.515226 -0.000342757 0)
(0.515174 -0.000248258 0)
(0.515137 -0.000179897 0)
(0.515109 -0.000130518 0)
(0.515089 -9.4814e-05 0)
(0.515074 -6.88812e-05 0)
(0.515064 -4.99393e-05 0)
(0.515057 -3.60718e-05 0)
(0.515052 -2.59558e-05 0)
(0.515048 -1.86303e-05 0)
(0.515045 -1.33993e-05 0)
(0.515043 -9.71335e-06 0)
(0.515041 -7.133e-06 0)
(0.515039 -5.30648e-06 0)
(0.51504 -3.98265e-06 0)
(0.515036 -2.98993e-06 0)
(0.515043 -2.28702e-06 0)
(0.515031 -1.76799e-06 0)
(0.515047 -1.43784e-06 0)
(0.515038 -1.53978e-06 0)
(0.515037 -1.63011e-06 0)
(1.01402 -0.0946785 0)
(0.933553 -0.112309 0)
(0.808056 -0.151916 0)
(0.721977 -0.157305 0)
(0.674818 -0.130703 0)
(0.638909 -0.0982622 0)
(0.607271 -0.0720115 0)
(0.582334 -0.0530688 0)
(0.563984 -0.0394512 0)
(0.550615 -0.0293902 0)
(0.540871 -0.0218358 0)
(0.533779 -0.016154 0)
(0.528624 -0.0119008 0)
(0.524877 -0.00873659 0)
(0.522155 -0.00639569 0)
(0.520179 -0.00467124 0)
(0.518746 -0.00340519 0)
(0.517706 -0.00247858 0)
(0.516953 -0.00180242 0)
(0.516405 -0.00131005 0)
(0.516008 -0.000951752 0)
(0.51572 -0.000690917 0)
(0.515511 -0.00050101 0)
(0.51536 -0.000362946 0)
(0.515251 -0.000262887 0)
(0.515172 -0.000190602 0)
(0.515114 -0.00013842 0)
(0.515071 -0.000100626 0)
(0.515041 -7.30829e-05 0)
(0.515019 -5.29025e-05 0)
(0.515003 -3.81226e-05 0)
(0.514992 -2.73958e-05 0)
(0.514984 -1.97204e-05 0)
(0.514978 -1.42835e-05 0)
(0.514973 -1.04373e-05 0)
(0.51497 -7.6814e-06 0)
(0.514967 -5.65304e-06 0)
(0.514965 -4.12722e-06 0)
(0.514965 -2.96603e-06 0)
(0.514961 -2.1488e-06 0)
(0.514968 -1.59743e-06 0)
(0.514956 -1.29669e-06 0)
(0.514971 -1.14023e-06 0)
(0.514961 -1.37392e-06 0)
(0.514961 -1.49486e-06 0)
(0.937557 -0.0912154 0)
(0.892324 -0.121608 0)
(0.823676 -0.108813 0)
(0.747789 -0.0795675 0)
(0.688011 -0.0582939 0)
(0.644403 -0.0457529 0)
(0.611446 -0.0364353 0)
(0.586284 -0.028531 0)
(0.56723 -0.0219663 0)
(0.552875 -0.0166915 0)
(0.542125 -0.0125501 0)
(0.534135 -0.00935803 0)
(0.528234 -0.00693305 0)
(0.523895 -0.00511087 0)
(0.520714 -0.00375281 0)
(0.518388 -0.00274693 0)
(0.516692 -0.00200562 0)
(0.515457 -0.00146161 0)
(0.514558 -0.00106376 0)
(0.513905 -0.000773423 0)
(0.51343 -0.000561783 0)
(0.513085 -0.000407623 0)
(0.512835 -0.000295482 0)
(0.512653 -0.000214089 0)
(0.512522 -0.000155148 0)
(0.512426 -0.000112509 0)
(0.512357 -8.16235e-05 0)
(0.512306 -5.91785e-05 0)
(0.51227 -4.28185e-05 0)
(0.512244 -3.09041e-05 0)
(0.512225 -2.22811e-05 0)
(0.512211 -1.60857e-05 0)
(0.512201 -1.16467e-05 0)
(0.512194 -8.46175e-06 0)
(0.512189 -6.16496e-06 0)
(0.512184 -4.49144e-06 0)
(0.512182 -3.24401e-06 0)
(0.512179 -2.35707e-06 0)
(0.512179 -1.66347e-06 0)
(0.512175 -1.33542e-06 0)
(0.512181 -9.12875e-07 0)
(0.512169 -8.71979e-07 0)
(0.512184 -8.59522e-07 0)
(0.512174 -8.87045e-07 0)
(0.512174 -1.30693e-06 0)
(0.80839 -0.0250601 0)
(0.75666 -0.0224606 0)
(0.690336 -0.0234642 0)
(0.629762 -0.0216264 0)
(0.584557 -0.0179302 0)
(0.551119 -0.0142214 0)
(0.525132 -0.0110011 0)
(0.5048 -0.00839879 0)
(0.489167 -0.00638399 0)
(0.477281 -0.00483384 0)
(0.46831 -0.0036381 0)
(0.461587 -0.0027198 0)
(0.456584 -0.00202073 0)
(0.452882 -0.00149337 0)
(0.450155 -0.00109872 0)
(0.448154 -0.000805357 0)
(0.446691 -0.000588499 0)
(0.445623 -0.000428987 0)
(0.444846 -0.000312149 0)
(0.44428 -0.000226835 0)
(0.443869 -0.000164652 0)
(0.443571 -0.000119375 0)
(0.443355 -8.64478e-05 0)
(0.443198 -6.25529e-05 0)
(0.443085 -4.52617e-05 0)
(0.443003 -3.27739e-05 0)
(0.442943 -2.37482e-05 0)
(0.4429 -1.71992e-05 0)
(0.442869 -1.24248e-05 0)
(0.442846 -8.94057e-06 0)
(0.44283 -6.41326e-06 0)
(0.442819 -4.60212e-06 0)
(0.44281 -3.32154e-06 0)
(0.442804 -2.42898e-06 0)
(0.442799 -1.79478e-06 0)
(0.442796 -1.32105e-06 0)
(0.442793 -9.54862e-07 0)
(0.442791 -7.08116e-07 0)
(0.442791 -4.74561e-07 0)
(0.442788 -4.1708e-07 0)
(0.442792 -1.85554e-07 0)
(0.442783 -2.51046e-07 0)
(0.442795 -3.10723e-07 0)
(0.442788 -3.09011e-07 0)
(0.442786 -7.12512e-07 0)
(-0.0158349 -0.0239281 0)
(0.0184816 -0.031183 0)
(0.102687 -0.032663 0)
(0.170415 -0.032726 0)
(0.235251 -0.0286363 0)
(0.28946 -0.0228984 0)
(0.331476 -0.0173672 0)
(0.362753 -0.0127673 0)
(0.385499 -0.00922028 0)
(0.401835 -0.00659711 0)
(0.413502 -0.00470147 0)
(0.42182 -0.00334823 0)
(0.427752 -0.00238697 0)
(0.431989 -0.00170424 0)
(0.435023 -0.00121861 0)
(0.437198 -0.00087296 0)
(0.438758 -0.00062677 0)
(0.43988 -0.0004509 0)
(0.440689 -0.00032463 0)
(0.441273 -0.000233652 0)
(0.441695 -0.000168169 0)
(0.441998 -0.000121228 0)
(0.442216 -8.76359e-05 0)
(0.442374 -6.34784e-05 0)
(0.442489 -4.5939e-05 0)
(0.442572 -3.31141e-05 0)
(0.442633 -2.3753e-05 0)
(0.442676 -1.70058e-05 0)
(0.442707 -1.22294e-05 0)
(0.442729 -8.87226e-06 0)
(0.442744 -6.49019e-06 0)
(0.442756 -4.75868e-06 0)
(0.442765 -3.45853e-06 0)
(0.442772 -2.46974e-06 0)
(0.442776 -1.75306e-06 0)
(0.44278 -1.26352e-06 0)
(0.442782 -9.45612e-07 0)
(0.442783 -7.0336e-07 0)
(0.442785 -5.80728e-07 0)
(0.442784 -3.63111e-07 0)
(0.442789 -3.75397e-07 0)
(0.442782 -1.62527e-07 0)
(0.442793 -2.39515e-08 0)
(0.44279 -1.78888e-08 0)
(0.442787 2.79381e-07 0)
(-0.0105319 0.0275888 0)
(0.0232443 -0.0886303 0)
(0.120065 -0.105917 0)
(0.201521 -0.108239 0)
(0.279866 -0.0939795 0)
(0.342815 -0.0745355 0)
(0.389985 -0.0563016 0)
(0.424396 -0.0413855 0)
(0.44918 -0.0299667 0)
(0.466939 -0.0215317 0)
(0.479652 -0.0154208 0)
(0.488758 -0.0110374 0)
(0.495294 -0.00790524 0)
(0.499993 -0.00566814 0)
(0.503377 -0.00406935 0)
(0.505816 -0.00292606 0)
(0.507574 -0.00210748 0)
(0.508845 -0.00151976 0)
(0.509764 -0.00109645 0)
(0.510431 -0.000791113 0)
(0.510913 -0.000571122 0)
(0.51126 -0.00041288 0)
(0.511511 -0.000298938 0)
(0.511693 -0.000216522 0)
(0.511826 -0.000156606 0)
(0.511923 -0.000113005 0)
(0.511993 -8.14421e-05 0)
(0.512044 -5.87958e-05 0)
(0.51208 -4.26492e-05 0)
(0.512105 -3.10944e-05 0)
(0.512124 -2.27082e-05 0)
(0.512137 -1.65127e-05 0)
(0.512148 -1.18732e-05 0)
(0.512156 -8.41317e-06 0)
(0.512161 -5.91861e-06 0)
(0.512165 -4.20061e-06 0)
(0.512168 -3.06981e-06 0)
(0.512169 -2.28957e-06 0)
(0.512172 -1.80961e-06 0)
(0.51217 -1.29656e-06 0)
(0.512177 -1.12505e-06 0)
(0.512167 -7.20844e-07 0)
(0.512182 -4.30533e-07 0)
(0.512175 -4.4179e-07 0)
(0.512175 -1.19623e-07 0)
(-0.08045 -0.0500534 0)
(-0.0579893 -0.195167 0)
(0.112537 -0.211804 0)
(0.212181 -0.201841 0)
(0.303393 -0.168052 0)
(0.368749 -0.129134 0)
(0.413006 -0.0954061 0)
(0.443097 -0.0691717 0)
(0.463842 -0.049717 0)
(0.478346 -0.0356158 0)
(0.48861 -0.0255031 0)
(0.495938 -0.0182787 0)
(0.501204 -0.0131189 0)
(0.505003 -0.00942919 0)
(0.507748 -0.00678702 0)
(0.509733 -0.00489223 0)
(0.51117 -0.00353069 0)
(0.512212 -0.00254998 0)
(0.512969 -0.00184237 0)
(0.513518 -0.00133166 0)
(0.513916 -0.000963271 0)
(0.514203 -0.00069746 0)
(0.51441 -0.000505239 0)
(0.514562 -0.000365815 0)
(0.514672 -0.00026456 0)
(0.514753 -0.000191193 0)
(0.514811 -0.000138288 0)
(0.514852 -0.000100281 0)
(0.514882 -7.29382e-05 0)
(0.514903 -5.31168e-05 0)
(0.514919 -3.85901e-05 0)
(0.514931 -2.78649e-05 0)
(0.514939 -1.99754e-05 0)
(0.514946 -1.42652e-05 0)
(0.514951 -1.022e-05 0)
(0.514954 -7.39579e-06 0)
(0.514956 -5.42966e-06 0)
(0.514957 -4.02747e-06 0)
(0.514959 -3.02155e-06 0)
(0.514957 -2.23263e-06 0)
(0.514964 -1.70649e-06 0)
(0.514954 -1.25264e-06 0)
(0.514969 -9.45397e-07 0)
(0.514962 -9.63506e-07 0)
(0.514962 -9.19104e-07 0)
(0.0685969 0.228502 0)
(0.0509005 -0.253404 0)
(0.188729 -0.334851 0)
(0.271896 -0.311766 0)
(0.357136 -0.246612 0)
(0.415574 -0.179889 0)
(0.450057 -0.127808 0)
(0.470735 -0.0904272 0)
(0.483873 -0.0641328 0)
(0.492687 -0.0456599 0)
(0.498841 -0.0326315 0)
(0.503246 -0.0233952 0)
(0.50644 -0.0168149 0)
(0.508769 -0.0121085 0)
(0.510469 -0.00873268 0)
(0.511709 -0.00630609 0)
(0.512614 -0.00455815 0)
(0.513274 -0.00329653 0)
(0.513757 -0.0023847 0)
(0.514108 -0.00172555 0)
(0.514363 -0.00124926 0)
(0.514547 -0.000905041 0)
(0.514681 -0.00065592 0)
(0.514778 -0.000475222 0)
(0.51485 -0.000343989 0)
(0.514902 -0.000248789 0)
(0.51494 -0.00017997 0)
(0.514967 -0.000130423 0)
(0.514986 -9.47892e-05 0)
(0.514999 -6.90332e-05 0)
(0.51501 -5.02156e-05 0)
(0.515017 -3.63256e-05 0)
(0.515023 -2.6073e-05 0)
(0.515027 -1.85895e-05 0)
(0.51503 -1.32558e-05 0)
(0.515032 -9.54766e-06 0)
(0.515034 -7.0108e-06 0)
(0.515034 -5.25629e-06 0)
(0.515036 -4.02354e-06 0)
(0.515034 -3.07328e-06 0)
(0.515041 -2.37888e-06 0)
(0.51503 -1.77461e-06 0)
(0.515045 -1.33571e-06 0)
(0.515038 -1.23893e-06 0)
(0.515038 -1.20421e-06 0)
(0.404759 -0.217652 0)
(0.243726 -0.395191 0)
(0.435103 -0.489142 0)
(0.449326 -0.438455 0)
(0.475642 -0.326307 0)
(0.496445 -0.223228 0)
(0.50437 -0.15018 0)
(0.507215 -0.102421 0)
(0.508735 -0.0712061 0)
(0.509902 -0.0502822 0)
(0.510915 -0.0358745 0)
(0.511797 -0.0257542 0)
(0.512538 -0.0185566 0)
(0.513139 -0.0133998 0)
(0.513609 -0.00968906 0)
(0.513971 -0.00701175 0)
(0.514247 -0.00507677 0)
(0.514455 -0.00367687 0)
(0.514612 -0.00266358 0)
(0.514727 -0.00192996 0)
(0.514811 -0.00139866 0)
(0.514871 -0.00101366 0)
(0.514916 -0.000734501 0)
(0.51495 -0.00053206 0)
(0.514975 -0.000385348 0)
(0.514993 -0.000279161 0)
(0.515006 -0.000202381 0)
(0.515015 -0.000146838 0)
(0.515021 -0.000106571 0)
(0.515025 -7.72947e-05 0)
(0.515029 -5.59635e-05 0)
(0.515032 -4.04242e-05 0)
(0.515034 -2.91491e-05 0)
(0.515036 -2.1036e-05 0)
(0.515037 -1.52166e-05 0)
(0.515037 -1.10463e-05 0)
(0.515037 -8.05807e-06 0)
(0.515037 -5.91677e-06 0)
(0.515039 -4.3804e-06 0)
(0.515036 -3.25946e-06 0)
(0.515043 -2.47957e-06 0)
(0.515032 -1.92409e-06 0)
(0.515047 -1.53353e-06 0)
(0.51504 -1.58995e-06 0)
(0.515039 -1.47949e-06 0)
)
;

boundaryField
{
    inlet
    {
        type            fixedValue;
        value           uniform (1 0 0);
    }
    outlet
    {
        type            zeroGradient;
    }
    upperWall
    {
        type            noSlip;
    }
    lowerWall
    {
        type            noSlip;
    }
    frontAndBack
    {
        type            empty;
    }
}


// ************************************************************************* //
