/*--------------------------------*- C++ -*----------------------------------*\
  =========                 |
  \\      /  F ield         | OpenFOAM: The Open Source CFD Toolbox
   \\    /   O peration     | Website:  https://openfoam.org
    \\  /    A nd           | Version:  10
     \\/     M anipulation  |
\*---------------------------------------------------------------------------*/
FoamFile
{
    format      ascii;
    class       volScalarField;
    location    "10";
    object      p;
}
// * * * * * * * * * * * * * * * * * * * * * * * * * * * * * * * * * * * * * //

dimensions      [0 2 -2 0 0 0 0];

internalField   nonuniform List<scalar> 
475
(
-0.0287525
-0.054148
-0.083408
-0.106864
-0.129345
-0.0545879
-0.067907
-0.084191
-0.10325
-0.12025
-0.0527297
-0.0621445
-0.0770904
-0.0945844
-0.110998
-0.052141
-0.0629895
-0.0778577
-0.0933867
-0.107043
-0.0223444
-0.0492608
-0.072958
-0.0906997
-0.103614
-0.147491
-0.158608
-0.163125
-0.164576
-0.165316
-0.166078
-0.167044
-0.167828
-0.167745
-0.166102
-0.162407
-0.156385
-0.148059
-0.137776
-0.126198
-0.113866
-0.10119
-0.088449
-0.0764959
-0.0672239
-0.0618246
-0.0600775
-0.0605908
-0.0617124
-0.0625828
-0.0630902
-0.0635195
-0.0640142
-0.0641435
-0.0634551
-0.0613903
-0.0581492
-0.0537531
-0.0482414
-0.0420999
-0.0354885
-0.0290743
-0.0230279
-0.0175508
-0.0128848
-0.00896073
-0.00586777
-0.00348096
-0.00164854
-0.000364292
-0.136924
-0.148584
-0.154483
-0.156046
-0.155626
-0.154522
-0.152984
-0.150976
-0.14835
-0.145012
-0.140942
-0.136163
-0.130722
-0.124579
-0.117784
-0.110041
-0.101212
-0.0912966
-0.0818249
-0.0747813
-0.0710739
-0.0703907
-0.0717522
-0.0734297
-0.074504
-0.0747087
-0.0745221
-0.0742798
-0.0736669
-0.0722065
-0.0694404
-0.0654588
-0.0599996
-0.0533314
-0.0457919
-0.0377144
-0.0298291
-0.0222871
-0.0156073
-0.00996746
-0.00549315
-0.0023474
-0.000302741
0.000623821
0.000647522
-0.124478
-0.134131
-0.139875
-0.142199
-0.142048
-0.140274
-0.137357
-0.1337
-0.12952
-0.125221
-0.121169
-0.118115
-0.11663
-0.11667
-0.116191
-0.111891
-0.102706
-0.0923632
-0.0852083
-0.0814391
-0.0790086
-0.0773235
-0.0764482
-0.0760867
-0.075974
-0.0759318
-0.0759362
-0.0758339
-0.0753856
-0.0738145
-0.0710928
-0.0669145
-0.061229
-0.0542798
-0.0462776
-0.0378047
-0.0293007
-0.021234
-0.0140925
-0.00810896
-0.00352245
-0.000410497
0.00139691
0.00179734
0.00117731
-0.118008
-0.126037
-0.131119
-0.13332
-0.132924
-0.130372
-0.126179
-0.120847
-0.114797
-0.108839
-0.103888
-0.101718
-0.10356
-0.11094
-0.120507
-0.119893
-0.106508
-0.0880679
-0.0770058
-0.0751436
-0.0780719
-0.0807363
-0.0818332
-0.0812926
-0.0799817
-0.0785501
-0.0772723
-0.0761789
-0.0748497
-0.0729283
-0.0699308
-0.0655775
-0.0598951
-0.0529376
-0.0450691
-0.0366722
-0.028231
-0.0202804
-0.0131943
-0.00734779
-0.00284214
0.000176387
0.00184562
0.00206076
0.00135818
-0.113439
-0.120807
-0.125673
-0.127819
-0.127259
-0.124257
-0.119387
-0.113202
-0.106459
-0.09987
-0.0948616
-0.0927628
-0.0959072
-0.105695
-0.116801
-0.11988
-0.112376
-0.0997481
-0.0884571
-0.081688
-0.0795172
-0.0792958
-0.0792208
-0.0788606
-0.0782333
-0.0774557
-0.076594
-0.0755551
-0.074086
-0.0718523
-0.0685431
-0.0640167
-0.0582371
-0.0512934
-0.0435165
-0.0352773
-0.0270867
-0.0193027
-0.0124451
-0.00674504
-0.00237556
0.000550821
0.00212794
0.00228354
0.00161676
-0.172107
-0.172457
-0.17273
-0.173294
-0.173973
-0.174981
-0.176484
-0.178421
-0.180118
-0.180535
-0.178271
-0.172208
-0.161792
-0.147062
-0.128458
-0.107021
-0.0842439
-0.061878
-0.0413672
-0.0237685
-0.00971722
0.000427396
0.00676276
0.00970541
0.00993318
0.00817959
0.00517793
0.00155051
-0.00226875
-0.0061953
-0.00988734
-0.0133701
-0.0165887
-0.0194409
-0.0217981
-0.0235074
-0.0244644
-0.0246508
-0.0240813
-0.022701
-0.0204737
-0.017354
-0.0133368
-0.00854288
-0.0030538
-0.167088
-0.169
-0.169609
-0.170878
-0.172428
-0.174429
-0.176959
-0.179782
-0.182318
-0.183509
-0.181926
-0.176524
-0.166731
-0.152288
-0.133702
-0.112093
-0.0887749
-0.0661334
-0.0453303
-0.0275064
-0.013311
-0.00294578
0.00363422
0.00681861
0.00732091
0.00587693
0.00316425
-0.000199161
-0.00391936
-0.0075815
-0.0110595
-0.014257
-0.0171531
-0.0196795
-0.0217175
-0.0232044
-0.0240925
-0.0243262
-0.0238478
-0.0225926
-0.0205302
-0.0176265
-0.0137051
-0.00888993
-0.00335452
-0.175927
-0.174794
-0.174253
-0.174
-0.174558
-0.176153
-0.178755
-0.181962
-0.184871
-0.186604
-0.185173
-0.179773
-0.16997
-0.155653
-0.137323
-0.116098
-0.0935554
-0.0715922
-0.0515967
-0.034518
-0.0209404
-0.0111514
-0.00506326
-0.00222209
-0.00186002
-0.0032312
-0.00567913
-0.00868519
-0.0118658
-0.0149109
-0.0177458
-0.0200052
-0.0216927
-0.0229157
-0.02381
-0.0243914
-0.0245804
-0.0243545
-0.0235508
-0.0221487
-0.0200664
-0.0171885
-0.0134409
-0.00875014
-0.00338616
-0.163601
-0.166482
-0.168046
-0.169767
-0.1715
-0.173802
-0.176797
-0.180203
-0.183209
-0.184713
-0.183407
-0.1782
-0.16875
-0.155143
-0.137982
-0.118404
-0.0978831
-0.0780094
-0.0601148
-0.0450893
-0.0334875
-0.0255124
-0.0208872
-0.0189904
-0.0190533
-0.0203961
-0.0224112
-0.0246901
-0.026859
-0.0286594
-0.0300881
-0.0306886
-0.0304966
-0.0296778
-0.0285567
-0.027235
-0.0256118
-0.0238828
-0.0219972
-0.0199397
-0.0175631
-0.0147209
-0.0114002
-0.00737543
-0.00288047
-0.19956
-0.180644
-0.177358
-0.174887
-0.173965
-0.174706
-0.176482
-0.17862
-0.180272
-0.180343
-0.177815
-0.172014
-0.162695
-0.150073
-0.134887
-0.118111
-0.10086
-0.0842236
-0.0693608
-0.0573949
-0.0490542
-0.0441906
-0.0420064
-0.0415215
-0.0420654
-0.0432088
-0.0446371
-0.0460965
-0.0472086
-0.0476383
-0.0469668
-0.045224
-0.0426703
-0.0393057
-0.0354854
-0.0314316
-0.0273451
-0.0234551
-0.0198016
-0.0165047
-0.013482
-0.0105584
-0.00771699
-0.00478053
-0.00177242
)
;

boundaryField
{
    inlet
    {
        type            zeroGradient;
    }
    outlet
    {
        type            fixedValue;
        value           uniform 0;
    }
    upperWall
    {
        type            zeroGradient;
    }
    lowerWall
    {
        type            zeroGradient;
    }
    frontAndBack
    {
        type            empty;
    }
}


// ************************************************************************* //
