/*--------------------------------*- C++ -*----------------------------------*\
  =========                 |
  \\      /  F ield         | OpenFOAM: The Open Source CFD Toolbox
   \\    /   O peration     | Website:  https://openfoam.org
    \\  /    A nd           | Version:  10
     \\/     M anipulation  |
\*---------------------------------------------------------------------------*/
FoamFile
{
    format      ascii;
    class       surfaceScalarField;
    location    "10";
    object      phi;
}
// * * * * * * * * * * * * * * * * * * * * * * * * * * * * * * * * * * * * * //

dimensions      [0 3 -1 0 0 0 0];

internalField   nonuniform List<scalar> 
890
(
0.00984637
0.000153627
0.00971674
0.000129631
0.00946687
0.000249877
0.0094127
5.41629e-05
0.000152279
0.00926042
0.0101192
3.44265e-05
0.0102019
4.69716e-05
0.0104068
4.48997e-05
0.0104662
-5.18819e-06
-6.36124e-05
0.0106821
0.0100718
-3.73355e-05
0.010215
-9.62586e-05
0.0103785
-0.000118609
0.0105216
-0.000148329
-0.000187045
0.0106451
0.0100902
-0.000127497
0.0102137
-0.00021978
0.0103316
-0.000236551
0.0104195
-0.000236244
-0.000250701
0.0104832
0.0098725
0.00965272
0.00941617
0.00917993
0.00892923
0.00926589
-9.50668e-05
8.95975e-05
0.00928938
-0.00025256
0.000229074
0.00935849
-0.000378066
0.000308953
0.00945495
-0.000481448
0.000384986
0.00957398
-0.000589262
0.000470232
0.0097178
-0.000709337
0.000565525
0.00987962
-0.000846149
0.000684324
0.010052
-0.000994471
0.000822101
0.0102284
-0.00116855
0.000992093
0.010397
-0.00135577
0.00118724
0.0105467
-0.00155428
0.00140458
0.0106655
-0.00174628
0.00162744
0.0107454
-0.00191997
0.00184008
0.0107773
-0.00205636
0.00202445
0.0107509
-0.00213601
0.00216247
0.010653
-0.00214419
0.00224209
0.0104782
-0.00208277
0.00225756
0.0102494
-0.00198928
0.00221809
0.0100022
-0.00189982
0.00214702
0.00974066
-0.00177225
0.00203376
0.00946594
-0.00160485
0.00187957
0.00918611
-0.00141077
0.00169061
0.00890786
-0.00119801
0.00147626
0.00864375
-0.000978478
0.00124259
0.00841323
-0.000776058
0.00100658
0.00822585
-0.000581636
0.000769008
0.00808339
-0.000401911
0.000544374
0.00798621
-0.000224874
0.000322058
0.0079327
-6.07947e-05
0.000114299
0.00791912
0.000107993
-9.44047e-05
0.00794526
0.000265487
-0.000291636
0.00799279
0.000421195
-0.000468717
0.00806151
0.00056005
-0.000628769
0.00813477
0.000678731
-0.000751994
0.00821172
0.000775089
-0.000852038
0.008281
0.000838368
-0.000907655
0.00833765
0.000867981
-0.00092463
0.00838091
0.000871278
-0.000914536
0.00840629
0.000835662
-0.000861039
0.00841665
0.000794826
-0.000805185
0.00840909
0.000714963
-0.000707406
0.00838717
0.000649949
-0.000628027
0.00834986
0.000554425
-0.000517119
0.00830518
0.000503786
-0.000459104
0.000424181
-0.000370044
0.0107493
-0.000162323
0.0107752
-0.000278417
0.0107957
-0.00039856
0.0108193
-0.000505019
0.0108422
-0.000612243
0.0108527
-0.000719782
0.0108512
-0.000844628
0.0108372
-0.000980494
0.010806
-0.0011374
0.0107535
-0.00130321
0.0106733
-0.00147411
0.0105551
-0.00162808
0.010395
-0.00175989
0.0101869
-0.0018482
0.00991565
-0.00186479
0.00956971
-0.00179825
0.0091594
-0.00167246
0.00871571
-0.0015456
0.00825571
-0.00143982
0.00779635
-0.00131289
0.00734208
-0.00115058
0.00691538
-0.000984071
0.00651041
-0.000793051
0.00614257
-0.000610631
0.00582571
-0.000459206
0.00557493
-0.000330854
0.00539558
-0.000222562
0.00529043
-0.000119725
0.00524905
-1.94099e-05
0.00527208
8.49615e-05
0.00534636
0.000191205
0.00546099
0.00030657
0.00560994
0.000411096
0.00577552
0.000513149
0.00595768
0.00059293
0.00613708
0.00065897
0.00631216
0.000692902
0.00647278
0.000710658
0.00661373
0.000694705
0.00673722
0.000671341
0.00683439
0.000617797
0.00691192
0.000572413
0.00696419
0.000502158
0.00700234
0.000465638
0.0004043
0.0107304
-0.000247636
0.0107784
-0.000326463
0.010794
-0.000414102
0.0107892
-0.00050028
0.0107614
-0.000584382
0.0107113
-0.000669715
0.010635
-0.000768283
0.0105323
-0.00087786
0.0103973
-0.00100236
0.0102287
-0.00113462
0.01003
-0.00127542
0.0098049
-0.00140298
0.00954488
-0.00149987
0.00920169
-0.00150502
0.00873911
-0.00140221
0.0081747
-0.00123385
0.00758472
-0.00108248
0.00698208
-0.000942961
0.00632165
-0.00077939
0.00563481
-0.000626049
0.00498744
-0.000503207
0.0043769
-0.000373528
0.00384099
-0.000257144
0.00339396
-0.0001636
0.00303815
-0.000103396
0.00277512
-6.78256e-05
0.00260021
-4.76489e-05
0.00251016
-2.9681e-05
0.00249051
2.43557e-07
0.00252926
4.62134e-05
0.00261695
0.000103517
0.00275059
0.000172922
0.00292047
0.00024122
0.00312076
0.000312863
0.00334275
0.000370931
0.00357673
0.000424997
0.00381425
0.000455384
0.00404575
0.000479158
0.00426645
0.000474005
0.004472
0.000465789
0.00465555
0.000434243
0.00482057
0.000407393
0.00496061
0.000362126
0.00508574
0.000340508
0.000296474
0.0105133
-0.000277697
0.0105039
-0.000317153
0.0104471
-0.00035723
0.010348
-0.000401203
0.0102047
-0.000441089
0.0100216
-0.000486585
0.00978703
-0.000533744
0.00950014
-0.000590969
0.00915192
-0.000654135
0.00874085
-0.000723553
0.00826743
-0.000801995
0.00773199
-0.000867537
0.00718302
-0.000950897
0.00656645
-0.000888451
0.00579718
-0.000632933
0.00489524
-0.000331908
0.00387526
-6.24936e-05
0.00283412
9.81725e-05
0.00190474
0.000149989
0.00119665
8.20453e-05
0.000729322
-3.58784e-05
0.00046949
-0.000113696
0.000330376
-0.00011803
0.000257932
-9.11559e-05
0.000221576
-6.70394e-05
0.000206523
-5.27725e-05
0.000205231
-4.63563e-05
0.000216286
-4.07363e-05
0.000247258
-3.07288e-05
0.000304972
-1.15001e-05
0.000395083
1.34063e-05
0.000522264
4.57411e-05
0.00068426
7.92244e-05
0.000881926
0.000115198
0.00110669
0.000146162
0.00135782
0.000173874
0.00162247
0.000190732
0.00189735
0.000204278
0.00216662
0.000204734
0.0024297
0.00020271
0.00267501
0.000188929
0.00290631
0.000176096
0.00311297
0.000155472
0.00330809
0.000145381
0.000124014
0.00865153
0.00833438
0.00797715
0.00757594
0.00713486
0.00664827
0.00611453
0.00552356
0.00486942
0.00414587
0.00334388
0.00247634
0.00152544
0.000636991
4.05723e-06
-0.00032785
-0.000390344
-0.000292172
-0.000142183
-6.01378e-05
-9.60162e-05
-0.000209712
-0.000327742
-0.000418898
-0.000485938
-0.00053871
-0.000585066
-0.000625803
-0.000656532
-0.000668032
-0.000654625
-0.000608884
-0.00052966
-0.000414462
-0.0002683
-9.44263e-05
9.63053e-05
0.000300584
0.000505317
0.000708027
0.000896956
0.00107305
0.00122852
0.0013739
1.40724e-05
-1.40724e-05
-3.48143e-05
4.88867e-05
-0.000139012
0.000104198
-0.000327993
0.000188981
-0.000612458
0.000284464
-0.000961017
0.000348559
-0.00133783
0.000376812
-0.00171271
0.000374886
-0.00205108
0.000338367
-0.00232641
0.00027533
-0.00251431
0.0001879
-0.00260023
8.59233e-05
-0.00257464
-2.55924e-05
-0.00244213
-0.000132508
-0.00220592
-0.000236209
-0.00187752
-0.000328404
-0.00147404
-0.000403485
-0.00102045
-0.000453587
-0.000537313
-0.000483137
-4.23424e-05
-0.00049497
0.000447
-0.000489342
0.00091258
-0.000465581
0.00133701
-0.000424429
0.00170626
-0.000369249
0.00200986
-0.000303601
0.00224109
-0.000231229
0.0023968
-0.000155717
0.00247583
-7.90242e-05
0.00247786
-2.03179e-06
0.00241583
6.20254e-05
0.00229292
0.000122919
0.00212274
0.000170173
0.00192298
0.000199767
0.00171226
0.000210721
0.00150543
0.000206825
0.00131486
0.000190569
0.00114655
0.000168307
0.00100346
0.000143098
0.000885585
0.000117871
0.00079366
9.19251e-05
0.000726119
6.75413e-05
0.000682605
4.35141e-05
0.000658849
2.37557e-05
0.000651629
7.21992e-06
-6.09453e-06
-7.00799e-05
5.60075e-05
-0.000346578
0.000325385
-0.000685342
0.000442962
-0.00101085
0.000514489
-0.00129003
0.000563643
-0.00151626
0.000574793
-0.00169144
0.00055199
-0.0018089
0.000492343
-0.00186358
0.000393048
-0.00184654
0.000258295
-0.00174482
8.61769e-05
-0.00155782
-0.000101073
-0.00128612
-0.000297293
-0.000923876
-0.000494756
-0.000481533
-0.000678551
2.88539e-05
-0.000838791
0.000581596
-0.000956227
0.0011659
-0.00103789
0.00176336
-0.00108059
0.00235675
-0.00108837
0.00292866
-0.00106125
0.00346603
-0.00100294
0.00395542
-0.000913821
0.00438648
-0.000800306
0.004752
-0.00066912
0.00504671
-0.000525946
0.00526968
-0.00037868
0.00542104
-0.000230388
0.00550321
-8.41971e-05
0.00551467
5.05659e-05
0.00546155
0.00017603
0.00534777
0.000283958
0.00517866
0.000368873
0.00496418
0.000425207
0.00471756
0.00045344
0.00445188
0.000456255
0.00418321
0.00043697
0.00392752
0.000398793
0.00369574
0.000349654
0.00349597
0.000291694
0.00332938
0.000234123
0.00319944
0.00017346
0.00310793
0.000115263
0.00304048
7.46718e-05
2.89781e-05
-0.000521738
0.000577746
-0.000731747
0.000535394
-0.00082201
0.000533224
-0.000828301
0.000520781
-0.000759528
0.000494869
-0.000634132
0.000449397
-0.000459017
0.000376874
-0.000237875
0.000271202
2.78868e-05
0.000127286
0.000346837
-6.06551e-05
0.000719113
-0.000286099
0.00114517
-0.000527127
0.00161889
-0.000771013
0.00213466
-0.00101053
0.00268208
-0.00122597
0.00324728
-0.00140399
0.00382058
-0.00152952
0.00438544
-0.00160276
0.00493055
-0.0016257
0.00544708
-0.0016049
0.0059277
-0.00154187
0.00636396
-0.0014392
0.00674845
-0.00129831
0.00707597
-0.00112782
0.00734598
-0.000939132
0.00755818
-0.000738143
0.00771544
-0.000535947
0.00781957
-0.000334516
0.00787481
-0.000139433
0.00787802
4.73565e-05
0.00783034
0.000223706
0.00773814
0.000376162
0.00760287
0.000504137
0.00742999
0.000598089
0.00722503
0.000658402
0.00699951
0.000681769
0.00676107
0.000675413
0.00651935
0.000640516
0.00628644
0.000582562
0.00606626
0.00051187
0.00587198
0.000428408
0.00569631
0.000349127
0.00555386
0.000257715
0.00542474
0.000203794
0.00012878
-0.00027439
0.000852135
-0.000233238
0.000494242
-6.16901e-05
0.000361676
0.000211805
0.000247286
0.000568029
0.000138645
0.000989938
2.74875e-05
0.00145633
-8.95183e-05
0.00195662
-0.00022909
0.00248675
-0.000402839
0.00303799
-0.000611903
0.0036026
-0.000850703
0.00417774
-0.00110227
0.00475846
-0.00135173
0.00533281
-0.00158488
0.00588998
-0.00178314
0.00641801
-0.00193203
0.00690958
-0.00202109
0.00735591
-0.00204909
0.00775613
-0.00202592
0.0081103
-0.00195906
0.00841768
-0.00184926
0.00867666
-0.00169818
0.008889
-0.00151065
0.00905604
-0.00129486
0.00918294
-0.00106604
0.00927327
-0.00082847
0.00933453
-0.000597202
0.009367
-0.000366987
0.00937769
-0.000150123
0.0093619
6.31426e-05
0.00931608
0.000269525
0.00924653
0.000445714
0.00915047
0.000600194
0.00903195
0.00071661
0.00888627
0.000804078
0.00872213
0.000845916
0.00854708
0.000850456
0.00836107
0.000826534
0.00817755
0.000766082
0.00799034
0.000699077
0.00781897
0.00059978
0.00765262
0.000515477
0.00750424
0.00040609
0.00736115
0.000346887
0.000258028
0.000941733
0.00166505
0.00233568
0.00296795
0.00357683
0.00416984
0.00476465
0.00535766
0.00594691
0.00652225
0.00707612
0.00760128
0.00808964
0.00852921
0.00890854
0.0092186
0.00945507
0.00962407
0.00974517
0.00981987
0.00985019
0.00984261
0.00980822
0.00975595
0.00969649
0.00963703
0.0095842
0.00953927
0.00950345
0.00947219
0.00945008
0.00942707
0.0093985
0.00936312
0.00931516
0.00925342
0.00917924
0.00909124
0.00899628
0.00889018
0.00878255
0.00867
0.00855897
0.00844675
)
;

boundaryField
{
    inlet
    {
        type            calculated;
        value           nonuniform List<scalar> 5(-0.01 -0.01 -0.01 -0.01 -0.01);
    }
    outlet
    {
        type            calculated;
        value           nonuniform List<scalar> 10(0.00825105 0.00702222 0.00519356 0.00348055 0.00149792 0.000657724 0.00300541 0.00532493 0.0072319 0.00833474);
    }
    upperWall
    {
        type            calculated;
        value           uniform 0;
    }
    lowerWall
    {
        type            calculated;
        value           uniform 0;
    }
    frontAndBack
    {
        type            empty;
        value           nonuniform List<scalar> 0();
    }
}


// ************************************************************************* //
