/*--------------------------------*- C++ -*----------------------------------*\
  =========                 |
  \\      /  F ield         | OpenFOAM: The Open Source CFD Toolbox
   \\    /   O peration     | Website:  https://openfoam.org
    \\  /    A nd           | Version:  10
     \\/     M anipulation  |
\*---------------------------------------------------------------------------*/
FoamFile
{
    format      ascii;
    class       volVectorField;
    location    "10";
    object      U;
}
// * * * * * * * * * * * * * * * * * * * * * * * * * * * * * * * * * * * * * //

dimensions      [0 1 -1 0 0 0 0];

internalField   nonuniform List<vector> 
475
(
(0.974638 0.0160411 0)
(0.975447 0.00652564 0)
(0.950577 0.0314327 0)
(0.953863 0.00145735 0)
(0.91999 0.0304062 0)
(0.998663 0.00872344 0)
(1.01386 0.0148139 0)
(1.02557 0.0153624 0)
(1.04354 0.00877571 0)
(1.05594 0.00259072 0)
(1.00008 0.000293701 0)
(1.00948 -0.00296094 0)
(1.0246 -0.00452005 0)
(1.0409 -0.0092453 0)
(1.05691 -0.0140213 0)
(0.999983 -0.0100367 0)
(1.01008 -0.0194454 0)
(1.02298 -0.021988 0)
(1.03531 -0.0229394 0)
(1.04499 -0.0254258 0)
(0.980751 -0.00970619 0)
(0.969136 -0.0190315 0)
(0.953768 -0.0218919 0)
(0.933442 -0.0221922 0)
(0.907963 -0.0229177 0)
(0.924199 -0.0154809 0)
(0.931135 -0.0350475 0)
(0.936586 -0.0482689 0)
(0.942684 -0.0577824 0)
(0.951466 -0.0668986 0)
(0.963009 -0.0761136 0)
(0.977677 -0.0874928 0)
(0.99447 -0.100596 0)
(1.01256 -0.116599 0)
(1.0308 -0.134521 0)
(1.04792 -0.154119 0)
(1.06257 -0.173733 0)
(1.07339 -0.192068 0)
(1.07919 -0.207394 0)
(1.07923 -0.218121 0)
(1.07293 -0.223312 0)
(1.06004 -0.222515 0)
(1.0407 -0.216867 0)
(1.0155 -0.207706 0)
(0.987038 -0.195193 0)
(0.957538 -0.179444 0)
(0.929848 -0.160644 0)
(0.90181 -0.139551 0)
(0.877322 -0.116606 0)
(0.851464 -0.0934617 0)
(0.832184 -0.0703014 0)
(0.812456 -0.048696 0)
(0.803119 -0.027567 0)
(0.793308 -0.00783491 0)
(0.793489 0.0116136 0)
(0.791684 0.0295233 0)
(0.798306 0.046238 0)
(0.801907 0.0616615 0)
(0.81191 0.0738248 0)
(0.816418 0.0840786 0)
(0.827224 0.0904111 0)
(0.829217 0.0931542 0)
(0.839001 0.093518 0)
(0.836925 0.0890728 0)
(0.844276 0.0844692 0)
(0.838442 0.0752969 0)
(0.842875 0.0678346 0)
(0.834072 0.0569849 0)
(0.835728 0.0513921 0)
(0.825091 0.0421922 0)
(1.06834 -0.00803605 0)
(1.07819 -0.0199206 0)
(1.08241 -0.0318676 0)
(1.08459 -0.0424488 0)
(1.08431 -0.0536117 0)
(1.08502 -0.0649247 0)
(1.08447 -0.0784157 0)
(1.08428 -0.0933405 0)
(1.08221 -0.110921 0)
(1.07883 -0.129676 0)
(1.07254 -0.149524 0)
(1.06291 -0.168446 0)
(1.04909 -0.185023 0)
(1.03025 -0.196578 0)
(1.00609 -0.201461 0)
(0.976181 -0.198861 0)
(0.940144 -0.191308 0)
(0.898046 -0.182152 0)
(0.850869 -0.171119 0)
(0.801722 -0.156137 0)
(0.754465 -0.137903 0)
(0.709506 -0.118172 0)
(0.66806 -0.0988252 0)
(0.631386 -0.0806939 0)
(0.597279 -0.0641305 0)
(0.569621 -0.0482219 0)
(0.545389 -0.0333125 0)
(0.53305 -0.0183976 0)
(0.524132 -0.00464962 0)
(0.526399 0.00964767 0)
(0.528562 0.0231296 0)
(0.541547 0.0373224 0)
(0.552514 0.049664 0)
(0.57085 0.0610472 0)
(0.586281 0.0701615 0)
(0.606438 0.0765125 0)
(0.621971 0.08026 0)
(0.64124 0.0811259 0)
(0.653367 0.0786891 0)
(0.669367 0.0753939 0)
(0.677364 0.068509 0)
(0.688761 0.0629594 0)
(0.693201 0.0546216 0)
(0.698873 0.04991 0)
(0.702189 0.0427838 0)
(1.06824 -0.0219678 0)
(1.07742 -0.0319974 0)
(1.08062 -0.0431471 0)
(1.08239 -0.0536531 0)
(1.07903 -0.064017 0)
(1.07578 -0.0742704 0)
(1.06804 -0.085788 0)
(1.06027 -0.0982561 0)
(1.04792 -0.112507 0)
(1.03395 -0.127777 0)
(1.01538 -0.143698 0)
(0.99296 -0.159095 0)
(0.966646 -0.170888 0)
(0.934493 -0.177709 0)
(0.896993 -0.173017 0)
(0.851022 -0.159024 0)
(0.794868 -0.142404 0)
(0.730337 -0.132003 0)
(0.662597 -0.124799 0)
(0.596795 -0.114834 0)
(0.530197 -0.0981537 0)
(0.46578 -0.0769393 0)
(0.407723 -0.054656 0)
(0.35894 -0.0357007 0)
(0.318964 -0.0224428 0)
(0.288276 -0.0136866 0)
(0.265888 -0.00805663 0)
(0.253518 -0.00349524 0)
(0.247696 0.0014594 0)
(0.250464 0.00876314 0)
(0.25555 0.0169369 0)
(0.268996 0.0260857 0)
(0.282365 0.0346554 0)
(0.303194 0.0435772 0)
(0.322852 0.0502534 0)
(0.346811 0.0566677 0)
(0.370133 0.0594372 0)
(0.393166 0.0613384 0)
(0.416603 0.0601725 0)
(0.436304 0.0583671 0)
(0.457831 0.0543634 0)
(0.472322 0.0508915 0)
(0.491689 0.0451828 0)
(0.499085 0.0426491 0)
(0.519313 0.0378735 0)
(1.0503 -0.0297083 0)
(1.05231 -0.0355546 0)
(1.04874 -0.0418021 0)
(1.04229 -0.0481955 0)
(1.02928 -0.054326 0)
(1.01436 -0.0607523 0)
(0.991974 -0.0678065 0)
(0.96812 -0.0756941 0)
(0.935148 -0.0849079 0)
(0.899854 -0.0947511 0)
(0.854243 -0.105761 0)
(0.804465 -0.115629 0)
(0.746427 -0.123961 0)
(0.679814 -0.12698 0)
(0.615941 -0.116865 0)
(0.541434 -0.0965552 0)
(0.450558 -0.0718103 0)
(0.338205 -0.0468177 0)
(0.229071 -0.0203254 0)
(0.145856 -0.00166943 0)
(0.0885672 0.00251823 0)
(0.0558638 0.000489282 0)
(0.0383844 -2.74044e-05 0)
(0.0287333 0.000162755 0)
(0.0235774 -0.000261207 0)
(0.0210532 -0.00116118 0)
(0.0200312 -0.00212036 0)
(0.0204422 -0.00229026 0)
(0.0222097 -0.00134298 0)
(0.0269125 0.00121319 0)
(0.0339155 0.0049176 0)
(0.0455558 0.00995529 0)
(0.0593902 0.0151675 0)
(0.078516 0.0206416 0)
(0.0989025 0.025331 0)
(0.123674 0.029469 0)
(0.149112 0.0317486 0)
(0.175903 0.0337968 0)
(0.204252 0.0336026 0)
(0.22853 0.0334344 0)
(0.257628 0.0311344 0)
(0.27628 0.02924 0)
(0.305301 0.0260311 0)
(0.315674 0.0244756 0)
(0.348005 0.0210328 0)
(0.880374 -0.0240275 0)
(0.849578 -0.0260779 0)
(0.81637 -0.0278454 0)
(0.778943 -0.0301544 0)
(0.737496 -0.0318713 0)
(0.691557 -0.0343922 0)
(0.640342 -0.0366297 0)
(0.585217 -0.0400698 0)
(0.522187 -0.0436662 0)
(0.455828 -0.0479009 0)
(0.376985 -0.0531719 0)
(0.29688 -0.0555789 0)
(0.20065 -0.0632624 0)
(0.0985685 -0.0463618 0)
(0.0238777 -0.00386058 0)
(-0.0232427 0.0335766 0)
(-0.0393339 0.0577699 0)
(-0.0353894 0.0627922 0)
(-0.0210826 0.0455593 0)
(-0.00765205 0.0153199 0)
(-0.00523791 -0.0105077 0)
(-0.0148689 -0.0213543 0)
(-0.0276202 -0.0211196 0)
(-0.03803 -0.0162898 0)
(-0.0457155 -0.0115888 0)
(-0.0515884 -0.00828958 0)
(-0.0565685 -0.00638009 0)
(-0.0610045 -0.00529646 0)
(-0.0646891 -0.0043983 0)
(-0.0668025 -0.00325958 0)
(-0.0667939 -0.00189347 0)
(-0.0637059 -0.000164204 0)
(-0.0575624 0.00155098 0)
(-0.0475809 0.00342217 0)
(-0.0346432 0.00502127 0)
(-0.0184071 0.00641615 0)
(-0.000181692 0.00736626 0)
(0.0199004 0.0079346 0)
(0.0405268 0.00796792 0)
(0.0605724 0.00764208 0)
(0.0809327 0.00691275 0)
(0.0978925 0.00622806 0)
(0.116815 0.00524436 0)
(0.127572 0.00483238 0)
(0.149728 0.00408663 0)
(0.00194403 -0.0219444 0)
(0.000702834 -0.0211854 0)
(-0.00743542 -0.0153462 0)
(-0.020613 -0.00394547 0)
(-0.0444663 0.00863951 0)
(-0.0775522 0.0175826 0)
(-0.115225 0.0222544 0)
(-0.154093 0.0237793 0)
(-0.190884 0.0230788 0)
(-0.222347 0.0205495 0)
(-0.245561 0.0166051 0)
(-0.258587 0.0116928 0)
(-0.260825 0.00592472 0)
(-0.252338 -0.000397345 0)
(-0.233311 -0.00649795 0)
(-0.204636 -0.0119328 0)
(-0.167629 -0.0164411 0)
(-0.124566 -0.0191573 0)
(-0.0777182 -0.0207342 0)
(-0.0287628 -0.0210799 0)
(0.0204737 -0.0204526 0)
(0.0683993 -0.0191295 0)
(0.112931 -0.0169564 0)
(0.152787 -0.0140608 0)
(0.186556 -0.0107147 0)
(0.213476 -0.007161 0)
(0.233095 -0.00341081 0)
(0.245028 0.000193579 0)
(0.249158 0.00347651 0)
(0.246252 0.00698351 0)
(0.236664 0.0098919 0)
(0.221596 0.0112912 0)
(0.202553 0.0110406 0)
(0.18163 0.00976418 0)
(0.160397 0.00812005 0)
(0.140446 0.00646825 0)
(0.122367 0.00486791 0)
(0.106911 0.00334839 0)
(0.093815 0.00210471 0)
(0.0835001 0.00114049 0)
(0.0755107 0.000548373 0)
(0.0701372 1.21329e-05 0)
(0.066915 -0.000400494 0)
(0.0651001 -0.000791617 0)
(0.0657878 -0.000910506 0)
(-0.00011494 0.0202773 0)
(-0.0149345 0.0327024 0)
(-0.0526638 0.0385245 0)
(-0.0851866 0.0444085 0)
(-0.116263 0.0508608 0)
(-0.141862 0.0541887 0)
(-0.162506 0.0540595 0)
(-0.177645 0.0502255 0)
(-0.186767 0.0429351 0)
(-0.188998 0.0326352 0)
(-0.182735 0.0190986 0)
(-0.167817 0.00401577 0)
(-0.143967 -0.0119663 0)
(-0.111725 -0.0282305 0)
(-0.0710653 -0.043507 0)
(-0.0236025 -0.0567906 0)
(0.0299967 -0.0670378 0)
(0.0880554 -0.0739939 0)
(0.147295 -0.0776539 0)
(0.206972 -0.0783951 0)
(0.264692 -0.0764256 0)
(0.320022 -0.0722681 0)
(0.371077 -0.0657926 0)
(0.417275 -0.0574672 0)
(0.457245 -0.0476728 0)
(0.490491 -0.0369009 0)
(0.51663 -0.025866 0)
(0.535788 -0.014628 0)
(0.547321 -0.0036909 0)
(0.552513 0.00661747 0)
(0.550342 0.0162936 0)
(0.541901 0.0245144 0)
(0.52736 0.0306617 0)
(0.507966 0.0339733 0)
(0.484439 0.0346565 0)
(0.458705 0.032825 0)
(0.431448 0.029645 0)
(0.405267 0.0256264 0)
(0.380407 0.0212863 0)
(0.359208 0.016882 0)
(0.340356 0.0125233 0)
(0.326126 0.00825269 0)
(0.31459 0.00483309 0)
(0.307337 0.00208341 0)
(0.30057 -0.000444537 0)
(-0.034532 -0.0121812 0)
(-0.0679097 0.0263341 0)
(-0.0791061 0.0438128 0)
(-0.0840205 0.0529209 0)
(-0.0809855 0.0570776 0)
(-0.0713593 0.056705 0)
(-0.0564661 0.0527876 0)
(-0.0366119 0.0449903 0)
(-0.0119107 0.0328114 0)
(0.0169445 0.0165574 0)
(0.0513364 -0.00322551 0)
(0.0916065 -0.0255874 0)
(0.137516 -0.0494293 0)
(0.18801 -0.072795 0)
(0.241848 -0.0941192 0)
(0.298454 -0.11243 0)
(0.355467 -0.125689 0)
(0.412561 -0.134453 0)
(0.467553 -0.138444 0)
(0.520457 -0.138207 0)
(0.569204 -0.133956 0)
(0.614813 -0.126066 0)
(0.655205 -0.114624 0)
(0.691127 -0.100385 0)
(0.720878 -0.0842211 0)
(0.745519 -0.0666899 0)
(0.763912 -0.0486253 0)
(0.777632 -0.0306487 0)
(0.785258 -0.012821 0)
(0.788819 0.00382212 0)
(0.786534 0.0192175 0)
(0.780179 0.0326752 0)
(0.767893 0.0437919 0)
(0.752798 0.0518765 0)
(0.732724 0.0564429 0)
(0.712041 0.058144 0)
(0.687531 0.0569383 0)
(0.6647 0.0529758 0)
(0.639229 0.0473799 0)
(0.618279 0.0401753 0)
(0.59532 0.0331335 0)
(0.579634 0.0255152 0)
(0.560099 0.0175109 0)
(0.551362 0.0124129 0)
(0.532528 0.00610783 0)
(-0.0299536 0.141611 0)
(-0.0272022 0.0904313 0)
(-0.0182176 0.0710112 0)
(0.00576622 0.0576343 0)
(0.0372882 0.046861 0)
(0.0763301 0.0370732 0)
(0.120591 0.0256484 0)
(0.168576 0.0115199 0)
(0.220042 -0.00602981 0)
(0.274004 -0.0278276 0)
(0.330644 -0.052771 0)
(0.388981 -0.0792289 0)
(0.447842 -0.105707 0)
(0.506726 -0.130845 0)
(0.564018 -0.152907 0)
(0.618958 -0.170456 0)
(0.669829 -0.18246 0)
(0.716624 -0.18876 0)
(0.757831 -0.189783 0)
(0.795019 -0.186116 0)
(0.826389 -0.177733 0)
(0.854718 -0.164927 0)
(0.877234 -0.148046 0)
(0.897027 -0.128114 0)
(0.910995 -0.106465 0)
(0.923018 -0.0836155 0)
(0.929832 -0.0608473 0)
(0.93581 -0.0379642 0)
(0.936979 -0.0160356 0)
(0.938053 0.00508085 0)
(0.934182 0.0244376 0)
(0.930089 0.0412483 0)
(0.920172 0.0557326 0)
(0.910722 0.0666662 0)
(0.895428 0.0746759 0)
(0.882095 0.0784138 0)
(0.862275 0.0790129 0)
(0.847122 0.0762487 0)
(0.824812 0.0702224 0)
(0.810639 0.0631379 0)
(0.787511 0.0532902 0)
(0.776671 0.0448008 0)
(0.753851 0.0342128 0)
(0.747793 0.028284 0)
(0.723221 0.0195724 0)
(0.0806897 0.00513865 0)
(0.119996 -0.00342625 0)
(0.202562 -0.00693617 0)
(0.266936 -0.0136155 0)
(0.32693 -0.0224763 0)
(0.385741 -0.0328953 0)
(0.445417 -0.0457104 0)
(0.504144 -0.0605295 0)
(0.563536 -0.078487 0)
(0.622146 -0.0990886 0)
(0.679772 -0.122115 0)
(0.735257 -0.145997 0)
(0.787184 -0.169197 0)
(0.834432 -0.190177 0)
(0.875797 -0.207167 0)
(0.910559 -0.218947 0)
(0.937819 -0.22479 0)
(0.957996 -0.224783 0)
(0.970911 -0.220202 0)
(0.979177 -0.211555 0)
(0.982157 -0.198884 0)
(0.983776 -0.181919 0)
(0.980657 -0.161245 0)
(0.978016 -0.137633 0)
(0.970953 -0.113002 0)
(0.966772 -0.0877135 0)
(0.959238 -0.0634683 0)
(0.956452 -0.0392765 0)
(0.950807 -0.0164345 0)
(0.950011 0.00587569 0)
(0.945669 0.0264566 0)
(0.945568 0.0445532 0)
(0.940821 0.0608848 0)
(0.940242 0.0734375 0)
(0.932875 0.0834507 0)
(0.930958 0.0890154 0)
(0.91976 0.090824 0)
(0.916369 0.0899169 0)
(0.901558 0.084439 0)
(0.897473 0.0783548 0)
(0.880188 0.0682731 0)
(0.876423 0.0598048 0)
(0.857127 0.0482533 0)
(0.855105 0.0419706 0)
(0.833487 0.032308 0)
)
;

boundaryField
{
    inlet
    {
        type            fixedValue;
        value           uniform (1 0 0);
    }
    outlet
    {
        type            zeroGradient;
    }
    upperWall
    {
        type            noSlip;
    }
    lowerWall
    {
        type            noSlip;
    }
    frontAndBack
    {
        type            empty;
    }
}


// ************************************************************************* //
