/*--------------------------------*- C++ -*----------------------------------*\
  =========                 |
  \\      /  F ield         | OpenFOAM: The Open Source CFD Toolbox
   \\    /   O peration     | Website:  https://openfoam.org
    \\  /    A nd           | Version:  10
     \\/     M anipulation  |
\*---------------------------------------------------------------------------*/
FoamFile
{
    format      ascii;
    class       volScalarField;
    location    "5.925";
    object      p;
}
// * * * * * * * * * * * * * * * * * * * * * * * * * * * * * * * * * * * * * //

dimensions      [0 2 -2 0 0 0 0];

internalField   nonuniform List<scalar> 
400
(
-2.94902e-09
-2.06892e-05
2.20192e-05
0.000105256
0.000235278
0.000413441
0.000641562
0.000921553
0.00125453
0.00164003
0.00207502
0.00255282
0.00306182
0.00358451
0.00409673
0.00456838
0.004965
0.00525196
0.00542068
0.00540717
2.17904e-05
4.15037e-07
4.71587e-05
0.000130271
0.000257585
0.000431208
0.000653457
0.000926632
0.00125221
0.0016302
0.00205812
0.00252985
0.00303425
0.00355514
0.00406854
0.00454418
0.00494654
0.0052401
0.00541785
0.00540101
-2.65472e-05
-5.45102e-05
-9.41387e-06
7.03615e-05
0.000193473
0.000362317
0.000579762
0.00084893
0.00117235
0.00155127
0.00198462
0.0024679
0.00299216
0.00354074
0.00408901
0.0046039
0.00504469
0.00536804
0.0055644
0.00553535
-0.000125928
-0.000158709
-0.000116338
-4.14523e-05
7.5537e-05
0.000237481
0.000448107
0.000711776
0.00103266
0.00141404
0.00185725
0.00236023
0.00291592
0.00351022
0.00411751
0.00470062
0.00520953
0.00558693
0.00581793
0.00577678
-0.000282109
-0.000319472
-0.000281216
-0.00021303
-0.000104338
4.82989e-05
0.000249693
0.0005058
0.000822968
0.00120734
0.00166373
0.00219397
0.00279448
0.00345426
0.00414772
0.00483298
0.00544815
0.00591338
0.00620171
0.00614444
-0.000494441
-0.000536907
-0.000504271
-0.000445029
-0.000347627
-0.000208006
-2.01407e-05
0.000223757
0.000532648
0.000916296
0.00138436
0.00194441
0.00259859
0.00334156
0.00415098
0.00498112
0.00575451
0.00635856
0.00674044
0.00665943
-0.000761251
-0.000809782
-0.000784472
-0.000737029
-0.000654991
-0.000533783
-0.000366221
-0.000142638
0.000148779
0.000522008
0.000992757
0.00157678
0.00228681
0.00312347
0.00407752
0.00510323
0.00610661
0.0069303
0.00746926
0.00735604
-0.00108058
-0.00113641
-0.00112034
-0.0010881
-0.00102653
-0.000930846
-0.00079303
-0.000601838
-0.000342767
2.49811e-06
0.000456392
0.00104509
0.00179533
0.00272687
0.00384184
0.00511534
0.00644438
0.00761753
0.0084343
0.00829162
-0.00144991
-0.0015144
-0.00150943
-0.00149605
-0.00146071
-0.001399
-0.00130281
-0.00116014
-0.00095468
-0.000664641
-0.000261384
0.000291816
0.0010392
0.00202945
0.00329095
0.00484685
0.00661561
0.0083501
0.00967531
0.00957863
-0.00186609
-0.00194061
-0.00194808
-0.0019568
-0.00195337
-0.0019346
-0.00189341
-0.00181856
-0.0016939
-0.00149645
-0.00119389
-0.000741602
-7.87776e-05
0.000869516
0.00218614
0.00397066
0.00624104
0.00884144
0.0110928
0.0113333
-0.00232567
-0.00241137
-0.00243125
-0.00246391
-0.00249683
-0.00252912
-0.00255622
-0.00256965
-0.00255646
-0.0024972
-0.00236303
-0.00211061
-0.00167518
-0.00096391
0.000148582
0.00177562
0.00432191
0.00802365
0.0119161
0.0132723
-0.00282574
-0.00292315
-0.00295258
-0.00300814
-0.00307893
-0.00316752
-0.00327357
-0.0033937
-0.00352187
-0.0036482
-0.00375733
-0.0038265
-0.00382224
-0.00369938
-0.00341451
-0.00284053
-0.00139007
0.00269572
0.00873926
0.0129138
-0.00336599
-0.00347486
-0.00350715
-0.00358013
-0.00368469
-0.00382871
-0.00401792
-0.00425616
-0.0045483
-0.00490141
-0.00532712
-0.00584719
-0.00650785
-0.00743035
-0.00892674
-0.0112667
-0.0134856
-0.0108182
-0.00351409
0.00555931
-0.00394626
-0.0040577
-0.00407373
-0.00415007
-0.0042797
-0.00447429
-0.00474328
-0.00509903
-0.0055593
-0.00615218
-0.0069264
-0.00797308
-0.00947464
-0.0117887
-0.0158007
-0.0222292
-0.0307499
-0.0308587
-0.0232382
-0.00849558
-0.00459977
-0.00472543
-0.00471023
-0.00477876
-0.00490757
-0.0051223
-0.00544114
-0.00588572
-0.00648644
-0.0072914
-0.00838383
-0.00991185
-0.0121955
-0.0157537
-0.0219562
-0.0315146
-0.0451648
-0.0482577
-0.0414164
-0.0226051
-0.00540647
-0.00533656
-0.00521187
-0.00519117
-0.00529983
-0.0055434
-0.00592592
-0.00646042
-0.00717713
-0.00813001
-0.00941821
-0.011207
-0.0139076
-0.0179257
-0.0250482
-0.0349129
-0.0497777
-0.0533192
-0.0475355
-0.0247691
-0.00590005
-0.00633528
-0.00606431
-0.00609638
-0.00611579
-0.00626678
-0.00656674
-0.00704631
-0.00774065
-0.00869651
-0.0100096
-0.0117961
-0.0145339
-0.0182826
-0.0249189
-0.0335228
-0.0446555
-0.0467566
-0.0395704
-0.00820461
-0.00926645
-0.00675867
-0.00616428
-0.00563189
-0.00560576
-0.00583793
-0.00627356
-0.0068765
-0.00766259
-0.00865495
-0.00996304
-0.0116149
-0.0140594
-0.0173622
-0.0224937
-0.0282553
-0.0346722
-0.0327607
-0.0199053
0.0278352
-0.00601417
-0.00901082
-0.00799922
-0.00806603
-0.00767603
-0.00749918
-0.00751594
-0.00776165
-0.00826751
-0.00902475
-0.0101221
-0.0115706
-0.013813
-0.0167213
-0.0215913
-0.0261936
-0.0304662
-0.0191255
0.00908984
0.0890383
-0.0311455
-0.00614767
-0.00472536
-0.00402627
-0.00387842
-0.00415488
-0.00475072
-0.00547518
-0.00638685
-0.00743663
-0.00886245
-0.0105185
-0.0129109
-0.0155246
-0.0184397
-0.0182775
-0.0116316
0.0203107
0.0904716
0.225641
)
;

boundaryField
{
    movingWall
    {
        type            zeroGradient;
    }
    fixedWalls
    {
        type            zeroGradient;
    }
    frontAndBack
    {
        type            empty;
    }
}


// ************************************************************************* //
