/*--------------------------------*- C++ -*----------------------------------*\
  =========                 |
  \\      /  F ield         | OpenFOAM: The Open Source CFD Toolbox
   \\    /   O peration     | Website:  https://openfoam.org
    \\  /    A nd           | Version:  10
     \\/     M anipulation  |
\*---------------------------------------------------------------------------*/
FoamFile
{
    format      ascii;
    class       volVectorField;
    location    "5.925";
    object      U;
}
// * * * * * * * * * * * * * * * * * * * * * * * * * * * * * * * * * * * * * //

dimensions      [0 1 -1 0 0 0 0];

internalField   nonuniform List<vector> 
400
(
(-0.000100697 9.27194e-05 0)
(-0.000856612 0.00032623 0)
(-0.00214153 0.000405123 0)
(-0.00341655 0.000421775 0)
(-0.00469686 0.000421905 0)
(-0.00594327 0.000417766 0)
(-0.0071346 0.00040859 0)
(-0.00824706 0.000390275 0)
(-0.00924757 0.000358014 0)
(-0.010093 0.000306676 0)
(-0.0107298 0.000231275 0)
(-0.0110954 0.00012789 0)
(-0.0111199 -6.90907e-06 0)
(-0.0107329 -0.000173161 0)
(-0.00987529 -0.000363869 0)
(-0.00851242 -0.000564012 0)
(-0.00666223 -0.000744535 0)
(-0.00446301 -0.000853791 0)
(-0.00198201 -0.000793983 0)
(-0.00032947 -0.000362318 0)
(-0.0003577 0.000866565 0)
(-0.00193354 0.00185689 0)
(-0.0043302 0.00217777 0)
(-0.00669798 0.0022255 0)
(-0.00904141 0.00218049 0)
(-0.0112843 0.00209384 0)
(-0.0133782 0.00196791 0)
(-0.0152754 0.00179166 0)
(-0.0169187 0.00155068 0)
(-0.0182393 0.00122941 0)
(-0.0191566 0.00081259 0)
(-0.0195816 0.000287104 0)
(-0.0194193 -0.00035284 0)
(-0.0185741 -0.00109603 0)
(-0.0169699 -0.0019117 0)
(-0.0145696 -0.00273824 0)
(-0.0114178 -0.00346349 0)
(-0.00772437 -0.00388612 0)
(-0.00360819 -0.00363769 0)
(-0.000716012 -0.00193543 0)
(-0.00046111 0.00224389 0)
(-0.00238451 0.00430311 0)
(-0.00524933 0.00494575 0)
(-0.00805941 0.00501287 0)
(-0.0108252 0.00487064 0)
(-0.0134593 0.00462407 0)
(-0.0159069 0.00428301 0)
(-0.0181151 0.00383085 0)
(-0.0200218 0.00324338 0)
(-0.0215533 0.0024936 0)
(-0.0226243 0.00155491 0)
(-0.0231366 0.000405463 0)
(-0.0229767 -0.000962314 0)
(-0.0220293 -0.00252961 0)
(-0.0201971 -0.00423513 0)
(-0.0174173 -0.00595522 0)
(-0.0137184 -0.00746325 0)
(-0.00933158 -0.00834747 0)
(-0.00438658 -0.00786183 0)
(-0.000879071 -0.00441023 0)
(-0.000493176 0.00368432 0)
(-0.00256375 0.00687246 0)
(-0.00564342 0.00783958 0)
(-0.00865442 0.00791664 0)
(-0.01162 0.00767083 0)
(-0.0144523 0.00726278 0)
(-0.0170994 0.0067094 0)
(-0.0195125 0.00598812 0)
(-0.0216321 0.00506395 0)
(-0.0233855 0.00389608 0)
(-0.0246839 0.00244268 0)
(-0.0254198 0.000668775 0)
(-0.0254627 -0.00144275 0)
(-0.0246605 -0.00387992 0)
(-0.0228616 -0.00656127 0)
(-0.019941 -0.00930533 0)
(-0.0158715 -0.0117583 0)
(-0.0108899 -0.0132492 0)
(-0.00513426 -0.0125637 0)
(-0.00101927 -0.00714139 0)
(-0.000504823 0.00519963 0)
(-0.00266754 0.00958895 0)
(-0.00589892 0.0108986 0)
(-0.00905812 0.0109899 0)
(-0.0121821 0.010646 0)
(-0.0151862 0.0100865 0)
(-0.018027 0.00933635 0)
(-0.0206643 0.00836697 0)
(-0.0230463 0.0071313 0)
(-0.0251055 0.00557108 0)
(-0.0267516 0.00362186 0)
(-0.0278648 0.00122252 0)
(-0.0282902 -0.00166983 0)
(-0.0278258 -0.00506406 0)
(-0.0262374 -0.00887842 0)
(-0.0232948 -0.0128817 0)
(-0.0188546 -0.0165714 0)
(-0.0131196 -0.0189373 0)
(-0.0062358 -0.0181284 0)
(-0.00123326 -0.0103775 0)
(-0.000514566 0.00676819 0)
(-0.00276887 0.0124304 0)
(-0.00615697 0.0141056 0)
(-0.00947319 0.0142215 0)
(-0.0127688 0.0137931 0)
(-0.0159646 0.0131045 0)
(-0.0190294 0.0121903 0)
(-0.0219364 0.0110163 0)
(-0.0246478 0.00952228 0)
(-0.0271078 0.00762848 0)
(-0.0292311 0.00523893 0)
(-0.0308907 0.00225074 0)
(-0.0319072 -0.00142965 0)
(-0.0320168 -0.00586722 0)
(-0.0308707 -0.0110148 0)
(-0.0280745 -0.0166165 0)
(-0.0232802 -0.0220022 0)
(-0.0165601 -0.0257125 0)
(-0.00802204 -0.0249696 0)
(-0.00160747 -0.0143989 0)
(-0.000526637 0.00839376 0)
(-0.00288715 0.0154074 0)
(-0.00645486 0.017474 0)
(-0.00994888 0.0176265 0)
(-0.0134366 0.0171305 0)
(-0.0168463 0.0163415 0)
(-0.0201629 0.0153069 0)
(-0.0233794 0.0139888 0)
(-0.0264799 0.0123141 0)
(-0.0294314 0.0101784 0)
(-0.0321673 0.0074454 0)
(-0.0345662 0.00394961 0)
(-0.0364392 -0.000488555 0)
(-0.0374608 -0.00601259 0)
(-0.0371411 -0.0127036 0)
(-0.0348518 -0.0203449 0)
(-0.0299057 -0.0281164 0)
(-0.0220277 -0.0339802 0)
(-0.011112 -0.0337641 0)
(-0.00232681 -0.0197382 0)
(-0.000541349 0.0100878 0)
(-0.00302592 0.0185425 0)
(-0.0067986 0.0210273 0)
(-0.0104881 0.0212251 0)
(-0.0141807 0.0206767 0)
(-0.0178142 0.0198174 0)
(-0.0213938 0.0187126 0)
(-0.0249392 0.0173256 0)
(-0.0284675 0.0155738 0)
(-0.0319848 0.0133297 0)
(-0.0354672 0.0104121 0)
(-0.0388315 0.00657769 0)
(-0.0418826 0.00152846 0)
(-0.0442864 -0.00504183 0)
(-0.0454393 -0.0134447 0)
(-0.0443969 -0.0236314 0)
(-0.0399688 -0.0347599 0)
(-0.0311284 -0.0441559 0)
(-0.016999 -0.0456009 0)
(-0.00388432 -0.027491 0)
(-0.000559401 0.0118623 0)
(-0.00318827 0.0218592 0)
(-0.00719102 0.0247851 0)
(-0.0110867 0.0250292 0)
(-0.0149841 0.0244359 0)
(-0.0188317 0.0235322 0)
(-0.0226596 0.0224093 0)
(-0.0265213 0.0210396 0)
(-0.0304788 0.0193403 0)
(-0.0345963 0.0171692 0)
(-0.038923 0.0143049 0)
(-0.0434566 0.0104218 0)
(-0.0480828 0.00506789 0)
(-0.0525405 -0.00233946 0)
(-0.0561751 -0.0123651 0)
(-0.057793 -0.0254661 0)
(-0.0555962 -0.0411144 0)
(-0.0470966 -0.0563088 0)
(-0.0291696 -0.0622044 0)
(-0.00752658 -0.0400676 0)
(-0.000583845 0.0137329 0)
(-0.00338366 0.0253831 0)
(-0.00764348 0.0287631 0)
(-0.0117481 0.0290391 0)
(-0.0158347 0.0283943 0)
(-0.0198627 0.027461 0)
(-0.0238904 0.0263655 0)
(-0.0280106 0.0251015 0)
(-0.0323407 0.0236021 0)
(-0.0370239 0.0217313 0)
(-0.042221 0.0192516 0)
(-0.0480857 0.0157748 0)
(-0.0547058 0.0106972 0)
(-0.0619691 0.00315273 0)
(-0.0695244 -0.00789871 0)
(-0.0763606 -0.0236198 0)
(-0.0800432 -0.04473 0)
(-0.0752356 -0.0693113 0)
(-0.0533204 -0.0863535 0)
(-0.0153015 -0.0625977 0)
(-0.000622145 0.0157248 0)
(-0.00363388 0.0291476 0)
(-0.0081847 0.032975 0)
(-0.0124939 0.0332436 0)
(-0.0167365 0.0325173 0)
(-0.020884 0.0315476 0)
(-0.0250231 0.0305072 0)
(-0.0292872 0.0294247 0)
(-0.0338521 0.028271 0)
(-0.0389516 0.0269507 0)
(-0.0448906 0.0252612 0)
(-0.0520488 0.0228221 0)
(-0.0608569 0.0189678 0)
(-0.0717415 0.012631 0)
(-0.0850864 0.00224257 0)
(-0.100889 -0.0143808 0)
(-0.116047 -0.0408717 0)
(-0.11881 -0.0808118 0)
(-0.0903131 -0.12286 0)
(-0.026895 -0.104998 0)
(-0.000689922 0.0178834 0)
(-0.00398188 0.0332055 0)
(-0.00887173 0.0374414 0)
(-0.0133737 0.0376263 0)
(-0.017721 0.0367515 0)
(-0.0218975 0.0357042 0)
(-0.0260177 0.0347127 0)
(-0.0302497 0.0338539 0)
(-0.0348184 0.0331624 0)
(-0.0400405 0.0326305 0)
(-0.0463698 0.0321712 0)
(-0.0544618 0.0315465 0)
(-0.0652495 0.0302495 0)
(-0.0800236 0.0273598 0)
(-0.100571 0.0211858 0)
(-0.128233 0.00742966 0)
(-0.157296 -0.0248482 0)
(-0.164225 -0.0926791 0)
(-0.123898 -0.179962 0)
(-0.03811 -0.176281 0)
(-0.000816937 0.0202754 0)
(-0.00450136 0.0375847 0)
(-0.0098011 0.0421051 0)
(-0.0144799 0.0420743 0)
(-0.0188629 0.0409605 0)
(-0.0229483 0.0397747 0)
(-0.026878 0.038788 0)
(-0.0308406 0.0381352 0)
(-0.035079 0.0379374 0)
(-0.0399491 0.0383195 0)
(-0.0460001 0.0394034 0)
(-0.0541023 0.0412783 0)
(-0.0656221 0.0439418 0)
(-0.0826671 0.0470657 0)
(-0.108356 0.0487657 0)
(-0.143996 0.0398507 0)
(-0.178285 -0.00350601 0)
(-0.177923 -0.115319 0)
(-0.134668 -0.255951 0)
(-0.047468 -0.272618 0)
(-0.00108304 0.0231508 0)
(-0.00538696 0.0427325 0)
(-0.0111688 0.0474748 0)
(-0.0159397 0.0470784 0)
(-0.0202361 0.045484 0)
(-0.024095 0.0439073 0)
(-0.0276611 0.042705 0)
(-0.0311035 0.0420818 0)
(-0.0346392 0.0422518 0)
(-0.038587 0.0435028 0)
(-0.0434561 0.0462479 0)
(-0.0500948 0.0510625 0)
(-0.0598961 0.0586866 0)
(-0.0748113 0.0692113 0)
(-0.0976483 0.0791781 0)
(-0.127544 0.0717983 0)
(-0.155061 0.012663 0)
(-0.147214 -0.138029 0)
(-0.125013 -0.317861 0)
(-0.0482797 -0.374863 0)
(-0.00146053 0.0266817 0)
(-0.00642173 0.0474443 0)
(-0.0129513 0.0516221 0)
(-0.0179609 0.0503456 0)
(-0.0222359 0.0482955 0)
(-0.0257409 0.0465575 0)
(-0.0287001 0.0453559 0)
(-0.0312892 0.0448372 0)
(-0.0336511 0.0452507 0)
(-0.0359467 0.0470124 0)
(-0.0384406 0.0508061 0)
(-0.041568 0.057647 0)
(-0.0461847 0.0688306 0)
(-0.0530208 0.0841408 0)
(-0.0636644 0.098576 0)
(-0.0756702 0.0894309 0)
(-0.0911865 0.0215511 0)
(-0.0828125 -0.144036 0)
(-0.0958366 -0.349442 0)
(-0.0314693 -0.461636 0)
(-0.00352468 0.0299256 0)
(-0.0107607 0.0560365 0)
(-0.0167238 0.0601299 0)
(-0.0209816 0.0583703 0)
(-0.0243201 0.0549679 0)
(-0.0271025 0.0518873 0)
(-0.0293919 0.0495121 0)
(-0.0311708 0.0480485 0)
(-0.032365 0.0477412 0)
(-0.0328529 0.0489962 0)
(-0.0324774 0.0525682 0)
(-0.0309652 0.0595671 0)
(-0.0284733 0.0715702 0)
(-0.0236419 0.087658 0)
(-0.0186606 0.103341 0)
(-0.0079661 0.0939466 0)
(-0.0102234 0.0277589 0)
(-0.00374268 -0.129287 0)
(-0.0511666 -0.351248 0)
(-0.00853306 -0.510349 0)
(-0.00118079 0.0439197 0)
(-0.00872226 0.0585202 0)
(-0.0196756 0.0590707 0)
(-0.024364 0.0545723 0)
(-0.0284882 0.0513266 0)
(-0.0308464 0.048966 0)
(-0.0321683 0.047279 0)
(-0.0325137 0.0461507 0)
(-0.0318313 0.0457567 0)
(-0.0298458 0.0463987 0)
(-0.0261141 0.0487953 0)
(-0.0195715 0.0536672 0)
(-0.0100578 0.062504 0)
(0.00605526 0.0744299 0)
(0.0246463 0.0859925 0)
(0.0540456 0.0786224 0)
(0.0601779 0.0235298 0)
(0.0660254 -0.101008 0)
(-0.0049016 -0.325536 0)
(0.0173911 -0.5219 0)
(-0.0123868 0.0329283 0)
(-0.0243905 0.0798962 0)
(-0.0240832 0.0787107 0)
(-0.0305144 0.0735321 0)
(-0.032687 0.0662571 0)
(-0.0331301 0.0600695 0)
(-0.0317476 0.0549386 0)
(-0.0288733 0.0508169 0)
(-0.02462 0.0476973 0)
(-0.0187301 0.0454295 0)
(-0.0112396 0.0444262 0)
(-0.000687322 0.0448812 0)
(0.012565 0.0481292 0)
(0.03296 0.053286 0)
(0.0542584 0.059772 0)
(0.0900658 0.0551595 0)
(0.0981458 0.0209019 0)
(0.12543 -0.0656709 0)
(0.0559692 -0.289362 0)
(0.0597368 -0.506219 0)
(-0.0771795 0.0968136 0)
(-0.0629112 0.0595151 0)
(-0.0653041 0.059944 0)
(-0.0440334 0.0532727 0)
(-0.0270041 0.0463777 0)
(-0.00732673 0.0412155 0)
(0.0112261 0.0374852 0)
(0.0298777 0.034267 0)
(0.0469938 0.0318644 0)
(0.0651741 0.0295751 0)
(0.0808007 0.0281742 0)
(0.100348 0.0270594 0)
(0.114607 0.0269535 0)
(0.141941 0.0275786 0)
(0.153395 0.0249456 0)
(0.201256 0.0191811 0)
(0.196648 -0.014753 0)
(0.239848 -0.0800935 0)
(0.166664 -0.263767 0)
(0.127803 -0.442852 0)
(0.119785 0.14071 0)
(0.152451 0.086152 0)
(0.229451 0.0635755 0)
(0.284786 0.0481522 0)
(0.326083 0.0374722 0)
(0.364452 0.0296886 0)
(0.39295 0.0242762 0)
(0.424495 0.0202646 0)
(0.444126 0.0173667 0)
(0.472907 0.0152114 0)
(0.485654 0.0134355 0)
(0.515122 0.0124395 0)
(0.52071 0.0113034 0)
(0.554637 0.0109294 0)
(0.549907 0.00953317 0)
(0.587075 0.00576398 0)
(0.558524 -0.00356603 0)
(0.568375 -0.0271795 0)
(0.430684 -0.0726824 0)
(0.276592 -0.152013 0)
)
;

boundaryField
{
    movingWall
    {
        type            fixedValue;
        value           uniform (1 0 0);
    }
    fixedWalls
    {
        type            noSlip;
    }
    frontAndBack
    {
        type            empty;
    }
}


// ************************************************************************* //
