/*--------------------------------*- C++ -*----------------------------------*\
  =========                 |
  \\      /  F ield         | OpenFOAM: The Open Source CFD Toolbox
   \\    /   O peration     | Website:  https://openfoam.org
    \\  /    A nd           | Version:  10
     \\/     M anipulation  |
\*---------------------------------------------------------------------------*/
FoamFile
{
    format      ascii;
    class       volScalarField;
    location    "4.5";
    object      p;
}
// * * * * * * * * * * * * * * * * * * * * * * * * * * * * * * * * * * * * * //

dimensions      [0 2 -2 0 0 0 0];

internalField   nonuniform List<scalar> 
400
(
-8.30326e-09
-2.72847e-05
-1.59513e-06
5.30762e-05
0.000142956
0.000268762
0.000431292
0.000631201
0.000868335
0.00114117
0.00144627
0.00177766
0.00212616
0.00247919
0.00282059
0.00313134
0.00339037
0.00357708
0.00368734
0.00367187
2.7769e-05
-4.20668e-07
2.7389e-05
8.05459e-05
0.000166786
0.000287481
0.00044387
0.000636988
0.000867058
0.00113298
0.00143173
0.00175741
0.0021022
0.00245336
0.00279487
0.00310755
0.00336974
0.00356057
0.00367706
0.00366024
-1.89765e-06
-3.55626e-05
-9.39203e-06
4.08669e-05
0.000123748
0.000240875
0.000393924
0.000584544
0.000813687
0.00108104
0.00138441
0.00171941
0.0020779
0.00244745
0.00281132
0.00314867
0.00343486
0.00364487
0.00377435
0.00375213
-6.71386e-05
-0.000105175
-8.13769e-05
-3.50646e-05
4.32313e-05
0.000155543
0.00030425
0.000491946
0.000720725
0.000991608
0.00130378
0.00165375
0.00203545
0.00243643
0.00283904
0.00321946
0.003548
0.00379265
0.00394602
0.00392156
-0.000173691
-0.000216306
-0.00019576
-0.000154507
-8.20192e-05
2.42645e-05
0.000167637
0.000351947
0.000580854
0.000857264
0.00118249
0.00155498
0.00197023
0.00241696
0.00287682
0.0033226
0.0037175
0.00401786
0.00421019
0.00418629
-0.000321426
-0.000369462
-0.00035319
-0.000318511
-0.000253734
-0.000155692
-2.00089e-05
0.000158695
0.000386091
0.000667603
0.00100756
0.00140825
0.00186533
0.00237287
0.00291172
0.00345079
0.00394409
0.00433051
0.00458451
0.00456648
-0.000509994
-0.000564601
-0.000553834
-0.000527798
-0.000473542
-0.000387285
-0.000263461
-9.4938e-05
0.000126358
0.000409019
0.000761318
0.00118961
0.0016966
0.00227927
0.00292105
0.00358816
0.00422371
0.00474237
0.00509423
0.00509568
-0.00073927
-0.000801821
-0.000798019
-0.000783252
-0.000743273
-0.000673795
-0.000568086
-0.000417169
-0.000210288
6.49271e-05
0.000421872
0.000873496
0.00143028
0.00209821
0.00286703
0.00370393
0.00454136
0.00526385
0.00577361
0.00583008
-0.0010091
-0.0010811
-0.0010858
-0.00108534
-0.00106423
-0.00101796
-0.000938844
-0.000816209
-0.000636588
-0.000383467
-3.73143e-05
0.000423324
0.00101849
0.00177251
0.00268681
0.00373884
0.00485636
0.00589199
0.00666488
0.00686729
-0.0013193
-0.00140227
-0.00141676
-0.00143369
-0.00143654
-0.00142107
-0.00137913
-0.00129883
-0.00116447
-0.000955624
-0.000646263
-0.000204081
0.000409268
0.00122097
0.00227844
0.00358137
0.00507206
0.00658416
0.00781458
0.00838284
-0.00166989
-0.00176518
-0.0017899
-0.00182672
-0.00185848
-0.0018819
-0.0018892
-0.00186824
-0.00180225
-0.00166837
-0.00143575
-0.00106337
-0.000499739
0.000311411
0.00147403
0.00302354
0.00496931
0.00718553
0.00922394
0.0106831
-0.00206188
-0.00217027
-0.00220368
-0.00226129
-0.00232564
-0.00239543
-0.00246426
-0.00252114
-0.00255023
-0.00252906
-0.00242555
-0.00219317
-0.00176349
-0.0010378
6.07909e-05
0.00172798
0.00407386
0.00720009
0.0106017
0.0139084
-0.00249879
-0.00261975
-0.00265667
-0.00273262
-0.00283028
-0.00295155
-0.00309259
-0.00324493
-0.00339626
-0.00352895
-0.00361703
-0.00362114
-0.00347984
-0.00309812
-0.00234591
-0.00103994
0.0012332
0.00514175
0.0104543
0.0168682
-0.00298753
-0.00311313
-0.00313905
-0.00322549
-0.00335523
-0.00353202
-0.00375351
-0.0040151
-0.00431103
-0.00463342
-0.00497103
-0.00530722
-0.00561806
-0.00586918
-0.0060363
-0.00606589
-0.00548765
-0.00271251
0.00329596
0.013888
-0.00355967
-0.00370181
-0.00370496
-0.00379647
-0.00394044
-0.00415296
-0.00444052
-0.00480641
-0.00525375
-0.00578847
-0.00642377
-0.00718375
-0.00811977
-0.0093392
-0.0111298
-0.0139233
-0.0179572
-0.0186289
-0.0131796
0.00250252
-0.00429282
-0.00423123
-0.00414011
-0.00416386
-0.00431938
-0.00459918
-0.00499351
-0.00549657
-0.00611354
-0.00686098
-0.00777785
-0.00894118
-0.0105139
-0.012758
-0.0164332
-0.0224793
-0.0325093
-0.0383655
-0.034562
-0.0120311
-0.00476656
-0.00520535
-0.00498918
-0.00509139
-0.00520035
-0.00543583
-0.00580808
-0.00633014
-0.00701461
-0.00788283
-0.00898818
-0.0104261
-0.0124683
-0.0153954
-0.020561
-0.0282527
-0.0424557
-0.0517057
-0.0487011
-0.0131976
-0.0080509
-0.00552879
-0.00502124
-0.00461595
-0.00472433
-0.00510205
-0.00568408
-0.006415
-0.00729752
-0.00833241
-0.00959771
-0.0111332
-0.0133521
-0.0163022
-0.0217133
-0.0295482
-0.0421889
-0.0485539
-0.03955
0.0140944
-0.00485397
-0.00775754
-0.00686249
-0.00706018
-0.00687018
-0.00690908
-0.00715111
-0.00762432
-0.00832304
-0.0092125
-0.0103685
-0.0117232
-0.0138057
-0.0164944
-0.0215968
-0.0281979
-0.0369395
-0.0335389
-0.00707142
0.0787579
-0.0296536
-0.00469929
-0.00349666
-0.00294442
-0.00298053
-0.00349423
-0.00435724
-0.00531484
-0.00647504
-0.00766396
-0.009183
-0.0108521
-0.0131452
-0.0159701
-0.0194464
-0.021368
-0.0184753
0.00891146
0.0774304
0.216724
)
;

boundaryField
{
    movingWall
    {
        type            zeroGradient;
    }
    fixedWalls
    {
        type            zeroGradient;
    }
    frontAndBack
    {
        type            empty;
    }
}


// ************************************************************************* //
