/*--------------------------------*- C++ -*----------------------------------*\
  =========                 |
  \\      /  F ield         | OpenFOAM: The Open Source CFD Toolbox
   \\    /   O peration     | Website:  https://openfoam.org
    \\  /    A nd           | Version:  10
     \\/     M anipulation  |
\*---------------------------------------------------------------------------*/
FoamFile
{
    format      ascii;
    class       volVectorField;
    location    "1.125";
    object      U;
}
// * * * * * * * * * * * * * * * * * * * * * * * * * * * * * * * * * * * * * //

dimensions      [0 1 -1 0 0 0 0];

internalField   nonuniform List<vector> 
400
(
(-0.000311175 0.000306471 0)
(-0.00104655 0.000376282 0)
(-0.0018617 0.000364299 0)
(-0.0026149 0.000337901 0)
(-0.00330193 0.000302958 0)
(-0.00390582 0.000260665 0)
(-0.00441189 0.000212097 0)
(-0.00480804 0.000158389 0)
(-0.00508465 0.000100712 0)
(-0.00523467 4.02639e-05 0)
(-0.00525359 -2.17165e-05 0)
(-0.00513957 -8.39569e-05 0)
(-0.0048936 -0.000145052 0)
(-0.00451969 -0.00020351 0)
(-0.00402513 -0.000257732 0)
(-0.00342069 -0.00030604 0)
(-0.00272091 -0.000346745 0)
(-0.00194397 -0.000377996 0)
(-0.00109669 -0.000393078 0)
(-0.000327341 -0.000322113 0)
(-0.000396957 0.00105199 0)
(-0.00132068 0.00127645 0)
(-0.00233386 0.00123497 0)
(-0.00327067 0.00114491 0)
(-0.00412441 0.0010257 0)
(-0.0048739 0.00088161 0)
(-0.00550106 0.000716441 0)
(-0.00599115 0.000534122 0)
(-0.00633258 0.000338653 0)
(-0.0065169 0.000134067 0)
(-0.00653882 -7.55572e-05 0)
(-0.00639621 -0.000285794 0)
(-0.00609033 -0.000492104 0)
(-0.00562612 -0.000689527 0)
(-0.00501246 -0.000872712 0)
(-0.0042625 -0.00103601 0)
(-0.00339409 -0.00117368 0)
(-0.00242972 -0.00127929 0)
(-0.00137917 -0.00133066 0)
(-0.000415834 -0.00110247 0)
(-0.00042079 0.00193453 0)
(-0.00140013 0.00233103 0)
(-0.00247363 0.00225386 0)
(-0.00346491 0.00208854 0)
(-0.00436742 0.00186995 0)
(-0.00515902 0.0016062 0)
(-0.00582105 0.00130441 0)
(-0.00633844 0.000971858 0)
(-0.00669946 0.000615811 0)
(-0.00689556 0.000243524 0)
(-0.00692111 -0.000137695 0)
(-0.00677371 -0.000520127 0)
(-0.00645437 -0.000895645 0)
(-0.00596752 -0.00125539 0)
(-0.0053217 -0.00158969 0)
(-0.00452996 -0.00188825 0)
(-0.00361055 -0.00214039 0)
(-0.00258699 -0.00233409 0)
(-0.00146936 -0.00242935 0)
(-0.000443116 -0.0020262 0)
(-0.000450148 0.00285116 0)
(-0.00149808 0.00342808 0)
(-0.00264621 0.00331264 0)
(-0.00370478 0.003068 0)
(-0.00466712 0.00274535 0)
(-0.00551009 0.00235698 0)
(-0.00621454 0.00191363 0)
(-0.00676533 0.00142603 0)
(-0.00715074 0.000904721 0)
(-0.00736223 0.000360053 0)
(-0.007394 -0.00019763 0)
(-0.00724315 -0.000757705 0)
(-0.00690986 -0.00130859 0)
(-0.00639766 -0.00183762 0)
(-0.00571415 -0.00233076 0)
(-0.00487176 -0.00277269 0)
(-0.00388879 -0.00314729 0)
(-0.00278991 -0.00343613 0)
(-0.00158602 -0.00357988 0)
(-0.000478474 -0.00299286 0)
(-0.000491322 0.00384074 0)
(-0.00163485 0.00461244 0)
(-0.00288638 0.00445407 0)
(-0.00403775 0.00412202 0)
(-0.00508204 0.00368568 0)
(-0.00599481 0.00316233 0)
(-0.00675653 0.00256686 0)
(-0.00735222 0.00191377 0)
(-0.00777051 0.00121692 0)
(-0.00800307 0.000489548 0)
(-0.00804397 -0.000255387 0)
(-0.0078896 -0.00100458 0)
(-0.00753893 -0.00174345 0)
(-0.00699394 -0.0024557 0)
(-0.00626053 -0.00312275 0)
(-0.00534982 -0.00372376 0)
(-0.00427973 -0.00423604 0)
(-0.00307618 -0.00463326 0)
(-0.00175136 -0.00483376 0)
(-0.000528833 -0.00404773 0)
(-0.00054616 0.004931 0)
(-0.00181649 0.00591636 0)
(-0.00320432 0.00570804 0)
(-0.00447693 0.00527684 0)
(-0.00562713 0.00471306 0)
(-0.00662912 0.00404021 0)
(-0.00746333 0.00327818 0)
(-0.00811549 0.00244569 0)
(-0.0085752 0.00155991 0)
(-0.00883477 0.000636613 0)
(-0.00888836 -0.000309173 0)
(-0.00873143 -0.00126223 0)
(-0.00836118 -0.00220558 0)
(-0.00777716 -0.00311969 0)
(-0.00698239 -0.00398139 0)
(-0.00598539 -0.00476358 0)
(-0.00480275 -0.00543559 0)
(-0.00346138 -0.00596078 0)
(-0.00197501 -0.00623063 0)
(-0.000597233 -0.00522579 0)
(-0.000617008 0.00615236 0)
(-0.00205046 0.00737518 0)
(-0.00361211 0.00710651 0)
(-0.00503734 0.00655956 0)
(-0.00631887 0.00584944 0)
(-0.0074297 0.00500775 0)
(-0.00835107 0.00406061 0)
(-0.00907052 0.00303148 0)
(-0.00957961 0.00194076 0)
(-0.00987216 0.000806202 0)
(-0.00994283 -0.000356084 0)
(-0.00978602 -0.00153019 0)
(-0.00939639 -0.00269784 0)
(-0.00876976 -0.00383707 0)
(-0.00790445 -0.00492038 0)
(-0.0068043 -0.00591367 0)
(-0.00548255 -0.00677629 0)
(-0.00396613 -0.00745787 0)
(-0.00227015 -0.00781619 0)
(-0.000687973 -0.0065679 0)
(-0.000707343 0.00754122 0)
(-0.00234752 0.00903052 0)
(-0.00412683 0.00868606 0)
(-0.00573966 0.00799994 0)
(-0.00717918 0.00711766 0)
(-0.00841796 0.00608174 0)
(-0.00943962 0.00492618 0)
(-0.0102354 0.00367983 0)
(-0.0108005 0.00236608 0)
(-0.0111316 0.00100366 0)
(-0.0112248 -0.000391762 0)
(-0.0110732 -0.00180546 0)
(-0.0106681 -0.00321984 0)
(-0.0099997 -0.00461203 0)
(-0.009059 -0.00595097 0)
(-0.00784167 -0.00719509 0)
(-0.00635406 -0.00829132 0)
(-0.00462056 -0.00917054 0)
(-0.0026567 -0.00964672 0)
(-0.000807714 -0.00812566 0)
(-0.00082244 0.00914238 0)
(-0.00272358 0.0109325 0)
(-0.00477292 0.0104889 0)
(-0.00661257 0.0096302 0)
(-0.00823736 0.0085405 0)
(-0.00962122 0.00727718 0)
(-0.010753 0.00588443 0)
(-0.0116306 0.00439715 0)
(-0.0122558 0.00284113 0)
(-0.01263 0.00123443 0)
(-0.012752 -0.000409964 0)
(-0.0126141 -0.00208136 0)
(-0.012203 -0.00376596 0)
(-0.0115009 -0.00544284 0)
(-0.0104875 -0.00707922 0)
(-0.0091451 -0.00862626 0)
(-0.00746689 -0.0100159 0)
(-0.00546932 -0.0111532 0)
(-0.00316546 -0.0117932 0)
(-0.000967131 -0.00996691 0)
(-0.000970588 0.0110133 0)
(-0.00320271 0.0131432 0)
(-0.00558594 0.0125643 0)
(-0.00769616 0.0114849 0)
(-0.00953256 0.0101392 0)
(-0.0110741 0.00860523 0)
(-0.0123197 0.0069402 0)
(-0.0132787 0.00518562 0)
(-0.0139632 0.0033684 0)
(-0.0143827 0.0015035 0)
(-0.0145406 -0.000402179 0)
(-0.0144292 -0.00234602 0)
(-0.0140296 -0.00432262 0)
(-0.013313 -0.00631792 0)
(-0.0122424 -0.00830148 0)
(-0.0107789 -0.0102189 0)
(-0.00889211 -0.011985 0)
(-0.00657982 -0.0134707 0)
(-0.00384557 -0.014348 0)
(-0.00118415 -0.0121853 0)
(-0.00116545 0.0132312 0)
(-0.00382251 0.0157417 0)
(-0.00661861 0.0149708 0)
(-0.00904728 0.0135997 0)
(-0.0111174 0.0119305 0)
(-0.0128203 0.0100695 0)
(-0.0141727 0.00808992 0)
(-0.0152025 0.00603993 0)
(-0.015938 0.0039454 0)
(-0.0164006 0.00181429 0)
(-0.0166015 -0.000357417 0)
(-0.0165346 -0.00258073 0)
(-0.0161749 -0.00486498 0)
(-0.0154798 -0.00721043 0)
(-0.0143885 -0.00959697 0)
(-0.0128293 -0.0119705 0)
(-0.0107325 -0.0142287 0)
(-0.00805591 -0.0161989 0)
(-0.00477879 -0.0174337 0)
(-0.0014907 -0.0149173 0)
(-0.00143082 0.0159051 0)
(-0.00464393 0.0188315 0)
(-0.00795078 0.0177775 0)
(-0.0107476 0.0160087 0)
(-0.0130633 0.0139216 0)
(-0.0149148 0.0116599 0)
(-0.0163493 0.00931589 0)
(-0.0174233 0.00694301 0)
(-0.0181889 0.00456157 0)
(-0.0186856 0.0021669 0)
(-0.0189356 -0.000262267 0)
(-0.0189368 -0.00275819 0)
(-0.0186593 -0.00535279 0)
(-0.018045 -0.00807142 0)
(-0.0170025 -0.0109171 0)
(-0.0154115 -0.0138501 0)
(-0.0131378 -0.0167598 0)
(-0.0100611 -0.019423 0)
(-0.00610729 -0.0212162 0)
(-0.00194748 -0.0183741 0)
(-0.00181062 0.0191993 0)
(-0.00576975 0.0225508 0)
(-0.00970563 0.0210652 0)
(-0.0129162 0.0187379 0)
(-0.015467 0.0161004 0)
(-0.0174261 0.0133434 0)
(-0.0188896 0.0105796 0)
(-0.0199569 0.00786095 0)
(-0.0207141 0.00519459 0)
(-0.0212246 0.00255543 0)
(-0.0215267 -0.000103906 0)
(-0.0216252 -0.00284103 0)
(-0.0214882 -0.00572516 0)
(-0.0210441 -0.00881994 0)
(-0.0201672 -0.0121704 0)
(-0.0186732 -0.0157764 0)
(-0.0163274 -0.019548 0)
(-0.0128574 -0.0232273 0)
(-0.00808984 -0.0259151 0)
(-0.00267727 -0.0229064 0)
(-0.00239141 0.0233538 0)
(-0.00738164 0.0270766 0)
(-0.0120766 0.024922 0)
(-0.0157275 0.0217904 0)
(-0.0184586 0.0184198 0)
(-0.0204359 0.0150524 0)
(-0.021832 0.011812 0)
(-0.0228084 0.00873593 0)
(-0.0234946 0.00580565 0)
(-0.0239842 0.00296577 0)
(-0.0243322 0.000135281 0)
(-0.0245581 -0.00278027 0)
(-0.0246383 -0.00589593 0)
(-0.0244902 -0.00933108 0)
(-0.023959 -0.0132002 0)
(-0.0227904 -0.0175836 0)
(-0.0206167 -0.0224689 0)
(-0.0168689 -0.0276523 0)
(-0.0112216 -0.0317765 0)
(-0.00394953 -0.0291784 0)
(-0.0033347 0.0290027 0)
(-0.00978895 0.0327097 0)
(-0.0153612 0.0294464 0)
(-0.0194363 0.0251192 0)
(-0.0222061 0.020774 0)
(-0.0240343 0.0166645 0)
(-0.0252063 0.0128993 0)
(-0.0259632 0.00947634 0)
(-0.0264842 0.00633244 0)
(-0.0268948 0.00336948 0)
(-0.0272725 0.000466067 0)
(-0.0276562 -0.00251991 0)
(-0.0280388 -0.00575337 0)
(-0.0283481 -0.00942624 0)
(-0.0284193 -0.0137547 0)
(-0.0279431 -0.0189588 0)
(-0.0264306 -0.0251995 0)
(-0.0227499 -0.0325533 0)
(-0.0165349 -0.0389429 0)
(-0.00645272 -0.0384138 0)
(-0.00519219 0.0352148 0)
(-0.0138532 0.0391994 0)
(-0.0200998 0.0345304 0)
(-0.0244212 0.0285513 0)
(-0.0269132 0.0229511 0)
(-0.0283089 0.0179719 0)
(-0.0290171 0.0136653 0)
(-0.0293712 0.00994745 0)
(-0.0295965 0.00668426 0)
(-0.0298449 0.0037192 0)
(-0.030215 0.000883692 0)
(-0.0307702 -0.00200765 0)
(-0.0315362 -0.00516922 0)
(-0.0324817 -0.00886929 0)
(-0.0334794 -0.0134528 0)
(-0.0342215 -0.0193617 0)
(-0.0342278 -0.0270815 0)
(-0.0314038 -0.0375874 0)
(-0.0260398 -0.0473503 0)
(-0.01173 -0.0530093 0)
(-0.00722185 0.0512569 0)
(-0.0189005 0.0485706 0)
(-0.0264958 0.0407482 0)
(-0.03103 0.0319015 0)
(-0.0327432 0.0245941 0)
(-0.0332533 0.0186333 0)
(-0.0331434 0.0138387 0)
(-0.03284 0.00995484 0)
(-0.0325935 0.00673009 0)
(-0.0325631 0.00393341 0)
(-0.0328541 0.00134966 0)
(-0.03355 -0.00123925 0)
(-0.0347245 -0.00406273 0)
(-0.0364326 -0.00749026 0)
(-0.0386757 -0.0120406 0)
(-0.0412745 -0.0185807 0)
(-0.0442597 -0.0279896 0)
(-0.0435665 -0.0431753 0)
(-0.0425556 -0.0585855 0)
(-0.0216874 -0.0785045 0)
(-0.0180205 0.0546556 0)
(-0.036262 0.0580315 0)
(-0.0368788 0.046398 0)
(-0.0398582 0.0348102 0)
(-0.0389397 0.025552 0)
(-0.0374439 0.0185071 0)
(-0.0357852 0.0133028 0)
(-0.0343482 0.00941616 0)
(-0.0333117 0.00641883 0)
(-0.0327724 0.00399279 0)
(-0.0328003 0.00189155 0)
(-0.0334577 -0.000100425 0)
(-0.0349049 -0.00220441 0)
(-0.0373645 -0.00469097 0)
(-0.041151 -0.00791176 0)
(-0.0461623 -0.0130733 0)
(-0.0536837 -0.0199029 0)
(-0.0557537 -0.039131 0)
(-0.0631026 -0.0565562 0)
(-0.0278313 -0.114901 0)
(-0.0461758 0.121468 0)
(-0.0458515 0.0589089 0)
(-0.0392567 0.044663 0)
(-0.0318972 0.0300561 0)
(-0.0233291 0.0200722 0)
(-0.0164623 0.0139268 0)
(-0.0110545 0.00981367 0)
(-0.00705677 0.00689647 0)
(-0.00425415 0.00476368 0)
(-0.00245624 0.00313666 0)
(-0.00154442 0.00181651 0)
(-0.00147172 0.000641181 0)
(-0.00225664 -0.000574905 0)
(-0.00379602 -0.00214313 0)
(-0.00667191 -0.00454612 0)
(-0.00842546 -0.00996002 0)
(-0.0179202 -0.0200943 0)
(-0.0102113 -0.048073 0)
(-0.0390013 -0.0936947 0)
(0.00957309 -0.195985 0)
(0.129216 0.119886 0)
(0.145208 0.0579163 0)
(0.213949 0.0352388 0)
(0.243172 0.0216847 0)
(0.261232 0.0128623 0)
(0.274053 0.0078894 0)
(0.28279 0.00512357 0)
(0.28875 0.00345638 0)
(0.2929 0.00238069 0)
(0.295755 0.00164818 0)
(0.297604 0.00111824 0)
(0.298641 0.00070625 0)
(0.298756 0.000375816 0)
(0.298381 -7.14526e-05 0)
(0.295026 -0.000648984 0)
(0.294407 -0.00246883 0)
(0.274007 -0.00645496 0)
(0.278717 -0.0166751 0)
(0.180607 -0.0392586 0)
(0.175352 -0.107833 0)
)
;

boundaryField
{
    movingWall
    {
        type            fixedValue;
        value           uniform (1 0 0);
    }
    fixedWalls
    {
        type            noSlip;
    }
    frontAndBack
    {
        type            empty;
    }
}


// ************************************************************************* //
