/*--------------------------------*- C++ -*----------------------------------*\
  =========                 |
  \\      /  F ield         | OpenFOAM: The Open Source CFD Toolbox
   \\    /   O peration     | Website:  https://openfoam.org
    \\  /    A nd           | Version:  10
     \\/     M anipulation  |
\*---------------------------------------------------------------------------*/
FoamFile
{
    format      ascii;
    class       volVectorField;
    location    "8.875";
    object      U;
}
// * * * * * * * * * * * * * * * * * * * * * * * * * * * * * * * * * * * * * //

dimensions      [0 1 -1 0 0 0 0];

internalField   nonuniform List<vector> 
475
(
(0.974424 0.0161089 0)
(0.975664 0.00641147 0)
(0.950406 0.0314808 0)
(0.954179 0.00127016 0)
(0.920121 0.0302585 0)
(0.998373 0.00870337 0)
(1.01422 0.0148182 0)
(1.02522 0.0152303 0)
(1.04394 0.00870502 0)
(1.05556 0.00220576 0)
(0.999673 0.000272457 0)
(1.00999 -0.00295306 0)
(1.02399 -0.00466611 0)
(1.04151 -0.00931597 0)
(1.05619 -0.0143056 0)
(0.999727 -0.0100386 0)
(1.01043 -0.0195134 0)
(1.02245 -0.0220256 0)
(1.03578 -0.0230569 0)
(1.0442 -0.0255892 0)
(0.980818 -0.00964926 0)
(0.969107 -0.0191567 0)
(0.953715 -0.0217922 0)
(0.933399 -0.022346 0)
(0.907634 -0.0228482 0)
(0.924679 -0.0159374 0)
(0.932068 -0.0358427 0)
(0.937355 -0.0486754 0)
(0.943731 -0.0582676 0)
(0.952522 -0.0668906 0)
(0.965315 -0.0769213 0)
(0.981098 -0.0892712 0)
(0.999741 -0.104527 0)
(1.01903 -0.12297 0)
(1.03832 -0.143611 0)
(1.0556 -0.16607 0)
(1.06976 -0.187785 0)
(1.07881 -0.207931 0)
(1.08211 -0.223554 0)
(1.07887 -0.233966 0)
(1.0684 -0.237282 0)
(1.05102 -0.234284 0)
(1.02681 -0.226495 0)
(0.997711 -0.214489 0)
(0.967277 -0.198069 0)
(0.937936 -0.177973 0)
(0.910141 -0.154374 0)
(0.884033 -0.128063 0)
(0.860178 -0.100582 0)
(0.83897 -0.0728688 0)
(0.822522 -0.0459254 0)
(0.810156 -0.0203615 0)
(0.803184 0.003634 0)
(0.798606 0.0249369 0)
(0.799763 0.0441493 0)
(0.799974 0.0595918 0)
(0.806079 0.0726824 0)
(0.807154 0.080757 0)
(0.814868 0.0869547 0)
(0.813689 0.087125 0)
(0.820288 0.086287 0)
(0.815551 0.0802412 0)
(0.819379 0.0739344 0)
(0.811505 0.0654431 0)
(0.812779 0.0561266 0)
(0.802132 0.0488593 0)
(0.801491 0.0404125 0)
(0.787109 0.0358027 0)
(0.786463 0.0312171 0)
(0.769206 0.0267996 0)
(1.06873 -0.00842768 0)
(1.07783 -0.0208417 0)
(1.08274 -0.032703 0)
(1.08426 -0.0436592 0)
(1.08465 -0.0547873 0)
(1.08531 -0.0670391 0)
(1.08537 -0.0815527 0)
(1.08558 -0.0984486 0)
(1.08331 -0.118312 0)
(1.07987 -0.139458 0)
(1.0718 -0.161848 0)
(1.06064 -0.182256 0)
(1.04329 -0.199891 0)
(1.02109 -0.210243 0)
(0.992465 -0.213404 0)
(0.957515 -0.207924 0)
(0.916151 -0.199933 0)
(0.868132 -0.189971 0)
(0.816772 -0.175342 0)
(0.766555 -0.155954 0)
(0.718782 -0.134439 0)
(0.675383 -0.112271 0)
(0.63707 -0.0907381 0)
(0.603517 -0.070015 0)
(0.575037 -0.0499243 0)
(0.553981 -0.0304307 0)
(0.540454 -0.0116952 0)
(0.533412 0.00631104 0)
(0.532179 0.0232154 0)
(0.538132 0.0387522 0)
(0.546376 0.0515424 0)
(0.56028 0.0627411 0)
(0.572114 0.0700278 0)
(0.589389 0.0761896 0)
(0.600804 0.0769266 0)
(0.617368 0.077567 0)
(0.625739 0.0721689 0)
(0.637833 0.0683493 0)
(0.642566 0.0604901 0)
(0.648727 0.0550005 0)
(0.649778 0.0492263 0)
(0.650985 0.0438189 0)
(0.649214 0.0404871 0)
(0.649487 0.0360254 0)
(0.646554 0.0331552 0)
(1.06883 -0.022249 0)
(1.07652 -0.0325429 0)
(1.08094 -0.0437777 0)
(1.08127 -0.0545735 0)
(1.07887 -0.0653079 0)
(1.07455 -0.0762065 0)
(1.06715 -0.08883 0)
(1.05881 -0.102547 0)
(1.04553 -0.118872 0)
(1.03116 -0.135706 0)
(1.00956 -0.154188 0)
(0.986519 -0.169866 0)
(0.955453 -0.182741 0)
(0.921037 -0.185728 0)
(0.877216 -0.176857 0)
(0.824725 -0.159255 0)
(0.759417 -0.147247 0)
(0.688023 -0.139883 0)
(0.618808 -0.131061 0)
(0.547387 -0.114555 0)
(0.476551 -0.0916263 0)
(0.41376 -0.0670044 0)
(0.362125 -0.0455033 0)
(0.320865 -0.0292459 0)
(0.289186 -0.0169276 0)
(0.267406 -0.0067049 0)
(0.25498 0.00317605 0)
(0.25045 0.0136653 0)
(0.252665 0.0238491 0)
(0.260969 0.0333252 0)
(0.273453 0.0417049 0)
(0.290651 0.0493823 0)
(0.309022 0.0550198 0)
(0.331044 0.0595204 0)
(0.35119 0.0607241 0)
(0.373964 0.0613496 0)
(0.392895 0.0582635 0)
(0.412255 0.056706 0)
(0.429468 0.0512913 0)
(0.442767 0.0490085 0)
(0.459741 0.0430998 0)
(0.467107 0.0401219 0)
(0.484927 0.0357186 0)
(0.488282 0.0325139 0)
(0.506176 0.030154 0)
(1.05078 -0.0299926 0)
(1.05107 -0.0359701 0)
(1.04895 -0.0423325 0)
(1.04038 -0.0490267 0)
(1.02882 -0.0553819 0)
(1.01144 -0.0624244 0)
(0.989934 -0.0699638 0)
(0.96345 -0.0790195 0)
(0.929666 -0.0892622 0)
(0.89175 -0.10076 0)
(0.841962 -0.113114 0)
(0.790567 -0.123789 0)
(0.723624 -0.133038 0)
(0.657523 -0.131797 0)
(0.585472 -0.114871 0)
(0.501251 -0.0911164 0)
(0.385348 -0.0645058 0)
(0.260562 -0.0332021 0)
(0.162012 -0.00704872 0)
(0.0932368 -0.00012107 0)
(0.0520024 -0.0036348 0)
(0.0297973 -0.00584463 0)
(0.0172754 -0.00533808 0)
(0.010181 -0.00372675 0)
(0.00669959 -0.00163936 0)
(0.00623119 0.000932785 0)
(0.00868512 0.00418589 0)
(0.0147632 0.00800055 0)
(0.0247697 0.0122835 0)
(0.0386005 0.0169703 0)
(0.0558407 0.0215829 0)
(0.0764887 0.0260103 0)
(0.0994931 0.0295444 0)
(0.125019 0.0323391 0)
(0.151162 0.0335554 0)
(0.178799 0.0341775 0)
(0.2051 0.0330725 0)
(0.231311 0.0317834 0)
(0.255979 0.0288841 0)
(0.277734 0.026762 0)
(0.30142 0.0230851 0)
(0.316241 0.0212729 0)
(0.340842 0.0177922 0)
(0.347432 0.0164909 0)
(0.374317 0.0146525 0)
(0.880228 -0.0242282 0)
(0.848698 -0.0261247 0)
(0.815888 -0.0281065 0)
(0.777032 -0.0304518 0)
(0.736174 -0.0322568 0)
(0.687748 -0.0352205 0)
(0.637114 -0.0373336 0)
(0.577936 -0.0420785 0)
(0.514612 -0.0450251 0)
(0.442167 -0.0520488 0)
(0.359869 -0.0553165 0)
(0.273244 -0.062639 0)
(0.162361 -0.0668257 0)
(0.0641104 -0.0305755 0)
(-0.00184149 0.0189194 0)
(-0.0319942 0.0527707 0)
(-0.0370179 0.0691879 0)
(-0.026017 0.0546271 0)
(-0.0126876 0.0218341 0)
(-0.00952828 -0.00958665 0)
(-0.0211304 -0.0240895 0)
(-0.0389015 -0.0250995 0)
(-0.0547005 -0.0202497 0)
(-0.0667035 -0.0148687 0)
(-0.075044 -0.0106154 0)
(-0.0801494 -0.00745855 0)
(-0.0821708 -0.00493301 0)
(-0.0811758 -0.00250914 0)
(-0.0771474 -0.000316741 0)
(-0.0699089 0.00166458 0)
(-0.0594692 0.00341665 0)
(-0.0459331 0.00498159 0)
(-0.0297876 0.00620238 0)
(-0.011451 0.00710912 0)
(0.008332 0.00752432 0)
(0.0289316 0.00769542 0)
(0.049114 0.00728413 0)
(0.0687793 0.00667794 0)
(0.0869192 0.00576237 0)
(0.103494 0.00485582 0)
(0.118457 0.00398661 0)
(0.130798 0.00318152 0)
(0.143382 0.00252694 0)
(0.150346 0.00236888 0)
(0.165013 0.00211468 0)
(0.0025968 -0.0237893 0)
(0.00260015 -0.0235199 0)
(-0.00542537 -0.0157708 0)
(-0.0221524 -0.00030913 0)
(-0.0541018 0.0151235 0)
(-0.095986 0.0236422 0)
(-0.140687 0.0264631 0)
(-0.184199 0.0263979 0)
(-0.22273 0.0241088 0)
(-0.253152 0.0202111 0)
(-0.272821 0.0150345 0)
(-0.280526 0.00907615 0)
(-0.276477 0.00218008 0)
(-0.260497 -0.00475145 0)
(-0.233169 -0.0112663 0)
(-0.195912 -0.0166435 0)
(-0.151085 -0.0202241 0)
(-0.101086 -0.0225036 0)
(-0.0482179 -0.023211 0)
(0.00552361 -0.0226894 0)
(0.0580492 -0.021305 0)
(0.107083 -0.0188839 0)
(0.150754 -0.0155704 0)
(0.18748 -0.0116665 0)
(0.216097 -0.00748517 0)
(0.236277 -0.00318863 0)
(0.247387 0.000886756 0)
(0.250039 0.00456466 0)
(0.245105 0.00782173 0)
(0.233863 0.00977183 0)
(0.217977 0.0103108 0)
(0.199393 0.0101438 0)
(0.179725 0.00976901 0)
(0.160483 0.00890198 0)
(0.142442 0.00725238 0)
(0.126684 0.00496881 0)
(0.1137 0.00250606 0)
(0.10453 0.000275606 0)
(0.0988462 -0.0014653 0)
(0.0966619 -0.0025487 0)
(0.0966561 -0.00317765 0)
(0.0984368 -0.0035132 0)
(0.101497 -0.00321612 0)
(0.104402 -0.00301334 0)
(0.110323 -0.00196764 0)
(-0.000942484 0.0199933 0)
(-0.0184686 0.0335243 0)
(-0.0591518 0.0431072 0)
(-0.0941415 0.052753 0)
(-0.127824 0.060686 0)
(-0.154781 0.0628421 0)
(-0.175846 0.0600336 0)
(-0.190558 0.0530937 0)
(-0.198497 0.0426718 0)
(-0.197948 0.028751 0)
(-0.187725 0.0128759 0)
(-0.167961 -0.00481261 0)
(-0.138747 -0.022969 0)
(-0.100148 -0.0405321 0)
(-0.0528688 -0.0564878 0)
(0.00158406 -0.0693005 0)
(0.0620266 -0.078426 0)
(0.125096 -0.083643 0)
(0.188958 -0.0852364 0)
(0.251466 -0.0836274 0)
(0.310995 -0.0792079 0)
(0.366374 -0.0720416 0)
(0.415964 -0.0625044 0)
(0.458675 -0.0510764 0)
(0.493256 -0.0385205 0)
(0.519998 -0.0256796 0)
(0.538096 -0.0128414 0)
(0.548001 -0.000920593 0)
(0.550469 0.00986913 0)
(0.545919 0.0189825 0)
(0.534524 0.0257341 0)
(0.517928 0.0295452 0)
(0.497546 0.0304607 0)
(0.475912 0.0292871 0)
(0.453745 0.0270783 0)
(0.433238 0.0237687 0)
(0.413943 0.0194169 0)
(0.397447 0.0139622 0)
(0.383789 0.00886469 0)
(0.373652 0.00413121 0)
(0.366243 0.00101965 0)
(0.361839 -0.00167842 0)
(0.359185 -0.00340228 0)
(0.359252 -0.00463797 0)
(0.359536 -0.00481093 0)
(-0.03471 -0.0104988 0)
(-0.0673066 0.029733 0)
(-0.0764343 0.0488686 0)
(-0.0790795 0.0605375 0)
(-0.0735159 0.0660211 0)
(-0.0614385 0.0646125 0)
(-0.0448676 0.0579903 0)
(-0.0232106 0.0464423 0)
(0.00187634 0.0304382 0)
(0.0322767 0.0104511 0)
(0.0689453 -0.0127245 0)
(0.112074 -0.0384297 0)
(0.161525 -0.0650926 0)
(0.215028 -0.0900937 0)
(0.272749 -0.112487 0)
(0.332329 -0.129978 0)
(0.392351 -0.141852 0)
(0.451374 -0.148207 0)
(0.508072 -0.149231 0)
(0.561293 -0.145567 0)
(0.61024 -0.137174 0)
(0.654403 -0.124461 0)
(0.692705 -0.108211 0)
(0.724769 -0.089361 0)
(0.749849 -0.0687724 0)
(0.768601 -0.0478876 0)
(0.780619 -0.0271632 0)
(0.78658 -0.00755536 0)
(0.786647 0.0100247 0)
(0.781706 0.0247695 0)
(0.770871 0.0366629 0)
(0.756326 0.0451088 0)
(0.738137 0.0500717 0)
(0.718867 0.0510221 0)
(0.697591 0.0494752 0)
(0.678148 0.0454455 0)
(0.657561 0.0393653 0)
(0.640705 0.0312693 0)
(0.621867 0.022291 0)
(0.609318 0.0150709 0)
(0.593593 0.00826071 0)
(0.58706 0.00361561 0)
(0.575407 -0.000457834 0)
(0.572805 -0.0042071 0)
(0.565465 -0.00285841 0)
(-0.0297597 0.141445 0)
(-0.0254028 0.0892802 0)
(-0.0137041 0.0716134 0)
(0.0132556 0.0610524 0)
(0.0486756 0.0521314 0)
(0.0912568 0.0424985 0)
(0.138882 0.029618 0)
(0.189807 0.0130752 0)
(0.24271 -0.00843441 0)
(0.298675 -0.0345351 0)
(0.356907 -0.063655 0)
(0.4165 -0.0933998 0)
(0.476729 -0.122861 0)
(0.536484 -0.149953 0)
(0.594507 -0.172695 0)
(0.649582 -0.189639 0)
(0.70044 -0.199829 0)
(0.746288 -0.203474 0)
(0.786859 -0.201211 0)
(0.822391 -0.193422 0)
(0.852977 -0.17983 0)
(0.878931 -0.161028 0)
(0.899862 -0.138254 0)
(0.916268 -0.112839 0)
(0.927742 -0.0860516 0)
(0.935627 -0.0589955 0)
(0.939154 -0.0325824 0)
(0.939788 -0.00793776 0)
(0.936518 0.0146969 0)
(0.931288 0.0336149 0)
(0.92124 0.048857 0)
(0.910141 0.0602512 0)
(0.894774 0.067609 0)
(0.880783 0.0708894 0)
(0.861628 0.0697626 0)
(0.846889 0.0660433 0)
(0.826564 0.0587805 0)
(0.813471 0.0509089 0)
(0.792706 0.0409509 0)
(0.781502 0.031617 0)
(0.76237 0.0239103 0)
(0.754472 0.015695 0)
(0.736807 0.0117928 0)
(0.731313 0.0054794 0)
(0.712902 0.00269285 0)
(0.0817496 0.00473438 0)
(0.119657 -0.00430081 0)
(0.202986 -0.00759531 0)
(0.268098 -0.0136216 0)
(0.329502 -0.0220141 0)
(0.391931 -0.0331073 0)
(0.454167 -0.0468497 0)
(0.516708 -0.0640524 0)
(0.578443 -0.0846693 0)
(0.639506 -0.108577 0)
(0.69918 -0.135099 0)
(0.755626 -0.161775 0)
(0.807783 -0.187349 0)
(0.854458 -0.209524 0)
(0.894472 -0.22657 0)
(0.926941 -0.237185 0)
(0.951482 -0.240656 0)
(0.968493 -0.238087 0)
(0.978976 -0.230338 0)
(0.984654 -0.217649 0)
(0.986793 -0.199639 0)
(0.986168 -0.176583 0)
(0.982965 -0.149666 0)
(0.978477 -0.120523 0)
(0.972607 -0.0906567 0)
(0.967239 -0.0610235 0)
(0.961362 -0.0326789 0)
(0.957103 -0.00607232 0)
(0.951455 0.0179785 0)
(0.947732 0.0386622 0)
(0.940808 0.0553874 0)
(0.937033 0.0687686 0)
(0.927772 0.0772446 0)
(0.923266 0.0823454 0)
(0.910721 0.0820817 0)
(0.905248 0.0798429 0)
(0.890337 0.073034 0)
(0.884434 0.0652405 0)
(0.867618 0.0557315 0)
(0.860997 0.045824 0)
(0.842612 0.0380672 0)
(0.836797 0.0291809 0)
(0.816578 0.0241969 0)
(0.813422 0.0192396 0)
(0.790374 0.0155146 0)
)
;

boundaryField
{
    inlet
    {
        type            fixedValue;
        value           uniform (1 0 0);
    }
    outlet
    {
        type            zeroGradient;
    }
    upperWall
    {
        type            noSlip;
    }
    lowerWall
    {
        type            noSlip;
    }
    frontAndBack
    {
        type            empty;
    }
}


// ************************************************************************* //
