/*--------------------------------*- C++ -*----------------------------------*\
  =========                 |
  \\      /  F ield         | OpenFOAM: The Open Source CFD Toolbox
   \\    /   O peration     | Website:  https://openfoam.org
    \\  /    A nd           | Version:  10
     \\/     M anipulation  |
\*---------------------------------------------------------------------------*/
FoamFile
{
    format      ascii;
    class       surfaceScalarField;
    location    "4.425";
    object      phi;
}
// * * * * * * * * * * * * * * * * * * * * * * * * * * * * * * * * * * * * * //

dimensions      [0 3 -1 0 0 0 0];

internalField   nonuniform List<scalar> 
22800
(
-2.26354e-06
2.59006e-06
-3.30032e-07
-7.43343e-06
5.07434e-06
9.55451e-08
-1.33467e-05
5.65727e-06
2.56009e-07
-1.93507e-05
5.67032e-06
3.33702e-07
-2.51966e-05
5.51093e-06
3.34974e-07
-3.07419e-05
5.25845e-06
2.86814e-07
-3.5853e-05
4.90724e-06
2.03898e-07
-4.03757e-05
4.43468e-06
8.80084e-08
-4.41339e-05
3.81502e-06
-5.68103e-08
-4.69311e-05
3.02495e-06
-2.27802e-07
-4.85445e-05
2.04911e-06
-4.35655e-07
-4.87443e-05
8.83888e-07
-6.84162e-07
-4.73113e-05
-4.82686e-07
-9.50232e-07
-4.40821e-05
-1.99933e-06
-1.22996e-06
-3.89707e-05
-3.6073e-06
-1.50406e-06
-3.20263e-05
-5.20217e-06
-1.74222e-06
-2.35097e-05
-6.62444e-06
-1.89212e-06
-1.40394e-05
-7.59324e-06
-1.87714e-06
-4.93545e-06
-7.45737e-06
-1.64656e-06
-4.23187e-06
-7.03585e-07
-4.7032e-06
8.37576e-06
-1.0825e-06
-1.34944e-05
1.45732e-05
-7.07565e-07
-2.32673e-05
1.59618e-05
-5.31693e-07
-3.3069e-05
1.58635e-05
-3.91507e-07
-4.25029e-05
1.52646e-05
-3.19795e-07
-5.13224e-05
1.43697e-05
-2.91803e-07
-5.93047e-05
1.31826e-05
-2.92969e-07
-6.62132e-05
1.16658e-05
-3.22637e-07
-7.17884e-05
9.77412e-06
-3.83894e-07
-7.57471e-05
7.4642e-06
-4.80513e-07
-7.77805e-05
4.69761e-06
-6.15149e-07
-7.76082e-05
1.49843e-06
-7.86889e-07
-7.49428e-05
-2.14585e-06
-1.00221e-06
-6.95572e-05
-6.15118e-06
-1.23371e-06
-6.13659e-05
-1.03308e-05
-1.4678e-06
-5.04676e-05
-1.44307e-05
-1.66983e-06
-3.72565e-05
-1.80603e-05
-1.77523e-06
-2.26281e-05
-2.0525e-05
-1.69662e-06
-8.45651e-06
-2.02378e-05
-1.39109e-06
-1.23865e-05
-3.01855e-07
-5.45291e-06
1.52625e-05
-1.43383e-06
-1.54439e-05
2.566e-05
-1.09585e-06
-2.64733e-05
2.79029e-05
-9.11618e-07
-3.74937e-05
2.76272e-05
-7.43235e-07
-4.80799e-05
2.64893e-05
-6.38468e-07
-5.79694e-05
2.48323e-05
-5.73142e-07
-6.69239e-05
2.26719e-05
-5.34759e-07
-7.46911e-05
1.99572e-05
-5.24309e-07
-8.09931e-05
1.66236e-05
-5.47514e-07
-8.55253e-05
1.26073e-05
-6.10801e-07
-8.79689e-05
7.85921e-06
-7.17978e-07
-8.79655e-05
2.37058e-06
-8.75567e-07
-8.51697e-05
-3.86822e-06
-1.07348e-06
-7.93181e-05
-1.06961e-05
-1.30664e-06
-7.02569e-05
-1.78387e-05
-1.5532e-06
-5.80367e-05
-2.48779e-05
-1.77292e-06
-4.305e-05
-3.11577e-05
-1.88935e-06
-2.62856e-05
-3.549e-05
-1.79946e-06
-9.89492e-06
-3.51716e-05
-1.45681e-06
-2.20398e-05
-2.41636e-07
-5.71806e-06
2.2699e-05
-1.71841e-06
-1.62685e-05
3.76306e-05
-1.42014e-06
-2.7909e-05
4.0777e-05
-1.23369e-06
-3.95521e-05
4.03168e-05
-1.04654e-06
-5.07719e-05
3.86287e-05
-9.19677e-07
-6.13125e-05
3.6203e-05
-8.30051e-07
-7.09421e-05
3.30681e-05
-7.66553e-07
-7.94102e-05
2.91575e-05
-7.32223e-07
-8.64342e-05
2.43817e-05
-7.33966e-07
-9.16928e-05
1.86455e-05
-7.79668e-07
-9.48249e-05
1.18679e-05
-8.76639e-07
-9.54415e-05
4.01807e-06
-1.03082e-06
-9.31035e-05
-4.95144e-06
-1.25478e-06
-8.74043e-05
-1.48771e-05
-1.5183e-06
-7.80608e-05
-2.53764e-05
-1.80587e-06
-6.5004e-05
-3.58626e-05
-2.07206e-06
-4.85738e-05
-4.5361e-05
-2.22691e-06
-2.98419e-05
-5.20787e-05
-2.1432e-06
-1.12787e-05
-5.19738e-05
-1.76109e-06
-3.29616e-05
-3.56855e-07
-5.92607e-06
3.06018e-05
-1.97678e-06
-1.6998e-05
5.04133e-05
-1.71076e-06
-2.92375e-05
5.45398e-05
-1.52333e-06
-4.15153e-05
5.39177e-05
-1.32308e-06
-5.34082e-05
5.17047e-05
-1.18303e-06
-6.4676e-05
4.85515e-05
-1.08076e-06
-7.51028e-05
4.45012e-05
-1.0063e-06
-8.44503e-05
3.94695e-05
-9.64469e-07
-9.24379e-05
3.33338e-05
-9.64486e-07
-9.87293e-05
2.59538e-05
-1.01702e-06
-0.000102922
1.71919e-05
-1.13177e-06
-0.000104543
6.95331e-06
-1.31328e-06
-0.000103053
-4.84736e-06
-1.59425e-06
-9.78535e-05
-1.8147e-05
-1.92997e-06
-8.8443e-05
-3.24781e-05
-2.30876e-06
-7.4527e-05
-4.7103e-05
-2.67566e-06
-5.62968e-05
-6.06755e-05
-2.91573e-06
-3.4907e-05
-7.06052e-05
-2.8633e-06
-1.32997e-05
-7.11525e-05
-2.42857e-06
-4.55578e-05
-7.03539e-07
-6.18075e-06
3.90402e-05
-2.25759e-06
-1.78851e-05
6.41393e-05
-2.02163e-06
-3.08558e-05
6.93443e-05
-1.83386e-06
-4.39079e-05
6.85923e-05
-1.62242e-06
-5.66235e-05
6.58931e-05
-1.47278e-06
-6.87848e-05
6.20761e-05
-1.36324e-06
-8.02027e-05
5.72043e-05
-1.28527e-06
-9.06624e-05
5.11751e-05
-1.24585e-06
-9.98982e-05
4.38264e-05
-1.25685e-06
-0.000107568
3.49567e-05
-1.33274e-06
-0.000113232
2.43444e-05
-1.48878e-06
-0.000116324
1.17893e-05
-1.7436e-06
-0.000116183
-2.88049e-06
-2.10878e-06
-0.000111931
-1.98305e-05
-2.56841e-06
-0.000102743
-3.8559e-05
-3.10644e-06
-8.79523e-05
-5.82389e-05
-3.65503e-06
-6.74458e-05
-7.71204e-05
-4.06163e-06
-4.23851e-05
-9.15724e-05
-4.09347e-06
-1.63876e-05
-9.35513e-05
-3.59868e-06
-6.05732e-05
-1.37223e-06
-6.49793e-06
4.81355e-05
-2.59737e-06
-1.89731e-05
7.90118e-05
-2.3973e-06
-3.28249e-05
8.54055e-05
-2.20935e-06
-4.67983e-05
8.45501e-05
-1.98443e-06
-6.04832e-05
8.14009e-05
-1.82297e-06
-7.36947e-05
7.69925e-05
-1.70483e-06
-8.62842e-05
7.14176e-05
-1.62381e-06
-9.80784e-05
6.45592e-05
-1.58991e-06
-0.000108847
5.62143e-05
-1.61881e-06
-0.000118268
4.61071e-05
-1.73014e-06
-0.000125878
3.39007e-05
-1.9463e-06
-0.000131024
1.92296e-05
-2.29427e-06
-0.000132928
1.83505e-06
-2.81074e-06
-0.000130337
-1.89526e-05
-3.46971e-06
-0.000121972
-4.26492e-05
-4.27412e-06
-0.00010656
-6.85083e-05
-5.14268e-06
-8.34007e-05
-9.44115e-05
-5.86853e-06
-5.34281e-05
-0.00011544
-6.10492e-06
-2.11703e-05
-0.000120242
-5.56698e-06
-7.91544e-05
-2.58916e-06
-6.87913e-06
5.80387e-05
-3.02412e-06
-2.02691e-05
9.52742e-05
-2.87238e-06
-3.51451e-05
0.000102964
-2.68301e-06
-5.01657e-05
0.000102008
-2.43766e-06
-6.4934e-05
9.84256e-05
-2.2563e-06
-7.93113e-05
9.34916e-05
-2.12178e-06
-9.32075e-05
8.73455e-05
-2.03172e-06
-0.000106516
7.98681e-05
-2.00056e-06
-0.000119074
7.08219e-05
-2.04936e-06
-0.000130618
5.98558e-05
-2.20532e-06
-0.000140714
4.64994e-05
-2.50187e-06
-0.000148683
3.0177e-05
-2.97908e-06
-0.000153468
1.02899e-05
-3.66929e-06
-0.000153695
-1.40472e-05
-4.67895e-06
-0.000147281
-4.3136e-05
-5.92648e-06
-0.000132045
-7.63907e-05
-7.35371e-06
-0.000106211
-0.000111558
-8.68834e-06
-6.99542e-05
-0.000142293
-9.40303e-06
-2.88439e-05
-0.000152445
-8.90732e-06
-0.000103133
-4.865e-06
-7.33496e-06
6.8943e-05
-3.56928e-06
-2.17943e-05
0.000113219
-3.48524e-06
-3.78279e-05
0.000122289
-3.29053e-06
-5.39912e-05
0.000121183
-3.01118e-06
-6.99084e-05
0.000117136
-2.79369e-06
-8.55029e-05
0.000111713
-2.62642e-06
-0.000100766
0.000105122
-2.51294e-06
-0.000115688
9.72637e-05
-2.47389e-06
-0.000130216
8.78878e-05
-2.53772e-06
-0.000144201
7.65839e-05
-2.74241e-06
-0.000157315
6.27509e-05
-3.13827e-06
-0.000168917
4.55676e-05
-3.78816e-06
-0.000177872
2.40043e-05
-4.75958e-06
-0.000182537
-3.118e-06
-6.2643e-06
-0.000179977
-3.74861e-05
-8.20958e-06
-0.000166691
-7.90821e-05
-1.05949e-05
-0.000139022
-0.000126148
-1.30784e-05
-9.53421e-05
-0.000171103
-1.48707e-05
-4.18635e-05
-0.0001912
-1.4724e-05
-0.000135514
-9.4828e-06
-7.89964e-06
8.11194e-05
-4.27676e-06
-2.36125e-05
0.000133219
-4.28769e-06
-4.09323e-05
0.000143687
-4.07846e-06
-5.82958e-05
0.000142287
-3.7407e-06
-7.53617e-05
0.000137661
-3.45822e-06
-9.21362e-05
0.000131716
-3.22875e-06
-0.000108716
0.000124766
-3.06487e-06
-0.00012522
0.000116763
-2.99543e-06
-0.000141756
0.000107482
-3.05846e-06
-0.000158367
9.65008e-05
-3.30647e-06
-0.000174938
8.31364e-05
-3.81446e-06
-0.00019104
6.63559e-05
-4.68582e-06
-0.000205656
4.46869e-05
-6.06672e-06
-0.000216857
1.62454e-05
-8.16271e-06
-0.000221239
-2.18702e-05
-1.12334e-05
-0.000213381
-7.1707e-05
-1.52334e-05
-0.00018663
-0.000133053
-1.98461e-05
-0.000135681
-0.000198077
-2.39757e-05
-6.54575e-05
-0.000236193
-2.52301e-05
-0.000181678
-1.92934e-05
-8.65392e-06
9.49881e-05
-5.21479e-06
-2.58677e-05
0.00015579
-5.35662e-06
-4.46059e-05
0.000167539
-5.11353e-06
-6.31808e-05
0.000165536
-4.67441e-06
-8.13112e-05
0.000160068
-4.27741e-06
-9.91119e-05
0.000153452
-3.93576e-06
-0.000116808
0.000146138
-3.67519e-06
-0.000134675
0.000138165
-3.53474e-06
-0.000153024
0.000129394
-3.56351e-06
-0.000172169
0.000119477
-3.83112e-06
-0.000192355
0.000107766
-4.44371e-06
-0.000213587
9.31516e-05
-5.56346e-06
-0.000235297
7.38285e-05
-7.43165e-06
-0.000255713
4.70218e-05
-1.03605e-05
-0.000271611
9.08232e-06
-1.50542e-05
-0.000275328
-4.64213e-05
-2.15688e-05
-0.000256136
-0.000122337
-2.99068e-05
-0.000202054
-0.000213376
-3.87841e-05
-0.000111703
-0.000282083
-4.44601e-05
-0.000252149
-4.12328e-05
-9.76897e-06
0.000111254
-6.49676e-06
-2.88484e-05
0.000181681
-6.81226e-06
-4.91486e-05
0.000194336
-6.49684e-06
-6.88849e-05
0.000191153
-5.88072e-06
-8.78876e-05
0.000184356
-5.285e-06
-0.000106417
0.00017673
-4.74846e-06
-0.000124843
0.00016888
-4.31557e-06
-0.000143608
0.000160966
-4.03668e-06
-0.000163241
0.000152999
-3.97159e-06
-0.00018439
0.000144833
-4.20672e-06
-0.000207806
0.000136064
-4.88173e-06
-0.000234231
0.000125805
-6.22866e-06
-0.000264084
0.000112298
-8.61615e-06
-0.000296771
9.22958e-05
-1.25863e-05
-0.000329044
6.02967e-05
-1.89421e-05
-0.000354601
8.13885e-06
-2.90027e-05
-0.000356642
-7.73412e-05
-4.29554e-05
-0.000312608
-0.000197371
-6.00387e-05
-0.000200965
-0.000317191
-7.65349e-05
-0.000364859
-8.82546e-05
-1.16023e-05
0.000131178
-8.32224e-06
-3.31024e-05
0.000212026
-8.84476e-06
-5.51123e-05
0.000224719
-8.37318e-06
-7.5864e-05
0.00021935
-7.44534e-06
-9.54021e-05
0.000210408
-6.51376e-06
-0.00011419
0.00020117
-5.65222e-06
-0.000132755
0.000192373
-4.92868e-06
-0.000151669
0.000184284
-4.40435e-06
-0.000171642
0.000177118
-4.14626e-06
-0.000193619
0.000171059
-4.24852e-06
-0.000218896
0.00016621
-4.86959e-06
-0.000249188
0.000162385
-6.28771e-06
-0.000286558
0.000158644
-8.97655e-06
-0.000332886
0.000152303
-1.36789e-05
-0.000388576
0.000137412
-2.14255e-05
-0.000448108
0.000101527
-3.38564e-05
-0.000496391
2.41347e-05
-5.3193e-05
-0.000488202
-0.000127942
-7.76174e-05
-0.000361851
-0.000337795
-0.000105748
-0.000574659
-0.000152051
-1.49399e-05
0.000157218
-1.10995e-05
-3.97033e-05
0.000248732
-1.19425e-05
-6.34551e-05
0.000259686
-1.12158e-05
-8.48449e-05
0.000250469
-9.72871e-06
-0.000104385
0.000238099
-8.1516e-06
-0.000122802
0.00022626
-6.67232e-06
-0.000140726
0.000215718
-5.4202e-06
-0.000158786
0.000206816
-4.47122e-06
-0.000177767
0.000199976
-3.87723e-06
-0.000198774
0.000195779
-3.713e-06
-0.000223515
0.000195073
-4.12225e-06
-0.000254655
0.000198896
-5.37053e-06
-0.000296366
0.00020826
-7.90541e-06
-0.000354416
0.000222691
-1.23376e-05
-0.000435871
0.000237882
-1.90152e-05
-0.000543584
0.000236192
-2.69517e-05
-0.00066492
0.000179805
-3.4335e-05
-0.000728381
-2.85036e-05
-3.5977e-05
-0.000599645
-0.000430317
-3.62142e-05
-0.00103043
-0.000143871
-2.05002e-05
0.000193072
-1.53544e-05
-4.96509e-05
0.000293641
-1.57582e-05
-7.52977e-05
0.000299663
-1.43302e-05
-9.72966e-05
0.000284228
-1.17606e-05
-0.00011627
0.000266402
-9.32938e-06
-0.00013335
0.000250464
-7.12392e-06
-0.00014945
0.000237065
-5.24703e-06
-0.000165248
0.000226366
-3.75293e-06
-0.000181381
0.000218785
-2.67567e-06
-0.000198703
0.000215153
-2.052e-06
-0.000218789
0.000217071
-1.91191e-06
-0.000244581
0.000226959
-2.27095e-06
-0.000282096
0.000248781
-3.00607e-06
-0.000341688
0.000285422
-3.13889e-06
-0.000442012
0.000337057
1.14914e-06
-0.000601751
0.000375617
2.03144e-05
-0.000827395
0.000336552
6.8897e-05
-0.00099725
-1.68634e-05
0.000158216
-0.000854047
-0.000803513
0.000229993
-0.00185565
-2.88267e-05
-4.04501e-05
0.000256743
-2.32209e-05
-7.23396e-05
0.000350905
-2.53746e-05
-9.59989e-05
0.000345744
-2.24217e-05
-0.000113789
0.000320037
-1.80182e-05
-0.000129272
0.000295117
-1.32318e-05
-0.000143632
0.000273711
-8.88766e-06
-0.00015733
0.000255998
-5.23463e-06
-0.000170349
0.000241756
-2.37115e-06
-0.00018269
0.00023138
-2.54768e-07
-0.000194314
0.000225666
1.1117e-06
-0.000206093
0.000226919
1.93026e-06
-0.00022002
0.000238248
2.63719e-06
-0.000242767
0.000266811
4.7174e-06
-0.000286197
0.000316096
1.27552e-05
-0.000386587
0.00039731
4.01377e-05
-0.000582566
0.000456401
0.000115195
-0.000921317
0.000408547
0.000266756
-0.00119483
-0.000207201
0.000463852
-0.00101677
-0.00147974
0.000498172
-0.00282268
-4.97447e-05
-3.44304e-05
0.000329292
-3.8118e-05
-8.41584e-05
0.000434131
-3.34979e-05
-0.000116481
0.000405838
-2.77716e-05
-0.000139181
0.00036113
-1.83924e-05
-0.000153362
0.000320332
-1.10347e-05
-0.000162624
0.000287738
-4.76442e-06
-0.00016907
0.000262244
2.00198e-07
-0.000173692
0.000242175
4.20267e-06
-0.000176506
0.000227203
6.99135e-06
-0.000176487
0.000216844
8.80238e-06
-0.000172891
0.000213289
1.00347e-05
-0.000164533
0.000218156
1.17339e-05
-0.000156021
0.000241129
1.71709e-05
-0.000156655
0.000281004
3.57254e-05
-0.00021595
0.000367306
8.92985e-05
-0.000395412
0.000419585
0.000216278
-0.000784504
0.000349135
0.000448503
-0.00113782
-0.000505194
0.000651307
-0.000992194
-0.00211331
0.000487942
-0.00352918
-0.000285692
-0.00017717
0.000557361
-5.08995e-05
-0.000184793
0.000499278
-5.75245e-05
-0.000173409
0.000443719
-4.92649e-05
-0.000162714
0.000385337
-3.4902e-05
-0.000146825
0.000323476
-1.90329e-05
-0.000130214
0.000276947
-5.81983e-06
-0.000114763
0.000242508
4.28448e-06
-9.96914e-05
0.000215622
1.14817e-05
-8.44479e-05
0.000195719
1.62409e-05
-6.62673e-05
0.000179951
1.87125e-05
-4.36918e-05
0.000171085
1.96278e-05
-1.24818e-05
0.000167062
1.98846e-05
2.91175e-05
0.00017619
2.33399e-05
7.39158e-05
0.000195943
4.0263e-05
0.00010961
0.000239324
9.22875e-05
5.90799e-05
0.000257334
0.000212781
-0.000135091
0.000132298
0.000411008
-0.000523566
-0.000687905
0.000571186
-0.000659082
-0.00226843
0.000290631
-0.00366106
-0.000527205
-0.000371924
0.00108244
-0.000153155
-0.000267358
0.00049386
-9.91477e-05
-0.000124098
0.000365542
-6.50829e-05
2.74029e-05
0.000265692
-3.18561e-05
0.000166117
0.000194094
-9.33178e-06
0.000287795
0.000147706
7.56379e-06
0.000390259
0.000119119
2.09257e-05
0.000476197
9.94943e-05
3.01896e-05
0.000548624
8.69007e-05
3.63907e-05
0.000611827
7.75505e-05
3.91976e-05
0.000671071
7.27186e-05
3.91229e-05
0.000732822
7.00771e-05
3.52338e-05
0.000805912
7.13412e-05
3.17588e-05
0.000902936
7.37978e-05
2.51205e-05
0.00102959
6.98096e-05
4.28612e-05
0.00115524
3.93066e-05
9.23745e-05
0.00122038
-8.87164e-05
0.00015588
0.000848737
-0.000617834
0.000301569
0.000176616
-0.00167703
8.07245e-05
-0.00277366
-0.000710786
0.00122791
-0.000145465
0.00187315
-0.000151389
0.00238337
-0.000144672
0.0027752
-0.000126134
0.00307364
-0.00010435
0.00330697
-8.56253e-05
0.00349266
-6.65754e-05
0.00364294
-5.07782e-05
0.00376502
-3.51825e-05
0.00386479
-2.22243e-05
0.00394975
-1.22422e-05
0.00402138
-1.54772e-06
0.00409179
9.26311e-07
0.0041567
8.8945e-06
0.00421587
1.06414e-05
0.00423956
1.56116e-05
0.00411773
3.31149e-05
0.00350584
-5.9479e-06
0.00191499
-8.61715e-05
-0.000858672
-4.19408e-06
4.43949e-06
-5.75449e-07
-1.30749e-05
9.2565e-06
-2.8013e-07
-2.30782e-05
1.03798e-05
-1.20459e-07
-3.30151e-05
1.02892e-05
-1.85661e-08
-4.25018e-05
9.81761e-06
4.07707e-09
-5.13282e-05
9.14465e-06
-3.15042e-08
-5.9289e-05
8.27552e-06
-1.10769e-07
-6.61561e-05
7.18525e-06
-2.30186e-07
-7.16703e-05
5.84801e-06
-3.9057e-07
-7.55454e-05
4.24057e-06
-5.93298e-07
-7.74878e-05
2.34492e-06
-8.382e-07
-7.72087e-05
1.60227e-07
-1.12347e-06
-7.44309e-05
-2.29045e-06
-1.43755e-06
-6.89546e-05
-4.93938e-06
-1.76688e-06
-6.06946e-05
-7.67739e-06
-2.08674e-06
-4.97386e-05
-1.03378e-05
-2.36036e-06
-3.64453e-05
-1.2654e-05
-2.53142e-06
-2.16854e-05
-1.41095e-05
-2.52753e-06
-7.62881e-06
-1.34059e-05
-2.29721e-06
-6.99048e-06
-1.34192e-06
-9.27305e-06
1.39608e-05
-1.33074e-06
-2.53533e-05
2.57893e-05
-1.16007e-06
-4.29638e-05
2.84306e-05
-9.72079e-07
-6.02791e-05
2.80121e-05
-7.991e-07
-7.66323e-05
2.65509e-05
-6.99876e-07
-9.1617e-05
2.44939e-05
-6.56322e-07
-0.000104861
2.18847e-05
-6.57678e-07
-0.000115985
1.86905e-05
-7.03943e-07
-0.000124592
1.48693e-05
-7.98615e-07
-0.000130271
1.03847e-05
-9.45908e-07
-0.000132597
5.20464e-06
-1.14871e-06
-0.000131218
-5.98953e-07
-1.4069e-06
-0.000125749
-7.05166e-06
-1.70919e-06
-0.000115965
-1.39193e-05
-2.03792e-06
-0.000101806
-2.09398e-05
-2.36451e-06
-8.34706e-05
-2.77007e-05
-2.64243e-06
-6.15495e-05
-3.35518e-05
-2.79865e-06
-3.73816e-05
-3.72285e-05
-2.74555e-06
-1.41329e-05
-3.56186e-05
-2.42706e-06
-2.01973e-05
-1.2279e-06
-1.10072e-05
2.52634e-05
-1.72931e-06
-2.96615e-05
4.49852e-05
-1.63743e-06
-4.99373e-05
4.92354e-05
-1.44061e-06
-6.97929e-05
4.83562e-05
-1.23179e-06
-8.84955e-05
4.57072e-05
-1.09213e-06
-0.000105597
4.20284e-05
-1.00592e-06
-0.00012069
3.74065e-05
-9.63774e-07
-0.00013336
3.18046e-05
-9.68095e-07
-0.00014318
2.51663e-05
-1.0252e-06
-0.000149704
1.744e-05
-1.14195e-06
-0.000152496
8.60206e-06
-1.32343e-06
-0.000151077
-1.32095e-06
-1.57292e-06
-0.000145038
-1.22851e-05
-1.87878e-06
-0.000134078
-2.39587e-05
-2.22714e-06
-0.000118065
-3.59197e-05
-2.58605e-06
-9.71479e-05
-4.74893e-05
-2.90166e-06
-7.19305e-05
-5.75713e-05
-3.08715e-06
-4.39056e-05
-6.40157e-05
-3.0372e-06
-1.67302e-05
-6.15638e-05
-2.68704e-06
-3.58319e-05
-1.33723e-06
-1.17325e-05
3.73635e-05
-2.08597e-06
-3.16515e-05
6.55587e-05
-2.07454e-06
-5.32698e-05
7.14957e-05
-1.87565e-06
-7.44439e-05
7.01252e-05
-1.64142e-06
-9.44294e-05
6.62452e-05
-1.4722e-06
-0.000112781
6.09049e-05
-1.35453e-06
-0.000129094
5.4234e-05
-1.28102e-06
-0.000142953
4.61881e-05
-1.25678e-06
-0.000153919
3.66886e-05
-1.29105e-06
-0.000161519
2.56548e-05
-1.39404e-06
-0.000165254
1.30354e-05
-1.57509e-06
-0.000164617
-1.14575e-06
-1.8427e-06
-0.000159016
-1.69521e-05
-2.18843e-06
-0.000147995
-3.39025e-05
-2.59591e-06
-0.000131238
-5.14515e-05
-3.0311e-06
-0.000108732
-6.86352e-05
-3.43188e-06
-8.1009e-05
-8.38285e-05
-3.69304e-06
-4.969e-05
-9.37975e-05
-3.68037e-06
-1.89795e-05
-9.07291e-05
-3.3063e-06
-5.34403e-05
-1.72795e-06
-1.23607e-05
5.01864e-05
-2.439e-06
-3.34713e-05
8.74658e-05
-2.50738e-06
-5.63992e-05
9.52079e-05
-2.30761e-06
-7.88985e-05
9.33537e-05
-2.05237e-06
-0.000100221
8.82461e-05
-1.86094e-06
-0.00011994
8.12646e-05
-1.72202e-06
-0.000137667
7.25849e-05
-1.63044e-06
-0.000152999
6.21499e-05
-1.59433e-06
-0.000165494
4.98462e-05
-1.62657e-06
-0.000174654
3.55399e-05
-1.74176e-06
-0.000179907
1.91107e-05
-1.95431e-06
-0.000180651
5.64298e-07
-2.279e-06
-0.000176091
-2.03956e-05
-2.71101e-06
-0.000165528
-4.31575e-05
-3.23868e-06
-0.00014833
-6.71332e-05
-3.82475e-06
-0.000124168
-9.10796e-05
-4.39325e-06
-9.33717e-05
-0.000112733
-4.80767e-06
-5.76991e-05
-0.000127448
-4.88517e-06
-2.21588e-05
-0.000124209
-4.48867e-06
-7.3777e-05
-2.52569e-06
-1.31343e-05
6.39002e-05
-2.83701e-06
-3.5695e-05
0.000110997
-2.99254e-06
-6.02234e-05
0.000120694
-2.79184e-06
-8.43438e-05
0.000118367
-2.51502e-06
-0.000107307
0.000112039
-2.30232e-06
-0.000128713
0.000103452
-2.14507e-06
-0.000148208
9.28351e-05
-2.04101e-06
-0.000165417
8.01153e-05
-2.00207e-06
-0.000179913
6.51317e-05
-2.0458e-06
-0.000191184
4.76705e-05
-2.19254e-06
-0.0001986
2.75e-05
-2.46215e-06
-0.000201381
4.46671e-06
-2.86494e-06
-0.000198583
-2.18394e-05
-3.46309e-06
-0.000189084
-5.10329e-05
-4.19243e-06
-0.000171787
-8.2504e-05
-5.03252e-06
-0.000145827
-0.000114802
-5.8929e-06
-0.000111106
-0.000144925
-6.59078e-06
-6.94284e-05
-0.000166359
-6.85944e-06
-2.69613e-05
-0.000163813
-6.46196e-06
-9.82128e-05
-3.89767e-06
-1.41058e-05
7.87315e-05
-3.32285e-06
-3.84531e-05
0.000136531
-3.58358e-06
-6.49344e-05
0.000148347
-3.38044e-06
-9.10127e-05
0.000145536
-3.07557e-06
-0.000115942
0.00013798
-2.83468e-06
-0.000139364
0.000127823
-2.65307e-06
-0.00016098
0.00011536
-2.53278e-06
-0.000180473
0.000100509
-2.49103e-06
-0.000197459
8.30513e-05
-2.55188e-06
-0.000211443
6.26691e-05
-2.74445e-06
-0.000221754
3.89648e-05
-3.10026e-06
-0.000227471
1.15446e-05
-3.65509e-06
-0.00022743
-2.02303e-05
-4.46151e-06
-0.000219997
-5.64401e-05
-5.49575e-06
-0.000203385
-9.66465e-05
-6.74281e-06
-0.000175849
-0.000139384
-8.09605e-06
-0.000136435
-0.0001809
-9.30795e-06
-8.66848e-05
-0.000212242
-9.97209e-06
-3.43483e-05
-0.000212069
-9.64802e-06
-0.000128963
-6.18728e-06
-1.52949e-05
9.49385e-05
-3.93622e-06
-4.17951e-05
0.000164489
-4.33053e-06
-7.05912e-05
0.00017858
-4.12047e-06
-9.89507e-05
0.000175232
-3.77361e-06
-0.000126137
0.000166398
-3.48836e-06
-0.000151858
0.000154688
-3.26616e-06
-0.000175898
0.000140484
-3.11554e-06
-0.000198035
0.000123706
-3.06107e-06
-0.000217982
0.000104085
-3.13582e-06
-0.000235316
8.11789e-05
-3.3814e-06
-0.000249385
5.43803e-05
-3.84813e-06
-0.00025918
2.29594e-05
-4.59856e-06
-0.000263318
-1.40708e-05
-5.69072e-06
-0.00025959
-5.76636e-05
-7.18393e-06
-0.00024525
-0.000107846
-9.06733e-06
-0.000217163
-0.000163586
-1.12387e-05
-0.000172766
-0.000220612
-1.33738e-05
-0.000112568
-0.000266993
-1.485e-05
-4.62216e-05
-0.000272522
-1.48005e-05
-0.000169977
-1.00724e-05
-1.67352e-05
0.000112829
-4.72477e-06
-4.57909e-05
0.000195353
-5.2929e-06
-7.72679e-05
0.000211833
-5.06613e-06
-0.000108201
0.000207806
-4.65249e-06
-0.000137878
0.000197575
-4.29359e-06
-0.000166097
0.000184281
-4.00055e-06
-0.000192767
0.000168433
-3.79137e-06
-0.000217815
0.000149981
-3.70044e-06
-0.000241116
0.00012862
-3.77247e-06
-0.000262411
0.000103796
-4.06523e-06
-0.000281178
7.46626e-05
-4.65324e-06
-0.000296437
4.00633e-05
-5.63306e-06
-0.000306748
-1.39127e-06
-7.12803e-06
-0.000309249
-5.21643e-05
-9.26299e-06
-0.000300062
-0.000113135
-1.21068e-05
-0.000274006
-0.00018463
-1.56065e-05
-0.000225665
-0.000262653
-1.93786e-05
-0.000152934
-0.000332091
-2.25037e-05
-6.67677e-05
-0.000350153
-2.32592e-05
-0.000229281
-1.69468e-05
-1.84965e-05
0.000132804
-5.75509e-06
-5.05756e-05
0.000229696
-6.55147e-06
-8.51108e-05
0.000248578
-6.28874e-06
-0.000118868
0.000243589
-5.76643e-06
-0.00015118
0.000231713
-5.28475e-06
-0.000181975
0.000216717
-4.86984e-06
-0.000211334
0.000199281
-4.55328e-06
-0.000239393
0.000179426
-4.38196e-06
-0.000266277
0.00015686
-4.41457e-06
-0.000292016
0.000130958
-4.72867e-06
-0.000316404
0.000100666
-5.43017e-06
-0.000338757
6.43893e-05
-6.65856e-06
-0.000357602
1.99548e-05
-8.56756e-06
-0.000370087
-3.62245e-05
-1.16176e-05
-0.000370971
-0.000107625
-1.58598e-05
-0.00035244
-0.000196952
-2.14415e-05
-0.000304499
-0.000302398
-2.80424e-05
-0.000219572
-0.000406566
-3.44276e-05
-0.000105993
-0.000451517
-3.74452e-05
-0.000324753
-2.98143e-05
-2.07166e-05
0.000155433
-7.12744e-06
-5.64023e-05
0.000268248
-8.22362e-06
-9.43957e-05
0.000289347
-7.88887e-06
-0.000131169
0.000282876
-7.18825e-06
-0.000166141
0.000268912
-6.50368e-06
-0.000199422
0.000251947
-5.88455e-06
-0.000231314
0.000232879
-5.38157e-06
-0.000262225
0.000211859
-5.05659e-06
-0.000292625
0.000188679
-4.98318e-06
-0.000322981
0.000162743
-5.26014e-06
-0.000353642
0.000132915
-6.03142e-06
-0.00038458
9.72747e-05
-7.51024e-06
-0.000414839
5.28043e-05
-1.0023e-05
-0.000442364
-5.04206e-06
-1.40178e-05
-0.000461141
-8.38326e-05
-2.00694e-05
-0.0004608
-0.000190205
-2.86568e-05
-0.000425117
-0.000328147
-3.98411e-05
-0.000336377
-0.000481796
-5.2294e-05
-0.000188858
-0.000582289
-6.12076e-05
-0.000499804
-5.50391e-05
-2.36554e-05
0.000181592
-8.99996e-06
-6.37242e-05
0.000311992
-1.04869e-05
-0.000105609
0.00033475
-1.00148e-05
-0.000145505
0.000325911
-9.02031e-06
-0.000183002
0.000309127
-8.00339e-06
-0.000218454
0.0002897
-7.04992e-06
-0.00025244
0.000268788
-6.23748e-06
-0.000285691
0.000246717
-5.64443e-06
-0.000319088
0.000223462
-5.35678e-06
-0.000353682
0.00019862
-5.48947e-06
-0.000390658
0.000171227
-6.21831e-06
-0.000431176
0.00013939
-7.82572e-06
-0.000475887
9.96487e-05
-1.07494e-05
-0.000524028
4.60888e-05
-1.5576e-05
-0.000571931
-3.12753e-05
-2.35968e-05
-0.000608665
-0.000146599
-3.58748e-05
-0.000611396
-0.000314975
-5.33969e-05
-0.000543272
-0.000534561
-7.53979e-05
-0.000357868
-0.000747702
-9.65258e-05
-0.00084454
-0.000101387
-2.78005e-05
0.0002127
-1.16299e-05
-7.3323e-05
0.000362278
-1.36088e-05
-0.000119565
0.000385493
-1.28748e-05
-0.000162563
0.000372859
-1.13941e-05
-0.000202222
0.000352115
-9.84249e-06
-0.000239248
0.000329432
-8.35722e-06
-0.000274548
0.000306209
-7.05069e-06
-0.000309177
0.00028296
-6.01809e-06
-0.000344431
0.00025992
-5.35023e-06
-0.000381982
0.000237082
-5.16004e-06
-0.000424044
0.000214043
-5.62308e-06
-0.000473505
0.000189605
-7.04144e-06
-0.00053386
0.000160957
-9.93004e-06
-0.000608456
0.000122126
-1.51198e-05
-0.00069927
6.1938e-05
-2.38246e-05
-0.000800154
-4.12411e-05
-3.83313e-05
-0.000882941
-0.000225284
-6.00969e-05
-0.000870878
-0.00053601
-8.82312e-05
-0.000634968
-0.00096991
-0.000119449
-0.00148044
-0.000151122
-3.43009e-05
0.000251394
-1.54922e-05
-8.67978e-05
0.000420992
-1.81591e-05
-0.000137624
0.000442097
-1.69925e-05
-0.000183269
0.000423475
-1.47009e-05
-0.000224397
0.000397318
-1.22269e-05
-0.000262142
0.000370342
-9.83713e-06
-0.000297676
0.00034404
-7.71719e-06
-0.000332297
0.000319091
-5.98167e-06
-0.000367636
0.000296086
-4.70427e-06
-0.000405902
0.000275593
-3.95809e-06
-0.000450326
0.000258208
-3.86426e-06
-0.000505791
0.000244344
-4.64384e-06
-0.000579677
0.000233616
-6.67859e-06
-0.000681999
0.000222619
-1.05079e-05
-0.000823285
0.000200617
-1.64079e-05
-0.00100358
0.000135223
-2.31252e-05
-0.001186
-4.90813e-05
-2.8113e-05
-0.00122456
-0.000507068
-2.63577e-05
-0.000892285
-0.00130681
-3.15898e-05
-0.00239244
-0.000124156
-4.26929e-05
0.00029986
-2.1128e-05
-0.000104273
0.00049083
-2.40168e-05
-0.00016094
0.000506356
-2.19214e-05
-0.000209873
0.000478857
-1.82095e-05
-0.000251809
0.000444385
-1.44606e-05
-0.000288765
0.000411078
-1.09042e-05
-0.000322618
0.00038038
-7.73426e-06
-0.000354991
0.000352765
-5.05329e-06
-0.00038756
0.000328888
-2.90953e-06
-0.000422485
0.000309769
-1.30317e-06
-0.000463313
0.000297311
-1.87002e-07
-0.000516162
0.00029426
6.62138e-07
-0.000591815
0.000304609
1.65358e-06
-0.000706537
0.000329978
4.2237e-06
-0.000879914
0.000362157
1.2987e-05
-0.00111032
0.000346775
3.91733e-05
-0.00134675
0.00015646
9.97802e-05
-0.00138004
-0.000515476
0.00019991
-0.000933034
-0.00175482
0.000231004
-0.00331305
-4.12424e-05
-7.47615e-05
0.000381752
-3.0351e-05
-0.000142656
0.000568725
-3.5375e-05
-0.000197305
0.000570265
-3.16826e-05
-0.000241531
0.000530903
-2.58385e-05
-0.00028011
0.000489133
-1.94014e-05
-0.000314664
0.00045004
-1.32941e-05
-0.000346222
0.000414601
-7.89765e-06
-0.000375473
0.000383027
-3.38199e-06
-0.00040345
0.000356369
2.41669e-07
-0.000431568
0.00033589
3.10807e-06
-0.000462692
0.000324789
5.5769e-06
-0.000501719
0.000327432
8.49154e-06
-0.000559374
0.00035292
1.40616e-05
-0.000649395
0.000404805
2.79492e-05
-0.000795191
0.000483433
6.46576e-05
-0.000983084
0.000496359
0.000153504
-0.00119601
0.000312039
0.000324101
-0.00123437
-0.000536752
0.000523492
-0.000788395
-0.00215985
0.000457216
-0.00404322
-0.000107971
-5.59751e-05
0.000445822
-4.6213e-05
-0.0001559
0.000682889
-4.77368e-05
-0.000232188
0.000659396
-4.06147e-05
-0.000287625
0.000597562
-2.96141e-05
-0.00032726
0.000537595
-1.9862e-05
-0.000356016
0.00048495
-1.09192e-05
-0.000377741
0.000439744
-3.21857e-06
-0.000394309
0.000400815
2.9827e-06
-0.000407223
0.000368408
7.8662e-06
-0.000416641
0.000342278
1.18334e-05
-0.000423219
0.000325887
1.55144e-05
-0.000426832
0.000322232
2.05477e-05
-0.000432676
0.000344613
3.13223e-05
-0.000442099
0.000391927
5.8026e-05
-0.000482218
0.000488775
0.000124075
-0.000551113
0.000515816
0.000265717
-0.000679119
0.000379339
0.00050921
-0.000764709
-0.000500909
0.000701055
-0.000464655
-0.0023897
0.000417737
-0.00447245
-0.00032112
-0.000199522
0.000652823
-5.83789e-05
-0.000254388
0.000749815
-6.95839e-05
-0.000300545
0.000718335
-6.2048e-05
-0.000337754
0.000646472
-4.66037e-05
-0.00035158
0.000561592
-2.92036e-05
-0.000349593
0.000490783
-1.3639e-05
-0.000338004
0.000433017
-5.77145e-07
-0.000318915
0.00038407
9.13834e-06
-0.000295687
0.000344858
1.65628e-05
-0.000267205
0.000310747
2.17616e-05
-0.000235129
0.00028774
2.56986e-05
-0.00019362
0.000270806
2.9801e-05
-0.000141657
0.0002769
3.90886e-05
-7.04085e-05
0.000296606
6.4336e-05
3.56288e-05
0.00035085
0.000124176
0.000136825
0.000372977
0.000254423
0.000280052
0.00020899
0.00043813
0.000228183
-0.000466084
0.000588229
0.000233792
-0.00232408
0.000219404
-0.00429109
-0.000474766
-0.00066081
0.00129674
-0.000136258
-0.000622002
0.000722982
-0.000111123
-0.000489536
0.000601987
-8.12001e-05
-0.00030668
0.000483431
-5.16713e-05
-0.000116435
0.000390905
-2.88888e-05
6.82407e-05
0.000322804
-9.13374e-06
0.000240569
0.000274348
7.26629e-06
0.000398794
0.00023611
1.99234e-05
0.000543457
0.000206742
2.98437e-05
0.00067481
0.000182083
3.65093e-05
0.000797439
0.000164204
4.00298e-05
0.000914171
0.000148962
4.03459e-05
0.0010384
0.000143278
4.11501e-05
0.001179
0.000140292
4.08335e-05
0.0013794
0.000133869
5.94436e-05
0.00162273
0.000108751
0.00011327
0.00189264
-5.10282e-05
0.00014599
0.00193388
-0.000458998
0.000253249
0.00133606
-0.00169428
4.87426e-05
-0.0031096
-0.000556221
0.00127334
-0.000122072
0.00198156
-0.000136621
0.0025751
-0.000136227
0.00305874
-0.000126347
0.00345696
-0.000111661
0.00379134
-9.7207e-05
0.00407981
-8.06965e-05
0.00433015
-6.50015e-05
0.00455148
-4.97688e-05
0.00474524
-3.39089e-05
0.00491959
-2.23862e-05
0.0050759
-8.89511e-06
0.00522105
-9.47095e-07
0.00536438
5.86192e-06
0.00549197
1.69127e-05
0.00560348
1.28601e-05
0.00554965
3.59159e-05
0.00509541
-1.0711e-05
0.00339254
-7.75798e-05
-0.000575732
-4.67925e-06
4.78157e-06
-6.77766e-07
-1.45823e-05
1.02667e-05
-6.43748e-07
-2.57062e-05
1.15505e-05
-5.47118e-07
-3.66926e-05
1.14279e-05
-4.60035e-07
-4.71242e-05
1.08586e-05
-4.2285e-07
-5.67791e-05
1.0054e-05
-4.30658e-07
-6.54382e-05