/*--------------------------------*- C++ -*----------------------------------*\
  =========                 |
  \\      /  F ield         | OpenFOAM: The Open Source CFD Toolbox
   \\    /   O peration     | Website:  https://openfoam.org
    \\  /    A nd           | Version:  10
     \\/     M anipulation  |
\*---------------------------------------------------------------------------*/
FoamFile
{
    format      ascii;
    class       surfaceScalarField;
    location    "1.45";
    object      phi;
}
// * * * * * * * * * * * * * * * * * * * * * * * * * * * * * * * * * * * * * //

dimensions      [0 3 -1 0 0 0 0];

internalField   nonuniform List<scalar> 
760
(
-1.41241e-05
1.4124e-05
-3.25006e-05
1.83766e-05
-5.04851e-05
1.79845e-05
-6.72332e-05
1.67481e-05
-8.2311e-05
1.50778e-05
-9.53519e-05
1.30409e-05
-0.000106038
1.06864e-05
-0.000114103
8.06517e-06
-0.000119334
5.23052e-06
-0.000121572
2.23775e-06
-0.000120717
-8.54557e-07
-0.000116734
-3.98364e-06
-0.000109655
-7.07828e-06
-9.95944e-05
-1.00609e-05
-8.67488e-05
-1.28456e-05
-7.14089e-05
-1.53399e-05
-5.39615e-05
-1.74474e-05
-3.49137e-05
-1.90478e-05
-1.52555e-05
-1.96581e-05
-1.52555e-05
-1.90448e-05
3.31688e-05
-4.30813e-05
4.24131e-05
-6.6557e-05
4.14602e-05
-8.83972e-05
3.85883e-05
-0.000108028
3.47085e-05
-0.000124971
2.99842e-05
-0.000138819
2.45341e-05
-0.000149234
1.84798e-05
-0.000155949
1.19456e-05
-0.000158768
5.0572e-06
-0.00015758
-2.04303e-06
-0.000152335
-9.22821e-06
-0.000143087
-1.63262e-05
-0.000129982
-2.31655e-05
-0.000113276
-2.95517e-05
-9.3342e-05
-3.52743e-05
-7.06787e-05
-4.01107e-05
-4.59457e-05
-4.37809e-05
-2.03915e-05
-4.52123e-05
-3.5647e-05
-2.03203e-05
5.34891e-05
-4.59482e-05
6.8041e-05
-7.09468e-05
6.64588e-05
-9.4183e-05
6.18245e-05
-0.000115054
5.55799e-05
-0.000133062
4.79916e-05
-0.000147783
3.92549e-05
-0.000158869
2.95664e-05
-0.000166048
1.91244e-05
-0.000169121
8.13028e-06
-0.000167947
-3.21718e-06
-0.000162482
-1.4693e-05
-0.000152763
-2.60453e-05
-0.000138923
-3.70059e-05
-0.000121208
-4.72661e-05
-9.99959e-05
-5.64865e-05
-7.58034e-05
-6.43032e-05
-4.93287e-05
-7.02556e-05
-2.19092e-05
-7.26318e-05
-5.75563e-05
-2.16932e-05
7.51822e-05
-4.90699e-05
9.54178e-05
-7.57488e-05
9.31376e-05
-0.000100523
8.65983e-05
-0.000122758
7.78149e-05
-0.000141937
6.71711e-05
-0.00015763
5.49476e-05
-0.000169484
4.14209e-05
-0.000177223
2.68633e-05
-0.000180639
1.15458e-05
-0.000179584
-4.27183e-06
-0.000173982
-2.02955e-05
-0.000163844
-3.6183e-05
-0.000149273
-5.15771e-05
-0.000130488
-6.60506e-05
-0.000107853
-7.91219e-05
-8.18949e-05
-9.02612e-05
-5.336e-05
-9.87905e-05
-2.3713e-05
-0.000102279
-8.12692e-05
-2.35967e-05
9.87789e-05
-5.33786e-05
0.0001252
-8.23624e-05
0.000122121
-0.000109235
0.000113471
-0.00013332
0.0001019
-0.000154082
8.79326e-05
-0.000171082
7.19484e-05
-0.000183973
5.43111e-05
-0.000192476
3.53666e-05
-0.000196378
1.54481e-05
-0.000195518
-5.13218e-06
-0.000189778
-2.60358e-05
-0.000179128
-4.68326e-05
-0.000163619
-6.70863e-05
-0.00014342
-8.62496e-05
-0.000118861
-0.000103681
-9.04723e-05
-0.000118649
-5.90619e-05
-0.000130201
-2.62792e-05
-0.000135062
-0.000107548
-2.61237e-05
0.000124903
-5.90815e-05
0.000158158
-9.10896e-05
0.000154129
-0.000120692
0.000143074
-0.000147163
0.000128371
-0.000169946
0.000110716
-0.00018861
9.06118e-05
-0.000202817
6.85178e-05
-0.000212302
4.4852e-05
-0.000216853
1.99991e-05
-0.000216292
-5.69355e-06
-0.000210447
-3.18804e-05
-0.000199227
-5.80524e-05
-0.000182599
-8.37142e-05
-0.000160646
-0.000108203
-0.000133629
-0.000130698
-0.000102059
-0.000150219
-6.68106e-05
-0.00016545
-2.97855e-05
-0.000172087
-0.000137334
-2.93696e-05
0.000154272
-6.63853e-05
0.000195173
-0.000102221
0.000189965
-0.000135238
0.000176091
-0.000164651
0.000157784
-0.000189899
0.000135964
-0.000210571
0.000111284
-0.000226367
8.4314e-05
-0.000237055
5.55402e-05
-0.000242436
2.53801e-05
-0.000242322
-5.80752e-06
-0.000236472
-3.77309e-05
-0.000224702
-6.98223e-05
-0.000206854
-0.000101562
-0.000182865
-0.000132191
-0.000152866
-0.000160697
-0.000117297
-0.000185789
-7.70857e-05
-0.000205661
-3.44672e-05
-0.000214705
-0.000171801
-3.34718e-05
0.000187744
-7.55794e-05
0.000237281
-0.000116155
0.00023054
-0.000153327
0.000213263
-0.000186254
0.000190711
-0.00021439
0.0001641
-0.000237387
0.00013428
-0.000255018
0.000101945
-0.000267119
6.76411e-05
-0.00027353
3.17909e-05
-0.000274067
-5.26998e-06
-0.000268403
-4.3395e-05
-0.000256227
-8.19979e-05
-0.000237193
-0.000120596
-0.000211005
-0.000158379
-0.000177555
-0.000194147
-0.000137112
-0.000226233
-9.06044e-05
-0.000252168
-4.06893e-05
-0.00026462
-0.00021249
-3.86334e-05
0.000226377
-8.70805e-05
0.000285728
-0.000133447
0.000276907
-0.000175575
0.000255391
-0.00021258
0.000227716
-0.000243982
0.000195502
-0.000269551
0.00015985
-0.000289202
0.000121596
-0.000302892
8.1331e-05
-0.000310541
3.94399e-05
-0.000312001
-3.81025e-06
-0.000306843
-4.85525e-05
-0.000294595
-9.42463e-05
-0.000274631
-0.000140561
-0.000246295
-0.000186715
-0.00020907
-0.000231372
-0.000162862
-0.000272441
-0.000108464
-0.000306566
-4.90378e-05
-0.000324047
-0.000261528
-4.51643e-05
0.000271542
-0.0001015
0.000342063
-0.000154888
0.000330295
-0.000202823
0.000303325
-0.000244424
0.000269317
-0.00027936
0.000230439
-0.000307625
0.000188114
-0.000329366
0.000143338
-0.000344747
9.67125e-05
-0.000353831
4.85239e-05
-0.000356553
-1.0882e-06
-0.000352392
-5.27144e-05
-0.000340675
-0.000105962
-0.000320395
-0.00016084
-0.000290345
-0.000216765
-0.000249334
-0.000272383
-0.00019657
-0.000325205
-0.000132386
-0.00037075
-6.04961e-05
-0.000395936
-0.000322024
-5.35543e-05
0.000325096
-0.000119755
0.000408264
-0.000181617
0.000392157
-0.000236231
0.000357939
-0.000282825
0.000315911
-0.000321367
0.00026898
-0.000352226
0.000218974
-0.000375932
0.000167043
-0.000392971
0.000113751
-0.00040364
5.9193e-05
-0.000408016
3.28817e-06
-0.000405549
-5.5181e-05
-0.000395344
-0.000116168
-0.000375904
-0.00018028
-0.000345227
-0.000247442
-0.000301039
-0.000316571
-0.000241288
-0.000384956
-0.000165153
-0.000446885
-7.68074e-05
-0.000484282
-0.000398832
-6.4612e-05
0.000389708
-0.000143261
0.000486913
-0.000215311
0.000464207
-0.000277419
0.000420047
-0.00032915
0.000367642
-0.000371022
0.000310852
-0.000404016
0.000251968
-0.000429237
0.000192264
-0.000447669
0.000132183
-0.000459982
7.15059e-05
-0.000466385
9.69105e-06
-0.000466567
-5.49987e-05
-0.000459332
-0.000123403
-0.000442657
-0.000196955
-0.000413509
-0.00027659
-0.000367942
-0.000362138
-0.000301702
-0.000451195
-0.000211413
-0.000537175
-0.000101271
-0.000594424
-0.000500103
-7.974e-05
0.000469448
-0.000174258
0.000581431
-0.000258473
0.000548422
-0.000328666
0.00049024
-0.00038521
0.000424186
-0.000429561
0.000355203
-0.000463651
0.000286058
-0.000489443
0.000218057
-0.000508624
0.000151364
-0.000522383
8.52653e-05
-0.000531273
1.85807e-05
-0.000535229
-5.10423e-05
-0.000532977
-0.000125655
-0.00052201
-0.000207922
-0.000498139
-0.000300462
-0.000455157
-0.00040512
-0.000385098
-0.000521254
-0.00027921
-0.000643063
-0.000140622
-0.000733012
-0.000640725
-0.000101541
0.000570989
-0.000216426
0.000696317
-0.000314903
0.000646898
-0.000393203
0.000568541
-0.00045338
0.000484362
-0.000498418
0.000400242
-0.000531717
0.000319357
-0.000556435
0.000242774
-0.000575176
0.000170105
-0.000589845
9.99345e-05
-0.000601479
3.02143e-05
-0.000610463
-4.2058e-05
-0.000615758
-0.00012036
-0.000614685
-0.000208996
-0.000602095
-0.000313052
-0.000569179
-0.000438036
-0.000502812
-0.000587621
-0.000382926
-0.000762948
-0.000210599
-0.000905339
-0.000851324
-0.000134021
0.00070501
-0.000275238
0.000837534
-0.000390177
0.000761838
-0.000475533
0.000653897
-0.00053668
0.000545509
-0.000579173
0.000442734
-0.000608592
0.000348776
-0.000629652
0.000263834
-0.000646042
0.000186494
-0.000660491
0.000114384
-0.00067476
4.44835e-05
-0.000689858
-2.69607e-05
-0.000705573
-0.000104645
-0.000719774
-0.000194795
-0.000727353
-0.000305472
-0.000717139
-0.000448251
-0.000671007
-0.000633752
-0.000547386
-0.000886569
-0.000339756
-0.00111297
-0.00119108
-0.000196667
0.000901677
-0.000364744
0.00100561
-0.000494416
0.00089151
-0.000582086
0.000741567
-0.000638777
0.0006022
-0.000673264
0.000477221
-0.000694045
0.000369557
-0.000707649
0.000277439
-0.000718887
0.000197733
-0.00073127
0.000126766
-0.000747335
6.05492e-05
-0.000768839
-5.45663e-06
-0.000797353
-7.61313e-05
-0.000832302
-0.000159846
-0.000871404
-0.000266369
-0.000901439
-0.000418215
-0.000908004
-0.000627188
-0.000806132
-0.000988442
-0.000586711
-0.00133239
-0.00177779
-0.000246446
0.00114812
-0.000473312
0.00123248
-0.000630737
0.00104893
-0.000718487
0.000829317
-0.000761817
0.000645531
-0.00077906
0.000494464
-0.000783646
0.000374143
-0.000784083
0.000277876
-0.000785919
0.000199569
-0.000792951
0.000133798
-0.000808089
7.56875e-05
-0.000834827
2.1281e-05
-0.000875717
-3.52406e-05
-0.000932893
-0.00010267
-0.00101487
-0.000184394
-0.00110125
-0.000331837
-0.00121796
-0.000510474
-0.00118756
-0.00101884
-0.000987707
-0.00153225
-0.0027655
-0.000562834
0.00171096
-0.00073962
0.00140926
-0.000838245
0.00114756
-0.000877768
0.00086884
-0.000871606
0.000639369
-0.000846405
0.000469262
-0.000816911
0.000344649
-0.000790822
0.000251787
-0.000772994
0.000181742
-0.00076653
0.000127334
-0.000774482
8.3639e-05
-0.000799758
4.65577e-05
-0.000847689
1.26902e-05
-0.000926423
-2.3936e-05
-0.00105043
-6.03887e-05
-0.00120255
-0.000179713
-0.0014037
-0.000309326
-0.00145318
-0.000969365
-0.00117245
-0.00181298
-0.00393794
-0.0010458
0.00275676
-0.000970633
0.00133409
-0.000790227
0.000967154
-0.000582498
0.000661111
-0.000383679
0.00044055
-0.000215795
0.000301378
-8.42587e-05
0.000213113
1.40248e-05
0.000153503
8.46791e-05
0.000111087
0.000131838
8.01756e-05
0.000158484
5.69929e-05
0.000166987
3.8054e-05
0.000157148
2.25292e-05
0.000128357
4.85528e-06
9.6741e-05
-2.87727e-05
8.48816e-06
-9.146e-05
1.19628e-05
-0.000312801
-0.000183413
-0.000773989
-8.92852e-05
-0.0019071
-0.00402723
0.00275676
0.00409085
0.00505801
0.00571912
0.00615967
0.00646104
0.00667416
0.00682766
0.00693875
0.00701892
0.00707592
0.00711397
0.0071365
0.00714135
0.00711258
0.00702112
0.00670832
0.00593433
0.00402723
)
;

boundaryField
{
    movingWall
    {
        type            calculated;
        value           uniform 0;
    }
    fixedWalls
    {
        type            calculated;
        value           uniform 0;
    }
    frontAndBack
    {
        type            empty;
        value           nonuniform List<scalar> 0();
    }
}


// ************************************************************************* //
