/*--------------------------------*- C++ -*----------------------------------*\
  =========                 |
  \\      /  F ield         | OpenFOAM: The Open Source CFD Toolbox
   \\    /   O peration     | Website:  https://openfoam.org
    \\  /    A nd           | Version:  10
     \\/     M anipulation  |
\*---------------------------------------------------------------------------*/
FoamFile
{
    format      ascii;
    class       surfaceScalarField;
    location    "9.8";
    object      phi;
}
// * * * * * * * * * * * * * * * * * * * * * * * * * * * * * * * * * * * * * //

dimensions      [0 3 -1 0 0 0 0];

internalField   nonuniform List<scalar> 
760
(
-1.44104e-05
1.44104e-05
-4.67724e-05
3.2362e-05
-8.58905e-05
3.91181e-05
-0.000127515
4.16243e-05
-0.000170467
4.29522e-05
-0.000214559
4.40921e-05
-0.000259579
4.50198e-05
-0.000304856
4.52773e-05
-0.000349006
4.41501e-05
-0.000389675
4.06689e-05
-0.000423314
3.36385e-05
-0.000445086
2.17724e-05
-0.000449082
3.99647e-06
-0.000428921
-2.01617e-05
-0.000379934
-4.89869e-05
-0.000301948
-7.79856e-05
-0.00020303
-9.89178e-05
-0.000101631
-0.000101399
-2.40913e-05
-7.75401e-05
-2.40913e-05
-3.55534e-05
4.99638e-05
-0.00010034
9.71486e-05
-0.000176456
0.000115235
-0.000256846
0.000122014
-0.000338962
0.000125068
-0.000421722
0.000126852
-0.000504044
0.000127343
-0.00058418
0.000125412
-0.000659306
0.000119277
-0.000725205
0.000106568
-0.000776017
8.445e-05
-0.000804075
4.9831e-05
-0.000801236
1.15744e-06
-0.000758065
-6.33325e-05
-0.000668375
-0.000138678
-0.000532548
-0.000213813
-0.000363154
-0.000268312
-0.000189476
-0.000275077
-5.35162e-05
-0.0002135
-7.76075e-05
-4.5654e-05
9.56178e-05
-0.000126216
0.000177711
-0.00021987
0.000208889
-0.000318104
0.000220247
-0.000417838
0.000224802
-0.000517705
0.000226719
-0.000616395
0.000226033
-0.000711931
0.000220948
-0.000801231
0.000208577
-0.000879726
0.000185062
-0.000940991
0.000145715
-0.000976742
8.55825e-05
-0.000976628
1.04286e-06
-0.000928616
-0.000111344
-0.000823009
-0.000244284
-0.000656917
-0.000379905
-0.000443599
-0.000481629
-0.000223156
-0.00049552
-5.75045e-05
-0.000379151
-0.000135112
-4.96206e-05
0.000145238
-0.000137075
0.000265165
-0.000238432
0.000310246
-0.000344558
0.000326372
-0.000452376
0.000332621
-0.000560741
0.000335084
-0.000668691
0.000333983
-0.000774716
0.000326974
-0.000876291
0.000310152
-0.000969375
0.000278146
-0.00104777
0.000224113
-0.00110241
0.00014022
-0.00112097
1.96009e-05
-0.00108715
-0.000145168
-0.000982661
-0.000348768
-0.000794572
-0.000567994
-0.000530623
-0.000745578
-0.000247106
-0.000779038
-4.89091e-05
-0.000577348
-0.000184021
-5.03646e-05
0.000195603
-0.000140085
0.000354885
-0.000244358
0.000414519
-0.00035388
0.000435895
-0.000465869
0.00044461
-0.000579746
0.000448961
-0.000695346
0.000449582
-0.0008122
0.000443828
-0.000929034
0.000426985
-0.00104312
0.000392229
-0.00114931
0.000330305
-0.00123865
0.00022956
-0.0012964
7.7356e-05
-0.00130106
-0.000140508
-0.00122053
-0.000429307
-0.0010198
-0.000768722
-0.000686563
-0.00107881
-0.000296535
-0.00116907
-3.68117e-05
-0.000837071
-0.000220833
-4.94485e-05
0.000245051
-0.000139014
0.00044445
-0.00024379
0.000519295
-0.000354506
0.000546611
-0.000468807
0.000558911
-0.000586902
0.000567057
-0.000709782
0.000572462
-0.000838528
0.000572574
-0.000973871
0.000562329
-0.00111549
0.000533851
-0.00126086
0.000475671
-0.00140333
0.000372034
-0.00152875
0.000202769
-0.00161258
-5.6677e-05
-0.00160088
-0.000441001
-0.00141572
-0.000953886
-0.000996008
-0.00149852
-0.000435846
-0.00172923
-4.49661e-05
-0.00122795
-0.000265799
-4.75474e-05
0.000292599
-0.0001355
0.000532403
-0.000239241
0.000623036
-0.000349579
0.000656949
-0.000464609
0.00067394
-0.000585421
0.000687869
-0.000714396
0.000701437
-0.000854663
0.00071284
-0.00100983
0.000717494
-0.00118358
0.000707607
-0.00137882
0.000670904
-0.00159592
0.000589138
-0.00182831
0.000435157
-0.00204946
0.000164476
-0.00218034
-0.00031012
-0.00206229
-0.00107194
-0.00156197
-0.00199884
-0.000793915
-0.00249728
-0.000151734
-0.00187013
-0.000417533
-4.4901e-05
0.0003375
-0.000130125
0.000617627
-0.000231473
0.000724385
-0.000339742
0.000765218
-0.000453386
0.000787584
-0.000574335
0.000808818
-0.000706398
0.0008335
-0.000854996
0.000861439
-0.00102742
0.000889914
-0.00123316
0.00091335
-0.00148417
0.000921913
-0.0017946
0.000899571
-0.00217407
0.000814619
-0.00259239
0.000582801
-0.00292829
2.57817e-05
-0.00292278
-0.00107745
-0.00241039
-0.00251123
-0.00150931
-0.00339837
-0.00049298
-0.00288646
-0.000910513
-4.16586e-05
0.000379158
-0.000123205
0.000699173
-0.000220767
0.000821946
-0.000324926
0.000869377
-0.00043427
0.000896928
-0.000551348
0.000925897
-0.000681172
0.000963324
-0.000831272
0.00101154
-0.00101265
0.00107129
-0.00124151
0.00114221
-0.00154166
0.00122206
-0.00194386
0.00130177
-0.0024711
0.00134186
-0.00307954
0.00119124
-0.00357547
0.000521712
-0.00369763
-0.000955284
-0.00331982
-0.00288905
-0.00246501
-0.00425317
-0.00110544
-0.00424603
-0.00201595
-3.81034e-05
0.000417262
-0.000115314
0.000776384
-0.000207742
0.000914374
-0.00030548
0.000967116
-0.000406914
0.000998361
-0.000514797
0.00103378
-0.000634729
0.00108326
-0.000775449
0.00115226
-0.000950394
0.00124624
-0.0011805
0.00137232
-0.00149759
0.00153914
-0.00194052
0.00174471
-0.0025242
0.00192554
-0.00317526
0.00184229
-0.00369259
0.00103904
-0.00387248
-0.000775399
-0.00369701
-0.00306451
-0.00307269
-0.00487749
-0.0017225
-0.00559622
-0.00373846
-3.47813e-05
0.000452043
-0.000107585
0.000849188
-0.000193834
0.00100062
-0.000282824
0.00105611
-0.000372384
0.00108792
-0.000464886
0.00112628
-0.000565455
0.00118383
-0.000682147
0.00126895
-0.000827396
0.00139148
-0.00102025
0.00156518
-0.00128763
0.00180653
-0.00165633
0.0021134
-0.00212048
0.00238969
-0.00259846
0.00232027
-0.00296628
0.00140687
-0.00313569
-0.000605994
-0.00314413
-0.00305607
-0.00284251
-0.00517912
-0.00185099
-0.00658774
-0.00558945
-3.27811e-05
0.000484824
-0.00010221
0.000918616
-0.000181839
0.00108025
-0.00026002
0.00113429
-0.000333973
0.00116187
-0.00040521
0.00119752
-0.000477269
0.00125588
-0.000555342
0.00134702
-0.000646732
0.00148287
-0.000761085
0.00167953
-0.000909022
0.00195446
-0.00109493
0.00229931
-0.00130713
0.00260189
-0.00150558
0.00251871
-0.00167145
0.00157275
-0.00181022
-0.000467224
-0.00197715
-0.00288914
-0.00204111
-0.00511516
-0.00150804
-0.00712081
-0.00709748
-3.32914e-05
0.000518116
-0.000101719
0.000987044
-0.000175519
0.00115405
-0.000242084
0.00120085
-0.000297958
0.00121775
-0.000343726
0.00124329
-0.000381056
0.00129321
-0.000411384
0.00137735
-0.000435459
0.00150695
-0.000451741
0.00169581
-0.000454636
0.00195736
-0.000430764
0.00227544
-0.000378458
0.00254958
-0.000321513
0.00246177
-0.000329259
0.00158049
-0.000490642
-0.000305841
-0.000836867
-0.00254291
-0.0012136
-0.00473842
-0.00109083
-0.00724358
-0.00818832
-4.06208e-05
0.000558736
-0.000113228
0.00105965
-0.000181724
0.00122255
-0.000234536
0.00125366
-0.000270052
0.00125326
-0.00028868
0.00126192
-0.000289977
0.00129451
-0.00027209
0.00135947
-0.000230467
0.00146533
-0.000155089
0.00162043
-2.92512e-05
0.00183152
0.000161341
0.00208485
0.000418764
0.00229216
0.000671847
0.00220869
0.000777929
0.00147441
0.000585158
-0.000113071
0.000105405
-0.00206316
-0.000560366
-0.00407265
-0.000771429
-0.00703251
-0.00895975
-5.09844e-05
0.000609721
-0.000132401
0.00114107
-0.000201519
0.00129167
-0.000247073
0.00129922
-0.000265246
0.00127144
-0.000257494
0.00125416
-0.000223853
0.00126087
-0.000161474
0.00129709
-6.38557e-05
0.00136771
8.09246e-05
0.00147565
0.00028831
0.00162414
0.000579409
0.00179375
0.000948559
0.00192301
0.00131465
0.00184259
0.00149852
0.00129054
0.00130609
7.93573e-05
0.000728882
-0.00148595
-0.000101735
-0.00324203
-0.000510453
-0.0066238
-0.0094702
-0.000118894
0.000728615
-0.000214316
0.00123649
-0.000266191
0.00134354
-0.000282685
0.00131571
-0.000271854
0.00126061
-0.000236465
0.00121877
-0.0001741
0.0011985
-7.92444e-05
0.00120223
5.61223e-05
0.00123234
0.000242426
0.00128935
0.000494317
0.00137224
0.000824464
0.0014636
0.00122056
0.00152692
0.00161168
0.00145147
0.00182511
0.00107711
0.001664
0.000240468
0.00107676
-0.000898712
0.000191809
-0.00235708
-0.000311751
-0.00612024
-0.00978195
-7.65068e-05
0.000805122
-0.000238935
0.00139892
-0.000329349
0.00143395
-0.000354648
0.00134101
-0.000333757
0.00123972
-0.000277415
0.00116243
-0.000188081
0.00110917
-6.26281e-05
0.00107678
0.00010444
0.00106527
0.000322365
0.00107143
0.000598411
0.0010962
0.000937947
0.00112407
0.00132309
0.00114177
0.00169681
0.00107775
0.00191702
0.000856898
0.00179248
0.000365016
0.00130343
-0.000409667
0.000548956
-0.00160261
6.45071e-05
-0.00563579
-0.00971744
-0.000373598
0.00117872
-0.000415486
0.00144081
-0.000440658
0.00145913
-0.000451467
0.00135182
-0.000413476
0.00120172
-0.000333466
0.00108242
-0.00021439
0.000990095
-5.39669e-05
0.000916355
0.000146921
0.000864384
0.000393857
0.00082449
0.000685233
0.000804822
0.00102188
0.000787422
0.00138403
0.000779625
0.00171986
0.00074192
0.00195354
0.000623213
0.00195041
0.000368151
0.00178791
-0.00024717
0.00144885
-0.00126354
0.000824595
-0.00501153
-0.00889285
-0.00136297
0.00254168
-0.00131943
0.00139727
-0.00104843
0.00118813
-0.000663866
0.000967258
-0.000259981
0.00079784
0.000147607
0.000674835
0.000548536
0.000589165
0.000943266
0.000521626
0.00133353
0.000474123
0.00172497
0.00043305
0.00212236
0.00040743
0.0025274
0.000382384
0.00294529
0.000361737
0.00335821
0.000329
0.00373418
0.000247242
0.00398986
0.000112472
0.00406667
-0.000323985
0.00393493
-0.0011318
0.00249942
-0.00357602
-0.00639343
0.00254168
0.00393895
0.00512708
0.00609434
0.00689218
0.00756701
0.00815618
0.0086778
0.00915193
0.00958498
0.00999241
0.0103748
0.0107365
0.0110655
0.0113128
0.0114252
0.0111013
0.00996945
0.00639343
)
;

boundaryField
{
    movingWall
    {
        type            calculated;
        value           uniform 0;
    }
    fixedWalls
    {
        type            calculated;
        value           uniform 0;
    }
    frontAndBack
    {
        type            empty;
        value           nonuniform List<scalar> 0();
    }
}


// ************************************************************************* //
