/*--------------------------------*- C++ -*----------------------------------*\
  =========                 |
  \\      /  F ield         | OpenFOAM: The Open Source CFD Toolbox
   \\    /   O peration     | Website:  https://openfoam.org
    \\  /    A nd           | Version:  10
     \\/     M anipulation  |
\*---------------------------------------------------------------------------*/
FoamFile
{
    format      ascii;
    class       volVectorField;
    location    "9.8";
    object      U;
}
// * * * * * * * * * * * * * * * * * * * * * * * * * * * * * * * * * * * * * //

dimensions      [0 1 -1 0 0 0 0];

internalField   nonuniform List<vector> 
400
(
(-0.000174255 0.000147284 0)
(-0.00132981 0.000486198 0)
(-0.00329412 0.000609346 0)
(-0.0053214 0.000653124 0)
(-0.007443 0.000681709 0)
(-0.00962398 0.000715718 0)
(-0.0118582 0.000754478 0)
(-0.0141271 0.000788893 0)
(-0.0163806 0.000804885 0)
(-0.0185265 0.000782457 0)
(-0.0204195 0.000695439 0)
(-0.021851 0.000514498 0)
(-0.0225499 0.00021451 0)
(-0.0221976 -0.000228025 0)
(-0.020495 -0.000784828 0)
(-0.0172853 -0.00136484 0)
(-0.0127562 -0.00179216 0)
(-0.00759606 -0.00184622 0)
(-0.00252274 -0.00135908 0)
(-3.59059e-05 -0.000270579 0)
(-0.000589406 0.00136304 0)
(-0.00306715 0.00285567 0)
(-0.00687386 0.00342566 0)
(-0.0108114 0.00364096 0)
(-0.0148931 0.00375002 0)
(-0.01903 0.00383329 0)
(-0.0231746 0.003889 0)
(-0.0272627 0.00387934 0)
(-0.0311824 0.0037451 0)
(-0.034759 0.00340701 0)
(-0.0377402 0.00276927 0)
(-0.0397875 0.00173009 0)
(-0.0405008 0.000202216 0)
(-0.039422 -0.00183048 0)
(-0.0361276 -0.00422681 0)
(-0.0304238 -0.00661503 0)
(-0.0226195 -0.00833063 0)
(-0.0137741 -0.00853519 0)
(-0.0051011 -0.00659569 0)
(-0.000476487 -0.00224442 0)
(-0.00078276 0.00359166 0)
(-0.00390432 0.00678497 0)
(-0.00860179 0.008008 0)
(-0.0134292 0.00846275 0)
(-0.0184024 0.00865552 0)
(-0.0234114 0.00874932 0)
(-0.0283968 0.00874367 0)
(-0.0332839 0.00856474 0)
(-0.0379494 0.0080953 0)
(-0.0422028 0.0071805 0)
(-0.0457701 0.00563552 0)
(-0.0482844 0.0032681 0)
(-0.0492748 -7.60582e-05 0)
(-0.0481688 -0.00440766 0)
(-0.0443878 -0.00947908 0)
(-0.0375481 -0.014552 0)
(-0.0278525 -0.0182572 0)
(-0.0166075 -0.0187136 0)
(-0.00569008 -0.0145029 0)
(-0.000317556 -0.00535928 0)
(-0.000849174 0.00600108 0)
(-0.00424333 0.0110307 0)
(-0.00933697 0.0129295 0)
(-0.0145534 0.0136134 0)
(-0.0199253 0.0138791 0)
(-0.0253464 0.0139802 0)
(-0.0307722 0.0139214 0)
(-0.0361492 0.0135972 0)
(-0.041381 0.0128362 0)
(-0.0463063 0.0114073 0)
(-0.0506706 0.00902466 0)
(-0.0540966 0.00537516 0)
(-0.0560528 0.000192667 0)
(-0.0558255 -0.00662229 0)
(-0.0525208 -0.0148183 0)
(-0.0452621 -0.0233282 0)
(-0.0337535 -0.0298682 0)
(-0.0194178 -0.0308198 0)
(-0.00547113 -0.0232969 0)
(0.000315886 -0.00802161 0)
(-0.000849575 0.00851531 0)
(-0.00431932 0.0154821 0)
(-0.00955732 0.0180915 0)
(-0.014928 0.0190225 0)
(-0.0204846 0.0193874 0)
(-0.0261405 0.0195426 0)
(-0.0318859 0.0195064 0)
(-0.0377136 0.0191501 0)
(-0.0435857 0.0182547 0)
(-0.0494094 0.0165123 0)
(-0.054995 0.0135199 0)
(-0.059993 0.00879366 0)
(-0.0638242 0.00184469 0)
(-0.06562 -0.0076728 0)
(-0.0640494 -0.0197231 0)
(-0.0573413 -0.0330946 0)
(-0.0439353 -0.0443648 0)
(-0.0247777 -0.0467838 0)
(-0.0053286 -0.0341227 0)
(0.00138989 -0.0101211 0)
(-0.000816725 0.0110203 0)
(-0.00425857 0.0199791 0)
(-0.00951045 0.0233329 0)
(-0.0149193 0.0245421 0)
(-0.0205565 0.0250555 0)
(-0.0263647 0.0253481 0)
(-0.0323827 0.0254675 0)
(-0.0386706 0.025278 0)
(-0.0452797 0.0245276 0)
(-0.052231 0.0228408 0)
(-0.0594666 0.0196903 0)
(-0.0667637 0.0143802 0)
(-0.0736265 0.00607339 0)
(-0.0791761 -0.00608258 0)
(-0.0815965 -0.0226225 0)
(-0.0775724 -0.0429798 0)
(-0.0628223 -0.0626631 0)
(-0.0367723 -0.0693422 0)
(-0.00756759 -0.0490637 0)
(0.00273429 -0.011689 0)
(-0.000764004 0.0134509 0)
(-0.00411661 0.024426 0)
(-0.00930261 0.0285556 0)
(-0.0146716 0.0300789 0)
(-0.0203094 0.0307993 0)
(-0.02619 0.0313301 0)
(-0.0324084 0.0317693 0)
(-0.0391089 0.0320012 0)
(-0.0464635 0.0317738 0)
(-0.0546628 0.0306784 0)
(-0.0638847 0.0280942 0)
(-0.0742285 0.0231307 0)
(-0.0855961 0.0145585 0)
(-0.09736 0.000702679 0)
(-0.107331 -0.0205589 0)
(-0.109493 -0.0508814 0)
(-0.0947773 -0.0852982 0)
(-0.0614362 -0.102023 0)
(-0.0190115 -0.0729731 0)
(0.00309423 -0.0150015 0)
(-0.000695686 0.0157663 0)
(-0.0039138 0.0287623 0)
(-0.00897046 0.033692 0)
(-0.0142239 0.0355564 0)
(-0.0197668 0.0365324 0)
(-0.0256013 0.0373944 0)
(-0.0318766 0.0383177 0)
(-0.038826 0.0392435 0)
(-0.0467641 0.0399745 0)
(-0.0561068 0.0401504 0)
(-0.0673845 0.0391762 0)
(-0.0812661 0.0361305 0)
(-0.09853 0.0295163 0)
(-0.119348 0.0163289 0)
(-0.140507 -0.00932419 0)
(-0.151277 -0.0539335 0)
(-0.138212 -0.111289 0)
(-0.102246 -0.14495 0)
(-0.049779 -0.113005 0)
(-0.00102253 -0.0277351 0)
(-0.000614759 0.0179332 0)
(-0.00366262 0.0329375 0)
(-0.0085324 0.0386748 0)
(-0.0135851 0.0408835 0)
(-0.0189101 0.042132 0)
(-0.0245263 0.0433805 0)
(-0.0306247 0.0449124 0)
(-0.0375142 0.0467702 0)
(-0.0456415 0.0488852 0)
(-0.0556575 0.0510741 0)
(-0.0685073 0.0529836 0)
(-0.0855801 0.053945 0)
(-0.108821 0.0522661 0)
(-0.139161 0.0424531 0)
(-0.17085 0.0121027 0)
(-0.18802 -0.0522405 0)
(-0.179156 -0.137294 0)
(-0.149875 -0.19153 0)
(-0.0968202 -0.172948 0)
(-0.0151674 -0.0625754 0)
(-0.000527851 0.0199274 0)
(-0.00338571 0.0369104 0)
(-0.00802203 0.0434361 0)
(-0.0127833 0.0459531 0)
(-0.0177442 0.0474371 0)
(-0.0229219 0.0490583 0)
(-0.0285223 0.0512356 0)
(-0.0348913 0.0541566 0)
(-0.04255 0.0579621 0)
(-0.0523014 0.0627959 0)
(-0.0653779 0.0687883 0)
(-0.0835943 0.0756932 0)
(-0.109484 0.0811003 0)
(-0.143609 0.0753421 0)
(-0.177986 0.0384658 0)
(-0.195155 -0.0456096 0)
(-0.191341 -0.154828 0)
(-0.173312 -0.234027 0)
(-0.130729 -0.247884 0)
(-0.0382364 -0.134725 0)
(-0.000448082 0.0217434 0)
(-0.00312624 0.040655 0)
(-0.00750772 0.0479032 0)
(-0.0118948 0.0506329 0)
(-0.0163397 0.052241 0)
(-0.020833 0.0541221 0)
(-0.0255588 0.0568392 0)
(-0.0308324 0.0607421 0)
(-0.0371286 0.0662187 0)
(-0.0451833 0.0738082 0)
(-0.0561216 0.0841816 0)
(-0.0713898 0.0972958 0)
(-0.0926707 0.109106 0)
(-0.119693 0.105367 0)
(-0.145145 0.0617338 0)
(-0.156904 -0.0357644 0)
(-0.157781 -0.159179 0)
(-0.15056 -0.261652 0)
(-0.129275 -0.316209 0)
(-0.0503123 -0.239097 0)
(-0.000402175 0.0234228 0)
(-0.00296912 0.0442193 0)
(-0.0071204 0.0520907 0)
(-0.0110697 0.0548779 0)
(-0.0148604 0.0564095 0)
(-0.0184407 0.058313 0)
(-0.0219399 0.0612834 0)
(-0.0255712 0.0657986 0)
(-0.029628 0.072433 0)
(-0.0345146 0.0819887 0)
(-0.0407706 0.0953934 0)
(-0.0488498 0.112397 0)
(-0.0592663 0.127482 0)
(-0.071792 0.123675 0)
(-0.0832708 0.0761934 0)
(-0.088141 -0.0265928 0)
(-0.0938534 -0.150941 0)
(-0.0985639 -0.263415 0)
(-0.103063 -0.351912 0)
(-0.0413994 -0.327738 0)
(-0.000421754 0.025021 0)
(-0.00300548 0.0475522 0)
(-0.00701923 0.0557784 0)
(-0.0105289 0.0583496 0)
(-0.0135888 0.05955 0)
(-0.0160947 0.0611874 0)
(-0.0181217 0.0640175 0)
(-0.019755 0.0685636 0)
(-0.021052 0.0754375 0)
(-0.0220044 0.0854384 0)
(-0.0224943 0.099404 0)
(-0.021998 0.116749 0)
(-0.0203437 0.131903 0)
(-0.0176827 0.127908 0)
(-0.0167678 0.0814203 0)
(-0.0178086 -0.0189874 0)
(-0.0318547 -0.135668 0)
(-0.0481868 -0.248456 0)
(-0.0746854 -0.363211 0)
(-0.0287437 -0.387766 0)
(-0.000620919 0.0268855 0)
(-0.00355689 0.0513348 0)
(-0.00758247 0.059827 0)
(-0.010575 0.0619487 0)
(-0.0127802 0.0623914 0)
(-0.0141165 0.0632291 0)
(-0.0146011 0.0652902 0)
(-0.0141897 0.0690865 0)
(-0.0127484 0.0751439 0)
(-0.00992978 0.0840524 0)
(-0.0052217 0.0963408 0)
(0.00258194 0.111296 0)
(0.0136827 0.124157 0)
(0.0278018 0.12043 0)
(0.036616 0.0795391 0)
(0.0394563 -0.0100673 0)
(0.017854 -0.1146 0)
(-0.0059178 -0.220516 0)
(-0.052868 -0.357946 0)
(-0.01922 -0.432898 0)
(-0.000960146 0.0292226 0)
(-0.00429125 0.0542456 0)
(-0.00870369 0.0619074 0)
(-0.0114918 0.0627767 0)
(-0.0130921 0.0623192 0)
(-0.0133255 0.0624276 0)
(-0.012289 0.0637363 0)
(-0.00992308 0.0665633 0)
(-0.00603781 0.0712523 0)
(-0.00015284 0.0781031 0)
(0.00841742 0.0873785 0)
(0.020908 0.0982308 0)
(0.037135 0.106975 0)
(0.0574354 0.103248 0)
(0.0708338 0.070941 0)
(0.0772745 -0.00042516 0)
(0.0510448 -0.0878997 0)
(0.0257773 -0.181518 0)
(-0.0376122 -0.3399 0)
(-0.00884078 -0.46446 0)
(-0.00304962 0.0310028 0)
(-0.00874799 0.0606883 0)
(-0.012424 0.0681655 0)
(-0.0140661 0.068338 0)
(-0.0141445 0.0659549 0)
(-0.0129886 0.0639913 0)
(-0.0105736 0.0631946 0)
(-0.00670444 0.0638567 0)
(-0.00110602 0.0661653 0)
(0.00682719 0.0701783 0)
(0.0176309 0.0759165 0)
(0.0322259 0.0823979 0)
(0.0499596 0.0870736 0)
(0.0719754 0.0831598 0)
(0.0862131 0.0602797 0)
(0.0954663 0.00909807 0)
(0.0679691 -0.0579498 0)
(0.0445665 -0.138891 0)
(-0.0282891 -0.320527 0)
(0.00162352 -0.48865 0)
(-0.00089463 0.0441486 0)
(-0.00720509 0.0616133 0)
(-0.0159387 0.0646858 0)
(-0.0174454 0.0611233 0)
(-0.0176929 0.0581335 0)
(-0.0156275 0.0561549 0)
(-0.0120052 0.0552307 0)
(-0.00668043 0.0552483 0)
(0.00050016 0.0562494 0)
(0.0100625 0.0582019 0)
(0.022313 0.0611114 0)
(0.037845 0.0641978 0)
(0.0553684 0.0660029 0)
(0.0769501 0.0622815 0)
(0.0901549 0.0472062 0)
(0.101181 0.014242 0)
(0.0749493 -0.0332678 0)
(0.0600347 -0.100154 0)
(-0.0109619 -0.298448 0)
(0.0201602 -0.498438 0)
(-0.0125858 0.0321369 0)
(-0.022824 0.0807782 0)
(-0.0200177 0.0812572 0)
(-0.0233781 0.0764181 0)
(-0.0222417 0.0689877 0)
(-0.0192782 0.0628611 0)
(-0.0141966 0.058036 0)
(-0.00715358 0.0543944 0)
(0.00180004 0.0519315 0)
(0.0130378 0.0503695 0)
(0.0263914 0.0497994 0)
(0.0424539 0.0494242 0)
(0.0589864 0.049407 0)
(0.0793147 0.0467841 0)
(0.0902626 0.039991 0)
(0.104857 0.0234511 0)
(0.0863179 -0.00636052 0)
(0.0959552 -0.0621156 0)
(0.0383974 -0.272255 0)
(0.0565273 -0.487925 0)
(-0.0777138 0.095667 0)
(-0.0631964 0.0587085 0)
(-0.0648324 0.0601007 0)
(-0.0418336 0.0535237 0)
(-0.0235992 0.0465258 0)
(-0.00253073 0.0413467 0)
(0.0173565 0.0375848 0)
(0.0376785 0.0344164 0)
(0.0565695 0.0321444 0)
(0.0771929 0.0300724 0)
(0.0950972 0.0289273 0)
(0.117923 0.027688 0)
(0.133614 0.0267485 0)
(0.161622 0.02514 0)
(0.170322 0.0193853 0)
(0.202153 0.0103553 0)
(0.188111 -0.0216455 0)
(0.220586 -0.0731335 0)
(0.153469 -0.251223 0)
(0.124273 -0.432228 0)
(0.119309 0.140678 0)
(0.151758 0.0859256 0)
(0.228152 0.0633823 0)
(0.283649 0.0479666 0)
(0.325162 0.0373823 0)
(0.363547 0.029646 0)
(0.392373 0.0242666 0)
(0.42366 0.0202063 0)
(0.443755 0.0173436 0)
(0.472397 0.0150105 0)
(0.485374 0.0133479 0)
(0.514733 0.0119196 0)
(0.520238 0.0108001 0)
(0.552159 0.00939936 0)
(0.54672 0.00737066 0)
(0.578101 0.00289242 0)
(0.545843 -0.00580314 0)
(0.551536 -0.0267391 0)
(0.418876 -0.0728964 0)
(0.274561 -0.15155 0)
)
;

boundaryField
{
    movingWall
    {
        type            fixedValue;
        value           uniform (1 0 0);
    }
    fixedWalls
    {
        type            noSlip;
    }
    frontAndBack
    {
        type            empty;
    }
}


// ************************************************************************* //
