/*--------------------------------*- C++ -*----------------------------------*\
  =========                 |
  \\      /  F ield         | OpenFOAM: The Open Source CFD Toolbox
   \\    /   O peration     | Website:  https://openfoam.org
    \\  /    A nd           | Version:  10
     \\/     M anipulation  |
\*---------------------------------------------------------------------------*/
FoamFile
{
    format      ascii;
    class       volScalarField;
    location    "5.65";
    object      p;
}
// * * * * * * * * * * * * * * * * * * * * * * * * * * * * * * * * * * * * * //

dimensions      [0 2 -2 0 0 0 0];

internalField   nonuniform List<scalar> 
496
(
23.86
24.2023
20.8825
14.5091
24.445
25.2652
21.1755
14.8595
29.4491
27.2924
18.6061
8.16417
37.9068
34.5698
30.6442
14.5335
5.7486
-3.93841
5.696
-3.56334
-7.3075
-12.744
-37.7109
-62.3183
-11.3885
-16.1447
-18.6158
-19.706
-11.295
-17.2207
-20.9528
-22.5698
-6.83102
-8.17737
-13.2468
-19.0723
-32.6726
-19.4591
-13.3106
-15.5061
-20.3208
-20.5394
-20.5394
-20.3
-20.1684
-19.7811
-18.9116
-17.5616
-15.8211
-14.5133
-13.628
-13.3125
-12.8584
-12.0645
-10.7933
-9.36798
-8.62786
-8.24796
-8.31781
-7.84819
-7.13567
-6.27713
-5.80609
-5.82204
-5.77871
-5.66162
-4.97934
-4.21464
-3.39713
-2.65949
-2.17385
-1.62519
-1.32331
-0.952458
-0.691545
-0.528903
-0.328269
-0.422767
-0.39047
-0.181725
-23.0229
-22.5736
-21.9332
-21.273
-20.6205
-19.6819
-18.5097
-17.1686
-15.6579
-14.7291
-13.7697
-13.1798
-12.5178
-11.8102
-10.7017
-9.37366
-8.6525
-8.11808
-8.04708
-7.39587
-6.67887
-6.20165
-5.66997
-5.89633
-5.68288
-5.6325
-4.96244
-4.23859
-3.46362
-2.6588
-2.15762
-1.39942
-1.24615
-0.806607
-0.801524
-0.556419
-0.309951
-0.400061
-0.254512
-0.177541
-22.6066
-23.9498
-23.7933
-23.119
-21.7564
-20.0397
-18.6208
-17.1855
-16.2962
-15.2066
-14.1312
-13.2276
-12.6507
-11.9843
-10.6124
-9.63265
-8.56133
-8.1694
-7.53497
-7.05779
-6.82948
-6.33031
-6.71003
-6.51857
-6.40399
-6.03921
-5.20356
-4.36216
-3.17329
-2.41726
-1.78669
-1.33937
-1.2074
-1.33491
-1.50439
-1.5429
-1.58765
-1.41501
-0.949103
-0.31787
-20.1039
-22.9644
-22.4501
-23.4988
-22.4501
-19.8067
-18.9179
-17.6723
-16.7674
-14.9643
-13.801
-12.6905
-12.5982
-12.0859
-10.8447
-10.1467
-8.57677
-7.84767
-6.06594
-5.50767
-5.55272
-5.60094
-6.65858
-6.60613
-7.32507
-6.39803
-5.77723
-4.80526
-3.14162
-2.16039
-0.414307
-0.623062
-0.43629
-0.950061
-1.52606
-1.85032
-2.55321
-2.02786
-1.49178
-0.703217
42.7676
44.0902
58.4439
70.5313
42.9134
45.1734
59.1388
71.6559
-33.4232
-36.5747
-30.4051
-29.3548
-30.5025
-42.7998
-32.9599
-18.3467
-23.0222
-21.8818
-25.6186
-25.2001
-21.5272
-20.9916
-20.9559
-18.5757
-15.9815
-15.0404
-13.646
-12.6748
-11.874
-11.142
-10.4115
-9.51521
-8.3413
-7.72302
-7.23378
-7.0291
-7.07335
-6.78076
-6.86693
-7.20368
-6.62393
-6.05606
-5.64243
-4.5722
-3.6136
-2.74874
-2.31412
-1.54974
-1.06884
-1.32224
-1.15216
-1.73267
-2.39344
-2.10961
-1.95888
-0.909672
-26.9837
-26.9527
-23.2814
-24.2863
-25.4998
-21.8139
-20.478
-19.1051
-17.3101
-16.1052
-13.589
-11.7564
-10.2355
-8.94382
-8.47568
-7.95919
-7.57122
-7.64534
-7.92094
-8.4817
-9.0838
-8.87868
-8.69212
-8.26084
-7.06434
-6.09349
-5.4717
-4.70492
-4.31439
-4.2229
-3.72423
-3.35579
-2.5575
-1.63868
-1.01414
-0.364041
-0.297862
-0.565256
-0.482816
-0.264766
38.7753
35.9759
32.8657
17.7081
31.7966
29.1889
20.9204
10.4774
26.857
26.8828
22.3101
15.9809
25.7995
25.7709
22.1109
15.9566
-30.8971
-57.003
-4.70256
-9.85192
6.98992
-2.14697
7.31971
-2.17363
-26.9985
-14.2742
-21.6532
-23.7218
-5.21024
-7.80475
-15.2376
-19.9575
-10.3663
-16.581
-20.5863
-22.7418
-9.74253
-14.9576
-17.9725
-19.6083
-20.0613
-21.5435
-22.2977
-21.1786
-21.0104
-21.4353
-20.8864
-19.3121
-17.0159
-15.3697
-13.0837
-11.298
-9.22282
-7.49603
-6.66729
-6.20669
-6.96905
-7.42435
-8.81157
-9.23509
-9.90348
-10.1489
-9.16859
-8.64388
-7.22371
-6.49539
-5.45216
-5.06216
-4.73073
-4.321
-4.55578
-3.43332
-2.6656
-0.226619
1.61988
2.39703
2.59835
1.39328
1.01099
0.489381
-21.5263
-21.9352
-22.1747
-21.9055
-21.318
-20.744
-19.8652
-18.6044
-16.8111
-15.0949
-13.2598
-11.6823
-10.5672
-9.80457
-8.9725
-8.02212
-7.95981
-8.06265
-8.72469
-9.14632
-9.27848
-9.30483
-8.37401
-7.65135
-6.66745
-6.18404
-5.65788
-5.14399
-4.73057
-3.92409
-3.66514
-2.69376
-1.99708
-1.09707
-0.187807
0.0354634
0.377841
0.223605
0.399497
0.277318
-23.2611
-22.8817
-22.1814
-21.4937
-20.6297
-19.7952
-18.8407
-17.7241
-16.476
-15.0301
-13.5055
-11.8288
-10.5498
-9.58076
-9.06453
-8.49669
-7.71523
-7.62896
-7.72393
-8.51709
-8.68212
-8.52088
-7.83911
-7.08131
-6.67842
-6.21887
-5.92532
-5.24117
-4.68968
-4.09482
-3.4863
-2.99297
-2.07058
-1.13976
-0.222305
0.404044
0.495456
0.662045
0.463833
0.29246
-20.3667
-20.6924
-20.5974
-20.4663
-20.061
-19.4096
-18.4618
-17.3422
-16.3146
-14.9903
-13.6567
-12.0679
-10.7988
-9.88205
-9.49366
-9.15646
-8.41677
-7.83961
-7.81479
-8.57201
-8.862
-8.51466
-7.75119
-6.95825
-6.69947
-6.27355
-5.98598
-5.2476
-4.59736
-3.98791
-3.30155
-2.80105
-1.98247
-1.36719
-0.580242
-0.154039
0.104711
0.239233
0.22349
0.131081
)
;

boundaryField
{
    inlet
    {
        type            zeroGradient;
    }
    outlet
    {
        type            fixedValue;
        value           uniform 0;
    }
    obstacle
    {
        type            zeroGradient;
    }
    upperWall
    {
        type            zeroGradient;
    }
    lowerWall
    {
        type            zeroGradient;
    }
    frontAndBack
    {
        type            empty;
    }
}


// ************************************************************************* //
