/*--------------------------------*- C++ -*----------------------------------*\
  =========                 |
  \\      /  F ield         | OpenFOAM: The Open Source CFD Toolbox
   \\    /   O peration     | Website:  https://openfoam.org
    \\  /    A nd           | Version:  10
     \\/     M anipulation  |
\*---------------------------------------------------------------------------*/
FoamFile
{
    format      ascii;
    class       surfaceScalarField;
    location    "5.65";
    object      phi;
}
// * * * * * * * * * * * * * * * * * * * * * * * * * * * * * * * * * * * * * //

dimensions      [0 3 -1 0 0 0 0];

internalField   nonuniform List<scalar> 
928
(
0.0957632
0.00423679
0.103221
-0.0074575
0.106814
-0.00359353
-0.00940854
0.116223
0.0947936
0.00944324
0.106204
-0.0188682
0.103128
-0.000517645
-0.0195859
0.113306
0.0960382
0.0134051
0.11015
-0.0329802
0.1045
0.00513263
-0.041564
0.126478
0.103019
0.0103864
0.0921617
-0.0221233
0.0977039
-0.000409562
0.146097
-0.0899575
0.111407
0.00481627
-0.0163392
0.127746
0.110164
0.00795805
-0.0419065
0.135731
0.128664
0.00577254
-0.0491655
0.135923
0.15187
0.102704
0.128026
-0.00028019
0.128021
4.86101e-06
0.129632
-0.00161113
-0.00132656
0.130959
0.137012
-0.0015613
0.136732
0.000285227
0.136779
-0.00165831
-0.0019967
0.137449
0.137893
-0.00353131
0.140493
-0.00231553
0.142283
-0.00344755
-0.000472217
0.140758
0.110041
-0.0108676
0.0887969
0.0189282
0.0919275
-0.00657816
0.0938452
-0.00238989
0.132129
-0.0011703
0.13263
-0.000500721
0.132446
0.000183851
0.131801
0.000644694
0.130293
0.0015081
0.129472
0.000820833
0.128079
0.00139326
0.127547
0.000532566
0.126575
0.000971562
0.125496
0.00107847
0.123922
0.00157444
0.121939
0.00198303
0.120435
0.00150432
0.117935
0.00250005
0.116289
0.00164529
0.1139
0.00238957
0.112328
0.00157165
0.110781
0.00154669
0.10971
0.00107172
0.109682
2.74912e-05
0.109645
3.6769e-05
0.11071
-0.00106488
0.11065
6.08122e-05
0.111057
-0.000407178
0.110463
0.000594073
0.109797
0.000666092
0.108673
0.00112326
0.10727
0.00140347
0.106362
0.000907861
0.105078
0.00128429
0.104922
0.000156056
0.104441
0.000480447
0.104533
-9.17932e-05
0.104093
0.000439804
0.103003
0.00109034
0.101196
0.00180694
0.0979381
0.00325777
0.0945198
0.00341828
0.0901023
0.00441749
0.0027666
0.138584
-0.00230493
0.138813
-0.000729647
0.138451
0.000546175
0.138818
0.000277404
0.137568
0.00275839
0.137285
0.00110298
0.136214
0.00246491
0.136186
0.000560008
0.135025
0.00213304
0.133996
0.00210724
0.133219
0.00235145
0.131817
0.00338561
0.131046
0.00227486
0.12917
0.00437632
0.128297
0.00251778
0.126135
0.00455206
0.124907
0.00279913
0.123715
0.00273925
0.122636
0.00215052
0.123604
-0.000940759
0.12356
8.11308e-05
0.125116
-0.00262128
0.125459
-0.000281974
0.126127
-0.00107481
0.126228
0.00049303
0.125398
0.00149585
0.125554
0.000966724
0.123932
0.00302613
0.123923
0.000917067
0.122619
0.00258807
0.122668
0.000106644
0.122593
0.000556177
0.122687
-0.000185807
0.123389
-0.000262435
0.121928
0.00255061
0.12126
0.00247536
0.118137
0.00638066
0.11602
0.00553541
0.113349
0.00708868
0.00562828
0.138185
0.000268521
0.137259
0.000196161
0.138339
-0.000534196
0.137844
0.000772931
0.137741
0.00286115
0.138082
0.000762263
0.138646
0.001901
0.136828
0.00237735
0.135576
0.00338503
0.135528
0.00215502
0.13559
0.0022894
0.136259
0.00271694
0.135549
0.00298543
0.135427
0.00449822
0.134239
0.00370544
0.133694
0.00509743
0.132545
0.00394765
0.132092
0.00319197
0.131879
0.00236345
0.13125
-0.000311307
0.130541
0.000790377
0.130559
-0.0026393
0.130166
0.000110839
0.130535
-0.00144395
0.130005
0.00102297
0.130102
0.00139883
0.129917
0.00115198
0.129384
0.00355931
0.129169
0.00113186
0.128816
0.00294109
0.128811
0.000111943
0.128927
0.000439716
0.129534
-0.000792571
0.131111
-0.00183939
0.132188
0.00147326
0.134341
0.000322611
0.133988
0.00673409
0.133947
0.00557583
0.13041
0.0106261
0.0103803
0.0917507
0.00236301
0.0905231
0.00142373
0.0970544
-0.00706553
0.0945425
0.00328492
0.0902954
0.00710818
0.0963013
-0.00524358
0.0950872
0.00311509
0.0923813
0.00508327
0.093804
0.00196226
0.0945896
0.00136945
0.0964951
0.000383962
0.0986916
0.000520388
0.100881
0.000795571
0.103933
0.00144621
0.104823
0.00281633
0.104967
0.00495303
0.103374
0.00554032
0.101169
0.00539749
0.0974564
0.00607584
0.0920825
0.00506257
0.0883408
0.00453212
0.0843234
0.00137806
0.0839778
0.000456435
0.0824085
0.000125365
0.0837949
-0.000363398
0.0853047
-0.000110989
0.0857887
0.000668035
0.0876689
0.00167903
0.0874001
0.0014007
0.0885561
0.00178513
0.0886887
-2.07251e-05
0.0906267
-0.00149822
0.0934506
-0.0036165
0.0968716
-0.00526038
0.103103
-0.00475809
0.1081
-0.00467479
0.114471
0.000363129
0.118665
0.001382
0.123445
0.00584577
0.00693461
0.110896
-0.000509945
0.0886411
0.000132029
0.089508
-0.00127655
-0.00044941
0.109414
-0.00992392
0.088311
0.021235
0.0865235
0.000510905
0.0860741
-0.00531594
-0.00555161
-0.0302508
0.043863
-0.0211881
-0.0156408
-0.0341636
0.0105856
-0.0122706
0.00671901
0.0163669
0.0152255
0.0163396
-0.0156136
-0.00948658
-0.00833738
-0.00930544
0.022254
-0.00807841
0.000196702
0.00405062
-0.0191946
-0.000545093
0.00788063
-0.00751298
0.0140761
-0.00186519
-0.0108914
0.00352905
-0.00227915
0.00631879
0.00229355
0.00581041
0.00247064
0.00830111
-0.00112125
0.0125221
-0.00383706
0.0168893
-0.00384677
0.0205929
-0.00290803
0.0228367
-0.000797602
0.0253097
0.000343304
0.02619
0.00407278
0.0255869
0.0061434
0.0246751
0.00630928
0.0242968
0.00645411
0.0230031
0.00635633
0.0228558
0.00467936
0.0231253
0.00110857
0.0235221
5.96799e-05
0.0252168
-0.00156938
0.0272687
-0.00241531
0.0292545
-0.00209676
0.0318132
-0.00189066
0.0345285
-0.00103624
0.0369566
-0.00102738
0.0399016
-0.0011599
0.0433503
-0.00346943
0.0465002
-0.0046481
0.0514089
-0.00852526
0.0569298
-0.0107813
0.0623053
-0.0101336
0.0690304
-0.0113999
0.0742216
-0.00482801
0.0787271
-0.00312359
0.0815303
0.00304256
0.00715599
-0.000887601
0.0136551
0.00409978
-0.00479068
-0.0114144
-0.00368036
-0.00934796
0.00581418
0.00537671
-0.0006486
-0.000746736
-0.00476793
-0.00117623
-0.00184965
0.00364975
-0.00253244
0.00821302
-0.00209263
0.012916
-0.00582424
0.0150308
-0.00595185
0.0160696
-0.00488554
0.0177604
-0.00459885
0.0191722
-0.00220945
0.020661
-0.00114551
0.0239259
0.000807976
0.0275914
0.00247791
0.0300357
0.00386493
0.0318095
0.0046803
0.0345178
0.003648
0.0372311
0.0019661
0.038356
-1.63737e-05
0.0389463
-0.000530585
0.0407052
-0.00332825
0.0419102
-0.00362041
0.0431998
-0.0033863
0.0457487
-0.00443952
0.04746
-0.00274761
0.0496616
-0.00322892
0.0517934
-0.00329172
0.0526584
-0.00433443
0.053656
-0.00564577
0.0526855
-0.0075547
0.0512981
-0.00939389
0.0511893
-0.0100248
0.0508244
-0.0110349
0.0520873
-0.00609096
0.0540543
-0.00509061
0.0560637
0.00103317
0.00502881
0.102389
-0.0123125
0.0942279
0.0293957
0.0985147
-0.00377593
0.0394279
0.145161
0.0958977
-0.00821022
0.107296
0.0179974
0.103649
-0.000129356
0.0198489
0.123228
0.0953214
-0.00353165
0.106007
0.0073115
0.103093
0.00278466
0.0100899
0.112852
0.0964683
0.10378
0.106564
0.116654
0.153968
-0.00880678
0.0457536
0.108214
0.123984
-0.00956259
0.0424281
0.12731
0.10872
-0.0054303
0.0170738
0.134074
0.111224
0.128298
0.110151
0.00478219
0.114944
0.0104325
0.102069
-0.00273839
-0.00123867
0.0949701
0.132136
-4.41531e-05
0.140031
0.00253754
0.133889
0.00340365
0.00118261
0.131468
0.133924
0.000106079
0.135328
0.00113336
0.13719
0.00154181
0.00126466
0.137108
0.128404
0.129537
0.131079
0.132344
0.105484
0.00314116
0.0981715
0.00252178
0.094401
9.00995e-05
0.0987465
0.0014687
0.0980614
3.65655e-05
0.0960321
-0.00273868
0.0970803
-0.0028979
0.0986315
-0.00408361
0.100151
-0.0036118
0.0987896
-0.00446318
0.0971026
-0.00426487
0.0955167
-0.00329962
0.0939939
-0.00307602
0.0926518
-0.000867345
0.0926277
-0.00112146
0.0914345
0.00200118
0.0932506
0.00066181
0.0950075
0.00210807
0.0993625
0.000325303
0.103592
-0.000581171
0.10728
-0.00172249
0.111848
-0.00458362
0.115574
-0.00425702
0.119086
-0.00684042
0.121616
-0.0061504
0.124508
-0.00627864
0.125315
-0.00524561
0.126311
-0.00374382
0.127879
-0.00479751
0.127226
-0.00263823
0.128041
-0.00515
0.125243
-0.00284726
0.120277
-0.00258831
0.11201
-0.00112744
0.100515
0.00147034
0.0896546
-0.0001746
0.080281
0.00328267
0.0751046
8.57586e-05
0.0730534
0.00308434
0.00272593
0.133735
0.000873776
0.135133
0.00112419
0.134426
0.000796877
0.136799
-0.000904404
0.136977
-0.000141443
0.136384
-0.00214613
0.135214
-0.00172722
0.134954
-0.00382348
0.134502
-0.00315976
0.133497
-0.00345842
0.132298
-0.00306579
0.130946
-0.00194754
0.130665
-0.00279524
0.129754
4.36879e-05
0.130166
-0.00153333
0.130681
0.00148616
0.130929
0.000413688
0.132019
0.00101743
0.132744
-0.000398815
0.134251
-0.00208881
0.134001
-0.00147211
0.133665
-0.00424815
0.131996
-0.00258741
0.130199
-0.00504358
0.127439
-0.00339014
0.124749
-0.00358929
0.122884
-0.00337999
0.120325
-0.00118478
0.118692
-0.00316504
0.116537
-0.000482885
0.114686
-0.00329961
0.113069
-0.00123017
0.112646
-0.0021646
0.112448
-0.000929768
0.112705
0.00121342
0.11185
0.000680778
0.111935
0.00319744
0.110547
0.00147309
0.110463
0.00316879
0.00176106
0.137126
0.000855813
0.138096
0.000154482
0.138588
0.000304157
0.138779
-0.0010952
0.139008
-0.000370267
0.138283
-0.00142069
0.137336
-0.000780616
0.135628
-0.00211562
0.134172
-0.00170397
0.132742
-0.00202795
0.131402
-0.00172583
0.130449
-0.000994822
0.128941
-0.00128723
0.129169
-0.000184135
0.128673
-0.00103723
0.129666
0.000493041
0.130315
-0.000235404
0.13108
0.00025231
0.131128
-0.000446615
0.130235
-0.00119532
0.129754
-0.000991382
0.127796
-0.00228989
0.126776
-0.00156802
0.124381
-0.00264843
0.122753
-0.00176263
0.121069
-0.0019045
0.119251
-0.0015627
0.118785
-0.000718511
0.117282
-0.00166152
0.117214
-0.000415545
0.115654
-0.00173889
0.114975
-0.000551692
0.113818
-0.00100789
0.113
-0.000111533
0.113847
0.000366554
0.114166
0.000361694
0.115782
0.00158174
0.116728
0.000526769
0.118385
0.00151157
0.000213831
0.1332
0.133354
0.133658
0.132563
0.132193
0.130772
0.129992
0.127876
0.126172
0.124144
0.122418
0.121423
0.120136
0.119952
0.118915
0.119408
0.119172
0.119425
0.118978
0.117783
0.116791
0.114501
0.112933
0.110285
0.108522
0.106618
0.105055
0.104337
0.102675
0.10226
0.100521
0.099969
0.0989611
0.0988496
0.0992161
0.0995778
0.10116
0.101686
0.103198
)
;

boundaryField
{
    inlet
    {
        type            calculated;
        value           nonuniform List<scalar> 10(-0.1 -0.1 -0.1 -0.1 -0.1 -0.1 -0.1 -0.1 -0.1 -0.1);
    }
    outlet
    {
        type            calculated;
        value           nonuniform List<scalar> 10(0.0873357 0.110487 0.125658 0.126891 0.081309 0.0581909 0.0753563 0.111428 0.119933 0.103412);
    }
    obstacle
    {
        type            calculated;
        value           uniform 0;
    }
    upperWall
    {
        type            calculated;
        value           uniform 0;
    }
    lowerWall
    {
        type            calculated;
        value           uniform 0;
    }
    frontAndBack
    {
        type            empty;
        value           nonuniform List<scalar> 0();
    }
}


// ************************************************************************* //
