/*--------------------------------*- C++ -*----------------------------------*\
  =========                 |
  \\      /  F ield         | OpenFOAM: The Open Source CFD Toolbox
   \\    /   O peration     | Website:  https://openfoam.org
    \\  /    A nd           | Version:  10
     \\/     M anipulation  |
\*---------------------------------------------------------------------------*/
FoamFile
{
    format      ascii;
    class       volVectorField;
    location    "5.3";
    object      U;
}
// * * * * * * * * * * * * * * * * * * * * * * * * * * * * * * * * * * * * * //

dimensions      [0 1 -1 0 0 0 0];

internalField   nonuniform List<vector> 
8000
(
(-4.74144e-05 6.24085e-05 -2.10266e-05)
(-0.000410956 0.000158454 1.56085e-05)
(-0.00102323 0.000186394 2.8803e-05)
(-0.00162994 0.000193818 3.47922e-05)
(-0.00224847 0.00019659 3.45585e-05)
(-0.00285488 0.000198309 3.0516e-05)
(-0.0034369 0.000198155 2.38491e-05)
(-0.00398048 0.000194225 1.46481e-05)
(-0.00446818 0.000184044 1.88233e-06)
(-0.00487815 0.000165886 -1.38296e-05)
(-0.00518322 0.000137904 -3.24371e-05)
(-0.00535285 9.91017e-05 -5.37507e-05)
(-0.00535478 4.86141e-05 -7.76375e-05)
(-0.00515735 -1.47257e-05 -0.000103235)
(-0.00473625 -8.74125e-05 -0.000129247)
(-0.00408093 -0.000163752 -0.0001526)
(-0.00320384 -0.000234268 -0.000167997)
(-0.0021729 -0.0002828 -0.000167646)
(-0.00100032 -0.000278358 -0.000145905)
(-0.000183954 -0.000137342 -6.33565e-05)
(-0.000139083 0.000480627 -7.97996e-05)
(-0.000804731 0.00088818 -5.08677e-05)
(-0.00182722 0.00100183 -3.72622e-05)
(-0.00283514 0.00101937 -2.73898e-05)
(-0.00384891 0.00100647 -2.2743e-05)
(-0.00482931 0.000978855 -2.12959e-05)
(-0.00575398 0.000935789 -2.20139e-05)
(-0.00660003 0.000872264 -2.49713e-05)
(-0.00734004 0.000781839 -3.06804e-05)
(-0.00794137 0.00065875 -3.95187e-05)
(-0.00836561 0.000497363 -5.18444e-05)
(-0.00857096 0.000292959 -6.79503e-05)
(-0.00851604 4.41112e-05 -8.84334e-05)
(-0.00815793 -0.000243883 -0.000110738)
(-0.00746295 -0.000559166 -0.000134008)
(-0.00641942 -0.000879456 -0.000154965)
(-0.00504921 -0.00116812 -0.000167138)
(-0.00344965 -0.00136189 -0.000161662)
(-0.00164372 -0.00134003 -0.000132666)
(-0.000337791 -0.000779536 -3.04366e-05)
(-0.000167144 0.00118855 -0.000108768)
(-0.00093813 0.00203132 -8.34113e-05)
(-0.00210624 0.0022576 -6.96046e-05)
(-0.00325089 0.00227794 -5.76104e-05)
(-0.00439837 0.00222774 -5.03979e-05)
(-0.00550575 0.00213972 -4.60679e-05)
(-0.0065492 0.0020146 -4.36924e-05)
(-0.00750453 0.00184483 -4.34736e-05)
(-0.00834255 0.00162041 -4.60334e-05)
(-0.00902849 0.0013307 -5.20576e-05)
(-0.00952206 0.000965758 -6.21909e-05)
(-0.00977716 0.000517827 -7.69567e-05)
(-0.00974185 -1.45417e-05 -9.66439e-05)
(-0.00936499 -0.000622237 -0.000120021)
(-0.00860518 -0.00128144 -0.000145412)
(-0.00743932 -0.00194795 -0.000169028)
(-0.00588245 -0.0025483 -0.00018315)
(-0.00404108 -0.00295371 -0.000177038)
(-0.0019366 -0.00291832 -0.000143902)
(-0.00040084 -0.0017902 -2.5947e-05)
(-0.000172044 0.00192414 -0.000130388)
(-0.000982764 0.00322474 -0.000108558)
(-0.00221432 0.00356415 -9.50062e-05)
(-0.00341868 0.003585 -8.17959e-05)
(-0.00462922 0.00349714 -7.3036e-05)
(-0.0058026 0.00335077 -6.69334e-05)
(-0.00691676 0.00314789 -6.269e-05)
(-0.00794905 0.00287813 -6.07276e-05)
(-0.00887129 0.00252715 -6.18133e-05)
(-0.00964845 0.00207881 -6.68181e-05)
(-0.0102376 0.00151729 -7.66614e-05)
(-0.0105876 0.000830611 -9.23088e-05)
(-0.0106402 1.44196e-05 -0.000115019)
(-0.0103287 -0.000922623 -0.000142494)
(-0.00958923 -0.00194975 -0.000173378)
(-0.00837723 -0.00300161 -0.000203138)
(-0.00668836 -0.00396496 -0.000222253)
(-0.00463408 -0.00463387 -0.00021736)
(-0.00223361 -0.00461257 -0.000179675)
(-0.000462682 -0.0028709 -3.97278e-05)
(-0.000171004 0.00271073 -0.000148256)
(-0.0010078 0.00450428 -0.00012934)
(-0.00228925 0.00496507 -0.00011614)
(-0.00354306 0.00498893 -0.000102322)
(-0.00480977 0.00486616 -9.29159e-05)
(-0.0060468 0.00466598 -8.62176e-05)
(-0.00723546 0.00439221 -8.15323e-05)
(-0.00835637 0.00403169 -7.94416e-05)
(-0.0093839 0.00356517 -8.09553e-05)
(-0.0102843 0.00296987 -8.7251e-05)
(-0.0110131 0.00222165 -9.95908e-05)
(-0.0115129 0.00129895 -0.000119251)
(-0.011712 0.000189024 -0.000147181)
(-0.0115256 -0.00110254 -0.000184043)
(-0.0108611 -0.00254471 -0.000226083)
(-0.00963456 -0.00405354 -0.000268274)
(-0.00780496 -0.00547084 -0.000298102)
(-0.00547817 -0.00649358 -0.000297191)
(-0.00266971 -0.00653293 -0.00025309)
(-0.00055881 -0.00410441 -7.8072e-05)
(-0.000169052 0.00353776 -0.000166405)
(-0.00103379 0.00585981 -0.000150232)
(-0.00237088 0.00645244 -0.000137501)
(-0.00368061 0.00648441 -0.000123405)
(-0.00501129 0.00633332 -0.000113842)
(-0.00632173 0.00608964 -0.000107213)
(-0.00759811 0.00575982 -0.000102956)
(-0.00882611 0.00532819 -0.000101836)
(-0.00998482 0.0047702 -0.000105115)
(-0.0110439 0.00405481 -0.000114382)
(-0.0119591 0.00314643 -0.000131449)
(-0.0126682 0.00200912 -0.000158215)
(-0.013086 0.000614069 -0.000196259)
(-0.0131038 -0.00104961 -0.000248835)
(-0.0125859 -0.0029598 -0.000310155)
(-0.0113907 -0.00502098 -0.000374579)
(-0.00941309 -0.00702545 -0.000425114)
(-0.00673 -0.00854653 -0.000434779)
(-0.00334392 -0.00873389 -0.000382523)
(-0.000719285 -0.00554293 -0.000153085)
(-0.000166876 0.00441035 -0.000187652)
(-0.0010647 0.00730143 -0.000174721)
(-0.00246671 0.00803796 -0.000162601)
(-0.00384018 0.00808369 -0.000148251)
(-0.00524248 0.00791202 -0.000138563)
(-0.00663442 0.00763771 -0.000132125)
(-0.0080087 0.00727127 -0.000128585)
(-0.00935838 0.00679543 -0.000128979)
(-0.0106704 0.00618053 -0.000134931)
(-0.0119217 0.00538626 -0.000148583)
(-0.0130726 0.00436235 -0.00017259)
(-0.0140591 0.00305172 -0.000209844)
(-0.0147846 0.00139853 -0.000262692)
(-0.0151155 -0.000637721 -0.000341635)
(-0.0148616 -0.00305672 -0.000435434)
(-0.0137954 -0.00578083 -0.000539506)
(-0.0117059 -0.00855477 -0.000630454)
(-0.00858879 -0.0107995 -0.000667057)
(-0.00440778 -0.0112941 -0.000607996)
(-0.000999182 -0.00728518 -0.00029681)
(-0.000164319 0.00533822 -0.000213799)
(-0.00110089 0.00884599 -0.000205143)
(-0.00257703 0.00973872 -0.000193711)
(-0.00401953 0.00980213 -0.000178803)
(-0.00549674 0.00961626 -0.000168595)
(-0.00697203 0.00932425 -0.000161987)
(-0.00844654 0.00894307 -0.000158962)
(-0.00992348 0.00845576 -0.000160952)
(-0.0114016 0.00782912 -0.000170115)
(-0.0128707 0.00701419 -0.000189432)
(-0.0143035 0.00594459 -0.000222918)
(-0.015643 0.00453655 -0.000275671)
(-0.0167881 0.00269442 -0.000354772)
(-0.0175763 0.000327831 -0.000466095)
(-0.017767 -0.00261044 -0.000616643)
(-0.0170215 -0.00610811 -0.000791424)
(-0.0149519 -0.00988252 -0.000961617)
(-0.0113724 -0.0131884 -0.00106391)
(-0.00615254 -0.0142772 -0.00101349)
(-0.00152199 -0.00948878 -0.000586507)
(-0.000161823 0.00633404 -0.000246623)
(-0.00114416 0.0105138 -0.000243825)
(-0.00270352 0.011573 -0.00023302)
(-0.00421692 0.0116533 -0.000216821)
(-0.00576623 0.0114552 -0.000205145)
(-0.00731796 0.0111554 -0.000197401)
(-0.00888359 0.010781 -0.000194075)
(-0.0104794 0.0103186 -0.000197148)
(-0.0121204 0.00973502 -0.000209519)
(-0.0138163 0.00897606 -0.000235366)
(-0.0155623 0.00796136 -0.000280743)
(-0.0173237 0.00657911 -0.000354191)
(-0.019011 0.00468405 -0.000467025)
(-0.0204459 0.00210802 -0.000630981)
(-0.0213556 -0.00130764 -0.000875435)
(-0.0212639 -0.00560958 -0.00117148)
(-0.0195276 -0.010626 -0.00149549)
(-0.0156091 -0.0154617 -0.00175196)
(-0.00917033 -0.0176616 -0.00177493)
(-0.00257236 -0.0123957 -0.00121433)
(-0.000161334 0.00741621 -0.000288557)
(-0.00120058 0.0123312 -0.000293842)
(-0.00285385 0.0135615 -0.00028333)
(-0.00443659 0.013649 -0.000264435)
(-0.00604804 0.0134316 -0.000249516)
(-0.00765836 0.0131267 -0.000238779)
(-0.00929109 0.0127754 -0.000233432)
(-0.010978 0.0123731 -0.000236171)
(-0.0127545 0.0118927 -0.000250847)
(-0.014657 0.0112826 -0.000283221)
(-0.016716 0.010457 -0.000342188)
(-0.0189399 0.00928311 -0.000441343)
(-0.0212851 0.00756744 -0.000599737)
(-0.0236085 0.00504569 -0.000841746)
(-0.0255789 0.00140228 -0.00120333)
(-0.0266494 -0.00360797 -0.00172175)
(-0.0259147 -0.0100024 -0.00233866)
(-0.0221712 -0.0169273 -0.0029424)
(-0.0146473 -0.0211396 -0.00325035)
(-0.00478085 -0.0163814 -0.00269374)
(-0.00016778 0.00861446 -0.000343494)
(-0.00128429 0.0143358 -0.000359803)
(-0.00304677 0.0157305 -0.00034874)
(-0.00469426 0.0157999 -0.000324634)
(-0.0063498 0.0155414 -0.000303407)
(-0.00798813 0.0152201 -0.000286461)
(-0.00964608 0.0148966 -0.00027601)
(-0.0113719 0.0145802 -0.000275597)
(-0.0132227 0.0142586 -0.000290183)
(-0.0152667 0.0138954 -0.000327418)
(-0.0175803 0.0134175 -0.000399726)
(-0.020238 0.0126936 -0.000527446)
(-0.0232847 0.0115025 -0.00074272)
(-0.026676 0.00949501 -0.00109091)
(-0.030172 0.00617716 -0.00162557)
(-0.0331952 0.000936076 -0.00245127)
(-0.0346248 -0.00664465 -0.00357925)
(-0.0323922 -0.0160229 -0.00487012)
(-0.0247595 -0.0236405 -0.00597959)
(-0.00947256 -0.0220609 -0.00608221)
(-0.000192089 0.00998061 -0.000418241)
(-0.00142407 0.0165854 -0.000449171)
(-0.00331956 0.0181163 -0.000435772)
(-0.00502426 0.0181172 -0.000401994)
(-0.00669664 0.017772 -0.000369248)
(-0.00831823 0.0174021 -0.000340799)
(-0.00994018 0.0170907 -0.000320231)
(-0.0116259 0.0168659 -0.000311914)
(-0.0134509 0.0167394 -0.000321898)
(-0.0155124 0.016707 -0.000359736)
(-0.0179365 0.0167363 -0.000441688)
(-0.0208821 0.016741 -0.000595835)
(-0.0245301 0.0165345 -0.000869484)
(-0.0290361 0.0157554 -0.00133538)
(-0.0344271 0.0137747 -0.00208599)
(-0.0403979 0.0095907 -0.00321349)
(-0.0457793 0.00189837 -0.00492913)
(-0.0475451 -0.00990487 -0.00718103)
(-0.0423242 -0.0232834 -0.00965409)
(-0.0186728 -0.0310455 -0.011618)
(-0.000257891 0.0116034 -0.000525186)
(-0.00167584 0.0191606 -0.000573199)
(-0.00374021 0.020755 -0.000552743)
(-0.0054901 0.0205991 -0.000501121)
(-0.00713989 0.0200944 -0.000448712)
(-0.00868386 0.0196196 -0.000401113)
(-0.0101894 0.0192767 -0.000363159)
(-0.01173 0.019115 -0.000339658)
(-0.0133891 0.019178 -0.000337577)
(-0.0152783 0.0195097 -0.000367517)
(-0.0175571 0.0201502 -0.000447906)
(-0.0204566 0.0211142 -0.000610914)
(-0.024308 0.0223473 -0.000910305)
(-0.0295562 0.0236135 -0.0014221)
(-0.0367633 0.0243235 -0.00222507)
(-0.0464568 0.02309 -0.00338387)
(-0.0579754 0.0172659 -0.00497873)
(-0.067116 0.00228611 -0.00668226)
(-0.0678801 -0.0232586 -0.00830489)
(-0.0326806 -0.0520516 -0.0133897)
(-0.000421401 0.0136698 -0.000694954)
(-0.00215925 0.0222868 -0.000771408)
(-0.00443102 0.0238575 -0.000740984)
(-0.00619015 0.0234258 -0.000656901)
(-0.00775449 0.0226211 -0.00056423)
(-0.00914588 0.0219031 -0.000476811)
(-0.0104449 0.0214071 -0.000404061)
(-0.0117218 0.0212074 -0.00035253)
(-0.0130511 0.0213805 -0.000327887)
(-0.0145325 0.0220274 -0.000339576)
(-0.0163209 0.0232903 -0.000404427)
(-0.0186694 0.025344 -0.000549135)
(-0.0220163 0.0283845 -0.000806881)
(-0.0270855 0.0324502 -0.00117152)
(-0.0351488 0.0371169 -0.00147117)
(-0.0480091 0.0401646 -0.00119798)
(-0.0672662 0.0362175 0.000349876)
(-0.0882841 0.0120545 0.00432485)
(-0.0988972 -0.0395102 0.00887818)
(-0.0468796 -0.103929 -0.00330805)
(-0.000735897 0.0166026 -0.00095445)
(-0.00294081 0.0257508 -0.00100622)
(-0.00548799 0.0268402 -0.000933904)
(-0.00726843 0.0257751 -0.000783634)
(-0.00872908 0.0245565 -0.000638113)
(-0.00988884 0.0236079 -0.00050661)
(-0.0108618 0.0229955 -0.000396497)
(-0.011724 0.0227515 -0.00031194)
(-0.0125249 0.0229544 -0.000256996)
(-0.0133091 0.0237461 -0.000237433)
(-0.0141581 0.0253808 -0.000259934)
(-0.0152339 0.0282106 -0.000322769)
(-0.0169598 0.0327507 -0.000382062)
(-0.0202414 0.0392814 -0.000181441)
(-0.0274148 0.0476277 0.00109932)
(-0.0424114 0.0538639 0.00527833)
(-0.0725493 0.0486035 0.0143321)
(-0.110324 0.00274888 0.0273294)
(-0.129185 -0.0989625 0.0328235)
(-0.0524504 -0.198721 0.00225849)
(-0.00205557 0.0197223 -0.00149708)
(-0.00547763 0.031363 -0.00165962)
(-0.00773135 0.0320864 -0.00149927)
(-0.00908955 0.0305326 -0.00122873)
(-0.0099912 0.0284827 -0.000931291)
(-0.0106684 0.0267045 -0.000660105)
(-0.0112105 0.0253543 -0.000433215)
(-0.0116173 0.0245015 -0.000257664)
(-0.0118492 0.0242358 -0.000134912)
(-0.0118309 0.0246859 -6.30219e-05)
(-0.0115012 0.0261599 -3.98684e-05)
(-0.0108063 0.0290773 -1.43575e-05)
(-0.0100843 0.034293 0.000181683)
(-0.010043 0.0420599 0.00116198)
(-0.0143166 0.053212 0.00453162)
(-0.0284843 0.0604268 0.0135941)
(-0.0683011 0.0492218 0.0300406)
(-0.117203 -0.0376501 0.0448508)
(-0.141078 -0.195794 0.0344286)
(-0.0505233 -0.300423 -0.0165999)
(-0.00135517 0.0313089 -0.00253849)
(-0.00538158 0.0352829 -0.00226979)
(-0.00969599 0.0337273 -0.001922)
(-0.0112775 0.0299924 -0.00132551)
(-0.0123535 0.0273319 -0.000842014)
(-0.012566 0.0254219 -0.00042268)
(-0.0123474 0.0241053 -8.73741e-05)
(-0.0118075 0.0232408 0.000160264)
(-0.0109651 0.0228575 0.000315445)
(-0.00967432 0.0229827 0.000395498)
(-0.0077606 0.0239915 0.000414566)
(-0.00477209 0.0261065 0.000455536)
(-0.00100505 0.0304345 0.00075172)
(0.00427794 0.0370309 0.00224539)
(0.00589146 0.047671 0.00663634)
(0.00279077 0.0535754 0.0179434)
(-0.0336857 0.0332037 0.0360958)
(-0.0780165 -0.084191 0.0436043)
(-0.12299 -0.259045 0.0175839)
(-0.0458558 -0.370922 -0.0418497)
(-0.0123683 0.029212 -0.00340845)
(-0.0213946 0.0508536 -0.00400339)
(-0.0162569 0.046658 -0.00353436)
(-0.0157934 0.0418141 -0.00261508)
(-0.0131205 0.0361328 -0.0015374)
(-0.0103439 0.0314745 -0.000624317)
(-0.00752677 0.0278298 8.55234e-05)
(-0.0046965 0.0250606 0.000571007)
(-0.00185406 0.0230894 0.000861513)
(0.00140714 0.0217215 0.000991403)
(0.00508278 0.0211561 0.000958294)
(0.0101948 0.0213365 0.000822062)
(0.0161363 0.0231836 0.000848511)
(0.0256389 0.026502 0.0015756)
(0.0326963 0.033319 0.00494645)
(0.0462068 0.0378149 0.0137987)
(0.0293788 0.0211514 0.0272564)
(0.0177729 -0.0909859 0.0324369)
(-0.0693057 -0.26415 0.00602267)
(-0.0230477 -0.403508 -0.0574599)
(-0.0463858 0.0887048 -0.012149)
(-0.0299399 0.0416489 -0.00809521)
(-0.0208843 0.0353889 -0.00560637)
(-0.00278381 0.0283557 -0.00324142)
(0.0122409 0.0220872 -0.00157693)
(0.0267686 0.0179773 -0.00030649)
(0.0391272 0.0153932 0.00065518)
(0.0501193 0.013477 0.00129545)
(0.0592199 0.0122445 0.00172739)
(0.0680066 0.0111995 0.00190806)
(0.0750197 0.0108602 0.00188588)
(0.0839447 0.0104452 0.00157528)
(0.0902175 0.0110143 0.00114393)
(0.104325 0.0108498 0.000642677)
(0.109293 0.0105177 0.00114111)
(0.13899 0.00419022 0.00484814)
(0.123344 -0.0151501 0.00946817)
(0.158505 -0.0917386 0.0172546)
(0.0322121 -0.238279 0.00030726)
(0.0310565 -0.3716 -0.0677543)
(0.117638 0.11193 -0.0112326)
(0.144199 0.0596098 -0.0117503)
(0.2164 0.0393729 -0.0113604)
(0.260839 0.0262287 -0.0100017)
(0.293375 0.0174409 -0.0083857)
(0.320281 0.0115729 -0.00701083)
(0.340731 0.00790676 -0.00568922)
(0.359239 0.00550615 -0.00459417)
(0.371728 0.00407152 -0.00361495)
(0.386574 0.003057 -0.00270205)
(0.392871 0.00260514 -0.00217065)
(0.408319 0.00222187 -0.00142022)
(0.407643 0.00231072 -0.00130347)
(0.428811 0.00202555 -0.000857849)
(0.41647 0.00160092 -0.000735918)
(0.446933 -0.00138123 -8.09941e-05)
(0.404812 -0.00964664 0.000770228)
(0.424451 -0.0322748 0.000458774)
(0.255118 -0.0751019 -0.008363)
(0.165073 -0.139886 -0.0774695)
(-9.55085e-05 0.000106613 -6.11122e-05)
(-0.000738645 0.000303918 -1.30918e-05)
(-0.00179609 0.00036243 9.18301e-06)
(-0.00282649 0.000370961 2.10748e-05)
(-0.00385337 0.000365852 2.20073e-05)
(-0.00483975 0.00035606 1.54975e-05)
(-0.005766 0.000341023 3.26305e-06)
(-0.00661108 0.000318185 -1.46315e-05)
(-0.00734734 0.000285102 -3.91012e-05)
(-0.0079416 0.000238566 -7.01903e-05)
(-0.00835635 0.000175999 -0.000108122)
(-0.00855024 9.60034e-05 -0.000152719)
(-0.00848043 -2.60042e-06 -0.000203326)
(-0.00810637 -0.000118331 -0.000257438)
(-0.00739783 -0.000245898 -0.00031175)
(-0.00634237 -0.000376181 -0.000359929)
(-0.00495932 -0.00049279 -0.00039181)
(-0.003344 -0.000564989 -0.000393568)
(-0.0015201 -0.000527532 -0.000354546)
(-0.00027121 -0.000229421 -0.000195955)
(-0.00030454 0.000799804 -0.000168608)
(-0.00159075 0.00161435 -0.000137281)
(-0.00349766 0.00184384 -0.000113273)
(-0.00535363 0.00185789 -9.28788e-05)
(-0.00717863 0.00180002 -8.25036e-05)
(-0.00890606 0.00170712 -7.93101e-05)
(-0.0104958 0.00158109 -8.17767e-05)
(-0.0119085 0.00141583 -9.01919e-05)
(-0.0130992 0.00120406 -0.000105492)
(-0.0140172 0.000937617 -0.00012862)
(-0.0146067 0.000609656 -0.000160327)
(-0.0148099 0.000215373 -0.000200927)
(-0.0145692 -0.000244169 -0.000251206)
(-0.0138303 -0.000757592 -0.000305942)
(-0.0125561 -0.00130355 -0.000361934)
(-0.010737 -0.00184485 -0.000411587)
(-0.00841237 -0.00231782 -0.000441897)
(-0.00572644 -0.00260306 -0.000436385)
(-0.00272612 -0.00245349 -0.000382592)
(-0.000565264 -0.00129234 -0.000179757)
(-0.00038021 0.00196937 -0.000225116)
(-0.00191617 0.00363329 -0.000204255)
(-0.004154 0.00408362 -0.000179997)
(-0.00631985 0.0040865 -0.00015514)
(-0.00844033 0.00393131 -0.000139475)
(-0.0104403 0.00369284 -0.000130544)
(-0.0122751 0.00337858 -0.000127097)
(-0.0139016 0.00298005 -0.000129795)
(-0.0152708 0.00248524 -0.000139982)
(-0.0163285 0.00188152 -0.000159144)
(-0.017015 0.00115796 -0.000188608)
(-0.0172656 0.000307864 -0.000229308)
(-0.0170103 -0.000665179 -0.0002811)
(-0.0161842 -0.00174123 -0.000341093)
(-0.0147391 -0.00287736 -0.000404734)
(-0.0126526 -0.00399866 -0.000463106)
(-0.00995698 -0.00497733 -0.000500355)
(-0.00681181 -0.00557232 -0.000496097)
(-0.00326499 -0.00528801 -0.000435215)
(-0.000685117 -0.00296601 -0.000199416)
(-0.000404434 0.00318099 -0.000270708)
(-0.00204856 0.00573588 -0.000260312)
(-0.00444214 0.00640834 -0.000236758)
(-0.00675312 0.00639412 -0.000209182)
(-0.00901844 0.00613835 -0.000190119)
(-0.0111613 0.00575444 -0.000177473)
(-0.0131387 0.00525496 -0.000170322)
(-0.0149088 0.00462862 -0.000169787)
(-0.0164234 0.00385815 -0.000177683)
(-0.0176271 0.00292445 -0.000196057)
(-0.0184561 0.00180999 -0.000226879)
(-0.0188387 0.000504003 -0.000271949)
(-0.018693 -0.000991602 -0.000333298)
(-0.017931 -0.00265547 -0.000406064)
(-0.0164748 -0.00442786 -0.000486009)
(-0.0142707 -0.00619737 -0.000562297)
(-0.011325 -0.00776522 -0.000615062)
(-0.00780435 -0.00874682 -0.000617964)
(-0.00375697 -0.00835322 -0.0005502)
(-0.000787326 -0.0047605 -0.00026547)
(-0.000417334 0.00446948 -0.00031149)
(-0.00214234 0.0079783 -0.000310987)
(-0.0046635 0.00888655 -0.000288406)
(-0.00709762 0.00885701 -0.000259177)
(-0.00949242 0.0085019 -0.000238306)
(-0.0117715 0.00797595 -0.000224042)
(-0.0138964 0.00729733 -0.000215809)
(-0.0158295 0.00645186 -0.000215197)
(-0.0175254 0.00541595 -0.000224641)
(-0.0189295 0.00416166 -0.000247006)
(-0.0199744 0.00266057 -0.000285263)
(-0.0205774 0.000890058 -0.000342286)
(-0.0206387 -0.00115694 -0.000419945)
(-0.0200402 -0.00346412 -0.000517605)
(-0.0186581 -0.00596313 -0.000628085)
(-0.0163845 -0.00850806 -0.000738551)
(-0.0131716 -0.0108168 -0.000822426)
(-0.00917877 -0.0123218 -0.000842076)
(-0.00445709 -0.0118617 -0.00076547)
(-0.000939233 -0.00682119 -0.00039961)
(-0.000431736 0.00582579 -0.000354594)
(-0.00224751 0.0103551 -0.000364422)
(-0.00491358 0.0115164 -0.000343052)
(-0.00748927 0.0114767 -0.000312654)
(-0.010034 0.0110284 -0.000290753)
(-0.0124729 0.0103712 -0.000276002)
(-0.0147743 0.00952998 -0.00026826)
(-0.0169072 0.0084875 -0.000269702)
(-0.0188326 0.00721279 -0.000283531)
(-0.0204996 0.00566616 -0.000313709)
(-0.0218396 0.00380287 -0.000364695)
(-0.0227599 0.00158003 -0.000441174)
(-0.0231411 -0.0010315 -0.000547096)
(-0.0228243 -0.00403905 -0.000685399)
(-0.0216199 -0.00737784 -0.000847109)
(-0.0193352 -0.0108762 -0.0010172)
(-0.015827 -0.0141552 -0.00115908)
(-0.011211 -0.0164093 -0.00121559)
(-0.00553492 -0.0159745 -0.00113038)
(-0.00119061 -0.00926751 -0.000635345)
(-0.000450348 0.00726345 -0.000405539)
(-0.00237634 0.0128902 -0.000427557)
(-0.00521553 0.0143246 -0.000407597)
(-0.00795813 0.0142798 -0.00037582)
(-0.0106773 0.0137453 -0.000352678)
(-0.0133009 0.0129706 -0.000337399)
(-0.0158066 0.0119888 -0.000330469)
(-0.0181738 0.0107807 -0.000334863)
(-0.0203745 0.00930719 -0.000354855)
(-0.0223672 0.0075142 -0.000395958)
(-0.0240877 0.00533435 -0.000464893)
(-0.0254379 0.00269277 -0.000569344)
(-0.0262835 -0.000481558 -0.000717076)
(-0.0264184 -0.00422852 -0.000919254)
(-0.025565 -0.00853103 -0.00116468)
(-0.0234067 -0.0132143 -0.00143787)
(-0.0196373 -0.0177987 -0.00168828)
(-0.0142455 -0.0211707 -0.0018264)
(-0.00724751 -0.0209521 -0.00174198)
(-0.00163088 -0.0123308 -0.00104701)
(-0.000473677 0.0088019 -0.000468484)
(-0.00253215 0.015617 -0.000505801)
(-0.00557491 0.0173447 -0.000487221)
(-0.00850808 0.017297 -0.00045305)
(-0.0114217 0.0166807 -0.000427406)
(-0.0142474 0.0158017 -0.000410367)
(-0.0169755 0.0147048 -0.00040332)
(-0.0196008 0.0133705 -0.000410332)
(-0.0221123 0.011753 -0.000437159)
(-0.0244869 0.00978271 -0.000491538)
(-0.0266768 0.00736486 -0.000583611)
(-0.0285931 0.0043808 -0.000725734)
(-0.0300826 0.000697063 -0.000931321)
(-0.0309073 -0.0037967 -0.00122665)
(-0.0307 -0.00917749 -0.00161021)
(-0.0289572 -0.0153239 -0.00206057)
(-0.0251157 -0.0216835 -0.00251454)
(-0.0188721 -0.0267666 -0.00283242)
(-0.0101311 -0.0271643 -0.00279076)
(-0.00247362 -0.0164452 -0.00179804)
(-0.000503006 0.0104635 -0.000547894)
(-0.00271964 0.0185723 -0.000604945)
(-0.00599788 0.0206108 -0.000587287)
(-0.00914151 0.0205548 -0.000548622)
(-0.0122616 0.0198546 -0.000517841)
(-0.015295 0.0188809 -0.000496278)
(-0.0182484 0.0176946 -0.000486573)
(-0.0211372 0.0162804 -0.000494226)
(-0.0239758 0.0145891 -0.000526932)
(-0.026771 0.0125384 -0.000595486)
(-0.0295079 0.010005 -0.000715092)
(-0.0321272 0.00681872 -0.00090651)
(-0.0344888 0.0027634 -0.00119813)
(-0.0363435 -0.00240665 -0.00162088)
(-0.0372413 -0.00891191 -0.00222022)
(-0.0364627 -0.0167948 -0.00296582)
(-0.0330716 -0.0255381 -0.00379829)
(-0.0261944 -0.0332548 -0.00450718)
(-0.0154145 -0.0351342 -0.00465758)
(-0.00426618 -0.0225477 -0.00327234)
(-0.000541852 0.0122771 -0.000649867)
(-0.00294961 0.0217997 -0.000732628)
(-0.00649891 0.0241582 -0.00071466)
(-0.0098687 0.0240756 -0.000667764)
(-0.0131973 0.0232772 -0.000627217)
(-0.0164282 0.0222091 -0.000596175)
(-0.0195885 0.0209545 -0.000578983)
(-0.0227199 0.0195087 -0.000582898)
(-0.0258705 0.0178268 -0.000617976)
(-0.0290903 0.0158214 -0.000698867)
(-0.0324196 0.0133483 -0.000847568)
(-0.0358637 0.0101868 -0.00109689)
(-0.0393495 0.00602003 -0.0014929)
(-0.0426659 0.000425574 -0.00209212)
(-0.0453448 -0.00705489 -0.00298453)
(-0.0465097 -0.01682 -0.00422729)
(-0.044777 -0.0286009 -0.00574341)
(-0.0383255 -0.0402751 -0.00726991)
(-0.0259047 -0.045522 -0.00805357)
(-0.00841646 -0.0328178 -0.00640533)
(-0.000597939 0.014285 -0.00078376)
(-0.00324416 0.0253553 -0.000900012)
(-0.00710795 0.0280263 -0.000879128)
(-0.0107154 0.027877 -0.000817693)
(-0.0142423 0.0269463 -0.000759749)
(-0.0176411 0.0257675 -0.000711072)
(-0.0209631 0.0244534 -0.00067826)
(-0.0242805 0.0230178 -0.000670545)
(-0.0276813 0.0214315 -0.000700499)
(-0.0312713 0.0196179 -0.000786972)
(-0.0351696 0.0174314 -0.000959774)
(-0.0394921 0.0146212 -0.0012666)
(-0.0443107 0.0107789 -0.00178118)
(-0.0495645 0.00528619 -0.00261079)
(-0.0549708 -0.00267371 -0.00389847)
(-0.0597152 -0.0139683 -0.00582031)
(-0.0620539 -0.0290949 -0.00842393)
(-0.0588415 -0.0463373 -0.0113718)
(-0.0467501 -0.0589288 -0.0136042)
(-0.0177598 -0.0521814 -0.0126647)
(-0.000686967 0.0165547 -0.00096493)
(-0.003645 0.0293196 -0.00112454)
(-0.00788016 0.0322664 -0.00109589)
(-0.0117321 0.0319756 -0.00100938)
(-0.0154322 0.0308469 -0.000921603)
(-0.0189461 0.0295141 -0.000842334)
(-0.0223531 0.0281263 -0.000781174)
(-0.0257574 0.0267237 -0.000749243)
(-0.029288 0.0253067 -0.000761273)
(-0.033111 0.0238334 -0.000839777)
(-0.0374428 0.0221946 -0.00102206)
(-0.0425569 0.0201632 -0.00137148)
(-0.0487724 0.0173114 -0.00199338)
(-0.0563876 0.0128942 -0.00304619)
(-0.0655479 0.00574434 -0.0047282)
(-0.0760988 -0.00573841 -0.00727187)
(-0.0863027 -0.0235057 -0.0108176)
(-0.0907868 -0.0483565 -0.0147966)
(-0.0814341 -0.0766068 -0.0180081)
(-0.0329709 -0.0919343 -0.019981)
(-0.000839452 0.0191866 -0.00121896)
(-0.00422525 0.0337722 -0.00143034)
(-0.00890938 0.0368864 -0.00138247)
(-0.0130076 0.0363282 -0.001253)
(-0.0168375 0.0349099 -0.00111731)
(-0.0203857 0.0333619 -0.000989622)
(-0.0237656 0.0318619 -0.000882334)
(-0.027111 0.0304816 -0.000807751)
(-0.030582 0.029267 -0.000781942)
(-0.0343932 0.0282388 -0.0008285)
(-0.0388504 0.0273744 -0.000986999)
(-0.0443974 0.0265566 -0.00132571)
(-0.0516718 0.0254782 -0.00195712)
(-0.0615414 0.0234712 -0.00303216)
(-0.0751253 0.0192556 -0.00465655)
(-0.0933407 0.0102246 -0.00667247)
(-0.113875 -0.00889599 -0.00825262)
(-0.126729 -0.047485 -0.00743798)
(-0.118539 -0.108949 -0.00554547)
(-0.042736 -0.169044 -0.0162313)
(-0.00113654 0.0224144 -0.00160363)
(-0.00516792 0.0390971 -0.00189749)
(-0.010376 0.0422899 -0.00182267)
(-0.0146684 0.041306 -0.00162048)
(-0.0185364 0.0393833 -0.00139447)
(-0.0220122 0.0374116 -0.00117506)
(-0.0252357 0.035632 -0.000983778)
(-0.0283494 0.0341595 -0.000836016)
(-0.0315222 0.0330908 -0.000745084)
(-0.0349878 0.0325319 -0.000730155)
(-0.0390996 0.0326078 -0.000822557)
(-0.0444227 0.0334294 -0.00106905)
(-0.0518712 0.0350203 -0.00151525)
(-0.062835 0.0370459 -0.0020735)
(-0.0792977 0.0381371 -0.00210566)
(-0.102791 0.033375 0.000355235)
(-0.129819 0.0104091 0.0088705)
(-0.145164 -0.0537929 0.0253549)
(-0.137117 -0.162322 0.0344106)
(-0.0362231 -0.268941 -0.00127903)
(-0.00155525 0.0266082 -0.00215909)
(-0.00633278 0.0444771 -0.00244672)
(-0.0123158 0.0470849 -0.00228937)
(-0.0169087 0.0452097 -0.0019554)
(-0.020841 0.0427652 -0.00161714)
(-0.0241236 0.0405254 -0.00129481)
(-0.0269856 0.0386291 -0.00100837)
(-0.0296059 0.0371476 -0.000769937)
(-0.0321416 0.0362024 -0.000589083)
(-0.0347742 0.0359882 -0.000474606)
(-0.037793 0.036818 -0.000427458)
(-0.0417052 0.0391161 -0.000413637)
(-0.0474448 0.0433917 -0.00026309)
(-0.0565302 0.0496125 0.000755488)
(-0.0713998 0.0559491 0.00491749)
(-0.0935649 0.0536913 0.0171678)
(-0.12166 0.0242449 0.0425802)
(-0.137464 -0.0660444 0.072077)
(-0.135121 -0.217152 0.0676103)
(-0.0227154 -0.356868 -0.00336258)
(-0.00362211 0.0307003 -0.00317871)
(-0.0105236 0.053581 -0.00370838)
(-0.0160703 0.0559051 -0.00340827)
(-0.0201528 0.0533661 -0.00287038)
(-0.0233859 0.0495814 -0.00225379)
(-0.0261455 0.0460546 -0.00166289)
(-0.0285376 0.0430715 -0.00113883)
(-0.0306178 0.0407603 -0.000701505)
(-0.0324168 0.0392534 -0.000355254)
(-0.0339701 0.0387717 -9.33185e-05)
(-0.0353713 0.0397574 0.000117392)
(-0.0368229 0.0428517 0.000436688)
(-0.0389737 0.04907 0.0013582)
(-0.0427127 0.0584368 0.00443351)
(-0.0504807 0.0689556 0.0134716)
(-0.0631919 0.0677686 0.0349802)
(-0.0872681 0.0359207 0.0707607)
(-0.100676 -0.0761294 0.0957667)
(-0.111163 -0.262339 0.0612672)
(-0.00652955 -0.429759 -0.0246858)
(-0.00169422 0.0454972 -0.00507793)
(-0.00907267 0.0573647 -0.00507152)
(-0.0192151 0.0566719 -0.00438641)
(-0.0238783 0.0515876 -0.00328751)
(-0.0278224 0.0477836 -0.00235322)
(-0.0301536 0.0446964 -0.00148485)
(-0.0315989 0.0421894 -0.0007326)
(-0.0323557 0.040143 -0.000110468)
(-0.0325162 0.0386867 0.000375438)
(-0.0320132 0.0379931 0.000738652)
(-0.0307536 0.0386224 0.00103427)
(-0.0283903 0.0410687 0.00151971)
(-0.0250728 0.0467865 0.0028454)
(-0.0199124 0.055387 0.00699569)
(-0.0162971 0.0667484 0.0175775)
(-0.00955881 0.0668808 0.0405689)
(-0.0230275 0.0376381 0.074325)
(-0.024907 -0.0784964 0.0863279)
(-0.0601437 -0.279957 0.0380749)
(0.0206122 -0.473646 -0.0450249)
(-0.012148 0.0368495 -0.00627269)
(-0.0251629 0.0798938 -0.00760464)
(-0.0246706 0.0770407 -0.00704412)
(-0.0305749 0.070834 -0.00554906)
(-0.0317877 0.0628437 -0.0036951)
(-0.0314071 0.0558774 -0.00202205)
(-0.0295677 0.0500432 -0.000638173)
(-0.0267523 0.0452513 0.000419186)
(-0.0232059 0.0415141 0.00118678)
(-0.0187514 0.038622 0.00167946)
(-0.0137028 0.0369778 0.00191151)
(-0.00691822 0.0366204 0.00210726)
(0.000609221 0.0390439 0.00281139)
(0.0129897 0.0436816 0.00532542)
(0.0246748 0.0526748 0.0125956)
(0.0492954 0.0555506 0.028906)
(0.0518726 0.0390132 0.0488428)
(0.0850126 -0.0537024 0.0583891)
(0.0256068 -0.261035 0.0201488)
(0.0705199 -0.471977 -0.0603257)
(-0.0758659 0.100905 -0.018519)
(-0.0613435 0.0622577 -0.0135632)
(-0.0608343 0.0605527 -0.00988411)
(-0.0392969 0.0523942 -0.00648874)
(-0.0208815 0.0443283 -0.00403712)
(-0.000757753 0.0383562 -0.0019864)
(0.0178233 0.0340176 -0.00029959)
(0.0358423 0.0303058 0.00101863)
(0.0517922 0.0276146 0.00207605)
(0.0681365 0.0249871 0.0027536)
(0.0813816 0.0235432 0.00306875)
(0.0976816 0.0219923 0.00289902)
(0.108286 0.0219868 0.00261238)
(0.130093 0.0222166 0.00236555)
(0.137466 0.0216747 0.00307042)
(0.180168 0.0182663 0.0101646)
(0.174624 -0.00873626 0.0141904)
(0.233406 -0.0666735 0.0196426)
(0.160619 -0.238731 0.0067748)
(0.149866 -0.420658 -0.0725071)
(0.119338 0.140001 -0.0166098)
(0.15149 0.0856557 -0.0179373)
(0.229407 0.0633411 -0.0176755)
(0.283795 0.0479489 -0.0161118)
(0.325098 0.0370201 -0.0141232)
(0.362658 0.028976 -0.0123101)
(0.39136 0.0233043 -0.0105617)
(0.421662 0.0190352 -0.0089516)
(0.440817 0.0160341 -0.00750305)
(0.468387 0.0135965 -0.00610942)
(0.479272 0.0118195 -0.00492554)
(0.507667 0.0105961 -0.00406752)
(0.510228 0.00931875 -0.00290467)
(0.542956 0.009087 -0.0029336)
(0.534848 0.00730107 -0.00120189)
(0.57309 0.00543422 -0.00213576)
(0.543088 -0.00341302 0.00143937)
(0.562678 -0.024237 -0.00463817)
(0.433211 -0.0699003 -0.00770983)
(0.303897 -0.147998 -0.0838962)
(-0.000106861 0.000107756 -8.65042e-05)
(-0.00083591 0.000338466 -7.76898e-05)
(-0.00203444 0.000407097 -6.36347e-05)
(-0.00319531 0.000415782 -5.28833e-05)
(-0.00434453 0.000407505 -5.01816e-05)
(-0.00544092 0.000393288 -5.43069e-05)
(-0.00646337 0.000372796 -6.45611e-05)
(-0.0073888 0.000343304 -8.11099e-05)
(-0.00818795 0.000301854 -0.000104101)
(-0.00882593 0.000245467 -0.000134502)
(-0.00926275 0.000171596 -0.000172739)
(-0.00945476 7.89315e-05 -0.000218719)
(-0.00935647 -3.44796e-05 -0.000271425)