/*--------------------------------*- C++ -*----------------------------------*\
  =========                 |
  \\      /  F ield         | OpenFOAM: The Open Source CFD Toolbox
   \\    /   O peration     | Website:  https://openfoam.org
    \\  /    A nd           | Version:  10
     \\/     M anipulation  |
\*---------------------------------------------------------------------------*/
FoamFile
{
    format      ascii;
    class       volScalarField;
    location    "0.9";
    object      p;
}
// * * * * * * * * * * * * * * * * * * * * * * * * * * * * * * * * * * * * * //

dimensions      [0 2 -2 0 0 0 0];

internalField   nonuniform List<scalar> 
8000
(
9.73507e-10
4.7633e-05
0.000182944
0.000394634
0.000678093
0.00102652
0.0014314
0.00188283
0.0023697
0.00287989
0.00340056
0.00391834
0.00441964
0.00489095
0.0053192
0.00569212
0.00599871
0.00622979
0.00637875
0.0064328
-4.7592e-05
4.38043e-07
0.000137693
0.000352236
0.000639531
0.000992722
0.00140322
0.00186101
0.00235486
0.00287253
0.00340102
0.00392683
0.00443615
0.00491527
0.00535084
0.00573036
0.00604255
0.00627797
0.00642992
0.00648486
-0.000186037
-0.000136439
6.37139e-06
0.00022963
0.000528609
0.00089617
0.0013234
0.00179993
0.00231415
0.00285346
0.00340444
0.00395307
0.00448509
0.00498616
0.00544233
0.00584034
0.00616818
0.0064157
0.00657562
0.00663325
-0.000411054
-0.000358515
-0.000206603
3.08979e-05
0.000348927
0.000739862
0.00119424
0.00170113
0.00224831
0.00282256
0.00340981
0.00399534
0.00456404
0.00510068
0.00559024
0.00601832
0.00637168
0.00663898
0.00681196
0.00687441
-0.000728658
-0.000671846
-0.000506992
-0.000249299
9.56626e-05
0.000519558
0.00101214
0.00156164
0.00215504
0.00277826
0.00341637
0.00405369
0.00467404
0.00526094
0.00579789
0.00626886
0.00665881
0.00695462
0.00714653
0.00721611
-0.00114724
-0.00108471
-0.000902666
-0.000618236
-0.000237729
0.000229523
0.000772195
0.00137745
0.0020312
0.00271834
0.00342289
0.00412805
0.0048163
0.00546959
0.00606957
0.00659799
0.00703735
0.00737195
0.00758979
0.00766928
-0.00167778
-0.00160792
-0.00140384
-0.00108529
-0.000659619
-0.000137537
0.000468215
0.00114342
0.00187273
0.00263984
0.00342758
0.00421795
0.00499192
0.00572964
0.00641045
0.00701328
0.0075173
0.0079032
0.0081557
0.00824865
-0.00233444
-0.00225531
-0.00202352
-0.00166229
-0.00118047
-0.000590647
9.25713e-05
0.000853267
0.00167459
0.00253893
0.00342793
0.00432239
0.00520174
0.00604417
0.00682639
0.00752379
0.00811117
0.00856416
0.00886255
0.00897376
-0.00313518
-0.00304441
-0.00277798
-0.00236383
-0.00181299
-0.00114061
-0.000363779
0.000499502
0.00143067
0.0024108
0.00342044
0.0044394
0.0054458
0.00641589
0.0073235
0.00813986
0.00883405
0.00937467
0.00973416
0.00987045
-0.00410279
-0.0039972
-0.00368737
-0.00320764
-0.00257226
-0.00180001
-0.000911189
7.36026e-05
0.00113393
0.00224962
0.00340042
0.00456568
0.00572272
0.00684629
0.00790738
0.0088725
0.00970357
0.0103594
0.0108012
0.0109729
-0.00526638
-0.00514136
-0.00477659
-0.00421503
-0.00347587
-0.00258302
-0.00156104
-0.000433708
0.000776538
0.00204853
0.00336179
0.00469603
0.0060288
0.00733442
0.00858173
0.00973229
0.0107394
0.0115485
0.0121035
0.0123274
-0.00666392
-0.00651208
-0.0060765
-0.00541139
-0.00454386
-0.00350504
-0.00232514
-0.0010318
0.000350434
0.00179991
0.0032969
0.00482274
0.00635695
0.00787522
0.00934609
0.0107271
0.0119617
0.0129781
0.0136924
0.013998
-0.00834659
-0.00815488
-0.00762575
-0.00682682
-0.00579847
-0.00458178
-0.00321445
-0.00172888
-0.000151624
0.00149604
0.00319665
0.00493502
0.00669515
0.00845718
0.0101926
0.0118581
0.0133881
0.0146899
0.0156353
0.0160766
-0.010387
-0.0101304
-0.00947354
-0.00849662
-0.00726316
-0.00582735
-0.00423713
-0.00253022
-0.000734578
0.00113024
0.0030511
0.00501864
0.00702497
0.00905911
0.011101
0.013113
0.015026
0.0167292
0.0180184
0.0186997
-0.0128805
-0.0125198
-0.0116833
-0.0104612
-0.00896021
-0.00725157
-0.00539574
-0.00343547
-0.00139874
0.000698727
0.00285058
0.00505626
0.00732037
0.00964675
0.0120324
0.014456
0.0168582
0.0191357
0.0209378
0.0221009
-0.0160918
-0.0154637
-0.0143456
-0.0127639
-0.0109066
-0.00885466
-0.00668191
-0.00443401
-0.00213589
0.000203449
0.00258737
0.00502849
0.00754703
0.010169
0.0129194
0.0158101
0.0188125
0.0219003
0.0244593
0.0266727
-0.0196679
-0.0189356
-0.017507
-0.0154317
-0.0131012
-0.0106173
-0.00806886
-0.00549919
-0.00292531
-0.000344549
0.00226048
0.00491783
0.00766513
0.0105559
0.0136525
0.0170187
0.0206866
0.0249143
0.0284244
0.0329185
-0.0271093
-0.02366
-0.0215446
-0.0185333
-0.0155106
-0.0124739
-0.00948722
-0.00657079
-0.00372004
-0.000913014
0.0018855
0.00472377
0.00764758
0.0107586
0.0141838
0.0181223
0.022685
0.0287689
0.034131
0.0429042
-0.0319034
-0.0293775
-0.0261364
-0.022202
-0.0182416
-0.0144516
-0.0109235
-0.00762234
-0.00449558
-0.00148835
0.00145735
0.00440932
0.00740999
0.0105637
0.0139548
0.0178577
0.0217499
0.0295845
0.0332148
0.0514446
-0.0592948
-0.0327689
-0.029377
-0.024054
-0.0193352
-0.0152597
-0.0115415
-0.0080897
-0.00485185
-0.00176514
0.00123279
0.00420369
0.00726231
0.0105147
0.0141476
0.0188854
0.0247642
0.0367043
0.0500066
0.0938384
5.06231e-07
4.57046e-05
0.0001807
0.000392335
0.000675944
0.00102464
0.00142988
0.00188173
0.00236906
0.00287975
0.00340094
0.00391926
0.0044211
0.00489293
0.00532164
0.00569496
0.00600182
0.00623293
0.0063816
0.00643315
-4.4586e-05
9.22126e-07
0.000137762
0.000352061
0.000639274
0.000992461
0.001403
0.00186086
0.00235481
0.00287261
0.00340125
0.00392722
0.00443672
0.00491601
0.00535175
0.0057314
0.00604363
0.0062789
0.00643047
0.00648277
-0.000182283
-0.000135376
6.98363e-06
0.000229954
0.000528796
0.000896291
0.00132349
0.00180002
0.00231427
0.00285362
0.00340468
0.0039534
0.00448553
0.00498672
0.00544299
0.00584108
0.00616891
0.00641623
0.00657573
0.00663054
-0.000406701
-0.000357056
-0.000205634
3.1543e-05
0.000349398
0.000740229
0.00119455
0.00170139
0.00224856
0.00282282
0.00341011
0.00399569
0.00456447
0.0051012
0.00559084
0.00601898
0.00637231
0.00663938
0.00681189
0.00687129
-0.000723674
-0.000670027
-0.000505709
-0.00024838
9.63777e-05
0.000520143
0.00101263
0.00156207
0.00215544
0.00277864
0.00341677
0.00405413
0.00467454
0.00526152
0.00579855
0.00626957
0.00665948
0.00695504
0.00714643
0.00721264
-0.00114149
-0.00108249
-0.000901037
-0.000617016
-0.000236746
0.000230349
0.000772907
0.00137807
0.00203177
0.00271888
0.00342343
0.00412862
0.00481693
0.00547031
0.00607038
0.00659886
0.00703818
0.0073725
0.00758976
0.00766545
-0.00167105
-0.00160517
-0.00140176
-0.00108369
-0.000658299
-0.000136407
0.000469199
0.0011443
0.00187353
0.00264059
0.00342832
0.00421872
0.00499275
0.00573055
0.00641148
0.0070144
0.0075184
0.007904
0.00815583
0.00824443
-0.00232641
-0.00225186
-0.00202084
-0.00166017
-0.0011787
-0.000589121
9.39074e-05
0.000854454
0.00167566
0.00253993
0.00342891
0.00432339
0.00520281
0.00604536
0.00682772
0.00752526
0.00811266
0.00856535
0.00886302
0.00896915
-0.0031254
-0.00303997
-0.00277445
-0.002361
-0.00181061
-0.00113857
-0.000361992
0.00050108
0.0014321
0.00241212
0.00342171
0.00444068
0.00544716
0.0064174
0.00732522
0.0081418
0.00883611
0.00937646
0.00973516
0.00986545
-0.0040906
-0.00399133
-0.00368263
-0.00320381
-0.00256905
-0.00179728
-0.000908835
7.56533e-05
0.00113575
0.00225129
0.00340202
0.00456728
0.00572442
0.00684819
0.00790959
0.00887508
0.00970642
0.0103621
0.0108031
0.0109677
-0.00525074
-0.00513335
-0.00477007
-0.00420978
-0.00347154
-0.00257941
-0.001558
-0.000431118
0.000778792
0.00205055
0.00336371
0.00469794
0.00603085
0.00733675
0.00858451
0.00973567
0.0107433
0.0115526
0.0121068
0.0123224
-0.00664314
-0.00650075
-0.00606734
-0.00540414
-0.00453805
-0.00350035
-0.00232133
-0.00102867
0.000353083
0.00180224
0.00329907
0.00482492
0.00635927
0.00787795
0.00934947
0.0107315
0.0119671
0.0129843
0.0136982
0.0139943
-0.0083177
-0.00813816
-0.0076126
-0.00681676
-0.00579077
-0.00457589
-0.00320992
-0.00172533
-0.000148762
0.00149845
0.00319881
0.00493713
0.00669746
0.00846002
0.0101964
0.0118635
0.0133954
0.0146994
0.0156448
0.0160769
-0.0103448
-0.0101047
-0.0094544
-0.00848275
-0.00725336
-0.00582047
-0.00423229
-0.00252675
-0.000731986
0.00113219
0.00305264
0.00502015
0.00702668
0.00906143
0.0111047
0.0131186
0.0150349
0.0167434
0.0180342
0.0187095
-0.0128119
-0.0124775
-0.0116554
-0.0104428
-0.00894893
-0.00724483
-0.00539182
-0.00343326
-0.00139753
0.000699138
0.00285019
0.00505593
0.00732001
0.00964668
0.0120334
0.0144595
0.0168666
0.0191559
0.0209628
0.0221338
-0.0159884
-0.0153998
-0.014309
-0.0127429
-0.0108973
-0.00885162
-0.00668218
-0.00443586
-0.00213848
0.000200462
0.00258432
0.00502454
0.0075423
0.0101634
0.0129131
0.0158045
0.0188106
0.0219207
0.0244858
0.0267552
-0.0194079
-0.0188147
-0.0174568
-0.0154162
-0.0131047
-0.0106275
-0.00808075
-0.00551069
-0.00293596
-0.000354632
0.00225023
0.00490622
0.00765114
0.0105374
0.0136267
0.0169831
0.0206374
0.0249039
0.0284055
0.0331148
-0.0267744
-0.0234688
-0.0215225
-0.0185589
-0.0155586
-0.0125211
-0.00952766
-0.00660397
-0.00374767
-0.000937435
0.00186171
0.00469717
0.00761584
0.0107164
0.0141238
0.0180427
0.0225593
0.0287102
0.0340346
0.043155
-0.0311269
-0.0294385
-0.0263482
-0.0224679
-0.0184686
-0.0146184
-0.0110434
-0.00771023
-0.00456301
-0.00154449
0.00140393
0.00434697
0.00733732
0.0104591
0.0137794
0.0175924
0.0211622
0.029091
0.0320915
0.0516759
-0.0581037
-0.0321561
-0.0293557
-0.0242439
-0.0195208
-0.0154147
-0.0116644
-0.00818405
-0.00492701
-0.00183018
0.00117044
0.00413931
0.00716815
0.0103796
0.013919
0.0185906
0.0242253
0.0364269
0.0504945
0.0961765
1.08879e-06
4.58519e-05
0.000180684
0.000392206
0.000675763
0.00102446
0.00142974
0.00188166
0.00236908
0.00287989
0.00340121
0.00391967
0.00442165
0.00489362
0.00532245
0.00569584
0.00600271
0.00623375
0.00638228
0.00643337
-4.34886e-05
1.51935e-06
0.000138177
0.00035234
0.000639456
0.000992588
0.0014031
0.00186097
0.00235494
0.00287279
0.00340149
0.00392754
0.00443711
0.00491648
0.00535228
0.00573195
0.00604415
0.00627932
0.00643074
0.00648256
-0.000180865
-0.000134496
7.64949e-06
0.000230441
0.000529158
0.000896572
0.00132372
0.00180023
0.00231447
0.00285384
0.00340494
0.00395371
0.00448588
0.00498712
0.00544343
0.00584152
0.00616931
0.00641651
0.00657584
0.00663013
-0.000404938
-0.000355879
-0.000204697
3.22649e-05
0.000349965
0.000740686
0.00119492
0.00170172
0.00224886
0.00282311
0.0034104
0.003996
0.00456481
0.00510157
0.00559124
0.00601936
0.00637264
0.00663958
0.0068119
0.00687072
-0.00072152
-0.000668524
-0.000504481
-0.000247402
9.71662e-05
0.000520789
0.00101317
0.00156253
0.00215583
0.00277901
0.00341712
0.00405448
0.00467491
0.0052619
0.00579895
0.00626995
0.0066598
0.00695521
0.00714639
0.00721196
-0.00113886
-0.00108059
-0.000899462
-0.00061574
-0.000235701
0.000231211
0.000773622
0.00137867
0.00203228
0.00271934
0.00342385
0.00412903
0.00481734
0.00547073
0.00607082
0.00659929
0.00703854
0.0073727
0.00758973
0.00766471
-0.0016678
-0.00160277
-0.00139974
-0.00108203
-0.000656939
-0.000135286
0.000470124
0.00114506
0.00187417
0.00264114
0.00342882
0.00421919
0.00499322
0.00573104
0.00641199
0.00701491
0.00751885
0.0079043
0.00815588
0.00824367
-0.00232234
-0.00224879
-0.00201824
-0.00165803
-0.00117694
-0.000587682
9.50778e-05
0.000855405
0.00167644
0.00254058
0.00342948
0.00432392
0.00520333
0.00604591
0.00682831
0.00752589
0.00811326
0.00856579
0.00886322
0.00896842
-0.00312021
-0.00303598
-0.00277106
-0.00235821
-0.00180834
-0.00113674
-0.000360538
0.000502228
0.001433
0.00241284
0.00342232
0.00444123
0.00544771
0.00641799
0.0073259
0.00814256
0.00883691
0.00937716
0.00973561
0.00986486
-0.00408383
-0.00398604
-0.00367815
-0.00320017
-0.00256613
-0.00179499
-0.000907074
7.69869e-05
0.00113675
0.00225203
0.0034026
0.00456777
0.0057249
0.00684873
0.00791029
0.00887596
0.00970747
0.0103632
0.010804
0.0109674
-0.00524172
-0.00512622
-0.00476409
-0.004205
-0.00346782
-0.0025766
-0.00155594
-0.000429659
0.000779784
0.0020512
0.00336412
0.00469821
0.00603111
0.00733712
0.00858511
0.0097366
0.0107446
0.0115542
0.0121084
0.0123227
-0.00663082
-0.00649096
-0.00605927
-0.00539788
-0.00453338
-0.00349701
-0.00231907
-0.00102724
0.000353878
0.00180257
0.00329907
0.00482468
0.00635904
0.00787783
0.00934972
0.0107322
0.0119686
0.0129866
0.0137008
0.0139958
-0.00830044
-0.00812443
-0.00760165
-0.0068086
-0.00578505
-0.00457215
-0.0032077
-0.00172424
-0.000148512
0.00149811
0.00319807
0.00493615
0.0066964
0.00845905
0.0101958
0.0118635
0.0133968
0.0147024
0.0156489
0.0160805
-0.01032
-0.0100851
-0.0094395
-0.00847235
-0.00724673
-0.00581674
-0.00423065
-0.00252657
-0.000732838
0.00113068
0.0030506
0.00501779
0.00702411
0.0090588
0.0111023
0.0131172
0.0150355
0.0167469
0.0180403
0.0187173
-0.0127748
-0.0124489
-0.0116352
-0.0104301
-0.00894206
-0.00724208
-0.00539178
-0.00343489
-0.00140025
0.000695706
0.00284607
0.00505135
0.00731491
0.00964115
0.0120278
0.0144547
0.0168643
0.0191592
0.0209713
0.0221494
-0.0159345
-0.0153594
-0.0142831
-0.0127288
-0.010892
-0.00885182
-0.00668549
-0.0044408
-0.00214433
0.000193981
0.00257721
0.0050164
0.00753291
0.0101526
0.0129011
0.0157925
0.0188009
0.0219203
0.0244941
0.0267845
-0.0193156
-0.0187541
-0.0174235
-0.015403
-0.0131045
-0.0106343
-0.00809064
-0.00552166
-0.00294723
-0.000366197
0.00223793
0.00489239
0.00763484
0.0105176
0.0136026
0.0169554
0.0206078
0.0248911
0.0284008
0.0331681
-0.0266426
-0.0233822
-0.021488
-0.0185529
-0.0155702
-0.01254
-0.00954838
-0.0066242
-0.0037669
-0.000956214
0.00184229
0.00467586
0.00759029
0.0106849
0.0140848
0.0179991
0.0225101
0.0286896
0.0340334
0.0432377
-0.0309256
-0.0293676
-0.0263379
-0.0224982
-0.018513
-0.0146628
-0.0110833
-0.00774495
-0.0045937
-0.00157304
0.00137509
0.00431595
0.00729746
0.0104061
0.0137047
0.0174978
0.0210057
0.0289831
0.0319152
0.0517575
-0.0578073
-0.0319982
-0.0293164
-0.0242626
-0.0195592
-0.0154577
-0.0117056
-0.00822116
-0.00496063
-0.00186224
0.00113702
0.00409952
0.00711958
0.0103158
0.0138309
0.0184878
0.0240994
0.0363883
0.0506128
0.0966312
1.72463e-06
4.61162e-05
0.000180766
0.000392161
0.000675661
0.00102435
0.00142966
0.00188164
0.00236915
0.00288006
0.0034015
0.00392008
0.00442218
0.00489426
0.00532318
0.00569663
0.00600351
0.00623448
0.00638286
0.00643359
-4.24618e-05
2.18006e-06
0.000138643
0.000352647
0.000639665
0.000992743
0.00140324
0.00186111
0.00235511
0.002873
0.00340177
0.00392787
0.00443752
0.00491695
0.0053528
0.00573249
0.00604466
0.00627974
0.00643099
0.00648243
-0.000179524
-0.000133549
8.38458e-06
0.000231001
0.000529593
0.00089692
0.00132401
0.00180049
0.00231473
0.00285411
0.00340522
0.00395403
0.00448624
0.00498753
0.00544386
0.00584195
0.00616969
0.00641679
0.00657592
0.0066298
-0.000403262
-0.00035463
-0.000203688
3.30728e-05
0.000350616
0.000741218
0.00119537
0.0017021
0.0022492
0.00282343
0.00341072
0.00399634
0.00456516
0.00510195
0.00559163
0.00601974
0.00637295
0.00663976
0.00681188
0.00687027
-0.000719457
-0.000666934
-0.000503164
-0.000246325
9.80498e-05
0.000521516
0.00101377
0.00156303
0.00215627
0.0027794
0.00341748
0.00405484
0.00467528
0.00526228
0.00579933
0.00627032
0.0066601
0.00695537
0.00714633
0.00721141
-0.00113632
-0.00107859
-0.000897775
-0.000614342
-0.000234548
0.000232161
0.000774404
0.00137932
0.00203282
0.0027198
0.00342427
0.00412943
0.00481774
0.00547114
0.00607123
0.00659969
0.00703888
0.0073729
0.00758968
0.00766411
-0.00166465
-0.00160023
-0.00139759
-0.00108024
-0.000655455
-0.00013407
0.000471113
0.00114587
0.00187483
0.00264169
0.0034293
0.00421963
0.00499365
0.00573149
0.00641245
0.00701538
0.00751927
0.00790457
0.00815589
0.00824306
-0.00231836
-0.00224554
-0.00201546
-0.00165572
-0.00117504
-0.000586145
9.6308e-05
0.000856381
0.00167722
0.00254121
0.00343
0.00432438
0.00520379
0.00604639
0.00682884
0.00752644
0.00811381
0.00856623
0.00886335
0.00896786
-0.00311512
-0.00303177
-0.00276747
-0.00235524
-0.00180592
-0.00113482
-0.000359038
0.000503378
0.00143387
0.00241351
0.00342284
0.00444169
0.00544816
0.00641849
0.00732647
0.00814322
0.00883761
0.00937778
0.00973598
0.00986443
-0.00407721
-0.00398051
-0.00367345
-0.00319632
-0.00256307
-0.00179262
-0.000905288
7.82892e-05
0.00113767
0.00225267
0.00340305
0.00456812
0.00572524
0.00684917
0.00791084
0.00887669
0.00970836
0.0103641
0.0108047
0.0109673
-0.00523293
-0.00511883
-0.00475788
-0.00420001
-0.00346396
-0.00257373
-0.0015539
-0.000428275
0.000780656
0.00205169
0.00336435
0.0046983
0.00603117
0.00733727
0.0085855
0.00973733
0.0107457
0.0115555
0.0121097
0.0123231
-0.00661891
-0.00648094
-0.006051
-0.00539142
-0.00452858
-0.00349364
-0.00231686
-0.00102593
0.000354507
0.00180269
0.00329882
0.00482424
0.00635851
0.00787742
0.00934961
0.0107327
0.0119698
0.0129884
0.013703
0.0139973
-0.00828395
-0.00811063
-0.00759058
-0.00680032
-0.00577926
-0.00456841
-0.00320557
-0.00172332
-0.000148472
0.00149747
0.00319691
0.00493467
0.00669477
0.00845749
0.0101946
0.0118632
0.0133977
0.0147047
0.0156523
0.016084
-0.0102967
-0.0100658
-0.00942471
-0.00846193
-0.00724008
-0.00581305
-0.00422912
-0.00252658
-0.000733973
0.00112867
0.00304792
0.00501462
0.0070206
0.0090552
0.011099
0.0131149
0.0150351
0.0167496
0.0180453
0.0187242
-0.012741
-0.0124216
-0.0116157
-0.0104175
-0.00893518
-0.00723933
-0.00539182
-0.00343682
-0.00140348
0.000691485
0.00284097
0.00504553
0.00730839
0.0096341
0.0120207
0.0144485
0.0168606
0.019161
0.020978
0.0221628
-0.0158858
-0.0153215
-0.0142582
-0.0127149
-0.0108865
-0.00885182
-0.00668884
-0.00444614
-0.00215092
0.000186442
0.00256874
0.00500672
0.00752183
0.01014
0.0128873
0.0157787
0.0187895
0.0219181
0.0244999
0.0268096
-0.0192352
-0.0186988
-0.0173924
-0.0153901
-0.0131038
-0.0106402
-0.00809992
-0.00553248
-0.00295884
-0.000378512
0.00222454
0.00487728
0.0076172
0.0104967
0.0135779
0.0169276
0.0205792
0.0248764
0.0283942
0.0332116
-0.0265363
-0.0233097
-0.0214561
-0.018547
-0.01558
-0.0125566
-0.00956705
-0.00664293
-0.00378525
-0.000974629
0.0018229
0.00465459
0.0075648
0.0106538
0.0140474
0.0179574
0.0224653
0.0286696
0.0340303
0.0433142
-0.0307665
-0.0292922
-0.0263178
-0.0225152
-0.0185459
-0.0146986
-0.0111168
-0.00777516
-0.00462116
-0.00159921
0.00134844
0.00428904
0.00726058
0.0103576
0.013638
0.0174125
0.0208746
0.0288918
0.0317852
0.0518453
-0.0575706
-0.0318483
-0.0292614
-0.0242696
-0.0195908
-0.0154956
-0.0117428
-0.00825518
-0.00499164
-0.00189182
0.00110617
0.00406131
0.00707682
0.0102612
0.0137583
0.0184033
0.0239969
0.0363488
0.0506618
0.0969542
2.37995e-06
4.66382e-05
0.000181187
0.00039249
0.000675918
0.00102456
0.00142984
0.00188182
0.00236934
0.00288028
0.00340176
0.0039204
0.00442255
0.00489468
0.00532364
0.0056971
0.00600396
0.00623488
0.00638318
0.00643379
-4.16294e-05
2.86355e-06
0.000139208
0.000353103
0.000640034
0.000993047
0.0014035
0.00186135
0.00235535
0.00287325
0.00340203
0.00392818
0.00443786
0.00491732
0.00535319
0.00573288
0.00604502
0.00628004
0.0064312
0.00648252
-0.00017848
-0.000132667
9.13143e-06
0.000231619
0.000530101
0.000897341
0.00132437
0.0018008
0.00231501
0.00285438
0.00340551
0.00395433
0.00448656
0.00498786
0.0054442
0.00584228
0.00616999
0.00641701
0.00657605
0.0066298
-0.000401949
-0.000353498
-0.000202713
3.38925e-05
0.000351299
0.000741786
0.00119584
0.0017025
0.00224955
0.00282375
0.00341102
0.00399664
0.00456547
0.00510226
0.00559194
0.00602003
0.0063732
0.00663993
0.00681195
0.00687018
-0.000717812
-0.000665496
-0.000501911
-0.000245261
9.89412e-05
0.000522257
0.00101438
0.00156354
0.0021567
0.00277977
0.00341782
0.00405516
0.00467559
0.00526259
0.00579963
0.0062706
0.00666033
0.00695552
0.00714636
0.00721128
-0.00113425
-0.00107676
-0.000896175
-0.000612978
-0.000233404
0.000233106
0.000775177
0.00137995
0.00203334
0.00272023
0.00342464
0.00412976
0.00481805
0.00547145
0.00607153
0.00659997
0.00703911
0.00737304
0.00758971
0.00766396
-0.00166204
-0.00159791
-0.00139555
-0.00107849
-0.000654002
-0.000132882
0.000472069
0.00114663
0.00187543
0.00264216
0.00342969
0.00421996
0.00499396
0.00573179
0.00641275
0.00701567
0.00751953
0.00790475
0.00815596
0.00824293
-0.00231503
-0.00224256
-0.00201284
-0.0016535
-0.00117321
-0.000584667
9.74688e-05
0.000857272
0.00167789
0.00254171
0.00343038
0.00432468
0.00520405
0.00604665
0.00682911
0.00752674
0.00811408
0.00856645
0.0088635
0.0089678
-0.00311082
-0.00302791
-0.00276409
-0.0023524
-0.00180361
-0.001133
-0.000357657
0.000504389
0.00143458
0.00241399
0.00342315
0.00444188
0.00544829
0.00641863
0.00732666
0.00814348
0.00883792
0.00937811
0.00973626
0.00986451
-0.00407159
-0.00397547
-0.00366907
-0.00319269
-0.00256018
-0.00179042
-0.000903692
7.93793e-05
0.00113835
0.00225303
0.00340318
0.0045681
0.00572516
0.00684909
0.00791087
0.00887686
0.00970868
0.0103645
0.0108052
0.0109676
-0.00522549
-0.00511218
-0.00475217
-0.00419538
-0.00346039
-0.00257112
-0.00155213
-0.000427197
0.000781177
0.00205178
0.00336413
0.0046979
0.00603068
0.00733682
0.00858519
0.00973726
0.010746
0.011556
0.0121105
0.0123239
-0.00660894
-0.00647207
-0.00604353
-0.00538553
-0.00452423
-0.00349066
-0.00231503
-0.00102504
0.000354659
0.00180228
0.00329801
0.00482317
0.00635733
0.00787627
0.00934867
0.0107322
0.0119698
0.012989
0.0137041
0.0139986
-0.00827042
-0.00809871
-0.00758082
-0.00679292
-0.0057741
-0.00456519
-0.00320392
-0.00172291
-0.000149017
0.00149622
0.00319514
0.00493253
0.00669242
0.00845514
0.0101925
0.0118617
0.0133971
0.0147053
0.015654
0.0160864
-0.0102781
-0.0100497
-0.009412
-0.0084528
-0.00723423
-0.0058099
-0.00422808
-0.00252712
-0.000735672
0.00112609
0.00304464
0.00501081
0.00701642
0.00905088
0.0110949
0.0131116
0.0150331
0.0167498
0.0180476
0.0187284
-0.0127154
-0.0123998
-0.0115993
-0.0104066
-0.00892904
-0.00723688
-0.00539208
-0.00343898
-0.001407
0.000686911
0.00283545
0.0050393
0.0073015
0.00962675
0.0120133
0.0144419
0.016856
0.0191599
0.0209804
0.0221699
-0.0158509
-0.0152926
-0.0142378
-0.0127026
-0.0108809
-0.00885108
-0.00669139
-0.00445085
-0.0021571
0.000179117
0.00256038
0.00499714
0.00751109
0.0101282
0.0128749
0.0157667
0.0187797
0.0219143
0.0245022
0.0268216
-0.0191853
-0.0186597
-0.0173671
-0.015377
-0.0130999
-0.0106427
-0.00810614
-0.00554092
-0.00296866
-0.000389502
0.0022122
0.00486314
0.00760135
0.0104788
0.013558
0.0169069
0.0205601
0.0248664
0.0283919
0.0332306
-0.0264717
-0.0232603
-0.0214276
-0.0185347
-0.0155796
-0.0125636
-0.00957817
-0.00665605
-0.00379945
-0.000989871
0.00180586
0.00463437
0.00754304
0.0106291
0.0140196
0.0179289
0.0224389
0.0286577
0.0340325
0.0433478
-0.0306838
-0.0292354
-0.0262874
-0.0225064
-0.0185516
-0.0147123
-0.011134
-0.00779365
-0.00464008
-0.00161883
0.00132635
0.00425692
0.00723138
0.0103232
0.0135957
0.0173641
0.0208146
0.0288544
0.0317497
0.0518819
-0.0574582
-0.0317687
-0.0292205
-0.0242582
-0.0195961
-0.0155104
-0.0117619
-0.00827567
-0.00501243
-0.00191277
0.00108545
0.00404645
0.00704806
0.0102241
0.0137133
0.018355
0.0239487
0.0363303
0.0506752
0.0970553
2.99334e-06
4.71743e-05
0.000181643
0.000392869
0.00067623
0.00102482
0.00143007
0.00188203
0.00236955
0.00288051
0.00340201
0.00392067
0.00442285
0.004895
0.00532397
0.00569744
0.00600428
0.00623516
0.00638341
0.00643395
-4.09103e-05
3.50461e-06
0.000139765
0.000353573
0.000640428
0.000993379
0.00140379
0.00186161
0.00235559
0.00287349
0.00340228
0.00392844
0.00443814
0.00491761
0.00535349
0.00573317
0.00604529
0.00628026
0.00643137
0.00648261
-0.000177601
-0.000131873
9.83049e-06
0.000232218
0.000530608
0.000897768
0.00132473
0.00180112
0.0023153
0.00285465
0.00340576
0.00395459
0.00448683
0.00498813
0.00544447
0.00584254
0.00617022
0.00641719
0.00657617
0.00662984
-0.000400854
-0.000352499
-0.000201824
3.4661e-05
0.000351952
0.000742336
0.0011963
0.00170289
0.00224989
0.00282405
0.0034113
0.0039969
0.00456573
0.00510252
0.00559219
0.00602027
0.0063734
0.00664008
0.00681203
0.00687018
-0.000716437
-0.000664232
-0.000500781
-0.000244279
9.97752e-05
0.000522955
0.00101496
0.00156402
0.0021571
0.00278011
0.00341811
0.00405542
0.00467584
0.00526283
0.00579987
0.00627081
0.00666051
0.00695564
0.00714642
0.00721126
-0.00113252
-0.00107516
-0.000894739
-0.000611731
-0.000232348
0.000233981
0.000775891
0.00138052
0.0020338
0.0027206
0.00342495
0.00413002
0.00481829
0.00547168
0.00607175
0.00660017
0.00703929
0.00737316
0.00758977
0.00766393
-0.00165983
-0.00159587
-0.00139372
-0.00107691
-0.000652673
-0.000131795
0.000472937
0.0011473
0.00187595
0.00264256
0.00342999
0.00422021
0.00499417
0.00573199
0.00641295
0.00701585
0.0075197
0.00790489
0.00815603
0.00824291
-0.00231222
-0.00223995
-0.00201051
-0.00165149
-0.00117154
-0.000583331
9.85058e-05
0.000858049
0.00167845
0.0025421
0.00343065
0.00432487
0.0052042
0.00604678
0.00682926
0.0075269
0.00811427
0.00856662
0.00886362
0.00896782
-0.00310719
-0.00302454
-0.0027611
-0.00234986
-0.00180154
-0.00113138
-0.000356445
0.000505249
0.00143515
0.00241432
0.00342332
0.00444194
0.00544831
0.00641864
0.00732671
0.00814359
0.0088381
0.00937832
0.00973645
0.00986462
-0.00406686
-0.0039711
-0.00366522
-0.00318947
-0.00255762
-0.00178848
-0.000902317
8.02758e-05
0.00113886
0.00225323
0.00340315
0.00456793
0.00572492
0.00684886
0.00791071
0.00887683
0.0097088
0.0103648
0.0108055
0.0109678
-0.00521929
-0.00510647
-0.00474721
-0.00419132
-0.00345726
-0.00256886
-0.00155063
-0.000426349
0.000781502
0.0020517
0.00336375
0.00469732
0.00603001
0.00733616
0.00858465
0.00973695
0.0107459
0.0115563
0.0121109
0.0123243
-0.00660074
-0.00646459
-0.00603715
-0.00538045
-0.00452047
-0.00348811
-0.00231352
-0.00102438
0.000354622
0.00180171
0.00329704
0.00482193
0.00635595
0.00787491
0.00934747
0.0107313
0.0119695
0.0129892
0.0137048
0.0139995
-0.00825953
-0.00808887
-0.00757261
-0.00678662
-0.00576968
-0.00456244
-0.00320258
-0.00172269
-0.000149682
0.00149487
0.00319325
0.00493028
0.00668996
0.00845265
0.0101902
0.0118599
0.0133961
0.0147053
0.0156549
0.0160878
-0.0102636
-0.0100367
-0.00940154
-0.00844513
-0.00722922
-0.00580719
-0.00422721
-0.00252769
-0.000737344
0.00112355
0.00304141
0.00500708
0.00701235
0.00904668
0.0110909
0.0131082
0.0150309
0.0167492
0.0180487
0.0187308
-0.0126961
-0.0123828
-0.0115861
-0.0103975
-0.00892368
-0.00723459
-0.00539216
-0.00344082
-0.00141016
0.000682709
0.00283035
0.00503351
0.00729515
0.00962006
0.0120067
0.014436
0.0168517
0.0191583
0.0209817
0.0221738
-0.0158254
-0.0152707
-0.0142215
-0.0126922
-0.0108756
-0.00884983
-0.00669306
-0.00445457
-0.0021623
0.000172745
0.002553
0.00498868
0.00750172
0.0101181
0.0128645
0.0157568
0.0187718
0.0219106
0.0245028
0.0268281
-0.0191507
-0.0186314
-0.0173473
-0.0153657
-0.0130955
-0.0106432
-0.00811012
-0.00554715
-0.00297646
-0.000398587
0.00220178
0.00485128
0.0075882
0.0104643
0.0135425
0.0168915
0.0205465
0.0248588
0.0283899
0.0332406
-0.0264287
-0.0232254
-0.0214051
-0.0185233
-0.015577
-0.0125669
-0.00958512
-0.00666523
-0.00381011
-0.00100186
0.00179222
0.00461853
0.00752584
0.0106101
0.0139991
0.0179084
0.0224207
0.0286487
0.0340324
0.0433656
-0.0306302
-0.0291943
-0.0262621
-0.022496
-0.0185517
-0.0147189
-0.0111444
-0.00780592
-0.00465355
-0.00163346
0.00130981
0.00423588
0.00720983
0.0102985
0.0135668
0.0173323
0.0207786
0.0288317
0.0317312
0.0519015
-0.0573894
-0.0317155
-0.0291889
-0.0242456
-0.0195963
-0.0155181
-0.0117735
-0.00828932
-0.00502714
-0.00192821
0.00106955
0.00403155
0.00702677
0.010198
0.0136831
0.0183236
0.0239186
0.0363166
0.0506769
0.0971027
3.53282e-06
4.7674e-05
0.000182091
0.000393259
0.000676566
0.00102511
0.00143032
0.00188226
0.00236976
0.00288071
0.00340222
0.00392088
0.00442308
0.00489523
0.00532421
0.00569767
0.0060045
0.00623535
0.00638357
0.00643408
-4.03046e-05
4.06834e-06
0.000140272
0.000354018
0.000640811
0.000993708
0.00140407
0.00186186
0.00235582
0.0028737
0.00340249
0.00392865
0.00443836
0.00491784
0.00535371
0.00573339
0.00604549
0.00628043
0.0064315
0.00648272
-0.000176877
-0.000131196
1.04426e-05
0.000232756
0.000531072
0.000898165
0.00132507
0.00180141
0.00231555
0.00285488
0.00340598
0.0039548
0.00448704
0.00498834
0.00544468
0.00584274
0.00617039
0.00641733
0.00657628
0.00662993
-0.000399961
-0.00035166
-0.000201062
3.53323e-05
0.000352531
0.000742827
0.00119672
0.00170324
0.00225018
0.0028243
0.00341153
0.00399711
0.00456593
0.00510272
0.00559238
0.00602044
0.00637355
0.0066402
0.00681211
0.00687024
-0.000715319
-0.000663178
-0.000499822
-0.000243435
0.000100501
0.000523565
0.00101547
0.00156444
0.00215744
0.00278039
0.00341835
0.00405564
0.00467603
0.00526301
0.00580004
0.00627097
0.00666065
0.00695575
0.00714649
0.00721129
-0.00113111
-0.00107383
-0.000893527
-0.000610666
-0.00023144
0.000234737
0.000776506
0.00138102
0.00203419
0.00272091
0.00342519
0.00413023
0.00481847
0.00547183
0.0060719
0.00660031
0.00703941
0.00737326
0.00758983
0.00766395
-0.00165804
-0.00159417
-0.00139218
-0.00107557
-0.000651539
-0.000130866
0.000473675
0.00114787
0.00187637
0.00264287
0.00343022
0.00422038
0.0049943
0.0057321
0.00641306
0.00701597
0.00751981
0.00790498
0.0081561
0.00824294
-0.00230992
-0.00223779
-0.00200856
-0.0016498
-0.00117013
-0.000582202
9.93764e-05
0.000858691
0.0016789
0.00254239
0.00343082
0.00432497
0.00520425
0.00604682
0.0068293
0.00752697
0.00811435
0.00856671
0.0088637
0.00896788
-0.00310424
-0.00302177
-0.00275861
-0.00234773
-0.0017998
-0.00113002
-0.00035544
0.000505943
0.00143559
0.00241455
0.00342339
0.00444191
0.00544822
0.00641854
0.00732663
0.00814357
0.00883813
0.0093784
0.00973656
0.00986471
-0.00406304
-0.00396752
-0.00366205
-0.0031868
-0.00255549
-0.00178688
-0.000901191
8.09827e-05
0.00113921
0.00225331
0.00340302
0.00456767
0.00572458
0.00684852
0.00791042
0.00887664
0.00970874
0.0103648
0.0108056
0.010968
-0.00521433
-0.00510186
-0.00474317
-0.00418798
-0.00345467
-0.002567
-0.00154943
-0.000425704
0.000781686
0.00205152
0.00336329
0.00469668
0.00602928
0.00733543
0.008584
0.00973647
0.0107457
0.0115563
0.0121111
0.0123246
-0.00659429
-0.00645861
-0.006032
-0.00537631
-0.00451738
-0.00348602
-0.00231231
-0.00102392
0.000354484
0.00180109
0.00329606
0.00482072
0.0063546
0.00787355
0.00934624
0.0107303