/*--------------------------------*- C++ -*----------------------------------*\
  =========                 |
  \\      /  F ield         | OpenFOAM: The Open Source CFD Toolbox
   \\    /   O peration     | Website:  https://openfoam.org
    \\  /    A nd           | Version:  10
     \\/     M anipulation  |
\*---------------------------------------------------------------------------*/
FoamFile
{
    format      ascii;
    class       volVectorField;
    location    "8.25";
    object      U;
}
// * * * * * * * * * * * * * * * * * * * * * * * * * * * * * * * * * * * * * //

dimensions      [0 1 -1 0 0 0 0];

internalField   nonuniform List<vector> 
496
(
(9.98913 0.0956003 0)
(9.89216 -0.197822 0)
(10.1864 -0.113081 0)
(10.7291 -0.212651 0)
(10.1121 0.548002 0)
(9.76591 -1.30314 0)
(10.237 -0.329453 0)
(10.7739 -1.14455 0)
(10.8491 1.4443 0)
(9.07405 -2.95792 0)
(11.1476 -0.084074 0)
(10.7058 -4.03963 0)
(12.3411 1.5733 0)
(7.96064 -2.55575 0)
(13.0975 0.792584 0)
(10.0247 -6.3727 0)
(11.4441 -0.227414 3.26075e-18)
(12.1571 -0.164183 -5.97258e-19)
(11.6231 -0.476318 -2.1075e-19)
(12.4633 0.116989 1.62386e-18)
(12.8604 -2.04276 -3.05396e-18)
(13.0628 -0.518177 -1.02611e-18)
(13.2951 -5.37264 -3.26089e-17)
(15.4055 -4.27473 6.11346e-17)
(12.7411 -0.202332 0)
(13.0378 -0.13026 0)
(13.2358 -0.1097 0)
(13.2576 0.0460635 0)
(13.0668 0.0491647 0)
(13.4597 -0.25129 0)
(13.75 -0.527198 0)
(13.8684 -0.572539 0)
(12.5163 0.783712 0)
(12.7143 0.755291 0)
(13.0221 0.458603 0)
(13.4089 0.565704 0)
(11.1957 -2.90714 0)
(11.1375 -1.89544 0)
(8.25975 -0.830363 0)
(12.1618 -0.842158 0)
(13.3089 0.15467 0)
(13.2513 0.268846 0)
(13.2442 0.370503 0)
(13.1354 0.387923 0)
(13.1084 0.447986 0)
(12.9924 0.394259 0)
(12.9924 0.441138 0)
(12.8849 0.403879 0)
(12.9173 0.406194 0)
(12.7759 0.394711 0)
(12.8346 0.383497 0)
(12.6749 0.457379 0)
(12.707 0.423268 0)
(12.4572 0.501519 0)
(12.4046 0.452362 0)
(12.087 0.525789 0)
(11.9096 0.497866 0)
(11.6364 0.516457 0)
(11.5291 0.484894 0)
(11.4931 0.383783 0)
(11.451 0.339924 0)
(11.5473 0.237634 0)
(11.5611 0.260877 0)
(11.6932 0.211673 0)
(11.6442 0.291637 0)
(11.6199 0.306153 0)
(11.4779 0.385131 0)
(11.2532 0.388946 0)
(11.0101 0.429386 0)
(10.6252 0.417378 0)
(10.4622 0.414186 0)
(10.1432 0.365988 0)
(10.1808 0.289428 0)
(9.92642 0.209316 0)
(10.2411 0.116949 0)
(10.1524 0.0886341 0)
(10.6714 0.0172499 0)
(10.6292 0.0638765 0)
(10.979 0.0368228 0)
(10.9021 0.147314 0)
(13.932 -0.555321 0)
(13.8565 -0.450466 0)
(13.8205 -0.344003 0)
(13.6601 -0.334466 0)
(13.6215 -0.261588 0)
(13.5051 -0.339367 0)
(13.5406 -0.277131 0)
(13.4419 -0.333093 0)
(13.4722 -0.314814 0)
(13.4163 -0.322538 0)
(13.4872 -0.289597 0)
(13.4488 -0.198012 0)
(13.4071 -0.21934 0)
(13.3174 -0.0868072 0)
(13.195 -0.11778 0)
(13.0786 -0.0446048 0)
(12.8426 -0.163881 0)
(12.6995 -0.179104 0)
(12.4905 -0.235382 0)
(12.4684 -0.274367 0)
(12.4557 -0.326453 0)
(12.5661 -0.373301 0)
(12.6928 -0.347733 0)
(12.8289 -0.270868 0)
(12.978 -0.1623 0)
(12.9711 -0.0441232 0)
(12.9964 0.0817896 0)
(12.7916 0.130115 0)
(12.7066 0.187352 0)
(12.3603 0.101949 0)
(12.2798 0.0923712 0)
(11.9225 -0.0882741 0)
(11.9175 -0.12213 0)
(11.6448 -0.317587 0)
(11.8375 -0.331849 0)
(11.7942 -0.414953 0)
(12.1349 -0.417609 0)
(12.2424 -0.292398 0)
(12.4653 -0.301497 0)
(12.6473 -0.0478424 0)
(13.6172 0.427212 0)
(13.6167 0.515249 0)
(13.6416 0.522001 0)
(13.3725 0.425145 0)
(13.383 0.536054 0)
(13.2151 0.460382 0)
(13.2164 0.482826 0)
(13.1524 0.327529 0)
(13.0364 0.307987 0)
(13.1914 0.355918 0)
(13.0356 0.328768 0)
(13.2505 0.496732 0)
(12.9878 0.394106 0)
(13.2356 0.727228 0)
(12.9069 0.720553 0)
(12.9144 0.989323 0)
(12.549 0.919517 0)
(12.4898 0.840339 0)
(12.4116 0.668194 0)
(12.2281 0.239789 0)
(12.3491 0.15384 0)
(12.1553 -0.249506 0)
(12.5483 -0.0775775 0)
(12.4283 -0.232586 0)
(12.8848 0.0488924 0)
(12.7703 0.125116 0)
(13.2534 0.414507 0)
(13.0136 0.594692 0)
(13.3005 0.817029 0)
(12.8699 0.936499 0)
(12.9248 1.03891 0)
(12.5229 0.918924 0)
(12.4534 0.599107 0)
(12.2644 0.207252 0)
(12.0791 -0.280027 0)
(12.1084 -0.424741 0)
(11.9136 -0.673626 0)
(12.1225 -0.425417 0)
(11.9449 -0.538889 0)
(12.2252 -0.132027 0)
(9.59795 -0.487944 0)
(11.151 -0.171679 0)
(10.539 -0.525898 0)
(10.066 -0.156322 0)
(10.8051 -0.0960803 0)
(10.6501 -0.21978 0)
(10.2199 -0.10526 0)
(10.3821 -0.0876081 0)
(10.4081 -0.123135 0)
(10.6395 -0.139762 0)
(10.5204 -0.238989 0)
(10.7393 -0.285222 0)
(10.4947 -0.262195 0)
(11.256 -0.127936 0)
(10.9749 -0.0452533 0)
(11.6146 0.0923207 0)
(11.3004 0.176235 0)
(11.3317 0.206267 0)
(10.9434 0.127332 0)
(10.3355 0.0614066 0)
(10.3014 -0.0057681 0)
(9.37093 -0.109116 0)
(9.87317 -0.21872 0)
(9.13223 -0.371146 0)
(9.94901 -0.378845 0)
(9.74157 -0.327805 0)
(10.6212 -0.169535 0)
(10.772 -0.0873937 0)
(11.4053 0.108849 0)
(11.7501 0.149945 0)
(12.0878 0.261838 0)
(12.2039 0.199424 0)
(11.7046 0.181789 0)
(11.4484 0.201817 0)
(9.94808 0.188318 0)
(9.6032 0.300079 0)
(8.21974 0.0799249 0)
(8.40263 0.0589011 0)
(7.67737 -0.226532 0)
(8.32013 -0.217194 0)
(12.0942 0.620125 -1.08422e-17)
(8.05547 -0.854236 -1.82247e-17)
(11.3827 0.103931 3.1931e-17)
(4.90381 -4.69819 -8.5801e-17)
(12.1133 -0.55526 1.07423e-17)
(8.13148 0.86363 1.80635e-17)
(11.4322 0.0761464 -3.16432e-17)
(5.07951 4.76619 8.49129e-17)
(2.44814 3.31518 0)
(-3.60855 -2.39319 0)
(7.56132 1.07005 0)
(-3.37018 2.77465 0)
(-8.3366 -2.26116 3.13033e-17)
(9.5229 -4.8001 0)
(-10.9554 0.184261 0)
(4.76761 3.11483 0)
(-2.09299 -2.68747 0)
(1.14699 1.74046 0)
(-2.56155 -1.2998 0)
(1.11021 0.155444 0)
(0.238128 1.81998 0)
(-1.57025 -0.123265 0)
(-0.570609 -0.140531 0)
(1.84777 0.374785 0)
(0.622192 0.285182 0)
(1.3905 0.573458 0)
(1.19109 0.132839 0)
(1.1931 0.0161992 0)
(1.94471 0.108943 0)
(2.29014 0.293693 0)
(2.14185 0.456055 0)
(2.72339 0.842598 0)
(2.70301 0.923126 0)
(2.35884 0.883408 0)
(2.54579 1.02136 0)
(2.79429 0.776157 0)
(2.39769 0.411173 0)
(2.97652 0.0128594 0)
(3.06608 -0.263681 0)
(3.35279 -0.518729 0)
(3.71355 -0.643406 0)
(4.14775 -0.538651 0)
(4.42712 -0.395599 0)
(4.6541 -0.261533 0)
(4.85096 0.0204446 0)
(5.01004 0.480642 0)
(5.01645 0.730132 0)
(4.37371 0.852293 0)
(4.7603 1.267 0)
(3.84614 1.22544 0)
(3.84447 0.937025 0)
(3.97545 0.795394 0)
(3.47923 0.160661 0)
(4.09643 -0.118032 0)
(3.82038 -0.649947 0)
(4.40556 -0.557935 0)
(0.0593978 -0.0785268 0)
(-0.387778 0.136034 0)
(1.37374 -0.0865437 0)
(-1.69796 -0.815299 0)
(-0.311433 1.00823 0)
(1.33457 -0.0463544 0)
(0.0884599 -1.75666 0)
(0.135826 -0.698635 0)
(-0.735659 -0.206188 0)
(0.816861 -0.488932 0)
(0.34944 -0.622917 0)
(0.848405 -0.788934 0)
(0.752049 -0.742905 0)
(0.855534 -0.376708 0)
(0.808475 -0.182067 0)
(1.37047 -0.00469921 0)
(1.68428 0.288226 0)
(1.54501 0.447008 0)
(2.50097 0.244414 0)
(2.69122 0.0131407 0)
(2.76525 -0.108786 0)
(3.2651 -0.519386 0)
(3.16616 -0.702715 0)
(3.27617 -0.893689 0)
(3.13152 -0.953582 0)
(3.17983 -0.878753 0)
(3.11365 -0.716342 0)
(2.99482 -0.315163 0)
(2.96287 0.0173715 0)
(3.44783 0.292002 0)
(3.2474 0.663244 0)
(3.49557 0.859992 0)
(3.65243 1.01957 0)
(4.43263 0.932766 0)
(4.20376 0.735284 0)
(4.91919 0.461026 0)
(5.20452 -0.0726484 0)
(5.04207 -0.279784 0)
(5.41485 -0.838015 0)
(5.00572 -0.895355 0)
(12.1684 -1.62078 0)
(8.04763 2.69325 0)
(13.0105 -0.852786 0)
(10.1861 6.63755 0)
(10.9005 -1.38676 0)
(8.99108 2.98125 0)
(11.283 0.169611 0)
(10.6912 4.10539 0)
(10.0777 -0.503848 0)
(9.77686 1.25045 0)
(10.2593 0.359819 0)
(10.8191 1.10014 0)
(9.97456 -0.0699809 0)
(9.94017 0.163904 0)
(10.2022 0.137929 0)
(10.7758 0.202218 0)
(13.3758 5.39815 3.71229e-17)
(15.7034 4.45051 -6.63735e-17)
(13.052 2.13845 0)
(13.1021 0.375871 0)
(11.6389 0.44446 0)
(12.4896 -0.21158 0)
(11.4609 0.225374 0)
(12.1809 0.195109 0)
(11.2131 2.74288 0)
(10.2483 1.71 0)
(8.95965 1.77239 0)
(8.23667 0.207281 0)
(12.5552 -0.844429 0)
(12.6076 -1.26552 0)
(12.8695 -0.825904 0)
(13.2364 -0.325876 0)
(13.0602 -0.157315 0)
(13.4482 0.217611 0)
(13.7104 0.579346 0)
(13.7538 0.736471 0)
(12.7234 0.178649 0)
(12.9897 0.176208 0)
(13.1502 0.0592256 0)
(13.1471 -0.0241005 0)
(9.42774 -0.228472 0)
(9.73629 -0.11247 0)
(9.92803 -0.0169105 0)
(9.88134 0.175316 0)
(9.46004 0.285342 0)
(9.0416 0.00668447 0)
(9.61677 -0.0584179 0)
(9.75017 0.140808 0)
(9.23027 0.0962802 0)
(9.47335 -0.0662824 0)
(8.99542 -0.0777677 0)
(8.83895 -0.110742 0)
(8.69237 -0.115201 0)
(8.19069 -0.0737491 0)
(8.4299 0.0285763 0)
(7.65217 0.110314 0)
(8.49596 0.177347 0)
(8.10031 0.298868 0)
(8.91489 0.21644 0)
(9.38116 0.163437 0)
(9.49203 0.00950119 0)
(10.411 -0.119264 0)
(9.76897 -0.182432 0)
(10.536 -0.231028 0)
(9.27649 -0.161613 0)
(9.63125 -0.241485 0)
(8.38163 -0.200243 0)
(8.40036 -0.177578 0)
(7.70763 -0.0432761 0)
(7.62462 0.128955 0)
(7.80704 0.275105 0)
(7.83176 0.502129 0)
(8.52541 0.582503 0)
(8.90461 0.513251 0)
(9.94783 0.44072 0)
(10.2099 0.234844 0)
(11.4766 0.00273887 0)
(11.5423 -0.121536 0)
(12.4828 -0.237534 0)
(12.4644 -0.147294 0)
(13.5856 -0.104114 0)
(13.8782 -0.0898526 0)
(13.8237 -0.118015 0)
(13.7407 -0.247015 0)
(13.5034 -0.19492 0)
(13.4078 -0.228085 0)
(13.5559 -0.268555 0)
(13.3772 -0.385341 0)
(13.5776 -0.401524 0)
(13.2293 -0.381397 0)
(13.505 -0.44012 0)
(13.0868 -0.245923 0)
(13.3748 -0.305447 0)
(13.1099 -0.0810314 0)
(13.3247 -0.140957 0)
(13.1909 0.00315535 0)
(13.2713 -0.0635976 0)
(13.446 -0.196997 0)
(13.4589 -0.288351 0)
(13.7389 -0.649644 0)
(13.5389 -0.689585 0)
(13.6788 -0.993613 0)
(13.3945 -0.884558 0)
(13.4652 -0.889865 0)
(13.2762 -0.615784 0)
(13.2412 -0.377278 0)
(13.0953 -0.114882 0)
(12.9129 0.114455 0)
(12.8738 0.202595 0)
(12.7269 0.261175 0)
(12.8432 0.24305 0)
(12.882 0.140431 0)
(13.055 0.0603198 0)
(13.2801 -0.193627 0)
(13.5947 -0.495325 0)
(13.7764 -0.707924 0)
(13.919 -1.1932 0)
(13.7531 -1.12861 0)
(13.6521 -1.56752 0)
(13.2516 -1.1164 0)
(13.8409 0.683133 0)
(13.8236 0.457172 0)
(13.8677 0.286609 0)
(13.7754 0.0607842 0)
(13.723 0.102326 0)
(13.6337 0.0319699 0)
(13.6101 0.0680038 0)
(13.5863 -0.00382991 0)
(13.519 0.0219751 0)
(13.476 0.0501984 0)
(13.3797 0.0158262 0)
(13.3244 0.097874 0)
(13.2766 0.0335131 0)
(13.2929 0.150034 0)
(13.3771 0.0800498 0)
(13.3519 0.162228 0)
(13.4561 0.113932 0)
(13.3467 0.0478897 0)
(13.4323 -0.012581 0)
(13.1877 -0.162543 0)
(13.1473 -0.11413 0)
(12.8187 -0.151008 0)
(12.7021 -1.94901e-05 0)
(12.4414 0.0727976 0)
(12.2968 0.180573 0)
(12.1945 0.287354 0)
(12.1586 0.303343 0)
(12.2588 0.424527 0)
(12.3712 0.408897 0)
(12.5639 0.453373 0)
(12.7125 0.42824 0)
(12.8865 0.310809 0)
(12.9796 0.249023 0)
(13.0771 0.0158092 0)
(12.9472 -0.0893777 0)
(12.8444 -0.297391 0)
(12.5346 -0.276329 0)
(12.2621 -0.218642 0)
(11.9999 -0.0787589 0)
(11.5185 0.170153 0)
(13.22 -0.136744 0)
(13.1983 -0.224904 0)
(13.2744 -0.284303 0)
(13.1975 -0.333457 0)
(13.1861 -0.304424 0)
(13.0135 -0.301261 0)
(12.9876 -0.267227 0)
(12.8654 -0.261455 0)
(12.8132 -0.237279 0)
(12.6456 -0.203689 0)
(12.5128 -0.223429 0)
(12.3874 -0.20183 0)
(12.3251 -0.230634 0)
(12.3213 -0.183611 0)
(12.3318 -0.208418 0)
(12.2819 -0.191863 0)
(12.2553 -0.226516 0)
(12.1028 -0.277515 0)
(12.0963 -0.311505 0)
(11.8104 -0.376108 0)
(11.7017 -0.375711 0)
(11.2597 -0.44754 0)
(11.1521 -0.443988 0)
(10.8245 -0.478617 0)
(10.7731 -0.408459 0)
(10.5773 -0.358079 0)
(10.599 -0.287958 0)
(10.6304 -0.234017 0)
(10.8126 -0.206444 0)
(10.9582 -0.182094 0)
(11.1398 -0.184666 0)
(11.2024 -0.215332 0)
(11.2505 -0.256538 0)
(11.1669 -0.341064 0)
(11.023 -0.400789 0)
(10.8 -0.424752 0)
(10.3951 -0.497049 0)
(10.0541 -0.469546 0)
(9.61617 -0.579039 0)
(9.29074 -0.462655 0)
)
;

boundaryField
{
    inlet
    {
        type            fixedValue;
        value           uniform (10 0 0);
    }
    outlet
    {
        type            zeroGradient;
    }
    obstacle
    {
        type            noSlip;
    }
    upperWall
    {
        type            noSlip;
    }
    lowerWall
    {
        type            noSlip;
    }
    frontAndBack
    {
        type            empty;
    }
}


// ************************************************************************* //
