/*--------------------------------*- C++ -*----------------------------------*\
  =========                 |
  \\      /  F ield         | OpenFOAM: The Open Source CFD Toolbox
   \\    /   O peration     | Website:  https://openfoam.org
    \\  /    A nd           | Version:  10
     \\/     M anipulation  |
\*---------------------------------------------------------------------------*/
FoamFile
{
    format      ascii;
    class       surfaceScalarField;
    location    "1.325";
    object      phi;
}
// * * * * * * * * * * * * * * * * * * * * * * * * * * * * * * * * * * * * * //

dimensions      [0 3 -1 0 0 0 0];

internalField   nonuniform List<scalar> 
928
(
0.0958092
0.00419084
0.103574
-0.00776525
0.10769
-0.00411544
-0.00964843
0.117338
0.0945031
0.00968772
0.10665
-0.0199126
0.102884
-0.00034901
-0.0200225
0.113258
0.096206
0.0134817
0.109804
-0.0335106
0.105278
0.00417686
-0.0427218
0.127977
0.104257
0.00922435
0.0939337
-0.0231869
0.100814
-0.00270359
0.151793
-0.0937007
0.112361
0.00497705
-0.0157819
0.128143
0.109965
0.00827067
-0.0414984
0.135681
0.130128
0.00612014
-0.048379
0.137009
0.157913
0.109534
0.125618
0.00252547
0.124616
0.00100214
0.124251
0.000364057
0.000279949
0.123972
0.136319
0.00188792
0.133391
0.00392931
0.130555
0.00320017
0.00117074
0.129665
0.133616
0.00528017
0.138967
-0.00142174
0.13371
0.0084574
0.00468379
0.130197
0.10751
0.00730417
0.100329
0.00575905
0.118432
-0.00964522
0.109941
0.0131747
0.124617
-0.000645222
0.126313
-0.0016966
0.128379
-0.00206577
0.130222
-0.001843
0.131225
-0.00100303
0.131853
-0.00062812
0.132045
-0.000191388
0.131876
0.000168496
0.131225
0.000651125
0.129813
0.00141212
0.128344
0.00146871
0.1265
0.00184369
0.125078
0.00142213
0.123267
0.00181118
0.121957
0.00131029
0.120512
0.00144441
0.119519
0.000993807
0.118701
0.000817833
0.118075
0.000626313
0.117654
0.00042003
0.116905
0.000749142
0.116233
0.000672409
0.114684
0.00154891
0.113044
0.00164014
0.110547
0.00249699
0.10812
0.00242667
0.105715
0.0024051
0.103796
0.00191898
0.10289
0.000905965
0.102228
0.000662037
0.102998
-0.000770083
0.103478
-0.000479558
0.104594
-0.0011166
0.104874
-0.000279896
0.104615
0.000258935
0.103577
0.00103806
0.101264
0.00231321
0.0988871
0.00237692
0.0957138
0.00317333
0.00176778
0.130378
-0.00135916
0.131196
-0.00251394
0.132458
-0.00332842
0.135007
-0.00439153
0.13684
-0.00283583
0.138527
-0.0023154
0.138993
-0.000657722
0.138611
0.000550672
0.137572
0.00168993
0.136303
0.00268125
0.135341
0.00243146
0.133937
0.0032469
0.133076
0.00228301
0.131673
0.00321417
0.130923
0.00206103
0.129776
0.00259162
0.129168
0.00160127
0.128686
0.00130027
0.128233
0.00107941
0.128707
-5.39744e-05
0.128224
0.00123202
0.12837
0.000525602
0.12737
0.00254936
0.126517
0.00249295
0.124959
0.00405477
0.123201
0.00418528
0.121473
0.0041329
0.11916
0.00423164
0.118199
0.00186692
0.117312
0.00154973
0.117796
-0.00125408
0.118525
-0.00120914
0.119676
-0.00226723
0.121055
-0.00165896
0.121377
-6.31047e-05
0.121901
0.000514423
0.120584
0.00362935
0.119919
0.00304246
0.117861
0.0052308
0.00384631
0.125524
0.00331384
0.125582
-0.00257136
0.127906
-0.00565311
0.129326
-0.00581145
0.132468
-0.00597783
0.133988
-0.00383548
0.134286
-0.00095571
0.133637
0.00119967
0.132774
0.00255303
0.132402
0.00305373
0.131597
0.00323608
0.130894
0.00395035
0.129882
0.00329448
0.128809
0.00428692
0.127731
0.00313914
0.126885
0.00343785
0.126125
0.00236142
0.125827
0.00159807
0.125777
0.00112937
0.125816
-9.24352e-05
0.126445
0.000602086
0.127104
-0.000133265
0.127373
0.00228109
0.12727
0.00259533
0.126321
0.00500425
0.124533
0.00597355
0.122899
0.00576691
0.121412
0.00571812
0.120166
0.00311333
0.11925
0.00246551
0.118849
-0.000853378
0.118965
-0.00132517
0.119762
-0.00306402
0.12112
-0.00301748
0.122585
-0.00152772
0.124561
-0.00146167
0.125363
0.00282799
0.125743
0.00266163
0.124537
0.00643682
0.00528384
0.101409
0.0118461
0.105246
-0.00640826
0.105122
-0.00552976
0.0989321
0.000378735
0.101777
-0.00882279
0.1005
-0.002558
0.0994765
6.74037e-05
0.0999206
0.000755562
0.102681
-0.000207042
0.102529
0.00320544
0.104357
0.00140818
0.10584
0.00246703
0.106346
0.00278883
0.107299
0.0033337
0.106908
0.00353068
0.106435
0.00390994
0.10515
0.00364652
0.103693
0.00305555
0.102663
0.00215971
0.10188
0.000690415
0.102544
-6.21234e-05
0.103348
-0.000936964
0.106143
-0.000514716
0.108547
0.000191403
0.111665
0.00188636
0.113966
0.00367323
0.114904
0.00482798
0.114019
0.0066037
0.110809
0.00632348
0.107059
0.00621526
0.101829
0.00437659
0.0985434
0.00196038
0.0958785
-0.000399067
0.0957626
-0.00290161
0.0979444
-0.00370952
0.100661
-0.00417843
0.105499
-0.00200999
0.109285
-0.00112414
0.113358
0.00236419
0.00318267
0.109644
-0.000419256
0.0883259
-0.00186918
0.0898605
-0.00423827
-0.00384018
0.10918
-0.00959906
0.0882751
0.0190355
0.0847284
-0.000691522
0.0808882
-0.000802167
0.00810634
-0.0206806
0.0256375
0.0183262
-0.048652
0.0269459
0.00455496
-0.00821524
0.0163216
0.00577072
0.0116515
-0.0201631
-0.0227182
-0.00181597
0.00859881
0.00250994
0.0138911
0.00546161
-0.00935994
0.0061663
-0.00623444
-0.0084156
0.0149606
-0.00479172
-0.0124467
-0.00020137
-0.00714835
0.000624703
-0.00075867
0.00509804
-0.00371778
0.00484631
4.46899e-05
0.00869723
-0.000645472
0.0112992
-0.00119382
0.0135664
0.000199849
0.0158427
0.000512592
0.0175974
0.00157893
0.0190408
0.00208726
0.0203786
0.00257217
0.0216782
0.00234695
0.0231226
0.00161115
0.0249641
0.000318183
0.0272968
-0.00164229
0.0299858
-0.00275108
0.03339
-0.00434123
0.0363235
-0.00344817
0.0390427
-0.00252783
0.0413396
-0.000410501
0.0424893
0.00252354
0.0430115
0.00430575
0.0425899
0.00702531
0.0418077
0.00710567
0.0419508
0.00607215
0.0422674
0.00406005
0.043636
0.000591757
0.0462726
-0.00303566
0.0483858
-0.0050148
0.0519308
-0.00725459
0.0551033
-0.00735092
0.0576158
-0.00452249
0.060269
-0.00377729
0.0611556
0.0014776
0.0038647
0.0177627
-0.00568749
0.0185891
-0.0101864
0.0103166
0.00203801
0.0184876
0.00678967
0.00663864
-0.000597712
-0.001219
0.000709297
-0.00145095
-0.000526717
-0.00277182
-0.00239692
-0.00202959
-0.000697546
0.0019503
-0.00462536
0.0027406
-0.00198411
0.00492701
-0.00198656
0.00721409
-0.00177449
0.00972215
-0.000929134
0.0123365
-0.000527132
0.0151284
-0.000219693
0.0176809
-0.000205486
0.020252
-0.000959958
0.0223254
-0.0017553
0.0240875
-0.00340432
0.0255885
-0.00425211
0.0266847
-0.00543742
0.0280157
-0.0047792
0.0295854
-0.00409753
0.0315078
-0.00233289
0.0340485
-1.71646e-05
0.0368014
0.00155283
0.0401389
0.00368783
0.0438026
0.00344197
0.0470163
0.00285844
0.0502392
0.00083716
0.0523462
-0.00151524
0.0529231
-0.0036126
0.0533006
-0.0053923
0.0523939
-0.00634783
0.0515344
-0.00649142
0.0518301
-0.00481818
0.0519825
-0.00392972
0.0535885
-0.000128372
0.00182555
0.101463
-0.0110621
0.0940432
0.0264554
0.0939537
-0.000602102
0.0321357
0.142706
0.0963808
-0.00744294
0.107831
0.015005
0.104157
0.00307188
0.0156963
0.120597
0.0957043
-0.00314722
0.10486
0.00584925
0.103743
0.00418936
0.00790572
0.111533
0.0968528
0.102702
0.106891
0.114797
0.14414
-0.00143337
0.0433183
0.100821
0.125778
-0.00661498
0.039852
0.129245
0.109826
-0.00490825
0.0168911
0.132787
0.109889
0.12678
0.106419
0.0107244
0.108987
0.00908258
0.0904262
-0.0041569
-0.000283416
0.0993084
0.138629
0.00133999
0.141992
0.00571979
0.135991
0.0018443
-0.00096585
0.136673
0.133642
0.000485177
0.137756
0.00160561
0.137633
0.00196772
0.000488085
0.136179
0.127265
0.128871
0.130838
0.131327
0.0935816
3.93069e-05
0.0839999
-0.000604635
0.0836787
0.00235919
0.085412
0.00505636
0.0822017
0.00261262
0.0815077
0.0014033
0.0807502
0.000230771
0.0805777
-0.00222446
0.0821351
-0.00225496
0.0805672
-0.00305743
0.0818518
-0.00326875
0.0823447
-0.00247942
0.0833074
-0.00273723
0.0842382
-0.00185988
0.0861406
-0.00242957
0.0879177
-0.0019968
0.090514
-0.00280171
0.0928079
-0.00325395
0.0946376
-0.00358495
0.0958587
-0.0046254
0.0952691
-0.00366252
0.0941569
-0.00432527
0.0918165
-0.0024388
0.0899487
-0.00222965
0.0884571
-0.000841352
0.0884814
-4.14938e-05
0.0898939
0.000140385
0.092387
0.00119468
0.0970959
-0.00126692
0.101142
-0.00118766
0.106915
-0.00493598
0.110726
-0.00532595
0.114175
-0.00706157
0.115018
-0.00623515
0.113054
-0.00438392
0.109743
-0.00318037
0.10449
0.000435038
0.100197
0.000362829
0.0966921
0.0033765
0.00231712
0.136811
-9.91098e-05
0.133469
0.00273789
0.132882
0.00294569
0.136235
0.00170389
0.137016
0.00183114
0.138287
0.000132872
0.139075
-0.00055773
0.138549
-0.00169792
0.138528
-0.00223438
0.137645
-0.00217475
0.137178
-0.00280162
0.136606
-0.00190729
0.136477
-0.00260828
0.136281
-0.00166383
0.136293
-0.00244121
0.136353
-0.00205707
0.136164
-0.00261315
0.135992
-0.00308109
0.135304
-0.0028969
0.134434
-0.00375544
0.133386
-0.00261497
0.132486
-0.00342472
0.131466
-0.00141959
0.131038
-0.001801
0.130398
-0.000202057
0.130242
0.000115132
0.130489
-0.000107162
0.131613
7.0698e-05
0.13264
-0.00229395
0.13363
-0.00217714
0.133611
-0.00491677
0.132647
-0.00436224
0.130968
-0.00538303
0.128961
-0.00422801
0.127257
-0.0026801
0.125598
-0.00152092
0.124519
0.00151361
0.123376
0.00150611
0.123172
0.00358028
0.00219047
0.13639
-0.000309891
0.138546
0.000581996
0.140064
0.00142682
0.140735
0.00103317
0.142138
0.000428263
0.142726
-0.000454973
0.142614
-0.000445566
0.141689
-0.000773446
0.140582
-0.00112675
0.139667
-0.00125981
0.138298
-0.00143256
0.137611
-0.00122103
0.136462
-0.00145936
0.136008
-0.00120953
0.134979
-0.00141233
0.134247
-0.00132494
0.133161
-0.00152687
0.131831
-0.00175143
0.13069
-0.00175614
0.129005
-0.00207034
0.128014
-0.0016237
0.126307
-0.00171724
0.125821
-0.000933503
0.124869
-0.000849394
0.124906
-0.000239238
0.125262
-0.00024064
0.125336
-0.000180903
0.125821
-0.000414905
0.124704
-0.00117675
0.124115
-0.0015878
0.121921
-0.00272333
0.120117
-0.00255776
0.117765
-0.00303138
0.115461
-0.00192353
0.114158
-0.00137704
0.112977
-0.000340537
0.113586
0.000904821
0.114128
0.000964105
0.115788
0.0019201
0.000674114
0.131017
0.131599
0.133025
0.134059
0.134487
0.134032
0.133586
0.132813
0.131686
0.130426
0.128994
0.127773
0.126313
0.125104
0.123692
0.122367
0.12084
0.119088
0.117332
0.115262
0.113638
0.111921
0.110987
0.110138
0.109899
0.109658
0.109477
0.109062
0.107886
0.106298
0.103574
0.101017
0.0979853
0.0960617
0.0946847
0.0943442
0.095249
0.0962131
0.0981332
)
;

boundaryField
{
    inlet
    {
        type            calculated;
        value           nonuniform List<scalar> 10(-0.1 -0.1 -0.1 -0.1 -0.1 -0.1 -0.1 -0.1 -0.1 -0.1);
    }
    outlet
    {
        type            calculated;
        value           nonuniform List<scalar> 10(0.093946 0.115783 0.1231 0.115459 0.0604735 0.0556276 0.0962005 0.123299 0.117305 0.0988073);
    }
    obstacle
    {
        type            calculated;
        value           uniform 0;
    }
    upperWall
    {
        type            calculated;
        value           uniform 0;
    }
    lowerWall
    {
        type            calculated;
        value           uniform 0;
    }
    frontAndBack
    {
        type            empty;
        value           nonuniform List<scalar> 0();
    }
}


// ************************************************************************* //
