/*--------------------------------*- C++ -*----------------------------------*\
  =========                 |
  \\      /  F ield         | OpenFOAM: The Open Source CFD Toolbox
   \\    /   O peration     | Website:  https://openfoam.org
    \\  /    A nd           | Version:  10
     \\/     M anipulation  |
\*---------------------------------------------------------------------------*/
FoamFile
{
    format      ascii;
    class       surfaceScalarField;
    location    "0.625";
    object      phi;
}
// * * * * * * * * * * * * * * * * * * * * * * * * * * * * * * * * * * * * * //

dimensions      [0 3 -1 0 0 0 0];

internalField   nonuniform List<scalar> 
22800
(
-4.32001e-06
4.32176e-06
-1.74258e-09
-9.08851e-06
4.75493e-06
1.35626e-08
-1.36452e-05
4.53981e-06
1.68866e-08
-1.78505e-05
4.18796e-06
1.73854e-08
-2.15987e-05
3.73189e-06
1.62975e-08
-2.47992e-05
3.18619e-06
1.42334e-08
-2.73769e-05
2.56622e-06
1.15243e-08
-2.92731e-05
1.88783e-06
8.35952e-09
-3.04448e-05
1.16688e-06
4.86651e-09
-3.0865e-05
4.18985e-07
1.14558e-09
-3.05219e-05
-3.40353e-07
-2.70401e-09
-2.94199e-05
-1.09543e-06
-6.5996e-09
-2.75793e-05
-1.83018e-06
-1.04263e-08
-2.50375e-05
-2.52777e-06
-1.40547e-08
-2.18495e-05
-3.17067e-06
-1.73133e-08
-1.80887e-05
-3.74087e-06
-1.99559e-08
-1.38465e-05
-4.22056e-06
-2.15838e-08
-9.23239e-06
-4.59261e-06
-2.15146e-08
-4.39238e-06
-4.82164e-06
-1.8371e-08
-4.3896e-06
-2.77814e-09
-4.97136e-06
9.31112e-06
-1.79933e-08
-1.04257e-05
1.02111e-05
-1.90156e-09
-1.56356e-05
9.74737e-06
2.41697e-09
-2.04411e-05
8.98925e-06
4.17713e-09
-2.4721e-05
8.00716e-06
4.60148e-09
-2.83725e-05
6.8334e-06
4.29128e-09
-3.13113e-05
5.50149e-06
3.54338e-09
-3.34716e-05
4.04567e-06
2.50346e-09
-3.48058e-05
2.49983e-06
1.25222e-09
-3.52839e-05
8.9717e-07
-1.53792e-10
-3.48928e-05
-7.29703e-07
-1.68678e-09
-3.36374e-05
-2.34758e-06
-3.2922e-09
-3.154e-05
-3.92264e-06
-4.91226e-09
-2.86421e-05
-5.41924e-06
-6.46416e-09
-2.5005e-05
-6.79993e-06
-7.81996e-09
-2.07111e-05
-8.02594e-06
-8.7699e-09
-1.58642e-05
-9.05855e-06
-8.93601e-09
-1.05892e-05
-9.85996e-06
-7.63515e-09
-5.05371e-06
-1.03537e-05
-3.50535e-09
-9.45621e-06
1.2902e-08
-5.23549e-06
1.45705e-05
-2.38642e-08
-1.09785e-05
1.59612e-05
-7.0226e-09
-1.64582e-05
1.52293e-05
-2.22798e-09
-2.15058e-05
1.4037e-05
-7.30588e-11
-2.59951e-05
1.24956e-05
8.55142e-10
-2.98201e-05
1.06573e-05
1.07975e-09
-3.28953e-05
8.57575e-06
9.28483e-10
-3.51548e-05
6.30464e-06
5.34576e-10
-3.65513e-05
3.89639e-06
-3.89007e-11
-3.70551e-05
1.40166e-06
-7.22956e-10
-3.66529e-05
-1.1303e-06
-1.54803e-09
-3.53486e-05
-3.64944e-06
-2.46072e-09
-3.31632e-05
-6.10466e-06
-3.42729e-09
-3.01365e-05
-8.44152e-06
-4.38013e-09
-2.63292e-05
-1.0602e-05
-5.2027e-09
-2.18243e-05
-1.25252e-05
-5.6887e-09
-1.67283e-05
-1.41491e-05
-5.44909e-09
-1.11721e-05
-1.54124e-05
-3.76653e-09
-5.333e-06
-1.61936e-05
7.74445e-10
-1.48072e-05
1.80122e-08
-5.61834e-06
2.02171e-05
-2.83432e-08
-1.17777e-05
2.21309e-05
-1.0366e-08
-1.76453e-05
2.1102e-05
-5.13805e-09
-2.30392e-05
1.94335e-05
-2.6054e-09
-2.78254e-05
1.72831e-05
-1.40896e-09
-3.18944e-05
1.47272e-05
-8.92015e-10
-3.51601e-05
1.18421e-05
-7.25813e-10
-3.75576e-05
8.70292e-06
-7.69972e-10
-3.90412e-05
5.38097e-06
-9.64156e-10
-3.95821e-05
1.94386e-06
-1.28595e-09
-3.91669e-05
-1.54375e-06
-1.72644e-09
-3.77977e-05
-5.01633e-06
-2.27823e-09
-3.54928e-05
-8.40673e-06
-2.91453e-09
-3.22885e-05
-1.16422e-05
-3.57773e-09
-2.8243e-05
-1.46434e-05
-4.15474e-09
-2.34387e-05
-1.73251e-05
-4.43115e-09
-1.79853e-05
-1.95984e-05
-3.98925e-09
-1.2022e-05
-2.13736e-05
-2.04829e-09
-5.74158e-06
-2.24769e-05
2.9132e-09
-2.05702e-05
2.14058e-08
-6.15547e-06
2.64055e-05
-3.2851e-08
-1.28963e-05
2.88849e-05
-1.32388e-08
-1.93027e-05
2.7516e-05
-7.49195e-09
-2.51736e-05
2.53089e-05
-4.65715e-09
-3.0365e-05
2.24778e-05
-3.24714e-09
-3.47639e-05
1.91287e-05
-2.52598e-09
-3.82849e-05
1.53653e-05
-2.13944e-09
-4.08663e-05
1.12863e-05
-1.94062e-09
-4.24659e-05
6.98246e-06
-1.87641e-09
-4.30572e-05
2.5371e-06
-1.93652e-09
-4.26268e-05
-1.97205e-06
-2.1256e-09
-4.11742e-05
-6.46648e-06
-2.45003e-09
-3.87127e-05
-1.08653e-05
-2.89606e-09
-3.52727e-05
-1.50788e-05
-3.41552e-09
-3.09065e-05
-1.90057e-05
-3.89568e-09
-2.5694e-05
-2.25335e-05
-4.10541e-09
-1.97477e-05
-2.55411e-05
-3.57974e-09
-1.32172e-05
-2.79027e-05
-1.4383e-09
-6.31771e-06
-2.93804e-05
3.99337e-09
-2.69122e-05
2.42856e-08
-6.86973e-06
3.33133e-05
-3.81398e-08
-1.43799e-05
3.64114e-05
-1.63465e-08
-2.1493e-05
3.46391e-05
-9.96257e-09
-2.79821e-05
3.18048e-05
-6.78114e-09
-3.36917e-05
2.81925e-05
-5.14868e-09
-3.85066e-05
2.39478e-05
-4.23427e-09
-4.23455e-05
1.92078e-05
-3.6442e-09
-4.51538e-05
1.40978e-05
-3.22205e-09
-4.68965e-05
8.72798e-06
-2.92008e-09
-4.75515e-05
3.19484e-06
-2.74015e-09
-4.7106e-05
-2.41478e-06
-2.7036e-09
-4.55559e-05
-8.01377e-06
-2.83654e-09
-4.29063e-05
-1.35118e-05
-3.14264e-09
-3.91769e-05
-1.88046e-05
-3.58623e-09
-3.44093e-05
-2.37692e-05
-4.05516e-09
-2.8676e-05
-2.82625e-05
-4.29566e-09
-2.20898e-05
-3.21235e-05
-3.77764e-09
-1.48124e-05
-3.51785e-05
-1.47303e-09
-7.0891e-06
-3.71083e-05
4.49568e-09
-3.40285e-05
2.71876e-08
-7.7938e-06
4.11519e-05
-4.48005e-08
-1.62926e-05
4.49304e-05
-2.02041e-08
-2.43025e-05
4.2662e-05
-1.30275e-08
-3.15629e-05
3.90746e-05
-9.415e-09
-3.79066e-05
3.45438e-05
-7.50624e-09
-4.32203e-05
2.92679e-05
-6.34893e-09
-4.74334e-05
2.34264e-05
-5.50227e-09
-5.05052e-05
1.71745e-05
-4.80129e-09
-5.24135e-05
1.06405e-05
-4.20582e-09
-5.31449e-05
3.93001e-06
-3.73478e-09
-5.26885e-05
-2.86777e-06
-3.432e-09
-5.10344e-05
-9.66456e-06
-3.3472e-09
-4.81751e-05
-1.63676e-05
-3.51043e-09
-4.41127e-05
-2.28631e-05
-3.90553e-09
-3.88692e-05
-2.90083e-05
-4.42591e-09
-3.25012e-05
-3.46257e-05
-4.79255e-09
-2.51158e-05
-3.95046e-05
-4.3903e-09
-1.68861e-05
-4.34062e-05
-1.99083e-09
-8.09613e-06
-4.59028e-05
4.5745e-09
-4.2155e-05
3.03511e-08
-8.97578e-06
5.01812e-05
-5.34532e-08
-1.87269e-05
5.47068e-05
-2.53218e-08
-2.78525e-05
5.18047e-05
-1.71508e-08
-3.60502e-05
4.72853e-05
-1.29663e-08
-4.31433e-05
4.16475e-05
-1.0665e-08
-4.90293e-05
3.51631e-05
-9.14652e-09
-5.36598e-05
2.80647e-05
-7.92043e-09
-5.70194e-05
2.05409e-05
-6.81541e-09
-5.9108e-05
1.27349e-05
-5.80551e-09
-5.99269e-05
4.7538e-06
-4.93355e-09
-5.9469e-05
-3.32138e-06
-4.27139e-09
-5.77165e-05
-1.14131e-05
-3.89511e-09
-5.46431e-05
-1.94372e-05
-3.87428e-09
-5.02221e-05
-2.72798e-05
-4.2247e-09
-4.44426e-05
-3.4783e-05
-4.85903e-09
-3.73301e-05
-4.17327e-05
-5.47428e-09
-2.89736e-05
-4.78558e-05
-5.34545e-09
-1.95526e-05
-5.28243e-05
-2.98733e-09
-9.39909e-06
-5.60605e-05
4.14665e-09
-5.15879e-05
3.38241e-08
-1.04878e-05
6.07339e-05
-6.49403e-08
-2.18181e-05
6.60695e-05
-3.23958e-08
-3.23152e-05
6.23248e-05
-2.29456e-08
-4.16272e-05
5.66153e-05
-1.79457e-08
-4.95765e-05
4.96119e-05
-1.50299e-08
-5.60884e-05
4.16879e-05
-1.29274e-08
-6.11557e-05
3.31431e-05
-1.10986e-08
-6.48061e-05
2.42007e-05
-9.37536e-09
-6.70757e-05
1.50122e-05
-7.75562e-09
-6.7989e-05
5.67341e-06
-6.31162e-09
-6.75469e-05
-3.75828e-06
-5.14537e-09
-6.57206e-05
-1.32351e-05
-4.35767e-09
-6.24558e-05
-2.26979e-05
-4.0737e-09
-5.76823e-05
-3.2049e-05
-4.36216e-09
-5.13347e-05
-4.11254e-05
-5.17251e-09
-4.33833e-05
-4.96778e-05
-6.19966e-09
-3.3875e-05
-5.73574e-05
-6.60294e-09
-2.29816e-05
-6.37131e-05
-4.55343e-09
-1.109e-05
-6.7955e-05
2.94277e-09
-6.27153e-05
3.74747e-08
-1.24412e-05
7.32556e-05
-8.05619e-08
-2.57676e-05
7.94385e-05
-4.25441e-08
-3.79374e-05
7.45259e-05
-3.13454e-08
-4.85455e-05
6.72484e-05
-2.5077e-08
-5.74342e-05
5.85218e-05
-2.11268e-08
-6.45872e-05
4.88589e-05
-1.80341e-08
-7.00696e-05
3.86407e-05
-1.52206e-08
-7.39787e-05
2.81224e-05
-1.25397e-08
-7.64067e-05
1.74502e-05
-1.00231e-08
-7.7414e-05
6.68854e-06
-7.77152e-09
-7.70153e-05
-4.15103e-06
-5.90801e-09
-7.51675e-05
-1.50784e-05
-4.54893e-09
-7.17769e-05
-2.60846e-05
-3.86291e-09
-6.67089e-05
-3.71129e-05
-4.02753e-09
-5.98131e-05
-4.80162e-05
-5.06219e-09
-5.09649e-05
-5.85193e-05
-6.72567e-09
-4.01268e-05
-6.81874e-05
-8.07606e-09
-2.74297e-05
-7.64034e-05
-6.84271e-09
-1.33142e-05
-8.20716e-05
1.09572e-09
-7.60704e-05
4.08762e-08
-1.5016e-05
8.83741e-05
-1.02482e-07
-3.08841e-05
9.53644e-05
-5.77191e-08
-4.50795e-05
8.8765e-05
-4.38427e-08
-5.71533e-05
7.93576e-05
-3.54162e-08
-6.70132e-05
6.84113e-05
-2.96288e-08
-7.47543e-05
5.66248e-05
-2.481e-08
-8.05624e-05
4.44692e-05
-2.03716e-08
-8.46426e-05
3.22188e-05
-1.62186e-08
-8.71701e-05
1.99901e-05
-1.24207e-08
-8.82584e-05
7.78592e-06
-9.07598e-09
-8.79431e-05
-4.46004e-06
-6.28842e-09
-8.61659e-05
-1.68514e-05
-4.15722e-09
-8.27799e-05
-2.94677e-05
-2.84823e-09
-7.75584e-05
-4.23317e-05
-2.68484e-09
-7.02237e-05
-5.53469e-05
-3.95851e-09
-6.04962e-05
-6.82403e-05
-6.55979e-09
-4.81808e-05
-8.04933e-05
-9.49893e-09
-3.32965e-05
-9.12778e-05
-9.9442e-09
-1.63132e-05
-9.90526e-05
-2.28297e-09
-9.24267e-05
4.30671e-08
-1.85192e-05
0.000107028
-1.34564e-07
-3.76535e-05
0.00011458
-8.14784e-08
-5.42763e-05
0.000105451
-6.28202e-08
-6.79359e-05
9.30677e-05
-5.04581e-08
-7.86982e-05
7.92148e-05
-4.12851e-08
-8.68592e-05
6.48192e-05
-3.34218e-08
-9.27964e-05
5.04328e-05
-2.63372e-08
-9.68752e-05
3.63177e-05
-2.00082e-08
-9.939e-05
2.25193e-05
-1.4482e-08
-0.000100527
8.93259e-06
-9.74496e-09
-0.00010035
-4.63134e-06
-5.7804e-09
-9.87867e-05
-1.8412e-05
-2.55741e-09
-9.56273e-05
-3.2627e-05
-1.62593e-10
-9.05231e-05
-4.74364e-05
4.19485e-10
-8.30084e-05
-6.28609e-05
-6.79708e-10
-7.25628e-05
-7.86812e-05
-4.64568e-09
-5.87124e-05
-9.43337e-05
-1.01099e-08
-4.12222e-05
-0.000108754
-1.38549e-08
-2.0516e-05
-0.000119751
-8.01757e-09
-0.000112985
4.18948e-08
-2.35166e-05
0.000130729
-1.84303e-07
-4.68643e-05
0.000138048
-1.20277e-07
-6.63347e-05
0.000125013
-9.1863e-08
-8.15722e-05
0.000108377
-7.20669e-08
-9.29827e-05
9.06819e-05
-5.65434e-08
-0.000101202
7.3082e-05
-4.34167e-08
-0.000106908
5.61713e-05
-3.2257e-08
-0.000110697
4.01295e-05
-2.296e-08
-0.000113015
2.48523e-05
-1.52894e-08
-0.000114139
1.00654e-05
-8.90894e-09
-0.000114171
-4.59612e-06
-3.44917e-09
-0.000113029
-1.95544e-05
1.01363e-09
-0.000110436
-3.52236e-05
3.82698e-09
-0.000105902
-5.19763e-05
5.34147e-09
-9.8714e-05
-7.00533e-05
4.586e-09
-8.79748e-05
-8.94213e-05
9.03995e-10
-7.27437e-05
-0.000109557
-8.13646e-09
-5.22625e-05
-0.000129217
-1.82851e-08
-2.67582e-05
-0.000145238
-1.65002e-08
-0.000139776
3.32045e-08
-3.11061e-05
0.000162102
-2.67187e-07
-5.9829e-05
0.000166956
-1.84995e-07
-8.24812e-05
0.000147801
-1.35548e-07
-9.90058e-05
0.000125004
-1.0169e-07
-0.000110468
0.000102218
-7.44225e-08
-0.000118081
8.07485e-05
-5.28315e-08
-0.000122974
6.11e-05
-3.60557e-08
-0.000126031
4.32091e-05
-2.31709e-08
-0.000127874
2.67089e-05
-1.31552e-08
-0.000128883
1.10792e-05
-4.9699e-09
-0.000129206
-4.27507e-06
1.80613e-09
-0.000128764
-2.0003e-05
7.03688e-09
-0.000127225
-3.6774e-05
1.17526e-08
-0.000123956
-5.52607e-05
1.5136e-08
-0.000117959
-7.60659e-05
1.5688e-08
-0.000107829
-9.95628e-05
1.13129e-08
-9.18234e-05
-0.000125563
9.24068e-10
-6.81798e-05
-0.000152839
-2.18012e-08
-3.659e-05
-0.000176801
-2.73437e-08
-0.000176375
8.50082e-09
-4.32917e-05
0.000205815
-4.20776e-07
-7.87426e-05
0.000202705
-2.98215e-07
-0.000104577
0.000173832
-1.97676e-07
-0.000121497
0.000142061
-1.37365e-07
-0.00013183
0.000112641
-8.98122e-08
-0.000137743
8.67179e-05
-5.63574e-08
-0.000140941
6.43315e-05
-3.31076e-08
-0.000142635
4.49199e-05
-1.68378e-08
-0.000143619
2.76978e-05
-4.86586e-09
-0.000144361
1.18169e-05
3.94259e-09
-0.000145057
-3.59017e-06
1.11917e-08
-0.000145657
-1.94218e-05
1.86164e-08
-0.000145815
-3.66421e-05
2.65384e-08
-0.000144807
-5.63034e-05
3.41918e-08
-0.000141369
-7.95428e-05
3.90914e-08
-0.0001335
-0.000107468
3.6649e-08
-0.000118288
-0.000140797
2.17533e-08
-9.19934e-05
-0.000179115
-1.85975e-08
-5.31228e-05
-0.000215643
-2.87926e-08
-0.000229436
-6.14706e-08
-6.5014e-05
0.00027146
-6.313e-07
-0.00010758
0.000245746
-4.75072e-07
-0.000135419
0.000201938
-2.66221e-07
-0.000150608
0.000157415
-1.64267e-07
-0.00015773
0.00011985
-8.69868e-08
-0.000160244
8.92722e-05
-4.09695e-08
-0.000160511
6.46127e-05
-1.34851e-08
-0.000160023
4.44282e-05
3.2494e-09
-0.000159671
2.73327e-05
1.33151e-08
-0.000159947
1.20712e-05
2.15479e-08
-0.000161075
-2.4926e-06
3.02807e-08
-0.000163072
-1.74659e-05
4.09246e-08
-0.000165679
-3.4089e-05
5.43234e-08
-0.000168229
-5.3824e-05
7.06175e-08
-0.000169356
-7.85038e-05
8.74973e-08
-0.000166531
-0.000110391
9.84281e-08
-0.000155408
-0.000152011
9.05148e-08
-0.000128757
-0.000205779
1.36591e-08
-8.31613e-05
-0.000261266
2.68824e-08
-0.000312363
-2.3382e-07
-9.89184e-05
0.00037208
-1.70143e-06
-0.000150095
0.000297855
-9.32027e-07
-0.000178344
0.000230521
-3.34231e-07
-0.000187952
0.000167166
-1.4328e-07
-0.000188434
0.000120358
-2.53255e-08
-0.000185103
8.5918e-05
2.2785e-08
-0.000180875
6.03417e-05
4.32241e-08
-0.000177276
4.07785e-05
5.07354e-08
-0.000175068
2.50703e-05
5.42059e-08
-0.000174638
1.15831e-05
5.81937e-08
-0.000176194
-1.00259e-06
6.59084e-08
-0.000179873
-1.38682e-05
8.12037e-08
-0.000185632
-2.84349e-05
1.05453e-07
-0.000193158
-4.64394e-05
1.41098e-07
-0.000201471
-7.03793e-05
1.88463e-07
-0.000208008
-0.000104096
2.42143e-07
-0.000207361
-0.000152944
2.87239e-07
-0.000185212
-0.000228072
1.43272e-07
-0.000138655
-0.000308181
3.5891e-07
-0.000450533
-4.85538e-07
-0.000197771
0.000570773
-9.22046e-07
-0.00023132
0.00033233
-9.2627e-07
-0.000239958
0.000239062
9.67408e-08
-0.000233154
0.000160219
1.42821e-07
-0.000220447
0.000107446
2.04765e-07
-0.000207688
7.29592e-05
1.99623e-07
-0.000197065
4.95447e-05
1.747e-07
-0.000189323
3.28874e-05
1.49384e-07
-0.000184689
2.03035e-05
1.31944e-07
-0.000183239
1.00085e-05
1.24656e-07
-0.000184948
5.80665e-07
1.26383e-07
-0.000190338
-8.63451e-06
1.56146e-07
-0.000199583
-1.93934e-05
2.03162e-07
-0.000213161
-3.31387e-05
2.77514e-07
-0.00023149
-5.24327e-05
3.82408e-07
-0.000253842
-8.22402e-05
4.95707e-07
-0.000276841
-0.00013053
5.84425e-07
-0.000278355
-0.000226629
7.12434e-08
-0.000245371
-0.000341647
4.81421e-07
-0.000694187
-1.71742e-06
-0.000268846
0.000844434
-4.81442e-06
-0.000264764
0.000328831
-5.84483e-07
-0.000236104
0.000209547
8.55427e-07
-0.000197191
0.000120338
9.69138e-07
-0.000161208
7.05974e-05
8.6533e-07
-0.000133305
4.43994e-05
6.56235e-07
-0.000113052
2.88065e-05
4.85228e-07
-9.92221e-05
1.86908e-05
3.66896e-07
-9.0805e-05
1.15903e-05
2.96167e-07
-8.7154e-05
6.09253e-06
2.64998e-07
-8.8106e-05
1.26212e-06
2.70548e-07
-9.35965e-05
-3.44833e-06
3.04335e-07
-0.000104363
-9.02333e-06
3.96545e-07
-0.000121166
-1.69078e-05
5.72354e-07
-0.000144841
-2.96523e-05
8.93795e-07
-0.000174751
-5.37569e-05
1.4276e-06
-0.00020846
-9.93714e-05
2.55011e-06
-0.000232279
-0.000205181
2.37122e-06
-0.000220068
-0.000359579
5.72096e-06
-0.000913936
-3.19036e-07
0.000848477
-4.04312e-06
0.00118205
-4.74629e-06
0.0013914
2.01145e-07
0.00151076
9.82454e-07
0.00158046
8.94142e-07
0.0016241
7.61225e-07
0.00165232
5.87358e-07
0.00167056
4.44292e-07
0.0016818
3.5663e-07
0.00168757
3.18451e-07
0.00168851
3.24275e-07
0.00168469
3.73687e-07
0.00167518
4.84212e-07
0.00165759
6.78156e-07
0.00162692
1.02468e-06
0.00157183
1.32382e-06
0.00147005
2.4121e-06
0.00126444
4.28819e-07
0.000904279
5.83473e-07
-9.65672e-06
-4.84439e-06
4.84594e-06
-3.29233e-09
-1.0191e-05
5.35486e-06
5.3122e-09
-1.52954e-05
5.11329e-06
8.01063e-09
-2.00033e-05
4.71627e-06
9.01855e-09
-2.41977e-05
4.20179e-06
8.88091e-09
-2.77778e-05
3.58641e-06
7.9546e-09
-3.06603e-05
2.88748e-06
6.47649e-09
-3.27794e-05
2.12292e-06
4.59895e-09
-3.40876e-05
1.31059e-06
2.42853e-09
-3.45546e-05
4.68117e-07
8.96867e-11
-3.41679e-05
-3.86998e-07
-2.45485e-09
-3.29324e-05
-1.23713e-06
-4.97854e-09
-3.08711e-05
-2.06419e-06
-7.45579e-09
-2.80261e-05
-2.84929e-06
-9.76142e-09
-2.4459e-05
-3.57272e-06
-1.17425e-08
-2.02515e-05
-4.2143e-06
-1.31931e-08
-1.55052e-05
-4.75402e-06
-1.38198e-08
-1.03409e-05
-5.17261e-06
-1.32005e-08
-4.91967e-06
-5.42893e-06
-1.06738e-08
-4.92033e-06
-2.11497e-09
-5.59986e-06
1.04401e-05
-1.23093e-08
-1.17408e-05
1.14976e-05
-3.73318e-09
-1.76017e-05
1.09767e-05
-4.03196e-11
-2.30043e-05
1.01214e-05
1.64004e-09
-2.78139e-05
9.01371e-06
2.36995e-09
-3.1916e-05
7.69031e-06
2.43322e-09
-3.5216e-05
6.18905e-06
2.04271e-09
-3.76405e-05
4.54858e-06
1.33268e-09
-3.91363e-05
2.80715e-06
3.96001e-10
-3.96697e-05
1.00218e-06
-7.72971e-10
-3.92268e-05
-8.29571e-07
-2.01038e-09
-3.78131e-05
-2.6508e-06
-3.30858e-09
-3.54542e-05
-4.42344e-06
-4.60502e-09
-3.21967e-05
-6.10745e-06
-5.79684e-09
-2.81097e-05
-7.66081e-06
-6.74914e-09
-2.32854e-05
-9.04003e-06
-7.2681e-09
-1.78397e-05
-1.02017e-05
-7.06303e-09
-1.19111e-05
-1.11032e-05
-5.70417e-09
-5.68531e-06
-1.16556e-05
-2.53521e-09
-1.05992e-05
6.50369e-09
-5.89937e-06
1.63325e-05
-1.69081e-08
-1.23675e-05
1.79666e-05
-7.90346e-09
-1.85335e-05
1.71447e-05
-4.20906e-09
-2.42101e-05
1.57998e-05
-1.95166e-09
-2.92565e-05
1.40617e-05
-7.25689e-10
-3.35547e-05
1.19897e-05
-1.67022e-10
-3.70087e-05
9.64408e-06
-6.00678e-11
-3.9545e-05
7.08567e-06
-2.77567e-10
-4.11107e-05
4.37354e-06
-7.01368e-10
-4.16727e-05
1.56477e-06
-1.27237e-09
-4.12167e-05
-1.28518e-06
-1.93807e-09
-3.97473e-05
-4.12005e-06
-2.68918e-09
-3.72883e-05
-6.88236e-06
-3.46683e-09
-3.38849e-05
-9.51101e-06
-4.1821e-09
-2.96053e-05
-1.19409e-05
-4.70762e-09
-2.45426e-05
-1.41037e-05
-4.85079e-09
-1.88155e-05
-1.59298e-05
-4.31256e-09
-1.25694e-05
-1.73504e-05
-2.64315e-09
-6.00082e-06
-1.82243e-05
8.56032e-10
-1.65923e-05
1.02431e-08
-6.33145e-06
2.26566e-05
-2.09523e-08
-1.3269e-05
2.49052e-05
-1.14189e-08
-1.98722e-05
2.375e-05
-7.32526e-09
-2.59385e-05
2.18682e-05
-4.75509e-09
-3.13189e-05
1.9444e-05
-3.21667e-09
-3.58913e-05
1.65635e-05
-2.33002e-09
-3.95593e-05
1.33132e-05
-1.85122e-09
-4.22503e-05
9.77758e-06
-1.64593e-09
-4.39134e-05
6.03729e-06
-1.64305e-09
-4.45166e-05
2.16843e-06
-1.79702e-09
-4.40452e-05
-1.75621e-06
-2.07425e-09
-4.25021e-05
-5.66298e-06
-2.46239e-09
-3.99081e-05
-9.47639e-06
-2.90529e-09
-3.63045e-05
-1.31148e-05
-3.32464e-09
-3.17568e-05
-1.64892e-05
-3.59477e-09
-2.63573e-05
-1.95041e-05
-3.51513e-09
-2.02286e-05
-2.20597e-05
-2.765e-09
-1.35249e-05
-2.40553e-05
-8.62538e-10
-6.46021e-06
-2.52892e-05
2.99833e-09
-2.30441e-05
1.29885e-08
-6.9374e-06
2.95863e-05
-2.52013e-08
-1.45305e-05
3.25e-05
-1.48885e-08
-2.17404e-05
3.09628e-05
-1.03141e-08
-2.83434e-05
2.84739e-05
-7.36005e-09
-3.41796e-05
2.52824e-05
-5.48657e-09
-3.91227e-05
2.15084e-05
-4.27585e-09
-4.30773e-05
1.72691e-05
-3.46827e-09
-4.59744e-05
1.26757e-05
-2.92644e-09
-4.7767e-05
7.83062e-06
-2.5804e-09
-4.84258e-05
2.82771e-06
-2.39713e-09
-4.79363e-05
-2.24549e-06
-2.37167e-09
-4.62984e-05
-7.30085e-06
-2.48014e-09
-4.35275e-05
-1.22475e-05
-2.68352e-09
-3.96583e-05
-1.69845e-05
-2.91036e-09
-3.47497e-05
-2.13987e-05
-3.03285e-09
-2.88913e-05
-2.53637e-05
-2.83457e-09
-2.22088e-05
-2.87438e-05
-1.95909e-09
-1.48679e-05
-3.13977e-05
1.18367e-10
-7.10761e-06
-3.30499e-05
4.42907e-09
-3.01427e-05
1.52988e-08
-7.74304e-06
3.73215e-05
-3.02157e-08
-1.62033e-05
4.09627e-05
-1.88453e-08
-2.42091e-05
3.89723e-05
-1.36725e-08
-3.15077e-05
3.5776e-05
-1.02429e-08
-3.79265e-05
3.17041e-05
-7.97388e-09
-4.33369e-05
2.6921e-05
-6.39633e-09
-4.76482e-05
2.15819e-05
-5.2268e-09
-5.07995e-05
1.5828e-05
-4.32025e-09
-5.27517e-05
9.78351e-06
-3.61893e-09
-5.34808e-05
3.55717e-06
-3.10811e-09
-5.29729e-05
-2.75323e-06
-2.78062e-09
-5.1224e-05
-9.04999e-06
-2.62937e-09
-4.82404e-05
-1.52316e-05
-2.63019e-09
-4.40449e-05
-2.11809e-05
-2.71893e-09
-3.86846e-05
-2.67603e-05
-2.76377e-09
-3.22408e-05
-3.18093e-05
-2.52531e-09
-2.48394e-05
-3.61473e-05
-1.60044e-09
-1.66598e-05
-3.95795e-05
7.21449e-10
-7.97405e-06
-4.17366e-05
5.44958e-09
-3.81071e-05
1.74923e-08
-8.78528e-06
4.60985e-05
-3.6544e-08
-1.83599e-05
5.05409e-05
-2.38031e-08
-2.73753e-05
4.79925e-05
-1.78547e-08
-3.55418e-05
4.39469e-05
-1.38048e-08
-4.26735e-05
3.88392e-05
-1.10157e-08
-4.86441e-05
3.28943e-05
-8.95587e-09
-5.3375e-05
2.63146e-05
-7.31295e-09
-5.68211e-05
1.92753e-05
-5.95315e-09
-5.8958e-05
1.1921e-05
-4.82705e-09
-5.97713e-05
4.37061e-06
-3.91899e-09
-5.92492e-05
-3.27546e-06
-3.2379e-09
-5.73815e-05
-1.09182e-05
-2.79699e-09
-5.41606e-05
-1.84534e-05
-2.58922e-09
-4.95894e-05
-2.57535e-05
-2.56161e-09
-4.36933e-05
-3.26582e-05
-2.58017e-09
-3.6536e-05
-3.89689e-05
-2.38101e-09
-2.8237e-05
-4.44493e-05
-1.49805e-09
-1.89881e-05
-4.88313e-05
9.59632e-10
-9.10465e-06
-5.16217e-05
6.20749e-09
-4.72011e-05
1.97412e-08
-1.01184e-05
5.62082e-05
-4.48329e-08
-2.11045e-05
6.1532e-05
-3.03586e-08
-3.13762e-05
5.82705e-05
-2.33784e-08
-4.0597e-05
5.31733e-05
-1.84741e-08
-4.8571e-05
4.68175e-05
-1.49446e-08
-5.51843e-05
3.95105e-05
-1.2186e-08
-6.0383e-05
3.15153e-05
-9.88568e-09
-6.41509e-05
2.30443e-05
-7.91647e-09
-6.64885e-05
1.4259e-05
-6.21627e-09
-6.73977e-05
5.27969e-06
-4.7835e-09
-6.68716e-05
-3.8022e-06
-3.648e-09
-6.4891e-05
-1.28999e-05
-2.8433e-09
-6.1427e-05
-2.19189e-05
-2.38444e-09
-5.64508e-05
-3.07316e-05
-2.23847e-09
-4.99509e-05
-3.91607e-05
-2.28144e-09
-4.19567e-05
-4.69664e-05
-2.22618e-09
-3.2567e-05
-5.38428e-05
-1.51312e-09
-2.19808e-05
-5.94215e-05
9.38132e-10
-1.05668e-05
-6.30383e-05
6.70271e-09
-5.77561e-05
2.20977e-08
-1.18236e-05
6.80228e-05
-5.59757e-08
-2.45895e-05
7.43049e-05
-3.93325e-08
-3.64055e-05
7.00945e-05
-3.09294e-08
-4.68799e-05
6.36545e-05
-2.47818e-08
-5.58161e-05
5.57587e-05
-2.01301e-08
-6.31317e-05
4.68296e-05
-1.63271e-08
-6.88197e-05
3.72054e-05
-1.30856e-08
-7.29123e-05
2.71377e-05
-1.02415e-08
-7.54507e-05
1.67973e-05
-7.73983e-09
-7.64632e-05
6.29156e-06
-5.59562e-09
-7.59518e-05
-4.31488e-06
-3.85526e-09
-7.3885e-05
-1.49686e-05
-2.57004e-09
-7.02028e-05
-2.56034e-05
-1.78814e-09
-6.48277e-05
-3.61096e-05
-1.50752e-09
-5.76874e-05
-4.63045e-05
-1.62834e-09
-4.87495e-05
-5.59087e-05
-1.84405e-09
-3.80663e-05
-6.45311e-05
-1.50212e-09
-2.58274e-05
-7.16656e-05
6.88189e-10
-1.24631e-05
-7.64065e-05
6.88176e-09
-7.02063e-05
2.44886e-08
-1.40265e-05
8.20401e-05
-7.13176e-08
-2.90423e-05
8.93301e-05
-5.19609e-08
-4.27417e-05
8.3804e-05
-4.1486e-08
-5.46738e-05
7.5595e-05
-3.342e-08
-6.46653e-05
6.57561e-05
-2.69999e-08
-7.26998e-05
5.48677e-05
-2.16294e-08
-7.88521e-05
4.33594e-05
-1.69775e-08
-8.32327e-05
3.15187e-05
-1.28654e-08
-8.5946e-05
1.95098e-05
-9.25038e-09
-8.7061e-05
7.40488e-06
-6.14919e-09
-8.65946e-05
-4.78357e-06
-3.60974e-09
-8.44995e-05
-1.70665e-05
-1.70107e-09
-8.06719e-05
-2.94344e-05
-5.27024e-10
-7.49619e-05
-4.18235e-05
-1.09206e-10
-6.72024e-05
-5.40688e-05
-3.15758e-10
-5.72551e-05
-6.58618e-05
-9.27317e-10
-4.50781e-05
-7.67149e-05
-1.2492e-09
-3.08151e-05
-8.59357e-05
2.067e-10
-1.4956e-05
-9.22711e-05
6.60052e-09
-8.5148e-05
2.66423e-08
-1.69295e-05
9.89601e-05
-9.29925e-08
-3.481e-05
0.000107223
-7.01958e-08
-5.07901e-05
9.97968e-05
-5.64669e-08
-6.43705e-05
8.91853e-05
-4.52748e-08
-7.54524e-05
7.68444e-05
-3.60484e-08
-8.41456e-05
6.35643e-05
-2.82436e-08
-9.0661e-05
4.98759e-05
-2.14587e-08
-9.52305e-05
3.60875e-05
-1.55367e-08
-9.80523e-05
2.23295e-05
-1.04171e-08
-9.92545e-05
8.60408e-06
-6.07648e-09
-9.88775e-05
-5.16432e-06
-2.53235e-09
-9.68568e-05
-1.90914e-05
9.14769e-11
-9.3029e-05
-3.32673e-05
2.28974e-09
-8.71412e-05
-4.77172e-05
3.23028e-09
-7.88837e-05
-6.23331e-05
2.91349e-09
-6.79453e-05
-7.68082e-05
1.4385e-09
-5.41079e-05
-9.05614e-05
-4.2256e-10
-3.73903e-05
-0.000102663
-3.22163e-10
-1.83151e-05
-0.000111354
5.53906e-09
-0.000103448
2.79037e-08
-2.08774e-05
0.000119827
-1.24537e-07
-4.2439e-05
0.0001288
-9.7185e-08
-6.11525e-05
0.000118525
-7.78851e-08
-7.65158e-05
0.00010456
-6.14444e-08
-8.86097e-05
8.89447e-05
-4.76872e-08
-9.77713e-05
7.27285e-05
-3.60172e-08
-0.000104428
5.65324e-05
-2.60658e-08
-0.000108993
4.06497e-05
-1.76525e-08
-0.000111796
2.51295e-05
-1.06104e-08
-0.000113049
9.85205e-06
-4.77317e-09
-0.000112823
-5.39621e-06
-1.94992e-10
-0.000111038
-2.08836e-05
4.20627e-09
-0.000107457
-3.68549e-05
7.26319e-09
-0.000101694
-5.34893e-05
8.8914e-09
-9.32269e-05
-7.08095e-05
8.72845e-09
-8.1476e-05
-8.85702e-05
6.48934e-09
-6.5912e-05
-0.000106138
2.67505e-09
-4.6269e-05
-0.000122319
-4.67031e-10
-2.30188e-05
-0.000134616
3.42963e-09
-0.000126452
2.69052e-08
-2.65021e-05
0.000146317
-1.72123e-07
-5.28149e-05
0.000155131
-1.37988e-07
-7.47352e-05
0.000140462
-1.08436e-07
-9.18715e-05
0.000121707
-8.30741e-08
-0.00010469
0.000101769
-6.17771e-08
-0.000113913
8.19519e-05
-4.40869e-08
-0.000120306
6.29231e-05
-2.96636e-08
-0.000124541
4.48801e-05
-1.8077e-08
-0.000127121
2.77022e-05
-8.80141e-09
-0.000128355
1.10793e-05
-1.42015e-09
-0.000128359
-5.40082e-06
5.4258e-09
-0.000127042
-2.22113e-05
1.11118e-08
-0.000124091
-3.98176e-05
1.55321e-08
-0.000118957
-5.8636e-05
1.83884e-08
-0.000110846
-7.89348e-05
1.89651e-08
-9.87557e-05
-0.000100676
1.62568e-08
-8.16351e-05
-0.000123277
9.63558e-09
-5.8633e-05
-0.000145341
9.18224e-10
-2.99975e-05
-0.000163267
-3.94964e-10
-0.000156437
2.10599e-08
-3.50292e-05
0.000181326
-2.47043e-07
-6.74088e-05
0.000187526
-2.00398e-07
-9.29133e-05
0.000165982
-1.51183e-07
-0.000111494
0.000140297
-1.10459e-07
-0.000124366
0.000114642
-7.66793e-08
-0.000132903
9.04869e-05
-5.01603e-08
-0.000138379
6.83921e-05
-2.99796e-08
-0.000141788
4.82809e-05
-1.48245e-08
-0.000143832
2.97365e-05
-3.42139e-09
-0.000144935
1.21713e-05
6.40807e-09
-0.000145264
-5.08547e-06
1.49865e-08
-0.000144728
-2.27624e-05
2.25132e-08
-0.000142953
-4.16101e-05
2.91744e-08
-0.000139228
-6.23803e-05
3.44265e-08
-0.000132438
-8.57457e-05
3.69261e-08
-0.000121016
-0.000112122
3.45742e-08
-0.000103014
-0.000141302
2.49421e-08
-7.64602e-05
-0.000171923
6.35564e-09
-4.0999e-05
-0.000198753
-3.3141e-09
-0.000197432
4.72969e-09
-4.8688e-05
0.000229966
-3.72012e-07
-8.86736e-05
0.000227512
-2.98421e-07
-0.000117768
0.000195087
-2.07989e-07
-0.000136793
0.000159325
-1.40749e-07
-0.000148393
0.000126239
-8.74166e-08
-0.000155015
9.71019e-05
-4.92222e-08
-0.000158583
7.19499e-05
-2.2745e-08
-0.00016046
5.01458e-05
-4.726e-09
-0.000161539
3.08014e-05
9.264e-09
-0.000162343
1.29592e-05
2.06414e-08
-0.000163092
-4.35632e-06
3.07841e-08
-0.000163724
-2.21531e-05
4.09367e-08
-0.000163848
-4.15111e-05
5.14391e-08
-0.000162648
-6.36077e-05
6.15199e-08
-0.00015871
-8.97131e-05
6.8838e-08
-0.000149801
-0.000121064
6.93171e-08
-0.000132673
-0.000158465
5.74368e-08
-0.000103143
-0.000201494
2.21712e-08
-5.95076e-05
-0.000242419
2.35722e-09
-0.000256962
-3.92101e-08
-7.29731e-05
0.000302853
-5.45592e-07
-0.000121053
0.000275559
-4.42295e-07
-0.000152425
0.000226463
-2.71101e-07
-0.000169514
0.000176412
-1.62628e-07
-0.000177506
0.000134226
-8.18905e-08
-0.000180306
9.98926e-05
-3.11664e-08
-0.000180581
7.22118e-05
-9.87339e-10
-0.000180008
4.95563e-05
1.97686e-08
-0.00017959
3.03639e-05
3.33982e-08
-0.000179877
1.32231e-05
4.45446e-08
-0.000181116
-3.1435e-06
5.61632e-08
-0.000183319
-1.99788e-05
7.01717e-08
-0.00018619
-3.8673e-05
8.73059e-08
-0.000188973
-6.08611e-05
1.06809e-07
-0.000190134
-8.85898e-05
1.25372e-07
-0.000186851
-0.000124385
1.35916e-07
-0.000174283
-0.00017107
1.27487e-07
-0.000144361
-0.00023147
6.82112e-08
-9.31732e-05
-0.000293631
5.05948e-08
-0.000350225
-1.43899e-07
-0.00011038
0.000412708
-1.17625e-06
-0.000168571
0.000333561
-7.43583e-07
-0.000200553
0.000258443
-3.31588e-07
-0.000211446
0.000187313
-1.51104e-07
-0.000211994
0.000134784
-3.53934e-08
-0.000208231
9.61295e-05
2.33117e-08
-0.000203457
6.74281e-05
5.25807e-08
-0.000199392
4.54755e-05
6.63486e-08
-0.000196894
2.78456e-05
7.45556e-08
-0.000196395
1.27001e-05
8.3042e-08
-0.000198124
-1.44478e-06
9.57733e-08
-0.000202225
-1.59119e-05
1.15399e-07
-0.00020864
-3.2297e-05
1.43818e-07
-0.000217
-5.25403e-05
1.80936e-07
-0.000226196
-7.94283e-05
2.22762e-07
-0.000233357
-0.000117243
2.61156e-07
-0.000232513
-0.000171906
2.78325e-07
-0.000207788
-0.000256226
1.74529e-07
-0.000155467
-0.000345841
2.48388e-07
-0.000505893
-2.85336e-07
-0.000220537
0.000633159
-8.35942e-07
-0.000259771
0.00037266
-7.90928e-07
-0.000269701
0.000268589
-1.19367e-07
-0.00026217
0.000179905
1.94757e-08
-0.000247852
0.000120557
1.14075e-07
-0.000233449
8.17799e-05
1.46501e-07
-0.000221452
5.54563e-05
1.49456e-07
-0.000212708
3.67382e-05
1.42855e-07
-0.000207471
2.2602e-05
1.37702e-07
-0.000205821
1.10353e-05
1.39557e-07
-0.000207714
4.22596e-07
1.52148e-07
-0.00021373
-9.92152e-06
1.81641e-07
-0.000224042
-2.20101e-05
2.28763e-07
-0.000239166
-3.74346e-05
2.95815e-07
-0.000259542
-5.90497e-05
3.79798e-07
-0.00028429
-9.24557e-05
4.56953e-07
-0.00030973
-0.000146369
4.87591e-07
-0.000311495
-0.000254552
1.62774e-07
-0.000273054
-0.000384099
2.97705e-07
-0.000779629
-1.0348e-06
-0.000303576
0.000934865
-2.94421e-06
-0.000298664
0.000368093
-9.29919e-07
-0.000265171
0.000235747
2.04429e-07
-0.000220391
0.000135679
4.15132e-07
-0.000179037
7.96054e-05
4.63049e-07
-0.000147053
5.00464e-05
4.05148e-07
-0.000123876
3.243e-05
3.34988e-07
-0.000108054
2.10052e-05
2.78296e-07
-9.83962e-05
1.29969e-05
2.43144e-07
-9.41311e-05
6.80403e-06
2.31126e-07
-9.50471e-05
1.36612e-06
2.43067e-07
-0.000101022
-3.9237e-06
2.81179e-07
-0.000112828
-1.01654e-05
3.58436e-07
-0.000131222
-1.89576e-05
4.88583e-07
-0.000156988
-3.30884e-05
6.99079e-07
-0.000189173
-5.98562e-05
1.013e-06
-0.000224582
-0.000109996
1.58671e-06
-0.000250218
-0.000227953
1.40768e-06
-0.000231869
-0.000399725
2.99826e-06
-0.00101147
-3.4727e-07
0.000933393
-2.57103e-06
0.00129964
-2.90253e-06
0.00153581
-2.21177e-07
0.00167207
3.99078e-07
0.00175209
4.83443e-07
0.00180243
4.70449e-07
0.00183504
4.00877e-07
0.00185616
3.30297e-07
0.00186923
2.8353e-07
0.00187609
2.64949e-07
0.00187751
2.75654e-07
0.00187364
3.18487e-07
0.00186355
4.02513e-07
0.00184473
5.39162e-07
0.00181192
7.55226e-07
0.00175245
9.33118e-07
0.00164342
1.44988e-06
0.00141559
2.9694e-07
0.00101604
4.1702e-07
-5.09088e-06
-4.86357e-06
4.86434e-06
-4.06163e-09
-1.02346e-05
5.37713e-06
-8.25964e-10
-1.53624e-05
5.13462e-06
1.20051e-09
-2.00917e-05
4.73592e-06
2.44114e-09
-2.4305e-05
4.21924e-06