/*--------------------------------*- C++ -*----------------------------------*\
  =========                 |
  \\      /  F ield         | OpenFOAM: The Open Source CFD Toolbox
   \\    /   O peration     | Website:  https://openfoam.org
    \\  /    A nd           | Version:  10
     \\/     M anipulation  |
\*---------------------------------------------------------------------------*/
FoamFile
{
    format      ascii;
    class       surfaceScalarField;
    location    "6.45";
    object      phi;
}
// * * * * * * * * * * * * * * * * * * * * * * * * * * * * * * * * * * * * * //

dimensions      [0 3 -1 0 0 0 0];

internalField   nonuniform List<scalar> 
760
(
-9.81513e-06
9.81511e-06
-3.22008e-05
2.23857e-05
-5.88756e-05
2.66748e-05
-8.64322e-05
2.75566e-05
-0.000113756
2.73234e-05
-0.00014041
2.66547e-05
-0.000165975
2.55642e-05
-0.000189843
2.38688e-05
-0.000211171
2.13279e-05
-0.000228846
1.76746e-05
-0.000241481
1.26352e-05
-0.000247446
5.96502e-06
-0.000244959
-2.48663e-06
-0.000232294
-1.26652e-05
-0.000208152
-2.4142e-05
-0.000172172
-3.59805e-05
-0.00012576
-4.64114e-05
-7.33879e-05
-5.23724e-05
-2.47105e-05
-4.86774e-05
-2.47105e-05
-2.36367e-05
3.34518e-05
-6.70527e-05
6.58017e-05
-0.000117001
7.66233e-05
-0.000167951
7.85068e-05
-0.000217776
7.71478e-05
-0.000265391
7.427e-05
-0.000309829
7.00023e-05
-0.000349946
6.39856e-05
-0.000384323
5.57044e-05
-0.000411222
4.45743e-05
-0.000428567
2.99796e-05
-0.000434039
1.14373e-05
-0.000425265
-1.1261e-05
-0.000399829
-3.8101e-05
-0.000356134
-6.78373e-05
-0.000293982
-9.81321e-05
-0.000215767
-0.000124627
-0.000128451
-0.000139688
-4.65426e-05
-0.000130585
-7.12531e-05
-2.95501e-05
6.30018e-05
-8.21745e-05
0.000118426
-0.00014202
0.000136469
-0.000202631
0.000139117
-0.000261569
0.000136086
-0.000317593
0.000130294
-0.000369612
0.000122021
-0.000416375
0.000110749
-0.000456357
9.56855e-05
-0.000487686
7.59037e-05
-0.000508147
5.04405e-05
-0.000515181
1.84714e-05
-0.000505751
-2.0691e-05
-0.000477005
-6.6847e-05
-0.000426659
-0.000118183
-0.000353927
-0.000170864
-0.000261058
-0.000217496
-0.00015606
-0.000244686
-5.66648e-05
-0.000229981
-0.000127918
-3.17912e-05
9.4793e-05
-8.84828e-05
0.000175118
-0.000152766
0.000200752
-0.000217789
0.00020414
-0.000281102
0.000199399
-0.000341536
0.000190729
-0.000398096
0.000178581
-0.00044963
0.000162283
-0.000494693
0.000140749
-0.000531433
0.000112643
-0.00055749
7.64975e-05
-0.00056997
3.09507e-05
-0.000565356
-2.53049e-05
-0.000539467
-9.27353e-05
-0.000488544
-0.000169106
-0.000410122
-0.000249287
-0.000305461
-0.000322157
-0.000183503
-0.000366644
-6.61373e-05
-0.000347346
-0.000194055
-3.28406e-05
0.000127634
-9.20021e-05
0.000234279
-0.000159188
0.000267938
-0.000227309
0.000272261
-0.000293998
0.000266088
-0.000358272
0.000255003
-0.000419357
0.000239666
-0.000476333
0.000219259
-0.000527964
0.000192381
-0.000572521
0.0001572
-0.000607565
0.000111541
-0.000629748
5.31339e-05
-0.000634789
-2.02637e-05
-0.000616726
-0.000110799
-0.000569346
-0.000216486
-0.000487175
-0.000331458
-0.000368892
-0.00044044
-0.000223795
-0.000511741
-8.01857e-05
-0.000490955
-0.000274241
-3.36965e-05
0.00016133
-9.51362e-05
0.000295719
-0.000165131
0.000337933
-0.000236356
0.000343486
-0.000306571
0.000336303
-0.000375055
0.000323487
-0.000441361
0.000305972
-0.00050494
0.000282838
-0.000564931
0.000252372
-0.000619915
0.000212184
-0.000667562
0.000159188
-0.000704133
8.97054e-05
-0.000724897
4.9996e-07
-0.000721043
-0.000114653
-0.000683118
-0.000254411
-0.000600541
-0.000414035
-0.000466652
-0.000574329
-0.000288638
-0.000689755
-0.000103736
-0.000675857
-0.000377977
-3.46374e-05
0.000195968
-9.85785e-05
0.00035966
-0.000171641
0.000410995
-0.000246221
0.000418066
-0.000320229
0.000410311
-0.00039328
0.000396537
-0.000465372
0.000378064
-0.000536504
0.000353969
-0.000606435
0.000322304
-0.00067439
0.000280139
-0.000738594
0.000223392
-0.00079559
0.000146702
-0.000838897
4.38067e-05
-0.000859566
-9.39834e-05
-0.000842184
-0.000271793
-0.000768607
-0.000487613
-0.000621744
-0.000721191
-0.000399516
-0.000911983
-0.000147441
-0.000927933
-0.000525418
-3.57087e-05
0.000231676
-0.000102453
0.000426404
-0.000178839
0.000487382
-0.000256905
0.000496132
-0.000334729
0.000488136
-0.000412334
0.000474142
-0.000490291
0.000456022
-0.00056935
0.000433028
-0.000650216
0.000403169
-0.000733233
0.000363156
-0.000817823
0.000307982
-0.00090153
0.000230409
-0.000978356
0.000120632
-0.00103855
-3.37907e-05
-0.00106197
-0.00024837
-0.00102048
-0.000529101
-0.000877886
-0.000863788
-0.00060457
-0.0011853
-0.000238964
-0.00129354
-0.000764382
-3.69442e-05
0.00026862
-0.000106816
0.000496276
-0.000186691
0.000567257
-0.000268141
0.000577582
-0.00034942
0.000569414
-0.000431007
0.000555729
-0.000514165
0.00053918
-0.000600597
0.00051946
-0.000692311
0.000494883
-0.000791384
0.000462229
-0.000899461
0.000416059
-0.00101676
0.000347705
-0.0011402
0.000244074
-0.00126132
8.73313e-05
-0.00136146
-0.000148229
-0.00140213
-0.000488431
-0.00131379
-0.000952127
-0.000997203
-0.00150189
-0.000438119
-0.00185262
-0.0012025
-3.84691e-05
0.00030709
-0.000111889
0.000569696
-0.000195345
0.000650713
-0.000279817
0.000662054
-0.000363728
0.000653324
-0.000448047
0.000640049
-0.000534779
0.000625912
-0.000626714
0.000611395
-0.000727481
0.00059565
-0.000841563
0.000576311
-0.000974099
0.000548595
-0.00113024
0.000503842
-0.00131376
0.000427595
-0.00152413
0.000297701
-0.00175599
8.36312e-05
-0.00196489
-0.000279527
-0.00201952
-0.000897498
-0.00167185
-0.00184956
-0.000805475
-0.002719
-0.00200798
-4.05865e-05
0.000347676
-0.00011823
0.000647339
-0.000205352
0.000737835
-0.000292228
0.000748931
-0.000377458
0.000738554
-0.000462497
0.000725088
-0.000550059
0.000713474
-0.000643983
0.000705319
-0.000749552
0.000701219
-0.000873987
0.000700746
-0.00102706
0.000701667
-0.00122173
0.000698513
-0.00147461
0.00068047
-0.00180568
0.000628773
-0.00222446
0.000502414
-0.00268102
0.00017703
-0.00292909
-0.000649422
-0.00251091
-0.00226774
-0.00129202
-0.0039379
-0.00329999
-4.39138e-05
0.00039159
-0.000126958
0.000730383
-0.000217911
0.000828787
-0.00030634
0.00083736
-0.00039109
0.000823304
-0.00047409
0.000808088
-0.000558611
0.000797995
-0.000649249
0.000795956
-0.000752575
0.000804546
-0.000878231
0.000826402
-0.00104062
0.000864056
-0.00126158
0.000919477
-0.0015739
0.000992783
-0.00201966
0.00107453
-0.00262057
0.00110333
-0.00325907
0.000815533
-0.0035749
-0.000333591
-0.00306961
-0.00277303
-0.00174699
-0.00526052
-0.00504698
-4.94861e-05
0.000441076
-0.000139886
0.000820783
-0.000235081
0.000923982
-0.000324138
0.000926418
-0.000406217
0.000905382
-0.000483728
0.0008856
-0.000560347
0.000874614
-0.000640733
0.000876341
-0.000731648
0.000895461
-0.000843603
0.000938356
-0.000993456
0.00101391
-0.00120847
0.00113449
-0.00153009
0.00131441
-0.00200109
0.00154553
-0.00261609
0.00171833
-0.00320498
0.00140442
-0.00342693
-0.000111645
-0.00300885
-0.00319111
-0.00192963
-0.00633973
-0.00697662
-6.02709e-05
0.000501347
-0.000161433
0.000921945
-0.000260515
0.00102306
-0.0003478
0.0010137
-0.000424348
0.00098193
-0.000493149
0.000954401
-0.000557176
0.000938641
-0.000620285
0.000939451
-0.00068788
0.000963057
-0.000768277
0.00101875
-0.000874998
0.00112063
-0.00102878
0.00128827
-0.00125926
0.00154489
-0.00158363
0.0018699
-0.0019771
0.00211179
-0.00231088
0.00173821
-0.00245962
3.70873e-05
-0.00234253
-0.0033082
-0.00168771
-0.00699455
-0.00866433
-7.34038e-05
0.000574751
-0.000188821
0.00103736
-0.000295461
0.0011297
-0.000384411
0.00110265
-0.000454929
0.00105245
-0.000511176
0.00101065
-0.000556699
0.000984164
-0.000594228
0.00097698
-0.000626053
0.000994882
-0.000654918
0.00104762
-0.000685503
0.00115121
-0.000722338
0.00132511
-0.000773027
0.00159558
-0.000826025
0.0019229
-0.000883598
0.00216937
-0.000913246
0.00176786
-0.00100195
0.000125791
-0.00121436
-0.00309579
-0.0010948
-0.00711411
-0.00975913
-0.000140471
0.000715222
-0.000270449
0.00116734
-0.000364663
0.00122392
-0.000431954
0.00116994
-0.000483511
0.00110401
-0.000523193
0.00105033
-0.000550883
0.00101185
-0.000564485
0.000990582
-0.000560942
0.00099134
-0.000535152
0.00102183
-0.000480691
0.00109675
-0.000385539
0.00122996
-0.000235639
0.00144568
-1.55161e-05
0.00170277
0.000269501
0.00188435
0.000487853
0.00154951
0.000464172
0.000149471
-0.000111618
-0.00252
-0.000480188
-0.00674554
-0.0102393
-9.16893e-05
0.000806911
-0.000285579
0.00136123
-0.000422093
0.00136043
-0.000509231
0.00125708
-0.000560116
0.00115489
-0.000584598
0.00107481
-0.000586498
0.00101375
-0.000565348
0.000969432
-0.000517173
0.000943165
-0.000431669
0.000936322
-0.000295359
0.000960444
-8.45614e-05
0.00101916
0.000224742
0.00113638
0.000648027
0.00127949
0.00115233
0.00138004
0.00155723
0.00114461
0.00154477
0.000161928
0.000824953
-0.00180018
0.000162173
-0.00608276
-0.0100771
-0.000385948
0.00119286
-0.000463095
0.00143838
-0.00053798
0.00143532
-0.000604467
0.00132357
-0.00062546
0.00117588
-0.000607188
0.00105654
-0.000555378
0.000961944
-0.00047026
0.000884314
-0.000353256
0.000826161
-0.00019616
0.000779226
9.58926e-06
0.000754695
0.000279114
0.000749633
0.000637058
0.000778432
0.00109062
0.000825923
0.00162391
0.000846761
0.00206535
0.000703174
0.00227046
-4.31911e-05
0.00185212
-0.00138183
0.000988257
-0.0052189
-0.00908888
-0.00135855
0.00255141
-0.00132485
0.00140467
-0.0010772
0.00118767
-0.00071894
0.000965312
-0.000338725
0.000795668
4.55394e-05
0.000672276
0.000421429
0.000586055
0.00078691
0.000518833
0.00114333
0.000469736
0.00149423
0.000428326
0.00184814
0.000400787
0.00221537
0.000382407
0.00262283
0.00037097
0.00307999
0.000368765
0.00361648
0.000310267
0.00412282
0.000196836
0.00433837
-0.000258737
0.00415662
-0.00120009
0.00260364
-0.00366591
-0.00648525
0.00255141
0.00395609
0.00514375
0.00610906
0.00690473
0.00757701
0.00816306
0.00868189
0.00915163
0.00957995
0.00998074
0.0103631
0.0107341
0.0111029
0.0114132
0.01161
0.0113513
0.0101512
0.00648525
)
;

boundaryField
{
    movingWall
    {
        type            calculated;
        value           uniform 0;
    }
    fixedWalls
    {
        type            calculated;
        value           uniform 0;
    }
    frontAndBack
    {
        type            empty;
        value           nonuniform List<scalar> 0();
    }
}


// ************************************************************************* //
