/*--------------------------------*- C++ -*----------------------------------*\
  =========                 |
  \\      /  F ield         | OpenFOAM: The Open Source CFD Toolbox
   \\    /   O peration     | Website:  https://openfoam.org
    \\  /    A nd           | Version:  10
     \\/     M anipulation  |
\*---------------------------------------------------------------------------*/
FoamFile
{
    format      ascii;
    class       surfaceScalarField;
    location    "1.15";
    object      phi;
}
// * * * * * * * * * * * * * * * * * * * * * * * * * * * * * * * * * * * * * //

dimensions      [0 3 -1 0 0 0 0];

internalField   nonuniform List<scalar> 
890
(
0.0097652
0.000234802
0.00961445
0.000150752
0.00941693
0.000197512
0.00944343
-2.65005e-05
6.88697e-05
0.00937457
0.0101683
6.65374e-05
0.0102446
7.44151e-05
0.0105177
-7.55899e-05
0.0105355
-4.42839e-05
-0.000353637
0.010958
0.0100877
-2.12122e-05
0.0102637
-0.000101568
0.0103805
-0.000192338
0.0105294
-0.000193192
-0.000401361
0.0105771
0.0101045
-0.000125735
0.0102081
-0.000205157
0.0103133
-0.00029755
0.0104201
-0.000299936
-0.000321873
0.0103406
0.00987427
0.00966911
0.00937156
0.00907162
0.00874975
0.0102769
-6.01499e-05
-0.000842162
0.0107412
-0.00103761
0.000573246
0.0111305
-0.00237713
0.00198783
0.0110304
-0.00346186
0.00356202
0.0101392
-0.00380367
0.00469483
0.00896685
-0.00354011
0.00471248
0.00813293
-0.00282051
0.00365443
0.00759834
-0.00179761
0.00233219
0.00708358
-0.000896533
0.00141129
0.00656969
-0.000395288
0.000909181
0.00614636
-0.000199992
0.000623324
0.00584698
-0.000139948
0.000439323
0.00565568
-0.000116926
0.000308226
0.00554102
-9.80888e-05
0.000212754
0.00547497
-7.8397e-05
0.000144447
0.00543791
-5.96885e-05
9.67428e-05
0.00541747
-4.36724e-05
6.41134e-05
0.00540621
-3.08948e-05
4.21559e-05
0.00539989
-2.12224e-05
2.75482e-05
0.00539624
-1.42199e-05
1.78699e-05
0.00539408
-9.31435e-06
1.14687e-05
0.00539279
-5.95902e-06
7.25574e-06
0.00539199
-3.71019e-06
4.50349e-06
0.0053915
-2.2313e-06
2.72302e-06
0.00539119
-1.27828e-06
1.58583e-06
0.005391
-6.78996e-07
8.71842e-07
0.00539088
-3.13929e-07
4.33921e-07
0.00539081
-9.87912e-08
1.73621e-07
0.00539076
1.87985e-08
2.69169e-08
0.00539073
8.25904e-08
-5.21335e-08
0.00539071
1.09786e-07
-9.23896e-08
0.0053907
1.15759e-07
-1.05814e-07
0.0053907
1.10145e-07
-1.04639e-07
0.00539069
9.84237e-08
-9.58909e-08
0.00539069
8.44337e-08
-8.35605e-08
0.00539069
7.01845e-08
-7.03293e-08
0.00539069
5.67625e-08
-5.73921e-08
0.00539069
4.5122e-08
-4.58993e-08
0.0053907
3.50956e-08
-3.59491e-08
0.0053907
2.62922e-08
-2.66985e-08
0.0053907
2.02967e-08
-2.06038e-08
0.0053907
1.31477e-08
-1.3478e-08
0.0053907
7.23753e-09
-7.27927e-09
0.0053907
4.77225e-09
-4.97235e-09
-4.7939e-09
4.18124e-09
0.0113059
-0.000408067
0.0110161
-0.000747748
0.0104149
-0.00177597
0.00933061
-0.00237758
0.0075198
-0.00199286
0.00566695
-0.00168726
0.00465399
-0.00180754
0.0045378
-0.00168142
0.0048335
-0.00119223
0.00513778
-0.00069957
0.00532663
-0.000388842
0.00541549
-0.000228812
0.0054464
-0.000147836
0.00544984
-0.000101526
0.0054423
-7.08583e-05
0.00543158
-4.8964e-05
0.00542108
-3.31771e-05
0.00541218
-2.19961e-05
0.00540528
-1.43139e-05
0.00540027
-9.21039e-06
0.00539679
-5.83573e-06
0.00539443
-3.59735e-06
0.00539284
-2.12838e-06
0.00539179
-1.18201e-06
0.00539111
-5.88339e-07
0.00539066
-2.29773e-07
0.00539037
-2.71967e-08
0.00539019
8.14649e-08
0.00539007
1.36291e-07
0.00539
1.54768e-07
0.00538996
1.53009e-07
0.00538993
1.40666e-07
0.00538992
1.23286e-07
0.00538991
1.04146e-07
0.00538991
8.5821e-08
0.00538991
6.91059e-08
0.00538991
5.49703e-08
0.00538992
4.32757e-08
0.00538992
3.33078e-08
0.00538992
2.55367e-08
0.00538992
1.91821e-08
0.00538992
1.22668e-08
0.00538992
7.05099e-09
0.00538992
4.05332e-09
-5.15567e-09
0.0107391
-0.000570007
0.0107635
-0.000772233
0.0102818
-0.00129423
0.00964415
-0.00173994
0.00932609
-0.0016748
0.00893154
-0.0012927
0.00816309
-0.00103909
0.0072818
-0.000800127
0.00660233
-0.000512764
0.00617651
-0.00027375
0.00591813
-0.000130462
0.00574976
-6.044e-05
0.00563222
-3.02976e-05
0.00554867
-1.79798e-05
0.00549034
-1.252e-05
0.00545077
-9.39947e-06
0.00542466
-7.06871e-06
0.00540778
-5.11287e-06
0.00539693
-3.46917e-06
0.00538989
-2.1627e-06
0.00538525
-1.19694e-06
0.00538218
-5.30088e-07
0.00538015
-1.0125e-07
0.00537882
1.51333e-07
0.00537795
2.81491e-07
0.00537739
3.31713e-07
0.00537703
3.32507e-07
0.0053768
3.0853e-07
0.00537666
2.74108e-07
0.00537658
2.35903e-07
0.00537654
1.98333e-07
0.00537652
1.63501e-07
0.00537651
1.32605e-07
0.0053765
1.05389e-07
0.00537651
8.34188e-08
0.00537651
6.44259e-08
0.00537652
5.05122e-08
0.00537652
3.88286e-08
0.00537652
2.90163e-08
0.00537653
2.36819e-08
0.00537653
1.5746e-08
0.00537653
1.03247e-08
0.00537653
7.58226e-09
0.00537653
2.49339e-09
-5.11065e-09
0.0102472
-0.000476659
0.0101358
-0.00066085
0.00962507
-0.000783453
0.00875368
-0.000868545
0.00796699
-0.000888109
0.00742183
-0.000747544
0.00686869
-0.00048595
0.00628414
-0.000215582
0.00582532
-5.39409e-05
0.00554504
6.52822e-06
0.00540116
1.34168e-05
0.00532916
1.15604e-05
0.00529044
8.41965e-06
0.00526655
5.91137e-06
0.00524973
4.30039e-06
0.00523693
3.40283e-06
0.00522693
2.92665e-06
0.00521919
2.6291e-06
0.00521336
2.36415e-06
0.00520911
2.08587e-06
0.00520613
1.77907e-06
0.00520413
1.47919e-06
0.00520281
1.21426e-06
0.00520197
9.87128e-07
0.00520146
7.94878e-07
0.00520116
6.33803e-07
0.00520099
5.00776e-07
0.00520091
3.93209e-07
0.00520087
3.0769e-07
0.00520087
2.40023e-07
0.00520088
1.86551e-07
0.0052009
1.43959e-07
0.00520092
1.10485e-07
0.00520094
8.34961e-08
0.00520096
6.3767e-08
0.00520098
4.71094e-08
0.00520099
3.68105e-08
0.00520101
2.76649e-08
0.00520101
1.9928e-08
0.00520102
1.81989e-08
0.00520103
9.40058e-09
0.00520103
7.12287e-09
0.00520103
7.08535e-09
0.00520103
2.23201e-10
-4.45108e-09
0.00827309
0.00761224
0.00682879
0.00596024
0.00507213
0.00432459
0.00383864
0.00362306
0.00356912
0.00357565
0.00358906
0.00360062
0.00360904
0.00361495
0.00361925
0.00362266
0.00362558
0.00362821
0.00363058
0.00363266
0.00363444
0.00363592
0.00363714
0.00363812
0.00363892
0.00363955
0.00364005
0.00364045
0.00364075
0.00364099
0.00364118
0.00364132
0.00364143
0.00364152
0.00364158
0.00364163
0.00364167
0.00364169
0.00364171
0.00364173
0.00364174
0.00364175
0.00364175
0.00364175
-0.000854845
0.000854845
-0.00156201
0.000707163
-0.00187024
0.000308233
-0.00157157
-0.000298675
-0.000778275
-0.00079329
0.000227831
-0.00100611
0.00120514
-0.000977306
0.002014
-0.000808867
0.00261413
-0.00060013
0.00302455
-0.000410421
0.00328791
-0.000263351
0.00344856
-0.00016065
0.00354259
-9.40378e-05
0.00359562
-5.30292e-05
0.00362434
-2.87211e-05
0.0036391
-1.47549e-05
0.00364607
-6.96819e-06
0.00364884
-2.77066e-06
0.00364946
-6.18694e-07
0.00364904
4.14369e-07
0.00364815
8.9245e-07
0.00364713
1.01596e-06
0.00364616
9.73133e-07
0.0036453
8.59637e-07
0.00364457
7.26405e-07
0.00364398
5.98437e-07
0.00364349
4.85165e-07
0.0036431
3.88297e-07
0.0036428
3.06955e-07
0.00364256
2.39234e-07
0.00364237
1.84143e-07
0.00364223
1.40991e-07
0.00364212
1.07705e-07
0.00364204
8.33548e-08
0.00364198
6.38606e-08
0.00364193
5.03326e-08
0.00364189
3.72781e-08
0.00364186
2.80934e-08
0.00364184
2.14865e-08
0.00364183
1.19775e-08
0.00364182
1.20246e-08
0.00364181
7.76458e-09
0.00364181
1.77818e-09
0.0036418
5.98013e-09
3.69023e-09
-0.00067881
0.00153366
-0.00167658
0.00170494
-0.00194168
0.000573327
-0.0014806
-0.000759749
-0.00046291
-0.00181098
0.000772808
-0.00224182
0.00196012
-0.00216462
0.00294088
-0.00178962
0.00367835
-0.0013376
0.00419874
-0.00093081
0.00455064
-0.000615245
0.0047824
-0.000392418
0.00493281
-0.000244444
0.00502966
-0.000149878
0.00509178
-9.08426e-05
0.00513157
-5.45463e-05
0.00515705
-3.24492e-05
0.00517336
-1.90776e-05
0.00518377
-1.1027e-05
0.00519038
-6.20146e-06
0.0051946
-3.32287e-06
0.00519726
-1.64123e-06
0.00519891
-6.82972e-07
0.00519993
-1.55699e-07
0.00520053
1.18924e-07
0.00520089
2.47387e-07
0.00520108
2.91897e-07
0.00520118
2.89738e-07
0.00520122
2.65677e-07
0.00520123
2.3057e-07
0.00520122
1.93395e-07
0.0052012
1.59199e-07
0.00520118
1.2945e-07
0.00520116
1.05053e-07
0.00520114
8.38971e-08
0.00520112
6.722e-08
0.00520111
5.15611e-08
0.00520109
3.9324e-08
0.00520109
2.99321e-08
0.00520108
1.95617e-08
0.00520107
1.63765e-08
0.00520107
1.13215e-08
0.00520107
4.76222e-09
0.00520107
6.2257e-09
1.63923e-09
-0.00123075
0.00276441
-0.0017605
0.00223469
-0.00152164
0.000334463
-0.000753974
-0.00152742
0.000412811
-0.00297777
0.00165714
-0.00348615
0.0027202
-0.00322768
0.0035398
-0.00260923
0.00413955
-0.00193735
0.00455703
-0.00134829
0.00483577
-0.000893992
0.0050183
-0.000574947
0.00513789
-0.000364031
0.00521693
-0.000228917
0.00526961
-0.000143518
0.00530493
-8.98727e-05
0.00532871
-5.62268e-05
0.00534471
-3.50812e-05
0.00535546
-2.17769e-05
0.00536266
-1.34037e-05
0.00536748
-8.13937e-06
0.00537069
-4.84607e-06
0.0053728
-2.80154e-06
0.00537419
-1.54498e-06
0.0053751
-7.83498e-07
0.00537568
-3.32475e-07
0.00537605
-7.71477e-08
0.00537628
5.48798e-08
0.00537642
1.23613e-07
0.00537651
1.47238e-07
0.00537655
1.47371e-07
0.00537657
1.36227e-07
0.00537658
1.2034e-07
0.00537659
1.03411e-07
0.00537658
8.63942e-08
0.00537658
7.09208e-08
0.00537657
5.61953e-08
0.00537657
4.3729e-08
0.00537657
3.35257e-08
0.00537656
2.38461e-08
0.00537656
1.85062e-08
0.00537656
1.27914e-08
0.00537656
6.68075e-09
0.00537656
5.85441e-09
-1.06933e-09
-0.000526426
0.00329084
0.000318244
0.00139002
0.00119615
-0.000543445
0.00222765
-0.00255891
0.00331085
-0.00406097
0.00426185
-0.00443715
0.00479428
-0.00376011
0.00500229
-0.00281724
0.00508865
-0.0020237
0.0051545
-0.00141414
0.00521242
-0.000951911
0.00525831
-0.000620846
0.0052926
-0.000398316
0.0053181
-0.000254413
0.00533736
-0.000162781
0.00535196
-0.00010447
0.00536288
-6.71527e-05
0.00537093
-4.31251e-05
0.00537675
-2.76008e-05
0.0053809
-1.75566e-05
0.00538382
-1.10613e-05
0.00538585
-6.87521e-06
0.00538724
-4.19252e-06
0.00538819
-2.48655e-06
0.00538882
-1.41343e-06
0.00538923
-7.49579e-07
0.00538951
-3.49586e-07
0.00538968
-1.17262e-07
0.00538979
1.02908e-08
0.00538986
7.67535e-08
0.0053899
1.05951e-07
0.00538993
1.13241e-07
0.00538994
1.08516e-07
0.00538994
9.80066e-08
0.00538994
8.4808e-08
0.00538994
7.10678e-08
0.00538994
5.74111e-08
0.00538994
4.53236e-08
0.00538994
3.50871e-08
0.00538994
2.56501e-08
0.00538994
1.97845e-08
0.00538994
1.3442e-08
0.00538994
7.28098e-09
0.00538994
5.56045e-09
-2.88481e-09
0.00244867
0.00441194
0.00585632
0.00685943
0.00749329
0.00776861
0.00766294
0.00717789
0.00656547
0.00606051
0.00573192
0.0055504
0.00546031
0.00541865
0.00540032
0.00539259
0.00538955
0.00538858
0.00538853
0.00538884
0.00538925
0.00538963
0.00538994
0.00539018
0.00539035
0.00539047
0.00539056
0.00539061
0.00539065
0.00539068
0.00539069
0.0053907
0.0053907
0.0053907
0.0053907
0.0053907
0.0053907
0.0053907
0.0053907
0.0053907
0.0053907
0.0053907
0.0053907
0.0053907
)
;

boundaryField
{
    inlet
    {
        type            calculated;
        value           nonuniform List<scalar> 5(-0.01 -0.01 -0.01 -0.01 -0.01);
    }
    outlet
    {
        type            calculated;
        value           nonuniform List<scalar> 10(0.0053907 0.00538992 0.00537653 0.00520103 0.00364175 0.0036418 0.00520107 0.00537656 0.00538994 0.0053907);
    }
    upperWall
    {
        type            calculated;
        value           uniform 0;
    }
    lowerWall
    {
        type            calculated;
        value           uniform 0;
    }
    frontAndBack
    {
        type            empty;
        value           nonuniform List<scalar> 0();
    }
}


// ************************************************************************* //
