/*--------------------------------*- C++ -*----------------------------------*\
  =========                 |
  \\      /  F ield         | OpenFOAM: The Open Source CFD Toolbox
   \\    /   O peration     | Website:  https://openfoam.org
    \\  /    A nd           | Version:  10
     \\/     M anipulation  |
\*---------------------------------------------------------------------------*/
FoamFile
{
    format      ascii;
    class       volVectorField;
    location    "1.15";
    object      U;
}
// * * * * * * * * * * * * * * * * * * * * * * * * * * * * * * * * * * * * * //

dimensions      [0 1 -1 0 0 0 0];

internalField   nonuniform List<vector> 
475
(
(0.978964 0.0297448 0)
(0.958356 -0.00139943 0)
(0.951484 0.0377056 0)
(0.936716 -0.00745818 0)
(0.966612 0.0208589 0)
(0.989914 0.0106902 0)
(1.02178 0.0265341 0)
(1.04636 -0.00265526 0)
(1.04269 0.000635591 0)
(1.07128 -0.0101005 0)
(0.994571 0.00490126 0)
(1.01612 -0.00857294 0)
(1.03188 -0.00936724 0)
(1.03522 -0.00702959 0)
(1.05842 -0.053308 0)
(0.998798 -0.0106775 0)
(1.01302 -0.0148704 0)
(1.02021 -0.0324674 0)
(1.03379 -0.0349625 0)
(1.04801 -0.0296232 0)
(0.978807 -0.00886456 0)
(0.971278 -0.0208763 0)
(0.954577 -0.0231105 0)
(0.92253 -0.021952 0)
(0.897734 -0.0312187 0)
(0.940052 -0.00495956 0)
(1.03663 -0.117473 0)
(1.11958 -0.232444 0)
(1.16569 -0.346869 0)
(1.07728 -0.434464 0)
(0.933312 -0.460327 0)
(0.841959 -0.373364 0)
(0.785122 -0.222031 0)
(0.731767 -0.101182 0)
(0.677805 -0.041622 0)
(0.630738 -0.0220802 0)
(0.595766 -0.017193 0)
(0.572571 -0.0150228 0)
(0.558295 -0.0126049 0)
(0.549914 -0.00994465 0)
(0.545144 -0.00745595 0)
(0.542489 -0.00537215 0)
(0.541027 -0.00374949 0)
(0.540217 -0.00255021 0)
(0.539756 -0.00169869 0)
(0.539486 -0.00111081 0)
(0.539325 -0.000712704 0)
(0.539226 -0.000447341 0)
(0.539166 -0.000273091 0)
(0.539129 -0.000160512 0)
(0.539107 -8.91876e-05 0)
(0.539092 -4.51129e-05 0)
(0.539083 -1.86259e-05 0)
(0.539077 -3.21631e-06 0)
(0.539073 5.06741e-06 0)
(0.539071 8.96243e-06 0)
(0.53907 1.03079e-05 0)
(0.53907 1.02101e-05 0)
(0.539069 9.36288e-06 0)
(0.53907 8.15866e-06 0)
(0.539068 6.86404e-06 0)
(0.539071 5.59955e-06 0)
(0.539067 4.48199e-06 0)
(0.539072 3.5157e-06 0)
(0.539066 2.62437e-06 0)
(0.539072 2.03307e-06 0)
(0.53907 1.31729e-06 0)
(0.539068 7.13291e-07 0)
(0.539072 4.74569e-07 0)
(0.53907 -4.72765e-07 0)
(1.11213 -0.0133583 0)
(1.11207 -0.0799145 0)
(1.0925 -0.209397 0)
(1.03589 -0.301743 0)
(0.850215 -0.282356 0)
(0.626188 -0.230333 0)
(0.493372 -0.200954 0)
(0.450552 -0.151314 0)
(0.464249 -0.088849 0)
(0.497716 -0.0446748 0)
(0.524349 -0.0232723 0)
(0.538219 -0.01513 0)
(0.543615 -0.0118406 0)
(0.544932 -0.00959729 0)
(0.544551 -0.00748082 0)
(0.543579 -0.00554844 0)
(0.542511 -0.00395393 0)
(0.541555 -0.00273992 0)
(0.540786 -0.00186015 0)
(0.540211 -0.00123828 0)
(0.539805 -0.000806691 0)
(0.539526 -0.000512736 0)
(0.539339 -0.000316099 0)
(0.539214 -0.000187015 0)
(0.539133 -0.000104092 0)
(0.53908 -5.22097e-05 0)
(0.539046 -2.08308e-05 0)
(0.539024 -2.80975e-06 0)
(0.53901 6.74264e-06 0)
(0.539001 1.11491e-05 0)
(0.538996 1.26613e-05 0)
(0.538993 1.25025e-05 0)
(0.538992 1.1455e-05 0)
(0.538991 9.9931e-06 0)
(0.538992 8.43128e-06 0)
(0.53899 6.93216e-06 0)
(0.538993 5.57487e-06 0)
(0.538988 4.43367e-06 0)
(0.538994 3.43897e-06 0)
(0.538988 2.60268e-06 0)
(0.538994 1.98807e-06 0)
(0.538992 1.27523e-06 0)
(0.538991 7.06255e-07 0)
(0.538995 4.58166e-07 0)
(0.538992 -5.04836e-07 0)
(1.06763 -0.0599187 0)
(1.07289 -0.0732348 0)
(1.0609 -0.163478 0)
(1.00461 -0.207969 0)
(0.951372 -0.150832 0)
(0.918336 -0.108774 0)
(0.86078 -0.135791 0)
(0.768031 -0.155314 0)
(0.684221 -0.126351 0)
(0.631775 -0.0801786 0)
(0.60125 -0.0449559 0)
(0.581634 -0.0243301 0)
(0.567964 -0.0134497 0)
(0.55822 -0.00783834 0)
(0.551346 -0.00485245 0)
(0.54662 -0.00315482 0)
(0.543464 -0.00211178 0)
(0.541409 -0.00142548 0)
(0.54009 -0.000952334 0)
(0.539242 -0.000619704 0)
(0.538688 -0.000388611 0)
(0.538323 -0.000232275 0)
(0.538083 -0.000129337 0)
(0.537925 -6.36018e-05 0)
(0.537822 -2.32641e-05 0)
(0.537755 1.2774e-07 0)
(0.537713 1.25794e-05 0)
(0.537686 1.81183e-05 0)
(0.537669 1.94884e-05 0)
(0.537659 1.87869e-05 0)
(0.537654 1.70563e-05 0)
(0.537651 1.48773e-05 0)
(0.53765 1.25959e-05 0)
(0.53765 1.03689e-05 0)
(0.537651 8.38386e-06 0)
(0.53765 6.62739e-06 0)
(0.537653 5.21905e-06 0)
(0.537649 4.05773e-06 0)
(0.537655 3.09461e-06 0)
(0.537649 2.40265e-06 0)
(0.537655 1.76378e-06 0)
(0.537653 1.14253e-06 0)
(0.537652 6.91039e-07 0)
(0.537656 3.486e-07 0)
(0.537653 -5.10665e-07 0)
(1.03014 -0.0577948 0)
(1.01624 -0.0897173 0)
(1.0052 -0.0936344 0)
(0.933924 -0.12177 0)
(0.829891 -0.16346 0)
(0.760493 -0.152274 0)
(0.715144 -0.0877215 0)
(0.659043 -0.0233742 0)
(0.60195 0.00864896 0)
(0.563892 0.0156645 0)
(0.544263 0.0131842 0)
(0.534869 0.00897116 0)
(0.530066 0.00543693 0)
(0.527296 0.00300391 0)
(0.525452 0.00153047 0)
(0.524078 0.000740718 0)
(0.523004 0.000369554 0)
(0.522163 0.000219087 0)
(0.521519 0.000165322 0)
(0.521043 0.000143946 0)
(0.520703 0.000130996 0)
(0.520469 0.000119345 0)
(0.520315 0.000106923 0)
(0.520217 9.36824e-05 0)
(0.520156 8.02084e-05 0)
(0.52012 6.71889e-05 0)
(0.520099 5.52271e-05 0)
(0.520089 4.47904e-05 0)
(0.520085 3.60551e-05 0)
(0.520084 2.88372e-05 0)
(0.520085 2.29188e-05 0)
(0.520088 1.8042e-05 0)
(0.52009 1.4081e-05 0)
(0.520093 1.08014e-05 0)
(0.520096 8.33172e-06 0)
(0.520096 6.24248e-06 0)
(0.5201 4.86987e-06 0)
(0.520097 3.7087e-06 0)
(0.520104 2.70071e-06 0)
(0.520098 2.38584e-06 0)
(0.520104 1.40419e-06 0)
(0.520103 9.4428e-07 0)
(0.520102 8.6614e-07 0)
(0.520106 1.37863e-07 0)
(0.520103 -5.24793e-07 0)
(0.859305 -0.0342506 0)
(0.794155 -0.0427063 0)
(0.725278 -0.0653402 0)
(0.647168 -0.0582269 0)
(0.551302 -0.0220945 0)
(0.462221 -0.000944117 0)
(0.401736 -0.0053058 0)
(0.36944 -0.0141891 0)
(0.357332 -0.0160851 0)
(0.355873 -0.0133144 0)
(0.357515 -0.00922502 0)
(0.359093 -0.00566569 0)
(0.36022 -0.00305385 0)
(0.361001 -0.00135021 0)
(0.361557 -0.000357663 0)
(0.361978 0.000146413 0)
(0.362323 0.00034871 0)
(0.362623 0.000385704 0)
(0.362891 0.000347106 0)
(0.363126 0.000284345 0)
(0.36333 0.000223067 0)
(0.3635 0.000171933 0)
(0.36364 0.000131466 0)
(0.363754 0.000100075 0)
(0.363846 7.59236e-05 0)
(0.363919 5.7438e-05 0)
(0.363977 4.3351e-05 0)
(0.364023 3.26916e-05 0)
(0.364058 2.46622e-05 0)
(0.364086 1.8597e-05 0)
(0.364108 1.39986e-05 0)
(0.364125 1.04859e-05 0)
(0.364138 7.8359e-06 0)
(0.364147 5.79479e-06 0)
(0.364155 4.34286e-06 0)
(0.36416 3.14965e-06 0)
(0.364165 2.43959e-06 0)
(0.364166 1.78752e-06 0)
(0.364172 1.2947e-06 0)
(0.36417 1.18307e-06 0)
(0.364176 5.33088e-07 0)
(0.364174 4.89482e-07 0)
(0.364175 5.0934e-07 0)
(0.364178 -8.42778e-08 0)
(0.364175 -3.1749e-07 0)
(-0.0508938 -0.00446018 0)
(-0.129927 0.0195688 0)
(-0.183779 0.00727634 0)
(-0.18336 -0.0117232 0)
(-0.120149 -0.0327775 0)
(-0.0288942 -0.0435805 0)
(0.0731836 -0.0426769 0)
(0.162836 -0.0348149 0)
(0.233396 -0.0249985 0)
(0.283809 -0.0162213 0)
(0.317237 -0.00963504 0)
(0.338097 -0.00524674 0)
(0.35049 -0.00257558 0)
(0.357556 -0.00106749 0)
(0.361431 -0.0002764 0)
(0.363458 0.00010152 0)
(0.364446 0.000254883 0)
(0.364868 0.000293961 0)
(0.364994 0.000279972 0)
(0.364978 0.000244042 0)
(0.364895 0.000200788 0)
(0.364789 0.000160325 0)
(0.364681 0.000125539 0)
(0.364584 9.69523e-05 0)
(0.364501 7.42245e-05 0)
(0.364432 5.6595e-05 0)
(0.364377 4.30949e-05 0)
(0.364333 3.2765e-05 0)
(0.364297 2.48192e-05 0)
(0.364269 1.86528e-05 0)
(0.364247 1.39057e-05 0)
(0.36423 1.03406e-05 0)
(0.364218 7.69134e-06 0)
(0.364208 5.80912e-06 0)
(0.364201 4.36363e-06 0)
(0.364195 3.38136e-06 0)
(0.364192 2.44398e-06 0)
(0.364187 1.8232e-06 0)
(0.364187 1.34174e-06 0)
(0.364181 7.17993e-07 0)
(0.364184 7.77459e-07 0)
(0.364181 4.41602e-07 0)
(0.36418 6.91509e-08 0)
(0.364183 4.64548e-07 0)
(0.36418 3.45532e-07 0)
(-0.0203246 0.184269 0)
(-0.127578 0.12784 0)
(-0.200988 0.0593975 0)
(-0.184036 -0.0433222 0)
(-0.10061 -0.122949 0)
(0.0138409 -0.157841 0)
(0.138079 -0.15407 0)
(0.24674 -0.128135 0)
(0.332966 -0.0961528 0)
(0.396016 -0.0669093 0)
(0.43951 -0.0439285 0)
(0.468363 -0.0275917 0)
(0.487073 -0.0167608 0)
(0.499076 -0.00991204 0)
(0.506744 -0.00571927 0)
(0.511635 -0.00321437 0)
(0.514754 -0.00174804 0)
(0.516742 -0.00090501 0)
(0.518008 -0.0004295 0)
(0.518813 -0.000168521 0)
(0.519323 -3.21282e-05 0)
(0.519644 3.46098e-05 0)
(0.519844 6.27883e-05 0)
(0.519966 7.03716e-05 0)
(0.520039 6.77552e-05 0)
(0.520083 6.07158e-05 0)
(0.520107 5.21937e-05 0)
(0.520119 4.35763e-05 0)
(0.520125 3.56443e-05 0)
(0.520125 2.85792e-05 0)
(0.520124 2.25424e-05 0)
(0.520122 1.76259e-05 0)
(0.52012 1.37035e-05 0)
(0.520117 1.07369e-05 0)
(0.520116 8.31978e-06 0)
(0.520112 6.59873e-06 0)
(0.520113 4.97755e-06 0)
(0.520108 3.78038e-06 0)
(0.520112 2.91838e-06 0)
(0.520105 1.74765e-06 0)
(0.520109 1.58459e-06 0)
(0.520107 1.09502e-06 0)
(0.520106 3.13386e-07 0)
(0.520109 6.61456e-07 0)
(0.520107 3.50286e-07 0)
(-0.0775386 0.108307 0)
(-0.188033 0.201595 0)
(-0.171988 0.0464329 0)
(-0.125879 -0.118969 0)
(-0.014175 -0.25015 0)
(0.106429 -0.295906 0)
(0.220194 -0.278693 0)
(0.313121 -0.227227 0)
(0.384363 -0.168815 0)
(0.436001 -0.117713 0)
(0.471159 -0.0784951 0)
(0.494079 -0.0507579 0)
(0.508861 -0.0321795 0)
(0.518498 -0.0201571 0)
(0.524866 -0.0125361 0)
(0.52911 -0.00775992 0)
(0.531953 -0.00478324 0)
(0.533862 -0.00293344 0)
(0.535144 -0.00178573 0)
(0.536003 -0.00107435 0)
(0.536576 -0.00063412 0)
(0.536957 -0.000364016 0)
(0.537208 -0.000200021 0)
(0.537373 -0.000101739 0)
(0.537481 -4.38692e-05 0)
(0.537551 -1.07876e-05 0)
(0.537595 7.07133e-06 0)
(0.537623 1.55793e-05 0)
(0.53764 1.83062e-05 0)
(0.537649 1.80652e-05 0)
(0.537654 1.64575e-05 0)
(0.537657 1.43766e-05 0)
(0.537659 1.22437e-05 0)
(0.537659 1.0276e-05 0)
(0.53766 8.44402e-06 0)
(0.537658 6.85928e-06 0)
(0.53766 5.36188e-06 0)
(0.537655 4.12321e-06 0)
(0.53766 3.12739e-06 0)
(0.537653 2.17113e-06 0)
(0.537658 1.72184e-06 0)
(0.537656 1.19346e-06 0)
(0.537654 6.17511e-07 0)
(0.537658 6.1597e-07 0)
(0.537656 -9.65798e-09 0)
(-0.114958 0.425214 0)
(-0.00626722 0.227037 0)
(0.0645961 0.0134437 0)
(0.179627 -0.208451 0)
(0.292307 -0.36368 0)
(0.389859 -0.400656 0)
(0.454216 -0.357993 0)
(0.486916 -0.287601 0)
(0.500562 -0.213892 0)
(0.509527 -0.148328 0)
(0.517388 -0.0975462 0)
(0.523467 -0.0623852 0)
(0.527729 -0.0395739 0)
(0.530737 -0.0251455 0)
(0.532947 -0.0160396 0)
(0.534608 -0.010253 0)
(0.535856 -0.00654951 0)
(0.536779 -0.00417181 0)
(0.537453 -0.00264502 0)
(0.537936 -0.00166529 0)
(0.538276 -0.00103755 0)
(0.538513 -0.000636982 0)
(0.538675 -0.000382902 0)
(0.538786 -0.000222988 0)
(0.538861 -0.000123429 0)
(0.538911 -6.24766e-05 0)
(0.538943 -2.61496e-05 0)
(0.538964 -5.43881e-06 0)
(0.538976 5.3812e-06 0)
(0.538984 1.03763e-05 0)
(0.538989 1.21314e-05 0)
(0.538992 1.21223e-05 0)
(0.538994 1.12265e-05 0)
(0.538994 9.94074e-06 0)
(0.538996 8.48568e-06 0)
(0.538994 7.06133e-06 0)
(0.538996 5.6714e-06 0)
(0.538992 4.45643e-06 0)
(0.538997 3.44076e-06 0)
(0.538991 2.49291e-06 0)
(0.538996 1.9082e-06 0)
(0.538994 1.3126e-06 0)
(0.538992 6.97022e-07 0)
(0.538996 5.66881e-07 0)
(0.538994 -2.11348e-07 0)
(0.0728968 0.201149 0)
(0.369772 0.0244068 0)
(0.527655 -0.137291 0)
(0.670793 -0.329377 0)
(0.74322 -0.476649 0)
(0.769462 -0.492349 0)
(0.772172 -0.383175 0)
(0.74014 -0.265452 0)
(0.681183 -0.189366 0)
(0.624234 -0.138145 0)
(0.584342 -0.0975445 0)
(0.560979 -0.0657602 0)
(0.548883 -0.0428668 0)
(0.543143 -0.0274569 0)
(0.540578 -0.0174921 0)
(0.539483 -0.0111682 0)
(0.539039 -0.00716863 0)
(0.53888 -0.00462042 0)
(0.538848 -0.00297883 0)
(0.53887 -0.00191313 0)
(0.53891 -0.00121942 0)
(0.538949 -0.0007683 0)
(0.538983 -0.000476105 0)
(0.539009 -0.000288127 0)
(0.539029 -0.00016841 0)
(0.539044 -9.32918e-05 0)
(0.539054 -4.71723e-05 0)
(0.53906 -1.96694e-05 0)
(0.539064 -3.77427e-06 0)
(0.539067 4.7733e-06 0)
(0.539068 8.75268e-06 0)
(0.539069 1.0135e-05 0)
(0.53907 1.00984e-05 0)
(0.53907 9.32471e-06 0)
(0.539071 8.17119e-06 0)
(0.53907 6.90694e-06 0)
(0.539072 5.64486e-06 0)
(0.539068 4.50856e-06 0)
(0.539073 3.52458e-06 0)
(0.539067 2.60158e-06 0)
(0.539072 2.008e-06 0)
(0.53907 1.33909e-06 0)
(0.539069 7.30702e-07 0)
(0.539073 5.21941e-07 0)
(0.53907 -3.71035e-07 0)
)
;

boundaryField
{
    inlet
    {
        type            fixedValue;
        value           uniform (1 0 0);
    }
    outlet
    {
        type            zeroGradient;
    }
    upperWall
    {
        type            noSlip;
    }
    lowerWall
    {
        type            noSlip;
    }
    frontAndBack
    {
        type            empty;
    }
}


// ************************************************************************* //
