/*--------------------------------*- C++ -*----------------------------------*\
  =========                 |
  \\      /  F ield         | OpenFOAM: The Open Source CFD Toolbox
   \\    /   O peration     | Website:  https://openfoam.org
    \\  /    A nd           | Version:  10
     \\/     M anipulation  |
\*---------------------------------------------------------------------------*/
FoamFile
{
    format      ascii;
    class       volVectorField;
    location    "0.45";
    object      U;
}
// * * * * * * * * * * * * * * * * * * * * * * * * * * * * * * * * * * * * * //

dimensions      [0 1 -1 0 0 0 0];

internalField   nonuniform List<vector> 
400
(
(-0.000191624 0.000189613 0)
(-0.000590275 0.000202462 0)
(-0.000993389 0.000192737 0)
(-0.00137 0.00017759 0)
(-0.00171114 0.00015804 0)
(-0.0020086 0.000134701 0)
(-0.00225539 0.000108234 0)
(-0.00244587 7.93255e-05 0)
(-0.00257582 4.86602e-05 0)
(-0.00264238 1.69139e-05 0)
(-0.00264405 -1.52458e-05 0)
(-0.00258068 -4.71496e-05 0)
(-0.00245345 -7.81167e-05 0)
(-0.00226496 -0.000107446 0)
(-0.00201924 -0.000134414 0)
(-0.00172179 -0.000158289 0)
(-0.00137959 -0.000178356 0)
(-0.00100095 -0.000193946 0)
(-0.000595054 -0.000203984 0)
(-0.000193241 -0.000191189 0)
(-0.000214467 0.000596674 0)
(-0.00065989 0.000636187 0)
(-0.00110947 0.00060553 0)
(-0.00152924 0.000557797 0)
(-0.00190922 0.000496227 0)
(-0.00224031 0.000422794 0)
(-0.00251479 0.000339605 0)
(-0.00272651 0.000248824 0)
(-0.00287087 0.000152595 0)
(-0.0029448 5.30195e-05 0)
(-0.00294667 -4.78348e-05 0)
(-0.00287631 -0.0001479 0)
(-0.002735 -0.00024507 0)
(-0.00252552 -0.000337162 0)
(-0.00225224 -0.000421917 0)
(-0.00192118 -0.000497027 0)
(-0.00154002 -0.000560217 0)
(-0.00111797 -0.000609342 0)
(-0.00066527 -0.000640974 0)
(-0.000216287 -0.00060163 0)
(-0.000225664 0.00104039 0)
(-0.000694284 0.00110805 0)
(-0.00116694 0.0010543 0)
(-0.00160771 0.000970737 0)
(-0.00200611 0.000863115 0)
(-0.00235271 0.000734982 0)
(-0.00263964 0.000590077 0)
(-0.00286071 0.000432183 0)
(-0.00301138 0.000265009 0)
(-0.00308861 9.21468e-05 0)
(-0.0030908 -8.28975e-05 0)
(-0.00301776 -0.000256628 0)
(-0.00287069 -0.000425468 0)
(-0.00265228 -0.000585691 0)
(-0.00236679 -0.000733388 0)
(-0.00202025 -0.000864519 0)
(-0.00162049 -0.000975048 0)
(-0.00117705 -0.00106111 0)
(-0.000700684 -0.00111663 0)
(-0.000227831 -0.00104928 0)
(-0.000242429 0.0015096 0)
(-0.000745652 0.00160681 0)
(-0.0012526 0.001528 0)
(-0.00172441 0.00140586 0)
(-0.00214986 0.00124896 0)
(-0.00251907 0.00106266 0)
(-0.00282399 0.000852542 0)
(-0.0030585 0.000624112 0)
(-0.00321819 0.000382681 0)
(-0.00330016 0.000133302 0)
(-0.00330289 -0.000119151 0)
(-0.00322613 -0.000369841 0)
(-0.00307094 -0.000613796 0)
(-0.00283979 -0.000845766 0)
(-0.00253673 -0.00106015 0)
(-0.00216766 -0.00125105 0)
(-0.00174056 -0.00141244 0)
(-0.0012654 -0.00153847 0)
(-0.000753773 -0.00162002 0)
(-0.000245178 -0.00152331 0)
(-0.000265933 0.00201897 0)
(-0.000817556 0.00214773 0)
(-0.00137223 0.00204069 0)
(-0.00188694 0.00187551 0)
(-0.00234942 0.00166413 0)
(-0.00274926 0.00141418 0)
(-0.00307834 0.00113335 0)
(-0.00333073 0.000829084 0)
(-0.00350236 0.000508333 0)
(-0.00359061 0.000177542 0)
(-0.00359412 -0.000157183 0)
(-0.00351257 -0.000489826 0)
(-0.00334677 -0.000814156 0)
(-0.00309878 -0.00112347 0)
(-0.0027722 -0.00141041 0)
(-0.00237265 -0.00166702 0)
(-0.00190811 -0.00188494 0)
(-0.00138908 -0.00205584 0)
(-0.000828278 -0.00216694 0)
(-0.000269563 -0.00203895 0)
(-0.000297188 0.00258298 0)
(-0.000912998 0.00274576 0)
(-0.00153051 0.00260582 0)
(-0.00210111 0.00239112 0)
(-0.0026112 0.00211789 0)
(-0.00304985 0.00179666 0)
(-0.00340909 0.00143772 0)
(-0.00368352 0.00105067 0)
(-0.00386973 0.000644108 0)
(-0.00396568 0.000225746 0)
(-0.00397026 -0.000197332 0)
(-0.00388311 -0.000618216 0)
(-0.00370459 -0.00102967 0)
(-0.00343604 -0.00142367 0)
(-0.00308028 -0.00179111 0)
(-0.0026422 -0.00212169 0)
(-0.00212952 -0.00240421 0)
(-0.00155325 -0.00262713 0)
(-0.000927523 -0.00277297 0)
(-0.00030211 -0.00261136 0)
(-0.000337672 0.00321846 0)
(-0.00103632 0.00341807 0)
(-0.00173412 0.0032384 0)
(-0.00237503 0.00296499 0)
(-0.00294388 0.00261974 0)
(-0.00342943 0.00221704 0)
(-0.00382434 0.00177044 0)
(-0.00412435 0.00129195 0)
(-0.00432728 0.000791816 0)
(-0.00443205 0.000278712 0)
(-0.00443808 -0.000239726 0)
(-0.00434491 -0.000756176 0)
(-0.00415223 -0.00126284 0)
(-0.00386022 -0.00175069 0)
(-0.00347022 -0.00220887 0)
(-0.00298576 -0.00262449 0)
(-0.00241373 -0.00298281 0)
(-0.00176532 -0.00326793 0)
(-0.00105635 -0.00345615 0)
(-0.000344473 -0.00325833 0)
(-0.000389568 0.00394577 0)
(-0.00119385 0.00418505 0)
(-0.00199261 0.00395561 0)
(-0.00271997 0.00361046 0)
(-0.00335915 0.00317924 0)
(-0.00389915 0.00268169 0)
(-0.00433418 0.00213543 0)
(-0.00466215 0.0015552 0)
(-0.00488298 0.000952696 0)
(-0.00499722 0.000337078 0)
(-0.00500515 -0.000284176 0)
(-0.00490622 -0.000904129 0)
(-0.0046991 -0.00151515 0)
(-0.00438208 -0.00210776 0)
(-0.00395409 -0.00266959 0)
(-0.00341614 -0.00318484 0)
(-0.00277319 -0.00363432 0)
(-0.00203594 -0.0039962 0)
(-0.00122188 -0.00423809 0)
(-0.000399115 -0.00400166 0)
(-0.000456165 0.00479053 0)
(-0.00139501 0.00507169 0)
(-0.00231973 0.00477744 0)
(-0.00315164 0.00434186 0)
(-0.00387265 0.00380557 0)
(-0.00447324 0.00319568 0)
(-0.00495083 0.00253498 0)
(-0.00530709 0.00184117 0)
(-0.0055454 0.00112698 0)
(-0.00566892 0.00040118 0)
(-0.00567929 -0.000330021 0)
(-0.00557589 -0.0010613 0)
(-0.00535586 -0.00178636 0)
(-0.00501465 -0.00249622 0)
(-0.0045473 -0.00317754 0)
(-0.0039505 -0.00381149 0)
(-0.00322536 -0.00437329 0)
(-0.00238058 -0.0048329 0)
(-0.00143479 -0.00514555 0)
(-0.000469785 -0.00486906 0)
(-0.000542593 0.00578633 0)
(-0.00165413 0.00610951 0)
(-0.00273576 0.00572736 0)
(-0.00369214 0.00517418 0)
(-0.00450534 0.00450644 0)
(-0.00516973 0.0037615 0)
(-0.00568868 0.00296854 0)
(-0.00607015 0.00214816 0)
(-0.00632297 0.00131325 0)
(-0.00645423 0.000470809 0)
(-0.00646763 -0.00037592 0)
(-0.00636256 -0.00122504 0)
(-0.00613402 -0.00207341 0)
(-0.00577326 -0.00291413 0)
(-0.00526936 -0.00373398 0)
(-0.00461189 -0.00451133 0)
(-0.00379493 -0.00521469 0)
(-0.00282219 -0.00580269 0)
(-0.00171153 -0.00621258 0)
(-0.000562406 -0.00589741 0)
(-0.000657245 0.0069794 0)
(-0.00199385 0.00733938 0)
(-0.00327109 0.00683291 0)
(-0.00437292 0.006122 0)
(-0.00528535 0.00528626 0)
(-0.00601115 0.00437695 0)
(-0.00656418 0.0034307 0)
(-0.00696238 0.00247042 0)
(-0.00722275 0.0015075 0)
(-0.0073581 0.000544869 0)
(-0.00737513 -0.000419643 0)
(-0.00727338 -0.00139004 0)
(-0.00704495 -0.00236893 0)
(-0.00667522 -0.00335409 0)
(-0.00614451 -0.00433462 0)
(-0.00543121 -0.00528707 0)
(-0.00451713 -0.00617248 0)
(-0.00339547 -0.00693439 0)
(-0.00207839 -0.00748366 0)
(-0.000686837 -0.00713832 0)
(-0.000814779 0.00843711 0)
(-0.00245149 0.00881519 0)
(-0.00397237 0.00812577 0)
(-0.00523922 0.00719707 0)
(-0.00625041 0.00614258 0)
(-0.0070253 0.00503153 0)
(-0.00759522 0.00390852 0)
(-0.00799335 0.00279655 0)
(-0.00824853 0.0017022 0)
(-0.00838137 0.000621017 0)
(-0.00840253 -0.000457796 0)
(-0.00831185 -0.00154741 0)
(-0.00809807 -0.0026596 0)
(-0.00773894 -0.00380055 0)
(-0.00720234 -0.00496565 0)
(-0.00644976 -0.00613303 0)
(-0.00544276 -0.00725651 0)
(-0.00415402 -0.00826063 0)
(-0.00257936 -0.00901756 0)
(-0.000860702 -0.00866856 0)
(-0.00104315 0.0102644 0)
(-0.00309159 0.0106078 0)
(-0.00491229 0.00964013 0)
(-0.00635661 0.0084031 0)
(-0.0074509 0.00705988 0)
(-0.00824521 0.00570174 0)
(-0.00879917 0.00437827 0)
(-0.00916871 0.00310713 0)
(-0.00939829 0.00188487 0)
(-0.00951809 0.000695142 0)
(-0.00954356 -0.000485535 0)
(-0.00947518 -0.00168342 0)
(-0.00929809 -0.00292375 0)
(-0.00898128 -0.0042262 0)
(-0.00847699 -0.00559862 0)
(-0.00772207 -0.00702775 0)
(-0.00664534 -0.0084657 0)
(-0.00518171 -0.00981513 0)
(-0.00329199 -0.0108912 0)
(-0.00111871 -0.0106101 0)
(-0.00140046 0.0126336 0)
(-0.00403173 0.0128087 0)
(-0.00620483 0.0114071 0)
(-0.0078201 0.00972476 0)
(-0.00895182 0.00800027 0)
(-0.00970693 0.00634413 0)
(-0.0101898 0.0048004 0)
(-0.0104868 0.00337162 0)
(-0.0106605 0.00203644 0)
(-0.0107518 0.000760662 0)
(-0.0107811 -0.000496445 0)
(-0.0107501 -0.00177839 0)
(-0.0106408 -0.00312864 0)
(-0.0104138 -0.00458688 0)
(-0.0100039 -0.00618261 0)
(-0.00931683 -0.00792328 0)
(-0.00823088 -0.00977386 0)
(-0.0066106 -0.0116243 0)
(-0.00435964 -0.0132025 0)
(-0.00153431 -0.0131682 0)
(-0.00201052 0.015866 0)
(-0.00549339 0.0155306 0)
(-0.00802984 0.0134374 0)
(-0.00976427 0.0111077 0)
(-0.0108316 0.0088886 0)
(-0.0114451 0.00688482 0)
(-0.0117717 0.00511357 0)
(-0.0119327 0.00354549 0)
(-0.0120092 0.00212992 0)
(-0.012051 0.000807938 0)
(-0.0120826 -0.000482738 0)
(-0.0121074 -0.00180619 0)
(-0.0121066 -0.00322837 0)
(-0.0120353 -0.00481611 0)
(-0.0118134 -0.0066331 0)
(-0.0113133 -0.00872759 0)
(-0.0103472 -0.0111057 0)
(-0.00864946 -0.0136815 0)
(-0.00605744 -0.01606 0)
(-0.00226806 -0.0167109 0)
(-0.00316653 0.0202632 0)
(-0.00793398 0.0188371 0)
(-0.0106686 0.015673 0)
(-0.0123701 0.0124245 0)
(-0.0131747 0.00958795 0)
(-0.0134819 0.00720647 0)
(-0.0135291 0.00522939 0)
(-0.0134703 0.003569 0)
(-0.013398 0.00213092 0)
(-0.0133644 0.000824389 0)
(-0.0133951 -0.000436277 0)
(-0.0134956 -0.00173589 0)
(-0.0136507 -0.00316424 0)
(-0.0138184 -0.00482132 0)
(-0.0139152 -0.00681954 0)
(-0.0137892 -0.00927706 0)
(-0.0131855 -0.0122945 0)
(-0.0116158 -0.0158948 0)
(-0.00893489 -0.0195336 0)
(-0.00368694 -0.021845 0)
(-0.00525584 0.0286453 0)
(-0.0119799 0.0230738 0)
(-0.0144898 0.0180213 0)
(-0.0158486 0.0134433 0)
(-0.0160464 0.00987327 0)
(-0.0157999 0.00713615 0)
(-0.015405 0.00503132 0)
(-0.0150267 0.00337092 0)
(-0.0147492 0.00200038 0)
(-0.0146133 0.000795019 0)
(-0.0146379 -0.000350486 0)
(-0.0148301 -0.00153648 0)
(-0.0151866 -0.00287192 0)
(-0.0156848 -0.0044888 0)
(-0.016263 -0.00655998 0)
(-0.0167814 -0.00931372 0)
(-0.0169574 -0.0130436 0)
(-0.0159498 -0.0181173 0)
(-0.0140018 -0.0238372 0)
(-0.00654132 -0.0308095 0)
(-0.0112274 0.0338886 0)
(-0.0211502 0.025803 0)
(-0.0202321 0.0192857 0)
(-0.0203748 0.013454 0)
(-0.0193132 0.00932909 0)
(-0.0181401 0.00644377 0)
(-0.0171003 0.00439616 0)
(-0.0162999 0.00288677 0)
(-0.0157668 0.00170691 0)
(-0.0155034 0.000709091 0)
(-0.0155103 -0.00022074 0)
(-0.0157959 -0.00118305 0)
(-0.0163761 -0.00229082 0)
(-0.0172719 -0.0036903 0)
(-0.0184943 -0.00559455 0)
(-0.020009 -0.00832781 0)
(-0.0216945 -0.01235 0)
(-0.0221715 -0.0185661 0)
(-0.0238626 -0.0252464 0)
(-0.0127161 -0.0395643 0)
(-0.0174455 0.073749 0)
(-0.0268584 0.0309978 0)
(-0.0219424 0.0204204 0)
(-0.0199057 0.0120886 0)
(-0.0166664 0.00741554 0)
(-0.0140799 0.00475875 0)
(-0.012153 0.00310062 0)
(-0.0108048 0.00198504 0)
(-0.00994166 0.00116906 0)
(-0.00949514 0.000509209 0)
(-0.00942757 -9.14036e-05 0)
(-0.0097371 -0.000715117 0)
(-0.0104558 -0.00145403 0)
(-0.0116455 -0.00245515 0)
(-0.0133912 -0.00398788 0)
(-0.0157333 -0.00660545 0)
(-0.0188454 -0.0113442 0)
(-0.0194624 -0.0209596 0)
(-0.0267681 -0.0345288 0)
(-0.0101198 -0.0812687 0)
(0.0835939 0.0598149 0)
(0.0768916 0.0215008 0)
(0.115546 0.0121597 0)
(0.124295 0.00640806 0)
(0.131331 0.00345606 0)
(0.135852 0.00202234 0)
(0.138643 0.00124628 0)
(0.14042 0.000779446 0)
(0.141519 0.000466292 0)
(0.142113 0.000229203 0)
(0.142282 2.4486e-05 0)
(0.142043 -0.000183328 0)
(0.141349 -0.000428213 0)
(0.140059 -0.000773449 0)
(0.137858 -0.00135137 0)
(0.134273 -0.00248175 0)
(0.126998 -0.00479105 0)
(0.122092 -0.0105859 0)
(0.0790708 -0.0188925 0)
(0.0891477 -0.0573842 0)
)
;

boundaryField
{
    movingWall
    {
        type            fixedValue;
        value           uniform (1 0 0);
    }
    fixedWalls
    {
        type            noSlip;
    }
    frontAndBack
    {
        type            empty;
    }
}


// ************************************************************************* //
