/*--------------------------------*- C++ -*----------------------------------*\
  =========                 |
  \\      /  F ield         | OpenFOAM: The Open Source CFD Toolbox
   \\    /   O peration     | Website:  https://openfoam.org
    \\  /    A nd           | Version:  10
     \\/     M anipulation  |
\*---------------------------------------------------------------------------*/
FoamFile
{
    format      ascii;
    class       volVectorField;
    location    "0.75";
    object      U;
}
// * * * * * * * * * * * * * * * * * * * * * * * * * * * * * * * * * * * * * //

dimensions      [0 1 -1 0 0 0 0];

internalField   nonuniform List<vector> 
400
(
(-0.000265529 0.000261571 0)
(-0.000846307 0.000296909 0)
(-0.00145732 0.000284386 0)
(-0.0020259 0.000262671 0)
(-0.00254211 0.000234396 0)
(-0.00299356 0.000200461 0)
(-0.00336946 0.0001618 0)
(-0.00366108 0.000119385 0)
(-0.00386174 7.41957e-05 0)
(-0.00396675 2.72117e-05 0)
(-0.00397344 -2.05894e-05 0)
(-0.00388118 -6.82039e-05 0)
(-0.00369141 -0.0001146 0)
(-0.00340772 -0.000158696 0)
(-0.00303599 -0.000199361 0)
(-0.00258448 -0.000235432 0)
(-0.00206392 -0.000265763 0)
(-0.00148708 -0.000289229 0)
(-0.000864854 -0.000302934 0)
(-0.000271705 -0.000267522 0)
(-0.000314653 0.000852881 0)
(-0.000998981 0.000963689 0)
(-0.0017155 0.000922818 0)
(-0.0023821 0.000852089 0)
(-0.00298691 0.000760022 0)
(-0.00351539 0.000649651 0)
(-0.00395505 0.000524064 0)
(-0.00429583 0.000386439 0)
(-0.0045301 0.000239955 0)
(-0.00465254 8.77562e-05 0)
(-0.00466015 -6.70262e-05 0)
(-0.00455218 -0.000221201 0)
(-0.00433029 -0.000371478 0)
(-0.00399856 -0.000514393 0)
(-0.00356371 -0.000646296 0)
(-0.00303522 -0.000763416 0)
(-0.00242549 -0.00086199 0)
(-0.0017495 -0.000938268 0)
(-0.00102019 -0.000982873 0)
(-0.000321717 -0.000871826 0)
(-0.000331864 0.00152099 0)
(-0.00105366 0.00171345 0)
(-0.00180895 0.00164016 0)
(-0.00251072 0.00151379 0)
(-0.00314664 0.00134951 0)
(-0.00370159 0.00115291 0)
(-0.00416276 0.000929578 0)
(-0.00452 0.000685215 0)
(-0.00476567 0.000425429 0)
(-0.00489448 0.000155711 0)
(-0.00490337 -0.000118515 0)
(-0.00479153 -0.000391752 0)
(-0.00456041 -0.0006583 0)
(-0.00421388 -0.000912111 0)
(-0.00375847 -0.00114675 0)
(-0.00320365 -0.00135549 0)
(-0.00256207 -0.00153152 0)
(-0.00184926 -0.00166793 0)
(-0.00107883 -0.00174801 0)
(-0.000340246 -0.00155515 0)
(-0.000355948 0.00222189 0)
(-0.00112992 0.00250021 0)
(-0.00193902 0.00239195 0)
(-0.00268946 0.00220623 0)
(-0.00336808 0.00196539 0)
(-0.00395906 0.00167792 0)
(-0.00444931 0.00135219 0)
(-0.00482872 0.000996538 0)
(-0.00508979 0.000619053 0)
(-0.00522737 0.000227498 0)
(-0.00523842 -0.000170545 0)
(-0.00512196 -0.000567425 0)
(-0.00487909 -0.000955159 0)
(-0.00451321 -0.00132518 0)
(-0.00403039 -0.0016682 0)
(-0.00343983 -0.00197431 0)
(-0.00275431 -0.00223329 0)
(-0.00199009 -0.00243463 0)
(-0.00116187 -0.00255348 0)
(-0.000366581 -0.00227461 0)
(-0.000389786 0.00298127 0)
(-0.00123678 0.00335208 0)
(-0.0021208 0.00320448 0)
(-0.00293856 0.00295281 0)
(-0.00367575 0.00262769 0)
(-0.0043157 0.00224113 0)
(-0.00484516 0.00180472 0)
(-0.00525423 0.00132974 0)
(-0.00553586 0.000826785 0)
(-0.00568525 0.000305779 0)
(-0.00569946 -0.000223764 0)
(-0.00557727 -0.000752304 0)
(-0.00531922 -0.00126981 0)
(-0.00492789 -0.00176529 0)
(-0.00440847 -0.00222652 0)
(-0.0037695 -0.00264007 0)
(-0.00302369 -0.00299167 0)
(-0.00218812 -0.00326632 0)
(-0.00127903 -0.00342961 0)
(-0.000403844 -0.00305818 0)
(-0.000434848 0.00382058 0)
(-0.00137877 0.00429242 0)
(-0.00236152 0.00409901 0)
(-0.00326712 0.00377185 0)
(-0.00407981 0.00335148 0)
(-0.00478206 0.00285439 0)
(-0.00536073 0.00229612 0)
(-0.0058067 0.00169119 0)
(-0.00611379 0.00105274 0)
(-0.00627795 0.000392638 0)
(-0.00629654 -0.000278073 0)
(-0.00616804 -0.000948442 0)
(-0.0058921 -0.0016068 0)
(-0.00546995 -0.00223998 0)
(-0.0049052 -0.00283279 0)
(-0.00420503 -0.00336782 0)
(-0.00338153 -0.00382586 0)
(-0.00245251 -0.00418608 0)
(-0.0014361 -0.00440235 0)
(-0.000453943 -0.00392993 0)
(-0.000493214 0.00476431 0)
(-0.00156212 0.00534773 0)
(-0.00267098 0.00509901 0)
(-0.00368717 0.00468283 0)
(-0.00459324 0.00415207 0)
(-0.00537107 0.00352919 0)
(-0.00600836 0.00283461 0)
(-0.00649762 0.00208653 0)
(-0.00683441 0.0013006 0)
(-0.00701606 0.000490177 0)
(-0.00704054 -0.000332845 0)
(-0.00690599 -0.00115691 0)
(-0.00661076 -0.00196942 0)
(-0.00615389 -0.00275557 0)
(-0.00553631 -0.00349728 0)
(-0.00476262 -0.00417269 0)
(-0.00384319 -0.00475643 0)
(-0.002796 -0.00521984 0)
(-0.00164136 -0.00550173 0)
(-0.00051966 -0.00491818 0)
(-0.000567967 0.005842 0)
(-0.00179598 0.00654937 0)
(-0.00306317 0.00623133 0)
(-0.00421539 0.00570699 0)
(-0.00523349 0.00504514 0)
(-0.00609952 0.00427639 0)
(-0.00680339 0.00342735 0)
(-0.00734071 0.00252037 0)
(-0.00771015 0.00157337 0)
(-0.0079114 0.000600443 0)
(-0.00794363 -0.000386764 0)
(-0.00780461 -0.00137739 0)
(-0.00749077 -0.00235913 0)
(-0.00699781 -0.00331649 0)
(-0.00632232 -0.00422892 0)
(-0.00546423 -0.00506969 0)
(-0.00443024 -0.00580573 0)
(-0.00323709 -0.00639763 0)
(-0.00190713 -0.00676416 0)
(-0.000605206 -0.00605797 0)
(-0.000663772 0.00709052 0)
(-0.00209388 0.00793552 0)
(-0.00355822 0.00752716 0)
(-0.00487499 0.00686727 0)
(-0.00602389 0.00604595 0)
(-0.00698886 0.00510512 0)
(-0.00776439 0.00407923 0)
(-0.0083516 0.00299523 0)
(-0.00875435 0.00187269 0)
(-0.0089762 0.000725205 0)
(-0.00901838 -0.000437548 0)
(-0.00887837 -0.00160738 0)
(-0.00854986 -0.00277429 0)
(-0.00802368 -0.00392373 0)
(-0.00728952 -0.00503373 0)
(-0.00633948 -0.00607255 0)
(-0.00517305 -0.00699761 0)
(-0.00380287 -0.00775472 0)
(-0.00225208 -0.00823499 0)
(-0.000717122 -0.00739444 0)
(-0.000787933 0.00855781 0)
(-0.00247639 0.00955402 0)
(-0.00418559 0.00902308 0)
(-0.00569853 0.00818793 0)
(-0.0069957 0.00716804 0)
(-0.00806625 0.00602099 0)
(-0.0089133 0.0047911 0)
(-0.00954726 0.00351001 0)
(-0.00998018 0.00219783 0)
(-0.0102216 0.000865554 0)
(-0.0102762 -0.000481664 0)
(-0.0101414 -0.00184115 0)
(-0.00980712 -0.00320833 0)
(-0.00925724 -0.00457246 0)
(-0.00847114 -0.00591218 0)
(-0.00742819 -0.00719144 0)
(-0.00611478 -0.00835642 0)
(-0.00453374 -0.00933276 0)
(-0.00270539 -0.00997243 0)
(-0.000865978 -0.00898846 0)
(-0.000952422 0.0103092 0)
(-0.00297586 0.0114666 0)
(-0.00498928 0.0107623 0)
(-0.00673233 0.00969334 0)
(-0.00819091 0.00842055 0)
(-0.00936582 0.00702297 0)
(-0.0102754 0.00555672 0)
(-0.0109449 0.00405763 0)
(-0.0113988 0.00254409 0)
(-0.0116557 0.00102126 0)
(-0.0117251 -0.000514065 0)
(-0.011605 -0.00206859 0)
(-0.0112812 -0.00364746 0)
(-0.0107275 -0.00524837 0)
(-0.00990849 -0.00685484 0)
(-0.00878383 -0.00842881 0)
(-0.0073173 -0.00990436 0)
(-0.0054912 -0.0111806 0)
(-0.00331435 -0.0120532 0)
(-0.00106979 -0.0109263 0)
(-0.00117798 0.0124383 0)
(-0.0036451 0.0137546 0)
(-0.00603648 0.0127955 0)
(-0.00804302 0.0114049 0)
(-0.00966616 0.0098035 0)
(-0.0109301 0.00809825 0)
(-0.0118787 0.0063586 0)
(-0.0125599 0.00462215 0)
(-0.0130166 0.00290111 0)
(-0.0132798 0.00118993 0)
(-0.0133661 -0.000527945 0)
(-0.0132748 -0.00227374 0)
(-0.0129869 -0.00406797 0)
(-0.0124646 -0.00592327 0)
(-0.0116516 -0.00783547 0)
(-0.0104778 -0.00977158 0)
(-0.00887022 -0.0116554 0)
(-0.00677099 -0.0133537 0)
(-0.00415896 -0.0145799 0)
(-0.00136126 -0.0133377 0)
(-0.00150293 0.0150885 0)
(-0.00457403 0.0165267 0)
(-0.00743169 0.0151797 0)
(-0.00972751 0.0133345 0)
(-0.0114977 0.011299 0)
(-0.0128108 0.00921497 0)
(-0.0137515 0.00716308 0)
(-0.0144024 0.00517539 0)
(-0.0148311 0.0032506 0)
(-0.0150848 0.00136591 0)
(-0.0151888 -0.000514598 0)
(-0.0151451 -0.00243302 0)
(-0.0149307 -0.00443237 0)
(-0.014495 -0.006549 0)
(-0.0137568 -0.00880222 0)
(-0.0126039 -0.0111778 0)
(-0.010904 -0.0136022 0)
(-0.00852454 -0.0159085 0)
(-0.0053812 -0.0176857 0)
(-0.00180452 -0.0164346 0)
(-0.00200414 0.0184903 0)
(-0.00592357 0.0199217 0)
(-0.00933951 0.0179723 0)
(-0.0119275 0.0154698 0)
(-0.0137859 0.0128577 0)
(-0.0150661 0.0103125 0)
(-0.0159183 0.00791268 0)
(-0.0164724 0.0056715 0)
(-0.0168261 0.00356308 0)
(-0.017045 0.00153868 0)
(-0.017165 -0.000463807 0)
(-0.0171926 -0.00251401 0)
(-0.0171029 -0.00468525 0)
(-0.0168345 -0.00704884 0)
(-0.0162803 -0.00966392 0)
(-0.0152779 -0.0125575 0)
(-0.0136066 -0.0156883 0)
(-0.0109907 -0.0188847 0)
(-0.00724974 -0.0215322 0)
(-0.00254209 -0.0205916 0)
(-0.00284585 0.0231406 0)
(-0.00799237 0.024129 0)
(-0.0120163 0.0212132 0)
(-0.0148468 0.0177462 0)
(-0.0166553 0.0143783 0)
(-0.0177559 0.0112851 0)
(-0.0183926 0.00851561 0)
(-0.018752 0.00604113 0)
(-0.0189639 0.00379455 0)
(-0.0191117 0.00169078 0)
(-0.0192415 -0.000365133 0)
(-0.0193665 -0.00247556 0)
(-0.0194656 -0.00475086 0)
(-0.0194737 -0.00730909 0)
(-0.0192654 -0.0102708 0)
(-0.0186283 -0.0137406 0)
(-0.0172379 -0.017762 0)
(-0.0145435 -0.0222472 0)
(-0.0102983 -0.0262759 0)
(-0.00390712 -0.026489 0)
(-0.00447867 0.0288933 0)
(-0.0114715 0.0291263 0)
(-0.01588 0.0248331 0)
(-0.0187685 0.0199976 0)
(-0.0202471 0.0156698 0)
(-0.0209284 0.0119599 0)
(-0.0211617 0.00883552 0)
(-0.0211927 0.00618754 0)
(-0.0211756 0.0038858 0)
(-0.0212038 0.0017968 0)
(-0.0213303 -0.000210616 0)
(-0.0215772 -0.00227217 0)
(-0.0219352 -0.00453531 0)
(-0.0223531 -0.00717385 0)
(-0.0227102 -0.0103935 0)
(-0.0227673 -0.0144258 0)
(-0.0221182 -0.0194967 0)
(-0.0197377 -0.0258289 0)
(-0.015598 -0.0319566 0)
(-0.00666703 -0.0352558 0)
(-0.00692179 0.0417306 0)
(-0.0166229 0.0360442 0)
(-0.0213243 0.029002 0)
(-0.0240105 0.0219821 0)
(-0.0246774 0.016419 0)
(-0.0245694 0.0120715 0)
(-0.0241404 0.00868119 0)
(-0.0236743 0.00598679 0)
(-0.0233249 0.00376283 0)
(-0.0231762 0.00182008 0)
(-0.0232765 -6.04748e-06 0)
(-0.0236551 -0.00186539 0)
(-0.0243285 -0.00394332 0)
(-0.0252897 -0.00646436 0)
(-0.0264697 -0.00974082 0)
(-0.0276751 -0.01423 0)
(-0.0285734 -0.020531 0)
(-0.0272454 -0.0297097 0)
(-0.0249404 -0.0394002 0)
(-0.0122304 -0.0508612 0)
(-0.016076 0.0469695 0)
(-0.0306017 0.0411946 0)
(-0.0298318 0.031696 0)
(-0.0309306 0.0226871 0)
(-0.029586 0.0160733 0)
(-0.027998 0.0113083 0)
(-0.0265091 0.00788047 0)
(-0.0253232 0.00534511 0)
(-0.0245151 0.00337864 0)
(-0.0241124 0.00174688 0)
(-0.0241245 0.000267075 0)
(-0.0245911 -0.00122585 0)
(-0.0255723 -0.00289329 0)
(-0.027137 -0.00496494 0)
(-0.0293855 -0.00776903 0)
(-0.0323408 -0.0118566 0)
(-0.0361509 -0.017836 0)
(-0.0371975 -0.0289873 0)
(-0.0409755 -0.0395513 0)
(-0.0210157 -0.0689517 0)
(-0.0300878 0.103628 0)
(-0.0374378 0.0459831 0)
(-0.0309458 0.0322895 0)
(-0.0269389 0.0200685 0)
(-0.0213232 0.0127026 0)
(-0.0169055 0.00842862 0)
(-0.0135562 0.00567542 0)
(-0.011167 0.00378558 0)
(-0.00957819 0.00241035 0)
(-0.008672 0.00132891 0)
(-0.00838544 0.000388734 0)
(-0.00869593 -0.00054725 0)
(-0.00963676 -0.00161185 0)
(-0.0112919 -0.003033 0)
(-0.0137768 -0.00524951 0)
(-0.0168152 -0.00933797 0)
(-0.0223855 -0.0168237 0)
(-0.0206499 -0.0340063 0)
(-0.0361674 -0.0593385 0)
(-0.00577515 -0.132449 0)
(0.112503 0.0917459 0)
(0.114188 0.0375904 0)
(0.169958 0.0217876 0)
(0.186733 0.0122854 0)
(0.198302 0.00680905 0)
(0.206255 0.00405385 0)
(0.211323 0.00256032 0)
(0.214645 0.00166336 0)
(0.216828 0.00107797 0)
(0.218172 0.000660375 0)
(0.21884 0.000330466 0)
(0.218889 3.89639e-05 0)
(0.218287 -0.000277735 0)
(0.2169 -0.000702277 0)
(0.214051 -0.00140404 0)
(0.210081 -0.00302905 0)
(0.197458 -0.00619125 0)
(0.194713 -0.0152773 0)
(0.125044 -0.0290954 0)
(0.131893 -0.0848585 0)
)
;

boundaryField
{
    movingWall
    {
        type            fixedValue;
        value           uniform (1 0 0);
    }
    fixedWalls
    {
        type            noSlip;
    }
    frontAndBack
    {
        type            empty;
    }
}


// ************************************************************************* //
