/*--------------------------------*- C++ -*----------------------------------*\
  =========                 |
  \\      /  F ield         | OpenFOAM: The Open Source CFD Toolbox
   \\    /   O peration     | Website:  https://openfoam.org
    \\  /    A nd           | Version:  10
     \\/     M anipulation  |
\*---------------------------------------------------------------------------*/
FoamFile
{
    format      ascii;
    class       volVectorField;
    location    "8.7";
    object      U;
}
// * * * * * * * * * * * * * * * * * * * * * * * * * * * * * * * * * * * * * //

dimensions      [0 1 -1 0 0 0 0];

internalField   nonuniform List<vector> 
400
(
(-0.000160752 0.000141332 0)
(-0.00120015 0.000445149 0)
(-0.00295788 0.000555819 0)
(-0.00476367 0.000592962 0)
(-0.00663615 0.000613399 0)
(-0.00853716 0.000635235 0)
(-0.0104535 0.000657674 0)
(-0.0123626 0.000672939 0)
(-0.0142181 0.000669906 0)
(-0.0159441 0.000634156 0)
(-0.0174289 0.000548277 0)
(-0.0185196 0.000393785 0)
(-0.0190256 0.000156083 0)
(-0.018728 -0.000180963 0)
(-0.0174199 -0.000599523 0)
(-0.0149751 -0.00104826 0)
(-0.0114609 -0.00142223 0)
(-0.00729773 -0.00157061 0)
(-0.00284895 -0.00132379 0)
(-0.000281808 -0.000439245 0)
(-0.000519475 0.0012243 0)
(-0.00270454 0.00254865 0)
(-0.00605384 0.00304563 0)
(-0.00949337 0.00321295 0)
(-0.0130208 0.00327257 0)
(-0.0165476 0.00329709 0)
(-0.020023 0.00328692 0)
(-0.0233863 0.00321352 0)
(-0.0265436 0.00303404 0)
(-0.0293594 0.00269437 0)
(-0.0316479 0.00213266 0)
(-0.0331684 0.00128518 0)
(-0.0336457 9.86572e-05 0)
(-0.0327664 -0.00143409 0)
(-0.0302373 -0.00323208 0)
(-0.0259019 -0.00508068 0)
(-0.0198915 -0.00657825 0)
(-0.0128478 -0.00714837 0)
(-0.00537131 -0.00615076 0)
(-0.000781125 -0.00264826 0)
(-0.000680219 0.00317549 0)
(-0.00340606 0.00598937 0)
(-0.0075024 0.00703914 0)
(-0.0116789 0.00737675 0)
(-0.0159348 0.00745637 0)
(-0.0201632 0.00742684 0)
(-0.0243035 0.00729416 0)
(-0.0282872 0.00700599 0)
(-0.032012 0.00648068 0)
(-0.0353314 0.00561469 0)
(-0.0380452 0.00428986 0)
(-0.0398946 0.0023875 0)
(-0.0405528 -0.000186733 0)
(-0.0396341 -0.00344118 0)
(-0.0367548 -0.0072266 0)
(-0.0316429 -0.0111168 0)
(-0.0243595 -0.0142955 0)
(-0.015656 -0.0155208 0)
(-0.00633706 -0.0134177 0)
(-0.000804987 -0.00610665 0)
(-0.000733289 0.00526709 0)
(-0.00368603 0.00968204 0)
(-0.00811432 0.0113001 0)
(-0.0126128 0.0117959 0)
(-0.0171956 0.011884 0)
(-0.0217584 0.0117961 0)
(-0.0262516 0.0115458 0)
(-0.0306212 0.0110595 0)
(-0.0347824 0.0102186 0)
(-0.0386053 0.00886821 0)
(-0.0418971 0.00682401 0)
(-0.0443871 0.00389222 0)
(-0.0457111 -8.80854e-05 0)
(-0.0453822 -0.00517664 0)
(-0.0428207 -0.0112212 0)
(-0.0374829 -0.0176033 0)
(-0.0291524 -0.0230054 0)
(-0.0185976 -0.0252232 0)
(-0.00695522 -0.0216932 0)
(-0.000535608 -0.00956874 0)
(-0.000735938 0.00744887 0)
(-0.00376628 0.0135556 0)
(-0.00833791 0.0157712 0)
(-0.0129859 0.0164389 0)
(-0.0177424 0.0165551 0)
(-0.0225173 0.0164432 0)
(-0.0272862 0.01613 0)
(-0.0320268 0.015525 0)
(-0.0366915 0.0144745 0)
(-0.0411905 0.0127692 0)
(-0.0453633 0.0101446 0)
(-0.0489425 0.00629384 0)
(-0.0515105 0.000920397 0)
(-0.0524677 -0.00616599 0)
(-0.0509622 -0.0149207 0)
(-0.0459676 -0.0246188 0)
(-0.0366542 -0.033351 0)
(-0.0234264 -0.0374222 0)
(-0.00785026 -0.0319372 0)
(1.93343e-05 -0.0131458 0)
(-0.000716947 0.00964015 0)
(-0.00375857 0.0174987 0)
(-0.00839194 0.0203429 0)
(-0.0131194 0.0212075 0)
(-0.0179901 0.0213904 0)
(-0.0229353 0.0213183 0)
(-0.0279658 0.0210406 0)
(-0.0331052 0.020458 0)
(-0.038364 0.0193888 0)
(-0.0437203 0.0175705 0)
(-0.0490854 0.0146469 0)
(-0.0542416 0.0101636 0)
(-0.0587678 0.00360319 0)
(-0.0619855 -0.00551904 0)
(-0.0627512 -0.0174438 0)
(-0.0593356 -0.031625 0)
(-0.0496445 -0.0456843 0)
(-0.0326166 -0.0536891 0)
(-0.0100675 -0.0455994 0)
(0.000885156 -0.016883 0)
(-0.000686484 0.0118015 0)
(-0.00370643 0.0214552 0)
(-0.00836024 0.0249592 0)
(-0.0131268 0.0260502 0)
(-0.0180707 0.0263462 0)
(-0.0231475 0.0263921 0)
(-0.0284102 0.0262735 0)
(-0.0339421 0.025898 0)
(-0.0398334 0.0250717 0)
(-0.0461676 0.0234912 0)
(-0.0529866 0.0207119 0)
(-0.0602204 0.0161116 0)
(-0.067594 0.00887764 0)
(-0.0745188 -0.00191787 0)
(-0.0797251 -0.0170875 0)
(-0.0805699 -0.037098 0)
(-0.0724094 -0.0599074 0)
(-0.0504718 -0.0765285 0)
(-0.0167226 -0.0657722 0)
(0.00162145 -0.0218336 0)
(-0.000646827 0.0139116 0)
(-0.00362252 0.0253957 0)
(-0.0082656 0.0295866 0)
(-0.01303 0.0309273 0)
(-0.0179923 0.0313771 0)
(-0.0231317 0.0316167 0)
(-0.0285462 0.0317861 0)
(-0.0343879 0.0318235 0)
(-0.0408488 0.0315539 0)
(-0.04816 0.0306725 0)
(-0.0565754 0.0286888 0)
(-0.0663297 0.0248536 0)
(-0.07755 0.0180899 0)
(-0.0901056 0.00690822 0)
(-0.103157 -0.0108108 0)
(-0.112613 -0.0378508 0)
(-0.108699 -0.075054 0)
(-0.0810701 -0.108856 0)
(-0.0346784 -0.0979954 0)
(9.084e-05 -0.0317533 0)
(-0.000599423 0.0159524 0)
(-0.00351355 0.0292954 0)
(-0.00811635 0.0341888 0)
(-0.0128264 0.035785 0)
(-0.0177277 0.0364079 0)
(-0.0228179 0.0368948 0)
(-0.0282359 0.0374625 0)
(-0.0342013 0.0381096 0)
(-0.0410147 0.0387261 0)
(-0.0490853 0.0390782 0)
(-0.0589588 0.0387429 0)
(-0.0713486 0.0370212 0)
(-0.0872005 0.0328127 0)
(-0.107558 0.024079 0)
(-0.131781 0.00611663 0)
(-0.152758 -0.0298875 0)
(-0.153499 -0.0902291 0)
(-0.122018 -0.151252 0)
(-0.0709682 -0.147094 0)
(-0.00865284 -0.0550687 0)
(-0.000548922 0.0179115 0)
(-0.00339507 0.0331342 0)
(-0.00793355 0.0387247 0)
(-0.0125277 0.0405514 0)
(-0.017264 0.0413285 0)
(-0.0221489 0.042072 0)
(-0.0273497 0.0430982 0)
(-0.0331378 0.0445003 0)
(-0.0399041 0.0462906 0)
(-0.0482203 0.0484067 0)
(-0.0589306 0.0506746 0)
(-0.0732849 0.0527399 0)
(-0.0931783 0.0537854 0)
(-0.12096 0.0509187 0)
(-0.155655 0.0342476 0)
(-0.184671 -0.0146679 0)
(-0.187032 -0.106141 0)
(-0.159996 -0.196866 0)
(-0.116658 -0.20986 0)
(-0.027879 -0.105863 0)
(-0.000506019 0.0197913 0)
(-0.00330114 0.0369037 0)
(-0.00776808 0.0431487 0)
(-0.0121836 0.0451336 0)
(-0.0166353 0.0459897 0)
(-0.0211241 0.0469303 0)
(-0.0258241 0.0483864 0)
(-0.0310225 0.0505716 0)
(-0.0371432 0.0536724 0)
(-0.044833 0.0579012 0)
(-0.055102 0.0635275 0)
(-0.0694894 0.0707976 0)
(-0.0902141 0.0790801 0)
(-0.119877 0.0832856 0)
(-0.155587 0.0661952 0)
(-0.183026 0.00216626 0)
(-0.185011 -0.115863 0)
(-0.168296 -0.232634 0)
(-0.139084 -0.281405 0)
(-0.0466331 -0.19926 0)
(-0.000493238 0.02163 0)
(-0.00330075 0.0406479 0)
(-0.00772175 0.047471 0)
(-0.0119024 0.0494875 0)
(-0.0159458 0.0502731 0)
(-0.0198355 0.0512562 0)
(-0.0237276 0.052988 0)
(-0.0278735 0.0558041 0)
(-0.0326345 0.06008 0)
(-0.0385558 0.0663378 0)
(-0.0464796 0.075329 0)
(-0.0576006 0.0878008 0)
(-0.0732029 0.102672 0)
(-0.0949077 0.111604 0)
(-0.119148 0.092054 0)
(-0.136485 0.0161661 0)
(-0.138912 -0.114531 0)
(-0.133027 -0.250506 0)
(-0.124523 -0.340862 0)
(-0.0479444 -0.306067 0)
(-0.000541482 0.0234792 0)
(-0.00347833 0.0443276 0)
(-0.00793098 0.0515042 0)
(-0.011858 0.0533241 0)
(-0.0153975 0.0538405 0)
(-0.0185029 0.0546603 0)
(-0.0213027 0.0564068 0)
(-0.0239672 0.0595001 0)
(-0.026699 0.064436 0)
(-0.0297672 0.0719154 0)
(-0.0335314 0.0829108 0)
(-0.0383544 0.0981972 0)
(-0.0442238 0.116108 0)
(-0.0518346 0.126203 0)
(-0.0599346 0.105269 0)
(-0.0646993 0.0248946 0)
(-0.0688094 -0.104832 0)
(-0.0731691 -0.244852 0)
(-0.091717 -0.364581 0)
(-0.0348272 -0.382263 0)
(-0.000756642 0.0256631 0)
(-0.00412276 0.0485725 0)
(-0.00872286 0.0560282 0)
(-0.0122984 0.0574382 0)
(-0.0151872 0.057304 0)
(-0.017366 0.057498 0)
(-0.0189101 0.0587339 0)
(-0.019874 0.061472 0)
(-0.0202791 0.0662236 0)
(-0.0200745 0.0736711 0)
(-0.019125 0.084708 0)
(-0.0169274 0.0997888 0)
(-0.0127517 0.117187 0)
(-0.00614469 0.12649 0)
(2.32079e-05 0.106475 0)
(0.0055899 0.0289826 0)
(-0.00428063 -0.0917105 0)
(-0.0198616 -0.222492 0)
(-0.062919 -0.364824 0)
(-0.0213223 -0.434667 0)
(-0.00110067 0.0283538 0)
(-0.00492536 0.0520405 0)
(-0.0100067 0.0587451 0)
(-0.0134955 0.0590131 0)
(-0.0159207 0.0581248 0)
(-0.0171571 0.0577944 0)
(-0.0173462 0.0585622 0)
(-0.0165071 0.0607403 0)
(-0.0145399 0.0647312 0)
(-0.011146 0.0710581 0)
(-0.00591543 0.0803235 0)
(0.0022743 0.0926518 0)
(0.0141963 0.106503 0)
(0.0309453 0.113281 0)
(0.0456711 0.0960428 0)
(0.0578094 0.0299519 0)
(0.0431663 -0.0744544 0)
(0.0229781 -0.188223 0)
(-0.0409253 -0.349443 0)
(-0.00984471 -0.47008 0)
(-0.00318334 0.0305639 0)
(-0.00937002 0.0591463 0)
(-0.0137598 0.0657314 0)
(-0.0161637 0.0653668 0)
(-0.0171711 0.0627015 0)
(-0.0171308 0.060496 0)
(-0.0160356 0.0594087 0)
(-0.0137233 0.0597454 0)
(-0.00990693 0.061778 0)
(-0.00413054 0.0657785 0)
(0.00415916 0.0720936 0)
(0.016234 0.0805058 0)
(0.0321504 0.0895787 0)
(0.0534302 0.0930078 0)
(0.0715961 0.0796934 0)
(0.0879331 0.0307084 0)
(0.0708706 -0.050833 0)
(0.0506741 -0.145345 0)
(-0.0265244 -0.326456 0)
(0.00271921 -0.492439 0)
(-0.000953921 0.0439773 0)
(-0.00765629 0.0605933 0)
(-0.0170755 0.0629335 0)
(-0.0194862 0.0590503 0)
(-0.0208293 0.0559888 0)
(-0.0199995 0.0539767 0)
(-0.0177292 0.052965 0)
(-0.0138919 0.0528576 0)
(-0.00830008 0.0537759 0)
(-0.000443715 0.0557861 0)
(0.0101268 0.059294 0)
(0.0244724 0.0638851 0)
(0.041945 0.0685296 0)
(0.0648299 0.0692143 0)
(0.082752 0.0595011 0)
(0.101351 0.0272159 0)
(0.0829599 -0.0308199 0)
(0.0667821 -0.10545 0)
(-0.00934314 -0.303047 0)
(0.0216469 -0.502215 0)
(-0.0125622 0.0322296 0)
(-0.0232366 0.0803989 0)
(-0.0211668 0.0804372 0)
(-0.0254593 0.0754715 0)
(-0.0253251 0.0680642 0)
(-0.0233757 0.0619564 0)
(-0.0193347 0.0570905 0)
(-0.0133833 0.0533816 0)
(-0.00559304 0.050841 0)
(0.0044986 0.0492551 0)
(0.0168453 0.0488752 0)
(0.0323217 0.0491722 0)
(0.0494077 0.0504291 0)
(0.0714218 0.0496859 0)
(0.0861052 0.0452078 0)
(0.106561 0.0289915 0)
(0.0929318 -0.00596767 0)
(0.100763 -0.0653009 0)
(0.0399689 -0.274125 0)
(0.0575616 -0.489838 0)
(-0.0776511 0.0958789 0)
(-0.0632532 0.0587822 0)
(-0.0652681 0.0599761 0)
(-0.0427641 0.0533468 0)
(-0.0249939 0.0463765 0)
(-0.00437449 0.0412109 0)
(0.0150937 0.0374479 0)
(0.0349434 0.0342587 0)
(0.0533732 0.0319549 0)
(0.0734341 0.029882 0)
(0.0909361 0.0287302 0)
(0.11329 0.0276694 0)
(0.129062 0.0270512 0)
(0.15805 0.0260288 0)
(0.167985 0.0207685 0)
(0.202999 0.0119139 0)
(0.191687 -0.0212843 0)
(0.223065 -0.0741937 0)
(0.154266 -0.251837 0)
(0.124941 -0.433411 0)
(0.119383 0.14076 0)
(0.151981 0.0860685 0)
(0.228415 0.0634947 0)
(0.283881 0.0480401 0)
(0.325306 0.0374126 0)
(0.363622 0.0296569 0)
(0.392344 0.0242303 0)
(0.42356 0.0201807 0)
(0.443512 0.0172882 0)
(0.472101 0.0149851 0)
(0.484939 0.0132872 0)
(0.514335 0.0119686 0)
(0.519859 0.0108429 0)
(0.552153 0.00963151 0)
(0.547207 0.00761999 0)
(0.579362 0.00319051 0)
(0.547955 -0.0058468 0)
(0.553526 -0.0271142 0)
(0.41995 -0.0731909 0)
(0.275206 -0.151931 0)
)
;

boundaryField
{
    movingWall
    {
        type            fixedValue;
        value           uniform (1 0 0);
    }
    fixedWalls
    {
        type            noSlip;
    }
    frontAndBack
    {
        type            empty;
    }
}


// ************************************************************************* //
