/*--------------------------------*- C++ -*----------------------------------*\
  =========                 |
  \\      /  F ield         | OpenFOAM: The Open Source CFD Toolbox
   \\    /   O peration     | Website:  https://openfoam.org
    \\  /    A nd           | Version:  10
     \\/     M anipulation  |
\*---------------------------------------------------------------------------*/
FoamFile
{
    format      ascii;
    class       surfaceScalarField;
    location    "1.175";
    object      phi;
}
// * * * * * * * * * * * * * * * * * * * * * * * * * * * * * * * * * * * * * //

dimensions      [0 3 -1 0 0 0 0];

internalField   nonuniform List<scalar> 
760
(
-1.3401e-05
1.3401e-05
-2.99162e-05
1.65152e-05
-4.59241e-05
1.60079e-05
-6.07756e-05
1.48515e-05
-7.40924e-05
1.33168e-05
-8.55514e-05
1.1459e-05
-9.48773e-05
9.32596e-06
-0.000101845
6.9676e-06
-0.00010628
4.43499e-06
-0.00010806
1.78008e-06
-0.000107116
-9.43681e-07
-0.000103436
-3.68004e-06
-9.70678e-05
-6.36849e-06
-8.81241e-05
-8.94373e-06
-7.67889e-05
-1.13351e-05
-6.33208e-05
-1.34682e-05
-4.8054e-05
-1.52667e-05
-3.14089e-05
-1.66451e-05
-1.41169e-05
-1.7292e-05
-1.41169e-05
-1.7162e-05
3.0563e-05
-3.78832e-05
3.72364e-05
-5.79452e-05
3.60699e-05
-7.65443e-05
3.34506e-05
-9.32023e-05
2.99747e-05
-0.000107516
2.57724e-05
-0.000119145
2.09552e-05
-0.000127815
1.56375e-05
-0.000133315
9.93495e-06
-0.000135498
3.96347e-06
-0.000134286
-2.15577e-06
-0.000129663
-8.30296e-06
-0.000121691
-1.43407e-05
-0.000110509
-2.01257e-05
-9.63434e-05
-2.55008e-05
-7.95127e-05
-3.02988e-05
-6.04321e-05
-3.43473e-05
-3.9628e-05
-3.74492e-05
-1.80004e-05
-3.89197e-05
-3.21173e-05
-1.821e-05
4.8773e-05
-4.01911e-05
5.92175e-05
-6.14477e-05
5.73265e-05
-8.11348e-05
5.31377e-05
-9.87512e-05
4.75911e-05
-0.000113878
4.08991e-05
-0.000126166
3.32429e-05
-0.000135334
2.48058e-05
-0.000141169
1.57699e-05
-0.000143522
6.31693e-06
-0.000142301
-3.37717e-06
-0.000137491
-1.31127e-05
-0.000129143
-2.26893e-05
-0.000117386
-3.18826e-05
-0.000102441
-4.0445e-05
-8.46311e-05
-4.81091e-05
-6.43839e-05
-5.45945e-05
-4.22546e-05
-5.95785e-05
-1.92018e-05
-6.19724e-05
-5.13191e-05
-1.94755e-05
6.82486e-05
-4.29879e-05
8.27299e-05
-6.5699e-05
8.00376e-05
-8.67043e-05
7.41429e-05
-0.000105475
6.6362e-05
-0.000121578
5.70017e-05
-0.000134657
4.63224e-05
-0.000144432
3.45809e-05
-0.00015069
2.20271e-05
-0.000153277
8.90438e-06
-0.000152097
-4.55694e-06
-0.000147118
-1.80921e-05
-0.000138371
-3.14357e-05
-0.000125968
-4.42863e-05
-0.00011011
-5.63028e-05
-9.1112e-05
-6.71071e-05
-6.94133e-05
-7.62932e-05
-4.56054e-05
-8.33864e-05
-2.07357e-05
-8.68421e-05
-7.20548e-05
-2.12434e-05
8.9492e-05
-4.68804e-05
0.000108367
-7.16017e-05
0.000104759
-9.44175e-05
9.69588e-05
-0.000114762
8.6707e-05
-0.000132187
7.44258e-05
-0.000146333
6.04685e-05
-0.000156925
4.5173e-05
-0.000163755
2.8857e-05
-0.000166671
1.18205e-05
-0.000165567
-5.66055e-06
-0.000160388
-2.32713e-05
-0.000151137
-4.06865e-05
-0.000137888
-5.75352e-05
-0.000120811
-7.33803e-05
-0.000100198
-8.77199e-05
-7.64956e-05
-9.99955e-05
-5.03425e-05
-0.000109539
-2.29143e-05
-0.00011427
-9.49691e-05
-2.35929e-05
0.000113085
-5.20393e-05
0.000136813
-7.93993e-05
0.000132119
-0.000104569
0.000122129
-0.000126939
0.000109077
-0.000146045
9.35321e-05
-0.000161538
7.59617e-05
-0.00017316
5.67941e-05
-0.000180717
3.64142e-05
-0.000184066
1.51695e-05
-0.000183092
-6.63421e-06
-0.000177707
-2.86559e-05
-0.000167872
-5.05217e-05
-0.000153601
-7.18065e-05
-0.000135003
-9.19785e-05
-0.000112326
-0.000110397
-8.60076e-05
-0.000126314
-5.67387e-05
-0.000138808
-2.5869e-05
-0.00014514
-0.000120838
-2.66201e-05
0.000139705
-5.86649e-05
0.000168858
-8.93694e-05
0.000162823
-0.000117482
0.000150241
-0.000142344
0.000133938
-0.00016349
0.000114678
-0.000180597
9.30691e-05
-0.000193446
6.96431e-05
-0.000201881
4.48488e-05
-0.000205776
1.90651e-05
-0.000205015
-7.39565e-06
-0.000199464
-3.42069e-05
-0.000189019
-6.09664e-05
-0.000173604
-8.72224e-05
-0.000153223
-0.000112359
-0.000128035
-0.000135584
-9.84342e-05
-0.000155915
-6.51572e-05
-0.000172085
-2.97808e-05
-0.000180516
-0.000150619
-3.04646e-05
0.00017017
-6.70425e-05
0.000205436
-0.000101898
0.000197679
-0.000133592
0.000181936
-0.000161421
0.000161768
-0.000184943
0.0001382
-0.000203898
0.000112024
-0.000218141
8.38869e-05
-0.000227586
5.42932e-05
-0.000232149
2.36279e-05
-0.000231719
-7.82547e-06
-0.000226108
-3.98182e-05
-0.000215117
-7.19569e-05
-0.000198531
-0.000103809
-0.000176185
-0.000134705
-0.000148073
-0.000163697
-0.000114473
-0.000189514
-7.61371e-05
-0.000210422
-3.49261e-05
-0.000221727
-0.000185545
-3.53346e-05
0.000205504
-7.7585e-05
0.000247686
-0.000117527
0.000237621
-0.000153492
0.000217901
-0.00018475
0.000193025
-0.00021093
0.00016438
-0.000231895
0.000132989
-0.000247638
9.96295e-05
-0.000258187
6.48421e-05
-0.000263537
2.89776e-05
-0.000263604
-7.75845e-06
-0.000258134
-4.52881e-05
-0.000246798
-8.32926e-05
-0.000229175
-0.000121432
-0.000204835
-0.000159046
-0.000173476
-0.000195055
-0.000135138
-0.000227852
-9.0493e-05
-0.000255067
-4.17404e-05
-0.00027048
-0.000227286
-4.15481e-05
0.000247052
-9.0901e-05
0.000297039
-0.00013703
0.00028375
-0.000177993
0.000258864
-0.000213085
0.000228117
-0.000242096
0.000193391
-0.00026511
0.000156003
-0.000282344
0.000116864
-0.000294019
7.65167e-05
-0.000300258
3.52167e-05
-0.000301039
-6.97724e-06
-0.000296042
-5.02847e-05
-0.000284769
-9.45655e-05
-0.000266502
-0.000139698
-0.000240406
-0.000185143
-0.000205692
-0.000229769
-0.000161922
-0.000271622
-0.000109485
-0.000307504
-5.09368e-05
-0.000329028
-0.000278222
-4.96112e-05
0.000296664
-0.00010791
0.000355338
-0.000161526
0.000337366
-0.000208215
0.000305553
-0.000247413
0.000267316
-0.000279226
0.000225203
-0.000304111
0.000180888
-0.000322644
0.000135397
-0.000335339
8.9212e-05
-0.000342525
4.24017e-05
-0.00034429
-5.21174e-06
-0.000340265
-5.431e-05
-0.000329755
-0.000105075
-0.000311645
-0.000157808
-0.000284493
-0.000212295
-0.000246735
-0.000267526
-0.000197057
-0.0003213
-0.000135118
-0.000369443
-6.37455e-05
-0.000400401
-0.000341968
-6.03643e-05
0.000357028
-0.000130037
0.000425011
-0.000192668
0.000399996
-0.000245722
0.000358607
-0.000289028
0.000310621
-0.000323267
0.000259443
-0.0003495
0.000207121
-0.000368842
0.000154739
-0.000382249
0.000102619
-0.000390348
5.05004e-05
-0.000393409
-2.15063e-06
-0.000391052
-5.66663e-05
-0.000382391
-0.000113737
-0.000365836
-0.000174363
-0.00033911
-0.000239021
-0.00029942
-0.000307216
-0.000243938
-0.000376782
-0.000170687
-0.000442694
-8.24238e-05
-0.000488664
-0.000424392
-7.52746e-05
0.000432302
-0.000159555
0.000509291
-0.000232934
0.000473376
-0.000292713
0.000418386
-0.000339625
0.000357533
-0.000375337
0.000295155
-0.000401845
0.000233629
-0.000421068
0.000173962
-0.000434571
0.000116121
-0.000443394
5.93233e-05
-0.000448077
2.53262e-06
-0.000448299
-5.64447e-05
-0.000443049
-0.000118986
-0.000430251
-0.000187161
-0.00040663
-0.000262642
-0.000367628
-0.000346218
-0.000307796
-0.000436614
-0.000221784
-0.000528705
-0.000111451
-0.000598998
-0.000535842
-9.7076e-05
0.000529378
-0.000200203
0.000612418
-0.000286102
0.000559274
-0.000352298
0.000484583
-0.000401389
0.000406624
-0.000436669
0.000330435
-0.000461592
0.000258551
-0.000479165
0.000191536
-0.000491722
0.000128678
-0.000500865
6.84663e-05
-0.000507338
9.00537e-06
-0.000511264
-5.25185e-05
-0.000511526
-0.000118725
-0.000505718
-0.000192969
-0.000489579
-0.000278782
-0.00045642
-0.000379377
-0.000396737
-0.000496297
-0.000298234
-0.000627208
-0.000161013
-0.000736219
-0.000696856
-0.000130584
0.000659963
-0.000257944
0.000739778
-0.000357866
0.000659197
-0.000428792
0.000555508
-0.000476982
0.000454814
-0.000508508
0.000361961
-0.000528897
0.00027894
-0.000542496
0.000205136
-0.0005525
0.000138682
-0.0005611
7.7066e-05
-0.000569504
1.74094e-05
-0.000578234
-4.3788e-05
-0.000586526
-0.000110433
-0.000592067
-0.000187428
-0.000590048
-0.0002808
-0.000571721
-0.000397704
-0.000522679
-0.000545338
-0.000417115
-0.000732772
-0.000249543
-0.000903791
-0.000946399
-0.000193306
0.000853269
-0.000345881
0.000892353
-0.00045779
0.000771106
-0.000528018
0.000625736
-0.000569422
0.000496218
-0.000591801
0.00038434
-0.000603263
0.000290403
-0.000609605
0.000211477
-0.000614826
0.000143903
-0.000621605
8.38454e-05
-0.000631603
2.74069e-05
-0.000645951
-2.94394e-05
-0.000664735
-9.16494e-05
-0.000686691
-0.000165472
-0.00070773
-0.000259762
-0.000717988
-0.000387446
-0.000700416
-0.000562911
-0.000603158
-0.00083003
-0.000418274
-0.00108868
-0.00136467
-0.000258244
0.00111151
-0.000459925
0.00109403
-0.000591765
0.000902946
-0.000655451
0.000689421
-0.000680363
0.000521131
-0.000685079
0.000389055
-0.000681248
0.000286572
-0.000675902
0.000206132
-0.000673326
0.000141326
-0.000676255
8.67749e-05
-0.000686649
3.78003e-05
-0.000706392
-9.69612e-06
-0.000736806
-6.12353e-05
-0.000778974
-0.000123304
-0.000832833
-0.000205903
-0.00088861
-0.000331668
-0.00094186
-0.000509661
-0.00088984
-0.000882049
-0.000721099
-0.00125742
-0.00208577
-0.000568779
0.00168029
-0.000720352
0.00124561
-0.000791817
0.000974411
-0.0008066
0.000704204
-0.000785405
0.000499937
-0.000753029
0.000356679
-0.000721293
0.000254836
-0.000695777
0.000180616
-0.000679352
0.000124901
-0.000673794
8.12176e-05
-0.000680765
4.47705e-05
-0.000701763
1.13021e-05
-0.000741939
-2.10587e-05
-0.000805833
-5.94107e-05
-0.000901542
-0.000110193
-0.00102078
-0.000212435
-0.00116585
-0.000364588
-0.00120182
-0.000846081
-0.00100472
-0.00145452
-0.00309049
-0.000938257
0.00261855
-0.000877694
0.00118504
-0.000732961
0.000829678
-0.000561608
0.000532851
-0.000398908
0.000337237
-0.000266548
0.000224318
-0.000166632
0.00015492
-9.43998e-05
0.000108384
-4.51481e-05
7.56492e-05
-1.55495e-05
5.1619e-05
-3.67265e-06
3.28936e-05
-8.91457e-06
1.6544e-05
-3.12111e-05
1.23778e-06
-7.03534e-05
-2.02684e-05
-0.000127726
-5.28206e-05
-0.00020925
-0.000130911
-0.000277372
-0.000296465
-0.000406249
-0.000717205
-0.000329325
-0.00153144
-0.00341981
0.00261855
0.00380359
0.00463327
0.00516612
0.00550336
0.00572768
0.0058826
0.00599098
0.00606663
0.00611825
0.00615114
0.00616769
0.00616892
0.00614866
0.00609584
0.00596492
0.00566846
0.00495125
0.00341981
)
;

boundaryField
{
    movingWall
    {
        type            calculated;
        value           uniform 0;
    }
    fixedWalls
    {
        type            calculated;
        value           uniform 0;
    }
    frontAndBack
    {
        type            empty;
        value           nonuniform List<scalar> 0();
    }
}


// ************************************************************************* //
