/*--------------------------------*- C++ -*----------------------------------*\
  =========                 |
  \\      /  F ield         | OpenFOAM: The Open Source CFD Toolbox
   \\    /   O peration     | Website:  https://openfoam.org
    \\  /    A nd           | Version:  10
     \\/     M anipulation  |
\*---------------------------------------------------------------------------*/
FoamFile
{
    format      ascii;
    class       volScalarField;
    location    "2";
    object      p;
}
// * * * * * * * * * * * * * * * * * * * * * * * * * * * * * * * * * * * * * //

dimensions      [0 2 -2 0 0 0 0];

internalField   nonuniform List<scalar> 
8000
(
-4.35469e-09
1.05553e-05
7.57884e-05
0.000192469
0.000358048
0.000569655
0.000823267
0.0011137
0.00143462
0.0017785
0.00213674
0.00249962
0.00285657
0.0031964
0.00350763
0.00377902
0.00400018
0.00416233
0.00425802
0.00428129
-1.3144e-05
-3.14655e-06
6.24382e-05
0.000179095
0.000344521
0.000556123
0.000810054
0.00110124
0.00142344
0.0017692
0.00212991
0.0024959
0.00285647
0.00320027
0.00351563
0.00379103
0.0040158
0.00418098
0.00427896
0.00430238
-8.5372e-05
-7.63625e-05
-9.70419e-06
0.00010925
0.000278205
0.000494747
0.000755126
0.00105436
0.00138626
0.00174334
0.0021169
0.00249709
0.00287285
0.00323234
0.00356323
0.00385316
0.00409054
0.00426548
0.00436944
0.00439366
-0.000216109
-0.000207784
-0.000138984
-1.55255e-05
0.000160318
0.00038628
0.000658732
0.000972776
0.00132223
0.00169956
0.00209589
0.00250105
0.0029034
0.00329025
0.00364815
0.00396339
0.00422276
0.00441476
0.00452924
0.00455608
-0.000407888
-0.000400176
-0.000328134
-0.000198024
-1.20575e-05
0.000227686
0.000517728
0.000853277
0.00122818
0.00163482
0.00206404
0.00250548
0.00294649
0.00337332
0.00377097
0.00412369
0.00441588
0.00463354
0.00476412
0.00479553
-0.00066527
-0.000658317
-0.000582018
-0.000443196
-0.000243967
1.38402e-05
0.000326957
0.000690749
0.00109914
0.00154444
0.00201711
0.00250695
0.00299983
0.00348077
0.00393279
0.0043374
0.00467562
0.00492973
0.0050835
0.00512185
-0.000994032
-0.000988162
-0.00090673
-0.000757288
-0.000541818
-0.000261811
7.97571e-05
0.000478492
0.000928483
0.00142216
0.00195028
0.0025005
0.00305958
0.00361063
0.00413417
0.0046082
0.0050091
0.00531371
0.00550018
0.0055488
-0.00140144
-0.00139718
-0.00130992
-0.00114815
-0.000913682
-0.000607543
-0.000232317
0.00020794
0.000707583
0.00125918
0.00185325
0.00247845
0.00311975
0.00375912
0.00437452
0.00493968
0.00542482
0.00579893
0.00603145
0.00609524
-0.00189651
-0.00189468
-0.00180111
-0.00162555
-0.00136956
-0.0010336
-0.000619728
-0.000131546
0.000425727
0.00104512
0.00171765
0.00243112
0.00317147
0.00391959
0.00465093
0.00533438
0.00593223
0.00640229
0.00670035
0.0067871
-0.00249041
-0.00249216
-0.00239204
-0.00220146
-0.00192169
-0.00155245
-0.00109516
-0.00055291
6.95798e-05
0.000765907
0.00152776
0.00234415
0.0032015
0.00408089
0.00495628
0.00579189
0.00654045
0.00714419
0.00753753
0.00766045
-0.00319703
-0.00320393
-0.00309719
-0.00289052
-0.00258486
-0.00217897
-0.00167359
-0.00107129
-0.000376325
0.000405594
0.00126729
0.00219974
0.00319137
0.00422529
0.00527621
0.0063054
0.00725548
0.00804779
0.00858342
0.00876619
-0.00403402
-0.00404804
-0.00393455
-0.00371064
-0.00337683
-0.00293069
-0.00237227
-0.00170382
-0.000929375
-5.40652e-05
0.000916355
0.00197547
0.00311586
0.0043257
0.00558474
0.006856
0.0080745
0.00913611
0.00989092
0.0101786
-0.00502478
-0.00504805
-0.00492695
-0.00468391
-0.00431893
-0.00382799
-0.00321051
-0.00246899
-0.00160794
-0.000632514
0.00045278
0.00164475
0.00294235
0.0043429
0.00583829
0.00740306
0.00897443
0.0104234
0.0115263
0.0120152
-0.0062024
-0.00623623
-0.00610422
-0.00583803
-0.00543681
-0.00489414
-0.00420905
-0.00338534
-0.00242946
-0.00134787
-0.000144846
0.00117953
0.00263218
0.00422396
0.00596875
0.00786973
0.00989015
0.0118932
0.0135628
0.0144619
-0.00761826
-0.00765987
-0.00750664
-0.0072081
-0.00676115
-0.00615501
-0.00538862
-0.00446901
-0.00340705
-0.00221263
-0.000891976
0.000557056
0.00214597
0.00390478
0.00587868
0.0081238
0.0106765
0.0134535
0.0160652
0.0178564
-0.00936247
-0.00939372
-0.00918967
-0.00883843
-0.00832766
-0.00763731
-0.00676666
-0.00572901
-0.00454335
-0.0032269
-0.00179078
-0.000235133
0.00145632
0.00332604
0.00545201
0.00796439
0.0110515
0.0148228
0.0189259
0.0225859
-0.011582
-0.0115812
-0.0112391
-0.0107829
-0.010173
-0.00936269
-0.0083505
-0.00716083
-0.00582501
-0.0043711
-0.0028192
-0.00117681
0.000566372
0.00245461
0.00458095
0.00713264
0.0105225
0.0152283
0.0211374
0.0282235
-0.0149554
-0.0143242
-0.0136436
-0.0130615
-0.0123196
-0.0113362
-0.0101216
-0.00872602
-0.00720002
-0.00558388
-0.00390834
-0.00219229
-0.000447678
0.00135518
0.0032973
0.00548922
0.00855848
0.0136254
0.0212258
0.0356745
-0.018583
-0.018909
-0.0174064
-0.0160685
-0.0148513
-0.0134868
-0.0119288
-0.0102443
-0.00848576
-0.00668806
-0.00488472
-0.00309816
-0.00138294
0.000258399
0.00171897
0.00342529
0.00585222
0.0125002
0.0243844
0.0593223
-0.0363189
-0.0207463
-0.0167982
-0.0159814
-0.0150772
-0.0137948
-0.0122723
-0.0106142
-0.00886501
-0.0070595
-0.00525395
-0.00347675
-0.00185218
-0.000334523
0.000899652
0.00287799
0.00715637
0.0206737
0.0504987
0.10756
1.47107e-06
6.92505e-06
7.1214e-05
0.000187929
0.000353824
0.00056597
0.000820291
0.00111158
0.00143347
0.0017785
0.00213794
0.00250208
0.00286034
0.00320146
0.00351392
0.00378636
0.00400827
0.0041706
0.00426504
0.00428262
-6.04924e-06
-1.12027e-06
6.34003e-05
0.000179668
0.000344833
0.00055633
0.000810238
0.00110149
0.00142384
0.00176983
0.00213086
0.00249723
0.00285826
0.00320257
0.00351843
0.00379426
0.00401925
0.00418427
0.00428093
0.0042983
-7.60402e-05
-7.26193e-05
-7.19225e-06
0.000111236
0.0002798
0.000496059
0.000756227
0.00105532
0.00138715
0.00174425
0.00211794
0.00249833
0.00287438
0.00323424
0.00356551
0.00385577
0.00409329
0.00426801
0.0043705
0.00438804
-0.000205334
-0.000203073
-0.000135618
-1.27553e-05
0.00016263
0.000388238
0.000660404
0.000974231
0.00132355
0.00170084
0.00209724
0.00250256
0.00290515
0.00329235
0.00365064
0.00396622
0.00422573
0.00441746
0.00453033
0.0045498
-0.000395656
-0.000394523
-0.000323926
-0.000194468
-9.01359e-06
0.000230324
0.000520033
0.000855323
0.00123006
0.00163664
0.00206597
0.0025075
0.00294877
0.00337597
0.00377405
0.00412714
0.0044195
0.00463686
0.00476559
0.00478872
-0.000651294
-0.00065157
-0.000576832
-0.000438719
-0.00024006
1.72915e-05
0.000330034
0.000693533
0.00110172
0.00154697
0.00201991
0.00250972
0.0030029
0.00348429
0.00393683
0.00434192
0.00468039
0.00493417
0.00508578
0.00511462
-0.000977827
-0.000980001
-0.000900271
-0.000751615
-0.000536795
-0.000257314
8.38205e-05
0.000482216
0.000931965
0.00142545
0.00195309
0.00250409
0.00306371
0.00361536
0.00413959
0.0046143
0.00501561
0.00531995
0.00550389
0.00554131
-0.00138231
-0.00138712
-0.00130174
-0.00114087
-0.000907172
-0.000601675
-0.000226979
0.000212866
0.000712225
0.00126355
0.00185639
0.00248324
0.00312527
0.00376545
0.00438183
0.00494804
0.00543393
0.00580796
0.00603751
0.00608776
-0.00187352
-0.001882
-0.00179055
-0.00161608
-0.00136107
-0.00102595
-0.000612774
-0.000125123
0.000431835
0.0010513
0.00172526
0.00243787
0.00317878
0.003928
0.0046608
0.00534591
0.00594519
0.00641563
0.00671028
0.00678015
-0.00246224
-0.00247586
-0.00237819
-0.00218901
-0.00191059
-0.00154252
-0.00108622
-0.000544729
7.72883e-05
0.000773492
0.00153573
0.00235251
0.00321089
0.0040919
0.00496951
0.00580783
0.00655906
0.00716425
0.00755399
0.00765615
-0.00316175
-0.00318249
-0.0030787
-0.00287401
-0.00257034
-0.00216622
-0.00166232
-0.00106116
-0.000366921
0.000414727
0.0012767
0.00220996
0.00320308
0.00423937
0.0052937
0.00632733
0.00728233
0.0080784
0.00861099
0.00876798
-0.00398869
-0.00401915
-0.00390945
-0.00368856
-0.00335789
-0.00291456
-0.00235845
-0.00169174
-0.000918408
-4.35509e-05
0.000927163
0.00198744
0.00312989
0.0043431
0.00560726
0.00688567
0.00811313
0.00918333
0.00993797
0.0101974
-0.00496462
-0.00500793
-0.00489222
-0.00465423
-0.00429447
-0.00380811
-0.00319429
-0.00245543
-0.00159605
-0.000621311
0.00046431
0.0016578
0.00295806
0.00436321
0.00586596
0.00744185
0.00902896
0.0104958
0.0116057
0.0120698
-0.00611914
-0.00617846
-0.00605513
-0.00579803
-0.0054059
-0.00487084
-0.00419154
-0.00337182
-0.00241828
-0.00133774
-0.00013444
0.00119182
0.00264764
0.00424528
0.00599993
0.00791626
0.00996223
0.0119995
0.0136936
0.014603
-0.00749635
-0.0075731
-0.00743591
-0.00715479
-0.00672419
-0.00613082
-0.00537346
-0.00445959
-0.00340073
-0.00220791
-0.000887234
0.000563076
0.00215621
0.0039214
0.00590458
0.00816595
0.0107536
0.0135925
0.0162788
0.0182158
-0.00917292
-0.00925428
-0.00908488
-0.00877044
-0.00829029
-0.0076214
-0.00676453
-0.0057349
-0.00455289
-0.00323749
-0.0018009
-0.000243901
0.00144911
0.00331929
0.00544411
0.00795543
0.0110637
0.0149197
0.019167
0.0232683
-0.0112273
-0.0113663
-0.0111005
-0.0107138
-0.0101589
-0.0093838
-0.00838984
-0.00720706
-0.00587171
-0.0044153
-0.0028604
-0.00121616
0.000525861
0.00239974
0.0044915
0.00696266
0.0102311
0.01484
0.0206976
0.0285972
-0.0143328
-0.0138322
-0.013367
-0.0130039
-0.0123934
-0.0114729
-0.0102768
-0.00887603
-0.00733552
-0.0057031
-0.00401456
-0.00229137
-0.000555699
0.00121777
0.00304937
0.00495528
0.00748707
0.0119317
0.0188381
0.0351279
-0.0165487
-0.0183346
-0.017396
-0.0163451
-0.0152819
-0.0139509
-0.0123558
-0.0106078
-0.00878667
-0.00693598
-0.0050942
-0.00328068
-0.00157573
1.6699e-05
0.00126424
0.0024855
0.00412732
0.0101268
0.0212626
0.0614305
-0.0338273
-0.0194902
-0.0161623
-0.0158294
-0.0152641
-0.0140709
-0.0125534
-0.0108765
-0.00910129
-0.00726474
-0.00543964
-0.00364032
-0.00205694
-0.000599071
0.000306842
0.00183477
0.00540854
0.0194665
0.0542776
0.118407
3.67342e-06
7.46255e-06
7.09737e-05
0.000187306
0.000353076
0.000565293
0.000819838
0.00111148
0.00143384
0.00177935
0.00213939
0.00250421
0.00286319
0.00320503
0.00351813
0.00379109
0.00401325
0.00417544
0.00426907
0.0042844
-1.39133e-06
1.50926e-06
6.52477e-05
0.000181043
0.000345909
0.000557225
0.00081106
0.00110233
0.00142477
0.00177095
0.00213223
0.00249894
0.00286035
0.00320506
0.0035213
0.0037974
0.00402246
0.00418723
0.00428306
0.00429816
-6.98698e-05
-6.87484e-05
-4.204e-06
0.000113656
0.000281804
0.000497763
0.000757723
0.00105669
0.00138848
0.00174563
0.00211946
0.00250005
0.00287638
0.00323655
0.00356812
0.0038586
0.00409614
0.00427055
0.00437213
0.00438707
-0.000197874
-0.000198133
-0.000131657
-9.44919e-06
0.000165431
0.00039065
0.000662518
0.000976131
0.00132532
0.00170259
0.00209907
0.00250453
0.00290736
0.00329485
0.00365344
0.00396922
0.00422874
0.00442011
0.00453196
0.00454856
-0.000386833
-0.000388457
-0.00031894
-0.000190224
-5.36235e-06
0.000233502
0.000522833
0.000857836
0.00123238
0.00163889
0.00206828
0.00250992
0.00295142
0.00337894
0.00377735
0.0041307
0.00442309
0.00464006
0.00476764
0.00478754
-0.000640849
-0.000644174
-0.000570637
-0.000433374
-0.000235412
2.13669e-05
0.000333641
0.000696778
0.00110473
0.00154986
0.00202287
0.00251278
0.00300623
0.003488
0.00394097
0.00434642
0.00468499
0.00493841
0.00508873
0.00511385
-0.000965318
-0.000970908
-0.000892536
-0.000744876
-0.0005309
-0.00025213
8.84137e-05
0.000486345
0.000935776
0.00142911
0.00195685
0.00250796
0.00306791
0.00362007
0.00414491
0.00462018
0.00502178
0.00532584
0.00550838
0.0055416
-0.00136709
-0.00137577
-0.00129196
-0.00113231
-0.000899675
-0.000595098
-0.00022118
0.00021805
0.000716994
0.00126823
0.00186207
0.00248815
0.00313053
0.00377141
0.00438869
0.00495582
0.00544237
0.00581637
0.00604448
0.00609001
-0.00185467
-0.00186761
-0.00177804
-0.0016051
-0.00135151
-0.00101764
-0.000605536
-0.000118746
0.000437592
0.00105661
0.00172957
0.00244344
0.00318514
0.00393541
0.00466958
0.00535622
0.00595682
0.00642778
0.00672113
0.00678593
-0.00243844
-0.00245729
-0.00236195
-0.00217484
-0.00189839
-0.00153211
-0.00107734
-0.000537083
8.40315e-05
0.00077968
0.00154166
0.00235902
0.00321834
0.00410084
0.00498051
0.00582133
0.00657505
0.00718184
0.00757064
0.00766614
-0.00313107
-0.00315808
-0.00305736
-0.0028556
-0.00255482
-0.00215334
-0.00165171
-0.00105236
-0.000359432
0.000421428
0.00128319
0.00221695
0.00321128
0.00424959
0.00530692
0.00634451
0.00730397
0.0081038
0.00863688
0.00878659
-0.00394821
-0.00398639
-0.00388099
-0.00366453
-0.00333828
-0.00289897
-0.00234627
-0.00168224
-0.000910836
-3.71416e-05
0.000933198
0.00199402
0.00313788
0.0043536
0.00562189
0.00690632
0.00814148
0.00921957
0.00997822
0.0102309
-0.00490968
-0.0049629
-0.00485369
-0.00462275
-0.00427003
-0.00378992
-0.00318127
-0.00244637
-0.00158978
-0.000616769
0.000468137
0.00166191
0.00296353
0.00437152
0.00587937
0.00746382
0.00906347
0.0105456
0.0116673
0.0121317
-0.00604197
-0.00611484
-0.00600214
-0.00575689
-0.00537626
-0.0048511
-0.00417963
-0.00336566
-0.00241611
-0.00133795
-0.000135763
0.00119029
0.0026468
0.0042464
0.00600516
0.00793251
0.00999692
0.0120615
0.0137838
0.014718
-0.00738321
-0.00748033
-0.00736196
-0.00710156
-0.00669026
-0.0061127
-0.00536708
-0.00446126
-0.00340735
-0.00221725
-0.00089815
0.000550908
0.00214315
0.00390748
0.00589155
0.00815959
0.0107677
0.0136519
0.0164043
0.0184371
-0.00899898
-0.00911311
-0.00897964
-0.00870322
-0.00825626
-0.00761268
-0.0067726
-0.00575286
-0.00457617
-0.00326338
-0.0018284
-0.000273382
0.00141558
0.00327891
0.00539327
0.0078929
0.0110057
0.0149155
0.019289
0.0236196
-0.0109371
-0.0111499
-0.0109545
-0.0106349
-0.0101362
-0.00940052
-0.00842984
-0.00725837
-0.00592698
-0.00447106
-0.00291636
-0.00127478
0.000458495
0.00231383
0.00437051
0.00677652
0.0099714
0.0145698
0.0205254
0.0287863
-0.0138508
-0.0134606
-0.0131284
-0.0129021
-0.0123986
-0.0115441
-0.0103795
-0.00898806
-0.0074454
-0.00580668
-0.00411323
-0.00239058
-0.000668878
0.00106969
0.00283519
0.0045581
0.00681499
0.011037
0.0179699
0.0349113
-0.0155381
-0.0177751
-0.0171159
-0.0162903
-0.0153875
-0.0141397
-0.0125683
-0.0108124
-0.00897174
-0.00709975
-0.00524291
-0.00342314
-0.00173833
-0.00020524
0.000867564
0.00179938
0.00303445
0.00873322
0.0207625
0.0627568
-0.0326331
-0.0187392
-0.0157268
-0.0156765
-0.0152956
-0.0142058
-0.0127173
-0.011042
-0.00925855
-0.00740944
-0.00557751
-0.00377799
-0.00223388
-0.000860327
-0.000177066
0.00108315
0.00442418
0.0191153
0.0564601
0.123596
6.19192e-06
9.17358e-06
7.22262e-05
0.000188252
0.000353832
0.000565963
0.000820515
0.00111225
0.00143478
0.00178057
0.00214094
0.00250615
0.00286554
0.00320778
0.00352125
0.00379446
0.0040167
0.00417873
0.00427187
0.00428632
2.21812e-06
4.29092e-06
6.74917e-05
0.000182883
0.000347456
0.000558576
0.0008123
0.00110354
0.00142603
0.00177233
0.00213381
0.00250076
0.00286246
0.00320747
0.00352397
0.00380025
0.00402532
0.00418987
0.0042852
0.00429937
-6.52448e-05
-6.50342e-05
-1.09606e-06
0.000116284
0.000284054
0.000499726
0.000759481
0.00105833
0.00139006
0.00174725
0.00212118
0.00250195
0.0028785
0.00323891
0.00357071
0.00386134
0.00409886
0.00427302
0.00437406
0.00438809
-0.000192186
-0.000193444
-0.00012765
-6.00183e-06
0.000168416
0.000393261
0.000664836
0.000978239
0.00132731
0.00170454
0.00210106
0.00250665
0.00290968
0.0032974
0.00365621
0.00397215
0.00423165
0.00442276
0.00453401
0.00454957
-0.000379937
-0.000382663
-0.000313916
-0.000185852
-1.54972e-06
0.000236845
0.000525792
0.000860501
0.00123485
0.00164127
0.00207067
0.00251242
0.00295412
0.00338189
0.00378056
0.00413411
0.00442652
0.00464323
0.00477016
0.00478891
-0.000632483
-0.000637039
-0.000564383
-0.000427892
-0.000230613
2.55746e-05
0.000337352
0.000700097
0.00110777
0.00155277
0.00202577
0.00251578
0.00300945
0.00349155
0.00394487
0.00435062
0.00468931
0.0049425
0.00509215
0.00511604
-0.000955072
-0.000962058
-0.000884718
-0.000737996
-0.000524878
-0.000246871
9.30192e-05
0.000490425
0.000939481
0.00143262
0.00196036
0.00251155
0.00307178
0.00362437
0.00414973
0.00462549
0.0050274
0.00533136
0.0055132
0.00554486
-0.00135437
-0.00136466
-0.0012821
-0.00112363
-0.000892112
-0.000588552
-0.000215521
0.000222986
0.000721405
0.00127237
0.00186631
0.00249234
0.00313507
0.00377656
0.00439464
0.0049626
0.00544981
0.00582399
0.00605147
0.00609509
-0.00183863
-0.00185348
-0.00176547
-0.00159408
-0.00134201
-0.00100954
-0.000598677
-0.000112915
0.000442643
0.00106113
0.00173375
0.00244796
0.00319023
0.00394141
0.00467678
0.00536482
0.0059667
0.00643839
0.00673137
0.00679381
-0.00241789
-0.00243905
-0.00234575
-0.00216077
-0.00188647
-0.00152219
-0.0010692
-0.000530413
8.95692e-05
0.000784455
0.00154606
0.00236366
0.0032237
0.00410745
0.0049889
0.00583194
0.00658797
0.00719653
0.0075857
0.00767912
-0.00310429
-0.00313419
-0.00303626
-0.00283756
-0.0025399
-0.00214136
-0.00164232
-0.00104511
-0.000353822
0.000425942
0.00128718
0.00222107
0.00321623
0.00425611
0.00531594
0.00635691
0.00732033
0.00812387
0.00865894
0.00880724
-0.00391261
-0.00395457
-0.00385321
-0.00364133
-0.00331977
-0.00288485
-0.00233595
-0.00167503
-0.000905977
-3.3869e-05
0.000935573
0.00199611
0.00314073
0.00435848
0.00563002
0.00691933
0.00816097
0.00924621
0.0100103
0.0102637
-0.00486132
-0.00491975
-0.00481668
-0.00459286
-0.00424736
-0.00377388
-0.00317085
-0.00244041
-0.00158714
-0.000616413
0.000467142
0.00166036
0.00296235
0.00437198
0.0058833
0.00747421
0.00908384
0.0105788
0.0117127
0.0121842
-0.00597462
-0.00605514
-0.00595228
-0.00571842
-0.00534914
-0.00483406
-0.00417083
-0.00336315
-0.00241808
-0.00134301
-0.000142934
0.00118174
0.00263758
0.00423769
0.0059994
0.00793311
0.0100112
0.0120974
0.0138453
0.0148029
-0.00728685
-0.007396
-0.00729405
-0.00705235
-0.00665905
-0.00609685
-0.00536317
-0.00446589
-0.0034179
-0.00223181
-0.000915688
0.000530729
0.00212006
0.0038817
0.00586445
0.00813591
0.0107588
0.0136765
0.0164801
0.0185771
-0.00885731
-0.00899135
-0.00888612
-0.00864085
-0.00822267
-0.00760239
-0.00677933
-0.00577091
-0.00460129
-0.00329303
-0.00186175
-0.000311203
0.00137134
0.00322595
0.00532875
0.00781846
0.0109357
0.0148866
0.0193492
0.0238198
-0.0107238
-0.0109729
-0.0108262
-0.0105575
-0.010104
-0.00940345
-0.0084564
-0.00729892
-0.00597495
-0.00452303
-0.00297189
-0.00133625
0.000384985
0.00222255
0.00424786
0.00661341
0.00977142
0.014383
0.0204372
0.0289425
-0.0135313
-0.0131985
-0.0129437
-0.0128013
-0.0123701
-0.011569
-0.010437
-0.00906173
-0.00752515
-0.00588791
-0.00419595
-0.00247873
-0.000771501
0.000934244
0.00263663
0.00427465
0.00640785
0.0105712
0.0175831
0.0350151
-0.0150481
-0.0174128
-0.0168815
-0.0161806
-0.0153789
-0.0142003
-0.012667
-0.0109254
-0.00908604
-0.0072104
-0.00535141
-0.0035353
-0.00187055
-0.000386283
0.000591664
0.00136009
0.00243463
0.00817635
0.0204019
0.063586
-0.0319994
-0.0182453
-0.0153866
-0.0155015
-0.0152524
-0.0142439
-0.012807
-0.0111496
-0.00937021
-0.00751942
-0.005688
-0.00389482
-0.00238127
-0.0010684
-0.000503158
0.000625596
0.00391584
0.0188822
0.0571086
0.12571
8.81229e-06
1.14468e-05
7.41689e-05
0.000189909
0.000355269
0.000567254
0.000821731
0.00111346
0.00143605
0.00178196
0.00214251
0.00250794
0.00286758
0.00321006
0.00352374
0.00379709
0.00401936
0.00418126
0.00427414
0.00428824
5.35929e-06
7.06895e-06
6.99148e-05
0.000184986
0.000349296
0.000560216
0.000813805
0.00110497
0.00142746
0.00177382
0.00213542
0.00250254
0.00286444
0.00320965
0.00352633
0.00380272
0.0040278
0.00419221
0.00428726
0.00430105
-6.14039e-05
-6.15905e-05
1.95054e-06
0.000118959
0.000286406
0.000501814
0.000761368
0.00106008
0.00139175
0.00174893
0.00212293
0.00250382
0.00288054
0.00324114
0.0035731
0.00386383
0.00410135
0.00427536
0.0043761
0.00438968
-0.000187485
-0.000189184
-0.000123842
-2.63216e-06
0.000171389
0.000395894
0.000667191
0.000980386
0.00132932
0.0017065
0.00210304
0.00250873
0.0029119
0.0032998
0.00365879
0.00397485
0.00423436
0.00442532
0.00453625
0.00455133
-0.000374188
-0.000377408
-0.000309185
-0.000181645
2.16816e-06
0.000240127
0.000528704
0.000863122
0.00123727
0.00164358
0.00207296
0.00251479
0.00295664
0.00338462
0.00378351
0.00413723
0.00442969
0.00464627
0.00477287
0.0047911
-0.000625422
-0.000630541
-0.000558506
-0.000422653
-0.00022599
2.9635e-05
0.000340922
0.000703269
0.00111065
0.00155548
0.00202843
0.00251851
0.00301236
0.00349472
0.00394834
0.00435437
0.0046932
0.00494633
0.00509566
0.00511894
-0.00094632
-0.000953962
-0.000877376
-0.000731457
-0.000519134
-0.00024187
9.73594e-05
0.000494218
0.000942864
0.00143575
0.00196339
0.00251464
0.00307509
0.00362805
0.00415385
0.00463007
0.00503231
0.00533637
0.00551797
0.00554903
-0.0013434
-0.00135447
-0.00127286
-0.00111542
-0.000884969
-0.00058242
-0.000210298
0.000227444
0.000725276
0.00127586
0.00186964
0.00249573
0.00313873
0.00378074
0.0043995
0.00496821
0.00545609
0.00583066
0.00605807
0.00610109
-0.0018247
-0.00184051
-0.00175373
-0.00158375
-0.00133313
-0.00100207
-0.000592485
-0.00010781
0.000446893
0.00106479
0.00173711
0.00245137
0.00319403
0.00394593
0.00468233
0.00537158
0.00597468
0.00644728
0.00674053
0.00680244
-0.00239997
-0.00242235
-0.00233072
-0.0021477
-0.00187545
-0.00151318
-0.00106201
-0.000524788
9.39608e-05
0.000787977
0.00154912
0.00236668
0.00322717
0.00411189
0.00499482
0.00583975
0.00659785
0.00720824
0.00759843
0.00769165
-0.00308091
-0.00311244
-0.00301685
-0.00282097
-0.0025263
-0.00213066
-0.00163425
-0.00103928
-0.000349767
0.000428717
0.00128919
0.00222283
0.00321839
0.00425957
0.00532142
0.00636516
0.00733197
0.00813892
0.00867646
0.00882537
-0.00388167
-0.00392587
-0.00382793
-0.00362021
-0.00330308
-0.00287241
-0.00232732
-0.0016696
-0.000903072
-3.28409e-05
0.000935479
0.0019956
0.00314048
0.00435935
0.00563325
0.00692648
0.00817346
0.00926478
0.0100341
0.01029
-0.00481974
-0.00488141
-0.00478349
-0.00456597
-0.00422709
-0.00375988
-0.00316234
-0.00243643
-0.00158668
-0.000618539
0.000463222
0.00165537
0.00295708
0.00436752
0.00588134
0.00747705
0.00909459
0.0105999
0.0117442
0.0122225
-0.00591787
-0.00600325
-0.00590837
-0.00568421
-0.00532493
-0.00481909
-0.00416372
-0.00336231
-0.00242201
-0.0013505
-0.000153092
0.00116955
0.00262395
0.00422364
0.00598692
0.00792567
0.0100142
0.012117
0.0138848
0.0148591
-0.00720829
-0.00732497
-0.00723561
-0.00700893
-0.00663078
-0.00608213
-0.00535954
-0.00447077
-0.00342903
-0.00224759
-0.000935205
0.000507801
0.00209355
0.00385204
0.00583321
0.00810752
0.0107421
0.0136837
0.0165248
0.0186606
-0.00874736
-0.00889337
-0.008808
-0.00858594
-0.00819055
-0.00758998
-0.00678236
-0.00578514
-0.00462331
-0.00332069
-0.00189427
-0.000349115
0.00132676
0.00317347
0.00526768
0.00775269
0.0108772
0.0148598
0.019382
0.0239307
-0.0105701
-0.0108379
-0.010722
-0.0104883
-0.0100685
-0.00939611
-0.00847013
-0.00732688
-0.00601201
-0.00456628
-0.00302069
-0.00139218
0.000317832
0.0021407
0.00414482
0.0064907
0.00963749
0.0142729
0.020399
0.0290428
-0.0133193
-0.0130145
-0.0128034
-0.0127121
-0.0123298
-0.0115688
-0.0104648
-0.00910707
-0.0075804
-0.00594904
-0.00426229
-0.00255276
-0.000859225
0.000820455
0.00248313
0.00408653
0.00617115
0.0103399
0.0174084
0.0351258
-0.0147704
-0.017174
-0.0167008
-0.0160701
-0.0153326
-0.0142092
-0.0127103
-0.0109883
-0.00915846
-0.00728734
-0.0054325
-0.00362397
-0.00197618
-0.000523964
0.000402108
0.00109315
0.00210822
0.00797031
0.0201332
0.0639849
-0.031641
-0.0179269
-0.0151404
-0.0153522
-0.0151913
-0.0142511
-0.0128508
-0.0112149
-0.00944567
-0.00759962
-0.00577324
-0.00398883
-0.00249673
-0.00122206
-0.000720338
0.000332215
0.00360844
0.0186948
0.0572445
0.126518
1.12873e-05
1.37586e-05
7.62652e-05
0.000191784
0.000356949
0.000568776
0.000823143
0.00111481
0.0014374
0.00178336
0.002144
0.00250955
0.00286933
0.00321197
0.00352578
0.00379921
0.00402149
0.00418332
0.00427607
0.00429002
8.12388e-06
9.66026e-06
7.22755e-05
0.000187106
0.000351195
0.00056193
0.000815379
0.00110646
0.00142891
0.00177529
0.00213695
0.00250417
0.0028662
0.00321155
0.00352835
0.00380482
0.0040299
0.00419424
0.00428916
0.0043028
-5.81387e-05
-5.85156e-05
4.76618e-06
0.000121496
0.000288679
0.000503855
0.00076322
0.00106179
0.00139338
0.00175054
0.00212457
0.00250554
0.00288237
0.0032431
0.00357518
0.003866
0.00410353
0.00427748
0.00437807
0.00439148
-0.000183534
-0.000185448
-0.000120407
4.70095e-07
0.000174166
0.000398374
0.000669418
0.000982415
0.00133121
0.00170832
0.00210487
0.00251061
0.00291389
0.00330192
0.00366105
0.00397722
0.00423676
0.00442767
0.00453845
0.00455336
-0.000369357
-0.000372825
-0.00030496
-0.000177827
5.57717e-06
0.000243152
0.000531392
0.000865534
0.00123948
0.00164567
0.00207502
0.00251689
0.00295885
0.00338699
0.00378606
0.00413993
0.00443248
0.00464903
0.00477551
0.00479354
-0.000619461
-0.000624874
-0.000553276
-0.000417934
-0.000221798
3.33227e-05
0.000344156
0.000706124
0.00111322
0.00155786
0.00203073
0.00252084
0.00301482
0.00349739
0.00395127
0.00435754
0.00469655
0.00494973
0.00509897
0.00512207
-0.000938896
-0.000946894
-0.00087086
-0.000725599
-0.000513971
-0.000237385
0.000101226
0.000497558
0.000945792
0.00143839
0.0019659
0.00251718
0.00307779
0.00363103
0.00415722
0.00463383
0.00503642
0.00534068
0.00552229
0.00555319
-0.00133405
-0.00134558
-0.00126467
-0.00110812
-0.000878603
-0.000576983
-0.00020572
0.000231281
0.000728522
0.00127868
0.00187218
0.00249832
0.00314155
0.00378396
0.00440327
0.00497264
0.00546115
0.00583619
0.0060638
0.00610673
-0.00181282
-0.0018292
-0.00174338
-0.0015746
-0.00132528
-0.000995523
-0.000587144
-0.000103521
0.000450334
0.00106762
0.00173961
0.0024538
0.0031967
0.00394914
0.00468636
0.00537664
0.00598082
0.00645435
0.00674813
0.00681008
-0.0023847
-0.00240785
-0.00231754
-0.0021362
-0.0018658
-0.00150537
-0.00105592
-0.000520194
9.73393e-05
0.000790469
0.0015511
0.00236847
0.0032292
0.00411462
0.0049987
0.00584518
0.00660504
0.00721708
0.00760842
0.00770202
-0.00306109
-0.00309366
-0.00299996
-0.0028065
-0.00251448
-0.00212148
-0.00162752
-0.00103468
-0.000346907
0.000430278
0.0012899
0.00222323
0.003219
0.00426092
0.0053242
0.00637024
0.00733979
0.0081496
0.00868945
0.00883939
-0.00385567
-0.00390137
-0.00380617
-0.00360197
-0.00328868
-0.00286181
-0.00232022
-0.00166551
-0.00090142
-3.30537e-05
0.000933966
0.00199339
0.00313823
0.00435783
0.0056335
0.00692967
0.00818092
0.00927703
0.0100507
0.010309
-0.0047853
-0.00484915
-0.00475529
-0.00454296
-0.0042097
-0.00374796
-0.00315536
-0.00243365
-0.00158729
-0.000621771
0.000458053
0.0016489
0.00295001
0.00436078
0.00587636
0.00747577
0.00909927
0.0106125
0.0117647
0.012248
-0.00587188
-0.00596051
-0.00587168
-0.0056552
-0.00530412
-0.00480613
-0.00415768
-0.00336202
-0.0024263
-0.00135837
-0.000163778
0.00115665
0.00260939
0.00420837
0.00597269
0.00791541
0.0100119
0.012127
0.0139087
0.0148936
-0.00714656
-0.00726808
-0.00718779
-0.00697244
-0.00660619
-0.00606867
-0.00535564
-0.00447457
-0.00343884
-0.00226208
-0.000953587
0.00048592
0.00206826
0.00382396
0.00580405
0.00808119
0.0107251
0.0136849
0.0165495
0.0187073
-0.00866448
-0.00881771
-0.0087457
-0.00854012
-0.00816178
-0.00757678
-0.00678213
-0.00579496
-0.00464069
-0.00334392
-0.00192259
-0.000382638
0.00128745
0.00312788
0.00521659
0.00770059
0.010833
0.0148387
0.0193982
0.0239886
-0.0104603
-0.010738
-0.0106412
-0.0104307
-0.0100349
-0.00938381
-0.00847501
-0.00734455
-0.00603884
-0.00459997
-0.00306048
-0.00143878
0.000262402
0.002074
0.00406505
0.00640322
0.00955022
0.0142078
0.0203811
0.0290984
-0.0131767
-0.0128856
-0.0126991
-0.0126391
-0.0122896
-0.011557
-0.0104754
-0.00913345
-0.00761743
-0.0059936
-0.00431348
-0.00261185
-0.000929837
0.000732314
0.00237096
0.00396276
0.00603015
0.0102148
0.0173288
0.0351899
-0.0145993
-0.0170142
-0.0165692
-0.0159784
-0.0152843
-0.0141969
-0.0127256
-0.0110222
-0.00920413
-0.00734067
-0.00549248
-0.0036923
-0.00205781
-0.000626121
0.000273177
0.000925792
0.00191545
0.00783599
0.0199975
0.0641411
-0.03143
-0.0177252
-0.0149721
-0.0152375
-0.0151311
-0.0142358
-0.0128667
-0.0112512
-0.00949431
-0.00765598
-0.00583662
-0.00406116
-0.00258414
-0.0013334
-0.000867052
0.000141635
0.00341325
0.0185543
0.0572292
0.126787
1.34519e-05
1.58379e-05
7.82024e-05
0.000193557
0.000358561
0.000570248
0.000824505
0.0011161
0.00143865
0.00178461
0.00214529
0.00251092
0.00287079
0.00321352
0.00352741
0.0038009
0.00402319
0.00418499
0.00427768
0.00429158
1.047e-05
1.19145e-05
7.43775e-05
0.000189031
0.000352944
0.000563521
0.000816843
0.00110783
0.00143023
0.0017766
0.00213829
0.00250557
0.00286768
0.00321312
0.00353
0.00380652
0.00403163
0.00419594
0.0042908
0.00430438
-5.54285e-05
-5.59072e-05
7.20212e-06
0.000123728
0.000290702
0.000505686
0.000764887
0.00106333
0.00139484
0.00175196
0.002126
0.00250701
0.00288392
0.00324474
0.00357691
0.00386779
0.00410536
0.00427928
0.00437982
0.00439317
-0.000180292
-0.000182323
-0.000117486
3.14412e-06
0.000176582
0.000400545
0.000671373
0.000984193
0.00133286
0.0017099
0.00210642
0.0025122
0.00291555
0.00330369
0.00366293
0.00397919
0.00423878
0.00442968
0.00454042
0.00455525
-0.000365405
-0.000369013
-0.000301398
-0.000174573
8.50304e-06
0.000245759
0.000533709
0.000867607
0.00124137
0.00164744
0.00207674
0.00251863
0.00296067
0.00338893
0.00378815
0.00414216
0.00443479
0.00465138
0.00477782
0.0047958
-0.000614586
-0.000620171
-0.000548888
-0.000413941
-0.000218233
3.64621e-05
0.000346904
0.000708535
0.00111537
0.00155982
0.00203261
0.00252273
0.0030168
0.00349953
0.00395362
0.00436009
0.00469927
0.00495256
0.00510182
0.00512488
-0.000932819
-0.000941035
-0.000865407
-0.000720668
-0.000509614
-0.000233604
0.000104469
0.000500332
0.000948189
0.00144052
0.00196786
0.00251914
0.00307987
0.00363334
0.00415982
0.00463677
0.00503966
0.00534415
0.00552589
0.0055568
-0.0013264
-0.00133821
-0.00125785
-0.001102
-0.000873267
-0.000572442
-0.000201927
0.000234414
0.000731115
0.00128086
0.00187407
0.00250023
0.0031436
0.0037863
0.00440606
0.00497595
0.00546501
0.0058405
0.0060684
0.00611141
-0.0018031
-0.00181986
-0.00173478
-0.00156697
-0.00131875
-0.000990099
-0.000582772
-0.000100081
0.000453005
0.00106972
0.00174139
0.00245543
0.00319846
0.00395129
0.00468915
0.00538024
0.00598531
0.00645965
0.00675399
0.00681615
-0.00237226