/*--------------------------------*- C++ -*----------------------------------*\
  =========                 |
  \\      /  F ield         | OpenFOAM: The Open Source CFD Toolbox
   \\    /   O peration     | Website:  https://openfoam.org
    \\  /    A nd           | Version:  10
     \\/     M anipulation  |
\*---------------------------------------------------------------------------*/
FoamFile
{
    format      ascii;
    class       surfaceScalarField;
    location    "2";
    object      phi;
}
// * * * * * * * * * * * * * * * * * * * * * * * * * * * * * * * * * * * * * //

dimensions      [0 3 -1 0 0 0 0];

internalField   nonuniform List<scalar> 
22800
(
-5.00039e-06
5.0832e-06
-8.27053e-08
-1.22082e-05
7.09563e-06
1.12225e-07
-1.94762e-05
7.08337e-06
1.84536e-07
-2.63283e-05
6.65586e-06
1.96329e-07
-3.25708e-05
6.05541e-06
1.87068e-07
-3.80456e-05
5.31054e-06
1.64168e-07
-4.26115e-05
4.43444e-06
1.31492e-07
-4.61441e-05
3.44156e-06
9.10825e-08
-4.85367e-05
2.34852e-06
4.40398e-08
-4.97015e-05
1.1732e-06
-8.46763e-09
-4.95732e-05
-6.37355e-08
-6.45261e-08
-4.81126e-05
-1.33635e-06
-1.24262e-07
-4.5312e-05
-2.61569e-06
-1.84852e-07
-4.12015e-05
-3.86647e-06
-2.44103e-07
-3.58545e-05
-5.04826e-06
-2.98726e-07
-2.93944e-05
-6.11613e-06
-3.43908e-07
-2.20004e-05
-7.02181e-06
-3.7226e-07
-1.39324e-05
-7.69706e-06
-3.70864e-07
-5.78241e-06
-7.852e-06
-2.9804e-07
-5.72678e-06
-5.56308e-08
-7.22888e-06
1.26473e-05
-3.35216e-07
-1.71232e-05
1.71165e-05
-1.26524e-07
-2.7049e-05
1.70509e-05
-4.17076e-08
-3.64017e-05
1.60198e-05
-1.12775e-08
-4.49037e-05
1.45538e-05
3.63923e-09
-5.23364e-05
1.27351e-05
8.0669e-09
-5.85096e-05
1.06028e-05
4.92062e-09
-6.32589e-05
8.19526e-06
-4.48249e-09
-6.64468e-05
5.55381e-06
-1.73876e-08
-6.79612e-05
2.72456e-06
-3.69735e-08
-6.77223e-05
-2.4126e-07
-6.13817e-08
-6.56817e-05
-3.28771e-06
-8.92206e-08
-6.18354e-05
-6.34203e-06
-1.19913e-07
-5.62268e-05
-9.32354e-06
-1.51499e-07
-4.89565e-05
-1.21376e-05
-1.80973e-07
-4.01909e-05
-1.46782e-05
-2.03525e-07
-3.01726e-05
-1.68287e-05
-2.11392e-07
-1.92579e-05
-1.84201e-05
-1.91649e-07
-8.20528e-06
-1.88048e-05
-9.97581e-08
-1.40903e-05
1.5828e-07
-7.78203e-06
2.08766e-05
-4.47305e-07
-1.84288e-05
2.80039e-05
-2.40626e-07
-2.9086e-05
2.78562e-05
-1.48147e-07
-3.91199e-05
2.61601e-05
-1.06424e-07
-4.82396e-05
2.37543e-05
-8.08261e-08
-5.62146e-05
2.07747e-05
-6.45575e-08
-6.28457e-05
1.72882e-05
-5.43715e-08
-6.79608e-05
1.33596e-05
-4.92796e-08
-7.14146e-05
9.05693e-06
-4.93123e-08
-7.30887e-05
4.45314e-06
-5.44528e-08
-7.28944e-05
-3.70753e-07
-6.47731e-08
-7.07745e-05
-5.32812e-06
-7.95182e-08
-6.67148e-05
-1.03035e-05
-9.81938e-08
-6.075e-05
-1.51693e-05
-1.19095e-07
-5.29751e-05
-1.97732e-05
-1.3932e-07
-4.35577e-05
-2.39417e-05
-1.53932e-07
-3.27514e-05
-2.74803e-05
-1.54707e-07
-2.09359e-05
-3.01076e-05
-1.28009e-07
-8.92715e-06
-3.07871e-05
-2.65286e-08
-2.32626e-05
2.4514e-07
-8.27202e-06
2.96748e-05
-5.26111e-07
-1.96177e-05
3.96611e-05
-3.1151e-07
-3.09684e-05
3.94183e-05
-2.11376e-07
-4.16512e-05
3.70066e-05
-1.63665e-07
-5.13636e-05
3.35986e-05
-1.32043e-07
-5.98674e-05
2.93881e-05
-1.09617e-07
-6.6958e-05
2.4472e-05
-9.31433e-08
-7.24589e-05
1.89422e-05
-8.17335e-08
-7.62192e-05
1.28927e-05
-7.55071e-08
-7.81126e-05
6.42141e-06
-7.48111e-08
-7.80399e-05
-3.63592e-07
-7.99106e-08
-7.59251e-05
-7.35321e-06
-8.97161e-08
-7.17355e-05
-1.43887e-05
-1.04392e-07
-6.54847e-05
-2.12978e-05
-1.22269e-07
-5.72491e-05
-2.78684e-05
-1.40331e-07
-4.7186e-05
-3.38516e-05
-1.53244e-07
-3.55535e-05
-3.89609e-05
-1.51898e-07
-2.27594e-05
-4.27806e-05
-1.2106e-07
-9.70521e-06
-4.38324e-05
-8.86927e-09
-3.32535e-05
2.85608e-07
-8.93979e-06
3.92208e-05
-6.06205e-07
-2.12211e-05
5.23221e-05
-3.79595e-07
-3.35017e-05
5.19699e-05
-2.71055e-07
-4.50543e-05
4.87769e-05
-2.17738e-07
-5.5559e-05
4.42843e-05
-1.81041e-07
-6.47688e-05
3.87517e-05
-1.53838e-07
-7.24743e-05
3.23103e-05
-1.32794e-07
-7.84957e-05
2.50807e-05
-1.17083e-07
-8.2677e-05
1.7181e-05
-1.0697e-07
-8.48831e-05
8.73061e-06
-1.03086e-07
-8.50028e-05
-1.37702e-07
-1.06153e-07
-8.29299e-05
-9.31289e-06
-1.13274e-07
-7.86048e-05
-1.85871e-05
-1.26712e-07
-7.20064e-05
-2.77516e-05
-1.44539e-07
-6.31779e-05
-3.65334e-05
-1.63471e-07
-5.22537e-05
-4.45983e-05
-1.77566e-07
-3.94918e-05
-5.15464e-05
-1.76371e-07
-2.53385e-05
-5.67918e-05
-1.42098e-07
-1.08204e-05
-5.83342e-05
-1.64001e-08
-4.4387e-05
3.13134e-07
-9.82679e-06
4.97497e-05
-7.02099e-07
-2.33393e-05
6.6293e-05
-4.58405e-07
-3.68376e-05
6.58076e-05
-3.3946e-07
-4.95222e-05
6.17413e-05
-2.79733e-07
-6.10515e-05
5.6051e-05
-2.37426e-07
-7.11696e-05
4.9075e-05
-2.05171e-07
-7.96648e-05
4.09851e-05
-1.79549e-07
-8.63573e-05
3.19329e-05
-1.59813e-07
-9.1089e-05
2.20591e-05
-1.46386e-07
-9.37155e-05
1.14975e-05
-1.40393e-07
-9.41206e-05
4.11822e-07
-1.44452e-07
-9.21448e-05
-1.114e-05
-1.48671e-07
-8.7698e-05
-2.28712e-05
-1.6271e-07
-8.07043e-05
-3.45623e-05
-1.82993e-07
-7.11507e-05
-4.58813e-05
-2.05743e-07
-5.91267e-05
-5.63981e-05
-2.24191e-07
-4.48763e-05
-6.55708e-05
-2.25945e-07
-2.88904e-05
-7.25883e-05
-1.89387e-07
-1.23682e-05
-7.48106e-05
-4.57356e-08
-5.70887e-05
3.33443e-07
-1.09615e-05
6.15355e-05
-8.24373e-07
-2.60405e-05
8.19307e-05
-5.58736e-07
-4.10756e-05
8.12693e-05
-4.26592e-07
-5.51756e-05
7.61997e-05
-3.58465e-07
-6.79735e-05
6.91575e-05
-3.0861e-07
-7.92071e-05
6.05781e-05
-2.69546e-07
-8.86687e-05
5.06846e-05
-2.37868e-07
-9.61864e-05
3.96636e-05
-2.12955e-07
-0.000101607
2.76755e-05
-1.95318e-07
-0.000104783
1.4859e-05
-1.86057e-07
-0.000105586
1.40158e-06
-1.87078e-07
-0.000103806
-1.2726e-05
-1.93759e-07
-9.93009e-05
-2.7165e-05
-2.11225e-07
-9.19142e-05
-4.1712e-05
-2.36977e-07
-8.15418e-05
-5.59863e-05
-2.67361e-07
-6.81895e-05
-6.94557e-05
-2.94724e-07
-5.2056e-05
-8.14003e-05
-3.03979e-07
-3.36722e-05
-9.07044e-05
-2.67789e-07
-1.44682e-05
-9.39117e-05
-1.02923e-07
-7.19024e-05
3.4553e-07
-1.23837e-05
7.49034e-05
-9.84233e-07
-2.94151e-05
9.9654e-05
-6.91857e-07
-4.63444e-05
9.87413e-05
-5.42648e-07
-6.21647e-05
9.24826e-05
-4.62589e-07
-7.64824e-05
8.38767e-05
-4.0147e-07
-8.90362e-05
7.3484e-05
-3.52061e-07
-9.96347e-05
6.15943e-05
-3.11222e-07
-0.000108128
4.84353e-05
-2.78585e-07
-0.000114382
3.41842e-05
-2.54659e-07
-0.000118258
1.89737e-05
-2.38739e-07
-0.000119593
2.95797e-06
-2.21178e-07
-0.00011817
-1.39023e-05
-2.46695e-07
-0.000113746
-3.13172e-05
-2.71974e-07
-0.000106053
-4.90977e-05
-3.07175e-07
-9.48437e-05
-6.68446e-05
-3.50792e-07
-7.99751e-05
-8.39299e-05
-3.94425e-07
-6.15368e-05
-9.94192e-05
-4.19366e-07
-4.0071e-05
-0.00011178
-3.89722e-07
-1.73075e-05
-0.000116475
-2.00452e-07
-8.95524e-05
3.42459e-07
-1.41527e-05
9.02526e-05
-1.1965e-06
-3.35946e-05
0.000119968
-8.72324e-07
-5.28252e-05
0.000118672
-7.0038e-07
-7.06941e-05
0.000110954
-6.02349e-07
-8.67837e-05
0.00010049
-5.23455e-07
-0.000100848
8.80062e-05
-4.57534e-07
-0.000112734
7.38816e-05
-4.02217e-07
-0.000122334
5.83937e-05
-3.57735e-07
-0.000129558
4.17332e-05
-3.25083e-07
-0.000134293
2.40133e-05
-3.05341e-07
-0.000136351
5.3205e-06
-3.03574e-07
-0.000135513
-1.4427e-05
-3.14105e-07
-0.000131416
-3.50688e-05
-3.451e-07
-0.000123637
-5.64826e-05
-3.94213e-07
-0.00011171
-7.83126e-05
-4.59332e-07
-9.52344e-05
-9.98738e-05
-5.31302e-07
-7.40716e-05
-0.000119995
-5.86827e-07
-4.86918e-05
-0.000136583
-5.77268e-07
-2.11916e-05
-0.000143611
-3.63802e-07
-0.000111052
3.08372e-07
-1.63597e-05
0.000108096
-1.48321e-06
-3.87747e-05
0.000143505
-1.12144e-06
-6.0779e-05
0.000141594
-9.17753e-07
-8.10466e-05
0.000132013
-7.91165e-07
-9.91483e-05
0.000119275
-6.83163e-07
-0.000114881
0.000104329
-5.9028e-07
-0.000128159
8.76717e-05
-5.11772e-07
-0.000138958
6.9642e-05
-4.48827e-07
-0.000147261
5.04387e-05
-4.02926e-07
-0.000153007
3.01345e-05
-3.7538e-07
-0.000156042
8.72302e-06
-3.66857e-07
-0.0001561
-1.39846e-05
-3.84724e-07
-0.000152724
-3.80194e-05
-4.26105e-07
-0.000145282
-6.34278e-05
-4.95921e-07
-0.000132991
-9.00095e-05
-5.94851e-07
-0.000115025
-0.000117125
-7.14703e-07
-9.07968e-05
-0.000143396
-8.2762e-07
-6.05072e-05
-0.000166006
-8.66624e-07
-2.66429e-05
-0.000176835
-6.40006e-07
-0.000137893
1.9796e-07
-1.91502e-05
0.000129125
-1.87924e-06
-4.5256e-05
0.000171083
-1.47238e-06
-7.05903e-05
0.00016815
-1.22142e-06
-9.36218e-05
0.000156091
-1.04709e-06
-0.00011394
0.000140483
-8.90065e-07
-0.00013143
0.000122571
-7.52648e-07
-0.000146129
0.000103008
-6.36964e-07
-0.000158143
8.22016e-05
-5.45356e-07
-0.000167578
6.03532e-05
-4.79152e-07
-0.000174476
3.74719e-05
-4.40077e-07
-0.000178744
1.34233e-05
-4.32337e-07
-0.000180121
-1.21579e-05
-4.4926e-07
-0.000178054
-3.95824e-05
-5.04108e-07
-0.000171675
-6.92033e-05
-6.0341e-07
-0.000159763
-0.000101168
-7.53375e-07
-0.000140829
-0.000135107
-9.5152e-07
-0.000113452
-0.000169604
-1.16878e-06
-7.7132e-05
-0.000201012
-1.31429e-06
-3.46018e-05
-0.000218253
-1.11248e-06
-0.000172411
-8.40264e-08
-2.27656e-05
0.000154333
-2.44271e-06
-5.35153e-05
0.000203812
-1.97922e-06
-8.28403e-05
0.000199127
-1.65209e-06
-0.000108993
0.000183638
-1.3942e-06
-0.000131652
0.000164294
-1.15287e-06
-0.000150871
0.000142732
-9.41643e-07
-0.000166885
0.000119789
-7.66981e-07
-0.000180003
9.5951e-05
-6.31893e-07
-0.000190519
7.14053e-05
-5.36088e-07
-0.000198639
4.60712e-05
-4.78878e-07
-0.0002044
1.96463e-05
-4.6263e-07
-0.000207609
-8.4644e-06
-4.84346e-07
-0.000207669
-3.89661e-05
-5.5628e-07
-0.00020349
-7.26889e-05
-6.93607e-07
-0.000193319
-0.000110423
-9.15101e-07
-0.000174694
-0.000152498
-1.23465e-06
-0.000144733
-0.000197931
-1.63458e-06
-0.000101346
-0.000242398
-2.0001e-06
-4.68745e-05
-0.000270795
-1.92973e-06
-0.000218652
-6.33329e-07
-2.76256e-05
0.000185234
-3.27518e-06
-6.43356e-05
0.000243255
-2.73317e-06
-9.8427e-05
0.000235491
-2.27229e-06
-0.000127998
0.000215071
-1.86195e-06
-0.000152965
0.000190734
-1.4733e-06
-0.000173683
0.000164591
-1.14039e-06
-0.000190697
0.000137677
-8.74455e-07
-0.000204607
0.000110537
-6.7612e-07
-0.000215978
8.33158e-05
-5.39524e-07
-0.000225261
5.5811e-05
-4.56809e-07
-0.000232705
2.75173e-05
-4.26094e-07
-0.000238301
-2.41821e-06
-4.50568e-07
-0.00024153
-3.52001e-05
-5.36696e-07
-0.000241202
-7.23036e-05
-7.13371e-07
-0.000235049
-0.000115556
-1.02105e-06
-0.000219339
-0.000166698
-1.5097e-06
-0.000188817
-0.000226245
-2.20784e-06
-0.000138099
-0.000290119
-2.99696e-06
-6.7282e-05
-0.000338314
-3.29773e-06
-0.000283932
-2.00238e-06
-3.44986e-05
0.000224296
-4.56304e-06
-7.90508e-05
0.000291699
-3.89142e-06
-0.000118766
0.00027838
-3.17445e-06
-0.000151864
0.000250645
-2.47511e-06
-0.000178811
0.000219507
-1.82602e-06
-0.000200475
0.000187551
-1.29534e-06
-0.000217855
0.000155951
-8.94237e-07
-0.000231951
0.000125244
-6.10714e-07
-0.000243691
9.54788e-05
-4.2352e-07
-0.00025385
6.62777e-05
-3.07745e-07
-0.000262998
3.69202e-05
-2.54896e-07
-0.000271457
6.30942e-06
-2.68426e-07
-0.000279022
-2.72856e-05
-3.49865e-07
-0.000284721
-6.60602e-05
-5.43672e-07
-0.000286084
-0.000113275
-9.17795e-07
-0.000278093
-0.000173109
-1.57959e-06
-0.000252073
-0.00024957
-2.69428e-06
-0.000196393
-0.000341571
-4.22836e-06
-0.000104254
-0.000424991
-5.4626e-06
-0.000382959
-5.22644e-06
-4.48791e-05
0.000275842
-6.66698e-06
-0.000100027
0.000352574
-5.72723e-06
-0.00014612
0.000328953
-4.47983e-06
-0.000182387
0.000290126
-3.21444e-06
-0.000210449
0.000249671
-2.1023e-06
-0.000231992
0.000210354
-1.2591e-06
-0.000248643
0.000173273
-6.71454e-07
-0.000261914
0.000138798
-2.82289e-07
-0.000273178
0.000106766
-2.28043e-08
-0.000283585
7.65944e-05
8.97236e-08
-0.000294133
4.73234e-05
1.44745e-07
-0.000305604
1.76117e-05
1.6876e-07
-0.000318515
-1.45221e-05
1.48088e-07
-0.00033269
-5.19732e-05
8.74931e-08
-0.000346375
-9.94586e-05
-1.31818e-07
-0.000354112
-0.000164568
-8.0359e-07
-0.000343411
-0.000257989
-2.28322e-06
-0.000291994
-0.000388028
-4.96004e-06
-0.000175502
-0.000533062
-8.42171e-06
-0.000545654
-1.28069e-05
-6.19263e-05
0.000347995
-1.02271e-05
-0.000131662
0.000431071
-8.76128e-06
-0.000184124
0.000387736
-6.32095e-06
-0.0002221
0.000331984
-3.88294e-06
-0.000249423
0.000278943
-1.9482e-06
-0.000268955
0.000230525
-6.39119e-07
-0.000283107
0.000187273
1.51742e-07
-0.000293972
0.000149106
5.57081e-07
-0.000303386
0.000115407
7.73122e-07
-0.000312913
8.52398e-05
8.81018e-07
-0.000323983
5.74482e-05
9.44951e-07
-0.000338
3.06085e-05
1.02008e-06
-0.000356477
2.80273e-06
1.15295e-06
-0.000380943
-2.88928e-05
1.3857e-06
-0.000412066
-7.00901e-05
1.75446e-06
-0.000446569
-0.000132113
2.04839e-06
-0.000469778
-0.000236303
1.5226e-06
-0.000443151
-0.000413502
-1.15227e-06
-0.000305167
-0.000663538
-7.50837e-06
-0.000826371
-2.44498e-05
-9.11342e-05
0.000457007
-1.78774e-05
-0.00018224
0.000535281
-1.31045e-05
-0.000238482
0.000452068
-8.09035e-06
-0.000273716
0.000370781
-3.56328e-06
-0.000296149
0.000301682
-3.05797e-07
-0.000309948
0.000242758
1.56551e-06
-0.000318325
0.000193214
2.43639e-06
-0.000324013
0.000152068
2.72567e-06
-0.000329222
0.000117878
2.73793e-06
-0.000335766
8.91095e-05
2.6747e-06
-0.000345362
6.438e-05
2.6639e-06
-0.000359933
4.23556e-05
2.82331e-06
-0.00038199
2.1523e-05
3.33686e-06
-0.000415542
1.87195e-07
4.47167e-06
-0.000465467
-2.70573e-05
6.89267e-06
-0.00053435
-7.42563e-05
1.1026e-05
-0.000609627
-0.000177485
1.6459e-05
-0.000630555
-0.000413295
2.07208e-05
-0.000484473
-0.000828715
1.90961e-05
-0.00128434
-2.65075e-05
-0.000155431
0.000640784
-2.83463e-05
-0.000266627
0.000671598
-2.5121e-05
-0.000310197
0.000507541
-1.19035e-05
-0.000326347
0.000387617
-6.85818e-07
-0.000329429
0.000299293
5.47034e-06
-0.000325376
0.000230827
7.87906e-06
-0.000318216
0.000177828
8.22587e-06
-0.000311048
0.000137232
7.66769e-06
-0.000305932
0.000105889
6.87302e-06
-0.000304241
8.12164e-05
6.20233e-06
-0.000307308
6.16179e-05
5.82914e-06
-0.000316782
4.59011e-05
5.92925e-06
-0.000336031
3.38392e-05
6.93284e-06
-0.000369251
2.3776e-05
9.63028e-06
-0.000425442
1.25632e-05
1.65711e-05
-0.00051285
-1.67659e-05
2.99175e-05
-0.000631343
-0.000110619
5.16271e-05
-0.000694376
-0.000424502
7.42388e-05
-0.000594978
-0.00101084
8.27317e-05
-0.00184078
-3.85359e-05
-0.000471295
0.0011848
-7.27241e-05
-0.000403447
0.000623122
-1.93724e-05
-0.00025377
0.000353688
4.17604e-06
-0.000140217
0.00025746
1.66049e-05
-5.49893e-05
0.000191909
2.21571e-05
1.20487e-05
0.000141412
2.23762e-05
6.46156e-05
0.000105354
1.99068e-05
0.000105037
8.00626e-05
1.67481e-05
0.000135356
6.16966e-05
1.38733e-05
0.000156967
4.78591e-05
1.1746e-05
0.000170561
3.76524e-05
1.03715e-05
0.000176611
3.00163e-05
9.83479e-06
0.00017288
2.64671e-05
1.11034e-05
0.000158296
2.37757e-05
1.45837e-05
0.00012167
2.45358e-05
2.46538e-05
5.57988e-05
3.17145e-06
4.59339e-05
-4.21078e-05
-9.16324e-05
7.89206e-05
-0.00017402
-0.000394786
0.000102197
-0.000197488
-0.00109182
0.000104442
-0.00188271
-0.000155557
0.00128493
-0.000100125
0.00197915
-7.11034e-05
0.00237692
-4.40789e-05
0.00265271
-1.83287e-05
0.002845
-3.81526e-07
0.00297599
1.04247e-05
0.00306725
1.40903e-05
0.00313292
1.43919e-05
0.00318134
1.32758e-05
0.00321759
1.16097e-05
0.00324491
1.03374e-05
0.00326606
8.86257e-06
0.00328279
9.74308e-06
0.00329669
9.86588e-06
0.00330288
1.83551e-05
0.00327731
2.87346e-05
0.00313429
5.1385e-05
0.00266598
7.35315e-05
0.00158764
-1.34827e-05
-0.000295069
-6.90418e-06
6.94533e-06
-1.2385e-07
-1.67671e-05
9.98329e-06
-8.13297e-09
-2.66255e-05
9.99432e-06
4.86182e-08
-3.58776e-05
9.37591e-06
7.24766e-08
-4.427e-05
8.50142e-06
7.80032e-08
-5.1597e-05
7.42077e-06
7.0465e-08
-5.7675e-05
6.1563e-06
5.30995e-08
-6.23425e-05
4.73059e-06
2.80455e-08
-6.54653e-05
3.16826e-06
-1.43651e-09
-6.69307e-05
1.49881e-06
-4.19267e-08
-6.66629e-05
-2.49216e-07
-8.31157e-08
-6.46195e-05
-2.04038e-06
-1.2726e-07
-6.07988e-05
-3.83275e-06
-1.72823e-07
-5.52476e-05
-5.57816e-06
-2.17071e-07
-4.80682e-05
-7.22169e-06
-2.56507e-07
-3.94231e-05
-8.70274e-06
-2.86266e-07
-2.95404e-05
-9.95542e-06
-2.99462e-07
-1.87463e-05
-1.0879e-05
-2.85959e-07
-7.79829e-06
-1.10223e-05
-2.23741e-07
-7.7787e-06
-7.52238e-08
-1.03045e-05
1.72056e-05
-2.9101e-07
-2.42069e-05
2.39422e-05
-1.83076e-07
-3.8066e-05
2.39161e-05
-1.04415e-07
-5.10654e-05
2.24268e-05
-6.27024e-08
-6.2829e-05
2.03084e-05
-3.97405e-08
-7.30632e-05
1.76925e-05
-2.94677e-08
-8.15135e-05
1.464e-05
-2.85756e-08
-8.7962e-05
1.12099e-05
-3.53244e-08
-9.22278e-05
7.46508e-06
-4.84533e-08
-9.41707e-05
3.47215e-06
-6.73439e-08
-9.36945e-05
-6.95155e-07
-9.16386e-08
-9.07486e-05
-4.95549e-06
-1.20019e-07
-8.53402e-05
-9.21027e-06
-1.50801e-07
-7.754e-05
-1.33484e-05
-1.81436e-07
-6.74927e-05
-1.72417e-05
-2.08213e-07
-5.54253e-05
-2.0748e-05
-2.25707e-07
-4.16575e-05
-2.37086e-05
-2.26062e-07
-2.66533e-05
-2.58768e-05
-1.98084e-07
-1.14092e-05
-2.62476e-05
-1.18509e-07
-1.90766e-05
4.7017e-08
-1.11722e-05
2.83213e-05
-3.90786e-07
-2.62152e-05
3.9035e-05
-2.90416e-07
-4.11782e-05
3.8936e-05
-2.05062e-07
-5.51991e-05
3.64955e-05
-1.54264e-07
-6.78819e-05
3.30314e-05
-1.21127e-07
-7.89151e-05
2.87607e-05
-9.95071e-08
-8.80303e-05
2.37871e-05
-8.62509e-08
-9.49986e-05
1.8209e-05
-7.99595e-08
-9.96309e-05
1.21281e-05
-8.00612e-08
-0.000101778
5.65124e-06
-8.62628e-08
-0.000101334
-1.10611e-06
-9.82045e-08
-9.82372e-05
-8.01673e-06
-1.14881e-07
-9.24845e-05
-1.49261e-05
-1.3499e-07
-8.41372e-05
-2.16585e-05
-1.56177e-07
-7.3335e-05
-2.80085e-05
-1.74759e-07
-6.03087e-05
-3.37431e-05
-1.85113e-07
-4.5394e-05
-3.85991e-05
-1.78892e-07
-2.90873e-05
-4.21674e-05
-1.44141e-07
-1.24639e-05
-4.28413e-05
-5.62472e-08
-3.14062e-05
1.1078e-07
-1.1905e-05
4.01754e-05
-4.75164e-07
-2.79661e-05
5.51639e-05
-3.79291e-07
-4.39285e-05
5.4973e-05
-2.86034e-07
-5.88765e-05
5.1507e-05
-2.27105e-07
-7.23977e-05
4.66062e-05
-1.85766e-07
-8.41702e-05
4.05793e-05
-1.55825e-07
-9.39183e-05
3.35762e-05
-1.3409e-07
-0.000101408
2.57363e-05
-1.19348e-07
-0.000106444
1.71999e-05
-1.11294e-07
-0.000108868
8.11065e-06
-1.09893e-07
-0.000108561
-1.37883e-06
-1.14935e-07
-0.000105439
-1.11027e-05
-1.25421e-07
-9.94757e-05
-2.08534e-05
-1.40421e-07
-9.07062e-05
-3.03927e-05
-1.57641e-07
-7.92473e-05
-3.94344e-05
-1.73231e-07
-6.53175e-05
-4.76451e-05
-1.81076e-07
-4.92589e-05
-5.46376e-05
-1.71913e-07
-3.16042e-05
-5.98105e-05
-1.32594e-07
-1.35416e-05
-6.08772e-05
-3.56256e-08
-4.48037e-05
1.41482e-07
-1.28934e-05
5.30274e-05
-5.64784e-07
-3.03033e-05
7.26648e-05
-4.70676e-07
-4.75928e-05
7.23597e-05
-3.68212e-07
-6.37714e-05
6.77685e-05
-3.00713e-07
-7.84024e-05
6.13074e-05
-2.51216e-07
-9.11521e-05
5.33886e-05
-2.13432e-07
-0.000101739
4.42148e-05
-1.84168e-07
-0.000109927
3.39691e-05
-1.62365e-07
-0.000115515
2.28287e-05
-1.47945e-07
-0.000118335
1.09688e-05
-1.41138e-07
-0.00011825
-1.42821e-06
-1.41936e-07
-0.000115145
-1.41719e-05
-1.48883e-07
-0.000108956
-2.7007e-05
-1.61819e-07
-9.9675e-05
-3.96397e-05
-1.78415e-07
-8.73771e-05
-5.17013e-05
-1.94491e-07
-7.22522e-05
-6.27445e-05
-2.03167e-07
-5.46426e-05
-7.22298e-05
-1.93763e-07
-3.51307e-05
-7.93136e-05
-1.50907e-07
-1.5069e-05
-8.09125e-05
-4.29357e-08
-5.97136e-05
1.54098e-07
-1.42047e-05
6.7202e-05
-6.71965e-07
-3.33884e-05
9.19677e-05
-5.77621e-07
-5.24144e-05
9.15097e-05
-4.63542e-07
-7.0193e-05
8.5653e-05
-3.85674e-07
-8.62569e-05
7.74603e-05
-3.26476e-07
-0.000100261
6.7467e-05
-2.7961e-07
-0.000111922
5.59387e-05
-2.41975e-07
-0.000121007
4.31062e-05
-2.1271e-07
-0.000127313
2.91812e-05
-1.92003e-07
-0.000130667
1.43625e-05
-1.80458e-07
-0.000130912
-1.14891e-06
-1.78477e-07
-0.000127888
-1.71616e-05
-1.83238e-07
-0.000121479
-3.33829e-05
-1.96379e-07
-0.000111608
-4.94781e-05
-2.15347e-07
-9.82801e-05
-6.49994e-05
-2.35475e-07
-8.16287e-05
-7.93713e-05
-2.4882e-07
-6.19782e-05
-9.18637e-05
-2.42582e-07
-3.99684e-05
-0.000101315
-1.97839e-07
-1.7178e-05
-0.000103672
-7.68588e-08
-7.67093e-05
1.51123e-07
-1.58848e-05
8.30706e-05
-8.08199e-07
-3.73276e-05
0.000113564
-7.12676e-07
-5.85469e-05
0.000112886
-5.83318e-07
-7.83261e-05
0.000105565
-4.91576e-07
-9.61629e-05
9.54077e-05
-4.19243e-07
-0.000111705
8.30995e-05
-3.60132e-07
-0.000124677
6.89848e-05
-3.11415e-07
-0.00013486
5.33483e-05
-2.7256e-07
-0.000142063
3.64329e-05
-2.44054e-07
-0.000146109
1.84491e-05
-2.26946e-07
-0.00014683
-3.91615e-07
-2.22605e-07
-0.000144001
-1.99591e-05
-2.25934e-07
-0.000137437
-3.9916e-05
-2.41538e-07
-0.000126961
-5.99246e-05
-2.66292e-07
-0.00011246
-7.94726e-05
-2.95037e-07
-9.39609e-05
-9.7847e-05
-3.1851e-07
-7.17292e-05
-0.000114078
-3.20914e-07
-4.6457e-05
-0.000126577
-2.77934e-07
-2.00259e-05
-0.000130062
-1.43431e-07
-9.65181e-05
1.28411e-07
-1.79963e-05
0.000101069
-9.86759e-07
-4.22597e-05
0.000138026
-8.8996e-07
-6.61858e-05
0.000137009
-7.39913e-07
-8.83982e-05
0.000127944
-6.28413e-07
-0.000108358
0.000115503
-5.36895e-07
-0.000125716
0.000100566
-4.59831e-07
-0.000140225
8.3578e-05
-3.95045e-07
-0.0001517
6.48867e-05
-3.42531e-07
-0.000159979
4.47607e-05
-3.03073e-07
-0.000164891
2.34e-05
-2.78217e-07
-0.000166294
1.06562e-06
-2.74946e-07
-0.00016384
-2.23863e-05
-2.73407e-07
-0.000157287
-4.64471e-05
-2.93993e-07
-0.0001463
-7.08903e-05
-3.28892e-07
-0.000130579
-9.51714e-05
-3.7268e-07
-0.000109959
-0.000118447
-4.14776e-07
-8.45664e-05
-0.000139455
-4.35384e-07
-5.51069e-05
-0.000156024
-4.022e-07
-2.38565e-05
-0.000161258
-2.54773e-07
-0.000120109
7.69224e-08
-2.06317e-05
0.00012173
-1.22543e-06
-4.83846e-05
0.000166035
-1.12801e-06
-7.56043e-05
0.000164478
-9.48969e-07
-0.000100716
0.000153261
-8.08016e-07
-0.000123148
0.000138099
-6.87238e-07
-0.000142579
0.000120122
-5.82793e-07
-0.00015882
9.99103e-05
-4.93823e-07
-0.000171754
7.78837e-05
-4.21136e-07
-0.000181284
5.43313e-05
-3.65623e-07
-0.00018729
2.94265e-05
-3.26037e-07
-0.000189548
3.31128e-06
-2.9092e-07
-0.000187788
-2.4144e-05
-3.16402e-07
-0.000181558
-5.26748e-05
-3.479e-07
-0.000170328
-8.21155e-05
-3.98405e-07
-0.000153518
-0.000111975
-4.66287e-07
-0.000130629
-0.000141326
-5.40381e-07
-0.000101491
-0.000168584
-5.96005e-07
-6.67175e-05
-0.000190786
-5.88945e-07
-2.90671e-05
-0.000198836
-4.36927e-07
-0.00014886
-7.66071e-09
-2.39311e-05
0.000145728
-1.55029e-06
-5.59965e-05
0.000198432
-1.45336e-06
-8.71916e-05
0.000195987
-1.23189e-06
-0.000115699
0.000182022
-1.04524e-06
-0.000140935
0.00016353
-8.7851e-07
-0.000162645
0.000141973
-7.31498e-07
-0.000180747
0.000118107
-6.05759e-07
-0.000195248
9.24388e-05
-5.03408e-07
-0.00020616
6.52666e-05
-4.26046e-07
-0.000213433
3.67003e-05
-3.76466e-07
-0.000216914
6.79029e-06
-3.64235e-07
-0.000216232
-2.4853e-05
-3.58121e-07
-0.00021083
-5.81094e-05
-3.93519e-07
-0.000199899
-9.30782e-05
-4.64312e-07
-0.000182437
-0.000129464
-5.68231e-07
-0.000157396
-0.000166387
-6.94745e-07
-0.000124023
-0.000201971
-8.1429e-07
-8.2581e-05
-0.000232228
-8.65513e-07
-3.63501e-05
-0.000244979
-7.27538e-07
-0.000184808
-2.04459e-07
-2.81133e-05
0.000173964
-2.00172e-06
-6.55401e-05
0.000236292
-1.90587e-06
-0.000101513
0.000232358
-1.61898e-06
-0.000133933
0.000214754
-1.35866e-06
-0.000162247
0.000192072
-1.11806e-06
-0.000186342
0.000166219
-9.04156e-07
-0.000206322
0.000138173
-7.22346e-07
-0.000222391
0.000108539
-5.75952e-07
-0.000234744
7.76068e-05
-4.65984e-07
-0.000243482
4.53897e-05
-3.91597e-07
-0.000248487
1.1712e-05
-3.49602e-07
-0.000249463
-2.39671e-05
-3.5867e-07
-0.00024567
-6.20009e-05
-4.05917e-07
-0.000235984
-0.000102865
-5.03264e-07
-0.000218827
-0.000146716
-6.5768e-07
-0.000192282
-0.000193018
-8.65661e-07
-0.000154511
-0.000239814
-1.09677e-06
-0.000104863
-0.000281922
-1.26795e-06
-4.69551e-05
-0.000302805
-1.19509e-06
-0.000231273
-5.73661e-07
-3.35334e-05
0.000207699
-2.64474e-06
-7.77069e-05
0.000281034
-2.54758e-06
-0.000119409
0.000274561
-2.15395e-06
-0.000156242
0.000251964
-1.77068e-06
-0.00018779
0.000223876
-1.40922e-06
-0.000214199
0.000192777
-1.0898e-06
-0.000235882
0.000159912
-8.23334e-07
-0.000253344
0.000125983
-6.13707e-07
-0.000267055
9.12407e-05
-4.5895e-07
-0.000277341
5.55521e-05
-3.55757e-07
-0.000284268
1.84796e-05
-3.03409e-07
-0.000287591
-2.08318e-05
-2.96391e-07
-0.000286513
-6.32882e-05
-3.47254e-07
-0.000279588
-0.000110013
-4.70053e-07
-0.000264526
-0.000162008
-6.85719e-07
-0.000238127
-0.000219641
-1.00986e-06
-0.000196647
-0.000281503
-1.42501e-06
-0.000137354
-0.000341386
-1.82981e-06
-6.33717e-05
-0.000376774
-1.94211e-06
-0.000294027
-1.25106e-06
-4.07909e-05
0.000248803
-3.58804e-06
-9.36051e-05
0.000334593
-3.47747e-06
-0.000142146
0.00032373
-2.89945e-06
-0.000183802
0.000294063
-2.30439e-06
-0.000218505
0.000258848
-1.74269e-06
-0.000246869
0.000221258
-1.25748e-06
-0.000269781
0.000182815
-8.66431e-07
-0.000288186
0.000144281
-5.69534e-07
-0.000302944
0.000105816
-3.56332e-07
-0.000314719
6.70843e-05
-2.14725e-07
-0.000323867
2.73372e-05
-1.35479e-07
-0.000330341
-1.46956e-05
-1.1303e-07
-0.000333435
-6.05772e-05
-1.53431e-07
-0.000331526
-0.000112352
-2.82981e-07
-0.000321608
-0.000172399
-5.4782e-07
-0.000298807
-0.000242942
-1.01085e-06
-0.000256268
-0.000324547
-1.70276e-06
-0.000186925
-0.000411191
-2.53458e-06
-9.08778e-05
-0.00047302
-3.09948e-06
-0.000384332
-2.57576e-06
-5.09417e-05
0.000300201
-5.01903e-06
-0.000115065
0.000399679
-4.85492e-06
-0.000171673
0.000381103
-3.93986e-06
-0.000218295
0.000341179
-2.96949e-06
-0.00025565
0.00029645
-2.07322e-06
-0.000285142
0.000250786
-1.33223e-06
-0.000308362
0.000205907
-7.66219e-07
-0.000326862
0.000162532
-3.60478e-07
-0.000342014
0.000120634
-8.96715e-08
-0.000354942
7.96017e-05
1.02948e-07
-0.00036642
3.83302e-05
2.29723e-07
-0.000376811
-4.86992e-06
2.96863e-07
-0.000385791
-5.22525e-05
3.0547e-07
-0.000391957
-0.00010695
2.20226e-07
-0.000391958
-0.000173245
-7.01255e-08
-0.00037924
-0.000256639
-5.99829e-07
-0.000342471
-0.00036239
-1.61992e-06
-0.000266361
-0.000488367
-3.16205e-06
-0.000141518
-0.000598574
-4.75211e-06
-0.000525845
-5.23088e-06
-6.59377e-05
0.000366743
-7.27199e-06
-0.000145205
0.000480155
-6.93561e-06
-0.000211
0.000447793
-5.37342e-06
-0.000262101
0.000392789
-3.72363e-06
-0.000300856
0.000335373
-2.27008e-06
-0.000329929
0.000279747
-1.14721e-06
-0.000351898
0.000227568
-3.63265e-07
-0.000369095
0.000179289
1.57011e-07
-0.000383514
0.000134515
5.15839e-07
-0.000396832
9.22671e-05
7.42101e-07
-0.000410353
5.10911e-05
9.04871e-07
-0.000425095
8.98974e-06
1.05107e-06
-0.000441569
-3.68213e-05
1.19126e-06
-0.000459359
-9.03852e-05
1.31252e-06
-0.000475978
-0.000158066
1.30806e-06
-0.000484286
-0.000250039
9.03246e-07
-0.000467948
-0.000380607
-4.04838e-07
-0.000397663
-0.00056076
-2.85148e-06
-0.000239905
-0.000758188
-6.5656e-06
-0.000768032
-1.05248e-05
-8.98318e-05
0.000457266
-1.09182e-05
-0.000189547
0.000581256
-1.01477e-05
-0.000264729
0.000523942
-7.28824e-06
-0.000318451
0.000447009
-4.38104e-06
-0.000356045
0.000373032
-2.01248e-06
-0.000382016
0.000305455
-3.76265e-07
-0.000400233
0.00024525
6.87201e-07
-0.000413955
0.000192261
1.30758e-06
-0.000425832
0.000145512
1.65299e-06
-0.000438073
0.000103521
1.86875e-06
-0.00045259
6.44896e-05
2.06347e-06
-0.000471187
2.62795e-05
2.32704e-06
-0.000495711
-1.38842e-05
2.73991e-06
-0.000527868
-6.01999e-05
3.35709e-06
-0.000568182
-0.000120158
4.1607e-06
-0.000611947
-0.000209068
4.84243e-06
-0.000639541
-0.000355969
4.47838e-06
-0.000599296
-0.000603643
1.48592e-06
-0.000408886
-0.00095114
-4.96742e-06
-0.0011834
-1.79649e-05
-0.000127412
0.000584256
-1.74547e-05
-0.000257883
0.000713372
-1.47497e-05
-0.000340131
0.000607475
-9.37556e-06
-0.00039088
0.000498546
-4.3511e-06
-0.000421679
0.000404122
-5.96398e-07
-0.000439317
0.000322881
1.77654e-06
-0.000449077
0.00025443
3.01562e-06
-0.000455245
0.000197604
3.54989e-06
-0.000461092
0.000150368
3.72989e-06
-0.000469179
0.000110473
3.80922e-06
-0.000481789
7.57882e-05
3.97507e-06
-0.000501356
4.4271e-05
4.39896e-06
-0.000531053
1.38557e-05
5.29374e-06
-0.000575315
-1.8408e-05
6.94261e-06
-0.000639438
-5.886e-05
9.71806e-06
-0.000723961
-0.000127224
1.37045e-05
-0.000808387
-0.00027287
1.77855e-05
-0.000810954
-0.000599273
1.8918e-05
-0.000591527
-0.00116331
1.18361e-05
-0.00177858
-2.28599e-05
-0.000191357
0.000773966
-2.66989e-05
-0.000361169
0.000881795
-2.37319e-05
-0.000438691
0.000685815
-1.27225e-05
-0.00046771
0.000529679
-2.80011e-06
-0.000471318
0.000409853
3.34649e-06
-0.000461892
0.000314876
6.45914e-06
-0.000447472
0.000240684
7.55191e-06
-0.000433429
0.000183647
7.58128e-06
-0.000422952
0.000139548
7.21587e-06
-0.000418015
0.000104875
6.863e-06
-0.000420243
7.70404e-05
6.80498e-06
-0.000431503
5.41546e-05
7.3063e-06
-0.000455444
3.58869e-05
8.84294e-06
-0.000495535
1.92652e-05
1.20478e-05
-0.000560348
4.28951e-06
1.82344e-05
-0.000650659
-3.60573e-05
2.90616e-05
-0.000753028
-0.000162211
4.3338e-05
-0.000757087
-0.000574298
5.33224e-05
-0.000574538
-0.00130604
4.2914e-05
-0.00234569
-4.59665e-05
-0.000685608
0.00143537
-4.85191e-05
-0.000616567
0.000818115
-2.47337e-05
-0.000424565
0.000504225
-6.23497e-06
-0.000262009
0.000378191
5.53706e-06
-0.000127553
0.000285306
1.22471e-05
-1.55473e-05
0.000210392
1.48546e-05
7.47337e-05
0.000155556
1.47543e-05
0.00014511
0.000116556
1.34632e-05
0.000198293
8.82851e-05
1.19532e-05
0.000237303
6.69425e-05
1.06681e-05
0.000263411
5.13199e-05
9.98385e-06
0.000278206
3.90947e-05
1.00996e-05
0.000280226
3.31194e-05
1.18509e-05
0.000271339
2.69796e-05
1.57562e-05
0.000247117
2.8509e-05
2.4657e-05
0.000213463
2.56522e-06
4.09651e-05
0.000176689
-0.000108884
6.23678e-05
9.41036e-05
-0.000462898
7.33817e-05
0.000166125
-0.00131779
4.41716e-05
-0.00221665
-0.000118467
0.00140204
-6.67935e-05
0.00220577
-5.67183e-05
0.00270683
-4.09163e-05
0.00308939
-2.26979e-05
0.00338088
-6.56468e-06
0.00359778
3.92013e-06
0.00375814
9.28497e-06
0.00387786
1.12219e-05
0.00396807
1.13557e-05
0.00403604
1.05812e-05
0.00408785
9.84786e-06
0.00412687
8.93256e-06
0.00416
9.74133e-06
0.00418632
1.052e-05
0.00421667
1.65136e-05
0.004224
2.39687e-05
0.00413122
3.52823e-05
0.00369159
5.02694e-05
0.00235099
9.3255e-06
-0.00016073
-7.10342e-06
7.11987e-06
-1.40297e-07
-1.73216e-05
1.03129e-05
-1.02829e-07
-2.75424e-05
1.03304e-05
-6.10769e-08
-3.71222e-05
9.687e-06
-3.46862e-08
-4.58026e-05
8.77852e-06