/*--------------------------------*- C++ -*----------------------------------*\
  =========                 |
  \\      /  F ield         | OpenFOAM: The Open Source CFD Toolbox
   \\    /   O peration     | Website:  https://openfoam.org
    \\  /    A nd           | Version:  10
     \\/     M anipulation  |
\*---------------------------------------------------------------------------*/
FoamFile
{
    format      ascii;
    class       volVectorField;
    location    "2";
    object      U;
}
// * * * * * * * * * * * * * * * * * * * * * * * * * * * * * * * * * * * * * //

dimensions      [0 1 -1 0 0 0 0];

internalField   nonuniform List<vector> 
8000
(
(-0.000237172 0.000237823 -4.83802e-06)
(-0.000845812 0.000333649 8.20763e-06)
(-0.0015862 0.000333466 1.27288e-05)
(-0.00229742 0.000313524 1.32464e-05)
(-0.0029543 0.00028557 1.24775e-05)
(-0.00354194 0.000250855 1.09116e-05)
(-0.00404551 0.000209934 8.78108e-06)
(-0.0044517 0.000163446 6.20817e-06)
(-0.00474893 0.000112151 3.26243e-06)
(-0.00492747 5.68714e-05 -6.60438e-08)
(-0.00497965 -1.39235e-06 -3.61445e-06)
(-0.00490021 -6.14991e-05 -7.29896e-06)
(-0.00468677 -0.000121984 -1.10401e-05)
(-0.00434039 -0.000181181 -1.47026e-05)
(-0.00386621 -0.000237158 -1.80943e-05)
(-0.0032741 -0.000287773 -2.09339e-05)
(-0.002579 -0.000330754 -2.27801e-05)
(-0.00179957 -0.000362939 -2.2808e-05)
(-0.000971394 -0.00037055 -1.82477e-05)
(-0.00027584 -0.000269673 -3.08393e-06)
(-0.000343579 0.000865223 -2.0181e-05)
(-0.00119832 0.00118213 -6.88297e-06)
(-0.00221245 0.00117857 -1.5105e-06)
(-0.00318436 0.00110757 3.88224e-07)
(-0.00408036 0.001007 1.14618e-06)
(-0.00487988 0.000882155 1.2662e-06)
(-0.00556256 0.000735515 9.79279e-07)
(-0.00611061 0.00056963 3.5894e-07)
(-0.00650893 0.000387305 -6.08492e-07)
(-0.00674505 0.000191661 -1.85209e-06)
(-0.00680933 -1.37791e-05 -3.359e-06)
(-0.00669533 -0.000224915 -5.07689e-06)
(-0.00640036 -0.000436827 -6.96483e-06)
(-0.00592633 -0.000643776 -8.91113e-06)
(-0.00528035 -0.000839128 -1.07429e-05)
(-0.00447577 -0.0010155 -1.21789e-05)
(-0.00353289 -0.00116484 -1.27514e-05)
(-0.00247706 -0.00127566 -1.16118e-05)
(-0.00135414 -0.00130219 -5.75001e-06)
(-0.000392042 -0.000968009 1.05642e-05)
(-0.000369253 0.00166706 -2.68688e-05)
(-0.00128952 0.00224322 -1.39043e-05)
(-0.00238034 0.00223265 -8.0607e-06)
(-0.00342348 0.00209728 -5.60869e-06)
(-0.00438466 0.00190495 -4.17731e-06)
(-0.00524239 0.00166649 -3.29175e-06)
(-0.00597524 0.00138713 -2.75162e-06)
(-0.00656459 0.00107199 -2.49943e-06)
(-0.00699459 0.000726533 -2.53993e-06)
(-0.00725207 0.000356693 -2.87255e-06)
(-0.00732666 -3.09704e-05 -3.50225e-06)
(-0.007211 -0.000428932 -4.39071e-06)
(-0.00690146 -0.00082821 -5.51221e-06)
(-0.00639896 -0.00121824 -6.77291e-06)
(-0.00570988 -0.00158672 -8.00857e-06)
(-0.00484732 -0.00191978 -8.93247e-06)
(-0.00383215 -0.002202 -9.0509e-06)
(-0.00269103 -0.00241112 -7.46996e-06)
(-0.00147259 -0.00246382 -9.96017e-07)
(-0.000426354 -0.00185665 1.60389e-05)
(-0.000392175 0.00251951 -3.14344e-05)
(-0.00137185 0.00337087 -1.80182e-05)
(-0.00253438 0.00335139 -1.17142e-05)
(-0.00364521 0.00314701 -8.91903e-06)
(-0.00466862 0.0028576 -7.14377e-06)
(-0.00558252 0.0024995 -5.90492e-06)
(-0.00636483 0.00208083 -5.00109e-06)
(-0.00699648 0.0016094 -4.38009e-06)
(-0.00746115 0.0010933 -4.05112e-06)
(-0.007745 0.000541099 -4.03685e-06)
(-0.00783677 -3.7819e-05 -4.35525e-06)
(-0.00772763 -0.000632962 -4.95085e-06)
(-0.00741207 -0.00123133 -5.83418e-06)
(-0.00688898 -0.0018176 -6.91452e-06)
(-0.00616271 -0.00237359 -8.02201e-06)
(-0.00524484 -0.00287829 -8.84786e-06)
(-0.00415587 -0.00330787 -8.84711e-06)
(-0.0029236 -0.00362787 -7.02621e-06)
(-0.00160126 -0.00371376 1.10103e-07)
(-0.000463498 -0.00281427 1.85429e-05)
(-0.000423686 0.00343387 -3.60299e-05)
(-0.00148344 0.00458257 -2.18607e-05)
(-0.00274187 0.00455295 -1.50438e-05)
(-0.00394343 0.00427414 -1.19388e-05)
(-0.00505012 0.0038809 -9.89251e-06)
(-0.00603901 0.00339566 -8.39981e-06)
(-0.00688739 0.00282974 -7.25171e-06)
(-0.00757581 0.0021937 -6.39864e-06)
(-0.00808757 0.00149815 -5.85741e-06)
(-0.00840821 0.000754001 -5.66749e-06)
(-0.00852544 -2.69778e-05 -5.87212e-06)
(-0.00842831 -0.000832208 -6.31946e-06)
(-0.00810842 -0.00164487 -7.13541e-06)
(-0.00756157 -0.00244527 -8.21708e-06)
(-0.00678858 -0.00320913 -9.38069e-06)
(-0.00579813 -0.00390744 -1.02837e-05)
(-0.00460941 -0.00450619 -1.03028e-05)
(-0.00325143 -0.00495594 -8.28365e-06)
(-0.00178438 -0.0050845 -2.76521e-07)
(-0.000517048 -0.00386597 2.03325e-05)
(-0.00046568 0.00443433 -4.15402e-05)
(-0.00163128 0.00590936 -2.6291e-05)
(-0.00301554 0.00586783 -1.8836e-05)
(-0.00433558 0.00550688 -1.53819e-05)
(-0.0055503 0.00500018 -1.30447e-05)
(-0.00663588 0.0043773 -1.12937e-05)
(-0.0075691 0.00365323 -9.91221e-06)
(-0.00833048 0.00284151 -8.85354e-06)
(-0.0089033 0.0019551 -8.14329e-06)
(-0.00927256 0.00100672 -7.84922e-06)
(-0.00942533 9.6847e-06 -8.11109e-06)
(-0.00934776 -0.00102189 -8.40755e-06)
(-0.00902719 -0.00206875 -9.26038e-06)
(-0.00845512 -0.0031074 -1.04857e-05)
(-0.00762669 -0.0041075 -1.18732e-05)
(-0.00654532 -0.00503097 -1.30342e-05)
(-0.00522701 -0.00583114 -1.32317e-05)
(-0.00370128 -0.00643907 -1.10714e-05)
(-0.00203759 -0.0066253 -1.94778e-06)
(-0.000591617 -0.00505205 2.18154e-05)
(-0.000519506 0.00554631 -4.85725e-05)
(-0.00182017 0.00738432 -3.19349e-05)
(-0.00336398 0.00732772 -2.36731e-05)
(-0.00483287 0.00687378 -1.97652e-05)
(-0.00618197 0.00624048 -1.70384e-05)
(-0.00738669 0.00546604 -1.49413e-05)
(-0.00842382 0.00456998 -1.32537e-05)
(-0.00927457 0.00356911 -1.19346e-05)
(-0.00992298 0.00247851 -1.10148e-05)
(-0.0103542 0.00131193 -1.0567e-05)
(-0.0105546 8.27501e-05 -1.07126e-05)
(-0.0105073 -0.00119343 -1.1117e-05)
(-0.0101944 -0.00249806 -1.21592e-05)
(-0.00960078 -0.003805 -1.36965e-05)
(-0.00871279 -0.00507838 -1.55226e-05)
(-0.00752483 -0.00627012 -1.71982e-05)
(-0.006046 -0.00731765 -1.78282e-05)
(-0.00430407 -0.00812594 -1.56626e-05)
(-0.00237996 -0.00839388 -5.13875e-06)
(-0.000693089 -0.00642046 2.298e-05)
(-0.000587107 0.00679949 -5.77616e-05)
(-0.00205667 0.00904594 -3.94333e-05)
(-0.00379843 0.00896866 -3.01387e-05)
(-0.00544957 0.00840633 -2.55898e-05)
(-0.00696076 0.00762845 -2.22783e-05)
(-0.00830722 0.00668418 -1.96494e-05)
(-0.00946675 0.00559883 -1.7493e-05)
(-0.0104227 0.004393 -1.57805e-05)
(-0.0111612 0.00308363 -1.45408e-05)
(-0.011669 0.00168444 -1.37446e-05)
(-0.0119313 0.000207325 -1.29619e-05)
(-0.0119292 -0.00133315 -1.43538e-05)
(-0.0116393 -0.00292174 -1.58431e-05)
(-0.011036 -0.00453244 -1.79203e-05)
(-0.0100927 -0.00612572 -2.05019e-05)
(-0.00878859 -0.00764338 -2.31076e-05)
(-0.00711932 -0.00900322 -2.46301e-05)
(-0.00510552 -0.0100747 -2.27904e-05)
(-0.0028408 -0.0104635 -1.06071e-05)
(-0.00083082 -0.00803356 2.34965e-05)
(-0.000671452 0.0082297 -6.99515e-05)
(-0.00235047 0.01094 -4.96186e-05)
(-0.00433498 0.0108322 -3.89677e-05)
(-0.00620542 0.0101393 -3.34558e-05)
(-0.0079075 0.00919199 -2.92119e-05)
(-0.00941748 0.00805382 -2.57208e-05)
(-0.010716 0.00675773 -2.28106e-05)
(-0.0117908 0.00532887 -2.04847e-05)
(-0.0126326 0.00378575 -1.87955e-05)
(-0.0132315 0.00214092 -1.78011e-05)
(-0.0135731 0.000402808 -1.77137e-05)
(-0.0136373 -0.0014208 -1.85079e-05)
(-0.0133946 -0.00331977 -2.03664e-05)
(-0.0128057 -0.00527343 -2.32472e-05)
(-0.011825 -0.00724298 -2.70585e-05)
(-0.0104077 -0.00916212 -3.12836e-05)
(-0.00852375 -0.0109258 -3.45469e-05)
(-0.00617542 -0.0123551 -3.37866e-05)
(-0.00346698 -0.0129298 -1.98577e-05)
(-0.00102025 -0.00997655 2.25525e-05)
(-0.000777183 0.00988195 -8.64053e-05)
(-0.00271628 0.0131228 -6.37186e-05)
(-0.00499726 0.0129672 -5.12057e-05)
(-0.00712838 0.0121109 -4.41599e-05)
(-0.00905042 0.0109595 -3.83684e-05)
(-0.0107431 0.00959535 -3.34454e-05)
(-0.0121932 0.00806181 -2.93063e-05)
(-0.0133962 0.00638957 -2.60097e-05)
(-0.0143506 0.00459838 -2.36278e-05)
(-0.0150534 0.00269788 -2.22038e-05)
(-0.0154945 0.000689813 -2.17402e-05)
(-0.0156533 -0.0014289 -2.30571e-05)
(-0.0154935 -0.00365989 -2.55664e-05)
(-0.0149608 -0.00599528 -2.96542e-05)
(-0.0139834 -0.00840539 -3.54126e-05)
(-0.0124786 -0.0108224 -4.23884e-05)
(-0.0103714 -0.0131181 -4.89382e-05)
(-0.00762262 -0.0150496 -5.08741e-05)
(-0.00433628 -0.0159215 -3.56967e-05)
(-0.00128821 -0.0123712 1.77759e-05)
(-0.000911848 0.0118156 -0.000109137)
(-0.00317713 0.0156659 -8.36623e-05)
(-0.0058209 0.0154323 -6.84206e-05)
(-0.00825881 0.0143633 -5.879e-05)
(-0.0104284 0.0129581 -5.03515e-05)
(-0.0123175 0.0113248 -4.3023e-05)
(-0.0139241 0.00952027 -3.68802e-05)
(-0.0152565 0.00758203 -3.20573e-05)
(-0.0163264 0.00553046 -2.86282e-05)
(-0.0171422 0.00337021 -2.67189e-05)
(-0.0177021 0.00109248 -2.66451e-05)
(-0.0179893 -0.00132118 -2.77011e-05)
(-0.0179634 -0.00389364 -3.09891e-05)
(-0.0175537 -0.00664116 -3.68178e-05)
(-0.0166553 -0.00955795 -4.55531e-05)
(-0.0151304 -0.0125901 -5.70682e-05)
(-0.0128269 -0.0155952 -6.96408e-05)
(-0.00962096 -0.0182511 -7.76042e-05)
(-0.00558353 -0.0196149 -6.32077e-05)
(-0.00168391 -0.0154018 4.46715e-06)
(-0.00108828 0.0141133 -0.000141533)
(-0.00377056 0.0186648 -0.000112631)
(-0.00686111 0.0182991 -9.3043e-05)
(-0.00965622 0.0169415 -7.88304e-05)
(-0.0120957 0.0152107 -6.57636e-05)
(-0.0141844 0.0132493 -5.43838e-05)
(-0.0159392 0.0111313 -4.50113e-05)
(-0.0173891 0.00890214 -3.78366e-05)
(-0.0185655 0.0065818 -3.28489e-05)
(-0.0194945 0.00416754 -3.00044e-05)
(-0.0201891 0.00163617 -2.94755e-05)
(-0.0206428 -0.00105284 -3.11075e-05)
(-0.0208171 -0.00395301 -3.55685e-05)
(-0.0206291 -0.00712066 -4.37437e-05)
(-0.0199373 -0.0105977 -5.67472e-05)
(-0.0185299 -0.0143755 -7.53918e-05)
(-0.0161317 -0.0183268 -9.85938e-05)
(-0.0124547 -0.0220495 -0.000119166)
(-0.00745493 -0.0242546 -0.000111519)
(-0.00230425 -0.01937 -3.01986e-05)
(-0.00132944 0.0168978 -0.000189581)
(-0.00456013 0.0222516 -0.000156071)
(-0.00820603 0.0216561 -0.000128874)
(-0.0114099 0.0198908 -0.000106161)
(-0.0141294 0.0177299 -8.4867e-05)
(-0.0164019 0.0153598 -6.67105e-05)
(-0.0182757 0.0128746 -5.22819e-05)
(-0.0198103 0.0103273 -4.16575e-05)
(-0.0210651 0.00773573 -3.45384e-05)
(-0.022092 0.00508673 -3.0448e-05)
(-0.0229268 0.00233901 -2.93409e-05)
(-0.0235832 -0.000575393 -3.14858e-05)
(-0.0240366 -0.00375044 -3.71298e-05)
(-0.0242046 -0.00730091 -4.79572e-05)
(-0.0239181 -0.0113504 -6.63338e-05)
(-0.0228799 -0.015991 -9.51107e-05)
(-0.0206341 -0.0211828 -0.000135828)
(-0.0165972 -0.0264906 -0.000180888)
(-0.0104298 -0.0301739 -0.000193795)
(-0.00335955 -0.0248068 -0.000109613)
(-0.00167854 0.0203641 -0.000264415)
(-0.00565823 0.0266175 -0.000223512)
(-0.0100003 0.0256115 -0.000181641)
(-0.0136558 0.0232491 -0.000142496)
(-0.0166384 0.0205061 -0.000106404)
(-0.0190467 0.0176184 -7.70928e-05)
(-0.0209777 0.0146994 -5.5139e-05)
(-0.0225334 0.0118057 -3.99025e-05)
(-0.023811 0.00894908 -3.02503e-05)
(-0.024896 0.00610192 -2.46236e-05)
(-0.0258563 0.00320246 -2.27479e-05)
(-0.026738 0.000152261 -2.47706e-05)
(-0.0275497 -0.00318665 -3.08209e-05)
(-0.0282379 -0.00700466 -4.34621e-05)
(-0.0286396 -0.0115464 -6.66212e-05)
(-0.0283923 -0.0170906 -0.000106299)
(-0.0268143 -0.0238317 -0.000171772)
(-0.0228382 -0.0314728 -0.00026025)
(-0.0154717 -0.0377973 -0.000326995)
(-0.00532245 -0.0327409 -0.00030111)
(-0.00222191 0.0248467 -0.000387793)
(-0.00727354 0.0320493 -0.000331754)
(-0.0124883 0.030288 -0.000258987)
(-0.016601 0.0270264 -0.000186952)
(-0.0197753 0.0234842 -0.000124124)
(-0.0222175 0.0199372 -7.70375e-05)
(-0.024095 0.0165058 -4.47699e-05)
(-0.0255652 0.0132399 -2.41769e-05)
(-0.026772 0.010137 -1.2126e-05)
(-0.0278407 0.00715055 -4.83175e-06)
(-0.0288782 0.00419626 -1.78652e-06)
(-0.0299743 0.00114818 -1.82205e-06)
(-0.0311966 -0.00217242 -6.22418e-06)
(-0.0325697 -0.00602974 -1.60411e-05)
(-0.0340136 -0.0108167 -3.50597e-05)
(-0.0351972 -0.0171004 -7.45903e-05)
(-0.0352523 -0.0255617 -0.000161155)
(-0.0324274 -0.0364537 -0.000315838)
(-0.0244693 -0.0473345 -0.000512559)
(-0.00921356 -0.0449434 -0.000756118)
(-0.00314392 0.0309036 -0.000599395)
(-0.00981738 0.0389985 -0.000512245)
(-0.0160949 0.0358012 -0.000368667)
(-0.0205571 0.0311533 -0.000227219)
(-0.023741 0.0265161 -0.000116313)
(-0.026024 0.0221397 -4.28509e-05)
(-0.0276629 0.0181165 1.47432e-06)
(-0.0288798 0.014468 2.63718e-05)
(-0.0298684 0.0111599 3.8447e-05)
(-0.0307958 0.00811817 4.40912e-05)
(-0.031809 0.00523604 4.69478e-05)
(-0.0330484 0.00237147 5.00188e-05)
(-0.0346601 -0.000673876 5.5868e-05)
(-0.0368038 -0.00420107 6.69671e-05)
(-0.0396155 -0.00873046 8.60911e-05)
(-0.0430269 -0.0151806 0.000101119)
(-0.0462214 -0.0250269 6.3297e-05)
(-0.0466309 -0.0398367 -0.000106161)
(-0.0400017 -0.0579343 -0.00045209)
(-0.0162606 -0.0643599 -0.0014466)
(-0.00478196 0.0406273 -0.00105879)
(-0.0140267 0.047873 -0.0007762)
(-0.021579 0.0419365 -0.000473707)
(-0.0259467 0.0353286 -0.000204067)
(-0.0286835 0.029272 -1.47474e-05)
(-0.030408 0.0238924 9.10641e-05)
(-0.031458 0.019216 0.000138249)
(-0.0321211 0.0152077 0.000152405)
(-0.0326377 0.0117731 0.000151196)
(-0.0332034 0.00879006 0.000146119)
(-0.0339891 0.00612948 0.000143968)
(-0.0351706 0.0036518 0.000151348)
(-0.0369654 0.00118663 0.000178829)
(-0.0397003 -0.00155682 0.000242764)
(-0.0438618 -0.00508263 0.00038361)
(-0.0499461 -0.0106309 0.000631857)
(-0.0576125 -0.0207852 0.000977014)
(-0.0634371 -0.040424 0.00128759)
(-0.0614862 -0.0715901 0.00124852)
(-0.0237007 -0.102777 -0.00158173)
(-0.00690354 0.0494144 -0.00167106)
(-0.0225441 0.0620764 -0.00149255)
(-0.0300153 0.0503596 -0.000673675)
(-0.0322551 0.0393133 1.22362e-05)
(-0.0329474 0.0309188 0.000362831)
(-0.032776 0.02426 0.00048991)
(-0.0321528 0.0189463 0.00049676)
(-0.0314052 0.0147372 0.00045415)
(-0.0307747 0.0113835 0.000400888)
(-0.0304223 0.0086646 0.000357801)
(-0.0304754 0.00642241 0.000332564)
(-0.031074 0.00453188 0.000335153)
(-0.0324626 0.00290352 0.000391721)
(-0.0349986 0.00134269 0.000553387)
(-0.0394467 -0.000532517 0.000971916)
(-0.0467935 -0.00466219 0.00179557)
(-0.0579367 -0.0151741 0.00317856)
(-0.0684695 -0.0452233 0.0046714)
(-0.0769058 -0.102002 0.00517978)
(-0.0164183 -0.176569 -0.00296365)
(-0.0521195 0.0999293 -0.00440831)
(-0.0446774 0.0623106 -0.00106356)
(-0.03147 0.0404972 0.000425976)
(-0.019196 0.0310863 0.00114228)
(-0.0093047 0.0239688 0.00143752)
(-0.00169814 0.0182599 0.00140951)
(0.00419617 0.0139668 0.00122853)
(0.00877298 0.0107874 0.00101745)
(0.012254 0.00837572 0.000831161)
(0.0148082 0.00650291 0.000698215)
(0.0165417 0.00506103 0.000611436)
(0.0175435 0.00397133 0.000576234)
(0.0176612 0.00330482 0.000649288)
(0.0169247 0.00288596 0.000857707)
(0.0140777 0.00258301 0.00147906)
(0.00971676 -0.000666859 0.00278472)
(-0.00106721 -0.0128884 0.00491497)
(-0.00896037 -0.052889 0.0064568)
(-0.0417843 -0.12979 0.00603978)
(0.0341316 -0.210882 -0.0108524)
(0.136993 0.0924171 -0.00621558)
(0.161149 0.0611995 -0.00453924)
(0.214348 0.0378663 -0.0028321)
(0.253104 0.0250224 -0.00119069)
(0.277057 0.0173236 9.24332e-05)
(0.292378 0.0121762 0.000736134)
(0.302916 0.00865995 0.000936879)
(0.310499 0.00628555 0.000922006)
(0.316053 0.00467087 0.000826057)
(0.32021 0.00353367 0.000707348)
(0.323269 0.00273983 0.000619178)
(0.325766 0.00214111 0.000523183)
(0.327241 0.00185686 0.000568246)
(0.329292 0.00162563 0.000552379)
(0.32785 0.00199102 0.00103938)
(0.329427 0.0018739 0.00158632)
(0.311886 0.000235045 0.00301531)
(0.301955 -0.00604786 0.0048969)
(0.206108 -0.0331191 -0.000965286)
(0.200874 -0.0799902 -0.0183304)
(-0.000325468 0.000323338 -1.08595e-05)
(-0.00116214 0.00046792 6.69726e-06)
(-0.00217326 0.000468744 1.44568e-05)
(-0.00313699 0.000439969 1.64636e-05)
(-0.0040223 0.000399382 1.61232e-05)
(-0.00481097 0.00034919 1.4248e-05)
(-0.00548356 0.000290344 1.12664e-05)
(-0.00602274 0.000223845 7.41409e-06)
(-0.00641371 0.000150808 2.8381e-06)
(-0.00664409 7.2607e-05 -2.26081e-06)
(-0.00670445 -9.41974e-06 -7.86826e-06)
(-0.00658883 -9.36325e-05 -1.38e-05)
(-0.00629496 -0.00017801 -1.98484e-05)
(-0.00582505 -0.000260261 -2.57451e-05)
(-0.00518649 -0.000337773 -3.11182e-05)
(-0.00439258 -0.000407669 -3.54336e-05)
(-0.00346268 -0.000466866 -3.78903e-05)
(-0.00241949 -0.000510718 -3.715e-05)
(-0.00130598 -0.00051781 -2.94176e-05)
(-0.000369784 -0.00036403 -6.86112e-06)
(-0.000487701 0.00117583 -3.4887e-05)
(-0.0016969 0.00165392 -1.6354e-05)
(-0.00312098 0.00165348 -6.99538e-06)
(-0.00447579 0.00155101 -2.90748e-06)
(-0.00571882 0.00140552 -9.38592e-07)
(-0.00682298 0.00122572 -2.75837e-07)
(-0.00776084 0.00101558 -5.10949e-07)
(-0.00850867 0.000779015 -1.4739e-06)
(-0.00904654 0.000520272 -3.1104e-06)
(-0.0093584 0.000244049 -5.3129e-06)
(-0.00943239 -4.46577e-05 -8.05513e-06)
(-0.0092611 -0.000340023 -1.12171e-05)
(-0.0088423 -0.000635223 -1.46696e-05)
(-0.00817977 -0.000922403 -1.81693e-05)
(-0.00728422 -0.00119259 -2.13517e-05)
(-0.00617424 -0.00143588 -2.36556e-05)
(-0.00487704 -0.00164136 -2.42091e-05)
(-0.00342487 -0.00179222 -2.16026e-05)
(-0.00187485 -0.00181737 -1.17172e-05)
(-0.000542736 -0.00130869 1.24937e-05)
(-0.000528453 0.00226309 -4.67651e-05)
(-0.00183832 0.00312973 -2.87904e-05)
(-0.00337825 0.00312373 -1.8595e-05)
(-0.00484028 0.00292876 -1.35048e-05)
(-0.00618075 0.00265158 -1.0352e-05)
(-0.00737116 0.00230946 -8.35459e-06)
(-0.00838245 0.00191055 -7.14066e-06)
(-0.0091897 0.00146266 -6.57562e-06)
(-0.00977202 0.000974009 -6.63077e-06)
(-0.0101125 0.000453253 -7.28958e-06)
(-0.0101984 -9.0145e-05 -8.53759e-06)
(-0.0100213 -0.000645505 -1.02842e-05)
(-0.00957779 -0.00120042 -1.24359e-05)
(-0.00887071 -0.00174045 -1.47768e-05)
(-0.00790993 -0.00224901 -1.69517e-05)
(-0.006714 -0.00270746 -1.83826e-05)
(-0.00531107 -0.00309495 -1.81459e-05)
(-0.00373518 -0.00337909 -1.47509e-05)
(-0.00204697 -0.00343065 -3.83475e-06)
(-0.000592743 -0.00250768 2.12997e-05)
(-0.00056282 0.00341236 -5.56829e-05)
(-0.00196023 0.00469102 -3.74244e-05)
(-0.00360422 0.00467671 -2.63868e-05)
(-0.0051634 0.00438301 -2.05433e-05)
(-0.00659236 0.00396679 -1.66294e-05)
(-0.00786179 0.00345413 -1.38525e-05)
(-0.00894177 0.0028576 -1.18404e-05)
(-0.00980677 0.00218903 -1.04732e-05)
(-0.0104354 0.00146053 -9.74195e-06)
(-0.0108101 0.000684662 -9.66575e-06)
(-0.0109169 -0.00012509 -1.025e-05)
(-0.0107456 -0.000953694 -1.13875e-05)
(-0.0102906 -0.00178335 -1.30399e-05)
(-0.00955218 -0.00259316 -1.49978e-05)
(-0.00853766 -0.00335856 -1.68916e-05)
(-0.00726372 -0.00405143 -1.80955e-05)
(-0.00575813 -0.00463958 -1.75837e-05)
(-0.0040563 -0.00507311 -1.36916e-05)
(-0.00222459 -0.00515926 -1.65259e-06)
(-0.000643908 -0.00379277 2.54357e-05)
(-0.000609485 0.00464319 -6.48781e-05)
(-0.00212368 0.00636583 -4.59331e-05)
(-0.00390549 0.00634136 -3.39259e-05)
(-0.00559367 0.00594082 -2.73347e-05)
(-0.00713992 0.00537559 -2.27314e-05)
(-0.00851381 0.00468139 -1.92983e-05)
(-0.00968461 0.00387566 -1.66565e-05)
(-0.0106264 0.00297446 -1.46961e-05)
(-0.0113176 0.00199366 -1.34275e-05)
(-0.0117398 0.000949277 -1.29001e-05)
(-0.0118777 -0.000141834 -1.31545e-05)
(-0.0117189 -0.00126114 -1.39642e-05)
(-0.011254 -0.00238606 -1.54449e-05)
(-0.0104793 -0.00348958 -1.73725e-05)
(-0.0093977 -0.00453895 -1.93467e-05)
(-0.00802222 -0.00549535 -2.06672e-05)
(-0.006379 -0.00631296 -2.01515e-05)
(-0.00450488 -0.00692049 -1.58569e-05)
(-0.00247487 -0.00705224 -2.38988e-06)
(-0.000716815 -0.00520095 2.7865e-05)
(-0.000671587 0.00598943 -7.5873e-05)
(-0.00234002 0.00819859 -5.58236e-05)
(-0.00430259 0.00816113 -4.25944e-05)
(-0.00615905 0.00764201 -3.5122e-05)
(-0.00785722 0.00691325 -2.97303e-05)
(-0.00936553 0.00602174 -2.55748e-05)
(-0.0106527 0.00499063 -2.22723e-05)
(-0.0116929 0.00384051 -1.97262e-05)
(-0.0124648 0.00259085 -1.79691e-05)
(-0.0129497 0.00126047 -1.70973e-05)
(-0.0131313 -0.000131416 -1.72702e-05)
(-0.0129935 -0.00156428 -1.78209e-05)
(-0.0125225 -0.00301179 -1.93533e-05)
(-0.0117082 -0.00444177 -2.15485e-05)
(-0.0105465 -0.00581327 -2.39546e-05)
(-0.00904367 -0.00707537 -2.57689e-05)
(-0.00722183 -0.00816526 -2.55836e-05)
(-0.00511826 -0.00898411 -2.10361e-05)
(-0.00281948 -0.00917913 -5.78768e-06)
(-0.000817777 -0.00678734 2.91134e-05)
(-0.000751321 0.00748578 -8.98692e-05)
(-0.00261683 0.0102352 -6.83596e-05)
(-0.00480879 0.0101797 -5.35533e-05)
(-0.0068768 0.00952548 -4.49159e-05)
(-0.0087639 0.00861329 -3.84623e-05)
(-0.0104376 0.00750355 -3.33357e-05)
(-0.0118669 0.00622636 -2.91628e-05)
(-0.0130272 0.00480737 -2.58683e-05)
(-0.0138986 0.00326935 -2.35052e-05)
(-0.014463 0.00163297 -2.21979e-05)
(-0.0147034 -8.15038e-05 -2.21437e-05)
(-0.0146 -0.0018546 -2.27274e-05)
(-0.0141322 -0.00365745 -2.45822e-05)
(-0.0132815 -0.00545488 -2.73912e-05)
(-0.0120324 -0.00719857 -3.06798e-05)
(-0.0103797 -0.00882417 -3.35263e-05)
(-0.00833645 -0.0102475 -3.42106e-05)
(-0.00593754 -0.0113332 -2.97424e-05)
(-0.00328361 -0.0116203 -1.2374e-05)
(-0.000954475 -0.00861605 2.89228e-05)
(-0.000851781 0.00917221 -0.000108183)
(-0.00296428 0.0125283 -8.49042e-05)
(-0.0054413 0.0124461 -6.80197e-05)
(-0.00776856 0.0116333 -5.77297e-05)
(-0.00988354 0.0105106 -4.97111e-05)
(-0.0117538 0.00915525 -4.31379e-05)
(-0.01335 0.00760619 -3.76782e-05)
(-0.014651 0.00589485 -3.32949e-05)
(-0.0156402 0.00404693 -3.00551e-05)
(-0.0163016 0.00208324 -2.80104e-05)
(-0.0166198 2.15336e-05 -2.70494e-05)
(-0.0165704 -0.00211784 -2.84128e-05)
(-0.0161237 -0.00431229 -3.09751e-05)
(-0.0152502 -0.00652593 -3.48526e-05)
(-0.0139172 -0.00870518 -3.96752e-05)
(-0.0120998 -0.010772 -4.44101e-05)
(-0.00979346 -0.0126156 -4.69199e-05)
(-0.00702341 -0.014051 -4.32813e-05)
(-0.00390583 -0.0144779 -2.36327e-05)
(-0.001139 -0.0107702 2.62981e-05)
(-0.000977619 0.0110966 -0.000132563)
(-0.00339724 0.0151401 -0.00010723)
(-0.00622452 0.0150159 -8.75217e-05)
(-0.00886408 0.0140112 -7.47624e-05)
(-0.0112474 0.0126409 -6.43178e-05)
(-0.0133439 0.0110041 -5.54878e-05)
(-0.0151289 0.00915143 -4.80438e-05)
(-0.0165881 0.00712103 -4.20206e-05)
(-0.0177118 0.00494103 -3.75146e-05)
(-0.0184899 0.00263057 -3.45169e-05)
(-0.0189059 0.000202284 -3.27197e-05)
(-0.0189353 -0.00233058 -3.47928e-05)
(-0.0185418 -0.00495406 -3.82919e-05)
(-0.0176759 -0.00763856 -4.37871e-05)
(-0.0162806 -0.0103308 -5.1089e-05)
(-0.0142997 -0.0129414 -5.9096e-05)
(-0.0116956 -0.0153284 -6.51508e-05)
(-0.00846876 -0.017239 -6.39437e-05)
(-0.00474791 -0.0178866 -4.23293e-05)
(-0.0013913 -0.0133644 1.91949e-05)
(-0.001136 0.0133184 -0.000165598)
(-0.00393801 0.0181459 -0.000137908)
(-0.0071939 0.0179536 -0.000114187)
(-0.010205 0.0167083 -9.75581e-05)
(-0.0128973 0.0150391 -8.32216e-05)
(-0.0152459 0.013074 -7.07927e-05)
(-0.0172355 0.0108787 -6.02505e-05)
(-0.0188638 0.00849961 -5.17476e-05)
(-0.020133 0.00596648 -4.54442e-05)
(-0.0210426 0.00329415 -4.15365e-05)
(-0.0215832 0.000486157 -4.04176e-05)
(-0.0217291 -0.00245956 -4.15068e-05)
(-0.021434 -0.00554433 -4.5868e-05)
(-0.0206295 -0.00875543 -5.36308e-05)
(-0.0192235 -0.0120508 -6.47523e-05)
(-0.0171104 -0.0153377 -7.82235e-05)
(-0.0141938 -0.0184421 -9.08681e-05)
(-0.0104194 -0.0210208 -9.53786e-05)
(-0.00591358 -0.0220295 -7.33037e-05)
(-0.00174667 -0.0165637 4.12416e-06)
(-0.00133837 0.0159152 -0.000211344)
(-0.00462093 0.0216404 -0.00018088)
(-0.0084021 0.0213351 -0.000151108)
(-0.0118507 0.0197771 -0.000128135)
(-0.0148901 0.0177371 -0.000107387)
(-0.0175081 0.0153814 -8.91483e-05)
(-0.0197069 0.0127957 -7.37553e-05)
(-0.0215038 0.0100359 -6.14872e-05)
(-0.0229207 0.0071321 -5.24637e-05)
(-0.0239736 0.00409143 -4.67703e-05)
(-0.024663 0.000902117 -4.45867e-05)
(-0.0249694 -0.00245915 -4.61594e-05)
(-0.0248414 -0.00602266 -5.19336e-05)
(-0.0241864 -0.00980735 -6.28236e-05)
(-0.0228683 -0.0138017 -7.9553e-05)
(-0.0207091 -0.0179296 -0.00010179)
(-0.0175119 -0.0219951 -0.00012624)
(-0.0131103 -0.0255425 -0.000143024)
(-0.00758445 -0.0271633 -0.000125209)
(-0.00227036 -0.0206232 -2.78859e-05)
(-0.00160373 0.0189931 -0.00027647)
(-0.00550078 0.0257471 -0.000242443)
(-0.0099293 0.0252505 -0.000202902)
(-0.0138872 0.0232709 -0.000169083)
(-0.0173037 0.0207582 -0.000137556)
(-0.0201928 0.0179291 -0.000109903)
(-0.0225861 0.0148945 -8.69888e-05)
(-0.0245323 0.0117204 -6.91468e-05)
(-0.0260823 0.00843531 -5.62633e-05)
(-0.0272775 0.00503442 -4.81662e-05)
(-0.0281388 0.0014849 -4.49571e-05)
(-0.0286592 -0.00226992 -4.62186e-05)
(-0.028788 -0.00630023 -5.33268e-05)
(-0.0284149 -0.0106791 -6.79013e-05)
(-0.0273542 -0.0154572 -9.2106e-05)
(-0.0253297 -0.0206158 -0.000127534)
(-0.021983 -0.025975 -0.000172201)
(-0.0169316 -0.0309604 -0.00021381)
(-0.0101013 -0.0336528 -0.000212617)
(-0.00309612 -0.0259664 -9.73349e-05)
(-0.00196512 0.0227051 -0.000372408)
(-0.00666798 0.030632 -0.000332965)
(-0.0119007 0.0298067 -0.000276454)
(-0.0164406 0.027239 -0.000223379)
(-0.0202459 0.0241086 -0.000173463)
(-0.0233799 0.0206964 -0.000130622)
(-0.0259228 0.0171419 -9.63045e-05)
(-0.0279698 0.0135201 -7.05275e-05)
(-0.0296132 0.00985387 -5.24249e-05)
(-0.0309305 0.00612135 -4.09445e-05)
(-0.0319742 0.00226157 -3.55581e-05)
(-0.0327621 -0.00182171 -3.62512e-05)
(-0.0332592 -0.00625575 -4.39236e-05)
(-0.0333533 -0.0111932 -6.1571e-05)
(-0.0328185 -0.0167928 -9.381e-05)
(-0.0312649 -0.0231661 -0.000146693)
(-0.0280971 -0.0302448 -0.000223392)
(-0.0225436 -0.0373927 -0.000311973)
(-0.0141393 -0.0420174 -0.000355614)
(-0.00451738 -0.0333757 -0.000245493)
(-0.00248259 0.0272863 -0.000519598)
(-0.00827725 0.0365268 -0.000469792)
(-0.0145159 0.0351272 -0.000381572)
(-0.019698 0.0317147 -0.000293097)
(-0.0238649 0.0277625 -0.000211475)
(-0.0271711 0.0236243 -0.000144464)
(-0.0297724 0.0194665 -9.35956e-05)
(-0.0318291 0.0153672 -5.7384e-05)
(-0.0334891 0.0113365 -3.30307e-05)
(-0.0348775 0.00732891 -1.77836e-05)
(-0.0360901 0.00324995 -9.75769e-06)
(-0.0371859 -0.00104124 -8.38349e-06)
(-0.0381709 -0.00573852 -1.3711e-05)
(-0.0389663 -0.0110977 -2.99445e-05)
(-0.0393477 -0.0174401 -6.47868e-05)
(-0.0388374 -0.025125 -0.000133336)
(-0.036546 -0.0343942 -0.000252428)
(-0.0310704 -0.044778 -0.000422072)
(-0.0210987 -0.0529583 -0.000574796)
(-0.00721728 -0.0444484 -0.000576901)
(-0.00327071 0.0331263 -0.000756266)
(-0.0106035 0.0437607 -0.000682029)
(-0.0181008 0.0413397 -0.000530502)
(-0.0239356 0.0366907 -0.000375059)
(-0.0283613 0.0316364 -0.00023854)
(-0.0316912 0.0265938 -0.000134114)
(-0.0341912 0.0217419 -6.10702e-05)
(-0.0361078 0.0171464 -1.32517e-05)
(-0.0376569 0.012791 1.61145e-05)
(-0.0390206 0.00859806 3.44914e-05)
(-0.040347 0.00443838 4.57148e-05)
(-0.0417532 0.000127839 5.33732e-05)
(-0.0433194 -0.00458802 5.67965e-05)
(-0.0450613 -0.0100723 5.44677e-05)
(-0.0468579 -0.0168506 3.74287e-05)
(-0.0482716 -0.0256738 -1.91105e-05)
(-0.0481718 -0.0374346 -0.00016523)
(-0.044272 -0.0523924 -0.000451212)
(-0.0336464 -0.0668426 -0.000846994)
(-0.0125659 -0.0619874 -0.00131477)
(-0.00457043 0.0407454 -0.00114859)
(-0.0141733 0.0528684 -0.00102203)
(-0.0231939 0.0485796 -0.000735363)
(-0.0295502 0.0420743 -0.000447577)
(-0.0339885 0.0355497 -0.000216451)
(-0.0370703 0.0293995 -5.7695e-05)
(-0.0392063 0.0237671 3.99192e-05)
(-0.0407487 0.0186769 9.53466e-05)
(-0.0419884 0.0140666 0.000124576)
(-0.0431636 0.00981529 0.000141068)
(-0.0444763 0.00575895 0.000154071)
(-0.0461096 0.00168488 0.000171362)
(-0.0482468 -0.00269213 0.000199859)
(-0.0510762 -0.00779831 0.000245299)
(-0.05475 -0.0143326 0.000310129)
(-0.059157 -0.0235246 0.000367078)
(-0.0631988 -0.0373271 0.00032159)
(-0.0634523 -0.0578095 2.07355e-05)
(-0.0544992 -0.0824256 -0.000667002)
(-0.0211589 -0.0908777 -0.00241038)
(-0.00677693 0.0529017 -0.00193477)
(-0.0197426 0.0638319 -0.00150416)
(-0.0307345 0.0563121 -0.000940426)
(-0.0370881 0.0474872 -0.000422309)
(-0.0409382 0.0391695 -4.20185e-05)
(-0.0432181 0.0317183 0.00018311)
(-0.0444905 0.0252359 0.00029314)
(-0.0452212 0.0196851 0.000334533)
(-0.0457769 0.0149277 0.000342709)
(-0.0464394 0.0107796 0.000342078)
(-0.0474419 0.00704047 0.000349297)
(-0.0490116 0.00349649 0.000380159)
(-0.0514227 -0.000104716 0.000456769)
(-0.0550592 -0.00417055 0.000611119)
(-0.0604839 -0.00936315 0.00090429)
(-0.0681921 -0.0173871 0.00137273)
(-0.0774281 -0.0317813 0.00194887)
(-0.0832364 -0.0593965 0.00234244)
(-0.0788474 -0.10281 0.00192246)
(-0.0247935 -0.147442 -0.00293138)
(-0.00695034 0.0604565 -0.00298805)
(-0.0295706 0.0829783 -0.00269776)
(-0.0419917 0.0683189 -0.00132362)
(-0.0460939 0.0533916 -0.000143948)
(-0.0472651 0.0418885 0.000523743)
(-0.0467417 0.0326525 0.000812036)
(-0.0454311 0.0252555 0.000876855)
(-0.0439515 0.0193954 0.00083787)
(-0.0426974 0.0147263 0.000767833)
(-0.0419095 0.0109389 0.000708187)
(-0.0417537 0.00778006 0.0006819)
(-0.0423887 0.00505731 0.00071313)
(-0.0440904 0.00263974 0.000853386)
(-0.0471905 0.000220067 0.00118806)
(-0.0525016 -0.0026852 0.00193866)
(-0.0606964 -0.00868718 0.00333805)
(-0.0719674 -0.0238668 0.00546218)
(-0.0784921 -0.0655863 0.00743889)
(-0.0842273 -0.141184 0.00734299)
(-0.000369361 -0.238668 -0.00560536)
(-0.0781346 0.119935 -0.00666932)
(-0.0665334 0.0804657 -0.00216306)
(-0.0504068 0.0548005 6.92539e-05)
(-0.0338936 0.042898 0.00137904)
(-0.0189085 0.033224 0.00203242)
(-0.00647539 0.0252229 0.00214968)
(0.00354253 0.0191489 0.00197441)
(0.0114584 0.0146389 0.00170454)
(0.0175542 0.0112194 0.00144461)
(0.02211 0.00856027 0.0012471)
(0.0252911 0.00649996 0.00112539)
(0.0273675 0.00489405 0.00109512)
(0.0281385 0.00387072 0.00125624)
(0.0280732 0.00311321 0.00165862)
(0.0256066 0.00273558 0.002725)
(0.02312 -0.00127966 0.00483739)
(0.0146951 -0.0159091 0.00801516)
(0.0206548 -0.0655422 0.0100862)
(-0.0125018 -0.16121 0.00870497)
(0.0763051 -0.255452 -0.0162011)
(0.14496 0.117293 -0.00947102)
(0.177963 0.0848865 -0.00733095)
(0.241195 0.0568869 -0.0049294)
(0.291398 0.0395799 -0.00245646)
(0.326204 0.028265 -0.000413239)
(0.35079 0.0201907 0.000812035)
(0.368958 0.0144075 0.00135023)
(0.382634 0.010362 0.00148159)
(0.392895 0.00757275 0.00141927)
(0.400716 0.00560192 0.00126946)
(0.406427 0.00424676 0.00114584)
(0.411274 0.00319206 0.000989996)
(0.413823 0.00268615 0.00106941)
(0.418529 0.00211655 0.00105722)
(0.416093 0.0025287 0.00180428)
(0.424006 0.00259421 0.00271482)
(0.402458 0.000672261 0.00455158)