/*--------------------------------*- C++ -*----------------------------------*\
  =========                 |
  \\      /  F ield         | OpenFOAM: The Open Source CFD Toolbox
   \\    /   O peration     | Website:  https://openfoam.org
    \\  /    A nd           | Version:  10
     \\/     M anipulation  |
\*---------------------------------------------------------------------------*/
FoamFile
{
    format      ascii;
    class       volVectorField;
    location    "0.15";
    object      U;
}
// * * * * * * * * * * * * * * * * * * * * * * * * * * * * * * * * * * * * * //

dimensions      [0 1 -1 0 0 0 0];

internalField   nonuniform List<vector> 
400
(
(-7.57668e-05 7.55817e-05 0)
(-0.000227733 7.59676e-05 0)
(-0.000376195 7.20547e-05 0)
(-0.000514928 6.62933e-05 0)
(-0.000640453 5.89007e-05 0)
(-0.000749738 5.01068e-05 0)
(-0.000840228 4.01631e-05 0)
(-0.000909884 2.9329e-05 0)
(-0.000957184 1.78632e-05 0)
(-0.000981121 6.02018e-06 0)
(-0.00098119 -5.95032e-06 0)
(-0.000957386 -1.78e-05 0)
(-0.000910199 -2.92783e-05 0)
(-0.000840627 -4.01299e-05 0)
(-0.000750181 -5.00945e-05 0)
(-0.000640898 -5.89106e-05 0)
(-0.00051533 -6.63249e-05 0)
(-0.000376514 -7.2105e-05 0)
(-0.000227937 -7.60316e-05 0)
(-7.58363e-05 -7.56513e-05 0)
(-8.00997e-05 0.000231238 0)
(-0.000240715 0.000232372 0)
(-0.000397544 0.000220366 0)
(-0.000544008 0.000202698 0)
(-0.000676435 0.000180044 0)
(-0.000791639 0.00015312 0)
(-0.000886959 0.000122701 0)
(-0.000960284 8.95822e-05 0)
(-0.00101005 5.45531e-05 0)
(-0.00103523 1.83847e-05 0)
(-0.0010353 -1.81684e-05 0)
(-0.00101027 -5.43571e-05 0)
(-0.000960632 -8.94252e-05 0)
(-0.0008874 -0.000122598 0)
(-0.000792129 -0.000153082 0)
(-0.000676927 -0.000180076 0)
(-0.000544454 -0.000202797 0)
(-0.000397897 -0.000220523 0)
(-0.000240941 -0.000232571 0)
(-8.01769e-05 -0.000231454 0)
(-8.4206e-05 0.00039541 0)
(-0.000253016 0.000397239 0)
(-0.000417719 0.000376584 0)
(-0.000571346 0.000346225 0)
(-0.000710037 0.00030736 0)
(-0.000830492 0.000261248 0)
(-0.000929996 0.000209237 0)
(-0.00100643 0.000152695 0)
(-0.00105825 9.29602e-05 0)
(-0.00108446 3.13281e-05 0)
(-0.00108455 -3.09442e-05 0)
(-0.00105852 -9.26121e-05 0)
(-0.00100684 -0.000152415 0)
(-0.000930516 -0.000209053 0)
(-0.000831072 -0.000261179 0)
(-0.000710621 -0.000307415 0)
(-0.000571876 -0.0003464 0)
(-0.00041814 -0.000376863 0)
(-0.000253285 -0.000397594 0)
(-8.42984e-05 -0.000395795 0)
(-9.05501e-05 0.000569928 0)
(-0.000272002 0.000572372 0)
(-0.000448815 0.000542299 0)
(-0.000613404 0.000498194 0)
(-0.000761625 0.000441876 0)
(-0.000890011 0.00037524 0)
(-0.000995791 0.000300282 0)
(-0.00107686 0.000218986 0)
(-0.00113173 0.000133258 0)
(-0.00115946 4.49093e-05 0)
(-0.00115957 -4.43221e-05 0)
(-0.00113206 -0.000132725 0)
(-0.00107737 -0.000218557 0)
(-0.000996441 -0.000299999 0)
(-0.000890739 -0.000375133 0)
(-0.000762359 -0.000441958 0)
(-0.000614073 -0.000498461 0)
(-0.000449348 -0.000542727 0)
(-0.000272344 -0.000572917 0)
(-9.06675e-05 -0.000570521 0)
(-9.94057e-05 0.000759603 0)
(-0.000298476 0.000762505 0)
(-0.000492087 0.000721825 0)
(-0.000671772 0.000662354 0)
(-0.000832992 0.000586705 0)
(-0.000972088 0.000497559 0)
(-0.00108625 0.000397674 0)
(-0.00117346 0.000289717 0)
(-0.00123233 0.000176183 0)
(-0.00126204 5.93757e-05 0)
(-0.00126219 -5.85314e-05 0)
(-0.00123275 -0.000175415 0)
(-0.00117412 -0.000289097 0)
(-0.00108709 -0.000397261 0)
(-0.000973034 -0.000497398 0)
(-0.000833951 -0.000586818 0)
(-0.000672647 -0.000662737 0)
(-0.000492788 -0.000722443 0)
(-0.000298927 -0.000763297 0)
(-9.95605e-05 -0.000760467 0)
(-0.000111149 0.000969822 0)
(-0.00033353 0.000972886 0)
(-0.000549217 0.00091985 0)
(-0.000748526 0.000842674 0)
(-0.00092642 0.000745033 0)
(-0.00107904 0.000630632 0)
(-0.00120363 0.000503157 0)
(-0.00129835 0.000366047 0)
(-0.00136208 0.000222392 0)
(-0.00139417 7.4947e-05 0)
(-0.00139436 -7.37694e-05 0)
(-0.00136263 -0.000221319 0)
(-0.00129922 -0.000365175 0)
(-0.00120474 -0.000502571 0)
(-0.0010803 -0.000630396 0)
(-0.000927698 -0.000745182 0)
(-0.0007497 -0.000843205 0)
(-0.000550162 -0.000920719 0)
(-0.00033414 -0.000974006 0)
(-0.000111359 -0.000971047 0)
(-0.000126334 0.00120688 0)
(-0.000378758 0.00120957 0)
(-0.000622619 0.00114164 0)
(-0.000846591 0.00104344 0)
(-0.00104503 0.000920137 0)
(-0.00121396 0.00077681 0)
(-0.00135084 0.000618311 0)
(-0.00145422 0.000448954 0)
(-0.00152343 0.000272414 0)
(-0.0015582 9.17963e-05 0)
(-0.00155845 -9.01815e-05 0)
(-0.00152416 -0.000270937 0)
(-0.00145537 -0.000447746 0)
(-0.00135232 -0.000617488 0)
(-0.00121564 -0.000776464 0)
(-0.00104676 -0.000920322 0)
(-0.000848188 -0.00104416 0)
(-0.000623913 -0.00114284 0)
(-0.000379597 -0.00121113 0)
(-0.000126623 -0.0012086 0)
(-0.000145774 0.00147843 0)
(-0.000436478 0.00147976 0)
(-0.000715744 0.00139324 0)
(-0.000970033 0.0012693 0)
(-0.00119305 0.0011153 0)
(-0.00138087 0.000938219 0)
(-0.00153149 0.000744384 0)
(-0.00164425 0.000539091 0)
(-0.00171923 0.000326544 0)
(-0.00175677 0.000110017 0)
(-0.00175709 -0.000107826 0)
(-0.00172019 -0.000324532 0)
(-0.00164577 -0.00053743 0)
(-0.00153346 -0.000743232 0)
(-0.00138313 -0.000937709 0)
(-0.0011954 -0.00111552 0)
(-0.000972226 -0.00127027 0)
(-0.000717538 -0.00139489 0)
(-0.000437651 -0.00148194 0)
(-0.000146179 -0.00148084 0)
(-0.000170693 0.00179411 0)
(-0.000510128 0.00179233 0)
(-0.000833572 0.00168167 0)
(-0.00112453 0.00152524 0)
(-0.00137611 0.00133363 0)
(-0.00158488 0.00111648 0)
(-0.00174997 0.000882006 0)
(-0.00187206 0.000636553 0)
(-0.00195251 0.000384696 0)
(-0.00199257 0.000129567 0)
(-0.001993 -0.000126623 0)
(-0.00195376 -0.000381977 0)
(-0.00187407 -0.000634282 0)
(-0.00175259 -0.000880396 0)
(-0.00158793 -0.00111572 0)
(-0.00137932 -0.00133386 0)
(-0.00112756 -0.00152651 0)
(-0.000836084 -0.00168393 0)
(-0.000511787 -0.00179535 0)
(-0.00017127 -0.00179749 0)
(-0.000202993 0.0021666 0)
(-0.000604936 0.00215846 0)
(-0.000983424 0.00201522 0)
(-0.00131808 0.00181643 0)
(-0.0016018 0.00157765 0)
(-0.00183249 0.00131225 0)
(-0.00201142 0.00103074 0)
(-0.00214156 0.000740511 0)
(-0.00222622 0.000446174 0)
(-0.00226809 0.000150196 0)
(-0.00226864 -0.000146272 0)
(-0.00222785 -0.000442525 0)
(-0.00214419 -0.000737417 0)
(-0.0020149 -0.00102848 0)
(-0.00183659 -0.0013111 0)
(-0.00160618 -0.00157783 0)
(-0.0013223 -0.00181806 0)
(-0.000986982 -0.00201828 0)
(-0.000607321 -0.00216268 0)
(-0.000203829 -0.00217137 0)
(-0.000245763 0.0026134 0)
(-0.000729143 0.00259276 0)
(-0.00117632 0.00240359 0)
(-0.0015621 0.00214781 0)
(-0.00188029 0.00184861 0)
(-0.0021318 0.00152439 0)
(-0.00232171 0.00118836 0)
(-0.00245663 0.000848692 0)
(-0.00254282 0.000509358 0)
(-0.00258502 0.000171337 0)
(-0.00258572 -0.000166159 0)
(-0.00254491 -0.000504502 0)
(-0.00246003 -0.000844495 0)
(-0.00232628 -0.00118519 0)
(-0.00213728 -0.00152262 0)
(-0.00188628 -0.00184861 0)
(-0.00156802 -0.00214985 0)
(-0.00118142 -0.00240771 0)
(-0.000732639 -0.00259866 0)
(-0.000247006 -0.0026202 0)
(-0.000304321 0.0031599 0)
(-0.000896291 0.00311472 0)
(-0.00142923 0.00285788 0)
(-0.00187307 0.00252315 0)
(-0.00222523 0.00214508 0)
(-0.00249274 0.00174868 0)
(-0.00268711 0.00134989 0)
(-0.00282056 0.000956731 0)
(-0.00290357 0.000571348 0)
(-0.0029436 0.00019199 0)
(-0.00294448 -0.000185242 0)
(-0.00290619 -0.000564949 0)
(-0.00282488 -0.00095107 0)
(-0.00269303 -0.00134542 0)
(-0.00250001 -0.00174594 0)
(-0.00223341 -0.00214465 0)
(-0.00188141 -0.00252555 0)
(-0.00143666 -0.00286336 0)
(-0.000901548 -0.00312299 0)
(-0.000306232 -0.00316976 0)
(-0.000388462 0.00384534 0)
(-0.0011297 0.00375059 0)
(-0.00176892 0.00338988 0)
(-0.00227492 0.0029429 0)
(-0.00265476 0.00246066 0)
(-0.00292699 0.00197599 0)
(-0.00311365 0.00150626 0)
(-0.00323516 0.00105734 0)
(-0.00330756 0.000627497 0)
(-0.00334161 0.000210576 0)
(-0.00334266 -0.000201911 0)
(-0.00331074 -0.000619171 0)
(-0.0032405 -0.00104976 0)
(-0.00312115 -0.00149998 0)
(-0.00293651 -0.00197172 0)
(-0.00266588 -0.00245931 0)
(-0.00228673 -0.00294541 0)
(-0.00177993 -0.00339696 0)
(-0.00113787 -0.00376221 0)
(-0.000391543 -0.00385995 0)
(-0.000517659 0.00473439 0)
(-0.00147158 0.00453512 0)
(-0.00223817 0.00400932 0)
(-0.0028023 0.00339987 0)
(-0.00319215 0.00278023 0)
(-0.00344714 0.00218955 0)
(-0.00360577 0.00164266 0)
(-0.00369933 0.00113932 0)
(-0.00375033 0.000670968 0)
(-0.00377301 0.000224798 0)
(-0.00377422 -0.000213881 0)
(-0.00375403 -0.000660308 0)
(-0.00370568 -0.00112928 0)
(-0.00361499 -0.00163383 0)
(-0.00345934 -0.00218287 0)
(-0.0032071 -0.00277702 0)
(-0.00281907 -0.0034018 0)
(-0.00225476 -0.00401806 0)
(-0.00148479 -0.00455136 0)
(-0.000522949 -0.00475674 0)
(-0.000733557 0.00594117 0)
(-0.00200213 0.00551076 0)
(-0.0029057 0.0047163 0)
(-0.00350403 0.00387111 0)
(-0.00386508 0.00307399 0)
(-0.00406456 0.00236133 0)
(-0.00416389 0.00173658 0)
(-0.00420685 0.00118687 0)
(-0.00422209 0.000692505 0)
(-0.00422646 0.000231596 0)
(-0.00422777 -0.000218171 0)
(-0.00422614 -0.000679144 0)
(-0.00421403 -0.00117379 0)
(-0.00417474 -0.0017243 0)
(-0.0040797 -0.00235094 0)
(-0.00388481 -0.00306731 0)
(-0.00352777 -0.00387089 0)
(-0.00293108 -0.00472598 0)
(-0.00202458 -0.00553297 0)
(-0.000743376 -0.0059766 0)
(-0.00113068 0.00767435 0)
(-0.00288107 0.00671619 0)
(-0.00387973 0.00548179 0)
(-0.00444463 0.00430367 0)
(-0.00470192 0.00328881 0)
(-0.00478455 0.00244792 0)
(-0.00478023 0.00175664 0)
(-0.0047434 0.00117956 0)
(-0.00470561 0.000680813 0)
(-0.00468369 0.000227322 0)
(-0.00468496 -0.000211314 0)
(-0.00470965 -0.000664533 0)
(-0.00475084 -0.00116289 0)
(-0.00479215 -0.00173984 0)
(-0.00480235 -0.002432 0)
(-0.00472704 -0.00327598 0)
(-0.00447774 -0.00429805 0)
(-0.00391885 -0.0054898 0)
(-0.00292107 -0.00674509 0)
(-0.00115037 -0.00773621 0)
(-0.00192657 0.0104593 0)
(-0.00443302 0.00814353 0)
(-0.00532059 0.0062094 0)
(-0.00569698 0.00459159 0)
(-0.00572076 0.0033375 0)
(-0.00559666 0.00238762 0)
(-0.00543217 0.00166341 0)
(-0.0052826 0.00109425 0)
(-0.00517425 0.00062393 0)
(-0.00511851 0.0002082 0)
(-0.00511954 -0.000189868 0)
(-0.00517764 -0.000604828 0)
(-0.00528926 -0.00107372 0)
(-0.00544377 -0.0016411 0)
(-0.00561575 -0.00236395 0)
(-0.00575077 -0.0033145 0)
(-0.0057415 -0.00457433 0)
(-0.00538067 -0.00620789 0)
(-0.00451036 -0.00817186 0)
(-0.00197237 -0.0105488 0)
(-0.00375879 0.0134764 0)
(-0.00744925 0.00934515 0)
(-0.00742673 0.00661617 0)
(-0.00730822 0.00452704 0)
(-0.00689716 0.0030866 0)
(-0.00644969 0.00210361 0)
(-0.00606449 0.0014154 0)
(-0.00577368 0.000909721 0)
(-0.00558238 0.000512049 0)
(-0.00548814 0.00017131 0)
(-0.00548858 -0.000151255 0)
(-0.00558402 -0.000490576 0)
(-0.00577756 -0.00088536 0)
(-0.00607271 -0.00138666 0)
(-0.00646593 -0.00206927 0)
(-0.00692737 -0.00304667 0)
(-0.00736065 -0.00448521 0)
(-0.00750917 -0.00658844 0)
(-0.00757155 -0.00933797 0)
(-0.00383585 -0.0137357 0)
(-0.00599301 0.0276422 0)
(-0.0110173 0.0114982 0)
(-0.00934135 0.00685248 0)
(-0.00838696 0.00394723 0)
(-0.00728585 0.00239863 0)
(-0.00639969 0.00151918 0)
(-0.00575214 0.000976668 0)
(-0.00530827 0.000611067 0)
(-0.00503222 0.000339338 0)
(-0.00489907 0.000113985 0)
(-0.00489649 -9.68888e-05 0)
(-0.00502441 -0.000320702 0)
(-0.00529506 -0.000589241 0)
(-0.00573332 -0.000949967 0)
(-0.00637511 -0.00148666 0)
(-0.00725528 -0.00236282 0)
(-0.00835145 -0.00391728 0)
(-0.00926511 -0.00688653 0)
(-0.0110182 -0.0116624 0)
(-0.00558666 -0.0279554 0)
(0.0352074 0.020396 0)
(0.0288309 0.00677046 0)
(0.0424943 0.0035718 0)
(0.0457658 0.00179429 0)
(0.0481751 0.000981359 0)
(0.0496157 0.000579735 0)
(0.0505057 0.000357652 0)
(0.051062 0.000219102 0)
(0.0513918 0.000121052 0)
(0.051549 4.19863e-05 0)
(0.0515563 -3.11101e-05 0)
(0.0514145 -0.000108894 0)
(0.0511022 -0.00020408 0)
(0.0505671 -0.000337522 0)
(0.0497032 -0.000551153 0)
(0.0482985 -0.000939387 0)
(0.0458904 -0.00172745 0)
(0.0427822 -0.00350416 0)
(0.0288853 -0.00662637 0)
(0.0354933 -0.0202514 0)
)
;

boundaryField
{
    movingWall
    {
        type            fixedValue;
        value           uniform (1 0 0);
    }
    fixedWalls
    {
        type            noSlip;
    }
    frontAndBack
    {
        type            empty;
    }
}


// ************************************************************************* //
