/*--------------------------------*- C++ -*----------------------------------*\
  =========                 |
  \\      /  F ield         | OpenFOAM: The Open Source CFD Toolbox
   \\    /   O peration     | Website:  https://openfoam.org
    \\  /    A nd           | Version:  10
     \\/     M anipulation  |
\*---------------------------------------------------------------------------*/
FoamFile
{
    format      ascii;
    class       volScalarField;
    location    "5.4";
    object      p;
}
// * * * * * * * * * * * * * * * * * * * * * * * * * * * * * * * * * * * * * //

dimensions      [0 2 -2 0 0 0 0];

internalField   nonuniform List<scalar> 
496
(
22.692
23.5743
20.7773
13.9
23.013
24.4432
21.2555
14.5818
27.9456
26.3783
18.3655
8.78796
37.0276
34.0617
29.4552
14.988
5.34163
-4.09658
5.67041
-3.76692
-5.40995
-12.3581
-36.3023
-57.9458
-11.8386
-17.1981
-20.2027
-21.8689
-11.4281
-17.1799
-21.5978
-25.0801
-7.49147
-9.84767
-15.9379
-23.1402
-30.699
-21.2212
-18.6801
-29.6993
-22.4594
-21.7138
-20.2263
-18.4749
-16.7007
-15.3474
-15.2081
-15.7675
-15.8316
-15.1796
-14.4222
-14.191
-14.5036
-14.6946
-14.2955
-13.185
-11.6885
-9.97902
-8.19529
-6.80804
-5.71257
-5.07037
-4.22079
-3.68619
-3.21375
-3.06674
-3.18934
-3.05807
-3.02163
-2.56772
-2.20615
-1.68963
-1.02558
0.0187756
1.3249
2.0925
2.46056
2.06882
1.33356
0.500561
-26.1848
-24.4718
-21.5085
-18.6613
-16.6238
-15.5381
-15.4332
-15.6678
-15.5147
-14.9086
-14.4088
-14.4165
-14.8119
-14.9677
-14.4549
-13.4152
-11.9766
-10.2536
-8.29845
-6.61999
-5.176
-4.24177
-3.72371
-3.29073
-3.27411
-3.2459
-3.3291
-3.21311
-3.03324
-2.7323
-2.43092
-2.02312
-1.31157
0.123651
1.53948
2.3469
2.53258
1.92285
1.24793
0.493878
-26.1533
-24.4415
-21.7708
-19.2056
-16.5293
-15.0569
-15.0706
-15.2023
-14.8741
-14.4803
-14.2934
-14.8979
-15.6703
-15.9189
-15.4888
-14.1627
-12.3524
-10.0792
-8.14569
-6.45062
-5.42844
-4.40618
-3.44038
-3.4995
-3.71004
-4.28401
-4.50403
-4.79045
-4.16243
-3.29696
-2.4668
-1.73644
-0.710649
0.41428
1.25746
2.39666
2.16225
1.48143
0.820562
-0.384114
-29.366
-22.0486
-20.5947
-20.0798
-16.7773
-14.7268
-14.5909
-14.2734
-13.5974
-13.2338
-14.0996
-15.373
-16.563
-16.955
-16.8484
-15.7523
-13.9804
-11.2305
-8.15626
-4.89628
-2.48866
-1.19915
-1.17239
-2.02525
-2.97548
-4.27205
-4.92364
-5.50864
-5.09936
-4.59868
-3.82682
-2.99009
-0.677637
3.31702
4.68945
5.51839
3.29222
1.78224
1.01173
-0.210102
42.0395
42.9454
57.0952
68.5029
41.1201
43.2754
57.5965
68.3537
-30.9065
-38.3382
-37.1976
-37.9414
-35.877
-48.2619
-33.072
-27.4621
-27.418
-26.1825
-23.5159
-18.8263
-18.7862
-16.9362
-13.3461
-12.3514
-12.7762
-13.747
-14.3243
-15.1344
-16.062
-16.7064
-16.8325
-15.6344
-13.6989
-11.6026
-9.42426
-7.14942
-5.55394
-4.3646
-4.03188
-3.69849
-3.61443
-3.77618
-4.48652
-5.16937
-5.10652
-4.63218
-3.38867
-2.22376
-0.655515
0.35457
0.722724
0.348963
-0.17589
0.000900067
-0.0192409
-0.400456
-34.2302
-26.6678
-19.6236
-22.3495
-17.271
-12.7755
-13.3792
-13.2864
-12.8594
-13.4116
-14.3894
-15.2192
-15.4723
-15.0578
-13.7865
-12.5418
-11.6419
-10.7916
-9.92724
-9.23943
-8.7195
-8.21375
-7.14068
-6.03424
-4.58345
-3.13945
-2.35987
-1.6062
-1.67269
-1.79746
-1.66803
-1.43583
-1.42777
-2.11331
-2.65011
-2.91851
-2.46246
-1.47757
-0.227306
0.648109
35.902
33.4869
29.7392
14.5973
28.7799
26.1875
17.0678
6.32785
23.7043
24.0141
18.8509
11.6651
22.7237
22.9721
19.0414
11.6281
-37.4171
-61.8486
-8.47329
-14.266
3.11066
-6.35094
3.07497
-5.91494
-33.2599
-22.68
-24.0312
-24.0732
-9.40505
-12.9327
-19.0531
-21.6179
-14.5509
-21.0122
-25.0221
-25.6492
-13.5301
-18.8311
-21.4438
-22.042
-21.5216
-22.7665
-20.8823
-16.6365
-14.5537
-12.4065
-10.8752
-11.6678
-13.6577
-15.352
-16.0297
-15.5463
-14.5459
-13.3336
-12.1262
-11.3759
-10.5767
-10.3805
-10.4348
-10.5349
-10.1912
-9.72869
-8.47061
-6.89905
-4.66939
-1.54442
1.08602
3.029
2.56532
1.56573
0.0318583
-0.956635
-1.78253
-2.86247
-2.97671
-3.5685
-2.63804
-1.72011
-0.0740101
1.83601
-22.3142
-23.3877
-22.417
-19.3062
-15.8619
-14.0683
-13.7223
-13.8065
-14.2901
-14.7281
-14.7585
-14.4386
-13.8519
-13.362
-12.7083
-12.1645
-11.5227
-10.8728
-10.4711
-10.1241
-9.60016
-8.60664
-7.18379
-5.64044
-4.32918
-2.94673
-1.7393
-0.652656
0.0766943
0.203644
-0.289632
-1.22981
-1.98909
-2.55385
-2.51262
-2.48624
-1.6711
-1.01666
-0.792051
-0.244164
-23.8622
-22.1472
-21.001
-18.8832
-15.6716
-13.101
-12.5609
-13.4313
-14.4823
-14.8111
-14.4992
-14.1061
-13.7478
-13.3191
-12.6824
-11.8855
-11.1305
-10.3791
-9.61975
-8.86449
-8.17711
-7.2779
-6.34745
-5.48203
-4.7372
-3.80222
-2.34619
-1.23044
-0.225515
0.136379
0.0937764
-0.219105
-0.605485
-1.10561
-1.1771
-1.39393
-1.7167
-1.75232
-1.29117
-0.459469
-21.2352
-20.06
-19.384
-18.6821
-16.6384
-14.0749
-12.9083
-13.8638
-15.4102
-15.5745
-14.5656
-13.4841
-13.083
-13.0331
-12.6516
-11.9613
-11.177
-10.3917
-9.55189
-8.79772
-8.17856
-7.36115
-6.43484
-5.47588
-4.70053
-3.78265
-2.62606
-1.47305
-0.412327
-0.0684505
0.0187573
-0.423969
-0.641048
-0.835649
-1.10112
-1.20468
-1.61402
-1.55846
-1.14166
-0.478455
)
;

boundaryField
{
    inlet
    {
        type            zeroGradient;
    }
    outlet
    {
        type            fixedValue;
        value           uniform 0;
    }
    obstacle
    {
        type            zeroGradient;
    }
    upperWall
    {
        type            zeroGradient;
    }
    lowerWall
    {
        type            zeroGradient;
    }
    frontAndBack
    {
        type            empty;
    }
}


// ************************************************************************* //
