/*--------------------------------*- C++ -*----------------------------------*\
  =========                 |
  \\      /  F ield         | OpenFOAM: The Open Source CFD Toolbox
   \\    /   O peration     | Website:  https://openfoam.org
    \\  /    A nd           | Version:  10
     \\/     M anipulation  |
\*---------------------------------------------------------------------------*/
FoamFile
{
    format      ascii;
    class       surfaceScalarField;
    location    "5.4";
    object      phi;
}
// * * * * * * * * * * * * * * * * * * * * * * * * * * * * * * * * * * * * * //

dimensions      [0 3 -1 0 0 0 0];

internalField   nonuniform List<scalar> 
928
(
0.0948159
0.0051841
0.102709
-0.00789339
0.106538
-0.00382881
-0.00882329
0.115361
0.0944061
0.010778
0.104935
-0.0184225
0.102848
-0.00174155
-0.0176376
0.111662
0.0968706
0.0139073
0.110961
-0.0325133
0.104639
0.00458045
-0.0381943
0.125196
0.103981
0.00992663
0.0922337
-0.0207663
0.0964074
0.000406776
0.145273
-0.0870604
0.11084
0.00452111
-0.0170027
0.127843
0.110327
0.00585627
-0.0411597
0.134484
0.129584
0.00146812
-0.0484096
0.136834
0.146742
0.098332
0.128353
-0.000509553
0.129414
-0.00106155
0.131543
-0.00212878
-0.00148445
0.133027
0.137633
-0.00365794
0.13769
-0.00111863
0.139705
-0.00414377
-0.00201468
0.140235
0.1414
-0.0082239
0.141813
-0.00153152
0.146779
-0.00910931
0.00244355
0.14232
0.10444
-0.0143315
0.0821289
0.0207792
0.0946494
-0.0216298
0.0880423
0.00905061
0.133297
-0.000269725
0.132036
0.00126144
0.13036
0.00167547
0.128735
0.00162502
0.126923
0.00181186
0.125064
0.00185884
0.123085
0.00197951
0.121665
0.00142012
0.120689
0.000976154
0.120378
0.000310552
0.120405
-2.68263e-05
0.120685
-0.000280315
0.120451
0.000234305
0.120046
0.000404786
0.11851
0.00153634
0.116869
0.00164113
0.114121
0.00274777
0.112137
0.00198349
0.110109
0.00202819
0.109055
0.00105437
0.108713
0.000341627
0.108722
-8.54914e-06
0.11045
-0.00172836
0.110566
-0.000116101
0.111928
-0.00136146
0.110488
0.00143922
0.109312
0.00117683
0.105269
0.00404211
0.101346
0.00392337
0.0969388
0.00440731
0.0929438
0.00399504
0.0916725
0.00127129
0.0899692
0.0017033
0.0930789
-0.00310977
0.0956805
-0.00260161
0.100965
-0.00528479
0.105697
-0.00473171
0.109514
-0.00381677
0.113055
-0.00354154
0.000464551
0.139047
0.000917927
0.138121
0.00218723
0.137628
0.00216857
0.136504
0.00274953
0.134986
0.00332981
0.133915
0.00292997
0.132348
0.00354646
0.131068
0.00269981
0.130015
0.00202942
0.130074
0.000251294
0.13036
-0.000313255
0.13098
-0.000899434
0.13084
0.000374155
0.130578
0.000666345
0.129521
0.00259307
0.128209
0.00295363
0.126157
0.00479955
0.12393
0.00421076
0.121646
0.0043116
0.119874
0.00282725
0.119961
0.000254573
0.120267
-0.000314731
0.121922
-0.00338355
0.123309
-0.00150325
0.125222
-0.00327397
0.125068
0.00159335
0.124625
0.00161944
0.12282
0.00584686
0.120125
0.00661891
0.11726
0.00727236
0.112517
0.00873803
0.109017
0.00477111
0.106038
0.00468194
0.106338
-0.00340925
0.107538
-0.00380222
0.110663
-0.0084098
0.114974
-0.00904293
0.118071
-0.00691297
0.123012
-0.00848257
-0.00194266
0.136498
0.00674068
0.137685
0.000999502
0.138386
0.00146753
0.137261
0.00387484
0.138142
0.00244906
0.137561
0.00351086
0.136061
0.00504593
0.135133
0.00362859
0.134996
0.00216579
0.135127
0.00012087
0.134778
3.54634e-05
0.134665
-0.000786914
0.134559
0.000480545
0.134257
0.000968304
0.132932
0.00391789
0.130401
0.00548458
0.127738
0.007463
0.124914
0.00703445
0.123208
0.0060179
0.121825
0.00421028
0.120335
0.00174453
0.119672
0.000347834
0.12007
-0.00378102
0.121538
-0.00297173
0.123301
-0.00503677
0.126316
-0.00142171
0.128537
-0.000601433
0.129176
0.00520743
0.127052
0.00874353
0.122122
0.012202
0.11619
0.0146704
0.110592
0.0103693
0.107122
0.00815185
0.104868
-0.00115558
0.102065
-0.000999075
0.101914
-0.00825858
0.102988
-0.0101176
0.104744
-0.00866894
0.110645
-0.0143834
-0.00596416
0.0856412
0.00914181
0.0967209
-0.0100802
0.0952651
0.00292326
0.0953813
0.00375868
0.101696
-0.00386568
0.102197
0.00300978
0.104401
0.00284174
0.107183
0.000846677
0.109843
-0.000494208
0.109794
0.000170171
0.109361
0.000468024
0.109664
-0.0010893
0.111132
-0.000987652
0.111894
0.000206603
0.112992
0.00282001
0.113961
0.00451512
0.114508
0.00691611
0.112601
0.00894109
0.108237
0.0103819
0.102532
0.00991512
0.0968096
0.00746725
0.0927929
0.00436454
0.0893272
-0.000315267
0.0894971
-0.00314161
0.0912329
-0.00677257
0.0973864
-0.00757521
0.102858
-0.00607327
0.110496
-0.00243076
0.116869
0.0023707
0.122763
0.00630839
0.127732
0.00970081
0.127284
0.0108174
0.122728
0.0127082
0.109421
0.0121512
0.0974717
0.0109504
0.0866747
0.00253843
0.0814093
-0.00485221
0.0814029
-0.00866253
0.0855145
-0.0184949
-0.011849
0.110214
-0.000287406
0.0886924
0.000755345
0.0888883
0.000210805
0.00182799
0.108548
-0.00883579
0.0882818
0.0210219
0.0857038
0.00278881
0.0875318
-0.0136495
-0.000682049
-0.0287544
0.0358841
-0.0113167
-0.0390675
-0.00760705
0.00534091
-0.0124619
0.0117799
0.0152892
0.00813299
-0.0133178
-0.0104604
-0.0168308
-0.00409408
-0.0156231
0.0301058
-0.00520859
-0.0204946
0.00449678
-0.00678212
-0.00482364
0.0130791
0.00581234
-0.0145017
0.0159055
-0.00708339
0.0130079
0.00573934
0.0126731
0.00118145
0.0139423
-0.00176333
0.01679
-0.00267757
0.0187839
-0.0015259
0.0201049
-0.00241032
0.0209018
-0.0017845
0.0224164
-0.00130802
0.0254264
-0.000189978
0.0280883
0.00185319
0.0286266
0.00637776
0.0289243
0.00864342
0.0296726
0.00963363
0.0299773
0.00961045
0.0312655
0.00617903
0.0339353
0.00169469
0.0366064
-0.00298634
0.0411155
-0.00765072
0.046583
-0.0122401
0.0523316
-0.0133238
0.0587723
-0.012514
0.0645432
-0.00820167
0.0689365
-0.00202266
0.0711218
0.00412316
0.0698464
0.0109761
0.0670674
0.0135964
0.062608
0.0171676
0.0600619
0.0146974
0.0602271
0.0107852
0.0609196
0.00184591
0.06317
-0.00710261
0.065945
-0.0114376
0.0697217
-0.0222716
-0.014168
0.0095437
0.0037313
0.00205337
-0.0130043
-0.000667914
-0.00406083
0.0132057
-0.000794536
0.00970888
-0.0110048
0.00679489
-0.00416939
0.0120264
0.000507868
0.0146701
-0.00146232
0.0132645
-0.000357749
0.0107566
-0.000169624
0.00931034
-7.96313e-05
0.00789032
-0.000990296
0.00802817
-0.00192235
0.0098203
-0.00310014
0.0124171
-0.0027868
0.0148998
-0.00062948
0.018961
0.00231655
0.0242188
0.00338558
0.0296933
0.0041592
0.035556
0.00374775
0.0407084
0.00102662
0.0444535
-0.00205044
0.0469331
-0.00546593
0.0477379
-0.00845547
0.0467959
-0.0112981
0.0451395
-0.0116674
0.0445795
-0.0119539
0.0457289
-0.00935112
0.0467707
-0.00306442
0.0503871
0.00050674
0.053294
0.00806926
0.0580036
0.00888676
0.0629562
0.012215
0.0695092
0.00814438
0.0763723
0.00392213
0.0797892
-0.00157104
0.080807
-0.00812035
0.0786616
-0.0092922
0.0720795
-0.0156896
-0.00885572
0.104804
-0.0136398
0.0959868
0.0298391
0.101919
-0.00314389
0.0388464
0.150605
0.0963005
-0.00994033
0.106393
0.0197471
0.10311
0.000138267
0.0194181
0.122539
0.0943274
-0.00426776
0.105908
0.00816649
0.102439
0.00360707
0.00967466
0.112183
0.0957322
0.103899
0.107506
0.11718
0.156327
-0.00572223
0.0440702
0.112257
0.123625
-0.00680827
0.0410849
0.12661
0.109837
-0.0044628
0.016855
0.134067
0.112718
0.129573
0.115879
0.00815805
0.121322
0.00268981
0.114028
-0.00316639
-0.00249396
0.112428
0.133736
0.00103261
0.135641
0.000784695
0.132338
0.00013646
-0.000760916
0.130605
0.135187
-8.70766e-05
0.13532
0.000651457
0.135209
0.000247752
-0.000198837
0.134647
0.129486
0.130137
0.130385
0.130186
0.118293
-0.00213364
0.110051
-0.00476302
0.109425
-0.00343414
0.110918
-0.00228757
0.101795
-0.00188214
0.0985895
-0.000963766
0.0982517
0.000845648
0.095112
0.00167733
0.093401
0.00135329
0.0915556
0.00167573
0.0897604
0.00171555
0.0876132
0.00115694
0.0846543
0.00103652
0.081741
-0.00018685
0.0788741
8.0151e-05
0.0787931
-0.000548513
0.0804234
0.000686322
0.0839638
-0.000154867
0.0889544
-0.000831382
0.0958869
-0.00318472
0.102728
-0.00581492
0.108808
-0.00812984
0.1138
-0.0104582
0.11506
-0.0097155
0.112849
-0.0090872
0.106291
-0.00510949
0.097159
-0.00282169
0.0876629
0.00014501
0.0814603
0.00313821
0.0780201
0.00394689
0.0795367
0.00655272
0.0844566
0.00396684
0.0912327
0.00543878
0.100246
-0.00086916
0.108424
-0.00425596
0.116579
-0.00972541
0.121029
-0.0125703
0.121007
-0.00927064
0.112071
-0.00675317
9.18368e-05
0.129372
-0.000901227
0.126899
-0.00228968
0.127279
-0.00381419
0.127924
-0.00293244
0.12688
-0.000837875
0.126227
-0.000310606
0.12702
5.23082e-05
0.128356
0.000341422
0.128304
0.00140547
0.128344
0.00163557
0.128431
0.00162794
0.129048
0.000539918
0.129779
0.0003062
0.130052
-0.000460366
0.130037
9.53656e-05
0.130063
-0.000574304
0.131089
-0.000340284
0.132524
-0.00158925
0.134184
-0.00249148
0.135656
-0.00465689
0.136069
-0.00622766
0.135059
-0.00712035
0.132667
-0.00806573
0.129624
-0.00667249
0.127358
-0.00682143
0.12499
-0.0027418
0.122984
-0.000815756
0.1203
0.0028293
0.118897
0.00454153
0.118166
0.00467819
0.118972
0.00574644
0.121254
0.00168498
0.124747
0.00194509
0.128419
-0.00454088
0.128804
-0.00464065
0.12717
-0.00809118
0.122516
-0.0079164
0.118457
-0.00521224
0.114522
-0.00281789
0.00370275
0.134037
-0.000291242
0.132382
-0.000635381
0.130611
-0.00204234
0.129493
-0.00181496
0.129427
-0.000772151
0.129365
-0.000248586
0.12947
-5.27933e-05
0.130248
-0.00043589
0.131504
0.000149002
0.132471
0.000668578
0.133426
0.00067314
0.133745
0.000220454
0.134348
-0.000296015
0.134381
-0.000493228
0.134793
-0.000316871
0.134709
-0.000490036
0.134934
-0.000565296
0.1346
-0.00125542
0.133662
-0.00155389
0.131688
-0.00268293
0.128694
-0.00323351
0.125576
-0.00400266
0.121712
-0.00420177
0.118504
-0.0034644
0.114912
-0.0032289
0.113109
-0.0009389
0.112889
-0.000596252
0.113896
0.00182243
0.116154
0.0022842
0.118361
0.00247086
0.121238
0.00286967
0.122737
0.000185229
0.124236
0.000446774
0.123372
-0.00367701
0.121829
-0.00309768
0.118979
-0.00524124
0.114942
-0.00387905
0.111306
-0.00157688
0.108929
-0.000440576
0.00309696
0.129895
0.129259
0.127217
0.125402
0.12463
0.124381
0.124328
0.123893
0.124042
0.12471
0.125383
0.125604
0.125308
0.124815
0.124498
0.124008
0.123442
0.122187
0.120633
0.11795
0.114717
0.110714
0.106512
0.103048
0.0998189
0.09888
0.0982837
0.100106
0.10239
0.104861
0.107731
0.107916
0.108363
0.104686
0.101588
0.0963469
0.0924679
0.090891
0.0904504
)
;

boundaryField
{
    inlet
    {
        type            calculated;
        value           nonuniform List<scalar> 10(-0.1 -0.1 -0.1 -0.1 -0.1 -0.1 -0.1 -0.1 -0.1 -0.1);
    }
    outlet
    {
        type            calculated;
        value           nonuniform List<scalar> 10(0.112591 0.125419 0.114667 0.0913993 0.0720407 0.0667672 0.103123 0.110911 0.109535 0.0935474);
    }
    obstacle
    {
        type            calculated;
        value           uniform 0;
    }
    upperWall
    {
        type            calculated;
        value           uniform 0;
    }
    lowerWall
    {
        type            calculated;
        value           uniform 0;
    }
    frontAndBack
    {
        type            empty;
        value           nonuniform List<scalar> 0();
    }
}


// ************************************************************************* //
