/*--------------------------------*- C++ -*----------------------------------*\
  =========                 |
  \\      /  F ield         | OpenFOAM: The Open Source CFD Toolbox
   \\    /   O peration     | Website:  https://openfoam.org
    \\  /    A nd           | Version:  10
     \\/     M anipulation  |
\*---------------------------------------------------------------------------*/
FoamFile
{
    format      ascii;
    class       volScalarField;
    location    "2.75";
    object      p;
}
// * * * * * * * * * * * * * * * * * * * * * * * * * * * * * * * * * * * * * //

dimensions      [0 2 -2 0 0 0 0];

internalField   nonuniform List<scalar> 
496
(
23.4219
23.3999
19.6782
13.2522
24.1162
24.6175
19.7737
13.172
29.5543
26.929
17.2322
5.96696
38.0629
34.7195
29.6857
12.1315
4.38278
-4.68211
3.90744
-4.96879
-10.7416
-14.9337
-45.298
-72.6611
-11.2327
-14.2077
-14.4017
-13.0872
-12.1173
-17.1837
-19.2779
-17.5583
-6.51294
-4.55713
-8.61235
-10.8152
-40.1594
-21.3787
-5.70164
-7.26021
-11.3239
-9.91646
-9.77102
-11.1446
-12.759
-13.9192
-14.0116
-13.2378
-12.1729
-11.2886
-10.744
-10.0666
-9.68646
-9.15581
-8.48894
-7.90021
-7.266
-6.55278
-5.52952
-4.68909
-3.74378
-2.55981
-1.35263
-0.388748
-0.17005
-0.258955
-0.767817
-1.19023
-1.24065
-1.48349
-1.55658
-1.68048
-1.33487
-0.897629
-0.372477
0.239955
1.0879
1.65189
1.48786
0.736726
-13.9578
-10.9431
-10.6075
-12.0999
-13.6071
-14.3777
-14.141
-13.4002
-12.4501
-11.5076
-10.6554
-9.87274
-9.4182
-8.71506
-8.29148
-7.86121
-7.32992
-6.61276
-5.6557
-4.721
-3.65025
-2.39298
-1.05886
-0.0906026
0.216276
0.0329803
-0.561739
-1.10618
-1.53662
-1.82895
-1.82877
-1.82339
-1.54459
-1.10637
-0.42071
0.61299
1.53453
2.19134
1.98329
1.04736
-10.1634
-9.61398
-10.4068
-12.2601
-14.0021
-15.2098
-15.0934
-14.2506
-13.2084
-12.1296
-10.8904
-10.3172
-9.66603
-8.95184
-8.68131
-8.68903
-8.44981
-7.47888
-6.2017
-4.73805
-3.13754
-1.6599
-0.619246
0.296073
0.530409
-0.0791869
-1.11663
-1.85352
-2.80229
-3.33975
-3.40593
-2.78041
-1.87429
-1.03217
0.227391
1.5702
2.50192
2.77337
2.48608
1.08805
-7.82452
-4.73599
-7.20649
-10.7883
-13.8233
-16.3138
-17.1154
-15.2178
-13.2252
-11.6944
-9.97722
-9.0442
-7.73729
-7.57901
-8.28104
-9.00713
-9.34282
-8.75722
-7.76808
-6.12972
-3.68586
-0.770483
2.03408
3.02016
2.91164
1.38293
-0.162289
-1.54138
-3.66498
-4.23608
-4.29798
-3.86105
-3.13136
-2.32303
-0.848838
1.85211
5.56825
6.52511
6.02536
2.46309
44.3623
44.7766
59.0978
68.8394
46.1159
48.1487
61.3917
74.6024
-38.7082
-39.2796
-31.3149
-7.60478
-19.0304
-42.5405
-32.6026
-8.31822
-15.87
-8.27668
-7.12137
-10.5222
-15.546
-17.7796
-17.1714
-16.7215
-15.6457
-13.7658
-10.8446
-9.01448
-8.30421
-7.84496
-7.97666
-8.10456
-8.19359
-7.65577
-6.79395
-5.63559
-4.04494
-2.4963
-1.03096
-0.0557779
-0.242284
-0.149337
-0.393377
-1.51864
-2.78655
-3.29779
-4.29703
-3.94851
-2.9592
-1.63955
-0.362266
1.10532
2.27233
2.30105
1.9117
0.630384
-22.7037
-10.6097
-8.46721
-13.6779
-13.1114
-16.0458
-17.9082
-16.7409
-15.4333
-14.9906
-13.3153
-11.7017
-9.62272
-7.82256
-6.54696
-5.69947
-4.75158
-4.35143
-4.19041
-4.26954
-4.39013
-4.56829
-4.63805
-4.73683
-3.96187
-2.65197
-1.46027
-0.87618
-0.363637
0.0436943
-0.481506
-0.934537
-0.240962
-0.0259069
0.282258
0.22638
-0.575371
-1.58953
-2.72974
-1.31331
42.7494
41.2014
37.4062
25.2194
35.7851
34.5606
28.5536
18.6088
31.1519
31.3407
28.0163
21.5582
30.3527
29.9693
27.1931
21.3169
-21.0359
-42.7185
5.42655
-1.86482
13.4071
4.80357
13.6762
5.06599
-14.5647
-11.3448
-19.992
-12.9718
0.967534
-1.835
-11.5726
-15.2958
-2.72413
-7.89096
-12.7781
-15.8818
-2.30134
-7.71615
-11.0465
-12.8738
-10.7722
-9.56717
-8.75344
-11.0784
-14.1677
-14.9939
-15.8404
-17.2223
-16.5892
-15.1251
-13.8005
-11.7981
-9.61846
-7.25534
-5.48989
-3.20576
-1.73694
-1.82985
-2.43378
-3.68918
-4.76729
-6.24761
-6.72059
-6.21198
-5.38294
-3.5615
-0.93338
1.92994
3.2899
3.70872
3.64388
2.45511
2.42093
1.80044
1.22098
0.00124463
-2.05566
-2.84025
-3.54862
-1.85104
-12.6208
-9.14765
-8.99529
-11.3497
-14.1595
-15.181
-15.4431
-15.5105
-15.3485
-14.3074
-12.997
-11.3569
-9.41449
-7.48262
-6.20925
-5.19207
-4.08163
-3.48746
-3.51115
-4.12628
-4.85811
-5.30397
-5.60513
-4.83438
-3.61761
-2.1094
-0.799783
0.365012
0.911587
1.35333
2.14471
2.5104
2.66463
2.40623
1.57636
0.432048
-0.745322
-1.67669
-1.67687
-0.484845
-15.3113
-12.4832
-10.5034
-11.1589
-13.4051
-14.9899
-15.2957
-14.7652
-13.9179
-12.9386
-11.921
-10.9783
-9.63022
-7.87902
-6.4645
-5.61016
-4.89512
-4.08741
-3.59529
-3.62107
-3.97905
-4.32497
-4.2995
-3.97764
-3.22082
-2.38557
-1.53092
-0.522248
0.535676
1.40505
1.93683
2.32779
2.36311
2.21252
1.66286
1.02055
0.269963
-0.0815097
-0.146576
-0.247839
-13.0886
-11.3695
-9.74134
-9.89527
-12.0194
-14.3226
-15.2059
-14.6117
-13.3953
-12.4581
-11.6419
-10.9748
-9.67545
-7.98467
-6.55071
-5.82277
-5.36889
-4.421
-3.73377
-3.48417
-3.83539
-4.17236
-4.10261
-3.7706
-2.92653
-2.11889
-1.22481
-0.422351
0.336553
1.05078
1.44359
1.97597
2.2305
2.27539
1.91041
1.11083
0.700259
0.333317
0.155715
0.0301136
)
;

boundaryField
{
    inlet
    {
        type            zeroGradient;
    }
    outlet
    {
        type            fixedValue;
        value           uniform 0;
    }
    obstacle
    {
        type            zeroGradient;
    }
    upperWall
    {
        type            zeroGradient;
    }
    lowerWall
    {
        type            zeroGradient;
    }
    frontAndBack
    {
        type            empty;
    }
}


// ************************************************************************* //
