/*--------------------------------*- C++ -*----------------------------------*\
  =========                 |
  \\      /  F ield         | OpenFOAM: The Open Source CFD Toolbox
   \\    /   O peration     | Website:  https://openfoam.org
    \\  /    A nd           | Version:  10
     \\/     M anipulation  |
\*---------------------------------------------------------------------------*/
FoamFile
{
    format      ascii;
    class       volScalarField;
    location    "0.775";
    object      p;
}
// * * * * * * * * * * * * * * * * * * * * * * * * * * * * * * * * * * * * * //

dimensions      [0 2 -2 0 0 0 0];

internalField   nonuniform List<scalar> 
400
(
-8.19663e-10
5.24456e-05
0.000195829
0.000419256
0.00071729
0.00108255
0.00150597
0.00197704
0.00248408
0.00301447
0.00355485
0.00409145
0.00461034
0.00509772
0.00554031
0.00592569
0.00624276
0.00648217
0.00663682
0.00669464
-5.16884e-05
1.30928e-06
0.000146876
0.000373556
0.000675931
0.00104654
0.0014762
0.00195428
0.00246896
0.00300745
0.00355626
0.00410143
0.00462882
0.00512442
0.00557468
0.00596695
0.00628983
0.00653375
0.00669146
0.00675024
-0.000197885
-0.000142967
8.72252e-06
0.000244945
0.000560018
0.000946145
0.00139375
0.00189182
0.0024281
0.00298938
0.00356173
0.00413068
0.00468158
0.00519982
0.00567123
0.00608243
0.00642129
0.00667755
0.0068434
0.00690505
-0.000434534
-0.000376167
-0.000214493
3.72496e-05
0.000372934
0.000784192
0.00126082
0.00179113
0.00236223
0.0029602
0.00357042
0.00417766
0.00476644
0.00532123
0.00582681
0.00626866
0.00663349
0.00690985
0.00708896
0.00715565
-0.000767741
-0.000704386
-0.000528534
-0.000254819
0.00010996
0.000556597
0.00107397
0.00164948
0.00226927
0.00291855
0.00358173
0.0042426
0.00488457
0.00549084
0.00604475
0.00653018
0.00693209
0.00723732
0.00743558
0.00750965
-0.00120626
-0.00113623
-0.000941529
-0.000638704
-0.000235516
0.000257654
0.000828445
0.00146302
0.00214635
0.00286251
0.00359478
0.00432576
0.00503749
0.00571162
0.00632964
0.00687326
0.00732504
0.00766937
0.00789373
0.00797801
-0.00176166
-0.00168301
-0.00146409
-0.00112405
-0.000671993
-0.000119917
0.000518173
0.00122687
0.00198974
0.00278952
0.00360822
0.00442715
0.00522681
0.00598704
0.00668704
0.00730577
0.00782258
0.0082184
0.00847745
0.00857551
-0.00244884
-0.00235925
-0.00210977
-0.00172303
-0.00121007
-0.000585094
0.000135741
0.000935091
0.00179484
0.00269627
0.00362011
0.00454638
0.00545399
0.00632079
0.00712337
0.00783726
0.00843756
0.00890037
0.00920515
0.00932173
-0.00328679
-0.00318332
-0.00289546
-0.0024506
-0.00186256
-0.00114856
-0.000327578
0.000580661
0.00155613
0.00257863
0.0036277
0.00468228
0.00571988
0.00671639
0.00764552
0.0084787
0.00918554
0.0097354
0.0101007
0.0102424
-0.00429955
-0.00417827
-0.00384206
-0.0033249
-0.00264461
-0.00182265
-0.000881664
0.000155694
0.0012673
0.0024316
0.00362721
0.0048325
0.00602413
0.00717637
0.00826007
0.00924198
0.0100848
0.0107484
0.0111947
0.0113717
-0.00551787
-0.00537306
-0.00497532
-0.00436758
-0.00357371
-0.00262109
-0.00153721
-0.000348232
0.000921496
0.00224932
0.00361359
0.00499296
0.00636424
0.00770111
0.00897206
0.0101389
0.0111558
0.01197
0.0125268
0.0127552
-0.00698176
-0.00680443
-0.00632699
-0.00560428
-0.00466956
-0.00355852
-0.00230497
-0.00093933
0.000511823
0.00202536
0.00358041
0.00515723
0.00673449
0.00828705
0.00978278
0.0111791
0.0124202
0.0134369
0.0141486
0.0144559
-0.00874479
-0.00851971
-0.00793659
-0.00706507
-0.00595363
-0.00464936
-0.00319441
-0.00162433
3.24002e-05
0.00175322
0.00351976
0.00531581
0.00712442
0.00892454
0.0106865
0.0123661
0.013898
0.0151919
0.0161273
0.0165635
-0.0108815
-0.0105819
-0.00985411
-0.00878476
-0.00744785
-0.00590578
-0.00421192
-0.00240698
-0.000520449
0.0014273
0.0034226
0.00545553
0.00751701
0.00959444
0.0116657
0.0136909
0.0156003
0.0172824
0.0185494
0.0192119
-0.0134916
-0.0130753
-0.0121437
-0.0108024
-0.00917193
-0.00733513
-0.00535782
-0.0032852
-0.00114589
0.00104442
0.00327956
0.00555933
0.00788687
0.010264
0.0126843
0.0151222
0.0175153
0.0197509
0.0215115
0.0226295
-0.0168378
-0.0161319
-0.0148923
-0.0131577
-0.0111396
-0.00893452
-0.0066214
-0.00424701
-0.0018353
0.000606295
0.00308266
0.00560681
0.00819908
0.0108827
0.0136775
0.0165885
0.0195811
0.0225962
0.0250875
0.0271998
-0.0205543
-0.0197399
-0.018159
-0.0158787
-0.0133475
-0.010682
-0.00797398
-0.00526502
-0.00256855
0.000122089
0.00282727
0.00557678
0.0084101
0.0113781
0.0145389
0.0179446
0.0216196
0.0257408
0.0291745
0.0334212
-0.0282895
-0.0246654
-0.0223272
-0.0190426
-0.0157665
-0.0125152
-0.00935024
-0.00628449
-0.00330499
-0.00038291
0.0025212
0.00545587
0.00847736
0.0116756
0.0151713
0.0191418
0.0237247
0.0296671
0.0348799
0.043383
-0.0330564
-0.0304373
-0.0269687
-0.0226997
-0.0184631
-0.0144425
-0.0107307
-0.00727904
-0.00402371
-0.000900085
0.00215672
0.00521499
0.00833796
0.0116101
0.0151286
0.0191056
0.0231973
0.0307318
0.0342428
0.0517668
-0.0608571
-0.0339765
-0.0304407
-0.0247074
-0.0196098
-0.0152705
-0.0113492
-0.00773543
-0.00436218
-0.00115435
0.00196081
0.00505594
0.00822031
0.0115822
0.0153271
0.0201125
0.0260437
0.0377508
0.0506222
0.0938167
)
;

boundaryField
{
    movingWall
    {
        type            zeroGradient;
    }
    fixedWalls
    {
        type            zeroGradient;
    }
    frontAndBack
    {
        type            empty;
    }
}


// ************************************************************************* //
