/*--------------------------------*- C++ -*----------------------------------*\
  =========                 |
  \\      /  F ield         | OpenFOAM: The Open Source CFD Toolbox
   \\    /   O peration     | Website:  https://openfoam.org
    \\  /    A nd           | Version:  10
     \\/     M anipulation  |
\*---------------------------------------------------------------------------*/
FoamFile
{
    format      ascii;
    class       volVectorField;
    location    "7.175";
    object      U;
}
// * * * * * * * * * * * * * * * * * * * * * * * * * * * * * * * * * * * * * //

dimensions      [0 1 -1 0 0 0 0];

internalField   nonuniform List<vector> 
400
(
(-0.000129794 0.0001178 0)
(-0.00100225 0.000377176 0)
(-0.00247927 0.000470354 0)
(-0.00397736 0.000496762 0)
(-0.00550645 0.000505788 0)
(-0.0070268 0.000512428 0)
(-0.00851946 0.000515879 0)
(-0.00995994 0.000510358 0)
(-0.0113089 0.000488407 0)
(-0.0125096 0.000441432 0)
(-0.0134859 0.000360027 0)
(-0.0141413 0.000235164 0)
(-0.0143624 6.04727e-05 0)
(-0.0140263 -0.000169592 0)
(-0.0130209 -0.000445259 0)
(-0.0112748 -0.000741084 0)
(-0.00880848 -0.00100517 0)
(-0.00584295 -0.00115225 0)
(-0.00252844 -0.00105251 0)
(-0.000387636 -0.000455427 0)
(-0.000423472 0.00101722 0)
(-0.00223889 0.00213548 0)
(-0.00501566 0.00253492 0)
(-0.00782156 0.00263604 0)
(-0.0106481 0.00263421 0)
(-0.013412 0.00259119 0)
(-0.0160621 0.00250909 0)
(-0.0185446 0.00236986 0)
(-0.0207869 0.00214814 0)
(-0.0226946 0.00181457 0)
(-0.0241483 0.00133784 0)
(-0.0250034 0.000688251 0)
(-0.0251007 -0.000156132 0)
(-0.0242691 -0.00119042 0)
(-0.0223548 -0.00236932 0)
(-0.0192715 -0.00358667 0)
(-0.0150741 -0.00464218 0)
(-0.0100992 -0.00520716 0)
(-0.00459801 -0.00479158 0)
(-0.000855593 -0.00243426 0)
(-0.000549157 0.00262091 0)
(-0.0027906 0.0049756 0)
(-0.00615082 0.00579851 0)
(-0.00951988 0.00598287 0)
(-0.0128924 0.00592893 0)
(-0.0161707 0.00576403 0)
(-0.0192959 0.0054982 0)
(-0.0222082 0.0051013 0)
(-0.0248287 0.00452772 0)
(-0.0270561 0.00372333 0)
(-0.0287626 0.00263039 0)
(-0.0297929 0.00119522 0)
(-0.0299583 -0.000618434 0)
(-0.0290486 -0.00280362 0)
(-0.0268675 -0.00527228 0)
(-0.0232765 -0.0078131 0)
(-0.0182958 -0.0100207 0)
(-0.0123031 -0.0112107 0)
(-0.00558316 -0.010375 0)
(-0.00101737 -0.00553581 0)
(-0.000589016 0.00432148 0)
(-0.0030092 0.0079951 0)
(-0.00663158 0.0092489 0)
(-0.01025 0.0095047 0)
(-0.0138728 0.00938891 0)
(-0.0174028 0.00909834 0)
(-0.0207878 0.00865143 0)
(-0.0239755 0.00800648 0)
(-0.026895 0.00709752 0)
(-0.0294505 0.005843 0)
(-0.0315139 0.00415245 0)
(-0.0329177 0.00193903 0)
(-0.0334507 -0.00085946 0)
(-0.032844 -0.00426415 0)
(-0.0308012 -0.0081651 0)
(-0.0270612 -0.0122565 0)
(-0.021524 -0.0158993 0)
(-0.0145768 -0.0179504 0)
(-0.00652485 -0.0167081 0)
(-0.00110337 -0.00891917 0)
(-0.000596172 0.00610075 0)
(-0.00310118 0.0111732 0)
(-0.00687103 0.0128809 0)
(-0.0106379 0.0132164 0)
(-0.0144253 0.0130502 0)
(-0.0181441 0.0126541 0)
(-0.0217566 0.0120572 0)
(-0.0252276 0.0112074 0)
(-0.0285041 0.0100178 0)
(-0.0315061 0.00837536 0)
(-0.0341122 0.00614613 0)
(-0.0361447 0.00318768 0)
(-0.0373628 -0.000626833 0)
(-0.0374161 -0.00535717 0)
(-0.0358597 -0.0109382 0)
(-0.0322254 -0.0169892 0)
(-0.0261679 -0.0225958 0)
(-0.0179861 -0.0259821 0)
(-0.00793304 -0.0244062 0)
(-0.00119506 -0.0128579 0)
(-0.000593968 0.00791445 0)
(-0.00315803 0.0144531 0)
(-0.00704729 0.0166418 0)
(-0.0109419 0.0170741 0)
(-0.0148809 0.0168821 0)
(-0.0187868 0.0164201 0)
(-0.022643 0.0157319 0)
(-0.0264394 0.014758 0)
(-0.030152 0.013391 0)
(-0.0337305 0.0114831 0)
(-0.0370781 0.00884545 0)
(-0.040025 0.00525331 0)
(-0.0422902 0.000473752 0)
(-0.0434532 -0.00566422 0)
(-0.0428899 -0.0132185 0)
(-0.0397959 -0.0218139 0)
(-0.0333901 -0.0302504 0)
(-0.023625 -0.035884 0)
(-0.0103854 -0.0342677 0)
(-0.00134648 -0.0176623 0)
(-0.000588965 0.00975035 0)
(-0.00320901 0.0178207 0)
(-0.00721688 0.0205198 0)
(-0.011238 0.0210688 0)
(-0.015327 0.0208808 0)
(-0.0194213 0.0204027 0)
(-0.0235307 0.0196998 0)
(-0.0276796 0.0187104 0)
(-0.0318864 0.0173115 0)
(-0.0361511 0.0153212 0)
(-0.0404304 0.0124884 0)
(-0.0445951 0.00848468 0)
(-0.0483691 0.00292067 0)
(-0.05129 -0.00460537 0)
(-0.0525582 -0.0143813 0)
(-0.0509516 -0.0262324 0)
(-0.0449651 -0.0388194 0)
(-0.0335629 -0.0484775 0)
(-0.0152854 -0.0477314 0)
(-0.00176171 -0.0240749 0)
(-0.000581916 0.0116074 0)
(-0.00326019 0.0212791 0)
(-0.00739052 0.0245171 0)
(-0.0115335 0.025199 0)
(-0.0157602 0.0250422 0)
(-0.0200242 0.0245986 0)
(-0.0243667 0.0239649 0)
(-0.0288557 0.0230885 0)
(-0.0335676 0.0218423 0)
(-0.0385781 0.0200204 0)
(-0.0439387 0.0173138 0)
(-0.0496262 0.0132794 0)
(-0.0554688 0.00731641 0)
(-0.0610654 -0.00130045 0)
(-0.0655777 -0.013231 0)
(-0.067434 -0.028939 0)
(-0.064041 -0.0474893 0)
(-0.0518373 -0.0646151 0)
(-0.0259904 -0.0673808 0)
(-0.00317742 -0.0339556 0)
(-0.000573453 0.0134857 0)
(-0.00331485 0.0248329 0)
(-0.00757079 0.0286318 0)
(-0.0118212 0.0294512 0)
(-0.0161546 0.0293408 0)
(-0.0205401 0.0289729 0)
(-0.0250528 0.0284887 0)
(-0.0298107 0.0278612 0)
(-0.0349631 0.0269806 0)
(-0.04069 0.0256445 0)
(-0.0471903 0.0235157 0)
(-0.054648 0.0200599 0)
(-0.0631502 0.0144766 0)
(-0.072563 0.00567601 0)
(-0.0825184 -0.00765992 0)
(-0.0914711 -0.0269969 0)
(-0.0949674 -0.0537341 0)
(-0.0835796 -0.0847533 0)
(-0.0474154 -0.0978888 0)
(-0.00731892 -0.0516377 0)
(-0.000566926 0.0153888 0)
(-0.00338368 0.0284885 0)
(-0.00777052 0.0328561 0)
(-0.0121042 0.0337965 0)
(-0.0164922 0.033725 0)
(-0.0209172 0.033452 0)
(-0.0254865 0.0331786 0)
(-0.0303685 0.0329237 0)
(-0.0357899 0.0326264 0)
(-0.0420541 0.0321353 0)
(-0.0495572 0.0311557 0)
(-0.0587956 0.0291659 0)
(-0.0703536 0.0253119 0)
(-0.0849024 0.0182914 0)
(-0.102989 0.00601827 0)
(-0.123647 -0.0154972 0)
(-0.138463 -0.0535467 0)
(-0.127108 -0.109753 0)
(-0.0800525 -0.145894 0)
(-0.0170866 -0.0851374 0)
(-0.000570867 0.0173314 0)
(-0.00349255 0.0322618 0)
(-0.00802531 0.0371788 0)
(-0.0124108 0.0381898 0)
(-0.0167819 0.0381138 0)
(-0.0211301 0.037917 0)
(-0.0255886 0.037875 0)
(-0.030367 0.0380743 0)
(-0.0357574 0.0385394 0)
(-0.0421767 0.0392328 0)
(-0.0502252 0.0400129 0)
(-0.0607755 0.0405641 0)
(-0.0750942 0.0403064 0)
(-0.0950381 0.0381415 0)
(-0.122742 0.0309034 0)
(-0.156323 0.00860739 0)
(-0.179363 -0.0477695 0)
(-0.163411 -0.143935 0)
(-0.115036 -0.21184 0)
(-0.034826 -0.14342 0)
(-0.00060345 0.0193537 0)
(-0.00369402 0.036198 0)
(-0.00840822 0.041612 0)
(-0.0128103 0.0425977 0)
(-0.0170761 0.0424202 0)
(-0.0212025 0.0422217 0)
(-0.0253375 0.0423641 0)
(-0.0297096 0.0430175 0)
(-0.0346409 0.0443281 0)
(-0.0406105 0.0464457 0)
(-0.0483532 0.049522 0)
(-0.0590117 0.0537035 0)
(-0.0743339 0.05904 0)
(-0.0969527 0.0645919 0)
(-0.129467 0.0644249 0)
(-0.167224 0.038498 0)
(-0.187862 -0.0431249 0)
(-0.167941 -0.181796 0)
(-0.136224 -0.281479 0)
(-0.0502715 -0.236458 0)
(-0.00069522 0.0215115 0)
(-0.00406622 0.040289 0)
(-0.00903141 0.0460324 0)
(-0.0134263 0.0468217 0)
(-0.0174959 0.0464114 0)
(-0.0212358 0.0460996 0)
(-0.0248026 0.0463108 0)
(-0.0284113 0.0472998 0)
(-0.0323455 0.0493449 0)
(-0.0370331 0.0528155 0)
(-0.0431494 0.0582348 0)
(-0.0517662 0.0663276 0)
(-0.0644754 0.077769 0)
(-0.0831263 0.0908529 0)
(-0.109513 0.0953316 0)
(-0.137459 0.0626095 0)
(-0.150392 -0.0383835 0)
(-0.135476 -0.203312 0)
(-0.129642 -0.337362 0)
(-0.0479714 -0.344987 0)
(-0.000938513 0.0240961 0)
(-0.00484788 0.0450832 0)
(-0.0101485 0.0510948 0)
(-0.0144337 0.0515093 0)
(-0.0181592 0.0505605 0)
(-0.0213531 0.0497895 0)
(-0.024146 0.0497195 0)
(-0.0266851 0.0506838 0)
(-0.0291495 0.0530626 0)
(-0.0317872 0.0573956 0)
(-0.0349751 0.0644898 0)
(-0.0392205 0.0753973 0)
(-0.0452782 0.0910079 0)
(-0.0532289 0.108252 0)
(-0.0645765 0.113983 0)
(-0.0742511 0.0763211 0)
(-0.0798601 -0.0307205 0)
(-0.0739723 -0.202685 0)
(-0.0951808 -0.366765 0)
(-0.0324679 -0.427347 0)
(-0.00129811 0.0272566 0)
(-0.00576923 0.0492612 0)
(-0.0116962 0.0546242 0)
(-0.0160722 0.0540443 0)
(-0.0195662 0.0525217 0)
(-0.022114 0.0514626 0)
(-0.0239126 0.0512437 0)
(-0.0250799 0.0521103 0)
(-0.0256652 0.0544357 0)
(-0.0256628 0.058804 0)
(-0.025066 0.0661027 0)
(-0.023576 0.0772992 0)
(-0.021175 0.0931525 0)
(-0.0162332 0.109853 0)
(-0.0113878 0.115142 0)
(-0.00171996 0.0779951 0)
(-0.00493981 -0.0254454 0)
(-0.00798309 -0.182262 0)
(-0.057358 -0.364264 0)
(-0.0162847 -0.477085 0)
(-0.00337443 0.0300484 0)
(-0.0101851 0.0572262 0)
(-0.0154891 0.0625198 0)
(-0.0189235 0.0613966 0)
(-0.0212205 0.0583273 0)
(-0.0227455 0.0556896 0)
(-0.0235307 0.0539951 0)
(-0.0234829 0.0535207 0)
(-0.0224011 0.054576 0)
(-0.019961 0.0576158 0)
(-0.0158182 0.0633904 0)
(-0.00896311 0.0725294 0)
(0.000764528 0.0855544 0)
(0.0162562 0.0988603 0)
(0.032686 0.103116 0)
(0.0533718 0.0722338 0)
(0.0530815 -0.0174084 0)
(0.0469833 -0.147751 0)
(-0.0288994 -0.342031 0)
(0.00119406 -0.504003 0)
(-0.00106235 0.0438084 0)
(-0.00826234 0.0593177 0)
(-0.0185694 0.0606725 0)
(-0.0222374 0.0564051 0)
(-0.0251177 0.0532504 0)
(-0.0260433 0.0511132 0)
(-0.0257395 0.0498311 0)
(-0.0241524 0.0493119 0)
(-0.0211218 0.0497348 0)
(-0.0162001 0.0513629 0)
(-0.0089401 0.054832 0)
(0.00209587 0.0604078 0)
(0.0169056 0.0684276 0)
(0.0388064 0.0762915 0)
(0.0605805 0.0772677 0)
(0.08881 0.0544442 0)
(0.0878439 -0.0120637 0)
(0.0802841 -0.109596 0)
(-0.00205659 -0.312588 0)
(0.0232836 -0.51059 0)
(-0.0125166 0.032458 0)
(-0.0238447 0.0799899 0)
(-0.0227632 0.0794016 0)
(-0.0282882 0.0743118 0)
(-0.0294778 0.0669705 0)
(-0.0288828 0.0608554 0)
(-0.0262981 0.055884 0)
(-0.0219758 0.0520077 0)
(-0.0159768 0.0492332 0)
(-0.00792226 0.0473957 0)
(0.00213783 0.0468653 0)
(0.0157016 0.0476329 0)
(0.0319752 0.0503129 0)
(0.0546577 0.0527903 0)
(0.074064 0.0535621 0)
(0.104032 0.0408726 0)
(0.10206 0.0012101 0)
(0.114234 -0.0699399 0)
(0.0460464 -0.280121 0)
(0.0587503 -0.495705 0)
(-0.0775065 0.0962689 0)
(-0.0632165 0.0590142 0)
(-0.0656084 0.0598876 0)
(-0.0437689 0.0532206 0)
(-0.0264955 0.0462908 0)
(-0.00641269 0.0411436 0)
(0.0125415 0.0373852 0)
(0.0317759 0.0341879 0)
(0.04955 0.0318647 0)
(0.0687286 0.0296758 0)
(0.0854243 0.0284415 0)
(0.106581 0.0275045 0)
(0.121937 0.0272189 0)
(0.15137 0.02726 0)
(0.16205 0.0230563 0)
(0.204305 0.0151769 0)
(0.196384 -0.0191394 0)
(0.229468 -0.0771185 0)
(0.157953 -0.255046 0)
(0.126228 -0.436882 0)
(0.119534 0.140819 0)
(0.152278 0.0861899 0)
(0.228852 0.0635908 0)
(0.28431 0.0481124 0)
(0.325612 0.0374323 0)
(0.363874 0.0296496 0)
(0.392541 0.0242031 0)
(0.423698 0.0201462 0)
(0.443517 0.0172289 0)
(0.472174 0.0150079 0)
(0.484704 0.0132106 0)
(0.514412 0.0121188 0)
(0.519644 0.0109277 0)
(0.552956 0.0101081 0)
(0.548207 0.00842515 0)
(0.5825 0.00396919 0)
(0.552489 -0.00529676 0)
(0.5589 -0.0275772 0)
(0.4235 -0.0733236 0)
(0.275969 -0.151982 0)
)
;

boundaryField
{
    movingWall
    {
        type            fixedValue;
        value           uniform (1 0 0);
    }
    fixedWalls
    {
        type            noSlip;
    }
    frontAndBack
    {
        type            empty;
    }
}


// ************************************************************************* //
