/*--------------------------------*- C++ -*----------------------------------*\
  =========                 |
  \\      /  F ield         | OpenFOAM: The Open Source CFD Toolbox
   \\    /   O peration     | Website:  https://openfoam.org
    \\  /    A nd           | Version:  10
     \\/     M anipulation  |
\*---------------------------------------------------------------------------*/
FoamFile
{
    format      ascii;
    class       volVectorField;
    location    "6.05";
    object      U;
}
// * * * * * * * * * * * * * * * * * * * * * * * * * * * * * * * * * * * * * //

dimensions      [0 1 -1 0 0 0 0];

internalField   nonuniform List<vector> 
496
(
(9.9485 0.0668354 0)
(9.95578 -0.153739 0)
(10.1901 -0.103651 0)
(10.7237 -0.227037 0)
(10.0146 0.496453 0)
(9.83481 -1.19827 0)
(10.199 -0.276422 0)
(10.7603 -1.10666 0)
(10.736 1.3298 0)
(9.13694 -2.83752 0)
(11.1251 -0.189643 0)
(10.7007 -3.94046 0)
(11.832 1.69553 0)
(8.31551 -2.67897 0)
(12.5115 0.994905 0)
(10.2624 -6.38821 0)
(11.3992 -0.214966 4.1482e-18)
(12.1197 -0.208871 -1.4921e-18)
(11.5962 -0.43393 9.88386e-19)
(12.4197 0.1068 6.03962e-19)
(12.8135 -2.18261 -5.14194e-18)
(13.183 -0.624021 8.89518e-19)
(12.6825 -5.19514 -2.61131e-17)
(15.4906 -4.3435 5.18309e-17)
(12.7274 -0.204087 0)
(13.0377 -0.194207 0)
(13.2642 -0.124448 0)
(13.1554 0.0499826 0)
(13.1088 0.0716432 0)
(13.4751 -0.128685 0)
(13.9 -0.299461 0)
(13.8433 -0.545677 0)
(12.7812 0.242556 0)
(13.0464 0.539345 0)
(13.2862 1.15247 0)
(13.2012 0.820849 0)
(10.2682 -3.31873 0)
(8.79276 -0.481737 0)
(9.57475 -1.14315 0)
(8.1899 -1.69698 0)
(13.1814 0.104171 0)
(13.091 0.230792 0)
(13.2722 0.279636 0)
(13.2801 0.43371 0)
(13.4134 0.4494 0)
(13.2698 0.468384 0)
(13.2265 0.440997 0)
(13.0543 0.416661 0)
(12.9972 0.398021 0)
(12.8697 0.362195 0)
(12.8008 0.366296 0)
(12.6968 0.336026 0)
(12.6153 0.342599 0)
(12.497 0.311128 0)
(12.3799 0.306596 0)
(12.2309 0.280039 0)
(12.1471 0.276354 0)
(12.0397 0.261286 0)
(12.0264 0.262418 0)
(11.9107 0.253461 0)
(11.8755 0.259317 0)
(11.6961 0.262683 0)
(11.6749 0.27806 0)
(11.4416 0.280786 0)
(11.4004 0.275057 0)
(11.0502 0.281761 0)
(10.991 0.263791 0)
(10.617 0.286387 0)
(10.6106 0.23234 0)
(10.3642 0.223097 0)
(10.4369 0.13909 0)
(10.4573 0.112099 0)
(10.557 0.0704946 0)
(10.7374 0.0546073 0)
(10.7084 0.0936534 0)
(10.8024 0.0939723 0)
(10.661 0.182843 0)
(10.5003 0.173947 0)
(10.366 0.23219 0)
(9.86598 0.25923 0)
(13.841 -0.820964 0)
(13.7984 -0.787864 0)
(13.9999 -0.661426 0)
(14.0368 -0.425756 0)
(14.0316 -0.349273 0)
(13.9428 -0.263299 0)
(13.8521 -0.234913 0)
(13.7871 -0.223591 0)
(13.7147 -0.18316 0)
(13.6954 -0.179062 0)
(13.6372 -0.11469 0)
(13.6054 -0.107931 0)
(13.546 -0.0686245 0)
(13.4708 -0.0608181 0)
(13.4041 -0.0740903 0)
(13.2933 -0.0611057 0)
(13.28 -0.0837748 0)
(13.1935 -0.0705035 0)
(13.2528 -0.0639481 0)
(13.1491 -0.0750077 0)
(13.2036 -0.0371176 0)
(13.0532 -0.0572505 0)
(13.1029 0.0497978 0)
(12.8963 0.0670364 0)
(12.8949 0.145644 0)
(12.6308 0.165603 0)
(12.5702 0.0760271 0)
(12.3197 0.0898699 0)
(12.207 -0.106455 0)
(12.0773 -0.0596666 0)
(12.0143 -0.220538 0)
(12.1227 -0.202199 0)
(12.1572 -0.254209 0)
(12.3819 -0.243714 0)
(12.4466 -0.124348 0)
(12.5656 -0.0665477 0)
(12.6318 0.161304 0)
(12.4729 0.200054 0)
(12.5513 0.375074 0)
(12.1609 0.208431 0)
(13.0879 0.422783 0)
(13.611 0.428959 0)
(13.7991 0.404448 0)
(13.939 0.525985 0)
(13.7484 0.321339 0)
(13.8014 0.523881 0)
(13.6663 0.416818 0)
(13.6128 0.442054 0)
(13.6138 0.402892 0)
(13.5659 0.397128 0)
(13.6347 0.425395 0)
(13.5023 0.353317 0)
(13.5852 0.42418 0)
(13.3731 0.321532 0)
(13.4617 0.386296 0)
(13.2285 0.272065 0)
(13.3778 0.338246 0)
(13.1857 0.215116 0)
(13.399 0.305179 0)
(13.2292 0.177454 0)
(13.3751 0.250575 0)
(13.3295 0.216171 0)
(13.4392 0.328562 0)
(13.5058 0.446619 0)
(13.4402 0.527713 0)
(13.5051 0.783543 0)
(13.1701 0.662641 0)
(13.2394 0.863978 0)
(12.846 0.480843 0)
(12.9461 0.462281 0)
(12.6562 0.0124906 0)
(12.6167 -0.149862 0)
(12.5925 -0.257713 0)
(12.5002 -0.405456 0)
(12.7118 -0.134834 0)
(12.6442 -0.279001 0)
(12.9814 0.254468 0)
(13.0255 0.232718 0)
(13.2376 0.673781 0)
(13.147 0.800777 0)
(7.49732 -1.03544 0)
(8.7282 -0.764936 0)
(8.5854 -0.664461 0)
(9.04826 -0.77672 0)
(7.53439 -0.23699 0)
(9.43682 -0.151765 0)
(8.22368 -0.204698 0)
(8.92738 -0.0669644 0)
(8.2733 0.0644758 0)
(9.29186 0.11391 0)
(8.68658 0.0482023 0)
(9.17965 0.0645867 0)
(8.95347 0.040164 0)
(8.90787 0.0768442 0)
(9.03771 0.0770566 0)
(8.61985 0.101356 0)
(9.01965 0.12978 0)
(8.53087 0.0880944 0)
(9.18244 0.0924438 0)
(8.62299 -0.058751 0)
(9.17881 -0.053547 0)
(9.12308 -0.10402 0)
(9.5787 -0.137956 0)
(9.78108 -0.0913038 0)
(10.2437 -0.00749346 0)
(10.6636 0.106302 0)
(10.5947 0.155639 0)
(11.1131 0.269285 0)
(10.2904 0.237777 0)
(10.6168 0.292441 0)
(9.32451 0.231938 0)
(9.38601 0.22308 0)
(8.6835 0.134418 0)
(8.51058 -0.0604043 0)
(8.7011 -0.164431 0)
(8.57303 -0.305473 0)
(9.47493 -0.237377 0)
(9.52806 -0.219492 0)
(10.3474 -0.0638448 0)
(10.8195 0.0718574 0)
(12.3375 0.557208 -1.10366e-17)
(7.92343 -0.648629 -1.84848e-17)
(11.519 0.0771467 3.2437e-17)
(4.9591 -4.36574 -8.74209e-17)
(11.8368 -0.603166 1.07801e-17)
(8.32606 1.01724 1.81524e-17)
(11.2153 0.0936058 -3.17794e-17)
(5.06821 5.06618 8.45751e-17)
(-13.4666 -0.273116 0)
(14.8807 2.06704 0)
(-0.412621 5.77141 0)
(4.1357 -1.18671 0)
(11.8432 -7.37548 3.95772e-17)
(-10.6607 -4.30336 0)
(3.90327 2.32465 0)
(-1.61414 -1.8667 0)
(1.11024 0.142204 0)
(4.04093 1.25359 0)
(-1.25097 0.640801 0)
(1.45613 -1.36197 0)
(1.60458 -0.564467 0)
(0.225911 2.63418 0)
(-0.526449 -0.587186 0)
(-0.0619408 -0.170663 0)
(0.548325 0.334487 0)
(0.943658 0.442497 0)
(0.696829 0.325198 0)
(0.554328 0.348079 0)
(0.648884 0.36438 0)
(1.00708 0.387319 0)
(0.77088 0.325534 0)
(1.18062 0.215729 0)
(1.30216 0.204794 0)
(1.49748 0.258817 0)
(1.95839 0.114737 0)
(1.46084 -0.182822 0)
(2.30849 -0.046861 0)
(2.63847 -0.107961 0)
(2.31784 -0.334733 0)
(3.17658 0.00836638 0)
(3.27916 0.140959 0)
(3.4991 0.257456 0)
(3.35598 0.510365 0)
(3.91456 0.734571 0)
(3.45038 0.906815 0)
(3.56986 0.893245 0)
(3.46891 0.656741 0)
(3.5168 0.436416 0)
(3.66593 0.117605 0)
(3.75677 -0.312237 0)
(3.72046 -0.540879 0)
(4.38517 -0.613967 0)
(4.31303 -0.582223 0)
(4.62943 -0.522041 0)
(5.16575 -0.0666536 0)
(5.01928 0.31617 0)
(-0.69493 0.464605 0)
(0.161685 0.975157 0)
(-1.13475 0.553703 0)
(1.71047 -1.7295 0)
(-4.26843 0.906794 0)
(0.994921 0.585601 0)
(1.11509 -0.75872 0)
(-0.040946 -0.312584 0)
(0.608854 -0.527335 0)
(0.59375 -0.254196 0)
(0.540898 0.0217768 0)
(1.02297 -0.0736734 0)
(1.46749 -0.245473 0)
(1.58272 -0.231595 0)
(1.71233 -0.152253 0)
(1.87727 -0.247539 0)
(1.88895 -0.16274 0)
(2.27145 -0.365653 0)
(2.71967 -0.4319 0)
(2.31712 -0.357645 0)
(2.60578 -0.665305 0)
(3.03396 -0.709155 0)
(2.3232 -0.527593 0)
(2.77385 -0.594971 0)
(3.23196 -0.594773 0)
(2.53627 -0.00590128 0)
(3.29727 0.156218 0)
(3.59263 0.307173 0)
(3.39196 0.556683 0)
(4.51573 0.4811 0)
(4.04357 0.438665 0)
(4.9217 0.169794 0)
(4.92212 -0.17509 0)
(4.92577 -0.410589 0)
(5.08065 -0.623703 0)
(4.77049 -0.869432 0)
(4.71322 -0.801233 0)
(4.61162 -0.823722 0)
(4.32972 -0.343355 0)
(4.7079 0.100039 0)
(12.7122 -1.50065 0)
(7.62305 2.60391 0)
(13.5945 -0.637967 0)
(9.99588 6.59096 0)
(10.8914 -1.47953 0)
(9.03391 3.1213 0)
(11.2002 0.033911 0)
(10.8083 4.23056 0)
(10.1102 -0.536464 0)
(9.7763 1.35694 0)
(10.2873 0.408024 0)
(10.873 1.11994 0)
(10.0062 -0.0871458 0)
(9.8873 0.183524 0)
(10.2135 0.159449 0)
(10.7891 0.16765 0)
(13.8375 5.69164 4.37992e-17)
(15.9443 4.14646 -7.48346e-17)
(12.9884 1.94987 0)
(13.136 0.133099 0)
(11.6827 0.495874 0)
(12.5651 -0.317408 0)
(11.5013 0.251689 0)
(12.1742 0.122874 0)
(11.5872 2.79902 0)
(11.8765 2.35014 0)
(7.62668 0.837717 0)
(10.3847 1.64306 0)
(12.089 -1.55071 0)
(12.162 -2.18849 0)
(12.238 -1.07416 0)
(12.578 -0.451867 0)
(13.0147 -0.206176 0)
(13.4062 0.229292 0)
(13.4404 0.722613 0)
(13.4129 0.939578 0)
(12.66 0.151863 0)
(12.8278 0.0628972 0)
(12.8834 -0.0661145 0)
(12.8686 -0.0973038 0)
(9.78219 0.983186 0)
(10.6941 0.924301 0)
(9.84216 0.733894 0)
(10.2924 0.508832 0)
(10.6418 0.491003 0)
(9.19061 0.0471302 0)
(10.5368 -0.0894162 0)
(9.83658 0.0202567 0)
(10.4405 -0.0448579 0)
(9.98667 0.0288296 0)
(10.2033 0.0430212 0)
(10.0117 0.0548197 0)
(10.1482 -0.00730543 0)
(10.4146 -0.00034153 0)
(10.2362 -0.015818 0)
(10.647 -0.0336131 0)
(10.291 -0.0469288 0)
(10.8984 -0.120044 0)
(10.5021 -0.105051 0)
(11.0661 -0.166101 0)
(10.5141 -0.135991 0)
(10.9339 -0.214494 0)
(10.2628 -0.126689 0)
(10.1537 -0.11599 0)
(9.86962 -0.0991141 0)
(9.4843 0.00784575 0)
(9.48287 0.0965594 0)
(9.17129 0.213313 0)
(9.73198 0.27061 0)
(9.62054 0.294878 0)
(10.3821 0.190711 0)
(10.6098 0.0635065 0)
(11.1383 -0.101789 0)
(11.6724 -0.241219 0)
(11.5965 -0.23659 0)
(12.0473 -0.297328 0)
(11.3496 -0.155108 0)
(11.3054 -0.160087 0)
(10.4715 -0.0975608 0)
(9.98329 0.110249 0)
(13.1109 -0.341264 0)
(13.204 -0.318904 0)
(13.6383 -0.451802 0)
(13.3525 -0.355671 0)
(13.631 -0.510994 0)
(13.2268 -0.277288 0)
(13.4289 -0.375057 0)
(13.1715 -0.323445 0)
(13.3233 -0.416419 0)
(13.156 -0.39829 0)
(13.2283 -0.372669 0)
(13.145 -0.370235 0)
(13.1558 -0.325588 0)
(13.1739 -0.409025 0)
(13.1096 -0.376428 0)
(13.1312 -0.502312 0)
(12.9731 -0.44549 0)
(13.0488 -0.592833 0)
(12.8518 -0.504814 0)
(12.898 -0.636454 0)
(12.6504 -0.492902 0)
(12.662 -0.557174 0)
(12.5282 -0.385258 0)
(12.4798 -0.26999 0)
(12.4633 -0.133754 0)
(12.3532 0.0735452 0)
(12.529 0.00464939 0)
(12.43 0.217401 0)
(12.7659 -0.0861347 0)
(12.733 -0.0247637 0)
(13.0379 -0.402053 0)
(12.9726 -0.556301 0)
(12.9809 -0.747068 0)
(12.8154 -1.02934 0)
(12.5146 -0.837908 0)
(12.4466 -0.944962 0)
(12.0699 -0.364314 0)
(12.0975 -0.204765 0)
(11.8559 0.277635 0)
(11.9457 0.40147 0)
(13.5142 0.930198 0)
(13.6362 0.805602 0)
(13.8211 0.604388 0)
(13.8378 0.470929 0)
(13.8643 0.349714 0)
(13.7215 0.325005 0)
(13.6993 0.281992 0)
(13.5822 0.269853 0)
(13.625 0.220758 0)
(13.5386 0.212484 0)
(13.6102 0.174281 0)
(13.495 0.185986 0)
(13.5568 0.163083 0)
(13.4144 0.169598 0)
(13.4388 0.132125 0)
(13.2496 0.113292 0)
(13.2294 0.0932992 0)
(13.0594 0.0567122 0)
(13.0196 0.0687189 0)
(12.8684 0.0369395 0)
(12.7623 0.114713 0)
(12.6367 0.0889904 0)
(12.535 0.159919 0)
(12.4955 0.13177 0)
(12.476 0.195419 0)
(12.5279 0.212273 0)
(12.6138 0.19897 0)
(12.6822 0.215957 0)
(12.8256 0.0912771 0)
(12.7785 0.0616325 0)
(12.8453 -0.124642 0)
(12.6303 -0.133248 0)
(12.5979 -0.193261 0)
(12.3162 -0.122785 0)
(12.1743 0.0204892 0)
(11.9619 0.0560432 0)
(11.75 0.284789 0)
(11.7945 0.244715 0)
(11.6606 0.431674 0)
(11.9969 0.368086 0)
(12.9428 -0.216542 0)
(13.0672 -0.231244 0)
(13.1768 -0.372507 0)
(13.2805 -0.401941 0)
(13.2891 -0.476263 0)
(13.2404 -0.445665 0)
(13.141 -0.425391 0)
(13.0257 -0.394274 0)
(12.9727 -0.369477 0)
(12.8605 -0.371074 0)
(12.8703 -0.362264 0)
(12.7302 -0.375325 0)
(12.7535 -0.363725 0)
(12.5521 -0.377267 0)
(12.5485 -0.37449 0)
(12.2732 -0.395031 0)
(12.2554 -0.393759 0)
(11.979 -0.417553 0)
(11.9938 -0.403413 0)
(11.7206 -0.413266 0)
(11.6783 -0.372338 0)
(11.412 -0.373793 0)
(11.3949 -0.325407 0)
(11.2854 -0.294882 0)
(11.2936 -0.229697 0)
(11.2863 -0.186349 0)
(11.3073 -0.184546 0)
(11.3664 -0.156434 0)
(11.3526 -0.220155 0)
(11.3047 -0.218914 0)
(11.2179 -0.296295 0)
(10.9376 -0.304957 0)
(10.8118 -0.353338 0)
(10.358 -0.389633 0)
(10.325 -0.356016 0)
(9.94578 -0.366561 0)
(9.99761 -0.241434 0)
(9.93549 -0.215722 0)
(10.0092 -0.114363 0)
(10.3341 -0.0911434 0)
)
;

boundaryField
{
    inlet
    {
        type            fixedValue;
        value           uniform (10 0 0);
    }
    outlet
    {
        type            zeroGradient;
    }
    obstacle
    {
        type            noSlip;
    }
    upperWall
    {
        type            noSlip;
    }
    lowerWall
    {
        type            noSlip;
    }
    frontAndBack
    {
        type            empty;
    }
}


// ************************************************************************* //
