/*--------------------------------*- C++ -*----------------------------------*\
  =========                 |
  \\      /  F ield         | OpenFOAM: The Open Source CFD Toolbox
   \\    /   O peration     | Website:  https://openfoam.org
    \\  /    A nd           | Version:  10
     \\/     M anipulation  |
\*---------------------------------------------------------------------------*/
FoamFile
{
    format      ascii;
    class       volScalarField;
    location    "9.1";
    object      p;
}
// * * * * * * * * * * * * * * * * * * * * * * * * * * * * * * * * * * * * * //

dimensions      [0 2 -2 0 0 0 0];

internalField   nonuniform List<scalar> 
8000
(
1.79276e-06
-3.09932e-06
5.17693e-05
0.000151227
0.000302683
0.000508962
0.000773508
0.00109997
0.00149127
0.00194849
0.00246939
0.00304646
0.00366469
0.00429953
0.004916
0.00547103
0.00591799
0.00622023
0.00637998
0.00635293
6.16154e-06
1.00449e-06
5.89117e-05
0.000158818
0.000309043
0.000512696
0.000773468
0.00109519
0.001481
0.00193232
0.00244746
0.00301971
0.00363486
0.00426841
0.00488499
0.00544367
0.00589352
0.00619517
0.00635358
0.00630785
-7.48994e-05
-8.433e-05
-2.88535e-05
6.63559e-05
0.000210138
0.000405701
0.000657152
0.000969043
0.00134561
0.00178982
0.00230199
0.00287766
0.00350498
0.004162
0.00481329
0.00540756
0.00588928
0.00620637
0.00636503
0.00628889
-0.000226944
-0.000239449
-0.000188228
-0.000100696
3.25273e-05
0.000214855
0.000450999
0.000746527
0.00110728
0.00153864
0.00204413
0.00262329
0.00326827
0.00395943
0.00466035
0.00531552
0.00585462
0.00620285
0.00636617
0.0062404
-0.000457868
-0.000473407
-0.000428858
-0.000352544
-0.00023464
-7.15233e-05
0.000142129
0.000412991
0.000748748
0.0011577
0.00164771
0.00222389
0.00288498
0.00361736
0.0043868
0.00512774
0.0057583
0.00616182
0.00633955
0.00613625
-0.000767444
-0.00078628
-0.000750817
-0.000689505
-0.000592314
-0.000455631
-0.000273811
-3.93741e-05
0.000256931
0.000626211
0.00108095
0.00163342
0.00229164
0.00305299
0.00389304
0.00474877
0.00550161
0.00600245
0.00622222
0.00590455
-0.00115256
-0.00117515
-0.00115114
-0.00110884
-0.00103838
-0.000936638
-0.000798365
-0.000616226
-0.00038046
-7.83375e-05
0.000306173
0.000792124
0.00139919
0.00214044
0.00301032
0.00396536
0.00488784
0.00554249
0.00588486
0.00544204
-0.00160811
-0.00163496
-0.00162454
-0.00160512
-0.00156758
-0.00151004
-0.00142878
-0.00131822
-0.00117046
-0.000974266
-0.000713741
-0.000367397
9.20498e-05
0.000696133
0.00147072
0.00241959
0.00348107
0.00442977
0.00507168
0.00465509
-0.00212734
-0.0021588
-0.00216335
-0.0021698
-0.00217051
-0.00216587
-0.00215523
-0.00213698
-0.00210839
-0.00206483
-0.00199873
-0.0018979
-0.0017429
-0.00150273
-0.00112847
-0.000528122
0.000449083
0.00182227
0.00325256
0.00338258
-0.00270239
-0.00273842
-0.00275779
-0.00279113
-0.00283295
-0.00288723
-0.00295808
-0.00305045
-0.00317087
-0.00332784
-0.00353262
-0.00379957
-0.00414543
-0.00457303
-0.00503052
-0.00529108
-0.00470718
-0.00275096
0.000108368
0.00157738
-0.00332534
-0.00336526
-0.00339678
-0.0034547
-0.00353607
-0.00365002
-0.00380681
-0.00402012
-0.00430944
-0.00470262
-0.00524093
-0.00598274
-0.00701001
-0.00837632
-0.0100068
-0.0114228
-0.0112238
-0.00804717
-0.00332862
-0.00068783
-0.00399003
-0.00403191
-0.00406864
-0.00414357
-0.0042565
-0.00442304
-0.00466004
-0.00499054
-0.00544848
-0.00608243
-0.00696946
-0.00821216
-0.00994871
-0.0122281
-0.0148503
-0.0167865
-0.0161627
-0.0110572
-0.00586523
-0.00222737
-0.00469693
-0.00473657
-0.00476641
-0.00484424
-0.00497261
-0.00517474
-0.00547349
-0.00589925
-0.00649941
-0.00733197
-0.00851291
-0.0101663
-0.0124399
-0.0152977
-0.0184026
-0.0203675
-0.0195178
-0.0140804
-0.00901212
-0.00334556
-0.00545378
-0.005478
-0.00547734
-0.00553272
-0.00565202
-0.00586467
-0.00619639
-0.00667885
-0.00737192
-0.00834265
-0.00970775
-0.0116132
-0.0141917
-0.0173735
-0.0207098
-0.023175
-0.0238993
-0.0194944
-0.013952
-0.00497354
-0.00628959
-0.00629314
-0.00623846
-0.00624629
-0.00632147
-0.00650327
-0.0068217
-0.00731281
-0.00803395
-0.00905183
-0.0104815
-0.0124617
-0.0151245
-0.018398
-0.0220076
-0.0251575
-0.0279217
-0.024073
-0.0181427
-0.00585424
-0.00738869
-0.00716084
-0.00695975
-0.00682295
-0.00681276
-0.00694682
-0.00724228
-0.00772103
-0.00843162
-0.0094278
-0.0108238
-0.0127197
-0.0152421
-0.0183085
-0.0218099
-0.0247508
-0.0276408
-0.0234158
-0.0182553
-0.00228307
-0.00826213
-0.00834366
-0.00798272
-0.0078015
-0.00764282
-0.00762533
-0.00777674
-0.00812531
-0.00872418
-0.0096106
-0.0108813
-0.012595
-0.0148559
-0.0174833
-0.02049
-0.0224955
-0.0245573
-0.018907
-0.0138324
0.00910504
-0.0121542
-0.00929462
-0.00858316
-0.00778983
-0.00746611
-0.00739902
-0.00757539
-0.00794332
-0.00854375
-0.00938779
-0.0105775
-0.0121133
-0.0141176
-0.0162672
-0.0186522
-0.0197042
-0.0204246
-0.0123685
-0.00432478
0.0325406
-0.0116698
-0.0125427
-0.0109721
-0.0103671
-0.00952938
-0.00898385
-0.0087107
-0.00871097
-0.00903302
-0.00964953
-0.010673
-0.0120313
-0.0139421
-0.0159307
-0.0182488
-0.0185926
-0.0177208
-0.00497352
0.0124219
0.0758873
-0.0364358
-0.0109746
-0.00918985
-0.00760337
-0.00674691
-0.00654846
-0.00674872
-0.00712131
-0.0077589
-0.00856934
-0.00978851
-0.0111654
-0.0130079
-0.0144039
-0.0154659
-0.0124337
-0.00446904
0.0231366
0.0699984
0.175984
9.64858e-06
-9.21891e-06
4.27645e-05
0.000140615
0.000291874
0.000498586
0.000763989
0.00109186
0.0014854
0.00194606
0.00247208
0.00305644
0.00368448
0.00433156
0.00496186
0.00552985
0.00598529
0.00628728
0.00643974
0.00638838
2.63357e-05
8.32143e-06
6.61088e-05
0.000165739
0.00031619
0.000520066
0.000780951
0.00110273
0.00148866
0.00194037
0.00245657
0.00303107
0.00365017
0.00428945
0.00491493
0.00548128
0.00593603
0.00623599
0.00638921
0.00631987
-4.95127e-05
-7.43664e-05
-1.87009e-05
7.63574e-05
0.000220441
0.000416206
0.000667643
0.000979335
0.00135562
0.00179972
0.00231242
0.00288994
0.00352115
0.00418483
0.00484516
0.00545062
0.00593906
0.0062539
0.00640514
0.00629879
-0.000197665
-0.000227087
-0.000175448
-8.79408e-05
4.57138e-05
0.00022835
0.00046455
0.000759904
0.00112033
0.00155148
0.00205747
0.00263871
0.00328844
0.00398779
0.00470114
0.00537216
0.00592148
0.00626729
0.00641916
0.00625253
-0.000426737
-0.000460121
-0.000415099
-0.000338732
-0.000220211
-5.65054e-05
0.000157583
0.000428752
0.000764784
0.00117427
0.00166573
0.00224549
0.00291394
0.00365904
0.00444654
0.00521241
0.00585929
0.00626203
0.00642169
0.00615691
-0.000735734
-0.000773056
-0.000737155
-0.000675717
-0.000577671
-0.00043999
-0.000257128
-2.1564e-05
0.000276078
0.00064723
0.00110511
0.00166342
0.00233262
0.00311217
0.00397763
0.00486644
0.0056618
0.00617439
0.00637092
0.00594409
-0.00112095
-0.00116259
-0.00113824
-0.00109578
-0.00102425
-0.000921092
-0.0007811
-0.000596849
-0.000358432
-5.27899e-05
0.00033687
0.000831142
0.00145258
0.00221878
0.00312676
0.00413085
0.00513268
0.00586378
0.00619246
0.00553475
-0.00157704
-0.00162358
-0.00161303
-0.00159352
-0.00155482
-0.00149554
-0.00141197
-0.00129837
-0.00114672
-0.000945469
-0.000678281
-0.000322803
0.0001503
0.000776963
0.00159221
0.00262284
0.0038291
0.00502193
0.00573709
0.00491575
-0.0020971
-0.00214913
-0.00215389
-0.00216052
-0.00216017
-0.00215368
-0.00214035
-0.00211842
-0.00208508
-0.00203581
-0.00196361
-0.00185797
-0.00170403
-0.00147814
-0.00112532
-0.000460095
0.000902181
0.00305613
0.00465089
0.00424587
-0.00267312
-0.00273101
-0.00275109
-0.00278506
-0.00282617
-0.00287879
-0.00294693
-0.00303542
-0.00315095
-0.00330304
-0.0035059
-0.00378234
-0.00417162
-0.00471695
-0.00537484
-0.00570752
-0.00446387
-0.00103443
0.0020299
0.00348473
-0.00329703
-0.00336076
-0.00339363
-0.00345281
-0.00353411
-0.00364686
-0.00380124
-0.00401093
-0.00429605
-0.00468713
-0.00523257
-0.00601056
-0.00715457
-0.0088149
-0.0109445
-0.0127927
-0.0122114
-0.00774507
-0.00270475
0.00154537
-0.00396232
-0.00403042
-0.00406894
-0.00414575
-0.00425948
-0.00442552
-0.00466063
-0.00498803
-0.00544261
-0.0060782
-0.00698264
-0.00829172
-0.0102212
-0.0129859
-0.0164655
-0.0196197
-0.0199913
-0.0145579
-0.00828807
-0.00165856
-0.00466848
-0.00473921
-0.00477202
-0.00485287
-0.00498288
-0.0051847
-0.00548128
-0.00590384
-0.00649922
-0.00733782
-0.00853724
-0.0102647
-0.0127847
-0.0162819
-0.0206159
-0.0246263
-0.026269
-0.0208687
-0.0146582
-0.00593366
-0.00541716
-0.0054784
-0.00547914
-0.00553807
-0.00566086
-0.00587514
-0.00620562
-0.00668707
-0.00737342
-0.00834087
-0.00971668
-0.0116785
-0.0145014
-0.0183348
-0.023164
-0.0278863
-0.0314085
-0.0271666
-0.0216704
-0.0106946
-0.00623813
-0.00629983
-0.00624813
-0.00626356
-0.00634196
-0.00652405
-0.00683883
-0.00732379
-0.00803311
-0.00903723
-0.0104482
-0.0124633
-0.015317
-0.0191294
-0.0240271
-0.0289215
-0.0338335
-0.0300308
-0.0259765
-0.0127816
-0.00727641
-0.00711264
-0.00692145
-0.00679578
-0.006799
-0.00694237
-0.00723971
-0.00771318
-0.00841223
-0.00937068
-0.0107453
-0.0126326
-0.0152579
-0.018644
-0.0229589
-0.0269839
-0.0310801
-0.0270702
-0.0258663
-0.00832212
-0.00797681
-0.00828029
-0.00792337
-0.00779409
-0.00764728
-0.00763607
-0.00778141
-0.00811633
-0.00868798
-0.00953159
-0.0107608
-0.012435
-0.0147198
-0.0174956
-0.0209784
-0.0236927
-0.0264793
-0.0220211
-0.0212091
0.0059574
-0.0116866
-0.00899584
-0.00831986
-0.00755842
-0.00731276
-0.00730762
-0.00751274
-0.00788643
-0.00846837
-0.00926823
-0.0104106
-0.0118974
-0.0139106
-0.0161902
-0.0189299
-0.0205247
-0.0216748
-0.0155869
-0.00925071
0.0335376
-0.00905007
-0.0116119
-0.0103986
-0.0101487
-0.00947615
-0.00902721
-0.00878838
-0.0087759
-0.00905664
-0.00959912
-0.0105457
-0.0118227
-0.0137376
-0.015854
-0.0186359
-0.0197944
-0.0195321
-0.00767391
0.0125668
0.0841489
-0.0342267
-0.00911381
-0.00757627
-0.00654927
-0.00605313
-0.00602414
-0.0063353
-0.00675644
-0.00742245
-0.0082051
-0.00940106
-0.0107533
-0.0126187
-0.0141856
-0.0154518
-0.0129262
-0.00472328
0.0252634
0.0837977
0.206413
2.98007e-05
4.31284e-06
5.51779e-05
0.000152742
0.00030496
0.000513602
0.000782013
0.00111432
0.00151421
0.00198376
0.00252185
0.00312199
0.00376972
0.00443982
0.00509423
0.00568367
0.00615229
0.00645437
0.00659569
0.00652053
5.57401e-05
3.02627e-05
8.82898e-05
0.000188097
0.000339463
0.000544834
0.000807981
0.00113314
0.00152402
0.00198288
0.00250913
0.00309725
0.00373377
0.00439434
0.00504335
0.00563094
0.00609888
0.00639853
0.00654043
0.00644688
-1.37258e-05
-4.77159e-05
8.53151e-06
0.000103819
0.000248763
0.000445866
0.000699357
0.00101423
0.00139541
0.0018469
0.00237047
0.00296336
0.0036154
0.0043057
0.00499601
0.00563027
0.00613728
0.00645144
0.00658489
0.00644375
-0.000156119
-0.00019579
-0.000143302
-5.54944e-05
7.90622e-05
0.000263065
0.000501397
0.000800149
0.00116596
0.00160552
0.00212433
0.00272445
0.00340062
0.004135
0.00489175
0.00560586
0.00618553
0.00653147
0.00665159
0.00642899
-0.000380941
-0.000425354
-0.00037932
-0.000302561
-0.000182967
-1.7612e-05
0.000199082
0.000474432
0.000817127
0.00123712
0.00174489
0.00234942
0.00305374
0.00384668
0.00469815
0.00553354
0.00623387
0.00664107
0.0067415
0.0063783
-0.000686733
-0.000735695
-0.000698664
-0.000636713
-0.00053734
-0.000397566
-0.000211374
2.95033e-05
0.000335576
0.000720021
0.00119873
0.00178941
0.00250735
0.00335661
0.00431512
0.00531787
0.00621295
0.00674644
0.00682901
0.00621687
-0.0010693
-0.00112314
-0.0010976
-0.00105453
-0.000981471
-0.000875816
-0.00073181
-0.000541143
-0.000292581
2.90367e-05
0.000443877
0.00097783
0.00166132
0.00252038
0.00355735
0.00475132
0.00593832
0.00673754
0.00684262
0.00585666
-0.00152299
-0.00158234
-0.0015706
-0.00155055
-0.0015103
-0.00144839
-0.00136047
-0.00123989
-0.00107721
-0.000858684
-0.000564324
-0.000165928
0.000375302
0.00110911
0.00209059
0.00336132
0.00489535
0.00623746
0.00653419
0.00530189
-0.00204065
-0.00210614
-0.00210989
-0.00211628
-0.0021147
-0.00210592
-0.00208858
-0.00206008
-0.00201653
-0.00195181
-0.00185663
-0.00171763
-0.00151832
-0.00123272
-0.000779573
0.000103035
0.00179479
0.0041681
0.00533475
0.0047733
-0.0026139
-0.00268597
-0.00270538
-0.00273971
-0.00278038
-0.00283166
-0.002897
-0.00298073
-0.00308924
-0.00323231
-0.0034261
-0.00370127
-0.00412359
-0.00478371
-0.00562984
-0.00603157
-0.00462142
-0.000754104
0.00240088
0.00410904
-0.00323409
-0.00331288
-0.00334564
-0.00340611
-0.00348824
-0.00360121
-0.00375485
-0.00396292
-0.00424663
-0.00464024
-0.00520224
-0.00603811
-0.00735043
-0.00940773
-0.0121525
-0.014497
-0.0137676
-0.00833334
-0.00291349
0.00169133
-0.00389321
-0.00397747
-0.00401641
-0.00409564
-0.00421195
-0.00438033
-0.00461734
-0.0049469
-0.00540646
-0.00605749
-0.00700601
-0.00843599
-0.0106732
-0.0140582
-0.018457
-0.0223793
-0.0227927
-0.0168907
-0.0102672
-0.00296736
-0.00458951
-0.00467868
-0.00471295
-0.00479779
-0.00493229
-0.00513844
-0.00543907
-0.00586649
-0.00647066
-0.00733236
-0.00859
-0.0104757
-0.0133529
-0.017555
-0.0229364
-0.0277961
-0.0298555
-0.0247241
-0.0180358
-0.00887457
-0.00531925
-0.00540068
-0.00540286
-0.00546732
-0.0055973
-0.00581874
-0.00615569
-0.00664352
-0.00733827
-0.00832672
-0.00975852
-0.0118674
-0.0150162
-0.0194596
-0.0252081
-0.0305212
-0.0341529
-0.0300291
-0.0240176
-0.0136311
-0.00611246
-0.00620043
-0.00614989
-0.00617418
-0.00626199
-0.0064531
-0.00677489
-0.00726442
-0.00797693
-0.00899159
-0.0104516
-0.0125538
-0.015638
-0.0198436
-0.0253129
-0.0302027
-0.0344481
-0.0302623
-0.0260255
-0.0143529
-0.00709279
-0.00696068
-0.00677052
-0.00665563
-0.00667314
-0.00683039
-0.00713794
-0.00761625
-0.00831076
-0.00928095
-0.0106538
-0.0125788
-0.0153225
-0.0189024
-0.0234244
-0.0271483
-0.0301734
-0.0258599
-0.0240359
-0.00868611
-0.00766254
-0.00802704
-0.00768182
-0.00758403
-0.00745988
-0.00746863
-0.00762664
-0.00796721
-0.00853401
-0.00936548
-0.0105719
-0.0122433
-0.014571
-0.0174358
-0.0209959
-0.0234792
-0.0253357
-0.0206694
-0.0179647
0.00611793
-0.0113529
-0.00868516
-0.00795443
-0.00719385
-0.00698279
-0.00701616
-0.00724911
-0.00764005
-0.00822186
-0.00899866
-0.0101089
-0.0115736
-0.0135778
-0.0159088
-0.0186579
-0.0201224
-0.0204705
-0.0142545
-0.00558823
0.0346476
-0.00797909
-0.0108028
-0.00969454
-0.00955743
-0.00896532
-0.00858798
-0.00839319
-0.00841059
-0.00869246
-0.00922153
-0.0101241
-0.0113811
-0.0132796
-0.0154924
-0.018353
-0.019542
-0.0190444
-0.00675085
0.015756
0.0871322
-0.0334983
-0.0082507
-0.00669667
-0.00580505
-0.00543019
-0.00546905
-0.00581266
-0.00625662
-0.00691474
-0.00768431
-0.00883408
-0.0101803
-0.0120346
-0.0137078
-0.0150417
-0.0125332
-0.00356963
0.0275785
0.0897213
0.213973
5.349e-05
2.41352e-05
7.45628e-05
0.000172419
0.000326197
0.000537588
0.000810131
0.00114835
0.00155651
0.00203731
0.0025903
0.00320953
0.00388054
0.00457726
0.00525916
0.00587257
0.00635585
0.00665889
0.00678981
0.00669503
8.48743e-05
5.509e-05
0.000113445
0.000213836
0.000366727
0.000574531
0.000841265
0.00117157
0.0015697
0.00203858
0.00257837
0.00318419
0.00384243
0.00452917
0.0052056
0.00581753
0.00630031
0.00660017
0.00673049
0.00661765
2.01134e-05
-1.91181e-05
3.76754e-05
0.000133595
0.000280057
0.000479533
0.000736546
0.00105657
0.00144515
0.00190717
0.00244538
0.00305798
0.0037357
0.00445735
0.0051817
0.00584722
0.00637345
0.0066864
0.00680079
0.00663187
-0.000117672
-0.000163248
-0.000110023
-2.15107e-05
0.000114639
0.000301107
0.000543133
0.000847371
0.00122126
0.00167259
0.0022083
0.00283192
0.00353942
0.00431427
0.0051168
0.00587485
0.00648247
0.0068244
0.00690976
0.00664328
-0.000338785
-0.000389601
-0.000342701
-0.000265146
-0.000143786
2.43195e-05
0.000245182
0.000526803
0.000878869
0.00131276
0.00184091
0.0024747
0.0032195
0.00406594
0.0049805
0.00588044
0.00662365
0.00702226
0.00705816
0.00662274
-0.000641572
-0.000697353
-0.000659367
-0.000596521
-0.000495167
-0.000352273
-0.000161305
8.68156e-05
0.000403798
0.000804592
0.00130764
0.00193413
0.00270313
0.00361958
0.00466859
0.0057673
0.00673002
0.00724474
0.00721001
0.00648004
-0.00102156
-0.00108263
-0.00105609
-0.00101209
-0.000936918
-0.000827881
-0.000678646
-0.000480002
-0.000219382
0.000120389
0.000562527
0.00113746
0.00188082
0.00282287
0.00397826
0.00530512
0.00659334
0.00735062
0.00726032
0.00611425
-0.00147283
-0.00153987
-0.00152721
-0.00150635
-0.00146407
-0.00139884
-0.0013057
-0.00117715
-0.00100249
-0.000766015
-0.000444845
-6.58433e-06
0.000593488
0.00141169
0.00249678
0.00392271
0.00558662
0.00688526
0.00693126
0.00555868
-0.00198796
-0.0020617
-0.00206474
-0.00207066
-0.00206751
-0.00205595
-0.00203416
-0.00199889
-0.00194542
-0.0018667
-0.00175239
-0.00158914
-0.00136472
-0.00105883
-0.000570444
0.000403799
0.00229429
0.00474682
0.00569838
0.00511878
-0.00255818
-0.00263915
-0.00265821
-0.0026927
-0.00273266
-0.0027823
-0.00284481
-0.00292434
-0.00302745
-0.00316501
-0.00335648
-0.00364259
-0.00411669
-0.00489774
-0.00588128
-0.00624069
-0.00460781
-0.000689956
0.00255949
0.00454866
-0.00317418
-0.00326269
-0.00329567
-0.00335721
-0.00343985
-0.00355281
-0.00370593
-0.00391345
-0.0041982
-0.00459871
-0.00518354
-0.0060817
-0.0075483
-0.00989012
-0.0129649
-0.0153728
-0.014714
-0.00953313
-0.00367164
0.00167876
-0.0038268
-0.00392166
-0.0039614
-0.00404278
-0.0041611
-0.00433138
-0.00457037
-0.004903
-0.00536959
-0.00603856
-0.00703107
-0.00856303
-0.0110147
-0.0147846
-0.0196549
-0.0238937
-0.024814
-0.0194911
-0.0124005
-0.00419596
-0.00451294
-0.00461426
-0.00465016
-0.00473846
-0.00487652
-0.00508619
-0.00539049
-0.00582292
-0.00643643
-0.00731947
-0.00862603
-0.0106197
-0.013718
-0.0182956
-0.0241803
-0.0294369
-0.031956
-0.0275363
-0.0207623
-0.0110446
-0.00522494
-0.00532002
-0.00532423
-0.00539348
-0.00552885
-0.00575553
-0.0060973
-0.00659017
-0.00729206
-0.00829633
-0.00976462
-0.0119503
-0.015277
-0.0199783
-0.0260909
-0.0314559
-0.0350547
-0.0313839
-0.0259318
-0.0156036
-0.00599231
-0.00609743
-0.00604927
-0.00608098
-0.00617585
-0.00637323
-0.00669949
-0.00719177
-0.00790533
-0.00892421
-0.0104008
-0.0125327
-0.0157467
-0.019985
-0.0255856
-0.0302168
-0.0338729
-0.0300828
-0.0269205
-0.0154785
-0.00692447
-0.00681332
-0.00662656
-0.0065217
-0.00654925
-0.00671549
-0.00702889
-0.00750881
-0.00819864
-0.00916223
-0.01054
-0.0124263
-0.0152039
-0.0187771
-0.0232166
-0.0265864
-0.0291319
-0.0252235
-0.0243876
-0.00894178
-0.00741416
-0.0078207
-0.00747776
-0.00740262
-0.00729343
-0.0073144
-0.00747852
-0.00781873
-0.00837567
-0.00919007
-0.0103691
-0.0120085
-0.0143246
-0.0171762
-0.0206751
-0.0229604
-0.0245423
-0.0202539
-0.0185025
0.00671039
-0.0110313
-0.00840051
-0.00765768
-0.00691575
-0.00672376
-0.00677786
-0.00702467
-0.00742063
-0.00799317
-0.0087529
-0.00982802
-0.0112584
-0.0132353
-0.0155565
-0.0182743
-0.019665
-0.0199374
-0.0141956
-0.00619324
0.0361293
-0.0073906
-0.010379
-0.00928946
-0.00921582
-0.00865453
-0.00830409
-0.00812422
-0.00814314
-0.00841324
-0.00891798
-0.00978515
-0.0110105
-0.0128921
-0.0151265
-0.0180584
-0.0193383
-0.0190026
-0.00682376
0.0156227
0.0900567
-0.0329266
-0.00766366
-0.00611093
-0.00528457
-0.00497294
-0.00505861
-0.00543085
-0.00588915
-0.00654515
-0.00729831
-0.00842195
-0.00974029
-0.0115881
-0.0132688
-0.0146384
-0.0120754
-0.00301586
0.0285966
0.0914696
0.219583
7.89531e-05
4.81908e-05
9.90039e-05
0.000197903
0.00035386
0.000568677
0.000846201
0.00119141
0.00160912
0.0021027
0.0026723
0.00331239
0.00400836
0.00473309
0.00544336
0.00608113
0.00657925
0.00688383
0.00700541
0.0068946
0.000112928
8.13385e-05
0.00014034
0.000241862
0.000396902
0.000607981
0.000879433
0.00121634
0.00162354
0.00210462
0.0026604
0.00328649
0.00396899
0.00468416
0.00538952
0.00602649
0.00652424
0.00682451
0.00694365
0.0068154
5.12752e-05
9.80865e-06
6.73705e-05
0.000164465
0.000313112
0.000515901
0.000777712
0.00110453
0.00150258
0.00197759
0.00253317
0.00316832
0.00387463
0.00462954
0.00538899
0.00608552
0.00662987
0.00694076
0.0070361
0.00684502
-8.31259e-05
-0.000131257
-7.71399e-05
1.26217e-05
0.000151064
0.000341002
0.000588096
0.000899616
0.00128382
0.00174958
0.00230512
0.00295515
0.00369607
0.0045133
0.00536136
0.00616056
0.0067916
0.00712616
0.00717658
0.00687561
-0.000301197
-0.000354807
-0.000306918
-0.000228021
-0.000104196
6.76659e-05
0.000294076
0.000583771
0.000947453
0.00139789
0.0019493
0.00261499
0.00340182
0.00430106
0.00527568
0.00623146
0.00700537
0.00738574
0.00735909
0.00686955
-0.000601282
-0.000660061
-0.000621019
-0.000556749
-0.000452755
-0.000305801
-0.000108775
0.00014825
0.000478186
0.00089766
0.00142737
0.00209128
0.00291135
0.00389292
0.00501877
0.00619164
0.00719284
0.00766638
0.0075278
0.00671572
-0.000978798
-0.00104308
-0.00101547
-0.000970048
-0.000892168
-0.00077893
-0.000623376
-0.000415388
-0.000141113
0.00021842
0.000688874
0.00130383
0.0021008
0.00310388
0.00435711
0.00577317
0.00710326
0.00778144
0.00754383
0.0062915
-0.00142767
-0.00149816
-0.00148452
-0.00146238
-0.00141758
-0.00134835
-0.00124918
-0.00111174
-0.000924188
-0.0006693
-0.000322232
0.000151589
0.000798962
0.00168073
0.0028203
0.00430976
0.00600264
0.00719806
0.00710302
0.00564767
-0.00194021
-0.0020177
-0.00201998
-0.002025
-0.00201983
-0.00200499
-0.00197823
-0.00193576
-0.00187235
-0.00178059
-0.00165061
-0.00147231
-0.00124371
-0.000957998
-0.000507861
0.000435046
0.00229315
0.00467118
0.00566725
0.00517645
-0.00250727
-0.00259233
-0.00261099
-0.00264519
-0.002684
-0.00273162
-0.00279104
-0.00286641
-0.00296484
-0.003099
-0.00329329
-0.00360145
-0.00414656
-0.00507791
-0.00627405
-0.00680709
-0.00529718
-0.00143578
0.0022105
0.00459539
-0.00311896
-0.00321195
-0.00324504
-0.0033071
-0.00338975
-0.00350231
-0.00365476
-0.00386202
-0.0041488
-0.00455826
-0.00516965
-0.00613498
-0.00775411
-0.0103761
-0.0138244
-0.016533
-0.0161244
-0.0111236
-0.00465311
0.00131831
-0.00376511
-0.00386487
-0.00390524
-0.00398806
-0.00410767
-0.00427924
-0.00451986
-0.00485563
-0.00532965
-0.00601655
-0.00705077
-0.00867419
-0.0113138
-0.0153917
-0.0206684
-0.0251999
-0.0264743
-0.0215918
-0.0140792
-0.00529532
-0.00444156
-0.00454842
-0.00458557
-0.00467631
-0.00481684
-0.00502908
-0.00533636
-0.00577331
-0.00639547
-0.00729699
-0.00864276
-0.0107129
-0.0139784
-0.0187915
-0.0249622
-0.0303018
-0.0329039
-0.0288781
-0.0220934
-0.0122789
-0.0051383
-0.00523953
-0.00524547
-0.00531816
-0.00545708
-0.00568722
-0.00603233
-0.00652894
-0.0072365
-0.00825224
-0.00974501
-0.0119799
-0.0154017
-0.0202133
-0.0264052
-0.031441
-0.0347503
-0.0312036
-0.0261198
-0.0162378
-0.00588462
-0.00599711
-0.0059508
-0.00598737
-0.00608674
-0.006288
-0.00661689
-0.00711042
-0.00782398
-0.00884351
-0.0103246
-0.0124647
-0.015675
-0.0199609
-0.0253933
-0.0295544
-0.0324714
-0.0288439
-0.0260883
-0.0154684
-0.00678134
-0.0066801
-0.00649647
-0.00639875
-0.00643208
-0.00660306
-0.00691888
-0.00739797
-0.00808253
-0.00903682
-0.0104001
-0.0122739
-0.0150244
-0.0185357
-0.0227953
-0.0257559
-0.0277432
-0.0239131
-0.0231166
-0.00861984
-0.00723237
-0.00765549
-0.00731003
-0.00724681
-0.00714524
-0.00717234
-0.00733848
-0.00767568
-0.00822316
-0.0090214
-0.0101786
-0.0117893
-0.0140748
-0.0168716
-0.020249
-0.0222969
-0.0234882
-0.0193188
-0.0173555
0.00729829
-0.0107786
-0.00817676
-0.00743572
-0.00671074
-0.00652709
-0.00658971
-0.00684068
-0.00723498
-0.00779776
-0.00854089
-0.0095898
-0.0109899
-0.0129357
-0.0152157
-0.0178552
-0.019116
-0.0191545
-0.0135322
-0.00528455
0.0370946
-0.00711463
-0.0101452
-0.00904539
-0.00899331
-0.00843871
-0.00809586
-0.00791837
-0.00793311
-0.00819156
-0.0086764
-0.00951829
-0.0107152
-0.012575
-0.0147876
-0.0176904
-0.018889
-0.0184127
-0.00627706
0.0164806
0.091667
-0.0326224
-0.00736018
-0.00580096
-0.00498754
-0.00469646
-0.00480101
-0.00518471
-0.0056454
-0.00629419
-0.00703214
-0.00813352
-0.00942681
-0.011251
-0.0129066
-0.0142322
-0.0115981
-0.00232727
0.029535
0.0930112
0.22221
0.000103422
7.22884e-05
0.000123849
0.00022419
0.000382652
0.000601229
0.000884094
0.00123665
0.00166427
0.00217087
0.00275712
0.0034178
0.00413822
0.00488961
0.00562663
0.0062871
0.0067989
0.00710501
0.00721829
0.00709409
0.000138598
0.000106371
0.000166204
0.000269203
0.000426746
0.000641528
0.000918207
0.0012623
0.00167915
0.00217295
0.00274507
0.00339145
0.00409809
0.0048404
0.00557307
0.00623324
0.00674449
0.00704488
0.00715362
0.00701271
7.89331e-05
3.6669e-05
9.51404e-05
0.000193769
0.000344995
0.00055159
0.000818793
0.00115307
0.00156127
0.00204982
0.00262309
0.00328069
0.00401463
0.00480103
0.00559288
0.00631718
0.00687685
0.00718467
0.00726202
0.00705313
-5.31127e-05
-0.000102167
-4.70545e-05
4.43248e-05
0.000185476
0.000379416
0.000632219
0.000951722
0.00134693
0.00182762
0.00240309
0.00307905
0.00385282
0.00470801
0.00559641
0.00643056
0.00707935
0.007404
0.00742126
0.00709395
-0.000268864
-0.000323494
-0.000274532
-0.000193923
-6.72213e-05
0.000108917
0.000341484
0.000639888
0.00101573
0.00148293
0.00205716
0.00275285
0.00357607
0.0045246
0.00555037
0.00655067
0.00734446
0.00770112
0.00761622
0.00708802
-0.000566745
-0.000626628
-0.000586466
-0.000520413
-0.000413399
-0.000261924
-5.83319e-05
0.000208061
0.000551202
0.000989096
0.00154421
0.00224253
0.00310832
0.00414386
0.00533043
0.0065573
0.00757785
0.00800061
0.00776843
0.00690327
-0.000942162
-0.00100764
-0.000978923
-0.000931728
-0.000850812
-0.000732994
-0.000570759
-0.000353204
-6.54276e-05
0.000312913
0.000809173
0.00145884
0.00230116
0.00336215
0.00467268
0.00614234
0.00748222
0.00806756
0.00770535
0.0063952
-0.00138894
-0.00146074
-0.00144609
-0.00142234
-0.00137472
-0.00130121
-0.00119579
-0.00104949
-0.000849658
-0.000578152
-0.000209288
0.000291802
0.000969669
0.00187552
0.00304262
0.00454574
0.00621171
0.00729306
0.0071046
0.00562943
-0.0018992
-0.00197813
-0.00197962
-0.00198339
-0.00197591
-0.00195755
-0.0019257
-0.00187627
-0.00180386
-0.00170145
-0.00156097
-0.00137786
-0.00116387
-0.000931325
-0.000574107
0.00025608
0.00203097
0.00437267
0.00545702
0.00511554
-0.00246346
-0.00255012
-0.00256832
-0.00260183
-0.00263915
-0.00268444
-0.00274064
-0.00281212
-0.00290686
-0.00304005
-0.00324235
-0.0035821
-0.00421405
-0.00532789
-0.00680364
-0.00759566
-0.00622947
-0.00233087
0.00171079
0.00454396
-0.00307135
-0.00316613
-0.00319919
-0.00326125
-0.00334343
-0.00345515
-0.00360664
-0.00381366
-0.00410304
-0.00452294
-0.00516387
-0.00620124
-0.00797847
-0.0108941
-0.0147624
-0.0178527
-0.0176829
-0.0126661
-0.00563497
0.000906912
-0.003712
-0.00381371
-0.00385451
-0.00393809
-0.00405827
-0.0042304
-0.00447201
-0.00481044
-0.00529158
-0.00599615
-0.00707139
-0.00878428
-0.0116017
-0.0159726
-0.0216423
-0.0264463
-0.0279103
-0.0231794
-0.0154119
-0.0061983
-0.00438046
-0.00448952
-0.00452759
-0.00461982
-0.00476178
-0.00497552
-0.00528475
-0.00572521
-0.00635489
-0.00727313
-0.00865538
-0.0108029
-0.0142064
-0.0192132
-0.0256127
-0.0309512
-0.033417
-0.0295003
-0.0228769
-0.013062
-0.00506542
-0.0051691
-0.0051764
-0.00525128
-0.00539227
-0.00562431
-0.00597124
-0.00647011
-0.00718179
-0.0082066
-0.00971975
-0.0119954
-0.0154911
-0.0203595
-0.02656
-0.0311505
-0.0342098
-0.0306866
-0.0261065
-0.0164858
-0.00579646
-0.00591191
-0.00586702
-0.00590652
-0.00600833
-0.00621143
-0.00654115
-0.00703435
-0.00774663
-0.00876487
-0.0102479
-0.0123928
-0.0156089
-0.0198669
-0.0251389
-0.0288859
-0.0312789
-0.0277381
-0.0254955
-0.015204
-0.00666843
-0.00657169
-0.00639086
-0.00629784
-0.00633432
-0.00650727
-0.00682312
-0.00729955
-0.00797799
-0.00892195
-0.0102737
-0.0121282
-0.0148517
-0.018292
-0.0223943
-0.0250451
-0.0266167
-0.0228759
-0.0223674
-0.00810027
-0.00710407
-0.00753315
-0.00718475
-0.00712723
-0.00702863
-0.00705772
-0.00722299
-0.00755544
-0.00809353
-0.00887677
-0.0100144
-0.011598
-0.0138488
-0.0165819
-0.0198406
-0.0217091
-0.0226568
-0.0186178
-0.0168229
0.00795094
-0.0105941
-0.00801204
-0.00727851
-0.00656604
-0.00638653
-0.00645169
-0.00670193
-0.00709135
-0.00764455
-0.00837199
-0.00940075
-0.0107727
-0.0126868
-0.0149134
-0.0174696
-0.0186213
-0.0185175
-0.0130324
-0.00487657
0.0379455
-0.00697554
-0.0100159
-0.00890038
-0.00885538
-0.00829889
-0.00795497
-0.0077738
-0.0077809
-0.00802868
-0.00849689
-0.00932057
-0.0104913
-0.0123266
-0.0144957
-0.0173397
-0.0184517
-0.0178785
-0.00571496
0.0170602
0.0929418
-0.0324367
-0.00718546
-0.00562146
-0.00480961
-0.00452592
-0.0046367
-0.00502418
-0.00548187
-0.00612425
-0.00684831
-0.00793487
-0.00920304
-0.0110021
-0.0126079
-0.0138673
-0.0111139
-0.00170501
0.0303736
0.0940286
0.223972
0.000125158
9.40991e-05
0.000146543
0.00024845
0.000409432
0.000631687
0.000919691
0.00127924
0.00171613
0.00223479
0.00283627
0.00351554
0.0042576
0.00503278
0.00579324
0.00647336
0.00699684
0.00730415
0.00741027
0.00727508
0.000160883
0.000128535
0.000189264
0.000293842
0.000453915
0.000672366
0.000954146
0.00130514
0.00173115
0.00223685
0.00282403
0.00348885
0.00421735
0.00498351
0.00573998
0.0064201
0.0069427
0.00724283
0.00734236
0.00719118
0.000102489
6.0049e-05
0.000119469
0.000219737
0.000373581
0.000583968
0.00085646
0.00119794
0.00161576
0.00211695
0.00270646
0.00338436
0.00414285
0.00495668
0.00577633
0.00652397
0.00709591
0.00740009
0.00746137
0.00723832
-2.79509e-05
-7.72212e-05
-2.10984e-05
7.20024e-05
0.000215902
0.00041383
0.000672226
0.000999407
0.00140499
0.00189952
0.00249306
0.00319204
0.00399432
0.00488225
0.00580455
0.0066672
0.00732913
0.00764291
0.00763028
0.00728304
-0.000242002
-0.000296872
-0.000246842
-0.000164424
-3.48255e-05
0.000145541
0.000384082
0.00069077
0.00107794
0.00156045
0.00215505
0.00287736
0.00373456
0.00472158
0.00578884
0.00682439
0.00763157
0.00796299
0.00782545
0.00726945
-0.000538179
-0.000598325
-0.00055706
-0.000489141
-0.000379121
-0.000223234
-1.33641e-05
0.000261792
0.000617
0.00107132
0.00164853
0.00237571
0.0032766
0.00435829
0.00559403
0.0068632
0.00789535
0.00826535
0.00794753
0.00704746
-0.000911918
-0.000977685
-0.000947888
-0.000898852
-0.000814943
-0.000692716
-0.000524191
-0.000297851
1.99788e-06
0.000396677
0.000914679
0.00159269
0.00247089
0.0035751
0.00493084
0.00644137
0.00778496
0.00827516
0.00779547
0.00645503
-0.00135699
-0.00142913
-0.00141349
-0.00138806
-0.00133766
-0.00126006
-0.00114885
-0.000994583
-0.000784082