/*--------------------------------*- C++ -*----------------------------------*\
  =========                 |
  \\      /  F ield         | OpenFOAM: The Open Source CFD Toolbox
   \\    /   O peration     | Website:  https://openfoam.org
    \\  /    A nd           | Version:  10
     \\/     M anipulation  |
\*---------------------------------------------------------------------------*/
FoamFile
{
    format      ascii;
    class       surfaceScalarField;
    location    "3.15";
    object      phi;
}
// * * * * * * * * * * * * * * * * * * * * * * * * * * * * * * * * * * * * * //

dimensions      [0 3 -1 0 0 0 0];

internalField   nonuniform List<scalar> 
890
(
0.00983844
0.000161558
0.00974574
9.26991e-05
0.00948094
0.000264799
0.0094856
-4.65567e-06
0.000122287
0.00936331
0.0101294
3.21157e-05
0.0101887
3.34539e-05
0.010407
4.64666e-05
0.0104502
-4.78015e-05
-7.44958e-05
0.0106469
0.0100741
-4.19723e-05
0.0102016
-9.40801e-05
0.0103814
-0.000133342
0.0105108
-0.000177203
-0.000192512
0.0106288
0.010087
-0.000129015
0.010207
-0.000213999
0.0103268
-0.000253143
0.0104003
-0.000250777
-0.000257691
0.0104655
0.00987098
0.00965699
0.00940384
0.00915307
0.00889537
0.00922855
-0.000228366
0.000363129
0.00928572
-0.000323388
0.000266222
0.00945125
-0.000323442
0.000157906
0.00971526
-0.000386528
0.000122523
0.0100881
-0.000608369
0.000235555
0.0104622
-0.000983626
0.000609451
0.0107427
-0.00154872
0.00126832
0.0109064
-0.00222804
0.00206425
0.0108527
-0.00287385
0.00292764
0.010593
-0.00343392
0.00369363
0.0101576
-0.00360861
0.00404399
0.0094602
-0.00336626
0.00406364
0.00858645
-0.00286288
0.00373663
0.00763615
-0.00188436
0.00283466
0.006603
-0.000721223
0.00175437
0.00566897
-1.97138e-05
0.000953745
0.00513648
0.000152347
0.000380146
0.00503191
0.00021313
-0.000108565
0.00518603
0.000335625
-0.000489737
0.00541071
0.000472047
-0.000696729
0.00560063
0.000538666
-0.00072859
0.0057261
0.000523513
-0.000648982
0.00579666
0.000452704
-0.000523269
0.00583195
0.000359754
-0.000395038
0.00584832
0.000268865
-0.000285234
0.00585588
0.000192169
-0.000199736
0.00585979
0.000132978
-0.000136887
0.00586226
8.98719e-05
-9.23371e-05
0.00586409
5.96659e-05
-6.1498e-05
0.00586554
3.90413e-05
-4.04921e-05
0.00586669
2.5208e-05
-2.63551e-05
0.00586757
1.6052e-05
-1.69362e-05
0.00586823
1.00589e-05
-1.07213e-05
0.00586872
6.17957e-06
-6.66378e-06
0.00586906
3.69801e-06
-4.04302e-06
0.00586931
2.13622e-06
-2.37813e-06
0.00586947
1.1674e-06
-1.33381e-06
0.00586958
5.88952e-07
-7.00377e-07
0.00586966
2.47814e-07
-3.21246e-07
0.0058697
6.4186e-08
-1.11701e-07
0.00586973
-2.97779e-08
-3.77617e-10
0.00586975
-6.78158e-08
4.92128e-08
0.00586976
-6.79191e-08
5.72391e-08
0.00586977
-6.084e-08
5.3691e-08
-1.2795e-08
7.18896e-09
0.0106627
-0.000244092
0.0107397
-0.000400418
0.0108499
-0.000433639
0.0110014
-0.000537991
0.0111653
-0.000772312
0.0112582
-0.00107651
0.0112168
-0.00150737
0.0110105
-0.00202173
0.0105994
-0.00246269
0.00999104
-0.0028256
0.00924566
-0.00286323
0.00830142
-0.00242203
0.00725569
-0.00181714
0.0063731
-0.00100178
0.0057082
-5.63265e-05
0.00515551
0.000532977
0.00475961
0.000548245
0.00460528
0.000367463
0.00467321
0.000267697
0.00486773
0.000277522
0.00509478
0.000311619
0.00530013
0.000318164
0.00546345
0.000289381
0.00558411
0.000239095
0.00566944
0.000183537
0.00572826
0.00013335
0.00576823
9.30032e-05
0.0057952
6.29017e-05
0.00581333
4.15435e-05
0.00582546
2.69046e-05
0.00583356
1.71113e-05
0.00583893
1.06794e-05
0.00584247
6.5175e-06
0.00584479
3.86365e-06
0.00584629
2.19816e-06
0.00584725
1.17323e-06
0.00584786
5.57821e-07
0.00584824
2.08402e-07
0.00584848
1.55185e-08
0.00584862
-7.75133e-08
0.0058487
-1.15143e-07
0.00584875
-1.1842e-07
0.00584878
-9.59702e-08
0.0058488
-7.88374e-08
-2.64461e-08
0.010691
-0.000306221
0.0107094
-0.000418885
0.0107595
-0.000483727
0.0108049
-0.00058331
0.0107963
-0.000763752
0.0107196
-0.000999775
0.0105067
-0.0012945
0.0102269
-0.00174196
0.00985278
-0.00208855
0.00920237
-0.00217519
0.00840334
-0.0020642
0.00758452
-0.00160321
0.00676215
-0.000994772
0.00618326
-0.00042288
0.00598378
0.000143151
0.00598683
0.000529926
0.0059108
0.000624282
0.00571949
0.000558772
0.0055192
0.000467985
0.00539633
0.000400393
0.00536209
0.000345859
0.0053893
0.000290955
0.00544529
0.000233389
0.00550674
0.000177643
0.00556143
0.000128843
0.00560508
8.97091e-05
0.00563767
6.04111e-05
0.00566099
3.95786e-05
0.00567722
2.53186e-05
0.00568829
1.58311e-05
0.00569575
9.65327e-06
0.00570072
5.70896e-06
0.005704
3.23402e-06
0.00570615
1.71442e-06
0.00570754
8.06625e-07
0.00570843
2.83888e-07
0.00570899
-2.69182e-11
0.00570933
-1.31078e-07
0.00570953
-1.87572e-07
0.00570965
-1.91185e-07
0.00570971
-1.75841e-07
0.00570974
-1.48791e-07
0.00570975
-1.09682e-07
0.00570976
-8.56848e-08
-3.54039e-08
0.0104675
-0.000308229
0.0104054
-0.000356772
0.0103397
-0.00041799
0.0102137
-0.000457373
0.0100157
-0.000565665
0.00972468
-0.0007088
0.00925934
-0.000829161
0.00867294
-0.00115557
0.00799602
-0.00141163
0.00703574
-0.00121492
0.00580535
-0.000833804
0.00465571
-0.00045358
0.00381491
-0.000153971
0.00333547
5.65666e-05
0.00325096
0.000227656
0.00342185
0.00035904
0.00364582
0.000400313
0.00383936
0.000365229
0.00400776
0.000299582
0.00417439
0.000233765
0.00434262
0.000177628
0.00450153
0.000132044
0.00463934
9.55809e-05
0.00474997
6.70125e-05
0.0048334
4.54129e-05
0.00489335
2.97619e-05
0.00493488
1.88822e-05
0.00496287
1.1589e-05
0.00498134
6.84922e-06
0.00499331
3.85352e-06
0.00500096
2.00983e-06
0.00500575
9.13276e-07
0.0050087
2.86489e-07
0.00501046
-4.50878e-08
0.00501149
-2.1964e-07
0.00501205
-2.82055e-07
0.00501234
-2.84112e-07
0.00501246
-2.5862e-07
0.0050125
-2.22114e-07
0.00501249
-1.80367e-07
0.00501246
-1.44404e-07
0.00501242
-1.10473e-07
0.00501239
-7.83427e-08
0.00501236
-5.83459e-08
-2.52603e-08
0.00858715
0.00823037
0.00781238
0.00735501
0.00678935
0.00608055
0.00525138
0.00409582
0.00268419
0.00146927
0.000635469
0.000181889
2.7918e-05
8.44846e-05
0.00031214
0.00067118
0.00107149
0.00143672
0.0017363
0.00197007
0.0021477
0.00227974
0.00237532
0.00244233
0.00248775
0.00251751
0.00253639
0.00254798
0.00255483
0.00255868
0.00256069
0.00256161
0.00256189
0.00256185
0.00256163
0.00256135
0.00256106
0.0025608
0.00256058
0.0025604
0.00256026
0.00256015
0.00256007
0.00256001
-0.000187576
0.000187576
-0.000602114
0.000414539
-0.0014457
0.000843582
-0.0025797
0.001134
-0.00370429
0.00112459
-0.00457304
0.00086875
-0.00504531
0.000472272
-0.00499861
-4.67e-05
-0.00447883
-0.000519786
-0.00351425
-0.000964582
-0.00220452
-0.00130973
-0.000692741
-0.00151177
0.000813328
-0.00150607
0.00211279
-0.00129946
0.00304462
-0.000931835
0.00355792
-0.000513298
0.00371231
-0.000154393
0.00363359
7.87197e-05
0.00344273
0.000190858
0.00322733
0.000215408
0.00303491
0.000192411
0.00288226
0.000152652
0.00277003
0.000112233
0.00269191
7.81167e-05
0.00263977
5.21464e-05
0.00260614
3.36318e-05
0.00258512
2.10179e-05
0.0025724
1.27202e-05
0.00256498
7.4197e-06
0.00256086
4.12022e-06
0.00255874
2.12137e-06
0.00255779
9.45152e-07
0.00255751
2.85368e-07
0.00255757
-6.0308e-08
0.0025578
-2.33753e-07
0.00255809
-2.89516e-07
0.00255838
-2.91524e-07
0.00255864
-2.62796e-07
0.00255887
-2.24249e-07
0.00255905
-1.85094e-07
0.0025592
-1.45273e-07
0.00255931
-1.11432e-07
0.00255939
-8.00275e-08
0.00255945
-5.79675e-08
-2.45841e-08
-0.000539262
0.000726838
-0.00124613
0.00112141
-0.00201696
0.00161441
-0.00271771
0.00183475
-0.00326804
0.00167492
-0.00359874
0.00119945
-0.00363604
0.000509574
-0.00334346
-0.000339282
-0.00267777
-0.00118547
-0.00167528
-0.00196707
-0.000414238
-0.00257077
0.000991007
-0.00291702
0.00240779
-0.00292286
0.00367559
-0.00256726
0.00469577
-0.00195201
0.00538482
-0.00120235
0.00573428
-0.000503852
0.00582221
-9.20789e-06
0.00576598
0.000247087
0.00565083
0.000330554
0.00552285
0.000320394
0.00540365
0.000271847
0.00530222
0.00021367
0.00522078
0.000159548
0.00515822
0.00011471
0.00511188
7.99711e-05
0.00507864
5.42617e-05
0.00505545
3.59124e-05
0.00503966
2.32042e-05
0.00502916
1.46198e-05
0.00502233
8.9562e-06
0.00501797
5.2977e-06
0.00501527
2.99024e-06
0.00501364
1.57024e-06
0.00501269
7.17532e-07
0.00501216
2.36151e-07
0.0050119
-2.46167e-08
0.00501178
-1.50004e-07
0.00501175
-1.95151e-07
0.00501177
-2.00198e-07
0.0050118
-1.80142e-07
0.00501184
-1.49213e-07
0.00501187
-1.12443e-07
0.0050119
-8.62081e-08
-3.45364e-08
-0.000248642
0.00097548
-0.000272781
0.00114554
-0.000321553
0.00166318
-0.000328541
0.00184174
-0.000249727
0.00159611
-9.28931e-05
0.00104262
0.000194866
0.000221815
0.000658459
-0.000802874
0.00133918
-0.00186619
0.00214007
-0.00276797
0.0029804
-0.0034111
0.00388612
-0.00382274
0.00474416
-0.00378089
0.00542772
-0.00325082
0.00596695
-0.00249124
0.00637957
-0.00161496
0.00659815
-0.000722438
0.00662154
-3.25908e-05
0.00650024
0.00036838
0.00634129
0.000489502
0.00619498
0.000466709
0.00607654
0.000390283
0.00598431
0.0003059
0.00591283
0.000231028
0.00585761
0.000169929
0.00581546
0.000122123
0.0057839
8.58246e-05
0.0057608
5.90136e-05
0.00574427
3.97289e-05
0.0057327
2.61963e-05
0.00572474
1.69155e-05
0.00571936
1.06799e-05
0.00571577
6.57277e-06
0.00571342
3.92028e-06
0.0057119
2.23704e-06
0.00571094
1.20067e-06
0.00571034
5.74206e-07
0.00570998
2.14609e-07
0.00570976
2.07149e-08
0.00570964
-7.68236e-08
0.00570957
-1.15723e-07
0.00570954
-1.16733e-07
0.00570952
-9.67134e-08
0.00570952
-7.92016e-08
-2.57061e-08
0.000275254
0.000700226
0.000888489
0.00053231
0.00156434
0.000987331
0.0023026
0.00110348
0.00298751
0.000911199
0.00361585
0.000414285
0.00424072
-0.000403059
0.00481139
-0.00137354
0.00539115
-0.00244596
0.0059898
-0.00336662
0.00649648
-0.00391779
0.00689
-0.00421626
0.007184
-0.00407488
0.00726112
-0.00332795
0.00715758
-0.0023877
0.00706396
-0.00152134
0.007034
-0.000692484
0.00697703
2.43829e-05
0.00684012
0.00050529
0.00664247
0.000687147
0.00643971
0.000669473
0.00626932
0.000560678
0.00614126
0.000433952
0.00605037
0.000321923
0.0059874
0.0002329
0.00594404
0.000165486
0.00591411
0.000115748
0.0058934
7.97311e-05
0.00587904
5.40839e-05
0.00586912
3.61164e-05
0.00586231
2.37298e-05
0.00585766
1.53222e-05
0.00585453
9.70341e-06
0.00585245
6.00817e-06
0.00585107
3.61371e-06
0.00585017
2.0952e-06
0.0058496
1.14765e-06
0.00584924
5.78241e-07
0.00584901
2.43761e-07
0.00584888
6.16182e-08
0.00584879
-3.18202e-08
0.00584874
-6.79363e-08
0.00584872
-6.85545e-08
0.0058487
-6.13574e-08
-1.25376e-08
0.00106336
0.00186189
0.00300712
0.00423312
0.00537988
0.00640361
0.00726887
0.00795958
0.00844126
0.00876827
0.00889448
0.00874186
0.0084036
0.00791032
0.00727699
0.00670939
0.00639706
0.00631288
0.00632843
0.00631885
0.00625973
0.00617143
0.00608211
0.00600899
0.00595666
0.00592241
0.00590127
0.00588866
0.00588125
0.00587687
0.00587425
0.00587263
0.00587162
0.00587096
0.00587053
0.00587025
0.00587006
0.00586994
0.00586986
0.00586981
0.00586978
0.00586976
0.00586975
0.00586974
)
;

boundaryField
{
    inlet
    {
        type            calculated;
        value           nonuniform List<scalar> 5(-0.01 -0.01 -0.01 -0.01 -0.01);
    }
    outlet
    {
        type            calculated;
        value           nonuniform List<scalar> 10(0.00586978 0.00584881 0.00570977 0.00501235 0.00255998 0.00255947 0.00501191 0.00570951 0.00584868 0.00586974);
    }
    upperWall
    {
        type            calculated;
        value           uniform 0;
    }
    lowerWall
    {
        type            calculated;
        value           uniform 0;
    }
    frontAndBack
    {
        type            empty;
        value           nonuniform List<scalar> 0();
    }
}


// ************************************************************************* //
