/*--------------------------------*- C++ -*----------------------------------*\
  =========                 |
  \\      /  F ield         | OpenFOAM: The Open Source CFD Toolbox
   \\    /   O peration     | Website:  https://openfoam.org
    \\  /    A nd           | Version:  10
     \\/     M anipulation  |
\*---------------------------------------------------------------------------*/
FoamFile
{
    format      ascii;
    class       volVectorField;
    location    "4.875";
    object      U;
}
// * * * * * * * * * * * * * * * * * * * * * * * * * * * * * * * * * * * * * //

dimensions      [0 1 -1 0 0 0 0];

internalField   nonuniform List<vector> 
8000
(
(-4.62833e-05 6.04693e-05 -1.92839e-05)
(-0.000409963 0.000157617 1.66679e-05)
(-0.00101947 0.000184308 2.90773e-05)
(-0.00161553 0.000190049 3.4586e-05)
(-0.00221843 0.000190871 3.42091e-05)
(-0.00280403 0.000190105 3.02141e-05)
(-0.00335948 0.000186995 2.3756e-05)
(-0.00387094 0.000179871 1.49928e-05)
(-0.00432141 0.000166786 3.45764e-06)
(-0.00469061 0.00014611 -1.07282e-05)
(-0.00495457 0.000116533 -2.72162e-05)
(-0.00508665 7.75811e-05 -4.56422e-05)
(-0.00505888 2.83764e-05 -6.61141e-05)
(-0.00484616 -3.18387e-05 -8.81753e-05)
(-0.00443029 -9.90831e-05 -0.000110136)
(-0.00380392 -0.000168533 -0.000129589)
(-0.00298037 -0.000232183 -0.000142142)
(-0.00202052 -0.000276148 -0.000141209)
(-0.000928326 -0.000271114 -0.00012207)
(-0.000168999 -0.000134238 -4.88646e-05)
(-0.00013983 0.000472837 -7.52073e-05)
(-0.000805841 0.000878742 -4.53366e-05)
(-0.00182045 0.000983719 -3.20755e-05)
(-0.00280899 0.000992665 -2.25817e-05)
(-0.00379526 0.000971127 -1.80465e-05)
(-0.00474035 0.000933706 -1.65034e-05)
(-0.00562152 0.000879805 -1.69288e-05)
(-0.00641625 0.000805289 -1.93181e-05)
(-0.00709843 0.000705132 -2.40015e-05)
(-0.00763816 0.000574686 -3.13012e-05)
(-0.00800139 0.000410003 -4.14011e-05)
(-0.00815256 0.000207943 -5.43311e-05)
(-0.00805671 -3.13477e-05 -7.08947e-05)
(-0.00767901 -0.000302531 -8.87551e-05)
(-0.00699468 -0.00059364 -0.000107308)
(-0.00599749 -0.000885241 -0.000123791)
(-0.00471004 -0.00114628 -0.00013279)
(-0.00321921 -0.00132227 -0.000126859)
(-0.00153617 -0.00129989 -0.000101474)
(-0.000316217 -0.000759504 -1.31566e-05)
(-0.000167622 0.00116861 -0.000101768)
(-0.000935948 0.00200054 -7.47076e-05)
(-0.00209048 0.00220609 -6.10273e-05)
(-0.00320946 0.00220823 -4.9418e-05)
(-0.00432254 0.00214081 -4.24183e-05)
(-0.00538725 0.00203408 -3.81325e-05)
(-0.00637928 0.00188889 -3.56267e-05)
(-0.00727473 0.00169924 -3.50294e-05)
(-0.00804579 0.00145746 -3.67711e-05)
(-0.00866048 0.00115563 -4.13692e-05)
(-0.00908317 0.000786874 -4.92542e-05)
(-0.00927389 0.000346451 -6.08464e-05)
(-0.00918879 -0.000164373 -7.60917e-05)
(-0.00878678 -0.000735298 -9.41499e-05)
(-0.00803665 -0.00134345 -0.000113745)
(-0.00692332 -0.00194979 -0.000131773)
(-0.00546447 -0.00249189 -0.000141768)
(-0.00375512 -0.00285935 -0.000134871)
(-0.00180382 -0.0028234 -0.000106077)
(-0.000375185 -0.00174087 -5.63601e-06)
(-0.00017311 0.00188721 -0.00012185)
(-0.000982153 0.00316553 -9.76018e-05)
(-0.00220087 0.00347199 -8.39514e-05)
(-0.00337996 0.00346555 -7.11191e-05)
(-0.00455596 0.00335234 -6.26249e-05)
(-0.00568574 0.00317852 -5.66439e-05)
(-0.00674627 0.00294611 -5.23226e-05)
(-0.00771465 0.00264689 -4.9947e-05)
(-0.00856349 0.00226981 -5.01392e-05)
(-0.00926021 0.00180285 -5.35666e-05)
(-0.00976636 0.00123494 -6.08298e-05)
(-0.0100376 0.000559196 -7.25681e-05)
(-0.0100243 -0.000224359 -8.98869e-05)
(-0.00967108 -0.00110629 -0.000110524)
(-0.00892865 -0.00205409 -0.000133689)
(-0.0077649 -0.0030102 -0.000155707)
(-0.00618287 -0.00387809 -0.000168909)
(-0.00428283 -0.00448145 -0.000162403)
(-0.00206988 -0.00445588 -0.000129891)
(-0.000431802 -0.00278953 -1.2729e-05)
(-0.000173885 0.00265764 -0.000138882)
(-0.00101408 0.0044169 -0.00011681)
(-0.00228885 0.00483179 -0.000103279)
(-0.00352273 0.00481853 -8.97625e-05)
(-0.00475936 0.00466123 -8.05699e-05)
(-0.00595578 0.00442332 -7.39241e-05)
(-0.00709159 0.00410833 -6.90436e-05)
(-0.00814625 0.00370572 -6.63343e-05)
(-0.00909404 0.00320044 -6.65762e-05)
(-0.00990266 0.0025752 -7.069e-05)
(-0.0105314 0.00181253 -7.95839e-05)
(-0.0109294 0.000898366 -9.42239e-05)
(-0.0110371 -0.000172735 -0.000115803)
(-0.010782 -0.00139177 -0.000142403)
(-0.0100889 -0.00272437 -0.000173279)
(-0.00889624 -0.0040953 -0.000203862)
(-0.00717744 -0.00536895 -0.000224215)
(-0.00503099 -0.00628578 -0.000219893)
(-0.0024578 -0.00630962 -0.000182063)
(-0.000518627 -0.00398985 -3.83713e-05)
(-0.00017458 0.00347246 -0.000156631)
(-0.00105073 0.0057492 -0.000136484)
(-0.00239112 0.00628233 -0.000123156)
(-0.00368971 0.00626635 -0.000109218)
(-0.00499805 0.00607005 -9.97275e-05)
(-0.00627384 0.00577599 -9.29667e-05)
(-0.00750054 0.0053898 -8.82486e-05)
(-0.00866146 0.00489867 -8.61201e-05)
(-0.00973419 0.00428296 -8.75469e-05)
(-0.0106884 0.00351847 -9.37354e-05)
(-0.0114823 0.00257839 -0.000106016)
(-0.01206 0.0014371 -0.000125878)
(-0.0123486 7.62171e-05 -0.000154636)
(-0.0122543 -0.00150321 -0.000192434)
(-0.0116664 -0.00327443 -0.000236886)
(-0.0104756 -0.00514835 -0.000282947)
(-0.00860454 -0.00694509 -0.00031736)
(-0.00613286 -0.00829899 -0.000319456)
(-0.00305052 -0.00844426 -0.000274935)
(-0.000660613 -0.00539477 -9.02679e-05)
(-0.000175755 0.00433909 -0.000177736)
(-0.00109546 0.00717586 -0.000159874)
(-0.00251417 0.00783867 -0.000146845)
(-0.00388858 0.00782451 -0.00013246)
(-0.0052797 0.00759521 -0.000122662)
(-0.00664639 0.00725513 -0.00011585)
(-0.00797745 0.00681301 -0.0001115)
(-0.00926204 0.00625425 -0.000110367)
(-0.0104837 0.00555445 -0.000113689)
(-0.0116169 0.00468113 -0.000123072)
(-0.0126225 0.00359496 -0.000140438)
(-0.0134412 0.00225311 -0.000167934)
(-0.0139869 0.00061674 -0.000207351)
(-0.0141433 -0.00133622 -0.000263966)
(-0.0137537 -0.00359991 -0.000331566)
(-0.0126365 -0.00608471 -0.000405319)
(-0.0106295 -0.00856844 -0.000467279)
(-0.00775345 -0.0105528 -0.000486359)
(-0.00396943 -0.0109504 -0.000435511)
(-0.00090095 -0.0071012 -0.000189756)
(-0.000177263 0.0052693 -0.000203961)
(-0.00114868 0.00871667 -0.000189227)
(-0.0026584 0.00952109 -0.000176531)
(-0.00411765 0.00951176 -0.000161385)
(-0.00559903 0.00925433 -0.000150885)
(-0.00706312 0.00887851 -0.000143663)
(-0.00850587 0.00839801 -0.000139459)
(-0.00992479 0.00779774 -0.000139342)
(-0.0113127 0.00704929 -0.00014495)
(-0.0126539 0.00611173 -0.00015849)
(-0.013917 0.00493094 -0.00018281)
(-0.0150454 0.00344096 -0.00022119)
(-0.0159459 0.00157031 -0.000276583)
(-0.0164817 -0.000745326 -0.000362871)
(-0.0164395 -0.00353309 -0.000468555)
(-0.0155391 -0.00674479 -0.000591557)
(-0.0134836 -0.0101309 -0.000707451)
(-0.010154 -0.0130395 -0.000768657)
(-0.00544135 -0.0139241 -0.000718838)
(-0.00133272 -0.00926228 -0.00038751)
(-0.000179521 0.00627782 -0.000237123)
(-0.00121212 0.010395 -0.000226865)
(-0.00282565 0.0113513 -0.000214408)
(-0.00437585 0.0113458 -0.000197781)
(-0.00594983 0.0110614 -0.000185682)
(-0.00751051 0.0106579 -0.000177148)
(-0.00906299 0.0101568 -0.000172334)
(-0.010616 0.00954499 -0.000172752)
(-0.0121758 0.00879239 -0.000180608)
(-0.0137424 0.00785144 -0.000198998)
(-0.0153015 0.00665347 -0.000232272)
(-0.0168113 0.00510581 -0.000286236)
(-0.0181843 0.00309258 -0.000369523)
(-0.0192624 0.000487862 -0.000490228)
(-0.0197895 -0.00280603 -0.00066183)
(-0.0193708 -0.00683657 -0.000871968)
(-0.0174957 -0.0113787 -0.00109253)
(-0.0137637 -0.015636 -0.00125285)
(-0.00791752 -0.017427 -0.00123829)
(-0.00216698 -0.0121196 -0.000806295)
(-0.000184346 0.00738505 -0.000279746)
(-0.00129145 0.0122402 -0.000275892)
(-0.00302314 0.013354 -0.000263305)
(-0.00466735 0.0133432 -0.00024383)
(-0.00632992 0.0130253 -0.000228449)
(-0.0079769 0.0125964 -0.000216879)
(-0.0096246 0.0120892 -0.000209897)
(-0.0112956 0.0114963 -0.000209602)
(-0.0130138 0.0107907 -0.000218946)
(-0.0148018 0.00992325 -0.000242241)
(-0.0166734 0.00881617 -0.000285988)
(-0.0186192 0.00735309 -0.00035986)
(-0.0205799 0.00537013 -0.000477292)
(-0.0224041 0.00265537 -0.000653292)
(-0.0238207 -0.00102979 -0.000927003)
(-0.0243176 -0.00584657 -0.00128381)
(-0.0231086 -0.0117763 -0.00170288)
(-0.0192921 -0.0179381 -0.00208667)
(-0.0123033 -0.0213743 -0.00222885)
(-0.00387323 -0.016078 -0.00177621)
(-0.000196358 0.0086224 -0.000335853)
(-0.00139985 0.0142927 -0.000340991)
(-0.00326812 0.0155591 -0.000327354)
(-0.00500636 0.01552 -0.000302537)
(-0.00674592 0.0151492 -0.000280917)
(-0.00845727 0.0146857 -0.000263293)
(-0.0101699 0.0141779 -0.00025134)
(-0.011922 0.0136288 -0.000247879)
(-0.0137576 0.0130207 -0.000256743)
(-0.0157273 0.0123133 -0.000283689)
(-0.0178845 0.0114321 -0.000337898)
(-0.0202736 0.0102507 -0.000434088)
(-0.0229042 0.00856672 -0.000594324)
(-0.025699 0.00607418 -0.000849849)
(-0.0283851 0.00235825 -0.00124942)
(-0.0304509 -0.00302128 -0.00185753)
(-0.0308555 -0.0103006 -0.00262542)
(-0.0278769 -0.0189108 -0.00346964)
(-0.0203667 -0.0251593 -0.00410354)
(-0.00749578 -0.0218025 -0.00407014)
(-0.000225915 0.0100424 -0.000412407)
(-0.00156422 0.0166118 -0.000429724)
(-0.00359494 0.0180059 -0.000413029)
(-0.00542382 0.0178923 -0.000378349)
(-0.00721952 0.0174282 -0.000345349)
(-0.00895965 0.0169031 -0.000316586)
(-0.0106886 0.0163841 -0.000294987)
(-0.0124604 0.0158886 -0.000284126)
(-0.0143379 0.0154167 -0.000288725)
(-0.0164007 0.0149506 -0.000316081)
(-0.018749 0.0144418 -0.000378481)
(-0.0215025 0.0137878 -0.000496968)
(-0.0247846 0.012791 -0.000706543)
(-0.0286696 0.0110949 -0.00105916)
(-0.0330793 0.00811683 -0.00161739)
(-0.0375548 0.00298337 -0.00249017)
(-0.041062 -0.00521358 -0.00380288)
(-0.0409695 -0.0164373 -0.00539997)
(-0.0349695 -0.0273407 -0.00714595)
(-0.0150472 -0.0304274 -0.00864598)
(-0.000295929 0.0117362 -0.000522176)
(-0.0018377 0.0192832 -0.000554104)
(-0.00406666 0.020739 -0.000529496)
(-0.00597713 0.020469 -0.000476677)
(-0.00779534 0.0198454 -0.000423872)
(-0.00951223 0.0192094 -0.000376051)
(-0.0111898 0.0186446 -0.000337563)
(-0.0128944 0.0181855 -0.000312528)
(-0.0147009 0.0178577 -0.000306396)
(-0.0167081 0.0176805 -0.000327372)
(-0.0190543 0.0176596 -0.000389752)
(-0.0219347 0.0177644 -0.000518943)
(-0.0256188 0.0178807 -0.000758465)
(-0.0304417 0.0177069 -0.00117458)
(-0.0367553 0.0166059 -0.00184978)
(-0.0447366 0.0133376 -0.00287453)
(-0.0534396 0.00588269 -0.00444447)
(-0.0593596 -0.00792377 -0.00654326)
(-0.0583383 -0.0270966 -0.00885146)
(-0.0280906 -0.0465613 -0.0131789)
(-0.000459934 0.0138783 -0.000694354)
(-0.00233296 0.0225089 -0.000749708)
(-0.0047974 0.023938 -0.000712812)
(-0.00675751 0.0233975 -0.000626363)
(-0.00854155 0.0224851 -0.000533372)
(-0.0101671 0.0216164 -0.000446651)
(-0.0117116 0.0209052 -0.000374937)
(-0.013244 0.0204072 -0.000323761)
(-0.0148376 0.0201752 -0.000297516)
(-0.0165911 0.0202764 -0.00030344)
(-0.0186545 0.0208007 -0.000355095)
(-0.0212676 0.0218493 -0.000476595)
(-0.0248297 0.0235058 -0.000705076)
(-0.029971 0.0256884 -0.00107613)
(-0.0376832 0.027908 -0.00156466)
(-0.0492295 0.0284465 -0.00199314)
(-0.0650629 0.0234967 -0.00209875)
(-0.0806953 0.00431941 -0.00100857)
(-0.088751 -0.0333305 0.000747932)
(-0.044115 -0.0855627 -0.00829385)
(-0.000774605 0.0168948 -0.00096162)
(-0.00312608 0.0261057 -0.000989985)
(-0.00588894 0.0270813 -0.000908098)
(-0.00790268 0.0259376 -0.000753471)
(-0.00962817 0.0246386 -0.000606184)
(-0.0110822 0.0235598 -0.000474422)
(-0.0123775 0.022748 -0.000364882)
(-0.0135945 0.0222202 -0.000281142)
(-0.0147913 0.0220337 -0.000226437)
(-0.0160286 0.0222981 -0.000205437)
(-0.0174074 0.0232081 -0.000223162)
(-0.0191204 0.0250352 -0.000284623)
(-0.0215986 0.0281582 -0.000376158)
(-0.0256962 0.0328056 -0.00037028)
(-0.0332769 0.038802 0.000200218)
(-0.0473193 0.0433306 0.00247213)
(-0.0723714 0.0396206 0.00783534)
(-0.102394 0.00667151 0.0168903)
(-0.121435 -0.0691769 0.0240025)
(-0.0541525 -0.167514 0.00147192)
(-0.00207766 0.0201362 -0.00150366)
(-0.00561773 0.0318749 -0.00164155)
(-0.00809643 0.0324807 -0.0014632)
(-0.00973759 0.0308555 -0.00118205)
(-0.0109709 0.028748 -0.000877529)
(-0.0120181 0.0268676 -0.000603752)
(-0.0129646 0.0253582 -0.000377589)
(-0.0138209 0.0242787 -0.000204704)
(-0.0145643 0.0236985 -8.4368e-05)
(-0.0151572 0.023731 -1.45031e-05)
(-0.0155843 0.0246336 9.62364e-06)
(-0.0158745 0.0267814 1.91752e-05)
(-0.0163708 0.0309047 0.000134663)
(-0.0178602 0.0374392 0.000777331)
(-0.0232983 0.0468942 0.00314258)
(-0.0372004 0.0541886 0.00987124)
(-0.0714358 0.0482679 0.0230673)
(-0.114614 -0.0158979 0.0382981)
(-0.142143 -0.151863 0.0365211)
(-0.0523161 -0.275853 -0.00927314)
(-0.00137558 0.0316943 -0.00254227)
(-0.00552729 0.0357728 -0.00221473)
(-0.0100871 0.0342168 -0.00184444)
(-0.01197 0.0305106 -0.00122915)
(-0.0134072 0.027851 -0.000734828)
(-0.0140341 0.0258874 -0.000313243)
(-0.0142706 0.0244658 1.72121e-05)
(-0.0142483 0.0234442 0.000255445)
(-0.0139969 0.0228416 0.000407566)
(-0.0134133 0.0227072 0.000489728)
(-0.0123679 0.0233589 0.000519314)
(-0.0105427 0.0250182 0.000567842)
(-0.0081149 0.0288115 0.000848535)
(-0.00496608 0.0348075 0.00206647)
(-0.00517111 0.0449782 0.00597213)
(-0.0110233 0.0513459 0.0159645)
(-0.0463538 0.0379644 0.0335233)
(-0.0905771 -0.0614122 0.0448433)
(-0.131957 -0.233523 0.0244129)
(-0.0450214 -0.357882 -0.0373525)
(-0.0122302 0.029714 -0.00346095)
(-0.021393 0.0515655 -0.00398157)
(-0.0165107 0.0473433 -0.00342543)
(-0.0164168 0.0424864 -0.00243736)
(-0.0141777 0.036816 -0.00132713)
(-0.0118924 0.0321398 -0.000407946)
(-0.00961038 0.0284534 0.000290445)
(-0.00738031 0.0256045 0.000759841)
(-0.00516988 0.0235164 0.00104892)
(-0.00265682 0.0220249 0.00116826)
(0.000128022 0.0213054 0.00114802)
(0.00413895 0.0213945 0.00107571)
(0.00879061 0.0232206 0.00114426)
(0.0165082 0.0267087 0.00193601)
(0.0216558 0.0344357 0.00539846)
(0.0317591 0.0397474 0.0141825)
(0.0138748 0.0267351 0.028629)
(-0.00103673 -0.0795909 0.035839)
(-0.0788181 -0.256181 0.00905889)
(-0.0248515 -0.397139 -0.0567804)
(-0.0463389 0.089012 -0.011942)
(-0.0300363 0.0422496 -0.00775628)
(-0.021075 0.0359924 -0.0051943)
(-0.00334747 0.0289783 -0.00274417)
(0.0112831 0.0227563 -0.0010082)
(0.0253019 0.0186953 0.000289833)
(0.0371062 0.0161338 0.00122819)
(0.0474131 0.0142327 0.0018481)
(0.0558761 0.0129789 0.0022618)
(0.0638283 0.0119002 0.00241897)
(0.0702072 0.0114942 0.00238897)
(0.078043 0.0111024 0.00204796)
(0.0838237 0.0116625 0.0016626)
(0.0965644 0.011801 0.00111708)
(0.101712 0.0119209 0.00191578)
(0.129693 0.00695621 0.00556944)
(0.116315 -0.0102976 0.0107856)
(0.150837 -0.0865153 0.0202322)
(0.0276518 -0.236623 0.000584159)
(0.0288846 -0.371715 -0.0669718)
(0.117638 0.111796 -0.0112281)
(0.144217 0.0595474 -0.0116841)
(0.216534 0.0393852 -0.0112081)
(0.26091 0.0263046 -0.00977979)
(0.293464 0.017568 -0.00808747)
(0.320209 0.0117545 -0.00664236)
(0.340644 0.0081238 -0.00522941)
(0.358762 0.00578641 -0.00408219)
(0.371223 0.00435547 -0.00298903)
(0.38528 0.00342468 -0.00205829)
(0.391574 0.00291054 -0.00143743)
(0.405812 0.00266801 -0.000585166)
(0.405113 0.00260238 -0.000645075)
(0.425085 0.00251826 0.00010057)
(0.412699 0.00209737 -7.33836e-05)
(0.443037 -0.000829615 0.000697186)
(0.401312 -0.00881729 0.00155515)
(0.422929 -0.031551 0.000588626)
(0.256182 -0.0746135 -0.00817218)
(0.165661 -0.139913 -0.0765518)
(-9.80149e-05 0.000107548 -5.45216e-05)
(-0.000743044 0.000304346 -6.68865e-06)
(-0.00179108 0.000358498 1.40569e-05)
(-0.00279966 0.000363479 2.50188e-05)
(-0.00379707 0.000355129 2.59318e-05)
(-0.00474669 0.000341564 2.01159e-05)
(-0.00562836 0.000322247 9.23047e-06)
(-0.00642104 0.000295018 -6.52973e-06)
(-0.00709877 0.000257763 -2.76056e-05)
(-0.00763133 0.000208182 -5.41624e-05)
(-0.00798533 0.000144334 -8.60994e-05)
(-0.00812572 6.56261e-05 -0.000123044)
(-0.0080166 -2.8981e-05 -0.000164353)
(-0.00762554 -0.000137219 -0.000208545)
(-0.00693043 -0.000254195 -0.000252245)
(-0.0059242 -0.000371979 -0.000290518)
(-0.00462689 -0.000476853 -0.000315178)
(-0.00312306 -0.000542655 -0.000314907)
(-0.00142182 -0.000508635 -0.000281414)
(-0.000253518 -0.000224877 -0.000147453)
(-0.000306257 0.00079544 -0.000153895)
(-0.001582 0.00159511 -0.000118908)
(-0.00345225 0.00180215 -9.55772e-05)
(-0.00525211 0.00180019 -7.62039e-05)
(-0.00700889 0.0017293 -6.608e-05)
(-0.00865817 0.00162292 -6.23748e-05)
(-0.0101603 0.0014829 -6.35361e-05)
(-0.0114773 0.00130449 -6.96506e-05)
(-0.0125673 0.00108221 -8.13346e-05)
(-0.0133847 0.000810488 -9.92737e-05)
(-0.0138805 0.000484859 -0.000123944)
(-0.014007 0.00010269 -0.000155362)
(-0.0137165 -0.000332391 -0.00019396)
(-0.0129662 -0.00080916 -0.000235748)
(-0.0117308 -0.00130794 -0.000278196)
(-0.0100076 -0.0017967 -0.000315266)
(-0.0078356 -0.0022223 -0.00033658)
(-0.00534235 -0.00248324 -0.000328922)
(-0.00255318 -0.00235076 -0.000283467)
(-0.000533032 -0.00125342 -0.000117681)
(-0.000378433 0.0019447 -0.000204452)
(-0.0018892 0.00356313 -0.000177639)
(-0.00406754 0.00396383 -0.000153556)
(-0.00615374 0.00393427 -0.000129931)
(-0.00818232 0.00375459 -0.00011492)
(-0.010081 0.00349235 -0.000105936)
(-0.0118058 0.00315461 -0.000101628)
(-0.0133153 0.00273542 -0.000102396)
(-0.0145639 0.00222642 -0.000109178)
(-0.0155027 0.00161934 -0.000123036)
(-0.0160799 0.000907919 -0.000144867)
(-0.0162405 8.96949e-05 -0.000175434)
(-0.0159267 -0.000828092 -0.000213765)
(-0.0150886 -0.0018245 -0.000258187)
(-0.0136914 -0.00286004 -0.000305049)
(-0.0117226 -0.00387018 -0.000347395)
(-0.00921685 -0.00474872 -0.000372709)
(-0.00631473 -0.00529176 -0.000365015)
(-0.00304 -0.00504385 -0.000314042)
(-0.00064343 -0.00286221 -0.000124733)
(-0.000402316 0.00312694 -0.000245821)
(-0.00201778 0.00560106 -0.000227367)
(-0.00434567 0.0061961 -0.00020344)
(-0.00657046 0.00613398 -0.000177138)
(-0.00873679 0.00584326 -0.000158912)
(-0.0107704 0.00542599 -0.000146421)
(-0.0126284 0.00489378 -0.00013855)
(-0.0142702 0.00423893 -0.000136042)
(-0.0156501 0.00344949 -0.000140237)
(-0.0167176 0.00251284 -0.000152607)
(-0.0174168 0.00141858 -0.000174484)
(-0.017687 0.000163093 -0.00020699)
(-0.0174592 -0.00124686 -0.000251716)
(-0.0166632 -0.00278636 -0.000304272)
(-0.015241 -0.00439941 -0.000361649)
(-0.0131557 -0.00598956 -0.000415575)
(-0.0104223 -0.00739161 -0.000450867)
(-0.00718866 -0.00828156 -0.000447273)
(-0.00347612 -0.00794102 -0.000390996)
(-0.000735859 -0.00458034 -0.00016698)
(-0.000417739 0.00438665 -0.00028358)
(-0.00211947 0.00777746 -0.000272943)
(-0.00458011 0.00857897 -0.000249395)
(-0.00693174 0.00848496 -0.000221302)
(-0.00922958 0.00808293 -0.000201183)
(-0.011399 0.00751172 -0.000186924)
(-0.0134005 0.00678786 -0.000177659)
(-0.0151961 0.00590161 -0.00017448)
(-0.0167421 0.00483642 -0.000179165)
(-0.0179877 0.00357318 -0.000193775)
(-0.0188727 0.00209364 -0.00022029)
(-0.0193257 0.000385791 -0.000260458)
(-0.0192627 -0.00154771 -0.000317326)
(-0.0185873 -0.00368389 -0.000386196)
(-0.017204 -0.00595643 -0.000464171)
(-0.0150328 -0.00823776 -0.000541042)
(-0.0120475 -0.0102928 -0.00059682)
(-0.00839355 -0.0116449 -0.00060363)
(-0.00409214 -0.0112481 -0.000540526)
(-0.000871491 -0.00654974 -0.000259057)
(-0.000436256 0.00571971 -0.000324277)
(-0.00223934 0.0100942 -0.000321764)
(-0.00485659 0.011118 -0.000298746)
(-0.00735905 0.0109953 -0.000269185)
(-0.00981376 0.0104855 -0.000247737)
(-0.0121466 0.00976734 -0.000232559)
(-0.014323 0.00886292 -0.000223102)
(-0.0163102 0.0077602 -0.000220895)
(-0.0180685 0.00643677 -0.000228271)
(-0.019549 0.0048643 -0.000248075)
(-0.0206888 0.00301194 -0.000283379)
(-0.0214067 0.000852434 -0.000337574)
(-0.0216 -0.00162793 -0.00041338)
(-0.0211372 -0.00441973 -0.000510167)
(-0.0198686 -0.0074571 -0.00062315)
(-0.0176467 -0.0105859 -0.000740346)
(-0.0143707 -0.013489 -0.000834673)
(-0.0101586 -0.0154914 -0.000864932)
(-0.00502642 -0.0151137 -0.000795228)
(-0.00109026 -0.00887843 -0.000423275)
(-0.000460171 0.00714274 -0.000373019)
(-0.00238792 0.01258 -0.000380189)
(-0.00519496 0.0138441 -0.000357782)
(-0.00787811 0.0136958 -0.00032644)
(-0.0105187 0.013082 -0.000303348)
(-0.0130437 0.0122257 -0.000287073)
(-0.0154262 0.0111561 -0.000277542)
(-0.0176413 0.00985894 -0.00027689)
(-0.0196575 0.00830516 -0.000288235)
(-0.0214318 0.00645431 -0.000315529)
(-0.0229032 0.00425725 -0.000363437)
(-0.0239833 0.00166218 -0.000437263)
(-0.0245521 -0.00137368 -0.000541681)
(-0.0244372 -0.0048769 -0.00068304)
(-0.0234158 -0.00880159 -0.000853563)
(-0.0212379 -0.0129852 -0.00104056)
(-0.0176753 -0.0170225 -0.00120703)
(-0.012757 -0.0199813 -0.0012895)
(-0.00647504 -0.019774 -0.00121935)
(-0.00145893 -0.0117658 -0.000709943)
(-0.000490024 0.00867781 -0.000433799)
(-0.00256854 0.0152719 -0.000453325)
(-0.00560089 0.0167951 -0.000431386)
(-0.00849342 0.0166209 -0.000397223)
(-0.0113452 0.0159044 -0.000371238)
(-0.0140855 0.0149184 -0.000352646)
(-0.0166977 0.0137013 -0.00034209)
(-0.0191694 0.0122385 -0.000342546)
(-0.0214822 0.0104942 -0.000358225)
(-0.0236067 0.00841424 -0.000394659)
(-0.0254913 0.00592584 -0.000458882)
(-0.0270488 0.00294096 -0.000559449)
(-0.0281516 -0.000635198 -0.000705932)
(-0.0285854 -0.00487632 -0.000914265)
(-0.0280363 -0.00981162 -0.0011767)
(-0.0261121 -0.0153073 -0.0014834)
(-0.0223763 -0.0208852 -0.00178475)
(-0.0166417 -0.0252913 -0.00198235)
(-0.00882672 -0.0255608 -0.00193604)
(-0.00212971 -0.0155639 -0.00122762)
(-0.000527159 0.01035 -0.000511052)
(-0.00278617 0.0182107 -0.000546802)
(-0.00608135 0.0200093 -0.000524767)
(-0.00920919 0.0198025 -0.000485733)
(-0.0122912 0.0189786 -0.000454349)
(-0.0152602 0.0178679 -0.000430852)
(-0.0181138 0.0165218 -0.00041692)
(-0.0208567 0.0149281 -0.000416666)
(-0.0234912 0.0130467 -0.00043575)
(-0.026011 0.0108102 -0.000481895)
(-0.0283886 0.0081194 -0.000565611)
(-0.0305582 0.0048402 -0.000700419)
(-0.0323861 0.000806314 -0.00090268)
(-0.0336433 -0.00414583 -0.00120458)
(-0.0339372 -0.0101782 -0.00161616)
(-0.0326772 -0.0172684 -0.00212574)
(-0.0291176 -0.0249339 -0.00267739)
(-0.0226296 -0.0315584 -0.00312424)
(-0.0129369 -0.0329412 -0.00318652)
(-0.0034787 -0.0209812 -0.00222364)
(-0.000575036 0.0121909 -0.000610899)
(-0.00305157 0.0214442 -0.000668137)
(-0.00665118 0.023527 -0.000644665)
(-0.010037 0.0232688 -0.000597127)
(-0.0133598 0.0223222 -0.000555954)
(-0.0165578 0.0210842 -0.000522951)
(-0.0196467 0.0196245 -0.000501266)
(-0.0226544 0.017938 -0.000496449)
(-0.0256116 0.0159856 -0.000515967)
(-0.0285473 0.0136916 -0.000570385)
(-0.0314769 0.0109338 -0.000675142)
(-0.0343804 0.00752972 -0.000852544)
(-0.037162 0.00322745 -0.00113447)
(-0.0396164 -0.00229586 -0.00155895)
(-0.041307 -0.00939189 -0.00219083)
(-0.0414522 -0.0182998 -0.0030294)
(-0.0389014 -0.0287074 -0.00403489)
(-0.0322588 -0.0386906 -0.00500718)
(-0.020771 -0.0425239 -0.00544655)
(-0.00647745 -0.0295951 -0.00430938)
(-0.000641121 0.0142452 -0.000742729)
(-0.00338611 0.0250324 -0.000828349)
(-0.00733947 0.027393 -0.000800669)
(-0.0110024 0.0270446 -0.000738424)
(-0.0145656 0.0259423 -0.000680137)
(-0.0179754 0.0245605 -0.000629991)
(-0.0212706 0.0229932 -0.000593169)
(-0.024507 0.0212492 -0.000576919)
(-0.0277507 0.0192987 -0.000590704)
(-0.031078 0.017069 -0.000648266)
(-0.0345688 0.0144275 -0.000770834)
(-0.0382876 0.0111534 -0.000991576)
(-0.0422465 0.00690097 -0.00135971)
(-0.0463398 0.00116207 -0.00194208)
(-0.050206 -0.0066951 -0.00286246)
(-0.053017 -0.0173679 -0.00421847)
(-0.0532214 -0.0310341 -0.00598092)
(-0.0483232 -0.0458268 -0.00795683)
(-0.036443 -0.054851 -0.00942818)
(-0.0134436 -0.0449596 -0.00880947)
(-0.000740562 0.0165811 -0.000921864)
(-0.00382973 0.029057 -0.00104452)
(-0.00819885 0.0316611 -0.00100736)
(-0.0121532 0.0311518 -0.000919868)
(-0.0159424 0.0298329 -0.000832379)
(-0.0195254 0.0282683 -0.000752786)
(-0.0229691 0.026582 -0.000689071)
(-0.0263605 0.0248031 -0.000650242)
(-0.0298045 0.0229224 -0.000647584)
(-0.0334331 0.020889 -0.000697779)
(-0.0374104 0.0185881 -0.000827998)
(-0.0419322 0.0157992 -0.00108384)
(-0.0472013 0.0121265 -0.00154025)
(-0.05335 0.00690413 -0.00231064)
(-0.0603491 -0.000871374 -0.00353221)
(-0.0677064 -0.0125244 -0.00543659)
(-0.0737582 -0.0293459 -0.00819987)
(-0.0745762 -0.0505891 -0.0114985)
(-0.0654638 -0.0702528 -0.0146772)
(-0.0273302 -0.0749845 -0.0163469)
(-0.000903589 0.0193038 -0.00117415)
(-0.0044536 0.0336104 -0.00134175)
(-0.0093186 0.0363587 -0.00128369)
(-0.0135723 0.0355697 -0.00115301)
(-0.0175537 0.0339478 -0.00101782)
(-0.0212439 0.0321437 -0.00089067)
(-0.0247447 0.0303064 -0.000782683)
(-0.0281743 0.0284903 -0.00070435)
(-0.0316718 0.0267207 -0.000668182)
(-0.0354187 0.024992 -0.000691962)
(-0.0396649 0.0232481 -0.000805279)
(-0.0447605 0.021335 -0.00105982)
(-0.0511865 0.0189104 -0.00154361)
(-0.0595516 0.0152802 -0.00238912)
(-0.0705413 0.00919945 -0.00375324)
(-0.0846766 -0.0013946 -0.00575855)
(-0.100317 -0.0197797 -0.00843277)
(-0.110433 -0.0499123 -0.0110105)
(-0.10509 -0.0920688 -0.0130924)
(-0.0424503 -0.135673 -0.0198238)
(-0.00120639 0.0226224 -0.00155397)
(-0.0054283 0.0390239 -0.00179088)
(-0.010867 0.0418201 -0.00170093)
(-0.0153794 0.0405974 -0.00149593)
(-0.0194752 0.0384749 -0.00127166)
(-0.0231788 0.0362483 -0.00105596)
(-0.0266227 0.034123 -0.000868614)
(-0.029942 0.0321883 -0.000722794)
(-0.0332941 0.0305083 -0.000629026)
(-0.0368912 0.0291427 -0.000601835)
(-0.0410452 0.0281498 -0.000665857)
(-0.0462419 0.0275474 -0.000862536)
(-0.0532533 0.027231 -0.00125212)
(-0.0632449 0.0267517 -0.00187044)
(-0.077871 0.0249032 -0.00254591)
(-0.0986745 0.0183508 -0.00251726)
(-0.123185 -0.000925681 -5.53633e-05)
(-0.138945 -0.0492225 0.00700699)
(-0.134558 -0.13299 0.0130036)
(-0.0418575 -0.232625 -0.00824948)
(-0.00163489 0.0269372 -0.00211125)
(-0.0066444 0.0445771 -0.0023328)
(-0.012902 0.0468167 -0.00215543)
(-0.0177622 0.0447324 -0.00181543)
(-0.0219848 0.0421051 -0.0014769)
(-0.0255811 0.0396111 -0.00115786)
(-0.028775 0.0373596 -0.000876736)
(-0.0317466 0.0354003 -0.000644312)
(-0.0346555 0.0338213 -0.000468582)
(-0.0376853 0.032762 -0.000356694)
(-0.0411198 0.0324433 -0.000310409)
(-0.0454515 0.0331532 -0.000316002)
(-0.0515734 0.0352294 -0.000299014)
(-0.0609617 0.0386543 0.000110257)
(-0.0759533 0.0422402 0.00217223)
(-0.0985167 0.039996 0.00891696)
(-0.126435 0.0171688 0.0244645)
(-0.141429 -0.0559487 0.0471788)
(-0.140185 -0.185334 0.0538246)
(-0.0266487 -0.329948 -0.000445481)
(-0.00368423 0.0311732 -0.00311664)
(-0.0107755 0.0538371 -0.00357224)
(-0.0166324 0.0557317 -0.00323552)
(-0.021083 0.0529745 -0.00267979)
(-0.0247233 0.0490357 -0.00205467)
(-0.0279141 0.0452909 -0.0014649)
(-0.0307575 0.0420004 -0.000948723)
(-0.0333262 0.039273 -0.0005236)
(-0.0356759 0.0372136 -0.000191647)
(-0.0378817 0.0359967 5.28376e-05)
(-0.0400898 0.0359695 0.000238304)
(-0.0425801 0.0376669 0.000473414)
(-0.0460424 0.0419746 0.00110038)
(-0.0515558 0.0491938 0.00317379)
(-0.0614093 0.0580885 0.00948949)
(-0.0768178 0.0587206 0.0254199)
(-0.100814 0.033465 0.0545869)
(-0.112617 -0.0618466 0.083254)
(-0.123312 -0.232931 0.0678705)
(-0.00890617 -0.408863 -0.0174251)
(-0.00178082 0.045943 -0.00498208)
(-0.00938243 0.0576137 -0.00482881)
(-0.0198664 0.0567147 -0.00411194)
(-0.0249409 0.0515722 -0.0029899)
(-0.0293363 0.0476662 -0.00204176)
(-0.0321496 0.0443867 -0.00117392)
(-0.0341049 0.0416058 -0.000434393)
(-0.0354335 0.0392073 0.000165696)
(-0.0362586 0.0373125 0.000631471)
(-0.0365765 0.0360634 0.000972092)
(-0.0363597 0.0359458 0.00125015)
(-0.0354085 0.0374405 0.0016784)
(-0.0339273 0.041943 0.00281943)
(-0.0315055 0.0493369 0.00623197)
(-0.0307768 0.060155 0.0154104)
(-0.0290415 0.0615082 0.0357169)
(-0.0439419 0.037786 0.0685968)
(-0.0467947 -0.0676582 0.0886628)
(-0.0764163 -0.264657 0.0502115)
(0.0178303 -0.464298 -0.0418651)
(-0.0120259 0.0374827 -0.00627361)
(-0.0255193 0.0804641 -0.00744891)
(-0.0254363 0.0773035 -0.00672635)
(-0.0316992 0.0709726 -0.0051176)
(-0.033278 0.0629022 -0.00321556)
(-0.0333127 0.0557858 -0.00153861)
(-0.0319534 0.0497479 -0.000172761)
(-0.0297077 0.044733 0.000863176)
(-0.0268351 0.0407302 0.00160699)
(-0.0232429 0.0375525 0.0020647)
(-0.0192318 0.0355551 0.00230319)
(-0.0138389 0.0348342 0.00254133)
(-0.00804836 0.0369285 0.00324776)
(0.00206608 0.0414631 0.00575604)
(0.0110981 0.0512392 0.0129387)
(0.0322636 0.0553273 0.0289854)
(0.0344987 0.042152 0.0509813)
(0.0664699 -0.0485785 0.065633)
(0.0139795 -0.257296 0.0269119)
(0.0673779 -0.471154 -0.0589057)
(-0.0756353 0.101388 -0.0179958)
(-0.061185 0.0628807 -0.0128113)
(-0.0606014 0.0608636 -0.0090506)
(-0.0393476 0.0526409 -0.00552819)
(-0.0211242 0.0445347 -0.00298469)
(-0.00136393 0.0385054 -0.000893925)
(0.016833 0.0340814 0.000804236)
(0.0343033 0.0303066 0.00213493)
(0.0497705 0.0275014 0.00315571)
(0.0652422 0.0247605 0.00377928)
(0.0778499 0.0231984 0.00405517)
(0.0929154 0.0214685 0.00382938)
(0.102648 0.021485 0.00359095)
(0.123105 0.021715 0.00313593)
(0.129673 0.0216786 0.00442561)
(0.171209 0.0191038 0.0113298)
(0.167239 -0.00638164 0.0151028)
(0.226836 -0.0616456 0.0254908)
(0.157502 -0.236816 0.00841114)
(0.148648 -0.420195 -0.0730004)
(0.119401 0.13992 -0.0164716)
(0.151583 0.0857191 -0.0176751)
(0.229802 0.0634695 -0.0172961)
(0.284129 0.0481197 -0.0156477)
(0.325661 0.0372161 -0.0135442)
(0.363131 0.029171 -0.0116527)
(0.392116 0.0234603 -0.00976091)
(0.422067 0.019271 -0.0080299)
(0.441535 0.0161704 -0.00644802)
(0.468569 0.013753 -0.0048753)
(0.479344 0.01194 -0.00367789)
(0.507437 0.0105895 -0.00249192)
(0.509113 0.00936445 -0.00150559)
(0.541779 0.00894819 -0.00122457)
(0.532805 0.00742381 0.000405548)
(0.570832 0.00556465 -0.000444489)
(0.541088 -0.00351421 0.00309963)
(0.561116 -0.0237953 -0.00297713)
(0.434068 -0.0713325 -0.00743557)
(0.303127 -0.149329 -0.0840633)
(-0.000109629 0.000110101 -7.5661e-05)
(-0.000836462 0.000337981 -6.45859e-05)
(-0.00201601 0.000400874 -5.12836e-05)
(-0.0031445 0.000405626 -4.10685e-05)
(-0.00425374 0.0003941 -3.79164e-05)
(-0.00530333 0.000376151 -4.0589e-05)
(-0.00627168 0.000351462 -4.83622e-05)
(-0.00713605 0.000317772 -6.12446e-05)
(-0.00786883 0.000272711 -7.9365e-05)
(-0.00843833 0.000214026 -0.000103175)
(-0.00880935 0.00013991 -0.000132987)