/*--------------------------------*- C++ -*----------------------------------*\
  =========                 |
  \\      /  F ield         | OpenFOAM: The Open Source CFD Toolbox
   \\    /   O peration     | Website:  https://openfoam.org
    \\  /    A nd           | Version:  10
     \\/     M anipulation  |
\*---------------------------------------------------------------------------*/
FoamFile
{
    format      ascii;
    class       surfaceScalarField;
    location    "0.625";
    object      phi;
}
// * * * * * * * * * * * * * * * * * * * * * * * * * * * * * * * * * * * * * //

dimensions      [0 3 -1 0 0 0 0];

internalField   nonuniform List<scalar> 
928
(
0.0955683
0.00443165
0.103572
-0.00800348
0.106803
-0.00323081
-0.00953085
0.116333
0.0945432
0.00988848
0.10594
-0.0194005
0.102737
-2.75274e-05
-0.0193774
0.112584
0.0965884
0.0133001
0.107766
-0.0305784
0.103638
0.00410089
-0.0386887
0.122949
0.103828
0.00947158
0.0937956
-0.0205456
0.0989012
-0.00100468
0.145736
-0.0855232
0.111737
0.00459675
-0.0172229
0.12896
0.110007
0.00717356
-0.0418249
0.134609
0.125332
0.00479038
-0.0467511
0.130259
0.150526
0.103775
0.129375
-0.000415776
0.130505
-0.00112978
0.131206
-0.000700928
0.000493548
0.130713
0.136076
-0.00188281
0.137615
-0.00266868
0.137993
-0.00107945
0.00230826
0.136178
0.137809
-0.00943293
0.142482
-0.00734225
0.137991
0.00341181
0.0067232
0.133576
0.111317
-0.0169754
0.116426
-0.0124508
0.103418
0.0164201
0.103805
0.00633539
0.128957
0.00175508
0.126097
0.00286017
0.122663
0.00343481
0.120244
0.00241826
0.119146
0.00109824
0.118388
0.000757639
0.117426
0.000962252
0.116673
0.000753427
0.116641
3.14875e-05
0.117299
-0.000657427
0.11821
-0.000911855
0.11888
-0.00066923
0.119238
-0.000358655
0.119387
-0.000149047
0.119345
4.22805e-05
0.118756
0.000589314
0.117721
0.00103533
0.116157
0.00156375
0.114499
0.00165778
0.112539
0.00195951
0.110707
0.00183197
0.108712
0.00199559
0.106906
0.00180566
0.104915
0.00199171
0.103093
0.00182192
0.101197
0.001896
0.0994411
0.00175548
0.097787
0.00165411
0.0961161
0.00167087
0.0946661
0.00145003
0.0930616
0.00160448
0.0918483
0.00121337
0.0903899
0.00145832
0.0893226
0.00106734
0.0879979
0.00132469
0.086986
0.00101192
0.0858654
0.00112062
0.0849056
0.0009598
0.083956
0.000949619
0.00104194
0.133773
0.00416075
0.130735
0.00589765
0.12796
0.00621029
0.126193
0.00418501
0.12499
0.00230132
0.124218
0.00152945
0.12383
0.00135057
0.123783
0.000800503
0.124371
-0.000556822
0.125549
-0.00183533
0.126963
-0.00232633
0.128391
-0.00209716
0.12966
-0.00162736
0.130485
-0.000973611
0.130639
-0.000112435
0.130442
0.000786691
0.129697
0.00178078
0.128792
0.00246842
0.127456
0.00299318
0.126117
0.00329935
0.124478
0.00347107
0.12299
0.00348339
0.121322
0.00347367
0.119863
0.0034506
0.118246
0.00343887
0.116769
0.00337259
0.115266
0.00325865
0.113859
0.00306103
0.112601
0.00292951
0.111311
0.00274002
0.11023
0.00268497
0.109007
0.00243659
0.108087
0.00237769
0.10704
0.00211499
0.106276
0.00208895
0.105413
0.00187457
0.104722
0.00181126
0.104013
0.0016686
0.103379
0.00158362
0.00127705
0.131963
0.00577435
0.129822
0.00803837
0.128891
0.00714106
0.127848
0.00522842
0.126408
0.00374125
0.125312
0.00262512
0.125076
0.0015864
0.125334
0.000542276
0.125651
-0.000873425
0.125934
-0.0021182
0.126427
-0.0028196
0.127144
-0.00281405
0.127936
-0.00241949
0.128648
-0.00168574
0.129237
-0.00070117
0.129451
0.000573021
0.129435
0.00179626
0.1294
0.00250327
0.129075
0.00331837
0.128876
0.00349876
0.128368
0.0039793
0.128112
0.00373938
0.127551
0.00403454
0.12729
0.00371104
0.126702
0.00402666
0.126365
0.00371048
0.125739
0.00388459
0.125315
0.00348505
0.124765
0.00347927
0.124339
0.00316599
0.123844
0.00318029
0.123297
0.00298309
0.12277
0.00290491
0.12219
0.00269476
0.121672
0.00260654
0.121084
0.00246328
0.120506
0.00238869
0.119919
0.00225604
0.119318
0.00218471
0.00237676
0.111081
-0.00150083
0.105967
0.0131521
0.105276
0.00783174
0.101011
0.00949339
0.0978975
0.00685496
0.0963749
0.00414773
0.0961944
0.00176698
0.0967394
-2.74774e-06
0.0973924
-0.00152643
0.0980427
-0.00276852
0.0986654
-0.00344228
0.0990811
-0.00322974
0.0990753
-0.00241374
0.0985633
-0.00117368
0.0980339
-0.000171752
0.09797
0.0006369
0.0982269
0.00153937
0.0985449
0.00218521
0.0991739
0.00268943
0.0997223
0.00295029
0.100577
0.00312428
0.10127
0.00304641
0.102215
0.00308977
0.10299
0.00293644
0.104003
0.00301348
0.104855
0.00285839
0.105848
0.00289158
0.106699
0.00263437
0.107593
0.0025845
0.108427
0.00233196
0.109252
0.00235555
0.110053
0.00218267
0.110788
0.00216991
0.111503
0.00197939
0.112177
0.00193257
0.11281
0.00183065
0.113391
0.00180713
0.113883
0.00176407
0.114354
0.0017137
0.00151196
0.109119
0.00035231
0.0880858
0.000487904
0.0859854
0.0010957
0.000462203
0.110749
-0.0103965
0.089114
0.0221227
0.0895859
0.000623777
0.0900481
-0.0153694
-0.00160606
0.0138171
-0.0416373
0.00919319
0.0210441
0.0329628
-0.0174342
-0.0143906
0.0127845
-0.0370852
-0.0189427
-0.0217706
0.00572947
0.00254137
0.00865086
-0.0151858
-0.00374923
-0.00307666
0.00104302
0.00232444
0.00243064
0.0108573
0.000960491
0.0172854
0.000426871
0.0225585
-0.00112535
0.0268044
-0.00247887
0.0301601
-0.00335844
0.0322751
-0.00364146
0.0329789
-0.00347236
0.032422
-0.00288536
0.0312184
-0.00202614
0.0300498
-0.00124513
0.0295187
-0.000642553
0.0295778
-0.000230857
0.0301323
8.2399e-05
0.0314006
0.000271057
0.0331744
0.000411364
0.0353616
0.0005022
0.037773
0.000538928
0.0403598
0.000537524
0.0428965
0.000509659
0.0455163
0.000469936
0.048025
0.000427738
0.0506516
0.000386888
0.0531588
0.000351238
0.0557336
0.000316755
0.058082
0.000285958
0.0604121
0.000254447
0.0625195
0.000224501
0.0646786
0.000196449
0.0666928
0.000168512
0.068717
0.000145733
0.0705761
0.000120248
0.0724054
0.000103308
0.0741537
8.23323e-05
0.075888
7.28314e-05
0.0775945
5.75143e-05
0.0792546
5.35725e-05
3.71961e-05
0.00299254
-0.0042004
0.0113486
-0.00731303
0.0167397
-0.0029605
0.0221368
-0.00443658
0.0283373
-0.00577359
0.0338257
-0.00661379
0.0374245
-0.00607766
0.0387189
-0.00465287
0.0379787
-0.00290121
0.0358639
-0.00135757
0.0331509
-0.000172383
0.0303741
0.000750629
0.028246
0.00088298
0.027167
0.000436447
0.0270107
-7.45552e-05
0.027638
-0.000544876
0.0289809
-0.00107189
0.0308648
-0.00147253
0.0331948
-0.00182781
0.03578
-0.00204623
0.0385538
-0.0022363
0.0412788
-0.00221534
0.0440776
-0.0023289
0.0467518
-0.00224645
0.049531
-0.00239224
0.0521765
-0.0022943
0.0548795
-0.00238628
0.0573428
-0.00217728
0.0597782
-0.00218098
0.0619774
-0.00197467
0.0642198
-0.00204603
0.0663049
-0.00191653
0.0683923
-0.00194172
0.0703038
-0.00179121
0.0721788
-0.00177167
0.0739643
-0.00170318
0.07573
-0.00169287
0.0774619
-0.00167438
0.0791431
-0.00162765
-0.00145543
0.103433
-0.0138296
0.0928212
0.0327347
0.09792
-0.00447508
0.0408614
0.147107
0.0960047
-0.00983434
0.109786
0.0189535
0.10446
0.000850629
0.0193433
0.125978
0.0946165
-0.00445079
0.105659
0.00791059
0.103065
0.00344541
0.00962676
0.112781
0.0955492
0.10346
0.106905
0.116532
0.152488
-0.00538134
0.0485232
0.103965
0.128803
-0.00820564
0.0418955
0.13543
0.109877
-0.00530124
0.0167879
0.134984
0.111231
0.128019
0.113676
0.00307339
0.0907864
0.00394691
0.0959389
0.000576966
0.000480936
0.104109
0.137824
0.00067987
0.141
0.000770813
0.140926
0.000650324
0.00101313
0.140394
0.136186
-0.000521857
0.136621
0.000335913
0.136126
0.00114512
0.00101815
0.136121
0.127497
0.127833
0.128978
0.129996
0.102238
-0.00232952
0.100139
-0.00521363
0.104225
-0.00704664
0.108001
-0.00821239
0.11128
-0.00905336
0.113432
-0.00876594
0.11446
-0.00710501
0.114724
-0.00491722
0.114127
-0.00230453
0.112465
0.000305228
0.109725
0.00256775
0.106541
0.0039338
0.103215
0.00420979
0.100105
0.00354585
0.0976265
0.00240414
0.0958295
0.00125211
0.0949439
-0.000186286
0.0946065
-0.00113521
0.094996
-0.0022173
0.0955891
-0.00263925
0.0966609
-0.00330815
0.0976585
-0.00321291
0.0989478
-0.00361826
0.10007
-0.00336861
0.101419
-0.003741
0.102583
-0.00345875
0.103863
-0.00366602
0.104974
-0.00328845
0.106102
-0.00330911
0.107146
-0.00301871
0.108157
-0.00305706
0.109124
-0.00288313
0.110005
-0.00282243
0.110846
-0.00263267
0.111629
-0.00255434
0.112351
-0.00242508
0.11301
-0.00235183
0.113562
-0.00222706
0.11409
-0.00215531
-0.00235526
0.138089
-2.39933e-05
0.135869
-0.0029941
0.134796
-0.00597293
0.133412
-0.00682919
0.131335
-0.00697557
0.129074
-0.00650577
0.126978
-0.00500908
0.124962
-0.00290088
0.123464
-0.000806827
0.122678
0.00109194
0.122668
0.00257779
0.123158
0.00344307
0.123798
0.00356987
0.124323
0.00302125
0.12472
0.00200673
0.125205
0.000767364
0.12553
-0.000511473
0.125914
-0.00151916
0.126013
-0.00231647
0.126213
-0.00283893
0.126084
-0.00317869
0.126175
-0.00330475
0.125923
-0.00336604
0.125931
-0.00337651
0.125573
-0.00338289
0.125434
-0.00331945
0.124974
-0.0032069
0.124694
-0.00300766
0.124262
-0.00287782
0.123936
-0.0026924
0.123523
-0.00264364
0.123043
-0.00240315
0.122571
-0.00235059
0.122033
-0.00209443
0.121549
-0.00207044
0.120982
-0.00185798
0.120422
-0.00179226
0.119847
-0.0016519
0.119258
-0.00156594
-0.00126539
0.135884
0.000213564
0.134684
-0.00179416
0.132108
-0.00339679
0.129221
-0.00394265
0.125924
-0.00367886
0.12259
-0.00317128
0.120006
-0.00242544
0.118503
-0.00139794
0.118102
-0.00040528
0.118725
0.00046833
0.120203
0.00109992
0.122222
0.00142427
0.12435
0.00144175
0.126178
0.00119335
0.127325
0.000860051
0.127868
0.000224245
0.127782
-0.000426062
0.127387
-0.00112405
0.126446
-0.00137478
0.125385
-0.00177843
0.123927
-0.00172101
0.122572
-0.00194953
0.120983
-0.00177724
0.119577
-0.00196976
0.117993
-0.00179925
0.116544
-0.00187049
0.115063
-0.00172611
0.11368
-0.00162404
0.112442
-0.00164039
0.111172
-0.00142249
0.110109
-0.00158049
0.1089
-0.0011936
0.107993
-0.00144396
0.106954
-0.00105526
0.106198
-0.00131517
0.105342
-0.00100133
0.104659
-0.00110934
0.103957
-0.000950418
0.103331
-0.000939993
-0.00103603
0.13021
0.128415
0.125019
0.121076
0.117397
0.114226
0.1118
0.110402
0.109997
0.110465
0.111565
0.11299
0.114431
0.115625
0.116485
0.116709
0.116283
0.115159
0.113784
0.112006
0.110285
0.108335
0.106558
0.104588
0.102789
0.100918
0.0991923
0.0975683
0.0959279
0.0945054
0.0929249
0.0917313
0.0902874
0.0892321
0.0879169
0.0869156
0.0858063
0.0848559
0.0839159
)
;

boundaryField
{
    inlet
    {
        type            calculated;
        value           nonuniform List<scalar> 10(-0.1 -0.1 -0.1 -0.1 -0.1 -0.1 -0.1 -0.1 -0.1 -0.1);
    }
    outlet
    {
        type            calculated;
        value           nonuniform List<scalar> 10(0.082914 0.103144 0.118218 0.115219 0.0807294 0.0806357 0.11499 0.118168 0.103102 0.0828798);
    }
    obstacle
    {
        type            calculated;
        value           uniform 0;
    }
    upperWall
    {
        type            calculated;
        value           uniform 0;
    }
    lowerWall
    {
        type            calculated;
        value           uniform 0;
    }
    frontAndBack
    {
        type            empty;
        value           nonuniform List<scalar> 0();
    }
}


// ************************************************************************* //
