/*--------------------------------*- C++ -*----------------------------------*\
  =========                 |
  \\      /  F ield         | OpenFOAM: The Open Source CFD Toolbox
   \\    /   O peration     | Website:  https://openfoam.org
    \\  /    A nd           | Version:  10
     \\/     M anipulation  |
\*---------------------------------------------------------------------------*/
FoamFile
{
    format      ascii;
    class       surfaceScalarField;
    location    "3.1";
    object      phi;
}
// * * * * * * * * * * * * * * * * * * * * * * * * * * * * * * * * * * * * * //

dimensions      [0 3 -1 0 0 0 0];

internalField   nonuniform List<scalar> 
928
(
0.0957013
0.00429868
0.10326
-0.00755885
0.106766
-0.00350613
-0.00953451
0.116301
0.0947908
0.00950793
0.106322
-0.0190897
0.103191
-0.000375126
-0.0197954
0.113451
0.0962023
0.0133057
0.110218
-0.0331051
0.10478
0.00506216
-0.041696
0.126681
0.102957
0.0103489
0.0920666
-0.022215
0.0977197
-0.00059094
0.146248
-0.0902246
0.111523
0.00477732
-0.0164036
0.127927
0.110373
0.00785591
-0.0422021
0.136171
0.12915
0.00538687
-0.0496111
0.136559
0.151635
0.102024
0.128319
-0.000391511
0.128231
8.73546e-05
0.129793
-0.00156147
-0.0011788
0.130972
0.137544
-0.00176432
0.137105
0.000526305
0.137224
-0.00168004
-0.00151958
0.137565
0.138598
-0.00380311
0.14135
-0.00222603
0.142849
-0.00317901
-0.0012097
0.142539
0.109412
-0.0111908
0.0884988
0.018687
0.0923876
-0.00706789
0.0987336
-0.00755569
0.131967
-0.000995289
0.131828
0.000139018
0.130781
0.00104673
0.129791
0.000989765
0.12821
0.00158149
0.127587
0.000622675
0.126069
0.00151797
0.125556
0.000513564
0.12463
0.000926079
0.12424
0.000389828
0.122841
0.00139918
0.120869
0.00197186
0.118774
0.00209456
0.115799
0.00297489
0.113999
0.00180002
0.111555
0.00244378
0.110657
0.000898452
0.109413
0.00124361
0.109866
-0.00045274
0.110952
-0.00108612
0.112169
-0.00121716
0.113865
-0.00169526
0.114271
-0.000406243
0.115225
-0.000954341
0.11482
0.000405059
0.114914
-9.40414e-05
0.114078
0.000836503
0.113267
0.000810203
0.112526
0.00074174
0.111259
0.00126687
0.110715
0.000543793
0.108786
0.00192878
0.10749
0.00129638
0.104667
0.00282282
0.101809
0.00285767
0.0981044
0.00370498
0.0941948
0.00390965
0.0912776
0.0029172
0.0883231
0.00295453
0.000571778
0.138658
-0.00208833
0.137686
0.00111108
0.136807
0.00192514
0.13661
0.0011865
0.135736
0.00245615
0.135128
0.00123019
0.133417
0.00322884
0.133818
0.000112817
0.133188
0.00155661
0.133126
0.000451399
0.132093
0.0024326
0.13098
0.00308415
0.129642
0.00343275
0.127487
0.00512975
0.126162
0.00312549
0.123593
0.005013
0.122845
0.00164584
0.122452
0.00163676
0.123191
-0.00119213
0.124834
-0.00272854
0.125902
-0.00228557
0.127937
-0.00373003
0.128371
-0.000840055
0.129741
-0.00232495
0.12972
0.000426813
0.130012
-0.000385936
0.130118
0.000730248
0.129533
0.00139547
0.129929
0.00034573
0.128877
0.00231808
0.129229
0.000192101
0.12757
0.00358763
0.126576
0.0022911
0.124094
0.00530424
0.121186
0.00576549
0.118731
0.00615998
0.1153
0.00734106
0.113548
0.00466938
0.109889
0.00661353
0.00265922
0.138966
0.00148481
0.135529
0.00454858
0.137957
-0.000502821
0.138203
0.000940183
0.137033
0.00362601
0.135786
0.00247719
0.136254
0.00276097
0.135169
0.00119817
0.134823
0.00190181
0.13442
0.000854675
0.134701
0.00215156
0.135186
0.00259932
0.134461
0.00415788
0.134195
0.00539512
0.132613
0.00470748
0.132729
0.00489704
0.131761
0.002614
0.131422
0.00197606
0.13087
-0.000640363
0.13
-0.00185806
0.130062
-0.00234765
0.129337
-0.00300568
0.129195
-0.000697418
0.128999
-0.0021292
0.128541
0.00088508
0.128991
-0.000836539
0.129066
0.000655249
0.129526
0.000936138
0.130787
-0.000915916
0.131812
0.00129322
0.1334
-0.00139549
0.135317
0.00167083
0.136886
0.000721777
0.137868
0.0043227
0.137637
0.0059957
0.13627
0.00752708
0.132726
0.0108855
0.128221
0.0091744
0.122031
0.0128036
0.00695728
0.0977956
0.00242283
0.0898119
0.0125323
0.0995709
-0.0102618
0.0994208
0.00109024
0.0932484
0.00979849
0.0956255
0.000100094
0.0954185
0.00296795
0.0929706
0.00364603
0.0936069
0.00126555
0.0937918
0.000669746
0.0960249
-8.15367e-05
0.0994021
-0.000777897
0.102769
0.000791159
0.104694
0.00346969
0.104062
0.00533964
0.102189
0.00676995
0.0980764
0.00672676
0.0930982
0.0069543
0.0858881
0.00656973
0.0799482
0.00408184
0.0758931
0.00170745
0.0728677
1.96516e-05
0.0726027
-0.000432342
0.0722766
-0.00180311
0.0747422
-0.00158052
0.0758661
-0.00196039
0.0787041
-0.00218277
0.0816455
-0.00200526
0.0848994
-0.00416986
0.0894394
-0.00324671
0.0935718
-0.00552789
0.100479
-0.00523635
0.105552
-0.00435153
0.112239
-0.00236402
0.117762
0.00047311
0.122386
0.00290298
0.127289
0.00598195
0.130008
0.00645515
0.133937
0.00887504
0.00635753
0.110893
-0.000543927
0.0886436
3.42354e-05
0.089654
-0.00160136
-0.000570523
0.109264
-0.00980757
0.0884003
0.0208975
0.0861102
0.000688762
0.0855397
-0.00547379
-0.00571703
-0.0309034
0.0441166
-0.0216907
-0.0162806
-0.035933
0.0066867
-0.0136621
0.00794511
0.0155799
0.0148745
0.015317
-0.0160177
-0.0152222
-0.0053938
0.00192839
0.00718114
-0.00314667
0.0176074
-0.000526898
-0.0128816
0.00719603
-0.00663269
-0.00477044
0.021765
-0.00682815
0.0021578
0.00233971
-0.00619991
0.00809833
-0.0021126
0.00918627
0.000177613
0.0123171
-0.00246111
0.0162521
-0.0040165
0.0208196
-0.00534541
0.0250937
-0.00348294
0.0280685
0.00049489
0.0291316
0.00427657
0.0284878
0.00741366
0.0267226
0.00849205
0.0247123
0.00896453
0.0231916
0.00809046
0.0213334
0.00594001
0.020355
0.00268586
0.0200583
0.000316414
0.0203432
-0.000717325
0.0221321
-0.00359194
0.0241581
-0.00360658
0.0266533
-0.00445556
0.0301009
-0.00563038
0.0335322
-0.00543656
0.0367895
-0.00742719
0.0423609
-0.00881806
0.0470545
-0.0102215
0.0525257
-0.0107076
0.0591157
-0.0109415
0.0645594
-0.00780771
0.0701973
-0.00516474
0.073939
-0.000838776
0.0750017
0.00491926
0.0763986
0.00505825
0.0726679
0.0126058
0.0102316
-0.0148464
0.00680531
0.00555572
-0.00279475
-0.0053088
-0.00201709
-0.0103785
-0.00156301
0.00649998
0.00488652
0.00979704
-0.00113926
0.00815199
-0.00455486
0.00889384
-0.00285445
0.0114791
-0.0024076
0.0150264
-0.00600846
0.018575
-0.00756505
0.0204853
-0.00725577
0.0219024
-0.00490004
0.0235733
-0.00117598
0.026727
0.00112287
0.0304009
0.00373973
0.0328987
0.00599426
0.0349334
0.00692989
0.0370652
0.00595865
0.0388502
0.00415495
0.03964
0.00189606
0.0401439
-0.000187471
0.0413077
-0.00188109
0.0420319
-0.0043162
0.0426106
-0.00418528
0.0435724
-0.00541732
0.0438461
-0.00590412
0.0438591
-0.00544954
0.0433423
-0.00691038
0.0424478
-0.0079236
0.0416583
-0.00943199
0.0406496
-0.00969888
0.0404189
-0.0107108
0.0415304
-0.00891928
0.0426603
-0.00629459
0.0447956
-0.0029741
0.047587
0.00212787
0.0495108
0.00313448
0.0525201
0.00959645
0.00788439
0.101772
-0.0115796
0.0939163
0.0287533
0.0972219
-0.00261686
0.0382129
0.144549
0.0959667
-0.00754628
0.107575
0.0171445
0.104095
0.000863501
0.0191714
0.123137
0.0955949
-0.0031412
0.106002
0.00673707
0.103639
0.00322651
0.00969689
0.113114
0.0968588
0.103596
0.106822
0.116519
0.151592
-0.00704374
0.0453339
0.106259
0.125089
-0.00899579
0.0421418
0.128281
0.109424
-0.00530549
0.017115
0.13445
0.111214
0.128329
0.107834
0.0063693
0.112671
0.0100375
0.0985425
-0.00188888
-0.00119166
0.0943404
0.13434
0.000309764
0.141508
0.0028697
0.136492
0.00312672
0.00127546
0.134025
0.134675
8.55007e-05
0.136179
0.00136498
0.137984
0.00132238
0.00131612
0.137943
0.128414
0.129779
0.131102
0.132418
0.10125
-0.000104093
0.0977739
0.000681154
0.0953997
0.000357061
0.0937172
0.000119497
0.0982422
0.000361508
0.0985533
-0.00145037
0.0980686
-0.00407015
0.100342
-0.00512758
0.102495
-0.00456041
0.102107
-0.00562042
0.0994135
-0.00487208
0.0961073
-0.00394953
0.0935298
-0.00232254
0.0925372
-0.00018344
0.0917904
0.00186968
0.0919072
0.003623
0.0948151
0.00308635
0.0986014
0.0031436
0.103848
0.000711782
0.10846
-0.000457294
0.113514
-0.0031576
0.117913
-0.00458619
0.122282
-0.0062506
0.126245
-0.0082793
0.129727
-0.00766653
0.132434
-0.00812498
0.132488
-0.00595819
0.132136
-0.00509693
0.128102
-0.00287608
0.120373
-0.00019456
0.111438
-0.000497581
0.0983872
0.00335205
0.0873936
0.000282815
0.0766656
0.00180869
0.0704344
-6.34004e-05
0.0671861
0.000274199
0.0665807
0.00273333
0.0690596
0.00065549
0.0736343
0.00502184
0.00216086
0.134315
-0.000393791
0.135264
-0.000267615
0.135352
0.000268901
0.136115
-0.000643844
0.13692
-0.000443141
0.137405
-0.00193559
0.135356
-0.00202097
0.134583
-0.00435482
0.133302
-0.0032793
0.131909
-0.00422768
0.130228
-0.00319082
0.128994
-0.00271488
0.128121
-0.00144968
0.12736
0.000577559
0.128534
0.000695691
0.129123
0.00303324
0.130805
0.00140465
0.132131
0.00181801
0.13374
-0.000897495
0.134632
-0.00134959
0.133989
-0.00251393
0.13334
-0.00393737
0.130424
-0.00333453
0.12766
-0.00551606
0.123531
-0.00353754
0.120444
-0.00503768
0.117319
-0.00283322
0.114825
-0.00260228
0.113911
-0.00196298
0.113109
0.000608269
0.113239
-0.000628007
0.114047
0.00254397
0.113907
0.000423044
0.113488
0.0022272
0.112385
0.00104027
0.11145
0.00120926
0.111559
0.0026237
0.111475
0.000739952
0.113851
0.00264551
-0.000560371
0.137228
0.000321619
0.137161
-0.000200725
0.137826
-0.000396035
0.138135
-0.000953186
0.137954
-0.00026176
0.137297
-0.00127853
0.136244
-0.000968118
0.134368
-0.0024787
0.132767
-0.00167872
0.130758
-0.00221887
0.129256
-0.00168868
0.127794
-0.00125257
0.127123
-0.000779038
0.127359
0.000341507
0.128276
-0.00022126
0.129872
0.00143704
0.131058
0.000219251
0.132211
0.000664874
0.131922
-0.000609081
0.131489
-0.000916568
0.130417
-0.00144153
0.128806
-0.00232645
0.12735
-0.00187793
0.124846
-0.00301287
0.122996
-0.00168756
0.120508
-0.00254892
0.118855
-0.00118055
0.117358
-0.00110583
0.116032
-0.000636807
0.116109
0.000531611
0.115798
-0.000317525
0.117082
0.0012604
0.117711
-0.000206304
0.118881
0.00105713
0.119913
8.87961e-06
0.120508
0.000614487
0.12229
0.000841606
0.122812
0.000217587
0.124791
0.000666245
-0.00120072
0.132739
0.132539
0.132143
0.131189
0.130928
0.129649
0.128681
0.126202
0.124524
0.122305
0.120616
0.119363
0.118584
0.118926
0.118705
0.120142
0.120361
0.121026
0.120417
0.1195
0.118059
0.115732
0.113854
0.110841
0.109154
0.106605
0.105424
0.104319
0.103682
0.104213
0.103896
0.105156
0.10495
0.106007
0.106016
0.10663
0.107472
0.10769
0.108356
)
;

boundaryField
{
    inlet
    {
        type            calculated;
        value           nonuniform List<scalar> 10(-0.1 -0.1 -0.1 -0.1 -0.1 -0.1 -0.1 -0.1 -0.1 -0.1);
    }
    outlet
    {
        type            calculated;
        value           nonuniform List<scalar> 10(0.0877513 0.107801 0.117733 0.134537 0.0687939 0.0548673 0.0793578 0.116572 0.125432 0.107155);
    }
    obstacle
    {
        type            calculated;
        value           uniform 0;
    }
    upperWall
    {
        type            calculated;
        value           uniform 0;
    }
    lowerWall
    {
        type            calculated;
        value           uniform 0;
    }
    frontAndBack
    {
        type            empty;
        value           nonuniform List<scalar> 0();
    }
}


// ************************************************************************* //
