/*--------------------------------*- C++ -*----------------------------------*\
  =========                 |
  \\      /  F ield         | OpenFOAM: The Open Source CFD Toolbox
   \\    /   O peration     | Website:  https://openfoam.org
    \\  /    A nd           | Version:  10
     \\/     M anipulation  |
\*---------------------------------------------------------------------------*/
FoamFile
{
    format      ascii;
    class       surfaceScalarField;
    location    "9.85";
    object      phi;
}
// * * * * * * * * * * * * * * * * * * * * * * * * * * * * * * * * * * * * * //

dimensions      [0 3 -1 0 0 0 0];

internalField   nonuniform List<scalar> 
22800
(
-3.21465e-06
4.35795e-06
-1.15021e-06
-1.02282e-05
7.84688e-06
-8.33299e-07
-1.86232e-05
9.0251e-06
-6.30101e-07
-2.76806e-05
9.58107e-06
-5.2369e-07
-3.71555e-05
1.0032e-05
-5.57096e-07
-4.6981e-05
1.05267e-05
-7.01166e-07
-5.70819e-05
1.10552e-05
-9.54344e-07
-6.72761e-05
1.15397e-05
-1.34545e-06
-7.72162e-05
1.18619e-05
-1.92183e-06
-8.63386e-05
1.1865e-05
-2.74259e-06
-9.38303e-05
1.13613e-05
-3.8696e-06
-9.86269e-05
1.01497e-05
-5.35317e-06
-9.94864e-05
8.06362e-06
-7.20411e-06
-9.51866e-05
5.05542e-06
-9.35524e-06
-8.48865e-05
1.3036e-06
-1.16037e-05
-6.86103e-05
-2.70712e-06
-1.35691e-05
-4.78899e-05
-5.98403e-06
-1.47363e-05
-2.6009e-05
-7.30628e-06
-1.45746e-05
-7.53203e-06
-5.77734e-06
-1.26996e-05
-3.71329e-07
-7.1607e-06
-6.47363e-06
1.36895e-05
-2.85793e-06
-1.85041e-05
2.28977e-05
-3.0204e-06
-3.26202e-05
2.61374e-05
-2.99615e-06
-4.77596e-05
2.76542e-05
-2.93375e-06
-6.34967e-05
2.87642e-05
-2.99507e-06
-7.96422e-05
2.98507e-05
-3.17849e-06
-9.59991e-05
3.09101e-05
-3.49798e-06
-0.000112226
3.17663e-05
-3.99924e-06
-0.000127752
3.21367e-05
-4.74974e-06
-0.000141698
3.1646e-05
-5.83436e-06
-0.000152839
2.98469e-05
-7.34502e-06
-0.00015959
2.62609e-05
-9.3598e-06
-0.00016012
2.04951e-05
-1.19013e-05
-0.000152695
1.25139e-05
-1.48842e-05
-0.000136121
2.79371e-06
-1.80636e-05
-0.000110377
-7.6127e-06
-2.08388e-05
-7.7632e-05
-1.63178e-05
-2.24111e-05
-4.28128e-05
-2.01729e-05
-2.19525e-05
-1.3064e-05
-1.6823e-05
-1.87031e-05
-3.81066e-06
-9.62472e-06
-7.60176e-06
2.51181e-05
-3.82687e-06
-2.15006e-05
4.10953e-05
-4.2987e-06
-3.76942e-05
4.67187e-05
-4.38767e-06
-5.49864e-05
4.9287e-05
-4.34067e-06
-7.2914e-05
5.1084e-05
-4.39223e-06
-9.12781e-05
5.27758e-05
-4.56102e-06
-0.00010988
5.43867e-05
-4.87455e-06
-0.000128378
5.56585e-05
-5.39423e-06
-0.000146189
5.61572e-05
-6.20933e-06
-0.000162398
5.5292e-05
-7.43718e-06
-0.000175677
5.23405e-05
-9.21419e-06
-0.000184264
4.65198e-05
-1.16719e-05
-0.00018603
3.71508e-05
-1.48905e-05
-0.000178662
2.39665e-05
-1.88205e-05
-0.000160304
7.5642e-06
-2.31278e-05
-0.000130532
-1.03298e-05
-2.70549e-05
-9.15969e-05
-2.58762e-05
-2.93771e-05
-4.96803e-05
-3.33564e-05
-2.87331e-05
-1.42795e-05
-2.82504e-05
-2.39734e-05
-6.40344e-06
-1.16868e-05
-7.81243e-06
3.74626e-05
-4.53201e-06
-2.22113e-05
6.07569e-05
-5.26269e-06
-3.89702e-05
6.8922e-05
-5.44447e-06
-5.68733e-05
7.2605e-05
-5.41482e-06
-7.54876e-05
7.51662e-05
-5.46792e-06
-9.4671e-05
7.76003e-05
-5.64113e-06
-0.000114303
7.99952e-05
-5.97664e-06
-0.000134139
8.20501e-05
-6.55509e-06
-0.000153708
8.32208e-05
-7.4952e-06
-0.000172189
8.27344e-05
-8.96106e-06
-0.000188277
7.95906e-05
-1.11618e-05
-0.000200062
7.2631e-05
-1.43267e-05
-0.000204992
6.07269e-05
-1.86455e-05
-0.000200038
4.31642e-05
-2.4152e-05
-0.000182248
2.0304e-05
-3.05299e-05
-0.00015014
-5.64151e-06
-3.67958e-05
-0.000105342
-2.98212e-05
-4.08536e-05
-5.55338e-05
-4.29426e-05
-4.02219e-05
-1.40142e-05
-3.69307e-05
-3.28393e-05
-5.24901e-06
-1.51686e-05
-7.55015e-06
5.00343e-05
-5.02161e-06
-2.17592e-05
8.09388e-05
-5.97287e-06
-3.83716e-05
9.17657e-05
-6.23129e-06
-5.61983e-05
9.66573e-05
-6.22563e-06
-7.4863e-05
0.000100135
-6.30461e-06
-9.4317e-05
0.000103581
-6.52702e-06
-0.000114571
0.000107203
-6.95371e-06
-0.000135552
0.000110723
-7.69177e-06
-0.000156991
0.000113562
-8.90256e-06
-0.000178274
0.000114838
-1.082e-05
-0.000198243
0.000113325
-1.37656e-05
-0.000214929
0.000107456
-1.81396e-05
-0.000225342
9.54807e-05
-2.43411e-05
-0.000225466
7.58809e-05
-3.25919e-05
-0.000210674
4.81945e-05
-4.26824e-05
-0.000177352
1.44097e-05
-5.33741e-05
-0.000125761
-2.02296e-05
-6.11817e-05
-6.47004e-05
-4.28769e-05
-6.11267e-05
-1.36983e-05
-3.90213e-05
-4.89115e-05
2.19916e-06
-2.11464e-05
-7.01429e-06
6.24254e-05
-5.37677e-06
-2.0626e-05
0.000101078
-6.52723e-06
-3.66736e-05
0.000114668
-6.85422e-06
-5.40067e-05
0.00012087
-6.87967e-06
-7.23097e-05
0.000125443
-7.00484e-06
-9.16424e-05
0.000130228
-7.31397e-06
-0.000112181
0.000135633
-7.89219e-06
-0.000134077
0.000141501
-8.8815e-06
-0.000157352
0.000147338
-1.05008e-05
-0.000181731
0.0001523
-1.30827e-05
-0.000206384
0.000155095
-1.71165e-05
-0.000229539
0.000153887
-2.32769e-05
-0.000247976
0.000146294
-3.23758e-05
-0.000256666
0.000129697
-4.51263e-05
-0.000248853
0.000101954
-6.15722e-05
-0.000217381
6.28263e-05
-7.98893e-05
-0.000159605
1.68853e-05
-9.48901e-05
-8.2817e-05
-2.29005e-05
-9.67647e-05
-1.57501e-05
-2.94502e-05
-7.6638e-05
1.70673e-05
-3.06182e-05
-6.28219e-06
7.43766e-05
-5.66897e-06
-1.89981e-05
0.000120808
-7.01485e-06
-3.41453e-05
0.000137219
-7.40469e-06
-5.06033e-05
0.000144787
-7.45884e-06
-6.81029e-05
0.000150575
-7.63216e-06
-8.68037e-05
0.000156967
-8.03871e-06
-0.00010705
0.000164673
-8.79362e-06
-0.000129253
0.000173786
-1.00828e-05
-0.000153798
0.00018408
-1.21973e-05
-0.00018089
0.000194989
-1.55972e-05
-0.000210278
0.000205486
-2.10028e-05
-0.00024077
0.00021387
-2.94909e-05
-0.000269522
0.000217555
-4.25085e-05
-0.000291118
0.000212855
-6.15621e-05
-0.000297047
0.000195003
-8.71204e-05
-0.000275933
0.000158264
-0.000116551
-0.000216926
9.88689e-05
-0.000140991
-0.000121901
2.85211e-05
-0.000146446
-2.72055e-05
-6.06245e-06
-0.000118083
3.60821e-05
-4.62204e-05
-5.38942e-06
8.57071e-05
-5.94115e-06
-1.69586e-05
0.000139867
-7.48991e-06
-3.08817e-05
0.000159074
-7.93185e-06
-4.60384e-05
0.00016794
-7.99602e-06
-6.21719e-05
0.000174903
-8.1948e-06
-7.95089e-05
0.00018298
-8.67553e-06
-9.85288e-05
0.00019328
-9.58647e-06
-0.000119871
0.000206289
-1.11608e-05
-0.00014429
0.000222269
-1.37689e-05
-0.000172573
0.000241287
-1.8016e-05
-0.000205299
0.000263104
-2.48916e-05
-0.000242396
0.000286913
-3.5946e-05
-0.000282389
0.000310878
-5.33295e-05
-0.000321207
0.000330865
-7.91919e-05
-0.000350435
0.000337789
-0.000113559
-0.000355249
0.000313595
-0.000150517
-0.000313699
0.000234919
-0.000177599
-0.000205823
0.000106969
-0.000186324
-6.63581e-05
1.36183e-05
-0.000159145
4.31542e-05
-7.34301e-05
-4.38792e-06
9.63184e-05
-6.22336e-06
-1.46177e-05
0.00015809
-7.9927e-06
-2.70085e-05
0.000179933
-8.46827e-06
-4.03956e-05
0.000189832
-8.50547e-06
-5.44771e-05
0.000197665
-8.68033e-06
-6.94895e-05
0.000207167
-9.17506e-06
-8.59679e-05
0.000219928
-1.01695e-05
-0.000104677
0.000236936
-1.19378e-05
-0.000126619
0.000259125
-1.49144e-05
-0.000153037
0.000287519
-1.98133e-05
-0.000185345
0.000323216
-2.78041e-05
-0.00022497
0.00036717
-4.06323e-05
-0.000273111
0.000419262
-6.02424e-05
-0.000329814
0.000474593
-8.70249e-05
-0.000392093
0.000516469
-0.000116401
-0.000447034
0.000506809
-0.000138273
-0.000455416
0.000391692
-0.000148392
-0.000358756
0.00016523
-0.000154921
-0.000160662
-2.47833e-05
-0.000159693
-1.72847e-06
-0.000115779
-3.384e-06
0.000106245
-6.54224e-06
-1.22002e-05
0.000175476
-8.56953e-06
-2.2817e-05
0.000199604
-9.05415e-06
-3.39711e-05
0.000209998
-9.01194e-06
-4.52531e-05
0.000218036
-9.08856e-06
-5.68308e-05
0.000228248
-9.5027e-06
-6.91708e-05
0.000242726
-1.0458e-05
-8.29727e-05
0.000262986
-1.22487e-05
-9.92169e-05
0.000290693
-1.53237e-05
-0.000119259
0.000327944
-2.0382e-05
-0.000144995
0.000377386
-2.84337e-05
-0.000179236
0.000441825
-4.04144e-05
-0.000227221
0.000522592
-5.53457e-05
-0.000297265
0.000611573
-6.69357e-05
-0.000397792
0.000678947
-6.19505e-05
-0.000520428
0.000660949
-3.15049e-05
-0.000615005
0.000476129
1.014e-05
-0.000559252
0.000105009
4.4686e-06
-0.000305881
-0.00020076
-7.7395e-05
-0.000168989
-0.00013862
-2.56496e-06
0.000115785
-6.97507e-06
-1.01101e-05
0.000192304
-9.28339e-06
-1.88577e-05
0.000218095
-9.743e-06
-2.73864e-05
0.000228082
-9.55525e-06
-3.51481e-05
0.000235237
-9.43972e-06
-4.21666e-05
0.000244922
-9.65573e-06
-4.86895e-05
0.000259663
-1.04147e-05
-5.50949e-05
0.000281385
-1.19936e-05
-6.19368e-05
0.000312302
-1.47668e-05
-7.01044e-05
0.000355297
-1.91852e-05
-8.13172e-05
0.000414067
-2.54687e-05
-9.9439e-05
0.000492069
-3.21217e-05
-0.000134426
0.000589672
-3.20925e-05
-0.000206961
0.000693359
-9.25099e-06
-0.000344847
0.000757703
5.91291e-05
-0.000557284
0.000698884
0.000174502
-0.000769365
0.000408465
0.000279746
-0.000747725
-0.000163835
0.000247203
-0.00043516
-0.0006098
9.64756e-05
-0.000534166
-6.99834e-05
-2.27521e-06
0.000125709
-7.64891e-06
-9.03874e-06
0.00020936
-1.02926e-05
-1.60527e-05
0.000235826
-1.07166e-05
-2.17097e-05
0.000244059
-1.03196e-05
-2.5377e-05
0.000248808
-9.90352e-06
-2.69117e-05
0.000256244
-9.78752e-06
-2.62374e-05
0.000269171
-1.01823e-05
-2.31845e-05
0.000289647
-1.13151e-05
-1.75321e-05
0.000320055
-1.34058e-05
-9.25637e-06
0.000363476
-1.64549e-05
5.85815e-07
0.000423641
-1.94156e-05
5.98993e-06
0.000504009
-1.73442e-05
-9.4372e-06
0.00060178
3.31893e-06
-8.20161e-05
0.000696388
6.95499e-05
-0.00026945
0.000736571
0.000208565
-0.000601512
0.000623493
0.000407453
-0.000930184
0.000179122
0.000558015
-0.000899787
-0.000685175
0.000490943
-0.000543966
-0.00123622
0.000270602
-0.00111004
3.19096e-05
-3.03177e-06
0.000137459
-8.71888e-06
-9.95944e-06
0.000227956
-1.16682e-05
-1.56737e-05
0.000253484
-1.19439e-05
-1.8451e-05
0.000258052
-1.1216e-05
-1.77142e-05
0.00025848
-1.04088e-05
-1.3231e-05
0.000261651
-9.88986e-06
-4.60976e-06
0.00027039
-9.83947e-06
8.79006e-06
0.00028664
-1.03924e-05
2.78247e-05
0.000312614
-1.15935e-05
5.36728e-05
0.000350644
-1.30164e-05
8.58165e-05
0.000403942
-1.24446e-05
0.000118076
0.000474284
-2.53412e-06
0.000125243
0.000558056
3.65565e-05
4.84862e-05
0.000635239
0.000137906
-0.000202829
0.000655822
0.000332065
-0.000649609
0.000485645
0.000584628
-0.00103948
-0.000167939
0.000736928
-0.00103195
-0.00125516
0.000562466
-0.000682551
-0.00187614
0.000290512
-0.00183273
4.01412e-05
-6.01018e-06
0.000154252
-1.07824e-05
-1.47345e-05
0.000251051
-1.43704e-05
-1.96968e-05
0.000273107
-1.46613e-05
-1.95049e-05
0.000271405
-1.35444e-05
-1.41308e-05
0.000265239
-1.21335e-05
-3.52182e-06
0.000261997
-1.09547e-05
1.28118e-05
0.00026426
-1.02045e-05
3.59824e-05
0.000273552
-1.00831e-05
6.77955e-05
0.000291327
-1.05256e-05
0.000110181
0.000319047
-1.07877e-05
0.000163364
0.000358737
-7.97885e-06
0.000221285
0.00041034
6.0222e-06
0.000255835
0.000470574
5.29327e-05
0.000199345
0.000523483
0.000168245
-6.10148e-05
0.00053068
0.000385503
-0.000518884
0.000306917
0.000636596
-0.000942022
-0.000463799
0.000718999
-0.00105538
-0.00159297
0.000451166
-0.000784238
-0.00236581
0.000218529
-0.00256476
-5.22086e-05
-1.1693e-05
0.000179904
-1.39588e-05
-2.41551e-05
0.000280992
-1.74792e-05
-2.93956e-05
0.000295736
-1.73879e-05
-2.71247e-05
0.000284695
-1.55607e-05
-1.75687e-05
0.000269279
-1.35953e-05
-1.07111e-06
0.000257428
-1.19293e-05
2.24866e-05
0.000251427
-1.07243e-05
5.45448e-05
0.000251733
-1.02389e-05
9.71536e-05
0.000259099
-1.03809e-05
0.000153021
0.00027373
-1.05514e-05
0.000223056
0.000296206
-7.50336e-06
0.000303344
0.000324519
5.53314e-06
0.000371293
0.000354986
4.76393e-05
0.000373314
0.000372416
0.000149047
0.00020595
0.000355334
0.00034271
-0.00016688
0.000131193
0.000548554
-0.000620708
-0.000590132
0.000580162
-0.000905222
-0.00165304
0.000344585
-0.000784318
-0.00264899
0.000162278
-0.00317659
-0.000172491
-3.36663e-05
0.000235257
-2.16868e-05
-5.07941e-05
0.000324827
-2.67066e-05
-5.32146e-05
0.000324259
-2.61026e-05
-4.41198e-05
0.000298976
-2.3376e-05
-2.72924e-05
0.000272399
-1.99479e-05
-4.00706e-06
0.000250979
-1.68365e-05
2.61067e-05
0.000235823
-1.45093e-05
6.48891e-05
0.000226196
-1.32453e-05
0.000114845
0.000222345
-1.32026e-05
0.000179087
0.000223238
-1.37502e-05
0.000258776
0.000228873
-1.23552e-05
0.000352005
0.000235095
-3.80467e-06
0.000442483
0.000239526
2.49817e-05
0.000495562
0.000224729
9.46079e-05
0.000432755
0.000183601
0.00023454
0.000175295
-1.67978e-06
0.000390333
-0.000274984
-0.00055116
0.000411307
-0.000699398
-0.00151163
0.000283004
-0.000738227
-0.00273184
0.000121679
-0.0036222
-0.000292623
-2.9727e-05
0.000302221
-3.7237e-05
-6.55066e-05
0.000399062
-3.84563e-05
-7.61645e-05
0.000370788
-3.58713e-05
-7.03394e-05
0.000322645
-2.94942e-05
-5.05432e-05
0.000277525
-2.49214e-05
-2.05569e-05
0.000241979
-2.09858e-05
1.79708e-05
0.000215537
-1.82422e-05
6.54703e-05
0.00019555
-1.68532e-05
0.000123495
0.000181584
-1.72635e-05
0.000194874
0.000170932
-1.90724e-05
0.000280074
0.000164319
-2.06465e-05
0.000377888
0.000155621
-1.83406e-05
0.000474164
0.000146245
-2.99419e-06
0.000546741
0.00011707
3.50823e-05
0.000540625
7.0176e-05
0.00011954
0.000375526
-6.92596e-05
0.000232679
4.83034e-06
-0.000438408
0.000257944
-0.000476751
-0.00126891
0.000238859
-0.000644652
-0.00264913
8.51869e-05
-0.00385048
-0.000416365
-0.00018246
0.000530617
-4.59366e-05
-0.000176854
0.000453501
-6.0044e-05
-0.000141751
0.000397024
-6.1339e-05
-0.000100108
0.000337016
-5.60152e-05
-4.81268e-05
0.000271433
-4.58899e-05
9.0077e-06
0.000221687
-3.6842e-05
6.97993e-05
0.000185237
-3.04912e-05
0.00013583
0.000156544
-2.70254e-05
0.00020803
0.000135981
-2.65963e-05
0.000290055
0.000118102
-2.91951e-05
0.000380643
0.000106896
-3.3165e-05
0.000480114
9.23678e-05
-3.62175e-05
0.000576191
8.23452e-05
-3.21778e-05
0.000652248
5.47596e-05
-1.37472e-05
0.000680849
1.46169e-05
2.69583e-05
0.000596548
-9.02416e-05
0.000105282
0.00037548
-0.000342866
0.000125526
-6.74854e-05
-0.00100393
0.000177983
-0.000380163
-0.00237266
3.62082e-05
-0.00368235
-0.000548294
-0.000372615
0.00107578
-0.000172551
-0.000262386
0.000477115
-0.000133843
-0.000103029
0.00034603
-0.000108363
7.36532e-05
0.000243811
-8.34767e-05
0.000243333
0.000170017
-6.82634e-05
0.000400239
0.000121066
-5.62847e-05
0.000542984
9.0576e-05
-4.80853e-05
0.000674479
6.84789e-05
-4.34291e-05
0.000797239
5.48477e-05
-4.16277e-05
0.000916078
4.25123e-05
-4.32488e-05
0.00103308
3.67235e-05
-4.68307e-05
0.00115019
2.73801e-05
-5.21204e-05
0.00126544
2.23602e-05
-5.52697e-05
0.00136486
5.64145e-06
-5.02945e-05
0.00143897
-2.24378e-05
-3.70624e-05
0.00144447
-0.000101199
5.46412e-06
0.00134815
-0.000285584
3.90317e-05
0.000971597
-0.000713869
8.64984e-05
0.000274878
-0.00166505
-1.08884e-05
-0.00272737
-0.000680101
0.00122557
-0.000149786
0.00186585
-0.000163167
0.00237631
-0.000164424
0.00277169
-0.000151574
0.00307668
-0.000134974
0.0033187
-0.000120955
0.00351696
-0.000107679
0.00368354
-9.81016e-05
0.00382701
-8.86228e-05
0.00395319
-8.36654e-05
0.00406761
-7.77036e-05
0.00417168
-7.6686e-05
0.00426548
-7.14415e-05
0.00434161
-7.04842e-05
0.00437787
-5.87021e-05
0.00433355
-5.68822e-05
0.00408071
-3.27342e-05
0.00343105
-6.42154e-05
0.00189265
-0.000126648
-0.000834724
-5.55826e-06
6.81949e-06
-2.41143e-06
-1.7652e-05
1.38846e-05
-2.62418e-06
-3.22051e-05
1.64494e-05
-2.52637e-06
-4.76997e-05
1.7452e-05
-2.48106e-06
-6.36598e-05
1.80389e-05
-2.63589e-06
-7.99467e-05
1.8579e-05
-2.9932e-06
-9.64043e-05
1.90795e-05
-3.57625e-06
-0.000112708
1.94039e-05
-4.44577e-06
-0.000128283
1.93415e-05
-5.68818e-06
-0.000142241
1.862e-05
-7.40421e-06
-0.000153339
1.69193e-05
-9.69125e-06
-0.000159985
1.39073e-05
-1.26149e-05
-0.000160354
9.32561e-06
-1.61599e-05
-0.000152674
3.13642e-06
-2.01723e-05
-0.00013571
-4.32503e-06
-2.42425e-05
-0.00010955
-1.19987e-05
-2.77305e-05
-7.64845e-05
-1.80197e-05
-2.9782e-05
-4.15711e-05
-1.9913e-05
-2.9575e-05
-1.23441e-05
-1.55897e-05
-2.63369e-05
-3.2151e-06
-1.62897e-05
-1.29169e-05
2.1641e-05
-4.76246e-06
-3.60845e-05
4.00019e-05
-5.97018e-06
-6.32868e-05
4.68145e-05
-6.15895e-06
-9.20721e-05
4.94867e-05
-6.18321e-06
-0.000121493
5.08709e-05
-6.40609e-06
-0.000151087
5.18869e-05
-6.89216e-06
-0.000180385
5.25832e-05
-7.70387e-06
-0.000208679
5.26432e-05
-8.94434e-06
-0.000234896
5.1558e-05
-1.07493e-05
-0.000257507
4.86719e-05
-1.32753e-05
-0.000274487
4.32292e-05
-1.66748e-05
-0.000283354
3.44642e-05
-2.10497e-05
-0.000281351
2.17972e-05
-2.63765e-05
-0.000266042
5.39358e-06
-3.24498e-05
-0.000235694
-1.40511e-05
-3.8686e-05
-0.000190575
-3.39363e-05
-4.402e-05
-0.000134301
-4.96159e-05
-4.70892e-05
-7.47935e-05
-5.49328e-05
-4.64399e-05
-2.41376e-05
-4.44802e-05
-4.04685e-05
-1.37812e-05
-2.31962e-05
-1.61122e-05
4.00858e-05
-6.15953e-06
-4.42662e-05
7.18334e-05
-7.97623e-06
-7.70327e-05
8.35449e-05
-8.35146e-06
-0.000111504
8.80163e-05
-8.39898e-06
-0.000146569
9.01593e-05
-8.61538e-06
-0.000181678
9.15429e-05
-9.10875e-06
-0.000216286
9.22894e-05
-9.97238e-06
-0.000249609
9.19169e-05
-1.13453e-05
-0.000280471
8.96223e-05
-1.34108e-05
-0.0003072
8.43541e-05
-1.63905e-05
-0.000327546
7.48794e-05
-2.05185e-05
-0.000338699
5.99365e-05
-2.59916e-05
-0.000337455
3.85508e-05
-3.28877e-05
-0.000320499
1.06258e-05
-4.10096e-05
-0.000285277
-2.27894e-05
-4.96106e-05
-0.000231464
-5.7531e-05
-5.72731e-05
-0.000162887
-8.57369e-05
-6.18339e-05
-8.95722e-05
-9.61872e-05
-6.07933e-05
-2.77925e-05
-7.84664e-05
-5.17668e-05
-2.50611e-05
-2.81994e-05
-1.7225e-05
6.00205e-05
-7.24166e-06
-4.73491e-05
0.000106243
-9.54869e-06
-8.23311e-05
0.000123159
-1.00766e-05
-0.000119089
0.000129508
-1.01487e-05
-0.000156517
0.000132488
-1.03687e-05
-0.000194135
0.000134403
-1.08838e-05
-0.000231503
0.000135501
-1.18207e-05
-0.000267961
0.000135183
-1.33626e-05
-0.00030247
0.000132395
-1.5759e-05
-0.000333453
0.000125707
-1.93313e-05
-0.000358636
0.00011336
-2.44592e-05
-0.000374931
9.34296e-05
-3.1525e-05
-0.000378434
6.42139e-05
-4.08054e-05
-0.000364702
2.50111e-05
-5.22688e-05
-0.000329565
-2.32682e-05
-6.51887e-05
-0.000270607
-7.58522e-05
-7.74321e-05
-0.000190756
-0.000121138
-8.53038e-05
-0.00010238
-0.000140791
-8.39948e-05
-2.88076e-05
-0.00011539
-6.94883e-05
-3.34299e-05
-3.56073e-05
-1.72797e-05
8.03613e-05
-8.0827e-06
-4.78691e-05
0.00014168
-1.08196e-05
-8.35013e-05
0.000164043
-1.1483e-05
-0.000121053
0.000172427
-1.15931e-05
-0.000159505
0.000176489
-1.1853e-05
-0.000198544
0.000179367
-1.24525e-05
-0.000237956
0.000181518
-1.35593e-05
-0.000277365
0.000182316
-1.54164e-05
-0.000316042
0.000180538
-1.83682e-05
-0.000352697
0.000174429
-2.28872e-05
-0.000385209
0.000161694
-2.95878e-05
-0.000410299
0.000139573
-3.91925e-05
-0.000423272
0.000105222
-5.23764e-05
-0.000417973
5.65767e-05
-6.94564e-05
-0.000387866
-6.03583e-06
-9.00222e-05
-0.000326499
-7.98714e-05
-0.000110721
-0.000233692
-0.000150106
-0.000125021
-0.000123067
-0.000189039
-0.000123503
-3.04033e-05
-0.000158023
-9.89423e-05
-3.80613e-05
-4.69184e-05
-1.67971e-05
0.000100556
-8.77465e-06
-4.70727e-05
0.000177341
-1.19127e-05
-8.25634e-05
0.000205385
-1.27052e-05
-0.000120159
0.000216009
-1.28656e-05
-0.000158959
0.00022148
-1.31954e-05
-0.000198871
0.000225897
-1.39323e-05
-0.00024
0.00023005
-1.52942e-05
-0.000282379
0.000233414
-1.76e-05
-0.000325773
0.000234751
-2.13206e-05
-0.00036942
0.000232136
-2.71421e-05
-0.000411654
0.000222845
-3.60335e-05
-0.000449384
0.000203301
-4.92756e-05
-0.000477463
0.000169254
-6.83287e-05
-0.000488157
0.000116474
-9.43293e-05
-0.000471161
4.22006e-05
-0.000126805
-0.000415078
-5.47697e-05
-0.000161074
-0.000310734
-0.000164644
-0.000184696
-0.000166573
-0.000248365
-0.0001816
-3.80741e-05
-0.00022119
-0.000141969
-4.45234e-05
-6.22301e-05
-1.59948e-05
0.000120287
-9.40496e-06
-4.54838e-05
0.000212758
-1.29428e-05
-8.03152e-05
0.00024667
-1.38589e-05
-0.000117397
0.000259697
-1.40654e-05
-0.000155944
0.00026686
-1.4465e-05
-0.000196108
0.000273371
-1.53486e-05
-0.000238363
0.000280503
-1.69914e-05
-0.000283266
0.000288036
-1.98018e-05
-0.000331266
0.000294959
-2.44047e-05
-0.000382446
0.000299481
-3.17618e-05
-0.000436091
0.000298821
-4.33331e-05
-0.000490028
0.000288965
-6.12181e-05
-0.000539756
0.000264517
-8.80434e-05
-0.000577342
0.000218426
-0.000125929
-0.000589773
0.000140855
-0.000173343
-0.000558873
1.8241e-05
-0.000220463
-0.000455714
-0.000163899
-0.000244895
-0.000266532
-0.000350847
-0.000233147
-6.88748e-05
-0.000352663
-0.000184268
-7.94524e-05
-8.01662e-05
-1.4956e-05
0.00013934
-1.00378e-05
-4.33051e-05
0.000247611
-1.39945e-05
-7.70217e-05
0.000287475
-1.50204e-05
-0.000112993
0.000302914
-1.5242e-05
-0.000150518
0.000311861
-1.56699e-05
-0.000189971
0.000320799
-1.66512e-05
-0.000232206
0.00033167
-1.85191e-05
-0.000278346
0.000344786
-2.17716e-05
-0.000329675
0.000359714
-2.71957e-05
-0.00038746
0.000375314
-3.60643e-05
-0.000452596
0.000389479
-5.04129e-05
-0.000525068
0.00039876
-7.32691e-05
-0.00060325
0.000397574
-0.000108204
-0.000682488
0.000374898
-0.000156426
-0.000751391
0.000305316
-0.000209117
-0.000780984
0.000137611
-0.000240295
-0.000712327
-0.000180575
-0.00022958
-0.000475807
-0.000568841
-0.000204849
-0.000159487
-0.000642726
-0.000185402
-0.000213875
-9.84948e-05
-1.37528e-05
0.000157599
-1.07302e-05
-4.06935e-05
0.000281703
-1.51437e-05
-7.2851e-05
0.000327418
-1.62531e-05
-0.000107021
0.000345008
-1.64292e-05
-0.000142514
0.000355473
-1.67992e-05
-0.000179871
0.000366746
-1.77653e-05
-0.000220257
0.000381597
-1.97093e-05
-0.000265314
0.000401103
-2.31977e-05
-0.000317152
0.000425778
-2.91399e-05
-0.000378345
0.000455735
-3.90411e-05
-0.000451874
0.000490517
-5.53134e-05
-0.00054116
0.000528556
-8.11431e-05
-0.000650368
0.000564652
-0.000118112
-0.000783317
0.000579204
-0.000158382
-0.000936767
0.000515885
-0.00017352
-0.00107264
0.000262656
-0.000127444
-0.00107497
-0.000279407
-4.72345e-05
-0.000801113
-0.000950716
-4.68996e-05
-0.000341378
-0.00114207
-0.000120082
-0.000559133
-0.000111899
-1.25225e-05
0.000175133
-1.15538e-05
-3.79364e-05
0.000315033
-1.64854e-05
-6.81466e-05
0.000366216
-1.76419e-05
-9.97627e-05
0.000385297
-1.76854e-05
-0.000132021
0.000396513
-1.78699e-05
-0.00016552
0.000409392
-1.86494e-05
-0.000201593
0.000427644
-2.04326e-05
-0.000242193
0.000453259
-2.38037e-05
-0.000290009
0.000487952
-2.96818e-05
-0.000348675
0.000533552
-3.95328e-05
-0.00042316
0.000591935
-5.53662e-05
-0.00052071
0.000663746
-7.80544e-05
-0.00065333
0.000742285
-0.00010036
-0.000837825
0.000791074
-9.43106e-05
-0.00108021
0.000709722
-1.34007e-05
-0.00132081
0.000323443
0.000148306
-0.00138858
-0.000474907
0.000273414
-0.00111161
-0.00141099
0.000187771
-0.000573281
-0.00175339
-4.39783e-06
-0.00118453
-8.65047e-05
-1.15242e-05
0.000192301
-1.26186e-05
-3.55649e-05
0.000347941
-1.81512e-05
-6.35987e-05
0.000403807
-1.93007e-05
-9.19443e-05
0.000423187
-1.90996e-05
-0.000119682
0.000433751
-1.89408e-05
-0.000147347
0.000446726
-1.93248e-05
-0.000176211
0.000466746
-2.06532e-05
-0.000208169
0.000496671
-2.34475e-05
-0.000245903
0.000539362
-2.84431e-05
-0.000293231
0.000598252
-3.65577e-05
-0.000355926
0.000677183
-4.80215e-05
-0.000443738
0.000777407
-5.79712e-05
-0.0005753
0.000887225
-4.54695e-05
-0.000778514
0.000949824
3.52138e-05
-0.00106753
0.000825348
0.000232522
-0.00136985
0.000304258
0.000496006
-0.00149934
-0.000690014
0.000624345
-0.00126342
-0.00181585
0.000416132
-0.000723196
-0.00234149
0.000144347
-0.0019772
-5.09195e-07
-1.12524e-05
0.000210031
-1.41261e-05
-3.45504e-05
0.000381368
-2.04215e-05
-6.04463e-05
0.000440526
-2.15395e-05
-8.49204e-05
0.000458322
-2.09803e-05
-0.000106926
0.000466151
-2.02968e-05
-0.000126862
0.000476927
-2.00538e-05
-0.000145706
0.000496035
-2.0627e-05
-0.000164863
0.00052692
-2.24078e-05
-0.000186301
0.000573166
-2.57716e-05
-0.000212932
0.000639068
-3.064e-05
-0.000249864
0.000729217
-3.45175e-05
-0.00030706
0.000843899
-2.66397e-05
-0.000407771
0.00096589
2.53641e-05
-0.00059273
0.001024
0.000180331
-0.000891627
0.000861276
0.000471534
-0.0012399
0.000259738
0.000800246
-0.00142542
-0.000825237
0.000878757
-0.00123605
-0.00204653
0.000532257
-0.000745094
-0.00277193
0.00021009
-0.00273894
4.85568e-05
-1.23087e-05
0.000229948
-1.63276e-05
-3.60855e-05
0.000416937
-2.34604e-05
-6.03564e-05
0.000477246
-2.43929e-05
-8.07653e-05
0.000490816
-2.3301e-05
-9.6185e-05
0.000493107
-2.19458e-05
-0.000106899
0.000498691
-2.09387e-05
-0.000113534
0.000513429
-2.05983e-05
-0.000116764
0.000540905
-2.11472e-05
-0.000117414
0.000584779
-2.2556e-05
-0.000116867
0.000649216
-2.37113e-05
-0.000118537
0.000738638
-2.01947e-05
-0.000131579
0.000851912
2.49469e-06
-0.000183725
0.000969445
8.51477e-05
-0.000327338
0.00101965
0.000285873
-0.000616088
0.000853769
0.000628321
-0.000983378
0.0002475
0.000964156
-0.00119058
-0.000831906
0.000950794
-0.00108389
-0.00207617
0.000485409
-0.000705923
-0.00301542
0.000156045
-0.00339086
-1.38598e-05
-1.66439e-05
0.000255802
-1.99919e-05
-4.32951e-05
0.000457777
-2.85592e-05
-6.64105e-05
0.000515148
-2.94473e-05
-8.19907e-05
0.000520563
-2.77114e-05
-8.98345e-05
0.000514218
-2.54005e-05
-9.04213e-05
0.000511629
-2.33064e-05
-8.38885e-05
0.000518475
-2.17839e-05
-7.0034e-05
0.000537957
-2.09898e-05
-4.84372e-05
0.00057332
-2.06632e-05
-1.8655e-05
0.000627633
-1.89876e-05
1.81295e-05
0.000704714
-1.08397e-05
5.38994e-05
0.000802446
1.97182e-05
6.27484e-05
0.000902643
0.000110885
-1.26842e-05
0.000945415
0.000317909
-0.000233754
0.000803156
0.000657185
-0.000548858
0.000255303
0.000943897
-0.000765484
-0.000745715
0.000849434
-0.000814636
-0.00194544
0.000369587
-0.000596363
-0.00309674
8.15727e-05
-0.00392364
-0.000115797
-2.27508e-05
0.000289851
-2.52572e-05
-5.4611e-05
0.000506997
-3.48386e-05
-7.90503e-05
0.000557527
-3.5328e-05
-9.22652e-05
0.000550802
-3.25846e-05
-9.35374e-05
0.00053122
-2.93255e-05
-8.39226e-05
0.000516375
-2.62896e-05
-6.38638e-05
0.000511533
-2.38413e-05
-3.29042e-05
0.000518874
-2.21153e-05
1.04269e-05
0.000540418
-2.081e-05
6.70105e-05
0.000578393
-1.78945e-05
0.000138692
0.000634451
-8.92185e-06
0.000222395
0.00070487
1.9406e-05
0.000299229
0.000775288
9.81605e-05
0.00032642
0.000797668
0.000269603
0.000230474
0.000687256
0.000554556
-3.67563e-06
0.000257484
0.000780523
-0.000238871
-0.000601025
0.000670668
-0.000461964
-0.00167332
0.000295563
-0.000417703
-0.00301975
4.10298e-05
-0.0043054
-0.000208432
-5.64146e-05
0.000359857
-3.52787e-05
-9.51923e-05
0.000566768
-4.77006e-05
-0.000113432
0.000597474
-4.78102e-05
-0.000114716
0.000572779
-4.40683e-05
-0.000103888
0.000539584
-3.91404e-05
-8.26552e-05
0.000512637
-3.43319e-05
-5.0545e-05
0.000495244
-3.03299e-05
-5.66471e-06
0.000488163
-2.74146e-05
5.40212e-05
0.000492899
-2.53696e-05
0.000131847
0.00050978
-2.29632e-05
0.000229838
0.000540247
-1.6142e-05
0.000348045
0.000578976
3.88266e-06
0.000473129
0.000616507
5.8679e-05
0.000577022
0.00061449
0.000173893
0.000597318
0.000528368
0.000373132
0.000472224
0.00022412
0.00054879
0.000221181
-0.000414899
0.000476223
-0.000128536
-0.00128557
0.000244966
-0.000219918
-0.00282731
2.06223e-05
-0.0045333
-0.000284645
-3.84293e-05
0.000414838
-5.37885e-05
-0.00010848
0.000665386
-6.70227e-05
-0.000145788
0.000663303
-6.43928e-05
-0.000153249
0.000607331
-5.65861e-05
-0.000139195
0.000550464
-4.98545e-05
-0.000108717
0.000504826
-4.3652e-05
-6.3994e-05
0.000470977
-3.86984e-05
-4.32352e-06
0.000446894
-3.52546e-05
7.14705e-05
0.000433327
-3.34855e-05
0.000166994
0.000427951
-3.27664e-05
0.000283549
0.000433195
-3.01496e-05
0.000421931
0.000441887
-1.96332e-05
0.000570889
0.000453454
1.11009e-05
0.000709249
0.000435494
7.57191e-05
0.000793318
0.000371325
0.000192514
0.00074313
0.000183056
0.00032393
0.000538793
-0.00024268
0.000290063
0.000199429
-0.000896476
0.000189133
5.04207e-05
-0.00260203
8.91457e-06
-0.00454938
-0.000349858
-0.000188218
0.000618002
-6.08821e-05
-0.000206145
0.000709602
-8.63341e-05
-0.000209974
0.000697594
-9.17999e-05
-0.00020435
0.000631918
-8.62253e-05
-0.0001728
0.000548873
-7.58493e-05
-0.000121638
0.000482166
-6.53449e-05
-5.45325e-05
0.000430498
-5.71174e-05
2.86856e-05
0.000388397
-5.17467e-05
0.000126813
0.0003583
-4.96969e-05
0.000242738
0.000333419
-5.0588e-05
0.000374719
0.000320291
-5.22419e-05
0.00052405
0.000307285
-5.0947e-05
0.000682158
0.000302946
-3.97779e-05
0.000828381
0.000284422
-8.8985e-06
0.000946171
0.000236902
4.35914e-05
0.000970779
0.000131231
0.000132501
0.000918191
-0.000178886
0.000114319
0.000759191
-0.000666559
0.000107067
0.000496893
-0.00229767
-5.85537e-06
-0.00419788
-0.000402899
-0.000664902
0.00128232
-0.00017197
-0.000619457
0.000700839
-0.000170526
-0.00046972
0.000586893
-0.0001474
-0.000263269
0.000469661
-0.00012767
-4.81146e-05
0.0003784
-0.000112945
0.000165746
0.000311774
-9.97524e-05
0.000372628
0.00026553
-8.99999e-05
0.000572455
0.000228563
-8.34218e-05
0.00076643
0.000202851
-8.01539e-05
0.000956996
0.000179798
-8.01942e-05
0.00114766
0.000165741
-8.29474e-05
0.00133785
0.000151011
-8.60378e-05
0.00153392
0.000139978
-8.83658e-05
0.00172368
0.000124026
-7.966e-05
0.00190415
8.5272e-05
-6.59072e-05
0.00203576
2.82093e-05
-2.31177e-05
0.00207932
-0.000185777
2.35752e-06
0.00202816
-0.000543373
1.4476e-05
0.00138717
-0.00163712
-3.04445e-05
-0.0030373
-0.000453517
0.00126896
-0.000136419
0.00196832
-0.000161688
0.00255956
-0.000168773
0.00304187
-0.000164225
0.00344022
-0.000154927
0.00377591
-0.000144871
0.00406817
-0.000134405
0.00432515
-0.000126521
0.00455747
-0.000118092
0.0047675
-0.000113891
0.00496344
-0.000107906
0.00514566
-0.000107891
0.00531607
-0.000101879
0.00547395
-0.000104339
0.00559203
-9.15065e-05
0.00565944
-9.6088e-05
0.00551396
-7.30257e-05
0.00501271
-0.000106339
0.00336143
-0.000112498
-0.000510592
-6.38787e-06
7.11249e-06
-3.13606e-06
-2.04916e-05
1.55041e-05
-4.02452e-06
-3.74832e-05
1.86281e-05
-4.16286e-06
-5.54694e-05
1.97654e-05
-4.2602e-06
-7.38644e-05
2.03134e-05
-4.55424e-06
-9.25065e-05
2.07459e-05
-5.09701e-06
-0.00011122
2.10782e-05
-5.941e-06
-0.000129642
2.11443e-05
-7.16755e-06
-0.000147138
2.06882e-05
-8.88125e-06
-0.000162723
1.93783e-05
-1.11973e-05
-0.000175019
1.68237e-05
-1.42186e-05
-0.000182252
1.26188e-05