/*--------------------------------*- C++ -*----------------------------------*\
  =========                 |
  \\      /  F ield         | OpenFOAM: The Open Source CFD Toolbox
   \\    /   O peration     | Website:  https://openfoam.org
    \\  /    A nd           | Version:  10
     \\/     M anipulation  |
\*---------------------------------------------------------------------------*/
FoamFile
{
    format      ascii;
    class       volScalarField;
    location    "2.925";
    object      p;
}
// * * * * * * * * * * * * * * * * * * * * * * * * * * * * * * * * * * * * * //

dimensions      [0 2 -2 0 0 0 0];

internalField   nonuniform List<scalar> 
475
(
-0.0418421
-0.0659061
-0.0973247
-0.122139
-0.146455
-0.0661096
-0.0799089
-0.0956802
-0.114028
-0.129978
-0.0637077
-0.0733929
-0.0880557
-0.1048
-0.120351
-0.0626418
-0.0732583
-0.0880263
-0.102597
-0.114489
-0.0326095
-0.0593589
-0.0827629
-0.0993125
-0.110511
-0.162256
-0.154583
-0.157177
-0.182275
-0.223734
-0.26049
-0.278953
-0.267949
-0.227097
-0.170434
-0.108645
-0.0547046
-0.0189384
0.00339686
0.0171372
0.0235815
0.0286678
0.035
0.0411365
0.0451861
0.0470458
0.0472493
0.0463943
0.0449316
0.0431412
0.0411792
0.0391289
0.0370346
0.0349196
0.0327962
0.0306703
0.028545
0.0264216
0.0243005
0.0221816
0.0200647
0.0179495
0.0158355
0.0137225
0.0116103
0.00949855
0.00738737
0.00527644
0.00316569
0.0010552
-0.145306
-0.154805
-0.162271
-0.173507
-0.189407
-0.204227
-0.210021
-0.196622
-0.167447
-0.134256
-0.0971714
-0.0611509
-0.0348126
-0.0142226
0.00336055
0.0148049
0.022706
0.0306054
0.0374428
0.0422051
0.0448412
0.045815
0.0455873
0.0445589
0.0430374
0.0412264
0.0392506
0.037184
0.0350702
0.0329343
0.0307901
0.0286451
0.0265028
0.0243649
0.0222317
0.020103
0.0179784
0.015857
0.0137383
0.0116216
0.00950653
0.00739285
0.00527996
0.00316763
0.00105579
-0.133118
-0.141267
-0.145493
-0.149114
-0.15254
-0.155543
-0.155153
-0.14423
-0.130127
-0.119405
-0.103546
-0.0817778
-0.0622758
-0.0432822
-0.0229557
-0.0035353
0.0132218
0.0267516
0.0360169
0.0414607
0.0443632
0.0455744
0.0455738
0.0447212
0.0433025
0.0415296
0.0395482
0.0374522
0.035299
0.0331219
0.0309396
0.0287615
0.0265919
0.0244321
0.022282
0.0201403
0.0180057
0.0158768
0.0137525
0.0116318
0.00951363
0.00739743
0.00528276
0.00316911
0.00105622
-0.124897
-0.130757
-0.132384
-0.13348
-0.130343
-0.124965
-0.118243
-0.10569
-0.101115
-0.108569
-0.107078
-0.0931124
-0.0778922
-0.061035
-0.0364977
-0.0109996
0.00954864
0.0236859
0.0330506
0.0392552
0.0430468
0.0449094
0.045314
0.0446917
0.0433915
0.0416699
0.0397014
0.0375981
0.035428
0.033231
0.031029
0.0288332
0.0266484
0.0244758
0.0223151
0.0201652
0.0180241
0.0158902
0.013762
0.0116383
0.00951812
0.00740039
0.00528457
0.00317005
0.00105644
-0.119116
-0.123976
-0.125173
-0.123498
-0.117803
-0.108644
-0.0954541
-0.084314
-0.0845453
-0.0964273
-0.103972
-0.0983464
-0.0828118
-0.0616621
-0.0364248
-0.0115103
0.00940172
0.0246965
0.0348031
0.0410017
0.0444317
0.0459161
0.0460346
0.0452163
0.0437825
0.0419663
0.0399275
0.0377702
0.0355582
0.0333286
0.0311015
0.0288866
0.0266873
0.0245041
0.0223356
0.0201793
0.0180339
0.015897
0.0137668
0.0116416
0.00952036
0.00740185
0.00528547
0.00317051
0.00105653
-0.184169
-0.186967
-0.197103
-0.219812
-0.257025
-0.293165
-0.303302
-0.275632
-0.209294
-0.114499
-0.0124756
0.0725009
0.124887
0.143547
0.139262
0.124296
0.106626
0.0911914
0.0781533
0.0677777
0.0597853
0.0537315
0.0491477
0.0456019
0.0427411
0.040304
0.0381119
0.0360492
0.0340455
0.0320605
0.0300726
0.0280716
0.0260539
0.0240193
0.0219694
0.0199066
0.0178327
0.0157502
0.013661
0.0115665
0.00946821
0.00736698
0.0052637
0.003159
0.00105329
-0.174228
-0.178157
-0.193834
-0.226679
-0.27497
-0.321207
-0.340133
-0.319465
-0.25587
-0.159146
-0.049254
0.046327
0.106989
0.132545
0.132249
0.118866
0.102421
0.0871024
0.0751269
0.0659194
0.0588314
0.0533803
0.0491473
0.0457708
0.0429669
0.0405276
0.0383073
0.0362088
0.0341705
0.0321558
0.0301439
0.0281243
0.0260925
0.0240473
0.0219896
0.0199205
0.0178425
0.0157571
0.0136658
0.0115699
0.00947044
0.00736845
0.00526457
0.00315943
0.00105339
-0.184649
-0.180136
-0.199444
-0.240787
-0.299711
-0.354593
-0.385982
-0.369205
-0.306663
-0.210555
-0.0970856
0.0044131
0.0735843
0.105286
0.110279
0.101352
0.0885156
0.0771564
0.0686454
0.0620685
0.0567439
0.0524116
0.0488383
0.0458081
0.0431583
0.040767
0.0385418
0.0364158
0.0343433
0.0322951
0.0302536
0.028209
0.0261569
0.0240957
0.0220255
0.0199471
0.0178619
0.015771
0.0136756
0.0115766
0.00947495
0.00737146
0.00526639
0.0031603
0.00105358
-0.173484
-0.170456
-0.188043
-0.227356
-0.283685
-0.338149
-0.370585
-0.365037
-0.31158
-0.224475
-0.123126
-0.0300554
0.0359798
0.0676202
0.075301
0.0714384
0.0654429
0.0617246
0.0592092
0.0566744
0.0538377
0.0509722
0.0482465
0.0456889
0.043283
0.0409985
0.0388022
0.036664
0.0345608
0.0324759
0.0303987
0.0283226
0.0262442
0.0241618
0.022075
0.0199838
0.0178889
0.0157906
0.0136897
0.0115867
0.00948197
0.00737602
0.00526919
0.00316174
0.00105399
-0.205143
-0.161479
-0.176918
-0.208292
-0.257656
-0.306609
-0.335213
-0.329428
-0.283099
-0.208741
-0.12425
-0.0483942
0.00402707
0.0311861
0.0411465
0.041903
0.0420717
0.0447451
0.0481495
0.0499437
0.0500281
0.0489605
0.047264
0.0452802
0.0431885
0.0410674
0.0389461
0.0368323
0.034726
0.0326248
0.0305261
0.0284278
0.0263287
0.0242282
0.0221263
0.0200228
0.0179182
0.0158123
0.0137056
0.0115982
0.00949001
0.00738153
0.00527273
0.00316367
0.00105457
)
;

boundaryField
{
    inlet
    {
        type            zeroGradient;
    }
    outlet
    {
        type            fixedValue;
        value           uniform 0;
    }
    upperWall
    {
        type            zeroGradient;
    }
    lowerWall
    {
        type            zeroGradient;
    }
    frontAndBack
    {
        type            empty;
    }
}


// ************************************************************************* //
