/*--------------------------------*- C++ -*----------------------------------*\
  =========                 |
  \\      /  F ield         | OpenFOAM: The Open Source CFD Toolbox
   \\    /   O peration     | Website:  https://openfoam.org
    \\  /    A nd           | Version:  10
     \\/     M anipulation  |
\*---------------------------------------------------------------------------*/
FoamFile
{
    format      ascii;
    class       surfaceScalarField;
    location    "0.15";
    object      phi;
}
// * * * * * * * * * * * * * * * * * * * * * * * * * * * * * * * * * * * * * //

dimensions      [0 3 -1 0 0 0 0];

internalField   nonuniform List<scalar> 
760
(
-3.02914e-06
3.02914e-06
-6.0741e-06
3.04496e-06
-8.9621e-06
2.88801e-06
-1.1619e-05
2.65694e-06
-1.39796e-05
2.36051e-06
-1.59875e-05
2.00796e-06
-1.75969e-05
1.60938e-06
-1.87721e-05
1.17519e-06
-1.94878e-05
7.15737e-07
-1.9729e-05
2.41206e-07
-1.94906e-05
-2.38419e-07
-1.87774e-05
-7.13215e-07
-1.76042e-05
-1.17317e-06
-1.59961e-05
-1.60807e-06
-1.39887e-05
-2.00748e-06
-1.16277e-05
-2.36093e-06
-8.96951e-06
-2.65823e-06
-6.07947e-06
-2.89004e-06
-3.03194e-06
-3.04753e-06
-3.03194e-06
-3.20231e-06
6.23145e-06
-6.41916e-06
6.26181e-06
-9.46882e-06
5.93766e-06
-1.22726e-05
5.46077e-06
-1.47618e-05
4.84962e-06
-1.68775e-05
4.12365e-06
-1.8572e-05
3.30388e-06
-1.98085e-05
2.41178e-06
-2.05614e-05
1.46857e-06
-2.08151e-05
4.94902e-07
-2.05645e-05
-4.89044e-07
-1.98144e-05
-1.46326e-06
-1.858e-05
-2.40753e-06
-1.6887e-05
-3.30111e-06
-1.47718e-05
-4.12264e-06
-1.22823e-05
-4.85049e-06
-9.47703e-06
-5.46348e-06
-6.42512e-06
-5.94195e-06
-3.20541e-06
-6.26724e-06
-6.23735e-06
-3.36644e-06
9.59789e-06
-6.74647e-06
9.64185e-06
-9.94742e-06
9.13861e-06
-1.28862e-05
8.39952e-06
-1.54908e-05
7.45425e-06
-1.7701e-05
6.33382e-06
-1.94684e-05
5.0713e-06
-2.07566e-05
3.69996e-06
-2.15402e-05
2.25215e-06
-2.18042e-05
7.58973e-07
-2.15438e-05
-7.49501e-07
-2.07635e-05
-2.24356e-06
-1.94779e-05
-3.69306e-06
-1.77123e-05
-5.06678e-06
-1.55028e-05
-6.33215e-06
-1.28976e-05
-7.45564e-06
-9.95719e-06
-8.40389e-06
-6.75357e-06
-9.14557e-06
-3.37014e-06
-9.65068e-06
-9.60749e-06
-3.61998e-06
1.32179e-05
-7.25141e-06
1.32733e-05
-1.06846e-05
1.25718e-05
-1.38292e-05
1.15442e-05
-1.66089e-05
1.0234e-05
-1.89613e-05
8.68618e-06
-2.08377e-05
6.94771e-06
-2.22025e-05
5.06476e-06
-2.30316e-05
3.08122e-06
-2.3311e-05
1.03838e-06
-2.30361e-05
-1.02442e-06
-2.22111e-05
-3.06854e-06
-2.08496e-05
-5.05455e-06
-1.89754e-05
-6.94097e-06
-1.66239e-05
-8.68363e-06
-1.38436e-05
-1.0236e-05
-1.06969e-05
-1.15506e-05
-7.2604e-06
-1.25821e-05
-3.62468e-06
-1.32864e-05
-1.32322e-05
-3.97387e-06
1.71917e-05
-7.955e-06
1.72544e-05
-1.17092e-05
1.63259e-05
-1.51361e-05
1.49711e-05
-1.81534e-05
1.32513e-05
-2.06967e-05
1.12294e-05
-2.27178e-05
8.9689e-06
-2.41835e-05
6.53044e-06
-2.50721e-05
3.9698e-06
-2.53716e-05
1.33783e-06
-2.50779e-05
-1.31809e-06
-2.41946e-05
-3.95184e-06
-2.27332e-05
-6.51592e-06
-2.07149e-05
-8.95923e-06
-1.81729e-05
-1.12256e-05
-1.51549e-05
-1.3254e-05
-1.17254e-05
-1.49801e-05
-7.96684e-06
-1.63406e-05
-3.98006e-06
-1.72732e-05
-1.72122e-05
-4.44309e-06
2.16348e-05
-8.88571e-06
2.1697e-05
-1.30597e-05
2.04999e-05
-1.68511e-05
1.87625e-05
-2.01708e-05
1.6571e-05
-2.29531e-05
1.40117e-05
-2.51528e-05
1.11686e-05
-2.67412e-05
8.11883e-06
-2.77014e-05
4.93004e-06
-2.80249e-05
1.66135e-06
-2.77089e-05
-1.63407e-06
-2.67556e-05
-4.90515e-06
-2.5173e-05
-8.09858e-06
-2.29772e-05
-1.1155e-05
-2.01967e-05
-1.40062e-05
-1.68762e-05
-1.65745e-05
-1.30814e-05
-1.87749e-05
-8.90169e-06
-2.05203e-05
-4.45148e-06
-2.17234e-05
-2.16637e-05
-5.04966e-06
2.66845e-05
-1.00848e-05
2.67321e-05
-1.47907e-05
2.52059e-05
-1.90358e-05
2.30076e-05
-2.2724e-05
2.02592e-05
-2.57909e-05
1.70786e-05
-2.81983e-05
1.3576e-05
-2.99266e-05
9.84704e-06
-3.09672e-05
5.97072e-06
-3.13177e-05
2.0118e-06
-3.09772e-05
-1.9746e-06
-2.99457e-05
-5.93665e-06
-2.82251e-05
-9.81911e-06
-2.58232e-05
-1.35569e-05
-2.27588e-05
-1.70705e-05
-1.90699e-05
-2.02634e-05
-1.48204e-05
-2.30244e-05
-1.01067e-05
-2.5234e-05
-5.06123e-06
-2.67689e-05
-2.67249e-05
-5.82591e-06
3.25104e-05
-1.16118e-05
3.2518e-05
-1.69795e-05
3.05735e-05
-2.17749e-05
2.7803e-05
-2.58965e-05
2.43808e-05
-2.9287e-05
2.04692e-05
-3.19225e-05
1.62115e-05
-3.37993e-05
1.17239e-05
-3.49234e-05
7.0948e-06
-3.53016e-05
2.38999e-06
-3.49365e-05
-2.33973e-06
-3.38246e-05
-7.04857e-06
-3.19581e-05
-1.16856e-05
-2.93302e-05
-1.61848e-05
-2.59436e-05
-2.04572e-05
-2.18214e-05
-2.43856e-05
-1.70204e-05
-2.78254e-05
-1.16424e-05
-3.06121e-05
-5.84211e-06
-3.25691e-05
-3.2567e-05
-6.82029e-06
3.93307e-05
-1.35542e-05
3.92519e-05
-1.97356e-05
3.67549e-05
-2.51838e-05
3.32512e-05
-2.97974e-05
2.89943e-05
-3.3537e-05
2.42088e-05
-3.6405e-05
1.90795e-05
-3.84251e-05
1.3744e-05
-3.96261e-05
8.29577e-06
-4.00296e-05
2.79344e-06
-3.96432e-05
-2.72612e-06
-3.84583e-05
-8.23347e-06
-3.64521e-05
-1.36917e-05
-3.35948e-05
-1.90421e-05
-2.98612e-05
-2.41908e-05
-2.52477e-05
-2.89991e-05
-1.97927e-05
-3.32804e-05
-1.35973e-05
-3.68075e-05
-6.84331e-06
-3.93231e-05
-3.94104e-05
-8.10764e-06
4.74383e-05
-1.60428e-05
4.71871e-05
-2.32171e-05
4.39292e-05
-2.94217e-05
3.94559e-05
-3.4569e-05
3.41416e-05
-3.86574e-05
2.82972e-05
-4.17354e-05
2.21576e-05
-4.3871e-05
1.58796e-05
-4.51275e-05
9.55227e-06
-4.55486e-05
3.21457e-06
-4.51495e-05
-3.12518e-06
-4.39141e-05
-9.4689e-06
-4.17974e-05
-1.58084e-05
-3.87344e-05
-2.21051e-05
-3.46555e-05
-2.82697e-05
-2.95099e-05
-3.41447e-05
-2.32973e-05
-3.94931e-05
-1.61043e-05
-4.40004e-05
-8.14097e-06
-4.72864e-05
-4.75513e-05
-9.80859e-06
5.72469e-05
-1.92793e-05
5.66578e-05
-2.76554e-05
5.23054e-05
-3.47091e-05
4.65095e-05
-4.0396e-05
3.98285e-05
-4.47874e-05
3.26885e-05
-4.80093e-05
2.53796e-05
-5.01975e-05
1.80677e-05
-5.1466e-05
1.08208e-05
-5.18897e-05
3.63824e-06
-5.14941e-05
-3.52077e-06
-5.02528e-05
-1.07102e-05
-4.80899e-05
-1.79713e-05
-4.48894e-05
-2.53057e-05
-4.05129e-05
-3.26461e-05
-3.48311e-05
-3.98265e-05
-2.77691e-05
-4.65551e-05
-1.93686e-05
-5.24009e-05
-9.85801e-06
-5.6797e-05
-5.74093e-05
-1.21276e-05
6.93746e-05
-2.35837e-05
6.81138e-05
-3.33956e-05
6.21173e-05
-4.13526e-05
5.44665e-05
-4.75154e-05
4.59914e-05
-5.20876e-05
3.72606e-05
-5.5319e-05
2.8611e-05
-5.74457e-05
2.01944e-05
-5.86519e-05
1.20271e-05
-5.90527e-05
4.03903e-06
-5.86869e-05
-3.88664e-06
-5.75152e-05
-1.18818e-05
-5.5422e-05
-2.00645e-05
-5.2221e-05
-2.85067e-05
-4.76726e-05
-3.71945e-05
-4.15217e-05
-4.59775e-05
-3.35584e-05
-5.45184e-05
-2.3716e-05
-6.22433e-05
-1.22032e-05
-6.83098e-05
-6.96126e-05
-1.54319e-05
8.48065e-05
-2.94793e-05
8.21612e-05
-4.09582e-05
7.35962e-05
-4.97782e-05
6.32865e-05
-5.62248e-05
5.2438e-05
-6.07294e-05
4.17653e-05
-6.37358e-05
3.16174e-05
-6.5618e-05
2.20765e-05
-6.66476e-05
1.30566e-05
-6.69868e-05
4.37825e-06
-6.66897e-05
-4.18378e-06
-6.57029e-05
-1.28686e-05
-6.38643e-05
-2.19031e-05
-6.09008e-05
-3.14703e-05
-5.6434e-05
-4.16612e-05
-5.00125e-05
-5.23989e-05
-4.11938e-05
-6.33371e-05
-2.96798e-05
-7.37573e-05
-1.55524e-05
-8.24371e-05
-8.5165e-05
-2.04201e-05
0.000105227
-3.78437e-05
9.95848e-05
-5.11345e-05
8.6887e-05
-6.05686e-05
7.27206e-05
-6.68738e-05
5.87432e-05
-7.08719e-05
4.57634e-05
-7.32823e-05
3.40279e-05
-7.46493e-05
2.34435e-05
-7.53401e-05
1.37474e-05
-7.55637e-05
4.60185e-06
-7.53886e-05
-4.3589e-06
-7.47489e-05
-1.35083e-05
-7.34372e-05
-2.32147e-05
-7.10862e-05
-3.38214e-05
-6.71476e-05
-4.55999e-05
-6.08918e-05
-5.86547e-05
-5.14787e-05
-7.27502e-05
-3.81555e-05
-8.70805e-05
-2.06228e-05
-9.99699e-05
-0.000105788
-2.84933e-05
0.00013372
-5.0179e-05
0.000121271
-6.51201e-05
0.000101828
-7.44763e-05
8.20768e-05
-7.98315e-05
6.40983e-05
-8.2612e-05
4.85439e-05
-8.38836e-05
3.52995e-05
-8.43671e-05
2.39271e-05
-8.45087e-05
1.38889e-05
-8.45478e-05
4.64095e-06
-8.45611e-05
-4.34561e-06
-8.44772e-05
-1.35922e-05
-8.40611e-05
-2.36308e-05
-8.28695e-05
-3.5013e-05
-8.018e-05
-4.82894e-05
-7.49163e-05
-6.39183e-05
-6.56259e-05
-8.20406e-05
-5.06773e-05
-0.000102029
-2.88554e-05
-0.000121792
-0.000134643
-4.25921e-05
0.000176312
-6.90914e-05
0.00014777
-8.46488e-05
0.000117385
-9.23809e-05
8.9809e-05
-9.53873e-05
6.71047e-05
-9.58867e-05
4.90433e-05
-9.52932e-05
3.4706e-05
-9.44422e-05
2.3076e-05
-9.37937e-05
1.32404e-05
-9.35716e-05
4.41884e-06
-9.38449e-05
-4.07227e-06
-9.45531e-05
-1.2884e-05
-9.5481e-05
-2.27029e-05
-9.61771e-05
-3.43169e-05
-9.58111e-05
-4.86554e-05
-9.29641e-05
-6.67653e-05
-8.53883e-05
-8.96165e-05
-6.99067e-05
-0.000117511
-4.32761e-05
-0.000148422
-0.000177919
-6.89692e-05
0.000245281
-9.90494e-05
0.00017785
-0.000111969
0.000130305
-0.00011508
9.29194e-05
-0.000113522
6.55471e-05
-0.000110304
4.58249e-05
-0.000106996
3.13982e-05
-0.000104344
2.04242e-05
-0.000102675
1.15711e-05
-0.000102119
3.8637e-06
-0.000102716
-3.47537e-06
-0.000104439
-1.11613e-05
-0.000107169
-1.99727e-05
-0.000110597
-3.08891e-05
-0.000113997
-4.52556e-05
-0.000115812
-6.49498e-05
-0.000113027
-9.24015e-05
-0.000100414
-0.000130124
-7.04218e-05
-0.000178414
-0.000248341
-0.000124825
0.000370106
-0.000146594
0.000199619
-0.000149242
0.000132953
-0.000142539
8.62163e-05
-0.000133304
5.63122e-05
-0.000124746
3.72675e-05
-0.000117937
2.45888e-05
-0.000113122
1.56096e-05
-0.000110282
8.73054e-06
-0.000109349
2.93129e-06
-0.0001103
-2.52469e-06
-0.000113172
-8.28982e-06
-0.000118047
-1.50976e-05
-0.000124971
-2.39644e-05
-0.000133737
-3.649e-05
-0.000143326
-5.53613e-05
-0.000150586
-8.51412e-05
-0.000148571
-0.000132139
-0.00012719
-0.000199796
-0.000375531
-0.000190909
0.000561015
-0.000196371
0.000205081
-0.000179664
0.000116246
-0.000156055
6.26077e-05
-0.000135835
3.60915e-05
-0.000120594
2.2027e-05
-0.000109831
1.38254e-05
-0.000102753
8.53211e-06
-9.87349e-05
4.7121e-06
-9.74015e-05
1.59789e-06
-9.86296e-05
-1.29656e-06
-0.000102539
-4.38003e-06
-0.000109502
-8.13489e-06
-0.000120142
-1.33241e-05
-0.000135245
-2.13872e-05
-0.000155288
-3.5318e-05
-0.000178728
-6.17014e-05
-0.000194534
-0.000116334
-0.000187926
-0.000206403
-0.000563457
0.000561015
0.000766096
0.000882342
0.00094495
0.000981041
0.00100307
0.00101689
0.00102543
0.00103014
0.00103174
0.00103044
0.00102606
0.00101792
0.0010046
0.000983213
0.000947895
0.000886194
0.00076986
0.000563457
)
;

boundaryField
{
    movingWall
    {
        type            calculated;
        value           uniform 0;
    }
    fixedWalls
    {
        type            calculated;
        value           uniform 0;
    }
    frontAndBack
    {
        type            empty;
        value           nonuniform List<scalar> 0();
    }
}


// ************************************************************************* //
