/*--------------------------------*- C++ -*----------------------------------*\
  =========                 |
  \\      /  F ield         | OpenFOAM: The Open Source CFD Toolbox
   \\    /   O peration     | Website:  https://openfoam.org
    \\  /    A nd           | Version:  10
     \\/     M anipulation  |
\*---------------------------------------------------------------------------*/
FoamFile
{
    format      ascii;
    class       volScalarField;
    location    "2.3";
    object      p;
}
// * * * * * * * * * * * * * * * * * * * * * * * * * * * * * * * * * * * * * //

dimensions      [0 2 -2 0 0 0 0];

internalField   nonuniform List<scalar> 
400
(
4.28868e-10
-1.9556e-05
2.60491e-05
0.000109937
0.000235132
0.000400316
0.000602988
0.000839818
0.00110638
0.00139702
0.00170483
0.00202124
0.00233687
0.00264097
0.00292207
0.00316849
0.00336879
0.00351295
0.00359898
0.00359087
1.8325e-05
-2.65943e-06
4.25159e-05
0.000124142
0.000246153
0.000407644
0.000606391
0.000839319
0.00110223
0.00138963
0.00169454
0.0020095
0.00232432
0.00262835
0.00291005
0.00315756
0.00335916
0.00350467
0.00359273
0.00358355
-2.97532e-05
-5.39134e-05
-9.0667e-06
7.25057e-05
0.000195193
0.000358315
0.00055988
0.000797058
0.00106587
0.001361
0.00167579
0.0020022
0.00233011
0.00264839
0.00294484
0.00320663
0.00342091
0.00357617
0.00367057
0.0036597
-0.000121334
-0.000148687
-0.000103864
-2.15714e-05
0.000103192
0.000270115
0.000477569
0.000723094
0.00100303
0.00131231
0.00164419
0.00199089
0.0023418
0.00268504
0.00300725
0.00329408
0.00353068
0.00370334
0.00380917
0.00379801
-0.000261196
-0.000292414
-0.000247362
-0.000163582
-3.52738e-05
0.000137758
0.00035438
0.000612629
0.000909311
0.00123975
0.00159768
0.0019738
0.00235855
0.00273885
0.00309966
0.00342433
0.00369506
0.00389464
0.0040183
0.00400791
-0.00045198
-0.000488181
-0.000442881
-0.000357207
-0.000224316
-4.33313e-05
0.000185279
0.00046022
0.000778892
0.00113708
0.00152863
0.00194516
0.00237592
0.00280698
0.00322139
0.00359943
0.00391915
0.00415807
0.00430825
0.00430007
-0.000696736
-0.000739382
-0.000694171
-0.00060674
-0.000468873
-0.000278789
-3.60679e-05
0.000258881
0.000604281
0.000996622
0.00143029
0.00189749
0.00238713
0.00288436
0.00337008
0.00382077
0.0042088
0.004504
0.00469298
0.00468967
-0.000999383
-0.00105038
-0.00100608
-0.000917737
-0.000775337
-0.000575909
-0.000317864
-4.5336e-07
0.000375645
0.000807958
0.00129183
0.00182005
0.00238217
0.00296276
0.0035408
0.00408843
0.00457057
0.00494603
0.00519193
0.00519875
-0.00136457
-0.00142639
-0.00138447
-0.00129699
-0.00115158
-0.000943719
-0.000670303
-0.000329124
8.05301e-05
0.000557559
0.00109869
0.00169795
0.00234644
0.00302913
0.00372399
0.00439916
0.00501035
0.00550098
0.0058315
0.00585951
-0.0017976
-0.0018735
-0.00183626
-0.00175261
-0.0016071
-0.00139314
-0.00110573
-0.000740913
-0.000296324
0.000228603
0.000832449
0.0015113
0.00225914
0.00306316
0.0039024
0.00474268
0.00553036
0.00618824
0.00664686
0.00672036
-0.00230448
-0.00239873
-0.00236951
-0.00229419
-0.00215318
-0.00193719
-0.00163883
-0.00125213
-0.000772997
-0.000199084
0.000470392
0.00123439
0.00209155
0.00303421
0.00404638
0.00509586
0.0061226
0.00702669
0.00768329
0.00785744
-0.00289203
-0.00301018
-0.00299366
-0.00293309
-0.00280331
-0.00259131
-0.00228675
-0.00188154
-0.0013701
-0.000748596
-1.40747e-05
0.000835831
0.0018056
0.00289769
0.00410725
0.00541274
0.00675668
0.00802543
0.00899497
0.00939624
-0.00356863
-0.00371723
-0.00371981
-0.00368294
-0.00357368
-0.00337384
-0.00306935
-0.00265017
-0.00211002
-0.00144475
-0.000650182
0.000280539
0.00135345
0.00259212
0.00400899
0.00560845
0.0073567
0.00915586
0.0106361
0.0115446
-0.00434763
-0.00453324
-0.00456209
-0.00456068
-0.00448435
-0.00430693
-0.00400958
-0.00358083
-0.00301547
-0.00231153
-0.00146671
-0.000474873
0.000679797
0.00203722
0.00363643
0.00552943
0.00775116
0.0102921
0.0125809
0.0147161
-0.00522046
-0.00546593
-0.00553543
-0.00558828
-0.00556133
-0.00541789
-0.00513396
-0.00469765
-0.00410738
-0.00336732
-0.00248233
-0.00145613
-0.000292956
0.00113038
0.00281277
0.00489829
0.00757941
0.0110999
0.0146294
0.0193548
-0.00637101
-0.0065273
-0.00664265
-0.00676085
-0.00681502
-0.00673306
-0.0064739
-0.00602725
-0.00540297
-0.00461863
-0.00368953
-0.00261514
-0.00136263
4.02687e-05
0.00165054
0.00368374
0.00642937
0.0107466
0.0153992
0.0247442
-0.00729159
-0.00805035
-0.00814814
-0.00843799
-0.00854715
-0.00845165
-0.00814018
-0.00762452
-0.006928
-0.00608127
-0.0051246
-0.00409581
-0.00304482
-0.00203209
-0.000967571
0.000171736
0.00176919
0.00662567
0.011507
0.0289374
-0.0104302
-0.00847648
-0.00886042
-0.00917055
-0.00956682
-0.00973897
-0.00961512
-0.00918279
-0.00848189
-0.00757277
-0.00654154
-0.00545122
-0.00441888
-0.00351524
-0.00293689
-0.00248276
-0.00314984
0.000321691
0.00464627
0.0340693
-0.00870651
-0.0124175
-0.0125023
-0.0135646
-0.0138166
-0.0135836
-0.0129134
-0.0119597
-0.0108177
-0.00955456
-0.00829843
-0.00711008
-0.00620076
-0.00577322
-0.00637572
-0.00787689
-0.0133603
-0.00976694
-0.00356212
0.0503788
-0.0312721
-0.00851626
-0.00928171
-0.0103142
-0.0111007
-0.0115501
-0.0115939
-0.0111881
-0.0104248
-0.00935882
-0.00828864
-0.00707221
-0.00634234
-0.00552855
-0.00585178
-0.00516051
-0.00336165
0.0132669
0.0557479
0.156325
)
;

boundaryField
{
    movingWall
    {
        type            zeroGradient;
    }
    fixedWalls
    {
        type            zeroGradient;
    }
    frontAndBack
    {
        type            empty;
    }
}


// ************************************************************************* //
