/*--------------------------------*- C++ -*----------------------------------*\
  =========                 |
  \\      /  F ield         | OpenFOAM: The Open Source CFD Toolbox
   \\    /   O peration     | Website:  https://openfoam.org
    \\  /    A nd           | Version:  10
     \\/     M anipulation  |
\*---------------------------------------------------------------------------*/
FoamFile
{
    format      ascii;
    class       volVectorField;
    location    "2.3";
    object      U;
}
// * * * * * * * * * * * * * * * * * * * * * * * * * * * * * * * * * * * * * //

dimensions      [0 1 -1 0 0 0 0];

internalField   nonuniform List<vector> 
400
(
(-0.000266971 0.000264689 0)
(-0.00113589 0.000431477 0)
(-0.00226689 0.000440843 0)
(-0.00329833 0.00041757 0)
(-0.00426108 0.000382776 0)
(-0.00512653 0.000338929 0)
(-0.00587243 0.0002866 0)
(-0.00647961 0.000226324 0)
(-0.0069306 0.000158799 0)
(-0.0072101 8.49558e-05 0)
(-0.00730541 6.15808e-06 0)
(-0.00720685 -7.69423e-05 0)
(-0.00690875 -0.000161806 0)
(-0.00641069 -0.00024606 0)
(-0.00571825 -0.000326824 0)
(-0.00484391 -0.00040075 0)
(-0.00380946 -0.000463924 0)
(-0.002653 -0.000509994 0)
(-0.00135293 -0.000512258 0)
(-0.000327602 -0.000327726 0)
(-0.000448071 0.00113813 0)
(-0.00177039 0.00171953 0)
(-0.0034225 0.00174357 0)
(-0.00493578 0.00164667 0)
(-0.00634238 0.00150285 0)
(-0.0076009 0.0013225 0)
(-0.0086789 0.00110901 0)
(-0.00954912 0.00086551 0)
(-0.0101875 0.000595507 0)
(-0.0105735 0.000303034 0)
(-0.0106916 -7.43546e-06 0)
(-0.0105296 -0.0003301 0)
(-0.0100805 -0.000656996 0)
(-0.00934601 -0.000979339 0)
(-0.0083352 -0.00128652 0)
(-0.00706671 -0.00156621 0)
(-0.0055721 -0.001804 0)
(-0.00390385 -0.00197625 0)
(-0.00204202 -0.00198971 0)
(-0.00052452 -0.00134922 0)
(-0.000491725 0.00233489 0)
(-0.00193542 0.00341535 0)
(-0.00373273 0.00345 0)
(-0.00537674 0.00325363 0)
(-0.00690385 0.00296409 0)
(-0.00826988 0.00260216 0)
(-0.00944037 0.0021755 0)
(-0.0103866 0.00169101 0)
(-0.0110831 0.00115613 0)
(-0.0115088 0.000579051 0)
(-0.0116459 -3.10829e-05 0)
(-0.0114801 -0.000663108 0)
(-0.0110036 -0.00130261 0)
(-0.0102165 -0.00193257 0)
(-0.00912639 -0.00253273 0)
(-0.00775115 -0.00307936 0)
(-0.00612306 -0.00354448 0)
(-0.00429842 -0.00388222 0)
(-0.00225438 -0.00391818 0)
(-0.000581149 -0.00272891 0)
(-0.000521757 0.0035465 0)
(-0.00205851 0.00514559 0)
(-0.00397336 0.00519019 0)
(-0.00572311 0.0048922 0)
(-0.00734924 0.00445537 0)
(-0.00880568 0.00391077 0)
(-0.0100569 0.00327015 0)
(-0.0110735 0.00254401 0)
(-0.0118293 0.00174332 0)
(-0.0123014 0.00088 0)
(-0.0124716 -3.22392e-05 0)
(-0.0123225 -0.000978715 0)
(-0.0118418 -0.00193902 0)
(-0.0110263 -0.0028885 0)
(-0.00987972 -0.00379701 0)
(-0.00841644 -0.00462868 0)
(-0.0066672 -0.00534036 0)
(-0.00469169 -0.00586119 0)
(-0.00246435 -0.00592899 0)
(-0.00063525 -0.00416141 0)
(-0.000561323 0.00484268 0)
(-0.00221905 0.00699934 0)
(-0.0042866 0.00705409 0)
(-0.00617436 0.00664757 0)
(-0.00792963 0.00605445 0)
(-0.00950417 0.00531697 0)
(-0.0108615 0.00445139 0)
(-0.0119715 0.00347188 0)
(-0.0128074 0.00239268 0)
(-0.0133451 0.00122868 0)
(-0.0135643 -3.74141e-06 0)
(-0.0134441 -0.00128476 0)
(-0.0129667 -0.0025906 0)
(-0.0121228 -0.00388965 0)
(-0.0109092 -0.00514176 0)
(-0.00933396 -0.00629743 0)
(-0.00742407 -0.00729514 0)
(-0.00524263 -0.00803314 0)
(-0.00276126 -0.00814805 0)
(-0.000712802 -0.00574574 0)
(-0.000613811 0.00625191 0)
(-0.00243043 0.00901777 0)
(-0.00469749 0.00908266 0)
(-0.00676477 0.00855799 0)
(-0.0086871 0.00779627 0)
(-0.0104137 0.00685239 0)
(-0.0119073 0.0057477 0)
(-0.0131378 0.00450018 0)
(-0.0140781 0.003127 0)
(-0.0147035 0.00164515 0)
(-0.0149904 7.26271e-05 0)
(-0.0149144 -0.00156849 0)
(-0.0144514 -0.00325206 0)
(-0.0135817 -0.00494094 0)
(-0.0122916 -0.0065855 0)
(-0.0105785 -0.00812112 0)
(-0.00846114 -0.00946359 0)
(-0.00600466 -0.0104712 0)
(-0.00317619 -0.0106589 0)
(-0.000822494 -0.00754619 0)
(-0.000680736 0.00780578 0)
(-0.00269903 0.0112458 0)
(-0.00521792 0.0113197 0)
(-0.00750983 0.0106635 0)
(-0.00963951 0.00971659 0)
(-0.0115534 0.00854873 0)
(-0.0132142 0.00718734 0)
(-0.0145927 0.00565451 0)
(-0.0156629 0.0039699 0)
(-0.0164 0.00215145 0)
(-0.0167784 0.000217009 0)
(-0.0167692 -0.00181289 0)
(-0.0163396 -0.00391181 0)
(-0.0154566 -0.00604023 0)
(-0.0140903 -0.00814093 0)
(-0.01222 -0.0101333 0)
(-0.00984814 -0.011905 0)
(-0.00703734 -0.0132616 0)
(-0.00374622 -0.0135649 0)
(-0.000975368 -0.00964458 0)
(-0.000764069 0.00954122 0)
(-0.00303272 0.0137357 0)
(-0.00586219 0.0138152 0)
(-0.00842753 0.0130084 0)
(-0.0108066 0.011854 0)
(-0.0129434 0.0104394 0)
(-0.0148017 0.00879972 0)
(-0.0163553 0.00696172 0)
(-0.0175813 0.0049471 0)
(-0.0184564 0.0027731 0)
(-0.0189548 0.000454538 0)
(-0.0190433 -0.00199274 0)
(-0.0186788 -0.00454769 0)
(-0.0178109 -0.00717355 0)
(-0.0163856 -0.00981009 0)
(-0.0143528 -0.0123622 0)
(-0.0116851 -0.014684 0)
(-0.00843033 -0.0165101 0)
(-0.00453068 -0.017001 0)
(-0.00119041 -0.0121534 0)
(-0.000866884 0.0115008 0)
(-0.003443 0.0165474 0)
(-0.00665033 0.0166245 0)
(-0.00954222 0.0156402 0)
(-0.0122141 0.0142479 0)
(-0.0146082 0.0125571 0)
(-0.0166921 0.0106129 0)
(-0.0184455 0.00844778 0)
(-0.0198517 0.00608499 0)
(-0.0208927 0.00353917 0)
(-0.0215442 0.000818547 0)
(-0.0217715 -0.00207086 0)
(-0.0215204 -0.00512094 0)
(-0.0207192 -0.00830658 0)
(-0.0192803 -0.0115739 0)
(-0.0171072 -0.0148202 0)
(-0.0141191 -0.0178634 0)
(-0.0103233 -0.0203447 0)
(-0.00562953 -0.0211464 0)
(-0.0015026 -0.0152343 0)
(-0.00099416 0.0137357 0)
(-0.00394712 0.0197509 0)
(-0.00761117 0.01981 0)
(-0.0108877 0.0186092 0)
(-0.0138962 0.0169373 0)
(-0.016579 0.0149319 0)
(-0.0189113 0.0126514 0)
(-0.0208835 0.0101354 0)
(-0.0224901 0.00740863 0)
(-0.0237231 0.00448095 0)
(-0.0245649 0.00134977 0)
(-0.0249829 -0.00199557 0)
(-0.0249146 -0.00557009 0)
(-0.0242641 -0.00937421 0)
(-0.0229009 -0.0133775 0)
(-0.0206599 -0.0174866 0)
(-0.0173687 -0.0214916 0)
(-0.012939 -0.0249178 0)
(-0.0072198 -0.0262439 0)
(-0.00198089 -0.0191368 0)
(-0.00115437 0.0163104 0)
(-0.0045719 0.0234314 0)
(-0.008787 0.0234429 0)
(-0.0125116 0.0219684 0)
(-0.0158987 0.019959 0)
(-0.018895 0.0175882 0)
(-0.021489 0.0149321 0)
(-0.0236886 0.0120401 0)
(-0.0255066 0.00893796 0)
(-0.0269518 0.00562892 0)
(-0.028021 0.00209501 0)
(-0.0286916 -0.00169911 0)
(-0.0288993 -0.00580409 0)
(-0.0285268 -0.0102664 0)
(-0.0273949 -0.0151073 0)
(-0.0252449 -0.0202775 0)
(-0.0217589 -0.0255708 0)
(-0.016641 -0.0303971 0)
(-0.00963301 -0.0326255 0)
(-0.00277077 -0.0242754 0)
(-0.00136273 0.0193113 0)
(-0.00536032 0.0276945 0)
(-0.010241 0.0276056 0)
(-0.0144822 0.0257724 0)
(-0.0182845 0.0233442 0)
(-0.0216069 0.02054 0)
(-0.02446 0.0174594 0)
(-0.0268783 0.014164 0)
(-0.0289018 0.0106818 0)
(-0.0305666 0.00700722 0)
(-0.0318934 0.00310317 0)
(-0.0328824 -0.00109791 0)
(-0.0334823 -0.00569669 0)
(-0.0335677 -0.0108113 0)
(-0.0329152 -0.0165576 0)
(-0.0311561 -0.0229936 0)
(-0.0277682 -0.0299948 0)
(-0.0220371 -0.0369229 0)
(-0.0135267 -0.0407365 0)
(-0.00419851 -0.0313915 0)
(-0.00164884 0.0228662 0)
(-0.00638449 0.0326817 0)
(-0.0120691 0.0323961 0)
(-0.0168979 0.0300752 0)
(-0.0211401 0.0271132 0)
(-0.0247811 0.0237838 0)
(-0.0278658 0.0202165 0)
(-0.0304671 0.0164878 0)
(-0.0326641 0.0126284 0)
(-0.0345312 0.0086239 0)
(-0.0361269 0.0044144 0)
(-0.0374922 -0.000105994 0)
(-0.0386136 -0.00508612 0)
(-0.0393889 -0.0107568 0)
(-0.0395821 -0.0173817 0)
(-0.0387297 -0.0252276 0)
(-0.0360764 -0.034418 0)
(-0.0301572 -0.0444763 0)
(-0.0202592 -0.0510648 0)
(-0.00702874 -0.0419892 0)
(-0.00207264 0.0270726 0)
(-0.00777642 0.0385258 0)
(-0.0144241 0.0379079 0)
(-0.019904 0.0349193 0)
(-0.0245855 0.0312659 0)
(-0.0285052 0.0272889 0)
(-0.0317571 0.0231556 0)
(-0.0344671 0.0189591 0)
(-0.0367663 0.0147337 0)
(-0.0387812 0.010457 0)
(-0.0406239 0.00604962 0)
(-0.0423835 0.00137404 0)
(-0.0441339 -0.00377545 0)
(-0.0458647 -0.00976642 0)
(-0.0473933 -0.0170449 0)
(-0.0482646 -0.0262404 0)
(-0.0475722 -0.038017 0)
(-0.0426615 -0.0525564 0)
(-0.0326556 -0.0638437 0)
(-0.0131644 -0.059116 0)
(-0.0026773 0.0328365 0)
(-0.00962819 0.0456433 0)
(-0.0174846 0.0443059 0)
(-0.0236917 0.040315 0)
(-0.0287807 0.0357566 0)
(-0.0328932 0.0309829 0)
(-0.0361958 0.0261882 0)
(-0.0388875 0.0214828 0)
(-0.041163 0.0169068 0)
(-0.0432099 0.0124314 0)
(-0.045202 0.00795976 0)
(-0.0473061 0.00331105 0)
(-0.0497388 -0.00179143 0)
(-0.0526383 -0.00770776 0)
(-0.0560369 -0.0151015 0)
(-0.0597688 -0.0251032 0)
(-0.063103 -0.0391689 0)
(-0.0617249 -0.0594478 0)
(-0.055284 -0.0781585 0)
(-0.0258222 -0.0882884 0)
(-0.00441167 0.0377661 0)
(-0.0133533 0.0540883 0)
(-0.0218395 0.0518245 0)
(-0.0286181 0.0466482 0)
(-0.0339244 0.0408107 0)
(-0.0380663 0.034888 0)
(-0.0412353 0.0292137 0)
(-0.0437084 0.0239129 0)
(-0.0457563 0.0190045 0)
(-0.0476433 0.0144405 0)
(-0.0496336 0.0101388 0)
(-0.0519941 0.00596556 0)
(-0.0549742 0.00170983 0)
(-0.0589413 -0.00303364 0)
(-0.064466 -0.00913891 0)
(-0.0719232 -0.0183379 0)
(-0.0817487 -0.0331953 0)
(-0.0870368 -0.0615293 0)
(-0.0896264 -0.0937289 0)
(-0.0426343 -0.141622 0)
(-0.003741 0.0532928 0)
(-0.0144217 0.0613896 0)
(-0.0271139 0.0577022 0)
(-0.0348098 0.0504143 0)
(-0.0404463 0.0436439 0)
(-0.0442683 0.037147 0)
(-0.0467671 0.0310948 0)
(-0.0484831 0.0255445 0)
(-0.0497998 0.0205206 0)
(-0.0510139 0.0159982 0)
(-0.052384 0.0119277 0)
(-0.0541941 0.00818104 0)
(-0.0569008 0.00463143 0)
(-0.0612091 0.000833067 0)
(-0.0682774 -0.00370023 0)
(-0.0789827 -0.0113052 0)
(-0.0975073 -0.0247917 0)
(-0.108103 -0.0609962 0)
(-0.120968 -0.117529 0)
(-0.0403873 -0.229971 0)
(-0.0124925 0.0489603 0)
(-0.0318759 0.0845647 0)
(-0.0350853 0.0754061 0)
(-0.0432034 0.0652828 0)
(-0.0459716 0.0544388 0)
(-0.0472383 0.0442919 0)
(-0.047255 0.0355867 0)
(-0.0466869 0.0283642 0)
(-0.045935 0.0224756 0)
(-0.0453146 0.0176933 0)
(-0.0451582 0.0139315 0)
(-0.0457052 0.0110643 0)
(-0.0474779 0.00933136 0)
(-0.050643 0.00883487 0)
(-0.0569512 0.0103189 0)
(-0.0641123 0.0100151 0)
(-0.0811974 0.00604908 0)
(-0.0775074 -0.0450166 0)
(-0.101665 -0.138955 0)
(0.00525414 -0.320212 0)
(-0.0709821 0.114042 0)
(-0.054996 0.0696894 0)
(-0.0536771 0.0626169 0)
(-0.0371238 0.051344 0)
(-0.0224274 0.0407118 0)
(-0.00864708 0.0323948 0)
(0.0036055 0.025975 0)
(0.0140106 0.0208214 0)
(0.022531 0.0166684 0)
(0.0294806 0.0133142 0)
(0.0348416 0.0109099 0)
(0.0395107 0.00899665 0)
(0.0426861 0.00848467 0)
(0.0475166 0.00789847 0)
(0.0484805 0.00934368 0)
(0.0626831 0.00553286 0)
(0.0505994 -0.00658962 0)
(0.0917721 -0.0654575 0)
(0.0265104 -0.203981 0)
(0.0852135 -0.364175 0)
(0.126505 0.14312 0)
(0.164905 0.0879066 0)
(0.245971 0.0632904 0)
(0.300321 0.0467431 0)
(0.340105 0.0344508 0)
(0.370668 0.0251115 0)
(0.394427 0.0182994 0)
(0.412947 0.0134634 0)
(0.426917 0.0101211 0)
(0.438652 0.00763632 0)
(0.446151 0.0059868 0)
(0.456076 0.00469472 0)
(0.456708 0.00345774 0)
(0.471348 0.00365355 0)
(0.459999 0.000702994 0)
(0.487051 0.00314006 0)
(0.450126 -0.00831562 0)
(0.473275 -0.0164503 0)
(0.343996 -0.053576 0)
(0.255096 -0.139745 0)
)
;

boundaryField
{
    movingWall
    {
        type            fixedValue;
        value           uniform (1 0 0);
    }
    fixedWalls
    {
        type            noSlip;
    }
    frontAndBack
    {
        type            empty;
    }
}


// ************************************************************************* //
