/*--------------------------------*- C++ -*----------------------------------*\
  =========                 |
  \\      /  F ield         | OpenFOAM: The Open Source CFD Toolbox
   \\    /   O peration     | Website:  https://openfoam.org
    \\  /    A nd           | Version:  10
     \\/     M anipulation  |
\*---------------------------------------------------------------------------*/
FoamFile
{
    format      ascii;
    class       volScalarField;
    location    "5.625";
    object      p;
}
// * * * * * * * * * * * * * * * * * * * * * * * * * * * * * * * * * * * * * //

dimensions      [0 2 -2 0 0 0 0];

internalField   nonuniform List<scalar> 
400
(
1.83867e-09
-2.13852e-05
1.81366e-05
9.58626e-05
0.000217996
0.000385728
0.00060063
0.000864305
0.00117755
0.00153963
0.00194737
0.00239416
0.00286892
0.0033552
0.00383068
0.00426785
0.00463539
0.00490188
0.00505943
0.0050478
2.23785e-05
2.66129e-07
4.34463e-05
0.000120773
0.000240024
0.000403126
0.000612142
0.000869065
0.00117507
0.00152987
0.00193084
0.00237185
0.00284233
0.00332697
0.00380361
0.00424453
0.00461749
0.00489029
0.00505655
0.00504237
-2.231e-05
-5.07719e-05
-9.2209e-06
6.48887e-05
0.00018016
0.000338797
0.000543394
0.000796727
0.00110094
0.0014569
0.00186323
0.00231537
0.00280455
0.00331498
0.00382385
0.00430093
0.00470937
0.00501008
0.00519428
0.00517035
-0.000114756
-0.000147913
-0.000108974
-3.94978e-05
7.00519e-05
0.000222326
0.000420743
0.000669261
0.000971565
0.00133038
0.00174652
0.00221755
0.00273648
0.00328968
0.0038533
0.00439328
0.00486447
0.00521568
0.0054331
0.00540128
-0.000260636
-0.00029834
-0.000263274
-0.000200064
-9.81722e-05
4.56229e-05
0.000235796
0.00047783
0.00077746
0.00114005
0.00156956
0.00206705
0.00262859
0.00324327
0.003887
0.00452125
0.00509035
0.00552333
0.00579538
0.00575528
-0.000459407
-0.000502243
-0.000472431
-0.000417545
-0.000326039
-0.000194069
-1.59701e-05
0.000215522
0.000508633
0.000872114
0.00131429
0.00184124
0.00245422
0.0031481
0.00390037
0.00466848
0.00538294
0.00594435
0.00630461
0.00625577
-0.000709714
-0.000758679
-0.000735704
-0.0006918
-0.000614447
-0.00049926
-0.000339392
-0.000125701
0.00015284
0.000509021
0.000956794
0.00150932
0.00217495
0.00296197
0.00385116
0.0048005
0.00572561
0.0064887
0.00699416
0.00694179
-0.00101004
-0.00106639
-0.00105205
-0.00102235
-0.000963928
-0.000872139
-0.00073921
-0.000554308
-0.000303637
2.99726e-05
0.000467175
0.00103147
0.00174697
0.00262122
0.00366703
0.00484889
0.00607202
0.00715236
0.00790774
0.00787888
-0.00135845
-0.00142357
-0.00141964
-0.00140761
-0.00137362
-0.00131323
-0.00121837
-0.00107717
-0.00087372
-0.000586996
-0.000189896
0.000351394
0.00107555
0.00201903
0.0032225
0.00467785
0.00630608
0.00788767
0.0090928
0.00918775
-0.0017525
-0.00182779
-0.00183556
-0.0018444
-0.00184035
-0.00182003
-0.00177607
-0.00169685
-0.0015659
-0.00136012
-0.00104762
-0.000584916
8.58114e-05
0.0010358
0.0023223
0.00402644
0.00614378
0.00849716
0.0105261
0.0110617
-0.00218959
-0.00227624
-0.00229574
-0.00232738
-0.00235781
-0.00238567
-0.00240566
-0.00240828
-0.00237919
-0.00229717
-0.00213095
-0.00183447
-0.00134111
-0.000558658
0.000626549
0.00234503
0.00485077
0.00825831
0.0118173
0.0133389
-0.00266775
-0.00276633
-0.002795
-0.00284876
-0.0029156
-0.00299738
-0.00309247
-0.00319563
-0.00329808
-0.00338581
-0.00343725
-0.00341969
-0.00328258
-0.00294845
-0.00231149
-0.00120484
0.000862062
0.00498248
0.0106119
0.0143988
-0.00318758
-0.0032978
-0.00332915
-0.00340011
-0.00350024
-0.00363629
-0.00381223
-0.00402917
-0.00428769
-0.004588
-0.00493022
-0.00531604
-0.00575332
-0.00627951
-0.00703527
-0.00815807
-0.00893251
-0.00598249
0.000952328
0.00909722
-0.00375028
-0.00386331
-0.0038791
-0.00395435
-0.00408055
-0.00426797
-0.00452404
-0.0048578
-0.00528172
-0.00581481
-0.00648942
-0.00736529
-0.00856241
-0.0103305
-0.0132954
-0.018118
-0.0245962
-0.0245485
-0.0173403
-0.00366955
-0.00438964
-0.00451754
-0.00450364
-0.00457313
-0.00470103
-0.00491135
-0.00522056
-0.00564735
-0.00621709
-0.00696928
-0.00797157
-0.00934447
-0.0113423
-0.0144105
-0.0196753
-0.0281433
-0.0406247
-0.0442064
-0.0378375
-0.0192045
-0.00518529
-0.0051165
-0.00499517
-0.00497863
-0.00509059
-0.00533573
-0.00571634
-0.00624319
-0.00694292
-0.00786362
-0.00909433
-0.0107903
-0.0133053
-0.0170772
-0.0237022
-0.0333995
-0.048419
-0.053553
-0.0484421
-0.0249153
-0.0056772
-0.00611267
-0.00584883
-0.00588826
-0.00591736
-0.0060774
-0.00638564
-0.0068709
-0.00756644
-0.00851558
-0.00980697
-0.0115651
-0.0142099
-0.0179529
-0.0245399
-0.0335468
-0.0463983
-0.0502474
-0.0432667
-0.0105546
-0.00903557
-0.00652677
-0.00594411
-0.00542724
-0.00541548
-0.00566416
-0.00611877
-0.00674008
-0.00754445
-0.00855348
-0.00986713
-0.0115433
-0.0139882
-0.0173602
-0.0227103
-0.0291761
-0.0370975
-0.0367111
-0.0239828
0.0252763
-0.00579784
-0.00878334
-0.00778652
-0.00786726
-0.00749684
-0.0073425
-0.00738732
-0.00765988
-0.00819781
-0.00898442
-0.0100985
-0.0115661
-0.0138143
-0.0167754
-0.0217583
-0.026807
-0.0322274
-0.0220863
0.00610773
0.0872956
-0.0308915
-0.00590064
-0.00450818
-0.00382245
-0.00368875
-0.00398498
-0.00461612
-0.00536749
-0.00631091
-0.00740355
-0.00884189
-0.0105462
-0.0129827
-0.0156793
-0.0188451
-0.0191428
-0.0133408
0.0179044
0.0884636
0.224802
)
;

boundaryField
{
    movingWall
    {
        type            zeroGradient;
    }
    fixedWalls
    {
        type            zeroGradient;
    }
    frontAndBack
    {
        type            empty;
    }
}


// ************************************************************************* //
