/*--------------------------------*- C++ -*----------------------------------*\
  =========                 |
  \\      /  F ield         | OpenFOAM: The Open Source CFD Toolbox
   \\    /   O peration     | Website:  https://openfoam.org
    \\  /    A nd           | Version:  10
     \\/     M anipulation  |
\*---------------------------------------------------------------------------*/
FoamFile
{
    format      ascii;
    class       surfaceScalarField;
    location    "9.4";
    object      phi;
}
// * * * * * * * * * * * * * * * * * * * * * * * * * * * * * * * * * * * * * //

dimensions      [0 3 -1 0 0 0 0];

internalField   nonuniform List<scalar> 
22800
(
-3.15654e-06
4.19383e-06
-1.03735e-06
-1.00006e-05
7.54279e-06
-6.98702e-07
-1.81776e-05
8.66724e-06
-4.90324e-07
-2.69783e-05
9.18098e-06
-3.80225e-07
-3.61525e-05
9.57853e-06
-4.04291e-07
-4.56222e-05
1.00021e-05
-5.3246e-07
-5.53022e-05
1.0441e-05
-7.6092e-07
-6.50095e-05
1.08209e-05
-1.11367e-06
-7.44099e-05
1.10312e-05
-1.63078e-06
-8.29777e-05
1.09294e-05
-2.36164e-06
-8.99676e-05
1.03477e-05
-3.3577e-06
-9.44166e-05
9.10925e-06
-4.6603e-06
-9.52088e-05
7.07026e-06
-6.27808e-06
-9.12436e-05
4.1911e-06
-8.1563e-06
-8.17388e-05
6.26095e-07
-1.01308e-05
-6.66424e-05
-3.21133e-06
-1.18851e-05
-4.72026e-05
-6.4555e-06
-1.29844e-05
-2.62629e-05
-7.98465e-06
-1.2955e-05
-7.99656e-06
-6.83977e-06
-1.14266e-05
-1.49784e-06
-6.49872e-06
-6.29382e-06
1.31195e-05
-2.6319e-06
-1.79717e-05
2.19332e-05
-2.71257e-06
-3.16541e-05
2.50022e-05
-2.65249e-06
-4.62873e-05
2.63799e-05
-2.56581e-06
-6.14383e-05
2.7327e-05
-2.59741e-06
-7.69056e-05
2.82103e-05
-2.74096e-06
-9.24841e-05
2.90249e-05
-3.00538e-06
-0.000107838
2.9604e-05
-3.42872e-06
-0.000122425
2.96858e-05
-4.06768e-06
-0.000135434
2.89305e-05
-4.99275e-06
-0.000145746
2.69396e-05
-6.2797e-06
-0.000151936
2.3292e-05
-7.99231e-06
-0.000152371
1.76539e-05
-1.01492e-05
-0.000145496
1.00031e-05
-1.26867e-05
-0.000130244
7.88238e-07
-1.54139e-05
-0.000106423
-9.22085e-06
-1.78116e-05
-7.58624e-05
-1.77588e-05
-1.92576e-05
-4.27951e-05
-2.20198e-05
-1.90322e-05
-1.36716e-05
-1.95224e-05
-1.64409e-05
-6.63223e-06
-8.53723e-06
-7.37285e-06
2.40261e-05
-3.53372e-06
-2.08458e-05
3.92947e-05
-3.88852e-06
-3.65227e-05
4.46021e-05
-3.92299e-06
-5.32153e-05
4.69131e-05
-3.84057e-06
-7.04522e-05
4.84166e-05
-3.85266e-06
-8.8021e-05
4.97497e-05
-3.97065e-06
-0.000105713
5.09323e-05
-4.21513e-06
-0.000123191
5.17192e-05
-4.63766e-06
-0.000139899
5.17072e-05
-5.31319e-06
-0.000154988
5.03581e-05
-6.33897e-06
-0.000167249
4.70269e-05
-7.82615e-06
-0.000175101
4.10249e-05
-9.8809e-06
-0.000176645
3.17666e-05
-1.25684e-05
-0.000169825
1.90349e-05
-1.58515e-05
-0.000152959
3.38136e-06
-1.94597e-05
-0.000125579
-1.38108e-05
-2.27898e-05
-8.94811e-05
-2.89861e-05
-2.48708e-05
-4.98954e-05
-3.70247e-05
-2.45808e-05
-1.52263e-05
-3.32972e-05
-2.08942e-05
-1.15269e-05
-1.03317e-05
-7.58238e-06
3.58016e-05
-4.19307e-06
-2.15569e-05
5.80504e-05
-4.78117e-06
-3.78029e-05
6.57434e-05
-4.89534e-06
-5.51101e-05
6.90429e-05
-4.82254e-06
-7.30348e-05
7.11702e-05
-4.82891e-06
-9.14174e-05
7.30744e-05
-4.94214e-06
-0.000110121
7.48312e-05
-5.19546e-06
-0.000128894
7.61489e-05
-5.65684e-06
-0.000147275
7.65146e-05
-6.42561e-06
-0.000164495
7.52144e-05
-7.63678e-06
-0.000179351
7.13425e-05
-9.45912e-06
-0.000190122
6.38698e-05
-1.20742e-05
-0.000194537
5.18119e-05
-1.56304e-05
-0.000189917
3.45713e-05
-2.01564e-05
-0.000173656
1.25275e-05
-2.54073e-05
-0.000144308
-1.25705e-05
-3.05885e-05
-0.000103101
-3.60911e-05
-3.41011e-05
-5.63931e-05
-4.97461e-05
-3.39869e-05
-1.5637e-05
-4.5578e-05
-2.84752e-05
-1.37077e-05
-1.34563e-05
-7.35958e-06
4.78212e-05
-4.66003e-06
-2.12086e-05
7.73487e-05
-5.44928e-06
-3.73813e-05
8.75469e-05
-5.63085e-06
-5.46889e-05
9.19266e-05
-5.57609e-06
-7.27417e-05
9.48238e-05
-5.60097e-06
-9.14681e-05
9.75525e-05
-5.75164e-06
-0.000110852
0.000100292
-6.07728e-06
-0.000130795
0.00010276
-6.668e-06
-0.000151014
0.000104391
-7.658e-06
-0.00017091
0.000104348
-9.23825e-06
-0.000189395
0.000101494
-1.1666e-05
-0.000204673
9.44022e-05
-1.52548e-05
-0.000214065
8.15179e-05
-2.03139e-05
-0.000213997
6.15192e-05
-2.70154e-05
-0.000200336
3.40653e-05
-3.51996e-05
-0.000170238
1.28806e-06
-4.39568e-05
-0.000123052
-3.28126e-05
-5.04642e-05
-6.62556e-05
-5.5384e-05
-5.11583e-05
-1.62199e-05
-5.32682e-05
-4.23455e-05
-1.10144e-05
-1.89132e-05
-6.8961e-06
5.97318e-05
-5.01453e-06
-2.0265e-05
9.67066e-05
-5.989e-06
-3.60041e-05
0.000109519
-6.23277e-06
-5.29572e-05
0.000115084
-6.20415e-06
-7.07939e-05
0.000118928
-6.26712e-06
-8.95485e-05
0.000122797
-6.48973e-06
-0.000109359
0.000127045
-6.94176e-06
-0.000130333
0.000131477
-7.7426e-06
-0.000152445
0.000135577
-9.07388e-06
-0.000175387
0.000138496
-1.12059e-05
-0.000198339
0.000138974
-1.45278e-05
-0.000219634
0.000135262
-1.95657e-05
-0.000236336
0.000125155
-2.69352e-05
-0.000243974
0.00010632
-3.71624e-05
-0.000236616
7.70315e-05
-5.03243e-05
-0.000207679
3.7633e-05
-6.52815e-05
-0.000155064
-7.1798e-06
-7.82478e-05
-8.41056e-05
-4.4934e-05
-8.14088e-05
-1.87641e-05
-5.1503e-05
-6.71067e-05
-1.72413e-06
-2.80544e-05
-6.26169e-06
7.13187e-05
-5.32515e-06
-1.88955e-05
0.000115826
-6.48577e-06
-3.39153e-05
0.000131327
-6.78856e-06
-5.01892e-05
0.000138143
-6.78499e-06
-6.74368e-05
0.000143064
-6.8886e-06
-8.57949e-05
0.000148348
-7.19342e-06
-0.000105569
0.000154614
-7.79522e-06
-0.000127111
0.00016187
-8.85086e-06
-0.000150731
0.000169799
-1.06024e-05
-0.000176548
0.000177739
-1.34259e-05
-0.000204242
0.000184568
-1.78991e-05
-0.000232618
0.000188511
-2.48733e-05
-0.000258968
0.000186994
-3.54888e-05
-0.000278259
0.000176592
-5.09812e-05
-0.00028269
0.000153454
-7.19902e-05
-0.000262151
0.00011408
-9.69869e-05
-0.000207194
5.79016e-05
-0.000120038
-0.000119877
-3.59601e-06
-0.000128656
-2.91341e-05
-3.4776e-05
-0.000107469
1.26416e-05
-4.34998e-05
-5.48461e-06
8.2436e-05
-5.63271e-06
-1.71663e-05
0.000134499
-6.99127e-06
-3.11851e-05
0.000152691
-7.34528e-06
-4.64064e-05
0.000160715
-7.35074e-06
-6.25729e-05
0.000166706
-7.47535e-06
-7.99016e-05
0.00017352
-7.8428e-06
-9.88446e-05
0.000182135
-8.57844e-06
-0.000119991
0.000192898
-9.88145e-06
-0.000144018
0.00020589
-1.20644e-05
-0.000171592
0.000220943
-1.56298e-05
-0.000203135
0.000237499
-2.13884e-05
-0.000238387
0.000254377
-3.06139e-05
-0.000275703
0.000269454
-4.51447e-05
-0.000310932
0.000278929
-6.71076e-05
-0.000335866
0.000276012
-9.76246e-05
-0.000336633
0.000248634
-0.000133786
-0.000294172
0.00018044
-0.000165
-0.000192697
7.33011e-05
-0.000178372
-6.21834e-05
-9.28068e-06
-0.000156009
2.19022e-05
-7.1444e-05
-4.60804e-06
9.30108e-05
-5.96683e-06
-1.51676e-05
0.000152603
-7.54445e-06
-2.79084e-05
0.000173367
-7.9347e-06
-4.16513e-05
0.000182374
-7.91613e-06
-5.61161e-05
0.000189189
-8.01779e-06
-7.15548e-05
0.000197354
-8.39551e-06
-8.85076e-05
0.000208293
-9.20458e-06
-0.000107729
0.000222804
-1.06844e-05
-0.000130185
0.000241559
-1.32125e-05
-0.000157045
0.000265209
-1.74067e-05
-0.000189585
0.000294332
-2.42927e-05
-0.000228942
0.000329232
-3.5498e-05
-0.000275595
0.000369339
-5.32305e-05
-0.000328295
0.000411014
-7.9385e-05
-0.000382268
0.000442767
-0.000112782
-0.000424888
0.000437055
-0.000145801
-0.000423256
0.000347356
-0.000168548
-0.000329434
0.000158379
-0.0001789
-0.000144975
-2.11734e-05
-0.000172566
-7.79022e-06
-0.000115282
-3.72709e-06
0.000103096
-6.3578e-06
-1.30969e-05
0.000170164
-8.19052e-06
-2.43328e-05
0.000193198
-8.59558e-06
-3.61614e-05
0.000202706
-8.50397e-06
-4.82214e-05
0.000209763
-8.51498e-06
-6.07365e-05
0.000218687
-8.81845e-06
-7.42335e-05
0.000231385
-9.59533e-06
-8.94772e-05
0.000249159
-1.11119e-05
-0.000107517
0.000273379
-1.37798e-05
-0.000129755
0.000305705
-1.82583e-05
-0.000158053
0.000348221
-2.55915e-05
-0.000194879
0.000403228
-3.71702e-05
-0.000243973
0.000472258
-5.38257e-05
-0.000310385
0.000550578
-7.3152e-05
-0.000398724
0.000616854
-8.57483e-05
-0.000501763
0.000618592
-7.84979e-05
-0.000576019
0.000475594
-5.39825e-05
-0.000522655
0.000152643
-4.76273e-05
-0.000286536
-0.000155037
-0.000102255
-0.000148247
-0.00014608
-3.01922e-06
0.000112977
-6.86175e-06
-1.13259e-05
0.000187464
-8.99348e-06
-2.09511e-05
0.000212206
-9.38205e-06
-3.04738e-05
0.000221382
-9.15322e-06
-3.94212e-05
0.000227695
-8.98458e-06
-4.79202e-05
0.000236291
-9.10434e-06
-5.63519e-05
0.000249525
-9.70769e-06
-6.52627e-05
0.000269129
-1.10592e-05
-7.54384e-05
0.000297096
-1.35414e-05
-8.79954e-05
0.000335949
-1.76866e-05
-0.000104762
0.000389102
-2.41138e-05
-0.000129047
0.000460234
-3.27213e-05
-0.000168162
0.000551217
-3.98439e-05
-0.000237014
0.000652922
-3.34923e-05
-0.000356569
0.000730536
5.87221e-06
-0.000537351
0.000703915
9.54593e-05
-0.000726225
0.000467209
0.000197259
-0.000722947
-4.84985e-05
0.000197862
-0.00042652
-0.00052124
6.97766e-05
-0.000486975
-8.77911e-05
-2.80815e-06
0.000123406
-7.62103e-06
-1.05016e-05
0.000205262
-1.0105e-05
-1.86108e-05
0.000230779
-1.04643e-05
-2.55443e-05
0.000238347
-1.00315e-05
-3.07594e-05
0.000242485
-9.57458e-06
-3.42578e-05
0.000249168
-9.37897e-06
-3.61647e-05
0.00026108
-9.64885e-06
-3.65575e-05
0.000280136
-1.06139e-05
-3.55853e-05
0.000308684
-1.25598e-05
-3.34982e-05
0.000349533
-1.56707e-05
-3.14782e-05
0.00040673
-1.96477e-05
-3.36849e-05
0.000484074
-2.16335e-05
-5.23787e-05
0.000581615
-1.17037e-05
-0.000117321
0.000684154
3.37099e-05
-0.000277926
0.000746067
0.000145074
-0.000569901
0.000667247
0.000328642
-0.00089181
0.000290691
0.000498428
-0.000894254
-0.000522344
0.000476289
-0.000541304
-0.00114096
0.000266773
-0.00105265
2.43731e-05
-3.59944e-06
0.000135794
-8.78841e-06
-1.15636e-05
0.000224829
-1.16023e-05
-1.85241e-05
0.000249558
-1.18182e-05
-2.27805e-05
0.000253661
-1.10573e-05
-2.38497e-05
0.000253768
-1.0214e-05
-2.16572e-05
0.000256598
-9.62217e-06
-1.60775e-05
0.000264972
-9.47117e-06
-6.55686e-06
0.000280515
-9.89963e-06
7.50551e-06
0.000305717
-1.10953e-05
2.65674e-05
0.000343205
-1.27345e-05
5.05403e-05
0.000396342
-1.3585e-05
7.46582e-05
0.000468135
-8.17877e-06
7.92599e-05
0.00055729
1.9723e-05
1.35904e-05
0.000647068
0.000102756
-0.000204565
0.000688129
0.000276094
-0.000625017
0.000558112
0.000529586
-0.00103444
-2.40218e-05
0.000724135
-0.00103975
-0.00112333
0.000606299
-0.000679834
-0.00181678
0.000315898
-0.00178127
4.87857e-05
-6.55115e-06
0.0001533
-1.09547e-05
-1.633e-05
0.000249036
-1.44287e-05
-2.26059e-05
0.000270483
-1.46498e-05
-2.39972e-05
0.000268537
-1.34851e-05
-2.05671e-05
0.00026236
-1.20216e-05
-1.23894e-05
0.000259174
-1.07538e-05
9.86518e-07
0.00026155
-9.95386e-06
2.01288e-05
0.000271003
-9.62991e-06
4.67585e-05
0.000289129
-1.00423e-05
8.26947e-05
0.000317807
-1.05375e-05
0.00012846
0.000359623
-9.04625e-06
0.0001794
0.000415793
1.40222e-06
0.000212058
0.000484997
3.96357e-05
0.000163547
0.000552845
0.000142733
-8.08959e-05
0.000582243
0.000350329
-0.000542048
0.000399691
0.000619574
-0.000986125
-0.00033889
0.000758944
-0.00108611
-0.00153837
0.000515023
-0.000796825
-0.00234401
0.000237947
-0.00253591
-4.2186e-05
-1.21436e-05
0.000179681
-1.42375e-05
-2.55877e-05
0.000280127
-1.76473e-05
-3.21148e-05
0.000294474
-1.74635e-05
-3.14546e-05
0.00028343
-1.55527e-05
-2.38732e-05
0.000268275
-1.3497e-05
-9.84623e-06
0.000256843
-1.16955e-05
1.08016e-05
0.000251311
-1.0409e-05
3.91685e-05
0.000252312
-9.67616e-06
7.72324e-05
0.000260742
-9.67655e-06
0.000127686
0.00027714
-9.78774e-06
0.000192085
0.000302946
-7.72192e-06
0.000267643
0.000337099
3.13675e-06
0.000334637
0.00037762
4.03832e-05
0.000340114
0.000410955
0.000136413
0.000174782
0.000416089
0.000331485
-0.00020769
0.000220423
0.00056174
-0.000669653
-0.000509517
0.000632591
-0.00094451
-0.00164548
0.000381971
-0.000805736
-0.00265453
0.000171742
-0.00317337
-0.000168275
-3.39745e-05
0.000235711
-2.20562e-05
-5.19018e-05
0.00032505
-2.69948e-05
-5.54924e-05
0.00032431
-2.62448e-05
-4.79189e-05
0.000299217
-2.33604e-05
-3.30144e-05
0.000273135
-1.97639e-05
-1.20688e-05
0.000252344
-1.64471e-05
1.53016e-05
0.000237869
-1.39281e-05
5.08427e-05
0.000229109
-1.23384e-05
9.7077e-05
0.000226445
-1.19378e-05
0.00015743
0.000229169
-1.2382e-05
0.000233764
0.000237877
-1.12651e-05
0.000325528
0.000249256
-3.92123e-06
0.000418587
0.000261635
2.29265e-05
0.000479406
0.000258698
9.14372e-05
0.00042531
0.000233467
0.000236718
0.000170236
6.337e-05
0.000412127
-0.000282762
-0.000510771
0.000454252
-0.000713805
-0.00152105
0.000306615
-0.000749081
-0.00274758
0.00012833
-0.00362894
-0.000293513
-2.97379e-05
0.000303072
-3.76225e-05
-6.60844e-05
0.000400076
-3.86799e-05
-7.78133e-05
0.000371883
-3.58442e-05
-7.35215e-05
0.000324124
-2.91991e-05
-5.56158e-05
0.000279556
-2.4327e-05
-2.78256e-05
0.000244621
-2.00671e-05
8.23608e-06
0.000218803
-1.69956e-05
5.2946e-05
0.000199567
-1.51679e-05
0.000108036
0.000186485
-1.51289e-05
0.000176748
0.000177131
-1.66748e-05
0.00026038
0.000172465
-1.82193e-05
0.000359242
0.000166858
-1.64644e-05
0.000460829
0.000161962
-1.91506e-06
0.000545045
0.000138667
3.58153e-05
0.000555111
9.9259e-05
0.000124142
0.000403341
-3.24726e-05
0.000247612
2.63781e-05
-0.000419542
0.000285734
-0.000470687
-0.00127811
0.000254121
-0.000646762
-0.00265807
8.65625e-05
-0.00385777
-0.000417933
-0.00018208
0.000531538
-4.63872e-05
-0.000176887
0.000455173
-6.02901e-05
-0.000142787
0.000398927
-6.11447e-05
-0.000102609
0.000339174
-5.52276e-05
-5.23994e-05
0.000273923
-4.45769e-05
2.71589e-06
0.000224497
-3.49912e-05
6.13767e-05
0.000188324
-2.81824e-05
0.000125089
0.000160009
-2.41536e-05
0.000194935
0.000139872
-2.32329e-05
0.000274878
0.000122626
-2.54374e-05
0.000364433
0.000112279
-2.93693e-05
0.000464998
9.90951e-05
-3.28014e-05
0.000565554
9.09982e-05
-2.95922e-05
0.000650155
6.57492e-05
-1.16828e-05
0.000690839
2.80993e-05
3.04748e-05
0.000620608
-7.69349e-05
0.000114694
0.000396281
-0.000335091
0.000139876
-6.15997e-05
-0.00100754
0.000187313
-0.000380179
-0.00237766
3.81701e-05
-0.00368738
-0.000550566
-0.000372237
0.00107616
-0.000172383
-0.000262117
0.000477849
-0.000132796
-0.000103453
0.00034689
-0.000106628
7.21859e-05
0.00024475
-8.12144e-05
0.000240636
0.000171031
-6.55578e-05
0.000396212
0.000122142
-5.32211e-05
0.000537478
9.17013e-05
-4.46436e-05
0.000667357
6.9688e-05
-3.95581e-05
0.000788394
5.61643e-05
-3.73289e-05
0.000905543
4.40471e-05
-3.85706e-05
0.0010213
3.85096e-05
-4.19881e-05
0.00113844
2.96886e-05
-4.77303e-05
0.00125579
2.52153e-05
-5.1566e-05
0.0013601
9.06363e-06
-4.76298e-05
0.00144126
-1.82171e-05
-3.48394e-05
0.00145364
-9.71301e-05
7.81682e-06
0.00135729
-0.000282927
4.41845e-05
0.000975267
-0.000715987
9.04643e-05
0.00027483
-0.00166766
-9.56434e-06
-0.00273006
-0.000682489
0.00122585
-0.000149687
0.00186632
-0.000162629
0.0023767
-0.000163491
0.00277181
-0.000150355
0.00307641
-0.00013357
0.00331796
-0.000119405
0.00351563
-0.000105971
0.00368162
-9.62979e-05
0.00382439
-8.66131e-05
0.00394999
-8.15447e-05
0.00406398
-7.54882e-05
0.00416816
-7.44886e-05
0.00426294
-6.95626e-05
0.00434114
-6.91411e-05
0.00438053
-5.7602e-05
0.00433929
-5.58888e-05
0.00408825
-3.18894e-05
0.00343537
-6.3103e-05
0.00189377
-0.000126061
-0.000836296
-5.42597e-06
6.55327e-06
-2.16465e-06
-1.71682e-05
1.33357e-05
-2.2922e-06
-3.12713e-05
1.57799e-05
-2.16707e-06
-4.62461e-05
1.66951e-05
-2.10052e-06
-6.16109e-05
1.71831e-05
-2.22267e-06
-7.72117e-05
1.75987e-05
-2.53032e-06
-9.28819e-05
1.7949e-05
-3.03977e-06
-0.000108301
1.81063e-05
-3.80094e-06
-0.000122924
1.78775e-05
-4.88546e-06
-0.000135929
1.70189e-05
-6.37587e-06
-0.000146184
1.52491e-05
-8.35153e-06
-0.00015226
1.22812e-05
-1.0865e-05
-0.000152531
7.89589e-06
-1.3903e-05
-0.00014541
2.06382e-06
-1.73413e-05
-0.000129757
-4.93062e-06
-2.08527e-05
-0.000105549
-1.21757e-05
-2.39174e-05
-7.46552e-05
-1.8044e-05
-2.58345e-05
-4.14379e-05
-2.02826e-05
-2.58898e-05
-1.28007e-05
-1.6708e-05
-2.33558e-05
-4.65816e-06
-1.46413e-05
-1.2489e-05
2.0734e-05
-4.32363e-06
-3.48594e-05
3.83194e-05
-5.32581e-06
-6.1073e-05
4.47759e-05
-5.43487e-06
-8.87187e-05
4.71793e-05
-5.40434e-06
-0.000116849
4.82742e-05
-5.55808e-06
-0.000144992
4.89475e-05
-5.94645e-06
-0.000172681
4.92501e-05
-6.61814e-06
-0.000199237
4.88916e-05
-7.65783e-06
-0.000223662
4.74122e-05
-9.17716e-06
-0.000244562
4.42293e-05
-1.13037e-05
-0.000260113
3.86822e-05
-1.4161e-05
-0.000268103
3.01085e-05
-1.78306e-05
-0.000266086
1.80248e-05
-2.22949e-05
-0.000251917
2.61009e-06
-2.74021e-05
-0.000223941
-1.56571e-05
-3.2663e-05
-0.000182294
-3.43856e-05
-3.72485e-05
-0.000129945
-4.95827e-05
-4.00682e-05
-7.37153e-05
-5.56432e-05
-3.99012e-05
-2.45539e-05
-4.70118e-05
-3.52984e-05
-1.71805e-05
-2.05688e-05
-1.55298e-05
3.83383e-05
-5.6083e-06
-4.26514e-05
6.87028e-05
-7.15028e-06
-7.41518e-05
7.97671e-05
-7.41377e-06
-0.000107175
8.37503e-05
-7.38867e-06
-0.000140613
8.53793e-05
-7.51934e-06
-0.00017391
8.61676e-05
-7.89362e-06
-0.000206529
8.62398e-05
-8.58605e-06
-0.000237721
8.51569e-05
-9.71097e-06
-0.000266397
8.21941e-05
-1.14188e-05
-0.000291035
7.64171e-05
-1.38894e-05
-0.000309614
6.6746e-05
-1.73102e-05
-0.00031964
5.20905e-05
-2.18371e-05
-0.000318274
3.16235e-05
-2.75329e-05
-0.000302569
5.29624e-06
-3.42425e-05
-0.000270215
-2.61032e-05
-4.13682e-05
-0.000220802
-5.87634e-05
-4.78248e-05
-0.000157416
-8.59141e-05
-5.19259e-05
-8.85468e-05
-9.74321e-05
-5.16607e-05
-2.86262e-05
-8.29399e-05
-4.48868e-05
-3.11552e-05
-2.49831e-05
-1.65954e-05
5.73513e-05
-6.61067e-06
-4.56139e-05
0.000101535
-8.59462e-06
-7.92433e-05
0.000117489
-8.98832e-06
-0.000114456
0.000123116
-8.97574e-06
-0.000150149
0.000125342
-9.09842e-06
-0.00018583
0.000126384
-9.47807e-06
-0.000221054
0.000126486
-1.02173e-05
-0.000255185
0.000125098
-1.14673e-05
-0.000287247
0.000121263
-1.34317e-05
-0.000315796
0.000113698
-1.63697e-05
-0.000338778
0.000100851
-2.05819e-05
-0.000353437
8.10411e-05
-2.63655e-05
-0.00035632
5.28083e-05
-3.39326e-05
-0.000343524
1.56021e-05
-4.32581e-05
-0.000311295
-2.99716e-05
-5.3768e-05
-0.000257444
-7.9352e-05
-6.38505e-05
-0.000184249
-0.00012247
-7.07404e-05
-0.000101968
-0.000142991
-7.0709e-05
-3.0612e-05
-0.000122625
-6.01462e-05
-4.34994e-05
-3.17241e-05
-1.66965e-05
7.6792e-05
-7.40415e-06
-4.62457e-05
0.000135417
-9.78225e-06
-8.05921e-05
0.0001565
-1.02946e-05
-0.000116661
0.000163919
-1.03098e-05
-0.000153429
0.000166969
-1.04602e-05
-0.000190555
0.000168663
-1.0904e-05
-0.000227801
0.000169433
-1.17784e-05
-0.000264776
0.000168689
-1.32836e-05
-0.000300774
0.000165303
-1.56999e-05
-0.000334585
0.000157677
-1.94053e-05
-0.000364265
0.000143747
-2.48817e-05
-0.00038686
0.000121065
-3.26836e-05
-0.000398189
8.71434e-05
-4.33207e-05
-0.000392824
4.02436e-05
-5.70212e-05
-0.000364843
-1.96856e-05
-7.34669e-05
-0.000308873
-8.89388e-05
-9.03403e-05
-0.000224458
-0.00015452
-0.000102829
-0.0001228
-0.000192093
-0.000103713
-3.34753e-05
-0.000168195
-8.60995e-05
-5.35667e-05
-4.23213e-05
-1.63354e-05
9.61925e-05
-8.07968e-06
-4.57504e-05
0.000169677
-1.08337e-05
-8.01459e-05
0.000196124
-1.14619e-05
-0.000116448
0.000205534
-1.15179e-05
-0.000153741
0.00020972
-1.17244e-05
-0.000191893
0.000212606
-1.22806e-05
-0.00023095
0.000214915
-1.33661e-05
-0.000270889
0.000216129
-1.52441e-05
-0.000311428
0.000215065
-1.82967e-05
-0.000351803
0.000209916
-2.30702e-05
-0.000390426
0.000198163
-3.03206e-05
-0.000424427
0.000176528
-4.10277e-05
-0.000449105
0.000141173
-5.62875e-05
-0.000457452
8.84302e-05
-7.70023e-05
-0.000440834
1.65342e-05
-0.000103162
-0.000388537
-7.48831e-05
-0.000131634
-0.000293572
-0.00017385
-0.000153884
-0.000163183
-0.00024762
-0.000156271
-4.16425e-05
-0.000230014
-0.000126829
-6.55669e-05
-5.76967e-05
-1.57124e-05
0.000115301
-8.72163e-06
-4.46119e-05
0.00020395
-1.18596e-05
-7.86411e-05
0.000235967
-1.26017e-05
-0.000114727
0.000247531
-1.26959e-05
-0.000152068
0.000253131
-1.29591e-05
-0.00019076
0.000257741
-1.3637e-05
-0.000231196
0.000262514
-1.49585e-05
-0.000273824
0.000267168
-1.72619e-05
-0.000318972
0.000270665
-2.10558e-05
-0.000366606
0.000271233
-2.71082e-05
-0.000415935
0.000266154
-3.65624e-05
-0.000464792
0.000251558
-5.10453e-05
-0.000508818
0.000222338
-7.26275e-05
-0.000540429
0.000172346
-0.000103286
-0.000547561
9.48703e-05
-0.000143194
-0.000514863
-1.73539e-05
-0.000187214
-0.000419137
-0.000171115
-0.000218499
-0.000250605
-0.000326406
-0.000218402
-6.88944e-05
-0.000343213
-0.000175981
-9.99933e-05
-7.79678e-05
-1.48975e-05
0.000133958
-9.39132e-06
-4.30018e-05
0.000238004
-1.29413e-05
-7.62967e-05
0.000275704
-1.37876e-05
-0.000111674
0.000289451
-1.38932e-05
-0.00014842
0.000296578
-1.41769e-05
-0.000186853
0.000303266
-1.49348e-05
-0.000227733
0.000311263
-1.64476e-05
-0.000272045
0.000320731
-1.9132e-05
-0.000320889
0.000331081
-2.36362e-05
-0.000375286
0.000340989
-3.09881e-05
-0.000435822
0.000348114
-4.28132e-05
-0.000502055
0.000348753
-6.1576e-05
-0.000571734
0.00033741
-9.05372e-05
-0.000639499
0.000305373
-0.000132369
-0.000693851
0.000236074
-0.000184477
-0.000710527
9.6711e-05
-0.000231175
-0.000643205
-0.000156261
-0.000247175
-0.000434938
-0.000482705
-0.00023034
-0.000147933
-0.000589483
-0.000196743
-0.000218035
-0.000101336
-1.39504e-05
0.000152085
-1.01438e-05
-4.10484e-05
0.00027171
-1.41525e-05
-7.32382e-05
0.000315041
-1.50822e-05
-0.00010731
0.000330751
-1.51446e-05
-0.00014258
0.000339203
-1.53721e-05
-0.000179553
0.000347956
-1.61122e-05
-0.000219315
0.000359512
-1.76917e-05
-0.000263376
0.000374702
-2.05945e-05
-0.000313649
0.000393728
-2.55873e-05
-0.000372419
0.00041628
-3.39286e-05
-0.000442222
0.000441303
-4.76776e-05
-0.000525639
0.000466579
-6.9907e-05
-0.00062506
0.000487438
-0.000103838
-0.000741514
0.000490809
-0.000148367
-0.000869789
0.000439226
-0.00018766
-0.000980117
0.000248098
-0.00018686
-0.000982664
-0.00018811
-0.000134152
-0.000744133
-0.000794076
-0.000106061
-0.00031469
-0.00104842
-0.000143069
-0.000528045
-0.000119962
-1.29932e-05
0.000169769
-1.10484e-05
-3.90029e-05
0.000305115
-1.55855e-05
-6.97533e-05
0.000353763
-1.65671e-05
-0.000101844
0.000370844
-1.65056e-05
-0.000134549
0.000379954
-1.6561e-05
-0.000168476
0.000390194
-1.71307e-05
-0.000204929
0.000404943
-1.85735e-05
-0.000245798
0.000425864
-2.14051e-05
-0.000293657
0.000454245
-2.64376e-05
-0.00035194
0.000491303
-3.49976e-05
-0.000425206
0.000538122
-4.91446e-05
-0.000519654
0.000594994
-7.11368e-05
-0.000644496
0.000658033
-9.95794e-05
-0.000811794
0.000703845
-0.00011889
-0.00102626
0.000656886
-8.89472e-05
-0.00124503
0.000363723
2.46551e-05
-0.00132555
-0.000322423
0.000160843
-0.00107545
-0.00123405
0.000142256
-0.00054238
-0.00165597
-2.7782e-05
-0.00111436
-0.000102149
-1.2264e-05
0.000187383
-1.2212e-05
-3.73508e-05
0.000338578
-1.73703e-05
-6.64563e-05
0.000391842
-1.8355e-05
-9.58934e-05
0.00040919
-1.80629e-05
-0.000124825
0.000417698
-1.77975e-05
-0.000153857
0.000428126
-1.80039e-05
-0.000184327
0.000444753
-1.90472e-05
-0.000218204
0.000470096
-2.14138e-05
-0.000258277
0.000506598
-2.58218e-05
-0.000308488
0.000557137
-3.33096e-05
-0.000374604
0.000625081
-4.49572e-05
-0.000465456
0.00071257
-5.9445e-05
-0.000596112
0.000813129
-6.4285e-05
-0.000788736
0.000886297
-2.33206e-05
-0.00105787
0.000813881
0.00011801
-0.00134821
0.000391057
0.000358471
-0.00149005
-0.000520971
0.000537643
-0.00126481
-0.00167219
0.000410763
-0.000714888
-0.00226134
0.000125228
-0.00190238
-1.46516e-05
-1.2232e-05
0.000205825
-1.38314e-05
-3.69978e-05
0.000373015
-1.97752e-05
-6.44793e-05
0.000429595
-2.0736e-05
-9.06572e-05
0.000445434
-2.0097e-05
-0.000114608
0.000451406
-1.9331e-05
-0.000136868
0.000459955
-1.8948e-05
-0.000158587
0.000476128
-1.93045e-05
-0.000181395
0.000503086
-2.07962e-05
-0.000207608
0.000544141
-2.38899e-05
-0.000240547
0.000603316
-2.89095e-05
-0.000285557
0.000685337
-3.48951e-05
-0.000351953
0.000792415
-3.50824e-05
-0.000458137
0.000913761
-6.15085e-06
-0.000637258
0.000992142
0.000106986
-0.000918811
0.000884485
0.000356023
-0.00125559
0.000364429
0.000692049
-0.00145835
-0.000675954
0.000856172
-0.00127423
-0.00195738
0.000577358
-0.000758392
-0.00272551
0.000215099
-0.00268756
5.11618e-05
-1.34874e-05
0.00022668
-1.61561e-05
-3.90953e-05
0.00040999
-2.29696e-05
-6.53976e-05
0.000467831
-2.37525e-05
-8.80468e-05
0.000479614
-2.25877e-05
-0.000106066
0.000480375
-2.11637e-05
-0.000119925
0.00048423
-2.00388e-05
-0.000130496
0.000496755
-1.95278e-05
-0.000138753
0.000521326
-1.98824e-05
-0.000145997
0.000561548
-2.12582e-05
-0.000154098
0.000621752
-2.30691e-05
-0.000166866
0.000706849
-2.23292e-05
-0.00019244
0.000818063
-8.25227e-06
-0.000252883
0.000941729
5.21976e-05
-0.000392892
0.00101525
0.000219658
-0.00066597
0.000895133
0.000538524
-0.00103022
0.000349228
0.000909041
-0.00126028
-0.000713653
0.000991888
-0.00113884
-0.0020341
0.000561586
-0.000726068
-0.00299857
0.000176182
-0.00336094
-3.90503e-06
-1.79408e-05
0.000253604
-1.99379e-05
-4.66696e-05
0.000452499
-2.82088e-05
-7.21564e-05
0.000507603
-2.89349e-05
-9.04114e-05
0.000511494
-2.71105e-05
-0.000101381
0.00050404
-2.47166e-05
-0.000105727
0.000500318
-2.24954e-05
-0.00010387
0.000505761
-2.08171e-05
-9.58477e-05
0.000523515
-1.98407e-05
-8.17546e-05
0.000556916
-1.95037e-05
-6.16378e-05
0.000609635
-1.85374e-05
-3.69001e-05
0.000685956
-1.28913e-05
-1.38935e-05
0.000786145
1.03142e-05
-1.54483e-05
0.000897175
8.57447e-05
-9.1491e-05
0.000962255
0.000271769
-0.00030985
0.00085838
0.000605441
-0.000633127
0.000352512
0.000939567
-0.000857073
-0.000656411
0.000925649
-0.000874536
-0.00193373
0.000432116
-0.000623405
-0.00310408
9.23347e-05
-0.00391589
-0.000110639
-2.4101e-05
0.000288785
-2.5317e-05
-5.81933e-05
0.000503553
-3.46088e-05
-8.52209e-05
0.00055207
-3.49026e-05
-0.000101397
0.000544141
-3.2024e-05
-0.000106116
0.000523894
-2.86331e-05
-0.000100594
0.000508516
-2.5416e-05
-8.55127e-05
0.000503035
-2.27647e-05
-6.0553e-05
0.000509654
-2.07746e-05
-2.47613e-05
0.00053079
-1.93423e-05
2.3484e-05
0.00056854
-1.69377e-05
8.45685e-05
0.0006266
-9.44991e-06
0.000156828
0.000702528
1.44937e-05
0.000224419
0.000785542
8.44246e-05
0.000246995
0.000829459
0.000246634
0.000151255
0.000748552
0.000537054
-7.96818e-05
0.000342737
0.000802452
-0.000308517
-0.000536918
0.000741933
-0.000505534
-0.00168253
0.000327782
-0.000440361
-0.00304064
4.31262e-05
-0.00431507
-0.000209461
-5.77378e-05
0.000359876
-3.54094e-05
-9.86911e-05
0.000565065
-4.75541e-05
-0.000119564
0.000594094
-4.73963e-05
-0.000123902
0.000568544
-4.34256e-05
-0.000116712
0.0005352
-3.826e-05
-9.97503e-05
0.000508269
-3.31611e-05
-7.26555e-05
0.000490834
-2.88216e-05
-3.35747e-05
0.000483712
-2.54781e-05
1.98697e-05
0.000488591
-2.31828e-05
9.01946e-05
0.000506336
-2.05033e-05
0.000180562
0.000539402
-1.44338e-05
0.000291849
0.000583944
3.37572e-06
0.000413783
0.000632151
5.43843e-05
0.000520425
0.00064707
0.000167184
0.00054978
0.00058199
0.000373924
0.000435545
0.000292162
0.000576937
0.000200631
-0.000375433
0.000527681
-0.000139953
-0.00130227
0.000266938
-0.000226391
-0.00284789
2.20213e-05
-0.00454581
-0.00028916
-3.93932e-05
0.000415527
-5.38807e-05
-0.000111451
0.000665126
-6.66834e-05
-0.000151396
0.000661871
-6.36762e-05
-0.000162189
0.000605642
-5.55038e-05
-0.000151952
0.000548999
-4.83631e-05
-0.000125746
0.000503684
-4.16876e-05
-8.57683e-05
0.000470066
-3.62052e-05
-3.13095e-05
0.000446222
-3.21365e-05
3.91662e-05
0.000432864
-2.98777e-05
0.000129041
0.000428308
-2.85223e-05
0.000240867
0.00043535
-2.5993e-05
0.000376752
0.000447927
-1.63326e-05
0.000527895
0.000466134
1.29579e-05
0.000675454
0.000458104
7.72233e-05
0.000776435
0.000405951
0.0001992
0.000746783
0.000224508
0.000344917
0.000553086
-0.000220685
0.000324683
0.00020819
-0.000908739
0.000205489
5.1631e-05
-0.0026145
9.72825e-06
-0.00455818
-0.000353938
-0.000188743
0.000619007
-6.11232e-05
-0.000208605
0.00071078
-8.60821e-05
-0.000215283
0.000698226
-9.08217e-05
-0.000212809
0.000632386
-8.44448e-05
-0.00018462
0.000549527
-7.32937e-05
-0.000136922
0.000483017
-6.20229e-05
-7.35168e-05
0.000431494
-5.30154e-05
5.85702e-06
0.000389508
-4.68133e-05
9.99074e-05
0.00035952
-4.39388e-05
0.000211821
0.000335032
-4.40738e-05
0.000340679
0.000322597
-4.54744e-05
0.000489029
0.000311246
-4.44711e-05
0.0006498
0.000309843
-3.40719e-05
0.000804149
0.000295467
-3.39433e-06
0.000936291
0.000253157
5.11258e-05
0.000978421
0.000150006
0.000147067
0.000932549
-0.000168923
0.000133986
0.000765128
-0.00067074
0.000116734
0.000497313
-0.00230353
-4.98347e-06
-0.00420329
-0.00040814
-0.000665292
0.00128294
-0.000171025
-0.00062086
0.000701735
-0.000168183
-0.000472607
0.000587608
-0.000144263
-0.000267891
0.000470269
-0.000123813
-5.44296e-05
0.000378994
-0.000108486
0.000157699
0.000312388
-9.47201e-05
0.000362736
0.000266139
-8.43267e-05
0.000560524
0.000229205
-7.70424e-05
0.000752234
0.000203493
-7.30126e-05
0.000940429
0.000180597
-7.23309e-05
0.0011289
0.000166739
-7.45976e-05
0.00131756
0.000152529
-7.76766e-05
0.00151403
0.000142426
-8.06197e-05
0.0017069
0.000127622
-7.26494e-05
0.00189429
9.00612e-05
-5.9134e-05
0.00203556
3.28049e-05
-1.62595e-05
0.00208274
-0.000181991
1.00774e-05
0.0020292
-0.000545418
1.86795e-05
0.00138729
-0.00163992
-3.12724e-05
-0.00303989
-0.000458599
0.00126909
-0.000135832
0.00196857
-0.000160381
0.00255966
-0.000166966
0.00304159
-0.00016202
0.0034395
-0.00015249
0.00377472
-0.000142235
0.00406641
-0.000131517
0.00432279
-0.000123477
0.00455437
-0.000114696
0.00476371
-0.000110287
0.00495891
-0.000103952
0.00514087
-0.00010392
0.00531162
-9.78885e-05
0.00547091
-0.000100808
0.00559165
-8.8287e-05
0.00566197
-9.34023e-05
0.00551888
-7.07918e-05
0.00501551
-0.000105148
0.00336279
-0.000113257
-0.000513391
-6.21201e-06
6.8502e-06
-2.80283e-06
-1.98622e-05
1.4909e-05
-3.55099e-06
-3.62758e-05
1.7887e-05
-3.64044e-06
-5.36006e-05
1.89228e-05
-3.69861e-06
-7.12477e-05
1.93612e-05
-3.93671e-06
-8.90394e-05
1.96583e-05
-4.39694e-06
-0.000106788
1.98308e-05
-5.12145e-06
-0.000124138
1.97262e-05
-6.17732e-06
-0.000140487
1.91136e-05
-7.65069e-06
-0.000154928
1.77006e-05
-9.63532e-06
-0.000166214
1.51494e-05