/*--------------------------------*- C++ -*----------------------------------*\
  =========                 |
  \\      /  F ield         | OpenFOAM: The Open Source CFD Toolbox
   \\    /   O peration     | Website:  https://openfoam.org
    \\  /    A nd           | Version:  10
     \\/     M anipulation  |
\*---------------------------------------------------------------------------*/
FoamFile
{
    format      ascii;
    class       volScalarField;
    location    "2.2";
    object      p;
}
// * * * * * * * * * * * * * * * * * * * * * * * * * * * * * * * * * * * * * //

dimensions      [0 2 -2 0 0 0 0];

internalField   nonuniform List<scalar> 
400
(
2.86347e-09
-1.68015e-05
3.34073e-05
0.000124103
0.00025797
0.000433367
0.000647454
0.000896509
0.00117569
0.00147893
0.00179889
0.00212692
0.00245311
0.00276657
0.00305576
0.00330897
0.00351488
0.00366356
0.00375276
0.00374751
1.5508e-05
-2.69877e-06
4.70924e-05
0.000135689
0.000266638
0.000438692
0.00064927
0.000894895
0.00117094
0.00147152
0.00178931
0.00211618
0.00244196
0.00275573
0.00304583
0.00330038
0.00350776
0.0036579
0.00374909
0.00374286
-3.70647e-05
-5.82458e-05
-8.54232e-06
8.03921e-05
0.000212535
0.000386845
0.000600954
0.000851599
0.00113433
0.00144338
0.00177168
0.00211075
0.00245017
0.0027786
0.0030837
0.00335269
0.0035728
0.00373273
0.00383029
0.00382261
-0.000135606
-0.000159771
-0.000109703
-1.94212e-05
0.000115629
0.000294751
0.000515901
0.000776129
0.00107125
0.00139566
0.00174216
0.00210261
0.0024659
0.00281989
0.00315113
0.00344531
0.00368778
0.00386509
0.00397405
0.00396637
-0.000284792
-0.000312572
-0.000261737
-0.000169104
-2.93629e-05
0.000157261
0.000389166
0.000663835
0.000977456
0.00132466
0.00169816
0.00209006
0.0024884
0.00288024
0.00325049
0.00358262
0.00385911
0.0040632
0.00418986
0.00418328
-0.000487561
-0.000520016
-0.000468232
-0.000372577
-0.000226752
-3.03427e-05
0.000215647
0.000509289
0.00084731
0.00122485
0.00163538
0.00206826
0.00251377
0.00295726
0.00338153
0.00376701
0.00409214
0.00433518
0.004488
0.004484
-0.00074734
-0.000785876
-0.000733299
-0.000634459
-0.000481745
-0.000273895
-1.11087e-05
0.000305464
0.000673236
0.00108787
0.00154288
0.00202928
0.00253562
0.00304649
0.00354254
0.0040004
0.00439307
0.0046915
0.00488235
0.00488354
-0.00106851
-0.00111498
-0.00106224
-0.000960714
-0.000801081
-0.000580943
-0.000299443
4.32895e-05
0.000445598
0.000903966
0.00141264
0.00196342
0.0025448
0.00314065
0.00372954
0.00428374
0.00476905
0.00514595
0.00539218
0.00540357
-0.00145628
-0.00151313
-0.00146148
-0.00135866
-0.00119308
-0.00096085
-0.000659739
-0.00028858
0.000152168
0.000660148
0.00123078
0.00185681
0.00252792
0.00322806
0.00393447
0.00461517
0.00522693
0.00571571
0.00604358
0.0060754
-0.00191666
-0.00198715
-0.00193867
-0.00183709
-0.00166782
-0.00142499
-0.00110462
-0.00070399
-0.000222139
0.000340014
0.000979477
0.0016907
0.00246576
0.00329034
0.00414222
0.00498662
0.00577073
0.00642087
0.00687137
0.00694559
-0.00245646
-0.00254496
-0.00250282
-0.0024065
-0.00223739
-0.00198699
-0.00164915
-0.0012194
-0.00069529
-7.61984e-05
0.000636842
0.0014408
0.00233159
0.00329951
0.00432645
0.00537861
0.00639596
0.00728213
0.00792064
0.00808631
-0.00308348
-0.0031958
-0.00316457
-0.00307943
-0.00291631
-0.00266313
-0.00231106
-0.00185387
-0.0012879
-0.000611277
0.000176981
0.00107727
0.00208968
0.00321448
0.0044433
0.00575107
0.00707828
0.00831305
0.00924621
0.00961496
-0.00380713
-0.00395048
-0.00393663
-0.00387109
-0.00372223
-0.00347288
-0.00311099
-0.00262884
-0.0020225
-0.00128997
-0.000429232
0.000563859
0.00169452
0.00297793
0.00442341
0.00602878
0.00775327
0.00949666
0.0109066
0.0117256
-0.00464209
-0.00482428
-0.00483546
-0.00480071
-0.00467717
-0.00443991
-0.00407288
-0.00356771
-0.00292207
-0.00213625
-0.00120955
-0.000136981
0.00109454
0.00251424
0.00416043
0.00607394
0.00827201
0.0107332
0.012902
0.0147904
-0.00557888
-0.00582599
-0.0058784
-0.00589272
-0.00580951
-0.00559346
-0.00522445
-0.00469513
-0.00400789
-0.00316939
-0.00218513
-0.00105602
0.000227385
0.00172551
0.00349287
0.00564215
0.00832405
0.0117466
0.0150885
0.0193006
-0.00681443
-0.00698427
-0.00708473
-0.00715884
-0.00714238
-0.006967
-0.00659962
-0.00603779
-0.00529685
-0.00439693
-0.00335378
-0.00216809
-0.000818877
0.000725608
0.00249925
0.00467396
0.00752604
0.0118348
0.0163695
0.0248505
-0.00780706
-0.0085712
-0.00866546
-0.00889946
-0.00893016
-0.00872616
-0.008289
-0.00763958
-0.00680816
-0.00582893
-0.00474137
-0.00358006
-0.00238298
-0.0011777
0.00012155
0.00161973
0.00360161
0.00866462
0.0137285
0.0298449
-0.0110291
-0.00913191
-0.00955148
-0.00982534
-0.0101216
-0.0101493
-0.00985529
-0.00924651
-0.00837486
-0.00730765
-0.0061269
-0.00488988
-0.00369689
-0.00259448
-0.00175054
-0.000890452
-0.000723259
0.00342222
0.00814001
0.0356448
-0.00957512
-0.0133444
-0.013428
-0.0143937
-0.0144957
-0.0140426
-0.0131446
-0.0119778
-0.0106475
-0.00922488
-0.00782529
-0.00650368
-0.00545331
-0.00484024
-0.00515997
-0.00621271
-0.0107996
-0.00658672
-0.00126644
0.0501569
-0.0320445
-0.00951333
-0.0103743
-0.0113784
-0.0119981
-0.0122154
-0.0120073
-0.0113585
-0.0103697
-0.00912112
-0.00787749
-0.0065216
-0.00562831
-0.00464104
-0.00476968
-0.00382117
-0.0018911
0.0146933
0.0551685
0.151585
)
;

boundaryField
{
    movingWall
    {
        type            zeroGradient;
    }
    fixedWalls
    {
        type            zeroGradient;
    }
    frontAndBack
    {
        type            empty;
    }
}


// ************************************************************************* //
