/*--------------------------------*- C++ -*----------------------------------*\
  =========                 |
  \\      /  F ield         | OpenFOAM: The Open Source CFD Toolbox
   \\    /   O peration     | Website:  https://openfoam.org
    \\  /    A nd           | Version:  10
     \\/     M anipulation  |
\*---------------------------------------------------------------------------*/
FoamFile
{
    format      ascii;
    class       volScalarField;
    location    "8.075";
    object      p;
}
// * * * * * * * * * * * * * * * * * * * * * * * * * * * * * * * * * * * * * //

dimensions      [0 2 -2 0 0 0 0];

internalField   nonuniform List<scalar> 
8000
(
-4.50908e-06
-9.63772e-06
4.30603e-05
0.000139037
0.000284859
0.00048286
0.000735741
0.00104619
0.00141602
0.0018453
0.00233109
0.00286594
0.0034363
0.00402098
0.00459065
0.00510921
0.00553727
0.00583974
0.00601313
0.00600687
-3.1629e-06
-7.56408e-06
4.79042e-05
0.000144017
0.000288393
0.000483683
0.000732872
0.00103887
0.00140376
0.00182792
0.00230892
0.00283999
0.00340801
0.00399199
0.00456312
0.00508559
0.00551791
0.00582303
0.00599938
0.00598124
-7.77223e-05
-8.58398e-05
-3.23616e-05
5.98194e-05
0.000198922
0.000387762
0.000629789
0.000928637
0.0012874
0.00170779
0.00218899
0.00272594
0.00330749
0.00391421
0.00451614
0.00507323
0.00553771
0.0058637
0.00604948
0.00601184
-0.000215608
-0.000226551
-0.000176576
-9.06846e-05
3.99704e-05
0.000218503
0.000449041
0.000736275
0.00108483
0.00149855
0.00197926
0.00252503
0.0031276
0.00376915
0.00441868
0.00503334
0.00555441
0.00591971
0.00612555
0.00605791
-0.000423949
-0.000437773
-0.000393257
-0.000316446
-0.000197903
-3.41692e-05
0.000179661
0.000449521
0.000781923
0.00118344
0.00165961
0.00221296
0.0028402
0.00352766
0.0042454
0.00494291
0.00555136
0.00598102
0.00622218
0.00610757
-0.000702924
-0.000719964
-0.000682889
-0.000618242
-0.00051614
-0.00037289
-0.000182917
6.08793e-05
0.000366935
0.000744825
0.00120454
0.00175472
0.00239927
0.00313208
0.00392882
0.00473521
0.00547072
0.00600384
0.00630892
0.00612174
-0.00105064
-0.00107143
-0.00104382
-0.000994749
-0.000914143
-0.000798413
-0.000641757
-0.000436371
-0.000172377
0.000162434
0.000582479
0.00110346
0.00173945
0.00249683
0.00336491
0.00430081
0.00519897
0.00589466
0.00631929
0.00603939
-0.00146386
-0.00148901
-0.00147282
-0.00144283
-0.00138922
-0.00130907
-0.00119718
-0.00104612
-0.000845886
-0.000583076
-0.000240323
0.000204079
0.000775381
0.00149795
0.00238406
0.00341334
0.00450274
0.00543773
0.00610005
0.00577592
-0.00193817
-0.00196823
-0.0019649
-0.00195704
-0.00193563
-0.00189929
-0.00184458
-0.0017661
-0.00165606
-0.00150328
-0.00129173
-0.000998831
-0.000594067
-3.82104e-05
0.000713845
0.00169725
0.00290575
0.00417953
0.00526212
0.00518318
-0.00246842
-0.00250364
-0.00251348
-0.00252937
-0.00254384
-0.00255812
-0.00257206
-0.00258441
-0.00259274
-0.00259285
-0.00257782
-0.0025366
-0.00245147
-0.00229228
-0.00200691
-0.00149392
-0.000535584
0.00104702
0.00308056
0.00402668
-0.00304961
-0.00308959
-0.0031108
-0.0031494
-0.00320015
-0.00326831
-0.00335851
-0.00347593
-0.00362718
-0.00382099
-0.00406909
-0.00438744
-0.00479773
-0.00531816
-0.00592868
-0.00646478
-0.00626961
-0.00435506
-0.000720712
0.00187005
-0.00367854
-0.00372156
-0.00374862
-0.00380452
-0.00388667
-0.00400588
-0.0041726
-0.00439999
-0.00470657
-0.00511919
-0.00567744
-0.00644025
-0.0074959
-0.00893436
-0.0107395
-0.0125438
-0.0128506
-0.00966457
-0.00388685
-0.000223451
-0.0043575
-0.00439985
-0.0044223
-0.00448408
-0.00458549
-0.00474439
-0.00497739
-0.00530563
-0.0057599
-0.00638651
-0.00725554
-0.00846637
-0.0101659
-0.0124512
-0.015243
-0.0176362
-0.0177821
-0.0126329
-0.00662775
-0.00151346
-0.00509575
-0.00512478
-0.00512078
-0.00516641
-0.0052667
-0.00544596
-0.00572416
-0.00612879
-0.00669865
-0.00749436
-0.008613
-0.0101756
-0.0123654
-0.0152324
-0.0186116
-0.0214204
-0.0222079
-0.0176162
-0.0119542
-0.00341816
-0.00592456
-0.00593554
-0.00588386
-0.00589065
-0.00595779
-0.00612005
-0.00640296
-0.00683852
-0.00746796
-0.00836491
-0.00962807
-0.0113918
-0.0138557
-0.0170569
-0.0209165
-0.0245196
-0.0280632
-0.024749
-0.0188822
-0.00580936
-0.00702347
-0.0068055
-0.00661382
-0.00648732
-0.00648201
-0.00661283
-0.00689228
-0.00733943
-0.00799754
-0.00892648
-0.0102323
-0.0120354
-0.0145387
-0.0177716
-0.0218299
-0.0257386
-0.0305329
-0.0274695
-0.0214058
-0.00418122
-0.00791899
-0.00801154
-0.00766881
-0.00750688
-0.00736454
-0.00735587
-0.00750565
-0.00784349
-0.008418
-0.00927213
-0.0105086
-0.0122074
-0.0145632
-0.017501
-0.0212613
-0.0245364
-0.0283444
-0.0238727
-0.0174337
0.00641275
-0.0118177
-0.00897132
-0.00828441
-0.00752507
-0.00722945
-0.00718696
-0.00737305
-0.00774489
-0.00833978
-0.00917003
-0.0103531
-0.0119085
-0.0140258
-0.016464
-0.0194844
-0.0213594
-0.0234514
-0.0161782
-0.00726086
0.0301233
-0.0113719
-0.0122607
-0.0107278
-0.0101615
-0.00935787
-0.00883645
-0.00857868
-0.00858654
-0.00890618
-0.00951482
-0.0105301
-0.0119052
-0.0139186
-0.0161533
-0.0190732
-0.0201898
-0.0203781
-0.00810863
0.00998307
0.0737062
-0.0360997
-0.0106635
-0.00892572
-0.00738203
-0.00656045
-0.00638703
-0.00660424
-0.00698556
-0.00762554
-0.00843109
-0.00966209
-0.0110764
-0.0130528
-0.0147195
-0.0162762
-0.0139971
-0.00685688
0.0204757
0.067922
0.174449
3.57458e-07
-1.62592e-05
3.41203e-05
0.000128789
0.000274597
0.000473191
0.000727107
0.00103913
0.0014113
0.00184395
0.00233448
0.00287577
0.00345448
0.00404938
0.00463051
0.00516007
0.00559586
0.00589947
0.00606832
0.00603967
1.42242e-05
-1.61222e-06
5.37812e-05
0.000149577
0.00029408
0.000489515
0.000738802
0.00104493
0.00141011
0.00183492
0.00231722
0.0028506
0.00342226
0.00401132
0.00458978
0.0051193
0.00555656
0.00586156
0.00603487
0.00599394
-5.54157e-05
-7.74471e-05
-2.38812e-05
6.80047e-05
0.000207232
0.000396152
0.000638136
0.00093689
0.00129564
0.00171634
0.00219854
0.00273765
0.00332302
0.00393591
0.00454614
0.00511192
0.00558269
0.0059085
0.00609036
0.0060238
-0.000189711
-0.000215965
-0.000165739
-8.00808e-05
5.0756e-05
0.000229396
0.000459895
0.000747013
0.00109551
0.0015095
0.00199127
0.00253952
0.00314666
0.00379531
0.00445641
0.0050831
0.00561331
0.00597883
0.00617916
0.00607395
-0.000396191
-0.000426246
-0.000381424
-0.000304792
-0.000185935
-2.18994e-05
0.000192155
0.000462252
0.000795057
0.00119745
0.00167555
0.0022328
0.00286689
0.00356497
0.00429694
0.0050138
0.00563687
0.00606831
0.00630229
0.00613462
-0.000674255
-0.000708256
-0.000670867
-0.000606319
-0.000503706
-0.000359839
-0.00016919
7.54632e-05
0.000382754
0.000762634
0.00122578
0.00178204
0.00243696
0.00318562
0.00400345
0.00484182
0.00560323
0.00614505
0.00644389
0.00617234
-0.00102148
-0.00105996
-0.00103206
-0.000983021
-0.000901712
-0.000785023
-0.000627159
-0.000420152
-0.000153871
0.000184363
0.000609815
0.00113971
0.00179057
0.00257058
0.00346465
0.00445293
0.00540925
0.00613954
0.00657263
0.00614768
-0.00143442
-0.00147814
-0.00146175
-0.0014318
-0.00137737
-0.00129599
-0.00118239
-0.00102895
-0.000825301
-0.000557503
-0.000207196
0.000249202
0.000840357
0.00159645
0.00253854
0.00362716
0.00482419
0.00587962
0.00661226
0.00604226
-0.0019086
-0.00195834
-0.00195501
-0.00194733
-0.00192513
-0.00188743
-0.00183069
-0.00174921
-0.00163482
-0.00147574
-0.00125495
-0.000948172
-0.000521792
6.96137e-05
0.00088142
0.00196518
0.00333942
0.00495072
0.006356
0.00591817
-0.00243872
-0.00249513
-0.00250529
-0.00252169
-0.00253561
-0.00254866
-0.0025605
-0.00256953
-0.00257296
-0.00256616
-0.00254185
-0.00248905
-0.00239141
-0.00222346
-0.00193569
-0.00138206
-0.000109741
0.00231689
0.00505031
0.00574932
-0.00301949
-0.0030829
-0.00310491
-0.00314457
-0.00319529
-0.0032626
-0.00335095
-0.00346516
-0.00361159
-0.00379909
-0.00404074
-0.00435712
-0.00478438
-0.0053796
-0.00616946
-0.00692749
-0.00643128
-0.00318702
0.00128577
0.00432926
-0.003647
-0.00371666
-0.00374489
-0.00380248
-0.00388543
-0.00400454
-0.00416999
-0.00439465
-0.00469697
-0.00510491
-0.00566285
-0.00644247
-0.00756889
-0.00923756
-0.0115526
-0.0141083
-0.0149295
-0.0109852
-0.00481515
0.0011455
-0.00432312
-0.00439761
-0.00442238
-0.00448709
-0.00459019
-0.00474938
-0.00498123
-0.00530696
-0.00575746
-0.00638091
-0.00725513
-0.00850224
-0.0103246
-0.0130156
-0.0166665
-0.0206412
-0.0228673
-0.0185056
-0.0120369
-0.00341705
-0.00505113
-0.00511848
-0.00511555
-0.00516486
-0.00526911
-0.00545099
-0.00572978
-0.00613234
-0.00669901
-0.0074918
-0.00861329
-0.0102108
-0.0125458
-0.015911
-0.0204914
-0.025459
-0.0296814
-0.0260893
-0.0206181
-0.00918957
-0.00586328
-0.00593416
-0.00588536
-0.00590047
-0.00597171
-0.00613537
-0.00641648
-0.0068468
-0.00747106
-0.00835474
-0.00961193
-0.0113857
-0.0139878
-0.0176093
-0.0227767
-0.0284166
-0.0350825
-0.0327061
-0.0284509
-0.0138271
-0.00689871
-0.00674674
-0.00656544
-0.00645138
-0.00646093
-0.00660259
-0.00688673
-0.00733248
-0.00798097
-0.00888722
-0.0101679
-0.0119488
-0.0145318
-0.0180633
-0.0230709
-0.0284153
-0.0351398
-0.0328138
-0.0304052
-0.0113732
-0.00761896
-0.00793618
-0.0075998
-0.00749214
-0.00736461
-0.00736457
-0.00751231
-0.00784013
-0.00839221
-0.00920725
-0.0103966
-0.0120381
-0.0144014
-0.0174688
-0.0217594
-0.0258716
-0.0306792
-0.0275848
-0.0253904
0.00277897
-0.0113351
-0.0086608
-0.00800988
-0.00728703
-0.00707257
-0.00709204
-0.00731255
-0.00769427
-0.00827368
-0.00905746
-0.010184
-0.011668
-0.0137605
-0.0162877
-0.0196629
-0.0222176
-0.024828
-0.0196893
-0.0122291
0.0311375
-0.0087298
-0.0113134
-0.0101495
-0.00994391
-0.00930931
-0.00888593
-0.00866436
-0.00866236
-0.00894098
-0.00947492
-0.0103998
-0.0116695
-0.0136486
-0.0159438
-0.0192795
-0.0212788
-0.0222441
-0.0109551
0.0100828
0.0819489
-0.0338818
-0.00880334
-0.00732035
-0.00633708
-0.00587433
-0.00586984
-0.00620141
-0.00663523
-0.0073071
-0.00808255
-0.00928219
-0.0106463
-0.0126167
-0.0144282
-0.0161666
-0.0143782
-0.00701379
0.0224115
0.0816937
0.205028
1.56225e-05
-6.65742e-06
4.27437e-05
0.000137073
0.000283584
0.000483686
0.000739972
0.00105548
0.0014326
0.00187207
0.00237169
0.00292472
0.00351786
0.00412951
0.00472833
0.00527417
0.00572135
0.00602764
0.00619143
0.00614499
3.78855e-05
1.54629e-05
7.09006e-05
0.000166608
0.000311644
0.00050809
0.000759005
0.00106764
0.00143654
0.00186671
0.00235647
0.00289984
0.00348404
0.00408873
0.00468383
0.00522909
0.00567744
0.0059851
0.00615411
0.0060951
-2.62715e-05
-5.64018e-05
-2.60022e-06
8.91607e-05
0.000228812
0.000418562
0.000661967
0.000963049
0.00132546
0.00175169
0.00224193
0.0027922
0.00339252
0.0040242
0.00465531
0.0052415
0.00572706
0.00605641
0.00623205
0.00614015
-0.000155624
-0.000190963
-0.000140336
-5.48052e-05
7.64375e-05
0.000255882
0.000487818
0.000777396
0.0011299
0.00155016
0.00204137
0.00260315
0.00322867
0.00390203
0.00459183
0.0052478
0.00580034
0.00617139
0.00636162
0.00621826
-0.000358299
-0.000398165
-0.000352826
-0.000276274
-0.000156905
8.12721e-06
0.000223958
0.000497091
0.000834863
0.0012451
0.00173519
0.00231014
0.0029692
0.00369975
0.00447375
0.00523484
0.00589395
0.00633612
0.00655373
0.00632153
-0.000633197
-0.00067763
-0.000639615
-0.000575052
-0.000471733
-0.000326542
-0.000133577
0.000114979
0.000428598
0.000818458
0.00129698
0.00187641
0.00256482
0.00335836
0.00423896
0.00514662
0.00596993
0.00653579
0.00680815
0.00641775
-0.00097744
-0.00102698
-0.000998357
-0.000949219
-0.00086703
-0.000748703
-0.000587976
-0.000376169
-0.00010212
0.000248402
0.000693005
0.00125243
0.00194777
0.00279271
0.0037795
0.00487134
0.00593722
0.00672681
0.00711749
0.00647003
-0.0013873
-0.00144278
-0.00142562
-0.00139559
-0.00134025
-0.00125709
-0.00114032
-0.00098146
-0.000768976
-0.000487092
-0.000114603
0.000376518
0.00102154
0.00185707
0.00290144
0.00417111
0.00555906
0.00676365
0.00741448
0.00647227
-0.00185805
-0.00192037
-0.00191633
-0.00190877
-0.00188589
-0.00184663
-0.00178684
-0.00169998
-0.00157665
-0.00140321
-0.00115974
-0.000817312
-0.000335162
0.000342552
0.00128609
0.0025451
0.0042151
0.0061186
0.00733854
0.00649248
-0.00238407
-0.00245401
-0.00246364
-0.00248062
-0.00249445
-0.00250664
-0.00251624
-0.00252086
-0.00251672
-0.00249788
-0.00245543
-0.00237673
-0.0022457
-0.00204308
-0.00172116
-0.00108233
0.000379349
0.00321057
0.0058455
0.00645297
-0.00295953
-0.00303761
-0.00305947
-0.00310047
-0.00315214
-0.00321986
-0.00330752
-0.00341942
-0.00356149
-0.00374266
-0.00397751
-0.00429282
-0.00474681
-0.00545412
-0.00648876
-0.00753671
-0.00705105
-0.0032168
0.00152623
0.00485488
-0.00357937
-0.0036649
-0.00369333
-0.00375332
-0.00383879
-0.00396024
-0.00412731
-0.00435269
-0.00465533
-0.00506547
-0.00563449
-0.00645435
-0.00770141
-0.00968694
-0.0125847
-0.0158711
-0.0169442
-0.0123949
-0.00597535
0.000503513
-0.00424391
-0.0043367
-0.00436263
-0.0044313
-0.00453883
-0.00470243
-0.00493827
-0.00526777
-0.00572317
-0.00635671
-0.00725761
-0.00858168
-0.0106153
-0.0137618
-0.018228
-0.0231959
-0.0262426
-0.0220354
-0.0154578
-0.00605801
-0.00495122
-0.00503894
-0.00503732
-0.00509236
-0.00520402
-0.00539359
-0.00567957
-0.00608878
-0.00666308
-0.00746886
-0.00861943
-0.0103062
-0.0128542
-0.0167118
-0.0221593
-0.0280901
-0.0332863
-0.0302954
-0.0243373
-0.0127524
-0.00573342
-0.00583142
-0.00578407
-0.00580878
-0.00589023
-0.00606413
-0.00635415
-0.0067918
-0.00742223
-0.00831458
-0.00959008
-0.011431
-0.0141918
-0.0182051
-0.0240066
-0.0300902
-0.0366688
-0.0341921
-0.0293306
-0.0160806
-0.00670969
-0.00659033
-0.0064115
-0.0063096
-0.00633502
-0.0064927
-0.00679048
-0.00724607
-0.00789823
-0.00880717
-0.0100943
-0.0118899
-0.0145485
-0.0182732
-0.0235969
-0.0288413
-0.0343318
-0.0317023
-0.0285572
-0.0118698
-0.00729947
-0.00767941
-0.00735685
-0.00728342
-0.00718104
-0.00720411
-0.00736899
-0.00770838
-0.00826147
-0.00907127
-0.0102567
-0.0118451
-0.014237
-0.0173775
-0.0217413
-0.0255974
-0.0292699
-0.0257714
-0.021789
0.00307944
-0.0109919
-0.00834565
-0.00764564
-0.00692824
-0.00675085
-0.00681303
-0.00706746
-0.00747293
-0.00805789
-0.00883526
-0.0099242
-0.0113741
-0.0134422
-0.0160094
-0.0193696
-0.0217922
-0.0233867
-0.0179412
-0.0082141
0.0323647
-0.00765389
-0.0105056
-0.00945558
-0.00936715
-0.00881514
-0.00846595
-0.00829382
-0.00832927
-0.00861825
-0.0091445
-0.0100274
-0.011265
-0.0132016
-0.0155758
-0.0189717
-0.0209966
-0.0215552
-0.00963904
0.0136245
0.0852808
-0.0331655
-0.0079644
-0.00646672
-0.00561656
-0.0052744
-0.00534099
-0.00571091
-0.00617604
-0.00684799
-0.00762067
-0.00877273
-0.0101231
-0.0120546
-0.0139423
-0.0157021
-0.0138827
-0.0056551
0.0250819
0.0880634
0.213027
3.3746e-05
8.11814e-06
5.70249e-05
0.000151418
0.000299042
0.000501225
0.000760684
0.00108074
0.00146415
0.00191208
0.00242279
0.00298982
0.00359988
0.00423087
0.00484983
0.00541404
0.00587429
0.00618509
0.00634588
0.00628614
6.07761e-05
3.46394e-05
9.01846e-05
0.000186146
0.000332205
0.000530408
0.000783992
0.00109651
0.00147089
0.0019086
0.00240844
0.00296478
0.0035646
0.0041886
0.00480386
0.00536781
0.00582955
0.00614171
0.00630777
0.00623526
5.5774e-07
-3.40814e-05
1.99547e-05
0.000111963
0.0002526
0.000444038
0.000690054
0.000995026
0.00136307
0.00179728
0.00229846
0.00286324
0.00348231
0.00413649
0.00479225
0.005402
0.00590473
0.00623936
0.00640987
0.00629836
-0.000124887
-0.000165289
-0.000114305
-2.85021e-05
0.000103761
0.000284949
0.000519626
0.000813376
0.00117207
0.0016013
0.00210519
0.00268412
0.00333108
0.00403461
0.00475741
0.00544594
0.00602294
0.00640061
0.00658113
0.00640676
-0.000324269
-0.000369626
-0.00032384
-0.000246959
-0.000126443
4.05499e-05
0.000259499
0.000537443
0.000882461
0.0013034
0.00180899
0.00240585
0.00309546
0.00386286
0.00468208
0.00549002
0.00618605
0.00663809
0.00683686
0.00655193
-0.000596252
-0.000646559
-0.000608017
-0.000543047
-0.00043841
-0.000290958
-9.43713e-05
0.000159816
0.000482002
0.000884674
0.00138206
0.00198875
0.00271543
0.0035598
0.00450295
0.00547958
0.00636088
0.00694341
0.00717857
0.00669677
-0.000937685
-0.000993497
-0.000964299
-0.000914711
-0.00083108
-0.000710255
-0.000545479
-0.000327319
-4.35153e-05
0.000321761
0.000788408
0.00138037
0.00212227
0.00302832
0.00410473
0.00529647
0.0064539
0.00727473
0.00758932
0.00679537
-0.00134462
-0.00140684
-0.00138911
-0.0013587
-0.00130195
-0.00121628
-0.00109535
-0.000929863
-0.000707105
-0.000409543
-1.33425e-05
0.000513508
0.00121161
0.00212409
0.00327169
0.00467057
0.00619381
0.00745879
0.0079607
0.00684149
-0.00181207
-0.00188168
-0.0018772
-0.00186951
-0.00184553
-0.00180412
-0.00174058
-0.00164761
-0.00151476
-0.00132683
-0.00106159
-0.000686841
-0.000157262
0.000586969
0.00161381
0.00299437
0.00481459
0.00684568
0.0078631
0.00692703
-0.00233406
-0.00241196
-0.00242141
-0.00243875
-0.00245214
-0.00246301
-0.00246996
-0.00247005
-0.00245884
-0.00242973
-0.00237331
-0.00227748
-0.00213107
-0.00192901
-0.00163323
-0.00101953
0.000594726
0.00371786
0.00622452
0.0069745
-0.00290418
-0.00299107
-0.00301316
-0.0030553
-0.00310755
-0.00317528
-0.00326208
-0.00337206
-0.0035113
-0.0036897
-0.00392478
-0.00425147
-0.00475128
-0.00559214
-0.00685949
-0.00804839
-0.00756068
-0.00355907
0.00121598
0.00512938
-0.00351629
-0.00361159
-0.00364075
-0.00370288
-0.00379033
-0.00391356
-0.00408204
-0.00430871
-0.00461369
-0.00503033
-0.00561781
-0.00648578
-0.00785045
-0.0101102
-0.0134376
-0.0171965
-0.0186232
-0.0143269
-0.00777778
-0.000289163
-0.00416939
-0.00427356
-0.00430106
-0.00437324
-0.00448438
-0.00465156
-0.00489092
-0.00522445
-0.00568615
-0.00633266
-0.00726319
-0.00865432
-0.0108196
-0.0143242
-0.0193363
-0.0249194
-0.0287297
-0.0252807
-0.0186402
-0.00835815
-0.00485792
-0.00495862
-0.00495912
-0.00501922
-0.00513658
-0.00533193
-0.00562346
-0.00603822
-0.00661959
-0.00743795
-0.00861534
-0.0103604
-0.0130468
-0.0171937
-0.0231458
-0.0294881
-0.0352061
-0.0328754
-0.0272194
-0.0154073
-0.0056132
-0.00572792
-0.00568343
-0.00571626
-0.0058056
-0.00598698
-0.00628324
-0.00672576
-0.00736007
-0.00825765
-0.0095442
-0.0114132
-0.0142599
-0.0184252
-0.0245239
-0.0305557
-0.0369374
-0.0346584
-0.0307639
-0.0176772
-0.0065411
-0.00644211
-0.00626788
-0.00617695
-0.00621367
-0.00638217
-0.00668855
-0.00714922
-0.00780145
-0.00870601
-0.00998325
-0.0117667
-0.0144474
-0.0181869
-0.0235091
-0.0284578
-0.0332591
-0.0307461
-0.0289505
-0.0121382
-0.00705083
-0.00747327
-0.00715454
-0.00710557
-0.00701997
-0.0070576
-0.00723193
-0.00757487
-0.00812278
-0.00891776
-0.0100697
-0.0116416
-0.0139982
-0.017115
-0.0214056
-0.0250092
-0.0282069
-0.0248692
-0.0220828
0.00384536
-0.0106688
-0.00806122
-0.00735291
-0.00665583
-0.00649912
-0.00658427
-0.0068564
-0.00727194
-0.00785372
-0.00861374
-0.00967468
-0.0110812
-0.0130993
-0.0156508
-0.0189641
-0.0212787
-0.0226199
-0.0175046
-0.00857366
0.0340006
-0.00706905
-0.0100876
-0.00905736
-0.00903382
-0.00851372
-0.00819323
-0.00803851
-0.00808103
-0.00836397
-0.00887026
-0.00971873
-0.0109185
-0.0128216
-0.0152037
-0.018642
-0.0207367
-0.0213322
-0.00943297
0.0137668
0.0884619
-0.0325997
-0.00738925
-0.00589347
-0.00510786
-0.00482897
-0.00494444
-0.00534664
-0.00583207
-0.0065069
-0.00726994
-0.00839512
-0.00971369
-0.0116189
-0.0134936
-0.0152574
-0.0133322
-0.00492089
0.02642
0.0900775
0.218829
5.32476e-05
2.64349e-05
7.55419e-05
0.000170611
0.000319797
0.000524508
0.000787681
0.00111296
0.00150349
0.00196088
0.00248378
0.00306598
0.0036942
0.00434541
0.0049853
0.00556857
0.00604268
0.00635925
0.00651867
0.00644904
8.24418e-05
5.48161e-05
0.000110751
0.000207436
0.000355016
0.000555617
0.000812713
0.00113019
0.00151137
0.00195818
0.00246988
0.00304114
0.00365906
0.00430355
0.00494032
0.00552406
0.00600021
0.00631807
0.00648237
0.00639992
2.47791e-05
-1.16974e-05
4.27969e-05
0.000135538
0.000277711
0.000471576
0.000721182
0.00103129
0.00140651
0.0018505
0.00236466
0.00294616
0.00358613
0.00426463
0.00494649
0.00558076
0.00610143
0.00644229
0.00660857
0.00648198
-9.78079e-05
-0.000140302
-8.87821e-05
-2.20451e-06
0.00013167
0.000315412
0.000553911
0.000853217
0.00121981
0.00166005
0.00217891
0.00277774
0.003451
0.00418421
0.00494089
0.00566236
0.00626374
0.00664823
0.00681915
0.00661956
-0.000294488
-0.000342134
-0.000295743
-0.000218023
-9.57587e-05
7.40244e-05
0.000297202
0.000581384
0.000935415
0.00136915
0.00189253
0.00251319
0.00323144
0.00404162
0.00490692
0.00576081
0.00649178
0.00695185
0.00712982
0.00680115
-0.000563881
-0.000616647
-0.000577447
-0.00051157
-0.000405035
-0.000254526
-5.32522e-05
0.000207936
0.000540385
0.000957876
0.00147636
0.00211256
0.00288009
0.00377419
0.00477844
0.00581964
0.00675213
0.00734444
0.00753588
0.00697962
-0.000902714
-0.000961165
-0.000931289
-0.000880778
-0.000795172
-0.000671125
-0.000501346
-0.000275624
1.94042e-05
0.000401109
0.000891505
0.00151732
0.00230641
0.00327554
0.00442964
0.00570888
0.00694016
0.00777368
0.0079996
0.00708929
-0.00130688
-0.00137195
-0.0013536
-0.00132237
-0.00126374
-0.00117493
-0.00104904
-0.000875997
-0.000641922
-0.000327689
9.27809e-05
0.00065467
0.00140198
0.00237874
0.0036157
0.00511667
0.00673642
0.00802086
0.00836255
0.00710976
-0.00177116
-0.0018439
-0.00183894
-0.00183071
-0.0018052
-0.00176111
-0.00169325
-0.00159361
-0.00145079
-0.00124835
-0.000962431
-0.000558915
9.24284e-06
0.00080105
0.00187882
0.00332768
0.00522993
0.00729494
0.0081168
0.00713471
-0.00228926
-0.0023706
-0.00237985
-0.00239712
-0.00240966
-0.00241878
-0.00242271
-0.00241808
-0.00240008
-0.00236188
-0.00229457
-0.00218851
-0.00204098
-0.00186672
-0.00164466
-0.00114021
0.000460061
0.00364409
0.00613033
0.00709463
-0.00285421
-0.00294492
-0.00296723
-0.00301001
-0.00306238
-0.0031297
-0.0032154
-0.00332361
-0.00346091
-0.00363874
-0.00387876
-0.00422592
-0.00478697
-0.0057855
-0.00734485
-0.00889749
-0.00856076
-0.00451029
0.000523234
0.00496783
-0.00345902
-0.00355855
-0.00358842
-0.00365206
-0.00374085
-0.00386527
-0.00403486
-0.00426307
-0.00457152
-0.00499723
-0.0056078
-0.0065315
-0.00802348
-0.0105556
-0.0143351
-0.0185969
-0.0204387
-0.0163264
-0.00936554
-0.00114062
-0.00410162
-0.00421071
-0.00423956
-0.00431434
-0.0044281
-0.00459801
-0.00484037
-0.00517797
-0.00564681
-0.00630816
-0.00727132
-0.00873486
-0.01106
-0.0148554
-0.0203599
-0.0264285
-0.0305937
-0.0275256
-0.020629
-0.00987796
-0.00477433
-0.00488062
-0.00488309
-0.00494693
-0.00506826
-0.00526772
-0.00556349
-0.00598314
-0.00657169
-0.00740325
-0.00860786
-0.0104119
-0.0132191
-0.0175747
-0.0238967
-0.0304008
-0.0359059
-0.0337043
-0.0280828
-0.0165338
-0.00550812
-0.00562975
-0.00558765
-0.00562598
-0.00572061
-0.00590706
-0.00620772
-0.00665398
-0.00729199
-0.00819521
-0.00949347
-0.0113899
-0.014299
-0.0185308
-0.0247925
-0.0306037
-0.0360745
-0.0338022
-0.0301443
-0.0178674
-0.00640091
-0.00631106
-0.00614085
-0.00605768
-0.00610124
-0.00627605
-0.00658725
-0.0070504
-0.00770202
-0.00860308
-0.00987445
-0.0116519
-0.0143304
-0.0180403
-0.0232696
-0.0278517
-0.0318055
-0.029157
-0.0274271
-0.0116831
-0.00687235
-0.00731097
-0.00699081
-0.00695483
-0.00687807
-0.00692353
-0.00710234
-0.00744556
-0.00798826
-0.00877179
-0.00990527
-0.0114544
-0.0137783
-0.01684
-0.0210128
-0.0243292
-0.0269466
-0.0234275
-0.0205023
0.00466277
-0.0104194
-0.00784041
-0.00713605
-0.00645618
-0.00630869
-0.00640366
-0.00668238
-0.00709966
-0.00767599
-0.00842248
-0.00946173
-0.0108372
-0.0128225
-0.0153218
-0.0185434
-0.0206898
-0.0216609
-0.0164585
-0.00731614
0.0351614
-0.00680149
-0.00986083
-0.00881877
-0.0088165
-0.0083036
-0.0079918
-0.00784149
-0.0078831
-0.00815835
-0.00864789
-0.00947324
-0.0106429
-0.012518
-0.0148732
-0.0182566
-0.0202301
-0.0205976
-0.00857575
0.0149226
0.0903002
-0.0323003
-0.00709156
-0.00558923
-0.00481588
-0.00455785
-0.00469307
-0.00510856
-0.00559969
-0.00627095
-0.00702258
-0.00812672
-0.00941934
-0.0112929
-0.0131311
-0.0148308
-0.0127912
-0.00411208
0.0276027
0.0918446
0.221573
7.19734e-05
4.48603e-05
9.44665e-05
0.000190539
0.00034154
0.000549021
0.000816163
0.00114691
0.00154481
0.00201181
0.00254693
0.00314414
0.00379001
0.00446091
0.00512093
0.00572246
0.00621002
0.00653272
0.00669168
0.00661418
0.000102128
7.40146e-05
0.000130507
0.000228217
0.000377607
0.000580941
0.000841936
0.00116479
0.00155322
0.00200954
0.00253339
0.00311971
0.00375563
0.00442012
0.00507768
0.00568044
0.0061705
0.00649429
0.00665751
0.00656716
4.6091e-05
9.01229e-06
6.41111e-05
0.000157911
0.000301951
0.000498635
0.00075229
0.00106804
0.00145094
0.00190518
0.00243266
0.003031
0.00369158
0.00439358
0.00510032
0.00575773
0.00629527
0.00664221
0.00680485
0.00666608
-7.44934e-05
-0.000117681
-6.54997e-05
2.21949e-05
0.000158039
0.000344766
0.000587594
0.000893009
0.00126805
0.00171976
0.00225386
0.00287241
0.00357057
0.0043328
0.00512123
0.00587298
0.00649644
0.00688695
0.00704852
0.00682814
-0.00026909
-0.000317501
-0.000270395
-0.000191485
-6.71128e-05
0.000105893
0.000333796
0.00062474
0.000988273
0.00143514
0.00197639
0.00262084
0.00337026
0.00421666
0.00512356
0.00601852
0.00677988
0.00724564
0.00740228
0.00703785
-0.000536353
-0.00058995
-0.000549995
-0.000482869
-0.000374096
-0.000220133
-1.37369e-05
0.000254875
0.000597904
0.00103026
0.00156933
0.00223323
0.00303582
0.00397787
0.00503701
0.00613446
0.00710979
0.00770677
0.00785226
0.00723673
-0.000872976
-0.000932333
-0.000901702
-0.00084994
-0.000762052
-0.000634443
-0.000459319
-0.000225765
8.05555e-05
0.000478342
0.000991364
0.0016486
0.0024804
0.00350482
0.00472512
0.00607781
0.00736863
0.00820477
0.00833847
0.00733691
-0.00127476
-0.00134082
-0.00132179
-0.00128941
-0.00122862
-0.0011364
-0.00100533
-0.000824632
-0.00057948
-0.000249446
0.000193269
0.000786114
0.00157521
0.00260457
0.00390994
0.00549454
0.00718939
0.00847512
0.00865563
0.00729903
-0.0017363
-0.00181015
-0.00180467
-0.00179556
-0.00176826
-0.00172125
-0.00164891
-0.00154267
-0.00139043
-0.00117484
-0.000871084
-0.0004442
0.000152658
0.000974074
0.00206411
0.00357114
0.00552676
0.00759671
0.00823294
0.00722267
-0.00225102
-0.00233361
-0.00234261
-0.00235945
-0.00237083
-0.00237792
-0.0023787
-0.00236954
-0.00234546
-0.00229987
-0.002225
-0.0021146
-0.00197526
-0.0018407
-0.00169347
-0.00133734
0.000215846
0.00343999
0.00592965
0.00708165
-0.00281155
-0.00290368
-0.00292611
-0.00296906
-0.00302114
-0.00308768
-0.00317207
-0.00327864
-0.00341469
-0.0035936
-0.00384168
-0.00421453
-0.00484357
-0.0060075
-0.00787058
-0.00979245
-0.00964029
-0.00549973
-0.000181879
0.00475476
-0.00341024
-0.00351136
-0.0035418
-0.00360634
-0.00369584
-0.00382085
-0.00399113
-0.00422079
-0.00453311
-0.00496897
-0.00560458
-0.00658672
-0.00820795
-0.0110164
-0.0152695
-0.0201091
-0.0222346
-0.0180809
-0.0106741
-0.00186951
-0.00404434
-0.00415528
-0.00418522
-0.0042617
-0.00437717
-0.00454891
-0.00479355
-0.00513476
-0.0056107
-0.00628731
-0.0072837
-0.00881936
-0.0112947
-0.0153834
-0.0213766
-0.0279159
-0.0321734
-0.0290868
-0.0220207
-0.0109797
-0.00470493
-0.00481335
-0.00481743
-0.00488381
-0.00500771
-0.00520988
-0.00550864
-0.00593231
-0.00652763
-0.00737254
-0.00860493
-0.0104667
-0.013393
-0.0179487
-0.024611
-0.0312859
-0.0364443
-0.0340487
-0.0285822
-0.0171812
-0.00542327
-0.00554758
-0.00550733
-0.00554915
-0.00564703
-0.00583657
-0.00613996
-0.0065888
-0.00723012
-0.00813947
-0.0094517
-0.0113761
-0.0143499
-0.0186411
-0.0250416
-0.0306912
-0.0354541
-0.0329384
-0.0297132
-0.0177696
-0.00629176
-0.00620578
-0.0060389
-0.0059609
-0.00600854
-0.00618681
-0.00650031
-0.00696417
-0.00761475
-0.00851312
-0.00978259
-0.0115584
-0.0142393
-0.0179337
-0.0230978
-0.0274169
-0.0307938
-0.0279288
-0.0265187
-0.0110601
-0.00674787
-0.00719216
-0.00686964
-0.00683997
-0.00676713
-0.00681599
-0.00699606
-0.00733755
-0.00787501
-0.00864888
-0.00976995
-0.0113
-0.0135993
-0.0166111
-0.0206889
-0.023795
-0.0259944
-0.0223142
-0.0196519
0.00553159
-0.0102396
-0.00767919
-0.00698311
-0.0063156
-0.0061729
-0.00627137
-0.00655111
-0.00696604
-0.00753609
-0.00827059
-0.00929354
-0.0106445
-0.0126017
-0.0150481
-0.0181839
-0.0201897
-0.0209103
-0.0156028
-0.00662712
0.0361944
-0.00666866
-0.00973612
-0.00867691
-0.00868135
-0.00816704
-0.00785498
-0.00770246
-0.00773851
-0.008006
-0.0084812
-0.00929171
-0.010436
-0.0122903
-0.0146037
-0.0179209
-0.0197838
-0.0199798
-0.00779407
0.015749
0.0917446
-0.0321174
-0.00691897
-0.00541196
-0.00463985
-0.00438944
-0.00453146
-0.00495196
-0.00544172
-0.00610931
-0.00684902
-0.00794095
-0.00921011
-0.0110586
-0.0128453
-0.0144701
-0.012283
-0.00341481
0.0286256
0.0930436
0.22341
8.85963e-05
6.1558e-05
0.000111789
0.000208985
0.000361825
0.000572021
0.00084298
0.00117893
0.00158372
0.00205964
0.00260598
0.00321684
0.00387864
0.00456711
0.00524502
0.00586274
0.0063623
0.0066907
0.00684965
0.00676587
0.000119167
9.09906e-05
0.000148113
0.000246955
0.000398197
0.000604249
0.000869054
0.00119709
0.00159239
0.00205763
0.00259274
0.00319279
0.00384497
0.00452745
0.0052035
0.00582309
0.00632549
0.00665474
0.00681729
0.00672061
6.41756e-05
2.70004e-05
8.27625e-05
0.000177737
0.000323698
0.000523207
0.000780841
0.00110204
0.00149225
0.00195608
0.00249586
0.00310953
0.0037886
0.0045115
0.00524014
0.00591774
0.00646994
0.00682224
0.00698179
0.00683328
-5.50266e-05
-9.83342e-05
-4.54468e-05
4.3485e-05
0.000181356
0.000371078
0.00061816
0.000929468
0.00131252
0.00177491
0.00232297
0.00295928
0.00367943
0.00446727
0.00528323
0.00606092
0.00670302
0.00709842
0.00725151
0.00701448
-0.000248072
-0.000296618
-0.000248763
-0.000168546
-4.20187e-05
0.000134195
0.000366703
0.000664107
0.00103655
0.00149552
0.00205292
0.00271852
0.00349486
0.00437293
0.00531534
0.00624483
0.00703124
0.00750083
0.00763753
0.00724482
-0.00051367
-0.000567416
-0.000526685
-0.0004582
-0.000347166
-0.000189807
2.15157e-05
0.000297122
0.000649923
0.00109574
0.00165312
0.00234119
0.00317413
0.00415687
0.00526221
0.0064063
0.0074165
0.00801538
0.00811755
0.00745558
-0.000848522
-0.000908048
-0.00087665
-0.000823535
-0.000733365
-0.000602296
-0.000422106
-0.00018129
0.000135288
0.000547397
0.00108022
0.00176458
0.00263298
0.00370332
0.00497836
0.00639133
0.00773115
0.00856632
0.00861309
0.0075395
-0.00124837
-0.00131463
-0.0012949
-0.00126128