/*--------------------------------*- C++ -*----------------------------------*\
  =========                 |
  \\      /  F ield         | OpenFOAM: The Open Source CFD Toolbox
   \\    /   O peration     | Website:  https://openfoam.org
    \\  /    A nd           | Version:  10
     \\/     M anipulation  |
\*---------------------------------------------------------------------------*/
FoamFile
{
    format      ascii;
    class       volScalarField;
    location    "8.425";
    object      p;
}
// * * * * * * * * * * * * * * * * * * * * * * * * * * * * * * * * * * * * * //

dimensions      [0 2 -2 0 0 0 0];

internalField   nonuniform List<scalar> 
496
(
26.577
26.5147
22.9667
16.221
27.4378
27.7885
23.1308
16.3404
33.0767
30.3226
21.1893
9.68086
41.3244
38.1701
33.4773
16.3417
7.35982
-1.83628
6.91731
-2.24971
-6.66714
-11.1214
-41.6073
-68.0819
-7.95171
-10.6162
-10.8569
-10.2502
-9.1544
-13.6055
-13.9229
-12.3952
-2.19966
0.0283661
-1.52142
-5.09457
-40.5011
-13.4671
7.54688
-0.866661
-10.4969
-11.8146
-13.8696
-15.8611
-17.2011
-17.597
-17.0617
-16.1358
-15.1045
-14.1571
-13.1728
-12.1958
-11.3223
-10.4733
-9.62931
-8.97324
-8.39532
-7.75413
-6.87319
-5.97078
-5.20525
-4.39318
-3.60016
-2.87923
-2.55473
-2.41049
-2.52317
-2.68402
-2.78832
-2.90557
-2.74644
-2.51824
-2.07224
-1.71963
-1.24278
-0.799433
-0.0982801
0.476612
0.614204
0.330358
-12.3144
-13.9171
-16.2062
-17.8061
-18.3811
-18.0684
-17.2788
-16.3781
-15.3095
-14.2109
-13.0919
-12.2029
-11.2943
-10.3414
-9.42427
-8.81481
-8.25437
-7.63456
-6.82785
-5.99676
-5.17211
-4.26547
-3.3582
-2.6344
-2.29592
-2.19622
-2.38694
-2.52919
-2.93271
-3.00594
-2.87224
-2.6458
-2.21622
-1.86516
-1.23219
-0.439442
0.210737
0.808061
0.906153
0.59831
-9.70828
-14.236
-17.3536
-18.7448
-19.4709
-18.9798
-17.9029
-16.7488
-15.7004
-14.4459
-13.3464
-12.4345
-11.3227
-10.1776
-9.44697
-9.15968
-8.80152
-8.14845
-7.12453
-6.12971
-4.89742
-3.78686
-2.92657
-2.25249
-1.93412
-2.1921
-2.76149
-3.43647
-3.93811
-4.00442
-3.78776
-2.98268
-2.38112
-1.59486
-0.696285
0.221034
0.783918
1.00945
0.933877
0.268418
-8.39562
-13.6379
-17.1125
-19.2552
-20.7199
-20.8468
-18.5028
-16.7619
-16.2053
-14.6451
-13.2201
-11.8202
-10.3687
-9.20421
-8.88016
-8.95611
-9.01504
-8.6364
-7.77073
-6.89362
-5.20333
-3.39769
-1.38498
-0.427671
-0.172663
-0.998096
-1.94929
-3.06213
-4.36203
-4.65251
-4.65883
-3.91793
-3.55856
-2.34829
-0.995689
0.610674
2.83175
3.32235
3.45798
1.65064
46.7161
48.3383
62.3215
73.6126
47.9179
49.7506
64.1891
77.1045
-35.6909
-31.9513
-20.9811
-3.88648
-28.861
-48.0615
-22.3503
-8.88726
-14.105
-12.9535
-16.5692
-23.6816
-22.7481
-20.6165
-19.0472
-19.657
-18.0677
-14.9382
-13.2274
-11.8281
-10.6951
-9.76433
-9.0607
-8.59281
-8.35161
-7.84473
-7.09548
-6.48478
-5.40436
-4.15354
-3.10808
-2.446
-2.21506
-1.86821
-2.21193
-2.74441
-3.53187
-3.95884
-3.88199
-3.89113
-2.86021
-1.60449
-1.10269
0.0457989
0.845054
1.15243
1.34588
0.624715
-12.4176
-10.3272
-16.4587
-18.8221
-20.8511
-23.3468
-20.3693
-17.4808
-17.6009
-15.3745
-14.3734
-13.1639
-11.5768
-9.947
-8.63732
-7.90057
-7.00396
-5.76996
-5.6032
-5.7193
-5.49381
-5.31902
-5.49144
-5.34319
-4.61775
-3.67254
-2.79301
-2.00891
-1.22943
-0.875304
-1.20396
-1.42005
-1.01946
-0.868357
-1.18607
-1.23502
-1.11467
-1.20906
-1.19978
-0.431624
43.9532
41.5481
38.2443
25.2436
37.0819
35.2519
27.5444
18.2586
32.7592
33.2841
29.5506
23.5867
32.159
32.2434
28.9607
23.0904
-21.3794
-42.994
4.78493
-1.34221
15.1757
5.88444
15.0208
5.65916
-17.2001
-16.2225
-16.2436
-6.7483
2.43132
-3.37317
-8.08718
-7.12562
-1.98671
-8.80373
-13.8206
-14.8512
-2.01019
-7.6431
-10.7841
-11.6409
-6.66584
-11.3561
-16.0481
-18.852
-18.3866
-18.7383
-19.7796
-19.2977
-17.3463
-15.6807
-14.06
-13.0231
-11.5976
-10.1734
-8.78812
-7.38753
-6.19668
-5.1627
-4.77982
-5.06387
-5.93376
-6.34415
-6.63267
-6.34128
-5.78192
-4.18609
-2.26129
-0.0487305
1.64821
2.02315
2.28632
0.682118
0.126724
-0.670319
-1.33996
-2.08692
-2.55348
-2.18584
-2.34434
-0.969071
-7.38335
-11.6863
-15.8559
-18.3437
-19.0432
-18.7457
-18.2863
-17.7666
-16.7731
-15.4614
-13.9893
-12.7678
-11.5161
-10.1387
-9.00132
-7.93835
-7.03749
-6.36994
-5.92925
-5.66974
-5.81638
-5.86595
-5.80862
-5.30385
-4.47844
-3.27197
-2.01955
-1.03344
-0.443513
-0.0401452
0.597456
0.211591
-0.308665
-0.742155
-1.28066
-1.53533
-1.7623
-1.51811
-1.00394
-0.275806
-13.5295
-13.2445
-14.9541
-16.9731
-17.934
-18.0505
-17.6695
-16.9442
-16.006
-14.8955
-13.6993
-12.5264
-11.4604
-10.2768
-9.14161
-8.14817
-7.38102
-6.60539
-6.05064
-5.68859
-5.39927
-5.18023
-4.93197
-4.82046
-4.37447
-3.69539
-2.71572
-1.75803
-0.873839
-0.0925473
0.191131
0.290943
-0.0381213
-0.327045
-0.65745
-0.689865
-0.677718
-0.66567
-0.606994
-0.461109
-11.0887
-11.0681
-12.426
-14.62
-16.648
-17.6386
-17.6122
-16.8707
-15.8864
-14.7666
-13.6057
-12.511
-11.488
-10.3741
-9.12546
-8.15858
-7.56706
-7.00968
-6.44589
-5.8651
-5.41797
-5.0671
-4.81335
-4.69238
-4.25834
-3.60323
-2.59011
-1.70961
-0.964847
-0.340085
-0.0846714
0.120747
-0.12488
-0.426749
-0.472412
-0.500292
-0.43369
-0.55478
-0.515508
-0.271056
)
;

boundaryField
{
    inlet
    {
        type            zeroGradient;
    }
    outlet
    {
        type            fixedValue;
        value           uniform 0;
    }
    obstacle
    {
        type            zeroGradient;
    }
    upperWall
    {
        type            zeroGradient;
    }
    lowerWall
    {
        type            zeroGradient;
    }
    frontAndBack
    {
        type            empty;
    }
}


// ************************************************************************* //
