/*--------------------------------*- C++ -*----------------------------------*\
  =========                 |
  \\      /  F ield         | OpenFOAM: The Open Source CFD Toolbox
   \\    /   O peration     | Website:  https://openfoam.org
    \\  /    A nd           | Version:  10
     \\/     M anipulation  |
\*---------------------------------------------------------------------------*/
FoamFile
{
    format      ascii;
    class       surfaceScalarField;
    location    "8.425";
    object      phi;
}
// * * * * * * * * * * * * * * * * * * * * * * * * * * * * * * * * * * * * * //

dimensions      [0 3 -1 0 0 0 0];

internalField   nonuniform List<scalar> 
928
(
0.0963432
0.00365677
0.103445
-0.00710189
0.107691
-0.00424566
-0.00904484
0.116736
0.0951411
0.0085157
0.106636
-0.0185964
0.103579
-0.00118916
-0.0190786
0.113613
0.0962022
0.0123135
0.10905
-0.0314447
0.105388
0.00247354
-0.040046
0.126355
0.102737
0.00957626
0.0939311
-0.0226384
0.0990245
-0.00261985
0.150518
-0.0915397
0.111915
0.00482049
-0.0149335
0.126849
0.110057
0.00837632
-0.039719
0.134843
0.128789
0.00594195
-0.0429366
0.132007
0.15646
0.113524
0.12498
0.00186817
0.123646
0.00133411
0.124374
-0.000727708
-0.00235122
0.126725
0.134552
0.00215837
0.130034
0.00585291
0.129141
0.000165319
-0.00554818
0.132337
0.130407
0.0037581
0.129694
0.00656653
0.130634
-0.000775013
-0.00539002
0.130476
0.105905
0.0113771
0.0958317
0.0166394
0.105631
-0.0105738
0.0951048
0.00513572
0.129489
-0.00276341
0.132105
-0.00261585
0.133328
-0.00122361
0.133873
-0.000544649
0.133035
0.000837651
0.132361
0.000674245
0.131289
0.00107148
0.130193
0.00109681
0.128847
0.0013461
0.127671
0.00117562
0.126508
0.00116296
0.125431
0.00107741
0.124079
0.00135113
0.122865
0.00121491
0.121691
0.00117318
0.120424
0.00126686
0.11914
0.00128447
0.117388
0.00175233
0.115921
0.00146691
0.113996
0.00192443
0.112983
0.00101304
0.111968
0.00101534
0.112249
-0.000280622
0.112721
-0.000472652
0.113874
-0.0011523
0.115097
-0.00122377
0.115618
-0.000520875
0.115809
-0.000191263
0.114377
0.00143283
0.112599
0.00177734
0.109142
0.00345776
0.106094
0.00304718
0.102823
0.00327154
0.100433
0.00238936
0.0994222
0.0010112
0.0989166
0.000505634
0.100971
-0.00205397
0.102744
-0.00177298
0.106098
-0.0033546
-0.0020288
0.135679
-0.00610503
0.1377
-0.0046372
0.138434
-0.00195702
0.13956
-0.00167093
0.139984
0.000413735
0.139991
0.000667712
0.138461
0.0026009
0.137649
0.00190929
0.136674
0.00232062
0.135845
0.00200431
0.134783
0.0022253
0.133752
0.00210864
0.133119
0.00198371
0.132549
0.0017852
0.13225
0.00147181
0.131232
0.00228574
0.130524
0.00199225
0.128923
0.00335295
0.127969
0.00242091
0.126261
0.00363256
0.125367
0.00190731
0.124455
0.0019268
0.124313
-0.000138322
0.124955
-0.00111496
0.125818
-0.00201503
0.127524
-0.00293008
0.12842
-0.00141654
0.129772
-0.00154334
0.128956
0.00224917
0.128399
0.00233423
0.1264
0.00545665
0.124407
0.00504034
0.121904
0.00577478
0.118601
0.00569145
0.116925
0.00268711
0.115379
0.00205166
0.116088
-0.00276276
0.117059
-0.00274355
0.119529
-0.00582479
-0.00487898
0.131788
-0.00741752
0.131753
-0.00460192
0.134595
-0.0047992
0.13702
-0.00409536
0.136944
0.000489359
0.1358
0.00181142
0.136071
0.00233066
0.136107
0.00187278
0.13512
0.00330724
0.133725
0.0034
0.132576
0.0033738
0.13222
0.00246451
0.132484
0.00171987
0.132779
0.00149041
0.132861
0.00139001
0.132624
0.00252232
0.132079
0.00253774
0.131032
0.00439966
0.129655
0.00379769
0.128329
0.00495896
0.126854
0.00338258
0.125713
0.00306732
0.124614
0.000960571
0.124193
-0.000694045
0.124534
-0.00235537
0.125617
-0.00401342
0.127053
-0.00285311
0.128778
-0.00326776
0.129936
0.00109142
0.130001
0.00226851
0.128799
0.00665932
0.12604
0.00779892
0.122339
0.00947599
0.119033
0.00899779
0.116561
0.00515873
0.1145
0.00411273
0.114182
-0.00244482
0.113825
-0.00238705
0.114886
-0.00688493
-0.00586344
0.0984601
-0.0107728
0.0965808
-0.00272262
0.0989807
-0.00719908
0.102092
-0.00720638
0.101641
0.000940187
0.0973481
0.00610417
0.10123
-0.00155086
0.103287
-0.000184592
0.0996782
0.00691598
0.0988355
0.00424276
0.0994115
0.00279781
0.099698
0.00217796
0.0999387
0.00147919
0.100509
0.000919827
0.101884
1.57921e-05
0.104065
0.000340806
0.105467
0.00113612
0.108343
0.00152315
0.109967
0.00217345
0.11016
0.004766
0.108131
0.00541155
0.105969
0.00522988
0.102509
0.00442013
0.0996981
0.00211711
0.0972034
0.000139334
0.096532
-0.00334201
0.0983381
-0.00465922
0.1009
-0.00583012
0.10611
-0.00411835
0.110356
-0.00197685
0.116574
0.00044113
0.119754
0.00461857
0.123479
0.00575137
0.125474
0.00700231
0.122702
0.00793101
0.118387
0.00842816
0.110255
0.00568634
0.102387
0.0054812
0.095672
-0.000169774
-0.0036952
0.109539
3.77423e-05
0.0887518
-0.00185178
0.0876519
-0.00151992
-0.0038878
0.110566
-0.0105286
0.0880702
0.0206444
0.0873885
-0.000838251
0.0835007
-0.0182024
0.0295795
-0.0332133
0.0316503
0.00779161
-0.0515787
0.0140567
-0.00112937
0.00668893
0.0228906
0.0554156
-0.0170764
0.0278748
-0.0240379
0.0353316
0.00659988
0.00364887
-0.0155511
0.00431917
-0.00339292
-0.00412766
0.00124776
0.0091867
-0.0205207
0.00313333
0.00699356
-0.00629324
0.0155307
-0.00260758
-0.00523652
0.00394706
-0.00673923
0.00834168
0.00252136
0.00978808
0.00279635
0.00994972
0.00263618
0.010138
0.00198966
0.0126599
-0.00104275
0.0167949
-0.00321514
0.0199343
-0.0031236
0.022004
-0.00172891
0.0247844
-0.00164426
0.0267669
-0.000459301
0.0270879
0.00185244
0.0273131
0.0045408
0.0279625
0.00476209
0.0281425
0.00504992
0.0285522
0.00401042
0.0303247
0.000344555
0.0329128
-0.00244869
0.0360812
-0.00651047
0.040168
-0.00874604
0.0442956
-0.00995766
0.0491213
-0.00894405
0.0522489
-0.00510447
0.0537029
-0.00101284
0.0556325
0.00268893
0.0542124
0.00717147
0.0518441
0.00937066
0.0491217
0.0106534
0.0467441
0.0108058
0.0452766
0.00715387
0.0450441
0.00571368
0.0465574
-0.0016831
-0.00562301
0.0195482
0.000232294
0.0132845
0.00287075
0.00759771
0.00693459
-0.00990958
-0.00301346
-0.0113324
0.00841634
0.00185006
0.00234831
0.00173088
-0.00511733
-0.00419293
-0.000815422
-0.00137328
-0.000298294
0.00214469
-0.000721628
0.00587864
-0.00109777
0.0100191
-0.00215083
0.0129163
-0.00393993
0.0135945
-0.00389328
0.013736
-0.00326513
0.0151697
-0.0031626
0.0172264
-0.00370094
0.0183416
-0.0015745
0.0199108
0.000283244
0.0232065
0.0012451
0.0260261
0.0019424
0.0285229
0.00255314
0.0313739
0.00115941
0.0334554
-0.00173686
0.0346624
-0.00365573
0.034626
-0.00647405
0.0336919
-0.00781196
0.0330631
-0.00932883
0.0326116
-0.00849258
0.0332914
-0.00578425
0.0338422
-0.0015636
0.0353662
0.0011649
0.0379423
0.0045954
0.0395137
0.00779921
0.0429139
0.00725319
0.0465379
0.00718172
0.048899
0.00479278
0.0523636
0.00224912
0.052777
-0.0020965
-0.003553
0.10271
-0.013239
0.093685
0.0296697
0.0977262
-0.00487943
0.037282
0.143945
0.0953401
-0.00857905
0.107814
0.0171961
0.102598
0.000335915
0.0180669
0.121813
0.0950426
-0.00362166
0.10515
0.00708882
0.102401
0.00308476
0.00920699
0.111261
0.0963783
0.103467
0.106552
0.115759
0.149134
-0.00518903
0.0461286
0.103005
0.124342
-0.00771788
0.0406079
0.129863
0.108635
-0.00509216
0.0164499
0.132793
0.110667
0.127117
0.11342
0.0124757
0.0985514
-0.00220759
0.0803496
-0.00583603
0.0024998
0.0844496
0.139823
0.00251569
0.135786
0.0018293
0.131766
-0.00181602
-7.72987e-05
0.134343
0.134905
0.000404289
0.135972
0.000761521
0.133876
0.000280085
0.000207355
0.133592
0.127521
0.128282
0.128563
0.12877
0.0814498
0.00323217
0.0817191
0.00260141
0.0844906
0.00416304
0.0798806
0.00159662
0.0852618
0.0030351
0.0864213
0.00118887
0.0836114
-0.00230745
0.0860046
-0.00320869
0.0888315
-0.00312513
0.0917976
-0.00368776
0.0939802
-0.0032804
0.0959278
-0.00409836
0.0963829
-0.00439503
0.0966746
-0.00418501
0.0973345
-0.00392503
0.0965599
-0.002388
0.095002
-0.00214307
0.0938855
-0.000458017
0.0944127
-0.000243908
0.0942376
0.00142015
0.0963086
-0.00012861
0.0991561
-0.000294278
0.10301
-0.00269434
0.105791
-0.00451798
0.107358
-0.00522327
0.106427
-0.00554293
0.102066
-0.00345014
0.0957843
-0.00304757
0.0874787
-0.000186975
0.0818633
-0.000168915
0.0766761
0.00362357
0.0751056
0.00273543
0.076301
0.00340003
0.0803954
0.00370477
0.0857151
0.00193356
0.0910593
0.0018375
0.0986635
-0.00281146
0.103853
-0.00294054
0.108458
-0.00670126
-0.00515269
0.132839
0.00473693
0.131712
0.00372767
0.133284
0.00259081
0.13427
0.000611275
0.137242
6.32297e-05
0.139252
-0.000821837
0.137428
-0.000483106
0.13615
-0.00193097
0.135813
-0.0027875
0.135488
-0.00336315
0.135576
-0.00336816
0.134701
-0.00322325
0.133677
-0.0033711
0.132288
-0.00279575
0.131197
-0.00283424
0.130594
-0.0017855
0.130053
-0.00160135
0.129539
5.56688e-05
0.129508
-0.000212879
0.130023
0.000905248
0.130539
-0.000645113
0.131062
-0.000816721
0.131119
-0.00275156
0.130035
-0.00343396
0.128412
-0.00360034
0.127138
-0.00426871
0.125619
-0.0019318
0.124924
-0.0023521
0.123358
0.00137918
0.122189
0.000999804
0.122137
0.00367598
0.12189
0.0029818
0.122747
0.00254299
0.124352
0.00210015
0.126863
-0.000577801
0.12949
-0.000789596
0.131493
-0.00481408
0.13265
-0.00409727
0.132379
-0.00643025
-0.00480133
0.136522
0.00180644
0.13832
0.00192941
0.13929
0.00162148
0.139607
0.000294029
0.140151
-0.000480595
0.140143
-0.0008144
0.14044
-0.000779728
0.139493
-0.000984173
0.138027
-0.00132099
0.136189
-0.00152596
0.134848
-0.00202668
0.133551
-0.00192658
0.132176
-0.00199591
0.131007
-0.0016268
0.129564
-0.00139135
0.128924
-0.00114543
0.128153
-0.000830452
0.128496
-0.00028704
0.128479
-0.000195742
0.129296
8.83207e-05
0.12914
-0.000489205
0.128972
-0.000649029
0.12799
-0.00176928
0.126569
-0.00201303
0.125204
-0.00223561
0.123052
-0.002116
0.122085
-0.000965448
0.120821
-0.00108787
0.121313
0.000887132
0.121797
0.000516137
0.123693
0.00178017
0.125334
0.0013403
0.126796
0.00108105
0.128464
0.000432573
0.128665
-0.000779468
0.129219
-0.00134379
0.127337
-0.00293167
0.12623
-0.00299012
0.123627
-0.00382773
-0.00230787
0.130576
0.132506
0.134127
0.134421
0.133941
0.133126
0.132347
0.131362
0.130041
0.128515
0.126489
0.124562
0.122566
0.120939
0.119548
0.118403
0.117572
0.117285
0.117089
0.117178
0.116689
0.11604
0.11427
0.112257
0.110022
0.107906
0.10694
0.105852
0.106739
0.107256
0.109036
0.110376
0.111457
0.11189
0.11111
0.109766
0.106835
0.103845
0.100017
)
;

boundaryField
{
    inlet
    {
        type            calculated;
        value           nonuniform List<scalar> 10(-0.1 -0.1 -0.1 -0.1 -0.1 -0.1 -0.1 -0.1 -0.1 -0.1);
    }
    outlet
    {
        type            calculated;
        value           nonuniform List<scalar> 10(0.108127 0.122379 0.11587 0.0935038 0.0484852 0.050707 0.110058 0.132027 0.121134 0.097709);
    }
    obstacle
    {
        type            calculated;
        value           uniform 0;
    }
    upperWall
    {
        type            calculated;
        value           uniform 0;
    }
    lowerWall
    {
        type            calculated;
        value           uniform 0;
    }
    frontAndBack
    {
        type            empty;
        value           nonuniform List<scalar> 0();
    }
}


// ************************************************************************* //
