/*--------------------------------*- C++ -*----------------------------------*\
  =========                 |
  \\      /  F ield         | OpenFOAM: The Open Source CFD Toolbox
   \\    /   O peration     | Website:  https://openfoam.org
    \\  /    A nd           | Version:  10
     \\/     M anipulation  |
\*---------------------------------------------------------------------------*/
FoamFile
{
    format      ascii;
    class       surfaceScalarField;
    location    "7.05";
    object      phi;
}
// * * * * * * * * * * * * * * * * * * * * * * * * * * * * * * * * * * * * * //

dimensions      [0 3 -1 0 0 0 0];

internalField   nonuniform List<scalar> 
760
(
-1.06623e-05
1.06616e-05
-3.4661e-05
2.39987e-05
-6.33795e-05
2.87185e-05
-9.3273e-05
2.98936e-05
-0.00012318
2.99073e-05
-0.00015268
2.94997e-05
-0.000181363
2.86829e-05
-0.000208595
2.72319e-05
-0.000233435
2.48403e-05
-0.000254591
2.11562e-05
-0.000270395
1.58038e-05
-0.000278824
8.42902e-06
-0.000277611
-1.21307e-06
-0.000264479
-1.31325e-05
-0.000237665
-2.68135e-05
-0.000196623
-4.10418e-05
-0.000143138
-5.34851e-05
-8.28608e-05
-6.02774e-05
-2.73776e-05
-5.54832e-05
-2.73776e-05
-2.54669e-05
3.61285e-05
-7.20862e-05
7.0618e-05
-0.000126055
8.26878e-05
-0.000181567
8.54056e-05
-0.000236364
8.47041e-05
-0.000289324
8.24595e-05
-0.000339439
7.87978e-05
-0.000385464
7.32564e-05
-0.000425779
6.51556e-05
-0.000458324
5.37014e-05
-0.000480562
3.80419e-05
-0.000489522
1.73894e-05
-0.00048219
-8.54532e-06
-0.000455297
-4.0026e-05
-0.000406613
-7.5497e-05
-0.00033572
-0.000111935
-0.000245617
-0.000143588
-0.000145104
-0.00016079
-5.16871e-05
-0.0001489
-7.90647e-05
-3.19711e-05
6.80996e-05
-8.87656e-05
0.000127413
-0.000153767
0.000147689
-0.000220135
0.000151773
-0.000285256
0.000149826
-0.00034783
0.000145034
-0.000406714
0.000137681
-0.000460543
0.000127086
-0.000507581
0.000112193
-0.000545609
9.173e-05
-0.000571896
6.43283e-05
-0.000583236
2.87297e-05
-0.000575723
-1.60586e-05
-0.000545484
-7.02642e-05
-0.00048934
-0.000131641
-0.000406028
-0.000195247
-0.000298368
-0.000251248
-0.000176636
-0.000282523
-6.26155e-05
-0.00026292
-0.00014168
-3.44418e-05
0.000102541
-9.57014e-05
0.000188672
-0.000165604
0.000217592
-0.000236871
0.00022304
-0.00030688
0.000219834
-0.000374424
0.000212579
-0.000438491
0.000201748
-0.000497861
0.000186456
-0.000550931
0.000165262
-0.000595548
0.000136347
-0.000628858
9.76387e-05
-0.000647225
4.70964e-05
-0.000646204
-1.70795e-05
-0.000620196
-9.62717e-05
-0.000564009
-0.000187829
-0.00047404
-0.000285216
-0.000351636
-0.000373652
-0.000208532
-0.000425628
-7.23997e-05
-0.000399052
-0.00021408
-3.54173e-05
0.000137959
-9.90888e-05
0.000252344
-0.000171875
0.000290378
-0.00024627
0.000297435
-0.000319765
0.000293329
-0.000391395
0.000284208
-0.000460439
0.000270792
-0.000526002
0.00025202
-0.000586795
0.000226055
-0.000640897
0.000190449
-0.000685457
0.000142198
-0.000716333
7.79723e-05
-0.000728181
-5.23145e-06
-0.00071311
-0.000111342
-0.000662621
-0.000238318
-0.000568841
-0.000378996
-0.000429356
-0.000513136
-0.000256243
-0.000598741
-8.66797e-05
-0.000568615
-0.00030076
-3.60035e-05
0.000173962
-0.000101593
0.000317933
-0.000176862
0.000365647
-0.000254108
0.000374682
-0.000330997
0.000370217
-0.000406896
0.000360108
-0.000481517
0.000345414
-0.00055447
0.000324972
-0.000625005
0.00029659
-0.000691704
0.000257148
-0.000752028
0.000202522
-0.000801672
0.000127617
-0.000833965
2.70611e-05
-0.000839002
-0.000106305
-0.000803021
-0.000274299
-0.000711113
-0.000470904
-0.000552738
-0.00067151
-0.00033579
-0.00081569
-0.000111276
-0.000793129
-0.000412035
-3.65376e-05
0.0002105
-0.000104053
0.000385449
-0.000181838
0.000443431
-0.000261962
0.000454807
-0.000342293
0.000450548
-0.000422618
0.000440433
-0.00050322
0.000426015
-0.000584429
0.000406182
-0.000666359
0.00037852
-0.000748538
0.000339326
-0.000829315
0.000283299
-0.000904926
0.000203227
-0.000967966
9.01015e-05
-0.00100699
-6.728e-05
-0.00100226
-0.000279035
-0.000928115
-0.000545044
-0.000757322
-0.000842304
-0.000479821
-0.00109319
-0.000160703
-0.00111225
-0.000572739
-3.70811e-05
0.000247581
-0.000106632
0.000455001
-0.000186974
0.000523773
-0.000269871
0.000537703
-0.000353398
0.000534075
-0.000437833
0.000524868
-0.00052417
0.000512352
-0.000613697
0.000495709
-0.000707784
0.000472607
-0.000807526
0.000439068
-0.000913098
0.000388871
-0.0010226
0.000312733
-0.00113007
0.000197568
-0.00122494
2.75907e-05
-0.00128265
-0.000221322
-0.00126468
-0.000563019
-0.00111092
-0.000996061
-0.000758628
-0.00144548
-0.000272735
-0.00159814
-0.000845474
-3.76695e-05
0.00028525
-0.000109392
0.000526723
-0.000192229
0.00060661
-0.000277521
0.000622995
-0.000363539
0.000620093
-0.000451081
0.00061241
-0.000541947
0.000603217
-0.000638601
0.000592363
-0.000744086
0.000578092
-0.000861847
0.000556829
-0.000995288
0.000522312
-0.00114676
0.000464203
-0.00131566
0.000366465
-0.00149449
0.000206425
-0.00166954
-4.62709e-05
-0.00178291
-0.000449649
-0.00171154
-0.00106743
-0.00127479
-0.00188224
-0.000512807
-0.00236012
-0.00135828
-3.84362e-05
0.000323687
-0.000112569
0.000600856
-0.00019776
0.000691801
-0.000284776
0.000710012
-0.000372049
0.000707365
-0.000460886
0.000701248
-0.000553903
0.000696234
-0.0006548
0.000693261
-0.000768551
0.000691842
-0.000901643
0.000689922
-0.00106223
0.000682896
-0.00125997
0.00066194
-0.00150559
0.000612094
-0.00180895
0.000509777
-0.00216432
0.000309105
-0.00250516
-0.000108808
-0.00257934
-0.000993247
-0.00203489
-0.00242669
-0.000920278
-0.00347473
-0.00227856
-3.97096e-05
0.000363396
-0.000116779
0.000677924
-0.000204194
0.000779217
-0.000292008
0.000797826
-0.000378767
0.000794124
-0.000466231
0.000788712
-0.000557705
0.000787708
-0.000657963
0.000793519
-0.000773768
0.000807647
-0.000914743
0.000830898
-0.00109469
0.000862841
-0.00133359
0.000900843
-0.0016599
0.0009384
-0.00210765
0.000957531
-0.00267945
0.000880905
-0.0032338
0.000445546
-0.00340787
-0.00081918
-0.00277317
-0.00306139
-0.00145378
-0.00479413
-0.00373234
-4.21663e-05
0.000405563
-0.000123272
0.00075903
-0.000212911
0.000868855
-0.000300393
0.000885308
-0.000384409
0.00087814
-0.000467089
0.000871392
-0.000552151
0.00087277
-0.000644928
0.000886296
-0.000753251
0.00091597
-0.000888963
0.00096661
-0.00107045
0.00104433
-0.00132664
0.00115703
-0.00169978
0.00131154
-0.00223022
0.00148798
-0.00289806
0.00154874
-0.00348748
0.00103497
-0.00363161
-0.000675051
-0.0030834
-0.0036096
-0.00189765
-0.00597988
-0.00562999
-4.68617e-05
0.000452424
-0.000133958
0.000846127
-0.000226195
0.000961092
-0.000312285
0.000971398
-0.00039108
0.000956935
-0.000465
0.000945312
-0.000537908
0.000945677
-0.000614731
0.000963119
-0.000702727
0.00100397
-0.000813242
0.00107712
-0.000964373
0.00119546
-0.00118401
0.00137666
-0.00151011
0.00163765
-0.00196264
0.0019405
-0.00248753
0.00207364
-0.00289966
0.0014471
-0.003018
-0.00055671
-0.0027595
-0.0038681
-0.00188894
-0.00685044
-0.00751893
-5.70261e-05
0.00050945
-0.000153754
0.000942855
-0.000248226
0.00105556
-0.000330332
0.0010535
-0.000400813
0.00102741
-0.000462499
0.001007
-0.000518128
0.00100131
-0.000571196
0.00101619
-0.000626389
0.00105916
-0.000690589
0.00114132
-0.000774386
0.00127926
-0.000891149
0.00149343
-0.00105623
0.00180273
-0.00126208
0.00214635
-0.00147602
0.00228758
-0.00162573
0.00159681
-0.00173278
-0.000449661
-0.00182526
-0.00377562
-0.00141758
-0.00725812
-0.00893651
-6.95499e-05
0.000579
-0.000179472
0.00105278
-0.000280195
0.00115629
-0.000362219
0.00113553
-0.000424261
0.00108946
-0.000470166
0.0010529
-0.000502994
0.00103413
-0.000524672
0.00103787
-0.00053612
0.00107061
-0.000537469
0.00114267
-0.000528543
0.00127033
-0.000503976
0.00146886
-0.000456051
0.0017548
-0.000363852
0.00205415
-0.000246994
0.00217073
-0.000183172
0.00153299
-0.000275771
-0.000357062
-0.000711478
-0.00333992
-0.000843513
-0.00712609
-0.00978002
-0.000136894
0.000715894
-0.000261473
0.00117736
-0.00034863
0.00124344
-0.000406998
0.0011939
-0.000447487
0.00112995
-0.000473846
0.00107926
-0.000485342
0.00104563
-0.000478928
0.00103145
-0.000450061
0.00104174
-0.00039125
0.00108386
-0.000292395
0.00117148
-0.000136465
0.00131293
9.94861e-05
0.00151885
0.000418404
0.00173523
0.000787017
0.00180211
0.00102579
0.00129422
0.00090198
-0.000233256
0.000167791
-0.00260573
-0.00034506
-0.00661324
-0.0101251
-8.89661e-05
0.00080486
-0.000277873
0.00136626
-0.000406452
0.00137202
-0.000482623
0.00127007
-0.000520643
0.00116797
-0.000530477
0.0010891
-0.000515274
0.00103043
-0.000473549
0.000989727
-0.00040025
0.000968441
-0.000283722
0.000967334
-0.000109089
0.000996844
0.000143805
0.00106003
0.000495871
0.00116678
0.000956376
0.00127472
0.00145876
0.00129973
0.00179162
0.000961354
0.00163462
-7.62509e-05
0.00085145
-0.00182256
0.000173049
-0.00593483
-0.00995203
-0.000383776
0.00118864
-0.000454356
0.00143684
-0.000520886
0.00143855
-0.000578177
0.00132736
-0.000589301
0.00117909
-0.000560334
0.00106013
-0.000496021
0.000966114
-0.000395757
0.000889463
-0.000260602
0.000833286
-8.20459e-05
0.000788778
0.00014742
0.000767378
0.000444456
0.000762998
0.000822469
0.000788771
0.00127553
0.000821665
0.00176872
0.00080654
0.00211372
0.000616349
0.00217391
-0.000136437
0.00172969
-0.00137834
0.000928942
-0.00513409
-0.00902309
-0.00136083
0.00254946
-0.00132689
0.0014029
-0.00107599
0.00118765
-0.000713852
0.000965221
-0.00033017
0.000795408
5.77098e-05
0.000672249
0.000437898
0.000585926
0.000809148
0.000518213
0.00117269
0.000469741
0.00153297
0.000428501
0.00189926
0.000401087
0.00227926
0.000382999
0.00269892
0.000369109
0.00315962
0.000360969
0.00366983
0.000296327
0.00411504
0.000171143
0.00426619
-0.000287587
0.00407371
-0.00118586
0.00256717
-0.00362755
-0.00645592
0.00254946
0.00395237
0.00514002
0.00610524
0.00690065
0.0075729
0.00815883
0.00867704
0.00914678
0.00957528
0.00997637
0.0103594
0.0107285
0.0110894
0.0113858
0.0115569
0.0112693
0.0100835
0.00645592
)
;

boundaryField
{
    movingWall
    {
        type            calculated;
        value           uniform 0;
    }
    fixedWalls
    {
        type            calculated;
        value           uniform 0;
    }
    frontAndBack
    {
        type            empty;
        value           nonuniform List<scalar> 0();
    }
}


// ************************************************************************* //
