/*--------------------------------*- C++ -*----------------------------------*\
  =========                 |
  \\      /  F ield         | OpenFOAM: The Open Source CFD Toolbox
   \\    /   O peration     | Website:  https://openfoam.org
    \\  /    A nd           | Version:  10
     \\/     M anipulation  |
\*---------------------------------------------------------------------------*/
FoamFile
{
    format      ascii;
    class       volVectorField;
    location    "6.5";
    object      U;
}
// * * * * * * * * * * * * * * * * * * * * * * * * * * * * * * * * * * * * * //

dimensions      [0 1 -1 0 0 0 0];

internalField   nonuniform List<vector> 
400
(
(-0.000113603 0.000103959 0)
(-0.000918576 0.000347746 0)
(-0.00228509 0.000433279 0)
(-0.00365718 0.000454537 0)
(-0.00504599 0.000458714 0)
(-0.0064119 0.000459387 0)
(-0.00773456 0.000455767 0)
(-0.00898968 0.000442976 0)
(-0.0101413 0.000415037 0)
(-0.0111403 0.000365346 0)
(-0.0119233 0.000287077 0)
(-0.0124134 0.000174169 0)
(-0.0125223 2.22273e-05 0)
(-0.0121581 -0.000171066 0)
(-0.0112397 -0.000397632 0)
(-0.009717 -0.000638367 0)
(-0.00760752 -0.000855217 0)
(-0.00508165 -0.000982789 0)
(-0.00224086 -0.000909317 0)
(-0.000365604 -0.000410699 0)
(-0.000385301 0.000930608 0)
(-0.00206194 0.00197445 0)
(-0.00462141 0.00233174 0)
(-0.00717973 0.00240395 0)
(-0.00973329 0.00237802 0)
(-0.0122023 0.00231027 0)
(-0.014537 0.00220305 0)
(-0.0166866 0.00204226 0)
(-0.0185873 0.00180878 0)
(-0.0201592 0.00148132 0)
(-0.0213052 0.001038 0)
(-0.021913 0.000459093 0)
(-0.0218609 -0.000267757 0)
(-0.0210224 -0.00113359 0)
(-0.0192894 -0.0021019 0)
(-0.016604 -0.00309363 0)
(-0.0130131 -0.00396192 0)
(-0.00877582 -0.00445314 0)
(-0.0040656 -0.00414537 0)
(-0.00079158 -0.00217707 0)
(-0.000498428 0.00240345 0)
(-0.00255766 0.00458903 0)
(-0.00563711 0.00531485 0)
(-0.00869168 0.00543499 0)
(-0.0117223 0.00533103 0)
(-0.0146367 0.00511901 0)
(-0.0173778 0.00480917 0)
(-0.0198897 0.0043791 0)
(-0.0221028 0.00379552 0)
(-0.0239315 0.00302022 0)
(-0.0252725 0.00201387 0)
(-0.0260037 0.000741891 0)
(-0.0259807 -0.000814752 0)
(-0.0250488 -0.00264187 0)
(-0.0230706 -0.00466739 0)
(-0.0199523 -0.00673345 0)
(-0.015717 -0.0085428 0)
(-0.0106517 -0.009573 0)
(-0.00494962 -0.00896293 0)
(-0.000963368 -0.00495012 0)
(-0.000533799 0.00395517 0)
(-0.00275406 0.00735271 0)
(-0.00606928 0.00845169 0)
(-0.00934609 0.00860896 0)
(-0.0125986 0.00841888 0)
(-0.0157345 0.00805985 0)
(-0.0187015 0.00754991 0)
(-0.0214488 0.00685833 0)
(-0.0239118 0.00593702 0)
(-0.0260076 0.00472824 0)
(-0.0276306 0.00317036 0)
(-0.028648 0.00120746 0)
(-0.0288957 -0.00119555 0)
(-0.0281737 -0.00403888 0)
(-0.0262717 -0.00723025 0)
(-0.0230105 -0.0105393 0)
(-0.0183324 -0.0135004 0)
(-0.0125297 -0.0152543 0)
(-0.0058102 -0.0143765 0)
(-0.00109972 -0.00800974 0)
(-0.00054328 0.00558295 0)
(-0.00285222 0.0102682 0)
(-0.00631721 0.0117606 0)
(-0.00974233 0.0119612 0)
(-0.0131562 0.0116931 0)
(-0.0164716 0.0112016 0)
(-0.0196473 0.0105139 0)
(-0.0226448 0.00959127 0)
(-0.0254113 0.00836979 0)
(-0.0278731 0.00676827 0)
(-0.0299261 0.00469382 0)
(-0.0314258 0.00205346 0)
(-0.0321803 -0.00122687 0)
(-0.0319267 -0.00518691 0)
(-0.0303465 -0.00973834 0)
(-0.0271151 -0.0145935 0)
(-0.0220107 -0.0190904 0)
(-0.0152691 -0.02192 0)
(-0.00709195 -0.0208615 0)
(-0.00129969 -0.0116285 0)
(-0.000547679 0.0072555 0)
(-0.00293397 0.0132984 0)
(-0.00653968 0.0152094 0)
(-0.0101096 0.0154666 0)
(-0.013687 0.0151392 0)
(-0.017193 0.0145451 0)
(-0.0206023 0.0137236 0)
(-0.0238948 0.0126294 0)
(-0.0270376 0.011182 0)
(-0.0299758 0.00927267 0)
(-0.0326168 0.00676676 0)
(-0.0348116 0.00351157 0)
(-0.0363496 -0.000643878 0)
(-0.0368903 -0.00579411 0)
(-0.035964 -0.0119424 0)
(-0.0330276 -0.0187795 0)
(-0.0275672 -0.0254258 0)
(-0.0196122 -0.0299671 0)
(-0.00922969 -0.0289781 0)
(-0.00165114 -0.0161222 0)
(-0.000552238 0.00896982 0)
(-0.00302304 0.0164436 0)
(-0.00678245 0.0188009 0)
(-0.0105088 0.0191304 0)
(-0.0142612 0.0187664 0)
(-0.0179716 0.018108 0)
(-0.0216352 0.0172108 0)
(-0.0252579 0.0160262 0)
(-0.0288373 0.014459 0)
(-0.0323526 0.0123715 0)
(-0.0357443 0.00957833 0)
(-0.0388861 0.00584585 0)
(-0.0415357 0.000909152 0)
(-0.0433147 -0.00546239 0)
(-0.0436074 -0.0134445 0)
(-0.0415331 -0.0228168 0)
(-0.0361066 -0.0325379 0)
(-0.0268163 -0.0399344 0)
(-0.013146 -0.0396928 0)
(-0.00236817 -0.0221346 0)
(-0.000557398 0.010732 0)
(-0.00312387 0.019718 0)
(-0.00705318 0.0225496 0)
(-0.0109441 0.0229638 0)
(-0.0148738 0.0225838 0)
(-0.0187865 0.0219005 0)
(-0.0227029 0.020993 0)
(-0.026663 0.0198167 0)
(-0.0307078 0.0182683 0)
(-0.0348706 0.0161853 0)
(-0.0391551 0.013331 0)
(-0.043495 0.00937802 0)
(-0.0476902 0.00390527 0)
(-0.0513658 -0.00358086 0)
(-0.053788 -0.0135006 0)
(-0.0537375 -0.0259742 0)
(-0.0495454 -0.0400453 0)
(-0.039472 -0.0523441 0)
(-0.0211551 -0.0546255 0)
(-0.0040695 -0.0311138 0)
(-0.000563776 0.0125491 0)
(-0.00323943 0.0231372 0)
(-0.00735417 0.026466 0)
(-0.0114095 0.0269676 0)
(-0.0155029 0.0265831 0)
(-0.0195919 0.0259082 0)
(-0.0237264 0.0250557 0)
(-0.0279876 0.0239965 0)
(-0.0324737 0.0226334 0)
(-0.0372952 0.0207946 0)
(-0.0425591 0.0182047 0)
(-0.0483301 0.0144444 0)
(-0.0545611 0.00890726 0)
(-0.0609844 0.000792945 0)
(-0.066972 -0.0107575 0)
(-0.0711991 -0.0265404 0)
(-0.0711285 -0.046398 0)
(-0.0623174 -0.0671683 0)
(-0.0379599 -0.0765451 0)
(-0.00820328 -0.0462998 0)
(-0.000574506 0.014431 0)
(-0.00337953 0.0267181 0)
(-0.00769705 0.0305553 0)
(-0.0119076 0.0311295 0)
(-0.0161331 0.0307342 0)
(-0.0203438 0.0300854 0)
(-0.0246202 0.0293419 0)
(-0.0290885 0.0285056 0)
(-0.0339134 0.027508 0)
(-0.0393051 0.0261997 0)
(-0.0455188 0.0243083 0)
(-0.0528365 0.0213702 0)
(-0.0615097 0.0166392 0)
(-0.0716693 0.0090172 0)
(-0.0832886 -0.00295725 0)
(-0.0955348 -0.0211159 0)
(-0.104664 -0.0479526 0)
(-0.100175 -0.0833639 0)
(-0.0676462 -0.110329 0)
(-0.0163768 -0.0746177 0)
(-0.000597498 0.0163983 0)
(-0.00356764 0.0304865 0)
(-0.0081132 0.0348203 0)
(-0.0124622 0.0354234 0)
(-0.0167693 0.0349822 0)
(-0.0210161 0.0343494 0)
(-0.0253117 0.0337421 0)
(-0.0298247 0.0332108 0)
(-0.0347834 0.0327444 0)
(-0.0405024 0.0322625 0)
(-0.0474125 0.0315705 0)
(-0.0560973 0.0302788 0)
(-0.067319 0.0276871 0)
(-0.0820493 0.0226567 0)
(-0.101463 0.013304 0)
(-0.125883 -0.00444385 0)
(-0.14828 -0.0395889 0)
(-0.146839 -0.101311 0)
(-0.103363 -0.162885 0)
(-0.0288698 -0.125051 0)
(-0.000649449 0.018494 0)
(-0.00385077 0.034491 0)
(-0.00866631 0.0392769 0)
(-0.0131306 0.0398239 0)
(-0.0174505 0.0392576 0)
(-0.0216177 0.0385852 0)
(-0.0257646 0.0380934 0)
(-0.03009 0.037897 0)
(-0.0348669 0.0380734 0)
(-0.040491 0.0386714 0)
(-0.047549 0.0396812 0)
(-0.056926 0.0409793 0)
(-0.0699512 0.0422466 0)
(-0.0886224 0.0427579 0)
(-0.115697 0.0401084 0)
(-0.15131 0.0248232 0)
(-0.181702 -0.0247989 0)
(-0.175 -0.129246 0)
(-0.127902 -0.234867 0)
(-0.0439665 -0.204338 0)
(-0.000760638 0.0207786 0)
(-0.00430479 0.0387419 0)
(-0.00945988 0.0438361 0)
(-0.0140187 0.0441782 0)
(-0.0182706 0.0433793 0)
(-0.0222156 0.0425863 0)
(-0.0260062 0.0421383 0)
(-0.0298491 0.0422214 0)
(-0.0340154 0.0430229 0)
(-0.0389112 0.0447673 0)
(-0.0451757 0.0477363 0)
(-0.0538379 0.0522847 0)
(-0.0665152 0.0587963 0)
(-0.0855669 0.0669402 0)
(-0.114144 0.0724203 0)
(-0.150199 0.0569729 0)
(-0.176013 -0.0125141 0)
(-0.1619 -0.160188 0)
(-0.133191 -0.303302 0)
(-0.0522854 -0.306962 0)
(-0.00101683 0.0235242 0)
(-0.00514486 0.043739 0)
(-0.0107158 0.0490817 0)
(-0.0152738 0.0490561 0)
(-0.0193209 0.0477534 0)
(-0.0228939 0.046545 0)
(-0.026135 0.0458637 0)
(-0.0292105 0.0459734 0)
(-0.032332 0.047167 0)
(-0.0358082 0.0498526 0)
(-0.0401283 0.0546367 0)
(-0.0460821 0.0623808 0)
(-0.0549234 0.0741169 0)
(-0.0679087 0.0890864 0)
(-0.0871681 0.0999121 0)
(-0.108989 0.080986 0)
(-0.124899 -0.0032044 0)
(-0.112723 -0.174125 0)
(-0.115325 -0.347918 0)
(-0.0420094 -0.406662 0)
(-0.00138574 0.0268854 0)
(-0.00612588 0.0482085 0)
(-0.0123894 0.052947 0)
(-0.0171187 0.0519895 0)
(-0.0210469 0.0501804 0)
(-0.0241282 0.0487614 0)
(-0.0265772 0.0480274 0)
(-0.0285475 0.0481738 0)
(-0.0301453 0.0495155 0)
(-0.0314689 0.052567 0)
(-0.0326754 0.0581463 0)
(-0.0339202 0.067357 0)
(-0.0356838 0.0814486 0)
(-0.0374467 0.0987487 0)
(-0.0408991 0.110998 0)
(-0.0418408 0.0898948 0)
(-0.0485851 0.00258538 0)
(-0.0424778 -0.1669 0)
(-0.0762255 -0.363557 0)
(-0.0223176 -0.475027 0)
(-0.00345757 0.0299246 0)
(-0.010511 0.0565224 0)
(-0.0161817 0.0611921 0)
(-0.0200619 0.0597263 0)
(-0.0229239 0.0564768 0)
(-0.0251338 0.0536105 0)
(-0.0267423 0.0515696 0)
(-0.0276971 0.0505978 0)
(-0.0278628 0.0509794 0)
(-0.0270238 0.0531674 0)
(-0.0249146 0.0579568 0)
(-0.0209048 0.066312 0)
(-0.0149986 0.0794675 0)
(-0.00466603 0.095251 0)
(0.00666466 0.106777 0)
(0.0245295 0.0874751 0)
(0.0258138 0.00748113 0)
(0.0271138 -0.141023 0)
(-0.0366444 -0.349799 0)
(-0.00355997 -0.508923 0)
(-0.00112304 0.0438202 0)
(-0.00851595 0.0588473 0)
(-0.0191814 0.0597683 0)
(-0.023402 0.0553632 0)
(-0.0269576 0.052163 0)
(-0.0286602 0.0499234 0)
(-0.0292373 0.0484496 0)
(-0.0286923 0.0476414 0)
(-0.0269159 0.04768 0)
(-0.0235448 0.0488713 0)
(-0.0181081 0.051933 0)
(-0.00928877 0.0573039 0)
(0.00304985 0.0661739 0)
(0.0226177 0.0767408 0)
(0.0438195 0.083511 0)
(0.0740377 0.068618 0)
(0.0787085 0.00543759 0)
(0.0788619 -0.107125 0)
(-0.0010359 -0.319223 0)
(0.0221623 -0.517519 0)
(-0.0124673 0.0326584 0)
(-0.0241331 0.0798952 0)
(-0.0234736 0.0789995 0)
(-0.0295023 0.073863 0)
(-0.0312374 0.0665595 0)
(-0.0312111 0.0604146 0)
(-0.0292706 0.0553687 0)
(-0.0257131 0.0513837 0)
(-0.0206172 0.0484463 0)
(-0.0136555 0.0464097 0)
(-0.00495267 0.045684 0)
(0.00718299 0.0463651 0)
(0.0222413 0.049457 0)
(0.0440759 0.0534593 0)
(0.0649336 0.0571779 0)
(0.0987884 0.0481557 0)
(0.102466 0.0102393 0)
(0.122182 -0.0691657 0)
(0.0519198 -0.284888 0)
(0.0600427 -0.500289 0)
(-0.0773716 0.0965252 0)
(-0.0631031 0.0592273 0)
(-0.0655479 0.0598955 0)
(-0.0440075 0.0532215 0)
(-0.0268895 0.0463128 0)
(-0.00701986 0.041159 0)
(0.0117191 0.0374104 0)
(0.0306608 0.0342224 0)
(0.0481142 0.0318543 0)
(0.0667997 0.0296139 0)
(0.0829802 0.0283117 0)
(0.103375 0.0273412 0)
(0.118296 0.0271924 0)
(0.146947 0.027585 0)
(0.158038 0.0241262 0)
(0.203962 0.0172252 0)
(0.197256 -0.017046 0)
(0.234296 -0.0785226 0)
(0.162137 -0.259371 0)
(0.126213 -0.439593 0)
(0.119653 0.140791 0)
(0.152384 0.0861911 0)
(0.229131 0.0635928 0)
(0.284556 0.0481249 0)
(0.32579 0.037448 0)
(0.364147 0.0296506 0)
(0.392689 0.0241948 0)
(0.423929 0.0201851 0)
(0.443816 0.0172568 0)
(0.472327 0.0150504 0)
(0.485004 0.0133009 0)
(0.514741 0.0122207 0)
(0.519824 0.0110733 0)
(0.553883 0.0105625 0)
(0.548927 0.00887098 0)
(0.584692 0.00482671 0)
(0.555543 -0.00452638 0)
(0.563299 -0.0277086 0)
(0.426992 -0.072783 0)
(0.276121 -0.152117 0)
)
;

boundaryField
{
    movingWall
    {
        type            fixedValue;
        value           uniform (1 0 0);
    }
    fixedWalls
    {
        type            noSlip;
    }
    frontAndBack
    {
        type            empty;
    }
}


// ************************************************************************* //
