/*--------------------------------*- C++ -*----------------------------------*\
  =========                 |
  \\      /  F ield         | OpenFOAM: The Open Source CFD Toolbox
   \\    /   O peration     | Website:  https://openfoam.org
    \\  /    A nd           | Version:  10
     \\/     M anipulation  |
\*---------------------------------------------------------------------------*/
FoamFile
{
    format      ascii;
    class       volVectorField;
    location    "4.3";
    object      U;
}
// * * * * * * * * * * * * * * * * * * * * * * * * * * * * * * * * * * * * * //

dimensions      [0 1 -1 0 0 0 0];

internalField   nonuniform List<vector> 
8000
(
(-5.28259e-05 6.52367e-05 -1.72163e-05)
(-0.000433182 0.000165996 1.76007e-05)
(-0.0010553 0.000190366 2.8699e-05)
(-0.001652 0.000193191 3.35194e-05)
(-0.00224759 0.000190731 3.29227e-05)
(-0.00281791 0.000185862 2.91202e-05)
(-0.00334916 0.000177945 2.30806e-05)
(-0.00382737 0.000165676 1.51123e-05)
(-0.00423621 0.000147651 5.06654e-06)
(-0.00455747 0.000122573 -7.20708e-06)
(-0.0047708 8.9782e-05 -2.11256e-05)
(-0.00485448 4.92104e-05 -3.64454e-05)
(-0.00478692 2.33942e-07 -5.30174e-05)
(-0.0045498 -5.63615e-05 -7.05031e-05)
(-0.00413151 -0.000117579 -8.76787e-05)
(-0.00352977 -0.000179265 -0.000102676)
(-0.00275894 -0.000235037 -0.000112114)
(-0.00187163 -0.000273755 -0.000110795)
(-0.000861712 -0.000268391 -9.50778e-05)
(-0.000157176 -0.000135128 -3.29435e-05)
(-0.000150799 0.000486313 -6.85347e-05)
(-0.000836365 0.000894261 -3.79965e-05)
(-0.00185807 0.000985316 -2.55848e-05)
(-0.00283673 0.000981197 -1.67783e-05)
(-0.00380095 0.000946618 -1.25692e-05)
(-0.00471277 0.000894394 -1.10236e-05)
(-0.00554874 0.000824179 -1.11671e-05)
(-0.00628669 0.000733062 -1.29211e-05)
(-0.00690222 0.000617745 -1.64673e-05)
(-0.00736883 0.000475227 -2.20321e-05)
(-0.00765788 0.000303595 -2.96852e-05)
(-0.0077413 0.000101564 -3.93993e-05)
(-0.00759175 -0.000128589 -5.13784e-05)
(-0.00718463 -0.000380732 -6.45131e-05)
(-0.00650558 -0.000644173 -7.79241e-05)
(-0.00555439 -0.000902611 -8.9541e-05)
(-0.00435465 -0.00113139 -9.5271e-05)
(-0.00298096 -0.0012869 -8.93182e-05)
(-0.00143075 -0.00126607 -6.85544e-05)
(-0.000298345 -0.000748386 4.36585e-06)
(-0.000178268 0.00118411 -9.15405e-05)
(-0.000961598 0.00200633 -6.2866e-05)
(-0.00211468 0.00217996 -4.98461e-05)
(-0.00321472 0.00215566 -3.91142e-05)
(-0.00429603 0.0020634 -3.26679e-05)
(-0.00531731 0.00192963 -2.86691e-05)
(-0.00625352 0.00175547 -2.61889e-05)
(-0.00708103 0.00153708 -2.52687e-05)
(-0.00777376 0.00126976 -2.62027e-05)
(-0.00830337 0.000949136 -2.92993e-05)
(-0.00863986 0.000572142 -3.47769e-05)
(-0.00875059 0.000137746 -4.30188e-05)
(-0.00860178 -0.000349697 -5.35316e-05)
(-0.00816471 -0.00087825 -6.61621e-05)
(-0.00741991 -0.00142669 -7.97161e-05)
(-0.00636133 -0.00196218 -9.18114e-05)
(-0.0050097 -0.0024355 -9.76576e-05)
(-0.00344657 -0.00275895 -9.05115e-05)
(-0.00166589 -0.00272701 -6.70945e-05)
(-0.000351756 -0.00170033 1.44033e-05)
(-0.00018498 0.00189821 -0.000109322)
(-0.00101105 0.00315257 -8.25122e-05)
(-0.0022299 0.00340908 -6.92769e-05)
(-0.00339113 0.00336347 -5.73693e-05)
(-0.0045356 0.00321421 -4.95428e-05)
(-0.005621 0.00300131 -4.40068e-05)
(-0.00662298 0.00272697 -3.98865e-05)
(-0.00751829 0.00238602 -3.73202e-05)
(-0.00828067 0.0019717 -3.67167e-05)
(-0.00888063 0.00147729 -3.85282e-05)
(-0.00928535 0.000897663 -4.3151e-05)
(-0.00945907 0.000231782 -5.0992e-05)
(-0.00936182 -0.000516186 -6.23952e-05)
(-0.00895326 -0.00133219 -7.62022e-05)
(-0.00820115 -0.00218575 -9.14579e-05)
(-0.00708737 -0.00302778 -0.000105556)
(-0.00562327 -0.00378168 -0.000112929)
(-0.00389543 -0.00430801 -0.000105414)
(-0.00189353 -0.00428404 -7.90892e-05)
(-0.000401345 -0.00271233 1.39185e-05)
(-0.000188832 0.00266566 -0.000124919)
(-0.00105394 0.00438587 -9.93373e-05)
(-0.00233794 0.00473166 -8.59512e-05)
(-0.00356177 0.00466552 -7.32912e-05)
(-0.00477322 0.00445955 -6.47254e-05)
(-0.00592949 0.0041684 -5.84756e-05)
(-0.00700782 0.00379557 -5.37081e-05)
(-0.00798624 0.00333432 -5.06418e-05)
(-0.0088391 0.00277527 -4.97912e-05)
(-0.00953626 0.00210826 -5.17479e-05)
(-0.010042 0.00132412 -5.70511e-05)
(-0.0103148 0.000417764 -6.6118e-05)
(-0.0103059 -0.000608024 -8.02639e-05)
(-0.0099612 -0.00173956 -9.75652e-05)
(-0.00922869 -0.00294006 -0.000117223)
(-0.00806875 -0.00414477 -0.000136119)
(-0.00647265 -0.00524513 -0.000147287)
(-0.00452883 -0.00603596 -0.00014038)
(-0.00222231 -0.00605005 -0.000109976)
(-0.000475954 -0.00386939 1.16333e-06)
(-0.000193831 0.00348358 -0.000141676)
(-0.0011068 0.00570734 -0.000116982)
(-0.00247063 0.00615107 -0.000103478)
(-0.00377153 0.00606699 -9.0227e-05)
(-0.00506527 0.00580718 -8.11998e-05)
(-0.00630884 0.00544247 -7.46289e-05)
(-0.00748195 0.00497792 -6.97345e-05)
(-0.00856497 0.00440503 -6.68284e-05)
(-0.00953393 0.00371103 -6.65456e-05)
(-0.010359 0.00288081 -6.96551e-05)
(-0.0110022 0.0018988 -7.68898e-05)
(-0.0114161 0.000752393 -8.89336e-05)
(-0.0115421 -0.000562687 -0.000108121)
(-0.0113063 -0.00203972 -0.000131629)
(-0.0106286 -0.00363971 -0.000159181)
(-0.00943583 -0.00528418 -0.000186988)
(-0.00768353 -0.00682765 -0.000205919)
(-0.00545171 -0.00798067 -0.000201852)
(-0.00271602 -0.00808711 -0.000166259)
(-0.000594229 -0.00522263 -2.73574e-05)
(-0.000200375 0.00436235 -0.000161975)
(-0.00117232 0.00713459 -0.000138328)
(-0.00263335 0.00768653 -0.000124725)
(-0.00402684 0.0075873 -0.000110791)
(-0.00541844 0.00727709 -0.000101226)
(-0.00676517 0.006845 -9.43169e-05)
(-0.00805045 0.00629827 -8.93868e-05)
(-0.00925855 0.00562673 -8.689e-05)
(-0.010369 0.00481365 -8.76419e-05)
(-0.0113542 0.00383737 -9.26784e-05)
(-0.0121762 0.00267286 -0.000103171)
(-0.0127818 0.00129513 -0.00012068)
(-0.0131034 -0.000314978 -0.000147138)
(-0.013044 -0.00216107 -0.000180563)
(-0.0124841 -0.00421869 -0.000221591)
(-0.0113005 -0.00640195 -0.000265432)
(-0.00938692 -0.00852619 -0.000299764)
(-0.0067893 -0.0101946 -0.000303993)
(-0.0034623 -0.0104903 -0.000263012)
(-0.000786017 -0.0068612 -8.30013e-05)
(-0.00020834 0.00531647 -0.000187522)
(-0.00125103 0.00869126 -0.000165477)
(-0.00282697 0.00936229 -0.000151732)
(-0.00432722 0.00924934 -0.000136763)
(-0.00582976 0.00889113 -0.000126253)
(-0.00729209 0.00839792 -0.00011863)
(-0.00870292 0.00778035 -0.000113404)
(-0.0100525 0.0070272 -0.00011125)
(-0.0113265 0.00611783 -0.000113252)
(-0.0125032 0.00502307 -0.000120834)
(-0.0135482 0.0037057 -0.000135759)
(-0.0144079 0.00212273 -0.000160283)
(-0.0150025 0.000231064 -0.000196217)
(-0.0152154 -0.00199609 -0.000247595)
(-0.0148825 -0.00456678 -0.000311484)
(-0.0138017 -0.00740646 -0.00038396)
(-0.0117678 -0.0102989 -0.000448608)
(-0.00873742 -0.0127181 -0.000474304)
(-0.00461865 -0.0133764 -0.000430697)
(-0.00111277 -0.00892253 -0.000192735)
(-0.000218116 0.00636341 -0.000220187)
(-0.00134475 0.0104047 -0.000200714)
(-0.00305387 0.0112047 -0.000186646)
(-0.00467306 0.011076 -0.000169921)
(-0.00629588 0.0106691 -0.000157603)
(-0.00788094 0.0101194 -0.000148413)
(-0.00942418 0.00944292 -0.000142179)
(-0.0109243 0.00862877 -0.000139895)
(-0.0123768 0.00765349 -0.000143023)
(-0.0137705 0.00648077 -0.000153531)
(-0.0150811 0.00505987 -0.000174024)
(-0.0162615 0.00332525 -0.000207749)
(-0.0172278 0.0012009 -0.000258111)
(-0.0178494 -0.00138872 -0.000336681)
(-0.0179129 -0.00450263 -0.000438313)
(-0.0171137 -0.00811833 -0.000561278)
(-0.0150934 -0.0120182 -0.000684922)
(-0.0116152 -0.01554 -0.000762525)
(-0.0064883 -0.01687 -0.000729109)
(-0.00170857 -0.011625 -0.000419676)
(-0.000231332 0.00752624 -0.000262597)
(-0.00145875 0.0123085 -0.000247146)
(-0.00332111 0.0132432 -0.000232287)
(-0.00506915 0.01309 -0.000212454)
(-0.00681663 0.0126277 -0.000196728)
(-0.00852422 0.0120219 -0.000184377)
(-0.0101973 0.0112965 -0.000175728)
(-0.011846 0.0104436 -0.000172217)
(-0.0134792 0.00943963 -0.000175808)
(-0.0151022 0.0082436 -0.000189238)
(-0.0167098 0.00679293 -0.000216424)
(-0.0182737 0.00499811 -0.000262577)
(-0.0197243 0.00273964 -0.000334846)
(-0.0209301 -0.000128237 -0.000450533)
(-0.0216394 -0.00374102 -0.000612286)
(-0.0214336 -0.0082113 -0.000821956)
(-0.019737 -0.0133883 -0.00105803)
(-0.0159462 -0.0185106 -0.00125386)
(-0.00967176 -0.0210567 -0.00128012)
(-0.00287017 -0.0153332 -0.00092699)
(-0.000252176 0.00883859 -0.000318907)
(-0.00160497 0.0144466 -0.00030946)
(-0.00364445 0.0155131 -0.000292746)
(-0.00552868 0.0153144 -0.000267323)
(-0.00739877 0.0147791 -0.000245347)
(-0.00921903 0.0141089 -0.000227034)
(-0.0110069 0.0133388 -0.000213467)
(-0.012786 0.0124673 -0.000206649)
(-0.0145823 0.0114749 -0.000209151)
(-0.0164235 0.0103221 -0.000224672)
(-0.0183339 0.00894122 -0.000258914)
(-0.0203235 0.00722405 -0.000320568)
(-0.0223648 0.00500699 -0.000422753)
(-0.0243462 0.00206009 -0.00058195)
(-0.0260385 -0.00189989 -0.000840604)
(-0.026937 -0.00714948 -0.00119082)
(-0.026187 -0.0138071 -0.00163081)
(-0.0225852 -0.0211418 -0.00207815)
(-0.0153696 -0.0258012 -0.00232053)
(-0.00526616 -0.0207392 -0.0021219)
(-0.000290224 0.0103541 -0.000396232)
(-0.00180795 0.0168808 -0.000395151)
(-0.00405484 0.0180581 -0.000374299)
(-0.0060792 0.0177726 -0.000338728)
(-0.00806119 0.0171292 -0.000305492)
(-0.00997194 0.0163719 -0.000276425)
(-0.0118435 0.0155498 -0.000253719)
(-0.0137147 0.0146707 -0.000240017)
(-0.0156297 0.0137258 -0.000238502)
(-0.017642 0.0126867 -0.00025389)
(-0.0198153 0.011496 -0.00029394)
(-0.0222175 0.0100474 -0.00037157)
(-0.0249017 0.0081558 -0.000506805)
(-0.0278607 0.00551522 -0.00072763)
(-0.0309191 0.00165363 -0.00108626)
(-0.0336289 -0.0040194 -0.00164962)
(-0.0349595 -0.0120715 -0.00242298)
(-0.0328069 -0.0221974 -0.00334387)
(-0.0259023 -0.0304264 -0.00418597)
(-0.0104473 -0.0288915 -0.00489265)
(-0.000367305 0.0121665 -0.000507689)
(-0.00211691 0.0197031 -0.00051678)
(-0.00460905 0.0209331 -0.000486596)
(-0.00677118 0.0204865 -0.00043231)
(-0.00884181 0.0196751 -0.000379151)
(-0.0108052 0.0187881 -0.000331384)
(-0.0127113 0.0178874 -0.000292632)
(-0.014613 0.0169932 -0.000266142)
(-0.0165693 0.0161133 -0.000255492)
(-0.0186564 0.0152429 -0.000266006)
(-0.020977 0.0143557 -0.000306947)
(-0.0236688 0.013381 -0.000394635)
(-0.0269065 0.0121602 -0.000556531)
(-0.0308757 0.0103635 -0.000835745)
(-0.0356843 0.00738431 -0.00129284)
(-0.0411493 0.00219097 -0.00205262)
(-0.0463395 -0.00653908 -0.00323016)
(-0.0482094 -0.0195295 -0.00476031)
(-0.0444815 -0.0334552 -0.00658175)
(-0.0207609 -0.0419669 -0.00957943)
(-0.000533418 0.0144289 -0.000680471)
(-0.00263568 0.0230794 -0.000703758)
(-0.00541132 0.0242716 -0.000657358)
(-0.00768839 0.0235538 -0.00056794)
(-0.00980275 0.022461 -0.000475391)
(-0.0117629 0.021345 -0.000391107)
(-0.0136368 0.0202925 -0.000322334)
(-0.0154855 0.0193375 -0.000272984)
(-0.0173751 0.0185064 -0.000245707)
(-0.0193931 0.0178278 -0.000244964)
(-0.021669 0.0173344 -0.000280051)
(-0.024403 0.0170452 -0.000368482)
(-0.0279097 0.0169211 -0.000540587)
(-0.0326469 0.016741 -0.000841283)
(-0.0392264 0.0159114 -0.00131333)
(-0.0482464 0.0130054 -0.00194591)
(-0.059371 0.00547274 -0.00282581)
(-0.0687433 -0.010879 -0.003931)
(-0.0724534 -0.0354465 -0.00504649)
(-0.0367995 -0.0678505 -0.0116428)
(-0.000849047 0.0175929 -0.000956932)
(-0.00345359 0.0269089 -0.000948905)
(-0.00657316 0.0276859 -0.000853223)
(-0.00896007 0.0264022 -0.000691956)
(-0.0110851 0.0249477 -0.000542803)
(-0.012964 0.0236259 -0.000412634)
(-0.0147008 0.0224632 -0.000306622)
(-0.0163745 0.021462 -0.000226988)
(-0.0180462 0.0206556 -0.000175101)
(-0.0197848 0.0201124 -0.000153445)
(-0.0217011 0.0199534 -0.000165713)
(-0.0239999 0.0203329 -0.000217166)
(-0.0270878 0.0214306 -0.000310879)
(-0.0317004 0.0232925 -0.000416578)
(-0.0391964 0.0256136 -0.000383831)
(-0.0515213 0.0264109 0.000227544)
(-0.0707343 0.0215944 0.00186433)
(-0.0911575 -0.00149479 0.00537254)
(-0.105826 -0.0491252 0.00968266)
(-0.0520563 -0.126258 -0.00413021)
(-0.00211752 0.0210109 -0.00148964)
(-0.00586909 0.0328856 -0.00158435)
(-0.00874424 0.0332688 -0.00137733)
(-0.0108552 0.0314983 -0.00108185)
(-0.0126086 0.0292529 -0.000771753)
(-0.0142081 0.0271536 -0.000500508)
(-0.0157228 0.0253314 -0.000282269)
(-0.0171719 0.0238332 -0.000120337)
(-0.0185537 0.0227081 -1.07003e-05)
(-0.0198691 0.0220385 5.16453e-05)
(-0.0211596 0.0220091 6.90568e-05)
(-0.022554 0.0229051 5.92559e-05)
(-0.0244323 0.0252253 9.49667e-05)
(-0.0275839 0.0293601 0.000403663)
(-0.0342492 0.0356082 0.00161665)
(-0.0474729 0.0406952 0.00530997)
(-0.0745643 0.0378847 0.013188)
(-0.106935 -0.00336812 0.024705)
(-0.134298 -0.0988965 0.0301062)
(-0.0553271 -0.226829 -0.00201712)
(-0.0014247 0.0325104 -0.00251733)
(-0.00582981 0.0367738 -0.00208752)
(-0.0108329 0.0352032 -0.00168801)
(-0.0132199 0.0315096 -0.00104778)
(-0.0152216 0.0287892 -0.000549402)
(-0.016474 0.0266603 -0.00014054)
(-0.0173684 0.0249807 0.000167209)
(-0.0180553 0.0236095 0.000377124)
(-0.0185819 0.0225592 0.000511045)
(-0.0188997 0.0218767 0.00058049)
(-0.0189388 0.0218119 0.000604064)
(-0.018574 0.0226414 0.000634637)
(-0.0180054 0.0252119 0.000850765)
(-0.0175137 0.0296467 0.00175609)
(-0.0202865 0.038042 0.00466933)
(-0.0285709 0.0432045 0.0121822)
(-0.060207 0.0375657 0.0268702)
(-0.099371 -0.0344016 0.0404564)
(-0.139203 -0.181156 0.0318001)
(-0.0454496 -0.327454 -0.0244995)
(-0.0119783 0.0307256 -0.00352954)
(-0.0214197 0.0529276 -0.00391741)
(-0.0170138 0.0485912 -0.00321069)
(-0.0175673 0.0436601 -0.0021302)
(-0.0160501 0.0379245 -0.000992731)
(-0.0145552 0.0331414 -9.424e-05)
(-0.0130986 0.0292698 0.000558793)
(-0.0117468 0.0261776 0.000983668)
(-0.0104531 0.0237935 0.00123655)
(-0.00898844 0.0219844 0.00132958)
(-0.00732252 0.0208969 0.00131393)
(-0.0048577 0.0206756 0.00123123)
(-0.00220531 0.0221362 0.00133733)
(0.00282339 0.0255445 0.00230599)
(0.00446338 0.0333118 0.00546267)
(0.00996609 0.0390321 0.0135339)
(-0.00962537 0.030618 0.0282394)
(-0.0276331 -0.0603222 0.0384947)
(-0.0945133 -0.23112 0.0168198)
(-0.0251669 -0.381134 -0.0525053)
(-0.0462908 0.0896562 -0.0115036)
(-0.0302552 0.0434393 -0.00708278)
(-0.0215306 0.0371645 -0.00442679)
(-0.00449142 0.0301618 -0.00186776)
(0.00942006 0.0239821 -5.76071e-05)
(0.0225263 0.0199404 0.00119645)
(0.0333407 0.0173407 0.00206522)
(0.0425599 0.015364 0.00260459)
(0.0499898 0.0139809 0.00291677)
(0.0567379 0.0127709 0.00297945)
(0.0621584 0.0121859 0.00284379)
(0.0684998 0.0116367 0.00245987)
(0.0735314 0.0121017 0.00211139)
(0.0840449 0.0124834 0.00162667)
(0.088744 0.0130042 0.00292555)
(0.113421 0.0100821 0.00619177)
(0.102296 -0.00564388 0.0132148)
(0.132998 -0.0789729 0.0247447)
(0.0158991 -0.231926 0.00203519)
(0.0260233 -0.367844 -0.0650874)
(0.11764 0.111629 -0.0111978)
(0.144389 0.059569 -0.0115018)
(0.216906 0.039546 -0.0108622)
(0.261227 0.0265746 -0.00928215)
(0.293803 0.0179459 -0.00744011)
(0.320233 0.0122066 -0.00584929)
(0.340471 0.00865851 -0.00427725)
(0.357822 0.00635906 -0.0030424)
(0.369875 0.00494486 -0.0018112)
(0.382478 0.0040675 -0.000895709)
(0.388454 0.00344768 -0.000146591)
(0.400389 0.00334946 0.000541449)
(0.399855 0.0029338 0.00040205)
(0.417195 0.00331831 0.00133198)
(0.405391 0.00228111 0.000372849)
(0.434669 3.87418e-05 0.00194352)
(0.393679 -0.007642 0.00186529)
(0.418351 -0.0294759 0.000901066)
(0.256102 -0.0722381 -0.00699166)
(0.166659 -0.139592 -0.0740511)
(-0.000111647 0.000119001 -4.63197e-05)
(-0.000778188 0.000315957 3.78988e-07)
(-0.00183036 0.000362979 1.86171e-05)
(-0.0028251 0.000362549 2.81106e-05)
(-0.00379734 0.000349287 2.89418e-05)
(-0.00471133 0.000329908 2.39558e-05)
(-0.00554606 0.000304094 1.48004e-05)
(-0.00628049 0.000270188 1.74849e-06)
(-0.00689069 0.000226687 -1.53174e-05)
(-0.00735003 0.000172284 -3.656e-05)
(-0.00763046 0.00010582 -6.16199e-05)
(-0.00770406 2.75039e-05 -9.01635e-05)
(-0.00754382 -6.3023e-05 -0.000121403)
(-0.00712719 -0.000162905 -0.000154246)
(-0.00644101 -0.000267786 -0.000186257)
(-0.00548473 -0.000371096 -0.00021378)
(-0.00427939 -0.000462268 -0.0002308)
(-0.00289701 -0.000520794 -0.000228853)
(-0.00132921 -0.000492359 -0.000202201)
(-0.000241318 -0.000225982 -9.5862e-05)
(-0.000319855 0.000819229 -0.000133657)
(-0.00159857 0.00159792 -9.54714e-05)
(-0.0034314 0.00177059 -7.39122e-05)
(-0.00516786 0.00174615 -5.64624e-05)
(-0.00684502 0.00165743 -4.71435e-05)
(-0.008402 0.00153252 -4.32318e-05)
(-0.00979983 0.00137338 -4.32114e-05)
(-0.0110025 0.00117707 -4.69912e-05)
(-0.0119719 0.000940501 -5.48934e-05)
(-0.0126688 0.000661148 -6.7321e-05)
(-0.0130531 0.000337354 -8.45154e-05)
(-0.0130878 -3.08176e-05 -0.000106432)
(-0.0127376 -0.000437157 -0.00013253)
(-0.0119739 -0.000870633 -0.000160958)
(-0.0107839 -0.00131373 -0.000189391)
(-0.00917291 -0.00174035 -0.000213547)
(-0.00717963 -0.0021097 -0.00022598)
(-0.00491145 -0.00234256 -0.00021702)
(-0.00236845 -0.00223645 -0.000181389)
(-0.000503846 -0.00122234 -5.51223e-05)
(-0.000386763 0.0019602 -0.000175924)
(-0.00187848 0.00351191 -0.000143215)
(-0.00398604 0.00383882 -0.000120485)
(-0.00597537 0.00376548 -9.92835e-05)
(-0.00789115 0.00355406 -8.57588e-05)
(-0.00966567 0.0032613 -7.73236e-05)
(-0.0112562 0.00289376 -7.25925e-05)
(-0.0126233 0.00244879 -7.16995e-05)
(-0.013726 0.00192261 -7.52118e-05)
(-0.014522 0.00131221 -8.3748e-05)
(-0.0149691 0.00061667 -9.77576e-05)
(-0.0150234 -0.000161457 -0.000117717)
(-0.0146424 -0.00101133 -0.000142523)
(-0.0137933 -0.00191107 -0.000171301)
(-0.0124561 -0.00282569 -0.000201291)
(-0.0106299 -0.00370283 -0.000227553)
(-0.00835115 -0.0044615 -0.000241336)
(-0.00573826 -0.00494366 -0.000231265)
(-0.00278711 -0.00475063 -0.000191594)
(-0.000601283 -0.00275646 -5.07036e-05)
(-0.000410636 0.0031226 -0.000211361)
(-0.00200287 0.00547854 -0.000184357)
(-0.00425201 0.00595992 -0.00016121)
(-0.00637157 0.00583416 -0.000137505)
(-0.0084159 0.00549913 -0.000121099)
(-0.0103151 0.00504009 -0.000109541)
(-0.0120266 0.00446761 -0.000101601)
(-0.0135113 0.00377865 -9.76385e-05)
(-0.0147274 0.00296794 -9.84752e-05)
(-0.0156306 0.00203064 -0.000105019)
(-0.0161747 0.000964727 -0.000118085)
(-0.0163116 -0.000225278 -0.000138445)
(-0.0159886 -0.00152838 -0.000165837)
(-0.0151565 -0.00291496 -0.000198426)
(-0.0137794 -0.00433474 -0.00023353)
(-0.0118396 -0.005709 -0.0002656)
(-0.00936111 -0.00691156 -0.000284257)
(-0.00646906 -0.00769303 -0.000275425)
(-0.00315467 -0.00743219 -0.000231752)
(-0.000681118 -0.00438173 -6.94105e-05)
(-0.000430111 0.00436389 -0.000244657)
(-0.00211642 0.00758202 -0.000222762)
(-0.00450516 0.00822776 -0.000199328)
(-0.00675632 0.00804866 -0.000173744)
(-0.00893447 0.00758771 -0.000155424)
(-0.0109684 0.00696052 -0.000142025)
(-0.0128175 0.00618185 -0.000132467)
(-0.0144439 0.00524788 -0.000127339)
(-0.0158062 0.00415094 -0.00012774)
(-0.0168589 0.00288264 -0.000134921)
(-0.0175509 0.00143684 -0.000150064)
(-0.0178259 -0.000186003 -0.000174183)
(-0.0176176 -0.00197506 -0.0002083)
(-0.0168559 -0.00389852 -0.000249874)
(-0.0154777 -0.00589429 -0.000296257)
(-0.0134352 -0.00785681 -0.000340724)
(-0.0107245 -0.00960579 -0.000370065)
(-0.00747363 -0.0107762 -0.000365833)
(-0.00367003 -0.0104764 -0.000316969)
(-0.000796511 -0.00623486 -0.000119022)
(-0.000454827 0.00568661 -0.000281446)
(-0.0022568 0.00983389 -0.000264719)
(-0.00481681 0.0106572 -0.000241015)
(-0.00723009 0.0104254 -0.000213663)
(-0.00957304 0.0098385 -0.000193726)
(-0.0117736 0.00904502 -0.000178992)
(-0.0137941 0.00806434 -0.000168578)
(-0.0155997 0.00689143 -0.00016335)
(-0.017151 0.0055149 -0.000164751)
(-0.0184022 0.0039204 -0.000174484)
(-0.0192983 0.00209369 -0.000194265)
(-0.0197745 2.53449e-05 -0.000225674)
(-0.0197474 -0.00228037 -0.000271784)
(-0.0191178 -0.00479961 -0.000328763)
(-0.0177836 -0.0074643 -0.000394714)
(-0.015648 -0.0101434 -0.000461439)
(-0.0126571 -0.0125925 -0.000511405)
(-0.00892657 -0.014296 -0.000518609)
(-0.00443623 -0.0140144 -0.000464345)
(-0.000976373 -0.00840906 -0.000210947)
(-0.000486595 0.00711117 -0.000326198)
(-0.00243246 0.0122681 -0.000315712)
(-0.00520298 0.0132842 -0.00029165)
(-0.00781359 0.0129994 -0.000262086)
(-0.0103553 0.0122861 -0.000240088)
(-0.0127557 0.0113289 -0.00022368)
(-0.0149819 0.0101527 -0.000212291)
(-0.0170044 0.00875128 -0.000207186)
(-0.0187884 0.00710835 -0.000210295)
(-0.0202911 0.00520082 -0.000223977)
(-0.0214565 0.00300143 -0.000250738)
(-0.0222098 0.000484029 -0.000293225)
(-0.0224521 -0.00236493 -0.000357736)
(-0.0220507 -0.00554213 -0.000439072)
(-0.0208459 -0.00898891 -0.000537402)
(-0.0186669 -0.0125583 -0.000642875)
(-0.0153714 -0.0159333 -0.000731764)
(-0.0110252 -0.0184025 -0.000765225)
(-0.00558766 -0.0182492 -0.000708646)
(-0.00126435 -0.0110661 -0.000372429)
(-0.000526034 0.00866298 -0.000382612)
(-0.00264696 0.0149265 -0.000380353)
(-0.00566999 0.0161511 -0.000355615)
(-0.00851289 0.01581 -0.000322756)
(-0.0112852 0.0149668 -0.000297456)
(-0.0139148 0.0138473 -0.000278165)
(-0.0163763 0.0124834 -0.00026482)
(-0.0186488 0.0108685 -0.000259264)
(-0.0207066 0.00898072 -0.00026413)
(-0.0225145 0.00678609 -0.000282769)
(-0.0240207 0.0042394 -0.00031923)
(-0.0251465 0.001289 -0.000378719)
(-0.0257799 -0.00211363 -0.000465605)
(-0.0257515 -0.0060039 -0.000586039)
(-0.0248299 -0.0103593 -0.000736886)
(-0.0227345 -0.015042 -0.000908963)
(-0.0191757 -0.0196672 -0.00107076)
(-0.0140857 -0.0232739 -0.00116284)
(-0.00737401 -0.0234626 -0.00111566)
(-0.0017539 -0.0144713 -0.000661512)
(-0.000574604 0.0103707 -0.000454991)
(-0.00290586 0.0178548 -0.000463927)
(-0.00622638 0.0193016 -0.000437773)
(-0.00933526 0.0188947 -0.000399609)
(-0.0123658 0.017913 -0.000368645)
(-0.0152473 0.0166294 -0.000344083)
(-0.0179653 0.0150861 -0.000326646)
(-0.020512 0.0132773 -0.000318984)
(-0.0228763 0.0111767 -0.000324671)
(-0.0250385 0.00873838 -0.000348387)
(-0.0269602 0.00589497 -0.0003962)
(-0.0285699 0.00255933 -0.000475864)
(-0.0297532 -0.00136972 -0.000596042)
(-0.0303099 -0.00599473 -0.000774106)
(-0.0299279 -0.0113756 -0.00100794)
(-0.0281787 -0.0174366 -0.00129278)
(-0.0245415 -0.0237612 -0.0015899)
(-0.0186536 -0.0290942 -0.00181008)
(-0.0103103 -0.0300489 -0.00180871)
(-0.00266336 -0.0191105 -0.0012053)
(-0.000635717 0.0122696 -0.000549373)
(-0.00322012 0.0211063 -0.000573612)
(-0.00688803 0.0227825 -0.000544499)
(-0.0102949 0.0222894 -0.000497512)
(-0.0136052 0.0211511 -0.000456779)
(-0.0167513 0.0196956 -0.000422769)
(-0.0197341 0.0179789 -0.000397383)
(-0.0225643 0.0159995 -0.000384338)
(-0.0252523 0.0137293 -0.000388401)
(-0.0278039 0.011112 -0.000415973)
(-0.0302082 0.00805734 -0.000475961)
(-0.0324208 0.00443489 -0.000580425)
(-0.0343453 7.08559e-05 -0.000744948)
(-0.0357776 -0.00523347 -0.00100213)
(-0.036339 -0.0116971 -0.00136229)
(-0.0354264 -0.0194043 -0.00183277)
(-0.0321912 -0.0280123 -0.00237628)
(-0.0257125 -0.0359732 -0.00286761)
(-0.0155363 -0.0385466 -0.00302746)
(-0.00453466 -0.0259699 -0.00230672)
(-0.000716525 0.0144074 -0.000675032)
(-0.00361043 0.0247462 -0.00071997)
(-0.00768381 0.0266452 -0.000684857)
(-0.0114184 0.0260277 -0.000622986)
(-0.015021 0.0246994 -0.000565566)
(-0.0184305 0.023053 -0.000515137)
(-0.0216682 0.0211626 -0.000475332)
(-0.0247687 0.019036 -0.000451199)
(-0.0277717 0.0166485 -0.000448848)
(-0.0307194 0.0139392 -0.000476661)
(-0.0336474 0.0108003 -0.000547074)
(-0.0365683 0.00705922 -0.000678482)
(-0.0394369 0.00245985 -0.000898597)
(-0.0421091 -0.00334153 -0.0012493)
(-0.0442101 -0.0107902 -0.00179659)
(-0.0449892 -0.0202945 -0.00255467)
(-0.0432118 -0.0318224 -0.0035248)
(-0.0370706 -0.0436722 -0.00455944)
(-0.0255887 -0.0495406 -0.00521241)
(-0.00874089 -0.037334 -0.00469935)
(-0.000831435 0.0168539 -0.000847061)
(-0.00411472 0.0288589 -0.000919268)
(-0.00866398 0.0309486 -0.00087236)
(-0.012752 0.0301399 -0.000785163)
(-0.0166471 0.0285646 -0.000699489)
(-0.0202998 0.0266902 -0.000621271)
(-0.023758 0.0246138 -0.000556639)
(-0.0270855 0.0223573 -0.000512164)
(-0.0303569 0.0199071 -0.000495228)
(-0.0336606 0.0172101 -0.000516072)
(-0.0370982 0.0141579 -0.000590852)
(-0.0407741 0.0105571 -0.000745932)
(-0.0447663 0.00608386 -0.00102237)
(-0.0490785 0.000221434 -0.00147792)
(-0.0534937 -0.00776683 -0.00222417)
(-0.0573355 -0.0188509 -0.00338222)
(-0.059078 -0.0336974 -0.00499954)
(-0.0557586 -0.0509476 -0.00697)
(-0.0454233 -0.0633728 -0.00881882)
(-0.018394 -0.0579188 -0.00977649)
(-0.0010101 0.0197202 -0.00109128)
(-0.00480146 0.0335532 -0.00119701)
(-0.00991249 0.0357444 -0.0011265)
(-0.0143726 0.0346332 -0.000995786)
(-0.0185418 0.0327275 -0.000863111)
(-0.0223921 0.0305694 -0.000739246)
(-0.0260063 0.0282779 -0.000633588)
(-0.0294799 0.0258931 -0.000554299)
(-0.0329229 0.0234229 -0.000509512)
(-0.036472 0.0208387 -0.000510072)
(-0.0403036 0.0180589 -0.000573781)
(-0.0446471 0.0149093 -0.000731756)
(-0.049788 0.0110491 -0.00103683)
(-0.0560338 0.00584356 -0.00157452)
(-0.0636482 -0.00175883 -0.00246545)
(-0.0724955 -0.0133289 -0.00394188)
(-0.081091 -0.0308171 -0.00616275)
(-0.084965 -0.0548105 -0.00899588)
(-0.0795028 -0.0799245 -0.0122574)
(-0.0351618 -0.0980365 -0.0169127)
(-0.00132188 0.0231751 -0.00145742)
(-0.00582509 0.039081 -0.00161036)
(-0.011584 0.0412656 -0.00150078)
(-0.0163951 0.0397019 -0.00129424)
(-0.0207821 0.0372928 -0.00107571)
(-0.0247553 0.0347027 -0.000869689)
(-0.0284329 0.0320966 -0.000692955)
(-0.0319362 0.0295378 -0.000555448)
(-0.0354037 0.0270578 -0.0004638)
(-0.0390133 0.0246689 -0.000426168)
(-0.0430118 0.0223603 -0.00045759)
(-0.0477637 0.0200605 -0.000586764)
(-0.0538181 0.0175491 -0.000863569)
(-0.0619542 0.0142668 -0.00135956)
(-0.0731659 0.00904022 -0.00213001)
(-0.0884606 -0.000451711 -0.0030919)
(-0.106763 -0.0186558 -0.00410426)
(-0.120033 -0.0526241 -0.00465505)
(-0.119622 -0.104099 -0.00539316)
(-0.0470856 -0.174353 -0.0168619)
(-0.00176626 0.0276977 -0.0020111)
(-0.00712411 0.0449258 -0.00213599)
(-0.013768 0.0465879 -0.00193231)
(-0.0189959 0.0441927 -0.00158638)
(-0.0235937 0.0412773 -0.00125087)
(-0.0275745 0.0383855 -0.000941943)
(-0.0311468 0.0356004 -0.000675282)
(-0.0344843 0.0329534 -0.000459398)
(-0.0377422 0.0304981 -0.000299274)
(-0.0410969 0.0283112 -0.000197649)
(-0.0448037 0.0265005 -0.000154105)
(-0.0492927 0.0251824 -0.000165361)
(-0.0553223 0.0244459 -0.000212054)
(-0.0641397 0.0241005 -0.000190723)
(-0.0776909 0.0232099 0.0002948)
(-0.0981651 0.0181897 0.00233092)
(-0.124148 0.000303555 0.0075782)
(-0.140263 -0.0513175 0.0175003)
(-0.141613 -0.145757 0.0242188)
(-0.0365914 -0.278573 -0.00537176)
(-0.00377386 0.0321279 -0.00298119)
(-0.011143 0.0543374 -0.00331965)
(-0.0174745 0.0555352 -0.00292894)
(-0.0224678 0.0524372 -0.00235197)
(-0.0266696 0.0482351 -0.0017246)
(-0.0304141 0.0441248 -0.00114942)
(-0.0337921 0.0403459 -0.000659746)
(-0.0368966 0.036986 -0.000269282)
(-0.0398133 0.0341252 2.3447e-05)
(-0.0426631 0.0318652 0.000228327)
(-0.0456446 0.0304247 0.000368263)
(-0.0491044 0.0301524 0.000506284)
(-0.053752 0.0316387 0.000833144)
(-0.0608009 0.0352284 0.00188695)
(-0.0724692 0.0403835 0.00511482)
(-0.0902898 0.0406752 0.0137039)
(-0.115112 0.0227335 0.0310306)
(-0.126269 -0.0519112 0.0538575)
(-0.135245 -0.192677 0.0566462)
(-0.0142018 -0.370057 -0.00701342)
(-0.00193577 0.0468358 -0.00477688)
(-0.0099133 0.0581597 -0.00438895)
(-0.0209201 0.0569529 -0.00363853)
(-0.0265911 0.0516908 -0.00249273)
(-0.031593 0.0475574 -0.00154521)
(-0.0350263 0.043901 -0.000706866)
(-0.0376037 0.0406261 -1.75495e-05)
(-0.039598 0.0376341 0.000520021)
(-0.0411801 0.0350221 0.000914876)
(-0.0424321 0.0328889 0.00118892)
(-0.0434079 0.0316086 0.00140304)
(-0.0441086 0.0315916 0.00170985)
(-0.0448588 0.0339627 0.00253328)
(-0.045842 0.03898 0.00495887)
(-0.049348 0.0475501 0.0115623)
(-0.0537603 0.0489537 0.0266177)
(-0.0715719 0.0322101 0.0536588)
(-0.0743753 -0.0569356 0.0782129)
(-0.098751 -0.232657 0.0600413)
(0.0113358 -0.437228 -0.0312376)
(-0.0118054 0.0387416 -0.00623741)
(-0.0261494 0.0815417 -0.00715234)
(-0.0266879 0.0777712 -0.00616879)
(-0.0334616 0.0711638 -0.00440991)
(-0.0355268 0.0628709 -0.00247254)
(-0.0361202 0.0554039 -0.000839298)
(-0.0353979 0.0489699 0.000444996)
(-0.0339117 0.0435306 0.00138654)
(-0.0319474 0.0390375 0.00203208)
(-0.0295028 0.035355 0.00240416)
(-0.0268622 0.0327341 0.00260407)
(-0.023403 0.03142 0.00276942)
(-0.0199048 0.0327328 0.00343435)
(-0.0133922 0.0367326 0.0058442)
(-0.00914118 0.0464483 0.0122464)
(0.00690547 0.0512783 0.0267552)
(0.00599553 0.0421297 0.0495225)
(0.0358453 -0.0429325 0.070093)
(-0.009761 -0.245592 0.0398707)
(0.0586043 -0.462284 -0.0547557)
(-0.075209 0.102351 -0.0170206)
(-0.0607629 0.0640206 -0.0114781)
(-0.0600288 0.0614205 -0.00763071)
(-0.0392232 0.0530411 -0.00395146)
(-0.0213357 0.0448087 -0.00131754)
(-0.00220797 0.0386116 0.000745803)
(0.0153161 0.0339874 0.00239978)
(0.0318868 0.0300231 0.00359872)
(0.0464097 0.0269622 0.00443035)
(0.0604711 0.0240139 0.00486124)
(0.0720362 0.0221723 0.00492578)
(0.0849601 0.0202088 0.00460319)
(0.0937421 0.0201904 0.00433256)
(0.111453 0.0200278 0.00379986)
(0.116357 0.0208418 0.00604038)
(0.156371 0.0190763 0.0116695)
(0.151732 -0.00351983 0.0176359)
(0.212375 -0.054519 0.0347195)
(0.147043 -0.233142 0.0140213)
(0.146162 -0.419093 -0.0704784)
(0.119514 0.139882 -0.0162221)
(0.15202 0.0859861 -0.0171666)
(0.23078 0.0638319 -0.0165721)
(0.285128 0.0485347 -0.0147238)
(0.327182 0.0376252 -0.0124095)
(0.36448 0.0295156 -0.01034)
(0.393837 0.0238087 -0.00814448)
(0.423177 0.0195642 -0.00626424)
(0.442935 0.016248 -0.00442484)
(0.468553 0.0139301 -0.0026997)
(0.479539 0.0117165 -0.00147231)
(0.505649 0.0104558 -2.97365e-05)
(0.506605 0.0090095 0.0004872)
(0.538205 0.00844011 0.00128361)
(0.52686 0.00719151 0.00211111)
(0.565488 0.00472256 0.00164889)
(0.533892 -0.00323529 0.00478628)
(0.556175 -0.0238265 -0.00155321)
(0.43178 -0.0724354 -0.00680968)
(0.30154 -0.148243 -0.0824532)
(-0.000123701 0.000123673 -6.20196e-05)
(-0.000865538 0.000347932 -4.90383e-05)
(-0.00203474 0.00040172 -3.71671e-05)
(-0.00313415 0.000400612 -2.80573e-05)
(-0.00420347 0.000384173 -2.46126e-05)
(-0.00520365 0.000360676 -2.58565e-05)
(-0.00611224 0.000329759 -3.09519e-05)
(-0.006907 0.000289846 -3.98622e-05)
(-0.00756238 0.000239354 -5.26082e-05)