/*--------------------------------*- C++ -*----------------------------------*\
  =========                 |
  \\      /  F ield         | OpenFOAM: The Open Source CFD Toolbox
   \\    /   O peration     | Website:  https://openfoam.org
    \\  /    A nd           | Version:  10
     \\/     M anipulation  |
\*---------------------------------------------------------------------------*/
FoamFile
{
    format      ascii;
    class       surfaceScalarField;
    location    "3.675";
    object      phi;
}
// * * * * * * * * * * * * * * * * * * * * * * * * * * * * * * * * * * * * * //

dimensions      [0 3 -1 0 0 0 0];

internalField   nonuniform List<scalar> 
890
(
0.00983515
0.000164854
0.00972585
0.000109291
0.00947132
0.000254532
0.00945075
2.05687e-05
0.000129707
0.00932105
0.0101237
4.12011e-05
0.0101934
3.95019e-05
0.0104149
3.30858e-05
0.0104555
-2.00236e-05
-8.60541e-05
0.0106712
0.0100727
-3.15114e-05
0.0102173
-0.000105056
0.010382
-0.000131659
0.010515
-0.000153053
-0.000204391
0.0106334
0.0100934
-0.000124906
0.0102159
-0.000227604
0.0103247
-0.000240457
0.0104127
-0.00024101
-0.000255905
0.0104642
0.00987509
0.00964749
0.00940703
0.00916602
0.00891012
0.00928512
-0.000165601
0.000201532
0.00931891
-0.000303597
0.000269807
0.009459
-0.000371524
0.000231427
0.00969898
-0.000480923
0.000240951
0.00997399
-0.000647142
0.000372128
0.0102769
-0.000925314
0.000622453
0.0105705
-0.00135732
0.00106364
0.0107651
-0.00178806
0.0015935
0.0108476
-0.00229702
0.00221457
0.0108538
-0.00284119
0.00283491
0.0106931
-0.00316891
0.00332966
0.0103338
-0.0033131
0.00367236
0.00982404
-0.00317352
0.00368329
0.00918442
-0.00277954
0.00341916
0.00847722
-0.00225341
0.00296061
0.0076896
-0.00139484
0.00218247
0.00679599
-0.000369537
0.00126315
0.00594093
0.000281508
0.00057355
0.0053606
0.000476874
0.000103454
0.00513823
0.000496399
-0.000274029
0.005195
0.000558106
-0.000614869
0.0053816
0.000649999
-0.000836607
0.00558132
0.000698661
-0.000898373
0.00573833
0.000673716
-0.000830735
0.00584171
0.000589209
-0.000692585
0.00590177
0.000475536
-0.000535594
0.00593364
0.000359504
-0.00039138
0.00594971
0.00025754
-0.000273602
0.00595783
0.000176356
-0.000184484
0.00596227
0.000116165
-0.000120601
0.00596501
7.38971e-05
-7.66361e-05
0.00596689
4.54613e-05
-4.73442e-05
0.00596825
2.6991e-05
-2.83512e-05
0.00596924
1.53583e-05
-1.6343e-05
0.00596993
8.24028e-06
-8.9348e-06
0.0059704
4.02724e-06
-4.49653e-06
0.00597071
1.61898e-06
-1.92816e-06
0.00597092
3.01385e-07
-5.16381e-07
0.00597105
-3.36991e-07
2.08954e-07
0.00597111
-6.02068e-07
5.45101e-07
0.00597114
-6.55522e-07
6.28566e-07
0.00597115
-6.21119e-07
6.11243e-07
0.00597115
-4.96199e-07
4.9494e-07
0.00597114
-4.22818e-07
4.2602e-07
-2.32693e-07
2.33403e-07
0.010719
-0.00021333
0.0107498
-0.000334433
0.0108115
-0.000433201
0.0109348
-0.000604272
0.011055
-0.000767326
0.0111082
-0.000978489
0.0111099
-0.00135905
0.0110014
-0.00167958
0.0107758
-0.0020714
0.0104615
-0.00252683
0.00999774
-0.00270519
0.00937315
-0.0026885
0.00863914
-0.00243951
0.007773
-0.0019134
0.00684214
-0.00132255
0.00601645
-0.000569159
0.00534131
0.000305602
0.00480433
0.000818492
0.00446522
0.000815979
0.00435453
0.000607092
0.00445005
0.000462589
0.00467429
0.000425752
0.00494181
0.00043114
0.00519429
0.000421243
0.00540457
0.000378926
0.00556678
0.00031333
0.00568567
0.000240613
0.00576974
0.000173472
0.00582764
0.00011845
0.00586674
7.70664e-05
0.00589272
4.79132e-05
0.00590976
2.84254e-05
0.00592079
1.59638e-05
0.00592784
8.30901e-06
0.00593228
3.79913e-06
0.00593502
1.28277e-06
0.00593665
-4.08249e-09
0.00593763
-6.7871e-07
0.00593819
-8.99151e-07
0.00593849
-9.09697e-07
0.00593865
-8.06532e-07
0.00593871
-6.84858e-07
0.00593873
-5.16191e-07
0.00593873
-4.2007e-07
-2.29615e-07
0.0107062
-0.000286127
0.0107477
-0.000375907
0.0107772
-0.000462781
0.0107948
-0.000621854
0.010776
-0.000748544
0.0106961
-0.000898591
0.0105275
-0.0011904
0.0103044
-0.00145644
0.0100227
-0.00178974
0.0095979
-0.00210203
0.00901598
-0.00212327
0.00829715
-0.00196968
0.00748835
-0.0016307
0.00663336
-0.00105842
0.00581596
-0.000505143
0.00523847
8.32503e-06
0.00501966
0.000524415
0.0050303
0.000807856
0.00506644
0.000779833
0.00504826
0.00062527
0.00501959
0.000491267
0.00503461
0.00041073
0.00510572
0.000360024
0.00521391
0.000313055
0.00533285
0.00025999
0.00544298
0.000203202
0.00553439
0.000149197
0.00560464
0.00010323
0.00565555
6.75373e-05
0.00569078
4.18299e-05
0.00571427
2.4432e-05
0.00572942
1.32753e-05
0.00573891
6.46808e-06
0.0057447
2.52129e-06
0.00574814
3.6049e-07
0.00575008
-6.62593e-07
0.00575116
-1.07741e-06
0.00575165
-1.1721e-06
0.00575185
-1.09517e-06
0.00575188
-9.44132e-07
0.00575184
-7.63536e-07
0.00575176
-6.07581e-07
0.00575168
-4.39991e-07
0.00575161
-3.45169e-07
-1.87882e-07
0.0104806
-0.000302551
0.0104513
-0.000346563
0.0103804
-0.00039194
0.0102417
-0.000483077
0.0100273
-0.000534126
0.00976744
-0.000638781
0.0093609
-0.000783861
0.00882936
-0.0009249
0.00826727
-0.00122765
0.00754973
-0.0013845
0.00655094
-0.00112448
0.00531531
-0.000734044
0.00406794
-0.000383337
0.00313721
-0.000127685
0.00258697
4.50943e-05
0.0023967
0.00019859
0.00256533
0.000355789
0.00293063
0.000442553
0.00328722
0.000423244
0.00356381
0.000348687
0.00378164
0.000273432
0.00397706
0.000215313
0.0041663
0.000170782
0.00434567
0.000133679
0.00450473
0.000100936
0.00463559
7.23367e-05
0.00473604
4.87525e-05
0.00480857
3.06992e-05
0.00485823
1.78733e-05
0.00489068
9.38345e-06
0.00491098
4.1344e-06
0.00492313
1.12623e-06
0.00493005
-4.59471e-07
0.00493377
-1.19291e-06
0.00493554
-1.41028e-06
0.00493624
-1.36207e-06
0.00493636
-1.19795e-06
0.00493618
-9.98767e-07
0.00493589
-8.02385e-07
0.00493557
-6.24721e-07
0.00493528
-4.71511e-07
0.00493503
-3.52875e-07
0.00493483
-2.46646e-07
0.00493467
-1.84281e-07
-9.65691e-08
0.00860757
0.008261
0.00786906
0.00738599
0.00685186
0.00621308
0.00542922
0.00450432
0.00327667
0.00189217
0.000767693
3.3649e-05
-0.000349688
-0.000477373
-0.000432279
-0.000233689
0.0001221
0.000564653
0.000987897
0.00133658
0.00161002
0.00182533
0.00199611
0.00212979
0.00223073
0.00230306
0.00235182
0.00238252
0.00240039
0.00240977
0.00241391
0.00241503
0.00241457
0.00241338
0.00241197
0.00241061
0.00240941
0.00240841
0.00240761
0.00240698
0.00240651
0.00240616
0.00240591
0.00240573
-9.13194e-05
9.13194e-05
-0.000380281
0.000288961
-0.0010846
0.000704317
-0.00211018
0.00102559
-0.00318123
0.00107105
-0.00407118
0.000889952
-0.00467439
0.000603202
-0.00491369
0.000239298
-0.00476915
-0.000144534
-0.00426236
-0.000506795
-0.00342805
-0.000834305
-0.00234189
-0.00108616
-0.0010807
-0.00126119
0.000248011
-0.00132871
0.00152516
-0.00127715
0.00261259
-0.00108743
0.00339236
-0.000779769
0.00380283
-0.000410466
0.0038631
-6.02751e-05
0.0036883
0.000174805
0.00340253
0.000285765
0.00311039
0.000292149
0.00286672
0.000243664
0.00268666
0.000180061
0.00256449
0.000122168
0.00248698
7.75144e-05
0.00244061
4.63712e-05
0.00241453
2.60759e-05
0.00240102
1.35132e-05
0.00239493
6.08578e-06
0.00239302
1.91549e-06
0.00239328
-2.65505e-07
0.00239461
-1.32346e-06
0.00239629
-1.68351e-06
0.00239798
-1.68874e-06
0.0023995
-1.51788e-06
0.00240078
-1.28465e-06
0.00240183
-1.04722e-06
0.00240266
-8.27542e-07
0.00240329
-6.38993e-07
0.00240377
-4.80077e-07
0.00240413
-3.57128e-07
0.00240438
-2.48973e-07
0.00240457
-1.85287e-07
-9.65986e-08
-0.000478132
0.000569451
-0.00115633
0.00096716
-0.00185385
0.00140184
-0.00245349
0.00162522
-0.00293513
0.00155269
-0.00325129
0.00120611
-0.00336017
0.000712086
-0.00322134
0.000100469
-0.00285216
-0.000513717
-0.00220824
-0.00115071
-0.00131561
-0.00172693
-0.000245787
-0.00215599
0.000904957
-0.00241193
0.00211976
-0.00254352
0.00328637
-0.00244376
0.00430406
-0.00210513
0.00514154
-0.00161725
0.0057569
-0.00102583
0.00609922
-0.000402589
0.00616513
0.000108892
0.00604233
0.000408564
0.00583452
0.000499958
0.00561624
0.000461946
0.00542554
0.000370761
0.00527466
0.000273047
0.00516235
0.000189824
0.00508217
0.000126553
0.00502678
8.14702e-05
0.00498964
5.06521e-05
0.00496549
3.02288e-05
0.00495033
1.70794e-05
0.0049412
8.86342e-06
0.00493597
3.9105e-06
0.0049332
1.0818e-06
0.00493194
-4.25397e-07
0.00493152
-1.09719e-06
0.00493156
-1.32338e-06
0.00493182
-1.31009e-06
0.00493216
-1.1698e-06
0.00493251
-9.84093e-07
0.00493282
-7.87964e-07
0.00493308
-6.20032e-07
0.00493328
-4.46122e-07
0.00493344
-3.48964e-07
-1.88896e-07
-0.000369555
0.000939006
-0.000384733
0.000982338
-0.000338456
0.00135556
-0.000254221
0.00154099
-9.91497e-05
0.00139762
0.00010116
0.0010058
0.00037251
0.000440737
0.000731285
-0.000258307
0.00124236
-0.00102479
0.00187777
-0.00178613
0.00263291
-0.00248207
0.00343474
-0.00295782
0.00420016
-0.00317735
0.00492981
-0.00327317
0.00559039
-0.00310434
0.00608187
-0.00259661
0.00642743
-0.00196281
0.00671606
-0.00131446
0.00693047
-0.000617003
0.00700203
3.73316e-05
0.00690924
0.000501354
0.00672052
0.000688679
0.00650735
0.000675119
0.00631453
0.000563582
0.00615843
0.000429145
0.00603919
0.000309064
0.00595093
0.000214813
0.00588693
0.000145468
0.00584138
9.62027e-05
0.00580961
6.19958e-05
0.00578796
3.87287e-05
0.00577357
2.32598e-05
0.00576424
1.32386e-05
0.00575837
6.9563e-06
0.00575477
3.16705e-06
0.00575267
1.00353e-06
0.00575149
-1.38677e-07
0.0057509
-7.20024e-07
0.00575064
-9.11298e-07
0.00575056
-9.09857e-07
0.00575058
-8.06701e-07
0.00575065
-6.83713e-07
0.00575072
-5.14224e-07
0.00575079
-4.19537e-07
-2.29255e-07
8.15787e-05
0.000857427
0.000587468
0.000476448
0.00121168
0.000731352
0.00192417
0.000828496
0.00265801
0.00066378
0.00331567
0.000348141
0.00394493
-0.000188525
0.00455679
-0.000870166
0.00514133
-0.00160933
0.00568423
-0.00232903
0.00620022
-0.00299806
0.00673766
-0.00349526
0.0072011
-0.00364079
0.00750343
-0.0035755
0.0076919
-0.00329281
0.00772977
-0.00263447
0.00758617
-0.00181921
0.00739378
-0.00112207
0.00728158
-0.000504805
0.00722469
9.42166e-05
0.00713948
0.000586571
0.00698539
0.000842763
0.00678537
0.000875144
0.00658166
0.000767291
0.00640407
0.000606737
0.00626399
0.000449138
0.00616044
0.000318361
0.00608703
0.000218876
0.00603641
0.000146828
0.00600216
9.62501e-05
0.00597931
6.15755e-05
0.00596426
3.83131e-05
0.00595445
2.30423e-05
0.00594815
1.32607e-05
0.00594415
7.15963e-06
0.00594168
3.48193e-06
0.00594019
1.3473e-06
0.0059393
1.68924e-07
0.00593879
-4.00785e-07
0.00593852
-6.34926e-07
0.00593838
-6.73637e-07
0.00593833
-6.29779e-07
0.00593831
-4.99903e-07
0.00593832
-4.25114e-07
-2.33539e-07
0.00105896
0.00180521
0.00276799
0.00383744
0.00487335
0.00584394
0.00671905
0.00744238
0.00804763
0.00855351
0.00888511
0.00906222
0.00910472
0.00894838
0.00861618
0.00816417
0.00760811
0.00705959
0.00665824
0.00647843
0.00645013
0.00645629
0.00643306
0.00636961
0.00628377
0.00619731
0.00612429
0.00606957
0.00603191
0.00600756
0.0059925
0.00598347
0.00597816
0.00597508
0.0059733
0.00597229
0.00597171
0.00597136
0.00597117
0.00597108
0.00597103
0.00597101
0.00597101
0.00597101
)
;

boundaryField
{
    inlet
    {
        type            calculated;
        value           nonuniform List<scalar> 5(-0.01 -0.01 -0.01 -0.01 -0.01);
    }
    outlet
    {
        type            calculated;
        value           nonuniform List<scalar> 10(0.00597114 0.00593872 0.00575157 0.00493458 0.00240563 0.00240466 0.00493353 0.00575083 0.00593832 0.00597101);
    }
    upperWall
    {
        type            calculated;
        value           uniform 0;
    }
    lowerWall
    {
        type            calculated;
        value           uniform 0;
    }
    frontAndBack
    {
        type            empty;
        value           nonuniform List<scalar> 0();
    }
}


// ************************************************************************* //
