/*--------------------------------*- C++ -*----------------------------------*\
  =========                 |
  \\      /  F ield         | OpenFOAM: The Open Source CFD Toolbox
   \\    /   O peration     | Website:  https://openfoam.org
    \\  /    A nd           | Version:  10
     \\/     M anipulation  |
\*---------------------------------------------------------------------------*/
FoamFile
{
    format      ascii;
    class       volScalarField;
    location    "2";
    object      p;
}
// * * * * * * * * * * * * * * * * * * * * * * * * * * * * * * * * * * * * * //

dimensions      [0 2 -2 0 0 0 0];

internalField   nonuniform List<scalar> 
400
(
7.42208e-11
2.24669e-06
6.0756e-05
0.000171053
0.000329811
0.000534132
0.000780151
0.0010629
0.00137627
0.00171298
0.00206456
0.00242146
0.00277314
0.00310837
0.00341556
0.00368327
0.00390082
0.00405891
0.00414882
0.00416349
-3.42773e-06
-2.06371e-06
5.64462e-05
0.000166093
0.000323761
0.000526944
0.000771996
0.00105411
0.00136732
0.00170444
0.00205707
0.00241569
0.0027697
0.00310773
0.00341801
0.00368885
0.0039093
0.00406996
0.0041619
0.00417634
-6.65089e-05
-6.68145e-05
-7.81573e-06
0.000103431
0.000263746
0.000470816
0.000721162
0.00101012
0.0013318
0.00167906
0.00204346
0.0024153
0.00278365
0.00313667
0.00346191
0.00374683
0.00397955
0.00414969
0.00424721
0.00426171
-0.000187133
-0.00018892
-0.000128532
-1.36514e-05
0.000152502
0.000367798
0.000628931
0.000931375
0.00126933
0.00163565
0.00202175
0.00241768
0.00281192
0.0031918
0.00354374
0.00385377
0.00410833
0.00429532
0.00440291
0.00441913
-0.000366361
-0.000369719
-0.000307059
-0.000186672
-1.17648e-05
0.000215773
0.000492865
0.000815167
0.00117698
0.00157115
0.00198896
0.00242015
0.00285238
0.00327184
0.00366335
0.00401083
0.00429825
0.0045108
0.00463397
0.00465362
-0.000607908
-0.000613266
-0.000547626
-0.000420045
-0.000233683
9.90701e-06
0.000307966
0.000656405
0.0010497
0.00148069
0.00194056
0.00241897
0.00290243
0.00337573
0.00382167
0.00422134
0.00455512
0.00480421
0.00494998
0.00497508
-0.00091674
-0.000924785
-0.000855701
-0.000719523
-0.000519319
-0.000256171
6.76054e-05
0.000448298
0.000880639
0.00135755
0.00187
0.00240861
0.00295786
0.00350122
0.00401909
0.00448894
0.00488623
0.00518629
0.0053642
0.00539759
-0.00129906
-0.00131079
-0.00123812
-0.00109233
-0.000876332
-0.000590547
-0.000236675
0.000182113
0.000660987
0.00119301
0.00176806
0.00238134
0.00301218
0.00364394
0.00425456
0.00481705
0.00530026
0.00567102
0.00589459
0.00594069
-0.00176244
-0.00177923
-0.00170326
-0.00154738
-0.00131421
-0.00100327
-0.000615439
-0.000153136
0.000379556
0.000976892
0.00163201
0.00232739
0.0030555
0.00379616
0.00452426
0.00520768
0.00580677
0.0062761
0.00656555
0.00663166
-0.00231594
-0.00233972
-0.0022613
-0.00209552
-0.00184454
-0.00150664
-0.00108164
-0.000571125
2.15456e-05
0.000691159
0.00143045
0.00222794
0.00307218
0.0039447
0.00481936
0.00565935
0.00641486
0.00702323
0.00741005
0.00750913
-0.00297037
-0.0030038
-0.00292453
-0.00274992
-0.00248137
-0.00211549
-0.00165078
-0.00108792
-0.000429621
0.000319642
0.0011537
0.00206429
0.00304126
0.00406892
0.00512263
0.0061631
0.00712996
0.00793741
0.00847267
0.0086295
-0.00373888
-0.00378557
-0.00370796
-0.00352668
-0.00324183
-0.00284769
-0.00234117
-0.00172222
-0.00099318
-0.000158029
0.000778487
0.001811
0.00293381
0.00413724
0.00540315
0.0066955
0.00794685
0.00904311
0.00981242
0.0100784
-0.00463789
-0.00470269
-0.00463032
-0.00444578
-0.00414697
-0.00372473
-0.0031742
-0.00249511
-0.00169041
-0.000764449
0.000278904
0.0014375
0.0027121
0.00410369
0.00560876
0.00720651
0.00883473
0.0103524
0.0115019
0.0119911
-0.0056893
-0.00577834
-0.00571575
-0.0055327
-0.00522315
-0.00477269
-0.00417454
-0.00342947
-0.00254302
-0.0015219
-0.000370707
0.00091084
0.00233089
0.00390563
0.0056569
0.00759972
0.00970744
0.0118358
0.0136241
0.0146074
-0.00692525
-0.00704541
-0.00699682
-0.00682101
-0.00650439
-0.00602373
-0.00537044
-0.00454892
-0.00357077
-0.0024487
-0.00119126
0.000201805
0.00174312
0.00346618
0.00542682
0.00770373
0.010367
0.0133575
0.0162565
0.0183864
-0.00840072
-0.00855302
-0.00851794
-0.00835622
-0.00803608
-0.00751865
-0.00679437
-0.00587636
-0.0047882
-0.00355398
-0.00219145
-0.000706399
0.000913089
0.00270792
0.00476391
0.00724222
0.0103985
0.0144437
0.0190521
0.0235207
-0.0101788
-0.010424
-0.0103662
-0.0102058
-0.00988055
-0.00931053
-0.00848402
-0.00743226
-0.00620034
-0.0048307
-0.00335646
-0.00179727
-0.000156649
0.00159153
0.00352531
0.00584632
0.00900289
0.0136513
0.0198556
0.0283981
-0.0127696
-0.0125901
-0.0124361
-0.0123998
-0.0121115
-0.0114662
-0.0104764
-0.00922093
-0.00778483
-0.00623581
-0.00462594
-0.00299374
-0.00138204
0.000199022
0.00173866
0.00333147
0.00540223
0.0095603
0.0168939
0.0348057
-0.0142739
-0.01659
-0.0161659
-0.0155632
-0.0149464
-0.0139954
-0.0126552
-0.0110635
-0.00934311
-0.00756642
-0.00579636
-0.0040739
-0.00251182
-0.00116047
-0.000287616
0.000267606
0.00129463
0.00738806
0.0201829
0.0645488
-0.0305511
-0.0175511
-0.014629
-0.0148321
-0.0148659
-0.0141245
-0.0128616
-0.0113332
-0.00966094
-0.0079045
-0.00615753
-0.00446273
-0.00306406
-0.00194727
-0.00159334
-0.000780789
0.00263267
0.0179846
0.0570398
0.125794
)
;

boundaryField
{
    movingWall
    {
        type            zeroGradient;
    }
    fixedWalls
    {
        type            zeroGradient;
    }
    frontAndBack
    {
        type            empty;
    }
}


// ************************************************************************* //
