/*--------------------------------*- C++ -*----------------------------------*\
  =========                 |
  \\      /  F ield         | OpenFOAM: The Open Source CFD Toolbox
   \\    /   O peration     | Website:  https://openfoam.org
    \\  /    A nd           | Version:  10
     \\/     M anipulation  |
\*---------------------------------------------------------------------------*/
FoamFile
{
    format      ascii;
    class       surfaceScalarField;
    location    "2";
    object      phi;
}
// * * * * * * * * * * * * * * * * * * * * * * * * * * * * * * * * * * * * * //

dimensions      [0 3 -1 0 0 0 0];

internalField   nonuniform List<scalar> 
760
(
-1.38982e-05
1.38982e-05
-3.41136e-05
2.02155e-05
-5.44223e-05
2.03086e-05
-7.34871e-05
1.90649e-05
-9.07825e-05
1.72954e-05
-0.000105888
1.51056e-05
-0.000118427
1.25387e-05
-0.000128067
9.64002e-06
-0.000134526
6.4594e-06
-0.000137579
3.05231e-06
-0.000137059
-5.19497e-07
-0.000132876
-4.1828e-06
-0.000125024
-7.85242e-06
-0.000113595
-1.14288e-05
-9.8797e-05
-1.47981e-05
-8.09621e-05
-1.7835e-05
-6.05587e-05
-2.04034e-05
-3.82683e-05
-2.22904e-05
-1.57392e-05
-2.25291e-05
-1.57392e-05
-2.09876e-05
3.48858e-05
-4.97335e-05
4.89613e-05
-7.84452e-05
4.90204e-05
-0.000105383
4.60024e-05
-0.000129764
4.1677e-05
-0.000150982
3.63236e-05
-0.00016851
3.00664e-05
-0.000181895
2.30248e-05
-0.000190762
1.53263e-05
-0.000194817
7.10779e-06
-0.000193857
-1.47917e-06
-0.000187774
-1.02662e-05
-0.000176579
-1.90474e-05
-0.000160416
-2.75919e-05
-0.000139581
-3.56327e-05
-0.000114543
-4.28729e-05
-8.59649e-05
-4.89819e-05
-5.48199e-05
-5.34354e-05
-2.32553e-05
-5.40936e-05
-3.89945e-05
-2.27728e-05
5.76586e-05
-5.39133e-05
8.01018e-05
-8.49446e-05
8.00517e-05
-0.000114026
7.5084e-05
-0.000140337
6.79874e-05
-0.000163232
5.92193e-05
-0.000182157
4.89914e-05
-0.000196637
3.75041e-05
-0.000206275
2.49652e-05
-0.000210762
1.15944e-05
-0.000209871
-2.37028e-06
-0.000203472
-1.6665e-05
-0.000191554
-3.09654e-05
-0.000174241
-4.4905e-05
-0.00015182
-5.80542e-05
-0.000124766
-6.9926e-05
-9.37796e-05
-7.99688e-05
-5.99008e-05
-8.73142e-05
-2.54474e-05
-8.85471e-05
-6.44418e-05
-2.42516e-05
8.19102e-05
-5.7491e-05
0.000113341
-9.05932e-05
0.000113154
-0.000121598
0.000106089
-0.00014965
9.60392e-05
-0.000174084
8.36536e-05
-0.00019433
6.92377e-05
-0.000209902
5.30755e-05
-0.00022039
3.54536e-05
-0.000225464
1.6668e-05
-0.000224868
-2.96642e-06
-0.000218426
-2.31064e-05
-0.000206078
-4.33141e-05
-0.00018789
-6.30923e-05
-0.000164103
-8.18413e-05
-0.000135167
-9.88623e-05
-0.000101793
-0.000113343
-6.51004e-05
-0.000124007
-2.76524e-05
-0.000125995
-9.20942e-05
-2.6247e-05
0.000108157
-6.22599e-05
0.000149354
-9.81035e-05
0.000148998
-0.000131655
0.00013964
-0.000162009
0.000126393
-0.000188476
0.000110121
-0.000210474
9.12356e-05
-0.000227508
7.01094e-05
-0.000239159
4.71045e-05
-0.000245073
2.25821e-05
-0.000244958
-3.08126e-06
-0.000238569
-2.94959e-05
-0.000225764
-5.61184e-05
-0.000206522
-8.23346e-05
-0.000180992
-0.000107371
-0.000149566
-0.000130289
-0.000112955
-0.000149954
-7.2386e-05
-0.000164575
-3.07798e-05
-0.000167601
-0.000122874
-2.88955e-05
0.000137053
-6.85546e-05
0.000189013
-0.000107982
0.000188425
-0.000144843
0.000176501
-0.00017817
0.00015972
-0.000207249
0.0001392
-0.000231492
0.000115479
-0.000250408
8.90256e-05
-0.000263577
6.02732e-05
-0.000270626
2.96316e-05
-0.000271227
-2.48023e-06
-0.000265031
-3.56926e-05
-0.000251788
-6.9361e-05
-0.000231333
-0.00010279
-0.000203665
-0.000135039
-0.000169056
-0.000164898
-0.000128181
-0.000190829
-8.23933e-05
-0.000210363
-3.51058e-05
-0.000214889
-0.00015798
-3.22847e-05
0.000169337
-7.65832e-05
0.000233312
-0.000120533
0.000232375
-0.000161532
0.0002175
-0.000198539
0.000196727
-0.000230822
0.000171483
-0.000257809
0.000142466
-0.000279036
0.000110252
-0.000294099
7.53362e-05
-0.000302621
3.81542e-05
-0.000304264
-8.37885e-07
-0.000298507
-4.14495e-05
-0.000284975
-8.28924e-05
-0.000263285
-0.00012448
-0.000233188
-0.000165136
-0.000194726
-0.00020336
-0.000148453
-0.000237102
-9.58377e-05
-0.000262979
-4.09579e-05
-0.000269769
-0.000198938
-3.65346e-05
0.000205872
-8.66167e-05
0.000283394
-0.000136142
0.0002819
-0.000182171
0.000263529
-0.000223585
0.000238141
-0.000259659
0.000207557
-0.00028987
0.000172677
-0.00031382
0.000134202
-0.000331164
9.26804e-05
-0.000341528
4.85177e-05
-0.000344671
2.3052e-06
-0.000339741
-4.63793e-05
-0.000326282
-9.63519e-05
-0.000303571
-0.000147191
-0.00027096
-0.000197747
-0.000228082
-0.000246237
-0.000175193
-0.000289991
-0.000113799
-0.000324372
-4.88504e-05
-0.000334718
-0.000247788
-4.18221e-05
0.000247694
-9.90425e-05
0.000340614
-0.000155342
0.0003382
-0.000207363
0.00031555
-0.000253916
0.000284694
-0.000294324
0.000247965
-0.000328178
0.000206531
-0.00035522
0.000161244
-0.000375234
0.000112695
-0.00038796
6.1244e-05
-0.0003929
7.24492e-06
-0.000389513
-4.97662e-05
-0.000376814
-0.000109051
-0.000353678
-0.000170327
-0.000318855
-0.00023257
-0.000271267
-0.000293825
-0.000210535
-0.000350723
-0.000137978
-0.000396929
-5.96263e-05
-0.000413069
-0.000307414
-4.84138e-05
0.000296108
-0.000114429
0.000406629
-0.000178891
0.000402663
-0.00023793
0.000374589
-0.00029032
0.000337083
-0.000335508
0.000293154
-0.000373299
0.000244321
-0.000403674
0.000191619
-0.000426643
0.000135664
-0.00044209
7.66905e-05
-0.000449678
1.48331e-05
-0.000448642
-5.08021e-05
-0.000437792
-0.000119901
-0.000415407
-0.000192712
-0.000379341
-0.000268636
-0.00032733
-0.000345835
-0.000257736
-0.000420317
-0.000171138
-0.000483528
-7.47415e-05
-0.000509466
-0.000382156
-5.6723e-05
0.000352831
-0.000133628
0.000483534
-0.000207885
0.00047692
-0.000275014
0.000441718
-0.000333834
0.000395903
-0.000384057
0.000343377
-0.000425851
0.000286115
-0.000459594
0.000225362
-0.000485665
0.000161735
-0.000504262
9.52876e-05
-0.00051514
2.57106e-05
-0.000517699
-4.82428e-05
-0.000510377
-0.000127223
-0.000490798
-0.000212291
-0.000455589
-0.000303846
-0.000400609
-0.000400815
-0.000321866
-0.00049906
-0.00021796
-0.000587434
-9.68875e-05
-0.000630538
-0.000479043
-6.74141e-05
0.000420245
-0.00015796
0.00057408
-0.000243943
0.000562903
-0.000320219
0.000517994
-0.000385839
0.000461523
-0.000441012
0.000398549
-0.000486498
0.000331601
-0.000523281
0.000262145
-0.000552301
0.000190755
-0.000574223
0.000117209
-0.000589254
4.0742e-05
-0.000596853
-4.06439e-05
-0.000595416
-0.00012866
-0.000581918
-0.000225789
-0.000551481
-0.000334282
-0.000497204
-0.000455092
-0.000410929
-0.000585335
-0.000286702
-0.000711661
-0.000131454
-0.000785787
-0.000610497
-8.15968e-05
0.000501842
-0.000189522
0.000682005
-0.0002895
0.000662882
-0.000375826
0.00060432
-0.000448183
0.00053388
-0.000507659
0.000458026
-0.000555938
0.00037988
-0.000594882
0.000301089
-0.000626234
0.000222108
-0.000651382
0.000142357
-0.000671081
6.04406e-05
-0.00068541
-2.63143e-05
-0.000692927
-0.000121143
-0.000690333
-0.000228383
-0.000671323
-0.000353292
-0.000625412
-0.000501002
-0.000537642
-0.000673106
-0.000392497
-0.000856807
-0.00019015
-0.000988133
-0.000800647
-0.000101206
0.000603047
-0.000231762
0.000812561
-0.000348287
0.000779407
-0.000445094
0.000701127
-0.000523331
0.000612116
-0.000585574
0.000520269
-0.00063487
0.000429176
-0.000674287
0.000340506
-0.000706629
0.00025445
-0.000734244
0.000169971
-0.00075879
8.4987e-05
-0.00078133
-3.77431e-06
-0.000801277
-0.000101196
-0.000816011
-0.00021365
-0.000818775
-0.000350529
-0.000795608
-0.000524169
-0.00072188
-0.000746834
-0.000563817
-0.00101487
-0.000299994
-0.00125196
-0.00110064
-0.000129784
0.000732831
-0.000290555
0.000973333
-0.000426074
0.000914926
-0.000532639
0.000807692
-0.000614498
0.000693975
-0.000676611
0.000582383
-0.000723905
0.00047647
-0.000760994
0.000377594
-0.000791978
0.000285435
-0.000820352
0.000198345
-0.000848971
0.000113606
-0.000880404
2.76594e-05
-0.000915777
-6.58234e-05
-0.000955046
-0.00017438
-0.00099375
-0.000311825
-0.00101734
-0.000500579
-0.000990789
-0.000773385
-0.000849099
-0.00115656
-0.000515123
-0.00158593
-0.00161576
-0.000174477
0.000907308
-0.000376345
0.0011752
-0.000531717
0.0010703
-0.00064473
0.000920704
-0.00072551
0.000774755
-0.000782469
0.000639342
-0.000822894
0.000516895
-0.000853241
0.000407941
-0.000879052
0.000311246
-0.000905004
0.000224297
-0.000935304
0.000143905
-0.000973766
6.61213e-05
-0.00102513
-1.44605e-05
-0.00109375
-0.000105758
-0.00118241
-0.000223169
-0.00128316
-0.000399825
-0.00135446
-0.000702087
-0.00128256
-0.00122846
-0.000878376
-0.00199011
-0.00249414
-0.000245241
0.00115255
-0.000508855
0.00143882
-0.000679264
0.00124071
-0.000788158
0.0010296
-0.000857377
0.000843974
-0.000899117
0.000681082
-0.000923244
0.000541022
-0.000938401
0.000423097
-0.000951614
0.000324459
-0.000968367
0.00024105
-0.00099363
0.000169168
-0.00103266
0.000105147
-0.00109248
4.53684e-05
-0.00118365
-1.45875e-05
-0.00131957
-8.72536e-05
-0.00150498
-0.000214415
-0.00169744
-0.000509627
-0.00171947
-0.00120644
-0.00126164
-0.00244794
-0.00375578
-0.000347829
0.00150038
-0.000703669
0.00179465
-0.000873249
0.00141029
-0.000941391
0.00109774
-0.000957396
0.000859979
-0.000945303
0.000668988
-0.000919973
0.000515692
-0.000892668
0.000395793
-0.000871047
0.000302838
-0.000859307
0.00022931
-0.000861192
0.000171053
-0.000880442
0.000124397
-0.000924876
8.98029e-05
-0.00100284
6.33788e-05
-0.00113401
4.39165e-05
-0.00132432
-2.41102e-05
-0.00154995
-0.000283995
-0.00157147
-0.00118491
-0.00122841
-0.00279101
-0.00498419
-0.00136572
0.00286609
-0.00123445
0.00166339
-0.000838106
0.00101394
-0.000510431
0.000770065
-0.000244716
0.000594264
-2.12717e-05
0.000445545
0.000162768
0.000331652
0.000309107
0.000249454
0.000422377
0.000189567
0.000506964
0.000144723
0.000565872
0.000112145
0.000602681
8.75881e-05
0.000614103
7.83806e-05
0.000604695
7.27868e-05
0.000561414
8.71976e-05
0.000492924
4.43798e-05
0.000408562
-0.000199633
0.000215018
-0.000991368
0.000306044
-0.00288203
-0.00467814
0.00286609
0.00452949
0.00554343
0.00631349
0.00690776
0.0073533
0.00768495
0.00793441
0.00812397
0.0082687
0.00838084
0.00846843
0.00854681
0.0086196
0.0087068
0.00875118
0.00855154
0.00756017
0.00467814
)
;

boundaryField
{
    movingWall
    {
        type            calculated;
        value           uniform 0;
    }
    fixedWalls
    {
        type            calculated;
        value           uniform 0;
    }
    frontAndBack
    {
        type            empty;
        value           nonuniform List<scalar> 0();
    }
}


// ************************************************************************* //
