/*--------------------------------*- C++ -*----------------------------------*\
  =========                 |
  \\      /  F ield         | OpenFOAM: The Open Source CFD Toolbox
   \\    /   O peration     | Website:  https://openfoam.org
    \\  /    A nd           | Version:  10
     \\/     M anipulation  |
\*---------------------------------------------------------------------------*/
FoamFile
{
    format      ascii;
    class       volVectorField;
    location    "2";
    object      U;
}
// * * * * * * * * * * * * * * * * * * * * * * * * * * * * * * * * * * * * * //

dimensions      [0 1 -1 0 0 0 0];

internalField   nonuniform List<vector> 
400
(
(-0.000331018 0.000325558 0)
(-0.00118031 0.000476627 0)
(-0.00221509 0.000479734 0)
(-0.00320731 0.000450779 0)
(-0.00411921 0.00040945 0)
(-0.00493148 0.000358213 0)
(-0.00562449 0.000298018 0)
(-0.00618049 0.000229882 0)
(-0.00658412 0.000154954 0)
(-0.00682266 7.45218e-05 0)
(-0.0068863 -9.9398e-06 0)
(-0.00676862 -9.6739e-05 0)
(-0.00646714 -0.000183791 0)
(-0.00598398 -0.000268718 0)
(-0.00532662 -0.000348796 0)
(-0.00450861 -0.000421022 0)
(-0.00354949 -0.000482194 0)
(-0.00247288 -0.000527346 0)
(-0.00133046 -0.00053336 0)
(-0.000376372 -0.00037135 0)
(-0.000501676 0.00119047 0)
(-0.00174153 0.00168976 0)
(-0.00320884 0.00169397 0)
(-0.00461239 0.00159019 0)
(-0.00589998 0.00144173 0)
(-0.00704366 0.00125789 0)
(-0.00801543 0.00104266 0)
(-0.0087907 0.00080002 0)
(-0.0093488 0.000534267 0)
(-0.009673 0.000250104 0)
(-0.00975086 -4.72218e-05 0)
(-0.00957453 -0.000351702 0)
(-0.00914154 -0.000656268 0)
(-0.00845569 -0.000952747 0)
(-0.00752794 -0.00123179 0)
(-0.00637749 -0.00148307 0)
(-0.00503202 -0.00169521 0)
(-0.00352504 -0.00185032 0)
(-0.00192548 -0.00187247 0)
(-0.00055765 -0.00133696 0)
(-0.000543324 0.00230075 0)
(-0.00188807 0.00320804 0)
(-0.00347692 0.0032083 0)
(-0.00499326 0.00301014 0)
(-0.00638302 0.00272653 0)
(-0.00761717 0.00237571 0)
(-0.00866605 0.00196599 0)
(-0.00950379 0.00150531 0)
(-0.0101087 0.00100202 0)
(-0.0104631 0.000465023 0)
(-0.0105535 -9.59329e-05 0)
(-0.0103711 -0.000669778 0)
(-0.00991214 -0.0012436 0)
(-0.00917942 -0.00180234 0)
(-0.0081831 -0.00232863 0)
(-0.00694232 -0.00280303 0)
(-0.00548579 -0.0032037 0)
(-0.00384882 -0.00349621 0)
(-0.00210503 -0.00354314 0)
(-0.000609999 -0.00257052 0)
(-0.000578032 0.00347917 0)
(-0.00201217 0.00481997 0)
(-0.00370821 0.00481391 0)
(-0.00532536 0.00451449 0)
(-0.00680695 0.00408765 0)
(-0.00812321 0.00356079 0)
(-0.00924365 0.00294675 0)
(-0.0101418 0.00225759 0)
(-0.0107952 0.00150567 0)
(-0.0111856 0.000703891 0)
(-0.0112983 -0.000133815 0)
(-0.0111224 -0.000991836 0)
(-0.0106519 -0.0018516 0)
(-0.00988683 -0.00269122 0)
(-0.00883467 -0.00348499 0)
(-0.00751266 -0.00420343 0)
(-0.00594906 -0.00481273 0)
(-0.00418065 -0.00525989 0)
(-0.0022881 -0.00533997 0)
(-0.000662718 -0.00389847 0)
(-0.000625449 0.00473823 0)
(-0.00217855 0.0065459 0)
(-0.00401599 0.0065323 0)
(-0.00576658 0.00612372 0)
(-0.00736966 0.00554382 0)
(-0.00879439 0.00483008 0)
(-0.0100095 0.00400028 0)
(-0.0109879 0.00307076 0)
(-0.011707 0.00205773 0)
(-0.0121476 0.00097766 0)
(-0.0122936 -0.000152056 0)
(-0.0121314 -0.00131219 0)
(-0.0116513 -0.00247912 0)
(-0.0108489 -0.00362452 0)
(-0.00972719 -0.00471406 0)
(-0.0082995 -0.00570697 0)
(-0.00659235 -0.00655505 0)
(-0.00464416 -0.00718254 0)
(-0.00254612 -0.00730701 0)
(-0.000737884 -0.00535335 0)
(-0.00068867 0.00611262 0)
(-0.00239881 0.00843134 0)
(-0.00442155 0.008408 0)
(-0.00634606 0.0078788 0)
(-0.00810652 0.00713154 0)
(-0.0096709 0.00621532 0)
(-0.0110073 0.00515367 0)
(-0.0120888 0.00396752 0)
(-0.0128929 0.00267674 0)
(-0.0133999 0.00130069 0)
(-0.0135925 -0.000140788 0)
(-0.0134536 -0.00162675 0)
(-0.012968 -0.00312932 0)
(-0.0121252 -0.00461474 0)
(-0.0109204 -0.00604008 0)
(-0.00936015 -0.00735179 0)
(-0.00746654 -0.00848368 0)
(-0.00527868 -0.00933064 0)
(-0.00290189 -0.00951763 0)
(-0.000842187 -0.0069928 0)
(-0.000769771 0.00763748 0)
(-0.0026803 0.0105232 0)
(-0.00493797 0.0104859 0)
(-0.007081 0.00981993 0)
(-0.00903716 0.00888571 0)
(-0.0107735 0.00774628 0)
(-0.0122584 0.00643218 0)
(-0.0134659 0.0049694 0)
(-0.0143749 0.0033812 0)
(-0.0149661 0.00168886 0)
(-0.0152219 -8.65473e-05 0)
(-0.0151208 -0.0019261 0)
(-0.0146401 -0.00379845 0)
(-0.0137605 -0.00566691 0)
(-0.0124654 -0.00748078 0)
(-0.0107491 -0.00917235 0)
(-0.00862417 -0.0106527 0)
(-0.00612742 -0.0117776 0)
(-0.00338181 -0.0120569 0)
(-0.000983703 -0.00888444 0)
(-0.000871726 0.00935249 0)
(-0.00303286 0.0128747 0)
(-0.00558201 0.0128156 0)
(-0.00799265 0.0119901 0)
(-0.0101849 0.0108423 0)
(-0.0121258 0.00945264 0)
(-0.0137854 0.00786049 0)
(-0.0151409 0.00609767 0)
(-0.0161745 0.00419035 0)
(-0.0168687 0.00215977 0)
(-0.0172084 2.40974e-05 0)
(-0.0171664 -0.00219474 0)
(-0.0167098 -0.00447425 0)
(-0.0158085 -0.00677684 0)
(-0.0144274 -0.00904617 0)
(-0.0125399 -0.0111999 0)
(-0.0101399 -0.0131208 0)
(-0.00725438 -0.0146113 0)
(-0.00402656 -0.0150328 0)
(-0.00117522 -0.0111159 0)
(-0.000999006 0.0113047 0)
(-0.00347083 0.0155477 0)
(-0.00637736 0.0154533 0)
(-0.00911011 0.0144358 0)
(-0.0115805 0.0130382 0)
(-0.0137573 0.0113631 0)
(-0.0156151 0.00946155 0)
(-0.0171378 0.00737224 0)
(-0.0183145 0.00512382 0)
(-0.019134 0.00273581 0)
(-0.019578 0.000220967 0)
(-0.0196207 -0.0024056 0)
(-0.0192237 -0.00513131 0)
(-0.018334 -0.00792536 0)
(-0.0168909 -0.010732 0)
(-0.0148343 -0.0134568 0)
(-0.0121228 -0.0159493 0)
(-0.00875795 -0.0179389 0)
(-0.00490157 -0.0185876 0)
(-0.00143794 -0.0138076 0)
(-0.00115847 0.0135522 0)
(-0.00401554 0.0186171 0)
(-0.0073582 0.0184636 0)
(-0.0104739 0.0172072 0)
(-0.0132649 0.0155098 0)
(-0.0157054 0.0135032 0)
(-0.0177789 0.0112538 0)
(-0.0194812 0.00880887 0)
(-0.0208135 0.0061988 0)
(-0.0217741 0.00343901 0)
(-0.0223523 0.000533307 0)
(-0.0225212 -0.00252124 0)
(-0.0222321 -0.00572633 0)
(-0.0214119 -0.00906979 0)
(-0.0199627 -0.0125085 0)
(-0.0177717 -0.0159453 0)
(-0.014734 -0.0191953 0)
(-0.0107934 -0.0218904 0)
(-0.00611678 -0.0229155 0)
(-0.00180899 -0.0171347 0)
(-0.001361 0.0161696 0)
(-0.00469969 0.0221761 0)
(-0.00857509 0.0219222 0)
(-0.0121417 0.0203575 0)
(-0.0152937 0.0182903 0)
(-0.0180175 0.0158914 0)
(-0.0203133 0.0132473 0)
(-0.0221966 0.0104152 0)
(-0.0236881 0.00742659 0)
(-0.0248032 0.00428941 0)
(-0.025542 0.000991997 0)
(-0.0258843 -0.00249108 0)
(-0.0257764 -0.00619165 0)
(-0.0251206 -0.0101319 0)
(-0.0237724 -0.0143025 0)
(-0.0215412 -0.0186257 0)
(-0.0182136 -0.0228943 0)
(-0.0136132 -0.0266181 0)
(-0.00786734 -0.0282897 0)
(-0.00235843 -0.0213687 0)
(-0.00162447 0.0192581 0)
(-0.00557494 0.0263449 0)
(-0.0101046 0.0259188 0)
(-0.0141964 0.0239414 0)
(-0.0177428 0.0214058 0)
(-0.0207546 0.0185336 0)
(-0.0232608 0.0154371 0)
(-0.0253075 0.0121847 0)
(-0.0269447 0.00880756 0)
(-0.0282141 0.00530227 0)
(-0.0291383 0.00163604 0)
(-0.0297108 -0.00224889 0)
(-0.0298794 -0.00642831 0)
(-0.0295299 -0.010982 0)
(-0.0284661 -0.0159692 0)
(-0.0263926 -0.0213775 0)
(-0.0229203 -0.0270203 0)
(-0.0176392 -0.0322803 0)
(-0.010522 -0.0350984 0)
(-0.0032302 -0.0269645 0)
(-0.00197955 0.0229627 0)
(-0.00672579 0.0312855 0)
(-0.0120654 0.0305603 0)
(-0.0167597 0.028011 0)
(-0.020717 0.0248667 0)
(-0.0239953 0.0214138 0)
(-0.0266704 0.0177945 0)
(-0.0288339 0.0140885 0)
(-0.030578 0.0103232 0)
(-0.0319822 0.0064798 0)
(-0.0331009 0.00249869 0)
(-0.0339573 -0.00171654 0)
(-0.0345196 -0.00630238 0)
(-0.0346734 -0.0114223 0)
(-0.0341839 -0.0172536 0)
(-0.0326358 -0.0239317 0)
(-0.0293829 -0.0313996 0)
(-0.0235925 -0.038982 0)
(-0.0148221 -0.0438987 0)
(-0.00474543 -0.0347739 0)
(-0.00248123 0.0275046 0)
(-0.00829555 0.0372239 0)
(-0.0146467 0.0359723 0)
(-0.0200117 0.0326055 0)
(-0.0243609 0.0286549 0)
(-0.0278401 0.0244809 0)
(-0.0305977 0.0202551 0)
(-0.0327893 0.0160637 0)
(-0.034563 0.0119255 0)
(-0.0360479 0.00780171 0)
(-0.0373446 0.00360243 0)
(-0.0385233 -0.000813947 0)
(-0.0395992 -0.00565041 0)
(-0.0404992 -0.0111753 0)
(-0.0410015 -0.0177426 0)
(-0.0406046 -0.0257627 0)
(-0.0383472 -0.0355358 0)
(-0.0327129 -0.0465979 0)
(-0.0223158 -0.0554162 0)
(-0.00765058 -0.0465118 0)
(-0.00323306 0.0332474 0)
(-0.0105373 0.0444851 0)
(-0.0181567 0.0422897 0)
(-0.0242188 0.0377282 0)
(-0.0288706 0.0327001 0)
(-0.032414 0.027629 0)
(-0.0351022 0.0227018 0)
(-0.0371745 0.018 0)
(-0.038848 0.0135238 0)
(-0.040311 0.00920794 0)
(-0.0417214 0.0049308 0)
(-0.0432152 0.000509802 0)
(-0.0448883 -0.00430545 0)
(-0.0467776 -0.00989769 0)
(-0.0487928 -0.0168307 0)
(-0.0504997 -0.0259389 0)
(-0.0506988 -0.0382554 0)
(-0.0469206 -0.0541454 0)
(-0.0359014 -0.0697619 0)
(-0.0133959 -0.0649245 0)
(-0.00444615 0.0407168 0)
(-0.0139287 0.053612 0)
(-0.023109 0.0496589 0)
(-0.0297664 0.0433027 0)
(-0.0344953 0.0368426 0)
(-0.0378505 0.0306708 0)
(-0.0402191 0.0249465 0)
(-0.0419395 0.0197245 0)
(-0.0433074 0.014971 0)
(-0.0445738 0.0105839 0)
(-0.0459564 0.00641325 0)
(-0.0476532 0.0022561 0)
(-0.0498786 -0.00215939 0)
(-0.0528691 -0.00726153 0)
(-0.0568435 -0.0137753 0)
(-0.0617683 -0.0230314 0)
(-0.0665082 -0.0372291 0)
(-0.0673774 -0.0587605 0)
(-0.058185 -0.085398 0)
(-0.0223262 -0.0953243 0)
(-0.00653116 0.0523619 0)
(-0.0192355 0.0646226 0)
(-0.0304215 0.0575892 0)
(-0.0371882 0.0489812 0)
(-0.0414263 0.0407602 0)
(-0.0440684 0.0332827 0)
(-0.0456263 0.026671 0)
(-0.0465486 0.0209422 0)
(-0.0472171 0.0160059 0)
(-0.047935 0.0116985 0)
(-0.0489549 0.00784408 0)
(-0.0505238 0.00424669 0)
(-0.0529433 0.000677601 0)
(-0.0566554 -0.00323496 0)
(-0.0623404 -0.00814859 0)
(-0.0706643 -0.0158567 0)
(-0.080872 -0.0304159 0)
(-0.0877688 -0.0598053 0)
(-0.0835283 -0.108039 0)
(-0.0253031 -0.157556 0)
(-0.00572072 0.0594148 0)
(-0.0277629 0.0838911 0)
(-0.0414681 0.0698667 0)
(-0.0461568 0.0549842 0)
(-0.0477767 0.0435971 0)
(-0.0476487 0.0343591 0)
(-0.0465991 0.0267964 0)
(-0.0452291 0.0207142 0)
(-0.0439831 0.0158486 0)
(-0.0431334 0.0118832 0)
(-0.0428676 0.00861582 0)
(-0.0433576 0.00586451 0)
(-0.0448946 0.0035393 0)
(-0.0478542 0.0013877 0)
(-0.0531544 -0.000996894 0)
(-0.0617472 -0.00637322 0)
(-0.0739156 -0.0223251 0)
(-0.0817962 -0.068475 0)
(-0.0885653 -0.153203 0)
(0.000946773 -0.256319 0)
(-0.0797875 0.118112 0)
(-0.0663208 0.0813114 0)
(-0.0496343 0.0553267 0)
(-0.033276 0.0438502 0)
(-0.0184118 0.034634 0)
(-0.00599465 0.0266864 0)
(0.00413018 0.0204023 0)
(0.0122876 0.0156654 0)
(0.0186926 0.0120716 0)
(0.0235542 0.00927861 0)
(0.0270799 0.00713855 0)
(0.0295146 0.00553025 0)
(0.0306301 0.00465008 0)
(0.0309331 0.00428631 0)
(0.028841 0.00465092 0)
(0.0261302 0.00138344 0)
(0.0170345 -0.0142436 0)
(0.022574 -0.0688807 0)
(-0.012586 -0.172769 0)
(0.0779729 -0.266332 0)
(0.147828 0.115793 0)
(0.183052 0.0861719 0)
(0.24603 0.0585988 0)
(0.297238 0.041144 0)
(0.333224 0.0297584 0)
(0.358553 0.0215846 0)
(0.377197 0.0155752 0)
(0.391319 0.0112787 0)
(0.402063 0.00826936 0)
(0.410341 0.00613281 0)
(0.416472 0.00466344 0)
(0.421804 0.00353131 0)
(0.424807 0.00301362 0)
(0.430272 0.00250583 0)
(0.428397 0.00309215 0)
(0.437082 0.00366961 0)
(0.414855 0.00154782 0)
(0.415729 -0.00210719 0)
(0.313422 -0.031346 0)
(0.27671 -0.0841045 0)
)
;

boundaryField
{
    movingWall
    {
        type            fixedValue;
        value           uniform (1 0 0);
    }
    fixedWalls
    {
        type            noSlip;
    }
    frontAndBack
    {
        type            empty;
    }
}


// ************************************************************************* //
