/*--------------------------------*- C++ -*----------------------------------*\
  =========                 |
  \\      /  F ield         | OpenFOAM: The Open Source CFD Toolbox
   \\    /   O peration     | Website:  https://openfoam.org
    \\  /    A nd           | Version:  10
     \\/     M anipulation  |
\*---------------------------------------------------------------------------*/
FoamFile
{
    format      ascii;
    class       volScalarField;
    location    "6.4";
    object      p;
}
// * * * * * * * * * * * * * * * * * * * * * * * * * * * * * * * * * * * * * //

dimensions      [0 2 -2 0 0 0 0];

internalField   nonuniform List<scalar> 
496
(
29.6935
29.0885
25.351
19.3182
30.919
30.5056
25.8602
19.4483
35.8842
33.4714
25.7543
15.4781
42.8415
40.2796
36.7
22.1569
11.1484
1.97074
10.6597
1.55783
0.197027
-5.92231
-27.3013
-51.56
-5.63397
-10.9189
-14.0862
-15.6737
-6.59413
-12.7508
-16.6478
-18.5478
-1.93691
-4.59681
-11.2349
-16.1949
-22.6538
-12.2872
-15.3926
-18.4076
-16.162
-16.1882
-15.7337
-14.9032
-13.7793
-12.8397
-12.3313
-11.7481
-10.8359
-9.66003
-8.66316
-7.91877
-7.88762
-7.87959
-7.24655
-6.33604
-6.09542
-6.72488
-6.9267
-6.41534
-5.27828
-4.39418
-3.99138
-3.78818
-3.73399
-3.50134
-3.38818
-3.25941
-3.25856
-3.32409
-3.20385
-2.99326
-2.56118
-2.08252
-1.56447
-1.11175
-0.759179
-0.496771
-0.342126
-0.125591
-19.0519
-18.3521
-16.6649
-14.9207
-13.6606
-13.0181
-12.403
-11.4822
-10.55
-9.57535
-8.4857
-7.69764
-7.63212
-7.73123
-7.35933
-6.57343
-6.21123
-6.44685
-6.69228
-6.40669
-5.5267
-4.57104
-3.97556
-3.607
-3.45991
-3.35391
-3.34745
-3.36529
-3.475
-3.50337
-3.36823
-3.04422
-2.55695
-2.08008
-1.50737
-1.02437
-0.539948
-0.30206
-0.124191
0.0415012
-19.1726
-19.059
-17.1527
-15.6576
-15.0642
-14.3603
-13.2821
-12.2017
-11.0714
-9.66882
-8.25884
-7.46841
-7.35785
-7.56549
-7.49747
-6.98573
-6.78614
-6.6926
-6.74292
-6.3508
-5.61979
-4.86357
-3.79283
-3.4074
-3.24535
-3.48308
-3.73926
-4.11799
-4.32905
-4.04431
-3.81906
-3.24315
-2.64385
-2.04447
-1.51601
-0.958456
-0.621373
-0.402946
-0.219562
-0.136391
-17.9336
-15.4838
-14.3964
-14.8593
-13.3406
-12.4333
-13.3284
-13.352
-11.5619
-9.34618
-7.50836
-6.75889
-6.43782
-6.80061
-6.73763
-6.52527
-6.98429
-7.20414
-7.66999
-7.37355
-6.5988
-4.84775
-2.85488
-2.06899
-1.58425
-1.99006
-2.81975
-3.93419
-4.12385
-4.08929
-4.16069
-3.41389
-2.89125
-2.0422
-1.37231
-0.537687
-0.274797
-0.158828
0.304094
-0.0489695
46.4791
48.8725
62.3246
74.8633
46.0802
47.4112
61.5478
73.6983
-23.7713
-35.9181
-24.3745
-21.2535
-26.9483
-28.4979
-31.3154
-26.1452
-25.1171
-16.598
-21.3283
-17.0156
-14.132
-16.5828
-15.2717
-12.3063
-10.078
-9.06502
-8.03249
-7.11706
-6.68976
-5.76732
-4.94662
-5.28541
-6.09453
-6.36308
-6.7361
-6.8817
-6.17718
-5.58725
-5.25382
-4.06838
-3.36329
-4.11532
-4.28949
-3.96011
-3.88938
-3.9577
-3.55946
-2.99008
-2.62887
-2.12373
-1.5774
-1.2727
-0.903005
-0.391947
-0.0885568
-0.093903
-21.8198
-19.1551
-16.7869
-22.315
-17.5143
-14.9895
-15.46
-13.3885
-10.6778
-9.01457
-7.62206
-6.4057
-5.58136
-5.11546
-4.3431
-4.19975
-4.6167
-4.88843
-5.6517
-5.96278
-5.78196
-6.24356
-6.52939
-6.17767
-5.89478
-5.65503
-5.4378
-4.77445
-3.89423
-3.39084
-2.99498
-2.56869
-2.29887
-2.285
-2.16238
-1.9424
-1.80961
-1.46911
-0.802633
-0.0781994
41.4181
37.8879
33.9176
17.4284
32.9568
30.5838
21.9272
11.6033
27.9274
28.5609
24.2814
18.0469
27.2285
27.5546
24.0805
17.7871
-35.4466
-59.7048
-3.95479
-8.86139
9.16517
0.251167
9.3135
-0.0454527
-30.2602
-12.9526
-6.00191
-18.544
-2.28507
-2.62251
-7.7695
-16.024
-7.09966
-13.0504
-16.7747
-18.8266
-7.17561
-11.9715
-14.762
-16.1806
-24.3772
-22.9516
-18.4789
-15.2529
-15.9509
-16.2613
-14.5222
-12.2218
-10.4555
-8.64943
-7.28497
-5.63572
-4.24716
-3.24632
-2.4897
-3.27548
-3.70228
-4.54189
-4.98555
-5.79367
-6.38214
-6.61135
-7.41917
-7.38657
-7.16514
-6.34862
-5.80799
-5.00374
-3.89329
-3.02257
-2.21286
-2.04796
-1.75079
-2.00236
-1.96405
-2.07801
-1.9986
-1.60252
-1.25842
-0.200227
-21.3282
-22.6108
-19.4584
-16.3974
-15.4318
-14.7924
-13.4496
-11.7858
-10.4646
-9.12977
-8.01514
-7.05137
-6.12931
-5.06906
-4.13307
-3.88839
-4.19725
-4.93267
-5.48321
-5.84633
-6.17326
-6.27225
-6.54576
-6.55779
-6.34486
-5.7891
-5.14995
-4.50391
-3.80473
-3.3538
-2.96129
-2.72432
-2.48192
-2.31599
-2.15008
-1.94186
-1.66682
-1.22892
-0.819998
-0.273865
-20.329
-20.7224
-19.0778
-16.9222
-15.424
-14.231
-12.8369
-11.4487
-10.289
-9.35688
-8.29517
-7.28793
-6.28992
-5.42337
-4.66718
-4.21758
-4.50348
-5.0263
-5.55086
-5.64759
-5.63445
-5.71142
-5.84863
-6.03592
-5.94845
-5.73902
-5.26289
-4.78768
-4.23129
-3.70408
-3.18594
-2.67445
-2.36251
-1.98388
-1.79337
-1.48626
-1.23752
-0.988962
-0.706643
-0.309916
-16.8874
-17.3134
-17.6141
-16.5616
-15.0846
-13.8705
-12.5987
-11.1835
-10.0296
-9.39804
-8.51354
-7.46049
-6.40985
-5.65607
-5.05459
-4.57817
-4.73264
-5.1225
-5.56784
-5.57635
-5.49763
-5.56033
-5.75758
-5.99687
-5.86534
-5.60138
-5.10033
-4.64716
-4.14668
-3.63893
-3.21206
-2.76714
-2.43018
-2.07261
-1.81248
-1.53319
-1.25358
-1.06073
-0.739428
-0.294149
)
;

boundaryField
{
    inlet
    {
        type            zeroGradient;
    }
    outlet
    {
        type            fixedValue;
        value           uniform 0;
    }
    obstacle
    {
        type            zeroGradient;
    }
    upperWall
    {
        type            zeroGradient;
    }
    lowerWall
    {
        type            zeroGradient;
    }
    frontAndBack
    {
        type            empty;
    }
}


// ************************************************************************* //
