/*--------------------------------*- C++ -*----------------------------------*\
  =========                 |
  \\      /  F ield         | OpenFOAM: The Open Source CFD Toolbox
   \\    /   O peration     | Website:  https://openfoam.org
    \\  /    A nd           | Version:  10
     \\/     M anipulation  |
\*---------------------------------------------------------------------------*/
FoamFile
{
    format      ascii;
    class       surfaceScalarField;
    location    "6.4";
    object      phi;
}
// * * * * * * * * * * * * * * * * * * * * * * * * * * * * * * * * * * * * * //

dimensions      [0 3 -1 0 0 0 0];

internalField   nonuniform List<scalar> 
928
(
0.0976488
0.00235121
0.103577
-0.00592781
0.107156
-0.00357979
-0.00925038
0.116407
0.096355
0.00599623
0.106363
-0.0159363
0.104731
-0.00194746
-0.0183913
0.113872
0.0962673
0.00972898
0.107011
-0.0266797
0.104772
0.000291077
-0.036779
0.12316
0.100369
0.00936031
0.0937992
-0.0201103
0.0959115
-0.00182124
0.143714
-0.0845819
0.111564
0.00484233
-0.0170315
0.128596
0.110697
0.00801683
-0.041527
0.135193
0.125838
0.0053388
-0.0447619
0.129073
0.149053
0.104291
0.128764
-0.000168156
0.129877
-0.00111305
0.13102
-0.00114288
-0.00129332
0.132313
0.135727
-0.000702648
0.13698
-0.00236612
0.137894
-0.0020564
-0.00177736
0.138378
0.135695
-0.00732434
0.140462
-0.00713387
0.13772
0.000685865
-0.00126943
0.137212
0.109908
-0.0129413
0.106188
-0.0034138
0.0974314
0.00944263
0.0959858
0.000176213
0.132904
-0.000590668
0.132592
0.000311572
0.131866
0.000726503
0.131363
0.000502889
0.131218
0.000144807
0.130361
0.000857494
0.129543
0.000817881
0.128284
0.0012588
0.12724
0.00104454
0.125525
0.0017141
0.123833
0.00169217
0.122449
0.001384
0.120719
0.0017307
0.119566
0.00115257
0.117725
0.00184117
0.116495
0.00123015
0.114692
0.00180267
0.113281
0.00141138
0.112163
0.00111762
0.111037
0.00112648
0.110916
0.000120768
0.110646
0.000269992
0.111753
-0.00110717
0.112914
-0.00116083
0.114872
-0.00195867
0.116538
-0.00166544
0.1177
-0.00116232
0.11846
-0.000759432
0.118071
0.000388159
0.117477
0.000594255
0.116038
0.00143961
0.114744
0.00129355
0.113133
0.00161138
0.111838
0.00129451
0.110579
0.00125885
0.109559
0.00102055
0.108839
0.000719713
0.108033
0.000806092
0.107438
0.000594878
0.00112802
0.137655
0.000131898
0.136971
0.000996166
0.137582
0.000115172
0.137998
8.7058e-05
0.137953
0.000190325
0.137708
0.00110216
0.137848
0.000677773
0.137197
0.00190959
0.13574
0.00250219
0.134388
0.00306603
0.133219
0.00286122
0.132182
0.00242005
0.130887
0.00302616
0.129741
0.00229895
0.128285
0.0032973
0.127251
0.0022637
0.125879
0.00317421
0.124659
0.00263196
0.123373
0.00240333
0.122103
0.00239689
0.121378
0.000845557
0.120881
0.000767041
0.121631
-0.0018576
0.122726
-0.00225584
0.12459
-0.00382199
0.126472
-0.00354772
0.128208
-0.00289872
0.129744
-0.00229559
0.130098
3.47911e-05
0.130745
-5.2608e-05
0.130196
0.00198839
0.129999
0.00149086
0.129127
0.00248316
0.128602
0.00181916
0.127985
0.00187568
0.127436
0.00156972
0.127517
0.000639092
0.126975
0.00134792
0.127247
0.000322957
0.00123498
0.13511
0.00223386
0.135929
0.000176973
0.136739
-0.000694074
0.135612
0.00121322
0.135754
4.8565e-05
0.137587
-0.000730579
0.137639
0.000625297
0.136271
0.00327787
0.13501
0.00376379
0.135487
0.00258888
0.135684
0.00266351
0.135467
0.00263742
0.135245
0.00324848
0.133799
0.00374514
0.132864
0.00423189
0.131576
0.00355209
0.13013
0.00461926
0.127781
0.00498143
0.124806
0.00537833
0.122387
0.00481568
0.119913
0.0033201
0.118917
0.00176299
0.118462
-0.00140296
0.118352
-0.00214619
0.118864
-0.00433395
0.119839
-0.00452236
0.12075
-0.00380958
0.121107
-0.00265235
0.122236
-0.00109499
0.123226
-0.00104233
0.123706
0.0015084
0.12426
0.000936547
0.124752
0.00199116
0.124942
0.00162952
0.125522
0.00129608
0.125868
0.00122349
0.126221
0.000286162
0.126629
0.000939809
0.127676
-0.000724038
0.000428907
0.0973704
0.000849251
0.0971614
0.000385943
0.0949728
0.00149457
0.0889117
0.00727433
0.0916053
-0.00264506
0.0945793
-0.00370459
0.0927895
0.00241508
0.093045
0.00302235
0.0958846
0.000924211
0.0985211
-4.75937e-05
0.100972
0.000212908
0.103963
-0.00035352
0.10729
-7.85245e-05
0.11026
0.000774581
0.11433
0.000162293
0.117846
3.60174e-05
0.121015
0.00144982
0.124108
0.00188895
0.126402
0.00308374
0.126237
0.00498117
0.124034
0.00552321
0.120535
0.00526194
0.112905
0.00622678
0.104045
0.00671416
0.0968635
0.00284725
0.0916287
0.000712498
0.0867883
0.00103083
0.0848948
-0.000758882
0.0853904
-0.00159063
0.0851881
-0.000840016
0.0863084
0.000388133
0.0868099
0.000435085
0.0874177
0.00138335
0.0867516
0.00229562
0.0864536
0.00159406
0.0863217
0.00135536
0.0857852
0.00082272
0.0868898
-0.000164864
0.0885882
-0.00242239
-0.00170358
0.108501
0.000859468
0.0885361
-0.000145509
0.0847898
0.00192498
0.000207932
0.111209
-0.01035
0.0891845
0.0218795
0.0899755
0.00113398
0.0901834
-0.0117155
-0.00122583
0.0139367
-0.0290659
-0.0198926
0.0432719
-0.000276854
-0.0194395
-0.0072242
0.00599836
-0.0178362
-0.0184539
0.00524216
0.0201935
0.0144346
-0.00946927
-0.0087848
-0.00980549
-0.00199149
-0.00640738
0.0114477
-0.0119447
-0.00549571
0.0242178
-0.00438521
-0.00375556
0.00949361
-0.0175834
0.0114918
0.000416907
0.0121608
0.00235336
0.0144276
-0.00134258
0.0181716
-0.00379161
0.021934
-0.00354947
0.0254981
-0.00391764
0.0287013
-0.00328171
0.0300572
-0.000581311
0.0296565
0.000562924
0.029199
0.000493526
0.029163
0.00148585
0.0276628
0.00338918
0.0253393
0.00540716
0.0247744
0.00554614
0.0222478
0.00804979
0.0192863
0.00822344
0.0199243
0.00558873
0.0199929
0.00664564
0.0187147
0.00412538
0.0195298
-0.000102604
0.0210445
-0.000483802
0.0219833
-0.00169772
0.0232692
-0.00287655
0.0252819
-0.00285267
0.0269949
-0.00132488
0.0282167
-0.000786671
0.0297634
-0.000163411
0.0309594
0.00109968
0.0318598
0.000693648
0.0337577
-0.000542608
0.035174
-0.000593585
0.0365117
-0.00150248
0.0396138
-0.00552455
-0.00390762
0.0035494
0.00107968
0.00094366
-0.00380163
-0.0101329
-0.000868107
0.00599676
0.00808813
0.00851542
-0.00627423
-0.00385793
-0.00521007
-0.00233113
-0.00110989
0.00516824
-0.00514601
0.00924764
-0.00542198
0.010814
-0.00535797
0.0118143
-0.0045498
0.0124931
-0.00459644
0.0131123
-0.0039009
0.0153664
-0.00283545
0.0168951
-0.0009657
0.016704
0.000684587
0.0170735
0.0011164
0.0167066
0.00375601
0.0181532
0.00396056
0.0196874
0.00401202
0.0219611
0.00577602
0.0240798
0.00610478
0.0264748
0.00319373
0.0308116
0.00230884
0.033141
0.00179598
0.0334752
-0.000436863
0.0352593
-0.00226785
0.0368595
-0.00329794
0.0365524
-0.00256946
0.0368872
-0.00318748
0.0382293
-0.00266693
0.0393596
-0.00191706
0.0404561
-0.00125991
0.0423908
-0.000834977
0.0440918
-0.00100734
0.0447776
-0.00122839
0.046474
-0.00229001
0.0479065
-0.00293498
0.0467708
-0.00438886
-0.0034526
0.102422
-0.0127723
0.091516
0.0327859
0.0971957
-0.00454577
0.0412981
0.146081
0.0963132
-0.0090855
0.110093
0.019006
0.105251
0.000296394
0.019996
0.126553
0.094953
-0.00403855
0.106425
0.00753439
0.103605
0.00311626
0.00977053
0.11383
0.0959615
0.103496
0.106612
0.116383
0.151374
-0.00529272
0.0488769
0.102497
0.129433
-0.00817279
0.042325
0.135985
0.110562
-0.00490425
0.0166644
0.136222
0.111478
0.128143
0.106047
0.00244864
0.0852051
0.00238749
0.0959052
0.00949344
0.000649119
0.0857869
0.137059
0.00137505
0.140405
-0.000958529
0.145739
0.00415864
0.00459776
0.141791
0.137407
0.000190481
0.136207
0.000241203
0.138405
0.00196067
0.00205763
0.140945
0.128333
0.128574
0.130535
0.132593
0.0878701
-0.00100356
0.0874719
-0.00340341
0.0857705
0.000833271
0.0935612
0.000297435
0.0903754
-0.00308844
0.0896442
-0.00447884
0.0926084
-0.00407407
0.0916939
-0.00423154
0.0908272
-0.0045553
0.0895642
-0.00409495
0.0886681
-0.00365371
0.0872915
-0.00321978
0.0851658
-0.00177524
0.0837024
-0.00137206
0.0825287
0.000208028
0.0827
0.000513275
0.0821977
0.00161868
0.0838772
0.00207649
0.085414
0.00242379
0.0868322
0.00259379
0.0914793
0.00112894
0.0958187
0.00176544
0.10029
-0.00127767
0.104327
-0.0017282
0.110022
-0.00389846
0.113909
-0.00432407
0.115946
-0.00430509
0.117383
-0.00473461
0.117707
-0.0028941
0.11725
-0.00273004
0.115372
-0.000789073
0.11434
-0.000885378
0.113106
-2.58383e-05
0.112584
-0.000312427
0.112724
-0.00114748
0.113063
-0.00156797
0.114064
-0.00329047
0.114163
-0.00303402
0.114178
-0.00440425
-0.00303782
0.139017
0.00176993
0.137201
-0.0015871
0.140703
-0.00266872
0.143309
-0.00230858
0.142569
-0.002348
0.14045
-0.00236042
0.140302
-0.00392569
0.13946
-0.00338997
0.138588
-0.00368287
0.137715
-0.00322182
0.136594
-0.00253262
0.136056
-0.00268265
0.135169
-0.000887475
0.134988
-0.00119122
0.134092
0.00110338
0.13354
0.00106618
0.133275
0.00188288
0.13333
0.00202217
0.134223
0.00152997
0.134578
0.00223952
0.135398
0.000309093
0.136706
0.000456791
0.137174
-0.00174507
0.137395
-0.00194958
0.136726
-0.00322965
0.135793
-0.00339134
0.134482
-0.00299358
0.132924
-0.00317674
0.131586
-0.00155566
0.130708
-0.00185251
0.129859
6.04394e-05
0.129317
-0.000344128
0.128845
0.000446065
0.128725
-0.000191725
0.128476
-0.000898834
0.128127
-0.00121858
0.127305
-0.00246921
0.126333
-0.00206191
0.125083
-0.00315355
-0.00199211
0.141142
0.00157319
0.139897
-0.000342348
0.139271
-0.00204209
0.138551
-0.00158882
0.138206
-0.00200291
0.137307
-0.00146185
0.135253
-0.00187116
0.133604
-0.00174104
0.132025
-0.00210425
0.130548
-0.00174501
0.129215
-0.00119979
0.127799
-0.00126592
0.127403
-0.000491856
0.127087
-0.000874795
0.127851
0.000338639
0.128546
0.000371233
0.129401
0.00102793
0.130454
0.000969033
0.13127
0.000714589
0.132638
0.000871425
0.132946
1.28842e-06
0.133427
-2.4221e-05
0.132753
-0.00107089
0.131981
-0.00117784
0.130711
-0.00195999
0.129226
-0.00190567
0.128009
-0.00177676
0.126476
-0.00164374
0.125713
-0.000793011
0.124693
-0.000832212
0.124696
5.70131e-05
0.124556
-0.000203763
0.124967
3.48358e-05
0.12512
-0.000344367
0.124917
-0.000695812
0.124668
-0.000970296
0.123782
-0.00158253
0.123149
-0.00142909
0.121769
-0.00177366
-0.00107278
0.134166
0.133824
0.131782
0.130193
0.12819
0.126728
0.124857
0.123116
0.121012
0.119267
0.118067
0.116801
0.116309
0.115434
0.115773
0.116144
0.117172
0.118141
0.118856
0.119727
0.119728
0.119704
0.118633
0.117455
0.115495
0.11359
0.111813
0.110169
0.109376
0.108544
0.108601
0.108397
0.108432
0.108088
0.107392
0.106422
0.104839
0.10341
0.101636
)
;

boundaryField
{
    inlet
    {
        type            calculated;
        value           nonuniform List<scalar> 10(-0.1 -0.1 -0.1 -0.1 -0.1 -0.1 -0.1 -0.1 -0.1 -0.1);
    }
    outlet
    {
        type            calculated;
        value           nonuniform List<scalar> 10(0.10631 0.12714 0.128482 0.0907207 0.0418179 0.0463158 0.113764 0.124037 0.12085 0.100563);
    }
    obstacle
    {
        type            calculated;
        value           uniform 0;
    }
    upperWall
    {
        type            calculated;
        value           uniform 0;
    }
    lowerWall
    {
        type            calculated;
        value           uniform 0;
    }
    frontAndBack
    {
        type            empty;
        value           nonuniform List<scalar> 0();
    }
}


// ************************************************************************* //
