/*--------------------------------*- C++ -*----------------------------------*\
  =========                 |
  \\      /  F ield         | OpenFOAM: The Open Source CFD Toolbox
   \\    /   O peration     | Website:  https://openfoam.org
    \\  /    A nd           | Version:  10
     \\/     M anipulation  |
\*---------------------------------------------------------------------------*/
FoamFile
{
    format      ascii;
    class       volVectorField;
    location    "6.4";
    object      U;
}
// * * * * * * * * * * * * * * * * * * * * * * * * * * * * * * * * * * * * * //

dimensions      [0 1 -1 0 0 0 0];

internalField   nonuniform List<vector> 
496
(
(9.96633 0.0582129 0)
(10.0204 -0.202097 0)
(10.3148 -0.134854 0)
(10.8866 -0.264553 0)
(10.0922 0.292458 0)
(9.8509 -1.05858 0)
(10.4401 -0.443818 0)
(10.9385 -1.15062 0)
(11.0513 1.02762 0)
(8.83184 -2.51807 0)
(11.5132 -0.288409 0)
(10.464 -3.68236 0)
(12.0418 1.23189 0)
(7.96752 -2.31326 0)
(12.8638 0.250457 0)
(9.71166 -6.22696 0)
(11.5035 -0.224547 3.10912e-18)
(12.2256 -0.216102 -5.00099e-19)
(11.7622 -0.639277 -1.35109e-20)
(12.5537 -0.0869352 1.73884e-18)
(13.1591 -2.0836 -3.09938e-18)
(12.9593 -0.393555 -1.23841e-18)
(13.1409 -5.66385 -3.11458e-17)
(15 -4.2159 5.84708e-17)
(12.7948 -0.156482 0)
(13.1444 -0.143593 0)
(13.3832 -0.00943054 0)
(13.4363 0.0589316 0)
(13.1877 -0.0404062 0)
(13.6184 -0.373242 0)
(13.9429 -0.481436 0)
(14.0462 -0.548234 0)
(12.938 0.669284 0)
(12.8142 0.543205 0)
(13.4271 0.50704 0)
(13.7107 0.486071 0)
(11.0093 -3.42703 0)
(8.86801 -1.8983 0)
(9.82807 -0.501336 0)
(10.1533 -0.890686 0)
(13.4701 0.186255 0)
(13.3868 0.280838 0)
(13.3706 0.321089 0)
(13.2305 0.341899 0)
(13.1816 0.294051 0)
(13.0416 0.331485 0)
(13.0338 0.321249 0)
(12.9114 0.368444 0)
(12.8062 0.341036 0)
(12.6166 0.382794 0)
(12.4463 0.408351 0)
(12.276 0.40776 0)
(12.1686 0.460221 0)
(12.0775 0.444613 0)
(11.8822 0.53626 0)
(11.6234 0.541256 0)
(11.5027 0.624683 0)
(11.4081 0.606836 0)
(11.4007 0.565257 0)
(11.1572 0.531115 0)
(11.0984 0.432889 0)
(10.9371 0.404522 0)
(11.1123 0.287408 0)
(11.1941 0.244164 0)
(11.455 0.169522 0)
(11.5912 0.134987 0)
(11.734 0.145179 0)
(11.813 0.120066 0)
(11.8113 0.192126 0)
(11.7921 0.177754 0)
(11.6935 0.24921 0)
(11.5412 0.225257 0)
(11.4444 0.259673 0)
(11.1889 0.243322 0)
(11.1902 0.243686 0)
(10.8985 0.24518 0)
(11.0094 0.223165 0)
(10.7421 0.243502 0)
(10.8677 0.240453 0)
(10.6317 0.288378 0)
(14.1246 -0.445232 0)
(14.0365 -0.308631 0)
(13.9488 -0.243901 0)
(13.8233 -0.204143 0)
(13.7792 -0.22423 0)
(13.7682 -0.102404 0)
(13.7602 -0.104565 0)
(13.7034 -0.0260009 0)
(13.6168 -0.0583873 0)
(13.5196 -0.0296592 0)
(13.3692 -0.063203 0)
(13.2194 -0.115156 0)
(13.161 -0.10166 0)
(13.0645 -0.215178 0)
(12.9757 -0.184508 0)
(12.7207 -0.285722 0)
(12.6408 -0.211103 0)
(12.4865 -0.263477 0)
(12.4696 -0.309235 0)
(12.2927 -0.317473 0)
(12.1575 -0.427674 0)
(12.0678 -0.345405 0)
(12.0648 -0.485838 0)
(12.2227 -0.435096 0)
(12.3579 -0.503214 0)
(12.5931 -0.422876 0)
(12.7276 -0.340837 0)
(12.8917 -0.244852 0)
(13.0082 -0.0911738 0)
(13.0367 -0.0355324 0)
(13.0989 0.0616539 0)
(12.9733 0.0579441 0)
(13.0244 0.090265 0)
(12.8245 0.0324864 0)
(12.8917 0.0400975 0)
(12.7007 -0.0147823 0)
(12.7858 -0.0350651 0)
(12.6808 -0.0380295 0)
(12.7641 -0.0766507 0)
(12.7093 -0.0289707 0)
(13.955 0.514418 0)
(14.0535 0.402374 0)
(13.7565 0.197195 0)
(13.7408 0.165418 0)
(13.6703 0.146521 0)
(13.6801 0.158531 0)
(13.6067 0.159413 0)
(13.576 0.332812 0)
(13.6688 0.449723 0)
(13.5152 0.538974 0)
(13.5937 0.575294 0)
(13.3985 0.563627 0)
(13.5869 0.663668 0)
(13.4098 0.600639 0)
(13.4847 0.726778 0)
(13.1857 0.636486 0)
(13.0986 0.800878 0)
(12.8691 0.823234 0)
(12.6021 0.872841 0)
(12.4385 0.872078 0)
(12.0182 0.616981 0)
(12.0535 0.488255 0)
(11.7113 -0.00358619 0)
(11.8984 -0.148192 0)
(11.8264 -0.428053 0)
(11.9279 -0.438352 0)
(12.0569 -0.364773 0)
(12.0057 -0.305677 0)
(12.3102 0.0265208 0)
(12.1443 -0.0170072 0)
(12.4642 0.301431 0)
(12.3179 0.219743 0)
(12.5189 0.377016 0)
(12.4466 0.308562 0)
(12.5458 0.27867 0)
(12.5554 0.278838 0)
(12.5562 0.114775 0)
(12.6873 0.241961 0)
(12.6488 0.0957238 0)
(12.8518 0.242849 0)
(9.83493 0.256287 0)
(9.7346 -0.143587 0)
(8.91619 -0.0139884 0)
(9.62823 0.240426 0)
(9.31068 0.00368739 0)
(8.86636 -0.0719377 0)
(9.06086 0.066994 0)
(9.51869 0.0993357 0)
(9.62647 0.114711 0)
(9.76656 0.0752971 0)
(9.81991 0.119047 0)
(10.1337 0.115575 0)
(10.5198 0.153038 0)
(10.8524 0.161925 0)
(11.4467 0.0693921 0)
(11.3759 -0.00210442 0)
(12.1074 -0.025109 0)
(12.0922 -0.0269487 0)
(12.6452 -0.0237276 0)
(12.6864 -0.051675 0)
(12.6224 -0.0319889 0)
(12.4679 -0.107355 0)
(11.3659 -0.0502046 0)
(11.196 -0.0295211 0)
(9.77423 -0.121333 0)
(9.54054 -0.160456 0)
(8.62018 -0.202102 0)
(8.72795 -0.207906 0)
(8.53498 -0.212677 0)
(8.29768 -0.19247 0)
(8.8396 -0.0625562 0)
(8.44744 -0.055593 0)
(8.90285 0.0317721 0)
(8.60203 0.0611666 0)
(8.74014 0.0423002 0)
(8.60762 0.0491655 0)
(8.48285 -0.0211635 0)
(8.84977 0.00014525 0)
(8.48357 -0.167309 0)
(9.08121 -0.16281 0)
(12.1786 0.683052 -1.07414e-17)
(7.95265 -0.820978 -1.80722e-17)
(11.2788 0.200839 3.16489e-17)
(4.71477 -4.53546 -8.49375e-17)
(12.944 -0.491529 1.0532e-17)
(7.40088 0.739437 1.76993e-17)
(12.2262 0.262913 -3.10124e-17)
(4.49443 4.61684 8.3604e-17)
(-4.73133 1.86014 0)
(1.36579 0.0278279 0)
(3.19166 1.90048 0)
(-6.92586 0.949101 0)
(0.618306 -2.37577 3.06325e-17)
(-0.382442 -4.61987 0)
(-4.60635 5.07886 0)
(5.72329 -1.3881 0)
(1.87014 -0.557467 0)
(-2.53839 0.139934 0)
(1.58501 -0.214032 0)
(1.49157 1.41162 0)
(-2.28596 -0.430316 0)
(0.988979 -1.1455 0)
(1.265 0.209802 0)
(1.4417 0.761492 0)
(1.03114 0.210195 0)
(1.54688 -0.0833054 0)
(2.02751 -0.131475 0)
(2.29991 -0.239497 0)
(2.68602 -0.231798 0)
(3.22483 0.0579064 0)
(2.87598 0.0261097 0)
(2.74985 0.0449924 0)
(3.10113 0.380085 0)
(2.88856 0.476795 0)
(2.40997 0.698411 0)
(2.78293 0.972584 0)
(2.44031 1.07393 0)
(1.80645 0.950667 0)
(1.92448 0.94562 0)
(2.40371 1.12647 0)
(1.50763 0.579216 0)
(1.87673 0.198279 0)
(2.22416 0.321896 0)
(2.17762 0.118453 0)
(2.02645 -0.0674324 0)
(2.55917 0.0140285 0)
(2.69625 0.201383 0)
(2.66126 0.176058 0)
(2.90475 0.232313 0)
(3.13257 0.362953 0)
(3.00565 0.256671 0)
(3.2906 0.149025 0)
(3.55943 0.156283 0)
(3.48787 0.00951438 0)
(3.68332 -0.340488 0)
(4.18614 -0.169902 0)
(-2.85994 -0.512349 0)
(3.39528 -1.22909 0)
(-3.01732 -1.16189 0)
(0.0192325 2.06951 0)
(1.78511 -0.735959 0)
(-0.214636 -1.48267 0)
(-0.898109 -0.0897637 0)
(0.593199 -0.513052 0)
(0.649075 -0.62297 0)
(0.996978 -0.632422 0)
(1.05893 -0.435652 0)
(1.26193 -0.406612 0)
(1.12219 -0.331424 0)
(1.38679 -0.213978 0)
(1.93486 -0.0371636 0)
(1.24737 0.0948349 0)
(2.01874 0.029811 0)
(1.5883 0.349681 0)
(1.46173 0.373669 0)
(2.36244 0.2211 0)
(1.71429 0.485391 0)
(2.37459 0.596747 0)
(2.50111 0.170574 0)
(2.98088 0.0433047 0)
(3.28198 0.111308 0)
(3.17847 -0.201664 0)
(3.49393 -0.459625 0)
(3.77916 -0.569832 0)
(3.52661 -0.48205 0)
(3.63504 -0.532262 0)
(3.81484 -0.492142 0)
(3.90788 -0.345147 0)
(3.89631 -0.279362 0)
(4.17518 -0.198565 0)
(4.30543 -0.165439 0)
(4.49762 -0.268004 0)
(4.48222 -0.348883 0)
(4.84588 -0.429183 0)
(4.73246 -0.715983 0)
(4.61887 -0.588502 0)
(11.2746 -1.60156 0)
(8.78414 2.80284 0)
(11.8384 -0.895977 0)
(10.9878 6.86635 0)
(10.5325 -1.37532 0)
(9.47983 3.07925 0)
(11.0984 0.171719 0)
(11.2594 4.21465 0)
(9.90006 -0.521224 0)
(9.97221 1.33656 0)
(10.188 0.308367 0)
(11.0217 1.16094 0)
(9.93872 -0.102644 0)
(9.93548 0.207316 0)
(10.2041 0.110634 0)
(10.8036 0.211083 0)
(12.1272 5.3398 4.04405e-17)
(16.5898 4.61107 -6.77099e-17)
(13.0467 2.16228 0)
(13.8452 0.451378 0)
(11.6594 0.510289 0)
(12.7226 -0.172997 0)
(11.479 0.247679 0)
(12.2214 0.166974 0)
(8.61467 2.67128 0)
(11.5776 2.11819 0)
(7.00731 1.35059 0)
(8.63492 0.40506 0)
(12.9083 -0.589702 0)
(13.3631 -1.19024 0)
(13.3062 -0.426286 0)
(13.8973 -0.250518 0)
(13.2658 -0.0668609 0)
(13.7116 0.195129 0)
(14.0088 0.631835 0)
(14.1532 0.679376 0)
(12.79 0.2207 0)
(13.0927 0.166476 0)
(13.338 0.121566 0)
(13.4187 0.020468 0)
(9.39578 0.443042 0)
(9.40669 0.115409 0)
(9.44124 0.815313 0)
(8.56488 0.424398 0)
(8.68272 -0.061515 0)
(9.43481 0.0535615 0)
(9.35198 -0.0535749 0)
(8.97764 -0.233538 0)
(9.32696 -0.2868 0)
(8.92928 -0.270434 0)
(9.0637 -0.326776 0)
(8.78461 -0.296327 0)
(8.48611 -0.216389 0)
(8.5191 -0.128354 0)
(8.03638 -0.0377829 0)
(8.4721 0.0763601 0)
(8.05042 0.185358 0)
(8.44447 0.27183 0)
(8.35436 0.406112 0)
(8.51501 0.435844 0)
(9.20991 0.441254 0)
(8.99417 0.522565 0)
(9.99992 0.367488 0)
(10.1353 0.358382 0)
(10.8816 0.214224 0)
(11.1435 0.131296 0)
(11.4483 0.0555647 0)
(11.8865 -0.0179127 0)
(11.6054 0.0285456 0)
(11.9423 0.00211018 0)
(11.4077 0.0992092 0)
(11.6854 0.0597393 0)
(11.2119 0.112459 0)
(11.351 0.0994336 0)
(11.2393 0.0479211 0)
(11.2207 0.0438169 0)
(11.4776 -0.0439163 0)
(11.3127 -0.0696899 0)
(11.6685 -0.130833 0)
(11.3636 -0.0689779 0)
(14.3202 -0.423133 0)
(14.5372 -0.579218 0)
(14.426 -0.684994 0)
(14.0259 -0.58469 0)
(14.1578 -0.668821 0)
(14.0656 -0.674553 0)
(14.0669 -0.804484 0)
(13.9224 -0.743259 0)
(13.8639 -0.751911 0)
(13.8384 -0.703835 0)
(13.6809 -0.578922 0)
(13.745 -0.571086 0)
(13.5157 -0.333957 0)
(13.6023 -0.330721 0)
(13.3017 -0.0414869 0)
(13.3454 -0.0575797 0)
(13.3124 0.0264009 0)
(13.3255 0.0751701 0)
(13.4866 -0.0118408 0)
(13.3447 0.119494 0)
(13.6243 -0.169273 0)
(13.4625 -0.115978 0)
(13.782 -0.469738 0)
(13.6719 -0.529658 0)
(13.8018 -0.761667 0)
(13.6289 -0.854094 0)
(13.517 -0.825385 0)
(13.392 -0.897899 0)
(13.1655 -0.636611 0)
(13.1654 -0.639683 0)
(12.9552 -0.313053 0)
(13.0035 -0.321205 0)
(12.8725 -0.170658 0)
(12.8961 -0.205576 0)
(12.87 -0.292555 0)
(12.8093 -0.300508 0)
(12.8161 -0.56106 0)
(12.6365 -0.500484 0)
(12.6231 -0.734468 0)
(12.4037 -0.570162 0)
(14.3299 0.59201 0)
(14.3812 0.306508 0)
(14.2227 0.118867 0)
(14.0185 0.149994 0)
(13.861 0.104319 0)
(13.7145 0.115062 0)
(13.5407 0.0557349 0)
(13.3504 0.118004 0)
(13.2338 0.0802726 0)
(13.0985 0.106247 0)
(13.0043 0.154887 0)
(12.8726 0.149454 0)
(12.7978 0.234266 0)
(12.733 0.1665 0)
(12.7038 0.309505 0)
(12.759 0.304613 0)
(12.8596 0.392857 0)
(13.0218 0.381353 0)
(13.1389 0.366789 0)
(13.2235 0.35869 0)
(13.2804 0.252228 0)
(13.2841 0.22306 0)
(13.3253 0.0900352 0)
(13.2209 0.0823328 0)
(13.1948 0.0207425 0)
(12.9784 0.068074 0)
(12.9064 0.119054 0)
(12.6878 0.168332 0)
(12.6172 0.276472 0)
(12.4935 0.27061 0)
(12.4577 0.352971 0)
(12.468 0.286938 0)
(12.4563 0.309808 0)
(12.5363 0.224634 0)
(12.4879 0.183752 0)
(12.5079 0.125911 0)
(12.4197 0.0795339 0)
(12.3414 0.0907793 0)
(12.2895 0.106231 0)
(12.0892 0.181042 0)
(13.4721 -0.0649377 0)
(13.4732 -0.252315 0)
(13.4417 -0.369304 0)
(13.2404 -0.361048 0)
(13.0004 -0.416622 0)
(12.7842 -0.415555 0)
(12.5768 -0.466672 0)
(12.3102 -0.433994 0)
(12.1552 -0.468912 0)
(11.9957 -0.465866 0)
(11.9304 -0.422996 0)
(11.7145 -0.418641 0)
(11.6778 -0.347478 0)
(11.5393 -0.360647 0)
(11.5756 -0.264233 0)
(11.5243 -0.258368 0)
(11.6594 -0.216256 0)
(11.7732 -0.205686 0)
(11.8919 -0.224598 0)
(11.9659 -0.197617 0)
(11.9485 -0.26776 0)
(11.9705 -0.246281 0)
(11.9175 -0.334399 0)
(11.8276 -0.316707 0)
(11.6936 -0.380344 0)
(11.4272 -0.394544 0)
(11.3191 -0.415865 0)
(11.0154 -0.446626 0)
(11.0361 -0.401188 0)
(10.8066 -0.413622 0)
(10.9185 -0.338702 0)
(10.8033 -0.344329 0)
(10.8777 -0.309183 0)
(10.8277 -0.333372 0)
(10.7807 -0.366116 0)
(10.7099 -0.377123 0)
(10.5475 -0.440239 0)
(10.418 -0.409191 0)
(10.2733 -0.462807 0)
(10.0592 -0.392304 0)
)
;

boundaryField
{
    inlet
    {
        type            fixedValue;
        value           uniform (10 0 0);
    }
    outlet
    {
        type            zeroGradient;
    }
    obstacle
    {
        type            noSlip;
    }
    upperWall
    {
        type            noSlip;
    }
    lowerWall
    {
        type            noSlip;
    }
    frontAndBack
    {
        type            empty;
    }
}


// ************************************************************************* //
