/*--------------------------------*- C++ -*----------------------------------*\
  =========                 |
  \\      /  F ield         | OpenFOAM: The Open Source CFD Toolbox
   \\    /   O peration     | Website:  https://openfoam.org
    \\  /    A nd           | Version:  10
     \\/     M anipulation  |
\*---------------------------------------------------------------------------*/
FoamFile
{
    format      ascii;
    class       surfaceScalarField;
    location    "0.1";
    object      phi;
}
// * * * * * * * * * * * * * * * * * * * * * * * * * * * * * * * * * * * * * //

dimensions      [0 3 -1 0 0 0 0];

internalField   nonuniform List<scalar> 
760
(
-2.07525e-06
2.07525e-06
-4.14034e-06
2.06508e-06
-6.09837e-06
1.95803e-06
-7.89955e-06
1.80118e-06
-9.49963e-06
1.60008e-06
-1.08606e-05
1.36098e-06
-1.19513e-05
1.09068e-06
-1.27476e-05
7.96255e-07
-1.32323e-05
4.8472e-07
-1.33953e-05
1.62988e-07
-1.32331e-05
-1.62155e-07
-1.27491e-05
-4.83967e-07
-1.19535e-05
-7.95653e-07
-1.08632e-05
-1.09029e-06
-9.50236e-06
-1.36083e-06
-7.90215e-06
-1.60021e-06
-6.10059e-06
-1.80157e-06
-4.14195e-06
-1.95864e-06
-2.07609e-06
-2.06586e-06
-2.07609e-06
-2.17284e-06
4.24809e-06
-4.33407e-06
4.22631e-06
-6.3823e-06
4.00626e-06
-8.26522e-06
3.68411e-06
-9.93665e-06
3.27151e-06
-1.13572e-05
2.78151e-06
-1.24948e-05
2.22827e-06
-1.33248e-05
1.62624e-06
-1.38298e-05
9.89758e-07
-1.39996e-05
3.32784e-07
-1.38307e-05
-3.31035e-07
-1.33265e-05
-9.88174e-07
-1.24972e-05
-1.62497e-06
-1.136e-05
-2.22744e-06
-9.93966e-06
-2.78121e-06
-8.2681e-06
-3.27177e-06
-6.38476e-06
-3.68491e-06
-4.33585e-06
-4.00754e-06
-2.17377e-06
-4.22794e-06
-4.24987e-06
-2.28418e-06
6.53228e-06
-4.55498e-06
6.49711e-06
-6.70481e-06
6.1561e-06
-8.67836e-06
5.65766e-06
-1.04274e-05
5.02054e-06
-1.19114e-05
4.26552e-06
-1.3098e-05
3.41483e-06
-1.39626e-05
2.49084e-06
-1.44882e-05
1.51539e-06
-1.46649e-05
5.09461e-07
-1.44893e-05
-5.06633e-07
-1.39646e-05
-1.51283e-06
-1.31008e-05
-2.48878e-06
-1.19148e-05
-3.41348e-06
-1.0431e-05
-4.26502e-06
-8.68178e-06
-5.02095e-06
-6.70774e-06
-5.65896e-06
-4.55711e-06
-6.15817e-06
-2.2853e-06
-6.49975e-06
-6.53516e-06
-2.45642e-06
8.9887e-06
-4.89631e-06
8.937e-06
-7.20233e-06
8.46212e-06
-9.31443e-06
7.76975e-06
-1.11813e-05
6.88743e-06
-1.27611e-05
5.84526e-06
-1.4021e-05
4.67475e-06
-1.49371e-05
3.40699e-06
-1.54933e-05
2.07156e-06
-1.56802e-05
6.96322e-07
-1.54946e-05
-6.92151e-07
-1.49397e-05
-2.06777e-06
-1.40245e-05
-3.40394e-06
-1.27653e-05
-4.67274e-06
-1.11858e-05
-5.84449e-06
-9.31873e-06
-6.88802e-06
-7.20602e-06
-7.77167e-06
-4.899e-06
-8.46519e-06
-2.45784e-06
-8.94091e-06
-8.993e-06
-2.6966e-06
1.16853e-05
-5.3715e-06
1.16119e-05
-7.89329e-06
1.09839e-05
-1.01952e-05
1.00716e-05
-1.22219e-05
8.91418e-06
-1.39301e-05
7.55343e-06
-1.52874e-05
6.03208e-06
-1.62714e-05
4.39095e-06
-1.68675e-05
2.66762e-06
-1.70676e-05
8.96453e-07
-1.68692e-05
-8.9056e-07
-1.62747e-05
-2.66226e-06
-1.5292e-05
-4.38661e-06
-1.39356e-05
-6.0292e-06
-1.22278e-05
-7.5523e-06
-1.02008e-05
-8.91497e-06
-7.89813e-06
-1.00743e-05
-5.37504e-06
-1.09883e-05
-2.69846e-06
-1.16175e-05
-1.16915e-05
-3.01482e-06
1.47001e-05
-5.99967e-06
1.45967e-05
-8.8035e-06
1.37877e-05
-1.13504e-05
1.26186e-05
-1.35805e-05
1.11443e-05
-1.54495e-05
9.42241e-06
-1.69269e-05
7.50947e-06
-1.79933e-05
5.45734e-06
-1.86374e-05
3.31169e-06
-1.88534e-05
1.11249e-06
-1.86396e-05
-1.10434e-06
-1.79976e-05
-3.30426e-06
-1.69329e-05
-5.45129e-06
-1.54567e-05
-7.5054e-06
-1.35883e-05
-9.42076e-06
-1.13579e-05
-1.11453e-05
-8.81e-06
-1.26223e-05
-6.00445e-06
-1.37938e-05
-3.01734e-06
-1.46046e-05
-1.47088e-05
-3.42592e-06
1.8126e-05
-6.80851e-06
1.79793e-05
-9.96966e-06
1.69489e-05
-1.28216e-05
1.54705e-05
-1.52995e-05
1.36222e-05
-1.736e-05
1.14829e-05
-1.89771e-05
9.12653e-06
-2.01374e-05
6.61762e-06
-2.08353e-05
4.00959e-06
-2.1069e-05
1.34623e-06
-2.08382e-05
-1.33512e-06
-2.01431e-05
-3.99941e-06
-1.89851e-05
-6.60928e-06
-1.73696e-05
-9.12083e-06
-1.531e-05
-1.14805e-05
-1.28318e-05
-1.36235e-05
-9.97852e-06
-1.54755e-05
-6.81507e-06
-1.69573e-05
-3.42939e-06
-1.79903e-05
-1.81382e-05
-3.95163e-06
2.20777e-05
-7.83797e-06
2.18657e-05
-1.14436e-05
2.05545e-05
-1.46655e-05
1.86925e-05
-1.74351e-05
1.63918e-05
-1.97133e-05
1.37611e-05
-2.14837e-05
1.08969e-05
-2.27437e-05
7.87763e-06
-2.34973e-05
4.76318e-06
-2.37492e-05
1.59811e-06
-2.35012e-05
-1.58309e-06
-2.27513e-05
-4.74937e-06
-2.14944e-05
-7.8662e-06
-1.97262e-05
-1.0889e-05
-1.74491e-05
-1.37576e-05
-1.46794e-05
-1.63932e-05
-1.14558e-05
-1.86991e-05
-7.84709e-06
-2.0566e-05
-3.95648e-06
-2.18809e-05
-2.20947e-05
-4.62438e-06
2.67021e-05
-9.14654e-06
2.63878e-05
-1.32988e-05
2.47067e-05
-1.69599e-05
2.23536e-05
-2.00607e-05
1.94926e-05
-2.25739e-05
1.62743e-05
-2.45006e-05
1.28236e-05
-2.58567e-05
9.23369e-06
-2.66614e-05
5.56793e-06
-2.69296e-05
1.86628e-06
-2.66665e-05
-1.84617e-06
-2.58666e-05
-5.54932e-06
-2.45147e-05
-9.21807e-06
-2.25912e-05
-1.28125e-05
-2.00798e-05
-1.6269e-05
-1.6979e-05
-1.9494e-05
-1.33158e-05
-2.23623e-05
-9.15939e-06
-2.47224e-05
-4.63128e-06
-2.6409e-05
-2.67259e-05
-5.49414e-06
3.21962e-05
-1.08217e-05
3.17154e-05
-1.56414e-05
2.95264e-05
-1.9812e-05
2.65242e-05
-2.32724e-05
2.2953e-05
-2.60204e-05
1.90223e-05
-2.80882e-05
1.48914e-05
-2.95213e-05
1.06668e-05
-3.03626e-05
6.40927e-06
-3.06418e-05
2.14546e-06
-3.03692e-05
-2.11874e-06
-2.95342e-05
-6.38436e-06
-2.81067e-05
-1.06455e-05
-2.60435e-05
-1.48757e-05
-2.32983e-05
-1.90142e-05
-1.98383e-05
-2.2954e-05
-1.56653e-05
-2.65353e-05
-1.08401e-05
-2.95477e-05
-5.5041e-06
-3.1745e-05
-3.223e-05
-6.64091e-06
3.88371e-05
-1.29983e-05
3.80728e-05
-1.8627e-05
3.51552e-05
-2.33703e-05
3.12674e-05
-2.71949e-05
2.67776e-05
-3.01469e-05
2.19743e-05
-3.23109e-05
1.70554e-05
-3.37784e-05
1.21344e-05
-3.46268e-05
7.25767e-06
-3.49066e-05
2.42525e-06
-3.46352e-05
-2.39014e-06
-3.3795e-05
-7.22461e-06
-3.2335e-05
-1.21056e-05
-3.01773e-05
-1.70334e-05
-2.72298e-05
-2.19617e-05
-2.34067e-05
-2.67771e-05
-1.86609e-05
-3.12811e-05
-1.30249e-05
-3.51837e-05
-6.65564e-06
-3.81142e-05
-3.88857e-05
-8.19941e-06
4.70365e-05
-1.58902e-05
4.57635e-05
-2.24879e-05
4.17528e-05
-2.78421e-05
3.66217e-05
-3.19883e-05
3.09238e-05
-3.50616e-05
2.50477e-05
-3.72309e-05
1.92248e-05
-3.86558e-05
1.35592e-05
-3.94608e-05
8.06274e-06
-3.97239e-05
2.68834e-06
-3.94713e-05
-2.64277e-06
-3.86766e-05
-8.01932e-06
-3.72618e-05
-1.35204e-05
-3.51015e-05
-1.91936e-05
-3.20352e-05
-2.5028e-05
-2.78926e-05
-3.09197e-05
-2.25364e-05
-3.66373e-05
-1.59296e-05
-4.17905e-05
-8.22187e-06
-4.58219e-05
-4.71076e-05
-1.04099e-05
5.74465e-05
-1.98483e-05
5.52019e-05
-2.75759e-05
4.94805e-05
-3.35161e-05
4.25619e-05
-3.78541e-05
3.52618e-05
-4.08808e-05
2.80744e-05
-4.28966e-05
2.12405e-05
-4.41546e-05
1.48172e-05
-4.48388e-05
8.74698e-06
-4.5059e-05
2.9085e-06
-4.48514e-05
-2.85033e-06
-4.418e-05
-8.69074e-06
-4.2935e-05
-1.47654e-05
-4.09321e-05
-2.11966e-05
-3.79166e-05
-2.80435e-05
-3.3586e-05
-3.52503e-05
-2.76461e-05
-4.25772e-05
-1.99079e-05
-4.95287e-05
-1.04456e-05
-5.52842e-05
-5.75532e-05
-1.37287e-05
7.11751e-05
-2.54638e-05
6.69369e-05
-3.44278e-05
5.84445e-05
-4.07875e-05
4.89216e-05
-4.503e-05
3.95043e-05
-4.77121e-05
3.07566e-05
-4.93224e-05
2.28508e-05
-5.02302e-05
1.57249e-05
-5.06839e-05
9.20074e-06
-5.08248e-05
3.04935e-06
-5.06985e-05
-2.97665e-06
-5.026e-05
-9.1292e-06
-4.93688e-05
-1.56565e-05
-4.77763e-05
-2.27891e-05
-4.51119e-05
-3.07079e-05
-4.0884e-05
-3.94781e-05
-3.45304e-05
-4.89308e-05
-2.55565e-05
-5.85026e-05
-1.37884e-05
-6.70523e-05
-7.13416e-05
-1.90753e-05
9.02504e-05
-3.37551e-05
8.16167e-05
-4.3858e-05
6.85474e-05
-5.01701e-05
5.52337e-05
-5.37667e-05
4.31008e-05
-5.562e-05
3.26099e-05
-5.64563e-05
2.3687e-05
-5.67646e-05
1.60333e-05
-5.68463e-05
9.28237e-06
-5.68618e-05
3.06493e-06
-5.6862e-05
-2.97651e-06
-5.67976e-05
-9.19356e-06
-5.65095e-05
-1.59447e-05
-5.56972e-05
-2.36014e-05
-5.3871e-05
-3.25341e-05
-5.03016e-05
-4.30475e-05
-4.40088e-05
-5.52236e-05
-3.39033e-05
-6.86081e-05
-1.91818e-05
-8.17738e-05
-9.05234e-05
-2.83986e-05
0.000118649
-4.64977e-05
9.97158e-05
-5.70555e-05
7.91052e-05
-6.22653e-05
6.04435e-05
-6.4258e-05
4.50936e-05
-6.45576e-05
3.29095e-05
-6.4128e-05
2.32574e-05
-6.35334e-05
1.54387e-05
-6.30816e-05
8.83054e-06
-6.29212e-05
2.90454e-06
-6.30969e-05
-2.80074e-06
-6.35667e-05
-8.72381e-06
-6.41844e-05
-1.5327e-05
-6.46447e-05
-2.31411e-05
-6.43849e-05
-3.27938e-05
-6.24397e-05
-4.49928e-05
-5.72761e-05
-6.03871e-05
-4.67406e-05
-7.91436e-05
-2.86006e-05
-9.99138e-05
-0.000119124
-4.59698e-05
0.000164619
-6.67648e-05
0.000120511
-7.55808e-05
8.79213e-05
-7.76119e-05
6.24746e-05
-7.64794e-05
4.39611e-05
-7.425e-05
3.06801e-05
-7.19833e-05
2.09907e-05
-7.01744e-05
1.36298e-05
-6.90368e-05
7.69295e-06
-6.86543e-05
2.52204e-06
-6.90494e-05
-2.40569e-06
-7.0203e-05
-7.5702e-06
-7.20354e-05
-1.34946e-05
-7.43381e-05
-2.08384e-05
-7.66219e-05
-3.051e-05
-7.78312e-05
-4.37834e-05
-7.58959e-05
-6.23225e-05
-6.71706e-05
-8.78689e-05
-4.6394e-05
-0.00012069
-0.000165518
-8.28705e-05
0.000247489
-9.92109e-05
0.000136851
-0.000100982
8.96928e-05
-9.62033e-05
5.76955e-05
-8.98269e-05
3.75846e-05
-8.39832e-05
2.48364e-05
-7.93617e-05
1.63693e-05
-7.61067e-05
1.03748e-05
-7.41904e-05
5.77659e-06
-7.35605e-05
1.89213e-06
-7.41962e-05
-1.77e-06
-7.61221e-05
-5.64425e-06
-7.93956e-05
-1.02211e-05
-8.40521e-05
-1.61819e-05
-8.99592e-05
-2.4603e-05
-9.64431e-05
-3.72995e-05
-0.000101386
-5.73791e-05
-9.98095e-05
-8.94459e-05
-8.36104e-05
-0.00013689
-0.000249128
-0.000134453
0.000381942
-0.000138445
0.000140844
-0.000125376
7.66237e-05
-0.00010881
4.11296e-05
-9.49853e-05
2.37596e-05
-8.46918e-05
1.45429e-05
-7.74757e-05
9.15309e-06
-7.27531e-05
5.65223e-06
-7.00838e-05
3.1073e-06
-6.92114e-05
1.01976e-06
-7.00527e-05
-9.28731e-07
-7.269e-05
-3.00697e-06
-7.7379e-05
-5.53209e-06
-8.456e-05
-9.00089e-06
-9.48159e-05
-1.43471e-05
-0.000108595
-2.352e-05
-0.000125114
-4.08606e-05
-0.000137882
-7.66781e-05
-0.000133515
-0.000141256
-0.000382643
0.000381942
0.000522786
0.00059941
0.000640539
0.000664299
0.000678842
0.000687995
0.000693647
0.000696754
0.000697774
0.000696845
0.000693838
0.000688306
0.000679305
0.000664958
0.000641438
0.000600578
0.0005239
0.000382643
)
;

boundaryField
{
    movingWall
    {
        type            calculated;
        value           uniform 0;
    }
    fixedWalls
    {
        type            calculated;
        value           uniform 0;
    }
    frontAndBack
    {
        type            empty;
        value           nonuniform List<scalar> 0();
    }
}


// ************************************************************************* //
