/*--------------------------------*- C++ -*----------------------------------*\
  =========                 |
  \\      /  F ield         | OpenFOAM: The Open Source CFD Toolbox
   \\    /   O peration     | Website:  https://openfoam.org
    \\  /    A nd           | Version:  10
     \\/     M anipulation  |
\*---------------------------------------------------------------------------*/
FoamFile
{
    format      ascii;
    class       volVectorField;
    location    "0.1";
    object      U;
}
// * * * * * * * * * * * * * * * * * * * * * * * * * * * * * * * * * * * * * //

dimensions      [0 1 -1 0 0 0 0];

internalField   nonuniform List<vector> 
400
(
(-5.19071e-05 5.18338e-05 0)
(-0.00015547 5.1576e-05 0)
(-0.000256105 4.89036e-05 0)
(-0.000350136 4.49877e-05 0)
(-0.000435209 3.99664e-05 0)
(-0.00050927 3.39954e-05 0)
(-0.000570588 2.72449e-05 0)
(-0.000617781 1.98907e-05 0)
(-0.000649818 1.21087e-05 0)
(-0.000666017 4.07163e-06 0)
(-0.000666038 -4.0508e-06 0)
(-0.000649878 -1.20899e-05 0)
(-0.000617875 -1.98756e-05 0)
(-0.000570707 -2.72349e-05 0)
(-0.000509402 -3.39917e-05 0)
(-0.000435342 -3.99693e-05 0)
(-0.000350256 -4.4997e-05 0)
(-0.000256201 -4.89186e-05 0)
(-0.000155531 -5.15952e-05 0)
(-5.19279e-05 -5.1855e-05 0)
(-5.43497e-05 0.000157975 0)
(-0.000162766 0.000157168 0)
(-0.000268071 0.000149 0)
(-0.000366408 0.000137037 0)
(-0.000455315 0.000121709 0)
(-0.000532654 0.000103497 0)
(-0.000596637 8.29241e-05 0)
(-0.000645848 6.05276e-05 0)
(-0.000679238 3.68414e-05 0)
(-0.000696116 1.23875e-05 0)
(-0.000696139 -1.23229e-05 0)
(-0.000679305 -3.67829e-05 0)
(-0.000645952 -6.04808e-05 0)
(-0.000596768 -8.28934e-05 0)
(-0.0005328 -0.000103486 0)
(-0.000455462 -0.000121718 0)
(-0.000366541 -0.000137066 0)
(-0.000268176 -0.000149046 0)
(-0.000162833 -0.000157228 0)
(-5.43728e-05 -0.00015804 0)
(-5.71353e-05 0.000269357 0)
(-0.00017108 0.000267921 0)
(-0.000281669 0.000253908 0)
(-0.000384815 0.000233412 0)
(-0.00047793 0.000207191 0)
(-0.000558795 0.000176088 0)
(-0.000625589 0.000141011 0)
(-0.000676889 0.000102881 0)
(-0.000711659 6.26018e-05 0)
(-0.000729223 2.10473e-05 0)
(-0.00072925 -2.09327e-05 0)
(-0.000711737 -6.24978e-05 0)
(-0.000677012 -0.000102798 0)
(-0.000625745 -0.000140956 0)
(-0.000558968 -0.000176067 0)
(-0.000478104 -0.000207207 0)
(-0.000384974 -0.000233464 0)
(-0.000281795 -0.000253991 0)
(-0.000171161 -0.000268027 0)
(-5.71631e-05 -0.000269473 0)
(-6.14448e-05 0.000387804 0)
(-0.000183931 0.000385616 0)
(-0.000302661 0.00036524 0)
(-0.00041318 0.000335499 0)
(-0.000512707 0.000297545 0)
(-0.000598912 0.000252648 0)
(-0.000669932 0.000202149 0)
(-0.000724352 0.000147384 0)
(-0.000761172 8.96379e-05 0)
(-0.000779753 3.0133e-05 0)
(-0.000779786 -2.99575e-05 0)
(-0.000761269 -8.94786e-05 0)
(-0.000724505 -0.000147256 0)
(-0.000670126 -0.000202064 0)
(-0.000599129 -0.000252616 0)
(-0.000512926 -0.000297569 0)
(-0.00041338 -0.000335578 0)
(-0.00030282 -0.000365367 0)
(-0.000184034 -0.000385778 0)
(-6.14801e-05 -0.000387983 0)
(-6.74546e-05 0.000516549 0)
(-0.000201834 0.000513401 0)
(-0.000331846 0.000485862 0)
(-0.000452511 0.000445789 0)
(-0.000560781 0.00039484 0)
(-0.000654191 0.000334812 0)
(-0.000730854 0.000267558 0)
(-0.000789401 0.000194873 0)
(-0.00082891 0.000118436 0)
(-0.000848819 3.98056e-05 0)
(-0.000848862 -3.95532e-05 0)
(-0.000829036 -0.000118207 0)
(-0.000789599 -0.000194687 0)
(-0.000731105 -0.000267435 0)
(-0.000654473 -0.000334764 0)
(-0.000561067 -0.000394874 0)
(-0.000452773 -0.000445902 0)
(-0.000332056 -0.000486046 0)
(-0.000201969 -0.000513637 0)
(-6.75011e-05 -0.000516809 0)
(-7.54187e-05 0.000659238 0)
(-0.000225523 0.000654795 0)
(-0.000370352 0.000618919 0)
(-0.000504202 0.000566945 0)
(-0.000623683 0.000501216 0)
(-0.000726194 0.000424211 0)
(-0.000809872 0.000338408 0)
(-0.000873474 0.000246121 0)
(-0.000916239 0.000149435 0)
(-0.000937742 5.02083e-05 0)
(-0.000937798 -4.98565e-05 0)
(-0.000916403 -0.000149114 0)
(-0.000873734 -0.000245861 0)
(-0.000810203 -0.000338233 0)
(-0.000726568 -0.00042414 0)
(-0.000624064 -0.00050126 0)
(-0.000504553 -0.000567103 0)
(-0.000370635 -0.000619178 0)
(-0.000225705 -0.000655129 0)
(-7.54815e-05 -0.000659606 0)
(-8.57091e-05 0.000820135 0)
(-0.000256065 0.000813859 0)
(-0.000419797 0.000767946 0)
(-0.000570215 0.000701848 0)
(-0.000703514 0.000618873 0)
(-0.000816999 0.000522423 0)
(-0.000908944 0.000415758 0)
(-0.000978374 0.000301784 0)
(-0.00102482 0.000182983 0)
(-0.00104811 6.14528e-05 0)
(-0.00104818 -6.09704e-05 0)
(-0.00102504 -0.000182542 0)
(-0.000978717 -0.000301423 0)
(-0.000909385 -0.000415512 0)
(-0.0008175 -0.00052232 0)
(-0.000704029 -0.000618928 0)
(-0.000570691 -0.000702063 0)
(-0.000420183 -0.000768305 0)
(-0.000256316 -0.000814325 0)
(-8.57958e-05 -0.000820651 0)
(-9.88726e-05 0.00100441 0)
(-0.000295014 0.000995427 0)
(-0.000482489 0.000937 0)
(-0.000653276 0.000853623 0)
(-0.000803107 0.000750024 0)
(-0.000929309 0.000630878 0)
(-0.00103051 0.000500444 0)
(-0.00110625 0.000362296 0)
(-0.00115657 0.000219275 0)
(-0.0011817 7.35954e-05 0)
(-0.00118179 -7.29408e-05 0)
(-0.00115686 -0.000218674 0)
(-0.0011067 -0.0003618 0)
(-0.0010311 -0.0005001 0)
(-0.000929984 -0.000630725 0)
(-0.000803807 -0.000750088 0)
(-0.00065393 -0.000853911 0)
(-0.000483024 -0.000937492 0)
(-0.000295364 -0.000996076 0)
(-9.8994e-05 -0.00100513 0)
(-0.000115727 0.00121859 0)
(-0.000344663 0.00120543 0)
(-0.000561755 0.00113081 0)
(-0.000757192 0.00102563 0)
(-0.000926259 0.000896759 0)
(-0.00106658 0.00075067 0)
(-0.00117753 0.000592888 0)
(-0.00125954 0.000427716 0)
(-0.00131352 0.000258246 0)
(-0.00134033 8.6601e-05 0)
(-0.00134045 -8.57209e-05 0)
(-0.0013139 -0.000257433 0)
(-0.00126014 -0.000427037 0)
(-0.00117831 -0.000592407 0)
(-0.00106749 -0.000750442 0)
(-0.000927214 -0.000896827 0)
(-0.000758096 -0.00102601 0)
(-0.000562504 -0.00113148 0)
(-0.000345158 -0.00120634 0)
(-0.0001159 -0.0012196 0)
(-0.000137538 0.00147122 0)
(-0.000408491 0.0014514 0)
(-0.000662483 0.00135494 0)
(-0.000887327 0.00122136 0)
(-0.00107807 0.00106079 0)
(-0.00123318 0.000882231 0)
(-0.00135346 0.000692787 0)
(-0.00144089 0.000497475 0)
(-0.00149768 0.000299417 0)
(-0.00152566 0.000100291 0)
(-0.00152583 -9.91181e-05 0)
(-0.00149817 -0.000298327 0)
(-0.00144168 -0.00049655 0)
(-0.0013545 -0.000692113 0)
(-0.0012344 -0.000881888 0)
(-0.00107937 -0.00106085 0)
(-0.000888585 -0.00122185 0)
(-0.000663543 -0.00135586 0)
(-0.000409201 -0.00145265 0)
(-0.000137787 -0.00147265 0)
(-0.000166341 0.00177406 0)
(-0.000491954 0.00174312 0)
(-0.000792021 0.00161596 0)
(-0.00105134 0.00144417 0)
(-0.00126538 0.00124296 0)
(-0.00143458 0.0010248 0)
(-0.00156228 0.000798638 0)
(-0.00165291 0.000570033 0)
(-0.00171071 0.000341688 0)
(-0.00173886 0.000114275 0)
(-0.00173907 -0.000112727 0)
(-0.00171133 -0.000340236 0)
(-0.00165393 -0.000568779 0)
(-0.00156365 -0.000797691 0)
(-0.00143622 -0.00102427 0)
(-0.00126717 -0.00124297 0)
(-0.00105311 -0.00144478 0)
(-0.00079354 -0.00161719 0)
(-0.000492994 -0.00174488 0)
(-0.000166711 -0.0017761 0)
(-0.000205603 0.00214417 0)
(-0.000603981 0.00209374 0)
(-0.000961705 0.00192143 0)
(-0.00126033 0.00169664 0)
(-0.00149744 0.00144233 0)
(-0.00167751 0.00117552 0)
(-0.00180823 0.000907061 0)
(-0.00189784 0.000642422 0)
(-0.00195344 0.000383081 0)
(-0.00198008 0.000127867 0)
(-0.00198034 -0.000125849 0)
(-0.00195422 -0.000381168 0)
(-0.00189913 -0.000640731 0)
(-0.00181 -0.000905728 0)
(-0.00167968 -0.00117471 0)
(-0.00149988 -0.00144221 0)
(-0.00126281 -0.00169736 0)
(-0.000963916 -0.00192306 0)
(-0.00060554 -0.0020962 0)
(-0.000206169 -0.00214712 0)
(-0.000261616 0.0026077 0)
(-0.000759865 0.00252111 0)
(-0.00118945 0.00227942 0)
(-0.00153044 0.00197915 0)
(-0.0017865 0.0016546 0)
(-0.00196986 0.00132821 0)
(-0.00209538 0.00101189 0)
(-0.00217689 0.000709676 0)
(-0.00222526 0.000420435 0)
(-0.00224779 0.00013999 0)
(-0.00224811 -0.000137398 0)
(-0.00222621 -0.000417945 0)
(-0.00217849 -0.000707411 0)
(-0.00209763 -0.00101001 0)
(-0.00197271 -0.00132694 0)
(-0.00178982 -0.0016542 0)
(-0.00153396 -0.0019799 0)
(-0.00119272 -0.00228153 0)
(-0.000762279 -0.00252457 0)
(-0.000262523 -0.00261206 0)
(-0.000346701 0.00320765 0)
(-0.000987165 0.00304928 0)
(-0.00150406 0.00269678 0)
(-0.00188515 0.00228693 0)
(-0.00214838 0.00186948 0)
(-0.00232022 0.00147141 0)
(-0.00242676 0.00110301 0)
(-0.0024893 0.000764186 0)
(-0.00252313 0.00044911 0)
(-0.00253791 0.000149089 0)
(-0.00253827 -0.000145822 0)
(-0.00252424 -0.00044592 0)
(-0.0024912 -0.000761184 0)
(-0.00242952 -0.00110037 0)
(-0.00232387 -0.00146942 0)
(-0.00215284 -0.00186853 0)
(-0.00189015 -0.00228752 0)
(-0.00150899 -0.0026994 0)
(-0.000991058 -0.00305413 0)
(-0.000348244 -0.0032143 0)
(-0.00048696 0.00401969 0)
(-0.00133819 0.00370845 0)
(-0.00195228 0.003174 0)
(-0.00235775 0.00260443 0)
(-0.00260202 0.00206655 0)
(-0.00273633 0.00158594 0)
(-0.00280261 0.0011651 0)
(-0.00283079 0.000795223 0)
(-0.00284036 0.000462856 0)
(-0.00284272 0.000153115 0)
(-0.00284312 -0.000149096 0)
(-0.00284157 -0.000458857 0)
(-0.00283294 -0.000791309 0)
(-0.00280586 -0.00116143 0)
(-0.00274086 -0.00158284 0)
(-0.00260792 -0.00206457 0)
(-0.00236483 -0.00260438 0)
(-0.00195983 -0.00317691 0)
(-0.00134478 -0.00371512 0)
(-0.000489796 -0.00403022 0)
(-0.000741705 0.00518526 0)
(-0.00191726 0.00452807 0)
(-0.0026087 0.00369193 0)
(-0.0029926 0.00289516 0)
(-0.00316687 0.00220923 0)
(-0.00322167 0.0016421 0)
(-0.00321748 0.00117684 0)
(-0.00319154 0.000789014 0)
(-0.00316524 0.000454093 0)
(-0.00314986 0.000149645 0)
(-0.00315024 -0.000144853 0)
(-0.00316645 -0.00044922 0)
(-0.00319377 -0.000784026 0)
(-0.00322105 -0.00117181 0)
(-0.00322701 -0.00163734 0)
(-0.00317439 -0.00220541 0)
(-0.00300249 -0.00289351 0)
(-0.00262036 -0.00369434 0)
(-0.00192899 -0.00453675 0)
(-0.00074737 -0.00520332 0)
(-0.00125184 0.00702913 0)
(-0.00294025 0.00550385 0)
(-0.00358595 0.00418397 0)
(-0.00384044 0.00308504 0)
(-0.00385507 0.00223733 0)
(-0.0037687 0.00159788 0)
(-0.00365568 0.00111166 0)
(-0.00355352 0.000730082 0)
(-0.00347971 0.000414895 0)
(-0.00344165 0.000136228 0)
(-0.00344196 -0.000130738 0)
(-0.00348073 -0.000409175 0)
(-0.00355552 -0.000723936 0)
(-0.00365916 -0.00110499 0)
(-0.00377444 -0.0015908 0)
(-0.00386406 -0.00223047 0)
(-0.00385373 -0.00307993 0)
(-0.00360386 -0.00418354 0)
(-0.00296269 -0.00551242 0)
(-0.00126477 -0.00705622 0)
(-0.00240993 0.00932599 0)
(-0.00490735 0.00641113 0)
(-0.00502584 0.00446345 0)
(-0.0049365 0.00303395 0)
(-0.00465119 0.00206083 0)
(-0.00434446 0.00140166 0)
(-0.00408237 0.000941935 0)
(-0.00388538 0.000604496 0)
(-0.00375615 0.000338929 0)
(-0.00369254 0.000111029 0)
(-0.00369268 -0.000105033 0)
(-0.00375666 -0.000332513 0)
(-0.00388659 -0.000597223 0)
(-0.0040849 -0.000933366 0)
(-0.00434943 -0.00139144 0)
(-0.00466041 -0.002049 0)
(-0.00495237 -0.00302167 0)
(-0.00505069 -0.00445533 0)
(-0.00494438 -0.00641144 0)
(-0.0024338 -0.0094051 0)
(-0.00408208 0.0184962 0)
(-0.00765088 0.00780466 0)
(-0.00658308 0.00449673 0)
(-0.00585041 0.00259159 0)
(-0.00508926 0.00157966 0)
(-0.00448666 0.00100333 0)
(-0.00405022 0.000646377 0)
(-0.00375281 0.000404525 0)
(-0.00356865 0.000223791 0)
(-0.0034804 7.32136e-05 0)
(-0.00347964 -6.81099e-05 0)
(-0.00356634 -0.00021823 0)
(-0.00374892 -0.000398014 0)
(-0.00404472 -0.000638396 0)
(-0.00447956 -0.000993542 0)
(-0.00508064 -0.00156869 0)
(-0.00584049 -0.00258247 0)
(-0.00656345 -0.00450746 0)
(-0.00765047 -0.0078547 0)
(-0.00395079 -0.0185877 0)
(0.0246877 0.0132965 0)
(0.0197973 0.00445632 0)
(0.0286554 0.00225789 0)
(0.0310368 0.00113845 0)
(0.0326328 0.00063015 0)
(0.033584 0.000376393 0)
(0.0341737 0.000233999 0)
(0.0345427 0.00014372 0)
(0.0347612 7.89508e-05 0)
(0.0348642 2.61892e-05 0)
(0.0348664 -2.29099e-05 0)
(0.0347681 -7.52902e-05 0)
(0.0345549 -0.000139207 0)
(0.0341923 -0.000227963 0)
(0.0336106 -0.000367822 0)
(0.0326697 -0.00061753 0)
(0.0310756 -0.0011188 0)
(0.0287414 -0.00223727 0)
(0.0198108 -0.00441075 0)
(0.0247791 -0.0132505 0)
)
;

boundaryField
{
    movingWall
    {
        type            fixedValue;
        value           uniform (1 0 0);
    }
    fixedWalls
    {
        type            noSlip;
    }
    frontAndBack
    {
        type            empty;
    }
}


// ************************************************************************* //
