/*--------------------------------*- C++ -*----------------------------------*\
  =========                 |
  \\      /  F ield         | OpenFOAM: The Open Source CFD Toolbox
   \\    /   O peration     | Website:  https://openfoam.org
    \\  /    A nd           | Version:  10
     \\/     M anipulation  |
\*---------------------------------------------------------------------------*/
FoamFile
{
    format      ascii;
    class       surfaceScalarField;
    location    "8.375";
    object      phi;
}
// * * * * * * * * * * * * * * * * * * * * * * * * * * * * * * * * * * * * * //

dimensions      [0 3 -1 0 0 0 0];

internalField   nonuniform List<scalar> 
22800
(
-2.9745e-06
3.79555e-06
-8.19011e-07
-9.37173e-06
6.83928e-06
-4.42045e-07
-1.69899e-05
7.84669e-06
-2.28481e-07
-2.51397e-05
8.26595e-06
-1.16182e-07
-3.3562e-05
8.54683e-06
-1.24512e-07
-4.21582e-05
8.81848e-06
-2.22345e-07
-5.08252e-05
9.07e-06
-4.0294e-07
-5.93797e-05
9.23568e-06
-6.81188e-07
-6.75191e-05
9.22269e-06
-1.08335e-06
-7.47961e-05
8.91813e-06
-1.64115e-06
-8.06029e-05
8.19399e-06
-2.38716e-06
-8.41788e-05
6.92218e-06
-3.34631e-06
-8.46611e-05
5.00457e-06
-4.52219e-06
-8.12005e-05
2.41948e-06
-5.88014e-06
-7.31645e-05
-7.24841e-07
-7.31118e-06
-6.0431e-05
-4.11421e-06
-8.61925e-06
-4.37972e-05
-7.12424e-06
-9.50956e-06
-2.53224e-05
-8.85992e-06
-9.61488e-06
-8.3637e-06
-8.31504e-06
-8.64366e-06
-3.38549e-06
-4.9782e-06
-5.83776e-06
1.18168e-05
-2.18354e-06
-1.66657e-05
1.97787e-05
-2.11156e-06
-2.931e-05
2.24786e-05
-1.98756e-06
-4.27362e-05
2.35519e-05
-1.85973e-06
-5.65011e-05
2.41511e-05
-1.83941e-06
-7.03812e-05
2.46103e-05
-1.91159e-06
-8.4159e-05
2.49237e-05
-2.07597e-06
-9.75146e-05
2.49479e-05
-2.35658e-06
-0.000109969
2.44679e-05
-2.79056e-06
-0.000120846
2.32181e-05
-3.42301e-06
-0.000129249
2.08985e-05
-4.30142e-06
-0.000134064
1.72012e-05
-5.46397e-06
-0.000134059
1.19197e-05
-6.92009e-06
-0.000128064
5.06351e-06
-8.63999e-06
-0.000115185
-3.11527e-06
-1.04886e-05
-9.5211e-05
-1.19289e-05
-1.21589e-05
-6.93323e-05
-1.97506e-05
-1.32524e-05
-4.05656e-05
-2.43524e-05
-1.32742e-05
-1.39791e-05
-2.31728e-05
-1.17287e-05
-1.11842e-05
-6.18037e-06
-6.81601e-06
2.15815e-05
-2.94867e-06
-1.92867e-05
3.53317e-05
-3.08225e-06
-3.37493e-05
3.99588e-05
-3.01767e-06
-4.90358e-05
4.17133e-05
-2.87492e-06
-6.46625e-05
4.25976e-05
-2.81986e-06
-8.03931e-05
4.31909e-05
-2.85008e-06
-9.60033e-05
4.35074e-05
-2.97345e-06
-0.000111167
4.33352e-05
-3.2236e-06
-0.000125391
4.23418e-05
-3.65005e-06
-0.000137961
4.01035e-05
-4.31505e-06
-0.000147909
3.61329e-05
-5.287e-06
-0.00015401
2.99319e-05
-6.62905e-06
-0.000154815
2.11054e-05
-8.38099e-06
-0.000148781
9.55009e-06
-1.05204e-05
-0.000134636
-4.38676e-06
-1.28736e-05
-0.000111893
-1.95899e-05
-1.5082e-05
-8.16956e-05
-3.33689e-05
-1.65791e-05
-4.7629e-05
-4.17695e-05
-1.66494e-05
-1.60517e-05
-4.01538e-05
-1.45963e-05
-1.98338e-05
-7.40209e-06
-7.02607e-06
3.21226e-05
-3.51497e-06
-2.00037e-05
5.21404e-05
-3.83106e-06
-3.50438e-05
5.882e-05
-3.82102e-06
-5.09507e-05
6.12947e-05
-3.67442e-06
-6.72623e-05
6.25114e-05
-3.60216e-06
-8.37863e-05
6.33281e-05
-3.61317e-06
-0.000100355
6.38e-05
-3.72429e-06
-0.000116705
6.36661e-05
-3.98053e-06
-0.000132408
6.24921e-05
-4.44719e-06
-0.000146795
5.97e-05
-5.20981e-06
-0.00015888
5.45887e-05
-6.37009e-06
-0.000167314
4.63974e-05
-8.03244e-06
-0.000170366
3.44373e-05
-1.02792e-05
-0.000166038
1.83464e-05
-1.31244e-05
-0.000152481
-1.48348e-06
-1.64602e-05
-0.00012833
-2.40363e-05
-1.9705e-05
-9.43702e-05
-4.5264e-05
-2.20647e-05
-5.47461e-05
-5.90037e-05
-2.23898e-05
-1.76492e-05
-5.76706e-05
-1.95802e-05
-2.77742e-05
-9.70883e-06
-6.88903e-06
4.29472e-05
-3.93557e-06
-1.98798e-05
6.95436e-05
-4.41243e-06
-3.50014e-05
7.83928e-05
-4.45125e-06
-5.10667e-05
8.16719e-05
-4.31191e-06
-6.7659e-05
8.33491e-05
-4.24537e-06
-8.4661e-05
8.46035e-05
-4.2734e-06
-0.000102002
8.55648e-05
-4.42359e-06
-0.000119536
8.59557e-05
-4.75557e-06
-0.000136958
8.52703e-05
-5.35638e-06
-0.000153709
8.27956e-05
-6.34495e-06
-0.000168852
7.76063e-05
-7.87412e-06
-0.000180938
6.86032e-05
-1.01201e-05
-0.000187908
5.4655e-05
-1.32476e-05
-0.0001871
3.48837e-05
-1.73453e-05
-0.000175548
9.26118e-06
-2.22968e-05
-0.000150832
-2.12231e-05
-2.75286e-05
-0.000112553
-5.18877e-05
-3.16556e-05
-6.52587e-05
-7.35669e-05
-3.27312e-05
-1.99817e-05
-7.425e-05
-2.86975e-05
-3.38952e-05
-1.38607e-05
-6.57999e-06
5.38142e-05
-4.28708e-06
-1.9341e-05
8.72225e-05
-4.91792e-06
-3.43054e-05
9.83623e-05
-5.005e-06
-5.0302e-05
0.00010255
-4.88192e-06
-6.69679e-05
0.000104853
-4.83823e-06
-8.42792e-05
0.000106826
-4.91076e-06
-0.000102294
0.000108721
-5.14096e-06
-0.00012103
0.000110299
-5.60772e-06
-0.000140371
0.00011104
-6.42784e-06
-0.000159958
0.000110149
-7.76768e-06
-0.000179011
0.000106516
-9.85558e-06
-0.000196103
9.86792e-05
-1.29847e-05
-0.000208879
8.49086e-05
-1.7477e-05
-0.00021391
6.34974e-05
-2.35829e-05
-0.000206718
3.34191e-05
-3.13504e-05
-0.000183213
-4.46053e-06
-4.02677e-05
-0.000140446
-4.66452e-05
-4.80087e-05
-8.24742e-05
-8.03848e-05
-5.11543e-05
-2.43339e-05
-8.7085e-05
-4.53052e-05
-3.71089e-05
-2.11203e-05
-6.15371e-06
6.45994e-05
-4.63149e-06
-1.8522e-05
0.000105016
-5.42503e-06
-3.31489e-05
0.00011855
-5.56124e-06
-4.88708e-05
0.000123727
-5.45509e-06
-6.5376e-05
0.000126796
-5.43715e-06
-8.27425e-05
0.000129755
-5.56264e-06
-0.000101181
0.000133051
-5.89104e-06
-0.000120915
0.000136559
-6.52624e-06
-0.000142094
0.000139843
-7.62441e-06
-0.000164671
0.000142145
-9.41818e-06
-0.000188196
0.000142289
-1.22477e-05
-0.000211492
0.000138566
-1.65912e-05
-0.000232192
0.000128665
-2.30556e-05
-0.000246255
0.000109826
-3.22659e-05
-0.000247683
7.94681e-05
-4.46201e-05
-0.00022885
3.65173e-05
-5.98111e-05
-0.000183888
-1.66054e-05
-7.50022e-05
-0.000112534
-6.84316e-05
-8.33074e-05
-3.41402e-05
-8.99882e-05
-7.54903e-05
-3.68184e-05
-3.44308e-05
-5.62552e-06
7.52306e-05
-5.00565e-06
-1.74599e-05
0.000122831
-5.98097e-06
-3.156e-05
0.000138814
-6.16354e-06
-4.67477e-05
0.000144978
-6.06293e-06
-6.27496e-05
0.000148854
-6.0563e-06
-7.97397e-05
0.000152966
-6.22083e-06
-9.80865e-05
0.000158036
-6.63795e-06
-0.000118246
0.000164161
-7.4425e-06
-0.000140697
0.000171134
-8.84014e-06
-0.000165835
0.000178431
-1.11485e-05
-0.000193762
0.000185078
-1.48613e-05
-0.000223917
0.000189453
-2.07316e-05
-0.000254454
0.000189036
-2.9834e-05
-0.000281361
0.000180226
-4.34936e-05
-0.000297474
0.000158448
-6.28679e-05
-0.000292018
0.0001189
-8.78381e-05
-0.000251695
5.82095e-05
-0.000115138
-0.000168306
-1.80658e-05
-0.000133754
-5.88405e-05
-7.41705e-05
-0.000125283
-3.49624e-05
-6.06966e-05
-5.02326e-06
8.56921e-05
-5.43822e-06
-1.62094e-05
0.000140641
-6.62332e-06
-2.95808e-05
0.000159029
-6.84371e-06
-4.39103e-05
0.000166031
-6.72308e-06
-5.89367e-05
0.000170574
-6.69379e-06
-7.49094e-05
0.000175797
-6.85849e-06
-9.2332e-05
0.000182781
-7.32309e-06
-0.000111875
0.000191959
-8.25575e-06
-0.000134351
0.000203527
-9.91635e-06
-0.000160677
0.000217476
-1.27203e-05
-0.000191722
0.000233467
-1.73442e-05
-0.000227975
0.000250586
-2.48808e-05
-0.000268928
0.000266992
-3.7003e-05
-0.000312069
0.000279311
-5.59429e-05
-0.000351116
0.000281269
-8.37741e-05
-0.00037314
0.000260943
-0.000120019
-0.000355258
0.000197832
-0.000157505
-0.000269507
7.96129e-05
-0.000183429
-0.000117998
-4.77459e-05
-0.000177934
-4.63359e-05
-0.000106624
-4.42045e-06
9.60766e-05
-5.96408e-06
-1.49177e-05
0.000158535
-7.39712e-06
-2.73791e-05
0.000179131
-7.64021e-06
-4.04864e-05
0.000186596
-7.45846e-06
-5.39519e-05
0.000191391
-7.35142e-06
-6.80672e-05
0.000197362
-7.45018e-06
-8.3415e-05
0.000206015
-7.8857e-06
-0.000100803
0.000218203
-8.85655e-06
-0.000121287
0.000234681
-1.06699e-05
-0.00014621
0.000256225
-1.38252e-05
-0.0001772
0.000283611
-1.91537e-05
-0.00021606
0.000317464
-2.80175e-05
-0.000264503
0.000357863
-4.24285e-05
-0.000323349
0.000402709
-6.45524e-05
-0.000390711
0.000443231
-9.45998e-05
-0.000457285
0.000454373
-0.000126856
-0.000492125
0.000382519
-0.000149848
-0.000434687
0.000178381
-0.000156206
-0.000236645
-8.10442e-05
-0.000164744
-0.000126352
-0.000156628
-3.97009e-06
0.000106685
-6.63833e-06
-1.389e-05
0.000176825
-8.36969e-06
-2.5336e-05
0.000199187
-8.61033e-06
-3.686e-05
0.000206429
-8.30847e-06
-4.81189e-05
0.000210695
-8.04568e-06
-5.9401e-05
0.00021663
-7.98576e-06
-7.128e-05
0.000226174
-8.28056e-06
-8.45496e-05
0.00024062
-9.14678e-06
-0.000100288
0.000261332
-1.09118e-05
-0.000119973
0.000290008
-1.40983e-05
-0.000145648
0.000328838
-1.95522e-05
-0.000180118
0.000380423
-2.8489e-05
-0.000227669
0.000447252
-4.18384e-05
-0.000294685
0.000527566
-5.78405e-05
-0.000388777
0.000604899
-6.75758e-05
-0.000510892
0.000628882
-5.23939e-05
-0.000629718
0.000505337
-3.9928e-06
-0.000635717
0.000145791
3.85897e-05
-0.000395123
-0.000308197
-1.34416e-05
-0.000385179
-0.000136295
-3.9611e-06
0.000118215
-7.56894e-06
-1.36818e-05
0.000196227
-9.6818e-06
-2.41461e-05
0.000219554
-9.90225e-06
-3.37622e-05
0.000225453
-9.4081e-06
-4.21647e-05
0.00022798
-8.88239e-06
-4.9612e-05
0.000232617
-8.53896e-06
-5.65626e-05
0.000241675
-8.5503e-06
-6.35888e-05
0.00025678
-9.1339e-06
-7.1448e-05
0.000279784
-1.05926e-05
-8.12067e-05
0.000313119
-1.33516e-05
-9.45785e-05
0.000360181
-1.79714e-05
-0.00011457
0.000424892
-2.44773e-05
-0.000147798
0.000510768
-3.02875e-05
-0.000208829
0.00061284
-2.4243e-05
-0.000324891
0.000704153
1.68082e-05
-0.000525132
0.000702894
0.000126228
-0.00077818
0.000473102
0.000285284
-0.00085011
-0.000141412
0.000359133
-0.000535469
-0.000847633
0.000224795
-0.000905185
-1.54633e-05
-4.86883e-06
0.000132022
-8.93858e-06
-1.51558e-05
0.000217942
-1.14282e-05
-2.48754e-05
0.00024079
-1.15163e-05
-3.2364e-05
0.000243642
-1.07007e-05
-3.73328e-05
0.000242751
-9.802e-06
-4.00319e-05
0.000244393
-9.0774e-06
-4.07452e-05
0.000251083
-8.69405e-06
-3.96136e-05
0.000264482
-8.83359e-06
-3.67151e-05
0.000286611
-9.72616e-06
-3.21321e-05
0.000320083
-1.1547e-05
-2.67136e-05
0.000368988
-1.42251e-05
-2.35582e-05
0.000437482
-1.57461e-05
-3.31349e-05
0.000528852
-8.50781e-06
-8.46376e-05
0.000634072
3.027e-05
-0.000238142
0.000718435
0.000139223
-0.000560373
0.00067461
0.000350515
-0.00097023
0.000287326
0.000595634
-0.00104577
-0.000703084
0.00063721
-0.000670605
-0.00159447
0.000371677
-0.00163615
6.03557e-05
-7.80055e-06
0.000151155
-1.13316e-05
-2.00098e-05
0.000244659
-1.45071e-05
-2.92791e-05
0.000264634
-1.45755e-05
-3.42562e-05
0.000261946
-1.33265e-05
-3.52083e-05
0.000255482
-1.17793e-05
-3.25262e-05
0.000252066
-1.03549e-05
-2.62243e-05
0.000254074
-9.29315e-06
-1.59226e-05
0.000262974
-8.79383e-06
-7.13677e-07
0.000280372
-8.96933e-06
1.98907e-05
0.000309095
-9.61716e-06
4.65547e-05
0.000352438
-1.01143e-05
7.67099e-05
0.000413855
-6.52811e-06
9.60542e-05
0.000496235
1.3273e-05
5.8007e-05
0.000590761
8.13585e-05
-0.000134663
0.000666435
0.000244671
-0.000562984
0.000584063
0.000518867
-0.0010486
-3.29113e-06
0.000776234
-0.00114926
-0.00127472
0.00067229
-0.000812908
-0.00224216
0.000311339
-0.00243319
-1.58611e-05
-1.32266e-05
0.000179249
-1.48677e-05
-2.90084e-05
0.000278394
-1.79535e-05
-3.85543e-05
0.000291748
-1.75679e-05
-4.16486e-05
0.000280539
-1.54985e-05
-3.86568e-05
0.000265778
-1.32873e-05
-3.02931e-05
0.000254963
-1.12612e-05
-1.66475e-05
0.000250086
-9.6582e-06
3.08995e-06
0.000251878
-8.64173e-06
2.99315e-05
0.000261683
-8.15291e-06
6.64316e-05
0.000280726
-8.13053e-06
0.00011435
0.000311828
-7.30779e-06
0.000172694
0.000356501
-9.90312e-07
0.000227538
0.000416898
2.44928e-05
0.000232325
0.000484557
0.000101417
7.37257e-05
0.000542729
0.000282305
-0.000324724
0.000430105
0.000552409
-0.000821617
-0.000243447
0.000737048
-0.00105962
-0.00155561
0.000518899
-0.000864734
-0.00264563
0.000208578
-0.00314556
-0.000152365
-3.4763e-05
0.000236861
-2.28496e-05
-5.46392e-05
0.000325828
-2.75575e-05
-6.10518e-05
0.000324635
-2.64745e-05
-5.71403e-05
0.000299895
-2.32677e-05
-4.68457e-05
0.000274826
-1.9343e-05
-3.15337e-05
0.000255286
-1.56351e-05
-1.09258e-05
0.000242087
-1.26088e-05
1.65402e-05
0.000234873
-1.04613e-05
5.31187e-05
0.000234388
-9.28387e-06
0.000102266
0.000240526
-8.94681e-06
0.000166947
0.000255338
-8.19106e-06
0.000248597
0.000277748
-2.89636e-06
0.000337595
0.000308944
1.89565e-05
0.0004039
0.000336579
8.16725e-05
0.000357771
0.000356684
0.000232174
9.46778e-05
0.000242746
0.000450453
-0.000363622
-0.000352267
0.000567119
-0.00078777
-0.00152079
0.000389333
-0.000793609
-0.00279327
0.000153481
-0.00364601
-0.000293157
-2.98758e-05
0.000305183
-3.84459e-05
-6.76885e-05
0.000402689
-3.90484e-05
-8.20605e-05
0.000374669
-3.56619e-05
-8.15093e-05
0.000327794
-2.84508e-05
-6.8207e-05
0.000284468
-2.2944e-05
-4.58225e-05
0.000250893
-1.79907e-05
-1.60356e-05
0.000226402
-1.41014e-05
2.16575e-05
0.000208619
-1.1439e-05
6.88364e-05
0.000197509
-1.02994e-05
0.000129248
0.000190857
-1.07435e-05
0.000205884
0.000190494
-1.17928e-05
0.000302149
0.000192237
-1.07535e-05
0.000410181
0.000198743
2.16784e-06
0.000514939
0.000193008
3.88129e-05
0.00055897
0.000178249
0.000134405
0.000441117
7.62175e-05
0.000284382
6.44244e-05
-0.000339478
0.000363903
-0.000463905
-0.00129832
0.000305854
-0.000658675
-0.00269456
9.60542e-05
-0.00388045
-0.000424238
-0.000181264
0.000533864
-4.74166e-05
-0.00017721
0.000459376
-6.07411e-05
-0.00014564
0.00040362
-6.05203e-05
-0.000109049
0.000344442
-5.32382e-05
-6.30863e-05
0.000279963
-4.14576e-05
-1.27513e-05
0.000231243
-3.0685e-05
4.04633e-05
0.000195838
-2.26508e-05
9.81517e-05
0.000168304
-1.73729e-05
0.00016157
0.00014921
-1.51198e-05
0.00023523
0.000133383
-1.61857e-05
0.000320022
0.000125024
-1.93219e-05
0.000420233
0.000115176
-2.31491e-05
0.000528103
0.000112126
-2.12532e-05
0.000631703
9.42547e-05
-4.84635e-06
0.000703408
6.59911e-05
4.05523e-05
0.000675723
-3.34736e-05
0.000137376
0.000459101
-0.00030265
0.000179794
-3.46822e-05
-0.00101945
0.000214915
-0.000377924
-0.00239234
4.10216e-05
-0.00370147
-0.00055691
-0.000371461
0.00107704
-0.00017172
-0.000261653
0.000479609
-0.000130042
-0.000104624
0.000348938
-0.000102347
6.85401e-05
0.000246997
-7.57192e-05
0.000234047
0.000173467
-5.90108e-05
0.000386418
0.000124686
-4.58147e-05
0.000524076
9.44513e-05
-3.62712e-05
0.000649802
7.26278e-05
-3.00502e-05
0.000766213
5.94213e-05
-2.66227e-05
0.000878416
4.7748e-05
-2.65678e-05
0.000989728
4.2872e-05
-2.91596e-05
0.0011047
3.53421e-05
-3.51411e-05
0.00122468
3.23647e-05
-4.02193e-05
0.00133932
1.84818e-05
-3.88619e-05
0.00143819
-5.59912e-06
-2.72865e-05
0.00147321
-8.35514e-05
1.50599e-05
0.00138327
-0.000272336
5.96273e-05
0.000987264
-0.000723607
0.000100163
0.000274888
-0.00167585
-4.11331e-06
-0.00273832
-0.000688258
0.00122644
-0.000149399
0.00186737
-0.000161323
0.00237763
-0.000161314
0.00277211
-0.00014749
0.00307583
-0.000130244
0.00331627
-0.000115754
0.00351273
-0.000102017
0.00367725
-9.18875e-05
0.00381833
-8.16611e-05
0.00394233
-7.62489e-05
0.00405473
-6.95298e-05
0.00415863
-6.85529e-05
0.00425471
-6.37165e-05
0.00433764
-6.4453e-05
0.0043855
-5.34545e-05
0.00435403
-5.20809e-05
0.00411126
-2.95708e-05
0.00344798
-6.03275e-05
0.00189503
-0.000122899
-0.000843285
-5.06688e-06
5.93041e-06
-1.68255e-06
-1.59604e-05
1.21038e-05
-1.65225e-06
-2.89893e-05
1.4282e-05
-1.48165e-06
-4.27253e-05
1.49997e-05
-1.37988e-06
-5.66802e-05
1.52725e-05
-1.44219e-06
-7.0673e-05
1.54257e-05
-1.65529e-06
-8.45193e-05
1.54663e-05
-2.02293e-06
-9.7912e-05
1.52868e-05
-2.5753e-06
-0.000110371
1.47327e-05
-3.35731e-06
-0.000121211
1.36186e-05
-4.41964e-06
-0.000129527
1.17395e-05
-5.81012e-06
-0.000134212
8.8971e-06
-7.55843e-06
-0.00013403
4.94929e-06
-9.65339e-06
-0.000127777
-1.16592e-07
-1.20172e-05
-0.000114561
-6.07663e-06
-1.445e-05
-9.42521e-05
-1.22922e-05
-1.66363e-05
-6.80482e-05
-1.75803e-05
-1.81332e-05
-3.90719e-05
-2.015e-05
-1.84412e-05
-1.28941e-05
-1.78036e-05
-1.70179e-05
-6.90396e-06
-1.09684e-05
-1.14955e-05
1.87015e-05
-3.45917e-06
-3.20621e-05
3.46304e-05
-4.07155e-06
-5.60373e-05
4.03074e-05
-4.03775e-06
-8.11009e-05
4.2117e-05
-3.91343e-06
-0.000106318
4.25954e-05
-3.94522e-06
-0.000131207
4.256e-05
-4.15698e-06
-0.00015531
4.20659e-05
-4.57267e-06
-0.000178016
4.08809e-05
-5.24413e-06
-0.000198482
3.86486e-05
-6.24075e-06
-0.000215582
3.49362e-05
-7.64024e-06
-0.000227899
2.92705e-05
-9.51627e-06
-0.000233739
2.11895e-05
-1.19155e-05
-0.000231308
1.04212e-05
-1.48232e-05
-0.000218974
-2.92096e-06
-1.81693e-05
-0.000195443
-1.84718e-05
-2.16248e-05
-0.000160693
-3.44648e-05
-2.4736e-05
-0.000116658
-4.80283e-05
-2.68397e-05
-6.82047e-05
-5.47241e-05
-2.71532e-05
-2.40012e-05
-4.90598e-05
-2.4676e-05
-2.219e-05
-1.48955e-05
-1.42181e-05
3.44876e-05
-4.51662e-06
-3.90444e-05
6.1908e-05
-5.53358e-06
-6.7721e-05
7.15611e-05
-5.59478e-06
-9.75102e-05
7.4478e-05
-5.44682e-06
-0.00012733
7.50262e-05
-5.43087e-06
-0.000156622
7.45987e-05
-5.59683e-06
-0.000184867
7.33234e-05
-5.98549e-06
-0.000211397
7.08543e-05
-6.66778e-06
-0.000235295
6.6634e-05
-7.73731e-06
-0.000255339
5.99682e-05
-9.30321e-06
-0.000269963
5.00839e-05
-1.14758e-05
-0.00027729
3.62323e-05
-1.43445e-05
-0.000275197
1.78929e-05
-1.79464e-05
-0.000261484
-4.97565e-06
-2.21786e-05
-0.000234428
-3.17096e-05
-2.6692e-05
-0.000193585
-5.94999e-05
-3.08899e-05
-0.000140902
-8.34663e-05
-3.38238e-05
-8.22325e-05
-9.57343e-05
-3.43089e-05
-2.85547e-05
-8.64188e-05
-3.0915e-05
-4.01131e-05
-1.80337e-05
-1.51904e-05
5.15198e-05
-5.35687e-06
-4.17639e-05
9.13695e-05
-6.71895e-06
-7.239e-05
0.000105234
-6.86755e-06
-0.000104168
0.000109293
-6.71188e-06
-0.000136015
0.000109942
-6.67032e-06
-0.000167425
0.000109212
-6.81632e-06
-0.00019795
0.000107333
-7.20933e-06
-0.000226998
0.000103866
-7.94382e-06
-0.000253731
9.80658e-05
-9.14607e-06
-0.000276965
8.89637e-05
-1.09717e-05
-0.000295083
7.54259e-05
-1.35938e-05
-0.000305983
5.62759e-05
-1.71756e-05
-0.000307087
3.05482e-05
-2.18304e-05
-0.000295601
-2.02372e-06
-2.7563e-05
-0.000268578
-4.12337e-05
-3.39588e-05
-0.00022446
-8.31219e-05
-4.02011e-05
-0.000164566
-0.000120575
-4.48495e-05
-9.56766e-05
-0.000141122
-4.58916e-05
-3.20731e-05
-0.000128537
-4.10654e-05
-5.87422e-05
-2.31529e-05
-1.53954e-05
6.90313e-05
-6.05162e-06
-4.2645e-05
0.00012194
-7.73331e-06
-7.41331e-05
0.000140237
-7.96669e-06
-0.000106897
0.000145565
-7.82036e-06
-0.000139916
0.000146501
-7.78538e-06
-0.000172805
0.000145788
-7.96025e-06
-0.000205273
0.000143804
-8.42714e-06
-0.000236909
0.000140058
-9.31161e-06
-0.000267052
0.000133638
-1.07857e-05
-0.000294661
0.000123301
-1.30735e-05
-0.000318148
0.000107487
-1.64479e-05
-0.000335203
8.44166e-05
-2.12058e-05
-0.000342661
5.237e-05
-2.76108e-05
-0.000336595
1.03296e-05
-3.57651e-05
-0.000312522
-4.21709e-05
-4.54325e-05
-0.000266643
-0.000101098
-5.54319e-05
-0.000198578
-0.000156812
-6.34843e-05
-0.000115604
-0.000190868
-6.59583e-05
-3.7174e-05
-0.000177022
-5.86425e-05
-7.82328e-05
-3.15441e-05
-1.52945e-05
8.67266e-05
-6.68786e-06
-4.27938e-05
0.00015321
-8.68861e-06
-7.47329e-05
0.000176181
-9.00963e-06
-0.000108117
0.000182953
-8.8854e-06
-0.000142014
0.00018444
-8.88026e-06
-0.000176206
0.000184191
-9.12106e-06
-0.000210625
0.0001828
-9.71805e-06
-0.000245128
0.00017979
-1.08368e-05
-0.000279355
0.000174149
-1.27109e-05
-0.00031255
0.000164389
-1.5661e-05
-0.000343318
0.000148508
-2.01091e-05
-0.000369293
0.000123981
-2.65745e-05
-0.000386769
8.79701e-05
-3.56004e-05
-0.000390426
3.79795e-05
-4.75757e-05
-0.000373762
-2.74956e-05
-6.26897e-05
-0.000329366
-0.000106316
-7.94464e-05
-0.000252897
-0.000187175
-9.41147e-05
-0.000149854
-0.000245129
-9.99367e-05
-4.69452e-05
-0.000236871
-8.83653e-05
-0.000101571
-4.47271e-05
-1.50513e-05
0.000104489
-7.34259e-06
-4.26093e-05
0.000185029
-9.68575e-06
-7.47948e-05
0.000212903
-1.00974e-05
-0.000108575
0.000221272
-9.99447e-06
-0.000143113
0.000223561
-1.00202e-05
-0.000178387
0.000224237
-1.03343e-05
-0.000214612
0.000224214
-1.1081e-05
-0.00025201
0.000223136
-1.24749e-05
-0.000290666
0.00022001
-1.48287e-05
-0.000330327
0.000213226
-1.85941e-05
-0.000370079
0.000200423
-2.44114e-05
-0.000407873
0.000178335
-3.31509e-05
-0.000439876
0.000142793
-4.58755e-05
-0.000459678
8.92036e-05
-6.36881e-05
-0.000458691
1.42108e-05
-8.73132e-05
-0.000424228
-8.52624e-05
-0.000115328
-0.000344134
-0.000200658
-0.000141612
-0.000215025
-0.000303936
-0.00015361
-6.99515e-05
-0.000322176
-0.000135259
-0.00014079
-6.51638e-05
-1.47121e-05
0.000122267
-8.07188e-06
-4.22069e-05
0.000217343
-1.08e-05
-7.4456e-05
0.000250288
-1.12994e-05
-0.000108354
0.000260305
-1.11976e-05
-0.000143149
0.000263527
-1.12268e-05
-0.000179032
0.000265483
-1.15843e-05
-0.000216537
0.000267534
-1.24523e-05
-0.000256342
0.0002696
-1.41014e-05
-0.000299141
0.000270905
-1.69375e-05
-0.000345458
0.00026997
-2.15754e-05
-0.000395318
0.000264369
-2.89468e-05
-0.000447681
0.000250397
-4.04306e-05
-0.000499595
0.0002228
-5.79258e-05
-0.000545042
0.000174764
-8.36068e-05
-0.000573238
9.83522e-05
-0.000118814
-0.000568643
-1.51814e-05
-0.000162513
-0.000502316
-0.000180235
-0.000201888
-0.000346984
-0.000375706
-0.000217316
-0.000128738
-0.00047543
-0.000190275
-0.00023487
-9.53538e-05
-1.4317e-05
0.000140074
-8.92809e-06
-4.1668e-05
0.000250173
-1.21023e-05
-7.37749e-05
0.000288228
-1.26775e-05
-0.000107401
0.000299742
-1.25339e-05
-0.000141854
0.000303794
-1.25072e-05
-0.000177525
0.000307132
-1.28359e-05
-0.000215281
0.000311707
-1.37407e-05
-0.000256292
0.000317903
-1.55471e-05
-0.00030198
0.000325431
-1.87548e-05
-0.000353926
0.000333351
-2.41545e-05
-0.000413644
0.000339756
-3.30143e-05
-0.000482109
0.000341313
-4.7332e-05
-0.000559071
0.000332762
-7.0003e-05
-0.000641898
0.000305925
-0.000104278
-0.00072245
0.000246048
-0.000150918
-0.000779393
0.000121954
-0.000200211
-0.00076407
-0.000123649
-0.000229414
-0.000594897
-0.000505802
-0.000222506
-0.000260788
-0.000788634
-0.000198839
-0.000472586
-0.000129697
-1.39625e-05
0.000158051
-9.97852e-06
-4.11825e-05
0.000283677
-1.36821e-05
-7.29456e-05
0.000326662
-1.43107e-05
-0.00010581
0.000339205
-1.40576e-05
-0.000139098
0.000343611
-1.3881e-05
-0.00017337
0.000348016
-1.4063e-05
-0.000209781
0.000355092
-1.48588e-05
-0.00024996
0.000365861
-1.66361e-05
-0.000296054
0.000380819
-1.99637e-05
-0.000350814
0.000400051
-2.57658e-05
-0.000417642
0.000423001
-3.55703e-05
-0.000500588
0.000448037
-5.17947e-05
-0.000604324
0.0004716
-7.7531e-05
-0.00073335
0.000484337
-0.000113938
-0.000886792
0.000456917
-0.000152026
-0.00104108
0.00031114
-0.000161751
-0.00111301
-9.07292e-05
-0.000110843
-0.000943803
-0.000779662
-5.15498e-05
-0.000472951
-0.0013312
-9.30352e-05
-0.000962808
-0.000139358
-1.38516e-05
0.000176591
-1.1327e-05
-4.11518e-05
0.000318277
-1.56687e-05
-7.24443e-05
0.000365656
-1.63116e-05
-0.000104005
0.00037831
-1.58532e-05
-0.000135127
0.000382086
-1.53973e-05
-0.000166486
0.000386662
-1.5272e-05
-0.000199424
0.000395504
-1.57551e-05
-0.000235865
0.000410382
-1.72267e-05
-0.00027848
0.000432785
-2.02629e-05
-0.000330988
0.000464249
-2.57886e-05
-0.000398611
0.000506346
-3.52747e-05
-0.000488672
0.000560226
-5.06172e-05
-0.000611555
0.000624626
-7.19819e-05
-0.000780575
0.000685284
-8.97671e-05
-0.00100232
0.000682176
-7.10891e-05
-0.00124681
0.000468747
3.44898e-05
-0.00139725
-0.000160156
0.000215869
-0.001228
-0.00119551
0.000285194
-0.000678028
-0.00198422
8.96054e-05
-0.00170398
-7.31528e-05
-1.43893e-05
0.000196568
-1.31564e-05
-4.2343e-05
0.000354854
-1.83053e-05
-7.31898e-05
0.000405531
-1.89307e-05
-0.000102889
0.000416748
-1.81473e-05
-0.00013074
0.000418293
-1.72389e-05
-0.000157483
0.000421463
-1.65966e-05
-0.000184489
0.000430474
-1.65148e-05
-0.000213685
0.000447794
-1.73494e-05
-0.000247801
0.000475897
-1.95886e-05
-0.000290793
0.000517806
-2.39164e-05
-0.000348593
0.00057727
-3.10946e-05
-0.000429972
0.000657761
-4.06329e-05
-0.000548428
0.000757851
-4.50568e-05
-0.000722616
0.000852087
-1.68577e-05
-0.000970273
0.000845159
0.000101482
-0.00126656
0.000535666
0.000355599
-0.00148265
-0.000292906
0.000634117
-0.00133269
-0.00159509
0.00060876
-0.000773748
-0.00254824
0.000229874
-0.00252538
3.21931e-05
-1.61469e-05
0.000219497
-1.57204e-05
-4.58209e-05
0.000394881
-2.17814e-05
-7.65602e-05
0.000446992
-2.22384e-05
-0.000104027
0.000454458
-2.09438e-05
-0.000127551
0.000451424
-1.94088e-05
-0.000147935
0.000450841
-1.80723e-05
-0.000166449
0.000457507
-1.72129e-05
-0.000184673
0.000474294
-1.71094e-05
-0.000204712
0.000504279
-1.80689e-05
-0.000229672
0.0005515
-2.02816e-05
-0.000264621
0.000621178
-2.31842e-05
-0.000317614
0.000717577
-2.25696e-05
-0.00040334
0.000838015
-2.94533e-06
-0.000547691
0.000944596
8.21133e-05
-0.000789133
0.000925338
0.000300485
-0.00111948
0.000550189
0.000666339
-0.00138813
-0.000382225
0.000953602
-0.00126964
-0.00181798
0.000741604
-0.000769731
-0.0029067
0.000230238
-0.00326186
2.7104e-05
-2.0932e-05
0.000248827
-1.97292e-05
-5.43617e-05
0.000441065
-2.72611e-05
-8.51533e-05
0.000490833
-2.7625e-05
-0.000109364
0.000490979
-2.56375e-05
-0.000127245
0.000480638
-2.3112e-05
-0.000139834
0.000473745
-2.06698e-05
-0.000148005
0.000475041
-1.86554e-05
-0.00015258
0.000487394
-1.73199e-05
-0.000154573
0.000514055
-1.6752e-05
-0.000155385
0.00055927
-1.65746e-05
-0.000158108
0.000628677
-1.48908e-05
-0.000168137
0.000725814
-4.73578e-06
-0.000201396
0.000847999
3.65473e-05
-0.00028977
0.000952125
0.000162203
-0.000496234
0.000936962
0.000439511
-0.000820739
0.000559228
0.000834332
-0.00108773
-0.000380923
0.00104192
-0.00104332
-0.0018347
0.000644606
-0.000690396
-0.0030889
0.00014061
-0.00387478
-9.33356e-05
-2.72946e-05
0.000286591
-2.53377e-05
-6.65466e-05
0.000496232
-3.38691e-05
-9.94963e-05
0.000539935
-3.37195e-05
-0.000122426
0.000528993
-3.05826e-05
-0.000135015
0.000506904
-2.69647e-05
-0.00013885
0.000489749
-2.34289e-05
-0.000135046
0.000481912
-2.03333e-05
-0.000123963
0.000485541
-1.78714e-05
-0.000105349
0.000503273
-1.59842e-05
-7.85793e-05
0.00053837
-1.40013e-05
-4.36852e-05
0.000595878
-9.40233e-06
-2.58202e-06
0.000677829
5.89096e-06
3.26918e-05
0.000782258
5.49596e-05
2.82043e-05
0.00087148
0.000186549
-7.67094e-05
0.0008644
0.000459781
-0.000312267
0.000540636
0.000806559
-0.00054179
-0.000322459
0.000908108
-0.000661837
-0.001663
0.000467245
-0.000515173
-0.00309199
6.49977e-05
-0.00433071
-0.000211614
-6.08814e-05
0.000360166
-3.55433e-05
-0.000106921
0.00056164
-4.69246e-05
-0.000133944
0.000586637
-4.6154e-05
-0.000145473
0.000558976
-4.1722e-05
-0.000146878
0.000525069
-3.61025e-05
-0.000140049
0.000497733
-3.04478e-05
-0.000124861
0.000479504
-2.5389e-05
-9.98116e-05
0.000471273
-2.12431e-05
-6.28699e-05
0.000475078
-1.8031e-05
-1.10476e-05
0.000492601
-1.50001e-05
5.78274e-05
0.000528478
-9.66592e-06
0.000145624
0.000582724
4.41224e-06
0.000247665
0.000653062
4.61122e-05
0.000343786
0.000708223
0.000148808
0.000378971
0.000699692
0.000361696
0.000279625
0.000462638
0.000627796
8.68794e-05
-0.000230157
0.000667563
-0.000212051
-0.00132131
0.000346576
-0.000262709
-0.00291408
2.62363e-05
-0.00458567
-0.000300903
-4.17731e-05
0.000417384
-5.38909e-05
-0.000118591
0.000664935
-6.55263e-05
-0.000164809
0.000658879
-6.16848e-05
-0.000183565
0.000602043
-5.2762e-05
-0.000182475
0.000545818
-4.47839e-05
-0.000166546
0.000500946
-3.71323e-05
-0.000138072
0.00046742
-3.04905e-05
-9.65406e-05
0.000443466
-2.51641e-05
-4.03567e-05
0.000430041
-2.14456e-05
3.43817e-05
0.000425875
-1.87553e-05
0.000131024
0.000435412
-1.53697e-05
0.000254705
0.000455281
-6.99135e-06
0.000402737
0.000487702
1.94957e-05
0.000562467
0.000505282
8.20247e-05
0.000696657
0.000487849
0.000212057
0.000716186
0.000334901
0.00039259
0.00056335
-0.000134754
0.000421337
0.000222143
-0.000931036
0.000256784
5.44661e-05
-0.00265862
8.26561e-06
-0.00458687
-0.000368574
-0.000190136
0.000621646
-6.15427e-05
-0.000214785
0.00071399
-8.51463e-05
-0.000228295
0.000700001
-8.81331e-05
-0.000233278
0.000633768
-7.99798e-05
-0.000213019
0.000551266
-6.71653e-05
-0.000173541
0.000485061
-5.42787e-05
-0.00011898
0.000433703
-4.34947e-05
-4.92291e-05
0.000391772
-3.54292e-05
3.45359e-05
0.000361768
-3.06122e-05
0.000135163
0.000337574
-2.8512e-05
0.000253906
0.000326015
-2.8669e-05
0.000395885
0.000317832
-2.76785e-05
0.000557986
0.000322676
-1.83276e-05
0.000727751
0.000319108
1.15626e-05
0.000892865
0.000292966
7.03218e-05
0.000983223
0.000200411
0.000181508
0.000972442
-0.000131621
0.000187442
0.000793781
-0.000681449
0.00014399
0.000504373
-0.00232325
-4.93378e-06
-0.00421914
-0.000420267
-0.000666215
0.00128448
-0.000168335
-0.000624101
0.000703986
-0.000162152
-0.000479223
0.000589364
-0.000136589
-0.000278418
0.000471803
-0.00011456
-6.87407e-05
0.000380486
-9.79069e-05
0.000139529
0.000313839
-8.28626e-05
0.000340368
0.000267558
-7.09653e-05
0.00053333
0.000230677
-6.19173e-05
0.000719538
0.000204849
-5.59119e-05
0.000901434
0.000182258
-5.31476e-05
0.00108343
0.000168484
-5.36213e-05
0.0012666
0.000155521
-5.6005e-05
0.00146137
0.000147191
-5.95087e-05
0.00165817
0.000135823
-5.23689e-05
0.00186187
0.000102121
-4.01416e-05
0.00202961
4.48632e-05
2.8674e-06
0.00209183
-0.00016811
3.38897e-05
0.0020338
-0.000552603
2.93531e-05
0.00138719
-0.0016505
-3.02587e-05
-0.00304782
-0.000472384
0.00126936
-0.000134283
0.00196917
-0.000157142
0.00255988
-0.000162665
0.00304107
-0.000156876
0.00343811
-0.000146801
0.00377232
-0.000136115
0.00406291
-0.00012505
0.00431806
-0.000116365
0.00454802
-0.000106774
0.00475585
-0.000101817
0.00494903
-9.42276e-05
0.00513009
-9.40912e-05
0.00530079
-8.7224e-05
0.00546346
-9.1306e-05
0.00559085
-7.87208e-05
0.00566952
-8.58892e-05
0.00553586
-6.40135e-05
0.00502596
-0.000103033
0.00336754
-0.000114986
-0.000523564
-5.7631e-06
6.23359e-06
-2.15303e-06
-1.83509e-05
1.35717e-05
-2.63622e-06
-3.34169e-05
1.62224e-05
-2.63801e-06
-4.91987e-05
1.70275e-05
-2.62564e-06
-6.51107e-05
1.72282e-05
-2.75842e-06
-8.09485e-05
1.72426e-05
-3.06012e-06
-9.65066e-05
1.70892e-05
-3.55405e-06
-0.000111445
1.66447e-05
-4.28154e-06
-0.000125237
1.57305e-05
-5.29584e-06
-0.000137135
1.41317e-05
-6.65356e-06