/*--------------------------------*- C++ -*----------------------------------*\
  =========                 |
  \\      /  F ield         | OpenFOAM: The Open Source CFD Toolbox
   \\    /   O peration     | Website:  https://openfoam.org
    \\  /    A nd           | Version:  10
     \\/     M anipulation  |
\*---------------------------------------------------------------------------*/
FoamFile
{
    format      ascii;
    class       volVectorField;
    location    "1.85";
    object      U;
}
// * * * * * * * * * * * * * * * * * * * * * * * * * * * * * * * * * * * * * //

dimensions      [0 1 -1 0 0 0 0];

internalField   nonuniform List<vector> 
400
(
(-0.000304851 0.000301698 0)
(-0.00116983 0.000436815 0)
(-0.0022292 0.000435604 0)
(-0.00319776 0.000408747 0)
(-0.0040931 0.000371097 0)
(-0.00489035 0.000324505 0)
(-0.00556943 0.000269849 0)
(-0.00611323 0.000208051 0)
(-0.00650704 0.000140148 0)
(-0.00673873 6.73122e-05 0)
(-0.00679908 -9.01892e-06 0)
(-0.00668206 -8.76389e-05 0)
(-0.0063854 -0.000166506 0)
(-0.00591135 -0.000243499 0)
(-0.00526717 -0.000316191 0)
(-0.00446573 -0.000381894 0)
(-0.00352681 -0.000437684 0)
(-0.00248034 -0.000479405 0)
(-0.00131546 -0.000488974 0)
(-0.000348022 -0.000345164 0)
(-0.000455538 0.00117269 0)
(-0.0016796 0.00162913 0)
(-0.00313863 0.00161884 0)
(-0.00447657 0.00151665 0)
(-0.00571024 0.00137353 0)
(-0.00680546 0.00119692 0)
(-0.0077347 0.000990688 0)
(-0.00847501 0.000758739 0)
(-0.00900701 0.000505262 0)
(-0.00931502 0.000234756 0)
(-0.00938785 -4.80527e-05 0)
(-0.00921818 -0.000337284 0)
(-0.00880349 -0.000626215 0)
(-0.00814773 -0.000907382 0)
(-0.00726118 -0.00117216 0)
(-0.0061615 -0.00141095 0)
(-0.00487564 -0.00161325 0)
(-0.00344354 -0.00176391 0)
(-0.00185687 -0.00180101 0)
(-0.000508304 -0.00131591 0)
(-0.000491497 0.0023011 0)
(-0.00181004 0.00313332 0)
(-0.00337877 0.00310713 0)
(-0.0048154 0.00290845 0)
(-0.00613931 0.00263094 0)
(-0.00731427 0.00228928 0)
(-0.00831138 0.00189145 0)
(-0.00910669 0.0014453 0)
(-0.00968002 0.00095908 0)
(-0.0100153 0.00044142 0)
(-0.0101 -9.85236e-05 0)
(-0.00992549 -0.000650096 0)
(-0.00948879 -0.00120094 0)
(-0.00879277 -0.00173703 0)
(-0.00784673 -0.00224221 0)
(-0.00666798 -0.00269833 0)
(-0.00528413 -0.00308524 0)
(-0.00373762 -0.00337387 0)
(-0.00201866 -0.00344999 0)
(-0.000553445 -0.00256549 0)
(-0.000522934 0.00345326 0)
(-0.00192856 0.00467719 0)
(-0.00360168 0.00463358 0)
(-0.00513218 0.00433534 0)
(-0.00654231 0.0039203 0)
(-0.00779421 0.00341053 0)
(-0.0088581 0.00281815 0)
(-0.00970953 0.002155 0)
(-0.0103279 0.00143312 0)
(-0.0106963 0.000665007 0)
(-0.0108015 -0.000135896 0)
(-0.0106332 -0.000955401 0)
(-0.0101857 -0.00177583 0)
(-0.00945977 -0.00257674 0)
(-0.00846216 -0.00333436 0)
(-0.00720819 -0.0040214 0)
(-0.0057249 -0.00460696 0)
(-0.00405708 -0.00504631 0)
(-0.00219385 -0.00516881 0)
(-0.000601553 -0.00386436 0)
(-0.000565952 0.00468913 0)
(-0.00208923 0.00633508 0)
(-0.0039028 0.00627175 0)
(-0.0055596 0.0058659 0)
(-0.00708532 0.00530328 0)
(-0.00844003 0.0046142 0)
(-0.0095931 0.00381549 0)
(-0.0105198 0.00292314 0)
(-0.0111992 0.00195297 0)
(-0.0116138 0.00092085 0)
(-0.0117495 -0.00015658 0)
(-0.0115933 -0.00126152 0)
(-0.0111362 -0.00237181 0)
(-0.010375 -0.00346119 0)
(-0.00931233 -0.00449801 0)
(-0.00795963 -0.0054448 0)
(-0.00634206 -0.00625772 0)
(-0.00450693 -0.00687265 0)
(-0.00244239 -0.00705424 0)
(-0.000670501 -0.00529148 0)
(-0.000623118 0.00604011 0)
(-0.00230176 0.0081485 0)
(-0.00429975 0.00806174 0)
(-0.00612141 0.00753669 0)
(-0.00779691 0.00681222 0)
(-0.00928391 0.00592835 0)
(-0.0105512 0.00490739 0)
(-0.0115742 0.00376981 0)
(-0.0123324 0.00253503 0)
(-0.012808 0.00122174 0)
(-0.012986 -0.000151116 0)
(-0.0128504 -0.00156371 0)
(-0.0123873 -0.00299046 0)
(-0.0115877 -0.00440018 0)
(-0.0104474 -0.00575339 0)
(-0.00897125 -0.00700121 0)
(-0.00717987 -0.00808384 0)
(-0.00512237 -0.00891212 0)
(-0.00278513 -0.00917333 0)
(-0.000766346 -0.00690103 0)
(-0.000696354 0.00753943 0)
(-0.00257326 0.0101614 0)
(-0.00480518 0.0100452 0)
(-0.00683381 0.00938471 0)
(-0.0086954 0.00847903 0)
(-0.0103451 0.00737998 0)
(-0.0117518 0.00611656 0)
(-0.0128923 0.00471426 0)
(-0.0137474 0.00319583 0)
(-0.0143001 0.00158185 0)
(-0.0145351 -0.0001078 0)
(-0.0144328 -0.00185349 0)
(-0.0139728 -0.00362827 0)
(-0.0131381 -0.00539796 0)
(-0.0119137 -0.00711609 0)
(-0.010293 -0.00872128 0)
(-0.0082873 -0.010134 0)
(-0.00594476 -0.0112317 0)
(-0.00324795 -0.0116053 0)
(-0.000897008 -0.00875822 0)
(-0.000788394 0.0092262 0)
(-0.00291349 0.0124251 0)
(-0.00543585 0.0122697 0)
(-0.00771771 0.011451 0)
(-0.00980363 0.0103378 0)
(-0.0116465 0.00899702 0)
(-0.013217 0.00746602 0)
(-0.014495 0.00577604 0)
(-0.0154648 0.00395284 0)
(-0.0161117 0.00201741 0)
(-0.0164213 -1.22651e-05 0)
(-0.0163709 -0.00211686 0)
(-0.0159318 -0.00427453 0)
(-0.0150755 -0.00645106 0)
(-0.013771 -0.00859536 0)
(-0.0119928 -0.0106334 0)
(-0.00973421 -0.0124614 0)
(-0.00703563 -0.0139122 0)
(-0.00387125 -0.0144515 0)
(-0.00107549 -0.0109496 0)
(-0.000903404 0.0111467 0)
(-0.00333664 0.0149997 0)
(-0.00621548 0.0147889 0)
(-0.00880176 0.0137797 0)
(-0.0111517 0.0124235 0)
(-0.0132171 0.0108064 0)
(-0.0149729 0.00897696 0)
(-0.0164056 0.00697322 0)
(-0.0175061 0.00482348 0)
(-0.0182653 0.00254733 0)
(-0.0186693 0.000158047 0)
(-0.0186951 -0.00233092 0)
(-0.0183071 -0.00490711 0)
(-0.017459 -0.00754259 0)
(-0.0160963 -0.0101873 0)
(-0.0141638 -0.0127572 0)
(-0.011622 -0.0151207 0)
(-0.00848887 -0.0170509 0)
(-0.00472054 -0.0178435 0)
(-0.00132432 -0.0135947 0)
(-0.00104797 0.0133582 0)
(-0.003864 0.0179571 0)
(-0.00717812 0.0176647 0)
(-0.0101257 0.0164187 0)
(-0.0127797 0.0147704 0)
(-0.0150934 0.012832 0)
(-0.0170503 0.0106664 0)
(-0.0186487 0.00832002 0)
(-0.0198909 0.005823 0)
(-0.0207772 0.00319128 0)
(-0.0212996 0.000429771 0)
(-0.0214362 -0.00246268 0)
(-0.0211435 -0.00548806 0)
(-0.0203558 -0.00863494 0)
(-0.0189861 -0.0118652 0)
(-0.0169325 -0.0150937 0)
(-0.014099 -0.0181613 0)
(-0.0104506 -0.0207643 0)
(-0.00590657 -0.0219572 0)
(-0.00168502 -0.0168693 0)
(-0.00123304 0.0159344 0)
(-0.00452836 0.0213866 0)
(-0.0083737 0.020969 0)
(-0.0117456 0.0194184 0)
(-0.0147416 0.0174103 0)
(-0.0173215 0.0150912 0)
(-0.0194851 0.0125434 0)
(-0.0212493 0.00982298 0)
(-0.0226351 0.00696119 0)
(-0.0236587 0.00396701 0)
(-0.0243234 0.000831339 0)
(-0.0246131 -0.00246744 0)
(-0.0244794 -0.00595804 0)
(-0.0238362 -0.00965961 0)
(-0.0225557 -0.0135641 0)
(-0.020468 -0.0176054 0)
(-0.0173839 -0.0216103 0)
(-0.0131532 -0.0251868 0)
(-0.00762612 -0.0270305 0)
(-0.00223956 -0.0210489 0)
(-0.00147784 0.0189757 0)
(-0.00538215 0.0254015 0)
(-0.00987678 0.0247868 0)
(-0.0137415 0.022831 0)
(-0.0171105 0.0203681 0)
(-0.0199608 0.0175895 0)
(-0.0223189 0.0146027 0)
(-0.0242312 0.0114752 0)
(-0.0257472 0.00823753 0)
(-0.0269074 0.0048878 0)
(-0.0277343 0.00139667 0)
(-0.0282258 -0.00228647 0)
(-0.0283359 -0.00623005 0)
(-0.027962 -0.0105039 0)
(-0.0269327 -0.0151588 0)
(-0.0249894 -0.0201854 0)
(-0.0217989 -0.0254361 0)
(-0.0169746 -0.0304564 0)
(-0.0102481 -0.0333858 0)
(-0.0031611 -0.0265975 0)
(-0.0018184 0.0226318 0)
(-0.00651253 0.0301531 0)
(-0.0118006 0.0292193 0)
(-0.0162292 0.0267065 0)
(-0.0199872 0.0236547 0)
(-0.0230876 0.0203117 0)
(-0.0255999 0.0168165 0)
(-0.0276149 0.013248 0)
(-0.0292229 0.00963359 0)
(-0.0305 0.00595537 0)
(-0.031498 0.00215718 0)
(-0.0322402 -0.0018494 0)
(-0.0326972 -0.006185 0)
(-0.0327653 -0.0109951 0)
(-0.0322382 -0.0164305 0)
(-0.03076 -0.0226031 0)
(-0.0278125 -0.0294783 0)
(-0.0225426 -0.0366662 0)
(-0.0144975 -0.0414354 0)
(-0.0048347 -0.034361 0)
(-0.00232737 0.027056 0)
(-0.00807539 0.0358053 0)
(-0.0143228 0.0343719 0)
(-0.0193791 0.0310817 0)
(-0.02351 0.0272553 0)
(-0.0268 0.02321 0)
(-0.0293831 0.0191228 0)
(-0.0314146 0.015081 0)
(-0.0330402 0.0111027 0)
(-0.0343841 0.0071492 0)
(-0.0355395 0.00313238 0)
(-0.0365683 -0.00108012 0)
(-0.037482 -0.00567443 0)
(-0.038208 -0.0108903 0)
(-0.0385421 -0.0170297 0)
(-0.038058 -0.0244255 0)
(-0.0360747 -0.0333145 0)
(-0.0308911 -0.0436927 0)
(-0.0218498 -0.0514938 0)
(-0.00817072 -0.0460837 0)
(-0.00309281 0.0331292 0)
(-0.0102536 0.0427932 0)
(-0.0176814 0.0404304 0)
(-0.0234274 0.0359815 0)
(-0.027864 0.0311161 0)
(-0.0312212 0.0261887 0)
(-0.0337291 0.0214116 0)
(-0.0356344 0.0168694 0)
(-0.0371534 0.0125596 0)
(-0.0384683 0.00841381 0)
(-0.0397247 0.00430883 0)
(-0.0410435 6.19559e-05 0)
(-0.0425031 -0.00455762 0)
(-0.044115 -0.00989636 0)
(-0.0457669 -0.0164534 0)
(-0.0470647 -0.0249091 0)
(-0.047345 -0.0359581 0)
(-0.0435129 -0.0507926 0)
(-0.0352843 -0.0633031 0)
(-0.0153923 -0.0650727 0)
(-0.00493222 0.0386163 0)
(-0.014257 0.0507312 0)
(-0.0224711 0.0472968 0)
(-0.0287822 0.0413638 0)
(-0.0333042 0.0351267 0)
(-0.0364983 0.0290768 0)
(-0.0386882 0.0234977 0)
(-0.0402438 0.0184439 0)
(-0.0414638 0.0138666 0)
(-0.0425933 0.00965491 0)
(-0.0438396 0.00566086 0)
(-0.0453714 0.00169435 0)
(-0.0473624 -0.00251079 0)
(-0.0500057 -0.00741048 0)
(-0.0534226 -0.0136304 0)
(-0.0574109 -0.0224306 0)
(-0.0619454 -0.0349079 0)
(-0.0616988 -0.0562475 0)
(-0.0587034 -0.0763336 0)
(-0.0290574 -0.0981985 0)
(-0.00524865 0.0552105 0)
(-0.016923 0.0602082 0)
(-0.0284914 0.0546305 0)
(-0.0356764 0.0459908 0)
(-0.0400702 0.038181 0)
(-0.0426711 0.0310949 0)
(-0.0440705 0.0248667 0)
(-0.0448615 0.0194493 0)
(-0.0454296 0.014749 0)
(-0.0460564 0.0106246 0)
(-0.0469631 0.00689753 0)
(-0.0483806 0.00332979 0)
(-0.050637 -0.000382734 0)
(-0.0540661 -0.00473074 0)
(-0.0592872 -0.0102988 0)
(-0.0662056 -0.0190599 0)
(-0.0778024 -0.0322088 0)
(-0.0829511 -0.0602837 0)
(-0.0901949 -0.0933688 0)
(-0.0411846 -0.156109 0)
(-0.0147381 0.0536855 0)
(-0.0350808 0.0794751 0)
(-0.0381386 0.0682618 0)
(-0.0449782 0.0563073 0)
(-0.0464307 0.044879 0)
(-0.0465582 0.0348717 0)
(-0.0457383 0.0268202 0)
(-0.0446344 0.0204496 0)
(-0.0436154 0.0154421 0)
(-0.0429656 0.0114544 0)
(-0.0429385 0.0082489 0)
(-0.043764 0.00562886 0)
(-0.0458077 0.00355405 0)
(-0.0492986 0.00181196 0)
(-0.0555614 0.000931143 0)
(-0.0631505 -0.00363332 0)
(-0.0786461 -0.00832523 0)
(-0.0800071 -0.0473244 0)
(-0.0974885 -0.0971592 0)
(-0.0179675 -0.236964 0)
(-0.0662315 0.121207 0)
(-0.0530224 0.0693419 0)
(-0.0497393 0.0593185 0)
(-0.0360043 0.0457472 0)
(-0.022945 0.0341293 0)
(-0.0114944 0.0257814 0)
(-0.00166637 0.0197242 0)
(0.00624664 0.015112 0)
(0.0124123 0.0115595 0)
(0.0170537 0.00883359 0)
(0.020382 0.00681293 0)
(0.0227827 0.0052682 0)
(0.0239456 0.00443997 0)
(0.0258313 0.0034506 0)
(0.0234795 0.0031011 0)
(0.0304367 -0.00242865 0)
(0.0161046 -0.0147978 0)
(0.0440782 -0.064221 0)
(-0.0113243 -0.164438 0)
(0.0551672 -0.310041 0)
(0.130651 0.141545 0)
(0.166005 0.0830735 0)
(0.24528 0.0570203 0)
(0.293984 0.0400676 0)
(0.326951 0.0274962 0)
(0.351045 0.0186121 0)
(0.368977 0.0127746 0)
(0.382196 0.00904882 0)
(0.391978 0.00659458 0)
(0.399526 0.0048913 0)
(0.404897 0.00374533 0)
(0.410065 0.00283238 0)
(0.411441 0.00214856 0)
(0.418372 0.00196181 0)
(0.410889 -0.00020624 0)
(0.427411 0.0011085 0)
(0.393239 -0.00821511 0)
(0.413645 -0.0119931 0)
(0.287005 -0.0505649 0)
(0.233966 -0.131394 0)
)
;

boundaryField
{
    movingWall
    {
        type            fixedValue;
        value           uniform (1 0 0);
    }
    fixedWalls
    {
        type            noSlip;
    }
    frontAndBack
    {
        type            empty;
    }
}


// ************************************************************************* //
