/*--------------------------------*- C++ -*----------------------------------*\
  =========                 |
  \\      /  F ield         | OpenFOAM: The Open Source CFD Toolbox
   \\    /   O peration     | Website:  https://openfoam.org
    \\  /    A nd           | Version:  10
     \\/     M anipulation  |
\*---------------------------------------------------------------------------*/
FoamFile
{
    format      ascii;
    class       volScalarField;
    location    "4.325";
    object      p;
}
// * * * * * * * * * * * * * * * * * * * * * * * * * * * * * * * * * * * * * //

dimensions      [0 2 -2 0 0 0 0];

internalField   nonuniform List<scalar> 
496
(
28.4059
28.7862
25.2262
18.8403
29.0623
29.766
25.4075
19.1084
34.0895
31.7506
22.912
12.5868
42.5554
39.0128
35.0587
18.4365
10.4572
1.26706
10.3807
1.51651
-2.9181
-7.64906
-34.5619
-58.9946
-5.9264
-10.9174
-13.6625
-15.0091
-5.84375
-11.9786
-15.5965
-17.6399
-0.770024
-0.989459
-5.45258
-14.3659
-29.5927
-12.1209
-2.55597
-15.3012
-15.9963
-17.049
-17.6349
-16.9101
-15.5276
-13.7494
-11.6683
-9.40348
-7.54865
-5.97541
-4.64072
-3.47495
-2.37282
-1.50074
-1.13075
-1.66118
-2.20244
-2.39715
-2.24093
-2.2506
-2.75453
-3.41284
-3.94096
-3.83479
-3.30483
-2.43203
-1.445
-0.614421
0.311001
0.988751
1.19416
0.807463
0.0823502
-0.621622
-1.15663
-1.39518
-1.33016
-1.00948
-0.614843
-0.259273
-19.4868
-20.3178
-19.398
-17.7726
-16.0725
-14.0159
-11.8284
-9.62824
-7.70698
-6.07939
-4.60881
-3.14722
-1.78599
-1.1046
-1.06571
-1.6432
-2.04739
-2.2843
-2.34876
-2.54512
-3.01956
-3.56757
-3.94914
-3.94812
-3.6011
-2.94332
-2.0989
-0.793516
0.358053
1.16977
1.27752
0.740433
-0.119197
-1.01869
-1.58692
-1.92659
-1.72699
-1.29492
-0.728167
-0.22611
-20.8687
-22.0826
-20.7009
-19.094
-17.1912
-14.8157
-12.2545
-9.78882
-7.52969
-5.35759
-3.74959
-2.30853
-1.09384
-0.451963
-0.905474
-1.44367
-1.83976
-2.38801
-2.78019
-3.35328
-3.9513
-4.7985
-4.84845
-4.50374
-3.59383
-2.40081
-1.04041
0.250155
1.41607
1.97965
1.51253
0.342871
-0.998431
-2.32398
-3.26002
-3.2857
-3.01526
-2.36533
-1.36134
-0.393974
-22.0677
-21.5092
-21.8999
-20.9114
-18.7657
-16.3799
-13.6673
-10.681
-7.73615
-4.53397
-1.32871
1.24622
1.68332
1.18655
-0.0438338
-0.604539
-1.40937
-2.16175
-2.99209
-4.30605
-5.12032
-5.88919
-5.86814
-6.09815
-5.55461
-4.3827
-1.83966
1.77676
4.49122
5.21302
4.16168
1.99227
-0.280128
-2.19651
-3.49618
-3.84316
-3.75011
-3.03479
-1.8573
-0.734052
47.3888
48.6497
62.881
74.7132
47.8088
50.2896
63.734
76.4222
-29.4347
-30.1935
-27.7964
-24.7474
-23.2006
-37.132
-21.1269
-16.016
-18.4023
-21.0735
-22.1701
-20.4853
-18.2963
-16.6169
-14.8899
-10.7958
-7.74672
-5.9578
-3.29626
-1.34717
-0.834
-0.583111
-0.887909
-1.66407
-2.03734
-2.4346
-3.08824
-3.69974
-3.96502
-4.23519
-4.92245
-4.95832
-4.4948
-3.55099
-2.09569
-0.617239
0.661021
1.52909
1.05544
-0.00893277
-0.991261
-2.08674
-2.67377
-3.16857
-3.49414
-2.58045
-1.89104
-0.837266
-26.4995
-18.9454
-21.0103
-18.8736
-17.1038
-15.6609
-12.1624
-9.64594
-7.69777
-6.86376
-4.95618
-3.3884
-2.46858
-2.12005
-2.88227
-3.21193
-2.97175
-3.46763
-3.74049
-3.13747
-2.10265
-0.837246
-0.322922
-0.896404
-1.33672
-1.57856
-2.11885
-2.88803
-3.41104
-3.39137
-3.45677
-3.26115
-2.63737
-1.80437
-1.35651
-1.12544
-0.9739
-0.787693
-0.381207
-0.208164
44.1738
41.5688
38.1072
23.6078
37.1818
34.7293
27.1098
16.8688
32.2366
31.9196
27.4086
21.0164
31.0605
30.566
26.9173
20.8195
-25.8391
-50.1819
1.77516
-4.18285
12.1897
3.1426
12.6673
3.49482
-21.3347
-8.70675
-12.0739
-14.9233
0.197511
-2.42675
-9.78158
-15.1456
-5.03657
-11.1502
-15.059
-17.3754
-4.13925
-9.56804
-12.8504
-14.5323
-15.7025
-18.0277
-18.9915
-18.0657
-15.9998
-14.2811
-12.4762
-9.60707
-6.98338
-5.75373
-5.45071
-4.69963
-3.71922
-3.43148
-3.32821
-3.80813
-4.27604
-4.73032
-4.26519
-2.5267
0.703822
3.2735
3.82061
3.28496
1.16775
-0.70615
-2.70534
-4.29751
-5.95577
-6.01609
-5.33329
-4.10736
-2.22851
-0.429133
1.35092
1.53999
1.33749
0.985537
0.397121
0.129169
-18.3782
-19.4345
-18.8589
-17.2466
-15.3474
-13.4948
-11.7664
-9.83353
-7.67831
-6.21288
-5.62263
-5.29711
-4.72462
-4.2517
-3.69068
-3.41947
-3.51891
-3.71119
-3.14579
-2.0886
-0.602087
0.739602
0.838383
0.629311
-0.39126
-1.69955
-2.92247
-3.81905
-4.20282
-4.48636
-3.79412
-2.81121
-1.78057
-1.31753
-0.921872
-0.612129
-0.435257
-0.0494588
0.0439937
0.0334881
-18.2112
-18.0462
-17.3249
-16.0716
-14.4629
-12.7282
-11.1492
-9.74946
-8.09537
-6.40088
-5.36783
-5.29932
-5.34759
-4.80701
-3.92285
-3.22157
-3.08449
-3.20552
-2.88449
-1.79043
-0.544488
0.39272
0.692041
0.471439
-0.0938459
-0.981856
-1.90886
-2.82857
-3.31561
-3.60251
-3.44584
-2.95385
-2.24777
-1.43313
-0.733714
-0.146702
0.0646129
0.134342
0.144024
0.0797069
-15.3945
-15.8924
-16.0261
-15.4685
-14.0904
-12.4783
-10.9557
-9.78699
-8.45801
-6.81053
-5.52516
-5.22688
-5.36576
-4.75125
-3.79148
-3.10033
-2.99344
-3.01961
-2.71263
-1.78486
-0.669403
0.105108
0.391795
0.199433
-0.187373
-0.876318
-1.7372
-2.56819
-3.02524
-3.13974
-3.01933
-2.61294
-2.0713
-1.4697
-1.02636
-0.64993
-0.357434
-0.20002
-0.0857102
-0.0266883
)
;

boundaryField
{
    inlet
    {
        type            zeroGradient;
    }
    outlet
    {
        type            fixedValue;
        value           uniform 0;
    }
    obstacle
    {
        type            zeroGradient;
    }
    upperWall
    {
        type            zeroGradient;
    }
    lowerWall
    {
        type            zeroGradient;
    }
    frontAndBack
    {
        type            empty;
    }
}


// ************************************************************************* //
