/*--------------------------------*- C++ -*----------------------------------*\
  =========                 |
  \\      /  F ield         | OpenFOAM: The Open Source CFD Toolbox
   \\    /   O peration     | Website:  https://openfoam.org
    \\  /    A nd           | Version:  10
     \\/     M anipulation  |
\*---------------------------------------------------------------------------*/
FoamFile
{
    format      ascii;
    class       volVectorField;
    location    "0.925";
    object      U;
}
// * * * * * * * * * * * * * * * * * * * * * * * * * * * * * * * * * * * * * //

dimensions      [0 1 -1 0 0 0 0];

internalField   nonuniform List<vector> 
400
(
(-0.00029243 0.000287887 0)
(-0.000954465 0.000338849 0)
(-0.00166808 0.000326054 0)
(-0.00232999 0.0003017 0)
(-0.00293209 0.000269772 0)
(-0.00345981 0.000231312 0)
(-0.00390043 0.000187345 0)
(-0.00424359 0.000138945 0)
(-0.00448121 8.72061e-05 0)
(-0.00460752 3.32315e-05 0)
(-0.00461906 -2.18651e-05 0)
(-0.00451472 -7.69298e-05 0)
(-0.00429583 -0.000130751 0)
(-0.0039663 -0.000182048 0)
(-0.00353279 -0.000229466 0)
(-0.00300486 -0.000271602 0)
(-0.00239513 -0.000307061 0)
(-0.00171886 -0.000334406 0)
(-0.000985801 -0.000349171 0)
(-0.000302723 -0.000297803 0)
(-0.000358501 0.000960636 0)
(-0.00116243 0.00112231 0)
(-0.00202277 0.00107951 0)
(-0.00282087 0.000998502 0)
(-0.00354635 0.000892315 0)
(-0.00418157 0.000764562 0)
(-0.00471137 0.000618729 0)
(-0.00512348 0.000458419 0)
(-0.00540845 0.000287257 0)
(-0.00555955 0.000108861 0)
(-0.00557278 -7.31406e-05 0)
(-0.00544687 -0.000254957 0)
(-0.0051834 -0.000432693 0)
(-0.00478698 -0.000602168 0)
(-0.00426544 -0.000758939 0)
(-0.00363008 -0.000898371 0)
(-0.00289591 -0.0010158 0)
(-0.00208132 -0.00110634 0)
(-0.00119859 -0.0011554 0)
(-0.000370386 -0.000992425 0)
(-0.000378888 0.00173739 0)
(-0.00122865 0.00202042 0)
(-0.00213751 0.00194248 0)
(-0.00297954 0.00179593 0)
(-0.00374406 0.00160406 0)
(-0.00441274 0.00137362 0)
(-0.00496997 0.00111101 0)
(-0.00540331 0.000822792 0)
(-0.00570323 0.000515447 0)
(-0.00586299 0.000195374 0)
(-0.00587843 -0.000131044 0)
(-0.00574813 -0.000457234 0)
(-0.00547346 -0.000776339 0)
(-0.00505867 -0.00108099 0)
(-0.00451136 -0.00136325 0)
(-0.00384276 -0.00161477 0)
(-0.00306821 -0.00182699 0)
(-0.00220685 -0.00199086 0)
(-0.00127152 -0.0020802 0)
(-0.00039297 -0.00179488 0)
(-0.000405916 0.00254836 0)
(-0.00131623 0.00295889 0)
(-0.00228912 0.00284316 0)
(-0.00318896 0.00262709 0)
(-0.00400452 0.00234492 0)
(-0.00471657 0.00200685 0)
(-0.00530918 0.00162254 0)
(-0.00576986 0.00120161 0)
(-0.00608922 0.00075342 0)
(-0.0062606 0.000287071 0)
(-0.0062798 -0.00018848 0)
(-0.00614509 -0.00066411 0)
(-0.00585731 -0.00113014 0)
(-0.00542005 -0.00157608 0)
(-0.00484026 -0.00199045 0)
(-0.00412875 -0.0023609 0)
(-0.00330098 -0.00267454 0)
(-0.00237699 -0.00291755 0)
(-0.00137067 -0.00305109 0)
(-0.00042378 -0.00263714 0)
(-0.000443883 0.00342565 0)
(-0.00143886 0.00397372 0)
(-0.00250075 0.00381553 0)
(-0.00348052 0.0035225 0)
(-0.00436606 0.00314123 0)
(-0.0051371 0.00268614 0)
(-0.00577744 0.00217062 0)
(-0.00627482 0.00160766 0)
(-0.00662026 0.00100956 0)
(-0.00680742 0.000387961 0)
(-0.00683212 -0.000245909 0)
(-0.00669222 -0.000880648 0)
(-0.00638772 -0.00150408 0)
(-0.00592108 -0.00210272 0)
(-0.00529804 -0.00266144 0)
(-0.00452849 -0.00316343 0)
(-0.00362768 -0.00359067 0)
(-0.00261668 -0.00392339 0)
(-0.0015109 -0.00410803 0)
(-0.000467519 -0.00355524 0)
(-0.000494457 0.00439395 0)
(-0.00160178 0.00509268 0)
(-0.002781 0.00488506 0)
(-0.00386514 0.00450427 0)
(-0.00484101 0.00401138 0)
(-0.00568726 0.00342617 0)
(-0.00638775 0.00276652 0)
(-0.00693101 0.00204918 0)
(-0.00730901 0.00128943 0)
(-0.00751617 0.000501151 0)
(-0.0075485 -0.000302621 0)
(-0.00740335 -0.00110882 0)
(-0.00707947 -0.00190325 0)
(-0.0065775 -0.00266979 0)
(-0.00590104 -0.00338956 0)
(-0.00505812 -0.00404077 0)
(-0.00406309 -0.0045991 0)
(-0.00293784 -0.00503706 0)
(-0.00169966 -0.00528323 0)
(-0.000526598 -0.00457835 0)
(-0.000559905 0.00548098 0)
(-0.00181197 0.00634676 0)
(-0.00314097 0.00607949 0)
(-0.00435651 0.00559564 0)
(-0.00544424 0.00497391 0)
(-0.00638197 0.00424108 0)
(-0.00715443 0.00342064 0)
(-0.00775191 0.00253361 0)
(-0.0081683 0.00159815 0)
(-0.00839948 0.000629897 0)
(-0.0084421 -0.000357128 0)
(-0.00829286 -0.00134919 0)
(-0.00794869 -0.00233098 0)
(-0.0074074 -0.00328434 0)
(-0.00666903 -0.00418687 0)
(-0.00573814 -0.00501113 0)
(-0.00462669 -0.00572497 0)
(-0.00335668 -0.00629059 0)
(-0.00194742 -0.00661393 0)
(-0.000604486 -0.00574066 0)
(-0.000643589 0.0067201 0)
(-0.00207957 0.00777264 0)
(-0.00359641 0.00743054 0)
(-0.00497356 0.00682203 0)
(-0.00619567 0.00604789 0)
(-0.00724053 0.00514445 0)
(-0.00809523 0.00414229 0)
(-0.00875351 0.00306728 0)
(-0.00921273 0.0019402 0)
(-0.00947145 0.000777559 0)
(-0.00952759 -0.000406933 0)
(-0.0093772 -0.00160045 0)
(-0.00901463 -0.00278812 0)
(-0.00843339 -0.00395097 0)
(-0.00762783 -0.00506359 0)
(-0.00659638 -0.0060925 0)
(-0.00534596 -0.00699572 0)
(-0.00389684 -0.00772133 0)
(-0.00226986 -0.00814556 0)
(-0.000706492 -0.00708491 0)
(-0.000750606 0.00815265 0)
(-0.0024196 0.00941469 0)
(-0.00416997 0.00897497 0)
(-0.00574259 0.00821095 0)
(-0.00712195 0.00725216 0)
(-0.00828758 0.00614806 0)
(-0.00923162 0.00493837 0)
(-0.00995402 0.00365429 0)
(-0.010458 0.00231864 0)
(-0.0107466 0.000947348 0)
(-0.0108201 -0.000448195 0)
(-0.010674 -0.00185845 0)
(-0.0102992 -0.00327152 0)
(-0.00968287 -0.00466974 0)
(-0.00881057 -0.0060261 0)
(-0.00767045 -0.00730103 0)
(-0.00625977 -0.00844053 0)
(-0.00459308 -0.00937327 0)
(-0.00269094 -0.00993504 0)
(-0.000840979 -0.00866663 0)
(-0.000888955 0.00983214 0)
(-0.00285483 0.0113283 0)
(-0.00489468 0.0107559 0)
(-0.00670048 0.00979169 0)
(-0.00825872 0.00860378 0)
(-0.00955434 0.00725991 0)
(-0.010589 0.00581127 0)
(-0.0113733 0.00429473 0)
(-0.0119197 0.00273391 0)
(-0.0122383 0.00114184 0)
(-0.0123334 -0.000475397 0)
(-0.0122005 -0.00211495 0)
(-0.0118259 -0.00377173 0)
(-0.011188 -0.00543319 0)
(-0.0102591 -0.00707349 0)
(-0.00901103 -0.00864805 0)
(-0.00742348 -0.010089 0)
(-0.00549754 -0.0112985 0)
(-0.0032485 -0.0120558 0)
(-0.00102169 -0.0105614 0)
(-0.00107178 0.011831 0)
(-0.003421 0.0135844 0)
(-0.00581973 0.0128243 0)
(-0.00789955 0.0115941 0)
(-0.00965392 0.0101153 0)
(-0.0110801 0.00848073 0)
(-0.0121968 0.00675551 0)
(-0.0130314 0.00498186 0)
(-0.0136109 0.00318191 0)
(-0.0139559 0.00136213 0)
(-0.0140769 -0.00048109 0)
(-0.0139704 -0.00235622 0)
(-0.0136175 -0.00427029 0)
(-0.0129846 -0.00622175 0)
(-0.0120254 -0.00819182 0)
(-0.0106862 -0.0101345 0)
(-0.0089168 -0.0119672 0)
(-0.00668999 -0.0135583 0)
(-0.00400451 -0.0146052 0)
(-0.00127254 -0.0128778 0)
(-0.00132192 0.0142524 0)
(-0.0041762 0.0162764 0)
(-0.00701992 0.0152402 0)
(-0.00941512 0.0136456 0)
(-0.0113723 0.0117897 0)
(-0.0129142 0.00979822 0)
(-0.0140879 0.00775269 0)
(-0.0149469 0.00569853 0)
(-0.0155394 0.00365166 0)
(-0.0159013 0.00160664 0)
(-0.0160518 -0.000455768 0)
(-0.0159898 -0.00256138 0)
(-0.0156915 -0.00473634 0)
(-0.0151095 -0.00699836 0)
(-0.0141719 -0.0093455 0)
(-0.0127868 -0.0117404 0)
(-0.0108555 -0.01409 0)
(-0.00829519 -0.0162219 0)
(-0.00506506 -0.0177138 0)
(-0.00163776 -0.0157808 0)
(-0.00168146 0.0172525 0)
(-0.00521889 0.0195292 0)
(-0.00861118 0.018073 0)
(-0.0113568 0.0159642 0)
(-0.0135016 0.0136105 0)
(-0.0151172 0.0111787 0)
(-0.0162966 0.00876579 0)
(-0.0171325 0.00641311 0)
(-0.0177029 0.00412253 0)
(-0.0180634 0.00186942 0)
(-0.018245 -0.000388021 0)
(-0.018251 -0.00270052 0)
(-0.0180545 -0.00512199 0)
(-0.0175938 -0.00770064 0)
(-0.0167675 -0.0104659 0)
(-0.0154311 -0.0134077 0)
(-0.0134085 -0.0164418 0)
(-0.0105117 -0.019359 0)
(-0.00662023 -0.0215533 0)
(-0.00220502 -0.0195414 0)
(-0.00223336 0.021072 0)
(-0.00672368 0.0235047 0)
(-0.0107761 0.0213956 0)
(-0.0138854 0.0185439 0)
(-0.0161582 0.0155274 0)
(-0.0177591 0.0125562 0)
(-0.0188536 0.0097304 0)
(-0.0195902 0.0070731 0)
(-0.0200832 0.00456006 0)
(-0.0204119 0.0021378 0)
(-0.0206218 -0.000265475 0)
(-0.0207238 -0.00273383 0)
(-0.0206916 -0.00535788 0)
(-0.0204535 -0.00823051 0)
(-0.0198789 -0.0114338 0)
(-0.0187631 -0.0150149 0)
(-0.0168197 -0.0189397 0)
(-0.0136563 -0.0230131 0)
(-0.00903089 -0.0263243 0)
(-0.00316718 -0.024656 0)
(-0.00314321 0.0262764 0)
(-0.00900233 0.0284433 0)
(-0.0137992 0.0252736 0)
(-0.0172345 0.0213244 0)
(-0.0194899 0.017433 0)
(-0.0209144 0.013814 0)
(-0.0217798 0.010542 0)
(-0.0223029 0.00759733 0)
(-0.0226382 0.00491112 0)
(-0.0228889 0.00238908 0)
(-0.0231166 -7.87193e-05 0)
(-0.0233434 -0.00261287 0)
(-0.0235511 -0.00535115 0)
(-0.0236697 -0.00844477 0)
(-0.0235518 -0.0120551 0)
(-0.0229373 -0.0163331 0)
(-0.0214224 -0.0213651 0)
(-0.0182217 -0.0271106 0)
(-0.0130331 -0.0321905 0)
(-0.00499911 -0.032032 0)
(-0.0049141 0.0323668 0)
(-0.0128338 0.0342268 0)
(-0.018163 0.0296228 0)
(-0.0217377 0.024131 0)
(-0.0236687 0.0191199 0)
(-0.0246493 0.0147575 0)
(-0.0250688 0.0110424 0)
(-0.0252193 0.00786992 0)
(-0.0252893 0.00510196 0)
(-0.0253993 0.00258941 0)
(-0.025621 0.000180005 0)
(-0.0259932 -0.00228626 0)
(-0.0265202 -0.00498992 0)
(-0.0271537 -0.0081501 0)
(-0.0277626 -0.0120347 0)
(-0.0280679 -0.0169586 0)
(-0.0276072 -0.0232581 0)
(-0.0249196 -0.0314191 0)
(-0.020093 -0.0391485 0)
(-0.00878907 -0.0432918 0)
(-0.00723388 0.0470246 0)
(-0.0180942 0.0424665 0)
(-0.0241985 0.0348139 0)
(-0.0277419 0.026741 0)
(-0.0288362 0.0202427 0)
(-0.0289528 0.0150781 0)
(-0.0286191 0.0109998 0)
(-0.0281877 0.00773412 0)
(-0.0278569 0.00503368 0)
(-0.0277435 0.00268383 0)
(-0.0279195 0.000493418 0)
(-0.0284348 -0.00172126 0)
(-0.0293295 -0.00417214 0)
(-0.0306197 -0.00714857 0)
(-0.0322508 -0.0110591 0)
(-0.0340272 -0.0165285 0)
(-0.035714 -0.0243208 0)
(-0.0345043 -0.0361937 0)
(-0.0325268 -0.0484217 0)
(-0.0163206 -0.0631819 0)
(-0.017465 0.0515353 0)
(-0.0340021 0.0494305 0)
(-0.0338313 0.0386771 0)
(-0.0357225 0.0282779 0)
(-0.0344504 0.0203438 0)
(-0.032812 0.0144975 0)
(-0.0311857 0.0102479 0)
(-0.0298487 0.00709304 0)
(-0.0289173 0.00465427 0)
(-0.0284453 0.00265436 0)
(-0.028465 0.000876309 0)
(-0.0290291 -0.000874683 0)
(-0.0302369 -0.00278447 0)
(-0.032221 -0.00511266 0)
(-0.0351591 -0.00823291 0)
(-0.0390661 -0.0128857 0)
(-0.0444843 -0.0195375 0)
(-0.0460022 -0.034154 0)
(-0.0512827 -0.0475075 0)
(-0.0248843 -0.0889163 0)
(-0.0377326 0.114235 0)
(-0.0419039 0.0526607 0)
(-0.0351556 0.0383567 0)
(-0.0296339 0.0247172 0)
(-0.0226375 0.0160386 0)
(-0.0170815 0.0108745 0)
(-0.0128084 0.00748037 0)
(-0.0097167 0.00511462 0)
(-0.00761029 0.00339246 0)
(-0.00633921 0.00205923 0)
(-0.00581896 0.000936514 0)
(-0.00601008 -0.00012894 0)
(-0.00694156 -0.00130112 0)
(-0.00866631 -0.00284176 0)
(-0.0113725 -0.00524777 0)
(-0.0141805 -0.0100358 0)
(-0.0214921 -0.0188757 0)
(-0.0174002 -0.0409424 0)
(-0.0387864 -0.0749476 0)
(0.000261366 -0.162156 0)
(0.122475 0.106536 0)
(0.130762 0.04721 0)
(0.193576 0.0279266 0)
(0.216014 0.016396 0)
(0.230441 0.00936579 0)
(0.240561 0.00565304 0)
(0.247216 0.00362093 0)
(0.251662 0.0023976 0)
(0.254673 0.00160553 0)
(0.256641 0.00105548 0)
(0.257785 0.000642201 0)
(0.258207 0.000307862 0)
(0.257871 -2.07719e-05 0)
(0.256781 -0.000454626 0)
(0.253733 -0.00111566 0)
(0.250733 -0.0029313 0)
(0.234625 -0.00640174 0)
(0.234826 -0.0165605 0)
(0.151048 -0.0341567 0)
(0.153413 -0.0969465 0)
)
;

boundaryField
{
    movingWall
    {
        type            fixedValue;
        value           uniform (1 0 0);
    }
    fixedWalls
    {
        type            noSlip;
    }
    frontAndBack
    {
        type            empty;
    }
}


// ************************************************************************* //
