/*--------------------------------*- C++ -*----------------------------------*\
  =========                 |
  \\      /  F ield         | OpenFOAM: The Open Source CFD Toolbox
   \\    /   O peration     | Website:  https://openfoam.org
    \\  /    A nd           | Version:  10
     \\/     M anipulation  |
\*---------------------------------------------------------------------------*/
FoamFile
{
    format      ascii;
    class       surfaceScalarField;
    location    "3.1";
    object      phi;
}
// * * * * * * * * * * * * * * * * * * * * * * * * * * * * * * * * * * * * * //

dimensions      [0 3 -1 0 0 0 0];

internalField   nonuniform List<scalar> 
760
(
-1.12779e-05
1.12779e-05
-3.18482e-05
2.05703e-05
-5.36703e-05
2.18221e-05
-7.46561e-05
2.09858e-05
-9.41342e-05
1.94781e-05
-0.000111648
1.75135e-05
-0.000126763
1.51148e-05
-0.000139047
1.22849e-05
-0.00014808
9.03206e-06
-0.000153455
5.37537e-06
-0.000154803
1.3486e-06
-0.000151805
-2.99889e-06
-0.000144237
-7.56713e-06
-0.000132012
-1.22253e-05
-0.000115214
-1.67987e-05
-9.41482e-05
-2.10654e-05
-6.94199e-05
-2.47283e-05
-4.21911e-05
-2.72289e-05
-1.55509e-05
-2.66401e-05
-1.55509e-05
-2.12257e-05
3.25036e-05
-5.50153e-05
5.43599e-05
-9.02611e-05
5.70679e-05
-0.000123972
5.46969e-05
-0.000155047
5.05526e-05
-0.000182716
4.51833e-05
-0.000206287
3.8685e-05
-0.000225105
3.11032e-05
-0.000238563
2.24898e-05
-0.0002461
1.29124e-05
-0.000247243
2.49163e-06
-0.000241596
-8.64611e-06
-0.000228897
-2.02657e-05
-0.000209099
-3.20235e-05
-0.000182399
-4.3498e-05
-0.000149315
-5.41499e-05
-0.000110783
-6.32602e-05
-6.85395e-05
-6.94724e-05
-2.68802e-05
-6.82994e-05
-4.24311e-05
-2.40352e-05
5.65388e-05
-6.18183e-05
9.21429e-05
-0.00010107
9.63199e-05
-0.000138542
9.21684e-05
-0.000173049
8.50597e-05
-0.000203762
7.58966e-05
-0.000229933
6.48557e-05
-0.000250861
5.20313e-05
-0.000265894
3.75231e-05
-0.00027444
2.14586e-05
-0.000275977
4.02778e-06
-0.000269984
-1.46387e-05
-0.00025619
-3.40592e-05
-0.000234482
-5.37316e-05
-0.000205001
-7.29791e-05
-0.000168242
-9.09092e-05
-0.000125183
-0.000106319
-7.77226e-05
-0.000116933
-3.066e-05
-0.000115362
-7.30911e-05
-2.55294e-05
8.20683e-05
-6.57639e-05
0.000132377
-0.000107535
0.000138091
-0.000147429
0.000132063
-0.000184231
0.000121862
-0.000217096
0.000108761
-0.000245259
9.30189e-05
-0.000268001
7.47732e-05
-0.000284639
5.41612e-05
-0.000294529
3.1348e-05
-0.000297085
6.5837e-06
-0.000291699
-2.0024e-05
-0.000277915
-4.78438e-05
-0.000255462
-7.61839e-05
-0.000224337
-0.000104105
-0.000184907
-0.000130339
-0.000138112
-0.000153114
-8.60041e-05
-0.00016904
-3.39679e-05
-0.000167398
-0.000107059
-2.72594e-05
0.000109328
-7.03674e-05
0.000175485
-0.000115133
0.000182857
-0.000157939
0.000174868
-0.000197532
0.000161455
-0.000233058
0.000144287
-0.000263746
0.000123707
-0.000288863
9.98908e-05
-0.000307699
7.29963e-05
-0.000319548
4.31978e-05
-0.000323716
1.07513e-05
-0.000319475
-2.42649e-05
-0.000306139
-6.11795e-05
-0.000283174
-9.91493e-05
-0.000250283
-0.000136995
-0.000207596
-0.000173027
-0.000155933
-0.000204777
-9.75332e-05
-0.00022744
-3.86348e-05
-0.000226297
-0.000145694
-2.95126e-05
0.00013884
-7.63181e-05
0.000222291
-0.000124932
0.000231471
-0.000171467
0.000221403
-0.000214628
0.000204616
-0.000253558
0.000183216
-0.000287489
0.000157638
-0.000315689
0.000128091
-0.000337428
9.47352e-05
-0.000351946
5.77157e-05
-0.000358435
1.72404e-05
-0.000355997
-2.67029e-05
-0.000343636
-7.35403e-05
-0.000320441
-0.000122345
-0.000285658
-0.000171778
-0.000238972
-0.000219713
-0.000180925
-0.000262824
-0.000113911
-0.000294455
-4.53756e-05
-0.000294832
-0.000191069
-3.23589e-05
0.000171199
-8.37966e-05
0.000273728
-0.0001372
0.000284874
-0.000188346
0.00027255
-0.000235895
0.000252165
-0.000278998
0.000226319
-0.000316916
0.000195556
-0.000348944
0.00016012
-0.00037436
0.000120151
-0.000392369
7.57244e-05
-0.000402055
2.69265e-05
-0.000402342
-2.64155e-05
-0.000391832
-8.40508e-05
-0.000369089
-0.000145088
-0.000332668
-0.000208199
-0.000281473
-0.000270908
-0.000215436
-0.000328861
-0.000136935
-0.000372956
-5.50678e-05
-0.000376699
-0.000246137
-3.58551e-05
0.000207054
-9.29484e-05
0.000330822
-0.000152143
0.000344068
-0.000208808
0.000329215
-0.000261561
0.000304919
-0.000309591
0.000274348
-0.000352222
0.000238188
-0.000388825
0.000196723
-0.000418736
0.000150061
-0.000441174
9.81623e-05
-0.000455152
4.09048e-05
-0.000459443
-2.21242e-05
-0.000452169
-9.13258e-05
-0.000431216
-0.00016604
-0.000394121
-0.000245294
-0.000338487
-0.000326541
-0.000262981
-0.000404368
-0.000169485
-0.000466452
-6.92586e-05
-0.000476925
-0.000315396
-4.00892e-05
0.000247144
-0.00010398
0.000394713
-0.000170038
0.000410126
-0.000233145
0.000392322
-0.000291894
0.000363668
-0.000345548
0.000328002
-0.000393558
0.000286197
-0.000435435
0.000238601
-0.000470659
0.000185285
-0.000498551
0.000126054
-0.000518139
6.0493e-05
-0.000528135
-1.21277e-05
-0.00052617
-9.32917e-05
-0.00050932
-0.000182889
-0.000473717
-0.000280897
-0.000414903
-0.000385355
-0.00032908
-0.000490191
-0.000216473
-0.000579059
-9.09175e-05
-0.00060248
-0.000406313
-4.52087e-05
0.000292352
-0.000117211
0.000466716
-0.000191293
0.000484207
-0.000261769
0.000462799
-0.000327242
0.00042914
-0.000387112
0.000387873
-0.000441032
0.000340117
-0.000488758
0.000286327
-0.000530027
0.000226554
-0.000564404
0.000160431
-0.000591065
8.71541e-05
-0.000608958
5.76573e-06
-0.000615203
-8.70468e-05
-0.000606155
-0.000191937
-0.000576157
-0.000310896
-0.00051769
-0.000443821
-0.000422557
-0.000585324
-0.000286682
-0.000714934
-0.000126172
-0.00076299
-0.000532485
-5.1467e-05
0.000343819
-0.00013315
0.000548398
-0.000216524
0.000567582
-0.000295276
0.000541551
-0.000368083
0.000501947
-0.000434575
0.000454365
-0.000494712
0.000400253
-0.000548617
0.000340232
-0.000596446
0.000274383
-0.000638224
0.000202209
-0.000673625
0.000122555
-0.000701497
3.36376e-05
-0.000719961
-6.85827e-05
-0.000724275
-0.000187623
-0.000707019
-0.000328152
-0.000656598
-0.000494242
-0.000557604
-0.000684318
-0.0003967
-0.000875839
-0.000188661
-0.000971028
-0.000721146
-5.93122e-05
0.000403132
-0.000152616
0.000641702
-0.000246673
0.000661639
-0.000334535
0.000629412
-0.000415091
0.000582503
-0.000488327
0.000527601
-0.000554637
0.000466563
-0.000614651
0.000400246
-0.000669112
0.000328844
-0.000718737
0.000251834
-0.000763997
0.000167815
-0.000804641
7.42815e-05
-0.000839749
-3.34747e-05
-0.000865051
-0.000162321
-0.000872016
-0.000321187
-0.000844618
-0.00052164
-0.000756983
-0.000771953
-0.000579036
-0.00105379
-0.000312033
-0.00123803
-0.00103318
-6.95898e-05
0.000472721
-0.000176963
0.000749075
-0.000283168
0.000767844
-0.000380813
0.000727057
-0.000469228
0.000670918
-0.00054892
0.000607294
-0.000620866
0.000538508
-0.000686336
0.000465716
-0.000746816
0.000389325
-0.000803948
0.000308966
-0.000859423
0.00022329
-0.000914613
0.000129471
-0.000971249
2.31608e-05
-0.00102672
-0.000106852
-0.0010747
-0.000273203
-0.00109694
-0.000499403
-0.00105554
-0.000813352
-0.000892547
-0.00121678
-0.000563456
-0.00156712
-0.00159664
-8.39626e-05
0.000556684
-0.000208666
0.000873778
-0.000328266
0.000887445
-0.00043594
0.000834731
-0.000531848
0.000766826
-0.000617163
0.000692609
-0.000693573
0.000614918
-0.000763092
0.000535236
-0.000828046
0.000454278
-0.000891189
0.00037211
-0.000955942
0.000288043
-0.00102644
0.000199967
-0.00110604
0.000102764
-0.00119982
-1.30728e-05
-0.0013101
-0.000162928
-0.00142346
-0.000386042
-0.00149554
-0.000741268
-0.00141799
-0.00129433
-0.00103842
-0.00194669
-0.00263505
-0.000102691
0.000659375
-0.000249213
0.0010203
-0.000384417
0.00102265
-0.000502593
0.000952908
-0.000605089
0.000869321
-0.00069433
0.00078185
-0.000773128
0.000693716
-0.000844301
0.000606409
-0.000910865
0.000520842
-0.000976374
0.000437618
-0.00104551
0.000357175
-0.00112506
0.000279526
-0.0012261
0.000203803
-0.00136354
0.000124369
-0.00155399
2.7518e-05
-0.00180306
-0.000136969
-0.00207874
-0.00046559
-0.00215739
-0.00121568
-0.00167476
-0.00242933
-0.00430981
-0.000158598
0.000817973
-0.000321031
0.00118273
-0.000461193
0.00116281
-0.000581476
0.00107319
-0.000686688
0.000974533
-0.00077823
0.000873392
-0.000857957
0.000773442
-0.000928288
0.000676741
-0.000992715
0.000585269
-0.00105561
0.000500514
-0.00112361
0.000425169
-0.00120555
0.000361469
-0.00131666
0.000314913
-0.00148081
0.000288525
-0.0017325
0.000279201
-0.0020965
0.000227032
-0.0025379
-2.41858e-05
-0.00270799
-0.00104559
-0.00198909
-0.00314823
-0.0062989
-0.000126457
0.00094443
-0.000359473
0.00141575
-0.000544655
0.00134799
-0.000689467
0.001218
-0.000800711
0.00108578
-0.000885499
0.00095818
-0.000951391
0.000839334
-0.00100459
0.000729944
-0.00105016
0.000630839
-0.00109132
0.000541666
-0.00113363
0.000467484
-0.00118368
0.000411517
-0.00125736
0.00038859
-0.0013806
0.000411765
-0.00160258
0.000501186
-0.00193416
0.000558612
-0.00239509
0.000436742
-0.00249823
-0.000942449
-0.0015981
-0.00404836
-0.007897
-0.000407064
0.00135149
-0.000557734
0.00156642
-0.000685053
0.00147531
-0.000794101
0.00132705
-0.000857799
0.00114948
-0.000888803
0.000989184
-0.000898544
0.000849075
-0.000894215
0.000725614
-0.000883221
0.000619844
-0.000867463
0.000525908
-0.000854869
0.000454891
-0.000843692
0.00040034
-0.000843056
0.000387954
-0.000844683
0.000413392
-0.000860551
0.000517054
-0.000865675
0.000563737
-0.000824968
0.000396034
-0.000826504
-0.000940913
-0.000349595
-0.00452527
-0.00824659
-0.00127739
0.00262888
-0.00119723
0.00148626
-0.00095501
0.00123309
-0.000625932
0.000997973
-0.00028805
0.000811594
3.33944e-05
0.00066774
0.000325635
0.000556834
0.000587141
0.000464109
0.000816129
0.000390856
0.00101705
0.000324991
0.00119646
0.000275474
0.00135707
0.000239733
0.00153518
0.000209842
0.00173043
0.000218141
0.0020532
0.000194288
0.00244853
0.000168405
0.0029161
-7.15385e-05
0.00298875
-0.00101356
0.00194147
-0.003478
-0.00630512
0.00262888
0.00411514
0.00534823
0.00634621
0.0071578
0.00782554
0.00838237
0.00884648
0.00923734
0.00956233
0.0098378
0.0100775
0.0102874
0.0105055
0.0106998
0.0108682
0.0107967
0.00978312
0.00630512
)
;

boundaryField
{
    movingWall
    {
        type            calculated;
        value           uniform 0;
    }
    fixedWalls
    {
        type            calculated;
        value           uniform 0;
    }
    frontAndBack
    {
        type            empty;
        value           nonuniform List<scalar> 0();
    }
}


// ************************************************************************* //
