/*--------------------------------*- C++ -*----------------------------------*\
  =========                 |
  \\      /  F ield         | OpenFOAM: The Open Source CFD Toolbox
   \\    /   O peration     | Website:  https://openfoam.org
    \\  /    A nd           | Version:  10
     \\/     M anipulation  |
\*---------------------------------------------------------------------------*/
FoamFile
{
    format      ascii;
    class       volScalarField;
    location    "7.65";
    object      p;
}
// * * * * * * * * * * * * * * * * * * * * * * * * * * * * * * * * * * * * * //

dimensions      [0 2 -2 0 0 0 0];

internalField   nonuniform List<scalar> 
496
(
25.8189
25.4426
22.4876
16.6231
26.6505
26.7897
23.2604
16.8322
31.3029
29.875
23.6128
13.4649
38.1323
36.4628
32.7147
20.1433
8.76096
-0.193281
8.50616
-0.328266
-0.0448059
-7.20903
-25.8077
-48.3034
-7.79552
-13.1855
-16.3954
-18.3396
-7.98873
-13.2307
-18.1069
-21.7157
-4.51765
-7.18111
-15.387
-20.5569
-19.4142
-16.6189
-25.2668
-20.1993
-18.8187
-17.318
-15.542
-15.5932
-17.5084
-19.4376
-20.2455
-19.9429
-19.2039
-18.6309
-17.8614
-16.8164
-15.2904
-13.9192
-12.5245
-11.1838
-10.1121
-9.34499
-8.93939
-8.46559
-8.16736
-7.69678
-7.26768
-6.58392
-5.71699
-4.99294
-3.95902
-2.91826
-1.77173
-1.10241
-0.764765
-0.865611
-1.07126
-0.885445
-0.995007
-1.07333
-1.53119
-1.71502
-1.40919
-0.685565
-21.5294
-18.4187
-16.1939
-16.9437
-18.8213
-19.9869
-20.1932
-19.8868
-19.5415
-19.1155
-18.1759
-16.8824
-15.3471
-13.9436
-12.4498
-10.8826
-9.62324
-8.82845
-8.74515
-8.40103
-8.28764
-7.89261
-7.37082
-6.74822
-5.96529
-5.2088
-4.17234
-2.84118
-1.65338
-0.86715
-0.545425
-0.777681
-0.995298
-1.18217
-1.23213
-1.16111
-1.54888
-1.87722
-1.81662
-0.923571
-19.1501
-15.5633
-15.536
-17.0072
-18.7306
-20.2665
-20.8437
-20.7255
-20.5933
-20.318
-19.2827
-17.6348
-15.8124
-13.9195
-11.966
-10.4175
-9.47978
-8.94582
-8.55606
-9.01499
-9.28249
-9.44895
-8.84894
-7.4373
-6.0369
-4.35022
-3.18774
-2.128
-1.17478
-0.450728
-0.555394
-1.29806
-1.76582
-2.34205
-2.56717
-2.57283
-2.19175
-1.66288
-1.32313
-0.573791
-17.2845
-15.0625
-15.3032
-15.5964
-17.8335
-20.9251
-20.7309
-20.5296
-21.0666
-20.9341
-19.9815
-18.3005
-16.6188
-14.0185
-11.3409
-9.14244
-7.644
-7.29998
-7.35416
-8.64496
-9.63399
-10.5483
-10.1144
-9.25231
-7.68437
-4.98102
-2.37993
0.933861
1.91222
2.17152
0.408313
-0.86212
-1.57787
-3.08655
-3.07826
-3.60917
-3.19356
-2.39767
-1.82065
0.207618
41.7314
43.6885
57.105
70.3359
40.3283
40.7612
55.2098
65.0717
-22.142
-37.0903
-37.5111
-25.3624
-40.6682
-38.0486
-41.8301
-18.4615
-28.1275
-18.7215
-15.0545
-16.9095
-20.2874
-21.2543
-21.207
-22.3556
-22.0188
-20.5044
-18.858
-17.5107
-16.1354
-14.4806
-12.8877
-11.3534
-9.57118
-8.93069
-8.66828
-8.75144
-8.75033
-8.65733
-8.58083
-7.86003
-6.43883
-5.17857
-3.69802
-2.39052
-1.91364
-2.04084
-2.03937
-1.83701
-1.79724
-2.33467
-2.39398
-2.97767
-2.70981
-1.95158
-1.21431
0.00224585
-18.9589
-10.4135
-16.6981
-17.1473
-19.0112
-25.7671
-23.9312
-21.7517
-21.245
-19.7764
-17.8069
-16.4061
-15.165
-14.4446
-14.1501
-14.0984
-13.6079
-12.0564
-10.7866
-9.16608
-7.40982
-5.5881
-4.40796
-4.20785
-3.7794
-4.11332
-4.51554
-5.04114
-5.42928
-5.2886
-4.44288
-3.48079
-1.89126
-0.982624
-0.43568
0.336416
-0.582689
-0.359544
-0.0526552
-0.215173
34.0378
30.892
25.7804
8.5712
25.5167
22.9931
13.3699
2.27533
19.9738
20.7673
16.1339
9.48837
19.357
19.6249
16.1476
9.48834
-48.7589
-75.4747
-14.0603
-18.5596
0.226965
-8.97376
0.57582
-8.66165
-42.7038
-24.2706
-12.6045
-14.1165
-10.3098
-8.91138
-13.9305
-16.6415
-16.3183
-21.397
-23.8076
-22.4977
-15.4336
-18.5813
-18.9511
-17.9194
-13.6899
-10.6209
-12.7221
-16.8292
-19.0494
-20.6511
-22.4468
-22.7249
-20.8933
-18.8126
-16.1245
-14.8951
-14.7416
-14.804
-14.8534
-14.5923
-14.6538
-13.137
-11.6614
-8.92874
-5.98516
-3.0155
-1.05583
-0.999195
-1.92989
-3.61102
-4.7431
-6.17004
-5.9308
-5.91548
-4.99418
-3.95955
-2.3895
0.916364
2.16122
3.69325
3.04763
1.49117
1.01385
-0.0254563
-15.2786
-14.3985
-15.5766
-18.0491
-19.7583
-20.5346
-20.9471
-20.8495
-19.8659
-18.7686
-17.3155
-16.1172
-15.5232
-15.3575
-15.0117
-14.1286
-13.3783
-11.7579
-10.0944
-8.07002
-6.30205
-4.85401
-3.92049
-3.60595
-3.58342
-4.54421
-5.12774
-5.4907
-5.26867
-4.5965
-3.64979
-2.66602
-2.14336
-1.21067
-0.116961
0.673898
1.15446
0.693777
0.407156
-0.237465
-18.763
-15.7003
-15.7466
-17.7447
-19.4985
-20.231
-20.0489
-19.5033
-18.8208
-18.0651
-17.3263
-16.2049
-15.3804
-14.6569
-14.1888
-13.2156
-12.1629
-11.2326
-9.93289
-8.6096
-6.92845
-5.42052
-4.38503
-3.64056
-3.47759
-3.31334
-3.82811
-3.99876
-3.86511
-3.53191
-3.25249
-2.93463
-2.49822
-1.47031
-0.232852
0.583302
1.28493
1.21579
0.817631
0.376836
-16.2919
-14.9278
-14.9816
-16.6152
-18.5731
-19.8905
-19.897
-19.3061
-18.5305
-17.7423
-17.1168
-16.2931
-15.6018
-14.8271
-14.1468
-13.1881
-12.052
-11.0625
-9.84682
-8.64881
-7.07935
-5.93414
-4.72616
-4.06152
-3.79035
-3.84592
-4.00592
-3.78524
-3.67412
-3.29611
-3.07147
-2.71284
-2.15164
-1.4987
-0.439426
0.378123
1.04067
1.12804
0.781483
0.328655
)
;

boundaryField
{
    inlet
    {
        type            zeroGradient;
    }
    outlet
    {
        type            fixedValue;
        value           uniform 0;
    }
    obstacle
    {
        type            zeroGradient;
    }
    upperWall
    {
        type            zeroGradient;
    }
    lowerWall
    {
        type            zeroGradient;
    }
    frontAndBack
    {
        type            empty;
    }
}


// ************************************************************************* //
