/*--------------------------------*- C++ -*----------------------------------*\
  =========                 |
  \\      /  F ield         | OpenFOAM: The Open Source CFD Toolbox
   \\    /   O peration     | Website:  https://openfoam.org
    \\  /    A nd           | Version:  10
     \\/     M anipulation  |
\*---------------------------------------------------------------------------*/
FoamFile
{
    format      ascii;
    class       surfaceScalarField;
    location    "7.65";
    object      phi;
}
// * * * * * * * * * * * * * * * * * * * * * * * * * * * * * * * * * * * * * //

dimensions      [0 3 -1 0 0 0 0];

internalField   nonuniform List<scalar> 
928
(
0.0970288
0.0029712
0.102868
-0.00583909
0.106901
-0.00403322
-0.00805161
0.114953
0.095924
0.00704716
0.104737
-0.0146522
0.103793
-0.00308869
-0.0155863
0.111327
0.0963849
0.0106623
0.107239
-0.0255065
0.104163
-1.28796e-05
-0.031681
0.120258
0.101131
0.00953168
0.0946094
-0.0189854
0.0939403
0.000656242
0.14283
-0.0805712
0.109925
0.00502739
-0.0167432
0.126669
0.109395
0.00696016
-0.0395658
0.132217
0.125196
0.0020221
-0.042623
0.128253
0.144853
0.10223
0.127132
-0.000463688
0.128622
-0.00148977
0.130749
-0.00212727
-0.000550687
0.1313
0.132749
-0.0009957
0.137024
-0.00576434
0.137099
-0.00220237
0.000805918
0.135742
0.137041
-0.009783
0.141593
-0.0103171
0.135391
0.00399985
-0.000390706
0.136588
0.108037
-0.0155901
0.109989
-0.0122692
0.091658
0.0223306
0.101613
-0.0103459
0.130826
0.000474347
0.131007
-0.000181463
0.132021
-0.00101343
0.132846
-0.000825353
0.132907
-6.08252e-05
0.133014
-0.000107416
0.132617
0.000396936
0.132408
0.000209395
0.131335
0.00107242
0.129957
0.00137788
0.128018
0.00193976
0.125835
0.00218269
0.123903
0.00193171
0.121343
0.00256079
0.120155
0.00118753
0.118591
0.00156419
0.118782
-0.000191465
0.118327
0.0004551
0.118631
-0.000304279
0.118171
0.00046019
0.116979
0.00119186
0.114853
0.00212681
0.111038
0.00381413
0.107617
0.00342111
0.103295
0.00432236
0.101095
0.00219995
0.0990759
0.00201915
0.0994423
-0.000366376
0.100687
-0.00124515
0.102745
-0.00205728
0.105373
-0.0026287
0.106346
-0.000972397
0.107096
-0.000749848
0.10482
0.00227564
0.102171
0.00264904
0.0972614
0.00490954
0.0928277
0.00443377
0.0894895
0.00333819
0.0869537
0.00253578
-0.000838435
0.13552
0.00069647
0.137341
-0.00200282
0.138264
-0.00193565
0.138686
-0.00124816
0.14006
-0.00143406
0.14119
-0.00123809
0.140965
0.000622571
0.140794
0.000380488
0.139868
0.00199783
0.1387
0.00254573
0.137015
0.00362474
0.134981
0.00421687
0.133228
0.00368536
0.131226
0.00456188
0.130441
0.00197326
0.129401
0.00260419
0.129525
-0.000315351
0.129827
0.000153202
0.130671
-0.00114883
0.131236
-0.000105224
0.130399
0.0020298
0.129232
0.0032938
0.126245
0.00680107
0.123766
0.00589979
0.119829
0.00825946
0.117091
0.00493773
0.114921
0.00418921
0.11443
0.000124299
0.115592
-0.00240727
0.11709
-0.00355515
0.120091
-0.00562911
0.121474
-0.00235536
0.12372
-0.00299584
0.123022
0.00297369
0.121852
0.00381819
0.119523
0.00723905
0.115756
0.00820027
0.11254
0.00655427
0.108343
0.00673307
0.00027038
0.136158
0.0011266
0.133397
0.000758049
0.131121
0.000340218
0.134123
-0.00425029
0.13592
-0.00323138
0.136319
-0.00163683
0.137684
-0.000742533
0.138336
-0.000271674
0.138572
0.00176182
0.137546
0.0035726
0.136691
0.00447922
0.135774
0.0051344
0.134537
0.00492229
0.133863
0.00523519
0.132377
0.00345921
0.131843
0.0031382
0.130446
0.00108222
0.130214
0.000385043
0.131119
-0.00205429
0.132426
-0.00141225
0.134372
8.38344e-05
0.134809
0.00285731
0.134665
0.00694507
0.131737
0.00882761
0.129269
0.0107279
0.126378
0.00782813
0.124327
0.00624046
0.122166
0.00228504
0.120148
-0.000388806
0.119696
-0.00310365
0.119781
-0.00571436
0.121005
-0.00357923
0.123701
-0.00569104
0.127114
-0.000440255
0.129317
0.00161605
0.130071
0.00648508
0.12752
0.0107505
0.124449
0.00962559
0.121145
0.0100375
0.0034923
0.0964788
0.00626102
0.088235
0.00900187
0.0853301
0.00324509
0.0869319
-0.00585205
0.087577
-0.00387648
0.0806324
0.00530773
0.0834079
-0.00351799
0.0850746
-0.00193842
0.0860011
0.000835294
0.0872358
0.00233789
0.0892769
0.00243815
0.0911246
0.00328669
0.0916243
0.00442261
0.0906038
0.00625564
0.0874559
0.00660713
0.0840778
0.00651633
0.0819167
0.00324331
0.0825388
-0.000237073
0.0840091
-0.00352459
0.0880152
-0.00541835
0.0933269
-0.00522778
0.100306
-0.00412218
0.107044
0.000207856
0.111823
0.00404784
0.11484
0.00771099
0.11218
0.0104884
0.106353
0.0120675
0.0976704
0.0109675
0.0897265
0.00755513
0.0841296
0.0024932
0.0817993
-0.00338406
0.0842978
-0.0060777
0.0888357
-0.0102289
0.0963225
-0.00792705
0.103631
-0.0056927
0.111626
-0.00150964
0.117749
0.00462778
0.1216
0.00577423
0.120257
0.0113809
0.00776444
0.108917
0.000614764
0.0881878
0.0017437
0.0841517
0.00469235
0.00358054
0.10983
-0.00921567
0.0884729
0.0231012
0.0903925
0.00277274
0.0939731
-0.0114415
-0.0041486
0.00409882
-0.0278095
-0.022873
0.0493023
-0.0292919
-0.00392697
0.00190331
-0.00605192
-0.0185688
-0.00733741
0.0200827
0.0106509
0.0043184
-0.0135276
0.0171058
-0.0147718
0.0228649
0.00324283
0.0116095
0.0145004
0.0179894
-0.0122319
0.0141701
-5.71807e-05
-0.00184327
0.0213211
-0.00235053
-0.00301074
0.00352539
-0.00781433
0.00634055
-0.00197986
0.00739676
0.00128167
0.00772155
0.00211336
0.00852567
0.00248257
0.0103668
0.00258151
0.0121137
0.00450875
0.0138078
0.00491295
0.0161148
0.00420935
0.0188183
0.000539793
0.0211114
-0.00253009
0.025027
-0.00744022
0.0298538
-0.0102452
0.0350698
-0.0104438
0.0397235
-0.00877591
0.0434699
-0.00353856
0.0464786
0.00103916
0.0463457
0.00784384
0.045728
0.0111061
0.0441649
0.0136307
0.0437647
0.0113677
0.0445427
0.00677717
0.046158
0.000877872
0.0489321
-0.00615817
0.0525885
-0.00973407
0.0572134
-0.0148538
0.0621745
-0.0128881
0.0685871
-0.0121054
0.0728706
-0.00579314
0.0752604
0.00223806
0.0767375
0.00429713
0.0731968
0.0149215
0.0110731
0.00211676
-0.0125701
0.000756662
0.00460293
0.00870294
0.00655413
0.000200596
-0.00372954
-0.00842941
0.00857282
0.00695503
0.00593663
0.00776541
-0.00382112
0.00225196
-0.00230088
0.00154987
-0.00127777
0.00529238
-0.00246084
0.010214
-0.00280825
0.0144133
-0.00171671
0.0176801
-0.000685299
0.0202182
0.00197064
0.0240455
0.0010856
0.0282673
-1.24078e-05
0.0315105
-0.00270346
0.0331346
-0.00415414
0.0327817
-0.00708729
0.0320944
-0.00955787
0.0316982
-0.0100476
0.0319646
-0.00904225
0.0332222
-0.00479622
0.0358828
-0.00162145
0.0396426
0.00408402
0.0443994
0.00634935
0.0502553
0.00777481
0.0557653
0.00585765
0.0604858
0.00205664
0.0634167
-0.002053
0.0642446
-0.00698604
0.0635425
-0.00903196
0.0599877
-0.0112991
0.0578188
-0.0107192
0.0570193
-0.0113059
0.0569537
-0.00572759
0.0591272
6.45853e-05
0.0615534
0.00187093
0.0655744
0.0109005
0.00757377
0.103875
-0.0130905
0.0936159
0.0333602
0.100422
-0.00403331
0.0427994
0.151596
0.096372
-0.00946252
0.110047
0.0196856
0.105354
0.000658814
0.0198729
0.128281
0.0946219
-0.00408441
0.106764
0.00754341
0.103133
0.00428994
0.00947838
0.113527
0.0959156
0.103459
0.107749
0.117227
0.157363
-0.00576695
0.0489542
0.108408
0.130612
-0.00809796
0.0414499
0.138116
0.11033
-0.00490056
0.0158409
0.135939
0.112327
0.128168
0.107547
-0.00519029
0.0993572
0.000852146
0.118015
-0.0080069
-0.00553328
0.110021
0.13474
-0.00181435
0.13979
-0.00419783
0.135026
-0.00324282
-0.00161435
0.131107
0.136752
-0.0026276
0.133487
-0.000932805
0.130894
-0.000649379
-0.00017864
0.129458
0.12554
0.124607
0.123958
0.123779
0.101179
-0.00372886
0.104968
0.000814682
0.105759
0.00576259
0.0978611
0.00416863
0.100254
0.00617965
0.102098
0.00409276
0.0976389
0.00063813
0.0982411
-0.00290309
0.0992899
-0.00232658
0.0996511
-0.00282206
0.0989718
-0.00212891
0.098194
-0.000938993
0.0990059
-0.00149715
0.100981
-4.5095e-06
0.10475
-0.00268322
0.106881
-0.0021434
0.111124
-0.00694669
0.114049
-0.0070792
0.11552
-0.00855785
0.113183
-0.00722138
0.107839
-0.00470382
0.10196
-0.00316275
0.0950839
0.00207982
0.0914189
0.00204354
0.0891864
0.00631653
0.0917583
0.0037775
0.0955488
0.00398427
0.102337
-0.000930178
0.109137
-0.00474385
0.11538
-0.00829569
0.120942
-0.0125477
0.121966
-0.0100566
0.120853
-0.0101857
0.112732
-0.00259793
0.103356
-0.00193024
0.0935048
0.00412357
0.0869947
0.00657464
0.0846418
0.00422382
0.0866969
0.00884544
0.00261828
0.126628
0.000749897
0.125521
0.0019218
0.128209
0.00307448
0.128855
0.0035228
0.132102
0.00293299
0.134544
0.00165075
0.133825
0.00135742
0.132218
-0.00129607
0.131231
-0.0013398
0.131105
-0.00269656
0.130857
-0.00188026
0.130762
-0.000844456
0.130565
-0.0013
0.130941
-0.000380436
0.131332
-0.00307401
0.131253
-0.00206514
0.129533
-0.00522628
0.127002
-0.00454849
0.124391
-0.0059464
0.122258
-0.00508802
0.120226
-0.00267193
0.11897
-0.00190754
0.118583
0.00246725
0.119039
0.00158724
0.120746
0.00460995
0.123018
0.00150541
0.12569
0.00131207
0.127841
-0.0030814
0.128409
-0.00531098
0.126574
-0.00646077
0.12302
-0.00899455
0.118567
-0.00560315
0.115463
-0.00708133
0.113042
-0.000177686
0.110156
0.000956581
0.109519
0.0047603
0.109958
0.00613533
0.109892
0.00428951
0.113538
0.00520036
-2.45547e-05
0.130059
0.000148766
0.130451
0.00153028
0.131655
0.00186998
0.133687
0.00149066
0.13562
0.00100067
0.137015
0.000255567
0.137766
0.000606567
0.13699
-0.00052026
0.135986
-0.000335998
0.134677
-0.00138714
0.133944
-0.00114753
0.134052
-0.000952073
0.133585
-0.000833373
0.13376
-0.00055572
0.132399
-0.00171272
0.131685
-0.00135087
0.129549
-0.00309074
0.127653
-0.00265251
0.125049
-0.00334194
0.122188
-0.00222698
0.120831
-0.00131562
0.119684
-0.000759883
0.120838
0.00131346
0.121819
0.000605987
0.124199
0.00223021
0.12566
4.42719e-05
0.126742
0.000230123
0.126059
-0.00239918
0.1241
-0.00335186
0.122064
-0.00442492
0.117846
-0.00477654
0.114829
-0.00258554
0.110709
-0.00296182
0.109638
0.000893492
0.109675
0.000919913
0.111113
0.00332195
0.114263
0.00298523
0.116011
0.00254182
0.119399
0.00181249
-0.00124968
0.123928
0.125458
0.127328
0.128819
0.12982
0.130075
0.130682
0.130161
0.129825
0.128438
0.127291
0.126339
0.125505
0.12495
0.123237
0.121886
0.118795
0.116143
0.112801
0.110574
0.109258
0.108498
0.109812
0.110418
0.112648
0.112692
0.112922
0.110523
0.107171
0.102746
0.0979699
0.0953843
0.0924225
0.093316
0.0942359
0.0975579
0.100543
0.103085
0.104897
)
;

boundaryField
{
    inlet
    {
        type            calculated;
        value           nonuniform List<scalar> 10(-0.1 -0.1 -0.1 -0.1 -0.1 -0.1 -0.1 -0.1 -0.1 -0.1);
    }
    outlet
    {
        type            calculated;
        value           nonuniform List<scalar> 10(0.0877921 0.107234 0.117923 0.115985 0.0698881 0.0690738 0.0916524 0.11618 0.120624 0.103648);
    }
    obstacle
    {
        type            calculated;
        value           uniform 0;
    }
    upperWall
    {
        type            calculated;
        value           uniform 0;
    }
    lowerWall
    {
        type            calculated;
        value           uniform 0;
    }
    frontAndBack
    {
        type            empty;
        value           nonuniform List<scalar> 0();
    }
}


// ************************************************************************* //
