/*--------------------------------*- C++ -*----------------------------------*\
  =========                 |
  \\      /  F ield         | OpenFOAM: The Open Source CFD Toolbox
   \\    /   O peration     | Website:  https://openfoam.org
    \\  /    A nd           | Version:  10
     \\/     M anipulation  |
\*---------------------------------------------------------------------------*/
FoamFile
{
    format      ascii;
    class       surfaceScalarField;
    location    "4.25";
    object      phi;
}
// * * * * * * * * * * * * * * * * * * * * * * * * * * * * * * * * * * * * * //

dimensions      [0 3 -1 0 0 0 0];

internalField   nonuniform List<scalar> 
760
(
-8.85362e-06
8.8536e-06
-2.83774e-05
1.95238e-05
-5.04038e-05
2.20263e-05
-7.22001e-05
2.17963e-05
-9.29327e-05
2.07326e-05
-0.000112154
1.92217e-05
-0.00012943
1.72755e-05
-0.000144271
1.4841e-05
-0.000156132
1.18607e-05
-0.000164417
8.28527e-06
-0.000168499
4.08204e-06
-0.000167747
-7.51723e-07
-0.000161586
-6.16157e-06
-0.000149583
-1.20025e-05
-0.000131549
-1.8034e-05
-0.000107658
-2.3891e-05
-7.86691e-05
-2.8989e-05
-4.64746e-05
-3.21945e-05
-1.59425e-05
-3.0532e-05
-1.59425e-05
-2.02803e-05
2.91339e-05
-5.61449e-05
5.53884e-05
-9.53487e-05
6.12302e-05
-0.000133748
6.01955e-05
-0.000169864
5.68486e-05
-0.000202813
5.21705e-05
-0.000231794
4.62572e-05
-0.000255996
3.90432e-05
-0.000274579
3.0443e-05
-0.000286677
2.03834e-05
-0.000291397
8.80216e-06
-0.000287995
-4.15352e-06
-0.000275672
-1.84844e-05
-0.000253957
-3.3718e-05
-0.000222728
-4.92627e-05
-0.000182407
-6.42126e-05
-0.000134256
-7.714e-05
-8.12028e-05
-8.52473e-05
-3.02907e-05
-8.14441e-05
-4.62333e-05
-2.41939e-05
5.33279e-05
-6.58829e-05
9.70773e-05
-0.000111088
0.000106435
-0.000155184
0.000104292
-0.000196546
9.82108e-05
-0.000234199
8.98227e-05
-0.000267261
7.93196e-05
-0.00029485
6.66321e-05
-0.000316057
5.16504e-05
-0.000329951
3.42775e-05
-0.000335627
1.44781e-05
-0.000332049
-7.73163e-06
-0.000318384
-3.21493e-05
-0.000294004
-5.80982e-05
-0.000258634
-8.4633e-05
-0.000212584
-0.000110263
-0.000157146
-0.000132578
-9.55787e-05
-0.000146814
-3.59978e-05
-0.000141025
-8.22311e-05
-2.58056e-05
7.91335e-05
-7.03628e-05
0.000141635
-0.000118602
0.000154675
-0.000165663
0.000151352
-0.000209895
0.000142444
-0.000250331
0.000130258
-0.000286094
0.000115083
-0.000316298
9.6836e-05
-0.000340012
7.53643e-05
-0.000356248
5.0513e-05
-0.000363966
2.21966e-05
-0.000362072
-9.62594e-06
-0.000349333
-4.48879e-05
-0.000324777
-8.26543e-05
-0.000287726
-0.000121684
-0.000238146
-0.000159843
-0.00017716
-0.000193563
-0.000108299
-0.000215676
-4.08998e-05
-0.000208424
-0.000123131
-2.72167e-05
0.00010635
-7.44957e-05
0.000188913
-0.000125716
0.000205895
-0.000175776
0.000201413
-0.000223023
0.00018969
-0.000266522
0.000173757
-0.000305436
0.000153997
-0.000338903
0.000130303
-0.000365987
0.000102448
-0.00038564
7.01661e-05
-0.000396675
3.32316e-05
-0.000397778
-8.52264e-06
-0.000387304
-5.53625e-05
-0.000363724
-0.000106234
-0.000325669
-0.000159739
-0.000272385
-0.000213128
-0.000204559
-0.000261389
-0.000126014
-0.000294221
-4.78784e-05
-0.00028656
-0.000171009
-2.89615e-05
0.000135312
-7.95612e-05
0.000239513
-0.000134433
0.000260766
-0.000188177
0.000255156
-0.000239135
0.000240649
-0.000286434
0.000221055
-0.000329306
0.000196869
-0.000366949
0.000167947
-0.000398458
0.000133957
-0.000422751
9.44592e-05
-0.000438497
4.89769e-05
-0.000444161
-2.85825e-06
-0.000437508
-6.20157e-05
-0.000416251
-0.000127491
-0.00037796
-0.000198029
-0.000320668
-0.000270421
-0.000244081
-0.000337975
-0.000152131
-0.000386171
-5.85099e-05
-0.000380181
-0.000229519
-3.11482e-05
0.00016646
-8.58346e-05
0.0002942
-0.000145162
0.000320094
-0.000203362
0.000313356
-0.000258782
0.000296069
-0.000310638
0.000272912
-0.000358281
0.000244512
-0.000401028
0.000210694
-0.000438072
0.000171001
-0.000468369
0.000124757
-0.000490504
7.11119e-05
-0.00050267
9.30776e-06
-0.00050212
-6.25657e-05
-0.000485465
-0.000144146
-0.000448744
-0.00023475
-0.000387993
-0.000331172
-0.000300925
-0.000425043
-0.000190889
-0.000496208
-7.5054e-05
-0.000496015
-0.000304573
-3.38097e-05
0.00020027
-9.34043e-05
0.000353794
-0.000158007
0.000384697
-0.000221404
0.000376752
-0.000281965
0.000356629
-0.000339043
0.00032999
-0.000392169
0.000297637
-0.000440866
0.000259391
-0.000484536
0.000214671
-0.000522306
0.000162527
-0.000552834
0.000101639
-0.000573973
3.04475e-05
-0.000582837
-5.37018e-05
-0.000574554
-0.000152429
-0.000543085
-0.000266219
-0.000481326
-0.00039293
-0.000383234
-0.000523135
-0.000249709
-0.000629734
-0.000102062
-0.000643662
-0.000406635
-3.70001e-05
0.00023727
-0.000102387
0.000419181
-0.000173083
0.000455393
-0.000242349
0.000446018
-0.000308605
0.000422885
-0.000371401
0.000392786
-0.00043053
0.000356767
-0.000485835
0.000314696
-0.000537074
0.00026591
-0.000583739
0.000209192
-0.000624788
0.000142688
-0.000658225
6.38847e-05
-0.00068099
-3.0937e-05
-0.000686948
-0.000146471
-0.000667479
-0.000285688
-0.000610883
-0.000449526
-0.000504502
-0.000629517
-0.000342845
-0.000791391
-0.000149695
-0.000836812
-0.00055633
-4.0838e-05
0.000278108
-0.000113015
0.000491358
-0.000190628
0.000533006
-0.000266336
0.000521726
-0.000338658
0.000495208
-0.000407416
0.000461544
-0.000472764
0.000422115
-0.000534995
0.000376927
-0.000594413
0.000325328
-0.000651153
0.000265933
-0.000704874
0.000196408
-0.000754186
0.000113197
-0.000796769
1.16458e-05
-0.000825578
-0.000117662
-0.000829686
-0.00028158
-0.000791445
-0.000487768
-0.000687646
-0.000733315
-0.000499498
-0.000979539
-0.000242233
-0.00109408
-0.000798563
-4.55616e-05
0.000323669
-0.000125728
0.000571524
-0.000211101
0.00061838
-0.00029369
0.000604315
-0.000372195
0.000573713
-0.000446808
0.000536156
-0.000518147
0.000493454
-0.000587086
0.000445867
-0.00065468
0.000392921
-0.000722043
0.000333296
-0.000790118
0.000264484
-0.000859161
0.00018224
-0.000927448
7.99326e-05
-0.000991187
-5.39221e-05
-0.00103754
-0.000235222
-0.00104351
-0.000481798
-0.000971945
-0.000804885
-0.000779126
-0.00117236
-0.000439817
-0.00143339
-0.00123838
-5.1629e-05
0.000375298
-0.000141324
0.000661219
-0.000235324
0.00071238
-0.000325036
0.000694027
-0.000409501
0.000658179
-0.000489406
0.00061606
-0.000565926
0.000569974
-0.00064061
0.000520551
-0.000715408
0.00046772
-0.000792724
0.000410612
-0.000875389
0.000347148
-0.000966356
0.000273207
-0.00106761
0.000181182
-0.00117947
5.79463e-05
-0.00129467
-0.000120029
-0.00139092
-0.000385549
-0.00141704
-0.000778759
-0.00128064
-0.00130876
-0.000838715
-0.00187531
-0.0020771
-5.99238e-05
0.000435222
-0.000161214
0.000762509
-0.000264687
0.000815852
-0.000361458
0.000790798
-0.0004512
0.000747921
-0.000535273
0.000700133
-0.000615474
0.000650175
-0.000694003
0.00059908
-0.000773681
0.000547398
-0.000858272
0.000495204
-0.000952903
0.000441779
-0.00106446
0.000384764
-0.00120173
0.000318452
-0.00137418
0.000230398
-0.00159119
9.69762e-05
-0.00184423
-0.000132501
-0.00207121
-0.000551783
-0.00206883
-0.00131114
-0.00146352
-0.00248062
-0.00354062
-7.23916e-05
0.000507614
-0.000188193
0.00087831
-0.00030147
0.00092913
-0.00040441
0.000893737
-0.000498142
0.000841654
-0.000584775
0.000786766
-0.000666556
0.000731956
-0.000746136
0.00067866
-0.000827002
0.000628263
-0.000914044
0.000582246
-0.0010146
0.000542334
-0.00114012
0.000510286
-0.00130849
0.000486822
-0.00154558
0.000467487
-0.00188211
0.000433507
-0.00233091
0.000316301
-0.00280343
-7.92636e-05
-0.00289536
-0.00121922
-0.00198172
-0.00339426
-0.00552234
-8.81747e-05
0.000595788
-0.000222247
0.00101238
-0.000347545
0.00105443
-0.000457981
0.00100417
-0.000554443
0.000938116
-0.000640638
0.000872961
-0.000720231
0.000811548
-0.000796448
0.000754878
-0.00087263
0.000704445
-0.000953246
0.000662861
-0.001046
0.000635088
-0.00116484
0.000629126
-0.00133526
0.000657242
-0.00159834
0.000730571
-0.00200818
0.000843344
-0.0025705
0.000878618
-0.00313527
0.000485511
-0.00314174
-0.00121274
-0.00197568
-0.00456032
-0.00749802
-0.000150792
0.00074658
-0.000297284
0.00115887
-0.000417221
0.00117436
-0.000518303
0.00110525
-0.000609205
0.00102902
-0.000692524
0.000956281
-0.000769621
0.000888646
-0.00084143
0.000826687
-0.000909604
0.000772619
-0.000976624
0.000729881
-0.00104804
0.000706506
-0.00113429
0.000715375
-0.00125874
0.00078169
-0.0014528
0.000924632
-0.00176903
0.00115958
-0.00216578
0.00127537
-0.00255205
0.000871783
-0.0025071
-0.0012577
-0.00158978
-0.00547764
-0.00908779
-0.00010302
0.0008496
-0.000314915
0.00137077
-0.000480833
0.00134028
-0.00060749
0.00123191
-0.000703589
0.00112512
-0.00077805
0.00103074
-0.000837437
0.000948032
-0.000885183
0.000874432
-0.000923126
0.000810563
-0.000950456
0.000757211
-0.000966142
0.000722191
-0.000967491
0.000716724
-0.000959333
0.000773532
-0.000936941
0.00090224
-0.000936098
0.00115873
-0.000952059
0.00129133
-0.00103454
0.000954268
-0.00113503
-0.00115722
-0.00082885
-0.00578382
-0.00991664
-0.000389974
0.00123957
-0.000500355
0.00148115
-0.00060504
0.00144497
-0.000701316
0.00132819
-0.000754949
0.00117875
-0.00077513
0.00105092
-0.000771439
0.000944341
-0.000747921
0.000850915
-0.000710485
0.000773126
-0.000655965
0.000702692
-0.000585299
0.000651525
-0.000483473
0.000614898
-0.000337789
0.000627849
-0.000115784
0.000680235
0.000225946
0.000817004
0.00063378
0.000883495
0.00111777
0.000470282
0.0010773
-0.00111675
0.000632924
-0.00533944
-0.00928372
-0.00132596
0.00256553
-0.00127423
0.00142942
-0.00103054
0.00120127
-0.000683822
0.000981474
-0.000317287
0.000812214
4.64195e-05
0.000687217
0.000392795
0.000597966
0.000716865
0.000526845
0.00102114
0.000468853
0.00130222
0.000421606
0.00157327
0.000380478
0.00183721
0.000350962
0.00212959
0.000335468
0.00247691
0.000332908
0.00297301
0.00032091
0.00360497
0.00025153
0.00421193
-0.000136678
0.00421664
-0.00112146
0.00267095
-0.00379375
-0.00661277
0.00256553
0.00399495
0.00519623
0.0061777
0.00698992
0.00767713
0.0082751
0.00880194
0.0092708
0.0096924
0.0100729
0.0104238
0.0107593
0.0110922
0.0114131
0.0116647
0.011528
0.0104065
0.00661277
)
;

boundaryField
{
    movingWall
    {
        type            calculated;
        value           uniform 0;
    }
    fixedWalls
    {
        type            calculated;
        value           uniform 0;
    }
    frontAndBack
    {
        type            empty;
        value           nonuniform List<scalar> 0();
    }
}


// ************************************************************************* //
