/*--------------------------------*- C++ -*----------------------------------*\
  =========                 |
  \\      /  F ield         | OpenFOAM: The Open Source CFD Toolbox
   \\    /   O peration     | Website:  https://openfoam.org
    \\  /    A nd           | Version:  10
     \\/     M anipulation  |
\*---------------------------------------------------------------------------*/
FoamFile
{
    format      ascii;
    class       volScalarField;
    location    "4.7";
    object      p;
}
// * * * * * * * * * * * * * * * * * * * * * * * * * * * * * * * * * * * * * //

dimensions      [0 2 -2 0 0 0 0];

internalField   nonuniform List<scalar> 
496
(
27.5393
26.5596
23.583
18.0719
28.8051
28.0627
24.3998
17.9078
33.7725
31.7215
25.5757
14.7971
40.3173
38.773
35.4603
21.6875
10.191
1.89256
9.38507
1.64302
0.0515845
-4.95074
-24.726
-51.5076
-4.89274
-9.6328
-12.3175
-14.2043
-6.13918
-10.5169
-13.6306
-17.2872
-0.141123
-0.539576
-10.2479
-17.8425
-21.3088
-4.62202
-14.4539
-16.2293
-15.3796
-14.6727
-12.4893
-11.6056
-13.4195
-16.1953
-17.6272
-17.2006
-16.4057
-16.0183
-16.0188
-15.5769
-14.5509
-13.3922
-12.6388
-12.1497
-10.9795
-9.53188
-7.92517
-6.88154
-6.14076
-5.80965
-5.64185
-5.33546
-5.07848
-4.53817
-4.19059
-3.68684
-3.22512
-2.7384
-2.08252
-1.50474
-0.901764
-0.440273
-0.153528
-0.0423472
-0.00138224
0.128194
0.29946
0.234356
-18.1825
-15.5487
-12.2256
-12.1695
-14.6908
-16.8474
-17.42
-17.0084
-16.7278
-16.5055
-16.3425
-15.7034
-14.6509
-13.5852
-12.8191
-12.1569
-10.9292
-9.58305
-7.97441
-6.74367
-5.95492
-5.4512
-5.50119
-5.29861
-5.15172
-4.66967
-4.2583
-3.73673
-3.26126
-2.73454
-2.12355
-1.34178
-0.700679
-0.298548
0.0690753
0.0908821
0.294018
0.359823
0.439707
0.378169
-18.1716
-13.1576
-10.7758
-12.8402
-15.4086
-16.7363
-16.9259
-17.1546
-17.177
-17.0775
-16.9318
-16.1839
-15.2101
-14.2882
-13.5416
-12.0318
-10.5261
-8.87062
-7.53188
-6.50575
-5.92285
-5.75335
-5.4929
-5.80119
-5.75286
-5.64319
-4.87924
-3.98673
-3.11615
-2.249
-1.79998
-1.36886
-0.539212
-0.188605
-0.0851947
0.0465267
-0.0863296
-0.199952
-0.132431
-0.258914
-14.7285
-10.5062
-10.4368
-13.2859
-15.1281
-17.2801
-18.6099
-18.4307
-17.5361
-17.241
-16.8139
-16.3172
-15.2525
-14.8201
-14.414
-12.9414
-11.3055
-8.50603
-6.67155
-4.98694
-4.17952
-4.09854
-4.80116
-5.96667
-6.14362
-6.49901
-5.5575
-4.98733
-3.64179
-2.2238
-0.973148
0.50749
0.832404
1.20413
0.547623
0.630358
-0.0234595
-0.240931
-0.125454
-0.6664
43.4701
46.0522
58.495
72.2111
42.2087
41.7929
56.333
66.6285
-24.783
-42.3941
-27.782
-21.46
-46.0902
-37.5788
-32.6515
-19.9025
-20.5237
-10.2123
-12.463
-10.9025
-14.208
-17.292
-17.5277
-19.6645
-19.5622
-18.3004
-16.7366
-15.4367
-14.7712
-14.5329
-13.6365
-12.1695
-10.9962
-9.90712
-8.62877
-7.28147
-6.23316
-6.3052
-5.88844
-5.42543
-5.185
-4.77932
-4.39084
-3.87892
-2.93657
-2.46145
-1.90706
-1.21134
-1.27137
-1.04416
-0.741273
-0.902774
-0.978536
-0.64946
-0.470614
-0.393205
-12.947
-9.14256
-8.36595
-11.334
-12.9489
-18.01
-20.1354
-20.3983
-20.123
-19.115
-17.6809
-16.0893
-14.0605
-12.4161
-10.8968
-10.293
-9.9125
-10.0893
-10.158
-10.2422
-9.91187
-8.7919
-7.3905
-5.58454
-4.12591
-2.69004
-1.87688
-1.81269
-1.57152
-1.77631
-2.26055
-2.25736
-2.954
-3.32346
-2.84537
-2.80465
-1.99358
-1.44397
-1.00154
0.111635
36.2064
32.7212
27.8718
10.4943
27.1864
25.151
15.9156
5.35081
22.011
22.9752
18.7765
12.3742
21.6329
21.7842
18.4266
12.3746
-44.7935
-71.1039
-11.2774
-15.7718
3.37142
-5.08428
3.80968
-5.07957
-36.9192
-22.7554
-11.2521
-14.0555
-8.73865
-8.03631
-11.3513
-14.2089
-12.3501
-17.9102
-20.8179
-20.1996
-12.0465
-15.9437
-16.5195
-15.3498
-12.1387
-9.0813
-8.0989
-9.1612
-12.5021
-15.688
-18.9063
-21.2612
-21.6064
-19.8108
-17.7932
-15.4159
-12.9697
-11.3787
-9.6461
-9.17204
-9.14258
-10.1223
-10.8453
-11.1636
-10.7915
-9.21703
-7.97493
-5.53343
-3.50432
-1.40896
-0.0666991
-0.0226832
-0.601472
-1.33618
-2.19403
-2.883
-3.11386
-3.7895
-3.326
-3.21333
-2.67221
-1.90632
-1.03969
0.737181
-13.134
-10.7738
-10.5078
-11.5832
-13.6919
-15.8198
-17.7799
-19.0853
-19.6725
-18.7787
-16.9919
-15.0985
-13.102
-11.8633
-11.2394
-10.814
-10.4943
-10.704
-10.7844
-10.3829
-9.67129
-8.07955
-6.76356
-5.20523
-4.0651
-3.14604
-2.56134
-2.08358
-1.91191
-2.27881
-2.63605
-2.95573
-3.06585
-3.19722
-2.95277
-2.4916
-2.04302
-1.44679
-0.810031
-0.356912
-16.639
-12.7142
-11.3538
-12.4799
-14.3525
-15.9198
-17.0025
-17.5899
-17.899
-17.571
-16.4641
-15.0872
-13.5126
-12.1248
-11.1406
-10.6437
-10.559
-10.1746
-10.0076
-9.29657
-8.57204
-7.64984
-6.60164
-5.67325
-4.4833
-3.44815
-2.63447
-2.16211
-1.80327
-1.58365
-1.72728
-2.1601
-2.3912
-2.34598
-2.27781
-2.14226
-2.09009
-1.89505
-1.39872
-0.501858
-13.5305
-11.626
-10.916
-11.8909
-13.7492
-15.4875
-16.5541
-17.0726
-17.1275
-17.0154
-16.306
-15.1078
-13.6413
-12.2473
-11.2828
-10.8235
-10.6748
-10.3521
-9.91594
-9.18518
-8.43687
-7.50137
-6.44076
-5.56595
-4.63462
-3.93313
-3.05318
-2.51652
-2.05975
-1.89293
-1.90076
-2.12772
-2.39524
-2.33851
-2.24463
-2.08921
-2.03921
-1.79445
-1.27387
-0.475393
)
;

boundaryField
{
    inlet
    {
        type            zeroGradient;
    }
    outlet
    {
        type            fixedValue;
        value           uniform 0;
    }
    obstacle
    {
        type            zeroGradient;
    }
    upperWall
    {
        type            zeroGradient;
    }
    lowerWall
    {
        type            zeroGradient;
    }
    frontAndBack
    {
        type            empty;
    }
}


// ************************************************************************* //
