/*--------------------------------*- C++ -*----------------------------------*\
  =========                 |
  \\      /  F ield         | OpenFOAM: The Open Source CFD Toolbox
   \\    /   O peration     | Website:  https://openfoam.org
    \\  /    A nd           | Version:  10
     \\/     M anipulation  |
\*---------------------------------------------------------------------------*/
FoamFile
{
    format      ascii;
    class       volScalarField;
    location    "9.9";
    object      p;
}
// * * * * * * * * * * * * * * * * * * * * * * * * * * * * * * * * * * * * * //

dimensions      [0 2 -2 0 0 0 0];

internalField   nonuniform List<scalar> 
8000
(
3.98342e-06
-2.32424e-06
5.27551e-05
0.000152995
0.000306311
0.000515832
0.00078555
0.00111988
0.00152267
0.00199583
0.00253773
0.0031407
0.00378831
0.00445283
0.00509407
0.00566253
0.00610594
0.00638945
0.00652247
0.00647705
9.76955e-06
3.38236e-06
6.19986e-05
0.000163056
0.000315395
0.000522429
0.00078838
0.00111781
0.00151474
0.00198145
0.00251689
0.00311433
0.00375834
0.00442133
0.00506308
0.0056333
0.00607798
0.00635706
0.00648336
0.00641251
-7.65718e-05
-8.74412e-05
-3.14682e-05
6.43346e-05
0.000209287
0.000406843
0.000661599
0.000978823
0.00136368
0.0018202
0.00234965
0.00294804
0.00360276
0.00428905
0.00496552
0.0055746
0.00604959
0.00633689
0.00645181
0.00634466
-0.000239789
-0.000253861
-0.000202711
-0.000115728
1.68621e-05
0.000198629
0.000434672
0.000731209
0.00109503
0.00153279
0.0020495
0.00264594
0.0033146
0.00403392
0.00476184
0.00543104
0.00596163
0.00626934
0.00636942
0.00620206
-0.000488665
-0.000505885
-0.000462423
-0.000388495
-0.000274022
-0.000115384
9.29372e-05
0.000358067
0.000688514
0.00109391
0.00158401
0.00216616
0.00284077
0.00359411
0.00438807
0.00515088
0.00576465
0.00611553
0.00620465
0.00595167
-0.000822713
-0.000843313
-0.000810357
-0.000753901
-0.00066389
-0.000536976
-0.000367716
-0.000148646
0.000129837
0.00047975
0.000915356
0.00145175
0.00210052
0.00286158
0.00370925
0.00457156
0.0053147
0.00574794
0.00585854
0.00548524
-0.00123779
-0.00126216
-0.00124239
-0.00120791
-0.00114921
-0.00106382
-0.000947312
-0.000793318
-0.000592973
-0.000334019
-2.29974e-07
0.000428696
0.000975491
0.00165812
0.00247671
0.00339187
0.00428435
0.00491244
0.00515431
0.00469274
-0.00172714
-0.00175571
-0.00175137
-0.00174302
-0.00172232
-0.00168863
-0.00164001
-0.00157323
-0.0014834
-0.0013629
-0.00119997
-0.000977189
-0.000669969
-0.000246251
0.000329803
0.00109164
0.00205079
0.00305833
0.0038115
0.00349515
-0.00228194
-0.00231489
-0.00232725
-0.00234788
-0.00237044
-0.00239727
-0.00243074
-0.00247356
-0.00252901
-0.00260072
-0.00269245
-0.00280776
-0.00294666
-0.0030896
-0.00316477
-0.00296033
-0.00207866
-0.000403187
0.00145245
0.00192617
-0.00289198
-0.00292905
-0.0029575
-0.00300748
-0.00307517
-0.00316741
-0.00329256
-0.00346205
-0.00369196
-0.0040046
-0.0044315
-0.0050168
-0.0058118
-0.00682793
-0.00793772
-0.00866256
-0.00799357
-0.00522209
-0.00180342
-5.81495e-05
-0.00354678
-0.00358724
-0.00362823
-0.003704
-0.00381334
-0.00396908
-0.00418662
-0.00448789
-0.00490495
-0.00548352
-0.00629101
-0.00742418
-0.0089896
-0.0110009
-0.0131964
-0.0146552
-0.0137516
-0.00943763
-0.00483055
-0.00207493
-0.00423829
-0.00427979
-0.00432513
-0.0044172
-0.00455726
-0.00476534
-0.00506322
-0.00548281
-0.00607236
-0.00689705
-0.00805004
-0.00968079
-0.0118753
-0.0146511
-0.0173583
-0.0188124
-0.0173253
-0.0117687
-0.00713825
-0.00327928
-0.00496542
-0.00500333
-0.00503968
-0.00513155
-0.0052831
-0.00552198
-0.00587406
-0.00637674
-0.007095
-0.00810157
-0.00951314
-0.0114798
-0.0140792
-0.0171582
-0.0200145
-0.0214681
-0.0201893
-0.015157
-0.0102133
-0.00431884
-0.00573485
-0.00575569
-0.00575809
-0.00582213
-0.00595787
-0.0061997
-0.00656616
-0.00711659
-0.00790135
-0.00900349
-0.010541
-0.0126545
-0.0154112
-0.0186112
-0.0216766
-0.0237894
-0.0244016
-0.0201487
-0.0143944
-0.00555268
-0.00657418
-0.00657255
-0.00651582
-0.00652531
-0.00660868
-0.00681281
-0.0071428
-0.00768487
-0.00846868
-0.00957559
-0.0111156
-0.0132031
-0.0159083
-0.0190571
-0.0223047
-0.0248915
-0.0267529
-0.022483
-0.0169683
-0.0053394
-0.00767171
-0.00743656
-0.00722852
-0.00708458
-0.00707226
-0.00721227
-0.00751495
-0.00802019
-0.00876473
-0.00981372
-0.01126
-0.0131811
-0.0156377
-0.018445
-0.021405
-0.0234469
-0.0252196
-0.0205169
-0.0162611
-0.000930592
-0.00852774
-0.00860106
-0.00822604
-0.00803063
-0.00786106
-0.00783991
-0.00799164
-0.00835383
-0.00896979
-0.00988268
-0.0111708
-0.0128674
-0.0150233
-0.017372
-0.0198701
-0.0211299
-0.0223709
-0.0162827
-0.0119197
0.0106659
-0.0124122
-0.00954323
-0.00881357
-0.00799606
-0.00765303
-0.00757348
-0.00773864
-0.00810974
-0.00871902
-0.00957693
-0.0107705
-0.0122779
-0.0141783
-0.0160928
-0.018044
-0.018581
-0.0186471
-0.0103746
-0.00276912
0.0339566
-0.0119011
-0.0127605
-0.0111607
-0.0105273
-0.00966645
-0.00910599
-0.00882563
-0.00882716
-0.00915735
-0.00978451
-0.0108118
-0.0121464
-0.013953
-0.0157292
-0.017639
-0.0174603
-0.0160943
-0.00320539
0.0138122
0.0771563
-0.036691
-0.0112106
-0.00939093
-0.0077739
-0.00689381
-0.00667981
-0.00687138
-0.00724466
-0.0078868
-0.00870385
-0.00991491
-0.0112518
-0.0129847
-0.0141671
-0.0149009
-0.0114414
-0.00305156
0.0246494
0.0711761
0.1769
1.30454e-05
-8.39042e-06
4.35871e-05
0.00014206
0.00029506
0.000504872
0.000775275
0.00111084
0.00151572
0.00199234
0.00253962
0.00315053
0.00380911
0.00448749
0.00514439
0.00572703
0.00617868
0.00645969
0.00658226
0.00651194
3.19587e-05
1.16766e-05
7.02252e-05
0.00017108
0.000323745
0.000531066
0.000797129
0.00112652
0.00152336
0.00199017
0.00252632
0.00312578
0.00377382
0.00444285
0.0050931
0.00567266
0.00612149
0.00639662
0.00651523
0.00642296
-4.86488e-05
-7.62034e-05
-1.99278e-05
7.58589e-05
0.000221273
0.000419144
0.000673903
0.000990803
0.00137506
0.00183098
0.00236035
0.00296008
0.00361849
0.00431182
0.00499873
0.00561955
0.0061005
0.00638257
0.00648589
0.0063505
-0.000207604
-0.000239974
-0.000188256
-0.000101115
3.21325e-05
0.00021439
0.000450572
0.000746847
0.00111002
0.00154698
0.00206339
0.00266119
0.00333436
0.00406244
0.00480309
0.00549113
0.00603099
0.00633232
0.00641298
0.00620735
-0.000454579
-0.000491046
-0.000446971
-0.00037279
-0.000257424
-9.79329e-05
0.000111012
0.000376477
0.000706977
0.00111237
0.00160309
0.00218794
0.00286944
0.00363507
0.00444211
0.00523218
0.00587055
0.00621759
0.00627389
0.0059575
-0.000788296
-0.00082872
-0.00079523
-0.000738461
-0.00064729
-0.000519026
-0.0003484
-0.000127996
0.000151776
0.000503128
0.000940957
0.00148185
0.00214019
0.0029197
0.00379981
0.0046907
0.00547606
0.00593297
0.00599589
0.00550345
-0.00120394
-0.00124858
-0.00122844
-0.00119366
-0.00113358
-0.00104634
-0.000927676
-0.000771213
-0.000568122
-0.000306139
3.11931e-05
0.000464982
0.0010199
0.00171818
0.00256563
0.00353287
0.00451914
0.00526484
0.00547205
0.00476625
-0.00169449
-0.00174379
-0.00173939
-0.00173088
-0.00170874
-0.00167287
-0.00162141
-0.00155118
-0.00145743
-0.00133294
-0.00116682
-0.000943524
-0.000642145
-0.00023454
0.000330538
0.00116847
0.00241394
0.00386642
0.0045439
0.00378239
-0.0022509
-0.00230528
-0.00231805
-0.00233888
-0.00236017
-0.00238476
-0.00241506
-0.00245387
-0.00250497
-0.00257348
-0.00266693
-0.00279841
-0.00298872
-0.0032444
-0.0034663
-0.00318789
-0.00161331
0.00120614
0.00287882
0.00293848
-0.00286284
-0.00292238
-0.00295186
-0.00300258
-0.00306948
-0.00315975
-0.00328183
-0.00344738
-0.00367356
-0.00398617
-0.00442556
-0.00505813
-0.0059885
-0.00728287
-0.00874484
-0.0095106
-0.00786922
-0.00370986
-0.00022939
0.00198188
-0.00352005
-0.00358425
-0.00362705
-0.00370423
-0.0038135
-0.00396779
-0.00418269
-0.00448058
-0.0048953
-0.00547907
-0.00631535
-0.00753707
-0.00934095
-0.011832
-0.0147161
-0.0167253
-0.015659
-0.0103476
-0.004866
-3.04968e-05
-0.00421352
-0.0042806
-0.00432826
-0.00442226
-0.00456316
-0.00477039
-0.00506626
-0.00548323
-0.00607061
-0.00690346
-0.00810077
-0.00983878
-0.0123647
-0.0157487
-0.0195952
-0.0225095
-0.0222152
-0.0161527
-0.00989728
-0.00317444
-0.00494127
-0.0050092
-0.00504895
-0.00514381
-0.0052968
-0.00553459
-0.00588459
-0.00638667
-0.00710015
-0.00811216
-0.00955785
-0.0116287
-0.0145713
-0.0183924
-0.0227586
-0.026347
-0.027222
-0.0216434
-0.015637
-0.00717209
-0.00570395
-0.00576046
-0.00576438
-0.00583158
-0.00597
-0.006211
-0.00658157
-0.00712544
-0.00790267
-0.00900271
-0.0105488
-0.0127545
-0.0158122
-0.019694
-0.0243981
-0.0285607
-0.0310273
-0.0265986
-0.0212416
-0.0109039
-0.00652992
-0.00658441
-0.00653042
-0.00654658
-0.00663144
-0.00682931
-0.00716831
-0.00769486
-0.00845976
-0.00955135
-0.0110861
-0.0132214
-0.0161401
-0.0198243
-0.0242863
-0.0283082
-0.0315693
-0.0271308
-0.0238889
-0.0115662
-0.00756799
-0.00739516
-0.00719633
-0.00706213
-0.00706148
-0.00720773
-0.00751567
-0.00801327
-0.00872858
-0.00975533
-0.0111806
-0.0131049
-0.0156697
-0.0187798
-0.022456
-0.0253834
-0.0280342
-0.0235257
-0.0232488
-0.00647837
-0.00825254
-0.00854523
-0.00817197
-0.00802648
-0.00786636
-0.00784933
-0.00799633
-0.00834456
-0.00892286
-0.00979964
-0.0110516
-0.0127221
-0.0149152
-0.0174206
-0.0203363
-0.0221986
-0.0239494
-0.0191843
-0.0191327
0.0076747
-0.0119548
-0.00925148
-0.00855656
-0.00776728
-0.00750054
-0.00748018
-0.00767761
-0.00805162
-0.00864195
-0.00946064
-0.0106147
-0.0120921
-0.0140244
-0.01609
-0.0183878
-0.0193703
-0.0198023
-0.0134677
-0.0077428
0.0349749
-0.00929597
-0.0118393
-0.0105875
-0.0103054
-0.00960738
-0.00914338
-0.00889768
-0.00888646
-0.00917759
-0.00973739
-0.0107003
-0.0119772
-0.0138213
-0.0157671
-0.0181481
-0.0187486
-0.0178499
-0.00581988
0.0139491
0.0854224
-0.0344851
-0.00934611
-0.00776863
-0.00671046
-0.0061925
-0.00614923
-0.00645115
-0.0068721
-0.00754258
-0.00833779
-0.00953667
-0.01087
-0.0126504
-0.0140236
-0.0149703
-0.0119872
-0.00332098
0.026855
0.0849762
0.207286
3.71008e-05
8.51481e-06
5.94253e-05
0.000157745
0.000311966
0.000524088
0.000798051
0.00113887
0.00155137
0.00203879
0.00260095
0.00323163
0.00391513
0.00462288
0.00531
0.00591859
0.00638384
0.00666018
0.00676367
0.00666423
6.62712e-05
3.78856e-05
9.69429e-05
0.000198269
0.000352225
0.000561488
0.000830379
0.00116392
0.00156681
0.00204241
0.00259107
0.00320772
0.00387802
0.00457405
0.00525487
0.00586074
0.00632346
0.00659297
0.00669094
0.00656975
-7.0059e-06
-4.45319e-05
1.26959e-05
0.000109079
0.000255779
0.000455459
0.000712842
0.00103368
0.00142392
0.00188892
0.00243187
0.00305118
0.00373659
0.00446497
0.00519204
0.00584969
0.00635141
0.006625
0.00669473
0.00651676
-0.000159391
-0.000202974
-0.00014996
-6.20946e-05
7.25355e-05
0.000256684
0.00049562
0.000796115
0.00116588
0.00161318
0.00214569
0.00276784
0.00347602
0.00425092
0.00505105
0.00579738
0.00637409
0.00666354
0.006682
0.00640616
-0.000401684
-0.000450197
-0.000404629
-0.000329596
-0.000212621
-5.0872e-05
0.000161421
0.000432059
0.000770699
0.001189
0.00170018
0.00231704
0.00304638
0.00387905
0.00477954
0.00566327
0.00637068
0.00670166
0.0066385
0.00619719
-0.000732164
-0.000785233
-0.000750135
-0.000692378
-0.000599294
-0.000468235
-0.000293393
-6.6472e-05
0.000223503
0.00059102
0.00105463
0.00163657
0.0023591
0.00323305
0.00423823
0.00530106
0.00622393
0.00666451
0.00649729
0.00577475
-0.00114551
-0.00120328
-0.0011815
-0.00114566
-0.00108344
-0.000992948
-0.000869295
-0.000705138
-0.000490098
-0.000209359
0.00015777
0.000639346
0.00127087
0.00208711
0.00309675
0.00434725
0.0056024
0.00631804
0.00610864
0.00503771
-0.00163433
-0.00169726
-0.00169131
-0.00168186
-0.00165761
-0.00161838
-0.00156168
-0.00148339
-0.00137741
-0.0012343
-0.00103947
-0.000771837
-0.000402558
0.000117216
0.00089995
0.00205821
0.00366125
0.00503031
0.00516427
0.00408347
-0.00218933
-0.00225781
-0.00226933
-0.00228963
-0.00230927
-0.00233101
-0.00235671
-0.00238858
-0.00242982
-0.00248519
-0.00256274
-0.00268069
-0.00287619
-0.00316677
-0.0033816
-0.00289252
-0.00109287
0.00172345
0.00328113
0.00340534
-0.00279971
-0.00287387
-0.00290259
-0.00295352
-0.00301975
-0.00310842
-0.00322766
-0.00338918
-0.00361123
-0.00392321
-0.0043752
-0.00506115
-0.0061562
-0.00779368
-0.00975288
-0.0106433
-0.00878466
-0.00399855
-0.000122489
0.00252457
-0.00345442
-0.00353406
-0.00357684
-0.0036553
-0.00376539
-0.00391995
-0.00413464
-0.00443285
-0.00485174
-0.00545288
-0.00634244
-0.00770781
-0.00987446
-0.0130284
-0.0167748
-0.0191947
-0.0176358
-0.0114567
-0.00545751
-0.000173156
-0.00414309
-0.00422651
-0.00427481
-0.00437128
-0.00451486
-0.00472463
-0.00502324
-0.00544483
-0.00604359
-0.00690849
-0.00819154
-0.0101466
-0.0131597
-0.0173756
-0.0222844
-0.0257076
-0.0251537
-0.0189218
-0.0121564
-0.00482978
-0.00486246
-0.0049488
-0.00499022
-0.00508907
-0.00524656
-0.00548867
-0.00584346
-0.00635241
-0.0070797
-0.00812756
-0.00966997
-0.0119745
-0.015414
-0.0200679
-0.0254886
-0.0296055
-0.0305186
-0.0251813
-0.0186347
-0.00997341
-0.00560762
-0.00568396
-0.00568931
-0.00576176
-0.00590694
-0.00615443
-0.00653204
-0.00708256
-0.00787153
-0.00899918
-0.0106365
-0.0130248
-0.0164973
-0.0210579
-0.0265032
-0.0308993
-0.0330037
-0.0283533
-0.0228641
-0.0133298
-0.00640737
-0.00648727
-0.00643405
-0.00645817
-0.00655134
-0.00675648
-0.0071028
-0.00763304
-0.00840682
-0.00950984
-0.0110881
-0.0133499
-0.0165425
-0.0206215
-0.0254826
-0.0292612
-0.0317169
-0.0269188
-0.0236517
-0.0128395
-0.00738881
-0.00724629
-0.00704712
-0.00692215
-0.00693403
-0.00709194
-0.0074081
-0.00790626
-0.00863275
-0.00964446
-0.0110788
-0.0130664
-0.0157689
-0.0190674
-0.0228779
-0.0254741
-0.0271817
-0.022484
-0.0214815
-0.00679567
-0.00794259
-0.00829424
-0.00793041
-0.00781369
-0.00767375
-0.00767376
-0.00783004
-0.00817836
-0.00876639
-0.00960332
-0.0108468
-0.0125278
-0.0147803
-0.0173816
-0.0203513
-0.0219836
-0.0229058
-0.0180601
-0.0160066
0.00780937
-0.0116283
-0.00894323
-0.00818896
-0.00739634
-0.00716156
-0.00717635
-0.00739771
-0.00778478
-0.00837111
-0.00916495
-0.0102909
-0.0117554
-0.0136975
-0.0158248
-0.0181206
-0.0189857
-0.0186846
-0.0123234
-0.00419392
0.0360163
-0.00822957
-0.0110281
-0.00987274
-0.00969891
-0.0090796
-0.00868536
-0.00847906
-0.00849468
-0.00878296
-0.0093277
-0.0102524
-0.0115223
-0.0133721
-0.0154249
-0.0178975
-0.0185375
-0.0174478
-0.00511513
0.0169071
0.0881945
-0.0337461
-0.00846251
-0.00686588
-0.00594371
-0.00554728
-0.0055697
-0.00590069
-0.00633981
-0.00699887
-0.00777807
-0.00893656
-0.010277
-0.0120691
-0.0135727
-0.0145992
-0.0116512
-0.00226582
0.0289791
0.0906494
0.214604
6.5636e-05
3.28255e-05
8.34285e-05
0.000182282
0.000338468
0.000553916
0.000832828
0.00118074
0.00160322
0.0021044
0.00268503
0.00333963
0.00405256
0.00479393
0.00551538
0.00615233
0.00663171
0.0069027
0.00698655
0.00686199
0.000100934
6.77673e-05
0.000127399
0.00022963
0.000385562
0.000597842
0.000871096
0.00121085
0.00162251
0.00211031
0.00267567
0.00331439
0.00401215
0.00474139
0.00545634
0.00609109
0.00656788
0.00683033
0.00690624
0.00676135
3.31392e-05
-1.02469e-05
4.78401e-05
0.000145219
0.000293911
0.000496548
0.000758204
0.00108521
0.00148433
0.00196206
0.00252297
0.00316689
0.00388488
0.00465356
0.00542392
0.00611948
0.00663969
0.00690119
0.00693584
0.00672372
-0.000113938
-0.000164153
-0.000110037
-2.10671e-05
0.00011566
0.000302877
0.00054627
0.000853288
0.00123264
0.00169405
0.00224716
0.00289861
0.00364665
0.00447373
0.00533336
0.00613424
0.00673817
0.00700522
0.00696273
0.00663301
-0.000352108
-0.000407816
-0.000360991
-0.000284741
-0.000165466
-3.21189e-07
0.00021696
0.000494986
0.000844637
0.00127942
0.0018152
0.00246827
0.0032491
0.00415092
0.00513642
0.00610044
0.00684883
0.00713573
0.00696895
0.00643896
-0.000679496
-0.000740207
-0.000703764
-0.000644683
-0.000549061
-0.000414198
-0.000233707
1.63326e-06
0.00030422
0.000690749
0.00118312
0.00180854
0.00259451
0.00355256
0.00467814
0.00586259
0.00684655
0.00719479
0.006867
0.00600061
-0.00109049
-0.00115632
-0.00113319
-0.001096
-0.00103112
-0.000936576
-0.000806857
-0.000633669
-0.000405146
-0.000104163
0.000293627
0.000821887
0.00152385
0.00244662
0.00361082
0.00500935
0.0063379
0.00689143
0.00648039
0.00521318
-0.00157741
-0.00164885
-0.00164168
-0.00163106
-0.00160432
-0.0015612
-0.00149866
-0.00141178
-0.00129333
-0.00113214
-0.000911224
-0.000606957
-0.00018776
0.000402723
0.00128281
0.00262544
0.00435746
0.00560514
0.00554719
0.00427092
-0.00213063
-0.00220818
-0.00221877
-0.00223837
-0.00225612
-0.00227476
-0.00229581
-0.00232111
-0.00235371
-0.00239865
-0.00246585
-0.00258167
-0.00280166
-0.00314055
-0.00332647
-0.00265701
-0.000634288
0.00213009
0.00362971
0.00374837
-0.00273892
-0.00282276
-0.00285104
-0.00290203
-0.00296743
-0.00305446
-0.00317124
-0.0033299
-0.00355022
-0.00386557
-0.00433579
-0.00508021
-0.00632307
-0.00818797
-0.0102557
-0.0109373
-0.00896467
-0.0043845
-0.000126953
0.00295794
-0.00339052
-0.0034806
-0.00352363
-0.00360317
-0.00371385
-0.00386867
-0.0040837
-0.00438366
-0.00480922
-0.00543034
-0.00637159
-0.0078609
-0.0102858
-0.0137996
-0.017821
-0.0202062
-0.0189133
-0.0130851
-0.00643523
-0.000365808
-0.0040738
-0.00416844
-0.00421762
-0.00431628
-0.00446202
-0.00467402
-0.00497556
-0.00540258
-0.00601388
-0.00690935
-0.0082633
-0.0103726
-0.0136872
-0.0183185
-0.0236092
-0.0272364
-0.0270923
-0.0214119
-0.014267
-0.0061694
-0.00478412
-0.00488308
-0.00492619
-0.00502846
-0.00518953
-0.00543526
-0.00579433
-0.0063098
-0.00705009
-0.00812834
-0.00973829
-0.0121846
-0.0159043
-0.0209304
-0.0267344
-0.0309905
-0.0321113
-0.0273159
-0.0208796
-0.0118947
-0.00551243
-0.00560273
-0.00560997
-0.00568694
-0.0058372
-0.00608955
-0.00647207
-0.0070278
-0.00782544
-0.00897363
-0.0106577
-0.0131442
-0.0168167
-0.0216046
-0.0272505
-0.0313947
-0.0333805
-0.0290991
-0.0243492
-0.0149488
-0.00628717
-0.00638426
-0.00633291
-0.00636372
-0.00646313
-0.00667353
-0.00702381
-0.00755566
-0.00833073
-0.00943985
-0.0110406
-0.0133316
-0.0166291
-0.0207776
-0.0255854
-0.0289571
-0.0309664
-0.0266256
-0.0243718
-0.0137887
-0.00722065
-0.00709913
-0.0069022
-0.00678622
-0.00680687
-0.00697225
-0.00729262
-0.00778976
-0.00851064
-0.00952384
-0.0109311
-0.0129239
-0.0156602
-0.0189539
-0.0226567
-0.024907
-0.0262835
-0.0220052
-0.0218841
-0.00706839
-0.00769418
-0.008087
-0.00772387
-0.00762791
-0.00750116
-0.0075114
-0.00767152
-0.00801555
-0.00858664
-0.00941727
-0.0106278
-0.0122898
-0.0145419
-0.0171382
-0.02005
-0.0215182
-0.0222931
-0.017901
-0.0166777
0.0083247
-0.0113074
-0.00865737
-0.00788769
-0.00711167
-0.00689433
-0.00692799
-0.00716097
-0.00755046
-0.00812758
-0.00889533
-0.00999275
-0.0114309
-0.0133588
-0.0154819
-0.0177637
-0.018574
-0.0182869
-0.0124504
-0.00491408
0.0374066
-0.00763791
-0.0105986
-0.00945946
-0.00934694
-0.00875718
-0.00838779
-0.00819564
-0.00820955
-0.00848371
-0.00900276
-0.0098955
-0.0111425
-0.012992
-0.0150808
-0.0176403
-0.0184013
-0.0175454
-0.00537789
0.0166071
0.0909687
-0.0331684
-0.00786395
-0.00626718
-0.00540949
-0.00507607
-0.00514363
-0.005501
-0.00595096
-0.00660582
-0.00736637
-0.00850301
-0.00982479
-0.0116268
-0.0131574
-0.0142352
-0.0112607
-0.00182147
0.0298275
0.0922435
0.22008
9.64575e-05
6.20704e-05
0.000113258
0.000213494
0.00037239
0.00059202
0.000876971
0.00123336
0.00166749
0.00218438
0.00278563
0.00346634
0.0042107
0.00498724
0.00574355
0.00640854
0.00690116
0.00716638
0.00723143
0.00708552
0.00013477
9.95225e-05
0.000160052
0.000263784
0.000422404
0.000638693
0.00091766
0.00126539
0.00168801
0.00219066
0.00277567
0.00343956
0.00416748
0.00493223
0.00568249
0.00634579
0.00683531
0.00708968
0.00714399
0.00697965
7.06466e-05
2.46645e-05
8.38126e-05
0.000182759
0.000334188
0.000540864
0.000808289
0.00114342
0.00155388
0.00204724
0.00262931
0.00330102
0.00405461
0.00486481
0.00567809
0.00640896
0.00694375
0.0071907
0.00719186
0.00695247
-7.25131e-05
-0.000125711
-7.03763e-05
2.02581e-05
0.000159844
0.000351262
0.00060069
0.000916308
0.00130784
0.00178639
0.00236337
0.003047
0.00383626
0.00471562
0.00563045
0.00647717
0.00709722
0.00733605
0.00723942
0.00686907
-0.000307298
-0.000366274
-0.000318114
-0.000240092
-0.000117769
5.18793e-05
0.000275691
0.000563126
0.000926285
0.00138039
0.0019436
0.00263478
0.00346649
0.00443248
0.00548888
0.00651187
0.0072746
0.00750754
0.00725804
0.0066663
-0.000631881
-0.000696096
-0.000658248
-0.000597313
-0.000498465
-0.000358794
-0.000171277
7.42549e-05
0.000391568
0.000799311
0.00132206
0.00199046
0.00283572
0.0038701
0.0050776
0.00633287
0.00732149
0.00757085
0.00713623
0.00617543
-0.00104055
-0.00111013
-0.0010856
-0.00104658
-0.000978443
-0.000879006
-0.000742125
-0.00055857
-0.000315153
7.05324e-06
0.000434812
0.00100483
0.00176183
0.00274837
0.00399979
0.00546715
0.0067836
0.00719933
0.0066882
0.00529081
-0.00152546
-0.0016009
-0.00159247
-0.00158024
-0.00155051
-0.00150287
-0.00143374
-0.00133751
-0.00120609
-0.0010274
-0.000784036
-0.00045431
-1.19977e-05
0.000596924
0.00149883
0.00289141
0.00456863
0.00570107
0.00564696
0.00428316
-0.00207668
-0.00215854
-0.00216817
-0.00218663
-0.00220207
-0.00221717
-0.00223316
-0.00225172
-0.00227609
-0.00231252
-0.00237518
-0.00250277
-0.00277264
-0.00319604
-0.00343629
-0.00285173
-0.000961937
0.00177094
0.00353469
0.00381879
-0.00268254
-0.00277104
-0.0027988
-0.00284938
-0.00291354
-0.00299859
-0.00311274
-0.00326873
-0.00348812
-0.0038089
-0.00430191
-0.00511122
-0.00649725
-0.00857666
-0.0108874
-0.0117307
-0.00996347
-0.00539344
-0.000610406
0.00293875
-0.00333064
-0.00342577
-0.00346886
-0.0035489
-0.00365964
-0.00381433
-0.00402952
-0.0043313
-0.00476364
-0.00540404
-0.00639305
-0.00798881
-0.0106125
-0.0143999
-0.018715
-0.0213012
-0.0203584
-0.0147773
-0.00756029
-0.000898399
-0.00400824
-0.00410831
-0.0041581
-0.0042582
-0.00440531
-0.00461886
-0.00492276
-0.0053546
-0.00597691
-0.00689766
-0.00830685
-0.0105274
-0.0140375
-0.0189066
-0.0244264
-0.0281461
-0.0283644
-0.0231255
-0.0157482
-0.00723711
-0.00470958
-0.00481456
-0.00485884
-0.00496346
-0.00512694
-0.00537523
-0.00573751
-0.00625814
-0.00700857
-0.00810863
-0.00976394
-0.0123001
-0.0161633
-0.0213275
-0.0272145
-0.0312822
-0.0324412
-0.0279719
-0.0217493
-0.0128502
-0.00542311
-0.00551997
-0.00552874
-0.00560886
-0.00576237
-0.00601779
-0.00640327
-0.00696228
-0.00776525
-0.00892516
-0.0106347
-0.0131713
-0.0169126
-0.0217042
-0.0272592
-0.030884
-0.0326487
-0.0285536
-0.0242843
-0.0153673
-0.00617715
-0.00628188
-0.00623189
-0.00626699
-0.00637023
-0.0065837
-0.0069357
-0.00746749
-0.00824116
-0.0093495
-0.0109547
-0.0132515
-0.0165591
-0.0206395
-0.0252087
-0.0280867
-0.0295726
-0.0254802
-0.0235681
-0.0137515
-0.00707496
-0.00696381
-0.00676917
-0.00665967
-0.00668519
-0.00685414
-0.0071755
-0.00766985
-0.00838332
-0.00938336
-0.010785
-0.0127577
-0.0154764
-0.0186956
-0.0222203
-0.0240959
-0.0250651
-0.0209385
-0.0208268
-0.00685973
-0.00750935
-0.00791886
-0.00755215
-0.00746701
-0.00734674
-0.00736177
-0.00752226
-0.0078611
-0.00842006
-0.00923602
-0.0104242
-0.0120617
-0.0142929
-0.0168424
-0.0196506
-0.0209326
-0.0214567
-0.0172116
-0.0157452
0.00879455
-0.0110517
-0.00843066
-0.00766071
-0.00690094
-0.00669094
-0.00673199
-0.00696755
-0.00735347
-0.0079189
-0.00866811
-0.00974148
-0.0111538
-0.0130598
-0.0151524
-0.0173701
-0.0180826
-0.0176242
-0.0119752
-0.0041538
0.0382596
-0.00735477
-0.0103584
-0.00920938
-0.00911784
-0.00853406
-0.00817109
-0.00797971
-0.00798749
-0.00824852
-0.00874636
-0.00961595
-0.01084
-0.0126782
-0.0147574
-0.0173083
-0.0180223
-0.0170813
-0.00499587
0.017317
0.0924535
-0.0328598
-0.00755455
-0.00595061
-0.00510566
-0.00479221
-0.00487752
-0.00524487
-0.00569489
-0.00634129
-0.00708535
-0.0082019
-0.00950485
-0.0112919
-0.0128116
-0.0138604
-0.01084
-0.00122717
0.0306319
0.0936755
0.222637
0.000126151
9.13279e-05
0.000143491
0.000245547
0.000407528
0.000631734
0.000923152
0.00128845
0.0017346
0.00226742
0.00288917
0.00359539
0.0043701
0.00517949
0.00596787
0.00665799
0.00716172
0.00742079
0.00746873
0.00730492
0.000165911
0.000129881
0.00019149
0.000297087
0.000458789
0.000679575
0.000964844
0.0013212
0.00175544
0.00227346
0.00287832
0.00356701
0.00432452
0.00512222
0.00590474
0.00659318
0.00709275
0.00733835
0.00737275
0.00719268
0.000104151
5.7178e-05
0.000117509
0.000218394
0.00037299
0.000584262
0.000858134
0.00120214
0.00162465
0.00213414
0.00273738
0.0034361
0.00422313
0.00507121
0.00592226
0.00668246
0.00722701
0.00745805
0.00742885
0.00716872
-3.62896e-05
-9.06418e-05
-3.40167e-05
5.86548e-05
0.000201547
0.000397757
0.000653933
0.00097891
0.00138329
0.0018793
0.00247965
0.00319384
0.00402162
0.00494532
0.00590533
0.00678642
0.00741319
0.00762179
0.00747724
0.00707963
-0.000268517
-0.000328768
-0.000279227
-0.000199065
-7.32615e-05
0.000101455
0.000332447
0.000629921
0.00100698
0.00148019
0.00206937
0.00279459
0.00366759
0.00468726
0.00579692
0.00685798
0.00761829
0.00779723
0.00747577
0.00684967
-0.000590827
-0.000656421
-0.000617143
-0.000554
-0.000451538
-0.000306582
-0.000111536
0.000144555
0.000476528
0.000904413
0.00145448
0.00215924
0.00305137
0.00414016
0.00539779
0.00668556
0.0076504
0.0078096
0.00729203
0.00628689
-0.00099752
-0.00106859
-0.00104265
-0.00100147
-0.000929746
-0.000825053
-0.000680705
-0.000486749
-0.0002291
0.000112149
0.000564639
0.00116552
0.00195769
0.00297876
0.0042554
0.00572165
0.00698383
0.00729987
0.00673511
0.00528844
-0.00148064
-0.00155771
-0.00154801
-0.00153383
-0.00150084
-0.00144841
-0.00137256
-0.00126726
-0.00112409
-0.000931141
-0.000672639
-0.0003324
0.000104434
0.000677481
0.00152106
0.00280428
0.00444087
0.00556478
0.00555764
0.00421037
-0.00203004
-0.00211368
-0.00212231
-0.00213928
-0.00215211
-0.00216343
-0.00217432
-0.00218655
-0.00220412
-0.00223567
-0.00230173
-0.00245597
-0.00280203
-0.00336205
-0.00377359
-0.00338927
-0.00161502
0.00122988
0.00327629
0.00380824
-0.00263367
-0.00272411
-0.00275127
-0.00280101
-0.00286354
-0.00294628
-0.00305764
-0.0032112
-0.0034307
-0.00375959
-0.00428092
-0.00516349
-0.00670494
-0.00903405
-0.0116783
-0.012804
-0.0112367
-0.00650994
-0.00120357
0.00283177
-0.00327857
-0.00337584
-0.00341881
-0.00349879
-0.00360902
-0.00376302
-0.00397787
-0.00428108
-0.00471997
-0.00537947
-0.00641534
-0.00811268
-0.0109234
-0.0149717
-0.0196031
-0.022481
-0.0218613
-0.0163075
-0.00861478
-0.00140158
-0.00395124
-0.00405358
-0.00410373
-0.00420452
-0.00435215
-0.00456631
-0.00487154
-0.00530692
-0.00593831
-0.00688055
-0.00833683
-0.0106516
-0.014314
-0.0193569
-0.0250422
-0.028816
-0.0292406
-0.0242377
-0.0168106
-0.0080381
-0.00464506
-0.00475254
-0.00479762
-0.00490357
-0.00506829
-0.00531784
-0.00568179
-0.0062056
-0.00696307
-0.00807875
-0.00976644
-0.0123651
-0.0163156
-0.0215304
-0.0273847
-0.0311841
-0.0323242
-0.02811
-0.0221995
-0.0134128
-0.0053471
-0.00544667
-0.00545659
-0.00553862
-0.0056938
-0.00595056
-0.00633704
-0.00689706
-0.00770213
-0.00886751
-0.0105891
-0.0131488
-0.0169089
-0.021635
-0.0270181
-0.030204
-0.0316957
-0.0278268
-0.0241143
-0.0154689
-0.00608598
-0.00619387
-0.00614494
-0.00618251
-0.00628758
-0.00650204
-0.0068537
-0.00738348
-0.00815346
-0.0092569
-0.0108569
-0.0131408
-0.0164282
-0.0204141
-0.0247401
-0.0272137
-0.0283583
-0.024509
-0.023032
-0.0134958
-0.00695871
-0.00685253
-0.00666019
-0.00655496
-0.00658291
-0.00675284
-0.00707289
-0.00756282
-0.0082681
-0.0092557
-0.0106411
-0.0125876
-0.0152712
-0.0184059
-0.0217661
-0.0233648
-0.024072
-0.020164
-0.0202574
-0.00645816
-0.00737741
-0.0077931
-0.00742296
-0.00734295
-0.00722487
-0.00724091
-0.00739925
-0.00773178
-0.00827971
-0.00907998
-0.0102472
-0.011856
-0.0140538
-0.0165436
-0.0192505
-0.0204073
-0.0207876
-0.0167437
-0.0153955
0.00932287
-0.0108631
-0.00826263
-0.00749937
-0.00675196
-0.00654549
-0.00658836
-0.00682206
-0.00720179
-0.0077563
-0.00848878
-0.00954199
-0.010928
-0.0128055
-0.0148515
-0.0170008
-0.017635
-0.017101
-0.011642
-0.00387936
0.0390005
-0.00720976
-0.0102245
-0.00906087
-0.00897634
-0.00839017
-0.00802552
-0.00782899
-0.00782805
-0.00807733
-0.00855757
-0.0094096
-0.0106099
-0.0124274
-0.0144696
-0.0169775
-0.0176327
-0.0166403
-0.00457583
0.0177675
0.0936326
-0.0326714
-0.00737731
-0.00576832
-0.00492486
-0.00461825
-0.00470915
-0.00507921
-0.00552506
-0.00616433
-0.00689368
-0.0079961
-0.00927644
-0.0110422
-0.0125196
-0.0135141
-0.0103993
-0.000677865
0.0313645
0.0946097
0.224357
0.000152563
0.000117801
0.000171069
0.000275063
0.000440122
0.000668787
0.000966412
0.00134014
0.00179751
0.00234497
0.00298531
0.00371431
0.00451561
0.00535375
0.0061696
0.00688073
0.00739311
0.00764597
0.007679
0.0075006
0.000193018
0.000156796
0.000219529
0.000327079
0.000491867
0.000717085
0.00100848
0.0013731
0.00181828
0.00235054
0.0029735
0.00368437
0.00446814
0.00529435
0.0061043
0.0068135
0.00732047
0.00755722
0.00757406
0.00738153
0.000132768
8.55226e-05
0.000147048
0.000249958
0.000407735
0.000623561
0.000903726
0.00125625
0.0016901
0.00221448
0.00283685
0.00355953
0.00437555
0.00525575
0.00613811
0.00692165
0.00747225
0.00768727
0.00763123
0.00735575
-5.83257e-06
-6.05153e-05
-2.62041e-06
9.21681e-05
0.000238377
0.000439332
0.000702079
0.00103599
0.00145236
0.00196428
0.00258534
0.00332582
0.004186
0.00514633
0.00614245
0.00704937
0.00767767
0.00785688
0.00766796
0.00725366
-0.000236206
-0.000296825
-0.000245946
-0.000163575
-3.43056e-05
0.000145382
0.000383291
0.000690216
0.00108004
0.00157026
0.00218184
0.00293577
0.00384378
0.00490398
0.0060538
0.00714143
0.00789256
0.00801904
0.0076307
0.00698903
-0.000556775
-0.00062277
-0.00058212
-0.000516718
-0.000410699
-0.000260629
-5.84554e-05
0.000207375
0.000552452
0.000997717
0.00157047
0.00230366
0.00322827
0.00435434
0.00565053
0.00695851
0.00789195
0.00796432
0.00736858
0.00635198
-0.00096189
-0.0010334
-0.00100613
-0.000962736
-0.000887525
-0.000777818
-0.000626525
-0.000423199
-0.000153223
0.000203732
0.000675372
0.0012979
0.00211125
0.00314259
0.00443499
0.00589216
0.00708939
0.00730752
0.00669314
0.00524669
-0.00144354
-0.00152111
-0.00151021
-0.00149403
-0.00145787
-0.00140091
-0.00131892
-0.00120567
-0.00105282
-0.000849218
-0.000581528
-0.000239428