/*--------------------------------*- C++ -*----------------------------------*\
  =========                 |
  \\      /  F ield         | OpenFOAM: The Open Source CFD Toolbox
   \\    /   O peration     | Website:  https://openfoam.org
    \\  /    A nd           | Version:  10
     \\/     M anipulation  |
\*---------------------------------------------------------------------------*/
FoamFile
{
    format      ascii;
    class       volScalarField;
    location    "5.5";
    object      p;
}
// * * * * * * * * * * * * * * * * * * * * * * * * * * * * * * * * * * * * * //

dimensions      [0 2 -2 0 0 0 0];

internalField   nonuniform List<scalar> 
400
(
1.18576e-08
-2.19118e-05
1.59244e-05
9.08175e-05
0.000208961
0.000371484
0.000579866
0.000835593
0.00113936
0.00149031
0.00188526
0.00231765
0.00277666
0.0032463
0.00370507
0.00412653
0.0044807
0.0047375
0.00488946
0.00487785
2.28792e-05
2.1364e-07
4.15475e-05
0.000115923
0.000231108
0.000388957
0.000591437
0.000840423
0.00113698
0.00148073
0.00186899
0.00229567
0.00275046
0.00321845
0.00367826
0.00410328
0.00446262
0.00472552
0.00488597
0.00487205
-1.99556e-05
-4.88731e-05
-9.16264e-06
6.20437e-05
0.000173334
0.000326837
0.000525037
0.000770575
0.00106546
0.00141039
0.00180392
0.00224148
0.0027144
0.00320727
0.00369807
0.00415782
0.00455126
0.0048411
0.00501903
0.00499614
-0.000109036
-0.000142601
-0.000105458
-3.8783e-05
6.6943e-05
0.000214286
0.000406542
0.000647503
0.000940667
0.00128856
0.00169178
0.0021478
0.00264962
0.00318384
0.0037274
0.00424759
0.0047013
0.00503987
0.00525013
0.00522059
-0.000250022
-0.00028812
-0.000254752
-0.000194168
-9.58482e-05
4.3337e-05
0.000227718
0.000462582
0.000753421
0.00110531
0.00152188
0.00200389
0.00254727
0.003141
0.00376179
0.00437267
0.00492046
0.00533783
0.00560118
0.00556557
-0.000442412
-0.000485655
-0.000457389
-0.000404879
-0.00031658
-0.000188753
-1.58896e-05
0.00020905
0.000493992
0.000847298
0.0012768
0.00178806
0.00238191
0.00305263
0.0037783
0.00451795
0.00520534
0.00574623
0.00609501
0.00605486
-0.000684983
-0.000734377
-0.000712744
-0.000670878
-0.000596238
-0.000484539
-0.000329096
-0.000121004
0.000150422
0.0004975
0.00093355
0.00147107
0.00211797
0.00287909
0.00373737
0.00465163
0.00554117
0.00627552
0.00676408
0.00672821
-0.000976399
-0.00103321
-0.00101995
-0.000991851
-0.000935508
-0.000846336
-0.000716704
-0.000536002
-0.000290781
3.55924e-05
0.000462966
0.00101352
0.00170932
0.00255914
0.00357139
0.00471084
0.00588639
0.00692408
0.00765087
0.00765269
-0.00131495
-0.00138057
-0.00137741
-0.00136649
-0.00133379
-0.00127493
-0.0011819
-0.00104296
-0.000842483
-0.0005599
-0.000168874
0.000363207
0.00107328
0.00199602
0.00316502
0.00457179
0.00613705
0.00765145
0.00880317
0.00894986
-0.00169852
-0.00177434
-0.00178254
-0.00179192
-0.00178831
-0.00176826
-0.00172435
-0.00164495
-0.00151363
-0.00130748
-0.000995149
-0.000534114
0.000131502
0.00106949
0.00233617
0.00399629
0.00604069
0.00828891
0.0102191
0.010831
-0.00212484
-0.00221206
-0.00223168
-0.00226332
-0.00229329
-0.00232011
-0.00233822
-0.00233784
-0.00230431
-0.00221603
-0.00204134
-0.00173403
-0.00122773
-0.000431124
0.00076803
0.00249664
0.00496018
0.00822864
0.0116107
0.0132011
-0.00259237
-0.00269157
-0.00272013
-0.00277347
-0.00283912
-0.00291866
-0.00301
-0.00310728
-0.00320084
-0.00327547
-0.00330789
-0.00326276
-0.003085
-0.00268827
-0.0019491
-0.000691438
0.00152206
0.00561082
0.0110301
0.0147588
-0.00310212
-0.00321299
-0.00324408
-0.0033144
-0.00341294
-0.003546
-0.00371685
-0.00392556
-0.00417114
-0.00445146
-0.00476293
-0.00510102
-0.00546222
-0.00585854
-0.00637201
-0.00706648
-0.00727167
-0.00417944
0.00259852
0.0104449
-0.00365593
-0.00376965
-0.0037854
-0.00386027
-0.00398511
-0.00416956
-0.00442019
-0.00474465
-0.00515331
-0.00566175
-0.00629645
-0.00710643
-0.00819115
-0.00976297
-0.0123478
-0.016523
-0.0221012
-0.0218851
-0.0148086
-0.00159416
-0.00428779
-0.00441657
-0.00440316
-0.00447301
-0.00460041
-0.00480861
-0.00511325
-0.00553164
-0.00608683
-0.00681446
-0.00777549
-0.00907908
-0.010957
-0.0138296
-0.0187402
-0.02667
-0.0384539
-0.0421243
-0.0359214
-0.0174281
-0.0050772
-0.00500864
-0.00488865
-0.00487371
-0.00498691
-0.00523235
-0.00561137
-0.00613348
-0.00682337
-0.00772574
-0.00892375
-0.0105643
-0.0129791
-0.0166255
-0.0231571
-0.0326698
-0.0476152
-0.0533231
-0.0485253
-0.0245597
-0.00556714
-0.0060023
-0.00574136
-0.00578374
-0.00581686
-0.00598043
-0.00629142
-0.00677765
-0.00747105
-0.00841248
-0.0096858
-0.0114072
-0.0139543
-0.0174998
-0.0245995
-0.0335393
-0.0469434
-0.0514965
-0.0450165
-0.0112376
-0.00892063
-0.00641062
-0.00583285
-0.00532254
-0.00531694
-0.00557272
-0.00603499
-0.00666317
-0.00747378
-0.00848694
-0.00980136
-0.0114764
-0.0138728
-0.0172589
-0.0228486
-0.0296093
-0.0381807
-0.0384795
-0.0259337
0.0241736
-0.00568825
-0.00866718
-0.00767668
-0.00776312
-0.00740172
-0.00725826
-0.00731493
-0.00759929
-0.00815153
-0.00894831
-0.0100695
-0.0115409
-0.0137754
-0.0167717
-0.0218428
-0.0271002
-0.033012
-0.0234278
0.00468507
0.0865427
-0.0307626
-0.00577391
-0.00439484
-0.00371493
-0.00358764
-0.00389418
-0.00454104
-0.00530324
-0.00626318
-0.00737022
-0.00881286
-0.0105389
-0.0129865
-0.0157335
-0.0190269
-0.0195428
-0.0141365
0.0167793
0.08743
0.224316
)
;

boundaryField
{
    movingWall
    {
        type            zeroGradient;
    }
    fixedWalls
    {
        type            zeroGradient;
    }
    frontAndBack
    {
        type            empty;
    }
}


// ************************************************************************* //
