/*--------------------------------*- C++ -*----------------------------------*\
  =========                 |
  \\      /  F ield         | OpenFOAM: The Open Source CFD Toolbox
   \\    /   O peration     | Website:  https://openfoam.org
    \\  /    A nd           | Version:  10
     \\/     M anipulation  |
\*---------------------------------------------------------------------------*/
FoamFile
{
    format      ascii;
    class       volVectorField;
    location    "5.5";
    object      U;
}
// * * * * * * * * * * * * * * * * * * * * * * * * * * * * * * * * * * * * * //

dimensions      [0 1 -1 0 0 0 0];

internalField   nonuniform List<vector> 
400
(
(-9.36715e-05 8.67745e-05 0)
(-0.000821983 0.000314683 0)
(-0.00205739 0.000388397 0)
(-0.00327003 0.000401445 0)
(-0.00447977 0.000398533 0)
(-0.00564793 0.000390841 0)
(-0.00675282 0.000377622 0)
(-0.00777105 0.000355346 0)
(-0.00867158 0.000320008 0)
(-0.00941539 0.000267466 0)
(-0.00995559 0.000193907 0)
(-0.0102389 9.68109e-05 0)
(-0.0102072 -2.69415e-05 0)
(-0.00980376 -0.000175837 0)
(-0.00898316 -0.000343546 0)
(-0.00772077 -0.000517492 0)
(-0.00603574 -0.000674033 0)
(-0.00404727 -0.000770159 0)
(-0.00180016 -0.000717383 0)
(-0.000299245 -0.00032594 0)
(-0.00034232 0.0008306 0)
(-0.00185699 0.00178698 0)
(-0.00414859 0.00207998 0)
(-0.00638988 0.00210957 0)
(-0.00859344 0.00205112 0)
(-0.0106861 0.00195142 0)
(-0.0126203 0.00181271 0)
(-0.0143507 0.00162609 0)
(-0.0158246 0.00138023 0)
(-0.0169805 0.00106326 0)
(-0.0177487 0.00066407 0)
(-0.0180554 0.000173546 0)
(-0.0178222 -0.000410043 0)
(-0.0169727 -0.00107449 0)
(-0.0154509 -0.00179248 0)
(-0.013233 -0.00251272 0)
(-0.010363 -0.00314389 0)
(-0.00702151 -0.00351779 0)
(-0.00329219 -0.00330207 0)
(-0.000657874 -0.00176239 0)
(-0.000438925 0.00214985 0)
(-0.00227577 0.0041248 0)
(-0.00499784 0.00470447 0)
(-0.00764276 0.00473334 0)
(-0.0102299 0.00456514 0)
(-0.012676 0.00429579 0)
(-0.0149276 0.00393459 0)
(-0.0169345 0.00346879 0)
(-0.0186393 0.00288004 0)
(-0.0199765 0.00214845 0)
(-0.0208724 0.00125535 0)
(-0.021244 0.000186532 0)
(-0.0209976 -0.00105866 0)
(-0.0200426 -0.00245902 0)
(-0.0183058 -0.00395978 0)
(-0.015744 -0.0054576 0)
(-0.0123897 -0.00676843 0)
(-0.0084418 -0.00754981 0)
(-0.00398922 -0.00713337 0)
(-0.000808872 -0.00402529 0)
(-0.000468865 0.00352024 0)
(-0.00244336 0.00656658 0)
(-0.00536573 0.00743459 0)
(-0.00819687 0.00745453 0)
(-0.0109687 0.00717167 0)
(-0.0135969 0.00673214 0)
(-0.0160304 0.00615165 0)
(-0.0182215 0.00541302 0)
(-0.0201147 0.0044898 0)
(-0.0216441 0.00335188 0)
(-0.022732 0.00196968 0)
(-0.0232877 0.000320953 0)
(-0.0232016 -0.00160098 0)
(-0.0223516 -0.00377698 0)
(-0.0206219 -0.00613258 0)
(-0.0179207 -0.00851526 0)
(-0.0142395 -0.0106378 0)
(-0.00978336 -0.0119459 0)
(-0.00464466 -0.011364 0)
(-0.000939079 -0.00651154 0)
(-0.000482283 0.00496523 0)
(-0.00255166 0.00915266 0)
(-0.0056272 0.0103253 0)
(-0.00860649 0.0103394 0)
(-0.0115347 0.00994541 0)
(-0.0143294 0.00934267 0)
(-0.0169459 0.00855392 0)
(-0.0193433 0.00755729 0)
(-0.0214714 0.00631686 0)
(-0.023267 0.00478897 0)
(-0.0246495 0.00292692 0)
(-0.0255154 0.000689107 0)
(-0.0257339 -0.00194822 0)
(-0.0251411 -0.00497968 0)
(-0.0235543 -0.00832473 0)
(-0.0207994 -0.011787 0)
(-0.0167796 -0.0149587 0)
(-0.01168 -0.01701 0)
(-0.00559975 -0.0163283 0)
(-0.00113752 -0.00944645 0)
(-0.000495896 0.00646969 0)
(-0.00266668 0.0118708 0)
(-0.00590952 0.0133695 0)
(-0.00905362 0.0133857 0)
(-0.0121581 0.0128909 0)
(-0.0151445 0.012142 0)
(-0.0179776 0.01117 0)
(-0.020627 0.0099484 0)
(-0.0230524 0.00843037 0)
(-0.0251983 0.00655482 0)
(-0.0269859 0.00425003 0)
(-0.0283024 0.00144205 0)
(-0.0289939 -0.00193074 0)
(-0.028842 -0.00590147 0)
(-0.0275704 -0.0104103 0)
(-0.0248763 -0.0152334 0)
(-0.0205068 -0.0198239 0)
(-0.0145592 -0.0229907 0)
(-0.00711881 -0.0223598 0)
(-0.00147865 -0.013071 0)
(-0.00051325 0.00804171 0)
(-0.00280486 0.0147382 0)
(-0.0062442 0.0165872 0)
(-0.00957964 0.0166148 0)
(-0.0128866 0.0160318 0)
(-0.0160919 0.0151589 0)
(-0.0191735 0.0140376 0)
(-0.0221166 0.0126378 0)
(-0.0248976 0.0109015 0)
(-0.0274778 0.00874655 0)
(-0.0297895 0.00606806 0)
(-0.0317198 0.00274355 0)
(-0.0330992 -0.00135368 0)
(-0.0336531 -0.00632653 0)
(-0.0329864 -0.0121939 0)
(-0.030607 -0.0187497 0)
(-0.0260002 -0.0253136 0)
(-0.0190202 -0.0302266 0)
(-0.00965511 -0.0299881 0)
(-0.0021106 -0.0178282 0)
(-0.000534622 0.00969617 0)
(-0.00296934 0.0177828 0)
(-0.00663657 0.0200074 0)
(-0.0101872 0.0200527 0)
(-0.0137163 0.0193925 0)
(-0.0171577 0.0184189 0)
(-0.0205066 0.017188 0)
(-0.0237698 0.0156694 0)
(-0.0269498 0.0137955 0)
(-0.0300372 0.0114632 0)
(-0.0329935 0.00852822 0)
(-0.0357282 0.00480228 0)
(-0.0380709 6.04031e-05 0)
(-0.0397123 -0.00591421 0)
(-0.040136 -0.013312 0)
(-0.038595 -0.0220457 0)
(-0.0341712 -0.0313732 0)
(-0.0261803 -0.0390816 0)
(-0.0142433 -0.0400305 0)
(-0.00340963 -0.0245734 0)
(-0.000560802 0.0114488 0)
(-0.00316345 0.0210335 0)
(-0.00709012 0.0236561 0)
(-0.0108739 0.0237183 0)
(-0.014634 0.0229856 0)
(-0.0183126 0.0219316 0)
(-0.0219265 0.0206332 0)
(-0.0255112 0.0190657 0)
(-0.0291059 0.0171584 0)
(-0.0327472 0.0147916 0)
(-0.0364526 0.011783 0)
(-0.0401907 0.0078701 0)
(-0.0438263 0.00270253 0)
(-0.0470795 -0.00414135 0)
(-0.0493669 -0.0131114 0)
(-0.0496713 -0.0244348 0)
(-0.0465398 -0.037534 0)
(-0.0382771 -0.0497337 0)
(-0.0233551 -0.0537477 0)
(-0.00634967 -0.0351536 0)
(-0.000594795 0.0133186 0)
(-0.0033965 0.0245216 0)
(-0.00761634 0.027556 0)
(-0.0116446 0.0276207 0)
(-0.0156307 0.026808 0)
(-0.019527 0.0256852 0)
(-0.0233756 0.0243578 0)
(-0.0272465 0.0228162 0)
(-0.0312261 0.0209985 0)
(-0.0354153 0.018783 0)
(-0.0399189 0.0159639 0)
(-0.0448169 0.0122147 0)
(-0.0501107 0.00704458 0)
(-0.0556464 -0.000236537 0)
(-0.0609325 -0.0104389 0)
(-0.0648984 -0.0244266 0)
(-0.0655719 -0.0422528 0)
(-0.059512 -0.0614951 0)
(-0.0420338 -0.0729524 0)
(-0.0130227 -0.0534316 0)
(-0.000643749 0.0153341 0)
(-0.00368919 0.0282861 0)
(-0.0082424 0.0317283 0)
(-0.0125195 0.0317589 0)
(-0.0167112 0.0308386 0)
(-0.0207809 0.0296415 0)
(-0.0247988 0.0283106 0)
(-0.0288727 0.026863 0)
(-0.0331417 0.0252631 0)
(-0.0377855 0.0234131 0)
(-0.0430279 0.0211198 0)
(-0.0491291 0.0180346 0)
(-0.0563476 0.0135631 0)
(-0.0648509 0.00676823 0)
(-0.0746808 -0.00364395 0)
(-0.0852778 -0.0192532 0)
(-0.0943819 -0.0419249 0)
(-0.0952333 -0.0718632 0)
(-0.0753442 -0.100283 0)
(-0.0248507 -0.0879758 0)
(-0.000722574 0.0175432 0)
(-0.00408186 0.032383 0)
(-0.00902119 0.0361981 0)
(-0.013544 0.0361241 0)
(-0.0179027 0.035037 0)
(-0.0220741 0.033732 0)
(-0.0261576 0.032398 0)
(-0.0302966 0.0310899 0)
(-0.0346792 0.0298194 0)
(-0.0395636 0.0285513 0)
(-0.0453092 0.0271681 0)
(-0.052415 0.0253996 0)
(-0.0615483 0.022705 0)
(-0.0735379 0.0181177 0)
(-0.0893636 0.0100586 0)
(-0.110023 -0.00420748 0)
(-0.132798 -0.0304606 0)
(-0.143041 -0.0779127 0)
(-0.116118 -0.141813 0)
(-0.0369671 -0.150799 0)
(-0.00086047 0.0200168 0)
(-0.00464611 0.0368543 0)
(-0.010044 0.040932 0)
(-0.0148017 0.0406329 0)
(-0.0192688 0.0392983 0)
(-0.0234395 0.0378354 0)
(-0.0274446 0.0364692 0)
(-0.031454 0.0353017 0)
(-0.035683 0.0344142 0)
(-0.0404405 0.0338741 0)
(-0.0461915 0.033718 0)
(-0.0536549 0.0339026 0)
(-0.0639396 0.034213 0)
(-0.0787309 0.0340966 0)
(-0.100576 0.0321214 0)
(-0.13169 0.0231541 0)
(-0.166086 -0.00750736 0)
(-0.177124 -0.0880056 0)
(-0.138582 -0.208743 0)
(-0.0429837 -0.244018 0)
(-0.00113246 0.0229848 0)
(-0.00556132 0.0420997 0)
(-0.0114889 0.0463731 0)
(-0.0164072 0.0457074 0)
(-0.020874 0.0439062 0)
(-0.0249222 0.0420639 0)
(-0.0286943 0.0404842 0)
(-0.0323539 0.0393295 0)
(-0.0361098 0.0387589 0)
(-0.0402655 0.0389765 0)
(-0.0453021 0.0402633 0)
(-0.0520188 0.0429816 0)
(-0.0617391 0.0475631 0)
(-0.0765117 0.0541178 0)
(-0.0994251 0.0608678 0)
(-0.131833 0.0573819 0)
(-0.165767 0.0158524 0)
(-0.167863 -0.107646 0)
(-0.132708 -0.282293 0)
(-0.0459511 -0.346773 0)
(-0.00151634 0.0266433 0)
(-0.00663727 0.0469927 0)
(-0.0133515 0.0507336 0)
(-0.0185566 0.0492257 0)
(-0.0230732 0.0470018 0)
(-0.0268702 0.0450226 0)
(-0.0301747 0.0434633 0)
(-0.033172 0.0424336 0)
(-0.0360219 0.0421298 0)
(-0.0389122 0.0428826 0)
(-0.0421539 0.0452431 0)
(-0.0462945 0.0500558 0)
(-0.0523702 0.0584648 0)
(-0.0618039 0.0708661 0)
(-0.0767859 0.084418 0)
(-0.0967857 0.0820546 0)
(-0.119977 0.0297908 0)
(-0.115217 -0.121356 0)
(-0.108744 -0.328842 0)
(-0.0382783 -0.440979 0)
(-0.00356972 0.0300349 0)
(-0.0109231 0.0557772 0)
(-0.0170925 0.0594081 0)
(-0.0216317 0.0574319 0)
(-0.0253203 0.0539167 0)
(-0.0285165 0.0506645 0)
(-0.0312878 0.0480179 0)
(-0.0336411 0.0461532 0)
(-0.0355454 0.0452765 0)
(-0.0369475 0.045737 0)
(-0.0377873 0.0482124 0)
(-0.0380066 0.0537837 0)
(-0.0379216 0.0640946 0)
(-0.0370793 0.0792179 0)
(-0.0372521 0.0961454 0)
(-0.0349305 0.0930822 0)
(-0.0425126 0.0391717 0)
(-0.0348858 -0.116318 0)
(-0.0666578 -0.344063 0)
(-0.0143377 -0.506282 0)
(-0.00122533 0.0440837 0)
(-0.00886885 0.0583484 0)
(-0.0200283 0.0586264 0)
(-0.0250607 0.0540771 0)
(-0.0296009 0.0507919 0)
(-0.0324376 0.0483159 0)
(-0.0342981 0.0464309 0)
(-0.0352886 0.0450148 0)
(-0.0354053 0.0442322 0)
(-0.0344441 0.0443578 0)
(-0.0320393 0.0460917 0)
(-0.0273559 0.0502402 0)
(-0.0201066 0.0585323 0)
(-0.00726204 0.0706211 0)
(0.00752885 0.084718 0)
(0.0332458 0.0825177 0)
(0.0384324 0.0359265 0)
(0.0481669 -0.0948927 0)
(-0.0128376 -0.328692 0)
(0.0140027 -0.523777 0)
(-0.0122855 0.0332286 0)
(-0.0245868 0.0799881 0)
(-0.0245381 0.0785615 0)
(-0.0312495 0.0733445 0)
(-0.033727 0.0660879 0)
(-0.0345121 0.0598511 0)
(-0.0335453 0.0546237 0)
(-0.0311917 0.0503662 0)
(-0.0276003 0.0470677 0)
(-0.0225587 0.0445642 0)
(-0.0161267 0.0432875 0)
(-0.00692512 0.0434692 0)
(0.00464143 0.0467104 0)
(0.0233453 0.0523772 0)
(0.0439755 0.0608793 0)
(0.0796431 0.0603212 0)
(0.0905767 0.0304771 0)
(0.122996 -0.0611798 0)
(0.0567283 -0.293097 0)
(0.05692 -0.508939 0)
(-0.0769671 0.0970893 0)
(-0.0626758 0.0598327 0)
(-0.0649548 0.06003 0)
(-0.0438858 0.0533641 0)
(-0.0268999 0.0464769 0)
(-0.00738422 0.041309 0)
(0.0110305 0.0375685 0)
(0.0293994 0.0343026 0)
(0.0462352 0.031872 0)
(0.0639331 0.0294771 0)
(0.0790333 0.0279785 0)
(0.0978272 0.0267546 0)
(0.111333 0.0265427 0)
(0.137483 0.0273574 0)
(0.148923 0.0253478 0)
(0.196958 0.0206696 0)
(0.195183 -0.0130279 0)
(0.243119 -0.0808991 0)
(0.169943 -0.266658 0)
(0.12789 -0.446256 0)
(0.119894 0.140602 0)
(0.152501 0.0861064 0)
(0.229769 0.0635752 0)
(0.285026 0.0482019 0)
(0.326462 0.037532 0)
(0.36479 0.0298077 0)
(0.393489 0.0243907 0)
(0.425132 0.0204065 0)
(0.444637 0.0175717 0)
(0.473896 0.0153685 0)
(0.486171 0.0136489 0)
(0.515995 0.0126429 0)
(0.521588 0.0114646 0)
(0.55509 0.0112952 0)
(0.55115 0.00982121 0)
(0.588319 0.00648251 0)
(0.561153 -0.00250361 0)
(0.572379 -0.0266514 0)
(0.433887 -0.0727147 0)
(0.278012 -0.152309 0)
)
;

boundaryField
{
    movingWall
    {
        type            fixedValue;
        value           uniform (1 0 0);
    }
    fixedWalls
    {
        type            noSlip;
    }
    frontAndBack
    {
        type            empty;
    }
}


// ************************************************************************* //
