/*--------------------------------*- C++ -*----------------------------------*\
  =========                 |
  \\      /  F ield         | OpenFOAM: The Open Source CFD Toolbox
   \\    /   O peration     | Website:  https://openfoam.org
    \\  /    A nd           | Version:  10
     \\/     M anipulation  |
\*---------------------------------------------------------------------------*/
FoamFile
{
    format      ascii;
    class       surfaceScalarField;
    location    "4.65";
    object      phi;
}
// * * * * * * * * * * * * * * * * * * * * * * * * * * * * * * * * * * * * * //

dimensions      [0 3 -1 0 0 0 0];

internalField   nonuniform List<scalar> 
760
(
-8.55571e-06
8.55576e-06
-2.80829e-05
1.95272e-05
-5.0488e-05
2.2405e-05
-7.28734e-05
2.23855e-05
-9.4347e-05
2.14736e-05
-0.000114464
2.0117e-05
-0.000132791
1.83272e-05
-0.000148821
1.60302e-05
-0.000161963
1.31412e-05
-0.000171543
9.5805e-06
-0.000176828
5.28453e-06
-0.000177049
2.21046e-07
-0.000171466
-5.5831e-06
-0.000159482
-1.19831e-05
-0.00014077
-1.87122e-05
-0.000115432
-2.53378e-05
-8.43001e-05
-3.11324e-05
-4.95971e-05
-3.4703e-05
-1.68809e-05
-3.27162e-05
-1.68809e-05
-2.03448e-05
2.89006e-05
-5.70509e-05
5.62333e-05
-9.77219e-05
6.3076e-05
-0.000137891
6.25547e-05
-0.000175949
5.95314e-05
-0.000210973
5.51413e-05
-0.000242133
4.94869e-05
-0.000268561
4.24583e-05
-0.000289329
3.39093e-05
-0.000303448
2.36991e-05
-0.00030985
1.16861e-05
-0.000307625
-2.00297e-06
-0.000295711
-1.74979e-05
-0.000273425
-3.4269e-05
-0.000240469
-5.16681e-05
-0.00019719
-6.86162e-05
-0.000144991
-8.33322e-05
-8.73264e-05
-9.23671e-05
-3.23184e-05
-8.77243e-05
-4.91993e-05
-2.46264e-05
5.35269e-05
-6.77811e-05
9.9388e-05
-0.000115154
0.000110449
-0.000161714
0.000109115
-0.000205678
0.000103495
-0.00024602
9.54832e-05
-0.000281821
8.5288e-05
-0.000312136
7.27732e-05
-0.000335961
5.77347e-05
-0.000352229
3.99669e-05
-0.000359863
1.93208e-05
-0.000357612
-4.25396e-06
-0.000344359
-3.07515e-05
-0.000319208
-5.94195e-05
-0.000281655
-8.92213e-05
-0.000231883
-0.000118388
-0.000171305
-0.000143911
-0.000103788
-0.000159884
-3.87903e-05
-0.000152722
-8.79896e-05
-2.63205e-05
7.98474e-05
-7.25253e-05
0.000145593
-0.000123148
0.000161072
-0.000172893
0.00015886
-0.000219956
0.000150558
-0.000263328
0.000138856
-0.000302108
0.000124068
-0.000335358
0.000106023
-0.000362061
8.44375e-05
-0.000381096
5.90016e-05
-0.000391233
2.94585e-05
-0.000391181
-4.30655e-06
-0.000379319
-4.26133e-05
-0.000354334
-8.4404e-05
-0.00031518
-0.000128376
-0.000261555
-0.000172014
-0.00019463
-0.000210835
-0.0001186
-0.000235915
-4.44608e-05
-0.000226861
-0.00013245
-2.7646e-05
0.000107493
-7.65179e-05
0.000194465
-0.000130104
0.000214658
-0.000182864
0.00021162
-0.000233001
0.000200695
-0.000279564
0.000185418
-0.000321712
0.000166216
-0.000358558
0.000142869
-0.000389102
0.000114982
-0.000412176
8.20749e-05
-0.000426388
4.36704e-05
-0.000430216
-4.78097e-07
-0.000421525
-5.13048e-05
-0.000398324
-0.000107604
-0.000358664
-0.000168036
-0.000301269
-0.000229409
-0.000226656
-0.000285448
-0.00013935
-0.000323221
-5.26084e-05
-0.000313602
-0.000185059
-2.92287e-05
0.000136722
-8.12582e-05
0.000246494
-0.00013838
0.00027178
-0.000194755
0.000267995
-0.000248602
0.000254541
-0.000299056
0.000235873
-0.000345384
0.000212544
-0.000386795
0.000184281
-0.00042236
0.000150546
-0.00045091
0.000110625
-0.000470939
6.36999e-05
-0.00048052
9.10278e-06
-0.000477129
-5.46955e-05
-0.000457644
-0.000127089
-0.000418778
-0.000206903
-0.000357635
-0.000290552
-0.000273318
-0.000369764
-0.000170362
-0.000426177
-6.52675e-05
-0.000418697
-0.000250326
-3.12008e-05
0.000167923
-8.70798e-05
0.000302373
-0.000148472
0.000333173
-0.000209171
0.000328693
-0.000267421
0.000312791
-0.000322487
0.000290939
-0.000373796
0.000263853
-0.000420733
0.000231217
-0.000462525
0.000192338
-0.000498106
0.000146206
-0.000525938
9.15314e-05
-0.000543752
2.69173e-05
-0.000548607
-4.98404e-05
-0.000535967
-0.00013973
-0.000500606
-0.000242264
-0.000436984
-0.000354173
-0.000341422
-0.000465326
-0.00021734
-0.000550259
-8.55648e-05
-0.000550472
-0.000335891
-3.35929e-05
0.000201516
-9.40655e-05
0.000362846
-0.000160468
0.000399575
-0.000226148
0.000394373
-0.000289397
0.00037604
-0.000349661
0.000351204
-0.000406604
0.000320795
-0.000459888
0.000284501
-0.000509036
0.000241487
-0.00055325
0.00019042
-0.00059115
0.000129431
-0.000620412
5.6179e-05
-0.000637689
-3.25631e-05
-0.000636914
-0.000140504
-0.000610299
-0.000268879
-0.00054822
-0.000416253
-0.000441844
-0.000571702
-0.000290692
-0.000701411
-0.000120119
-0.000721045
-0.00045601
-3.64536e-05
0.000237969
-0.000102315
0.000428707
-0.000174445
0.000471705
-0.000245664
0.000465592
-0.00031434
0.000444717
-0.000380164
0.000417027
-0.00044313
0.000383761
-0.00050331
0.000344682
-0.000560708
0.000298885
-0.000615051
0.000244763
-0.000665457
0.000179837
-0.000709865
0.000100586
-0.000745389
2.96147e-06
-0.000764122
-0.000121772
-0.000755642
-0.00027736
-0.00070452
-0.000467375
-0.000593095
-0.000683127
-0.000411452
-0.000883054
-0.000184424
-0.000948073
-0.000640434
-3.9901e-05
0.00027787
-0.00011205
0.000500856
-0.000190611
0.000550266
-0.000267795
0.000542776
-0.000342094
0.000519015
-0.000413518
0.000488452
-0.000482497
0.000452741
-0.00054966
0.000411844
-0.000615714
0.000364939
-0.000681271
0.00031032
-0.000746518
0.000245084
-0.000810629
0.000164698
-0.00087029
6.26222e-05
-0.000919995
-7.20663e-05
-0.000945622
-0.000251733
-0.000925164
-0.000487832
-0.000827786
-0.000780506
-0.000624036
-0.0010868
-0.000316374
-0.00125573
-0.000956808
-4.41825e-05
0.000322053
-0.000123721
0.000580395
-0.000209419
0.000635964
-0.000292827
0.000626184
-0.000372638
0.000598826
-0.000449279
0.000565092
-0.000523708
0.00052717
-0.000597238
0.000485374
-0.000671494
0.000439195
-0.000748335
0.000387161
-0.000829639
0.000326388
-0.00091672
0.000251779
-0.00100895
0.000154849
-0.00110411
2.30978e-05
-0.00118863
-0.000167212
-0.00123666
-0.000439803
-0.00120135
-0.000815821
-0.0010143
-0.00127385
-0.000600687
-0.00166935
-0.0015575
-4.97806e-05
0.000371834
-0.000138166
0.000668781
-0.000231725
0.000729522
-0.000321394
0.000715854
-0.000406223
0.000683656
-0.000487168
0.000646036
-0.000565791
0.000605793
-0.000644149
0.000563732
-0.000724899
0.000519944
-0.000811472
0.000473735
-0.000908204
0.000423119
-0.00102021
0.000363782
-0.00115251
0.000287152
-0.00130709
0.00017768
-0.00148527
1.09649e-05
-0.00166429
-0.000260781
-0.00178357
-0.000696537
-0.00168887
-0.00136856
-0.00111657
-0.00224164
-0.00267407
-5.76151e-05
0.000429449
-0.000156876
0.000768042
-0.000259015
0.000831661
-0.000354667
0.000811506
-0.00044352
0.000772509
-0.000527236
0.000729753
-0.00060802
0.000686577
-0.000688571
0.000644283
-0.000772438
0.000603812
-0.000864557
0.000565854
-0.000971973
0.000530534
-0.00110475
0.000496558
-0.00127683
0.000459234
-0.00150605
0.000406897
-0.00180995
0.000314867
-0.00219439
0.000123661
-0.00256631
-0.00032462
-0.00258436
-0.00135051
-0.00173048
-0.00309552
-0.00440454
-6.98173e-05
0.000499266
-0.000182886
0.000881111
-0.000293729
0.000942503
-0.000394108
0.000911885
-0.000485352
0.000863753
-0.000569883
0.000814284
-0.000650236
0.000766929
-0.000729422
0.000723469
-0.000811512
0.000685902
-0.00090244
0.000656782
-0.00101147
0.000639562
-0.00115357
0.000638662
-0.00135315
0.000658817
-0.00164653
0.000700275
-0.00207704
0.000745379
-0.00264531
0.000691928
-0.0031857
0.000215773
-0.00317413
-0.00136208
-0.00200061
-0.00426905
-0.00640515
-8.50128e-05
0.000584279
-0.000215544
0.00101164
-0.000337586
0.00106454
-0.000444494
0.00101879
-0.000536927
0.000956186
-0.000618936
0.000896293
-0.000694402
0.000842395
-0.000766764
0.000795831
-0.000839602
0.00075874
-0.000917832
0.000735011
-0.00101031
0.000732042
-0.00113312
0.00076147
-0.00131625
0.000841949
-0.00160446
0.000988487
-0.00204894
0.00118986
-0.00261651
0.00125949
-0.00311096
0.000710224
-0.00298649
-0.00148655
-0.00184246
-0.00541308
-0.00824761
-0.000149205
0.000733483
-0.000292528
0.00115497
-0.000407187
0.0011792
-0.000501614
0.00111322
-0.000585527
0.0010401
-0.000662018
0.000972783
-0.000732351
0.000912728
-0.00079712
0.0008606
-0.000857453
0.000819073
-0.000915019
0.000792578
-0.00097421
0.000791232
-0.0010436
0.000830865
-0.00114414
0.000942482
-0.00129766
0.00114201
-0.00154402
0.00143622
-0.00182295
0.00153842
-0.00207425
0.000961529
-0.00203852
-0.00152228
-0.00140845
-0.00604315
-0.00965606
-0.000100122
0.000833605
-0.000307871
0.00136271
-0.000467925
0.00133926
-0.000587265
0.00123256
-0.000675453
0.00112829
-0.000741826
0.00103916
-0.000792514
0.000963416
-0.000830432
0.000898519
-0.000856322
0.000844962
-0.000867507
0.000803764
-0.000860455
0.000784181
-0.000826578
0.000796988
-0.000763503
0.000879407
-0.000653986
0.00103249
-0.000516065
0.0012983
-0.000385972
0.00140833
-0.00034981
0.000925368
-0.000546818
-0.00132528
-0.000508619
-0.00608135
-0.0101647
-0.00038955
0.00122315
-0.000491374
0.00146454
-0.000590068
0.00143795
-0.000681109
0.0013236
-0.000729108
0.00117629
-0.000742534
0.00105258
-0.000730241
0.000951122
-0.000695461
0.000863739
-0.00064349
0.000792991
-0.000569355
0.000729628
-0.00047221
0.000687036
-0.000333347
0.000658125
-0.000131446
0.000677506
0.000163381
0.000737665
0.000599267
0.000862412
0.0011013
0.000906296
0.00161558
0.000411084
0.0015089
-0.00121859
0.000851745
-0.00542419
-0.00931293
-0.00133654
0.00255969
-0.00129156
0.00141956
-0.00104819
0.00119459
-0.000699231
0.000974639
-0.000328893
0.000805949
4.09457e-05
0.000682743
0.000396964
0.000595104
0.000733522
0.000527181
0.00105307
0.000473447
0.00135472
0.000427978
0.00164735
0.000394406
0.00193922
0.000366253
0.00226089
0.000355837
0.00264051
0.00035804
0.00316792
0.000335002
0.003805
0.000269217
0.0043724
-0.000156312
0.00432552
-0.00117172
0.0026919
-0.00379057
-0.00662103
0.00255969
0.00397925
0.00517384
0.00614848
0.00695443
0.00763717
0.00823227
0.00875945
0.0092329
0.00966088
0.0100553
0.0104215
0.0107774
0.0111354
0.0114704
0.0117396
0.0115833
0.0104116
0.00662103
)
;

boundaryField
{
    movingWall
    {
        type            calculated;
        value           uniform 0;
    }
    fixedWalls
    {
        type            calculated;
        value           uniform 0;
    }
    frontAndBack
    {
        type            empty;
        value           nonuniform List<scalar> 0();
    }
}


// ************************************************************************* //
