/*--------------------------------*- C++ -*----------------------------------*\
  =========                 |
  \\      /  F ield         | OpenFOAM: The Open Source CFD Toolbox
   \\    /   O peration     | Website:  https://openfoam.org
    \\  /    A nd           | Version:  10
     \\/     M anipulation  |
\*---------------------------------------------------------------------------*/
FoamFile
{
    format      ascii;
    class       surfaceScalarField;
    location    "9.6";
    object      phi;
}
// * * * * * * * * * * * * * * * * * * * * * * * * * * * * * * * * * * * * * //

dimensions      [0 3 -1 0 0 0 0];

internalField   nonuniform List<scalar> 
760
(
-1.41758e-05
1.41758e-05
-4.59355e-05
3.17596e-05
-8.43001e-05
3.83647e-05
-0.000125077
4.07764e-05
-0.000167078
4.2001e-05
-0.000210087
4.30098e-05
-0.00025387
4.37824e-05
-0.000297751
4.38808e-05
-0.000340378
4.26277e-05
-0.000379493
3.91151e-05
-0.000411729
3.22359e-05
-0.000432535
2.08054e-05
-0.000436373
3.83802e-06
-0.000417266
-1.91064e-05
-0.000370779
-4.64871e-05
-0.000296529
-7.42503e-05
-0.000201649
-9.48797e-05
-0.000103007
-9.8642e-05
-2.56263e-05
-7.73809e-05
-2.56263e-05
-3.47776e-05
4.89534e-05
-9.8126e-05
9.51081e-05
-0.000172497
0.000112736
-0.000250929
0.000119208
-0.00033088
0.000121952
-0.00041125
0.000123379
-0.000490955
0.000123488
-0.000568286
0.000121212
-0.000640531
0.000114873
-0.000703679
0.000102263
-0.000752205
8.07621e-05
-0.000778919
4.75189e-05
-0.000776205
1.12382e-06
-0.000735219
-6.00919e-05
-0.000650085
-0.000131622
-0.000520862
-0.000203473
-0.000358703
-0.000257039
-0.000190291
-0.000267054
-5.5343e-05
-0.000212328
-8.09693e-05
-4.45532e-05
9.35066e-05
-0.000123181
0.000173736
-0.000214519
0.000204074
-0.000310176
0.000214865
-0.00040709
0.000218865
-0.000503883
0.000220173
-0.000599255
0.000218859
-0.000691281
0.000213238
-0.000777008
0.0002006
-0.0008521
0.000177355
-0.000910501
0.000139163
-0.000944449
8.14667e-05
-0.000944272
9.46917e-07
-0.00089874
-0.000105623
-0.000798787
-0.000231575
-0.000641469
-0.000360791
-0.000438382
-0.000460126
-0.000225494
-0.000479942
-6.05722e-05
-0.00037725
-0.000141541
-4.83757e-05
0.000141882
-0.00013367
0.00025903
-0.000232451
0.000302856
-0.000335722
0.000318136
-0.00044042
0.000323563
-0.00054538
0.000325132
-0.000649628
0.000323107
-0.000751678
0.000315288
-0.00084909
0.000298012
-0.000938004
0.000266269
-0.00101255
0.000213713
-0.00106421
0.000133121
-0.00108145
1.81895e-05
-0.00104916
-0.000137917
-0.000950483
-0.000330249
-0.000773453
-0.000537821
-0.000524379
-0.0007092
-0.000252608
-0.000751714
-5.43129e-05
-0.000575545
-0.000195854
-4.91259e-05
0.000191008
-0.000136681
0.000346585
-0.000238358
0.000404533
-0.000344986
0.000424764
-0.000453783
0.00043236
-0.000564118
0.000435468
-0.000675769
0.000434758
-0.000788216
0.000427735
-0.000900165
0.000409961
-0.00100894
0.000375045
-0.00110959
0.000314365
-0.00119359
0.000217119
-0.00124709
7.16898e-05
-0.00125013
-0.000134877
-0.00117351
-0.000406866
-0.000985799
-0.000725536
-0.000674581
-0.00102042
-0.000303297
-0.001123
-4.46815e-05
-0.000834161
-0.000240536
-4.8333e-05
0.000239341
-0.000135902
0.000434154
-0.000238246
0.000506876
-0.000346208
0.000532727
-0.000457413
0.000543564
-0.000571981
0.000550036
-0.000690769
0.000553547
-0.000814703
0.000551668
-0.000944331
0.00053959
-0.00107916
0.000509873
-0.00121653
0.000451733
-0.00134982
0.00035041
-0.00146539
0.000187264
-0.00154045
-5.98215e-05
-0.00152705
-0.000420263
-0.00135591
-0.000896672
-0.000967424
-0.00140891
-0.000434744
-0.00165568
-5.1575e-05
-0.00121733
-0.000292111
-4.66433e-05
0.000285985
-0.000132907
0.000520418
-0.000234527
0.000608497
-0.000342405
0.000640605
-0.000454595
0.000655754
-0.000572062
0.000667502
-0.000696978
0.000678463
-0.000832176
0.000686866
-0.000980858
0.000688272
-0.00114618
0.00067519
-0.00133029
0.000635848
-0.0015327
0.00055282
-0.00174631
0.000400877
-0.00194775
0.000141611
-0.00206846
-0.000299554
-0.00196673
-0.000998393
-0.00150353
-0.00187211
-0.000762774
-0.00239643
-0.000143365
-0.00183674
-0.000435476
-4.42766e-05
0.000330261
-0.000128229
0.00060437
-0.000227898
0.000708165
-0.000334149
0.000746857
-0.00044539
0.000766995
-0.000563401
0.000785513
-0.000691727
0.000806788
-0.000835373
0.000830513
-0.00100098
0.000853876
-0.001197
0.000871212
-0.00143374
0.000872589
-0.00172312
0.000842199
-0.00207384
0.000751594
-0.00246306
0.000530838
-0.00278965
2.70311e-05
-0.0028065
-0.000981545
-0.0023183
-0.00236031
-0.00142703
-0.0032877
-0.000454097
-0.00280968
-0.000889573
-4.13662e-05
0.000371627
-0.000122152
0.000685156
-0.00021859
0.000804603
-0.000321319
0.000849586
-0.000428899
0.000874576
-0.000543738
0.000900352
-0.000670566
0.000933617
-0.000816441
0.000976388
-0.000991554
0.00102899
-0.00121072
0.00109037
-0.00149549
0.00115737
-0.00187451
0.00122122
-0.00237273
0.00124981
-0.00296052
0.00111863
-0.00346373
0.000530249
-0.00361039
-0.00083489
-0.00322802
-0.00274268
-0.00236628
-0.00414944
-0.00104904
-0.00412692
-0.00193861
-3.81758e-05
0.000409803
-0.000115203
0.000762184
-0.000207158
0.000896558
-0.000304188
0.000946616
-0.000404696
0.000975084
-0.000511351
0.00100701
-0.000629538
0.0010518
-0.000767606
0.00111446
-0.000938292
0.00119967
-0.00116134
0.00131342
-0.00146706
0.00146308
-0.00189464
0.0016488
-0.00246675
0.00182191
-0.00312723
0.00177911
-0.00367663
0.00107965
-0.00387991
-0.000631608
-0.0036945
-0.00292808
-0.00305498
-0.00478896
-0.00169128
-0.00549062
-0.00362989
-3.52277e-05
0.000445031
-0.00010846
0.000835416
-0.000194947
0.000983044
-0.000284051
0.00103572
-0.000373691
0.00106472
-0.000466263
0.00109958
-0.000566858
0.0011524
-0.000683444
0.00123104
-0.000828332
0.00134456
-0.00102058
0.00150567
-0.00128805
0.00173056
-0.00166168
0.00202243
-0.00214401
0.00230424
-0.00265908
0.00229418
-0.00306824
0.0014888
-0.00325499
-0.000444858
-0.00324971
-0.00293336
-0.00291242
-0.00512625
-0.00187227
-0.00653077
-0.00550216
-3.35718e-05
0.000478603
-0.000104024
0.000905869
-0.000184607
0.00106363
-0.000263757
0.00111487
-0.000338855
0.00113982
-0.000411565
0.00117229
-0.000485606
0.00122644
-0.000566464
0.0013119
-0.000662015
0.00144011
-0.000783099
0.00162675
-0.00094267
0.00189013
-0.00114932
0.00222908
-0.00139338
0.0025483
-0.00162887
0.00252967
-0.00182266
0.0016826
-0.00196256
-0.000304962
-0.00210825
-0.00278767
-0.00213542
-0.00509907
-0.00155889
-0.0071073
-0.00706105
-3.43822e-05
0.000512985
-0.000104367
0.000975853
-0.000179765
0.00113903
-0.000248066
0.00118317
-0.000306034
0.00119779
-0.00035449
0.00122074
-0.000395421
0.00126737
-0.00043076
0.00134724
-0.00046215
0.0014715
-0.000489693
0.0016543
-0.000509835
0.00191027
-0.000511958
0.00223121
-0.000490338
0.00252668
-0.000454497
0.00249383
-0.000466283
0.00169438
-0.000608378
-0.000162866
-0.000923463
-0.00247259
-0.00127418
-0.00474836
-0.00112249
-0.00725899
-0.00818354
-4.1898e-05
0.000554883
-0.000116454
0.00105041
-0.000187082
0.00120965
-0.000242294
0.00123838
-0.000280689
0.00123618
-0.000302918
0.00124297
-0.000308854
0.00127331
-0.000297173
0.00133556
-0.000264169
0.0014385
-0.00020133
0.00159146
-9.32936e-05
0.00180223
7.72649e-05
0.00206065
0.000312595
0.00229135
0.000554527
0.0022519
0.0006751
0.00157381
0.000509933
2.29998e-06
6.10138e-05
-0.00202367
-0.000591821
-0.00409552
-0.00078874
-0.00706207
-0.00897228
-5.23772e-05
0.00060726
-0.000136022
0.00113405
-0.000207643
0.00128127
-0.000256054
0.00128679
-0.000277611
0.00125774
-0.000273968
0.00123933
-0.000245396
0.00124473
-0.000189392
0.00127956
-0.000100026
0.00134913
3.51575e-05
0.00145627
0.000229784
0.00160761
0.000505788
0.00178464
0.000864399
0.00193274
0.00123272
0.00188358
0.00143642
0.00137011
0.00127928
0.000159438
0.000722016
-0.00146641
-0.000104513
-0.00326899
-0.000515363
-0.00665122
-0.00948764
-0.000120252
0.000727512
-0.000217955
0.00123176
-0.000272527
0.00133585
-0.000292106
0.00130637
-0.000284987
0.00125062
-0.000254001
0.00120835
-0.000196788
0.00118752
-0.000107865
0.00119063
2.08934e-05
0.00122038
0.000199104
0.00127806
0.00044288
0.00136383
0.000765523
0.001462
0.00115992
0.00153834
0.00156112
0.00148238
0.00180075
0.00113048
0.00166748
0.000292706
0.00109446
-0.000893385
0.000205456
-0.00237999
-0.000306853
-0.00613891
-0.0097945
-7.74081e-05
0.00080492
-0.000241897
0.00139625
-0.000335152
0.0014291
-0.000364136
0.00133536
-0.000347448
0.00123393
-0.000295755
0.00115665
-0.00021146
0.00110322
-9.14024e-05
0.00107057
7.00902e-05
0.00105888
0.000282559
0.00106559
0.000554276
0.00109211
0.000892095
0.00112418
0.00128104
0.00114939
0.00166771
0.0010957
0.00191178
0.000886414
0.00181131
0.00039318
0.00132633
-0.000408405
0.000562261
-0.00161592
6.83808e-05
-0.00564503
-0.00972612
-0.000374309
0.00117923
-0.000418282
0.00144022
-0.00044658
0.0014574
-0.000460914
0.00134969
-0.000426639
0.00119966
-0.000350402
0.00108042
-0.000235196
0.000988018
-7.87353e-05
0.000914113
0.00011825
0.000861897
0.000361651
0.000822193
0.000650807
0.000802958
0.000987845
0.000787143
0.00135477
0.000782465
0.0017016
0.000748884
0.00195353
0.000634484
0.00196692
0.000379784
0.00180553
-0.000247013
0.00145898
-0.00126937
0.000828731
-0.00501479
-0.00889739
-0.00136299
0.00254222
-0.0013204
0.00139763
-0.00105106
0.00118806
-0.000668372
0.000967001
-0.00026623
0.000797517
0.000139688
0.000674499
0.000538942
0.000588764
0.000931879
0.000521177
0.00132026
0.000473518
0.00170985
0.0004326
0.00210586
0.000406952
0.00251053
0.000382467
0.00293045
0.000362545
0.00334837
0.00033097
0.00373298
0.000249866
0.00399756
0.000115212
0.00407441
-0.000323865
0.00393888
-0.00113384
0.00250155
-0.00357746
-0.00639583
0.00254222
0.00393985
0.00512791
0.00609491
0.00689243
0.00756693
0.00815569
0.00867687
0.00915039
0.00958299
0.00998994
0.0103724
0.0107349
0.0110659
0.0113158
0.011431
0.0111071
0.00997329
0.00639583
)
;

boundaryField
{
    movingWall
    {
        type            calculated;
        value           uniform 0;
    }
    fixedWalls
    {
        type            calculated;
        value           uniform 0;
    }
    frontAndBack
    {
        type            empty;
        value           nonuniform List<scalar> 0();
    }
}


// ************************************************************************* //
