/*--------------------------------*- C++ -*----------------------------------*\
  =========                 |
  \\      /  F ield         | OpenFOAM: The Open Source CFD Toolbox
   \\    /   O peration     | Website:  https://openfoam.org
    \\  /    A nd           | Version:  10
     \\/     M anipulation  |
\*---------------------------------------------------------------------------*/
FoamFile
{
    format      ascii;
    class       volVectorField;
    location    "9.6";
    object      U;
}
// * * * * * * * * * * * * * * * * * * * * * * * * * * * * * * * * * * * * * //

dimensions      [0 1 -1 0 0 0 0];

internalField   nonuniform List<vector> 
400
(
(-0.000172279 0.000146826 0)
(-0.00130722 0.000479348 0)
(-0.00323425 0.000600275 0)
(-0.00522175 0.000642937 0)
(-0.00729849 0.000670075 0)
(-0.00942878 0.000701819 0)
(-0.011605 0.000737464 0)
(-0.0138078 0.000768143 0)
(-0.0159874 0.000780341 0)
(-0.018055 0.000755183 0)
(-0.0198721 0.00066834 0)
(-0.0212413 0.000492778 0)
(-0.0219085 0.000205543 0)
(-0.0215754 -0.000215282 0)
(-0.019961 -0.000744195 0)
(-0.0169126 -0.00129937 0)
(-0.0125872 -0.00172062 0)
(-0.00761197 -0.00180136 0)
(-0.00262576 -0.00136802 0)
(-9.0866e-05 -0.00031229 0)
(-0.000576716 0.00133865 0)
(-0.00300017 0.00280003 0)
(-0.00672175 0.00335665 0)
(-0.0105669 0.00356326 0)
(-0.0145455 0.00366307 0)
(-0.0185685 0.00373506 0)
(-0.0225876 0.00377792 0)
(-0.026539 0.00375565 0)
(-0.0303144 0.00361232 0)
(-0.0337471 0.00327382 0)
(-0.0365983 0.00265152 0)
(-0.0385499 0.00165172 0)
(-0.0392271 0.000194245 0)
(-0.0382018 -0.00173647 0)
(-0.0350759 -0.00401306 0)
(-0.0296596 -0.00629992 0)
(-0.0222172 -0.00799058 0)
(-0.0137119 -0.00829891 0)
(-0.0052179 -0.00657003 0)
(-0.000547302 -0.0023597 0)
(-0.00076363 0.0035155 0)
(-0.00381069 0.00663774 0)
(-0.00839498 0.00782872 0)
(-0.0131001 0.00826179 0)
(-0.0179383 0.00843298 0)
(-0.0227998 0.00850275 0)
(-0.0276248 0.00847204 0)
(-0.0323398 0.00827137 0)
(-0.0368257 0.00779075 0)
(-0.040901 0.00688591 0)
(-0.0443067 0.005386 0)
(-0.0466982 0.00311407 0)
(-0.0476353 -7.20385e-05 0)
(-0.0465833 -0.00418298 0)
(-0.0430026 -0.00899609 0)
(-0.0365305 -0.0138445 0)
(-0.0273319 -0.0174828 0)
(-0.0165793 -0.0181612 0)
(-0.00589994 -0.0144235 0)
(-0.000424255 -0.00558234 0)
(-0.000827319 0.00586495 0)
(-0.00413777 0.010779 0)
(-0.00910541 0.0126256 0)
(-0.0141862 0.0132744 0)
(-0.0194086 0.0135059 0)
(-0.0246666 0.0135699 0)
(-0.0299145 0.0134731 0)
(-0.0350986 0.0131165 0)
(-0.0401247 0.0123397 0)
(-0.044838 0.0109271 0)
(-0.0489967 0.00861415 0)
(-0.0522452 0.00511259 0)
(-0.0540857 0.000177747 0)
(-0.0538522 -0.00628241 0)
(-0.0507181 -0.0140415 0)
(-0.0438767 -0.0221367 0)
(-0.0330423 -0.028506 0)
(-0.0194638 -0.0298347 0)
(-0.00586276 -0.0232162 0)
(0.000145361 -0.00844815 0)
(-0.000828041 0.00831606 0)
(-0.00421413 0.0151207 0)
(-0.0093255 0.0176567 0)
(-0.0145593 0.0185382 0)
(-0.0199639 0.018855 0)
(-0.0254519 0.0189576 0)
(-0.0310105 0.0188664 0)
(-0.0366292 0.0184605 0)
(-0.0422682 0.017534 0)
(-0.0478348 0.0157995 0)
(-0.0531445 0.0128826 0)
(-0.057864 0.00833638 0)
(-0.0614458 0.00171234 0)
(-0.0630763 -0.00730399 0)
(-0.0615296 -0.0186762 0)
(-0.0552074 -0.0313063 0)
(-0.0426991 -0.0421351 0)
(-0.0247539 -0.0451048 0)
(-0.00591001 -0.0340531 0)
(0.00114415 -0.0108868 0)
(-0.000797828 0.0107614 0)
(-0.00416339 0.0195122 0)
(-0.00929763 0.0227709 0)
(-0.0145773 0.0239152 0)
(-0.020069 0.0243646 0)
(-0.0257128 0.0245855 0)
(-0.0315418 0.024626 0)
(-0.0376087 0.0243578 0)
(-0.0439561 0.0235431 0)
(-0.0505953 0.0218291 0)
(-0.0574603 0.0187232 0)
(-0.0643252 0.013578 0)
(-0.0707037 0.00562193 0)
(-0.0757582 -0.00591442 0)
(-0.0778385 -0.0214864 0)
(-0.0740233 -0.0405368 0)
(-0.0604507 -0.0591585 0)
(-0.0361485 -0.0665098 0)
(-0.00798751 -0.048851 0)
(0.00245392 -0.0128643 0)
(-0.000749433 0.0131408 0)
(-0.00403877 0.0238658 0)
(-0.00912376 0.0278785 0)
(-0.0143789 0.0293203 0)
(-0.0198854 0.0299586 0)
(-0.0256134 0.0303942 0)
(-0.0316497 0.0307228 0)
(-0.0381258 0.0308331 0)
(-0.0451968 0.0304843 0)
(-0.0530298 0.0292878 0)
(-0.0617716 0.0266566 0)
(-0.0714787 0.0217517 0)
(-0.0820036 0.0134317 0)
(-0.0927354 0.00021123 0)
(-0.10178 -0.019693 0)
(-0.103979 -0.0477375 0)
(-0.0908284 -0.0800053 0)
(-0.0592192 -0.0975666 0)
(-0.0180802 -0.0720725 0)
(0.00300129 -0.0163211 0)
(-0.000686704 0.0154174 0)
(-0.00385905 0.0281271 0)
(-0.0088377 0.0329187 0)
(-0.0139994 0.0346845 0)
(-0.0194334 0.035559 0)
(-0.0251372 0.0362991 0)
(-0.0312501 0.0370734 0)
(-0.0379889 0.0378216 0)
(-0.045643 0.0383493 0)
(-0.0545884 0.038304 0)
(-0.0652932 0.037105 0)
(-0.0783233 0.0338557 0)
(-0.094314 0.0271663 0)
(-0.113473 0.0144697 0)
(-0.133376 -0.00919809 0)
(-0.14464 -0.0498763 0)
(-0.133274 -0.104073 0)
(-0.097662 -0.139383 0)
(-0.0463039 -0.11055 0)
(-0.000564285 -0.0281954 0)
(-0.000612275 0.017561 0)
(-0.00363541 0.0322506 0)
(-0.00845559 0.0378303 0)
(-0.0134451 0.039924 0)
(-0.0186921 0.0410524 0)
(-0.0242117 0.0421527 0)
(-0.0301847 0.0434952 0)
(-0.0369031 0.0451122 0)
(-0.0447841 0.0469237 0)
(-0.0544294 0.0487297 0)
(-0.0667036 0.0501528 0)
(-0.0828594 0.050523 0)
(-0.104678 0.0483707 0)
(-0.133351 0.0391974 0)
(-0.164454 0.0121349 0)
(-0.18318 -0.0465355 0)
(-0.175191 -0.129095 0)
(-0.144747 -0.18589 0)
(-0.0926414 -0.167919 0)
(-0.0137577 -0.060571 0)
(-0.000532336 0.0195493 0)
(-0.00338891 0.0361992 0)
(-0.00800825 0.0425506 0)
(-0.0127403 0.0449384 0)
(-0.0176622 0.0462879 0)
(-0.0227896 0.04774 0)
(-0.0283217 0.0496935 0)
(-0.0345916 0.0523159 0)
(-0.0420964 0.0557182 0)
(-0.0515966 0.0599956 0)
(-0.0642562 0.0652161 0)
(-0.0818111 0.0711728 0)
(-0.106774 0.076006 0)
(-0.140394 0.0717196 0)
(-0.175932 0.0395827 0)
(-0.195605 -0.0386883 0)
(-0.19187 -0.14735 0)
(-0.17276 -0.228436 0)
(-0.129736 -0.240771 0)
(-0.0363228 -0.129018 0)
(-0.000459497 0.0213784 0)
(-0.00316082 0.0399499 0)
(-0.00756035 0.0470117 0)
(-0.0119557 0.0496031 0)
(-0.0164061 0.0510696 0)
(-0.0209053 0.0527722 0)
(-0.0256371 0.0552488 0)
(-0.0309146 0.0588216 0)
(-0.037208 0.0638369 0)
(-0.0452474 0.0707703 0)
(-0.0561652 0.080242 0)
(-0.0714978 0.0923995 0)
(-0.0930582 0.104111 0)
(-0.121296 0.102945 0)
(-0.149202 0.0647315 0)
(-0.163375 -0.0279274 0)
(-0.16375 -0.152756 0)
(-0.1551 -0.257939 0)
(-0.131643 -0.311623 0)
(-0.0501476 -0.232907 0)
(-0.000419648 0.0230887 0)
(-0.00303289 0.0435498 0)
(-0.00723693 0.0512272 0)
(-0.0112328 0.0538724 0)
(-0.0150752 0.0552657 0)
(-0.0187207 0.0569983 0)
(-0.0223056 0.0597392 0)
(-0.0260539 0.0639399 0)
(-0.0302781 0.0701392 0)
(-0.0354204 0.0790976 0)
(-0.0420955 0.0917575 0)
(-0.0509367 0.108205 0)
(-0.062455 0.123879 0)
(-0.0768457 0.12326 0)
(-0.090396 0.080958 0)
(-0.0966875 -0.0183426 0)
(-0.101242 -0.145829 0)
(-0.104039 -0.262647 0)
(-0.106643 -0.351174 0)
(-0.0427693 -0.325182 0)
(-0.000444244 0.0247347 0)
(-0.00309486 0.0469491 0)
(-0.00719267 0.0549819 0)
(-0.010783 0.0574159 0)
(-0.0139359 0.0584915 0)
(-0.0165592 0.0599811 0)
(-0.0187396 0.0626173 0)
(-0.0205809 0.0669067 0)
(-0.0221714 0.0734444 0)
(-0.0235618 0.0830263 0)
(-0.0247122 0.0965442 0)
(-0.025295 0.113801 0)
(-0.024955 0.129909 0)
(-0.0240089 0.128948 0)
(-0.0240072 0.0870386 0)
(-0.0248789 -0.0114122 0)
(-0.0369438 -0.131438 0)
(-0.0514646 -0.248445 0)
(-0.077039 -0.363461 0)
(-0.0293998 -0.387206 0)
(-0.000645998 0.0266593 0)
(-0.00366261 0.0508196 0)
(-0.00779676 0.0591219 0)
(-0.0108995 0.0611143 0)
(-0.0132335 0.0614531 0)
(-0.014729 0.0621774 0)
(-0.0154145 0.0640965 0)
(-0.0152653 0.0677158 0)
(-0.0141773 0.0735639 0)
(-0.0118682 0.0822634 0)
(-0.00782914 0.0944122 0)
(-0.00105566 0.109583 0)
(0.00893449 0.123591 0)
(0.0221187 0.122405 0)
(0.0308654 0.0850627 0)
(0.0347142 -0.00390127 0)
(0.0150326 -0.11186 0)
(-0.00785149 -0.221401 0)
(-0.0541222 -0.359397 0)
(-0.0195761 -0.433369 0)
(-0.00098569 0.0290618 0)
(-0.00440825 0.0538347 0)
(-0.00894574 0.0613213 0)
(-0.0118647 0.0620815 0)
(-0.0136179 0.0615473 0)
(-0.0140363 0.061581 0)
(-0.013225 0.0628014 0)
(-0.0111388 0.0655286 0)
(-0.00760019 0.0701236 0)
(-0.00218226 0.076911 0)
(0.00581017 0.0862733 0)
(0.017602 0.0974771 0)
(0.0332231 0.10733 0)
(0.0531363 0.105532 0)
(0.0670127 0.0755905 0)
(0.0748144 0.00436487 0)
(0.0504567 -0.0865241 0)
(0.0257709 -0.182856 0)
(-0.0378983 -0.341332 0)
(-0.00898489 -0.465294 0)
(-0.0030737 0.0309207 0)
(-0.00886271 0.0604003 0)
(-0.0126715 0.0677156 0)
(-0.0144536 0.0677905 0)
(-0.014701 0.0653564 0)
(-0.0137467 0.0633524 0)
(-0.0115678 0.0625108 0)
(-0.00797219 0.0631278 0)
(-0.00270401 0.0654113 0)
(0.004853 0.0694395 0)
(0.0152547 0.0753489 0)
(0.0294546 0.082228 0)
(0.0469919 0.0877402 0)
(0.0690349 0.0850951 0)
(0.0841446 0.0637293 0)
(0.0947946 0.0124659 0)
(0.0688134 -0.0573195 0)
(0.0456101 -0.140047 0)
(-0.0280616 -0.321429 0)
(0.00186139 -0.489267 0)
(-0.00090471 0.0441162 0)
(-0.00728801 0.0614229 0)
(-0.0161486 0.0643603 0)
(-0.0178199 0.0607369 0)
(-0.0182656 0.057733 0)
(-0.0164227 0.0557503 0)
(-0.0130414 0.054815 0)
(-0.00797579 0.0548175 0)
(-0.00108255 0.0558134 0)
(0.00819411 0.0578068 0)
(0.0201954 0.0608512 0)
(0.035557 0.0642359 0)
(0.0531532 0.0665622 0)
(0.0750564 0.0635748 0)
(0.0891248 0.0493328 0)
(0.101492 0.0162225 0)
(0.0763674 -0.0331508 0)
(0.061019 -0.101105 0)
(-0.0106715 -0.299243 0)
(0.0203358 -0.499045 0)
(-0.0125815 0.0321516 0)
(-0.0228983 0.0807053 0)
(-0.0202275 0.0811035 0)
(-0.0237598 0.0762384 0)
(-0.022808 0.0688097 0)
(-0.020031 0.0626871 0)
(-0.0151387 0.0578562 0)
(-0.00828998 0.0542037 0)
(0.000456666 0.051728 0)
(0.0115041 0.0501819 0)
(0.0247118 0.0496574 0)
(0.0407019 0.0494133 0)
(0.0573837 0.0496392 0)
(0.0780648 0.0473273 0)
(0.0896801 0.0408711 0)
(0.105275 0.0243154 0)
(0.0874492 -0.00637139 0)
(0.0966833 -0.0625608 0)
(0.0386681 -0.272438 0)
(0.0566926 -0.488165 0)
(-0.0777034 0.0957034 0)
(-0.0632096 0.0587184 0)
(-0.0649189 0.060075 0)
(-0.0420127 0.0534862 0)
(-0.0238683 0.0464923 0)
(-0.00288658 0.0413156 0)
(0.0169198 0.0375531 0)
(0.037153 0.0343801 0)
(0.0559587 0.0320988 0)
(0.0764792 0.0300326 0)
(0.0943218 0.0288903 0)
(0.117077 0.0276852 0)
(0.132805 0.0268129 0)
(0.161 0.0252973 0)
(0.169953 0.0196106 0)
(0.202262 0.0106049 0)
(0.188683 -0.0216244 0)
(0.220953 -0.0732944 0)
(0.153537 -0.251356 0)
(0.124415 -0.432443 0)
(0.119322 0.140694 0)
(0.151799 0.0859533 0)
(0.228198 0.0634046 0)
(0.283688 0.0479815 0)
(0.325184 0.0373874 0)
(0.363551 0.0296474 0)
(0.392357 0.0242619 0)
(0.423627 0.0202009 0)
(0.443696 0.0173305 0)
(0.472312 0.0150065 0)
(0.485276 0.0133353 0)
(0.514625 0.0119247 0)
(0.520144 0.0108093 0)
(0.552126 0.00943413 0)
(0.546777 0.00741342 0)
(0.578285 0.00294097 0)
(0.546162 -0.00581011 0)
(0.551826 -0.026773 0)
(0.419033 -0.0729109 0)
(0.274651 -0.151558 0)
)
;

boundaryField
{
    movingWall
    {
        type            fixedValue;
        value           uniform (1 0 0);
    }
    fixedWalls
    {
        type            noSlip;
    }
    frontAndBack
    {
        type            empty;
    }
}


// ************************************************************************* //
