/*--------------------------------*- C++ -*----------------------------------*\
  =========                 |
  \\      /  F ield         | OpenFOAM: The Open Source CFD Toolbox
   \\    /   O peration     | Website:  https://openfoam.org
    \\  /    A nd           | Version:  10
     \\/     M anipulation  |
\*---------------------------------------------------------------------------*/
FoamFile
{
    format      ascii;
    class       surfaceScalarField;
    location    "7.975";
    object      phi;
}
// * * * * * * * * * * * * * * * * * * * * * * * * * * * * * * * * * * * * * //

dimensions      [0 3 -1 0 0 0 0];

internalField   nonuniform List<scalar> 
890
(
0.00984622
0.000153777
0.00971775
0.000128472
0.00946858
0.000249173
0.00941879
4.97855e-05
0.000147475
0.00927132
0.0101199
3.39094e-05
0.0102013
4.70166e-05
0.0104075
4.29807e-05
0.0104653
-8.03766e-06
-6.94283e-05
0.0106822
0.0100715
-3.75522e-05
0.0102153
-9.68673e-05
0.0103783
-0.00011994
0.010521
-0.000150745
-0.000191111
0.0106427
0.0100896
-0.000127142
0.0102141
-0.000221347
0.01033
-0.000235891
0.0104185
-0.000239231
-0.000251049
0.0104784
0.00987286
0.00965151
0.00941562
0.00917639
0.00892534
0.00926991
-0.000104102
0.000105507
0.00929389
-0.00026671
0.00024273
0.00936821
-0.000387952
0.000313634
0.00947999
-0.00049063
0.00037885
0.00962031
-0.000597088
0.000456765
0.00979109
-0.000736664
0.000565887
0.00997669
-0.000898217
0.000712621
0.0101703
-0.00109344
0.000899853
0.0103612
-0.0013162
0.00112531
0.0105325
-0.00156085
0.00138952
0.0106717
-0.00180499
0.00166575
0.0107675
-0.00204018
0.00194438
0.0108085
-0.00223032
0.00218937
0.0107895
-0.00236375
0.00238273
0.0106859
-0.00240217
0.00250577
0.0104912
-0.00234479
0.00253949
0.0102462
-0.00225728
0.00250223
0.00998597
-0.00215219
0.00241246
0.00970907
-0.00197711
0.00225401
0.00942071
-0.00175127
0.00203963
0.00913533
-0.00149099
0.00177637
0.00886008
-0.00119809
0.00147334
0.00860944
-0.000899781
0.00115042
0.00839779
-0.000611706
0.000823359
0.00823074
-0.000338813
0.000505868
0.00810473
-8.80607e-05
0.000214068
0.00801341
0.000136703
-4.53792e-05
0.00796159
0.000330892
-0.000279078
0.00793629
0.000494314
-0.000469014
0.00792699
0.000622035
-0.000612734
0.00792625
0.000711085
-0.000710339
0.00792901
0.000763841
-0.000766604
0.007932
0.000782139
-0.000785133
0.00792838
0.000773143
-0.000769516
0.00791241
0.00073771
-0.000721741
0.00787766
0.000699051
-0.0006643
0.00782599
0.000642168
-0.000590505
0.00775668
0.000598028
-0.000528715
0.00767935
0.000513763
-0.000436435
0.00758696
0.000467569
-0.000375175
0.00749259
0.000378317
-0.000283946
0.00738342
0.000377117
-0.000267949
0.00728395
0.000332652
-0.000233185
0.00717727
0.0003677
-0.000261019
0.000361054
-0.000270993
0.0107462
-0.000168036
0.0107698
-0.000290321
0.0107924
-0.000410545
0.0108246
-0.000522901
0.0108609
-0.000633306
0.010882
-0.000757797
0.0108877
-0.000903911
0.0108714
-0.00107713
0.0108303
-0.00127508
0.0107543
-0.00148488
0.0106355
-0.00168622
0.0104638
-0.00186848
0.0102441
-0.00201059
0.00996211
-0.00208175
0.00958081
-0.00202087
0.00913214
-0.00189611
0.00865248
-0.00177763
0.00815719
-0.0016569
0.00767026
-0.00149018
0.00719916
-0.00128018
0.00676543
-0.00105725
0.00637222
-0.000804883
0.00603649
-0.000564048
0.00576668
-0.000341903
0.00556548
-0.00013761
0.00542973
4.76942e-05
0.00536393
0.000202501
0.00535729
0.000337528
0.00539927
0.00045234
0.00547611
0.000545194
0.00557401
0.000613188
0.00568128
0.000656566
0.00578591
0.00067751
0.00587809
0.000680963
0.00594836
0.000667438
0.0060012
0.00064621
0.00603722
0.000606153
0.00606883
0.000566419
0.00608721
0.000495377
0.00610099
0.000453794
0.0061003
0.000379001
0.00609666
0.000380759
0.00609952
0.000329796
0.00610525
0.000361968
0.000330153
0.0107273
-0.000252709
0.0107716
-0.000334625
0.010786
-0.000424878
0.0107804
-0.000517293
0.0107537
-0.000606683
0.0107022
-0.000706251
0.01062
-0.000821703
0.010503
-0.000960138
0.0103429
-0.00111501
0.0101455
-0.00128743
0.00991858
-0.00145935
0.00965351
-0.00160341
0.00931329
-0.00167037
0.00881581
-0.00158427
0.00820131
-0.00140637
0.00758552
-0.00128032
0.00691695
-0.00110906
0.00615823
-0.000898177
0.00540136
-0.000733314
0.00471639
-0.000595211
0.00409925
-0.000440107
0.00359237
-0.000298001
0.00319605
-0.000167726
0.00290624
-5.21006e-05
0.00271376
5.48775e-05
0.00261109
0.000150363
0.00258441
0.000229174
0.00262374
0.000298202
0.00271856
0.000357518
0.00285676
0.000406994
0.00302512
0.000444832
0.00321168
0.000470006
0.00340594
0.000483243
0.00360173
0.000485176
0.00379301
0.000476159
0.00398141
0.000457813
0.00416092
0.000426643
0.00433642
0.000390911
0.00448919
0.000342607
0.00463533
0.000307658
0.00475312
0.000261215
0.00488041
0.000253464
0.00499508
0.000215123
0.00512799
0.000229062
0.000189413
0.0105086
-0.000282902
0.0104937
-0.000319673
0.0104349
-0.000366083
0.010327
-0.000409355
0.0101776
-0.000457345
0.00997855
-0.000507191
0.00972328
-0.000566428
0.00940344
-0.000640301
0.0090065
-0.000718059
0.00854311
-0.000824037
0.00799102
-0.00090726
0.00742869
-0.00104109
0.00679762
-0.00103929
0.00596328
-0.000749935
0.00494478
-0.000387869
0.00374829
-8.3829e-05
0.00257176
6.74667e-05
0.00158626
8.73254e-05
0.000886698
-3.37494e-05
0.000449367
-0.000157881
0.000211978
-0.000202718
8.45655e-05
-0.000170588
2.6559e-05
-0.000109719
2.08565e-05
-4.63981e-05
6.37206e-05
1.20134e-05
0.000156721
5.73633e-05
0.000290704
9.51911e-05
0.000462303
0.000126602
0.000666563
0.000153258
0.000898304
0.000175253
0.00115116
0.000191973
0.00141865
0.000202521
0.00169388
0.00020801
0.00197127
0.000207786
0.00224541
0.000202021
0.00251192
0.000191303
0.00276354
0.000175022
0.00299858
0.000155871
0.00320775
0.000133442
0.00340115
0.000114251
0.00356762
9.4746e-05
0.00373603
8.50579e-05
0.00388025
7.0907e-05
0.00403837
7.09345e-05
5.46975e-05
0.00864244
0.00832276
0.00795668
0.00754733
0.00708998
0.00658279
0.00601636
0.00537606
0.004658
0.00383397
0.00292671
0.00188562
0.000846323
9.63884e-05
-0.00029148
-0.000375309
-0.000307843
-0.000220517
-0.000254267
-0.000412147
-0.000614865
-0.000785453
-0.000895172
-0.000941571
-0.000929557
-0.000872194
-0.000777003
-0.000650401
-0.000497142
-0.000321889
-0.000129916
7.2605e-05
0.000280615
0.0004884
0.000690421
0.000881724
0.00105675
0.00121262
0.00134606
0.00146031
0.00155505
0.00164011
0.00171102
0.00178195
4.04597e-05
-4.04597e-05
3.00688e-06
3.74528e-05
-0.000150146
0.000153152
-0.000471237
0.000321092
-0.000926101
0.000454863
-0.00142976
0.000503662
-0.00191529
0.000485528
-0.00234071
0.00042542
-0.00267811
0.000337394
-0.00290202
0.000223911
-0.00299795
9.59295e-05
-0.00295741
-4.05311e-05
-0.00278685
-0.000170563
-0.00249145
-0.000295399
-0.00208627
-0.000405183
-0.00159418
-0.000492086
-0.00104971
-0.000544476
-0.000478153
-0.000571553
9.97282e-05
-0.000577881
0.000656878
-0.000557149
0.0011677
-0.000510819
0.00161038
-0.000442679
0.00196887
-0.000358498
0.00223454
-0.000265666
0.0024052
-0.000170657
0.00248283
-7.76365e-05
0.00247719
5.642e-06
0.00241161
6.55792e-05
0.00229815
0.000113464
0.00215066
0.000147486
0.00198144
0.000169223
0.00180131
0.000180133
0.00162277
0.000178536
0.00146535
0.000157418
0.00134538
0.000119976
0.00126677
7.8604e-05
0.00122354
4.32374e-05
0.00121032
1.32142e-05
0.00121821
-7.88519e-06
0.00124444
-2.62345e-05
0.00127787
-3.34321e-05
0.00131711
-3.92387e-05
0.00135146
-3.43532e-05
0.00138872
-3.72572e-05
-3.5476e-05
-0.000116482
7.60221e-05
-0.000456781
0.000377752
-0.00086058
0.000556952
-0.00123522
0.00069573
-0.00154439
0.000764036
-0.00178606
0.00074533
-0.00195985
0.000659319
-0.002058
0.00052357
-0.00207161
0.000351009
-0.00198634
0.000138638
-0.0017999
-9.05107e-05
-0.00151174
-0.000328692
-0.00111322
-0.00056908
-0.000616771
-0.000791853
-3.63224e-05
-0.000985632
0.000592785
-0.00112119
0.00125725
-0.00120894
0.00193239
-0.0012467
0.00259239
-0.00123787
0.0032169
-0.00118166
0.00378623
-0.00108015
0.00428336
-0.000939815
0.00469619
-0.000771329
0.0050178
-0.00058727
0.00524727
-0.00040013
0.00538891
-0.000219278
0.00545062
-5.60622e-05
0.00543604
8.01616e-05
0.0053579
0.000191599
0.00523385
0.000271539
0.00508073
0.000322338
0.00491276
0.000348101
0.00474476
0.00034654
0.0045897
0.000312481
0.00444962
0.000260056
0.00432661
0.000201609
0.00421953
0.000150314
0.00413408
9.86672e-05
0.00406801
5.81904e-05
0.00402355
1.82256e-05
0.00398709
3.02063e-06
0.00395446
-6.60814e-06
0.0039272
-7.09379e-06
0.00390215
-1.22036e-05
-3.55029e-05
-0.000515198
0.00059122
-0.000700262
0.000562815
-0.000744957
0.000601647
-0.000696436
0.000647209
-0.000579239
0.000646839
-0.000418054
0.000584145
-0.000217956
0.000459222
2.0188e-05
0.000285425
0.000310562
6.06358e-05
0.000663949
-0.00021475
0.00108447
-0.000511033
0.0015709
-0.00081512
0.00210865
-0.00110683
0.00269138
-0.00137458
0.00330224
-0.00159649
0.003928
-0.00174695
0.00454736
-0.0018283
0.00514321
-0.00184255
0.00570173
-0.00179639
0.00621159
-0.00169153
0.00665974
-0.00152829
0.00703603
-0.00131611
0.00733541
-0.00107071
0.00755753
-0.000809387
0.00770329
-0.000545893
0.0077802
-0.000296185
0.00779642
-7.22816e-05
0.00775188
0.000124698
0.00765912
0.000284363
0.00753117
0.000399487
0.00737878
0.000474729
0.00721248
0.000514403
0.00703917
0.000519846
0.00686584
0.000485815
0.00669603
0.000429867
0.00653414
0.000363501
0.00638524
0.000299206
0.00625787
0.000226042
0.00616198
0.000154084
0.00609082
8.93869e-05
0.00604359
5.02409e-05
0.00598998
4.70047e-05
0.00593804
4.48516e-05
0.00585424
7.15896e-05
4.79211e-05
-0.000248224
0.000839445
-0.000159079
0.000473669
7.26534e-05
0.000369915
0.000424393
0.00029547
0.000861814
0.000209417
0.0013519
9.40619e-05
0.00187197
-6.08547e-05
0.00240847
-0.000251066
0.00296475
-0.00049565
0.00353528
-0.000785278
0.00411854
-0.0010943
0.00471421
-0.00141079
0.00531436
-0.00170697
0.00590309
-0.00196331
0.00646848
-0.00216189
0.00699955
-0.00227802
0.00748336
-0.00231212
0.00791644
-0.00227563
0.00829474
-0.00217468
0.00861477
-0.00201156
0.00887509
-0.0017886
0.00907463
-0.00151565
0.00921618
-0.00121226
0.00930447
-0.000897683
0.009343
-0.000584417
0.00934023
-0.000293415
0.00930629
-3.83478e-05
0.00923329
0.000197704
0.00913137
0.000386281
0.00900562
0.000525233
0.00886151
0.000618841
0.00870576
0.000670152
0.00854228
0.00068333
0.00837147
0.000656621
0.00820119
0.00060015
0.00803481
0.00052988
0.00787946
0.000454554
0.00772334
0.000382162
0.0075793
0.000298128
0.00743862
0.000230066
0.00733181
0.000157044
0.00723614
0.000142674
0.00715974
0.000121252
0.00707658
0.000154754
0.000155143
0.000944951
0.00166135
0.0023449
0.00301922
0.0036854
0.00434535
0.00499712
0.0056459
0.00627556
0.0068798
0.00745125
0.00798484
0.00846725
0.00888667
0.00923055
0.00949203
0.00968214
0.00981897
0.0098983
0.00992637
0.00991413
0.00987182
0.00980998
0.00973565
0.0096571
0.00957776
0.00949403
0.00941266
0.00932992
0.00924242
0.00915092
0.00905447
0.00895267
0.00883977
0.00871818
0.00858376
0.00844781
0.00830126
0.00816295
0.00801784
0.00789094
0.00776567
0.00765373
0.00754747
)
;

boundaryField
{
    inlet
    {
        type            calculated;
        value           nonuniform List<scalar> 5(-0.01 -0.01 -0.01 -0.01 -0.01);
    }
    outlet
    {
        type            calculated;
        value           nonuniform List<scalar> 10(0.00708721 0.00613615 0.00526873 0.00417309 0.00183665 0.0014242 0.00390218 0.00577082 0.00696936 0.00743162);
    }
    upperWall
    {
        type            calculated;
        value           uniform 0;
    }
    lowerWall
    {
        type            calculated;
        value           uniform 0;
    }
    frontAndBack
    {
        type            empty;
        value           nonuniform List<scalar> 0();
    }
}


// ************************************************************************* //
