/*--------------------------------*- C++ -*----------------------------------*\
  =========                 |
  \\      /  F ield         | OpenFOAM: The Open Source CFD Toolbox
   \\    /   O peration     | Website:  https://openfoam.org
    \\  /    A nd           | Version:  10
     \\/     M anipulation  |
\*---------------------------------------------------------------------------*/
FoamFile
{
    format      ascii;
    class       surfaceScalarField;
    location    "9.225";
    object      phi;
}
// * * * * * * * * * * * * * * * * * * * * * * * * * * * * * * * * * * * * * //

dimensions      [0 3 -1 0 0 0 0];

internalField   nonuniform List<scalar> 
22800
(
-3.13303e-06
4.12496e-06
-9.99272e-07
-9.90438e-06
7.42237e-06
-6.5101e-07
-1.79907e-05
8.52682e-06
-4.40523e-07
-2.66859e-05
9.02443e-06
-3.29231e-07
-3.57375e-05
9.40164e-06
-3.50002e-07
-4.50634e-05
9.79831e-06
-4.7241e-07
-5.45752e-05
1.02036e-05
-6.91865e-07
-6.40892e-05
1.05447e-05
-1.03064e-06
-7.32768e-05
1.07138e-05
-1.5262e-06
-8.16261e-05
1.05739e-05
-2.22451e-06
-8.8417e-05
9.9643e-06
-3.17338e-06
-9.27234e-05
8.71737e-06
-4.41098e-06
-9.34758e-05
6.69757e-06
-5.94517e-06
-8.96195e-05
3.86924e-06
-7.72556e-06
-8.04007e-05
3.81514e-07
-9.60036e-06
-6.57369e-05
-3.39039e-06
-1.12734e-05
-4.67875e-05
-6.60895e-06
-1.23404e-05
-2.62421e-05
-8.19714e-06
-1.23483e-05
-8.12535e-06
-7.17993e-06
-1.09368e-05
-1.88721e-06
-6.23813e-06
-6.22086e-06
1.28956e-05
-2.54976e-06
-1.7757e-05
2.15593e-05
-2.6008e-06
-3.12658e-05
2.45636e-05
-2.5279e-06
-4.56969e-05
2.58883e-05
-2.43274e-06
-6.06152e-05
2.67738e-05
-2.45391e-06
-7.58146e-05
2.75811e-05
-2.5834e-06
-9.10873e-05
2.83047e-05
-2.82831e-06
-0.0001061
2.87818e-05
-3.224e-06
-0.000120322
2.87586e-05
-3.82335e-06
-0.000132965
2.79086e-05
-4.69186e-06
-0.000142952
2.58511e-05
-5.8997e-06
-0.000148915
2.21862e-05
-7.50562e-06
-0.000149293
1.66018e-05
-9.52659e-06
-0.000142597
9.07959e-06
-1.19061e-05
-0.000127823
8.30276e-08
-1.44756e-05
-0.000104702
-9.78128e-06
-1.67301e-05
-7.49697e-05
-1.82219e-05
-1.81194e-05
-4.26131e-05
-2.25931e-05
-1.79607e-05
-1.38247e-05
-2.03788e-05
-1.55895e-05
-7.59007e-06
-8.12184e-06
-7.28099e-06
2.36027e-05
-3.42615e-06
-2.0585e-05
3.86022e-05
-3.73886e-06
-3.60571e-05
4.37896e-05
-3.75396e-06
-5.25124e-05
4.60029e-05
-3.65925e-06
-6.94769e-05
4.7396e-05
-3.6577e-06
-8.67332e-05
4.85955e-05
-3.75804e-06
-0.00010407
4.96199e-05
-3.97844e-06
-0.000121151
5.02293e-05
-4.36695e-06
-0.000137431
5.00325e-05
-4.99356e-06
-0.000152085
4.85116e-05
-5.94855e-06
-0.00016395
4.505e-05
-7.33446e-06
-0.000171509
3.89939e-05
-9.24876e-06
-0.000172947
2.97921e-05
-1.17514e-05
-0.000166307
1.72473e-05
-1.48082e-05
-0.000149962
1.90495e-06
-1.81669e-05
-0.000123449
-1.50092e-05
-2.12851e-05
-8.84147e-05
-2.99876e-05
-2.32685e-05
-4.97596e-05
-3.81703e-05
-2.30778e-05
-1.54945e-05
-3.49003e-05
-1.97437e-05
-1.32713e-05
-9.81331e-06
-7.49014e-06
3.51612e-05
-4.06839e-06
-2.12965e-05
5.70136e-05
-4.6051e-06
-3.73392e-05
6.45275e-05
-4.69521e-06
-5.44104e-05
6.76816e-05
-4.60748e-06
-7.20627e-05
6.96461e-05
-4.5978e-06
-9.01303e-05
7.13533e-05
-4.69032e-06
-0.00010847
7.28748e-05
-4.91515e-06
-0.000126828
7.39232e-05
-5.33578e-06
-0.000144749
7.39984e-05
-6.04481e-06
-0.00016148
7.24098e-05
-7.16732e-06
-0.000175859
6.82875e-05
-8.8584e-06
-0.000186233
6.0651e-05
-1.12837e-05
-0.000190433
4.85699e-05
-1.45778e-05
-0.000185907
3.1489e-05
-1.87671e-05
-0.000170169
9.79403e-06
-2.36276e-05
-0.000141813
-1.49349e-05
-2.84297e-05
-0.000101933
-3.81365e-05
-3.17312e-05
-5.64438e-05
-5.19084e-05
-3.17515e-05
-1.61467e-05
-4.83549e-05
-2.68425e-05
-1.66219e-05
-1.2796e-05
-7.28233e-06
4.69705e-05
-4.5269e-06
-2.09875e-05
7.59764e-05
-5.25754e-06
-3.69845e-05
8.59361e-05
-5.41167e-06
-5.40849e-05
9.01219e-05
-5.33989e-06
-7.18936e-05
9.2801e-05
-5.34616e-06
-9.0331e-05
9.52628e-05
-5.47207e-06
-0.000109371
9.76774e-05
-5.76265e-06
-0.000128906
9.97603e-05
-6.30204e-06
-0.000148648
0.000100955
-7.21508e-06
-0.000168004
0.000100444
-8.67813e-06
-0.000185914
9.71243e-05
-1.09268e-05
-0.000200644
8.96275e-05
-1.42461e-05
-0.000209634
7.64741e-05
-1.89142e-05
-0.000209482
5.64212e-05
-2.50842e-05
-0.000196268
2.91806e-05
-3.26006e-05
-0.000167147
-3.43013e-06
-4.06257e-05
-0.000121636
-3.69456e-05
-4.67023e-05
-6.65074e-05
-5.9468e-05
-4.75686e-05
-1.70659e-05
-5.79443e-05
-3.98522e-05
-1.56497e-05
-1.80382e-05
-6.84618e-06
5.86977e-05
-4.88103e-06
-2.01157e-05
9.50374e-05
-5.79152e-06
-3.57284e-05
0.000107554
-6.00544e-06
-5.25259e-05
0.000112877
-5.95798e-06
-7.01721e-05
0.000116447
-5.99945e-06
-8.86913e-05
0.000119974
-6.19204e-06
-0.000108207
0.000123794
-6.60006e-06
-0.000128811
0.000127699
-7.33499e-06
-0.00015046
0.00013117
-8.56559e-06
-0.000172835
0.00013336
-1.0541e-05
-0.000195121
0.000133028
-1.3617e-05
-0.000215691
0.000128468
-1.82704e-05
-0.000231712
0.000117547
-2.50526e-05
-0.000238908
9.80427e-05
-3.44257e-05
-0.000231629
6.83679e-05
-4.64659e-05
-0.000203825
2.90422e-05
-6.0276e-05
-0.000152939
-1.55826e-05
-7.22492e-05
-8.42909e-05
-5.24703e-05
-7.56459e-05
-1.99139e-05
-5.90394e-05
-6.32819e-05
-8.65244e-06
-2.69112e-05
-6.24867e-06
7.01445e-05
-5.19821e-06
-1.88437e-05
0.000113924
-6.2911e-06
-3.38053e-05
0.000129078
-6.56247e-06
-4.99967e-05
0.000135607
-6.53866e-06
-6.71325e-05
0.000140201
-6.61803e-06
-8.53404e-05
0.000145069
-6.88731e-06
-0.00010491
0.000150798
-7.43536e-06
-0.000126171
0.000157369
-8.40878e-06
-0.000149403
0.000164434
-1.00326e-05
-0.000174695
0.000171306
-1.2654e-05
-0.000201702
0.000176837
-1.68022e-05
-0.000229229
0.000179246
-2.3252e-05
-0.000254628
0.000175982
-3.30366e-05
-0.000273027
0.000163724
-4.72816e-05
-0.000276905
0.000138881
-6.66357e-05
-0.00025659
9.85605e-05
-8.98333e-05
-0.00020359
4.32194e-05
-0.000111802
-0.000118848
-1.63924e-05
-0.00012082
-2.99179e-05
-4.54259e-05
-0.000102543
3.70901e-06
-4.22793e-05
-5.51547e-06
8.11785e-05
-5.51849e-06
-1.72322e-05
0.000132447
-6.80707e-06
-3.1277e-05
0.000150252
-7.12911e-06
-4.65088e-05
0.000157953
-7.11385e-06
-6.26692e-05
0.000163573
-7.21251e-06
-7.99694e-05
0.000169909
-7.54012e-06
-9.88494e-05
0.000177892
-8.21375e-06
-0.000119877
0.000187817
-9.42033e-06
-0.000143697
0.000199706
-1.14518e-05
-0.000170928
0.000213312
-1.47744e-05
-0.000201932
0.000227977
-2.01359e-05
-0.000236387
0.000242409
-2.87079e-05
-0.00027259
0.000254376
-4.21908e-05
-0.000306384
0.000260127
-6.26087e-05
-0.00032971
0.000253467
-9.12596e-05
-0.000329199
0.000224159
-0.000126109
-0.000286647
0.000158571
-0.000157904
-0.000188313
5.84858e-05
-0.000173212
-6.11952e-05
-1.94917e-05
-0.000153052
1.27529e-05
-7.02391e-05
-4.68669e-06
9.17365e-05
-5.87127e-06
-1.53642e-05
0.000150503
-7.37797e-06
-2.82277e-05
0.000170853
-7.73695e-06
-4.20911e-05
0.000179515
-7.6986e-06
-5.66807e-05
0.000185938
-7.77453e-06
-7.22512e-05
0.000193591
-8.1108e-06
-8.93412e-05
0.000203836
-8.85361e-06
-0.000108696
0.000217401
-1.02293e-05
-0.000131263
0.000234866
-1.25938e-05
-0.000158172
0.00025675
-1.65283e-05
-0.000190642
0.000283444
-2.29973e-05
-0.000229696
0.000315013
-3.35502e-05
-0.000275607
0.000350668
-5.03802e-05
-0.000326784
0.000386992
-7.5689e-05
-0.000377936
0.000413948
-0.000109329
-0.000416285
0.000407575
-0.000145067
-0.000411135
0.000325698
-0.000172277
-0.000318505
0.000150969
-0.000185113
-0.000139535
-2.19631e-05
-0.000176499
-1.21174e-05
-0.000114664
-3.85334e-06
0.000101878
-6.28844e-06
-1.34275e-05
0.000168126
-8.0488e-06
-2.48894e-05
0.000190739
-8.42445e-06
-3.69599e-05
0.000199901
-8.31536e-06
-4.92938e-05
0.000206575
-8.30323e-06
-6.21319e-05
0.000214996
-8.56719e-06
-7.60185e-05
0.000227002
-9.27942e-06
-9.17362e-05
0.000243814
-1.06948e-05
-0.000110348
0.000266686
-1.3208e-05
-0.000133262
0.000297119
-1.74554e-05
-0.000162314
0.000336959
-2.44638e-05
-0.000199852
0.000388249
-3.56972e-05
-0.000249163
0.000452417
-5.24384e-05
-0.000314336
0.000525702
-7.35369e-05
-0.000398567
0.000589719
-9.15412e-05
-0.000494534
0.00059658
-9.30386e-05
-0.000561214
0.000468852
-7.6473e-05
-0.000508027
0.000166369
-6.85874e-05
-0.000278504
-0.000138746
-0.00011274
-0.000141808
-0.000148814
-3.18909e-06
0.000111888
-6.82063e-06
-1.17818e-05
0.000185603
-8.88407e-06
-2.1734e-05
0.000209937
-9.24613e-06
-3.16227e-05
0.000218793
-9.00289e-06
-4.10013e-05
0.000224769
-8.81557e-06
-5.00312e-05
0.000232927
-8.90073e-06
-5.91365e-05
0.000245554
-9.44669e-06
-6.89244e-05
0.000264314
-1.07121e-05
-8.02482e-05
0.000291084
-1.30739e-05
-9.43095e-05
0.000328261
-1.70802e-05
-0.000112986
0.000379079
-2.34436e-05
-0.000139442
0.000447158
-3.24523e-05
-0.000180221
0.00053476
-4.15639e-05
-0.000248273
0.000634445
-4.06916e-05
-0.000362266
0.000714977
-1.12641e-05
-0.000531291
0.000699964
6.56409e-05
-0.00070888
0.000483901
0.00016254
-0.000711174
-6.11604e-06
0.000174779
-0.000422347
-0.000485495
5.79217e-05
-0.000468573
-9.5582e-05
-3.01041e-06
0.000122509
-7.61102e-06
-1.10576e-05
0.000203683
-1.00331e-05
-1.95815e-05
0.000228829
-1.0368e-05
-2.69938e-05
0.000236128
-9.92276e-06
-3.27852e-05
0.000240012
-9.45166e-06
-3.70083e-05
0.000246377
-9.22724e-06
-3.9852e-05
0.000257847
-9.44964e-06
-4.15036e-05
0.000276318
-1.03532e-05
-4.22387e-05
0.000304047
-1.22287e-05
-4.24056e-05
0.00034375
-1.53223e-05
-4.32666e-05
0.000399499
-1.95584e-05
-4.8607e-05
0.000475231
-2.27331e-05
-6.93216e-05
0.000571831
-1.63567e-05
-0.000132131
0.000676126
2.11283e-05
-0.000283504
0.000745582
0.000120769
-0.000559169
0.000680301
0.000295328
-0.000874719
0.000330145
0.000469306
-0.000890219
-0.000456009
0.000465393
-0.000540438
-0.00109843
0.000263153
-0.00102914
2.01309e-05
-3.81793e-06
0.000135143
-8.81521e-06
-1.21812e-05
0.000223622
-1.15759e-05
-1.96193e-05
0.000248037
-1.17693e-05
-2.44404e-05
0.000251946
-1.0997e-05
-2.61963e-05
0.000251909
-1.01413e-05
-2.48734e-05
0.000254577
-9.52278e-06
-2.041e-05
0.00026271
-9.32685e-06
-1.239e-05
0.000278019
-9.72087e-06
-2.02389e-07
0.000302763
-1.09027e-05
1.62833e-05
0.000339849
-1.25852e-05
3.69822e-05
0.000392661
-1.38609e-05
5.7618e-05
0.00046454
-9.94407e-06
6.04246e-05
0.000555163
1.3862e-05
-1.8404e-06
0.000648951
8.94399e-05
-0.000206967
0.000697703
0.000253006
-0.000613442
0.00058296
0.000503816
-0.00102951
3.44851e-05
0.000711728
-0.00104272
-0.00106264
0.000619833
-0.000678446
-0.00178878
0.000326081
-0.00175934
5.17575e-05
-6.76231e-06
0.000152926
-1.10209e-05
-1.69521e-05
0.00024826
-1.44485e-05
-2.37377e-05
0.000269466
-1.46432e-05
-2.57427e-05
0.000267412
-1.34616e-05
-2.30674e-05
0.000261214
-1.19798e-05
-1.5843e-05
0.000258032
-1.06795e-05
-3.75664e-06
0.000260443
-9.81919e-06
1.39713e-05
0.000269794
-9.50283e-06
3.8569e-05
0.000288013
-9.84858e-06
7.19227e-05
0.000316908
-1.04121e-05
0.000114624
0.000359323
-9.36458e-06
0.000162431
0.000416934
-2.00681e-07
0.0001937
0.000489184
3.47093e-05
0.000147888
0.000562395
0.000132368
-8.93756e-05
0.000600352
0.000334614
-0.000549686
0.000434539
0.000608732
-0.00100117
-0.000285105
0.000771071
-0.00109754
-0.00150856
0.000542299
-0.000800975
-0.00233288
0.000247539
-0.00252226
-3.80598e-05
-1.23224e-05
0.000179594
-1.43454e-05
-2.61542e-05
0.000279801
-1.77084e-05
-3.31862e-05
0.000293987
-1.74897e-05
-3.3156e-05
0.000282931
-1.55488e-05
-2.63458e-05
0.000267865
-1.34618e-05
-1.32701e-05
0.000256573
-1.16163e-05
6.24987e-06
0.000251205
-1.02816e-05
3.31086e-05
0.000252407
-9.47126e-06
6.93304e-05
0.000261188
-9.39591e-06
0.00011753
0.00027817
-9.46136e-06
0.000179472
0.000305145
-7.76362e-06
0.000252711
0.000341409
2.28523e-06
0.000318631
0.000385677
3.75877e-05
0.000324902
0.000425187
0.000130937
0.000160443
0.000439357
0.000325454
-0.000225925
0.000256559
0.000564347
-0.000691918
-0.000472048
0.000652936
-0.000961949
-0.00163851
0.00039998
-0.000815029
-0.00265597
0.000176168
-0.00317117
-0.000166118
-3.40999e-05
0.000235891
-2.21973e-05
-5.23461e-05
0.000325148
-2.71015e-05
-5.64009e-05
0.000324337
-2.62951e-05
-4.94299e-05
0.000299312
-2.33524e-05
-3.52846e-05
0.000273415
-1.96948e-05
-1.52635e-05
0.000252857
-1.63057e-05
1.10098e-05
0.000238638
-1.37058e-05
4.52274e-05
0.000230173
-1.19844e-05
8.99045e-05
0.000227941
-1.14303e-05
0.000148591
0.000231337
-1.18528e-05
0.00022332
0.000241192
-1.07768e-05
0.000314039
0.000254571
-3.88094e-06
0.000407418
0.000270121
2.21772e-05
0.000470487
0.00027211
9.00082e-05
0.000419079
0.000253763
0.000237002
0.000164204
9.12919e-05
0.000420142
-0.000289491
-0.000490724
0.00047237
-0.000721714
-0.00152392
0.000317628
-0.0007544
-0.00275474
0.000131456
-0.00363177
-0.000293801
-2.97495e-05
0.00030341
-3.77693e-05
-6.63278e-05
0.000400485
-3.87586e-05
-7.84861e-05
0.000372322
-3.58271e-05
-7.48055e-05
0.000324713
-2.9081e-05
-5.7651e-05
0.000280355
-2.40953e-05
-3.07213e-05
0.00024564
-1.97129e-05
4.34657e-06
0.000220087
-1.65176e-05
4.78996e-05
0.00020113
-1.45092e-05
0.000101742
0.000188383
-1.42855e-05
0.00016928
0.000179527
-1.57275e-05
0.000252062
0.000175611
-1.7201e-05
0.000351025
0.000171239
-1.56301e-05
0.000454349
0.000168166
-1.36994e-06
0.000542862
0.00014743
3.61678e-05
0.00055933
0.000111433
0.000125862
0.000412973
-1.58216e-05
0.00025347
3.48385e-05
-0.000410068
0.000297479
-0.000468237
-0.00128188
0.000261041
-0.00064784
-0.00266237
8.7234e-05
-0.00386092
-0.000418689
-0.000181936
0.000531908
-4.65628e-05
-0.000176916
0.000455845
-6.03793e-05
-0.000143221
0.000399686
-6.10589e-05
-0.00010363
0.000340032
-5.49107e-05
-5.41322e-05
0.000274915
-4.40574e-05
1.39712e-07
0.000225622
-3.42539e-05
5.79762e-05
0.000189534
-2.72836e-05
0.000120756
0.000161379
-2.30297e-05
0.000189613
0.000141415
-2.18878e-05
0.000268642
0.000124416
-2.39185e-05
0.000357628
0.000114406
-2.77817e-05
0.000458431
0.000101766
-3.13308e-05
0.000560532
9.44661e-05
-2.84009e-05
0.00064838
7.02817e-05
-1.06998e-05
0.000693944
3.38126e-05
3.20562e-05
0.000630345
-7.08805e-05
0.000118658
0.000405555
-0.000331227
0.000145949
-5.84795e-05
-0.00100919
0.000191345
-0.000379997
-0.00237975
3.8898e-05
-0.00368951
-0.000551407
-0.000372096
0.00107631
-0.000172301
-0.000262023
0.000478139
-0.000132367
-0.000103631
0.000347229
-0.000105935
7.1597e-05
0.00024512
-8.03163e-05
0.000239562
0.000171434
-6.44838e-05
0.000394623
0.000122566
-5.20043e-05
0.000535289
9.21466e-05
-4.32785e-05
0.000664514
7.01666e-05
-3.80121e-05
0.000784835
5.66921e-05
-3.55981e-05
0.000901252
4.46581e-05
-3.66591e-05
0.00101641
3.92206e-05
-3.99736e-05
0.00113342
3.06186e-05
-4.58616e-05
0.00125148
2.63653e-05
-4.99636e-05
0.00135766
1.05008e-05
-4.63953e-05
0.00144166
-1.63903e-05
-3.38009e-05
0.00145715
-9.52121e-05
8.84347e-06
0.00136111
-0.000281589
4.63998e-05
0.00097683
-0.000716988
9.20807e-05
0.000274746
-0.00166883
-8.83262e-06
-0.00273125
-0.000683514
0.00122595
-0.000149646
0.0018665
-0.000162414
0.00237686
-0.000163125
0.00277186
-0.00014988
0.00307631
-0.000133019
0.00331767
-0.000118791
0.00351512
-0.000105306
0.00368088
-9.55874e-05
0.00382337
-8.5803e-05
0.00394872
-8.06928e-05
0.00406251
-7.45646e-05
0.00416669
-7.3564e-05
0.00426178
-6.87271e-05
0.00434082
-6.85328e-05
0.00438149
-5.70626e-05
0.00434165
-5.5372e-05
0.00409156
-3.15055e-05
0.00343723
-6.26587e-05
0.00189414
-0.000125741
-0.000837109
-5.37067e-06
6.44722e-06
-2.07582e-06
-1.69715e-05
1.31223e-05
-2.17248e-06
-3.08947e-05
1.55204e-05
-2.03764e-06
-4.56622e-05
1.64018e-05
-1.96363e-06
-6.07903e-05
1.68522e-05
-2.07406e-06
-7.61199e-05
1.72209e-05
-2.36371e-06
-9.14806e-05
1.75152e-05
-2.8464e-06
-0.000106554
1.76107e-05
-3.56824e-06
-0.000120806
1.73213e-05
-4.59565e-06
-0.000133439
1.64136e-05
-6.00487e-06
-0.000143364
1.46204e-05
-7.86903e-06
-0.00014921
1.16713e-05
-1.02362e-05
-0.000149423
7.36163e-06
-1.30938e-05
-0.000142487
1.66602e-06
-1.63274e-05
-0.000127302
-5.14911e-06
-1.96362e-05
-0.000103811
-1.22233e-05
-2.25412e-05
-7.37438e-05
-1.80126e-05
-2.43948e-05
-4.12209e-05
-2.03485e-05
-2.45227e-05
-1.29057e-05
-1.70279e-05
-2.22241e-05
-5.14152e-06
-1.40024e-05
-1.23206e-05
2.03818e-05
-4.16373e-06
-3.43802e-05
3.76728e-05
-5.09177e-06
-6.02085e-05
4.39933e-05
-5.17257e-06
-8.74102e-05
4.62938e-05
-5.12294e-06
-0.000115039
4.72793e-05
-5.2524e-06
-0.00014262
4.78248e-05
-5.6062e-06
-0.000169687
4.79817e-05
-6.22818e-06
-0.000195573
4.747e-05
-7.19657e-06
-0.000219309
4.58482e-05
-8.61465e-06
-0.000239548
4.2561e-05
-1.06001e-05
-0.000254543
3.69821e-05
-1.32663e-05
-0.000262176
2.84868e-05
-1.66882e-05
-0.000260119
1.66279e-05
-2.08496e-05
-0.000246337
1.59511e-06
-2.5617e-05
-0.000219209
-1.62236e-05
-3.05291e-05
-0.000178834
-3.44899e-05
-3.48388e-05
-0.000127968
-4.94526e-05
-3.75459e-05
-7.30473e-05
-5.5716e-05
-3.75136e-05
-2.4599e-05
-4.77007e-05
-3.33648e-05
-1.82969e-05
-1.95654e-05
-1.53035e-05
3.76657e-05
-5.4066e-06
-4.20262e-05
6.75061e-05
-6.8494e-06
-7.3037e-05
7.83234e-05
-7.07331e-06
-0.0001055
8.21203e-05
-7.02313e-06
-0.00013831
8.35562e-05
-7.1241e-06
-0.00017091
8.41235e-05
-7.45685e-06
-0.000202765
8.39477e-05
-8.08929e-06
-0.000233141
8.26059e-05
-9.1272e-06
-0.00026098
7.94034e-05
-1.07097e-05
-0.000284814
7.3449e-05
-1.30023e-05
-0.000302709
6.37194e-05
-1.61766e-05
-0.000312284
4.9187e-05
-2.03749e-05
-0.000310832
2.90797e-05
-2.56547e-05
-0.000295546
3.3756e-06
-3.18744e-05
-0.000264208
-2.72428e-05
-3.84854e-05
-0.000216394
-5.90813e-05
-4.4508e-05
-0.000154946
-8.57544e-05
-4.84149e-05
-8.78257e-05
-9.75512e-05
-4.83627e-05
-2.88002e-05
-8.4144e-05
-4.23259e-05
-3.31568e-05
-2.37537e-05
-1.63518e-05
5.63285e-05
-6.37932e-06
-4.49443e-05
9.97398e-05
-8.24638e-06
-7.80518e-05
0.000115328
-8.59246e-06
-0.000112669
0.00012068
-8.5507e-06
-0.000147693
0.000122623
-8.63989e-06
-0.00018263
0.000123342
-8.97261e-06
-0.000217032
0.000123078
-9.64303e-06
-0.000250272
0.000121301
-1.0791e-05
-0.0002814
0.000117091
-1.26048e-05
-0.000309016
0.000109221
-1.53223e-05
-0.000331151
9.62133e-05
-1.92179e-05
-0.000345169
7.64818e-05
-2.45605e-05
-0.00034778
4.86547e-05
-3.15412e-05
-0.000335277
1.22418e-05
-4.01365e-05
-0.000304068
-3.22601e-05
-4.98197e-05
-0.000252055
-8.03816e-05
-5.91419e-05
-0.00018131
-0.000122595
-6.56354e-05
-0.000101381
-0.000143298
-6.59341e-05
-3.11196e-05
-0.000124598
-5.66504e-05
-4.68489e-05
-3.02236e-05
-1.64708e-05
7.54274e-05
-7.155e-06
-4.56192e-05
0.000133034
-9.40289e-06
-7.94693e-05
0.000153628
-9.86141e-06
-0.000114965
0.00016068
-9.84385e-06
-0.000151083
0.000163351
-9.95656e-06
-0.000187473
0.000164606
-1.03464e-05
-0.000223886
0.000164869
-1.11399e-05
-0.000259928
0.000163564
-1.25223e-05
-0.000294901
0.0001596
-1.47521e-05
-0.000327624
0.000151442
-1.81756e-05
-0.00035622
0.000137113
-2.32308e-05
-0.000377852
0.000114285
-3.04175e-05
-0.000388528
8.0609e-05
-4.01919e-05
-0.000383085
3.44696e-05
-5.27553e-05
-0.00035588
-2.42676e-05
-6.77981e-05
-0.00030182
-9.17758e-05
-8.32914e-05
-0.000220463
-0.000155646
-9.50086e-05
-0.00012219
-0.000192671
-9.6468e-05
-3.44469e-05
-0.000171032
-8.11619e-05
-5.88458e-05
-4.04882e-05
-1.61558e-05
9.45262e-05
-7.82402e-06
-4.52379e-05
0.000166762
-1.04381e-05
-7.92089e-05
0.000192601
-1.10075e-05
-0.000115008
0.000201549
-1.10274e-05
-0.000151717
0.000205251
-1.11911e-05
-0.000189186
0.000207568
-1.16845e-05
-0.000227442
0.000209198
-1.26734e-05
-0.000266439
0.000209627
-1.44017e-05
-0.00030588
0.000207697
-1.72214e-05
-0.000345
0.000201653
-2.16322e-05
-0.000382244
0.000189059
-2.83194e-05
-0.000414827
0.000166762
-3.81642e-05
-0.000438215
0.000131087
-5.2142e-05
-0.000445681
7.85677e-05
-7.10584e-05
-0.000429199
7.80546e-06
-9.50206e-05
-0.000378314
-8.17053e-05
-0.000121232
-0.000286774
-0.000177058
-0.000142377
-0.000161483
-0.000247502
-0.000146106
-4.28931e-05
-0.000232464
-0.000120439
-7.29749e-05
-5.56752e-05
-1.56003e-05
0.000113398
-8.4695e-06
-4.42692e-05
0.000200601
-1.14609e-05
-7.79838e-05
0.000231894
-1.21405e-05
-0.000113678
0.0002429
-1.21955e-05
-0.000150545
0.000247911
-1.24112e-05
-0.000188657
0.000251811
-1.30172e-05
-0.000228379
0.00025571
-1.42259e-05
-0.000270117
0.000259307
-1.6351e-05
-0.000314152
0.000261562
-1.98617e-05
-0.000360411
0.000260719
-2.54609e-05
-0.000408073
0.000254105
-3.41862e-05
-0.000454988
0.00023793
-4.75049e-05
-0.000496877
0.000207222
-6.72827e-05
-0.00052635
0.000156117
-9.53573e-05
-0.00053172
7.8722e-05
-0.000132183
-0.000498414
-3.09795e-05
-0.000173865
-0.000405583
-0.000175756
-0.000205935
-0.000244555
-0.000319835
-0.000209515
-6.9122e-05
-0.000339486
-0.000170954
-0.000107887
-7.6489e-05
-1.48698e-05
0.000131901
-9.15176e-06
-4.28738e-05
0.00023435
-1.25517e-05
-7.5997e-05
0.000271221
-1.33331e-05
-0.000111133
0.00028432
-1.33978e-05
-0.000147561
0.000290757
-1.36311e-05
-0.000185579
0.000296599
-1.43105e-05
-0.000225908
0.000303524
-1.56976e-05
-0.000269481
0.00031164
-1.8181e-05
-0.000317324
0.000320314
-2.23604e-05
-0.00037037
0.00032817
-2.91798e-05
-0.000429091
0.000332812
-4.01225e-05
-0.00049291
0.000330481
-5.7439e-05
-0.000559383
0.000315676
-8.41722e-05
-0.00062294
0.000280209
-0.000123144
-0.000672089
0.000209891
-0.00017328
-0.000684558
7.79593e-05
-0.000222579
-0.000617388
-0.000154038
-0.000246792
-0.000419446
-0.000455248
-0.000235742
-0.000144163
-0.000568422
-0.000199399
-0.000220648
-0.000101641
-1.402e-05
0.000149975
-9.92521e-06
-4.117e-05
0.000267905
-1.37834e-05
-7.33596e-05
0.000310321
-1.46475e-05
-0.000107375
0.000325307
-1.46697e-05
-0.000142534
0.000332989
-1.48472e-05
-0.000179324
0.000340785
-1.55072e-05
-0.000218797
0.000351099
-1.69567e-05
-0.000262408
0.000364671
-1.96495e-05
-0.00031199
0.000381602
-2.43008e-05
-0.000369709
0.00040144
-3.20793e-05
-0.000437926
0.000422931
-4.48989e-05
-0.000518922
0.000443613
-6.56867e-05
-0.000614529
0.000458788
-9.78844e-05
-0.000724928
0.000456972
-0.000142054
-0.000844158
0.000406501
-0.000186709
-0.000944519
0.000233921
-0.000200667
-0.000945147
-0.000162646
-0.000163042
-0.000720342
-0.000734618
-0.000130548
-0.000304942
-0.00100764
-0.00015268
-0.000517454
-0.000122801
-1.31677e-05
0.000167713
-1.08585e-05
-3.93968e-05
0.000301333
-1.52475e-05
-7.034e-05
0.000349005
-1.61647e-05
-0.000102592
0.000365309
-1.6066e-05
-0.000135437
0.000373607
-1.60759e-05
-0.000169481
0.000382833
-1.65707e-05
-0.000206011
0.000396241
-1.78906e-05
-0.000246883
0.000415374
-2.05246e-05
-0.000294612
0.000441365
-2.52418e-05
-0.000352531
0.000475207
-3.33028e-05
-0.00042502
0.00051767
-4.67145e-05
-0.000517894
0.000568769
-6.79795e-05
-0.000639458
0.000625142
-9.72273e-05
-0.000800292
0.000667405
-0.000123136
-0.0010039
0.000629315
-0.000110747
-0.00121278
0.000369112
-1.93542e-05
-0.00129558
-0.000268687
0.000112369
-0.00105851
-0.00115799
0.000117718
-0.000530419
-0.00161198
-3.64919e-05
-0.00108778
-0.000108904
-1.25435e-05
0.000185493
-1.20575e-05
-3.80234e-05
0.000335002
-1.70737e-05
-6.75258e-05
0.000387258
-1.7997e-05
-9.73595e-05
0.000403812
-1.76726e-05
-0.000126715
0.000411516
-1.73696e-05
-0.000156218
0.000420948
-1.75123e-05
-0.000187222
0.000436249
-1.8451e-05
-0.00022171
0.000459805
-2.0656e-05
-0.000262481
0.000493889
-2.48272e-05
-0.00031349
0.00054115
-3.20134e-05
-0.000380475
0.000604695
-4.3483e-05
-0.000472018
0.00068675
-5.8891e-05
-0.00060205
0.000782435
-6.88244e-05
-0.000791081
0.000856945
-4.12009e-05
-0.00105184
0.000801923
7.68901e-05
-0.00133624
0.000417676
0.000301477
-0.00148202
-0.000454262
0.000493892
-0.00126287
-0.00160513
0.000402768
-0.000709875
-0.00222549
0.000118434
-0.00187103
-2.22129e-05
-1.26064e-05
0.000204206
-1.37173e-05
-3.79306e-05
0.000369819
-1.95256e-05
-6.60097e-05
0.000425396
-2.04271e-05
-9.2823e-05
0.000440463
-1.976e-05
-0.000117491
0.000445698
-1.89653e-05
-0.000140594
0.000453356
-1.8532e-05
-0.000163337
0.00046835
-1.88078e-05
-0.00018743
0.000493732
-2.01875e-05
-0.000215293
0.000532676
-2.31526e-05
-0.000250394
0.000589066
-2.81376e-05
-0.000298187
0.000667577
-3.4648e-05
-0.000367805
0.000770916
-3.72812e-05
-0.000476478
0.000890466
-1.57158e-05
-0.000654094
0.000974797
8.08929e-05
-0.000929109
0.000887553
0.000310154
-0.00126012
0.000401901
0.000642111
-0.00146809
-0.000613116
0.00083613
-0.00128736
-0.00191241
0.000591947
-0.000762674
-0.00270313
0.000216116
-0.00266476
5.11899e-05
-1.39428e-05
0.000225421
-1.60872e-05
-4.02543e-05
0.00040733
-2.27755e-05
-6.7332e-05
0.000464206
-2.35015e-05
-9.08311e-05
0.000475276
-2.23111e-05
-0.000109831
0.00047542
-2.08636e-05
-0.000124867
0.000478566
-1.96966e-05
-0.00013689
0.000490167
-1.91206e-05
-0.000147005
0.00051353
-1.9403e-05
-0.000156684
0.000552183
-2.07317e-05
-0.000167982
0.000610487
-2.27077e-05
-0.000184914
0.000693481
-2.28333e-05
-0.000215389
0.000803112
-1.16651e-05
-0.000279782
0.000928025
4.06963e-05
-0.000419156
0.00100931
0.000194304
-0.000686174
0.000907231
0.000500346
-0.0010471
0.000387325
0.000879314
-0.00128606
-0.000662756
0.00100033
-0.00116118
-0.00201088
0.000593413
-0.0007341
-0.00298888
0.000184748
-0.0033474
2.99016e-07
-1.84469e-05
0.000252758
-1.99119e-05
-4.79805e-05
0.000450479
-2.80639e-05
-7.43819e-05
0.000504692
-2.87278e-05
-9.36667e-05
0.000507971
-2.68719e-05
-0.000105837
0.00050006
-2.44498e-05
-0.000111625
0.000495857
-2.21833e-05
-0.000111529
0.00050069
-2.04387e-05
-0.000105748
0.00051766
-1.94136e-05
-9.45212e-05
0.000550152
-1.9044e-05
-7.81435e-05
0.000601986
-1.82893e-05
-5.81876e-05
0.000677615
-1.3454e-05
-4.05739e-05
0.00077817
7.12816e-06
-4.67995e-05
0.000892502
7.64581e-05
-0.000123896
0.000965611
0.00025316
-0.000340655
0.000877002
0.000581603
-0.000666245
0.00038978
0.000931866
-0.000895326
-0.000616094
0.000953489
-0.000900467
-0.00192558
0.00046214
-0.000634424
-0.00310593
9.85428e-05
-0.00391143
-0.000108456
-2.46335e-05
0.00028838
-2.53332e-05
-5.95985e-05
0.000502242
-3.45064e-05
-8.76337e-05
0.000549962
-3.47247e-05
-0.000104961
0.000541547
-3.17973e-05
-0.000111021
0.000521019
-2.83607e-05
-0.000107094
0.000505395
-2.5081e-05
-9.39407e-05
0.000499605
-2.23495e-05
-7.1335e-05
0.000505854
-2.02707e-05
-3.84627e-05
0.000526664
-1.87804e-05
6.50435e-06
0.000564095
-1.65374e-05
6.31845e-05
0.000622672
-9.50044e-06
0.000130455
0.000700352
1.2832e-05
0.000193546
0.000787797
7.92021e-05
0.000213214
0.000839988
0.000236893
0.000116799
0.000771155
0.000527716
-0.00011409
0.000376736
0.00080828
-0.000340842
-0.000507443
0.000771036
-0.000526173
-0.00168436
0.000344097
-0.00045084
-0.0030495
4.4403e-05
-0.00431875
-0.00020964
-5.82613e-05
0.000359894
-3.54502e-05
-0.00010007
0.000564427
-4.74788e-05
-0.000121976
0.000592791
-4.72172e-05
-0.000127516
0.000566897
-4.31622e-05
-0.000121761
0.00053348
-3.79109e-05
-0.000106489
0.000506525
-3.27081e-05
-8.13744e-05
0.000489026
-2.82416e-05
-4.45678e-05
0.000481812
-2.47485e-05
6.37752e-06
0.000486639
-2.23509e-05
7.35694e-05
0.000504609
-1.95583e-05
0.000160598
0.000538465
-1.35988e-05
0.000268662
0.000585069
3.33847e-06
0.000388483
0.000637322
5.28303e-05
0.000495119
0.000659049
0.000164311
0.000527146
0.000602822
0.000373308
0.000416811
0.000320027
0.000587186
0.000188751
-0.000356502
0.000549491
-0.000146813
-0.00130788
0.000276713
-0.000230026
-0.00285701
2.21805e-05
-0.00455144
-0.000291134
-3.97804e-05
0.000415809
-5.39041e-05
-0.000112632
0.000665047
-6.65275e-05
-0.00015362
0.000661328
-6.33758e-05
-0.000165734
0.000604997
-5.50671e-05
-0.000157011
0.000548435
-4.77739e-05
-0.0001325
0.000503223
-4.09224e-05
-9.44189e-05
0.000469668
-3.52404e-05
-4.20352e-05
0.00044586
-3.09411e-05
2.62293e-05
0.000432558
-2.84685e-05
0.000113711
0.000428248
-2.6848e-05
0.00022337
0.000435866
-2.42606e-05
0.000357845
0.000449868
-1.49051e-05
0.000509338
0.000470617
1.3843e-05
0.000659987
0.000466691
7.78771e-05
0.000767349
0.000419718
0.000201604
0.000746025
0.000241791
0.00035303
0.000557731
-0.000210023
0.000339294
0.000211785
-0.00091351
0.000212613
5.23335e-05
-0.00262017
9.85177e-06
-0.00456204
-0.000355759
-0.000188961
0.000619416
-6.12089e-05
-0.0002096
0.000711269
-8.59614e-05
-0.000217409
0.000698491
-9.04129e-05
-0.000216181
0.000632587
-8.37283e-05
-0.000189318
0.000549798
-7.22825e-05
-0.000142983
0.000483358
-6.07228e-05
-8.10616e-05
0.000431874
-5.14106e-05
-3.27193e-06
0.000389924
-4.48837e-05
8.91534e-05
0.000359952
-4.17075e-05
0.00019936
0.000335585
-4.1462e-05
0.000326793
0.000323375
-4.27245e-05
0.000474485
0.000312639
-4.17939e-05
0.000635994
0.000312362
-3.16543e-05
0.0007933
0.000299693
-1.00875e-06
0.000931111
0.000259727
5.42363e-05
0.00098077
0.000157852
0.000152938
0.000938675
-0.000164205
0.000142226
0.000768213
-0.000672512
0.000120808
0.000497692
-0.00230624
-4.51721e-06
-0.00420567
-0.000410079
-0.000665448
0.00128319
-0.000170625
-0.000621414
0.000702096
-0.000167229
-0.000473738
0.000587893
-0.000143013
-0.000269693
0.000470513
-0.000122288
-5.68827e-05
0.000379234
-0.00010673
0.000154581
0.000312632
-9.27429e-05
0.000358903
0.000266376
-8.21018e-05
0.000555889
0.000229456
-7.45306e-05
0.000746694
0.000203733
-7.01844e-05
0.000933908
0.000180898
-6.91852e-05
0.00112143
0.000167092
-7.12094e-05
0.00130936
0.000153084
-7.42425e-05
0.00150581
0.000143323
-7.73766e-05
0.00169972
0.000129016
-6.96277e-05
0.00188986
9.20341e-05
-5.62487e-05
0.00203524
3.46838e-05
-1.33664e-05
0.00208414
-0.00018021
1.35098e-05
0.00202969
-0.000546375
2.03925e-05
0.0013873
-0.00164127
-3.14054e-05
-0.00304099
-0.000460902
0.00126913
-0.000135591
0.00196867
-0.000159855
0.00255969
-0.000166251
0.00304148
-0.000161159
0.00343924
-0.00015154
0.00377428
-0.000141199
0.00406575
-0.000130403
0.00432192
-0.000122298
0.0045532
-0.00011336
0.00476228
-0.00010887
0.00495717
-0.000102366
0.00513902
-0.000102323
0.00530985
-9.62394e-05
0.00546967
-9.93373e-05
0.00559153
-8.68857e-05
0.0056631
-9.22608e-05
0.00552119
-6.98042e-05
0.00501687
-0.000104708
0.00336345
-0.000113599
-0.000514646
-6.13983e-06
6.74598e-06
-2.68198e-06
-1.96105e-05
1.46777e-05
-3.37956e-06
-3.57959e-05
1.75993e-05
-3.4516e-06
-5.28595e-05
1.85958e-05
-3.49579e-06
-7.02123e-05
1.89924e-05
-3.71367e-06
-8.76709e-05
1.92388e-05
-4.14389e-06
-0.000105044
1.93519e-05
-4.82493e-06
-0.000121978
1.91845e-05
-5.81885e-06
-0.000137884
1.85152e-05
-7.20533e-06
-0.000151884
1.70657e-05
-9.07073e-06
-0.000162778
1.45172e-05
-1.14917e-05
-0.000169053