/*--------------------------------*- C++ -*----------------------------------*\
  =========                 |
  \\      /  F ield         | OpenFOAM: The Open Source CFD Toolbox
   \\    /   O peration     | Website:  https://openfoam.org
    \\  /    A nd           | Version:  10
     \\/     M anipulation  |
\*---------------------------------------------------------------------------*/
FoamFile
{
    format      ascii;
    class       volVectorField;
    location    "9.225";
    object      U;
}
// * * * * * * * * * * * * * * * * * * * * * * * * * * * * * * * * * * * * * //

dimensions      [0 1 -1 0 0 0 0];

internalField   nonuniform List<vector> 
8000
(
(-8.25025e-05 0.000114828 -4.66298e-05)
(-0.000573796 0.000238556 -9.6407e-06)
(-0.00138614 0.000277615 8.59885e-06)
(-0.00222666 0.000295644 1.82186e-05)
(-0.00311752 0.000312089 1.87752e-05)
(-0.00403857 0.000332423 1.33172e-05)
(-0.0049832 0.000355781 2.88061e-06)
(-0.00593895 0.000378862 -1.34589e-05)
(-0.00688071 0.000397036 -3.76626e-05)
(-0.00776729 0.000404399 -7.22828e-05)
(-0.00853778 0.000393829 -0.000120113)
(-0.00910958 0.000357652 -0.000183601)
(-0.00938123 0.000289828 -0.000263694)
(-0.00924298 0.000188996 -0.00035817)
(-0.00859875 5.93386e-05 -0.000459664)
(-0.00739633 -8.72013e-05 -0.000551051)
(-0.00568258 -0.000213441 -0.000609373)
(-0.00367477 -0.000273553 -0.000608246)
(-0.00151542 -0.00022753 -0.000528892)
(-0.000196736 -1.30744e-06 -0.000274956)
(-0.000202814 0.000749596 -0.00013933)
(-0.00108313 0.0012995 -0.000127745)
(-0.00243598 0.00148769 -0.000118652)
(-0.00383698 0.0015726 -0.000111011)
(-0.00531144 0.0016341 -0.000110327)
(-0.00682226 0.00169528 -0.000114826)
(-0.00835163 0.00175483 -0.000124106)
(-0.00987453 0.00180112 -0.000139634)
(-0.0113486 0.0018167 -0.000163975)
(-0.0127088 0.00177934 -0.000200577)
(-0.0138627 0.00166327 -0.000253466)
(-0.0146871 0.00144194 -0.000326517)
(-0.0150326 0.00109359 -0.000421733)
(-0.0147419 0.000611406 -0.000537102)
(-0.0136826 2.06299e-05 -0.000667781)
(-0.0117741 -0.000606235 -0.000783344)
(-0.00907974 -0.00114197 -0.000854099)
(-0.00592041 -0.00141009 -0.000841509)
(-0.00251423 -0.00125136 -0.000713043)
(-0.000372914 -0.000400721 -0.00032316)
(-0.000240585 0.00180841 -0.00019149)
(-0.00126249 0.00297944 -0.000194294)
(-0.0028164 0.0033865 -0.000190312)
(-0.00441657 0.00356353 -0.000182967)
(-0.00609545 0.00367756 -0.000180972)
(-0.00781199 0.00377713 -0.000183402)
(-0.00954791 0.0038625 -0.000190336)
(-0.0112782 0.00391311 -0.000203746)
(-0.0129598 0.00389635 -0.000226903)
(-0.0145253 0.00376989 -0.000264415)
(-0.0158761 0.00348438 -0.000321965)
(-0.0168784 0.00298875 -0.000405518)
(-0.0173637 0.00224121 -0.000519572)
(-0.0171377 0.00122887 -0.000664482)
(-0.0160111 -1.2337e-06 -0.000829921)
(-0.0138588 -0.00130751 -0.000985968)
(-0.0107215 -0.00244565 -0.00108447)
(-0.00696974 -0.00304653 -0.00106921)
(-0.0028747 -0.00276667 -0.000893848)
(-0.000369225 -0.00107578 -0.000383392)
(-0.000243879 0.00292896 -0.000227998)
(-0.00130225 0.0047631 -0.000242873)
(-0.00291627 0.00539518 -0.000243104)
(-0.00457438 0.00566209 -0.000236335)
(-0.00631799 0.00582803 -0.000233954)
(-0.00810848 0.00597001 -0.000235807)
(-0.00993389 0.00609178 -0.000242495)
(-0.011777 0.00616619 -0.000256604)
(-0.0136038 0.00614783 -0.000282318)
(-0.0153551 0.00597555 -0.000325755)
(-0.0169367 0.00557482 -0.000395081)
(-0.0182094 0.00486478 -0.000499665)
(-0.0189818 0.00377396 -0.000647857)
(-0.0190137 0.00226927 -0.000843112)
(-0.0180419 0.000398384 -0.00107685)
(-0.0158451 -0.00164815 -0.00131331)
(-0.0123698 -0.00350257 -0.00147418)
(-0.00802212 -0.00454629 -0.0014694)
(-0.00313003 -0.00418178 -0.00122176)
(-0.000272083 -0.00154553 -0.000510698)
(-0.000230168 0.00410326 -0.000252184)
(-0.00127358 0.00664064 -0.000277172)
(-0.00288246 0.00751136 -0.000280828)
(-0.00453814 0.00787618 -0.000275045)
(-0.00628987 0.00810524 -0.000273669)
(-0.00810468 0.00830852 -0.000277384)
(-0.00998112 0.00849699 -0.000287458)
(-0.0119154 0.00864072 -0.000307367)
(-0.0138895 0.00868539 -0.000342659)
(-0.0158618 0.00855396 -0.00040165)
(-0.0177518 0.00814642 -0.000496129)
(-0.019423 0.00734501 -0.000641143)
(-0.0206638 0.00603116 -0.000852275)
(-0.0211744 0.00411954 -0.00113903)
(-0.020577 0.00162109 -0.00149338)
(-0.0185032 -0.00126241 -0.00188398)
(-0.0147166 -0.00401058 -0.00217841)
(-0.00960023 -0.00572302 -0.00222027)
(-0.00351599 -0.00539623 -0.00185143)
(-0.000110129 -0.00171122 -0.000758539)
(-0.000207205 0.00528344 -0.000269334)
(-0.00120717 0.00854698 -0.000303323)
(-0.00277495 0.00966817 -0.000310056)
(-0.00439474 0.0101414 -0.000305699)
(-0.00612168 0.0104504 -0.000306458)
(-0.00792978 0.010744 -0.000314007)
(-0.0098306 0.0110461 -0.000330505)
(-0.0118378 0.0113302 -0.000360655)
(-0.0139561 0.0115402 -0.000411927)
(-0.0161708 0.0115897 -0.000495785)
(-0.0184296 0.0113582 -0.0006293)
(-0.0206145 0.0106881 -0.000836318)
(-0.022509 0.00939683 -0.00114547)
(-0.0237621 0.00731272 -0.00157999)
(-0.0238729 0.00434935 -0.00214164)
(-0.0222226 0.000643292 -0.00281227)
(-0.0182732 -0.0032065 -0.0034098)
(-0.012247 -0.00597214 -0.00361038)
(-0.00433724 -0.0060331 -0.00305988)
(7.49832e-05 -0.00133515 -0.00122318)
(-0.000177527 0.00644396 -0.000283784)
(-0.00111422 0.0104471 -0.000326565)
(-0.00261453 0.0118287 -0.000336173)
(-0.00417008 0.01242 -0.0003332)
(-0.00583955 0.0128257 -0.000336286)
(-0.00760351 0.0132405 -0.000348341)
(-0.00948707 0.0137087 -0.000372709)
(-0.011524 0.014217 -0.00041573)
(-0.0137471 0.0147189 -0.000487382)
(-0.0161787 0.0151334 -0.000603412)
(-0.0188127 0.0153337 -0.000788486)
(-0.0215805 0.0151365 -0.0010798)
(-0.0242981 0.0142965 -0.00152862)
(-0.0266018 0.012528 -0.00219325)
(-0.0278816 0.00957686 -0.00311416)
(-0.0272504 0.00536538 -0.00424681)
(-0.0236857 0.000278219 -0.00542975)
(-0.0168981 -0.0042439 -0.00607607)
(-0.00641979 -0.00553034 -0.00532792)
(2.84944e-05 -0.000328305 -0.0021401)
(-0.000141979 0.00756892 -0.000297922)
(-0.000999204 0.0123191 -0.000349765)
(-0.00240849 0.0139665 -0.00036179)
(-0.00386898 0.0146789 -0.000359334)
(-0.00544021 0.0151899 -0.000363744)
(-0.00710702 0.0157481 -0.000379427)
(-0.00890602 0.0164274 -0.000411151)
(-0.0108899 0.0172392 -0.0004672)
(-0.013121 0.0181639 -0.000560616)
(-0.0156659 0.0191493 -0.000712369)
(-0.018581 0.0200962 -0.000956493)
(-0.0218805 0.0208362 -0.00134749)
(-0.0254793 0.0211069 -0.00196778)
(-0.0290993 0.0205311 -0.00292531)
(-0.0321572 0.0186255 -0.00432275)
(-0.0336137 0.0148321 -0.00617635)
(-0.0318035 0.00874576 -0.00824585)
(-0.0251958 0.00123673 -0.00980057)
(-0.0117517 -0.00322871 -0.00908566)
(-0.0011135 0.0010993 -0.00402481)
(-0.000102279 0.00864814 -0.000313422)
(-0.000868666 0.0141482 -0.000374829)
(-0.00216651 0.0160576 -0.000388394)
(-0.0034983 0.0168802 -0.000384636)
(-0.00492147 0.0174874 -0.000388052)
(-0.00642088 0.0181904 -0.000404775)
(-0.00803971 0.019102 -0.000441151)
(-0.00984376 0.0202712 -0.000507441)
(-0.0119178 0.0217241 -0.000619634)
(-0.0143673 0.0234682 -0.000803626)
(-0.0173143 0.0254806 -0.00110236)
(-0.0208811 0.0276832 -0.00158603)
(-0.0251523 0.0298997 -0.00236124)
(-0.030097 0.0317547 -0.00356979)
(-0.0354422 0.0324735 -0.00536283)
(-0.0403726 0.0305233 -0.00784316)
(-0.0427848 0.023464 -0.010911)
(-0.0388726 0.0107472 -0.0138508)
(-0.0235711 -0.000506808 -0.0137047)
(-0.00512984 0.00148382 -0.00771487)
(-6.26519e-05 0.00968033 -0.000332297)
(-0.000737084 0.0159293 -0.000403878)
(-0.00191123 0.0180827 -0.000417712)
(-0.00308175 0.0189837 -0.000409903)
(-0.00430176 0.0196502 -0.000408679)
(-0.00555036 0.0204656 -0.000422129)
(-0.00686961 0.021589 -0.000458163)
(-0.00832667 0.0231167 -0.00052863)
(-0.0100122 0.025138 -0.000651314)
(-0.0120479 0.0277494 -0.000854043)
(-0.0145946 0.031055 -0.00118108)
(-0.0178616 0.0351491 -0.00169741)
(-0.0221381 0.040058 -0.00247672)
(-0.027827 0.0454548 -0.0035678)
(-0.0354287 0.0500366 -0.00499696)
(-0.045151 0.0504514 -0.00696593)
(-0.0545602 0.0408506 -0.0101444)
(-0.05693 0.0185754 -0.0141713)
(-0.0426034 -0.00421422 -0.0148527)
(-0.0130165 -0.00396103 -0.0121481)
(-3.13958e-05 0.0106811 -0.000357622)
(-0.000631879 0.0176762 -0.000440106)
(-0.00168626 0.0200331 -0.000452425)
(-0.00267046 0.0209503 -0.000436929)
(-0.00363404 0.0216026 -0.000426101)
(-0.00454424 0.0224533 -0.000430484)
(-0.00543398 0.0237091 -0.000459221)
(-0.00635506 0.0255154 -0.000524717)
(-0.00737726 0.0280304 -0.000644032)
(-0.00859819 0.0314513 -0.000840044)
(-0.0101621 0.0360364 -0.00114102)
(-0.0122968 0.0420812 -0.00156071)
(-0.0154846 0.0498063 -0.00201735)
(-0.0206941 0.0587243 -0.00221235)
(-0.0295729 0.0664442 -0.00183444)
(-0.044249 0.0667537 -0.00133733)
(-0.0635623 0.0506203 -0.00274013)
(-0.076475 0.0132178 -0.0047405)
(-0.0626556 -0.0243189 -0.00450991)
(-0.0209734 -0.0251997 -0.010902)
(-2.44077e-05 0.0117004 -0.000395165)
(-0.00060212 0.0194422 -0.000491439)
(-0.00156702 0.0219352 -0.000501397)
(-0.0023529 0.0227695 -0.000474323)
(-0.00301557 0.0232911 -0.000447689)
(-0.00350814 0.024048 -0.000435862)
(-0.0038503 0.0252894 -0.000449145)
(-0.00406168 0.0271977 -0.000499308)
(-0.00416314 0.0299863 -0.000599843)
(-0.00417952 0.0339209 -0.0007588)
(-0.00417453 0.0393829 -0.000965992)
(-0.00432399 0.0467786 -0.00112849)
(-0.00530241 0.0563008 -0.000896433)
(-0.00878622 0.0669452 0.000584634)
(-0.0184072 0.0749643 0.00397105)
(-0.0397399 0.0717411 0.00868983)
(-0.0740394 0.0456709 0.0129834)
(-0.0970719 -0.0142457 0.0192315)
(-0.0787891 -0.0712149 0.0175787)
(-0.0272817 -0.0683037 -0.0010132)
(-6.93082e-05 0.0128246 -0.000454977)
(-0.000722256 0.0212933 -0.00056316)
(-0.00166195 0.0237926 -0.000564151)
(-0.00225731 0.0243879 -0.00051773)
(-0.0025915 0.0246227 -0.000468915)
(-0.0026079 0.0251201 -0.000436015)
(-0.00231884 0.0261493 -0.000429068)
(-0.00170249 0.0279007 -0.000456768)
(-0.000721543 0.0306075 -0.000529571)
(0.000704671 0.0345634 -0.000630006)
(0.00262497 0.0401586 -0.000708769)
(0.00489608 0.0477799 -0.000556516)
(0.00660256 0.0574505 0.000499581)
(0.00522984 0.0676724 0.00385721)
(-0.00573463 0.0738392 0.0107067)
(-0.0368242 0.0656355 0.021089)
(-0.0877733 0.0222917 0.0348177)
(-0.113795 -0.0750729 0.043336)
(-0.0958323 -0.146534 0.0282664)
(-0.0357058 -0.135973 0.00573186)
(-0.000234299 0.0142736 -0.000574736)
(-0.00115414 0.0235322 -0.000712811)
(-0.00216384 0.0259185 -0.000714571)
(-0.00256646 0.0261052 -0.000643873)
(-0.00253515 0.0258377 -0.000557781)
(-0.00203663 0.0258283 -0.000485489)
(-0.00108922 0.0263674 -0.000442826)
(0.000374968 0.0276308 -0.000435386)
(0.00247053 0.0298398 -0.000471551)
(0.00536095 0.0332402 -0.000531081)
(0.00919739 0.0381551 -0.000520022)
(0.0139262 0.0448505 -0.000164073)
(0.0184783 0.0532744 0.00144606)
(0.0197465 0.0618757 0.0061133)
(0.00907752 0.0661739 0.0160088)
(-0.0275046 0.0512594 0.0309036)
(-0.0851597 -0.0160129 0.0465514)
(-0.111218 -0.140832 0.0406085)
(-0.111175 -0.214782 0.0197072)
(-0.0425497 -0.217832 -0.0012922)
(-0.000566234 0.0165835 -0.000767124)
(-0.00195143 0.026051 -0.000885126)
(-0.00317012 0.027765 -0.000856978)
(-0.00345656 0.0270622 -0.000736111)
(-0.00311287 0.026084 -0.000612019)
(-0.00210774 0.02549 -0.000508641)
(-0.000504478 0.0254819 -0.000443061)
(0.00178684 0.0261403 -0.000412259)
(0.00491215 0.0276099 -0.000438485)
(0.00910378 0.0300215 -0.000493847)
(0.0146074 0.0336199 -0.000484643)
(0.0215296 0.0384654 -0.000116947)
(0.0289198 0.0444712 0.00154873)
(0.0343706 0.0503604 0.00622974)
(0.0296905 0.0530445 0.0166857)
(0.00256339 0.0340607 0.0313678)
(-0.0502634 -0.0430408 0.0412937)
(-0.0845718 -0.165626 0.0275432)
(-0.111759 -0.256697 0.0122506)
(-0.0431362 -0.291762 -0.0163059)
(-0.00194213 0.018801 -0.00126002)
(-0.00469322 0.0303513 -0.00149443)
(-0.00570651 0.0315652 -0.00141911)
(-0.00547463 0.030221 -0.00121962)
(-0.00437164 0.0281542 -0.000984826)
(-0.00264984 0.026409 -0.000776232)
(-0.000371715 0.0252409 -0.000628611)
(0.00261382 0.0247187 -0.00054333)
(0.00650953 0.0249318 -0.00054834)
(0.0116355 0.0258852 -0.000641865)
(0.018268 0.0276963 -0.000694417)
(0.0266545 0.0301958 -0.000510832)
(0.0360414 0.0331924 0.000720262)
(0.0453193 0.0352845 0.00417019)
(0.0475533 0.0353448 0.0124568)
(0.0370391 0.0178079 0.0242247)
(-0.00645889 -0.0498662 0.0304081)
(-0.0486111 -0.160451 0.0218434)
(-0.101275 -0.276128 0.00769259)
(-0.0401096 -0.347745 -0.0308258)
(-0.00133677 0.0301546 -0.00226663)
(-0.00487088 0.0339347 -0.00218065)
(-0.00798407 0.0324215 -0.00198398)
(-0.00791323 0.0283928 -0.00152466)
(-0.00688216 0.0253505 -0.00119097)
(-0.00458946 0.0231253 -0.000910219)
(-0.00150987 0.0216319 -0.00072429)
(0.0024051 0.0206424 -0.000627129)
(0.0072334 0.0201464 -0.000665324)
(0.0132733 0.0200215 -0.000845018)
(0.0207193 0.0203566 -0.00105317)
(0.0299341 0.020761 -0.00117354)
(0.0399378 0.0211256 -0.000617537)
(0.0511084 0.0196625 0.00127316)
(0.0558858 0.0161269 0.00648176)
(0.0572905 0.00118393 0.0147621)
(0.021587 -0.0465735 0.0198819)
(-0.013421 -0.141472 0.0190262)
(-0.0865102 -0.275576 0.00285178)
(-0.0320379 -0.384924 -0.0441979)
(-0.0129006 0.0274107 -0.00302295)
(-0.0214845 0.0481495 -0.00386931)
(-0.0151848 0.0438275 -0.00378764)
(-0.0129228 0.0387437 -0.0033005)
(-0.00807183 0.0326673 -0.00254817)
(-0.00279147 0.0276675 -0.00186562)
(0.00281646 0.0237492 -0.00138685)
(0.0088556 0.0206946 -0.00111383)
(0.0153266 0.0184464 -0.0010678)
(0.0228012 0.0166635 -0.00126427)
(0.0309556 0.0154722 -0.00158564)
(0.0408649 0.0141848 -0.00197437)
(0.0502407 0.0132801 -0.00200006)
(0.0621662 0.0106977 -0.00116987)
(0.0656514 0.0071303 0.00154313)
(0.0746583 -0.00397776 0.00728175)
(0.0466738 -0.033472 0.0110643)
(0.0384031 -0.112771 0.0159934)
(-0.0529656 -0.260497 -0.00125372)
(-0.0121425 -0.396856 -0.0553559)
(-0.0466946 0.087434 -0.0125085)
(-0.0299454 0.0393006 -0.00906738)
(-0.020521 0.0329284 -0.00706551)
(-0.00092418 0.025822 -0.00516285)
(0.0156292 0.0193817 -0.00390965)
(0.0322244 0.0150442 -0.00294957)
(0.0467045 0.0122375 -0.00228269)
(0.0604966 0.0100565 -0.00190414)
(0.0723226 0.00861944 -0.00174077)
(0.0849603 0.00723583 -0.00185154)
(0.0950993 0.0065946 -0.0021154)
(0.108769 0.00545603 -0.00257452)
(0.116903 0.00488115 -0.00292688)
(0.134123 0.00254859 -0.00285366)
(0.13429 -0.00115022 -0.00197314)
(0.155623 -0.0116728 0.0016477)
(0.127952 -0.0369855 0.00469802)
(0.150404 -0.0983835 0.010295)
(0.0313849 -0.233842 -0.00424374)
(0.0356277 -0.364323 -0.0656371)
(0.117492 0.112308 -0.0111734)
(0.144043 0.0598908 -0.0118995)
(0.215874 0.0394815 -0.0118587)
(0.260747 0.0261745 -0.0107576)
(0.293409 0.017336 -0.00936407)
(0.321146 0.0113679 -0.00817588)
(0.341756 0.00765008 -0.00708373)
(0.361548 0.00510154 -0.00625848)
(0.37435 0.00360494 -0.00550623)
(0.391011 0.00239819 -0.00500928)
(0.398039 0.00182585 -0.00462021)
(0.415372 0.00114923 -0.00436738)
(0.415833 0.000846857 -0.00425293)
(0.436948 -7.67032e-05 -0.00395603)
(0.425012 -0.00149521 -0.00368588)
(0.449188 -0.00514315 -0.0028245)
(0.404412 -0.0137606 -0.00173676)
(0.414597 -0.0323163 -0.00185916)
(0.249262 -0.0724994 -0.0101738)
(0.167526 -0.137924 -0.0753771)
(-0.000139427 0.000172222 -0.000158062)
(-0.000980102 0.000427647 -0.000129297)
(-0.00237878 0.000516653 -0.000104569)
(-0.00381845 0.000549237 -9.12252e-05)
(-0.00531999 0.000569944 -9.63074e-05)
(-0.00684736 0.000593008 -0.000116651)
(-0.00838732 0.000618086 -0.000152095)
(-0.00991754 0.000639636 -0.000206082)
(-0.0113962 0.000649784 -0.000284135)
(-0.0127575 0.000638554 -0.000392866)
(-0.0139079 0.000594044 -0.000538936)
(-0.0147233 0.000503618 -0.000727281)
(-0.0150549 0.000357466 -0.000958071)
(-0.0147442 0.00015316 -0.00122288)
(-0.0136511 -0.000105135 -0.00149778)
(-0.0117022 -0.000382879 -0.00174068)
(-0.00897122 -0.000614333 -0.00189441)
(-0.00578044 -0.000707176 -0.00189757)
(-0.00238268 -0.0005687 -0.00169536)
(-0.000317949 -7.5553e-05 -0.00101162)
(-0.000415375 0.00117193 -0.000360913)
(-0.00211719 0.00227656 -0.000400639)
(-0.00470105 0.00267884 -0.000395278)
(-0.00736705 0.00282801 -0.000384167)
(-0.0101241 0.00290039 -0.000389373)
(-0.0128959 0.00295299 -0.000411568)
(-0.015641 0.0029877 -0.000452789)
(-0.0183066 0.00298468 -0.000518801)
(-0.020812 0.00291369 -0.000617811)
(-0.0230424 0.002737 -0.00075967)
(-0.0248431 0.0024119 -0.00095453)
(-0.0260181 0.00189602 -0.00121021)
(-0.0263408 0.00115745 -0.00152775)
(-0.0255858 0.00019204 -0.00189767)
(-0.0235561 -0.000946529 -0.00228826)
(-0.020151 -0.00211796 -0.00263083)
(-0.0155022 -0.00307265 -0.00284219)
(-0.0101064 -0.00346072 -0.00282446)
(-0.00437463 -0.0029263 -0.002474)
(-0.000719848 -0.00100398 -0.0013602)
(-0.000528941 0.00287146 -0.000480271)
(-0.00261208 0.00520261 -0.00056238)
(-0.00572296 0.00605407 -0.000569519)
(-0.00891357 0.00635992 -0.000558236)
(-0.0121959 0.00648252 -0.000560102)
(-0.01548 0.00653858 -0.000578534)
(-0.0187176 0.00653636 -0.000617388)
(-0.0218497 0.00644021 -0.00068449)
(-0.0247882 0.00619294 -0.000790787)
(-0.0274077 0.00572243 -0.000949982)
(-0.0295384 0.00494743 -0.00117712)
(-0.0309632 0.00378824 -0.00148582)
(-0.0314238 0.00218669 -0.00188348)
(-0.0306358 0.000140314 -0.00236232)
(-0.0283322 -0.00224193 -0.00288087)
(-0.0243492 -0.00469243 -0.00335713)
(-0.0187852 -0.00671081 -0.00366142)
(-0.0122232 -0.00756956 -0.00364034)
(-0.00518429 -0.00651193 -0.00314152)
(-0.000787474 -0.00258456 -0.00165076)
(-0.000562563 0.00468275 -0.000570044)
(-0.0027927 0.00832832 -0.000687562)
(-0.00611973 0.00964276 -0.000705399)
(-0.00952184 0.0100979 -0.000694867)
(-0.0130223 0.010264 -0.000695326)
(-0.0165326 0.0103231 -0.000712707)
(-0.0200128 0.0102925 -0.000752839)
(-0.0234139 0.0101234 -0.000826066)
(-0.0266591 0.00973424 -0.000947004)
(-0.0296328 0.00901897 -0.00113492)
(-0.0321678 0.00785337 -0.00141305)
(-0.0340344 0.00610958 -0.00180543)
(-0.034935 0.00368552 -0.00233066)
(-0.034513 0.000556595 -0.00299032)
(-0.0323869 -0.00314982 -0.00374715)
(-0.0282284 -0.00705751 -0.00448511)
(-0.0219869 -0.010386 -0.00499533)
(-0.014291 -0.0119099 -0.00500702)
(-0.00578675 -0.0103024 -0.00425996)
(-0.000693739 -0.00400504 -0.00213821)
(-0.000557783 0.00658028 -0.00063715)
(-0.0028221 0.011619 -0.000785715)
(-0.00622281 0.013422 -0.000813039)
(-0.00970381 0.0140382 -0.000804651)
(-0.0133006 0.0142633 -0.000807126)
(-0.0169347 0.0143528 -0.000829099)
(-0.0205836 0.0143381 -0.000878842)
(-0.0242206 0.0141623 -0.000970092)
(-0.027794 0.0137232 -0.00112272)
(-0.0312136 0.0128813 -0.00136423)
(-0.0343295 0.0114639 -0.00173067)
(-0.0369094 0.00927719 -0.0022646)
(-0.038614 0.00614064 -0.00300631)
(-0.0389829 0.00195401 -0.0039761)
(-0.0374641 -0.00318886 -0.00515345)
(-0.0334665 -0.00885928 -0.00639009)
(-0.0266211 -0.0139681 -0.00733225)
(-0.0174629 -0.0166178 -0.00746852)
(-0.006707 -0.0145289 -0.00626941)
(-0.000507355 -0.00526741 -0.00296382)
(-0.000535358 0.00849516 -0.000691567)
(-0.00278027 0.0149778 -0.000869138)
(-0.00618782 0.0172936 -0.000905567)
(-0.00968758 0.0180891 -0.000900584)
(-0.0133258 0.0184011 -0.00090783)
(-0.0170381 0.0185685 -0.000939031)
(-0.0208263 0.0186449 -0.00100551)
(-0.0246953 0.0185735 -0.00112543)
(-0.0286317 0.0182388 -0.00132578)
(-0.0325881 0.0174732 -0.00164581)
(-0.0364553 0.0160532 -0.00214077)
(-0.0400229 0.0137035 -0.00288348)
(-0.0429297 0.0101239 -0.00395651)
(-0.0446208 0.00506408 -0.00543032)
(-0.0443594 -0.00153172 -0.00732273)
(-0.0411717 -0.00924067 -0.00945945)
(-0.0340991 -0.0168603 -0.011281)
(-0.0231659 -0.0216614 -0.0117625)
(-0.00872156 -0.0195251 -0.0097808)
(-0.000307492 -0.00638405 -0.00430191)
(-0.000502916 0.0103958 -0.000742079)
(-0.00269911 0.0183592 -0.000948963)
(-0.0060755 0.0212107 -0.000994283)
(-0.00955481 0.022205 -0.000992657)
(-0.0131918 0.022635 -0.00100507)
(-0.0169375 0.022935 -0.00104686)
(-0.0208222 0.0231926 -0.00113306)
(-0.0248901 0.0233635 -0.00128734)
(-0.0291796 0.0233336 -0.00154574)
(-0.0337082 0.0229212 -0.00196326)
(-0.0384416 0.0218633 -0.0026229)
(-0.043244 0.0198036 -0.00364472)
(-0.0478037 0.0162998 -0.00518673)
(-0.0515494 0.0108797 -0.00741652)
(-0.0535533 0.00318722 -0.0104201)
(-0.0525214 -0.00674258 -0.0140215)
(-0.0466141 -0.0180224 -0.0172767)
(-0.0342125 -0.0273621 -0.0183803)
(-0.0139946 -0.0266833 -0.0152636)
(-0.000542646 -0.00816761 -0.00645707)
(-0.000462671 0.0122653 -0.00079438)
(-0.0025899 0.02174 -0.00103252)
(-0.00590601 0.0251449 -0.00108589)
(-0.00932557 0.0263497 -0.00108551)
(-0.0129087 0.0269201 -0.00110041)
(-0.0166205 0.0273999 -0.00115)
(-0.0205201 0.027925 -0.00125348)
(-0.0246952 0.0284815 -0.00144063)
(-0.0292468 0.0289799 -0.00175792)
(-0.0342795 0.0292545 -0.00227942)
(-0.0398745 0.0290391 -0.00312339)
(-0.0460436 0.0279357 -0.00447378)
(-0.0526523 0.0253926 -0.00659375)
(-0.0593162 0.020696 -0.00978564)
(-0.06527 0.0129407 -0.0142088)
(-0.0690001 0.000907032 -0.0194201)
(-0.0673936 -0.0163563 -0.0237706)
(-0.0552876 -0.0358139 -0.0249206)
(-0.0273598 -0.0406341 -0.0209789)
(-0.00268308 -0.0136362 -0.00984786)
(-0.000416879 0.0140933 -0.00085311)
(-0.00246194 0.0251048 -0.00112577)
(-0.00569315 0.0290692 -0.00118538)
(-0.00900796 0.0304783 -0.00118175)
(-0.0124679 0.0311887 -0.00119304)
(-0.0160478 0.0318707 -0.00124309)
(-0.0198319 0.0327246 -0.00135521)
(-0.0239488 0.033788 -0.00156491)
(-0.0285635 0.0350264 -0.00192833)
(-0.0338782 0.0363365 -0.00253783)
(-0.0401249 0.0375172 -0.00354719)
(-0.0475438 0.0382288 -0.00520261)
(-0.0563554 0.037934 -0.00784622)
(-0.0667312 0.0356943 -0.0117908)
(-0.0786367 0.0295102 -0.0168646)
(-0.0908332 0.0150746 -0.0216343)
(-0.0981823 -0.0137603 -0.0235596)
(-0.0889367 -0.0539942 -0.0221285)
(-0.0532648 -0.0717702 -0.0203215)
(-0.00942414 -0.0303992 -0.0144624)
(-0.000370971 0.0158798 -0.000923938)
(-0.0023339 0.0284502 -0.00123584)
(-0.00546508 0.0329605 -0.0012989)
(-0.00862729 0.034538 -0.00128521)
(-0.0118804 0.0353512 -0.00128342)
(-0.0152012 0.0362141 -0.00132198)
(-0.0186905 0.0374067 -0.00142771)
(-0.0225065 0.0390392 -0.0016399)
(-0.0268637 0.0411664 -0.00202003)
(-0.0320489 0.0438024 -0.00266911)
(-0.0384388 0.0469027 -0.00375278)
(-0.0465253 0.0503213 -0.00550935)
(-0.0570177 0.0536701 -0.00813818)
(-0.0710238 0.055578 -0.0113791)
(-0.0898471 0.0515855 -0.0137094)
(-0.112819 0.0313731 -0.0120861)
(-0.131026 -0.0186944 -0.00466348)
(-0.124823 -0.0919292 0.00149605)
(-0.0848072 -0.12847 -0.00636312)
(-0.0218728 -0.0717462 -0.0161695)
(-0.000336146 0.0176456 -0.00101558)
(-0.00224196 0.0317925 -0.00137287)
(-0.00527814 0.0368007 -0.00143506)
(-0.00824498 0.0384666 -0.00140211)
(-0.0112011 0.0392937 -0.00137461)
(-0.0141163 0.0402544 -0.001386)
(-0.0170953 0.0417171 -0.00146502)
(-0.0203037 0.043877 -0.0016508)
(-0.0239714 0.0469023 -0.00200108)
(-0.028422 0.0509704 -0.0026026)
(-0.0341146 0.0562711 -0.00357291)
(-0.0417134 0.0629301 -0.00497321)
(-0.0523627 0.0706074 -0.00640764)
(-0.0680996 0.0767386 -0.00614989)
(-0.0913261 0.0726086 -0.00063512)
(-0.121805 0.0406814 0.0139478)
(-0.147866 -0.0366288 0.0347982)
(-0.144442 -0.142736 0.0405477)
(-0.105773 -0.196023 0.0166557)
(-0.0331187 -0.145391 -0.00683648)
(-0.000336013 0.0194556 -0.00114449)
(-0.00225613 0.0352101 -0.0015592)
(-0.00523609 0.0406364 -0.00161841)
(-0.00797589 0.0422595 -0.00155619)
(-0.0105468 0.0429454 -0.00148717)
(-0.0129067 0.0438391 -0.00145202)
(-0.015153 0.0453992 -0.00148072)
(-0.0174296 0.047903 -0.00160802)
(-0.0199323 0.0516292 -0.00187668)
(-0.0229384 0.0569157 -0.00232725)
(-0.0268662 0.0641722 -0.00295046)
(-0.032365 0.0736832 -0.00343899)
(-0.0407372 0.0847992 -0.00245668)
(-0.0546615 0.0931074 0.00344875)
(-0.0776211 0.0859121 0.0194076)
(-0.111071 0.0412741 0.0484947)
(-0.144627 -0.0557474 0.077775)
(-0.143765 -0.180049 0.0707903)
(-0.112233 -0.250101 0.0332595)
(-0.0355948 -0.229446 0.00550692)
(-0.00040331 0.0213943 -0.00133326)
(-0.0024639 0.0387236 -0.00180679)
(-0.00547623 0.0443616 -0.00184695)
(-0.00799196 0.0457151 -0.0017381)
(-0.0101157 0.0460557 -0.00161326)
(-0.01179 0.046678 -0.00151884)
(-0.0131049 0.0480938 -0.00148233)
(-0.0141634 0.0506294 -0.00152865)
(-0.0150852 0.0546365 -0.00168157)
(-0.0160289 0.0605456 -0.00191111)
(-0.0172749 0.0688678 -0.00205812)
(-0.0193005 0.0798574 -0.00141348)
(-0.023409 0.0924484 0.00219486)
(-0.03271 0.100883 0.0135342)
(-0.0524727 0.0907805 0.038435)
(-0.0870509 0.0388569 0.0763131)
(-0.12673 -0.0664514 0.101998)
(-0.124849 -0.201234 0.0755133)
(-0.109776 -0.29038 0.0335489)
(-0.0310706 -0.304714 0.00388629)
(-0.000644522 0.0237754 -0.00165878)
(-0.0031398 0.0429066 -0.00224361)
(-0.00631257 0.0486633 -0.00228179)
(-0.00854957 0.0495347 -0.00211443)
(-0.0101143 0.0491866 -0.00190071)
(-0.0109882 0.0491302 -0.00170814)
(-0.011251 0.0499518 -0.00157267)
(-0.010936 0.0520073 -0.00151266)
(-0.0100625 0.0556652 -0.00153493)
(-0.00863808 0.0613517 -0.00156881)
(-0.00675707 0.0695573 -0.00132561)
(-0.00460771 0.0804465 0.00013427)
(-0.00333033 0.0928077 0.00538641)
(-0.00597416 0.100672 0.0197241)
(-0.0196033 0.0903064 0.0489407)
(-0.0497339 0.0378758 0.086677)
(-0.0878236 -0.0679518 0.101284)
(-0.0863154 -0.20558 0.0623664)
(-0.0976573 -0.312823 0.025937)
(-0.0224177 -0.37 -0.00755591)
(-0.00102007 0.0270611 -0.00213224)
(-0.00403868 0.046929 -0.00274592)
(-0.00768064 0.0518763 -0.00273187)
(-0.0098666 0.0515357 -0.00246243)
(-0.0110293 0.050314 -0.00216239)
(-0.0110988 0.0495911 -0.00188826)
(-0.0102292 0.0498168 -0.00167784)
(-0.00844235 0.0512309 -0.00153784)
(-0.00569601 0.0541355 -0.00148419)
(-0.00185535 0.0588495 -0.00141755)
(0.00319919 0.0658485 -0.00102192)
(0.00965013 0.0751061 0.000603752)
(0.0166319 0.0855893 0.00588312)
(0.0223272 0.0922567 0.0193451)
(0.0193953 0.0843634 0.0464972)
(0.00404603 0.0390483 0.0776616)
(-0.0290597 -0.0576023 0.0836732)
(-0.0354416 -0.183456 0.0478968)
(-0.0743805 -0.312421 0.0194083)
(-0.00899079 -0.418835 -0.0199657)
(-0.00311886 0.0299002 -0.00312622)
(-0.00836812 0.0542212 -0.00399659)
(-0.0114805 0.0589167 -0.00392318)
(-0.0127784 0.0578228 -0.00353703)
(-0.0126907 0.0548797 -0.00304069)
(-0.0116211 0.0523534 -0.00256659)
(-0.00961619 0.0508129 -0.00218529)
(-0.00655462 0.0504997 -0.00191503)
(-0.00227501 0.0516367 -0.00178625)
(0.00358909 0.0543828 -0.00170589)
(0.0112648 0.0590857 -0.0014099)
(0.0211778 0.0655052 -0.000219375)
(0.0326854 0.0727697 0.00376245)
(0.0454297 0.0768458 0.0134581)
(0.0521569 0.0713983 0.0336224)
(0.053995 0.0378691 0.0570717)
(0.0255414 -0.0412849 0.0600902)
(0.0153082 -0.148789 0.0382362)
(-0.0483703 -0.29856 0.0153524)
(0.00845561 -0.450926 -0.0318434)
(-0.00125653 0.0442945 -0.00509402)
(-0.00711273 0.0574553 -0.00570467)
(-0.0147692 0.0582952 -0.00530843)
(-0.0163084 0.0536772 -0.00444236)
(-0.0165659 0.0500643 -0.00376703)
(-0.0147711 0.0474189 -0.0031565)
(-0.0116394 0.0457335 -0.00268486)
(-0.00713434 0.0448695 -0.00236251)
(-0.00120609 0.04495 -0.00225807)
(0.00654081 0.046006 -0.00230746)
(0.0163179 0.0483389 -0.00233199)
(0.0286681 0.0515676 -0.00186377)
(0.0426772 0.055203 0.000370351)
(0.0597278 0.0559287 0.0058601)
(0.0704418 0.0504618 0.0179915)
(0.0843981 0.0275073 0.034279)
(0.0600406 -0.0285565 0.0370835)
(0.0567136 -0.110991 0.030211)
(-0.0198949 -0.277438 0.0118553)
(0.0340707 -0.465484 -0.0429048)
(-0.012483 0.0347374 -0.00594896)
(-0.0233195 0.0779801 -0.00794911)
(-0.0199649 0.0763515 -0.00823861)
(-0.0228262 0.0704809 -0.00754926)
(-0.0208437 0.0624863 -0.00630633)
(-0.0171137 0.0557186 -0.00510138)
(-0.0115921 0.0502857 -0.00418885)
(-0.00452867 0.0460287 -0.00360076)
(0.00388901 0.0430022 -0.00339763)
(0.0141201 0.0408837 -0.00356048)
(0.0257771 0.0399594 -0.00391904)
(0.0399659 0.0395093 -0.00418285)
(0.0544088 0.0401338 -0.00359122)
(0.0733372 0.0387889 -0.00104572)
(0.0832375 0.0352149 0.00452075)
(0.104341 0.022393 0.0154171)
(0.0866104 -0.0118715 0.0165717)
(0.106338 -0.0712576 0.0196776)
(0.0359253 -0.250812 0.00743676)
(0.077342 -0.458947 -0.0537269)
(-0.0763081 0.0990085 -0.0201823)
(-0.0609617 0.0596883 -0.0166543)
(-0.0598374 0.0589545 -0.0137021)
(-0.0364614 0.0510644 -0.011102)
(-0.0166897 0.0430793 -0.00930776)
(0.00527802 0.0371889 -0.00778771)
(0.0256918 0.0329655 -0.00668974)
(0.0462769 0.0293792 -0.00597975)
(0.0647944 0.0268595 -0.00562575)
(0.0849485 0.0244518 -0.00568156)
(0.101619 0.0232083 -0.00603648)
(0.123491 0.021683 -0.00660677)
(0.137322 0.0209393 -0.00710809)
(0.165096 0.019455 -0.00661832)
(0.171343 0.0144188 -0.00519322)
(0.207371 0.00666513 -0.000220113)
(0.190659 -0.0244021 0.003635)
(0.230812 -0.0717395 0.00647949)
(0.155398 -0.230439 0.00212848)
(0.150378 -0.411341 -0.0647487)
(0.119075 0.140126 -0.0172171)
(0.151403 0.0854639 -0.0191774)
(0.228579 0.0630211 -0.0195003)
(0.283434 0.0475402 -0.0183144)
(0.32465 0.0366604 -0.0166204)
(0.362784 0.0286142 -0.0151238)
(0.391345 0.0230098 -0.0136494)
(0.422255 0.0187442 -0.0125923)
(0.44169 0.0157401 -0.0114455)
(0.469903 0.013293 -0.010895)
(0.481735 0.0115288 -0.0100659)
(0.510883 0.0100965 -0.0100936)
(0.51474 0.00885468 -0.00928203)
(0.547386 0.00766421 -0.00977132)
(0.539891 0.00560324 -0.00801894)
(0.574026 0.00175176 -0.00882762)
(0.540837 -0.00678924 -0.00505128)
(0.553011 -0.0253056 -0.00992997)
(0.423792 -0.0674048 -0.0113731)
(0.302456 -0.144807 -0.0778005)
(-0.000153893 0.000162218 -0.000248884)
(-0.00112568 0.000466494 -0.000294655)
(-0.00275487 0.000575946 -0.000292266)
(-0.00442404 0.000613269 -0.000290683)
(-0.00615314 0.000632857 -0.000307198)
(-0.00789901 0.000653227 -0.000343827)
(-0.00964691 0.000674417 -0.000403425)
(-0.0113721 0.00068994 -0.000491652)
(-0.0130282 0.000690489 -0.000616114)
(-0.0145428 0.000664181 -0.000785268)
(-0.0158126 0.000596756 -0.0010069)
(-0.0167011 0.000473054 -0.00128557)
(-0.0170433 0.000281107 -0.00161864)
(-0.0166601 1.57554e-05 -0.00199189)
(-0.0153909 -0.000313741 -0.00237027)
(-0.0131498 -0.000662827 -0.00270096)
(-0.0100188 -0.000945948 -0.00291361)
(-0.00637282 -0.00104169 -0.00293624)
(-0.00252981 -0.000828201 -0.00268436)
(-0.000284759 -0.000162446 -0.00173779)
(-0.000500167 0.00124621 -0.000460556)
(-0.00255827 0.00255762 -0.000603493)
(-0.00568203 0.0030464 -0.000624743)
(-0.0088872 0.00321447 -0.00062596)
(-0.0121754 0.00327706 -0.000646457)
(-0.0154508 0.00330728 -0.000694402)