/*--------------------------------*- C++ -*----------------------------------*\
  =========                 |
  \\      /  F ield         | OpenFOAM: The Open Source CFD Toolbox
   \\    /   O peration     | Website:  https://openfoam.org
    \\  /    A nd           | Version:  10
     \\/     M anipulation  |
\*---------------------------------------------------------------------------*/
FoamFile
{
    format      ascii;
    class       volVectorField;
    location    "5.175";
    object      U;
}
// * * * * * * * * * * * * * * * * * * * * * * * * * * * * * * * * * * * * * //

dimensions      [0 1 -1 0 0 0 0];

internalField   nonuniform List<vector> 
400
(
(-9.09586e-05 8.48223e-05 0)
(-0.000804981 0.00030953 0)
(-0.00201017 0.000378995 0)
(-0.00318198 0.000389125 0)
(-0.00434466 0.000383787 0)
(-0.00546003 0.000373284 0)
(-0.00650602 0.000356893 0)
(-0.00745954 0.000331516 0)
(-0.00829103 0.000293735 0)
(-0.00896444 0.000240112 0)
(-0.00943755 0.00016765 0)
(-0.00966362 7.47886e-05 0)
(-0.00959257 -4.16047e-05 0)
(-0.0091768 -0.00017881 0)
(-0.00838004 -0.000330995 0)
(-0.00718445 -0.000487204 0)
(-0.00561025 -0.000627347 0)
(-0.00376415 -0.000714246 0)
(-0.00167514 -0.000666017 0)
(-0.00027768 -0.000300737 0)
(-0.000334565 0.000812667 0)
(-0.00181126 0.00174564 0)
(-0.00403171 0.00201638 0)
(-0.00618518 0.00203202 0)
(-0.0082912 0.00196356 0)
(-0.0102791 0.00185419 0)
(-0.0121021 0.00170607 0)
(-0.0137166 0.00151183 0)
(-0.015073 0.00126229 0)
(-0.0161153 0.000948137 0)
(-0.016781 0.00056105 0)
(-0.0170071 9.45335e-05 0)
(-0.0167262 -0.000450439 0)
(-0.0158745 -0.00106134 0)
(-0.0144095 -0.00171313 0)
(-0.0123162 -0.00236124 0)
(-0.00963868 -0.002928 0)
(-0.00653797 -0.00326779 0)
(-0.00307345 -0.00307405 0)
(-0.000616785 -0.00164257 0)
(-0.000426077 0.00209603 0)
(-0.00220556 0.00401013 0)
(-0.00482769 0.00454019 0)
(-0.00735566 0.00454035 0)
(-0.00981644 0.00435348 0)
(-0.0121299 0.00406803 0)
(-0.0142438 0.00369278 0)
(-0.01611 0.00321771 0)
(-0.0176746 0.00262853 0)
(-0.0188775 0.00191017 0)
(-0.0196535 0.00104923 0)
(-0.0199297 3.65291e-05 0)
(-0.0196261 -0.00112417 0)
(-0.0186683 -0.00241048 0)
(-0.0169991 -0.00377208 0)
(-0.014588 -0.00511888 0)
(-0.0114704 -0.00629479 0)
(-0.00782378 -0.00700434 0)
(-0.00370949 -0.00663447 0)
(-0.000757254 -0.00375664 0)
(-0.000454605 0.00342136 0)
(-0.0023649 0.00636421 0)
(-0.00517677 0.00715468 0)
(-0.00788038 0.00713222 0)
(-0.010515 0.0068232 0)
(-0.0129991 0.00636193 0)
(-0.0152822 0.00576309 0)
(-0.017318 0.00501333 0)
(-0.0190536 0.00409212 0)
(-0.0204281 0.00297657 0)
(-0.0213717 0.00164529 0)
(-0.0218053 8.43154e-05 0)
(-0.0216337 -0.00170639 0)
(-0.0207545 -0.00370362 0)
(-0.0190755 -0.00583774 0)
(-0.0165268 -0.0079752 0)
(-0.0131117 -0.00987226 0)
(-0.00901428 -0.0110531 0)
(-0.00429601 -0.0105397 0)
(-0.000876812 -0.00606679 0)
(-0.000469529 0.00482145 0)
(-0.00247696 0.00886073 0)
(-0.00544317 0.00992659 0)
(-0.00829496 0.00988363 0)
(-0.0110843 0.00945456 0)
(-0.013731 0.00882224 0)
(-0.0161896 0.00800764 0)
(-0.0184188 0.0069937 0)
(-0.0203697 0.00575224 0)
(-0.0219827 0.00424963 0)
(-0.0231843 0.00245099 0)
(-0.0238823 0.000327377 0)
(-0.0239629 -0.00213253 0)
(-0.0232879 -0.00491478 0)
(-0.0217081 -0.00794092 0)
(-0.0190855 -0.0110374 0)
(-0.0153534 -0.0138577 0)
(-0.0106842 -0.0156925 0)
(-0.00514308 -0.0150926 0)
(-0.00105749 -0.00878079 0)
(-0.000486127 0.00628579 0)
(-0.00260216 0.0114945 0)
(-0.0057431 0.0128557 0)
(-0.00876499 0.0127986 0)
(-0.0117337 0.0122573 0)
(-0.0145716 0.0114671 0)
(-0.017241 0.0104563 0)
(-0.0197089 0.00920391 0)
(-0.0219341 0.00767255 0)
(-0.023862 0.00581408 0)
(-0.0254186 0.00357332 0)
(-0.0265021 0.000895734 0)
(-0.0269765 -0.00226047 0)
(-0.0266549 -0.00590991 0)
(-0.0253087 -0.0099851 0)
(-0.0226938 -0.0142836 0)
(-0.0186178 -0.0183396 0)
(-0.0131912 -0.0211386 0)
(-0.00647088 -0.0205779 0)
(-0.00136262 -0.0121084 0)
(-0.000507454 0.00782549 0)
(-0.00275481 0.0142874 0)
(-0.00610398 0.0159668 0)
(-0.00932638 0.0159025 0)
(-0.0125043 0.0152586 0)
(-0.0155639 0.014328 0)
(-0.0184786 0.0131479 0)
(-0.021228 0.0116942 0)
(-0.0237842 0.0099195 0)
(-0.026105 0.00775749 0)
(-0.0281233 0.00512475 0)
(-0.029734 0.00192729 0)
(-0.0307849 -0.00192563 0)
(-0.0310357 -0.00651499 0)
(-0.030153 -0.0118197 0)
(-0.0277355 -0.0176448 0)
(-0.0233782 -0.0234048 0)
(-0.017011 -0.0276888 0)
(-0.00863407 -0.0274393 0)
(-0.0019116 -0.0164265 0)
(-0.000533788 0.00945784 0)
(-0.00293786 0.0172708 0)
(-0.00653083 0.0192925 0)
(-0.00998189 0.0192255 0)
(-0.0133934 0.0184867 0)
(-0.0166969 0.017434 0)
(-0.0198804 0.0161167 0)
(-0.0229422 0.0145098 0)
(-0.0258753 0.0125567 0)
(-0.0286606 0.0101717 0)
(-0.031252 0.00723663 0)
(-0.0335552 0.003601 0)
(-0.0354229 -0.000911006 0)
(-0.0365679 -0.00645489 0)
(-0.036535 -0.0131615 0)
(-0.034714 -0.0209127 0)
(-0.0303627 -0.0290482 0)
(-0.0229961 -0.0356742 0)
(-0.0124048 -0.0363423 0)
(-0.00299668 -0.0224331 0)
(-0.000565991 0.0112011 0)
(-0.00315488 0.0204776 0)
(-0.00702784 0.0228631 0)
(-0.0107307 0.0227912 0)
(-0.0143909 0.02196 0)
(-0.0179467 0.0208011 0)
(-0.0214054 0.0193813 0)
(-0.0247898 0.0176791 0)
(-0.0281239 0.0156334 0)
(-0.0314265 0.0131417 0)
(-0.0346954 0.0100498 0)
(-0.0378834 0.00614029 0)
(-0.0408463 0.00112897 0)
(-0.043318 -0.00529131 0)
(-0.0447707 -0.0134953 0)
(-0.0443181 -0.0235823 0)
(-0.0407548 -0.0349818 0)
(-0.0328068 -0.0453255 0)
(-0.0196041 -0.048294 0)
(-0.00536938 -0.0315794 0)
(-0.000607023 0.0130769 0)
(-0.00341511 0.0239432 0)
(-0.00760669 0.0267065 0)
(-0.0115787 0.0266152 0)
(-0.0154906 0.0256832 0)
(-0.0192892 0.0244269 0)
(-0.0230049 0.0229371 0)
(-0.0266917 0.0212038 0)
(-0.0304145 0.0191703 0)
(-0.0342463 0.0167276 0)
(-0.0382561 0.0136952 0)
(-0.0424808 0.00979268 0)
(-0.0468694 0.00461137 0)
(-0.0512595 -0.00241828 0)
(-0.0551307 -0.0119255 0)
(-0.0574369 -0.0245599 0)
(-0.0564791 -0.040173 0)
(-0.0496756 -0.0562866 0)
(-0.0342704 -0.0646653 0)
(-0.0108305 -0.0469758 0)
(-0.000663782 0.0151161 0)
(-0.00373847 0.0277107 0)
(-0.00829361 0.0308493 0)
(-0.0125459 0.0307038 0)
(-0.016698 0.0296446 0)
(-0.0207073 0.0282854 0)
(-0.0246312 0.0267487 0)
(-0.0285586 0.0250455 0)
(-0.0326025 0.0231377 0)
(-0.0369047 0.0209308 0)
(-0.0416352 0.0182439 0)
(-0.0469785 0.0147612 0)
(-0.0530956 0.00995778 0)
(-0.0600135 0.00302012 0)
(-0.0675716 -0.00710415 0)
(-0.0750091 -0.0217201 0)
(-0.080286 -0.0419419 0)
(-0.0787186 -0.0665354 0)
(-0.0625322 -0.0870904 0)
(-0.0219404 -0.0754174 0)
(-0.000750645 0.0173682 0)
(-0.00416346 0.0318386 0)
(-0.00913868 0.0353208 0)
(-0.0136749 0.0350545 0)
(-0.0180384 0.033814 0)
(-0.0222005 0.0323228 0)
(-0.0262479 0.0307424 0)
(-0.0303051 0.0291143 0)
(-0.0345321 0.0274374 0)
(-0.0391444 0.0256627 0)
(-0.0444342 0.0236606 0)
(-0.0507918 0.0211574 0)
(-0.0587054 0.0176269 0)
(-0.0687082 0.0121457 0)
(-0.0813469 0.00322325 0)
(-0.0970725 -0.0113292 0)
(-0.113943 -0.0349941 0)
(-0.122576 -0.0721628 0)
(-0.104411 -0.119104 0)
(-0.0362165 -0.12922 0)
(-0.00089631 0.0199079 0)
(-0.00475973 0.0363801 0)
(-0.0102289 0.0401052 0)
(-0.0150428 0.0396056 0)
(-0.019568 0.0381092 0)
(-0.0237946 0.036442 0)
(-0.0278428 0.0347971 0)
(-0.0318661 0.0332551 0)
(-0.0360566 0.0318719 0)
(-0.0406845 0.0306804 0)
(-0.0461477 0.0296692 0)
(-0.0530469 0.0287282 0)
(-0.0622846 0.027541 0)
(-0.0751883 0.0254045 0)
(-0.093707 0.0208986 0)
(-0.119839 0.0105231 0)
(-0.150544 -0.0148924 0)
(-0.166582 -0.0748715 0)
(-0.138493 -0.171876 0)
(-0.0424796 -0.216978 0)
(-0.00117172 0.0229464 0)
(-0.00569502 0.041693 0)
(-0.01173 0.0455895 0)
(-0.0167569 0.0447211 0)
(-0.0213469 0.0427666 0)
(-0.0255277 0.0407257 0)
(-0.0294374 0.0388635 0)
(-0.0332321 0.0373127 0)
(-0.0371088 0.0361937 0)
(-0.0413502 0.0356536 0)
(-0.0463975 0.0358853 0)
(-0.0529771 0.0371114 0)
(-0.0622944 0.0395398 0)
(-0.0762609 0.0431057 0)
(-0.0978295 0.0465841 0)
(-0.129377 0.0431999 0)
(-0.165223 0.0122324 0)
(-0.176272 -0.0866172 0)
(-0.140827 -0.245868 0)
(-0.0420046 -0.322078 0)
(-0.00156046 0.0267073 0)
(-0.00680359 0.0467315 0)
(-0.0136539 0.0501221 0)
(-0.0190035 0.04844 0)
(-0.0236965 0.0460846 0)
(-0.0277038 0.0439165 0)
(-0.0312514 0.0420767 0)
(-0.0345276 0.0406487 0)
(-0.0376985 0.039789 0)
(-0.040961 0.0397623 0)
(-0.0446395 0.0410118 0)
(-0.0493186 0.0442182 0)
(-0.0560931 0.0503242 0)
(-0.0666833 0.059868 0)
(-0.0837943 0.071236 0)
(-0.108321 0.0717846 0)
(-0.137035 0.0313525 0)
(-0.138321 -0.102334 0)
(-0.118944 -0.305823 0)
(-0.0394555 -0.419528 0)
(-0.00360064 0.0302108 0)
(-0.0110337 0.0556541 0)
(-0.0173597 0.0589037 0)
(-0.0221194 0.0567614 0)
(-0.0260766 0.0531574 0)
(-0.029583 0.0497628 0)
(-0.0327053 0.0468919 0)
(-0.0354678 0.0446985 0)
(-0.0378691 0.0433563 0)
(-0.0399042 0.0431641 0)
(-0.0415862 0.0447172 0)
(-0.0429969 0.0490107 0)
(-0.0446143 0.0576466 0)
(-0.046621 0.071221 0)
(-0.0508379 0.0878211 0)
(-0.0552037 0.0884614 0)
(-0.0679273 0.0444503 0)
(-0.0623888 -0.103775 0)
(-0.0794991 -0.332474 0)
(-0.0201709 -0.49602 0)
(-0.0012603 0.0442868 0)
(-0.0089818 0.0582758 0)
(-0.0203003 0.0583473 0)
(-0.0255973 0.0537696 0)
(-0.0304546 0.050447 0)
(-0.0336521 0.0478606 0)
(-0.0359126 0.045793 0)
(-0.0373795 0.0441204 0)
(-0.0380844 0.0429933 0)
(-0.0378794 0.0426586 0)
(-0.0364741 0.0437848 0)
(-0.0332013 0.0471867 0)
(-0.0278149 0.0547386 0)
(-0.017905 0.0663781 0)
(-0.00693783 0.0816144 0)
(0.0143416 0.0829889 0)
(0.0175739 0.0430949 0)
(0.028481 -0.0890865 0)
(-0.0221361 -0.327802 0)
(0.0122013 -0.524586 0)
(-0.0121726 0.0335496 0)
(-0.0247435 0.0801454 0)
(-0.0248967 0.0785075 0)
(-0.031815 0.0732529 0)
(-0.0345167 0.0660027 0)
(-0.035562 0.0597045 0)
(-0.0349133 0.0543748 0)
(-0.0329664 0.0499827 0)
(-0.0298977 0.0464984 0)
(-0.0255337 0.0437719 0)
(-0.0199708 0.0422331 0)
(-0.0118841 0.0421231 0)
(-0.00185686 0.0452256 0)
(0.0150752 0.0510847 0)
(0.0343437 0.0611651 0)
(0.0688151 0.0638729 0)
(0.0814946 0.0378818 0)
(0.117173 -0.0571468 0)
(0.0550531 -0.295307 0)
(0.0559435 -0.510016 0)
(-0.0767523 0.0973558 0)
(-0.0624183 0.0601682 0)
(-0.0645589 0.0601455 0)
(-0.0436433 0.0534822 0)
(-0.0266858 0.0465977 0)
(-0.00730317 0.0414147 0)
(0.010985 0.0376385 0)
(0.029083 0.0343215 0)
(0.0456806 0.0318359 0)
(0.0628871 0.0293199 0)
(0.0775565 0.0277464 0)
(0.0956323 0.0263529 0)
(0.108364 0.0260402 0)
(0.133631 0.0270178 0)
(0.1447 0.0255399 0)
(0.192477 0.021789 0)
(0.193173 -0.0116951 0)
(0.244077 -0.0805703 0)
(0.172045 -0.268116 0)
(0.126844 -0.448 0)
(0.119979 0.140492 0)
(0.152563 0.0860788 0)
(0.230097 0.0636044 0)
(0.285305 0.0482793 0)
(0.326918 0.0376431 0)
(0.365239 0.0299659 0)
(0.39421 0.0245224 0)
(0.425796 0.0206213 0)
(0.445457 0.0177642 0)
(0.474894 0.015538 0)
(0.486751 0.0138837 0)
(0.517147 0.0127319 0)
(0.522013 0.0116445 0)
(0.555718 0.0114297 0)
(0.5519 0.0098687 0)
(0.588817 0.0071044 0)
(0.563278 -0.00206333 0)
(0.574673 -0.0263817 0)
(0.436826 -0.0732654 0)
(0.278993 -0.153894 0)
)
;

boundaryField
{
    movingWall
    {
        type            fixedValue;
        value           uniform (1 0 0);
    }
    fixedWalls
    {
        type            noSlip;
    }
    frontAndBack
    {
        type            empty;
    }
}


// ************************************************************************* //
