/*--------------------------------*- C++ -*----------------------------------*\
  =========                 |
  \\      /  F ield         | OpenFOAM: The Open Source CFD Toolbox
   \\    /   O peration     | Website:  https://openfoam.org
    \\  /    A nd           | Version:  10
     \\/     M anipulation  |
\*---------------------------------------------------------------------------*/
FoamFile
{
    format      ascii;
    class       volScalarField;
    location    "0.525";
    object      p;
}
// * * * * * * * * * * * * * * * * * * * * * * * * * * * * * * * * * * * * * //

dimensions      [0 2 -2 0 0 0 0];

internalField   nonuniform List<scalar> 
496
(
24.1478
23.792
20.7429
14.9376
24.9322
25.1299
21.4776
15.1412
29.701
28.0167
21.2596
11.2872
36.6245
34.7798
31.1196
18.2036
6.87747
-2.05006
6.6806
-2.24267
-2.56467
-8.94064
-28.354
-51.9858
-9.605
-14.825
-17.7844
-19.0636
-10.2844
-15.8974
-20.4303
-22.175
-5.73996
-8.77121
-21.0498
-26.2582
-23.4546
-17.4337
-29.039
-29.191
-18.0158
-14.5593
-10.9005
-9.26337
-9.52538
-10.4309
-11.2346
-11.7549
-12.0333
-12.0936
-11.9234
-11.4977
-10.8074
-9.87626
-8.79796
-7.74589
-6.88037
-6.22543
-5.64307
-4.97137
-4.17616
-3.35864
-2.70348
-2.326
-2.10871
-1.85697
-1.50466
-1.17813
-0.954111
-0.827275
-0.709385
-0.590161
-0.476635
-0.394019
-0.342282
-0.292312
-0.256805
-0.196042
-0.13152
-0.0420121
-19.6313
-15.1537
-11.8881
-10.4373
-10.3865
-10.8555
-11.397
-11.9285
-12.3965
-12.5981
-12.34
-11.7286
-10.9195
-9.98282
-8.96753
-7.95248
-7.04611
-6.30225
-5.65015
-4.96521
-4.19332
-3.39916
-2.71158
-2.22936
-1.94557
-1.68401
-1.34846
-0.984125
-0.737785
-0.598207
-0.49949
-0.378415
-0.265569
-0.191979
-0.154151
-0.148873
-0.140854
-0.139806
-0.104775
-0.0597104
-19.2512
-10.663
-7.17706
-8.07812
-9.5687
-10.3298
-10.8708
-11.6981
-12.6178
-12.9611
-12.5997
-11.884
-11.0356
-10.1164
-9.13228
-8.12461
-7.18028
-6.35519
-5.6302
-4.94499
-4.23965
-3.53335
-2.88988
-2.39622
-2.08161
-1.84252
-1.56038
-1.23107
-0.973198
-0.819128
-0.721576
-0.606277
-0.484878
-0.386026
-0.32255
-0.274613
-0.23464
-0.191851
-0.149066
-0.0862415
-17.8284
-10.1102
-7.71612
-8.24492
-9.66453
-11.0397
-12.4055
-13.58
-13.9036
-13.5261
-12.9769
-12.2626
-11.3986
-10.4085
-9.32447
-8.22168
-7.14936
-6.15264
-5.24595
-4.42675
-3.66967
-2.9842
-2.38031
-1.89599
-1.53041
-1.24114
-0.972271
-0.702624
-0.470254
-0.306589
-0.192626
-0.097281
0.0111482
0.0924423
0.153784
0.18421
0.204246
0.222153
0.214358
0.16473
40.1294
42.4367
55.8709
68.5278
38.7381
39.3966
54.0565
64.6535
-29.2753
-59.533
-45.7826
-22.2297
-38.5515
-52.8538
-53.122
-19.6272
-10.7201
-10.913
-8.88382
-7.93351
-8.63617
-10.3397
-11.9901
-13.0989
-13.5899
-13.6139
-13.2349
-12.6224
-11.8126
-10.8048
-9.70251
-8.58375
-7.47634
-6.42603
-5.46349
-4.59275
-3.83037
-3.15436
-2.56686
-2.07149
-1.67704
-1.35899
-1.09312
-0.846161
-0.624222
-0.46035
-0.337862
-0.247099
-0.147168
-0.0723717
-0.0192016
0.00704674
0.0109543
0.0134507
-0.00255528
-0.0179267
-2.9203
-8.55792
-7.7537
-7.17711
-8.35818
-10.2258
-11.9325
-13.1283
-13.6261
-13.6619
-13.286
-12.6715
-11.8556
-10.8397
-9.73032
-8.60607
-7.4949
-6.4422
-5.47805
-4.6061
-3.84277
-3.166
-2.57752
-2.08068
-1.6845
-1.3648
-1.09746
-0.849334
-0.626513
-0.462047
-0.339182
-0.248223
-0.148221
-0.0737131
-0.0208314
0.00546157
0.0100973
0.0136368
-0.00174525
-0.0175068
32.6882
28.9273
24.6569
7.07868
24.025
21.4049
11.7633
0.61495
18.8636
19.7453
15.0689
8.77641
18.3797
18.8394
15.0995
8.69504
-47.9629
-75.2358
-15.5198
-19.7015
-0.297181
-9.25382
-0.082204
-9.22395
-43.9602
-31.8066
-18.5854
-5.64949
-11.707
-11.6947
-14.7543
-15.8466
-16.3909
-21.4632
-23.3751
-20.8697
-15.6099
-18.6788
-18.5101
-16.5346
-3.97529
-8.31131
-10.4257
-10.146
-9.90938
-10.7914
-12.2418
-13.5186
-14.0727
-13.6675
-13.0888
-12.3769
-11.507
-10.4996
-9.39798
-8.28231
-7.20092
-6.19736
-5.28516
-4.46154
-3.7009
-3.0127
-2.40618
-1.91887
-1.54957
-1.25627
-0.98346
-0.71044
-0.475496
-0.309705
-0.194245
-0.0977185
0.010871
0.0909856
0.150326
0.179758
0.201107
0.22179
0.215719
0.165366
-14.6195
-13.0841
-11.4569
-10.2659
-9.68228
-9.99078
-10.8231
-11.7903
-12.6177
-13.0689
-12.7441
-12.018
-11.155
-10.2211
-9.22156
-8.20215
-7.24854
-6.41462
-5.68095
-4.98784
-4.27556
-3.56306
-2.91475
-2.41783
-2.10051
-1.85839
-1.57318
-1.24132
-0.981134
-0.824395
-0.723657
-0.605186
-0.482652
-0.386085
-0.326875
-0.281205
-0.238809
-0.190955
-0.145122
-0.0844177
-16.2564
-12.6025
-10.8866
-10.3789
-10.2953
-10.5398
-11.1348
-11.8768
-12.4893
-12.6931
-12.4507
-11.8384
-11.0201
-10.075
-9.05101
-8.02487
-7.10788
-6.35453
-5.6942
-5.00275
-4.22528
-3.42546
-2.73353
-2.24905
-1.96383
-1.70057
-1.36339
-0.997545
-0.748826
-0.605009
-0.500948
-0.375553
-0.262334
-0.192477
-0.159486
-0.155635
-0.144404
-0.138301
-0.100736
-0.0581576
-14.0306
-11.9126
-10.7877
-10.388
-10.3821
-10.6289
-11.1308
-11.6981
-12.0555
-12.187
-12.0446
-11.6186
-10.9163
-9.97341
-8.88514
-7.82314
-6.9472
-6.28216
-5.69147
-5.01339
-4.21221
-3.38879
-2.7284
-2.34719
-2.12728
-1.87359
-1.52009
-1.19255
-0.966075
-0.834008
-0.709545
-0.586416
-0.474155
-0.3965
-0.349034
-0.29925
-0.259912
-0.19437
-0.127823
-0.0404766
)
;

boundaryField
{
    inlet
    {
        type            zeroGradient;
    }
    outlet
    {
        type            fixedValue;
        value           uniform 0;
    }
    obstacle
    {
        type            zeroGradient;
    }
    upperWall
    {
        type            zeroGradient;
    }
    lowerWall
    {
        type            zeroGradient;
    }
    frontAndBack
    {
        type            empty;
    }
}


// ************************************************************************* //
