/*--------------------------------*- C++ -*----------------------------------*\
  =========                 |
  \\      /  F ield         | OpenFOAM: The Open Source CFD Toolbox
   \\    /   O peration     | Website:  https://openfoam.org
    \\  /    A nd           | Version:  10
     \\/     M anipulation  |
\*---------------------------------------------------------------------------*/
FoamFile
{
    format      ascii;
    class       volScalarField;
    location    "8.625";
    object      p;
}
// * * * * * * * * * * * * * * * * * * * * * * * * * * * * * * * * * * * * * //

dimensions      [0 2 -2 0 0 0 0];

internalField   nonuniform List<scalar> 
400
(
-1.27912e-08
-2.73123e-05
2.95922e-05
0.000139836
0.000311511
0.000547568
0.000852568
0.00123229
0.00169244
0.00223711
0.00286704
0.00357693
0.00435175
0.00516312
0.00596485
0.0066943
0.00727771
0.00765262
0.00782228
0.00771934
3.00749e-05
2.32592e-06
6.68548e-05
0.000179626
0.000350255
0.000582521
0.000881409
0.00125281
0.00170247
0.00223484
0.00285143
0.00354814
0.00431039
0.00511428
0.00591365
0.00664515
0.0072306
0.00760317
0.00777074
0.00764896
-3.9251e-05
-7.59774e-05
-1.32625e-05
9.47861e-05
0.000258524
0.000481942
0.000770603
0.00113138
0.00157158
0.002098
0.00271518
0.00342275
0.00421226
0.00506053
0.00592024
0.00671884
0.00735872
0.00774925
0.0078991
0.00771528
-0.000186318
-0.000229285
-0.000170703
-7.07325e-05
8.18012e-05
0.000291251
0.000564042
0.000908505
0.00133424
0.00185163
0.00247045
0.00319663
0.00402782
0.00494571
0.00590528
0.00682059
0.00756214
0.00798787
0.00810017
0.00780694
-0.000419942
-0.000468087
-0.000416601
-0.000328713
-0.000192461
-3.04139e-06
0.000246966
0.00056761
0.000971297
0.00147285
0.00208879
0.00283469
0.00371884
0.0047325
0.00583643
0.00693078
0.00783874
0.00832741
0.00836344
0.00788429
-0.00073855
-0.000791753
-0.00075034
-0.000678909
-0.000564981
-0.00040351
-0.000186289
9.82301e-05
0.000465136
0.000933826
0.00152846
0.00227706
0.00320477
0.00431938
0.00560418
0.00695518
0.00813241
0.00873877
0.00863336
0.00783589
-0.00113676
-0.00119552
-0.0011672
-0.00111717
-0.00103285
-0.000909461
-0.000738844
-0.000508963
-0.000203256
0.000200929
0.000734323
0.00143748
0.00235799
0.00353705
0.00499005
0.00665891
0.00825216
0.00909183
0.00876756
0.00747944
-0.00160725
-0.00167235
-0.00166011
-0.00163671
-0.00159012
-0.00151668
-0.00140969
-0.00125884
-0.00104917
-0.000758752
-0.000355857
0.00020441
0.000983821
0.00205734
0.00349745
0.005419
0.00757193
0.00889756
0.00840644
0.00671485
-0.00214069
-0.00221296
-0.00221919
-0.00222709
-0.00222603
-0.00221473
-0.00218993
-0.00214606
-0.00207483
-0.00196376
-0.00179342
-0.00153459
-0.00115019
-0.000582995
0.000322402
0.00186453
0.00435222
0.00668252
0.00686207
0.00586233
-0.00272593
-0.00280596
-0.00283155
-0.00287348
-0.0029235
-0.00298422
-0.00305822
-0.0031485
-0.0032599
-0.00340068
-0.00358603
-0.00384931
-0.00428189
-0.00505349
-0.00614378
-0.00661881
-0.00469856
-0.000437265
0.00309182
0.00526348
-0.00335065
-0.00343864
-0.00348178
-0.00355688
-0.00365877
-0.00379559
-0.00397794
-0.00422109
-0.00454976
-0.00500631
-0.00566734
-0.00667822
-0.00835219
-0.0113426
-0.015881
-0.0205108
-0.0203188
-0.0137317
-0.00545893
0.00176818
-0.00400261
-0.00409763
-0.00415149
-0.00425295
-0.00440004
-0.0046076
-0.00489499
-0.00529108
-0.00584367
-0.00663584
-0.00782135
-0.00969135
-0.0128091
-0.0183065
-0.0266126
-0.0358378
-0.0381367
-0.0303507
-0.0188496
-0.00730077
-0.00467386
-0.00477512
-0.00482833
-0.00494281
-0.00511883
-0.00537878
-0.00574989
-0.00627162
-0.00700963
-0.00807627
-0.00967696
-0.0121906
-0.0163061
-0.0232224
-0.0334694
-0.0444508
-0.0482353
-0.0407583
-0.0303418
-0.0175548
-0.00535605
-0.0054534
-0.00547877
-0.00558045
-0.00576095
-0.00604675
-0.00646637
-0.00706395
-0.00791021
-0.00912206
-0.0109125
-0.0136422
-0.0180064
-0.0248423
-0.0347168
-0.0450589
-0.0488731
-0.0419347
-0.0342307
-0.0222944
-0.0060761
-0.00617683
-0.00615053
-0.00621652
-0.00636208
-0.00662597
-0.0070384
-0.00764184
-0.00850203
-0.00971969
-0.0114822
-0.014044
-0.0180419
-0.0238871
-0.0319401
-0.0390843
-0.0419679
-0.036012
-0.0317739
-0.0201807
-0.0069183
-0.00682179
-0.00666224
-0.00660401
-0.00668684
-0.00692283
-0.00732302
-0.00791041
-0.00873439
-0.00986882
-0.011429
-0.0136561
-0.016884
-0.0212215
-0.0268398
-0.0312839
-0.0329575
-0.02756
-0.025638
-0.0108032
-0.00737836
-0.00777806
-0.00743614
-0.00739597
-0.00734049
-0.0074321
-0.00768341
-0.00812769
-0.00880821
-0.00976008
-0.011112
-0.0129615
-0.015509
-0.0186666
-0.0225521
-0.0250874
-0.0256512
-0.0202001
-0.0171437
0.00765651
-0.0107547
-0.00820223
-0.00750472
-0.0068439
-0.00670961
-0.0068361
-0.00716725
-0.00766632
-0.00835977
-0.00923929
-0.0104659
-0.0120503
-0.0141628
-0.0165861
-0.0193343
-0.0205718
-0.0200024
-0.0129603
-0.00333076
0.0397603
-0.00737705
-0.0103359
-0.00917172
-0.00910507
-0.00857956
-0.00828993
-0.00819059
-0.00830899
-0.00869681
-0.00933688
-0.0103553
-0.0117203
-0.0137316
-0.0160281
-0.0188697
-0.0198016
-0.0183314
-0.00445559
0.0207365
0.0972419
-0.0326199
-0.00750485
-0.00588239
-0.00506914
-0.00482137
-0.00499087
-0.0054611
-0.00604236
-0.006827
-0.00773661
-0.00901203
-0.0105003
-0.0124264
-0.0140936
-0.0152017
-0.0120434
-0.00165931
0.0323602
0.0983869
0.228824
)
;

boundaryField
{
    movingWall
    {
        type            zeroGradient;
    }
    fixedWalls
    {
        type            zeroGradient;
    }
    frontAndBack
    {
        type            empty;
    }
}


// ************************************************************************* //
