/*--------------------------------*- C++ -*----------------------------------*\
  =========                 |
  \\      /  F ield         | OpenFOAM: The Open Source CFD Toolbox
   \\    /   O peration     | Website:  https://openfoam.org
    \\  /    A nd           | Version:  10
     \\/     M anipulation  |
\*---------------------------------------------------------------------------*/
FoamFile
{
    format      ascii;
    class       volVectorField;
    location    "2.025";
    object      U;
}
// * * * * * * * * * * * * * * * * * * * * * * * * * * * * * * * * * * * * * //

dimensions      [0 1 -1 0 0 0 0];

internalField   nonuniform List<vector> 
400
(
(-0.00029202 0.000289271 0)
(-0.00116386 0.000437728 0)
(-0.00225728 0.000440408 0)
(-0.00325556 0.000414685 0)
(-0.0041818 0.000377842 0)
(-0.00500952 0.000331947 0)
(-0.0057177 0.000277768 0)
(-0.00628835 0.000216093 0)
(-0.00670562 0.000147846 0)
(-0.00695614 7.41218e-05 0)
(-0.0070294 -3.6618e-06 0)
(-0.00691799 -8.44262e-05 0)
(-0.00661846 -0.000165987 0)
(-0.00613214 -0.000246103 0)
(-0.0054658 -0.000322164 0)
(-0.0046323 -0.000391227 0)
(-0.0036523 -0.000450009 0)
(-0.00255887 -0.000493575 0)
(-0.00133663 -0.000500574 0)
(-0.000342085 -0.000340301 0)
(-0.000455568 0.00116638 0)
(-0.00172479 0.00167401 0)
(-0.00326616 0.00167607 0)
(-0.00467843 0.00157498 0)
(-0.0059847 0.00143054 0)
(-0.00714781 0.00125124 0)
(-0.00813826 0.00104079 0)
(-0.00893133 0.000802862 0)
(-0.0095058 0.000541431 0)
(-0.0098441 0.000260882 0)
(-0.0099334 -3.4107e-05 0)
(-0.00976462 -0.000337575 0)
(-0.00933373 -0.000642307 0)
(-0.00864391 -0.000940303 0)
(-0.00770518 -0.00122216 0)
(-0.00653577 -0.00147725 0)
(-0.00516451 -0.00169364 0)
(-0.00363609 -0.00185321 0)
(-0.00193735 -0.00188224 0)
(-0.00051749 -0.00133551 0)
(-0.0004945 0.00232768 0)
(-0.00186844 0.00326017 0)
(-0.00353293 0.00325554 0)
(-0.00505598 0.00305595 0)
(-0.00646389 0.00277185 0)
(-0.0077172 0.0024201 0)
(-0.00878478 0.00200859 0)
(-0.0096407 0.00154493 0)
(-0.0102628 0.00103714 0)
(-0.010633 0.000493818 0)
(-0.0107368 -7.57908e-05 0)
(-0.0105634 -0.000660719 0)
(-0.0101084 -0.00124771 0)
(-0.00937362 -0.00182155 0)
(-0.00836792 -0.0023645 0)
(-0.00710903 -0.0028563 0)
(-0.00562649 -0.00327397 0)
(-0.003968 -0.00358253 0)
(-0.00211834 -0.0036453 0)
(-0.000567086 -0.0026412 0)
(-0.000525521 0.0035092 0)
(-0.00198921 0.00488398 0)
(-0.00376358 0.00487151 0)
(-0.00538544 0.0045707 0)
(-0.00688483 0.00414442 0)
(-0.00822051 0.00361789 0)
(-0.00936042 0.00300319 0)
(-0.010278 0.00231177 0)
(-0.0109506 0.00155545 0)
(-0.0113589 0.00074665 0)
(-0.0114878 -0.000100915 0)
(-0.0113244 -0.000972709 0)
(-0.0108608 -0.00184987 0)
(-0.0100962 -0.0027102 0)
(-0.00903672 -0.00352749 0)
(-0.00769742 -0.00427122 0)
(-0.00610699 -0.00490607 0)
(-0.00431584 -0.00537812 0)
(-0.00230707 -0.00548273 0)
(-0.000617644 -0.00399741 0)
(-0.00056746 0.0047751 0)
(-0.00215084 0.00662602 0)
(-0.00407129 0.00660432 0)
(-0.00582473 0.00619464 0)
(-0.0074456 0.00561642 0)
(-0.00889053 0.00490422 0)
(-0.0101265 0.00407472 0)
(-0.0111265 0.00314341 0)
(-0.0118675 0.00212575 0)
(-0.0123293 0.00103751 0)
(-0.0124954 -0.000104472 0)
(-0.0123501 -0.00128192 0)
(-0.0118812 -0.00247131 0)
(-0.0110832 -0.00364427 0)
(-0.00995716 -0.00476584 0)
(-0.00851346 -0.00579407 0)
(-0.00677823 -0.00667873 0)
(-0.00480479 -0.00734251 0)
(-0.00257454 -0.00750267 0)
(-0.000690126 -0.00549104 0)
(-0.000623154 0.00615604 0)
(-0.00236429 0.00852816 0)
(-0.00447624 0.00849488 0)
(-0.00640126 0.00796538 0)
(-0.00817951 0.00722159 0)
(-0.00976508 0.00630879 0)
(-0.0111242 0.00524904 0)
(-0.0122302 0.00406213 0)
(-0.0130597 0.00276689 0)
(-0.0135924 0.00138173 0)
(-0.0138104 -7.42896e-05 0)
(-0.0136942 -0.00158097 0)
(-0.0132258 -0.00311141 0)
(-0.0123932 -0.0046321 0)
(-0.0111889 -0.00609955 0)
(-0.00961531 -0.00745899 0)
(-0.00769277 -0.0086418 0)
(-0.00547654 -0.00954044 0)
(-0.00294524 -0.00977863 0)
(-0.000791534 -0.00718036 0)
(-0.00069436 0.00768481 0)
(-0.00263639 0.010635 0)
(-0.00499081 0.010586 0)
(-0.00713099 0.00992138 0)
(-0.00910473 0.00899355 0)
(-0.0108634 0.00786062 0)
(-0.0123734 0.00655115 0)
(-0.013609 0.00508966 0)
(-0.0145481 0.00349807 0)
(-0.0151707 0.00179626 0)
(-0.0154584 3.42892e-06 0)
(-0.0153875 -0.00185851 0)
(-0.0149325 -0.0037639 0)
(-0.0140716 -0.00567589 0)
(-0.0127846 -0.00754352 0)
(-0.0110601 -0.00929806 0)
(-0.008907 -0.0108481 0)
(-0.00637895 -0.0120461 0)
(-0.00344904 -0.0123988 0)
(-0.00093089 -0.00913679 0)
(-0.000783513 0.00939987 0)
(-0.0029762 0.0129988 0)
(-0.00563092 0.0129265 0)
(-0.00803386 0.0121053 0)
(-0.0102431 0.0109684 0)
(-0.0122077 0.00958995 0)
(-0.0138953 0.00800665 0)
(-0.0152834 0.00624848 0)
(-0.0163532 0.00434008 0)
(-0.0170871 0.00230141 0)
(-0.0174651 0.000149645 0)
(-0.0174616 -0.00209591 0)
(-0.0170433 -0.00441395 0)
(-0.0161729 -0.00676863 0)
(-0.0148116 -0.00910481 0)
(-0.0129256 -0.0113401 0)
(-0.0105016 -0.0133556 0)
(-0.0075835 -0.0149497 0)
(-0.00413296 -0.0154771 0)
(-0.00112326 -0.0114564 0)
(-0.000894347 0.0113463 0)
(-0.0033969 0.0156797 0)
(-0.00641899 0.0155712 0)
(-0.00913711 0.014563 0)
(-0.0116235 0.0131832 0)
(-0.0138255 0.0115262 0)
(-0.015715 0.00963956 0)
(-0.0172757 0.00755976 0)
(-0.0184953 0.00531372 0)
(-0.0193612 0.00291976 0)
(-0.0198557 0.000390028 0)
(-0.0199511 -0.00226535 0)
(-0.0196052 -0.00503367 0)
(-0.0187625 -0.00788751 0)
(-0.0173567 -0.0107746 0)
(-0.0153183 -0.013603 0)
(-0.0125943 -0.0162226 0)
(-0.00920016 -0.0183602 0)
(-0.00507431 -0.0191624 0)
(-0.00139537 -0.0142739 0)
(-0.00103279 0.0135792 0)
(-0.00391824 0.0187497 0)
(-0.00738722 0.0185826 0)
(-0.0104784 0.0173436 0)
(-0.0132839 0.0156744 0)
(-0.0157517 0.0136959 0)
(-0.0178619 0.01147 0)
(-0.0196094 0.00904103 0)
(-0.0209934 0.00643788 0)
(-0.0220109 0.00367474 0)
(-0.0226503 0.000754282 0)
(-0.0228854 -0.00232766 0)
(-0.0226655 -0.00557695 0)
(-0.0219139 -0.00898548 0)
(-0.0205279 -0.0125166 0)
(-0.0183831 -0.0160808 0)
(-0.0153582 -0.0194992 0)
(-0.0114016 -0.0224078 0)
(-0.0064061 -0.0236552 0)
(-0.00179773 -0.0177909 0)
(-0.00120877 0.0161689 0)
(-0.00457063 0.0222969 0)
(-0.00858274 0.0220331 0)
(-0.012111 0.0204994 0)
(-0.0152757 0.0184763 0)
(-0.0180304 0.0161196 0)
(-0.0203702 0.0135102 0)
(-0.0223081 0.0107024 0)
(-0.0238619 0.00772632 0)
(-0.0250451 0.00458928 0)
(-0.0258582 0.00127942 0)
(-0.0262825 -0.00222935 0)
(-0.0262632 -0.00597305 0)
(-0.0257023 -0.0099795 0)
(-0.024453 -0.0142496 0)
(-0.0223134 -0.018721 0)
(-0.0190497 -0.0232058 0)
(-0.014465 -0.0272407 0)
(-0.00836922 -0.0292275 0)
(-0.00243267 -0.0223302 0)
(-0.00143977 0.0192104 0)
(-0.00540268 0.0264326 0)
(-0.0100759 0.0260078 0)
(-0.0141107 0.0240844 0)
(-0.0176688 0.0216169 0)
(-0.0207184 0.0188065 0)
(-0.0232795 0.0157589 0)
(-0.0253937 0.0125406 0)
(-0.0271069 0.00918218 0)
(-0.0284582 0.00568091 0)
(-0.0294692 0.00200488 0)
(-0.0301381 -0.0019025 0)
(-0.0304159 -0.0061207 0)
(-0.0301907 -0.0107358 0)
(-0.0292707 -0.0158204 0)
(-0.0273563 -0.0213858 0)
(-0.0240469 -0.0272873 0)
(-0.018846 -0.0330036 0)
(-0.011425 -0.0362478 0)
(-0.00352175 -0.0284483 0)
(-0.00175894 0.0228448 0)
(-0.00649519 0.0313054 0)
(-0.0119732 0.0306077 0)
(-0.0165874 0.0281514 0)
(-0.0205593 0.0251118 0)
(-0.0238893 0.0217465 0)
(-0.0266367 0.0181928 0)
(-0.0288854 0.0145306 0)
(-0.0307221 0.0107897 0)
(-0.0322229 0.00695401 0)
(-0.0334422 0.00296612 0)
(-0.0344086 -0.00126889 0)
(-0.035097 -0.00588457 0)
(-0.0354026 -0.0110529 0)
(-0.035105 -0.0169657 0)
(-0.0338041 -0.0237858 0)
(-0.0308954 -0.0315246 0)
(-0.0253077 -0.0397625 0)
(-0.0164991 -0.0451696 0)
(-0.00556817 -0.0371959 0)
(-0.00223324 0.0272001 0)
(-0.00799373 0.0370675 0)
(-0.0144429 0.035935 0)
(-0.0197023 0.0327408 0)
(-0.0240799 0.0289531 0)
(-0.0276386 0.0248991 0)
(-0.0304962 0.0207554 0)
(-0.0327974 0.0166147 0)
(-0.034684 0.0125028 0)
(-0.0362822 0.00838746 0)
(-0.0376926 0.00418291 0)
(-0.0389893 -0.000248241 0)
(-0.0402005 -0.00510073 0)
(-0.0412726 -0.0106536 0)
(-0.0420064 -0.0172718 0)
(-0.0419499 -0.0253864 0)
(-0.0403373 -0.0353682 0)
(-0.0351035 -0.0472844 0)
(-0.0255003 -0.0562927 0)
(-0.00978846 -0.0507543 0)
(-0.00292961 0.0331814 0)
(-0.010042 0.0441607 0)
(-0.0176993 0.0421789 0)
(-0.0236752 0.0378828 0)
(-0.0284079 0.0330971 0)
(-0.0320883 0.02818 0)
(-0.0349212 0.0233446 0)
(-0.0371372 0.0186903 0)
(-0.0389474 0.0142331 0)
(-0.0405396 0.00991905 0)
(-0.0420737 0.00563256 0)
(-0.0436865 0.00118751 0)
(-0.0454951 -0.0036721 0)
(-0.0475642 -0.00927074 0)
(-0.0498274 -0.0162189 0)
(-0.0519331 -0.0253522 0)
(-0.0531883 -0.0376092 0)
(-0.049995 -0.0545272 0)
(-0.0420704 -0.0691628 0)
(-0.0188994 -0.0732005 0)
(-0.00471971 0.0384279 0)
(-0.0139293 0.0522958 0)
(-0.0223358 0.049311 0)
(-0.0288986 0.0436428 0)
(-0.0337857 0.0375205 0)
(-0.0373841 0.0314658 0)
(-0.0399683 0.0257934 0)
(-0.0418795 0.0205904 0)
(-0.0434127 0.015837 0)
(-0.0448259 0.011446 0)
(-0.0463521 0.00729262 0)
(-0.0482045 0.00320803 0)
(-0.0505475 -0.00105083 0)
(-0.0536769 -0.00597685 0)
(-0.0578941 -0.0122955 0)
(-0.0631099 -0.0214344 0)
(-0.0694653 -0.0349859 0)
(-0.0709962 -0.0590614 0)
(-0.0698513 -0.0831569 0)
(-0.034494 -0.113059 0)
(-0.00462993 0.0546234 0)
(-0.0159425 0.0609912 0)
(-0.028075 0.0561923 0)
(-0.0355567 0.0480546 0)
(-0.0404989 0.0405889 0)
(-0.0436163 0.0336506 0)
(-0.0454568 0.0274067 0)
(-0.046605 0.0218618 0)
(-0.0474544 0.0169729 0)
(-0.0483004 0.0126449 0)
(-0.0493808 0.00874247 0)
(-0.0509409 0.00506105 0)
(-0.0533996 0.00134577 0)
(-0.0572493 -0.0029616 0)
(-0.0632484 -0.0083258 0)
(-0.0716154 -0.0169651 0)
(-0.0858656 -0.0303684 0)
(-0.0932288 -0.0614364 0)
(-0.102862 -0.102051 0)
(-0.0427634 -0.182389 0)
(-0.0137517 0.0519609 0)
(-0.0338513 0.0821248 0)
(-0.0370771 0.0716198 0)
(-0.0445396 0.0602867 0)
(-0.0465654 0.0489604 0)
(-0.047168 0.0387412 0)
(-0.0466797 0.0303097 0)
(-0.0457768 0.0235159 0)
(-0.0448503 0.0181072 0)
(-0.0442078 0.0137782 0)
(-0.0441405 0.0103352 0)
(-0.0449018 0.00760006 0)
(-0.0469467 0.00561237 0)
(-0.0504362 0.00430544 0)
(-0.0569372 0.0042599 0)
(-0.0645287 0.00137494 0)
(-0.0810773 -0.00345431 0)
(-0.0811658 -0.0464907 0)
(-0.101342 -0.111992 0)
(-0.00985216 -0.269836 0)
(-0.0685346 0.118491 0)
(-0.0538505 0.0698351 0)
(-0.051462 0.0610146 0)
(-0.0365017 0.0483134 0)
(-0.0227037 0.0369685 0)
(-0.0102898 0.0285118 0)
(0.000538889 0.022223 0)
(0.0094428 0.0173372 0)
(0.0165294 0.0135077 0)
(0.0220391 0.0105234 0)
(0.0261332 0.00834163 0)
(0.0293554 0.00666744 0)
(0.0312666 0.00597414 0)
(0.0342172 0.00518415 0)
(0.0332336 0.00557172 0)
(0.0423593 0.000678234 0)
(0.0287189 -0.0117527 0)
(0.061855 -0.0655246 0)
(0.00161864 -0.180741 0)
(0.0681227 -0.333075 0)
(0.129033 0.142715 0)
(0.166222 0.0856632 0)
(0.246487 0.0600741 0)
(0.297963 0.043187 0)
(0.333977 0.0305703 0)
(0.360773 0.0213223 0)
(0.381059 0.0149553 0)
(0.396324 0.0107298 0)
(0.407724 0.00790508 0)
(0.416772 0.00590215 0)
(0.423035 0.00456922 0)
(0.429827 0.00349717 0)
(0.431054 0.00263051 0)
(0.440831 0.00258483 0)
(0.431782 0.000153971 0)
(0.452816 0.00166614 0)
(0.416897 -0.00835655 0)
(0.438925 -0.013083 0)
(0.310518 -0.0514395 0)
(0.243624 -0.135015 0)
)
;

boundaryField
{
    movingWall
    {
        type            fixedValue;
        value           uniform (1 0 0);
    }
    fixedWalls
    {
        type            noSlip;
    }
    frontAndBack
    {
        type            empty;
    }
}


// ************************************************************************* //
