/*--------------------------------*- C++ -*----------------------------------*\
  =========                 |
  \\      /  F ield         | OpenFOAM: The Open Source CFD Toolbox
   \\    /   O peration     | Website:  https://openfoam.org
    \\  /    A nd           | Version:  10
     \\/     M anipulation  |
\*---------------------------------------------------------------------------*/
FoamFile
{
    format      ascii;
    class       volVectorField;
    location    "4.775";
    object      U;
}
// * * * * * * * * * * * * * * * * * * * * * * * * * * * * * * * * * * * * * //

dimensions      [0 1 -1 0 0 0 0];

internalField   nonuniform List<vector> 
8000
(
(-4.69052e-05 6.03565e-05 -1.91428e-05)
(-0.000412106 0.000158144 1.68111e-05)
(-0.00102219 0.00018454 2.90573e-05)
(-0.00161698 0.000189847 3.44644e-05)
(-0.00221737 0.000190164 3.4063e-05)
(-0.00279918 0.000188756 3.00874e-05)
(-0.00334941 0.000184887 2.36927e-05)
(-0.00385421 0.000176949 1.50578e-05)
(-0.00429668 0.000163094 3.78581e-06)
(-0.00465693 0.000141739 -1.00602e-05)
(-0.00491165 0.000111692 -2.60833e-05)
(-0.00503507 7.25573e-05 -4.3913e-05)
(-0.00500045 2.33933e-05 -6.37202e-05)
(-0.00478389 -3.60079e-05 -8.49119e-05)
(-0.00436834 -0.000102049 -0.000105972)
(-0.00374746 -0.000169999 -0.000124579)
(-0.00293474 -0.000232147 -0.000136528)
(-0.00198952 -0.000275105 -0.000135494)
(-0.000913907 -0.000269954 -0.000116958)
(-0.00016612 -0.000133853 -4.57904e-05)
(-0.000140904 0.000472653 -7.41727e-05)
(-0.000808729 0.00087885 -4.4091e-05)
(-0.00182308 0.000981689 -3.09257e-05)
(-0.0028085 0.000988521 -2.15245e-05)
(-0.00378966 0.000964853 -1.70267e-05)
(-0.00472776 0.000925005 -1.54707e-05)
(-0.00559993 0.000868421 -1.5836e-05)
(-0.00638374 0.000791181 -1.81026e-05)
(-0.00705338 0.00068856 -2.2569e-05)
(-0.00757956 0.000556196 -2.95394e-05)
(-0.0079292 0.000390509 -3.91642e-05)
(-0.00806819 0.000188692 -5.14104e-05)
(-0.0079628 -4.87718e-05 -6.71021e-05)
(-0.00758012 -0.00031623 -8.40982e-05)
(-0.00689747 -0.000602051 -0.000101675)
(-0.00590964 -0.000887379 -0.00011722)
(-0.00463942 -0.00114235 -0.000125568)
(-0.00317144 -0.00131444 -0.000119585)
(-0.00151427 -0.00129208 -9.50211e-05)
(-0.000312043 -0.000755933 -9.62602e-06)
(-0.000168594 0.00116738 -0.000100096)
(-0.000937963 0.00199742 -7.26792e-05)
(-0.00209086 0.00219782 -5.90648e-05)
(-0.00320522 0.00219555 -4.75728e-05)
(-0.00431156 0.00212397 -4.06443e-05)
(-0.00536753 0.0020127 -3.63879e-05)
(-0.00634873 0.00186264 -3.38659e-05)
(-0.00723131 0.00166816 -3.31964e-05)
(-0.00798774 0.00142211 -3.47733e-05)
(-0.00858671 0.00111721 -3.90745e-05)
(-0.00899362 0.000747277 -4.64866e-05)
(-0.00916985 0.000308235 -5.74092e-05)
(-0.00907332 -0.000198025 -7.17219e-05)
(-0.00866523 -0.000760957 -8.87175e-05)
(-0.00791663 -0.00135791 -0.000107141)
(-0.00681413 -0.00195101 -0.000124013)
(-0.00537598 -0.00248025 -0.000133173)
(-0.00369472 -0.00283939 -0.000126167)
(-0.00177611 -0.00280364 -9.8334e-05)
(-0.000370028 -0.00173114 -1.53669e-06)
(-0.000174239 0.00188364 -0.000119781)
(-0.000984598 0.00315753 -9.50187e-05)
(-0.00220191 0.00345583 -8.13908e-05)
(-0.00337653 0.00344279 -6.86818e-05)
(-0.00454579 0.00332349 -6.02761e-05)
(-0.00566666 0.00314307 -5.43479e-05)
(-0.00671587 0.00290356 -5.00353e-05)
(-0.00767045 0.00259725 -4.75956e-05)
(-0.00850322 0.00221386 -4.7609e-05)
(-0.00918213 0.00174231 -5.07086e-05)
(-0.00966975 0.00117262 -5.74329e-05)
(-0.00992337 0.000498959 -6.83428e-05)
(-0.00989486 -0.000277885 -8.45238e-05)
(-0.00953185 -0.00114741 -0.000103835)
(-0.00878817 -0.00207767 -0.00012545)
(-0.00763432 -0.00301259 -0.000145896)
(-0.00607495 -0.00385931 -0.000157915)
(-0.00420786 -0.0044482 -0.000151137)
(-0.00203511 -0.00442213 -0.000119738)
(-0.000425372 -0.00277261 -7.27567e-06)
(-0.000175483 0.00265193 -0.000136581)
(-0.00101827 0.00440409 -0.000113832)
(-0.00229314 0.00480764 -0.000100273)
(-0.00352386 0.00478544 -8.68669e-05)
(-0.00475483 0.00461988 -7.77534e-05)
(-0.00594306 0.00437293 -7.11485e-05)
(-0.00706774 0.00404808 -6.62561e-05)
(-0.00810807 0.00363544 -6.34454e-05)
(-0.0090383 0.00312093 -6.34451e-05)
(-0.00982653 0.00248854 -6.71128e-05)
(-0.0104329 0.0017223 -7.52826e-05)
(-0.0108083 0.000809868 -8.8842e-05)
(-0.0108948 -0.000252263 -0.000108852)
(-0.0106236 -0.00145566 -0.000133678)
(-0.00992378 -0.00276397 -0.00016233)
(-0.00873781 -0.00410424 -0.00019057)
(-0.00704251 -0.00534588 -0.000209042)
(-0.00493468 -0.00623918 -0.000204111)
(-0.00241211 -0.00626017 -0.000167634)
(-0.000509975 -0.00396493 -3.03208e-05)
(-0.000176854 0.00346557 -0.000154194)
(-0.00105755 0.00573279 -0.000133185)
(-0.00240045 0.00625122 -0.000119772)
(-0.003698 0.00622371 -0.000105911)
(-0.00500251 0.0060166 -9.64694e-05)
(-0.0062715 0.00571052 -8.97098e-05)
(-0.00748778 0.00531091 -8.49236e-05)
(-0.00863414 0.0048057 -8.26122e-05)
(-0.00968783 0.00417641 -8.36789e-05)
(-0.0106185 0.00340042 -8.92505e-05)
(-0.0113851 0.00245295 -0.000100565)
(-0.0119327 0.00131074 -0.000119073)
(-0.0121924 -4.21265e-05 -0.000146275)
(-0.0120731 -0.00160281 -0.000180727)
(-0.0114686 -0.00334273 -0.000221714)
(-0.0102779 -0.00517464 -0.000264075)
(-0.00842948 -0.00692485 -0.000295302)
(-0.00600327 -0.00824147 -0.000296018)
(-0.00298648 -0.00837814 -0.000253147)
(-0.000647613 -0.0053609 -7.75053e-05)
(-0.000178877 0.00433253 -0.000175215)
(-0.00110569 0.0071578 -0.000156268)
(-0.00253012 0.00780239 -0.000143082)
(-0.00390635 0.00777382 -0.000128732)
(-0.00529627 0.00753076 -0.00011894)
(-0.00665834 0.00717499 -0.000112076)
(-0.00798043 0.00671492 -0.000107581)
(-0.00925083 0.00613664 -0.000106153)
(-0.0104523 0.00541702 -0.000108951)
(-0.0115589 0.00452547 -0.000117472)
(-0.0125315 0.00342513 -0.000133498)
(-0.0133121 0.00207631 -0.000159041)
(-0.0138169 0.00044332 -0.00019564)
(-0.0139338 -0.00149059 -0.000247768)
(-0.0135134 -0.00371683 -0.000310049)
(-0.0123844 -0.0061471 -0.000377727)
(-0.010395 -0.00856531 -0.000433985)
(-0.00757117 -0.0104914 -0.000449811)
(-0.00387313 -0.0108683 -0.000400782)
(-0.000878904 -0.00705642 -0.00016808)
(-0.000181407 0.00526504 -0.000201394)
(-0.00116309 0.00869959 -0.000185306)
(-0.00268258 0.00948213 -0.000172369)
(-0.00414741 0.00945528 -0.000157208)
(-0.00563119 0.00918074 -0.000146671)
(-0.0070939 0.00878492 -0.000139341)
(-0.00853024 0.00828088 -0.00013491)
(-0.00993642 0.00765408 -0.000134372)
(-0.011304 0.00687736 -0.000139257)
(-0.0126159 0.00591178 -0.000151619)
(-0.0138403 0.00470615 -0.000174089)
(-0.014921 0.00319872 -0.000209761)
(-0.0157665 0.00132372 -0.000261706)
(-0.0162428 -0.000976886 -0.000340196)
(-0.0161472 -0.0037285 -0.000437777)
(-0.015214 -0.0068754 -0.000550486)
(-0.0131618 -0.0101728 -0.000655765)
(-0.00988722 -0.0129916 -0.000709328)
(-0.00528536 -0.013832 -0.000660307)
(-0.00129069 -0.00920254 -0.000347679)
(-0.000184859 0.00627832 -0.00023456)
(-0.00123148 0.0103822 -0.000222617)
(-0.00285975 0.011313 -0.000209822)
(-0.00442031 0.0112867 -0.000193134)
(-0.00600151 0.0109816 -0.000180962)
(-0.00756546 0.0105533 -0.000172274)
(-0.0091157 0.0100221 -0.00016716)
(-0.0106592 0.00937519 -0.000167033)
(-0.0122002 0.00858341 -0.000173953)
(-0.0137366 0.00760099 -0.000190794)
(-0.015252 0.00636226 -0.000221546)
(-0.0167031 0.00477925 -0.000271346)
(-0.0180025 0.00274311 -0.000347358)
(-0.0189999 0.000136265 -0.000461997)
(-0.0194444 -0.00312828 -0.00061876)
(-0.0189537 -0.00709067 -0.000810399)
(-0.0170481 -0.0115198 -0.00101071)
(-0.0133598 -0.0156433 -0.00115331)
(-0.00764526 -0.0173455 -0.00113338)
(-0.00207866 -0.0120381 -0.000726159)
(-0.000191013 0.00739322 -0.000277255)
(-0.00131647 0.0122358 -0.000271311)
(-0.00306877 0.0133205 -0.000258277)
(-0.00472925 0.0132858 -0.000238697)
(-0.00640529 0.0129436 -0.000223224)
(-0.00806195 0.0124849 -0.000211481)
(-0.00971376 0.0119405 -0.000204156)
(-0.0113811 0.0113026 -0.000203222)
(-0.0130852 0.0105446 -0.000211441)
(-0.0148453 0.00961836 -0.000232818)
(-0.0166718 0.00844841 -0.000273352)
(-0.0185518 0.00692262 -0.000341858)
(-0.0204237 0.00488424 -0.000450683)
(-0.0221351 0.00213293 -0.000613682)
(-0.0234244 -0.00155106 -0.000866589)
(-0.0237921 -0.00631829 -0.00119166)
(-0.022484 -0.0121194 -0.00157277)
(-0.0186623 -0.0180965 -0.0019165)
(-0.0117983 -0.0213626 -0.00203118)
(-0.00367826 -0.0159653 -0.00159832)
(-0.000204418 0.00864153 -0.000333528)
(-0.00143098 0.0143013 -0.000336076)
(-0.00332657 0.0155354 -0.000321863)
(-0.00508818 0.0154698 -0.000296903)
(-0.00684904 0.0150716 -0.000275193)
(-0.00857858 0.0145736 -0.000257418)
(-0.0103043 0.0140214 -0.000245135)
(-0.012062 0.0134169 -0.000241015)
(-0.0138926 0.0127417 -0.000248647)
(-0.0158424 0.0119551 -0.000273391)
(-0.0179595 0.010983 -0.000323755)
(-0.0202819 0.0097015 -0.000413256)
(-0.0228118 0.00791406 -0.000561804)
(-0.0254672 0.00532776 -0.000796737)
(-0.0279777 0.00154706 -0.00116751)
(-0.029821 -0.00382902 -0.00172209)
(-0.0299963 -0.0110371 -0.00242533)
(-0.0268819 -0.01943 -0.00318622)
(-0.01941 -0.0253765 -0.00373252)
(-0.00706444 -0.0216653 -0.00366351)
(-0.000235299 0.010076 -0.000410372)
(-0.0016015 0.0166385 -0.000424468)
(-0.00366686 0.0179979 -0.000407029)
(-0.00552731 0.017856 -0.000372159)
(-0.00735379 0.0173626 -0.000339095)
(-0.00912286 0.0167993 -0.00031025)
(-0.0108771 0.0162296 -0.000288414)
(-0.0126678 0.0156689 -0.000276989)
(-0.014555 0.0151152 -0.000280407)
(-0.0166136 0.0145479 -0.000305475)
(-0.0189373 0.0139164 -0.000363615)
(-0.0216369 0.0131158 -0.000474335)
(-0.0248224 0.0119489 -0.000669874)
(-0.0285514 0.0100649 -0.000997829)
(-0.0327228 0.00690051 -0.00151468)
(-0.0368912 0.0016262 -0.00233297)
(-0.0399778 -0.00659988 -0.00352982)
(-0.0394557 -0.0176827 -0.00499874)
(-0.0332855 -0.0280891 -0.00656972)
(-0.0141983 -0.0302372 -0.00793526)
(-0.000306394 0.0117881 -0.000520633)
(-0.00188049 0.0193342 -0.000548632)
(-0.00415153 0.0207543 -0.00052307)
(-0.00610271 0.0204558 -0.000469974)
(-0.00796277 0.0198021 -0.00041708)
(-0.00972166 0.0191256 -0.000369217)
(-0.0114397 0.0185056 -0.000330614)
(-0.0131811 0.0179737 -0.000305246)
(-0.0150183 0.0175516 -0.000298215)
(-0.0170464 0.0172538 -0.000317187)
(-0.019398 0.0170791 -0.000375521)
(-0.0222586 0.0169881 -0.000497001)
(-0.0258816 0.016856 -0.000722402)
(-0.0305747 0.0163714 -0.00111429)
(-0.0366422 0.0148941 -0.00175335)
(-0.0441808 0.0112133 -0.00273057)
(-0.0522585 0.00346171 -0.00426331)
(-0.0574525 -0.0102122 -0.00630487)
(-0.0559609 -0.0282413 -0.00862003)
(-0.0268745 -0.0455978 -0.0127606)
(-0.000470565 0.0139493 -0.000693158)
(-0.00237901 0.0225842 -0.000743184)
(-0.00489291 0.0239764 -0.000704687)
(-0.00690411 0.023408 -0.000617683)
(-0.00874284 0.0224676 -0.000524663)
(-0.0104253 0.02156 -0.000438207)
(-0.0120279 0.0207941 -0.000366846)
(-0.0136185 0.0202213 -0.000315859)
(-0.0152695 0.0198893 -0.000289314)
(-0.0170786 0.0198576 -0.000293918)
(-0.0191928 0.0202049 -0.000342482)
(-0.0218468 0.0210164 -0.000458144)
(-0.025427 0.0223515 -0.000677525)
(-0.0305373 0.0241 -0.00104113)
(-0.0381034 0.025752 -0.00154552)
(-0.0492675 0.0256588 -0.00206559)
(-0.0643042 0.0202912 -0.00241198)
(-0.0787843 0.0019008 -0.00184772)
(-0.0861314 -0.0330065 -0.000745609)
(-0.0431212 -0.0818821 -0.00926053)
(-0.000785398 0.0169879 -0.000962149)
(-0.00317561 0.0262163 -0.000984381)
(-0.00599432 0.0271618 -0.000900129)
(-0.00806772 0.0259972 -0.000744376)
(-0.00985924 0.0246759 -0.00059669)
(-0.0113852 0.0235613 -0.000465)
(-0.0127574 0.022696 -0.000355828)
(-0.0140568 0.0220938 -0.000272636)
(-0.0153428 0.0218072 -0.000218256)
(-0.0166784 0.0219382 -0.000196953)
(-0.0181676 0.0226677 -0.0002136)
(-0.0200074 0.0242466 -0.000273771)
(-0.0226284 0.02702 -0.000368282)
(-0.0268682 0.0311895 -0.000392728)
(-0.0344967 0.0365689 4.98565e-05)
(-0.0482944 0.040536 0.00195102)
(-0.0722635 0.036865 0.00653566)
(-0.100524 0.00620994 0.014545)
(-0.119113 -0.0640338 0.0215174)
(-0.0542145 -0.15994 0.00081648)
(-0.00208346 0.0202589 -0.00150345)
(-0.00565502 0.0320225 -0.00163466)
(-0.00819378 0.0325958 -0.00145166)
(-0.00990863 0.0309502 -0.00116796)
(-0.0112262 0.0288249 -0.000862028)
(-0.0123655 0.0269141 -0.000588076)
(-0.01341 0.0253592 -0.000362644)
(-0.0143722 0.0242168 -0.000191043)
(-0.0152334 0.0235521 -7.18106e-05)
(-0.0159634 0.0234737 -2.65374e-06)
(-0.0165578 0.024226 2.08081e-05)
(-0.0170632 0.0261688 2.6733e-05)
(-0.0178293 0.0300026 0.00012538)
(-0.0196492 0.0361706 0.000700075)
(-0.025342 0.04514 0.00284271)
(-0.0391554 0.0522317 0.00901302)
(-0.0720874 0.0471754 0.0213179)
(-0.113521 -0.0122476 0.0362273)
(-0.141551 -0.14154 0.0362092)
(-0.052919 -0.26848 -0.00757014)
(-0.00138165 0.0318078 -0.00254077)
(-0.00556899 0.0359152 -0.00219745)
(-0.0101954 0.0343584 -0.00182185)
(-0.012157 0.0306577 -0.00120196)
(-0.0136859 0.0279941 -0.000705864)
(-0.0144168 0.0260108 -0.000284942)
(-0.0147651 0.0245562 4.31294e-05)
(-0.014867 0.0234864 0.000277043)
(-0.014755 0.0228196 0.000427744)
(-0.0143361 0.0226069 0.000509003)
(-0.0134931 0.0231556 0.000538807)
(-0.0119344 0.0246797 0.000587268)
(-0.00983358 0.0283037 0.000857728)
(-0.00717109 0.0340869 0.00201852)
(-0.00782963 0.0440495 0.00577724)
(-0.0142134 0.0503615 0.0153844)
(-0.049052 0.0385204 0.0326251)
(-0.0928204 -0.0561069 0.04464)
(-0.133842 -0.225576 0.0260376)
(-0.0449244 -0.353901 -0.0356685)
(-0.0121919 0.0298575 -0.00347335)
(-0.0213936 0.051765 -0.00397377)
(-0.0165813 0.0475313 -0.00339435)
(-0.0165863 0.0426678 -0.00238974)
(-0.014461 0.0369944 -0.00127272)
(-0.0123021 0.0323062 -0.000353767)
(-0.0101559 0.0286025 0.000338888)
(-0.0080752 0.0257247 0.000802608)
(-0.00602136 0.0235975 0.00108788)
(-0.00368888 0.0220643 0.00120369)
(-0.00111776 0.0212941 0.00118297)
(0.0026264 0.0213456 0.00112181)
(0.00695082 0.023135 0.00119245)
(0.014219 0.0266396 0.00201322)
(0.0188138 0.034476 0.005468)
(0.0280763 0.0399208 0.0141762)
(0.00989627 0.0277413 0.0287768)
(-0.00573437 -0.0764844 0.0365459)
(-0.0814446 -0.253208 0.0101244)
(-0.0250495 -0.39503 -0.0564893)
(-0.0463284 0.0891003 -0.0118808)
(-0.0300655 0.0424202 -0.00765932)
(-0.0211342 0.0361625 -0.00508)
(-0.0035092 0.029153 -0.00260951)
(0.011011 0.0229417 -0.000857289)
(0.024894 0.0188896 0.000445187)
(0.0365489 0.0163291 0.00137424)
(0.0466775 0.014425 0.00198324)
(0.0549731 0.0131579 0.00238523)
(0.062719 0.0120646 0.002532)
(0.0689351 0.0116344 0.00249122)
(0.0765099 0.0112389 0.00214186)
(0.0821689 0.0117851 0.00176452)
(0.0945517 0.0119865 0.00121487)
(0.0996804 0.0121818 0.00209875)
(0.127151 0.00758574 0.00570579)
(0.11428 -0.00927769 0.0111554)
(0.148371 -0.0852079 0.0210113)
(0.0261108 -0.236103 0.00070376)
(0.0283525 -0.371451 -0.066728)
(0.117637 0.111764 -0.0112256)
(0.14423 0.059539 -0.011662)
(0.216578 0.0393982 -0.0111621)
(0.260943 0.0263351 -0.00971287)
(0.293502 0.0176147 -0.00799825)
(0.320205 0.011816 -0.00653224)
(0.340625 0.00819581 -0.00509458)
(0.358635 0.00587047 -0.00393243)
(0.371063 0.00444088 -0.0028133)
(0.384901 0.00352699 -0.00188136)
(0.391175 0.00299502 -0.00123231)
(0.405062 0.0027867 -0.000384339)
(0.404377 0.00266669 -0.00047658)
(0.423973 0.00265561 0.000334383)
(0.411614 0.00217843 3.95017e-05)
(0.441854 -0.000696943 0.000885839)
(0.400224 -0.00860864 0.00168603)
(0.422346 -0.0312887 0.000594866)
(0.256363 -0.0743592 -0.00807868)
(0.165824 -0.139927 -0.0762205)
(-9.95214e-05 0.000108534 -5.33847e-05)
(-0.000746719 0.000305368 -5.44649e-06)
(-0.00179407 0.000358415 1.49712e-05)
(-0.00279889 0.000362518 2.57238e-05)
(-0.00379069 0.00035336 2.6634e-05)
(-0.00473295 0.000338855 2.09806e-05)
(-0.00560534 0.000318474 1.04077e-05)
(-0.00638685 0.000290146 -4.86203e-06)
(-0.00705188 0.000251863 -2.51999e-05)
(-0.00757086 0.000201507 -5.07733e-05)
(-0.00791134 0.000137283 -8.14296e-05)
(-0.00803966 5.87767e-05 -0.000116792)
(-0.0079215 -3.5052e-05 -0.000156208)
(-0.00752618 -0.000141677 -0.000198191)
(-0.00683335 -0.000256356 -0.000239634)
(-0.00583714 -0.000371412 -0.00027583)
(-0.00455778 -0.000473714 -0.000298994)
(-0.0030775 -0.000538123 -0.000298345)
(-0.00140214 -0.000504972 -0.000266083)
(-0.0002503 -0.000224349 -0.000137341)
(-0.000307678 0.000796845 -0.00015055)
(-0.00158262 0.00159316 -0.000114795)
(-0.00344551 0.00179461 -9.16674e-05)
(-0.0052334 0.00178882 -7.25647e-05)
(-0.00697539 0.00171485 -6.25344e-05)
(-0.0086076 0.00160529 -5.87486e-05)
(-0.0100905 0.00146196 -5.96539e-05)
(-0.0113865 0.00128044 -6.52979e-05)
(-0.0124542 0.00105568 -7.62363e-05)
(-0.0132494 0.000782664 -9.30991e-05)
(-0.0137245 0.00045745 -0.000116314)
(-0.0138341 7.78898e-05 -0.000145873)
(-0.0135326 -0.000351853 -0.000181956)
(-0.0127797 -0.000820566 -0.000221144)
(-0.0115526 -0.00130899 -0.000260833)
(-0.00985016 -0.00178619 -0.00029534)
(-0.00771144 -0.00220134 -0.000314853)
(-0.00526014 -0.00245697 -0.00030684)
(-0.00251687 -0.00232874 -0.000263195)
(-0.000526654 -0.00124594 -0.000105065)
(-0.000378971 0.00194313 -0.000199614)
(-0.00188528 0.00355073 -0.000171567)
(-0.00405069 0.00393919 -0.000147614)
(-0.00611925 0.00390201 -0.000124339)
(-0.00812738 0.00371669 -0.000109532)
(-0.0100035 0.00344901 -0.000100589)
(-0.0117039 0.00310591 -9.61443e-05)
(-0.0131874 0.00268204 -9.6546e-05)
(-0.0144093 0.00216986 -0.000102652)
(-0.0153217 0.00156208 -0.000115437)
(-0.0158749 0.000853422 -0.000135705)
(-0.0160156 4.23736e-05 -0.000164161)
(-0.0156892 -0.000863077 -0.000199776)
(-0.0148486 -0.00184179 -0.000241077)
(-0.0134621 -0.00285506 -0.000284572)
(-0.0115193 -0.00384062 -0.000323691)
(-0.00905532 -0.004697 -0.000346641)
(-0.0062066 -0.00522863 -0.00033835)
(-0.00299163 -0.00498968 -0.000289483)
(-0.000634794 -0.00284051 -0.000109669)
(-0.000402804 0.00312029 -0.000239948)
(-0.00201302 0.00557504 -0.000219788)
(-0.00432656 0.00615111 -0.000195884)
(-0.00653222 0.00607781 -0.000169957)
(-0.00867647 0.00577913 -0.000151988)
(-0.0106857 0.00535431 -0.000139598)
(-0.0125171 0.00481475 -0.00013164)
(-0.0141303 0.00415357 -0.000128781)
(-0.0154802 0.00336003 -0.000132256)
(-0.0165176 0.00242294 -0.000143426)
(-0.0171881 0.00133347 -0.000163507)
(-0.0174336 8.95188e-05 -0.000193544)
(-0.0171879 -0.00130118 -0.00023478)
(-0.0163847 -0.00281284 -0.000283341)
(-0.0149702 -0.00439044 -0.00033623)
(-0.0129113 -0.00594082 -0.000385715)
(-0.0102247 -0.00730608 -0.000417573)
(-0.00705413 -0.0081758 -0.00041278)
(-0.00341515 -0.0078483 -0.00035888)
(-0.000724934 -0.00454139 -0.000147109)
(-0.000418874 0.00437509 -0.000276956)
(-0.00211667 0.00773754 -0.000264133)
(-0.00456416 0.00851295 -0.000240482)
(-0.00689752 0.00840394 -0.000212742)
(-0.00917371 0.00799129 -0.000192869)
(-0.0113187 0.00740989 -0.000178688)
(-0.0132925 0.00667595 -0.000169281)
(-0.0150575 0.00578074 -0.00016564)
(-0.01657 0.00470932 -0.000169406)
(-0.0177804 0.00344455 -0.000182471)
(-0.0186298 0.00197038 -0.000206618)
(-0.0190499 0.000277134 -0.000243202)
(-0.0189596 -0.00163043 -0.000295726)
(-0.0182676 -0.00372814 -0.000359198)
(-0.0168844 -0.00595012 -0.000430767)
(-0.0147363 -0.00817286 -0.000501006)
(-0.0118012 -0.0101715 -0.000551294)
(-0.00822171 -0.0114898 -0.000555682)
(-0.00401245 -0.0111087 -0.000495309)
(-0.000856812 -0.00648964 -0.000230615)
(-0.000438408 0.00570457 -0.000317026)
(-0.00224004 0.0100418 -0.000311808)
(-0.00484679 0.0110319 -0.000288538)
(-0.00733305 0.01089 -0.000259268)
(-0.00976764 0.0103663 -0.000238007)
(-0.0120767 0.00963441 -0.00022282)
(-0.014225 0.00871594 -0.000213085)
(-0.0161795 0.00760003 -0.000210196)
(-0.0179003 0.00626624 -0.000216313)
(-0.0193391 0.00468876 -0.00023405)
(-0.0204344 0.00283983 -0.000266197)
(-0.0211075 0.000695563 -0.000315951)
(-0.0212595 -0.00175428 -0.000386163)
(-0.0207651 -0.0044971 -0.000474349)
(-0.0194831 -0.0074667 -0.000577637)
(-0.0172759 -0.0105131 -0.000684427)
(-0.0140516 -0.0133326 -0.000769505)
(-0.00992839 -0.0152794 -0.000794795)
(-0.00491519 -0.0149166 -0.000728115)
(-0.00106826 -0.0087906 -0.000380257)
(-0.000463621 0.00712606 -0.000365156)
(-0.00239328 0.0125175 -0.000369026)
(-0.00519358 0.01374 -0.000346188)
(-0.0078636 0.0135676 -0.000315052)
(-0.0104865 0.0129359 -0.000292062)
(-0.0129893 0.0120613 -0.00027566)
(-0.0153439 0.010972 -0.000265669)
(-0.0175246 0.00965535 -0.00026405)
(-0.0194991 0.00808438 -0.000273688)
(-0.0212244 0.00622178 -0.000298223)
(-0.0226401 0.00402244 -0.000341918)
(-0.0236601 0.00143932 -0.000409659)
(-0.0241679 -0.0015656 -0.000505368)
(-0.0239986 -0.00501048 -0.000634667)
(-0.0229415 -0.00884887 -0.000790436)
(-0.0207612 -0.0129204 -0.00096057)
(-0.0172459 -0.016836 -0.00111081)
(-0.0124325 -0.0197037 -0.00118275)
(-0.00630714 -0.0195023 -0.00111532)
(-0.0014214 -0.0116366 -0.000641584)
(-0.000495061 0.00866221 -0.000425296)
(-0.00257974 0.0152025 -0.000440814)
(-0.00561027 0.0166757 -0.000418235)
(-0.00849387 0.0164721 -0.000384186)
(-0.0113316 0.0157329 -0.000358219)
(-0.0140525 0.0147227 -0.000339384)
(-0.0166382 0.0134787 -0.000328178)
(-0.0190746 0.0119876 -0.000327356)
(-0.0213421 0.010216 -0.000340816)
(-0.0234099 0.00811319 -0.000373653)
(-0.0252263 0.00561156 -0.000432286)
(-0.0267055 0.00263003 -0.000524472)
(-0.0277205 -0.000916748 -0.000658593)
(-0.0280663 -0.00509886 -0.000848821)
(-0.0274461 -0.00993163 -0.00108878)
(-0.0254863 -0.0152805 -0.0013675)
(-0.0217786 -0.0206838 -0.00163951)
(-0.0161598 -0.0249411 -0.00181453)
(-0.00854835 -0.0251888 -0.00176772)
(-0.00205638 -0.0153629 -0.00111256)
(-0.000534092 0.0103387 -0.000501866)
(-0.00280446 0.0181386 -0.000532755)
(-0.00610405 0.0198784 -0.000509844)
(-0.00922855 0.0196365 -0.000470837)
(-0.0123018 0.0187844 -0.000439414)
(-0.0152558 0.0176425 -0.000415593)
(-0.0180861 0.0162606 -0.000400862)
(-0.0207949 0.0146271 -0.000399046)
(-0.0233821 0.0127043 -0.000415398)
(-0.0258385 0.0104285 -0.000457032)
(-0.0281342 0.00770623 -0.000533579)
(-0.0302008 0.00441179 -0.000657443)
(-0.0319117 0.000391157 -0.000843573)
(-0.0330395 -0.00450882 -0.00112155)
(-0.0332032 -0.0104282 -0.00149545)
(-0.0318448 -0.0173352 -0.0019573)
(-0.0282598 -0.0247567 -0.00245507)
(-0.0218715 -0.0311408 -0.00285331)
(-0.0124229 -0.0324306 -0.00290067)
(-0.00331624 -0.0206327 -0.00201475)
(-0.000584162 0.0121879 -0.000600985)
(-0.00307824 0.0213745 -0.000652323)
(-0.0066899 0.0233896 -0.000627705)
(-0.0100796 0.0230903 -0.00058013)
(-0.0134008 0.0221096 -0.00053891)
(-0.0165906 0.0208328 -0.000505577)
(-0.0196621 0.0193266 -0.000483037)
(-0.0226401 0.0175864 -0.000476482)
(-0.0255512 0.0155747 -0.00049285)
(-0.0284202 0.0132187 -0.000541873)
(-0.0312571 0.0104018 -0.000637662)
(-0.0340372 0.00695037 -0.000800268)
(-0.0366625 0.00262621 -0.00105808)
(-0.0389261 -0.00286596 -0.00144776)
(-0.0404021 -0.00986116 -0.00202645)
(-0.0403384 -0.0185625 -0.00278645)
(-0.0376362 -0.0286491 -0.00369449)
(-0.0309916 -0.038258 -0.00456385)
(-0.0197258 -0.0418241 -0.00494041)
(-0.00608349 -0.0288994 -0.00389455)
(-0.000652677 0.0142548 -0.000732035)
(-0.00342227 0.0249711 -0.000810478)
(-0.00739678 0.0272551 -0.00078134)
(-0.0110726 0.0268599 -0.000719016)
(-0.0146437 0.0257179 -0.000660743)
(-0.018055 0.0242893 -0.000610379)
(-0.0213423 0.0226642 -0.000572809)
(-0.0245575 0.0208507 -0.000554859)
(-0.0277619 0.0188193 -0.000565344)
(-0.0310254 0.016499 -0.000616957)
(-0.0344191 0.0137609 -0.000729205)
(-0.0379971 0.0103922 -0.000932372)
(-0.0417583 0.00606282 -0.00127135)
(-0.0455931 0.000292752 -0.00180587)
(-0.0491285 -0.00751201 -0.00264826)
(-0.0515377 -0.0180035 -0.00387913)
(-0.051325 -0.0313109 -0.00548009)
(-0.0461253 -0.045565 -0.00726088)
(-0.0342842 -0.0539201 -0.00856257)
(-0.012508 -0.0434677 -0.00797888)
(-0.000754649 0.016608 -0.000910316)
(-0.00387612 0.0290106 -0.00102418)
(-0.00827682 0.0315297 -0.00098516)
(-0.012255 0.0309687 -0.00089756)
(-0.016064 0.0296052 -0.00081023)
(-0.0196615 0.0279866 -0.000730685)
(-0.0231111 0.0262313 -0.000666554)
(-0.0264956 0.0243665 -0.000626392)
(-0.0299146 0.0223816 -0.000620744)
(-0.0334919 0.0202245 -0.000665047)
(-0.0373802 0.0177805 -0.00078431)
(-0.0417578 0.0148324 -0.00102037)
(-0.0468034 0.0109949 -0.00144143)
(-0.0526171 0.00562493 -0.00215112)
(-0.0591371 -0.00223264 -0.00327985)
(-0.0658211 -0.0138376 -0.00503993)
(-0.0710047 -0.0303738 -0.00757383)
(-0.0709892 -0.0508845 -0.0106494)
(-0.0617317 -0.0690015 -0.0136441)
(-0.0257871 -0.071569 -0.0152282)
(-0.000920219 0.0193537 -0.00116171)
(-0.00451047 0.0335881 -0.00131869)
(-0.00941825 0.0362451 -0.00125834)
(-0.0137083 0.035401 -0.00112748)
(-0.0177241 0.0337306 -0.000992523)
(-0.0214453 0.0318657 -0.000865669)
(-0.0249705 0.0299493 -0.000757741)
(-0.0284142 0.0280323 -0.000678829)
(-0.0319103 0.0261362 -0.000640641)
(-0.0356323 0.0242502 -0.000659654)
(-0.0398169 0.0223122 -0.000763219)
(-0.0447922 0.0201625 -0.000999154)
(-0.0510033 0.0174553 -0.00144911)
(-0.0590009 0.0135 -0.0022374)
(-0.0693766 0.00706931 -0.00351957)
(-0.0825487 -0.0038066 -0.00545703)
(-0.0969421 -0.022082 -0.00816125)
(-0.106106 -0.050829 -0.0110305)
(-0.101094 -0.0892565 -0.0136645)
(-0.0417685 -0.128303 -0.0199402)
(-0.00122439 0.0226945 -0.00153978)
(-0.00549299 0.0390217 -0.00176257)
(-0.0109867 0.0417183 -0.00166909)
(-0.0155511 0.040438 -0.00146357)
(-0.0196994 0.0382674 -0.00123993)
(-0.0234537 0.0359794 -0.00102543)
(-0.0269444 0.0337715 -0.000839399)
(-0.0303044 0.0317279 -0.000694467)
(-0.0336881 0.0299059 -0.000600494)
(-0.0373018 0.0283554 -0.000570853)
(-0.0414467 0.0271207 -0.000628476)
(-0.0465877 0.0262009 -0.000812725)
(-0.0534597 0.0254665 -0.00118377)
(-0.0631659 0.0244419 -0.00179176)
(-0.0772597 0.0219308 -0.00253065)
(-0.0972182 0.014838 -0.00282575)
(-0.120861 -0.00400618 -0.00131908)
(-0.136542 -0.0491703 0.00390854)
(-0.13306 -0.126939 0.00863361)
(-0.0431848 -0.222926 -0.0101221)
(-0.00165531 0.027041 -0.002097)
(-0.00672214 0.04462 -0.00230212)
(-0.0130456 0.0467665 -0.00212004)
(-0.0179693 0.0446309 -0.00177873)
(-0.0222591 0.0419577 -0.00144035)
(-0.0259263 0.0393996 -0.00112248)
(-0.029193 0.0370601 -0.000843148)
(-0.0322387 0.0349845 -0.000612833)
(-0.0352228 0.033254 -0.000439074)
(-0.0383285 0.0319957 -0.000328279)
(-0.0418361 0.0314092 -0.000282093)
(-0.0462299 0.0317506 -0.000289472)
(-0.052386 0.033314 -0.00029117)
(-0.0617555 0.0360625 1.93047e-05)
(-0.0766328 0.0388987 0.00170615)
(-0.0990675 0.0363694 0.00738632)
(-0.126886 0.0147645 0.020772)
(-0.14199 -0.0544166 0.0412947)
(-0.14097 -0.178153 0.0490577)
(-0.0279458 -0.322388 -0.000522617)
(-0.00369911 0.0313108 -0.00309782)
(-0.0108363 0.0539122 -0.00353445)
(-0.0167704 0.0556961 -0.00318864)
(-0.0213114 0.0528843 -0.00262883)
(-0.0250489 0.0489052 -0.0020023)
(-0.0283394 0.0451034 -0.00141371)
(-0.0312838 0.0417343 -0.000900595)
(-0.0339579 0.038902 -0.000479692)
(-0.0364234 0.0367077 -0.000152874)
(-0.0387644 0.035312 8.60786e-05)
(-0.0411375 0.0350391 0.000264663)
(-0.0438371 0.0363938 0.000481625)
(-0.0475607 0.0402202 0.00104728)
(-0.0534227 0.0468535 0.00291324)
(-0.0637013 0.0552235 0.00862672)
(-0.0796634 0.0560321 0.0232085)
(-0.103763 0.0321987 0.0504355)
(-0.115205 -0.0593683 0.0789108)
(-0.125729 -0.225761 0.0676752)
(-0.00963317 -0.402975 -0.0153524)
(-0.00180387 0.0460712 -0.00495342)
(-0.00946339 0.0576895 -0.00476215)
(-0.0200326 0.0567401 -0.00403839)
(-0.0252072 0.0515817 -0.00291125)
(-0.0297094 0.0476453 -0.00196123)
(-0.0326344 0.0443119 -0.00109563)
(-0.034706 0.0414566 -0.000361502)
(-0.036161 0.0389653 0.00023135)
(-0.0371315 0.0369557 0.000687564)
(-0.0376312 0.0355631 0.00101927)
(-0.0376459 0.0352539 0.00128911)
(-0.0370092 0.0364988 0.00170121)
(-0.035945 0.0406641 0.0027893)
(-0.0341457 0.0477028 0.00602912)
(-0.0341595 0.0582711 0.0148034)
(-0.0335507 0.059762 0.0343137)
(-0.048878 0.0373168 0.0665683)
(-0.0518004 -0.0653289 0.0880785)
(-0.0804481 -0.259833 0.052844)
(0.0168621 -0.460863 -0.0406458)
(-0.0119917 0.0376629 -0.00627107)
(-0.0256139 0.0806238 -0.00740531)
(-0.0256325 0.0773762 -0.00664099)
(-0.0319815 0.0710083 -0.00500517)
(-0.0336459 0.062911 -0.00309375)
(-0.033779 0.0557498 -0.00141953)
(-0.0325334 0.0496557 -6.36235e-05)
(-0.0304229 0.0445773 0.000962341)
(-0.0277106 0.0404986 0.0016945)
(-0.0243226 0.0372433 0.00214083)
(-0.0205584 0.0351484 0.00237446)
(-0.0155048 0.0343316 0.00261796)
(-0.0101205 0.0363177 0.00331879)
(-0.000576489 0.0407887 0.00582399)
(0.00768364 0.0506526 0.012918)
(0.0279766 0.0549564 0.0288128)
(0.0299083 0.042509 0.0511419)
(0.0615478 -0.0474359 0.0669912)
(0.0104457 -0.255909 0.0290314)
(0.0663818 -0.470543 -0.0584261)
(-0.0755708 0.101524 -0.0178509)
(-0.061131 0.0630514 -0.0126084)
(-0.0605248 0.0609478 -0.00882965)
(-0.0393425 0.0527057 -0.00527733)
(-0.0211683 0.0445855 -0.00271359)
(-0.00150309 0.0385358 -0.000617218)
(0.0165857 0.034086 0.00107598)
(0.0339132 0.0302886 0.00239916)
(0.0492461 0.027447 0.00339925)
(0.0644891 0.0246763 0.00400118)
(0.0769363 0.0230755 0.00425346)
(0.0916635 0.0213029 0.00401247)
(0.10121 0.0213256 0.00377761)
(0.121289 0.0215111 0.00328243)
(0.127583 0.0215865 0.00473818)
(0.168875 0.0192041 0.0114926)
(0.165045 -0.0058471 0.0154048)
(0.224813 -0.0603614 0.0270397)
(0.156284 -0.236229 0.00904716)
(0.148398 -0.420024 -0.0728199)
(0.119417 0.139904 -0.0164345)
(0.151626 0.0857467 -0.0176022)
(0.229927 0.0635142 -0.0171913)
(0.284247 0.0481754 -0.0155162)
(0.325852 0.0372766 -0.0133802)
(0.363301 0.0292228 -0.0114658)
(0.392352 0.023509 -0.00953012)
(0.422211 0.019333 -0.00776985)
(0.441759 0.0161945 -0.00615056)
(0.468593 0.0137968 -0.00453934)
(0.479396 0.011944 -0.00333461)
(0.507293 0.0105762 -0.00208136)
(0.508762 0.0093518 -0.001159)
(0.541399 0.00888358 -0.000785384)
(0.532058 0.00743563 0.000774787)
(0.57013 0.00548291 -5.36411e-05)
(0.540261 -0.00352401 0.00346095)
(0.560497 -0.0237066 -0.00265748)
(0.43403 -0.071709 -0.00742083)
(0.302847 -0.149446 -0.0839955)
(-0.000111164 0.000111492 -7.33628e-05)
(-0.0008391 0.000338781 -6.17978e-05)
(-0.00201561 0.000400219 -4.86693e-05)
(-0.00313782 0.000404003 -3.85935e-05)
(-0.00423894 0.000391676 -3.53603e-05)
(-0.00527879 0.000372806 -3.77275e-05)
(-0.00623565 0.000347085 -4.49753e-05)
(-0.00708686 0.000312361 -5.70877e-05)
(-0.00780517 0.000266406 -7.41712e-05)
(-0.00835961 0.000207126 -9.65962e-05)
(-0.00871606 0.000132882 -0.000124652)