/*--------------------------------*- C++ -*----------------------------------*\
  =========                 |
  \\      /  F ield         | OpenFOAM: The Open Source CFD Toolbox
   \\    /   O peration     | Website:  https://openfoam.org
    \\  /    A nd           | Version:  10
     \\/     M anipulation  |
\*---------------------------------------------------------------------------*/
FoamFile
{
    format      ascii;
    class       volScalarField;
    location    "4";
    object      p;
}
// * * * * * * * * * * * * * * * * * * * * * * * * * * * * * * * * * * * * * //

dimensions      [0 2 -2 0 0 0 0];

internalField   nonuniform List<scalar> 
496
(
29.4437
29.8942
26.2763
19.3801
30.0064
30.849
26.2168
19.361
35.3169
32.5611
23.2095
11.5929
43.1072
40.0307
36.1208
19.5374
10.1988
0.840301
9.98869
0.683783
-4.27559
-8.21123
-35.7649
-64.1103
-5.30228
-8.02771
-8.56377
-8.42172
-5.95055
-10.5417
-11.5193
-10.8552
0.835211
3.01949
0.849927
-4.50902
-36.6448
-9.45609
5.6034
-3.55293
-8.84961
-10.103
-11.562
-12.732
-13.002
-12.7408
-12.4385
-12.4334
-12.7136
-12.7167
-12.3254
-11.3918
-10.43
-9.4466
-8.52101
-7.87454
-7.33007
-6.79991
-5.89425
-5.05202
-4.41663
-4.06622
-3.67496
-3.04462
-2.76439
-2.89765
-3.40338
-3.61615
-3.4151
-3.05527
-2.75372
-2.6826
-2.51417
-2.26806
-1.81779
-1.12443
-0.371106
0.270131
0.495425
0.277285
-11.2625
-12.5747
-13.457
-13.5394
-13.1806
-12.8275
-12.7005
-12.9086
-13.0138
-12.6915
-12.0903
-11.2651
-10.3919
-9.27979
-8.2787
-7.75817
-7.45351
-6.89367
-5.95173
-4.91044
-4.08133
-3.67047
-3.30972
-2.88969
-2.62067
-2.70148
-3.19862
-3.46997
-3.35335
-3.03321
-2.83837
-2.82301
-2.78333
-2.56807
-1.99601
-1.08651
-0.215564
0.543504
0.787318
0.529414
-9.7421
-12.9799
-14.1984
-13.981
-13.4533
-13.3648
-13.4017
-13.5002
-13.3506
-12.9816
-12.3844
-11.6411
-10.4991
-9.22471
-8.8628
-8.59806
-8.10088
-7.263
-6.0915
-4.80493
-3.93305
-3.4731
-3.23983
-3.17197
-2.87269
-3.09574
-3.66808
-3.98251
-3.91914
-3.47034
-3.06615
-2.66184
-2.53965
-2.43871
-2.00009
-1.42861
-0.0678491
0.711334
0.632235
0.00877117
-8.68411
-11.5406
-13.2624
-13.974
-14.399
-14.5412
-14.4032
-14.1977
-13.9564
-13.465
-12.3001
-11.1354
-9.4843
-8.55619
-8.39112
-8.0732
-7.82968
-6.87902
-5.61138
-4.33665
-3.27896
-2.43291
-2.24723
-2.33522
-2.36906
-3.25206
-3.83936
-4.15081
-4.22933
-4.09687
-3.78649
-3.34008
-3.31672
-3.35181
-2.96091
-0.948636
1.68012
3.34742
3.50927
1.55745
49.1822
50.5941
65.3909
76.7357
49.5799
51.5857
65.9304
79.1128
-33.1419
-17.4046
-18.8822
-9.04477
-30.2743
-37.7995
-16.4747
-9.38147
-12.5717
-13.3228
-13.5022
-15.8759
-15.5994
-14.3833
-14.6017
-15.9816
-15.4979
-13.6499
-12.0373
-11.3357
-11.0106
-10.573
-9.62123
-8.77978
-8.17568
-6.99399
-5.87748
-4.74132
-3.60156
-3.36969
-2.68284
-2.0823
-2.58416
-3.10214
-3.05444
-3.41122
-3.9606
-3.86561
-3.38979
-3.00802
-2.56795
-2.27153
-2.07399
-1.11522
0.113685
0.729569
0.995043
0.509915
-10.9984
-10.7538
-12.2206
-12.8253
-12.5889
-12.3214
-12.5168
-12.23
-13.7107
-13.403
-12.5194
-12.7425
-12.6338
-12.1272
-11.094
-9.67924
-8.79734
-7.7113
-6.05139
-5.0885
-4.71414
-4.1185
-3.42413
-2.91725
-2.91167
-2.60315
-1.98121
-1.71871
-1.71786
-1.50996
-1.50268
-1.50382
-1.34675
-1.52873
-1.70977
-1.42114
-1.10991
-1.28047
-1.31666
-0.516009
45.7224
42.802
39.7371
25.6802
38.9387
36.5855
28.5938
18.9151
34.49
34.5874
30.5706
24.8173
33.5934
33.623
30.2021
24.2924
-21.3504
-44.9987
4.46314
-0.668801
16.1867
6.99136
16.1315
6.57057
-17.7966
-12.0386
-11.3809
-5.04151
3.83594
-0.603446
-3.29194
-4.77405
-0.616993
-6.74318
-10.3158
-11.309
-0.660954
-5.52909
-8.06781
-8.60257
-6.64863
-9.72164
-10.9598
-11.9453
-11.5399
-11.4359
-12.3197
-13.232
-13.0831
-12.6886
-13.0579
-13.8257
-14.055
-13.3267
-11.8413
-10.3011
-8.4445
-7.37541
-6.30381
-5.5495
-4.84071
-4.43532
-4.24819
-3.13095
-2.56334
-1.75271
-0.621524
0.249545
0.412427
0.180857
0.0348844
-0.544837
-0.778263
-1.13457
-1.65474
-1.92827
-2.03965
-1.88621
-2.04392
-1.11246
-7.94689
-11.2288
-12.7099
-12.7684
-12.204
-11.3306
-11.3859
-11.8768
-12.5605
-12.7814
-12.8637
-12.9174
-12.9223
-12.4052
-11.1671
-9.9409
-8.56695
-7.49335
-6.63819
-5.84282
-5.28352
-4.67366
-4.12284
-3.24287
-2.56369
-2.09634
-1.69482
-1.21838
-0.646765
-0.53332
-0.41674
-0.584458
-0.81519
-0.96288
-1.16348
-1.41811
-1.58678
-1.41692
-1.06257
-0.348221
-11.4298
-11.6731
-11.7045
-11.2275
-10.9294
-11.0286
-11.2378
-11.5855
-12.0071
-12.6294
-13.0071
-12.9335
-12.4074
-11.5264
-10.5915
-9.65679
-8.72476
-7.58586
-6.57511
-5.7046
-5.12561
-4.61924
-3.95698
-3.37444
-2.80813
-2.52459
-2.17902
-1.64945
-1.06462
-0.602555
-0.47674
-0.431
-0.565215
-0.582657
-0.72026
-0.809499
-0.780298
-0.652515
-0.403065
-0.244489
-8.78234
-9.32747
-10.0505
-10.3296
-10.56
-11.2211
-11.8749
-12.043
-11.8093
-12.1427
-12.8075
-12.9523
-12.1509
-11.0204
-10.1078
-9.33331
-8.64101
-7.6304
-6.66908
-5.83825
-5.27159
-4.77034
-4.06766
-3.4466
-2.89045
-2.62212
-2.28882
-1.78771
-1.14579
-0.614329
-0.475276
-0.449208
-0.538159
-0.62951
-0.617488
-0.660644
-0.644752
-0.572909
-0.372116
-0.156336
)
;

boundaryField
{
    inlet
    {
        type            zeroGradient;
    }
    outlet
    {
        type            fixedValue;
        value           uniform 0;
    }
    obstacle
    {
        type            zeroGradient;
    }
    upperWall
    {
        type            zeroGradient;
    }
    lowerWall
    {
        type            zeroGradient;
    }
    frontAndBack
    {
        type            empty;
    }
}


// ************************************************************************* //
