/*--------------------------------*- C++ -*----------------------------------*\
  =========                 |
  \\      /  F ield         | OpenFOAM: The Open Source CFD Toolbox
   \\    /   O peration     | Website:  https://openfoam.org
    \\  /    A nd           | Version:  10
     \\/     M anipulation  |
\*---------------------------------------------------------------------------*/
FoamFile
{
    format      ascii;
    class       surfaceScalarField;
    location    "4";
    object      phi;
}
// * * * * * * * * * * * * * * * * * * * * * * * * * * * * * * * * * * * * * //

dimensions      [0 3 -1 0 0 0 0];

internalField   nonuniform List<scalar> 
928
(
0.0953531
0.00464691
0.103564
-0.00821118
0.106979
-0.00341493
-0.00976755
0.116747
0.0940253
0.0106217
0.106211
-0.0203965
0.101592
0.00120406
-0.0200731
0.111897
0.0952755
0.0153462
0.107807
-0.0329284
0.103406
0.00560593
-0.0413899
0.124722
0.105502
0.00984415
0.0959052
-0.0233316
0.102285
-0.000773996
0.151688
-0.0907932
0.111453
0.00529418
-0.0153258
0.126778
0.107695
0.0094966
-0.0403733
0.132742
0.125042
0.00917647
-0.0425836
0.127253
0.160865
0.118281
0.12516
0.00161826
0.124707
0.000453179
0.125683
-0.000976179
-0.00253595
0.128219
0.132234
0.00212605
0.128533
0.00415471
0.129312
-0.00175494
-0.00584303
0.132619
0.125569
0.00381023
0.125362
0.00436117
0.128488
-0.00488089
-0.0026267
0.125272
0.108156
0.0139357
0.106063
0.00645404
0.112351
-0.011169
0.0995268
0.0101975
0.130525
-0.00230622
0.132125
-0.00159948
0.132785
-0.000659802
0.132432
0.000352767
0.13242
1.1914e-05
0.131828
0.000591764
0.13146
0.000367663
0.13016
0.00130041
0.128982
0.00117833
0.127852
0.00112988
0.126992
0.00086023
0.126613
0.000378876
0.125892
0.000720651
0.125805
8.71407e-05
0.125421
0.000383591
0.125162
0.000259427
0.123952
0.00120954
0.122471
0.00148114
0.120866
0.0016049
0.119092
0.00177472
0.117974
0.00111763
0.116671
0.00130273
0.116155
0.000516549
0.115423
0.000731401
0.114754
0.000669675
0.113978
0.000776041
0.112712
0.0012652
0.111357
0.00135574
0.109034
0.00232238
0.106901
0.00213301
0.104202
0.00269935
0.10203
0.00217201
0.100039
0.00199074
0.0986864
0.00135272
0.0985132
0.000173248
0.0991076
-0.000594432
0.101664
-0.00255599
0.104157
-0.0024935
0.107835
-0.00367823
-0.00201701
0.134372
-0.00405908
0.134966
-0.00219409
0.135506
-0.00119958
0.136303
-0.000444252
0.136669
-0.00035414
0.136526
0.000735092
0.135942
0.000951004
0.134936
0.00230715
0.134226
0.00188815
0.133185
0.00217105
0.13241
0.00163462
0.132119
0.000670183
0.132263
0.000576069
0.133089
-0.000738683
0.133417
5.61424e-05
0.133601
7.47919e-05
0.133135
0.00167627
0.132528
0.00208797
0.13176
0.00237282
0.130946
0.00258862
0.130196
0.0018679
0.129369
0.00212951
0.129425
0.000460773
0.129049
0.00110708
0.129125
0.000594163
0.12882
0.00108056
0.127882
0.00220308
0.126986
0.00225198
0.125683
0.00362508
0.124423
0.00339306
0.122644
0.00447823
0.120594
0.00422265
0.118135
0.00444916
0.115259
0.00422878
0.113388
0.00204479
0.112284
0.000509112
0.11344
-0.0037118
0.115246
-0.00429996
0.118429
-0.00686058
-0.00503733
0.126142
-0.00492884
0.127444
-0.00349692
0.129591
-0.00334645
0.131152
-0.00200498
0.130802
-3.68584e-06
0.129833
0.00170363
0.129154
0.00163014
0.129446
0.00201544
0.128538
0.00279556
0.127547
0.00316212
0.126724
0.0024573
0.126243
0.00115143
0.126521
0.000297827
0.12666
-0.000876825
0.126609
0.000106877
0.126496
0.000187278
0.127043
0.00112942
0.127344
0.00178728
0.127791
0.00192618
0.128081
0.00229795
0.128187
0.00176206
0.128958
0.00135838
0.128937
0.000481875
0.12989
0.000154052
0.131375
-0.000890791
0.13219
0.000265735
0.13292
0.0014725
0.132994
0.0021779
0.132361
0.00425882
0.130019
0.00573511
0.126488
0.00800939
0.121806
0.0089046
0.116963
0.00929187
0.112909
0.00828222
0.11028
0.00467383
0.108776
0.00201381
0.109146
-0.00408211
0.110199
-0.00535318
0.111322
-0.00798349
-0.00566986
0.105413
-0.0108153
0.105408
-0.00349167
0.108263
-0.00620165
0.109847
-0.00358836
0.108327
0.00151585
0.109829
0.000201549
0.110974
0.000485059
0.112769
0.000220911
0.111084
0.00448066
0.107743
0.00650269
0.105196
0.005004
0.102227
0.00412059
0.0985073
0.00401764
0.0933648
0.00426572
0.0899478
0.00352392
0.089054
0.00108101
0.0885478
0.00163564
0.0883205
0.00201454
0.0891646
0.00108212
0.0897488
0.0017138
0.0911118
0.000398991
0.0925003
-3.00953e-05
0.093642
-0.000659825
0.0968967
-0.00310062
0.0993599
-0.00335403
0.102815
-0.003189
0.107466
-0.00317885
0.111894
-0.00225
0.116452
-0.00029929
0.12093
0.00125757
0.125968
0.00297107
0.130426
0.00444622
0.134781
0.00493754
0.137175
0.00588813
0.135417
0.00643145
0.130007
0.00742413
0.118995
0.00693001
0.107266
0.00637513
0.0961971
0.00308575
-0.000462825
0.109741
0.000102805
0.0874159
-0.00100608
0.0874741
-0.000832271
-0.00331901
0.11143
-0.0113272
0.0886841
0.0217398
0.0890522
-0.00120036
0.0857332
-0.0174346
0.0313703
-0.0287921
0.0178116
0.00697009
-0.0469312
0.0179409
-0.000773286
0.0123998
0.0189705
0.0519676
-0.0217563
0.0227374
-0.017701
0.0328281
0.00785023
0.00762552
-0.0192141
0.007107
-0.00297313
0.0062915
-0.00538614
0.00920564
-0.00650249
0.0113078
-0.00058631
0.0105384
0.000970991
0.0119061
-0.000882654
0.0176904
-0.00556345
0.019008
0.00316309
0.0159808
0.00952994
0.0137071
0.00727763
0.0119644
0.00586328
0.0121714
0.00381068
0.0139893
0.00244777
0.0154454
0.00206787
0.0168323
-0.000305872
0.0178436
0.000624301
0.0198465
1.16674e-05
0.0233538
-0.0024252
0.0253695
-0.000301938
0.0262486
-0.00048012
0.0295488
-0.00333028
0.0318946
-0.00300564
0.0322415
-0.00344746
0.0355545
-0.00666711
0.0393663
-0.00700071
0.0415757
-0.00538828
0.0440052
-0.0046795
0.0464718
-0.00276587
0.0477085
2.08313e-05
0.0478309
0.00284868
0.0476056
0.00467157
0.0458766
0.00666649
0.0428236
0.00894114
0.0399982
0.00925681
0.0378799
0.00954244
0.0359929
0.00881698
0.0351275
0.00724058
0.0357128
0.00250047
-0.00156132
0.0193327
-0.00571863
0.0145341
0.00182542
0.00901491
0.000133054
0.00357985
-0.00106742
0.00484117
-0.00184763
0.00410903
0.00170314
0.00360982
-0.000383441
-0.00121785
-0.000735775
-0.00282415
0.00476938
0.00326275
0.00344304
0.00654366
0.00399672
0.00860232
0.00380461
0.00971568
0.00269732
0.0118295
0.000333942
0.0150002
-0.00110282
0.016665
-0.00197066
0.0197277
-0.00243843
0.0234682
-0.00372884
0.0244595
-0.00341644
0.0261891
-0.00203155
0.0282115
-0.00250257
0.0288254
-0.00394418
0.0292287
-0.00340889
0.0293352
-0.00355398
0.0282507
-0.00558255
0.0277204
-0.00647042
0.0276316
-0.0052995
0.0276236
-0.0046715
0.0280142
-0.00315648
0.0289796
-0.000944532
0.0303867
0.00144152
0.0318178
0.00324053
0.0337688
0.00471548
0.0363333
0.00637659
0.039669
0.00592117
0.0430398
0.00617161
0.0468403
0.00501651
0.0506774
0.00340343
0.0525223
0.000655597
-0.001768
0.10225
-0.0135774
0.0940978
0.0298922
0.0978483
-0.00495085
0.0385515
0.14503
0.0949636
-0.00854098
0.107302
0.0175539
0.102176
0.000175069
0.0186989
0.122029
0.0952589
-0.0037999
0.105174
0.00763876
0.102727
0.00262194
0.00951701
0.111909
0.0962001
0.103839
0.106461
0.115978
0.152477
-0.00744669
0.0448723
0.107604
0.123022
-0.00843992
0.0397385
0.128156
0.108513
-0.0050435
0.0157718
0.132479
0.110934
0.126706
0.116622
0.00995292
0.098691
-0.00382533
0.0806212
0.000368866
0.00129821
0.0871732
0.136349
0.00175911
0.13257
-4.55667e-05
0.13304
-0.000101434
0.00131336
0.133025
0.133842
0.000396673
0.133899
-0.000102849
0.133187
0.000610869
0.0011006
0.133399
0.127103
0.127
0.127611
0.128711
0.0786141
0.00284042
0.0773673
0.00307228
0.0752079
0.00229237
0.0719441
0.00219648
0.0690778
0.00101865
0.0691911
0.00158984
0.0681618
0.000645779
0.0665526
0.000873455
0.070267
0.00105497
0.0722881
0.00142199
0.0752985
0.000986301
0.079009
9.40968e-05
0.0831839
-0.00147757
0.0864947
-0.00297682
0.0893131
-0.00392126
0.0919588
-0.0046164
0.0938325
-0.00431212
0.0946615
-0.00455778
0.0960653
-0.00482024
0.0979492
-0.0039155
0.0994574
-0.00401077
0.0990201
-0.00350685
0.0995159
-0.00390474
0.0989596
-0.0029976
0.0958352
-0.00245815
0.0916327
-0.00226792
0.0873332
-0.00100009
0.0832094
-0.000547679
0.0785403
0.00151267
0.0765291
0.00106666
0.0755185
0.00245206
0.076576
0.00218307
0.0792994
0.00199205
0.083014
0.00266206
0.088335
0.000600142
0.0934687
0.0010379
0.100702
-0.00221633
0.106405
-0.00230017
0.112597
-0.00553597
-0.00603188
0.132266
0.00359881
0.133188
0.00215051
0.134291
0.00118986
0.135399
0.00108806
0.136111
0.000306828
0.136604
0.00109645
0.136258
0.000991646
0.135622
0.00151011
0.136282
0.000395196
0.137742
-3.8834e-05
0.138837
-0.00010818
0.139975
-0.00104361
0.140228
-0.00173114
0.141073
-0.0038214
0.141024
-0.00387245
0.14124
-0.00483225
0.14129
-0.0043626
0.140806
-0.00407378
0.140323
-0.00433666
0.139939
-0.00353201
0.14006
-0.00413118
0.139282
-0.00272963
0.138606
-0.00322863
0.138089
-0.00248011
0.137332
-0.00170171
0.136419
-0.00135486
0.13512
0.000299144
0.13389
0.000682295
0.132601
0.0028013
0.131259
0.00240864
0.13056
0.00315138
0.130045
0.00269848
0.13012
0.00191641
0.131124
0.00165859
0.132277
-0.000552925
0.134147
-0.000832137
0.135609
-0.00367879
0.136726
-0.00341688
0.136232
-0.005042
-0.00481953
0.135477
0.00152101
0.136438
0.00118964
0.137189
0.000439246
0.137955
0.000321666
0.138624
-0.000362059
0.139738
-1.72672e-05
0.140764
-3.47838e-05
0.141439
0.000835524
0.141571
0.000263339
0.14196
-0.000428438
0.142508
-0.000656293
0.142353
-0.000888346
0.141569
-0.000947531
0.139927
-0.00217845
0.138299
-0.0022447
0.136244
-0.00277788
0.134338
-0.00245628
0.132469
-0.00220486
0.130334
-0.0022013
0.128632
-0.00182998
0.126719
-0.0022186
0.125663
-0.00167311
0.124294
-0.00185959
0.123208
-0.00139412
0.122642
-0.00113585
0.121954
-0.000666742
0.122164
8.91185e-05
0.122501
0.000344606
0.123907
0.00139612
0.125037
0.00127813
0.12646
0.00172814
0.127861
0.00129749
0.128732
0.00104531
0.130051
0.000340237
0.129933
-0.000435223
0.130057
-0.000956413
0.128592
-0.00221353
0.127468
-0.00229242
0.125677
-0.00325149
-0.00247515
0.130232
0.131422
0.131861
0.132183
0.131821
0.131804
0.131769
0.132604
0.132868
0.132439
0.131783
0.130895
0.129947
0.127769
0.125524
0.122746
0.12029
0.118085
0.115884
0.114054
0.111835
0.110162
0.108302
0.106908
0.105772
0.105106
0.105195
0.105539
0.106936
0.108214
0.109942
0.111239
0.112285
0.112625
0.11219
0.111233
0.10902
0.106727
0.103476
)
;

boundaryField
{
    inlet
    {
        type            calculated;
        value           nonuniform List<scalar> 10(-0.1 -0.1 -0.1 -0.1 -0.1 -0.1 -0.1 -0.1 -0.1 -0.1);
    }
    outlet
    {
        type            calculated;
        value           nonuniform List<scalar> 10(0.109852 0.121449 0.111955 0.09099 0.0368113 0.052729 0.116861 0.13502 0.123333 0.101001);
    }
    obstacle
    {
        type            calculated;
        value           uniform 0;
    }
    upperWall
    {
        type            calculated;
        value           uniform 0;
    }
    lowerWall
    {
        type            calculated;
        value           uniform 0;
    }
    frontAndBack
    {
        type            empty;
        value           nonuniform List<scalar> 0();
    }
}


// ************************************************************************* //
