/*--------------------------------*- C++ -*----------------------------------*\
  =========                 |
  \\      /  F ield         | OpenFOAM: The Open Source CFD Toolbox
   \\    /   O peration     | Website:  https://openfoam.org
    \\  /    A nd           | Version:  10
     \\/     M anipulation  |
\*---------------------------------------------------------------------------*/
FoamFile
{
    format      ascii;
    class       volVectorField;
    location    "4";
    object      U;
}
// * * * * * * * * * * * * * * * * * * * * * * * * * * * * * * * * * * * * * //

dimensions      [0 1 -1 0 0 0 0];

internalField   nonuniform List<vector> 
496
(
(10.0073 0.0967762 0)
(9.86148 -0.17412 0)
(10.17 -0.130899 0)
(10.7627 -0.170994 0)
(10.2349 0.617999 0)
(9.58853 -1.45039 0)
(10.2905 -0.33735 0)
(10.6844 -1.16877 0)
(10.9889 1.67321 0)
(8.85237 -3.33278 0)
(11.2043 0.10838 0)
(10.5815 -4.38397 0)
(13.2075 1.68863 0)
(7.4851 -2.69878 0)
(14.0594 0.926514 0)
(9.99336 -6.54032 0)
(11.4842 -0.213217 2.8781e-18)
(12.1977 -0.144944 -2.16016e-19)
(11.6774 -0.422214 -1.2503e-18)
(12.4236 0.303861 2.35203e-18)
(12.9579 -1.97639 -1.63103e-18)
(12.8597 -0.250592 -2.13603e-18)
(14.1556 -5.52957 -4.08088e-17)
(15.8972 -4.04686 7.26788e-17)
(12.6507 -0.138952 0)
(12.8231 -0.110092 0)
(12.9189 0.0520587 0)
(12.914 0.0787138 0)
(12.9106 0.220298 0)
(13.2381 -0.262088 0)
(13.3732 -0.702405 0)
(13.3088 -0.964356 0)
(11.9707 1.48851 0)
(11.8972 2.14164 0)
(11.9565 0.922642 0)
(12.3531 0.43184 0)
(12.2815 -2.8444 0)
(12.1141 -2.02864 0)
(7.85149 -1.09853 0)
(10.8897 -0.990219 0)
(13.0473 0.186111 0)
(13.1303 0.260739 0)
(13.3035 0.365645 0)
(13.3202 0.427008 0)
(13.3412 0.393787 0)
(13.1862 0.425997 0)
(13.1342 0.369551 0)
(12.9995 0.416895 0)
(12.9898 0.402891 0)
(12.8798 0.389213 0)
(12.8377 0.348038 0)
(12.703 0.256267 0)
(12.6611 0.266934 0)
(12.5733 0.194121 0)
(12.5621 0.23265 0)
(12.4728 0.197249 0)
(12.4789 0.261416 0)
(12.3005 0.273642 0)
(12.2263 0.300948 0)
(11.9435 0.344145 0)
(11.9058 0.312005 0)
(11.6926 0.352093 0)
(11.7039 0.294129 0)
(11.4957 0.332307 0)
(11.4869 0.338353 0)
(11.3759 0.3692 0)
(11.3962 0.415698 0)
(11.2476 0.422735 0)
(11.086 0.507455 0)
(10.7567 0.528952 0)
(10.5793 0.614129 0)
(10.2311 0.618447 0)
(10.1788 0.597993 0)
(9.83559 0.53044 0)
(9.93228 0.374468 0)
(9.77447 0.27823 0)
(10.0708 0.108435 0)
(10.2594 0.082706 0)
(10.568 -0.00904926 0)
(10.9787 0.0403493 0)
(13.4715 -0.908586 0)
(13.5911 -0.764035 0)
(13.7216 -0.587755 0)
(13.6765 -0.40768 0)
(13.6539 -0.389917 0)
(13.5644 -0.273673 0)
(13.5297 -0.279437 0)
(13.5061 -0.163323 0)
(13.4781 -0.156513 0)
(13.3831 -0.115283 0)
(13.3336 -0.128475 0)
(13.2519 -0.150743 0)
(13.2961 -0.099873 0)
(13.2305 -0.167166 0)
(13.3088 -0.104716 0)
(13.2882 -0.0985491 0)
(13.383 -0.00613828 0)
(13.2905 0.0236191 0)
(13.2701 0.0371661 0)
(13.1005 0.0527944 0)
(13.0515 -0.0345402 0)
(12.964 -0.0333703 0)
(12.9493 -0.153903 0)
(12.8984 -0.13778 0)
(12.8842 -0.16004 0)
(12.8514 -0.149366 0)
(12.8741 -0.0858324 0)
(12.771 -0.104468 0)
(12.7026 -0.038657 0)
(12.4604 -0.124232 0)
(12.3857 -0.12835 0)
(12.121 -0.244709 0)
(11.994 -0.264979 0)
(11.6564 -0.286595 0)
(11.4178 -0.32921 0)
(11.2747 -0.339968 0)
(11.1992 -0.549692 0)
(11.4928 -0.505796 0)
(11.5589 -0.63321 0)
(12.1296 -0.398655 0)
(12.8441 0.370105 0)
(13.0825 0.280882 0)
(13.1791 0.302819 0)
(13.1463 0.308401 0)
(12.994 0.339177 0)
(12.9987 0.433084 0)
(12.8998 0.439067 0)
(12.9085 0.566928 0)
(12.8928 0.50992 0)
(12.7842 0.493508 0)
(12.8442 0.388941 0)
(12.6713 0.234737 0)
(12.739 0.176927 0)
(12.4905 -0.0300701 0)
(12.6636 0.068299 0)
(12.6066 0.0499544 0)
(12.7419 0.219904 0)
(12.7607 0.291245 0)
(12.7533 0.347246 0)
(12.7865 0.397713 0)
(12.7417 0.325936 0)
(12.878 0.363132 0)
(12.8524 0.203185 0)
(13.0082 0.26215 0)
(13.0036 0.215863 0)
(13.1369 0.29123 0)
(13.2929 0.464388 0)
(13.3287 0.537205 0)
(13.3438 0.802685 0)
(13.1284 0.888566 0)
(12.8674 1.15607 0)
(12.4279 1.23805 0)
(11.9097 1.29731 0)
(11.5145 1.21312 0)
(11.0584 0.766622 0)
(11.013 0.376292 0)
(10.7739 -0.423073 0)
(11.0172 -0.607811 0)
(10.9628 -1.04106 0)
(11.2073 -0.734634 0)
(10.5663 -1.04454 0)
(10.6536 -0.702363 0)
(10.9737 -0.772558 0)
(10.4942 -0.578487 0)
(10.9545 -0.367717 0)
(11.0354 -0.225883 0)
(11.0804 -0.183674 0)
(11.2112 -0.0540926 0)
(10.9533 0.155658 0)
(11.1697 0.185713 0)
(10.7705 0.169611 0)
(10.5327 0.0693648 0)
(9.95078 -0.0261465 0)
(9.35712 -0.0159889 0)
(9.28813 0.0217406 0)
(8.86584 0.0607433 0)
(8.92432 0.115678 0)
(8.84653 0.18197 0)
(8.84485 0.161374 0)
(8.93611 0.180217 0)
(8.96478 0.137273 0)
(9.2105 0.0364153 0)
(9.20072 -0.0482706 0)
(9.69981 -0.188938 0)
(9.57396 -0.325935 0)
(10.187 -0.28245 0)
(10.5303 -0.276353 0)
(10.9145 -0.233204 0)
(11.4781 -0.118474 0)
(11.8277 0.0212997 0)
(12.3826 0.159386 0)
(12.8142 0.258959 0)
(13.2572 0.290591 0)
(13.7076 0.249804 0)
(13.7074 0.107676 0)
(13.5484 0.0630387 0)
(12.4084 0.00476606 0)
(11.3771 0.0183988 0)
(10.0191 -0.0172835 0)
(9.07522 -0.210187 0)
(11.5337 0.528209 -1.12399e-17)
(8.50785 -0.96099 -1.88035e-17)
(11.0544 -0.156623 3.30126e-17)
(5.08505 -5.10153 -8.70494e-17)
(11.8746 -0.53779 1.13967e-17)
(8.61455 0.709679 1.90421e-17)
(10.7996 -0.102915 -3.34499e-17)
(5.9182 4.50288 8.97547e-17)
(11.463 7.33997 0)
(-9.99509 3.79382 0)
(2.16996 -2.91396 0)
(0.107819 2.25414 0)
(-14.3696 -0.0138599 3.44037e-17)
(15.6633 -1.86709 0)
(-0.557959 -5.57986 0)
(4.54102 1.24263 0)
(-0.710845 -1.86489 0)
(2.33243 -0.329018 0)
(-0.56765 -0.751924 0)
(1.41465 -0.46502 0)
(0.716337 0.4523 0)
(1.85471 0.250751 0)
(0.0632373 0.202128 0)
(1.9626 -0.066619 0)
(1.88372 0.419804 0)
(1.98729 1.19613 0)
(1.337 0.957633 0)
(1.30607 0.765428 0)
(0.916898 0.634701 0)
(1.41203 0.647428 0)
(1.63756 0.57707 0)
(1.41727 0.113917 0)
(1.77018 0.183737 0)
(1.9026 0.193359 0)
(2.01503 -0.00888319 0)
(2.77066 0.089818 0)
(2.2248 -0.0628215 0)
(2.8032 -0.0963421 0)
(3.41328 -0.10646 0)
(2.87127 -0.336092 0)
(3.29048 -0.433977 0)
(4.03486 -0.339425 0)
(3.89669 -0.302207 0)
(4.24824 -0.242827 0)
(4.60068 -0.0100638 0)
(4.76131 0.220198 0)
(4.75558 0.476103 0)
(4.87713 0.662544 0)
(4.62832 0.770824 0)
(4.45376 0.923635 0)
(4.16091 1.06274 0)
(3.97723 1.14623 0)
(3.48179 1.03116 0)
(3.6621 0.891109 0)
(3.44898 0.422825 0)
(3.66891 0.0349795 0)
(2.2925 -1.26604 0)
(1.37751 -0.0304823 0)
(1.64271 -0.105689 0)
(0.0495898 -0.394865 0)
(0.646181 -0.415862 0)
(0.368433 0.0977872 0)
(0.345268 -0.274795 0)
(0.581229 -0.553611 0)
(-0.966621 0.490172 0)
(0.51474 0.474031 0)
(0.313553 0.300055 0)
(0.799638 0.224102 0)
(0.865385 0.132637 0)
(0.94458 -0.150841 0)
(1.59532 -0.215464 0)
(1.56839 -0.205916 0)
(1.47766 -0.112333 0)
(2.62347 -0.232249 0)
(2.25274 -0.416639 0)
(2.44731 -0.161057 0)
(2.70672 -0.116703 0)
(2.99201 -0.53101 0)
(2.96284 -0.532271 0)
(2.77975 -0.486898 0)
(2.88223 -0.823804 0)
(2.9553 -0.958723 0)
(2.65227 -0.705315 0)
(2.71655 -0.589016 0)
(2.82595 -0.438887 0)
(2.83657 -0.0919462 0)
(2.91463 0.208091 0)
(3.21909 0.382879 0)
(3.14697 0.543265 0)
(3.49839 0.767524 0)
(3.84067 0.700095 0)
(4.16793 0.675978 0)
(4.35824 0.631514 0)
(4.92404 0.432348 0)
(5.32635 0.010576 0)
(5.278 -0.375565 0)
(12.2215 -1.81881 0)
(7.66689 2.6887 0)
(13.4662 -0.967136 0)
(9.32015 6.33131 0)
(10.955 -1.25174 0)
(8.73388 2.77642 0)
(11.3496 0.194557 0)
(10.2883 3.97852 0)
(10.0643 -0.541847 0)
(9.75577 1.2679 0)
(10.3256 0.22555 0)
(10.6583 1.10597 0)
(9.95727 -0.068976 0)
(9.92883 0.200557 0)
(10.2477 0.111786 0)
(10.7302 0.216361 0)
(14.0059 5.36635 2.43578e-17)
(14.5049 4.22678 -5.10252e-17)
(12.8065 2.18173 0)
(12.7688 0.556879 0)
(11.6013 0.458756 0)
(12.3639 -0.238628 0)
(11.4049 0.264606 0)
(12.1297 0.172017 0)
(12.3708 3.58991 0)
(7.98683 0.140415 0)
(10.4352 1.42522 0)
(7.44337 0.919308 0)
(12.3206 -0.354806 0)
(12.8302 -0.654401 0)
(12.8839 -0.901684 0)
(12.9278 -0.623434 0)
(12.9493 -0.050459 0)
(13.3876 0.0245523 0)
(13.6268 0.274209 0)
(13.6595 0.486613 0)
(12.6937 0.238156 0)
(12.9784 0.168192 0)
(13.1488 0.134758 0)
(13.0864 0.0309423 0)
(8.21466 0.617239 0)
(8.02782 0.50506 0)
(7.4913 0.206756 0)
(7.57085 0.138995 0)
(6.85921 0.0157765 0)
(6.86712 0.161838 0)
(6.46631 0.132757 0)
(7.01259 0.229392 0)
(7.0648 0.290184 0)
(6.80889 0.354437 0)
(7.4195 0.405085 0)
(7.63351 0.408072 0)
(8.17982 0.279457 0)
(8.58261 0.162164 0)
(8.72789 -0.0515347 0)
(9.2558 -0.181303 0)
(9.0514 -0.231208 0)
(9.52165 -0.350035 0)
(9.52276 -0.314154 0)
(9.70839 -0.2528 0)
(9.88252 -0.244664 0)
(9.77997 -0.175193 0)
(10.2332 -0.141118 0)
(9.74699 -0.0808644 0)
(9.81313 -0.08955 0)
(9.46666 -0.101379 0)
(8.92878 -0.116326 0)
(8.56492 -0.107569 0)
(7.89029 -0.0513095 0)
(7.88728 -0.0536296 0)
(7.43451 0.125721 0)
(7.59142 0.18174 0)
(7.83832 0.30632 0)
(7.93058 0.43482 0)
(8.68964 0.383766 0)
(8.9862 0.432901 0)
(9.78524 0.332778 0)
(10.3365 0.301891 0)
(10.9347 0.0954791 0)
(11.7109 -0.0347859 0)
(13.3302 -0.274927 0)
(13.4884 -0.12047 0)
(13.7883 0.00382309 0)
(13.5684 0.0935156 0)
(13.6899 0.0378738 0)
(13.4136 0.136223 0)
(13.569 0.0730706 0)
(13.5403 0.0701931 0)
(13.6775 -0.0544845 0)
(13.7507 -0.118215 0)
(13.7857 -0.15216 0)
(13.9685 -0.316647 0)
(14.0351 -0.387943 0)
(14.1481 -0.620324 0)
(14.1289 -0.670791 0)
(14.1054 -0.772943 0)
(14.1394 -0.754797 0)
(13.9877 -0.674276 0)
(14.1388 -0.709692 0)
(13.9247 -0.577916 0)
(14.0994 -0.680192 0)
(13.8824 -0.551207 0)
(13.978 -0.625417 0)
(13.7908 -0.579966 0)
(13.7502 -0.477254 0)
(13.6992 -0.458752 0)
(13.5625 -0.18492 0)
(13.533 -0.113347 0)
(13.2482 0.163027 0)
(13.2328 0.125759 0)
(13.048 0.204053 0)
(12.9992 0.182008 0)
(13.0451 0.0418191 0)
(12.9822 0.0903248 0)
(13.2254 -0.251679 0)
(13.2356 -0.202441 0)
(13.6129 -0.63359 0)
(13.5172 -0.638265 0)
(13.7905 -0.955113 0)
(13.5016 -1.06772 0)
(13.6995 0.602477 0)
(13.7826 0.518179 0)
(13.8151 0.349417 0)
(13.7912 0.252919 0)
(13.8039 0.0975027 0)
(13.858 0.125368 0)
(13.9553 0.105353 0)
(14.0164 0.178338 0)
(14.1471 0.149465 0)
(14.1981 0.0989532 0)
(14.3291 0.0906807 0)
(14.2703 0.0373763 0)
(14.274 0.0548315 0)
(14.0596 -0.0808787 0)
(13.95 -0.0630823 0)
(13.7198 -0.136481 0)
(13.5551 -0.0846137 0)
(13.3173 -0.0679267 0)
(13.1224 -0.0601135 0)
(12.9244 -0.0252172 0)
(12.7765 -0.0624712 0)
(12.612 0.00585429 0)
(12.5005 -0.00961665 0)
(12.3306 0.0672746 0)
(12.2781 0.113387 0)
(12.1941 0.178419 0)
(12.2315 0.286049 0)
(12.2406 0.320915 0)
(12.3101 0.458384 0)
(12.4403 0.42939 0)
(12.545 0.491713 0)
(12.7315 0.41568 0)
(12.8176 0.396321 0)
(12.9618 0.279869 0)
(13.021 0.186152 0)
(13.0013 0.0821106 0)
(13.0093 -0.0581116 0)
(12.7479 -0.0491985 0)
(12.7508 -0.138348 0)
(12.3396 0.0506093 0)
(13.1058 -0.03508 0)
(13.1345 -0.10989 0)
(13.1954 -0.187902 0)
(13.1698 -0.171563 0)
(13.1524 -0.192922 0)
(13.1734 -0.145922 0)
(13.249 -0.147708 0)
(13.24 -0.0831101 0)
(13.247 -0.101277 0)
(13.2121 -0.137088 0)
(13.3185 -0.181002 0)
(13.2101 -0.218263 0)
(13.1315 -0.232383 0)
(12.8154 -0.308208 0)
(12.6738 -0.330499 0)
(12.3672 -0.394872 0)
(12.2165 -0.414681 0)
(11.9095 -0.421514 0)
(11.7122 -0.439407 0)
(11.4595 -0.401265 0)
(11.2995 -0.418079 0)
(11.0916 -0.354582 0)
(10.9292 -0.369168 0)
(10.6983 -0.326975 0)
(10.6365 -0.326406 0)
(10.4821 -0.296603 0)
(10.5874 -0.250922 0)
(10.4922 -0.232975 0)
(10.6657 -0.167109 0)
(10.6876 -0.184348 0)
(10.9207 -0.159699 0)
(11.0561 -0.182521 0)
(11.1815 -0.204785 0)
(11.2875 -0.223621 0)
(11.236 -0.309702 0)
(11.2168 -0.321835 0)
(11.0377 -0.425821 0)
(10.7789 -0.421341 0)
(10.5818 -0.500291 0)
(10.102 -0.523501 0)
)
;

boundaryField
{
    inlet
    {
        type            fixedValue;
        value           uniform (10 0 0);
    }
    outlet
    {
        type            zeroGradient;
    }
    obstacle
    {
        type            noSlip;
    }
    upperWall
    {
        type            noSlip;
    }
    lowerWall
    {
        type            noSlip;
    }
    frontAndBack
    {
        type            empty;
    }
}


// ************************************************************************* //
