/*--------------------------------*- C++ -*----------------------------------*\
  =========                 |
  \\      /  F ield         | OpenFOAM: The Open Source CFD Toolbox
   \\    /   O peration     | Website:  https://openfoam.org
    \\  /    A nd           | Version:  10
     \\/     M anipulation  |
\*---------------------------------------------------------------------------*/
FoamFile
{
    format      ascii;
    class       surfaceScalarField;
    location    "9.65";
    object      phi;
}
// * * * * * * * * * * * * * * * * * * * * * * * * * * * * * * * * * * * * * //

dimensions      [0 3 -1 0 0 0 0];

internalField   nonuniform List<scalar> 
760
(
-1.42352e-05
1.42352e-05
-4.6146e-05
3.19108e-05
-8.46997e-05
3.85536e-05
-0.000125689
4.0989e-05
-0.000167928
4.22394e-05
-0.000211209
4.32807e-05
-0.0002553
4.40916e-05
-0.00029953
4.42292e-05
-0.000342537
4.30071e-05
-0.000382039
3.95022e-05
-0.000414625
3.25859e-05
-0.000435674
2.10489e-05
-0.000439557
3.88364e-06
-0.0004202
-1.93578e-05
-0.000373106
-4.70937e-05
-0.000297941
-7.51646e-05
-0.000202062
-9.58794e-05
-0.000102718
-9.93436e-05
-2.52646e-05
-7.74539e-05
-2.52646e-05
-3.49714e-05
4.92066e-05
-9.86784e-05
9.56178e-05
-0.000173485
0.00011336
-0.000252405
0.000119909
-0.000332895
0.00012273
-0.000413859
0.000124245
-0.000494216
0.000124448
-0.000572244
0.000122257
-0.000645205
0.000115968
-0.000709037
0.000103334
-0.000758134
8.16825e-05
-0.000785188
4.81029e-05
-0.000782454
1.1496e-06
-0.000740944
-6.08673e-05
-0.000654703
-0.000133335
-0.000523864
-0.000206004
-0.000359916
-0.000259827
-0.000190172
-0.000269088
-5.49208e-05
-0.000212705
-8.01854e-05
-4.48271e-05
9.40337e-05
-0.000123936
0.000174727
-0.00021585
0.000205274
-0.000312148
0.000216207
-0.000409763
0.000220344
-0.00050732
0.000221802
-0.000603515
0.000220643
-0.000696412
0.000215154
-0.000783026
0.000202582
-0.000858963
0.000179271
-0.000918077
0.000140797
-0.000952479
8.25053e-05
-0.00095233
1.00061e-06
-0.000906206
-0.000106992
-0.000804882
-0.000234659
-0.000645422
-0.000365463
-0.000439817
-0.000465432
-0.00022503
-0.000483874
-5.9849e-05
-0.000377886
-0.000140034
-4.8685e-05
0.000142719
-0.000134516
0.000260558
-0.000233937
0.000304696
-0.000337917
0.000320187
-0.00044339
0.000325817
-0.000549194
0.000327607
-0.00065436
0.000325809
-0.000757396
0.000318189
-0.000855839
0.000301026
-0.000945787
0.000269219
-0.00102129
0.000216302
-0.00107369
0.000134902
-0.00109127
1.85791e-05
-0.00105861
-0.000139646
-0.000958535
-0.000334738
-0.000778818
-0.00054518
-0.000526096
-0.000718154
-0.000251372
-0.000758598
-5.30095e-05
-0.000576248
-0.000193044
-4.94334e-05
0.000192152
-0.000137526
0.00034865
-0.000239847
0.000407017
-0.000347194
0.000427533
-0.000456783
0.000435406
-0.000567997
0.000438821
-0.000680626
0.000438438
-0.000794165
0.000431728
-0.000907322
0.000414183
-0.00101741
0.000379307
-0.00111943
0.000318322
-0.00120475
0.000220218
-0.00125929
7.31271e-05
-0.00126274
-0.000136203
-0.00118518
-0.000412292
-0.000994331
-0.000736033
-0.000677722
-0.00103476
-0.000301692
-0.00113463
-4.27392e-05
-0.000835201
-0.000235783
-4.86099e-05
0.000240762
-0.000136675
0.000436714
-0.000239622
0.000509965
-0.000348268
0.00053618
-0.000460241
0.000547378
-0.000575683
0.000554263
-0.000695486
0.000558241
-0.00082061
0.000556852
-0.00095165
0.000545224
-0.00108815
0.00051581
-0.00122749
0.000457656
-0.00136303
0.000355756
-0.001481
0.0001911
-0.0015582
-5.90006e-05
-0.00154528
-0.000425212
-0.00137083
-0.000910482
-0.000974646
-0.00143095
-0.000434911
-0.00167436
-4.98404e-05
-0.00122027
-0.000285624
-4.68679e-05
0.00028763
-0.000133551
0.000523397
-0.000235698
0.000612112
-0.000344187
0.000644669
-0.000457082
0.000660273
-0.000575379
0.00067256
-0.000701301
0.000684163
-0.000837753
0.000693304
-0.000988036
0.000695507
-0.00115543
0.000683205
-0.00134227
0.000644497
-0.00154827
0.000561753
-0.00176646
0.00040929
-0.00197277
0.000147308
-0.00209618
-0.000301796
-0.00199068
-0.00101598
-0.00151804
-0.00190359
-0.000770005
-0.0024224
-0.000145148
-0.00184513
-0.000430772
-4.44321e-05
0.000332062
-0.000128701
0.000607666
-0.000228787
0.000712198
-0.00033554
0.000751422
-0.000447378
0.000772112
-0.000566119
0.000791301
-0.000695373
0.000813416
-0.000840246
0.000838178
-0.00100753
0.000862795
-0.00120595
0.000881619
-0.00144619
0.000884735
-0.00174072
0.000856285
-0.00209854
0.00076711
-0.00249518
0.00054395
-0.00282453
2.75495e-05
-0.00283597
-0.00100453
-0.00234101
-0.00239856
-0.00144697
-0.00331644
-0.00046357
-0.00282853
-0.000894341
-4.14395e-05
0.000373502
-0.000122415
0.000688641
-0.000219133
0.000808916
-0.000322219
0.000854508
-0.000430239
0.000880132
-0.000545636
0.000906698
-0.000673211
0.000940991
-0.000820137
0.000985104
-0.000996804
0.00103946
-0.00121836
0.00110318
-0.00150694
0.00117331
-0.00189173
0.00124107
-0.00239734
0.00127272
-0.00299079
0.0011374
-0.00349277
0.000529529
-0.00363314
-0.000864165
-0.00325141
-0.00278028
-0.00239151
-0.00417634
-0.00106344
-0.0041566
-0.00195778
-3.81588e-05
0.00041166
-0.000115233
0.000765715
-0.000207307
0.00090099
-0.000304515
0.000951716
-0.000405257
0.000980874
-0.000512222
0.00101366
-0.000630849
0.00105962
-0.000769588
0.00112384
-0.000941347
0.00121122
-0.00116618
0.00132801
-0.00147478
0.00148192
-0.00190639
0.00167268
-0.00248185
0.00184818
-0.00314067
0.00179622
-0.00368238
0.00107123
-0.00387953
-0.000667012
-0.00369651
-0.0029633
-0.00306088
-0.00481196
-0.00169975
-0.00551773
-0.00365753
-3.51178e-05
0.000446778
-0.000108245
0.000838843
-0.000194675
0.000987419
-0.000283754
0.00104079
-0.000373379
0.0010705
-0.000465941
0.00110623
-0.000566542
0.00116022
-0.000683176
0.00124048
-0.000828194
0.00135624
-0.00102067
0.00152048
-0.00128828
0.00174953
-0.00166099
0.00204539
-0.00213919
0.00232638
-0.00264522
0.00230225
-0.00304382
0.00146984
-0.0032259
-0.000484933
-0.00322391
-0.00296529
-0.00289537
-0.0051405
-0.00186727
-0.00654584
-0.0055248
-3.33762e-05
0.000480154
-0.000103575
0.000909042
-0.000183924
0.00106777
-0.000262835
0.00111971
-0.000337654
0.00114532
-0.000410006
0.00117858
-0.000483567
0.00123378
-0.000563757
0.00132067
-0.000658313
0.0014508
-0.000777795
0.00163997
-0.000934575
0.00190631
-0.0011362
0.00224701
-0.00137235
0.00256254
-0.00159836
0.00252826
-0.00178467
0.00165614
-0.00192357
-0.000346027
-0.00207437
-0.00281449
-0.0021112
-0.00510367
-0.00154598
-0.00711106
-0.00707078
-3.41114e-05
0.000514266
-0.00010371
0.000978641
-0.000178712
0.00114277
-0.000246584
0.00118758
-0.000304035
0.00120277
-0.000351828
0.00122637
-0.000391873
0.00127383
-0.000425981
0.00135477
-0.000455575
0.00148039
-0.000480359
0.00166475
-0.000496232
0.00192218
-0.000491852
0.00224263
-0.000462427
0.00253311
-0.000420864
0.00248669
-0.00043122
0.0016665
-0.000577535
-0.000199711
-0.000900737
-0.00249129
-0.00125826
-0.00474615
-0.00111409
-0.00725523
-0.00818487
-4.15801e-05
0.000555846
-0.000115651
0.00105271
-0.00018575
0.00121287
-0.000240366
0.00124219
-0.000278046
0.00124045
-0.000299382
0.00124771
-0.000304167
0.00127861
-0.000290947
0.00134155
-0.000255802
0.00144524
-0.000189842
0.00159879
-7.74145e-05
0.00180975
9.82486e-05
0.00206697
0.000339405
0.00229195
0.000584623
0.00224148
0.000701926
0.0015492
0.000529535
-2.73199e-05
7.24544e-05
-0.00203421
-0.000583638
-0.00409005
-0.000784287
-0.00705458
-0.00896916
-5.20297e-05
0.000607876
-0.00013512
0.0011358
-0.000206118
0.00128387
-0.000253818
0.00128989
-0.000274531
0.00126116
-0.000269865
0.00124304
-0.000240028
0.00124877
-0.000182432
0.00128396
-9.10116e-05
0.00135382
4.65706e-05
0.00146121
0.000244449
0.00161187
0.000524322
0.0017871
0.000885726
0.00193055
0.00125362
0.00187358
0.00145253
0.00135029
0.00128674
0.000138469
0.000724287
-0.00147175
-0.000103586
-0.00326218
-0.000514
-0.00664417
-0.00948316
-0.000119913
0.000727789
-0.000217048
0.00123294
-0.000270947
0.00133777
-0.000289756
0.0013087
-0.000281709
0.00125311
-0.000249622
0.00121095
-0.000191119
0.00119027
-0.000100713
0.00119355
2.9704e-05
0.00122341
0.000209977
0.00128093
0.000455832
0.00136602
0.000780424
0.0014625
0.00117537
0.00153561
0.00157423
0.00147471
0.00180753
0.00111699
0.00166674
0.000279259
0.00108998
-0.00089499
0.000201944
-0.00237415
-0.000308112
-0.00613411
-0.00979127
-7.71826e-05
0.000804971
-0.000241158
0.00139691
-0.000333703
0.00143031
-0.000361766
0.00133677
-0.000344026
0.00123537
-0.000291168
0.0011581
-0.000205609
0.00110471
-8.41927e-05
0.00107213
7.87185e-05
0.0010605
0.000292576
0.00106708
0.000565417
0.00109318
0.00090372
0.0011242
0.00129178
0.00114755
0.00167526
0.00109123
0.00191331
0.000878943
0.00180664
0.000385926
0.00132051
-0.000408851
0.00055888
-0.00161252
6.73937e-05
-0.00564263
-0.00972388
-0.00037413
0.0011791
-0.000417582
0.00144036
-0.0004451
0.00145783
-0.000458554
0.00135022
-0.000423352
0.00120017
-0.000346171
0.00108091
-0.000229995
0.000988536
-7.25363e-05
0.000914676
0.00012544
0.000862519
0.000369744
0.000822772
0.000659485
0.000803436
0.000996461
0.000787226
0.00136223
0.000781774
0.00170632
0.000747142
0.00195365
0.000631612
0.00196279
0.000376793
0.00180103
-0.000247095
0.00145636
-0.00126785
0.000827675
-0.00501394
-0.0088962
-0.00136298
0.00254209
-0.00132016
0.00139754
-0.00105041
0.00118808
-0.000667253
0.000967065
-0.000264678
0.000797597
0.000141655
0.000674581
0.000541327
0.000588864
0.000934713
0.00052129
0.00132356
0.000473667
0.00171363
0.000432711
0.00210999
0.000407073
0.00251477
0.000382445
0.0029342
0.000362345
0.00335087
0.000330471
0.00373329
0.00024919
0.00399557
0.000114511
0.00407239
-0.000323911
0.00393784
-0.00113331
0.002501
-0.00357709
-0.0063952
0.00254209
0.00393963
0.0051277
0.00609477
0.00689237
0.00756695
0.00815581
0.0086771
0.00915077
0.00958348
0.00999055
0.010373
0.0107353
0.0110658
0.011315
0.0114295
0.0111056
0.0099723
0.0063952
)
;

boundaryField
{
    movingWall
    {
        type            calculated;
        value           uniform 0;
    }
    fixedWalls
    {
        type            calculated;
        value           uniform 0;
    }
    frontAndBack
    {
        type            empty;
        value           nonuniform List<scalar> 0();
    }
}


// ************************************************************************* //
