/*--------------------------------*- C++ -*----------------------------------*\
  =========                 |
  \\      /  F ield         | OpenFOAM: The Open Source CFD Toolbox
   \\    /   O peration     | Website:  https://openfoam.org
    \\  /    A nd           | Version:  10
     \\/     M anipulation  |
\*---------------------------------------------------------------------------*/
FoamFile
{
    format      ascii;
    class       volVectorField;
    location    "8.05";
    object      U;
}
// * * * * * * * * * * * * * * * * * * * * * * * * * * * * * * * * * * * * * //

dimensions      [0 1 -1 0 0 0 0];

internalField   nonuniform List<vector> 
400
(
(-0.000149238 0.000133392 0)
(-0.00111727 0.000417204 0)
(-0.00275284 0.000520383 0)
(-0.00442609 0.000553133 0)
(-0.00615034 0.000568674 0)
(-0.00788639 0.000583763 0)
(-0.0096181 0.000597589 0)
(-0.0113216 0.000603207 0)
(-0.0129533 0.000591106 0)
(-0.0144459 0.000549585 0)
(-0.0157041 0.000465079 0)
(-0.0166014 0.000323698 0)
(-0.016984 0.000115052 0)
(-0.016679 -0.000171812 0)
(-0.015524 -0.000523585 0)
(-0.0134166 -0.000902643 0)
(-0.0103937 -0.00123138 0)
(-0.0067727 -0.001391 0)
(-0.00279805 -0.00122773 0)
(-0.000359736 -0.000473255 0)
(-0.000478001 0.00113705 0)
(-0.00249866 0.0023683 0)
(-0.00559292 0.00282314 0)
(-0.00875237 0.00296214 0)
(-0.0119695 0.00299449 0)
(-0.0151573 0.00298824 0)
(-0.0182645 0.00294475 0)
(-0.021233 0.00284023 0)
(-0.0239784 0.0026399 0)
(-0.0263843 0.00230144 0)
(-0.0282962 0.00177789 0)
(-0.029519 0.00102227 0)
(-0.0298329 -3.52453e-06 0)
(-0.028993 -0.00130146 0)
(-0.0267717 -0.00280956 0)
(-0.0230422 -0.00437001 0)
(-0.0178881 -0.00568431 0)
(-0.0117938 -0.00629714 0)
(-0.00516204 -0.00562854 0)
(-0.000860334 -0.00264724 0)
(-0.000622494 0.00293357 0)
(-0.00313155 0.00554014 0)
(-0.00689885 0.00649143 0)
(-0.0107166 0.00676241 0)
(-0.0145789 0.00678175 0)
(-0.0183825 0.00668957 0)
(-0.022067 0.00649425 0)
(-0.0255674 0.0061538 0)
(-0.0287921 0.0056035 0)
(-0.0316155 0.0047634 0)
(-0.0338719 0.00354484 0)
(-0.0353519 0.00186126 0)
(-0.0357956 -0.000352394 0)
(-0.0349012 -0.00310248 0)
(-0.0323749 -0.00626874 0)
(-0.0280064 -0.00953854 0)
(-0.0218267 -0.012307 0)
(-0.0143934 -0.0136095 0)
(-0.00619559 -0.0122312 0)
(-0.000963267 -0.00605006 0)
(-0.000669305 0.00485087 0)
(-0.00338301 0.00893157 0)
(-0.00745035 0.0103911 0)
(-0.0115568 0.0107817 0)
(-0.0157108 0.010777 0)
(-0.0198107 0.0105944 0)
(-0.0238051 0.0102509 0)
(-0.0276404 0.00968777 0)
(-0.0312379 0.00881116 0)
(-0.0344831 0.0075012 0)
(-0.0372134 0.00561912 0)
(-0.0392059 0.00302361 0)
(-0.0401747 -0.000399339 0)
(-0.0397355 -0.0046864 0)
(-0.0374438 -0.00971485 0)
(-0.0328989 -0.015029 0)
(-0.0259357 -0.0196636 0)
(-0.0171302 -0.0219588 0)
(-0.00706818 -0.0197691 0)
(-0.000884396 -0.00962584 0)
(-0.000673714 0.00685239 0)
(-0.00346769 0.0124929 0)
(-0.0076797 0.0144872 0)
(-0.0119347 0.0150088 0)
(-0.0162581 0.014996 0)
(-0.0205595 0.0147512 0)
(-0.0248078 0.0143034 0)
(-0.0289742 0.0135801 0)
(-0.0330078 0.012459 0)
(-0.0368221 0.0107765 0)
(-0.0402737 0.00833101 0)
(-0.0431382 0.00489585 0)
(-0.0450768 0.000257614 0)
(-0.0456128 -0.00570468 0)
(-0.0440977 -0.0129433 0)
(-0.0397827 -0.0209098 0)
(-0.0320959 -0.0282154 0)
(-0.0214219 -0.032186 0)
(-0.00835448 -0.0290657 0)
(-0.000655279 -0.0135848 0)
(-0.000662194 0.00887423 0)
(-0.00348881 0.016138 0)
(-0.00778858 0.0186965 0)
(-0.0121452 0.0193707 0)
(-0.0166002 0.0193823 0)
(-0.0210805 0.0191282 0)
(-0.0255834 0.0186566 0)
(-0.0301164 0.0178863 0)
(-0.0346722 0.01667 0)
(-0.0392136 0.0147991 0)
(-0.0436444 0.0119973 0)
(-0.0477646 0.00792186 0)
(-0.0512137 0.00219924 0)
(-0.0534314 -0.00549882 0)
(-0.0535223 -0.0153391 0)
(-0.0502383 -0.0268216 0)
(-0.0422309 -0.038179 0)
(-0.0290592 -0.0453167 0)
(-0.0108534 -0.0412764 0)
(-0.000259825 -0.0181269 0)
(-0.000643266 0.0108897 0)
(-0.00348352 0.0198302 0)
(-0.00784869 0.0229835 0)
(-0.0122849 0.0238358 0)
(-0.0168493 0.0239111 0)
(-0.0214889 0.0237137 0)
(-0.0262363 0.0233207 0)
(-0.0311465 0.0226532 0)
(-0.0362744 0.0215486 0)
(-0.0416605 0.0197593 0)
(-0.0472996 0.0169303 0)
(-0.0530799 0.0125773 0)
(-0.0587003 0.00608527 0)
(-0.063631 -0.00322075 0)
(-0.0667946 -0.015822 0)
(-0.0663392 -0.0317793 0)
(-0.0595366 -0.0493864 0)
(-0.0434756 -0.0629422 0)
(-0.0167348 -0.0586897 0)
(5.42514e-05 -0.0240981 0)
(-0.0006184 0.0128868 0)
(-0.00346114 0.0235552 0)
(-0.00787671 0.0273316 0)
(-0.0123682 0.0283825 0)
(-0.0170071 0.0285567 0)
(-0.0217607 0.0284809 0)
(-0.0267011 0.0282758 0)
(-0.0319409 0.0278822 0)
(-0.0376162 0.0271437 0)
(-0.0438803 0.0257969 0)
(-0.0508825 0.0234297 0)
(-0.0587166 0.0194261 0)
(-0.0673263 0.0129172 0)
(-0.0763413 0.00279281 0)
(-0.0849671 -0.012165 0)
(-0.0908868 -0.0332514 0)
(-0.0886002 -0.0605115 0)
(-0.0695206 -0.0870605 0)
(-0.0306717 -0.0856694 0)
(-0.000963886 -0.0340724 0)
(-0.000588537 0.0148559 0)
(-0.00342636 0.0273017 0)
(-0.00787753 0.0317201 0)
(-0.0123893 0.0329755 0)
(-0.0170453 0.0332672 0)
(-0.0218308 0.0333625 0)
(-0.0268564 0.0334438 0)
(-0.0322953 0.0334949 0)
(-0.0383771 0.0333999 0)
(-0.0453997 0.0329293 0)
(-0.0537326 0.0316814 0)
(-0.0638046 0.0289979 0)
(-0.0760752 0.0238713 0)
(-0.0909848 0.0148098 0)
(-0.108461 -0.000677843 0)
(-0.125434 -0.0269371 0)
(-0.130993 -0.0692901 0)
(-0.10792 -0.119729 0)
(-0.0582573 -0.128469 0)
(-0.00678634 -0.0541515 0)
(-0.000557608 0.0167912 0)
(-0.00339207 0.0310612 0)
(-0.00786759 0.0361228 0)
(-0.0123544 0.0375622 0)
(-0.0169467 0.0379589 0)
(-0.0216416 0.0382414 0)
(-0.0265815 0.0386735 0)
(-0.0319929 0.0393099 0)
(-0.0381936 0.0401201 0)
(-0.0456308 0.0409828 0)
(-0.054937 0.0416319 0)
(-0.0670051 0.0415776 0)
(-0.0831074 0.0399975 0)
(-0.104977 0.0352441 0)
(-0.13352 0.0225692 0)
(-0.163078 -0.00952184 0)
(-0.17431 -0.0759425 0)
(-0.147574 -0.161523 0)
(-0.09907 -0.187906 0)
(-0.0224114 -0.0948694 0)
(-0.000535238 0.0187002 0)
(-0.00338832 0.0348358 0)
(-0.00789016 0.0405091 0)
(-0.0123023 0.0420708 0)
(-0.0167314 0.0425132 0)
(-0.0211774 0.0429449 0)
(-0.0257996 0.0437267 0)
(-0.030856 0.0450097 0)
(-0.036719 0.0468956 0)
(-0.0439426 0.0494596 0)
(-0.0533688 0.0527399 0)
(-0.0662822 0.0567114 0)
(-0.0846482 0.0610681 0)
(-0.111294 0.0637114 0)
(-0.146905 0.0551448 0)
(-0.181762 0.0134158 0)
(-0.19194 -0.0831244 0)
(-0.168363 -0.203671 0)
(-0.134433 -0.255317 0)
(-0.0427978 -0.172051 0)
(-0.000541909 0.0206214 0)
(-0.00347638 0.0386692 0)
(-0.00803341 0.0448889 0)
(-0.0123222 0.0464606 0)
(-0.016478 0.0468238 0)
(-0.0204944 0.0472876 0)
(-0.0245299 0.04832 0)
(-0.0288353 0.0501798 0)
(-0.0337714 0.0531338 0)
(-0.0398855 0.0575258 0)
(-0.0480349 0.0638357 0)
(-0.0595374 0.0726724 0)
(-0.0762184 0.0841017 0)
(-0.100462 0.0942288 0)
(-0.131524 0.0873589 0)
(-0.159382 0.0338621 0)
(-0.165609 -0.0846763 0)
(-0.151508 -0.230063 0)
(-0.136496 -0.320665 0)
(-0.0496694 -0.28141 0)
(-0.000608319 0.0226067 0)
(-0.00373761 0.0425332 0)
(-0.00842243 0.0490998 0)
(-0.0125649 0.0504784 0)
(-0.0163498 0.0505946 0)
(-0.0197541 0.0509288 0)
(-0.0229249 0.0520201 0)
(-0.0260624 0.0542192 0)
(-0.0294225 0.0579323 0)
(-0.0333798 0.0637325 0)
(-0.0384989 0.0724583 0)
(-0.0455469 0.0850861 0)
(-0.0553461 0.101577 0)
(-0.0688249 0.115771 0)
(-0.0852781 0.108386 0)
(-0.0984646 0.0472398 0)
(-0.102045 -0.0788756 0)
(-0.0983404 -0.235237 0)
(-0.107351 -0.361384 0)
(-0.0400422 -0.374154 0)
(-0.000834865 0.0249673 0)
(-0.00444018 0.047026 0)
(-0.00935308 0.0538719 0)
(-0.0132457 0.0548587 0)
(-0.0165081 0.0543776 0)
(-0.0191434 0.0541683 0)
(-0.0212547 0.0548668 0)
(-0.0229432 0.0568864 0)
(-0.024308 0.0606964 0)
(-0.025447 0.0669527 0)
(-0.0264835 0.0765967 0)
(-0.027322 0.0904941 0)
(-0.0278053 0.108417 0)
(-0.027422 0.122976 0)
(-0.0273923 0.115501 0)
(-0.0253322 0.0531268 0)
(-0.0292648 -0.0688994 0)
(-0.0354586 -0.219279 0)
(-0.0721877 -0.36852 0)
(-0.0251386 -0.43385 0)
(-0.00118439 0.0278608 0)
(-0.00529028 0.0508054 0)
(-0.0107447 0.0569447 0)
(-0.0146246 0.0568534 0)
(-0.0175176 0.0556989 0)
(-0.0193267 0.0550744 0)
(-0.0202187 0.0554547 0)
(-0.0202572 0.0571316 0)
(-0.0194055 0.0605126 0)
(-0.0174856 0.066181 0)
(-0.0142856 0.0749644 0)
(-0.00887229 0.0872655 0)
(-0.000819003 0.102828 0)
(0.0119411 0.114902 0)
(0.0246342 0.107711 0)
(0.0378094 0.0515306 0)
(0.0300527 -0.0575608 0)
(0.0161041 -0.188717 0)
(-0.0458712 -0.355841 0)
(-0.011214 -0.474009 0)
(-0.00326428 0.0303215 0)
(-0.00972644 0.0582873 0)
(-0.0145181 0.0643351 0)
(-0.0173647 0.06365 0)
(-0.018922 0.0608136 0)
(-0.0195479 0.058438 0)
(-0.0192505 0.0571217 0)
(-0.0178929 0.0571653 0)
(-0.0152139 0.058871 0)
(-0.010756 0.0626156 0)
(-0.00421603 0.0689502 0)
(0.0058523 0.0779974 0)
(0.0197186 0.0891382 0)
(0.0393632 0.0972312 0)
(0.0581668 0.0908559 0)
(0.0774694 0.0473724 0)
(0.0682727 -0.0408109 0)
(0.0529106 -0.148428 0)
(-0.0257706 -0.332256 0)
(0.00292973 -0.496406 0)
(-0.00099557 0.043887 0)
(-0.0079183 0.0600235 0)
(-0.0177267 0.0619409 0)
(-0.0206732 0.0578841 0)
(-0.0226706 0.054783 0)
(-0.0225848 0.0527312 0)
(-0.0211429 0.0516278 0)
(-0.018241 0.0513801 0)
(-0.0136866 0.0521415 0)
(-0.00697296 0.0540879 0)
(0.00229334 0.0576556 0)
(0.0154893 0.0629292 0)
(0.0322743 0.0691284 0)
(0.0552712 0.0728329 0)
(0.07544 0.0671684 0)
(0.0985183 0.0375592 0)
(0.0871207 -0.0258915 0)
(0.0728224 -0.107864 0)
(-0.0067381 -0.306099 0)
(0.0223897 -0.504803 0)
(-0.0125474 0.0323037 0)
(-0.0234893 0.080202 0)
(-0.0218457 0.0799788 0)
(-0.0266747 0.0749556 0)
(-0.0271173 0.067572 0)
(-0.0257543 0.0614663 0)
(-0.022334 0.056566 0)
(-0.0170636 0.0527979 0)
(-0.00998887 0.0501718 0)
(-0.000703944 0.0485126 0)
(0.0107775 0.0481064 0)
(0.0256325 0.0487131 0)
(0.0426428 0.0506414 0)
(0.0652724 0.0512009 0)
(0.0821133 0.0486712 0)
(0.106432 0.0334116 0)
(0.0972261 -0.00448643 0)
(0.105206 -0.0676591 0)
(0.0410855 -0.276147 0)
(0.0585935 -0.491899 0)
(-0.0776038 0.0960236 0)
(-0.0632622 0.0588541 0)
(-0.0654661 0.0599234 0)
(-0.043247 0.0532751 0)
(-0.0257126 0.0463221 0)
(-0.00532906 0.041164 0)
(0.0139094 0.037406 0)
(0.0334953 0.0342093 0)
(0.051656 0.031897 0)
(0.0713565 0.0297763 0)
(0.0885559 0.0286021 0)
(0.110484 0.0276196 0)
(0.126135 0.0271556 0)
(0.155573 0.0265806 0)
(0.16593 0.0217097 0)
(0.203614 0.0131031 0)
(0.193939 -0.0206215 0)
(0.225276 -0.0752649 0)
(0.155244 -0.25255 0)
(0.125453 -0.434257 0)
(0.119435 0.140797 0)
(0.152111 0.0861353 0)
(0.228584 0.0635453 0)
(0.284037 0.0480779 0)
(0.325426 0.0374293 0)
(0.363707 0.0296477 0)
(0.392373 0.0242141 0)
(0.423594 0.0201811 0)
(0.44346 0.0172398 0)
(0.472045 0.0149862 0)
(0.484785 0.0132595 0)
(0.51427 0.0119815 0)
(0.519667 0.0108897 0)
(0.552368 0.00979081 0)
(0.547554 0.00785778 0)
(0.580425 0.00349049 0)
(0.549623 -0.00583679 0)
(0.555252 -0.0273225 0)
(0.421045 -0.0734276 0)
(0.275457 -0.152238 0)
)
;

boundaryField
{
    movingWall
    {
        type            fixedValue;
        value           uniform (1 0 0);
    }
    fixedWalls
    {
        type            noSlip;
    }
    frontAndBack
    {
        type            empty;
    }
}


// ************************************************************************* //
