/*--------------------------------*- C++ -*----------------------------------*\
  =========                 |
  \\      /  F ield         | OpenFOAM: The Open Source CFD Toolbox
   \\    /   O peration     | Website:  https://openfoam.org
    \\  /    A nd           | Version:  10
     \\/     M anipulation  |
\*---------------------------------------------------------------------------*/
FoamFile
{
    format      ascii;
    class       volScalarField;
    location    "9.25";
    object      p;
}
// * * * * * * * * * * * * * * * * * * * * * * * * * * * * * * * * * * * * * //

dimensions      [0 2 -2 0 0 0 0];

internalField   nonuniform List<scalar> 
475
(
-0.038142
-0.063546
-0.0928166
-0.116337
-0.138869
-0.0639594
-0.0772844
-0.0935619
-0.112625
-0.129616
-0.0621037
-0.0714909
-0.0864292
-0.103921
-0.120318
-0.061505
-0.0723027
-0.0871606
-0.102669
-0.116285
-0.0316772
-0.0585831
-0.0822578
-0.0999597
-0.112826
-0.157113
-0.16821
-0.172551
-0.173949
-0.17491
-0.176232
-0.177934
-0.179384
-0.179642
-0.177927
-0.173717
-0.166816
-0.157311
-0.145815
-0.133162
-0.120005
-0.106682
-0.0936467
-0.0825112
-0.0751298
-0.0721811
-0.0726043
-0.0745651
-0.0764627
-0.0777775
-0.0784973
-0.0786756
-0.0778858
-0.0758395
-0.0722001
-0.0671878
-0.0610442
-0.0540303
-0.0466929
-0.0392747
-0.0323369
-0.0259788
-0.0203292
-0.0155878
-0.0115469
-0.00842947
-0.00580026
-0.00369845
-0.00204264
-0.0006158
-0.146293
-0.157931
-0.163779
-0.165312
-0.164971
-0.16404
-0.162758
-0.160987
-0.158481
-0.155074
-0.1507
-0.145451
-0.13936
-0.132537
-0.125046
-0.116721
-0.107233
-0.0972298
-0.0889346
-0.0839075
-0.0826225
-0.0841751
-0.0871089
-0.0895654
-0.090868
-0.0911209
-0.0906498
-0.0890464
-0.0857113
-0.0808917
-0.074715
-0.0671563
-0.0586452
-0.0496913
-0.0406185
-0.0321481
-0.0242926
-0.0175812
-0.012054
-0.00773471
-0.00470253
-0.00238893
-0.000974408
-0.000144214
0.000248935
-0.133772
-0.143365
-0.14904
-0.151252
-0.151028
-0.149156
-0.146207
-0.142483
-0.138263
-0.133851
-0.129744
-0.126772
-0.125447
-0.125627
-0.124212
-0.118197
-0.107496
-0.0986247
-0.0940687
-0.0917913
-0.090222
-0.0901055
-0.090848
-0.0918466
-0.0925843
-0.0927718
-0.0921708
-0.090271
-0.087227
-0.0824273
-0.0760235
-0.06813
-0.0592886
-0.0498181
-0.0402795
-0.0312078
-0.0228321
-0.0157672
-0.00993136
-0.00561162
-0.00255072
-0.000541813
0.000492552
0.000847558
0.000654145
-0.127198
-0.135123
-0.140094
-0.142121
-0.14155
-0.138745
-0.134325
-0.128658
-0.122372
-0.116138
-0.111326
-0.109642
-0.112789
-0.122336
-0.130274
-0.125092
-0.107112
-0.090884
-0.0846777
-0.0872681
-0.0918901
-0.0949053
-0.096122
-0.0959927
-0.0952128
-0.0940115
-0.0923756
-0.0898584
-0.0861698
-0.081005
-0.0744701
-0.0666214
-0.0578821
-0.0485206
-0.0391444
-0.0300577
-0.0218593
-0.0148571
-0.00910908
-0.0048169
-0.00170051
0.000190531
0.00119724
0.00133636
0.000890129
-0.122568
-0.129831
-0.134539
-0.136492
-0.135668
-0.132366
-0.127122
-0.12055
-0.113419
-0.106562
-0.101637
-0.100063
-0.104971
-0.117075
-0.127345
-0.127229
-0.117196
-0.104561
-0.0952178
-0.0913959
-0.0914468
-0.092512
-0.0933511
-0.0936865
-0.0934579
-0.092601
-0.0909734
-0.0883259
-0.0844273
-0.0792083
-0.0726563
-0.0648861
-0.0562549
-0.0470992
-0.0379946
-0.0289287
-0.0210303
-0.014177
-0.00858055
-0.0043073
-0.0012708
0.00060096
0.00155917
0.00157802
0.00108953
-0.181904
-0.182299
-0.182695
-0.183392
-0.184308
-0.185852
-0.188206
-0.191065
-0.193448
-0.19396
-0.191023
-0.183562
-0.171203
-0.154115
-0.133027
-0.109361
-0.0849444
-0.0616436
-0.0409727
-0.0238747
-0.010991
-0.00244507
0.0020591
0.00320513
0.00182418
-0.00121262
-0.00514649
-0.00942874
-0.0137001
-0.0177287
-0.0214515
-0.0247473
-0.0275226
-0.0297035
-0.0312021
-0.0319562
-0.0319667
-0.0310789
-0.0291926
-0.0262465
-0.0223771
-0.0178379
-0.0129362
-0.00783358
-0.00255037
-0.176716
-0.17866
-0.179408
-0.180902
-0.182897
-0.18564
-0.189133
-0.192968
-0.196244
-0.197559
-0.19533
-0.188589
-0.176823
-0.159949
-0.138791
-0.11478
-0.0898585
-0.0661934
-0.0451954
-0.0279017
-0.0147597
-0.00592007
-0.00112688
0.000323168
-0.000715331
-0.00342918
-0.00706459
-0.0110944
-0.0151628
-0.0190074
-0.0224519
-0.02536
-0.027721
-0.0296108
-0.0309752
-0.0317257
-0.0317533
-0.0309752
-0.0292321
-0.0263844
-0.0225754
-0.0180291
-0.0131311
-0.00803489
-0.00268439
-0.185629
-0.184433
-0.183873
-0.183753
-0.184868
-0.187428
-0.191228
-0.19554
-0.199277
-0.201062
-0.198966
-0.192201
-0.180478
-0.163784
-0.142987
-0.11955
-0.0954294
-0.072582
-0.0524458
-0.035907
-0.0234357
-0.0151877
-0.0108526
-0.00966726
-0.0107107
-0.0131609
-0.0163608
-0.0197484
-0.0229616
-0.025934
-0.0282434
-0.029783
-0.0307649
-0.0314534
-0.031847
-0.0317779
-0.0312139
-0.0299711
-0.0280416
-0.025164
-0.0214452
-0.0171855
-0.0125065
-0.00770732
-0.00273416
-0.173189
-0.175978
-0.177405
-0.179222
-0.181518
-0.184735
-0.188879
-0.193373
-0.197095
-0.198785
-0.196905
-0.190478
-0.179258
-0.163521
-0.144206
-0.122769
-0.100957
-0.0804899
-0.0626891
-0.0484207
-0.0381451
-0.0317921
-0.0288192
-0.0284013
-0.029631
-0.0317084
-0.0340805
-0.0362308
-0.0378022
-0.03888
-0.0390919
-0.0383747
-0.0370233
-0.0354336
-0.0337195
-0.0317309
-0.0296609
-0.0273606
-0.0248586
-0.0218439
-0.0183488
-0.0146102
-0.0105985
-0.0065114
-0.00236912
-0.209313
-0.190064
-0.186524
-0.183999
-0.183528
-0.185246
-0.188131
-0.191267
-0.193484
-0.193603
-0.190553
-0.183682
-0.172809
-0.158435
-0.141567
-0.123419
-0.105235
-0.0883043
-0.0739632
-0.0633199
-0.0567993
-0.0537378
-0.0530406
-0.053728
-0.0551176
-0.0566887
-0.0580505
-0.0587535
-0.0584163
-0.0567379
-0.0539128
-0.0502103
-0.0458442
-0.0412029
-0.0365426
-0.0319918
-0.0277724
-0.0238506
-0.0203169
-0.0169036
-0.0136085
-0.0104421
-0.00731966
-0.00431521
-0.00152538
)
;

boundaryField
{
    inlet
    {
        type            zeroGradient;
    }
    outlet
    {
        type            fixedValue;
        value           uniform 0;
    }
    upperWall
    {
        type            zeroGradient;
    }
    lowerWall
    {
        type            zeroGradient;
    }
    frontAndBack
    {
        type            empty;
    }
}


// ************************************************************************* //
