/*--------------------------------*- C++ -*----------------------------------*\
  =========                 |
  \\      /  F ield         | OpenFOAM: The Open Source CFD Toolbox
   \\    /   O peration     | Website:  https://openfoam.org
    \\  /    A nd           | Version:  10
     \\/     M anipulation  |
\*---------------------------------------------------------------------------*/
FoamFile
{
    format      ascii;
    class       surfaceScalarField;
    location    "9.25";
    object      phi;
}
// * * * * * * * * * * * * * * * * * * * * * * * * * * * * * * * * * * * * * //

dimensions      [0 3 -1 0 0 0 0];

internalField   nonuniform List<scalar> 
890
(
0.00984627
0.000153725
0.00971689
0.000129389
0.00946747
0.000249414
0.00941413
5.33414e-05
0.000150278
0.00926385
0.0101195
3.42404e-05
0.0102017
4.71604e-05
0.0104071
4.40672e-05
0.0104662
-5.80798e-06
-6.58357e-05
0.0106823
0.0100717
-3.7445e-05
0.0102152
-9.63447e-05
0.0103785
-0.000119196
0.0105217
-0.000149018
-0.00018854
0.0106444
0.0100899
-0.000127313
0.0102139
-0.000220368
0.0103311
-0.000236421
0.0104191
-0.000237013
-0.000251141
0.0104817
0.00987269
0.00965232
0.0094159
0.00917888
0.00892774
0.0092687
-9.71193e-05
9.22721e-05
0.00929243
-0.000258558
0.000234827
0.00936281
-0.000382687
0.000312304
0.00946399
-0.000487922
0.000386744
0.0095898
-0.000594491
0.00046868
0.00974144
-0.000720597
0.000568961
0.00991132
-0.000864551
0.000694663
0.0100904
-0.00102508
0.000845962
0.0102727
-0.00121583
0.00103362
0.0104428
-0.00141714
0.00124701
0.0105908
-0.00163417
0.00148621
0.0107021
-0.00183599
0.00172466
0.0107718
-0.00202139
0.00195171
0.0107862
-0.00215539
0.00214099
0.0107369
-0.00222825
0.00227751
0.0106067
-0.00221619
0.00234644
0.0103975
-0.00213666
0.00234585
0.010153
-0.00205161
0.00229608
0.00989345
-0.00194721
0.00220675
0.00961939
-0.00179012
0.00206418
0.00933538
-0.00159477
0.00187877
0.00905258
-0.00137552
0.00165833
0.00877789
-0.00113557
0.00141026
0.00853306
-0.000901682
0.00114651
0.00833076
-0.000678472
0.000880772
0.00817442
-0.000462443
0.000618782
0.00806425
-0.000256336
0.0003665
0.00799626
-5.63412e-05
0.00012434
0.00796847
0.000130861
-0.000103079
0.00797674
0.000312867
-0.000321134
0.00800991
0.00046762
-0.000500786
0.00805693
0.000611477
-0.000658505
0.00811325
0.000710267
-0.000766586
0.00816666
0.000796713
-0.000850118
0.00821667
0.000830003
-0.000880012
0.00824721
0.000845898
-0.000876444
0.00826739
0.000819972
-0.000840148
0.00826519
0.000771463
-0.000769265
0.00825113
0.000707446
-0.000693381
0.00821844
0.000622255
-0.000589565
0.00817356
0.000545883
-0.000501009
0.00812006
0.000470034
-0.000416533
0.00805334
0.000400531
-0.000333813
0.00798092
0.000367126
-0.000294702
0.000323713
-0.000244786
0.0107494
-0.000164196
0.0107739
-0.000283063
0.010795
-0.000403815
0.0108197
-0.000512634
0.0108467
-0.000621413
0.0108592
-0.000733178
0.01086
-0.000865304
0.0108453
-0.0010104
0.0108114
-0.00118186
0.0107522
-0.00135804
0.0106604
-0.00154228
0.0105254
-0.00170108
0.0103475
-0.00184347
0.0101126
-0.00192043
0.00981136
-0.00192704
0.0094218
-0.00182663
0.00898174
-0.00169661
0.00851503
-0.0015849
0.00803809
-0.00147027
0.00756679
-0.00131881
0.00711261
-0.00114059
0.0066872
-0.000950117
0.00629616
-0.000744529
0.00595678
-0.0005623
0.00568372
-0.000405418
0.00548597
-0.00026469
0.00536215
-0.000132515
0.00530114
4.67072e-06
0.00530637
0.000125625
0.00536591
0.000253326
0.00546686
0.000366678
0.00560102
0.000477314
0.00575235
0.000558935
0.00591347
0.00063559
0.00607342
0.000670056
0.00621968
0.000699644
0.00635541
0.000684236
0.00646196
0.000664918
0.00655562
0.000613785
0.00661485
0.000563027
0.00665666
0.000504066
0.00667509
0.000451612
0.00667166
0.000403961
0.00666267
0.000376114
0.000336527
0.0107297
-0.000249483
0.0107763
-0.000329679
0.010791
-0.000418564
0.0107852
-0.000506771
0.0107566
-0.000592867
0.0107057
-0.000682312
0.0106269
-0.000786461
0.0105203
-0.000903767
0.0103766
-0.0010382
0.0101994
-0.00118086
0.00999133
-0.00133418
0.00975419
-0.00146393
0.00947513
-0.00156441
0.00908941
-0.00153471
0.00856934
-0.00140698
0.00796645
-0.00122374
0.00736912
-0.00109928
0.00671875
-0.000934518
0.00600392
-0.000755442
0.00529645
-0.000611342
0.00464356
-0.0004877
0.00404761
-0.000354163
0.00354842
-0.000245339
0.0031492
-0.000163082
0.00284855
-0.000104771
0.0026434
-5.95352e-05
0.00252665
-1.57652e-05
0.00249305
3.8264e-05
0.00251846
0.000100218
0.00260234
0.000169448
0.00273187
0.000237144
0.00290226
0.000306929
0.00309688
0.000364312
0.00331412
0.000418355
0.00353531
0.000448863
0.00375896
0.000475991
0.0039718
0.000471398
0.00417015
0.00046657
0.00435114
0.000432796
0.00450616
0.000408007
0.0046467
0.000363519
0.00476498
0.000333339
0.00487355
0.00029539
0.00497607
0.000273587
0.000243474
0.0105113
-0.000279078
0.0105005
-0.00031889
0.0104418
-0.000359794
0.0103403
-0.000405298
0.0101932
-0.000445748
0.0100061
-0.000495214
0.00976267
-0.000543071
0.00946728
-0.000608371
0.00910165
-0.000672579
0.00867594
-0.000755149
0.00817627
-0.000834512
0.00762807
-0.000915731
0.00706258
-0.00099892
0.00639155
-0.000863693
0.00553479
-0.00055021
0.00454926
-0.000238209
0.0034449
5.07642e-06
0.00238116
0.000129226
0.0015002
0.000125513
0.000885417
3.44249e-06
0.000508284
-0.000110566
0.000307327
-0.000153206
0.0001982
-0.000136212
0.000139352
-0.000104235
0.000110876
-7.62955e-05
0.000105197
-5.38564e-05
0.000122485
-3.30527e-05
0.000168712
-7.96364e-06
0.000250598
1.83318e-05
0.000370511
4.95355e-05
0.000525571
8.2084e-05
0.00071621
0.00011629
0.000934877
0.000145646
0.00118036
0.000172874
0.0014392
0.000190018
0.00171307
0.000202128
0.00198108
0.000203382
0.00224658
0.000201071
0.00249228
0.0001871
0.0027263
0.00017398
0.0029367
0.00015312
0.00313231
0.000137733
0.0033095
0.000118198
0.00347453
0.000108556
9.4935e-05
0.00864866
0.00832977
0.00796998
0.00756468
0.00711893
0.00662372
0.00608065
0.00547228
0.0047997
0.00404455
0.00321004
0.00229431
0.00129539
0.000431694
-0.000118517
-0.000356726
-0.000351649
-0.000222424
-9.69101e-05
-9.34676e-05
-0.000204034
-0.00035724
-0.000493452
-0.000597686
-0.000673982
-0.000727838
-0.000760891
-0.000768855
-0.000750523
-0.000700987
-0.000618903
-0.000502614
-0.000356968
-0.000184094
5.92346e-06
0.000208051
0.000411433
0.000612504
0.000799604
0.000973584
0.0011267
0.00126444
0.00138263
0.00149119
2.22301e-05
-2.22301e-05
-2.19726e-05
4.42027e-05
-0.000137648
0.000115675
-0.000361923
0.000224275
-0.000696892
0.000334969
-0.0010932
0.000396304
-0.00150888
0.000415683
-0.00190507
0.000396194
-0.00224879
0.000343715
-0.00251322
0.000264436
-0.00267789
0.000164662
-0.00272683
4.89404e-05
-0.00265828
-6.85463e-05
-0.00247539
-0.000182891
-0.00218437
-0.000291021
-0.00180153
-0.000382841
-0.00134905
-0.000452482
-0.000851672
-0.000497373
-0.000332529
-0.000519142
0.000191382
-0.000523911
0.000698357
-0.000506975
0.00116807
-0.000469713
0.00158251
-0.000414438
0.001928
-0.000345496
0.00219488
-0.00026688
0.00237878
-0.000183892
0.00247746
-9.86836e-05
0.00249318
-1.57235e-05
0.00243846
5.47186e-05
0.0023214
0.000117065
0.00215748
0.000163917
0.00196623
0.00019125
0.00176476
0.000201468
0.00156752
0.000197246
0.00138487
0.000182647
0.00122323
0.000161635
0.00108751
0.000135725
0.000984099
0.00010341
0.000913514
7.05846e-05
0.000876384
3.71302e-05
0.000865455
1.09287e-05
0.000874408
-8.95261e-06
0.000894153
-1.9745e-05
0.000922985
-2.88318e-05
-2.95874e-05
-8.31722e-05
6.09421e-05
-0.000377946
0.000338977
-0.000735429
0.000473158
-0.00107551
0.000564359
-0.00136378
0.000623234
-0.00159593
0.000628451
-0.00177043
0.000590182
-0.00188365
0.000509416
-0.0019277
0.000387767
-0.00189165
0.000228386
-0.0017624
3.54158e-05
-0.00154695
-0.000166511
-0.00123581
-0.000379687
-0.00083107
-0.000587631
-0.000344138
-0.000777953
0.000207277
-0.000934256
0.000801159
-0.00104636
0.00141989
-0.0011161
0.00204601
-0.00114527
0.00265759
-0.00113549
0.00323857
-0.00108796
0.00377361
-0.00100475
0.00424874
-0.000889565
0.0046542
-0.000750953
0.00498243
-0.000595119
0.00523125
-0.000432704
0.00540043
-0.000267868
0.00549335
-0.000108643
0.0055102
3.7872e-05
0.00545907
0.000168189
0.00534483
0.000278162
0.0051783
0.000357776
0.00497173
0.000408044
0.00474135
0.00042762
0.00450278
0.000421222
0.00427205
0.000392367
0.00405868
0.000349095
0.00386863
0.000293457
0.00371121
0.000228001
0.00358984
0.000158506
0.00350406
9.67029e-05
0.00345029
4.48229e-05
0.00341697
1.35679e-05
0.0034068
-1.86539e-05
-3.1317e-05
-0.000521205
0.000582147
-0.000724004
0.000541777
-0.000799942
0.000549096
-0.000788368
0.000552785
-0.000702599
0.000537464
-0.000563874
0.000489726
-0.000378594
0.000404903
-0.000150051
0.000280873
0.000124598
0.000113118
0.000453977
-0.000100993
0.000839994
-0.000350601
0.00128559
-0.000612104
0.00178015
-0.000874246
0.00231842
-0.00112591
0.00288773
-0.00134726
0.00347484
-0.00152137
0.00406575
-0.00163728
0.00464541
-0.00169576
0.00520033
-0.00170019
0.00572181
-0.00165697
0.00620035
-0.00156649
0.00662628
-0.00143068
0.00699229
-0.00125558
0.00729439
-0.00105306
0.00753172
-0.000832443
0.00770587
-0.00060686
0.00781947
-0.000381461
0.00787661
-0.000165786
0.00787778
3.67069e-05
0.00782291
0.000223057
0.00772189
0.00037918
0.00757964
0.000500026
0.00740482
0.000582868
0.00720345
0.000628989
0.00698844
0.000636233
0.00676825
0.000612556
0.00655569
0.000561655
0.00635638
0.000492769
0.00617304
0.000411335
0.00601404
0.00031751
0.00587398
0.000236761
0.00576223
0.000156574
0.00567308
0.000102714
0.00559695
5.74761e-05
2.2112e-05
-0.000269139
0.000851286
-0.000214749
0.000487387
-2.62208e-05
0.000360568
0.000269943
0.000256621
0.000651221
0.000156186
0.00109607
4.4878e-05
0.00158246
-8.14873e-05
0.00209759
-0.000234261
0.00263933
-0.000428618
0.00319902
-0.000660689
0.00377238
-0.000923952
0.00435534
-0.00119507
0.00494363
-0.00146254
0.00552478
-0.00170705
0.00608562
-0.0019081
0.00661603
-0.00205178
0.00710658
-0.00212782
0.00755037
-0.00213955
0.00794687
-0.00209669
0.0082945
-0.0020046
0.00859134
-0.00186334
0.00883708
-0.00167642
0.0090332
-0.00145169
0.0091816
-0.00120146
0.00928796
-0.000938799
0.00935666
-0.000675557
0.00939178
-0.000416579
0.00939734
-0.00017135
0.00937408
5.99724e-05
0.00931524
0.00028189
0.00923232
0.000462103
0.0091218
0.000610541
0.00899103
0.000713641
0.00883638
0.000783644
0.00866936
0.000803247
0.0084945
0.000787416
0.00831516
0.000740996
0.0081432
0.000664725
0.00797208
0.000582455
0.00781463
0.000474968
0.00766557
0.000385816
0.00752663
0.000295514
0.00741045
0.000218894
0.00729127
0.000176656
0.00012835
0.000943558
0.00166577
0.00233864
0.00298201
0.00360688
0.00422071
0.00483389
0.00544559
0.00605059
0.00663692
0.00719917
0.00772876
0.00821793
0.00865188
0.00902128
0.00931595
0.00953398
0.00969051
0.00980057
0.00986015
0.00987558
0.00985749
0.00981606
0.0097611
0.00970308
0.0096463
0.00959622
0.00954921
0.00950611
0.00946686
0.00942818
0.00938022
0.00932727
0.0092608
0.00918403
0.009095
0.00899585
0.00889131
0.00878038
0.00866579
0.0085506
0.00842958
0.00831466
0.00819661
)
;

boundaryField
{
    inlet
    {
        type            calculated;
        value           nonuniform List<scalar> 5(-0.01 -0.01 -0.01 -0.01 -0.01);
    }
    outlet
    {
        type            calculated;
        value           nonuniform List<scalar> 10(0.00790199 0.00664985 0.00506913 0.00362307 0.00158613 0.000952572 0.00340853 0.00554352 0.00718503 0.00808017);
    }
    upperWall
    {
        type            calculated;
        value           uniform 0;
    }
    lowerWall
    {
        type            calculated;
        value           uniform 0;
    }
    frontAndBack
    {
        type            empty;
        value           nonuniform List<scalar> 0();
    }
}


// ************************************************************************* //
