/*--------------------------------*- C++ -*----------------------------------*\
  =========                 |
  \\      /  F ield         | OpenFOAM: The Open Source CFD Toolbox
   \\    /   O peration     | Website:  https://openfoam.org
    \\  /    A nd           | Version:  10
     \\/     M anipulation  |
\*---------------------------------------------------------------------------*/
FoamFile
{
    format      ascii;
    class       volScalarField;
    location    "3.2";
    object      p;
}
// * * * * * * * * * * * * * * * * * * * * * * * * * * * * * * * * * * * * * //

dimensions      [0 2 -2 0 0 0 0];

internalField   nonuniform List<scalar> 
400
(
-2.61316e-09
-3.16958e-05
-9.78245e-06
3.85916e-05
0.000118677
0.000230752
0.000374401
0.000548773
0.000752105
0.000981397
0.00123213
0.00149802
0.00177083
0.00204041
0.00229494
0.00252147
0.00270652
0.0028377
0.00291384
0.00289265
3.13473e-05
-1.67291e-06
2.04574e-05
6.61866e-05
0.000142021
0.000248782
0.000386418
0.000554426
0.00075138
0.000974618
0.00121992
0.00148112
0.00175052
0.00201799
0.00227165
0.00249839
0.00268437
0.00281708
0.0028963
0.00287374
6.19078e-06
-3.12492e-05
-1.06155e-05
3.29233e-05
0.000106558
0.000211348
0.000347597
0.000515235
0.000713292
0.000939536
0.00119015
0.00145973
0.00174004
0.00202076
0.00228942
0.00253174
0.00273221
0.00287624
0.00296302
0.0029369
-4.99274e-05
-9.15005e-05
-7.28235e-05
-3.19992e-05
3.90294e-05
0.000141736
0.000276995
0.000445406
0.000646716
0.000879409
0.0011403
0.00142429
0.00172379
0.00202796
0.00232306
0.00259287
0.00281913
0.00298371
0.00308438
0.0030565
-0.00014259
-0.000188954
-0.000172758
-0.000135165
-6.70448e-05
3.36346e-05
0.000168518
0.000339106
0.000546137
0.000789116
0.00106582
0.00137181
0.00169992
0.00203905
0.00237416
0.0026863
0.00295292
0.00315023
0.00327329
0.00324491
-0.000272623
-0.000324969
-0.000312004
-0.000278605
-0.000214312
-0.000116383
1.78158e-05
0.000190961
0.000405106
0.000661161
0.000958285
0.00129323
0.00165984
0.00204688
0.00243798
0.00281081
0.00313687
0.00338375
0.00354148
0.00351462
-0.000440912
-0.000500727
-0.000492071
-0.000464451
-0.00040577
-0.000312405
-0.000180496
-5.87897e-06
0.000215213
0.000485585
0.000806378
0.0011762
0.00159088
0.00203975
0.00250555
0.00296228
0.00337369
0.00369451
0.00390548
0.00388491
-0.000648806
-0.000717881
-0.000715021
-0.000695507
-0.000645257
-0.000559599
-0.000433198
-0.000260069
-3.43004e-05
0.00024939
0.000594884
0.00100359
0.00147479
0.00199977
0.00256177
0.00313165
0.00366407
0.00409528
0.00438867
0.00438588
-0.000897885
-0.00097833
-0.000983188
-0.000974935
-0.000937128
-0.000863895
-0.000748181
-0.000581857
-0.000356449
-6.35696e-05
0.000304318
0.000752437
0.00128571
0.00189968
0.00258114
0.00330009
0.00400208
0.00459957
0.00502253
0.00506548
-0.0011899
-0.00128415
-0.00129903
-0.00130607
-0.00128602
-0.0012317
-0.00113412
-0.000982759
-0.000766239
-0.000472549
-8.93322e-05
0.000395908
0.000988006
0.00169873
0.00252158
0.003431
0.00436692
0.00521656
0.00584711
0.00600378
-0.00152689
-0.00163766
-0.00166505
-0.00169221
-0.00169658
-0.00166955
-0.00159999
-0.00147488
-0.0012799
-0.000999373
-0.000616131
-0.000111846
0.000532348
0.00133775
0.00231552
0.00345627
0.00470611
0.00593495
0.00690869
0.00734072
-0.00191153
-0.0020416
-0.00208371
-0.00213639
-0.00217307
-0.00218353
-0.00215432
-0.00206989
-0.00191325
-0.00166552
-0.00130503
-0.000806131
-0.000138355
0.000735981
0.00185774
0.00325271
0.00490226
0.0066883
0.00824092
0.00931769
-0.00234833
-0.00249959
-0.00255735
-0.00264107
-0.00271895
-0.00277876
-0.00280431
-0.00277765
-0.00267973
-0.00248987
-0.00218403
-0.00173196
-0.0010929
-0.000219061
0.000989969
0.00260675
0.0047082
0.00726119
0.00974372
0.0124105
-0.00284628
-0.00301751
-0.00308705
-0.00320675
-0.00333598
-0.00345879
-0.00355514
-0.0036048
-0.00358769
-0.00348363
-0.00327022
-0.00291774
-0.00238177
-0.00159155
-0.000446726
0.00119981
0.00363764
0.00705126
0.0109264
0.0167303
-0.00341619
-0.00361391
-0.00368812
-0.00384988
-0.00403498
-0.00422919
-0.00441007
-0.00455351
-0.0046382
-0.00464672
-0.00456599
-0.00438256
-0.00407399
-0.00359292
-0.00285609
-0.001685
0.000444932
0.00453923
0.00974734
0.0206305
-0.00415658
-0.00416844
-0.00421808
-0.00439526
-0.00467456
-0.0049982
-0.00532039
-0.00560131
-0.00581588
-0.00595408
-0.0060224
-0.00603667
-0.00602257
-0.00600101
-0.00598392
-0.00586056
-0.00550597
-0.00286885
0.000798233
0.0182463
-0.00470379
-0.00526813
-0.00523675
-0.00557958
-0.0058972
-0.00625035
-0.00660765
-0.00693727
-0.0072208
-0.00745118
-0.00765245
-0.00787718
-0.00823505
-0.00890374
-0.0101848
-0.0123808
-0.0170403
-0.0180768
-0.0161271
0.011018
-0.00775257
-0.00536478
-0.0052337
-0.00529015
-0.00580706
-0.00646326
-0.00715184
-0.00777529
-0.00829878
-0.00869899
-0.00903877
-0.00938407
-0.00997053
-0.0110555
-0.013509
-0.017163
-0.0262103
-0.030675
-0.0283675
0.017392
-0.00478633
-0.00784052
-0.00745015
-0.00827198
-0.00868813
-0.00918136
-0.00968121
-0.0101042
-0.0104533
-0.0106865
-0.0108499
-0.0110971
-0.011605
-0.012839
-0.0161521
-0.0204558
-0.031487
-0.0329006
-0.0164827
0.0596124
-0.0285467
-0.00418119
-0.00379825
-0.00409433
-0.00490216
-0.00601934
-0.00722017
-0.00822484
-0.009106
-0.00965268
-0.0102146
-0.0105799
-0.0114456
-0.0124869
-0.0146053
-0.0157233
-0.014181
0.00472578
0.0617189
0.191315
)
;

boundaryField
{
    movingWall
    {
        type            zeroGradient;
    }
    fixedWalls
    {
        type            zeroGradient;
    }
    frontAndBack
    {
        type            empty;
    }
}


// ************************************************************************* //
