/*--------------------------------*- C++ -*----------------------------------*\
  =========                 |
  \\      /  F ield         | OpenFOAM: The Open Source CFD Toolbox
   \\    /   O peration     | Website:  https://openfoam.org
    \\  /    A nd           | Version:  10
     \\/     M anipulation  |
\*---------------------------------------------------------------------------*/
FoamFile
{
    format      ascii;
    class       volVectorField;
    location    "3.2";
    object      U;
}
// * * * * * * * * * * * * * * * * * * * * * * * * * * * * * * * * * * * * * //

dimensions      [0 1 -1 0 0 0 0];

internalField   nonuniform List<vector> 
400
(
(-0.000174619 0.000172269 0)
(-0.000970655 0.000376567 0)
(-0.00213523 0.000409032 0)
(-0.00320468 0.000396776 0)
(-0.00422314 0.000372014 0)
(-0.00515797 0.000339173 0)
(-0.00598486 0.000298169 0)
(-0.0066824 0.000248465 0)
(-0.0072288 0.0001897 0)
(-0.00760264 0.000121821 0)
(-0.00778364 4.52501e-05 0)
(-0.0077532 -3.92921e-05 0)
(-0.00749628 -0.00013034 0)
(-0.0070037 -0.000225033 0)
(-0.006274 -0.000319557 0)
(-0.00531534 -0.000408999 0)
(-0.00415132 -0.000486618 0)
(-0.00283726 -0.000539709 0)
(-0.00134391 -0.000523614 0)
(-0.000267471 -0.000274672 0)
(-0.000391896 0.000973689 0)
(-0.00178382 0.00173274 0)
(-0.00367391 0.00183958 0)
(-0.005419 0.00177081 0)
(-0.00706737 0.0016439 0)
(-0.00856678 0.00147787 0)
(-0.00987736 0.00127509 0)
(-0.0109654 0.00103602 0)
(-0.0117984 0.000761481 0)
(-0.012346 0.000453057 0)
(-0.012581 0.000113339 0)
(-0.0124798 -0.0002536 0)
(-0.012024 -0.000639022 0)
(-0.0112041 -0.00103205 0)
(-0.0100222 -0.00141806 0)
(-0.00849419 -0.00177817 0)
(-0.00665869 -0.00208674 0)
(-0.00459542 -0.00229511 0)
(-0.00227745 -0.00224233 0)
(-0.000516901 -0.00133157 0)
(-0.000451201 0.00219941 0)
(-0.00202199 0.00366256 0)
(-0.0041355 0.00385251 0)
(-0.00608302 0.00369646 0)
(-0.00791992 0.00341888 0)
(-0.0095893 0.00305833 0)
(-0.0110481 0.00262163 0)
(-0.0122599 0.00211185 0)
(-0.0131901 0.0015323 0)
(-0.0138063 0.000887479 0)
(-0.0140792 0.000183743 0)
(-0.0139806 -0.000569606 0)
(-0.0134884 -0.00135696 0)
(-0.0125911 -0.00215661 0)
(-0.0112872 -0.00293947 0)
(-0.00959014 -0.00366829 0)
(-0.0075388 -0.00429265 0)
(-0.00521999 -0.00471632 0)
(-0.00260169 -0.00463085 0)
(-0.000596919 -0.00288351 0)
(-0.000477768 0.00343102 0)
(-0.00214971 0.00562385 0)
(-0.00440124 0.00589724 0)
(-0.00647375 0.00565231 0)
(-0.00843107 0.00522454 0)
(-0.0102144 0.00467147 0)
(-0.0117797 0.00400383 0)
(-0.01309 0.0032267 0)
(-0.0141094 0.00234513 0)
(-0.0148034 0.00136559 0)
(-0.0151399 0.000297327 0)
(-0.0150868 -0.000845758 0)
(-0.0146146 -0.00204425 0)
(-0.0137024 -0.00326716 0)
(-0.0123404 -0.00447154 0)
(-0.0105339 -0.00560052 0)
(-0.00831662 -0.00657555 0)
(-0.00578061 -0.00724664 0)
(-0.00288854 -0.00714277 0)
(-0.000662841 -0.00450611 0)
(-0.000507545 0.00474395 0)
(-0.00229506 0.00771834 0)
(-0.00470721 0.00808073 0)
(-0.0069272 0.00774306 0)
(-0.00902826 0.00715931 0)
(-0.0109497 0.00640721 0)
(-0.0126473 0.00550152 0)
(-0.0140836 0.00444904 0)
(-0.0152219 0.00325595 0)
(-0.0160255 0.00192937 0)
(-0.0164582 0.000479338 0)
(-0.0164819 -0.00107846 0)
(-0.0160578 -0.00272094 0)
(-0.0151515 -0.00441033 0)
(-0.013738 -0.00609126 0)
(-0.0118071 -0.00768557 0)
(-0.0093811 -0.00908029 0)
(-0.00655679 -0.0100583 0)
(-0.00329119 -0.00995753 0)
(-0.000757322 -0.00633194 0)
(-0.000546796 0.00615512 0)
(-0.00248315 0.0099772 0)
(-0.00510099 0.0104365 0)
(-0.00750983 0.0100017 0)
(-0.00979442 0.00925571 0)
(-0.0118921 0.00829797 0)
(-0.0137587 0.0071476 0)
(-0.0153574 0.00581282 0)
(-0.0166511 0.00429991 0)
(-0.0176016 0.00261508 0)
(-0.0181684 0.000766616 0)
(-0.0183064 -0.00123173 0)
(-0.017964 -0.00335775 0)
(-0.0170885 -0.00556991 0)
(-0.0156318 -0.00780255 0)
(-0.0135583 -0.0099556 0)
(-0.0108674 -0.011874 0)
(-0.00765595 -0.0132531 0)
(-0.00387155 -0.013195 0)
(-0.000897171 -0.00844748 0)
(-0.000596722 0.00769026 0)
(-0.00272009 0.0124416 0)
(-0.00559457 0.0130067 0)
(-0.00823732 0.0124687 0)
(-0.0107478 0.011552 0)
(-0.0130613 0.0103806 0)
(-0.015135 0.00897828 0)
(-0.0169338 0.00735465 0)
(-0.0184221 0.00551499 0)
(-0.0195612 0.00346239 0)
(-0.0203072 0.00120007 0)
(-0.0206082 -0.00126456 0)
(-0.0203977 -0.00391677 0)
(-0.0195983 -0.00671825 0)
(-0.0181293 -0.00959919 0)
(-0.0159134 -0.0124397 0)
(-0.0129077 -0.0150347 0)
(-0.00919469 -0.0169629 0)
(-0.00470401 -0.0170194 0)
(-0.00110473 -0.0109794 0)
(-0.00065819 0.00937973 0)
(-0.00301048 0.0151599 0)
(-0.0061968 0.0158399 0)
(-0.00912026 0.0151888 0)
(-0.0118993 0.0140896 0)
(-0.0144676 0.0126939 0)
(-0.0167851 0.0110315 0)
(-0.0188211 0.00911344 0)
(-0.0205438 0.00694302 0)
(-0.0219169 0.00451792 0)
(-0.0228956 0.00183216 0)
(-0.0234234 -0.00111951 0)
(-0.0234179 -0.00433875 0)
(-0.0227717 -0.0078023 0)
(-0.0213594 -0.0114489 0)
(-0.0190397 -0.015148 0)
(-0.0156935 -0.018641 0)
(-0.0113541 -0.0213525 0)
(-0.00591612 -0.021655 0)
(-0.00142317 -0.0141169 0)
(-0.000732822 0.0112569 0)
(-0.00336124 0.018185 0)
(-0.00691993 0.018987 0)
(-0.0101725 0.0182074 0)
(-0.013262 0.0169088 0)
(-0.0161212 0.0152747 0)
(-0.0187159 0.0133431 0)
(-0.0210227 0.0111268 0)
(-0.0230179 0.00862702 0)
(-0.0246723 0.00583368 0)
(-0.0259447 0.00272714 0)
(-0.0267792 -0.000718737 0)
(-0.0270806 -0.00453266 0)
(-0.0267093 -0.00872636 0)
(-0.0254833 -0.0132699 0)
(-0.023168 -0.0180455 0)
(-0.0195147 -0.0227506 0)
(-0.0144312 -0.0266187 0)
(-0.00774483 -0.0274094 0)
(-0.00194328 -0.0181617 0)
(-0.00082376 0.0133604 0)
(-0.00378375 0.0215764 0)
(-0.0077827 0.0225025 0)
(-0.0114142 0.0215701 0)
(-0.0148539 0.0200473 0)
(-0.0180354 0.0181557 0)
(-0.0209336 0.0159437 0)
(-0.0235377 0.013428 0)
(-0.0258374 0.0106079 0)
(-0.0278172 0.00746428 0)
(-0.0294483 0.00395927 0)
(-0.0306833 3.63085e-05 0)
(-0.0314258 -0.00436753 0)
(-0.0315102 -0.0093332 0)
(-0.0306903 -0.0148994 0)
(-0.0286073 -0.0210097 0)
(-0.0248106 -0.0273592 0)
(-0.0189278 -0.0329732 0)
(-0.0106601 -0.0347108 0)
(-0.00286902 -0.0236392 0)
(-0.000937089 0.0157381 0)
(-0.00429718 0.0254035 0)
(-0.00881436 0.0264456 0)
(-0.0128758 0.0253219 0)
(-0.0167009 0.0235384 0)
(-0.0202273 0.0213619 0)
(-0.0234445 0.0188549 0)
(-0.0263594 0.0160408 0)
(-0.0289825 0.0129186 0)
(-0.0313217 0.0094613 0)
(-0.0333734 0.0056113 0)
(-0.0351064 0.00127692 0)
(-0.036451 -0.0036628 0)
(-0.0372436 -0.00938018 0)
(-0.0371774 -0.0160451 0)
(-0.0357536 -0.0237539 0)
(-0.0322382 -0.0323094 0)
(-0.0257167 -0.0405686 0)
(-0.0156557 -0.0441344 0)
(-0.00468336 -0.0315432 0)
(-0.00108484 0.0184549 0)
(-0.00493444 0.0297503 0)
(-0.0100611 0.0308805 0)
(-0.0146028 0.0295052 0)
(-0.0188408 0.0274074 0)
(-0.0227216 0.0249066 0)
(-0.0262559 0.0220838 0)
(-0.0294752 0.0189723 0)
(-0.0324181 0.0155751 0)
(-0.0351257 0.0118613 0)
(-0.0376341 0.00775836 0)
(-0.039959 0.00314136 0)
(-0.0420852 -0.00218669 0)
(-0.043898 -0.00851697 0)
(-0.045094 -0.0162233 0)
(-0.0450674 -0.0257004 0)
(-0.0427477 -0.0370937 0)
(-0.0363384 -0.0492641 0)
(-0.0248853 -0.0562607 0)
(-0.00857637 -0.0440207 0)
(-0.00129269 0.0216071 0)
(-0.0057547 0.0347287 0)
(-0.0115957 0.0358778 0)
(-0.0166636 0.0341565 0)
(-0.0213283 0.031667 0)
(-0.025554 0.0287861 0)
(-0.0293803 0.0256163 0)
(-0.0328696 0.0222048 0)
(-0.0360951 0.0185638 0)
(-0.03914 0.0146667 0)
(-0.0420952 0.0104364 0)
(-0.0450541 0.00572071 0)
(-0.0481137 0.000257448 0)
(-0.0512926 -0.006348 0)
(-0.0544192 -0.0147164 0)
(-0.0569593 -0.0257796 0)
(-0.0575854 -0.0404412 0)
(-0.0533249 -0.05805 0)
(-0.042762 -0.0714068 0)
(-0.0174511 -0.0654608 0)
(-0.00161173 0.0252781 0)
(-0.00687429 0.0404551 0)
(-0.0135427 0.0415201 0)
(-0.0191603 0.0393235 0)
(-0.024241 0.0363251 0)
(-0.0287757 0.0329768 0)
(-0.0328389 0.0294095 0)
(-0.0365291 0.0256852 0)
(-0.0399572 0.0218287 0)
(-0.0432538 0.0178301 0)
(-0.0465808 0.0136372 0)
(-0.0501395 0.00912828 0)
(-0.0541578 0.00404975 0)
(-0.0588906 -0.0020982 0)
(-0.0646328 -0.0102745 0)
(-0.0713798 -0.0219949 0)
(-0.0778889 -0.039488 0)
(-0.0799563 -0.0641466 0)
(-0.0750011 -0.088914 0)
(-0.0344487 -0.104226 0)
(-0.00206288 0.0301449 0)
(-0.00830121 0.046908 0)
(-0.0160182 0.0475327 0)
(-0.0222284 0.0445811 0)
(-0.0277039 0.041032 0)
(-0.0324722 0.0372474 0)
(-0.0366713 0.0333176 0)
(-0.0404464 0.0293011 0)
(-0.0439407 0.025251 0)
(-0.0473137 0.0212002 0)
(-0.0507668 0.017151 0)
(-0.0545949 0.01304 0)
(-0.0592721 0.00869936 0)
(-0.0655309 0.00367754 0)
(-0.0743062 -0.00300565 0)
(-0.086746 -0.0133097 0)
(-0.10279 -0.031004 0)
(-0.115388 -0.0628355 0)
(-0.118767 -0.108442 0)
(-0.0505482 -0.174858 0)
(-0.00385643 0.0344355 0)
(-0.0119428 0.0561217 0)
(-0.0196684 0.056092 0)
(-0.0260844 0.0524497 0)
(-0.0316145 0.0477228 0)
(-0.0364923 0.0427972 0)
(-0.0407602 0.0379389 0)
(-0.0445308 0.0332701 0)
(-0.0479396 0.0288575 0)
(-0.051169 0.0247457 0)
(-0.0544768 0.02102 0)
(-0.0582293 0.0177676 0)
(-0.0630259 0.0151236 0)
(-0.0698858 0.0130645 0)
(-0.0804754 0.0110692 0)
(-0.0970037 0.00669041 0)
(-0.120741 -0.00685817 0)
(-0.139076 -0.0535863 0)
(-0.147976 -0.143576 0)
(-0.039958 -0.2852 0)
(-0.00196271 0.0486668 0)
(-0.0108945 0.0600081 0)
(-0.0235802 0.0585251 0)
(-0.0307659 0.0532197 0)
(-0.0372111 0.0486114 0)
(-0.0420048 0.0440711 0)
(-0.0457107 0.0396063 0)
(-0.0486736 0.0352163 0)
(-0.0511455 0.0309932 0)
(-0.0532993 0.027022 0)
(-0.0553218 0.0235522 0)
(-0.0574546 0.0208057 0)
(-0.0602133 0.01939 0)
(-0.0645384 0.0197784 0)
(-0.0722488 0.0224441 0)
(-0.085037 0.0231967 0)
(-0.110969 0.0127089 0)
(-0.122039 -0.0540627 0)
(-0.133822 -0.19902 0)
(-0.00571927 -0.39077 0)
(-0.0110234 0.0403539 0)
(-0.0272435 0.0843808 0)
(-0.0293156 0.07941 0)
(-0.0376459 0.0725743 0)
(-0.0413552 0.0639678 0)
(-0.0435921 0.0556857 0)
(-0.0443981 0.0481476 0)
(-0.0443846 0.0414444 0)
(-0.0438888 0.0356169 0)
(-0.0430411 0.0305643 0)
(-0.0421734 0.0265799 0)
(-0.0411583 0.0239267 0)
(-0.0404922 0.0235042 0)
(-0.0394735 0.0265162 0)
(-0.0402083 0.0345851 0)
(-0.0354186 0.0411185 0)
(-0.0439764 0.0381858 0)
(-0.0224983 -0.0440587 0)
(-0.0514369 -0.238554 0)
(0.0335403 -0.443341 0)
(-0.074273 0.103374 0)
(-0.0583076 0.0658608 0)
(-0.0587337 0.062749 0)
(-0.0393285 0.054847 0)
(-0.0230182 0.0467173 0)
(-0.00594719 0.0400762 0)
(0.0097296 0.0346656 0)
(0.024102 0.029912 0)
(0.0365516 0.0259144 0)
(0.0480867 0.0221048 0)
(0.0575144 0.0194512 0)
(0.0672224 0.0169469 0)
(0.0749333 0.0165405 0)
(0.0870698 0.0163385 0)
(0.0930929 0.0186206 0)
(0.127768 0.0163586 0)
(0.121416 -1.13676e-05 0)
(0.180748 -0.0579878 0)
(0.118222 -0.248201 0)
(0.111615 -0.428919 0)
(0.121519 0.141041 0)
(0.157457 0.0878833 0)
(0.237953 0.0654985 0)
(0.294216 0.0501337 0)
(0.338348 0.039249 0)
(0.375462 0.031114 0)
(0.405763 0.0250864 0)
(0.433002 0.0202137 0)
(0.452761 0.0165585 0)
(0.474799 0.0135175 0)
(0.484767 0.0107896 0)
(0.506498 0.00964251 0)
(0.506409 0.00664862 0)
(0.533279 0.00787926 0)
(0.521383 0.00388518 0)
(0.556875 0.00347995 0)
(0.523977 -0.00421439 0)
(0.54649 -0.0302226 0)
(0.41619 -0.0699859 0)
(0.274843 -0.149787 0)
)
;

boundaryField
{
    movingWall
    {
        type            fixedValue;
        value           uniform (1 0 0);
    }
    fixedWalls
    {
        type            noSlip;
    }
    frontAndBack
    {
        type            empty;
    }
}


// ************************************************************************* //
