/*--------------------------------*- C++ -*----------------------------------*\
  =========                 |
  \\      /  F ield         | OpenFOAM: The Open Source CFD Toolbox
   \\    /   O peration     | Website:  https://openfoam.org
    \\  /    A nd           | Version:  10
     \\/     M anipulation  |
\*---------------------------------------------------------------------------*/
FoamFile
{
    format      ascii;
    class       volVectorField;
    location    "2.875";
    object      U;
}
// * * * * * * * * * * * * * * * * * * * * * * * * * * * * * * * * * * * * * //

dimensions      [0 1 -1 0 0 0 0];

internalField   nonuniform List<vector> 
496
(
(9.99144 0.0726161 0)
(9.89199 -0.0983839 0)
(9.99948 -0.185812 0)
(10.7008 -0.147935 0)
(9.84092 0.606654 0)
(10.1193 -1.19314 0)
(9.89773 -0.51276 0)
(11.0801 -0.925023 0)
(10.0465 1.35563 0)
(10.2452 -2.82435 0)
(10.4508 -0.601843 0)
(11.9229 -3.62223 0)
(10.8861 1.6722 0)
(9.40324 -2.68529 0)
(10.9581 0.955196 0)
(11.7478 -6.45916 0)
(11.3905 -0.285876 2.10313e-18)
(12.1221 -0.19691 5.38428e-19)
(11.4788 -0.618502 -9.02352e-19)
(12.736 0.114722 2.88953e-18)
(12.6373 -2.51129 -1.20326e-18)
(14.2166 -0.227871 -3.42806e-18)
(11.0891 -5.36693 -4.0404e-17)
(17.2378 -4.04235 6.51308e-17)
(12.7445 -0.223174 0)
(13.0974 -0.224586 0)
(13.3411 -0.223546 0)
(13.4242 -0.167156 0)
(13.2907 0.0649408 0)
(13.685 -0.200617 0)
(13.9688 -0.450159 0)
(14.2578 -0.480709 0)
(13.1428 0.10604 0)
(13.5579 0.777346 0)
(13.6745 0.247646 0)
(13.9317 0.218786 0)
(7.1474 -3.09596 0)
(10.5673 -0.926909 0)
(6.73389 -1.465 0)
(7.05877 -0.24034 0)
(13.5046 0.0244085 0)
(13.3899 0.141391 0)
(13.2181 0.273935 0)
(12.9696 0.254295 0)
(12.7257 0.249657 0)
(12.4835 0.243601 0)
(12.3686 0.312295 0)
(12.322 0.386877 0)
(12.2315 0.408959 0)
(12.0869 0.434679 0)
(11.9952 0.461941 0)
(11.9723 0.455493 0)
(12.0555 0.511832 0)
(12.0836 0.487851 0)
(12.1239 0.577061 0)
(11.9124 0.543002 0)
(11.8364 0.638061 0)
(11.4591 0.630764 0)
(11.4334 0.637513 0)
(11.0781 0.608382 0)
(11.2371 0.465928 0)
(11.0167 0.435432 0)
(11.258 0.255794 0)
(11.2291 0.317049 0)
(11.4296 0.190181 0)
(11.5143 0.312509 0)
(11.3958 0.288801 0)
(11.445 0.385742 0)
(10.93 0.440942 0)
(10.8429 0.460711 0)
(10.1335 0.593942 0)
(10.0068 0.45463 0)
(9.64172 0.496785 0)
(9.56891 0.228811 0)
(9.83074 0.171521 0)
(9.79843 0.032267 0)
(10.5315 -0.0279685 0)
(10.4843 0.0282758 0)
(11.1628 0.012926 0)
(11.0978 0.178447 0)
(14.3797 -0.305671 0)
(14.2695 -0.117045 0)
(13.9548 -0.0100288 0)
(13.6519 0.0391589 0)
(13.4187 0.0405169 0)
(13.2968 0.0406548 0)
(13.279 -0.0358839 0)
(13.1967 -0.0809712 0)
(13.1695 -0.238234 0)
(13.0095 -0.338159 0)
(13.0473 -0.420111 0)
(12.9771 -0.52156 0)
(13.1465 -0.424571 0)
(13.1119 -0.475687 0)
(13.1933 -0.303275 0)
(12.9951 -0.334925 0)
(12.9323 -0.215622 0)
(12.6528 -0.254954 0)
(12.4938 -0.311035 0)
(12.2861 -0.2462 0)
(12.1877 -0.424053 0)
(12.236 -0.275608 0)
(12.2517 -0.564317 0)
(12.4972 -0.368338 0)
(12.5389 -0.470871 0)
(12.8716 -0.238812 0)
(12.7641 -0.0915898 0)
(12.9158 0.0984936 0)
(12.6138 0.298206 0)
(12.5121 0.189044 0)
(12.192 0.222854 0)
(11.7611 -0.101414 0)
(11.6084 -0.0432508 0)
(11.1046 -0.384089 0)
(11.3559 -0.383093 0)
(11.2098 -0.619394 0)
(11.6539 -0.673707 0)
(11.855 -0.532551 0)
(12.2226 -0.552829 0)
(12.5892 -0.0783392 0)
(14.4695 0.547072 0)
(14.3792 0.538703 0)
(14.1272 0.438743 0)
(13.8785 0.390244 0)
(13.7951 0.556186 0)
(13.5789 0.616689 0)
(13.7405 0.666219 0)
(13.5814 0.616404 0)
(13.8114 0.610009 0)
(13.442 0.440218 0)
(13.6962 0.455322 0)
(13.3507 0.32026 0)
(13.7434 0.503357 0)
(13.3758 0.419843 0)
(13.5874 0.646719 0)
(13.2179 0.722261 0)
(13.0889 0.924412 0)
(12.8457 1.01682 0)
(12.4674 0.863839 0)
(12.6332 0.865794 0)
(12.0809 0.313175 0)
(12.4426 0.293936 0)
(11.8515 -0.281173 0)
(12.418 -0.0936455 0)
(12.1678 -0.361417 0)
(12.6481 -0.0740675 0)
(12.7598 0.0903621 0)
(13.0048 0.397127 0)
(13.1813 0.954495 0)
(12.788 1.00988 0)
(12.7346 1.64865 0)
(11.7976 1.22529 0)
(11.9292 1.31402 0)
(11.0576 0.311072 0)
(11.3492 -0.203309 0)
(10.8966 -0.630678 0)
(10.9896 -1.09367 0)
(11.2683 -0.70765 0)
(11.1924 -0.962966 0)
(11.8683 -0.304993 0)
(9.41647 0.420296 0)
(8.86956 0.135431 0)
(8.05241 0.223001 0)
(9.0319 0.158106 0)
(9.67517 -0.0744555 0)
(9.29153 0.05623 0)
(10.2089 0.155085 0)
(10.4472 0.0236046 0)
(11.016 -0.146652 0)
(10.6062 -0.290866 0)
(11.3798 -0.302721 0)
(10.9154 -0.398398 0)
(11.5921 -0.395645 0)
(10.8588 -0.443657 0)
(11.492 -0.261124 0)
(11.0237 -0.127166 0)
(11.382 0.151318 0)
(11.199 0.276412 0)
(10.8249 0.357972 0)
(10.8192 0.32633 0)
(9.5829 0.190522 0)
(10.0796 0.173677 0)
(8.5917 -0.0489559 0)
(9.47908 -0.158052 0)
(8.48167 -0.494073 0)
(9.46594 -0.53252 0)
(9.59399 -0.50606 0)
(10.2247 -0.326454 0)
(11.1978 0.0767803 0)
(11.1739 0.24375 0)
(12.5855 0.660819 0)
(12.0541 0.540623 0)
(12.8997 0.621399 0)
(11.6668 0.366373 0)
(11.2294 0.466578 0)
(10.0592 0.257203 0)
(8.86629 -0.150771 0)
(9.14602 -0.156843 0)
(8.28066 -0.947601 0)
(9.26824 -0.498335 0)
(12.9611 0.370215 -1.00851e-17)
(7.07781 -0.689983 -1.6853e-17)
(12.6444 -0.0534864 2.96017e-17)
(3.85071 -4.73747 -7.99854e-17)
(11.006 -0.479245 1.01189e-17)
(8.95227 0.909262 1.73794e-17)
(10.5027 0.0666323 -3.01692e-17)
(5.29026 5.02307 8.03414e-17)
(-4.63207 1.72164 0)
(3.39584 4.79253 0)
(-6.99145 -4.5448 0)
(1.88361 -0.000363101 0)
(-6.28335 -2.19562 3.75985e-17)
(1.70827 2.68501 0)
(4.29113 -1.38521 0)
(-4.50533 -2.50835 0)
(-0.181115 2.50834 0)
(-3.67738 -1.87392 0)
(-0.339273 -1.23647 0)
(1.70178 1.28625 0)
(-0.965256 -0.566068 0)
(1.44894 -0.97782 0)
(1.96536 0.318454 0)
(1.7433 0.224995 0)
(0.876193 -0.34147 0)
(2.07254 0.0887466 0)
(2.22158 0.384631 0)
(1.9511 0.44063 0)
(1.90285 0.48393 0)
(1.93568 0.458587 0)
(2.20552 0.483554 0)
(2.22652 0.602286 0)
(2.62433 0.859464 0)
(2.57669 1.11779 0)
(2.71904 1.07135 0)
(2.46948 1.06687 0)
(2.80163 0.83587 0)
(2.72499 0.531757 0)
(3.02359 0.046296 0)
(3.13284 -0.431718 0)
(3.67654 -0.79891 0)
(4.03804 -1.04604 0)
(4.47664 -0.909096 0)
(5.36322 -0.677418 0)
(5.28129 -0.358906 0)
(6.06129 0.253906 0)
(5.95919 0.759245 0)
(5.73322 1.01253 0)
(5.62785 1.29657 0)
(4.92029 1.29928 0)
(5.40318 1.05814 0)
(4.51005 0.415825 0)
(5.45914 -0.440536 0)
(5.43302 -0.725072 0)
(5.47735 -1.64969 0)
(6.39259 -1.17517 0)
(0.109827 2.73823 0)
(3.75178 -0.714991 0)
(0.124913 -2.14478 0)
(0.581352 0.0103991 0)
(3.04757 -0.903864 0)
(1.48969 -1.10302 0)
(0.824907 -0.0430589 0)
(2.49661 -0.0302316 0)
(1.59247 -0.263696 0)
(1.25713 -0.605288 0)
(0.783884 -0.39726 0)
(0.652994 -0.367958 0)
(0.763779 -0.455008 0)
(0.966098 -0.495856 0)
(0.902583 -0.361382 0)
(1.02537 -0.138247 0)
(1.18622 0.173806 0)
(1.91134 0.341191 0)
(2.11025 0.472745 0)
(2.68811 0.471036 0)
(3.21693 0.239327 0)
(3.47275 -0.00281335 0)
(3.88793 -0.438364 0)
(4.05311 -0.828667 0)
(3.88655 -1.19466 0)
(3.90646 -1.30169 0)
(3.62707 -1.43227 0)
(3.70832 -1.09679 0)
(3.34943 -0.337583 0)
(3.91477 0.0187494 0)
(4.11797 0.738149 0)
(4.01568 1.02032 0)
(4.71067 1.31944 0)
(5.17661 1.04676 0)
(5.45731 0.793174 0)
(6.16834 0.227076 0)
(6.30645 -0.465945 0)
(6.24402 -0.855016 0)
(6.25436 -1.69102 0)
(5.6268 -1.0765 0)
(13.3381 -1.35734 0)
(7.38729 2.29297 0)
(14.1004 -0.471523 0)
(9.76365 6.14582 0)
(11.6624 -1.57388 0)
(8.40406 3.00331 0)
(11.5024 0.0797663 0)
(10.384 3.86691 0)
(10.3933 -0.608928 0)
(9.37253 1.43799 0)
(10.3668 0.484666 0)
(10.754 1.16093 0)
(10.0193 -0.126411 0)
(9.8163 0.261217 0)
(10.2042 0.146941 0)
(10.9464 0.235985 0)
(14.166 5.74661 3.85976e-17)
(15.3463 4.09863 -6.57099e-17)
(12.8964 2.35212 0)
(12.7646 0.321672 0)
(11.6917 0.731479 0)
(12.3792 0.0592322 0)
(11.6628 0.217047 0)
(12.2653 0.244231 0)
(12.3256 3.65129 0)
(10.5187 1.50972 0)
(10.684 0.294293 0)
(11.9436 0.616494 0)
(12.4883 -0.656281 0)
(12.4688 -0.757082 0)
(13.1516 -0.699321 0)
(13.3008 -0.802806 0)
(13.0856 0.045072 0)
(13.4724 0.336055 0)
(13.9043 0.490552 0)
(13.8743 0.355872 0)
(12.8926 0.163645 0)
(13.2356 0.134708 0)
(13.4732 0.0145102 0)
(13.4137 -0.186644 0)
(11.8236 -0.00314035 0)
(11.0198 -0.905096 0)
(12.4729 -0.719082 0)
(11.0728 -0.412946 0)
(10.6263 -0.358674 0)
(10.2581 -0.188834 0)
(9.52922 -0.0805661 0)
(9.25133 0.0809078 0)
(8.66062 0.281999 0)
(9.24442 0.563323 0)
(8.28351 0.685702 0)
(8.79061 0.580197 0)
(7.75052 0.48152 0)
(8.2997 0.226761 0)
(7.62726 0.160274 0)
(8.14686 0.0544139 0)
(7.63416 0.113692 0)
(8.19504 0.17896 0)
(8.29907 0.18934 0)
(9.08454 0.233676 0)
(9.59802 0.115443 0)
(10.2068 0.0190921 0)
(10.9241 -0.162412 0)
(10.9585 -0.284729 0)
(11.6169 -0.292389 0)
(10.5562 -0.29892 0)
(10.5548 -0.31661 0)
(9.06621 -0.383565 0)
(8.39465 -0.260145 0)
(7.97413 -0.13407 0)
(7.25098 0.255616 0)
(8.40702 0.4194 0)
(7.61512 0.666719 0)
(9.59373 0.464727 0)
(9.32765 0.237247 0)
(10.7081 0.023578 0)
(11.1458 -0.33096 0)
(11.0038 -0.138156 0)
(11.3359 -0.273335 0)
(9.56043 -0.296844 0)
(13.2526 -0.919386 0)
(13.1809 -0.871436 0)
(13.0733 -0.943109 0)
(12.6742 -0.720136 0)
(12.348 -0.343321 0)
(12.203 -0.0627133 0)
(12.249 0.144455 0)
(12.4588 0.239231 0)
(12.5169 0.371745 0)
(12.8464 0.26051 0)
(12.7115 0.229978 0)
(13.0054 -0.00983232 0)
(12.8506 -0.0243842 0)
(13.1008 -0.189652 0)
(13.055 -0.13284 0)
(13.1778 -0.2606 0)
(13.235 -0.227161 0)
(13.1764 -0.293273 0)
(13.4721 -0.406958 0)
(13.4316 -0.503534 0)
(13.8313 -0.829613 0)
(13.5891 -0.910926 0)
(13.7377 -1.35373 0)
(13.2577 -1.26288 0)
(13.2224 -1.4493 0)
(12.8941 -0.963404 0)
(12.6684 -0.554828 0)
(12.629 -0.0758051 0)
(12.0212 0.436343 0)
(12.397 0.340879 0)
(11.8022 0.666239 0)
(12.4495 0.215095 0)
(12.21 0.289975 0)
(12.7483 -0.240751 0)
(12.9424 -0.550151 0)
(12.8474 -0.920075 0)
(13.0138 -1.26106 0)
(12.4899 -1.12037 0)
(12.8291 -0.94121 0)
(12.5561 -0.146468 0)
(13.795 0.363163 0)
(13.4568 0.234679 0)
(13.3166 0.119598 0)
(12.9366 0.0457505 0)
(12.7017 0.123204 0)
(12.4684 0.277356 0)
(12.6029 0.252123 0)
(12.7832 0.267628 0)
(13.099 0.252726 0)
(13.2347 0.301964 0)
(13.3941 0.302692 0)
(13.4572 0.240396 0)
(13.6228 0.201297 0)
(13.6632 0.118712 0)
(13.7199 0.180595 0)
(13.7104 0.0954076 0)
(13.6719 0.133921 0)
(13.6392 0.066823 0)
(13.5201 0.0620304 0)
(13.476 -0.00149683 0)
(13.2503 -0.0987064 0)
(13.0257 -0.0682508 0)
(12.7156 -0.143524 0)
(12.3939 0.0944756 0)
(12.2116 0.102083 0)
(11.8412 0.363292 0)
(11.8164 0.39459 0)
(11.677 0.487665 0)
(11.8741 0.640277 0)
(12.0486 0.505199 0)
(12.2805 0.655878 0)
(12.585 0.282147 0)
(12.656 0.2499 0)
(12.8775 -0.125811 0)
(12.6295 -0.317594 0)
(12.6845 -0.313365 0)
(12.2241 -0.37359 0)
(12.1143 -0.0483767 0)
(11.6864 -0.0231995 0)
(11.5368 0.118063 0)
(13.3268 -0.304957 0)
(13.0003 -0.435568 0)
(12.8425 -0.488952 0)
(12.5807 -0.552346 0)
(12.4279 -0.428805 0)
(12.1041 -0.317011 0)
(12.1066 -0.24186 0)
(12.2078 -0.220786 0)
(12.5624 -0.188293 0)
(12.6231 -0.119655 0)
(12.7154 -0.0876092 0)
(12.59 -0.102395 0)
(12.7371 -0.155521 0)
(12.7223 -0.233798 0)
(12.8031 -0.213871 0)
(12.6466 -0.310414 0)
(12.5985 -0.306591 0)
(12.4338 -0.424801 0)
(12.2702 -0.444948 0)
(12.1479 -0.538237 0)
(11.8635 -0.588028 0)
(11.6232 -0.591725 0)
(11.1663 -0.686779 0)
(10.9009 -0.61821 0)
(10.6119 -0.695249 0)
(10.3636 -0.539105 0)
(10.3397 -0.46723 0)
(10.1886 -0.337615 0)
(10.5603 -0.195727 0)
(10.5792 -0.204392 0)
(11.0633 -0.0906102 0)
(11.1073 -0.207435 0)
(11.259 -0.150303 0)
(11.2067 -0.295381 0)
(10.8159 -0.263564 0)
(10.6436 -0.368286 0)
(9.97449 -0.384922 0)
(9.89878 -0.338033 0)
(9.46327 -0.318261 0)
(9.50224 -0.0824804 0)
)
;

boundaryField
{
    inlet
    {
        type            fixedValue;
        value           uniform (10 0 0);
    }
    outlet
    {
        type            zeroGradient;
    }
    obstacle
    {
        type            noSlip;
    }
    upperWall
    {
        type            noSlip;
    }
    lowerWall
    {
        type            noSlip;
    }
    frontAndBack
    {
        type            empty;
    }
}


// ************************************************************************* //
