/*--------------------------------*- C++ -*----------------------------------*\
  =========                 |
  \\      /  F ield         | OpenFOAM: The Open Source CFD Toolbox
   \\    /   O peration     | Website:  https://openfoam.org
    \\  /    A nd           | Version:  10
     \\/     M anipulation  |
\*---------------------------------------------------------------------------*/
FoamFile
{
    format      ascii;
    class       volScalarField;
    location    "1.7";
    object      p;
}
// * * * * * * * * * * * * * * * * * * * * * * * * * * * * * * * * * * * * * //

dimensions      [0 2 -2 0 0 0 0];

internalField   nonuniform List<scalar> 
496
(
28.1285
28.1393
25.0323
19.043
28.6057
29.3971
25.7511
19.4116
33.5352
31.7551
23.5973
13.5176
42.2422
39.0331
34.6581
18.7988
10.4329
0.989832
10.3911
1.33272
-1.78136
-7.37978
-33.9318
-57.1191
-6.36379
-11.2709
-13.9928
-15.6645
-6.19761
-12.2188
-16.173
-18.636
-1.38078
-1.70224
-6.35476
-14.471
-28.086
-13.8275
-5.48091
-16.5875
-16.9727
-18.0823
-18.6772
-18.7312
-18.0086
-16.7284
-15.5077
-14.3746
-13.2971
-12.0181
-10.9847
-10.2878
-9.62304
-8.50454
-6.98909
-5.94505
-5.37918
-5.25218
-5.18299
-5.13343
-4.93098
-4.35091
-3.79013
-3.34466
-3.27135
-3.17074
-2.90557
-2.55347
-2.31804
-2.39116
-2.43852
-2.5034
-2.43028
-2.3373
-2.24209
-2.0549
-1.84462
-1.42107
-0.929088
-0.334272
-20.3141
-21.261
-21.1773
-19.9375
-18.2378
-16.8336
-15.8317
-14.649
-13.3947
-12.0936
-11.0854
-10.2724
-9.4819
-8.4144
-6.99945
-5.84627
-5.08473
-4.94961
-4.93799
-4.96876
-4.81628
-4.31841
-3.86746
-3.38775
-3.20999
-3.04436
-2.77484
-2.44984
-2.19604
-2.31324
-2.4542
-2.60632
-2.5317
-2.40936
-2.30297
-2.12202
-1.93797
-1.53628
-1.07741
-0.38566
-20.2566
-22.5396
-22.049
-19.8344
-17.831
-17.121
-16.3425
-15.0443
-13.6775
-12.6785
-11.7708
-10.5991
-9.34296
-7.86653
-6.66733
-5.54338
-4.99311
-4.87325
-4.97934
-5.07458
-4.73638
-4.5751
-4.10797
-3.7033
-3.36469
-2.87494
-2.6199
-2.23646
-2.30953
-2.44869
-2.82758
-3.15575
-3.27299
-3.17716
-2.80039
-2.27852
-1.52738
-0.963959
-0.428892
-0.139412
-23.1895
-22.8739
-20.9617
-20.3638
-19.1848
-17.129
-15.9975
-14.8393
-13.7018
-12.9623
-11.9365
-10.7537
-9.3039
-7.46371
-5.94945
-4.41678
-3.99679
-3.83568
-3.98642
-4.22518
-4.27239
-4.58529
-4.06514
-3.79004
-3.07737
-2.41609
-2.0426
-1.80976
-2.09425
-2.21624
-2.93786
-3.53081
-3.85844
-3.84671
-3.67285
-3.14771
-2.0492
-1.12203
0.173689
0.941354
46.7753
47.7526
61.7883
74.0473
46.4582
48.7948
62.4044
75.0373
-28.3844
-29.0895
-20.6059
-25.1125
-26.7454
-31.8679
-17.6216
-15.7195
-22.421
-20.0026
-23.0125
-24.9648
-21.1592
-20.9857
-18.1641
-12.8325
-15.187
-12.8118
-10.5751
-9.71522
-8.50806
-7.05388
-5.71266
-4.98757
-4.75481
-4.57347
-4.59566
-4.79689
-4.88302
-4.98584
-4.86589
-4.59675
-3.95447
-3.45221
-3.1901
-2.87748
-2.65544
-2.55121
-2.61509
-2.54403
-2.75327
-3.14252
-2.83608
-2.28413
-1.77622
-0.93556
0.0999737
0.340404
-25.9535
-21.8859
-22.7066
-22.3417
-24.9885
-22.797
-17.9214
-15.1461
-13.7012
-11.2805
-8.78864
-7.64318
-6.80429
-6.014
-5.17376
-4.96793
-5.04629
-5.16704
-5.31953
-5.3591
-5.40593
-5.60579
-5.66032
-5.77996
-5.83565
-5.38017
-4.95802
-4.57511
-4.0754
-3.44465
-2.42914
-1.25199
-0.285283
-0.0660095
-0.289416
-0.536091
-0.915458
-0.92426
-0.749502
-0.26947
42.5412
39.9412
36.286
21.1379
35.536
32.96
24.8365
14.2781
30.4523
30.1627
25.5277
19.0951
29.2399
28.8254
25.2106
19.0341
-29.4069
-54.888
-1.10311
-6.25472
10.0838
1.21608
10.5973
1.36095
-25.1752
-8.01652
-11.127
-15.5191
-0.95999
-2.79217
-9.29636
-14.4787
-6.75283
-12.4735
-15.854
-17.8191
-5.79754
-10.6892
-13.6664
-15.4171
-17.3045
-20.3899
-22.1615
-21.8484
-19.7203
-20.088
-18.564
-15.4135
-13.243
-10.578
-8.01496
-5.97631
-4.92899
-4.73216
-4.79448
-5.13468
-5.29812
-5.74378
-5.792
-5.91355
-6.04355
-6.11891
-6.46604
-6.2106
-6.19894
-5.75001
-5.50514
-5.31239
-4.77796
-3.94808
-1.57271
0.958435
2.90904
3.0466
2.23569
0.813447
-0.625645
-1.19905
-1.82492
-1.18793
-17.9241
-20.4611
-21.8636
-21.4103
-19.7495
-18.414
-17.0436
-15.0081
-13.1174
-11.2449
-9.46176
-7.90032
-6.85546
-6.42681
-6.25582
-6.33302
-6.18431
-5.95521
-5.75655
-5.81205
-6.14275
-6.15768
-6.04949
-5.62844
-5.39769
-5.14665
-4.70621
-4.28357
-3.53016
-2.82633
-1.89087
-0.633054
0.310978
0.612821
0.220119
-0.254371
-0.832738
-1.1336
-0.784826
-0.448622
-18.9795
-19.9105
-20.656
-20.397
-19.2369
-17.6992
-16.0262
-14.2469
-12.6896
-11.4045
-9.9245
-8.2747
-6.74982
-5.9342
-5.88086
-5.98312
-5.8467
-5.38756
-5.30402
-5.59538
-6.06798
-6.04128
-5.53161
-5.0471
-4.8763
-4.98002
-4.8119
-4.36927
-3.71195
-2.96037
-1.98009
-0.93313
0.0294183
0.636654
0.709972
0.471305
0.156591
-0.153951
-0.229394
-0.184726
-16.6793
-17.6618
-18.5176
-19.0289
-18.763
-17.3885
-15.4228
-13.7364
-12.5135
-11.6348
-10.374
-8.84056
-7.39464
-6.5295
-6.42308
-6.33326
-6.04134
-5.44512
-5.40975
-5.91565
-6.36066
-6.19685
-5.46444
-5.00047
-4.87282
-4.98043
-4.7026
-4.08703
-3.40306
-2.65276
-1.94714
-1.05408
-0.229223
0.378101
0.561258
0.387771
0.091034
-0.0628832
-0.1467
-0.0890236
)
;

boundaryField
{
    inlet
    {
        type            zeroGradient;
    }
    outlet
    {
        type            fixedValue;
        value           uniform 0;
    }
    obstacle
    {
        type            zeroGradient;
    }
    upperWall
    {
        type            zeroGradient;
    }
    lowerWall
    {
        type            zeroGradient;
    }
    frontAndBack
    {
        type            empty;
    }
}


// ************************************************************************* //
