/*--------------------------------*- C++ -*----------------------------------*\
  =========                 |
  \\      /  F ield         | OpenFOAM: The Open Source CFD Toolbox
   \\    /   O peration     | Website:  https://openfoam.org
    \\  /    A nd           | Version:  10
     \\/     M anipulation  |
\*---------------------------------------------------------------------------*/
FoamFile
{
    format      ascii;
    class       volVectorField;
    location    "1.65";
    object      U;
}
// * * * * * * * * * * * * * * * * * * * * * * * * * * * * * * * * * * * * * //

dimensions      [0 1 -1 0 0 0 0];

internalField   nonuniform List<vector> 
496
(
(9.94517 0.089926 0)
(9.9391 -0.160465 0)
(10.1312 -0.14895 0)
(10.8 -0.193096 0)
(9.89132 0.526735 0)
(10.0152 -1.26588 0)
(10.0876 -0.411605 0)
(11.0886 -1.0618 0)
(10.4252 1.37917 0)
(9.73099 -3.01099 0)
(10.8612 -0.271163 0)
(11.5221 -4.01959 0)
(11.2203 1.56662 0)
(8.97561 -2.76129 0)
(11.5139 0.903586 0)
(11.38 -6.77076 0)
(11.4502 -0.253561 2.42082e-18)
(12.2267 -0.191231 2.18151e-19)
(11.5955 -0.595478 -1.03422e-18)
(12.7753 0.137818 2.63381e-18)
(12.8893 -2.26796 -1.38946e-18)
(14.0607 -0.341884 -2.85199e-18)
(11.5919 -5.31949 -4.11695e-17)
(17.0578 -4.45844 6.68787e-17)
(12.7921 -0.209305 0)
(13.1356 -0.203971 0)
(13.3487 -0.114666 0)
(13.4711 -0.0371407 0)
(13.3025 0.0465549 0)
(13.7605 -0.229516 0)
(14.0545 -0.615319 0)
(14.2346 -0.711 0)
(13.04 0.431183 0)
(13.4687 1.15528 0)
(13.4129 0.47052 0)
(13.8976 0.350861 0)
(7.66329 -2.78433 0)
(11.8677 -1.82998 0)
(6.50263 -1.65004 0)
(9.01153 -0.502078 0)
(13.5383 0.096797 0)
(13.5464 0.204359 0)
(13.5347 0.362727 0)
(13.4579 0.399329 0)
(13.3232 0.443224 0)
(13.1132 0.491222 0)
(12.9279 0.510822 0)
(12.6015 0.529706 0)
(12.319 0.499071 0)
(11.9921 0.537716 0)
(11.8972 0.504798 0)
(11.7059 0.481614 0)
(11.6061 0.404777 0)
(11.4416 0.334426 0)
(11.4252 0.27938 0)
(11.3914 0.210392 0)
(11.4283 0.208914 0)
(11.4799 0.157414 0)
(11.5734 0.179385 0)
(11.5902 0.141625 0)
(11.6292 0.157091 0)
(11.5645 0.161697 0)
(11.6885 0.166689 0)
(11.6499 0.196086 0)
(11.803 0.191906 0)
(11.654 0.255258 0)
(11.6721 0.270446 0)
(11.4374 0.33845 0)
(11.3138 0.372045 0)
(11.0414 0.410691 0)
(10.793 0.467823 0)
(10.5582 0.443989 0)
(10.3779 0.484542 0)
(10.2478 0.384874 0)
(10.2915 0.377568 0)
(10.2085 0.296437 0)
(10.4722 0.267996 0)
(10.333 0.279571 0)
(10.5969 0.265422 0)
(10.3554 0.36592 0)
(14.3475 -0.623958 0)
(14.4094 -0.464666 0)
(14.3402 -0.295081 0)
(14.2111 -0.273376 0)
(14.1139 -0.169856 0)
(13.9608 -0.0813853 0)
(13.783 -0.0119377 0)
(13.5134 0.0208616 0)
(13.2948 -0.0376535 0)
(13.0663 -0.00247254 0)
(12.9447 -0.097394 0)
(12.787 -0.109525 0)
(12.6848 -0.215065 0)
(12.5759 -0.199131 0)
(12.5996 -0.190783 0)
(12.6101 -0.220808 0)
(12.7074 -0.177341 0)
(12.7611 -0.228856 0)
(12.8934 -0.183825 0)
(12.9119 -0.253064 0)
(12.9868 -0.242541 0)
(12.9692 -0.247205 0)
(13.0579 -0.247967 0)
(13.1027 -0.194188 0)
(13.2096 -0.211195 0)
(13.2127 -0.103525 0)
(13.2016 -0.0843501 0)
(13.1138 0.0468159 0)
(12.9973 0.0496076 0)
(12.8288 0.0562682 0)
(12.6504 -0.0172453 0)
(12.41 -0.1372 0)
(12.2815 -0.21048 0)
(12.0386 -0.346197 0)
(12.0869 -0.346886 0)
(11.9487 -0.429913 0)
(12.1402 -0.373375 0)
(12.1221 -0.33694 0)
(12.3043 -0.256196 0)
(12.3102 -0.104864 0)
(14.2665 0.493032 0)
(14.4144 0.559518 0)
(14.3148 0.528071 0)
(14.1068 0.377818 0)
(14.2344 0.640178 0)
(14.217 0.695641 0)
(14.0699 0.811116 0)
(14.0279 0.952937 0)
(13.8043 0.930265 0)
(13.8068 1.00549 0)
(13.6432 0.79486 0)
(13.6148 0.656354 0)
(13.5395 0.386736 0)
(13.4337 0.187333 0)
(13.4672 0.127085 0)
(13.2373 -0.0444336 0)
(13.4352 0.0796655 0)
(13.2254 -0.049355 0)
(13.4347 0.0802654 0)
(13.2516 -0.0194131 0)
(13.3152 0.00267509 0)
(13.2687 0.0435893 0)
(13.2284 -0.0391173 0)
(13.3696 0.130474 0)
(13.3339 0.0258548 0)
(13.5465 0.273759 0)
(13.5877 0.329784 0)
(13.7174 0.573006 0)
(13.7395 0.796316 0)
(13.5929 0.867016 0)
(13.524 1.11686 0)
(13.1375 0.929322 0)
(13.1038 0.997955 0)
(12.7172 0.601145 0)
(12.7814 0.446576 0)
(12.4912 0.144483 0)
(12.618 -0.0430769 0)
(12.5286 0.0543237 0)
(12.6203 -0.0572557 0)
(12.6539 0.276728 0)
(9.00601 -0.50622 0)
(9.4942 -0.149382 0)
(9.30581 -0.919056 0)
(7.62416 -0.290185 0)
(10.3144 -0.0150745 0)
(8.81438 -0.242707 0)
(9.77099 0.13284 0)
(9.77062 0.083152 0)
(9.85212 0.318993 0)
(10.0897 0.466094 0)
(9.83599 0.438283 0)
(9.87214 0.363487 0)
(9.30128 0.253258 0)
(9.32964 0.145812 0)
(8.96927 0.0301428 0)
(8.81096 0.00231596 0)
(8.91314 -0.0225158 0)
(8.53255 -0.0919458 0)
(8.85832 -0.0961049 0)
(8.36972 -0.176385 0)
(8.66128 -0.144834 0)
(8.48548 -0.194988 0)
(8.49304 -0.222573 0)
(8.92493 -0.243775 0)
(8.83776 -0.378329 0)
(9.62068 -0.354236 0)
(9.74735 -0.402101 0)
(10.5045 -0.269873 0)
(10.9515 -0.151451 0)
(11.3609 -0.0178774 0)
(11.9336 0.135696 0)
(11.8891 0.10804 0)
(12.1737 0.167511 0)
(11.7856 0.0465523 0)
(11.6408 0.0183873 0)
(11.1563 -0.073222 0)
(10.8572 -0.102052 0)
(10.745 -0.13245 0)
(10.4352 -0.243565 0)
(10.7179 -0.0783722 0)
(12.9558 0.477977 -1.03421e-17)
(7.21904 -0.739885 -1.73898e-17)
(12.4359 -0.213704 3.04629e-17)
(4.093 -4.64595 -8.20751e-17)
(12.3227 -0.629329 1.04837e-17)
(7.84205 0.837133 1.76767e-17)
(11.4342 -0.168195 -3.09276e-17)
(4.6907 4.64539 8.3537e-17)
(-1.15346 2.0614 0)
(1.35449 4.73893 0)
(-4.52583 -4.25675 0)
(4.38052 1.11588 0)
(-4.72121 -2.46751 2.86933e-17)
(1.23417 0.215143 0)
(2.7769 -2.39446 0)
(-5.73793 -0.707825 0)
(-1.5025 0.899937 0)
(0.115482 1.18591 0)
(-2.14846 -2.2654 0)
(1.35503 0.13819 0)
(0.0221081 2.09003 0)
(-2.26215 -1.11553 0)
(0.548335 0.825624 0)
(0.542095 0.547234 0)
(-0.348119 0.200715 0)
(1.92311 0.871293 0)
(0.827217 0.567648 0)
(1.45381 0.452205 0)
(1.40703 0.421712 0)
(1.75033 0.303914 0)
(1.50074 0.177671 0)
(1.68547 0.115689 0)
(1.79156 0.189673 0)
(1.71236 0.158768 0)
(1.65273 0.0968781 0)
(1.87276 0.124452 0)
(1.76167 0.0718434 0)
(1.90908 -0.0431128 0)
(2.15738 -0.21851 0)
(2.29676 -0.30307 0)
(2.64077 -0.476446 0)
(2.9724 -0.556275 0)
(3.4551 -0.449795 0)
(3.83282 -0.303896 0)
(4.08341 -0.050798 0)
(4.51954 0.24623 0)
(4.50212 0.560636 0)
(4.49063 0.706197 0)
(4.52828 0.871523 0)
(4.43574 0.921387 0)
(4.20522 0.735839 0)
(4.40989 0.52468 0)
(4.53127 0.359803 0)
(4.52848 0.0781007 0)
(4.91026 -0.138356 0)
(5.25037 0.0913618 0)
(0.0610218 2.16396 0)
(-0.629838 -1.16341 0)
(0.6784 -0.555521 0)
(-4.0161 -0.834297 0)
(0.42922 1.22024 0)
(0.985792 -0.586505 0)
(-0.780319 -1.11347 0)
(1.86376 -0.0338886 0)
(-0.0958664 0.0307913 0)
(1.65589 -0.146974 0)
(1.38143 0.220816 0)
(1.85335 0.345943 0)
(2.24524 0.26813 0)
(2.63706 0.17466 0)
(2.5381 0.17363 0)
(2.76213 0.0227884 0)
(2.75772 -0.0589441 0)
(2.91014 -0.155466 0)
(2.8286 -0.257566 0)
(2.90076 -0.365287 0)
(2.89984 -0.480862 0)
(3.0479 -0.70048 0)
(2.85045 -0.842909 0)
(2.91566 -0.993983 0)
(2.84082 -1.17075 0)
(2.5499 -1.17846 0)
(2.55104 -1.14862 0)
(2.49356 -0.891438 0)
(2.41162 -0.595677 0)
(2.63834 -0.246956 0)
(2.6243 0.159593 0)
(2.90978 0.267611 0)
(2.97395 0.383706 0)
(3.37655 0.344038 0)
(3.48143 0.144298 0)
(3.80572 -0.110911 0)
(3.84934 -0.281614 0)
(4.19278 -0.511989 0)
(4.01657 -0.649229 0)
(4.22548 -0.363737 0)
(11.9138 -1.24897 0)
(8.08664 2.32531 0)
(12.7632 -0.252149 0)
(9.81902 6.19287 0)
(10.967 -1.06686 0)
(8.95432 2.54829 0)
(11.4342 0.357633 0)
(10.5882 3.6521 0)
(10.0511 -0.32321 0)
(9.89075 1.09016 0)
(10.3805 0.47039 0)
(10.9817 1.14873 0)
(9.93922 -0.0680131 0)
(10.0315 0.213378 0)
(10.2744 0.123068 0)
(10.9024 0.278067 0)
(13.1416 5.78986 3.4122e-17)
(15.0661 4.09851 -6.10753e-17)
(13.1609 2.14685 0)
(13.0577 0.357175 0)
(11.7634 0.651955 0)
(12.565 0.0782551 0)
(11.52 0.208281 0)
(12.24 0.225314 0)
(10.9605 3.58313 0)
(8.81814 1.78472 0)
(9.54302 0.914174 0)
(10.1412 1.15235 0)
(12.9444 -0.694462 0)
(12.8742 -0.504522 0)
(13.4672 -0.409426 0)
(13.7367 -0.344351 0)
(13.2221 0.0517358 0)
(13.6336 0.359435 0)
(13.9703 0.541263 0)
(14.1299 0.555609 0)
(12.815 0.168231 0)
(13.1853 0.14008 0)
(13.4279 0.0765231 0)
(13.5187 -0.0349848 0)
(9.43845 0.275079 0)
(10.074 0.322159 0)
(9.71067 0.207719 0)
(10.076 0.188704 0)
(8.94322 -0.320078 0)
(9.13857 -0.380486 0)
(9.22104 -0.326562 0)
(9.399 -0.228525 0)
(9.17321 -0.10116 0)
(9.26479 -0.0951504 0)
(9.50199 -0.0696423 0)
(9.48259 -0.102117 0)
(10.0736 -0.144378 0)
(10.207 -0.137982 0)
(10.7408 -0.0986383 0)
(10.9571 -0.0016312 0)
(11.2214 0.0285287 0)
(11.6673 0.0831906 0)
(11.6672 0.082677 0)
(12.3157 0.123149 0)
(12.1617 0.125048 0)
(12.7855 0.0788227 0)
(12.6563 0.0714795 0)
(12.914 0.00971332 0)
(12.6837 0.0319528 0)
(12.1017 0.012511 0)
(11.5053 -0.0187022 0)
(10.1477 -0.0603286 0)
(9.50981 -0.0604626 0)
(8.53413 0.0379974 0)
(8.16123 0.160511 0)
(8.15001 0.254603 0)
(7.97617 0.363716 0)
(8.66269 0.281915 0)
(8.53751 0.267198 0)
(9.35142 0.137108 0)
(9.27777 0.000989231 0)
(9.573 -0.0348175 0)
(9.54419 -0.125748 0)
(9.26206 -0.0596586 0)
(14.0851 -0.351276 0)
(14.1691 -0.515013 0)
(14.147 -0.512006 0)
(13.8677 -0.619507 0)
(13.8319 -0.43559 0)
(13.622 -0.338001 0)
(13.6896 -0.334644 0)
(13.5144 -0.31125 0)
(13.6488 -0.354183 0)
(13.4756 -0.308521 0)
(13.5548 -0.416625 0)
(13.436 -0.391976 0)
(13.5188 -0.528673 0)
(13.5147 -0.520513 0)
(13.472 -0.530726 0)
(13.4547 -0.551644 0)
(13.2468 -0.506681 0)
(13.2289 -0.645551 0)
(13.0451 -0.580239 0)
(12.9986 -0.726408 0)
(12.775 -0.707868 0)
(12.4842 -0.821984 0)
(12.2806 -0.912835 0)
(11.8646 -0.799976 0)
(11.8615 -0.73373 0)
(11.4838 -0.231191 0)
(11.6298 -0.00378145 0)
(11.4247 0.424232 0)
(11.5979 0.525291 0)
(11.6578 0.541979 0)
(11.7138 0.534026 0)
(11.9607 0.267636 0)
(11.9616 0.225459 0)
(12.288 -0.165045 0)
(12.3398 -0.259919 0)
(12.5306 -0.534103 0)
(12.5489 -0.636116 0)
(12.5784 -0.603442 0)
(12.6425 -0.633975 0)
(12.6616 -0.369772 0)
(14.2528 0.523762 0)
(14.2803 0.3323 0)
(14.2208 0.236581 0)
(14.0671 0.15161 0)
(13.8758 0.207855 0)
(13.6897 0.161447 0)
(13.6106 0.125107 0)
(13.5761 0.102948 0)
(13.5979 0.0510524 0)
(13.5111 0.0948364 0)
(13.4479 0.0332923 0)
(13.2641 0.100626 0)
(13.2464 0.056708 0)
(13.1325 0.109474 0)
(13.1108 0.16753 0)
(12.9071 0.190271 0)
(12.8021 0.263904 0)
(12.6794 0.194294 0)
(12.6857 0.295953 0)
(12.6406 0.24165 0)
(12.5541 0.307646 0)
(12.3821 0.26454 0)
(12.2678 0.239445 0)
(12.0976 0.277705 0)
(12.0701 0.248303 0)
(11.9014 0.376011 0)
(12.0111 0.356537 0)
(11.9844 0.453139 0)
(12.2889 0.405335 0)
(12.3933 0.362703 0)
(12.7117 0.289261 0)
(12.8021 0.147024 0)
(12.9967 0.0670456 0)
(13.0082 -0.105902 0)
(13.009 -0.159912 0)
(12.9329 -0.248801 0)
(12.8059 -0.230111 0)
(12.679 -0.148769 0)
(12.5408 -0.0956003 0)
(12.3645 0.0229244 0)
(13.5996 -0.105084 0)
(13.5478 -0.242876 0)
(13.5317 -0.321146 0)
(13.3864 -0.397122 0)
(13.2232 -0.393531 0)
(12.9912 -0.392732 0)
(12.8871 -0.383099 0)
(12.8148 -0.361958 0)
(12.7932 -0.377969 0)
(12.6796 -0.342615 0)
(12.5391 -0.378503 0)
(12.3372 -0.349396 0)
(12.2325 -0.382702 0)
(12.1032 -0.402438 0)
(12.0492 -0.424788 0)
(11.7877 -0.47178 0)
(11.68 -0.478951 0)
(11.5093 -0.54403 0)
(11.6012 -0.515077 0)
(11.4736 -0.530739 0)
(11.4011 -0.504696 0)
(11.1402 -0.492611 0)
(11.0206 -0.49179 0)
(10.8948 -0.422734 0)
(10.8641 -0.396773 0)
(10.8162 -0.273496 0)
(10.8913 -0.228746 0)
(10.956 -0.138058 0)
(11.2399 -0.104191 0)
(11.3297 -0.0851371 0)
(11.6434 -0.0680566 0)
(11.5632 -0.114307 0)
(11.7271 -0.130444 0)
(11.4825 -0.211706 0)
(11.4429 -0.231687 0)
(11.11 -0.283775 0)
(10.9116 -0.299042 0)
(10.6127 -0.3119 0)
(10.4413 -0.31634 0)
(10.2086 -0.260546 0)
)
;

boundaryField
{
    inlet
    {
        type            fixedValue;
        value           uniform (10 0 0);
    }
    outlet
    {
        type            zeroGradient;
    }
    obstacle
    {
        type            noSlip;
    }
    upperWall
    {
        type            noSlip;
    }
    lowerWall
    {
        type            noSlip;
    }
    frontAndBack
    {
        type            empty;
    }
}


// ************************************************************************* //
