/*--------------------------------*- C++ -*----------------------------------*\
  =========                 |
  \\      /  F ield         | OpenFOAM: The Open Source CFD Toolbox
   \\    /   O peration     | Website:  https://openfoam.org
    \\  /    A nd           | Version:  10
     \\/     M anipulation  |
\*---------------------------------------------------------------------------*/
FoamFile
{
    format      ascii;
    class       surfaceScalarField;
    location    "5.375";
    object      phi;
}
// * * * * * * * * * * * * * * * * * * * * * * * * * * * * * * * * * * * * * //

dimensions      [0 3 -1 0 0 0 0];

internalField   nonuniform List<scalar> 
760
(
-8.67043e-06
8.67043e-06
-2.88541e-05
2.01837e-05
-5.25246e-05
2.36705e-05
-7.65459e-05
2.40213e-05
-9.99244e-05
2.33785e-05
-0.000122217
2.22926e-05
-0.000142994
2.07766e-05
-0.000161709
1.87153e-05
-0.000177677
1.59683e-05
-0.000190068
1.2391e-05
-0.000197918
7.85019e-06
-0.000200167
2.24865e-06
-0.000195715
-4.45212e-06
-0.000183597
-1.21176e-05
-0.000163166
-2.04313e-05
-0.000134363
-2.88029e-05
-9.81887e-05
-3.61744e-05
-5.75983e-05
-4.05904e-05
-1.95596e-05
-3.80387e-05
-1.95596e-05
-2.11426e-05
2.9813e-05
-5.99566e-05
5.89976e-05
-0.00010381
6.75234e-05
-0.000147743
6.7955e-05
-0.000189921
6.5556e-05
-0.000229351
6.17231e-05
-0.000265148
5.6573e-05
-0.000296337
4.99052e-05
-0.000321815
4.14456e-05
-0.000340328
3.09038e-05
-0.000350452
1.79748e-05
-0.000350841
2.6373e-06
-0.000339947
-1.53463e-05
-0.000316548
-3.5516e-05
-0.000279927
-5.70528e-05
-0.000230249
-7.84806e-05
-0.000169221
-9.72026e-05
-0.000101451
-0.00010836
-3.72654e-05
-0.000102224
-5.68251e-05
-2.60751e-05
5.58882e-05
-7.2448e-05
0.000105371
-0.000124274
0.000119349
-0.000175878
0.000119559
-0.000225197
0.000114875
-0.000271115
0.000107641
-0.000312643
9.81016e-05
-0.00034872
8.59824e-05
-0.000378152
7.08769e-05
-0.000399585
5.23374e-05
-0.000411558
2.99477e-05
-0.000412389
3.46832e-06
-0.000400287
-2.74483e-05
-0.000373761
-6.20426e-05
-0.000331734
-9.90792e-05
-0.000274083
-0.000136132
-0.000202469
-0.000168816
-0.0001221
-0.00018873
-4.52334e-05
-0.00017909
-0.000102058
-2.79608e-05
8.38489e-05
-7.7759e-05
0.000155169
-0.000133273
0.000174863
-0.000188513
0.000174799
-0.000241397
0.000167759
-0.000290848
0.000157092
-0.00033592
0.000143174
-0.000375589
0.000125652
-0.000408676
0.000103964
-0.000433793
7.74546e-05
-0.000449315
4.54697e-05
-0.000453409
7.56241e-06
-0.000443812
-3.7046e-05
-0.000418297
-8.75568e-05
-0.000374957
-0.00014242
-0.000312815
-0.000198274
-0.000233097
-0.000248534
-0.00014148
-0.000280347
-5.25251e-05
-0.000268045
-0.000154584
-2.91596e-05
0.000113009
-8.15379e-05
0.000207547
-0.000139989
0.000233314
-0.000198273
0.000233083
-0.000254345
0.000223831
-0.000307229
0.000209977
-0.000356097
0.000192042
-0.000400034
0.000169588
-0.000437935
0.000141865
-0.000468413
0.000107933
-0.0004897
6.67572e-05
-0.000499557
1.74191e-05
-0.00049525
-4.13528e-05
-0.000473443
-0.000109364
-0.000430847
-0.000185016
-0.000364913
-0.000264208
-0.000275633
-0.000337814
-0.000169067
-0.000386912
-6.3207e-05
-0.000373905
-0.000217791
-3.0457e-05
0.000143466
-8.56704e-05
0.000262761
-0.000147406
0.00029505
-0.00020914
0.000294817
-0.000268881
0.000283571
-0.000325803
0.000266899
-0.000379258
0.000245497
-0.000428517
0.000218847
-0.00047264
0.000185988
-0.000510326
0.00014562
-0.000539735
9.61656e-05
-0.000558282
3.5966e-05
-0.000562571
-3.70637e-05
-0.00054778
-0.000124155
-0.000508574
-0.000224222
-0.000439759
-0.000333022
-0.000338827
-0.000438747
-0.0002114
-0.000514339
-8.03774e-05
-0.000504928
-0.000298168
-3.20379e-05
0.000175503
-9.06191e-05
0.000321342
-0.000156217
0.000360647
-0.00022196
0.000360561
-0.000285929
0.000347539
-0.0003475
0.00032847
-0.000406287
0.000304283
-0.000461857
0.000274417
-0.000513573
0.000237704
-0.000560394
0.000192441
-0.000600595
0.000136366
-0.000631377
6.67483e-05
-0.000648757
-1.9684e-05
-0.000646172
-0.00012674
-0.000615392
-0.000255002
-0.000547009
-0.000401406
-0.00043368
-0.000552076
-0.000278192
-0.000669827
-0.00010945
-0.000673669
-0.000407618
-3.3934e-05
0.000209437
-9.64704e-05
0.000383878
-0.000166502
0.000430679
-0.000236731
0.00043079
-0.000305332
0.00041614
-0.000371949
0.000395087
-0.000436551
0.000368886
-0.000499147
0.000337013
-0.000559606
0.000298163
-0.000617417
0.000250252
-0.000671313
0.000190262
-0.000718672
0.000114107
-0.000755365
1.70092e-05
-0.00077307
-0.000109035
-0.000760034
-0.000268037
-0.000700636
-0.000460804
-0.000578803
-0.000673909
-0.000388948
-0.000859682
-0.000163021
-0.000899597
-0.000570639
-3.6186e-05
0.000245624
-0.0001033
0.000450992
-0.000178282
0.000505661
-0.00025332
0.000505828
-0.000326706
0.000489526
-0.000398419
0.0004668
-0.000468895
0.000439362
-0.000538751
0.000406868
-0.00060862
0.000368032
-0.000678917
0.000320549
-0.00074942
0.000260765
-0.000818547
0.000183235
-0.000881926
8.03876e-05
-0.00093218
-5.87805e-05
-0.000953346
-0.000246871
-0.000922053
-0.000492097
-0.000808159
-0.000787804
-0.000586047
-0.00108179
-0.00027214
-0.0012135
-0.000842779
-3.89135e-05
0.000284537
-0.000111324
0.000523403
-0.00019173
0.000586067
-0.00027171
0.000585808
-0.000349709
0.000567525
-0.000426108
0.000543199
-0.000501914
0.000515168
-0.000578511
0.000483465
-0.00065757
0.000447091
-0.000740898
0.000403877
-0.000830069
0.000349936
-0.000925663
0.000278829
-0.0010257
0.000180427
-0.00112487
4.03894e-05
-0.00120716
-0.00016458
-0.00124307
-0.000456196
-0.00118263
-0.000848236
-0.000955017
-0.00130941
-0.000506094
-0.00166243
-0.00134887
-4.23842e-05
0.000326921
-0.000121024
0.000602043
-0.000207317
0.00067236
-0.000292159
0.00067065
-0.000374211
0.000649577
-0.000454323
0.000623312
-0.000534137
0.000594982
-0.000615899
0.000565226
-0.000702525
0.000533717
-0.000797671
0.000499023
-0.000905653
0.000457918
-0.00103101
0.000404188
-0.00117734
0.000326751
-0.00134414
0.000207193
-0.0015292
2.04821e-05
-0.00170121
-0.000284186
-0.00178556
-0.000763883
-0.00160933
-0.00148565
-0.000951154
-0.0023206
-0.00230003
-4.71297e-05
0.000374051
-0.000133336
0.000688249
-0.000226006
0.00076503
-0.000315386
0.00076003
-0.000400481
0.000734672
-0.000482693
0.000705524
-0.000564307
0.000676596
-0.000648395
0.000649313
-0.000739111
0.000624434
-0.000842161
0.000602073
-0.000965371
0.000581128
-0.00111923
0.000558048
-0.00131709
0.000524606
-0.0015743
0.000464403
-0.0019016
0.000347782
-0.0022939
0.00010812
-0.00262143
-0.000436358
-0.00250618
-0.0016009
-0.00151703
-0.00330975
-0.00381705
-5.4128e-05
0.000428179
-0.000149896
0.000784017
-0.000249495
0.00086463
-0.000342822
0.000853356
-0.000429437
0.000821287
-0.000511429
0.000787515
-0.000591708
0.000756876
-0.000673884
0.00073149
-0.000762925
0.000713474
-0.000866135
0.000705284
-0.000994608
0.000709601
-0.00116542
0.000728855
-0.00140466
0.00076385
-0.00174985
0.000809589
-0.00224021
0.000838151
-0.00284988
0.000717788
-0.00334339
5.715e-05
-0.00316351
-0.00178078
-0.00187468
-0.00459858
-0.00569173
-6.58581e-05
0.000494037
-0.000174252
0.000892411
-0.000280631
0.000971009
-0.000376087
0.000948812
-0.000462013
0.000907214
-0.000541241
0.000866743
-0.000616661
0.000832296
-0.000691873
0.000806701
-0.000771901
0.000793502
-0.000864413
0.000797796
-0.000981991
0.000827179
-0.00114571
0.000892573
-0.00139032
0.00100846
-0.00176198
0.00118125
-0.00229644
0.00137261
-0.00292158
0.00134293
-0.00335626
0.000491827
-0.00307594
-0.0020611
-0.00188955
-0.00578497
-0.00758128
-8.01675e-05
0.000574204
-0.000204718
0.00101696
-0.000320892
0.00108718
-0.00042104
0.00104896
-0.0005053
0.000991473
-0.000578024
0.000939467
-0.000643198
0.000897471
-0.000704331
0.000867834
-0.000765055
0.000854225
-0.000830504
0.000863245
-0.000910233
0.000906909
-0.00102045
0.00100279
-0.00119059
0.00117861
-0.00145306
0.00144373
-0.0018299
0.00174945
-0.00221678
0.0017298
-0.0024779
0.000752949
-0.0023355
-0.0022035
-0.00162529
-0.00649519
-0.00920657
-0.000146133
0.000720338
-0.000284429
0.00115526
-0.000390716
0.00119347
-0.000473918
0.00113216
-0.000544911
0.00106247
-0.000607375
0.00100193
-0.000662197
0.000952293
-0.000709019
0.000914656
-0.000747584
0.00089279
-0.000777203
0.000892864
-0.000798454
0.00092816
-0.000813092
0.00101742
-0.000829796
0.00119531
-0.000845617
0.00145955
-0.000876769
0.0017806
-0.000895553
0.00174859
-0.000950838
0.000808235
-0.00111846
-0.00203588
-0.000981916
-0.00663173
-0.0101885
-9.65006e-05
0.000816838
-0.000298488
0.00135724
-0.000448882
0.00134386
-0.000555273
0.00123855
-0.00062867
0.00113586
-0.000678818
0.00105208
-0.000710896
0.000984371
-0.000726503
0.000930263
-0.000724533
0.00089082
-0.000698641
0.000866972
-0.000640423
0.000869942
-0.000532383
0.000909382
-0.000356616
0.00101954
-9.03714e-05
0.00119331
0.000272214
0.00141801
0.000613275
0.00140753
0.000740823
0.000680687
0.000285025
-0.00158008
-5.34785e-05
-0.00629322
-0.010242
-0.000388876
0.00120571
-0.000479138
0.00144751
-0.000568205
0.00143293
-0.000649832
0.00132018
-0.000687298
0.00117333
-0.000687992
0.00105277
-0.000659639
0.000956018
-0.000603761
0.000874385
-0.000524431
0.00081149
-0.000414631
0.000757172
-0.000269051
0.000724362
-6.82388e-05
0.00070857
0.000217149
0.000734156
0.000613838
0.000796616
0.00114875
0.000883099
0.00169535
0.000860924
0.00213681
0.000239232
0.00188081
-0.00132409
0.000982075
-0.00539448
-0.00925988
-0.00134942
0.00255514
-0.00131205
0.00141014
-0.00106818
0.00118906
-0.0007159
0.000967897
-0.000341077
0.000798506
3.59044e-05
0.000675792
0.000402116
0.000589806
0.000754424
0.000522076
0.00109283
0.000473082
0.00142036
0.000429641
0.00174434
0.000400384
0.00207306
0.000379848
0.00243912
0.000368101
0.00286059
0.000375141
0.00340925
0.000334439
0.00401902
0.000251153
0.00444429
-0.000186038
0.0043326
-0.00121239
0.00268678
-0.00374867
-0.0065731
0.00255514
0.00396528
0.00515434
0.00612223
0.00692074
0.00759653
0.00818634
0.00870841
0.00918149
0.00961114
0.0100115
0.0103914
0.0107595
0.0111346
0.011469
0.0117202
0.0115342
0.0103218
0.0065731
)
;

boundaryField
{
    movingWall
    {
        type            calculated;
        value           uniform 0;
    }
    fixedWalls
    {
        type            calculated;
        value           uniform 0;
    }
    frontAndBack
    {
        type            empty;
        value           nonuniform List<scalar> 0();
    }
}


// ************************************************************************* //
