/*--------------------------------*- C++ -*----------------------------------*\
  =========                 |
  \\      /  F ield         | OpenFOAM: The Open Source CFD Toolbox
   \\    /   O peration     | Website:  https://openfoam.org
    \\  /    A nd           | Version:  10
     \\/     M anipulation  |
\*---------------------------------------------------------------------------*/
FoamFile
{
    format      ascii;
    class       volVectorField;
    location    "5.375";
    object      U;
}
// * * * * * * * * * * * * * * * * * * * * * * * * * * * * * * * * * * * * * //

dimensions      [0 1 -1 0 0 0 0];

internalField   nonuniform List<vector> 
400
(
(-9.22818e-05 8.56834e-05 0)
(-0.000814289 0.000312258 0)
(-0.00203721 0.000384373 0)
(-0.00323335 0.000396319 0)
(-0.0044242 0.000392487 0)
(-0.00557125 0.000383729 0)
(-0.00665269 0.000369305 0)
(-0.00764522 0.000345852 0)
(-0.00851839 0.000309593 0)
(-0.00923435 0.000256664 0)
(-0.00974803 0.000183571 0)
(-0.0100087 8.81732e-05 0)
(-0.00996152 -3.26241e-05 0)
(-0.00955336 -0.000176854 0)
(-0.00874242 -0.000338375 0)
(-0.0075068 -0.000505259 0)
(-0.00586603 -0.000655284 0)
(-0.00393432 -0.000747759 0)
(-0.00175026 -0.000696784 0)
(-0.000290633 -0.000315839 0)
(-0.000338862 0.00082254 0)
(-0.00183796 0.00176971 0)
(-0.00410122 0.00205426 0)
(-0.00630778 0.00207849 0)
(-0.00847282 0.00201617 0)
(-0.0105241 0.00191273 0)
(-0.0124144 0.00177037 0)
(-0.014099 0.00158081 0)
(-0.0155264 0.00133354 0)
(-0.0166374 0.00101773 0)
(-0.017365 0.000623365 0)
(-0.0176397 0.000142378 0)
(-0.0173874 -0.000425889 0)
(-0.016537 -0.00106905 0)
(-0.0150377 -0.0017607 0)
(-0.0128692 -0.00245226 0)
(-0.0100755 -0.00305786 0)
(-0.00682958 -0.00341826 0)
(-0.00320532 -0.00321119 0)
(-0.000641539 -0.00171462 0)
(-0.000433501 0.00212703 0)
(-0.00224732 0.00407831 0)
(-0.00493 0.00463908 0)
(-0.00752894 0.00465685 0)
(-0.0100664 0.00448135 0)
(-0.0124603 0.00420568 0)
(-0.0146577 0.00383896 0)
(-0.0166091 0.0033695 0)
(-0.0182585 0.00278055 0)
(-0.0195426 0.00205415 0)
(-0.0203909 0.00117372 0)
(-0.0207246 0.000127069 0)
(-0.0204553 -0.00108467 0)
(-0.0194988 -0.00243977 0)
(-0.0177886 -0.00388524 0)
(-0.0152863 -0.00532304 0)
(-0.0120258 -0.00658032 0)
(-0.00819724 -0.00733328 0)
(-0.00387868 -0.00693517 0)
(-0.000788563 -0.00391861 0)
(-0.000462875 0.00347913 0)
(-0.00241167 0.00648531 0)
(-0.00529051 0.00732371 0)
(-0.00807154 0.00732721 0)
(-0.0107895 0.00703407 0)
(-0.013361 0.00658596 0)
(-0.0157352 0.00599819 0)
(-0.0178652 0.00525508 0)
(-0.0196961 0.00433254 0)
(-0.0211642 0.00320331 0)
(-0.022195 0.00184108 0)
(-0.022702 0.000226952 0)
(-0.0225817 -0.0016431 0)
(-0.0217198 -0.0037482 0)
(-0.0200098 -0.00601581 0)
(-0.0173688 -0.00830102 0)
(-0.013793 -0.010334 0)
(-0.00947912 -0.0115917 0)
(-0.00450725 -0.0110369 0)
(-0.000914847 -0.00633554 0)
(-0.000476854 0.00490585 0)
(-0.00252138 0.00903586 0)
(-0.00555384 0.0101677 0)
(-0.00848302 0.0101596 0)
(-0.0113567 0.00975182 0)
(-0.0140931 0.00913737 0)
(-0.0166475 0.00833833 0)
(-0.0189787 0.00733471 0)
(-0.0210368 0.00609365 0)
(-0.0227602 0.00457547 0)
(-0.024071 0.00273818 0)
(-0.0248703 0.000545259 0)
(-0.0250337 -0.00202206 0)
(-0.0244076 -0.00495474 0)
(-0.0228229 -0.00817307 0)
(-0.02012 -0.0114899 0)
(-0.0162142 -0.0145219 0)
(-0.0112857 -0.0164873 0)
(-0.00542005 -0.0158381 0)
(-0.00110678 -0.00918385 0)
(-0.00049161 0.00639387 0)
(-0.00264034 0.0117205 0)
(-0.00584302 0.0131666 0)
(-0.00893911 0.0131543 0)
(-0.0119903 0.0126412 0)
(-0.0149183 0.0118759 0)
(-0.017687 0.0108885 0)
(-0.020265 0.00965451 0)
(-0.0226115 0.0081309 0)
(-0.0246713 0.00626166 0)
(-0.0263674 0.00398164 0)
(-0.0275913 0.00122462 0)
(-0.0281961 -0.00206309 0)
(-0.0279759 -0.00590638 0)
(-0.0266736 -0.0102429 0)
(-0.0240099 -0.0148572 0)
(-0.0197564 -0.0192348 0)
(-0.0140161 -0.0222552 0)
(-0.00686375 -0.0216523 0)
(-0.00143461 -0.0126925 0)
(-0.000510495 0.00795248 0)
(-0.00278415 0.0145582 0)
(-0.00618797 0.0163424 0)
(-0.00947905 0.0163343 0)
(-0.0127354 0.0157273 0)
(-0.0158835 0.0148315 0)
(-0.0188996 0.0136869 0)
(-0.0217665 0.0122656 0)
(-0.0244591 0.0105136 0)
(-0.0269369 0.00835525 0)
(-0.0291326 0.00569407 0)
(-0.0309362 0.00241902 0)
(-0.0321841 -0.00158235 0)
(-0.0326159 -0.00640384 0)
(-0.0318617 -0.012048 0)
(-0.0294651 -0.018313 0)
(-0.0249555 -0.0245562 0)
(-0.0182185 -0.0292176 0)
(-0.00925106 -0.0289737 0)
(-0.00203523 -0.0172784 0)
(-0.000533785 0.0095975 0)
(-0.00295588 0.0175784 0)
(-0.00659387 0.0197255 0)
(-0.0101055 0.0197271 0)
(-0.0135886 0.019036 0)
(-0.016976 0.0180311 0)
(-0.02026 0.016766 0)
(-0.0234442 0.0152122 0)
(-0.0265272 0.0133065 0)
(-0.0294957 0.0109525 0)
(-0.0323076 0.00801628 0)
(-0.0348712 0.00432461 0)
(-0.0370246 -0.000327682 0)
(-0.0384667 -0.00613396 0)
(-0.0387055 -0.0132577 0)
(-0.037048 -0.021601 0)
(-0.0326465 -0.0304525 0)
(-0.0248989 -0.0377252 0)
(-0.0135073 -0.0385565 0)
(-0.00325146 -0.0237337 0)
(-0.000562298 0.0113456 0)
(-0.00315893 0.0208115 0)
(-0.00706446 0.0233436 0)
(-0.0108166 0.0233536 0)
(-0.0145377 0.0225822 0)
(-0.0181684 0.0214869 0)
(-0.0217217 0.0201405 0)
(-0.025228 0.0185195 0)
(-0.0287207 0.0165569 0)
(-0.032229 0.0141396 0)
(-0.0357623 0.0110963 0)
(-0.0392827 0.00718241 0)
(-0.042651 0.00207426 0)
(-0.04559 -0.004605 0)
(-0.0475388 -0.0132737 0)
(-0.0475311 -0.0241103 0)
(-0.0442088 -0.0365326 0)
(-0.0360535 -0.04798 0)
(-0.0218376 -0.0515551 0)
(-0.00597032 -0.033747 0)
(-0.000599022 0.013217 0)
(-0.00340259 0.0242904 0)
(-0.00761129 0.0272213 0)
(-0.0116176 0.0272254 0)
(-0.0155749 0.0263659 0)
(-0.0194333 0.0251906 0)
(-0.0232302 0.0237992 0)
(-0.0270296 0.0221818 0)
(-0.0309091 0.0202782 0)
(-0.0349586 0.0179717 0)
(-0.0392682 0.0150659 0)
(-0.0439 0.0112523 0)
(-0.0488343 0.00607251 0)
(-0.053911 -0.00111439 0)
(-0.0586258 -0.0110456 0)
(-0.061908 -0.0245201 0)
(-0.0618884 -0.04147 0)
(-0.055504 -0.0594292 0)
(-0.0389209 -0.0695872 0)
(-0.0121972 -0.0508753 0)
(-0.000651011 0.0152409 0)
(-0.00370726 0.0280557 0)
(-0.00826117 0.0313821 0)
(-0.0125287 0.0313444 0)
(-0.0167052 0.0303697 0)
(-0.0207517 0.029109 0)
(-0.0247336 0.0276973 0)
(-0.0287512 0.026149 0)
(-0.0329333 0.0244272 0)
(-0.0374448 0.0224349 0)
(-0.0424877 0.0199832 0)
(-0.0482916 0.0167353 0)
(-0.0550733 0.0121219 0)
(-0.0629375 0.00525194 0)
(-0.0718629 -0.00508206 0)
(-0.0811716 -0.0203155 0)
(-0.0886932 -0.0420152 0)
(-0.0886334 -0.0697143 0)
(-0.0704463 -0.0948355 0)
(-0.0238764 -0.0830268 0)
(-0.00073297 0.0174659 0)
(-0.00411255 0.0321643 0)
(-0.00906583 0.0358527 0)
(-0.013594 0.0357041 0)
(-0.0179549 0.034557 0)
(-0.0221232 0.0331793 0)
(-0.0261936 0.031749 0)
(-0.0303023 0.0303153 0)
(-0.0346263 0.0288846 0)
(-0.0394072 0.0274158 0)
(-0.0449782 0.0257855 0)
(-0.0517952 0.0237199 0)
(-0.0604545 0.0206804 0)
(-0.0716675 0.0157083 0)
(-0.0862044 0.00724816 0)
(-0.104886 -0.00716798 0)
(-0.125423 -0.0323082 0)
(-0.135395 -0.0752987 0)
(-0.11221 -0.132348 0)
(-0.036808 -0.142594 0)
(-0.000873913 0.0199645 0)
(-0.00468934 0.0366626 0)
(-0.0101149 0.0406063 0)
(-0.0148946 0.0402295 0)
(-0.0193847 0.038832 0)
(-0.0235779 0.0372898 0)
(-0.0276011 0.0358152 0)
(-0.031618 0.0345016 0)
(-0.0358354 0.03342 0)
(-0.0405473 0.0326235 0)
(-0.0461933 0.0321288 0)
(-0.0534467 0.0318635 0)
(-0.0633368 0.0315673 0)
(-0.0774131 0.030624 0)
(-0.098 0.027626 0)
(-0.127298 0.0181742 0)
(-0.160594 -0.0100419 0)
(-0.174067 -0.0820939 0)
(-0.13916 -0.19425 0)
(-0.0424401 -0.234215 0)
(-0.00114734 0.0229596 0)
(-0.00561253 0.0419347 0)
(-0.0115817 0.0460651 0)
(-0.0165422 0.0453212 0)
(-0.021057 0.0434605 0)
(-0.0251576 0.0415414 0)
(-0.0289847 0.0398523 0)
(-0.0326996 0.0385441 0)
(-0.0365068 0.0377604 0)
(-0.0407029 0.0376827 0)
(-0.0457551 0.0385565 0)
(-0.0524376 0.0406877 0)
(-0.0620342 0.0444184 0)
(-0.0765582 0.0498021 0)
(-0.0990787 0.0553404 0)
(-0.131421 0.0521697 0)
(-0.16648 0.0151145 0)
(-0.172078 -0.0990879 0)
(-0.135676 -0.269138 0)
(-0.0443989 -0.33773 0)
(-0.00153309 0.0266567 0)
(-0.00670088 0.0468826 0)
(-0.0134679 0.0504906 0)
(-0.018729 0.0489154 0)
(-0.0233143 0.0466409 0)
(-0.0271936 0.0445896 0)
(-0.0305939 0.0429233 0)
(-0.0337022 0.0417411 0)
(-0.0366813 0.0412239 0)
(-0.0397237 0.0416768 0)
(-0.043148 0.0436096 0)
(-0.0475207 0.047806 0)
(-0.0539099 0.0553404 0)
(-0.0638791 0.0666927 0)
(-0.0798243 0.0795417 0)
(-0.10177 0.07856 0)
(-0.127183 0.0309476 0)
(-0.124475 -0.114097 0)
(-0.112491 -0.320886 0)
(-0.0392664 -0.433202 0)
(-0.00358201 0.0300914 0)
(-0.010967 0.0557212 0)
(-0.0171965 0.0592086 0)
(-0.0218198 0.0571687 0)
(-0.0256115 0.0536199 0)
(-0.0289277 0.0503143 0)
(-0.0318361 0.0475833 0)
(-0.0343504 0.0455945 0)
(-0.0364514 0.0445417 0)
(-0.0381051 0.0447551 0)
(-0.0392797 0.046883 0)
(-0.0399733 0.0519796 0)
(-0.0405649 0.0616864 0)
(-0.0408604 0.0763046 0)
(-0.0426007 0.0932144 0)
(-0.0428233 0.0917254 0)
(-0.0523241 0.0415942 0)
(-0.0452557 -0.111746 0)
(-0.0715002 -0.340338 0)
(-0.0164381 -0.503144 0)
(-0.00123866 0.0441524 0)
(-0.00891188 0.0583133 0)
(-0.020132 0.0585117 0)
(-0.0252659 0.0539505 0)
(-0.0299281 0.0506519 0)
(-0.0329042 0.0481362 0)
(-0.0349202 0.0461846 0)
(-0.0360961 0.044674 0)
(-0.0364423 0.0437641 0)
(-0.0357758 0.0437192 0)
(-0.0337588 0.0452294 0)
(-0.0296179 0.0491076 0)
(-0.0230699 0.0571544 0)
(-0.0113518 0.0691308 0)
(0.00205153 0.0837594 0)
(0.0262521 0.0829978 0)
(0.0308123 0.0389556 0)
(0.0411505 -0.0928095 0)
(-0.0159677 -0.328812 0)
(0.013569 -0.524254 0)
(-0.0122462 0.0333406 0)
(-0.0246461 0.0800376 0)
(-0.0246743 0.0785333 0)
(-0.0314659 0.073303 0)
(-0.0340304 0.0660501 0)
(-0.0349158 0.059793 0)
(-0.0340714 0.0545296 0)
(-0.0318735 0.0502244 0)
(-0.0284819 0.0468604 0)
(-0.0236987 0.0442756 0)
(-0.0175982 0.0429045 0)
(-0.00881086 0.0429811 0)
(0.002187 0.0461798 0)
(0.0202455 0.051936 0)
(0.0404558 0.0610729 0)
(0.0757926 0.061772 0)
(0.0874592 0.0333762 0)
(0.121202 -0.059655 0)
(0.056427 -0.293976 0)
(0.0563601 -0.509458 0)
(-0.0768904 0.0971848 0)
(-0.062586 0.0599504 0)
(-0.0648174 0.060068 0)
(-0.0438073 0.0534036 0)
(-0.0268326 0.0465181 0)
(-0.00736712 0.0413463 0)
(0.0110024 0.0375954 0)
(0.0292729 0.0343119 0)
(0.0460211 0.0318652 0)
(0.0635445 0.0294271 0)
(0.0784795 0.0279014 0)
(0.0970196 0.0266243 0)
(0.110242 0.0263647 0)
(0.136046 0.0272461 0)
(0.147391 0.0254407 0)
(0.195347 0.0211153 0)
(0.194526 -0.0125178 0)
(0.243667 -0.080905 0)
(0.170851 -0.267314 0)
(0.127564 -0.447132 0)
(0.119926 0.140562 0)
(0.152521 0.0860938 0)
(0.229884 0.0635821 0)
(0.28512 0.0482261 0)
(0.326616 0.0375661 0)
(0.364936 0.0298617 0)
(0.393731 0.0244348 0)
(0.425363 0.0204768 0)
(0.444899 0.0176449 0)
(0.474261 0.0154254 0)
(0.486359 0.0137363 0)
(0.516398 0.0126861 0)
(0.521785 0.0115268 0)
(0.555287 0.0113764 0)
(0.551497 0.00984551 0)
(0.588545 0.00672466 0)
(0.561996 -0.00226424 0)
(0.573382 -0.0265309 0)
(0.43499 -0.0728081 0)
(0.278482 -0.152756 0)
)
;

boundaryField
{
    movingWall
    {
        type            fixedValue;
        value           uniform (1 0 0);
    }
    fixedWalls
    {
        type            noSlip;
    }
    frontAndBack
    {
        type            empty;
    }
}


// ************************************************************************* //
