/*--------------------------------*- C++ -*----------------------------------*\
  =========                 |
  \\      /  F ield         | OpenFOAM: The Open Source CFD Toolbox
   \\    /   O peration     | Website:  https://openfoam.org
    \\  /    A nd           | Version:  10
     \\/     M anipulation  |
\*---------------------------------------------------------------------------*/
FoamFile
{
    format      ascii;
    class       surfaceScalarField;
    location    "4.625";
    object      phi;
}
// * * * * * * * * * * * * * * * * * * * * * * * * * * * * * * * * * * * * * //

dimensions      [0 3 -1 0 0 0 0];

internalField   nonuniform List<scalar> 
890
(
0.00984644
0.000153563
0.00971898
0.000127456
0.00946236
0.000256624
0.00942078
4.15808e-05
0.000154034
0.00926674
0.0101231
3.04268e-05
0.0101991
5.1462e-05
0.0104029
5.28898e-05
0.0104697
-2.52367e-05
-6.05772e-05
0.0106843
0.0100713
-4.08242e-05
0.0102139
-9.11849e-05
0.0103827
-0.000115873
0.0105178
-0.000160406
-0.00018718
0.0106444
0.0100879
-0.000128764
0.0102129
-0.000216168
0.0103372
-0.000240118
0.0104135
-0.000236782
-0.000254355
0.0104807
0.00987124
0.00965507
0.00941495
0.00917817
0.00892381
0.00926617
-9.4821e-05
9.5388e-05
0.00929256
-0.000269662
0.000243276
0.00940255
-0.000345858
0.00023587
0.00960761
-0.000466522
0.000261461
0.00985564
-0.000620892
0.000372861
0.0101138
-0.000852729
0.000594604
0.0103706
-0.00119723
0.000940419
0.0106034
-0.00156737
0.0013346
0.0107729
-0.00195666
0.00178716
0.0108576
-0.00234138
0.00225664
0.010876
-0.00265913
0.00264075
0.0107957
-0.00290428
0.00298459
0.0106033
-0.00298366
0.00317604
0.0103089
-0.00283828
0.00313271
0.00993443
-0.00265181
0.00302624
0.00950125
-0.0023483
0.00278149
0.00900028
-0.00184159
0.00234255
0.00846771
-0.00134169
0.00187426
0.00794201
-0.000859847
0.00138555
0.00738361
-0.000266138
0.000824543
0.00679858
0.000292368
0.000292664
0.0062558
0.000636547
-9.37681e-05
0.00585358
0.000733589
-0.000331368
0.00564479
0.000740407
-0.00053162
0.00561158
0.000776803
-0.000743589
0.00569304
0.000846493
-0.000927955
0.00581985
0.000889088
-0.0010159
0.00594063
0.00086235
-0.000983134
0.00603071
0.000767436
-0.000857513
0.00608682
0.000631148
-0.000687255
0.00611663
0.000483916
-0.000513733
0.00613013
0.000348159
-0.000361655
0.00613521
0.000235774
-0.000240858
0.00613672
0.000150161
-0.000151671
0.00613705
8.93744e-05
-8.96982e-05
0.00613713
4.88718e-05
-4.89597e-05
0.00613724
2.35372e-05
-2.36469e-05
0.0061374
8.70712e-06
-8.86337e-06
0.00613766
7.25338e-07
-9.82574e-07
0.00613767
-3.00151e-06
2.98958e-06
0.00613763
-4.26065e-06
4.29656e-06
0.00613754
-4.42743e-06
4.52173e-06
0.00613742
-3.70259e-06
3.81824e-06
0.0061373
-3.25547e-06
3.38349e-06
-2.07817e-06
2.16113e-06
0.0107479
-0.000158471
0.0107801
-0.00030182
0.0108455
-0.00041121
0.0109329
-0.000553967
0.0110134
-0.000701393
0.0110746
-0.0009139
0.0110597
-0.00118234
0.0109962
-0.00150389
0.0108578
-0.00181831
0.0106257
-0.00210928
0.0103594
-0.00239281
0.00998816
-0.00253302
0.00950092
-0.00249643
0.008969
-0.00230636
0.00836896
-0.00205177
0.00771924
-0.00169859
0.0070639
-0.00118625
0.00639551
-0.000673302
0.00572456
-0.000188897
0.0051001
0.000358325
0.00458649
0.000805981
0.00426985
0.000953181
0.00414963
0.000853815
0.00419021
0.000699827
0.00435218
0.000614831
0.0045952
0.000603468
0.00487339
0.000610901
0.00514601
0.00058973
0.00538618
0.000527263
0.00558243
0.000434898
0.0057343
0.000332046
0.00584696
0.000235499
0.00592757
0.000155172
0.00598333
9.43995e-05
0.00602065
5.20478e-05
0.00604479
2.4738e-05
0.0060598
8.52476e-06
0.0060687
-1.9505e-07
0.00607379
-4.35938e-06
0.00607651
-5.72555e-06
0.00607781
-5.56257e-06
0.00607831
-4.92843e-06
0.00607842
-3.80856e-06
0.00607831
-3.14861e-06
-1.92796e-06
0.0107377
-0.000251692
0.0107748
-0.000338982
0.0108143
-0.000450645
0.0108184
-0.000558077
0.0108068
-0.000689797
0.0107523
-0.000859402
0.0106063
-0.00103638
0.0104135
-0.00131105
0.0101517
-0.00155649
0.00984793
-0.00180555
0.00948671
-0.00203159
0.00892673
-0.00197304
0.00827547
-0.00184517
0.00760637
-0.00163726
0.00680218
-0.00124758
0.00595708
-0.000853485
0.00521582
-0.000444985
0.00458365
-4.1131e-05
0.00406016
0.000334588
0.00374118
0.000677301
0.00366655
0.00088061
0.00375769
0.000862042
0.00390432
0.000707185
0.00405742
0.000546727
0.00422442
0.000447831
0.00442373
0.000404166
0.00465329
0.000381338
0.00489256
0.000350462
0.00511793
0.000301889
0.00531247
0.000240355
0.00546854
0.000175983
0.00558603
0.000118004
0.00566949
7.17196e-05
0.0057255
3.83897e-05
0.00576096
1.65801e-05
0.00578208
3.61755e-06
0.00579371
-3.10515e-06
0.00579948
-5.96321e-06
0.00580172
-6.596e-06
0.00580209
-6.10077e-06
0.0058016
-5.06413e-06
0.00580072
-4.0533e-06
0.00579986
-2.95006e-06
0.00579902
-2.30991e-06
-1.36937e-06
0.0105125
-0.000283428
0.0104944
-0.000320928
0.0104356
-0.000391829
0.0103074
-0.000429846
0.010137
-0.000519423
0.00987325
-0.000595669
0.0095326
-0.000695739
0.00908136
-0.000859812
0.00849017
-0.000965297
0.00788671
-0.00120209
0.0071733
-0.00131817
0.0062233
-0.00102304
0.00503355
-0.000655428
0.00374388
-0.000347581
0.00264132
-0.000145025
0.00185158
-6.37392e-05
0.00140138
5.21035e-06
0.0012462
0.000114052
0.00132917
0.000251617
0.00162564
0.00038083
0.00206765
0.000438596
0.00251963
0.000410067
0.00289677
0.000330043
0.00319122
0.000252282
0.00343813
0.000200922
0.00367016
0.000172128
0.00389911
0.000152392
0.00411827
0.000131301
0.0043144
0.00010576
0.00447664
7.81143e-05
0.00460077
5.18549e-05
0.00468874
3.00283e-05
0.00474634
1.41178e-05
0.00478094
3.79467e-06
0.00479945
-1.93553e-06
0.00480762
-4.54724e-06
0.00480983
-5.31942e-06
0.00480894
-5.07018e-06
0.00480671
-4.36218e-06
0.00480413
-3.52005e-06
0.00480175
-2.68402e-06
0.00479969
-2.00186e-06
0.00479814
-1.3963e-06
0.00479686
-1.03277e-06
-5.83525e-07
0.00864039
0.00831946
0.00792763
0.00749778
0.00697836
0.00638269
0.00568695
0.00482714
0.00386184
0.00265975
0.00134157
0.000318532
-0.000336896
-0.000684477
-0.000829502
-0.000893241
-0.000888031
-0.000773978
-0.000522361
-0.000141531
0.000297065
0.000707132
0.00103718
0.00128946
0.00149038
0.00166251
0.0018149
0.0019462
0.00205196
0.00213007
0.00218193
0.00221196
0.00222608
0.00222987
0.00222793
0.00222339
0.00221807
0.002213
0.00220864
0.00220512
0.00220243
0.00220043
0.00219903
0.002198
5.27866e-06
-5.27866e-06
-0.000150709
0.000155987
-0.000660879
0.000510171
-0.00151309
0.000852207
-0.00246226
0.000949171
-0.00329071
0.000828456
-0.00390429
0.000613581
-0.00427508
0.000370789
-0.00437488
9.98002e-05
-0.00422445
-0.00015043
-0.00384296
-0.000381493
-0.00325263
-0.000590326
-0.00250132
-0.000751317
-0.00164116
-0.000860161
-0.000726263
-0.000914894
0.000201642
-0.000927905
0.00110577
-0.000904125
0.00194913
-0.000843359
0.00267793
-0.000728805
0.00323854
-0.000560609
0.00359118
-0.000352643
0.00370266
-0.000111478
0.00358422
0.000118438
0.00330075
0.000283473
0.00295594
0.000344807
0.00264182
0.000314125
0.0024047
0.000237116
0.00225012
0.00015458
0.00216306
8.70627e-05
0.00212309
3.99672e-05
0.00211204
1.10518e-05
0.0021163
-4.25857e-06
0.00212714
-1.08443e-05
0.00213983
-1.26832e-05
0.00215188
-1.20591e-05
0.00216232
-1.04355e-05
0.00217088
-8.5597e-06
0.00217765
-6.77318e-06
0.00218285
-5.19509e-06
0.00218675
-3.89773e-06
0.00218959
-2.84251e-06
0.00219165
-2.06128e-06
0.00219306
-1.41299e-06
0.0021941
-1.0354e-06
-5.84444e-07
-0.000355254
0.000349975
-0.000977311
0.000778044
-0.00160222
0.00113508
-0.00211103
0.00136103
-0.00251866
0.0013568
-0.00279583
0.00110562
-0.00291354
0.000731298
-0.00286272
0.000319962
-0.00264403
-0.000118891
-0.00225957
-0.000534884
-0.00169767
-0.000943391
-0.000979236
-0.00130876
-0.000147052
-0.0015835
0.000736944
-0.00174416
0.00164709
-0.00182504
0.00253507
-0.00181589
0.00336671
-0.00173576
0.00412552
-0.00160217
0.00477687
-0.00138015
0.00529606
-0.0010798
0.0057088
-0.000765387
0.00604572
-0.000448394
0.00626351
-9.93545e-05
0.00629216
0.00025482
0.00613058
0.000506395
0.00584739
0.000597317
0.00553655
0.000547952
0.00526654
0.000424594
0.00506527
0.000288327
0.00493092
0.000174316
0.00484865
9.33261e-05
0.00480235
4.20437e-05
0.00477899
1.25117e-05
0.00476923
-2.92136e-06
0.00476688
-9.70911e-06
0.00476846
-1.20175e-05
0.00477183
-1.1933e-05
0.00477575
-1.06926e-05
0.00477952
-8.96456e-06
0.00478285
-7.22823e-06
0.00478559
-5.57573e-06
0.0047878
-4.27194e-06
0.00478942
-3.03527e-06
0.00479072
-2.34154e-06
-1.38007e-06
-0.000448784
0.000798759
-0.000545986
0.000875246
-0.000485313
0.0010744
-0.000354155
0.00122987
-0.000174857
0.0011775
4.73015e-05
0.000883466
0.000311474
0.000467125
0.000623046
8.38963e-06
0.00105083
-0.000546678
0.0015866
-0.00107065
0.00220062
-0.00155741
0.00288676
-0.0019949
0.00359627
-0.00229301
0.00429327
-0.00244116
0.00498227
-0.00251405
0.00561691
-0.00245053
0.00613643
-0.00225528
0.0065516
-0.00201734
0.00687117
-0.00169972
0.0070637
-0.00127233
0.00714343
-0.000845117
0.00719197
-0.000496932
0.00726405
-0.000171441
0.00731427
0.000204604
0.00726838
0.00055228
0.00710505
0.000760651
0.00686211
0.000790888
0.00659864
0.000688065
0.00636158
0.000525391
0.00617306
0.000362831
0.00603543
0.000230963
0.00594077
0.000136701
0.00587849
7.47938e-05
0.00583904
3.6523e-05
0.00581525
1.40888e-05
0.00580149
1.73799e-06
0.00579435
-4.78887e-06
0.00579113
-7.47347e-06
0.00579013
-7.96959e-06
0.00579035
-7.44554e-06
0.0057911
-6.32128e-06
0.00579205
-5.22672e-06
0.00579292
-3.90635e-06
0.00579375
-3.16671e-06
-1.9262e-06
-8.57415e-05
0.000884501
0.000264631
0.000524874
0.000759236
0.000579797
0.00135653
0.000632568
0.00199488
0.000539154
0.00261796
0.000260387
0.00322595
-0.000140863
0.00383338
-0.000599043
0.0044245
-0.0011378
0.00502706
-0.00167321
0.00561167
-0.00214202
0.00619539
-0.00257862
0.00676099
-0.00285861
0.00725236
-0.00293253
0.00767426
-0.00293595
0.008024
-0.00280026
0.00825261
-0.00248389
0.0083559
-0.00212063
0.00836995
-0.00171377
0.00830435
-0.00120673
0.00814759
-0.000688351
0.00794021
-0.000289552
0.00776558
3.18197e-06
0.00765313
0.000317057
0.00757112
0.000634291
0.00745677
0.000874997
0.0072828
0.000964864
0.00706511
0.000905753
0.00683749
0.000753013
0.00663008
0.000570236
0.0064596
0.000401446
0.00633004
0.00026626
0.00623746
0.000167371
0.00617457
9.94175e-05
0.0061337
5.49568e-05
0.0061083
2.71353e-05
0.00609295
1.05693e-05
0.00608414
1.33447e-06
0.00607931
-3.1413e-06
0.00607689
-5.02977e-06
0.00607583
-5.25864e-06
0.0060755
-4.90087e-06
0.00607552
-3.91796e-06
0.0060757
-3.35392e-06
-2.11305e-06
0.000979889
0.00174804
0.00256371
0.00345773
0.00436975
0.00522474
0.0060243
0.00675985
0.00740921
0.00799264
0.00849137
0.00889734
0.00921478
0.00941496
0.00950525
0.00948647
0.00934513
0.00909876
0.00877054
0.00838835
0.00799266
0.00760934
0.00728116
0.00706659
0.00695729
0.00690434
0.0068533
0.00677592
0.00667142
0.0065544
0.00644212
0.00634672
0.00627323
0.00622098
0.00618624
0.00616441
0.00615134
0.00614381
0.00613968
0.00613764
0.00613668
0.0061363
0.0061362
0.00613623
)
;

boundaryField
{
    inlet
    {
        type            calculated;
        value           nonuniform List<scalar> 5(-0.01 -0.01 -0.01 -0.01 -0.01);
    }
    outlet
    {
        type            calculated;
        value           nonuniform List<scalar> 10(0.00613721 0.00607816 0.00579846 0.00479608 0.00219742 0.00219468 0.00479152 0.00579429 0.00607589 0.00613628);
    }
    upperWall
    {
        type            calculated;
        value           uniform 0;
    }
    lowerWall
    {
        type            calculated;
        value           uniform 0;
    }
    frontAndBack
    {
        type            empty;
        value           nonuniform List<scalar> 0();
    }
}


// ************************************************************************* //
