/*--------------------------------*- C++ -*----------------------------------*\
  =========                 |
  \\      /  F ield         | OpenFOAM: The Open Source CFD Toolbox
   \\    /   O peration     | Website:  https://openfoam.org
    \\  /    A nd           | Version:  10
     \\/     M anipulation  |
\*---------------------------------------------------------------------------*/
FoamFile
{
    format      ascii;
    class       volVectorField;
    location    "5.125";
    object      U;
}
// * * * * * * * * * * * * * * * * * * * * * * * * * * * * * * * * * * * * * //

dimensions      [0 1 -1 0 0 0 0];

internalField   nonuniform List<vector> 
496
(
(10.001 0.0876748 0)
(9.90115 -0.161757 0)
(10.1368 -0.164532 0)
(10.7035 -0.180616 0)
(10.1142 0.520143 0)
(9.78809 -1.2235 0)
(10.2123 -0.414554 0)
(10.8142 -1.06816 0)
(10.8347 1.40281 0)
(9.11425 -2.84596 0)
(11.153 -0.169945 0)
(10.7165 -3.88208 0)
(12.4065 1.5219 0)
(7.87 -2.54178 0)
(13.2254 0.748097 0)
(9.87791 -6.35357 0)
(11.4391 -0.247719 2.90304e-18)
(12.1214 -0.164667 -3.59728e-19)
(11.6154 -0.505621 -5.26647e-19)
(12.4482 0.119837 1.86051e-18)
(12.89 -2.07904 -2.37988e-18)
(12.9811 -0.389345 -1.50056e-18)
(13.575 -5.44572 -3.43608e-17)
(15.2376 -4.24385 6.33854e-17)
(12.6664 -0.202761 0)
(12.9656 -0.126662 0)
(13.1683 -0.0791742 0)
(13.2168 0.0348532 0)
(13.0026 0.0619431 0)
(13.4039 -0.276236 0)
(13.6657 -0.570038 0)
(13.8019 -0.656015 0)
(12.422 0.911011 0)
(12.528 0.927262 0)
(12.8919 0.512978 0)
(13.2576 0.488881 0)
(11.7168 -2.93416 0)
(10.8224 -1.97911 0)
(8.66101 -1.09088 0)
(11.6476 -1.16886 0)
(13.2588 0.176891 0)
(13.2237 0.273431 0)
(13.2126 0.422641 0)
(13.0986 0.430887 0)
(12.9706 0.52024 0)
(12.6889 0.451522 0)
(12.518 0.450817 0)
(12.3373 0.393115 0)
(12.4059 0.332593 0)
(12.3801 0.287573 0)
(12.5232 0.208712 0)
(12.4853 0.226885 0)
(12.5674 0.206686 0)
(12.4636 0.295544 0)
(12.3985 0.317833 0)
(12.1128 0.366174 0)
(11.7428 0.427905 0)
(11.3238 0.45396 0)
(11.0042 0.513314 0)
(10.7775 0.366046 0)
(10.7462 0.291176 0)
(10.8425 0.112356 0)
(11.25 0.0404545 0)
(11.5632 -0.0109797 0)
(12.1252 -0.0339896 0)
(12.3723 0.0570706 0)
(12.8197 0.0606153 0)
(12.8118 0.232477 0)
(12.8165 0.261358 0)
(12.3529 0.393617 0)
(11.8871 0.432268 0)
(11.2909 0.540479 0)
(10.756 0.631003 0)
(10.3009 0.610416 0)
(9.98137 0.583083 0)
(9.77061 0.409125 0)
(9.74316 0.250359 0)
(9.74782 0.142738 0)
(9.85645 0.0325701 0)
(10.0322 0.0592378 0)
(13.8791 -0.612178 0)
(13.8488 -0.493223 0)
(13.8036 -0.272094 0)
(13.6509 -0.235605 0)
(13.5041 -0.155394 0)
(13.2075 -0.208134 0)
(13.0648 -0.216254 0)
(12.9153 -0.211022 0)
(12.9576 -0.222403 0)
(13.0159 -0.233196 0)
(13.1542 -0.342354 0)
(13.2642 -0.237143 0)
(13.3954 -0.229743 0)
(13.4322 -0.00605147 0)
(13.387 0.130178 0)
(13.1816 0.291965 0)
(12.9521 0.284812 0)
(12.5443 0.145164 0)
(12.267 0.0660764 0)
(11.8477 -0.204117 0)
(11.8446 -0.283585 0)
(11.8211 -0.596457 0)
(12.191 -0.710099 0)
(12.4976 -0.828153 0)
(12.9468 -0.795247 0)
(13.3133 -0.613748 0)
(13.6868 -0.442539 0)
(14.002 -0.0794601 0)
(14.0228 0.177341 0)
(13.8822 0.477604 0)
(13.4929 0.607711 0)
(13.224 0.504886 0)
(12.8487 0.326182 0)
(12.5905 0.0199127 0)
(12.1887 -0.0866008 0)
(11.8561 -0.142217 0)
(11.4892 -0.193644 0)
(11.4047 -0.141713 0)
(11.2213 -0.276908 0)
(11.3988 -0.231647 0)
(13.5319 0.404074 0)
(13.6499 0.532426 0)
(13.6991 0.722339 0)
(13.4235 0.754829 0)
(13.3279 0.779674 0)
(13.0251 0.684528 0)
(12.908 0.694049 0)
(12.8643 0.449258 0)
(12.7544 0.186485 0)
(12.735 -0.0334881 0)
(12.7637 -0.199967 0)
(12.9552 -0.151388 0)
(13.0557 -0.136709 0)
(13.2957 0.154727 0)
(13.5349 0.482202 0)
(13.4407 0.888528 0)
(13.2937 1.28797 0)
(12.689 1.40142 0)
(12.4958 1.43492 0)
(11.9502 0.767792 0)
(11.9206 0.191549 0)
(11.5639 -0.561866 0)
(11.5779 -0.898885 0)
(11.6469 -1.05187 0)
(11.714 -1.15344 0)
(12.1308 -0.881829 0)
(12.3314 -0.795918 0)
(13.0189 -0.129477 0)
(13.2426 0.158936 0)
(13.6708 0.801259 0)
(13.6122 1.14143 0)
(13.4972 1.42459 0)
(13.0454 1.53158 0)
(12.4774 1.40636 0)
(11.8876 1.35758 0)
(11.3948 0.99758 0)
(11.1101 0.645305 0)
(10.9885 0.289297 0)
(10.9112 -0.151668 0)
(10.9749 -0.252793 0)
(10.0804 -0.625191 0)
(10.6753 -0.275379 0)
(11.2181 -0.502777 0)
(10.6443 -0.116754 0)
(10.4733 0.14083 0)
(10.855 0.174431 0)
(10.479 0.332359 0)
(9.97742 0.344558 0)
(9.62524 0.160921 0)
(9.34613 0.0679183 0)
(9.24231 -0.0710599 0)
(9.10196 -0.294955 0)
(9.17065 -0.423514 0)
(9.72888 -0.408563 0)
(10.315 -0.195451 0)
(10.9385 0.0863614 0)
(11.5989 0.418238 0)
(11.8806 0.568197 0)
(12.1459 0.625146 0)
(11.3801 0.57982 0)
(10.7959 0.538131 0)
(9.39581 0.480386 0)
(8.46274 0.111881 0)
(7.84699 -0.331571 0)
(7.37564 -0.838155 0)
(7.90097 -1.14045 0)
(8.03761 -1.12834 0)
(9.37087 -0.875109 0)
(9.44072 -0.577706 0)
(10.6479 -0.0594852 0)
(11.1032 0.396031 0)
(11.7058 0.642838 0)
(12.4491 0.919691 0)
(12.7271 0.935104 0)
(13.6349 0.823324 0)
(13.4712 0.68012 0)
(14.3762 0.355579 0)
(13.6753 0.155787 0)
(14.0787 -0.082344 0)
(12.9429 -0.17588 0)
(11.9306 0.633423 -1.05448e-17)
(8.23988 -0.926358 -1.77785e-17)
(11.2305 0.147786 3.11088e-17)
(5.1455 -4.75968 -8.41818e-17)
(12.3988 -0.611431 1.0501e-17)
(7.69215 0.934996 1.76003e-17)
(11.8185 -0.0607474 -3.08748e-17)
(4.57908 4.86051 8.34717e-17)
(3.27139 4.06863 0)
(-3.06328 -1.38028 0)
(5.9185 0.771699 0)
(-1.93691 2.69792 0)
(-9.37002 -2.56393 3.26397e-17)
(11.5157 -5.36278 0)
(-10.2121 -0.986117 0)
(5.40406 2.9522 0)
(-3.0587 -3.40237 0)
(2.17516 1.75249 0)
(-2.21935 0.772033 0)
(-0.721919 -1.06221 0)
(1.60575 0.861925 0)
(-0.568899 1.24546 0)
(0.30059 0.52497 0)
(0.975765 0.451154 0)
(0.717398 0.36255 0)
(1.47717 0.380812 0)
(1.51633 -0.129004 0)
(1.59844 -0.628412 0)
(2.13563 -0.818221 0)
(3.1611 -0.767228 0)
(3.33695 -0.602392 0)
(4.16784 -0.079544 0)
(4.25618 0.510679 0)
(4.14145 0.948644 0)
(4.29264 1.36303 0)
(3.6086 1.44853 0)
(3.63808 1.34309 0)
(3.27671 0.822031 0)
(3.18345 -0.0133074 0)
(3.51712 -0.692846 0)
(3.13861 -1.37415 0)
(3.46662 -1.74711 0)
(4.26619 -1.73696 0)
(4.34359 -1.5875 0)
(4.67028 -1.21117 0)
(5.73131 -0.426516 0)
(5.59903 0.102896 0)
(5.77687 0.423866 0)
(5.91028 0.848851 0)
(5.66185 0.953566 0)
(5.02431 0.770259 0)
(5.15569 0.741826 0)
(4.92153 0.754452 0)
(4.59297 0.451049 0)
(5.03035 0.605589 0)
(4.90912 0.665159 0)
(0.868076 0.698607 0)
(-1.28253 -0.683641 0)
(1.44179 0.543729 0)
(1.44459 -1.17499 0)
(-1.31317 0.667489 0)
(0.814175 0.775704 0)
(1.57112 -0.460001 0)
(1.3371 -0.191782 0)
(0.979955 0.0220989 0)
(1.80224 -0.361941 0)
(2.09666 -0.75583 0)
(1.80602 -1.0414 0)
(2.06787 -1.41785 0)
(1.96319 -1.35378 0)
(1.66842 -0.979694 0)
(1.97929 -0.368286 0)
(2.3255 0.412035 0)
(2.43312 0.891005 0)
(2.77049 1.34565 0)
(3.21601 1.41555 0)
(3.53224 1.29086 0)
(4.21597 0.815777 0)
(4.19003 0.0693589 0)
(4.17307 -0.524322 0)
(3.86133 -1.14929 0)
(3.60802 -1.72445 0)
(3.02797 -1.88056 0)
(2.49226 -1.48918 0)
(2.20082 -1.16994 0)
(2.65379 -0.576988 0)
(2.25324 0.184058 0)
(2.46906 0.471249 0)
(2.87483 0.764521 0)
(2.89524 0.909857 0)
(3.22512 0.767438 0)
(3.33592 0.45846 0)
(3.74824 0.246333 0)
(4.19482 -0.161565 0)
(3.97344 -0.142779 0)
(4.67024 -0.00954055 0)
(11.9184 -1.49129 0)
(8.31629 2.60909 0)
(12.6349 -0.676928 0)
(10.3647 6.48171 0)
(10.7273 -1.30169 0)
(9.25634 2.79842 0)
(11.1552 0.358341 0)
(10.8952 3.79576 0)
(10.0373 -0.443626 0)
(9.88981 1.14423 0)
(10.1795 0.446949 0)
(10.9118 1.04204 0)
(9.95302 -0.0594264 0)
(9.99434 0.145339 0)
(10.1611 0.133146 0)
(10.7971 0.224612 0)
(13.0062 5.59393 3.91129e-17)
(15.8703 4.21495 -6.73901e-17)
(13.0505 2.22101 0)
(13.309 0.126711 0)
(11.6363 0.500189 0)
(12.517 -0.202981 0)
(11.455 0.205484 0)
(12.1607 0.205223 0)
(10.7642 2.91637 0)
(10.3406 1.45074 0)
(8.24242 2.2489 0)
(8.19778 0.419514 0)
(12.5955 -0.903462 0)
(12.7367 -1.50928 0)
(12.8442 -1.03432 0)
(13.1282 -0.478098 0)
(13.0908 -0.177384 0)
(13.4132 0.193563 0)
(13.6806 0.603208 0)
(13.6633 0.760671 0)
(12.6771 0.156864 0)
(12.9255 0.147022 0)
(13.0528 0.0489173 0)
(13.0128 -0.0943322 0)
(8.75254 -0.31581 0)
(9.64038 0.0406586 0)
(9.35063 0.0459452 0)
(9.71712 -0.158545 0)
(9.53176 0.149096 0)
(9.02212 0.0686862 0)
(9.54387 -0.163089 0)
(10.2638 -0.0673982 0)
(10.0251 0.00321427 0)
(10.7923 -0.140054 0)
(10.7784 -0.257522 0)
(11.0991 -0.417115 0)
(10.4836 -0.44132 0)
(9.79269 -0.531806 0)
(8.99495 -0.475767 0)
(7.83055 -0.32687 0)
(7.55716 -0.0209532 0)
(7.21229 0.4058 0)
(7.5463 0.646605 0)
(8.2603 0.795704 0)
(8.64044 0.679222 0)
(10.0344 0.396767 0)
(10.1675 0.206243 0)
(11.3426 -0.0291513 0)
(10.9491 -0.0434351 0)
(10.7456 -0.129847 0)
(9.85999 -0.323763 0)
(7.72149 -0.484903 0)
(7.33459 -0.698668 0)
(5.53487 -0.512991 0)
(5.83665 -0.297655 0)
(5.41841 0.125342 0)
(5.81608 0.384231 0)
(6.63345 0.464824 0)
(6.67357 0.596888 0)
(7.95809 0.325329 0)
(7.86644 0.26602 0)
(8.90058 0.0595411 0)
(8.88634 -0.0123347 0)
(9.44091 0.0915487 0)
(13.4614 -0.162409 0)
(13.8364 -0.168217 0)
(13.7193 -0.0924615 0)
(13.6408 -0.170941 0)
(13.5253 -0.148866 0)
(13.3203 -0.137599 0)
(13.4441 -0.160407 0)
(13.3542 -0.309539 0)
(13.5232 -0.461171 0)
(13.2599 -0.599447 0)
(13.2641 -0.853772 0)
(12.8594 -0.884061 0)
(12.7548 -0.776544 0)
(12.5375 -0.380282 0)
(12.4053 0.0452119 0)
(12.2943 0.387216 0)
(12.1157 0.642654 0)
(12.3994 0.575765 0)
(12.4398 0.582267 0)
(12.9035 0.209031 0)
(13.1558 -0.0419671 0)
(13.4925 -0.504125 0)
(13.6678 -0.894664 0)
(13.3312 -1.09116 0)
(13.5702 -1.27409 0)
(13.0733 -0.773695 0)
(13.6563 -0.553013 0)
(13.0755 0.190202 0)
(13.3867 0.313141 0)
(12.8282 0.433594 0)
(12.7208 0.374032 0)
(12.4075 0.207853 0)
(12.182 0.303376 0)
(12.3155 -0.00708005 0)
(12.257 -0.0722705 0)
(12.5753 -0.449001 0)
(12.5505 -0.678077 0)
(12.7346 -0.774346 0)
(12.7529 -0.936698 0)
(12.9126 -0.72147 0)
(13.7079 0.808042 0)
(13.7312 0.532218 0)
(13.7916 0.366285 0)
(13.7058 0.144902 0)
(13.6579 0.115049 0)
(13.5804 0.0122291 0)
(13.5442 -0.00516628 0)
(13.4841 -0.0780646 0)
(13.364 -0.162911 0)
(13.1683 -0.178214 0)
(13.0031 -0.272673 0)
(12.8116 -0.156237 0)
(12.6196 -0.110159 0)
(12.3984 0.0912402 0)
(12.3957 0.176261 0)
(12.451 0.30829 0)
(12.6673 0.473644 0)
(12.875 0.403238 0)
(13.1601 0.399784 0)
(13.3897 0.0863607 0)
(13.4981 0.00872881 0)
(13.4913 -0.274144 0)
(13.2571 -0.293737 0)
(13.044 -0.238315 0)
(12.6897 -0.145728 0)
(12.4377 0.072527 0)
(12.2823 0.0254803 0)
(12.1947 0.191701 0)
(12.3117 0.137651 0)
(12.3288 0.277671 0)
(12.6123 0.301903 0)
(12.68 0.379089 0)
(12.9957 0.407882 0)
(13.0154 0.26324 0)
(13.2181 0.17042 0)
(13.1194 -0.0822582 0)
(13.1411 -0.188343 0)
(12.9302 -0.200511 0)
(12.8778 -0.199149 0)
(12.5387 -0.0135025 0)
(13.0888 -0.154041 0)
(13.0613 -0.267122 0)
(13.1997 -0.327537 0)
(13.1478 -0.371581 0)
(13.1438 -0.334236 0)
(12.9778 -0.326719 0)
(12.9154 -0.310978 0)
(12.7724 -0.302416 0)
(12.627 -0.309598 0)
(12.3538 -0.272339 0)
(12.1114 -0.299964 0)
(11.8819 -0.281596 0)
(11.7127 -0.299932 0)
(11.5013 -0.208141 0)
(11.4983 -0.156254 0)
(11.5094 -0.0953301 0)
(11.7625 -0.0433562 0)
(11.86 -0.0648217 0)
(12.1642 -0.0668451 0)
(12.2124 -0.162252 0)
(12.284 -0.199269 0)
(12.0826 -0.294372 0)
(11.7863 -0.339085 0)
(11.4143 -0.373596 0)
(10.99 -0.430889 0)
(10.823 -0.350636 0)
(10.6182 -0.307256 0)
(10.6513 -0.147441 0)
(10.6705 -0.0769222 0)
(10.7614 0.0181427 0)
(11.0384 0.0607461 0)
(11.1161 0.0309871 0)
(11.4901 0.0105359 0)
(11.4376 -0.119869 0)
(11.6229 -0.177196 0)
(11.3505 -0.283506 0)
(11.2119 -0.337541 0)
(10.8074 -0.365059 0)
(10.5638 -0.416591 0)
(10.1308 -0.396306 0)
)
;

boundaryField
{
    inlet
    {
        type            fixedValue;
        value           uniform (10 0 0);
    }
    outlet
    {
        type            zeroGradient;
    }
    obstacle
    {
        type            noSlip;
    }
    upperWall
    {
        type            noSlip;
    }
    lowerWall
    {
        type            noSlip;
    }
    frontAndBack
    {
        type            empty;
    }
}


// ************************************************************************* //
