/*--------------------------------*- C++ -*----------------------------------*\
  =========                 |
  \\      /  F ield         | OpenFOAM: The Open Source CFD Toolbox
   \\    /   O peration     | Website:  https://openfoam.org
    \\  /    A nd           | Version:  10
     \\/     M anipulation  |
\*---------------------------------------------------------------------------*/
FoamFile
{
    format      ascii;
    class       volScalarField;
    location    "6";
    object      p;
}
// * * * * * * * * * * * * * * * * * * * * * * * * * * * * * * * * * * * * * //

dimensions      [0 2 -2 0 0 0 0];

internalField   nonuniform List<scalar> 
475
(
-0.0577711
-0.0831416
-0.112587
-0.136191
-0.158979
-0.0835711
-0.0968317
-0.113027
-0.132118
-0.149085
-0.0816342
-0.0910536
-0.105907
-0.12345
-0.139782
-0.0810391
-0.0917665
-0.106483
-0.122071
-0.135541
-0.0511791
-0.0780131
-0.101655
-0.119259
-0.13202
-0.177156
-0.187344
-0.191667
-0.195679
-0.202325
-0.211562
-0.220588
-0.22597
-0.225953
-0.219987
-0.208086
-0.191542
-0.172869
-0.154533
-0.137561
-0.122138
-0.11006
-0.103365
-0.100518
-0.0988047
-0.0960861
-0.0897045
-0.0796896
-0.0687372
-0.0580861
-0.0472805
-0.0358253
-0.0244468
-0.0149147
-0.00825864
-0.00406573
-0.00101274
0.00200528
0.00517067
0.00798326
0.00989198
0.0107027
0.0105649
0.00975858
0.00854647
0.0071207
0.00559338
0.00401463
0.00242054
0.000804891
-0.165554
-0.177318
-0.183706
-0.186815
-0.189282
-0.19188
-0.193806
-0.1936
-0.19084
-0.184982
-0.176378
-0.16626
-0.156206
-0.147059
-0.138271
-0.130066
-0.124321
-0.121931
-0.121289
-0.120107
-0.1166
-0.108322
-0.0959409
-0.0818971
-0.0677229
-0.0536628
-0.039918
-0.027065
-0.0164225
-0.00876636
-0.00358709
0.00037814
0.00406946
0.00759376
0.0104968
0.0123239
0.0129474
0.0125432
0.0114195
0.00987202
0.00811854
0.00629227
0.00445941
0.00265134
0.000878932
-0.153109
-0.16286
-0.168584
-0.171178
-0.171565
-0.170593
-0.168215
-0.164459
-0.159579
-0.154126
-0.149776
-0.147405
-0.1475
-0.145039
-0.138401
-0.135014
-0.136258
-0.137273
-0.136106
-0.132577
-0.125563
-0.114463
-0.099738
-0.0841494
-0.0687299
-0.0536287
-0.0391173
-0.0261053
-0.0155601
-0.00772296
-0.00203382
0.00242284
0.00631069
0.00973813
0.0124077
0.0140045
0.0144457
0.0138783
0.0125761
0.010822
0.00884359
0.00679689
0.00477029
0.00280621
0.000911666
-0.146328
-0.154005
-0.158679
-0.160357
-0.15908
-0.155571
-0.149705
-0.142365
-0.134016
-0.127638
-0.125068
-0.131232
-0.145968
-0.148156
-0.133966
-0.123263
-0.125314
-0.133869
-0.139098
-0.138093
-0.131105
-0.118192
-0.101665
-0.0840524
-0.0670256
-0.0511362
-0.0368493
-0.024577
-0.0146318
-0.00698064
-0.00112755
0.0035725
0.00755855
0.0109058
0.0134154
0.0148685
0.0152103
0.0145693
0.0131897
0.0113465
0.00923641
0.00706795
0.00493145
0.00288194
0.000917575
-0.141535
-0.148352
-0.152607
-0.153685
-0.151697
-0.146661
-0.139214
-0.129891
-0.120336
-0.112788
-0.110789
-0.120614
-0.138806
-0.148099
-0.145706
-0.139679
-0.135596
-0.134476
-0.134139
-0.130585
-0.122704
-0.11084
-0.0959683
-0.0798402
-0.0638694
-0.0488198
-0.0352731
-0.0236088
-0.0140514
-0.0064995
-0.000562368
0.00423477
0.00822605
0.0114668
0.0138168
0.0151203
0.0153479
0.0146262
0.0131875
0.0112791
0.00918745
0.00702845
0.00490247
0.00285589
0.000900289
-0.204547
-0.205753
-0.20763
-0.210074
-0.216158
-0.226588
-0.238737
-0.248276
-0.251104
-0.245037
-0.229369
-0.204671
-0.172666
-0.136345
-0.0994883
-0.0655285
-0.0368402
-0.0147613
0.000215038
0.00880187
0.0123881
0.0125723
0.010947
0.00882354
0.0069475
0.0054417
0.00426625
0.00290222
0.000974837
-0.00135466
-0.00363227
-0.00524441
-0.00587131
-0.00550812
-0.00438171
-0.0026523
-0.000728614
0.00101072
0.00237664
0.0032343
0.00354238
0.00335384
0.00275442
0.00184317
0.000704795
-0.197511
-0.200123
-0.203226
-0.208931
-0.218313
-0.231712
-0.245488
-0.255898
-0.259545
-0.25452
-0.239912
-0.215519
-0.183208
-0.14603
-0.107912
-0.0731114
-0.0436923
-0.0209916
-0.00551043
0.00356858
0.00773463
0.00848061
0.00729863
0.00584289
0.00505701
0.00454924
0.00336851
0.00143397
-0.000717015
-0.0025035
-0.003478
-0.00389592
-0.00419085
-0.00424342
-0.00365674
-0.0023741
-0.000530098
0.0010982
0.0024709
0.0033399
0.00363446
0.00341916
0.0027955
0.00186091
0.00070776
-0.206274
-0.204766
-0.205618
-0.210461
-0.221449
-0.236699
-0.251607
-0.263056
-0.267191
-0.262116
-0.247148
-0.222809
-0.191208
-0.154893
-0.11791
-0.0842603
-0.0558558
-0.0338688
-0.0189772
-0.0102038
-0.00586837
-0.00442742
-0.00452204
-0.00496244
-0.0048846
-0.00423545
-0.0034192
-0.00279991
-0.00239827
-0.00212279
-0.00206325
-0.00220936
-0.00243534
-0.00241115
-0.00180251
-0.000660329
0.000689979
0.00221649
0.00328778
0.00391417
0.00399492
0.00361719
0.00288336
0.00187796
0.000686911
-0.193387
-0.195619
-0.197658
-0.203958
-0.215251
-0.230316
-0.244959
-0.256057
-0.260773
-0.257325
-0.244322
-0.221928
-0.193065
-0.16052
-0.127557
-0.0979701
-0.073314
-0.054241
-0.0416392
-0.0343063
-0.0299678
-0.0272253
-0.0251382
-0.0228636
-0.020035
-0.0165942
-0.0129114
-0.00943809
-0.00665438
-0.00459634
-0.00303688
-0.00179982
-0.000619405
0.000568354
0.00175682
0.00292198
0.00397181
0.00479872
0.00523523
0.00518413
0.00478962
0.0040821
0.0031252
0.00197244
0.000684384
-0.227731
-0.205943
-0.203144
-0.204545
-0.212737
-0.226226
-0.239324
-0.248193
-0.250851
-0.246187
-0.233457
-0.21315
-0.188255
-0.16157
-0.1352
-0.111763
-0.0933256
-0.0804225
-0.0722131
-0.0672967
-0.0634094
-0.0588213
-0.0531189
-0.0466275
-0.0397551
-0.032439
-0.0245358
-0.0171105
-0.0111171
-0.00695067
-0.00412119
-0.00184571
0.000449392
0.00282279
0.00500124
0.00664264
0.00756949
0.0078307
0.00755237
0.00687523
0.005931
0.00479886
0.00352249
0.00215548
0.000724388
)
;

boundaryField
{
    inlet
    {
        type            zeroGradient;
    }
    outlet
    {
        type            fixedValue;
        value           uniform 0;
    }
    upperWall
    {
        type            zeroGradient;
    }
    lowerWall
    {
        type            zeroGradient;
    }
    frontAndBack
    {
        type            empty;
    }
}


// ************************************************************************* //
