/*--------------------------------*- C++ -*----------------------------------*\
  =========                 |
  \\      /  F ield         | OpenFOAM: The Open Source CFD Toolbox
   \\    /   O peration     | Website:  https://openfoam.org
    \\  /    A nd           | Version:  10
     \\/     M anipulation  |
\*---------------------------------------------------------------------------*/
FoamFile
{
    format      ascii;
    class       surfaceScalarField;
    location    "6";
    object      phi;
}
// * * * * * * * * * * * * * * * * * * * * * * * * * * * * * * * * * * * * * //

dimensions      [0 3 -1 0 0 0 0];

internalField   nonuniform List<scalar> 
890
(
0.0098476
0.000152404
0.00971804
0.000129553
0.0094693
0.000248743
0.00942233
4.69732e-05
0.000148301
0.00927403
0.0101199
3.25149e-05
0.0102019
4.75452e-05
0.0104051
4.54946e-05
0.0104649
-1.28144e-05
-6.68717e-05
0.0106801
0.0100718
-3.92635e-05
0.0102144
-9.50641e-05
0.0103794
-0.00011952
0.010517
-0.000150455
-0.000192766
0.0106429
0.0100879
-0.000127143
0.0102133
-0.000220508
0.010331
-0.000237219
0.0104162
-0.000235665
-0.000256595
0.0104801
0.00987286
0.00965235
0.00941513
0.00917947
0.00892287
0.00925844
-0.000106091
0.000121675
0.00928056
-0.000256027
0.000233911
0.00936718
-0.00036828
0.000281655
0.00951215
-0.000467581
0.000322614
0.0097004
-0.000577567
0.00038932
0.00991825
-0.000766215
0.000548367
0.0101421
-0.000997937
0.000774095
0.0103646
-0.00128827
0.00106573
0.0105612
-0.00160441
0.00140788
0.0107245
-0.00193373
0.00177044
0.0108263
-0.00224851
0.00214664
0.0108628
-0.00251034
0.00247387
0.0108315
-0.00268359
0.00271488
0.0106994
-0.00272966
0.00286177
0.0104701
-0.00264534
0.00287469
0.010197
-0.00250076
0.0027738
0.00989783
-0.00229429
0.00259348
0.00956839
-0.00198426
0.0023137
0.00922259
-0.00160656
0.00195235
0.00887538
-0.00121636
0.00156357
0.00853403
-0.000820041
0.00116139
0.00820818
-0.00043516
0.000761012
0.00792215
-0.000119675
0.000405705
0.00768266
0.000128755
0.000110731
0.00748536
0.000336787
-0.000139481
0.00730928
0.000528609
-0.000352532
0.00714486
0.000694904
-0.000530489
0.00699136
0.000798289
-0.000644782
0.00685018
0.000817521
-0.000676343
0.00672797
0.000784989
-0.000662773
0.00663201
0.000755796
-0.000659845
0.00656791
0.000759182
-0.000695082
0.00653279
0.000780584
-0.00074546
0.00651493
0.000783542
-0.000765683
0.00650085
0.000741882
-0.000727801
0.00648211
0.000653085
-0.000634348
0.00645761
0.000533644
-0.000509144
0.00643091
0.000404496
-0.000377792
0.00640627
0.000284893
-0.000260254
0.00638627
0.000184221
-0.000164221
0.00637167
0.000108899
-9.42979e-05
0.00636179
5.50194e-05
-4.51441e-05
0.00635566
2.23108e-05
-1.61771e-05
0.00635165
2.66379e-06
1.34887e-06
-6.70667e-06
8.75095e-06
0.0107423
-0.000168266
0.0107682
-0.000281901
0.0108104
-0.00041053
0.0108645
-0.000521661
0.0109371
-0.000650193
0.0109802
-0.000809328
0.0109938
-0.00101154
0.0109677
-0.00126215
0.0108915
-0.0015282
0.010763
-0.00180528
0.0105619
-0.00204742
0.0103153
-0.00226373
0.00999711
-0.00236536
0.00956237
-0.00229493
0.00907252
-0.00215549
0.00855917
-0.0019874
0.00803193
-0.00176705
0.00750881
-0.00146114
0.00700938
-0.00110712
0.00654555
-0.000752525
0.00611551
-0.000390011
0.00573661
-5.62547e-05
0.0054202
0.000196739
0.00515552
0.000393426
0.0049327
0.000559607
0.00476378
0.000697532
0.0046755
0.000783189
0.00467444
0.000799344
0.00473592
0.000756041
0.0048299
0.000691011
0.00494199
0.000643706
0.00507285
0.000628325
0.00522403
0.000629403
0.00538929
0.000618279
0.00555619
0.000574983
0.00571209
0.000497185
0.00584844
0.000397296
0.00596121
0.000291718
0.00605008
0.000196028
0.00611679
0.000117515
0.00616442
6.12624e-05
0.0061968
2.26433e-05
0.00621698
2.12946e-06
0.00622984
-1.01997e-05
-1.2087e-05
0.0107257
-0.000250996
0.0107754
-0.000331593
0.0107976
-0.000432723
0.0108004
-0.000524493
0.0107865
-0.000636338
0.0107334
-0.000756212
0.0106432
-0.000921333
0.0104877
-0.00110665
0.0102875
-0.001328
0.010041
-0.00155874
0.00975065
-0.00175711
0.00938645
-0.00189954
0.0088327
-0.0018116
0.00818171
-0.00164394
0.0075426
-0.00151638
0.00680624
-0.00125104
0.00601331
-0.000974124
0.00527913
-0.000726959
0.00463879
-0.000466788
0.00407717
-0.0001909
0.00363244
5.47159e-05
0.00329871
0.000277481
0.0030457
0.000449743
0.00288166
0.000557473
0.00282465
0.000616618
0.00288536
0.000636822
0.00304682
0.000621723
0.00326915
0.00057702
0.00350999
0.000515195
0.00374463
0.000456375
0.00397146
0.000416878
0.00420207
0.000397713
0.00444529
0.000386176
0.00469805
0.000365521
0.00494717
0.000325867
0.0051765
0.00026786
0.00537331
0.000200482
0.0055307
0.00013433
0.00564823
7.84964e-05
0.00572957
3.61776e-05
0.00578176
9.06961e-06
0.00581205
-7.65053e-06
0.00582765
-1.34677e-05
0.00583404
-1.65888e-05
-1.25188e-05
0.010506
-0.000276953
0.0105004
-0.000325966
0.0104342
-0.000366543
0.0103311
-0.000421427
0.0101674
-0.00047262
0.00995179
-0.000540574
0.00965929
-0.000628832
0.00927477
-0.000722129
0.00881054
-0.000863767
0.00822649
-0.000974693
0.00763308
-0.00116369
0.00693142
-0.00119788
0.00598604
-0.000866227
0.00482187
-0.000479765
0.00350521
-0.000199713
0.00233125
-7.70846e-05
0.00143611
-7.89906e-05
0.000839807
-0.000130651
0.000509597
-0.000136578
0.000374146
-5.5449e-05
0.000373779
5.50826e-05
0.000491979
0.000159281
0.000702161
0.000239561
0.000975244
0.000284391
0.00129305
0.000298813
0.0016377
0.000292174
0.00198727
0.000272147
0.00232116
0.000243135
0.00262476
0.000211595
0.00289702
0.000184111
0.00314919
0.000164709
0.00339443
0.000152473
0.00363847
0.00014214
0.00387639
0.0001276
0.00409577
0.000106487
0.00428328
8.03459e-05
0.00443044
5.33213e-05
0.00453535
2.94218e-05
0.00460255
1.1299e-05
0.00463955
-8.27893e-07
0.00465536
-6.73787e-06
0.00465715
-9.44348e-06
0.00465276
-9.06961e-06
0.00464469
-8.51882e-06
-5.60826e-06
0.00864592
0.00831995
0.00795341
0.00753198
0.00705936
0.00651879
0.00588996
0.00516783
0.00430406
0.00332937
0.00216567
0.000967792
0.000101565
-0.0003782
-0.000577913
-0.000654998
-0.000733989
-0.00086464
-0.00100122
-0.00105667
-0.00100158
-0.000842303
-0.000602742
-0.000318351
-1.95386e-05
0.000272635
0.000544783
0.000787918
0.000999513
0.00118362
0.00134833
0.00150081
0.00164294
0.00177054
0.00187703
0.00195738
0.0020107
0.00204012
0.00205142
0.00205059
0.00204385
0.00203441
0.00202534
0.00201682
5.98627e-05
-5.98627e-05
-4.66815e-06
6.45309e-05
-0.000311291
0.000306623
-0.000909504
0.000598213
-0.00165047
0.000740969
-0.00235615
0.000705679
-0.00293665
0.000580499
-0.00336252
0.000425865
-0.00361282
0.000250302
-0.00367716
6.43444e-05
-0.00356186
-0.000115305
-0.00327897
-0.000282883
-0.00284368
-0.00043529
-0.00228423
-0.000559453
-0.00163697
-0.000647256
-0.00095013
-0.000686845
-0.000256197
-0.000693933
0.000416711
-0.000672908
0.0010383
-0.000621586
0.00158199
-0.000543696
0.00203295
-0.000450952
0.00238604
-0.000353094
0.00264599
-0.000259955
0.00281864
-0.000172645
0.00290237
-8.37308e-05
0.00288925
1.31226e-05
0.00278742
0.000101832
0.00261056
0.000176855
0.00239512
0.000215445
0.00217786
0.000217252
0.00199122
0.000186647
0.00185175
0.000139467
0.0017631
8.86506e-05
0.00171947
4.36258e-05
0.00171305
6.42388e-06
0.00173265
-1.96011e-05
0.00176814
-3.54912e-05
0.00181021
-4.2066e-05
0.00185179
-4.15852e-05
0.00188876
-3.69629e-05
0.00191886
-3.01029e-05
0.00194234
-2.34838e-05
0.0019593
-1.69594e-05
0.00197208
-1.27806e-05
-7.3068e-06
-0.000221145
0.000161282
-0.000700058
0.000543444
-0.00122052
0.000827086
-0.00166879
0.00104648
-0.00202182
0.00109401
-0.00228622
0.000970078
-0.00244137
0.00073564
-0.00247789
0.000462389
-0.00238596
0.000158372
-0.0021708
-0.000150815
-0.00181968
-0.000466422
-0.00133146
-0.000771109
-0.00072485
-0.0010419
-2.19562e-05
-0.00126235
0.000722333
-0.00139155
0.00148999
-0.0014545
0.00224993
-0.00145387
0.00296743
-0.0013904
0.00361377
-0.00126793
0.00417491
-0.00110484
0.00463885
-0.000914887
0.00499491
-0.000709162
0.00524697
-0.000512011
0.00541826
-0.000343933
0.00553242
-0.000197898
0.00560445
-5.89031e-05
0.00563526
7.10242e-05
0.00564775
0.000164368
0.00563138
0.000231815
0.00555909
0.000289543
0.00540649
0.000339242
0.00518381
0.00036215
0.00493463
0.000337825
0.00471353
0.000264724
0.00455249
0.000167467
0.00445958
7.33142e-05
0.00442358
5.08837e-07
0.0044248
-4.32858e-05
0.00444622
-6.30085e-05
0.00447571
-6.64592e-05
0.00450503
-5.94137e-05
0.0045315
-4.99613e-05
0.00455215
-3.7608e-05
0.00456959
-3.022e-05
-1.83029e-05
-0.000480019
0.000641301
-0.000637703
0.000701129
-0.000621338
0.000810721
-0.000508733
0.000933872
-0.000348565
0.00093384
-0.000155585
0.000777099
6.3898e-05
0.000516157
0.000332794
0.000193493
0.000666896
-0.000175729
0.00109211
-0.000576031
0.00160559
-0.000979906
0.00218698
-0.00135249
0.00281996
-0.00167488
0.00348708
-0.00192946
0.00416656
-0.00207102
0.00482537
-0.00211332
0.00544794
-0.00207644
0.00600924
-0.00195171
0.00648835
-0.00174704
0.00687523
-0.00149171
0.00716823
-0.00120789
0.00737085
-0.000911777
0.0074862
-0.000627362
0.00752944
-0.000387178
0.00752011
-0.000188569
0.00746453
-3.31748e-06
0.00736878
0.00016677
0.00725751
0.000275637
0.00716758
0.000321751
0.00710792
0.000349203
0.00704748
0.000399677
0.00694335
0.000466285
0.0067736
0.000507573
0.00655524
0.000483079
0.00632913
0.00039358
0.00613214
0.000270306
0.00598223
0.000150421
0.00588181
5.71297e-05
0.00582128
-2.47234e-06
0.00579028
-3.54648e-05
0.00577735
-4.64865e-05
0.00577567
-4.82731e-05
0.00577881
-4.07551e-05
0.0057849
-3.6305e-05
-2.38011e-05
-0.000171304
0.000812605
2.596e-05
0.000503864
0.000379907
0.000456774
0.000866187
0.000447592
0.00141315
0.000386873
0.00197447
0.000215787
0.00253513
-4.45076e-05
0.00309176
-0.000363135
0.00366051
-0.000744486
0.00423837
-0.00115389
0.00483935
-0.00158089
0.00545129
-0.00196443
0.00605239
-0.00227598
0.00663275
-0.00250982
0.00717797
-0.00261624
0.00766303
-0.00259838
0.00808027
-0.00249368
0.00841892
-0.00229035
0.00867227
-0.00200039
0.00884455
-0.00166399
0.0089379
-0.00130125
0.00895992
-0.000933797
0.00892524
-0.000592682
0.00884168
-0.00030362
0.00872242
-6.93032e-05
0.00857614
0.000142959
0.00841703
0.000325881
0.00824309
0.000449575
0.00806864
0.000496199
0.00791808
0.000499762
0.00779866
0.0005191
0.00768929
0.000575654
0.00756185
0.000635016
0.00739853
0.000646398
0.00720214
0.000589969
0.00699215
0.000480299
0.006792
0.000350574
0.00661996
0.000229166
0.00648446
0.00013303
0.00638507
6.3925e-05
0.00631734
2.12373e-05
0.00627421
-5.14038e-06
0.00624905
-1.55898e-05
0.0062346
-2.18607e-05
-1.82445e-05
0.00093428
0.00167206
0.00241048
0.00318069
0.00395688
0.00472104
0.00545062
0.00615322
0.00681661
0.00743316
0.00799891
0.00850835
0.00894724
0.00929919
0.00955764
0.00973306
0.00983286
0.0098562
0.00980816
0.00970774
0.00956789
0.00939511
0.00920813
0.00901524
0.00880646
0.00859688
0.00839228
0.00819707
0.00801692
0.00785391
0.00771317
0.00759374
0.00748329
0.00736401
0.00722618
0.00707213
0.00691356
0.00676493
0.00663771
0.00653741
0.00646435
0.00641407
0.0063823
0.00636179
)
;

boundaryField
{
    inlet
    {
        type            calculated;
        value           nonuniform List<scalar> 5(-0.01 -0.01 -0.01 -0.01 -0.01);
    }
    outlet
    {
        type            calculated;
        value           nonuniform List<scalar> 10(0.0063496 0.00623522 0.00583447 0.00463777 0.00201121 0.00197939 0.00458059 0.0057904 0.00622904 0.0063523);
    }
    upperWall
    {
        type            calculated;
        value           uniform 0;
    }
    lowerWall
    {
        type            calculated;
        value           uniform 0;
    }
    frontAndBack
    {
        type            empty;
        value           nonuniform List<scalar> 0();
    }
}


// ************************************************************************* //
