/*--------------------------------*- C++ -*----------------------------------*\
  =========                 |
  \\      /  F ield         | OpenFOAM: The Open Source CFD Toolbox
   \\    /   O peration     | Website:  https://openfoam.org
    \\  /    A nd           | Version:  10
     \\/     M anipulation  |
\*---------------------------------------------------------------------------*/
FoamFile
{
    format      ascii;
    class       volVectorField;
    location    "6";
    object      U;
}
// * * * * * * * * * * * * * * * * * * * * * * * * * * * * * * * * * * * * * //

dimensions      [0 1 -1 0 0 0 0];

internalField   nonuniform List<vector> 
475
(
(0.974258 0.0159415 0)
(0.97617 0.00656127 0)
(0.949956 0.0312807 0)
(0.955306 0.00107755 0)
(0.919795 0.0301767 0)
(0.998534 0.00860055 0)
(1.01421 0.014771 0)
(1.0251 0.0154271 0)
(1.04354 0.00797601 0)
(1.05588 0.00220648 0)
(1.00006 -1.95647e-05 0)
(1.00955 -0.00279254 0)
(1.02452 -0.00448839 0)
(1.04073 -0.00966921 0)
(1.05674 -0.01439 0)
(0.99976 -0.0101699 0)
(1.01016 -0.0193343 0)
(1.02258 -0.0221691 0)
(1.03535 -0.0229234 0)
(1.04463 -0.0261304 0)
(0.980488 -0.00950388 0)
(0.969525 -0.0192883 0)
(0.953197 -0.0218961 0)
(0.933903 -0.0220715 0)
(0.907072 -0.0234112 0)
(0.926067 -0.0167456 0)
(0.932384 -0.034389 0)
(0.937064 -0.0453414 0)
(0.944215 -0.053793 0)
(0.955931 -0.0617981 0)
(0.975019 -0.0766992 0)
(0.9983 -0.0979171 0)
(1.02384 -0.125106 0)
(1.04739 -0.156649 0)
(1.06844 -0.189452 0)
(1.08353 -0.222189 0)
(1.09039 -0.250508 0)
(1.08983 -0.271033 0)
(1.08024 -0.282066 0)
(1.06268 -0.2813 0)
(1.03683 -0.26901 0)
(1.00351 -0.248908 0)
(0.969746 -0.220702 0)
(0.935886 -0.184434 0)
(0.902212 -0.144913 0)
(0.871737 -0.104353 0)
(0.839534 -0.0641781 0)
(0.806717 -0.0283372 0)
(0.779406 0.00178423 0)
(0.758379 0.0255126 0)
(0.740393 0.043908 0)
(0.723044 0.0594137 0)
(0.706083 0.0707997 0)
(0.690564 0.0754701 0)
(0.677347 0.0750251 0)
(0.666866 0.074604 0)
(0.659332 0.0772273 0)
(0.654668 0.0812531 0)
(0.652131 0.0826781 0)
(0.650558 0.0788555 0)
(0.648914 0.0697439 0)
(0.646741 0.0572783 0)
(0.64417 0.0437587 0)
(0.641612 0.0311997 0)
(0.639423 0.0205698 0)
(0.637723 0.012523 0)
(0.636565 0.00669587 0)
(0.635768 0.00302105 0)
(0.635363 0.000798464 0)
(0.63496 -0.000405672 0)
(1.06854 -0.00902213 0)
(1.07774 -0.0207956 0)
(1.08355 -0.0326102 0)
(1.08612 -0.0435103 0)
(1.08942 -0.0558037 0)
(1.09328 -0.0730744 0)
(1.09698 -0.0951515 0)
(1.09798 -0.123679 0)
(1.09513 -0.154139 0)
(1.08727 -0.186673 0)
(1.07085 -0.21692 0)
(1.04795 -0.241269 0)
(1.01677 -0.2556 0)
(0.979838 -0.256133 0)
(0.935435 -0.247474 0)
(0.882914 -0.23215 0)
(0.827664 -0.208151 0)
(0.77333 -0.173197 0)
(0.722277 -0.134047 0)
(0.67494 -0.0959387 0)
(0.63347 -0.0586726 0)
(0.594508 -0.023929 0)
(0.558257 0.00339011 0)
(0.52864 0.0236046 0)
(0.504139 0.0432519 0)
(0.483734 0.0639547 0)
(0.469895 0.0807324 0)
(0.464991 0.088609 0)
(0.468309 0.0873614 0)
(0.476806 0.0816405 0)
(0.48779 0.0768347 0)
(0.500299 0.0752154 0)
(0.514497 0.0753287 0)
(0.530348 0.0740855 0)
(0.547059 0.0692817 0)
(0.563376 0.0605661 0)
(0.578183 0.0492347 0)
(0.590799 0.0370693 0)
(0.600969 0.0258272 0)
(0.608778 0.0163842 0)
(0.614456 0.00937894 0)
(0.618391 0.00440381 0)
(0.620963 0.00150038 0)
(0.622464 -0.000253293 0)
(0.623523 -0.000914222 0)
(1.0679 -0.0223648 0)
(1.07721 -0.0319297 0)
(1.08109 -0.0446011 0)
(1.08223 -0.0555251 0)
(1.08046 -0.0687998 0)
(1.07649 -0.0834546 0)
(1.07011 -0.102099 0)
(1.05859 -0.12434 0)
(1.04328 -0.14851 0)
(1.02029 -0.175991 0)
(0.991544 -0.197955 0)
(0.955833 -0.217151 0)
(0.90996 -0.21973 0)
(0.859112 -0.205057 0)
(0.790783 -0.190155 0)
(0.713087 -0.176532 0)
(0.638272 -0.15806 0)
(0.562804 -0.128976 0)
(0.49338 -0.092309 0)
(0.432896 -0.0519765 0)
(0.384144 -0.0156036 0)
(0.346802 0.0141927 0)
(0.316845 0.0392021 0)
(0.29466 0.0590706 0)
(0.282936 0.0724841 0)
(0.282999 0.0791056 0)
(0.294391 0.0793909 0)
(0.314195 0.0744117 0)
(0.338024 0.0664871 0)
(0.362269 0.0588415 0)
(0.385533 0.0539128 0)
(0.408389 0.0520225 0)
(0.432034 0.0514713 0)
(0.456903 0.0498746 0)
(0.48222 0.0456963 0)
(0.506443 0.0387978 0)
(0.528021 0.0302244 0)
(0.545913 0.0213504 0)
(0.559702 0.0134874 0)
(0.569623 0.00721845 0)
(0.576131 0.00294132 0)
(0.580176 0.000158035 0)
(0.582232 -0.00106928 0)
(0.583354 -0.00178851 0)
(0.583449 -0.00151366 0)
(1.04949 -0.029874 0)
(1.05206 -0.0362393 0)
(1.04722 -0.0435623 0)
(1.0412 -0.0503518 0)
(1.02566 -0.0590049 0)
(1.00984 -0.0675735 0)
(0.983326 -0.0803355 0)
(0.952589 -0.0934987 0)
(0.9109 -0.111088 0)
(0.858402 -0.128752 0)
(0.798522 -0.145332 0)
(0.719984 -0.161156 0)
(0.64192 -0.152788 0)
(0.557495 -0.130382 0)
(0.427165 -0.100799 0)
(0.282145 -0.0573999 0)
(0.175787 -0.0225985 0)
(0.103866 -0.00779656 0)
(0.0614564 0.000761444 0)
(0.0408774 0.0115289 0)
(0.0349758 0.0247641 0)
(0.0418648 0.0378058 0)
(0.0590605 0.0473506 0)
(0.0833294 0.0522396 0)
(0.112729 0.0529246 0)
(0.145912 0.0507454 0)
(0.180924 0.0467627 0)
(0.215392 0.0416506 0)
(0.247427 0.0363352 0)
(0.276219 0.0318293 0)
(0.302356 0.0287218 0)
(0.327159 0.0267872 0)
(0.351633 0.0251299 0)
(0.375851 0.0227686 0)
(0.398929 0.0192228 0)
(0.419489 0.0147082 0)
(0.436365 0.00993475 0)
(0.448996 0.00563957 0)
(0.457524 0.00234527 0)
(0.462629 0.000129392 0)
(0.465094 -0.00108426 0)
(0.465912 -0.00163944 0)
(0.465527 -0.0016 0)
(0.465097 -0.00152406 0)
(0.463781 -0.000998823 0)
(0.880019 -0.0236585 0)
(0.848305 -0.0271081 0)
(0.814143 -0.0278512 0)
(0.776151 -0.0318198 0)
(0.730468 -0.0333886 0)
(0.683925 -0.0379935 0)
(0.622048 -0.0429213 0)
(0.561303 -0.0480125 0)
(0.477368 -0.0592177 0)
(0.391174 -0.0624716 0)
(0.282997 -0.0831366 0)
(0.144077 -0.0732933 0)
(0.0409355 -0.0134055 0)
(-0.0215568 0.0358351 0)
(-0.0503402 0.0556398 0)
(-0.0615553 0.0378614 0)
(-0.0688428 0.00329901 0)
(-0.0807658 -0.0196718 0)
(-0.0956797 -0.0251724 0)
(-0.105237 -0.020317 0)
(-0.104793 -0.0112319 0)
(-0.0934173 -0.00212736 0)
(-0.0728213 0.00448098 0)
(-0.0461857 0.00794424 0)
(-0.0167783 0.00924324 0)
(0.0129948 0.00923087 0)
(0.0413228 0.00853681 0)
(0.0670255 0.0075211 0)
(0.0896613 0.00641505 0)
(0.109363 0.00539662 0)
(0.126779 0.00456737 0)
(0.142661 0.00388295 0)
(0.157441 0.00323193 0)
(0.170989 0.0025283 0)
(0.182738 0.00176197 0)
(0.19208 0.00101854 0)
(0.198719 0.000408565 0)
(0.202782 -1.28018e-05 0)
(0.204741 -0.000249175 0)
(0.205196 -0.000355041 0)
(0.20477 -0.000389962 0)
(0.203931 -0.000369579 0)
(0.202963 -0.000303373 0)
(0.20215 -0.000242183 0)
(0.201125 -0.000144017 0)
(0.00500812 -0.0321177 0)
(0.00658878 -0.0306549 0)
(-0.0075258 -0.00922039 0)
(-0.0526222 0.0247313 0)
(-0.128416 0.0428196 0)
(-0.206015 0.0437139 0)
(-0.271665 0.037876 0)
(-0.322387 0.0302125 0)
(-0.354473 0.0217008 0)
(-0.368148 0.0124695 0)
(-0.364383 0.00249028 0)
(-0.343301 -0.00741577 0)
(-0.306486 -0.0164758 0)
(-0.256129 -0.0237365 0)
(-0.195354 -0.0291489 0)
(-0.128568 -0.0310492 0)
(-0.0596653 -0.0313081 0)
(0.00864409 -0.0298185 0)
(0.0734799 -0.0265288 0)
(0.131761 -0.0222762 0)
(0.18155 -0.0174815 0)
(0.221865 -0.0125022 0)
(0.252846 -0.00778164 0)
(0.27512 -0.00319733 0)
(0.288501 0.00280649 0)
(0.292182 0.0115221 0)
(0.285844 0.0203711 0)
(0.270704 0.0231474 0)
(0.249985 0.0184798 0)
(0.227729 0.0100109 0)
(0.207456 0.00238901 0)
(0.19127 -0.00199101 0)
(0.180029 -0.00333818 0)
(0.17359 -0.00322296 0)
(0.17126 -0.00279908 0)
(0.172052 -0.00254842 0)
(0.174917 -0.00237479 0)
(0.178871 -0.00212986 0)
(0.183102 -0.00181273 0)
(0.187063 -0.00145326 0)
(0.190427 -0.00109353 0)
(0.193104 -0.000786128 0)
(0.195148 -0.000532439 0)
(0.196545 -0.000363373 0)
(0.197932 -0.000193828 0)
(-0.00521884 0.0227259 0)
(-0.0404545 0.0458083 0)
(-0.0970198 0.0745785 0)
(-0.144828 0.0979504 0)
(-0.18942 0.103167 0)
(-0.220661 0.0932606 0)
(-0.242574 0.0737621 0)
(-0.251432 0.0509593 0)
(-0.247835 0.0250671 0)
(-0.231488 -0.00145708 0)
(-0.201402 -0.0283689 0)
(-0.158779 -0.0536064 0)
(-0.103279 -0.0757945 0)
(-0.0384339 -0.0934499 0)
(0.0345905 -0.104636 0)
(0.112121 -0.109691 0)
(0.187999 -0.10951 0)
(0.261097 -0.104607 0)
(0.329191 -0.0956484 0)
(0.389518 -0.0837337 0)
(0.440943 -0.069823 0)
(0.482394 -0.0554347 0)
(0.51343 -0.0419213 0)
(0.535071 -0.0293456 0)
(0.548859 -0.0179924 0)
(0.557391 -0.00819288 0)
(0.561843 0.00152759 0)
(0.563727 0.012186 0)
(0.564578 0.0232555 0)
(0.561716 0.0321043 0)
(0.550911 0.0350557 0)
(0.531111 0.0307337 0)
(0.506048 0.0217818 0)
(0.481546 0.0120556 0)
(0.462056 0.00399072 0)
(0.449368 -0.00172565 0)
(0.443175 -0.00516046 0)
(0.441747 -0.00670078 0)
(0.443142 -0.0068165 0)
(0.445867 -0.00614384 0)
(0.448971 -0.00504143 0)
(0.451757 -0.00395949 0)
(0.454321 -0.00285069 0)
(0.455919 -0.00216888 0)
(0.458052 -0.00124784 0)
(-0.0315071 0.00409341 0)
(-0.06164 0.0549755 0)
(-0.0637259 0.0827106 0)
(-0.0582455 0.104233 0)
(-0.0455885 0.108463 0)
(-0.0268314 0.09367 0)
(-0.00576237 0.0669186 0)
(0.017417 0.0360591 0)
(0.0474751 0.00346035 0)
(0.0856944 -0.0315138 0)
(0.134494 -0.0687647 0)
(0.190276 -0.104603 0)
(0.25222 -0.136475 0)
(0.318536 -0.162255 0)
(0.38588 -0.177206 0)
(0.452265 -0.183372 0)
(0.514887 -0.18173 0)
(0.572772 -0.172132 0)
(0.624619 -0.155596 0)
(0.667977 -0.13487 0)
(0.70196 -0.111414 0)
(0.727203 -0.0856493 0)
(0.743935 -0.0609494 0)
(0.752217 -0.040814 0)
(0.753711 -0.0232356 0)
(0.750375 -0.00462884 0)
(0.742306 0.011706 0)
(0.73092 0.0212668 0)
(0.720104 0.0249139 0)
(0.713037 0.0282516 0)
(0.708321 0.0350114 0)
(0.701189 0.0426814 0)
(0.6877 0.0454165 0)
(0.667581 0.0403003 0)
(0.64428 0.0291148 0)
(0.622308 0.0161849 0)
(0.604587 0.00523632 0)
(0.592056 -0.00219673 0)
(0.584209 -0.00604884 0)
(0.579847 -0.00735369 0)
(0.577932 -0.0070078 0)
(0.577294 -0.0061681 0)
(0.577648 -0.00477472 0)
(0.577941 -0.00395253 0)
(0.579035 -0.00244423 0)
(-0.0247005 0.138722 0)
(-0.010899 0.0957946 0)
(0.0168743 0.0889508 0)
(0.0600207 0.0906049 0)
(0.110955 0.0858148 0)
(0.166551 0.0688007 0)
(0.22329 0.0421089 0)
(0.278545 0.00613961 0)
(0.335233 -0.0355763 0)
(0.394665 -0.0796779 0)
(0.456366 -0.124287 0)
(0.518139 -0.164836 0)
(0.579894 -0.199743 0)
(0.639395 -0.226473 0)
(0.6949 -0.240618 0)
(0.745431 -0.243768 0)
(0.78877 -0.237691 0)
(0.824478 -0.221416 0)
(0.853439 -0.196653 0)
(0.875352 -0.165892 0)
(0.889007 -0.132181 0)
(0.894988 -0.0987371 0)
(0.895021 -0.0664799 0)
(0.889585 -0.0380425 0)
(0.879358 -0.015272 0)
(0.865911 0.0039395 0)
(0.850218 0.0206656 0)
(0.832874 0.032384 0)
(0.814777 0.0375162 0)
(0.798219 0.0394824 0)
(0.785197 0.043645 0)
(0.774655 0.0511768 0)
(0.763468 0.0577241 0)
(0.749097 0.0582538 0)
(0.730792 0.0512921 0)
(0.709842 0.0391217 0)
(0.688688 0.0256829 0)
(0.669649 0.0140394 0)
(0.654176 0.00567752 0)
(0.642524 0.000434947 0)
(0.634343 -0.00219695 0)
(0.628976 -0.00344074 0)
(0.625727 -0.00336592 0)
(0.623963 -0.00332194 0)
(0.622902 -0.00233272 0)
(0.0828022 0.00103316 0)
(0.117422 -0.00586864 0)
(0.206699 -0.00574556 0)
(0.279298 -0.00699388 0)
(0.352208 -0.0130451 0)
(0.429972 -0.0292983 0)
(0.505947 -0.0527717 0)
(0.578556 -0.08361 0)
(0.648293 -0.119603 0)
(0.714913 -0.157791 0)
(0.776744 -0.198464 0)
(0.831133 -0.234325 0)
(0.879132 -0.261521 0)
(0.918675 -0.281206 0)
(0.948167 -0.287936 0)
(0.96767 -0.282128 0)
(0.978498 -0.269149 0)
(0.983157 -0.245939 0)
(0.981098 -0.212614 0)
(0.974577 -0.175498 0)
(0.96438 -0.135577 0)
(0.949277 -0.0941925 0)
(0.931055 -0.0567809 0)
(0.911304 -0.0258372 0)
(0.891696 6.49943e-05 0)
(0.871297 0.022967 0)
(0.849613 0.0427624 0)
(0.828528 0.0559071 0)
(0.809502 0.0600969 0)
(0.792548 0.0586869 0)
(0.777656 0.058249 0)
(0.765049 0.0621938 0)
(0.754017 0.0682052 0)
(0.742801 0.0710486 0)
(0.729881 0.067463 0)
(0.714988 0.0579383 0)
(0.698993 0.0453232 0)
(0.683331 0.032464 0)
(0.669384 0.0213672 0)
(0.657989 0.0126324 0)
(0.649379 0.00657464 0)
(0.643395 0.00247918 0)
(0.639346 0.000288516 0)
(0.637069 -0.00103415 0)
(0.635229 -0.00131656 0)
)
;

boundaryField
{
    inlet
    {
        type            fixedValue;
        value           uniform (1 0 0);
    }
    outlet
    {
        type            zeroGradient;
    }
    upperWall
    {
        type            noSlip;
    }
    lowerWall
    {
        type            noSlip;
    }
    frontAndBack
    {
        type            empty;
    }
}


// ************************************************************************* //
