/*--------------------------------*- C++ -*----------------------------------*\
  =========                 |
  \\      /  F ield         | OpenFOAM: The Open Source CFD Toolbox
   \\    /   O peration     | Website:  https://openfoam.org
    \\  /    A nd           | Version:  10
     \\/     M anipulation  |
\*---------------------------------------------------------------------------*/
FoamFile
{
    format      ascii;
    class       volVectorField;
    location    "3.9";
    object      U;
}
// * * * * * * * * * * * * * * * * * * * * * * * * * * * * * * * * * * * * * //

dimensions      [0 1 -1 0 0 0 0];

internalField   nonuniform List<vector> 
8000
(
(-6.46437e-05 7.62379e-05 -1.5419e-05)
(-0.000470249 0.000180039 1.78791e-05)
(-0.00111384 0.000202036 2.77954e-05)
(-0.00172284 0.000202266 3.1921e-05)
(-0.002324 0.000196889 3.12101e-05)
(-0.00289343 0.000188462 2.76187e-05)
(-0.00341654 0.000176436 2.20757e-05)
(-0.00387919 0.00015979 1.47786e-05)
(-0.00426544 0.000137491 5.79883e-06)
(-0.00455845 0.000108518 -5.15281e-06)
(-0.00474015 7.27122e-05 -1.73104e-05)
(-0.00479193 3.02969e-05 -3.06264e-05)
(-0.00469622 -1.952e-05 -4.48022e-05)
(-0.00443888 -7.49276e-05 -5.95564e-05)
(-0.00401235 -0.000133284 -7.39031e-05)
(-0.00341734 -0.000190925 -8.63072e-05)
(-0.00266891 -0.000242461 -9.39993e-05)
(-0.00181462 -0.00027847 -9.2653e-05)
(-0.000842623 -0.000273663 -7.92891e-05)
(-0.000157591 -0.000142237 -2.43111e-05)
(-0.000166898 0.00051735 -6.30378e-05)
(-0.000879987 0.00092696 -3.27479e-05)
(-0.0019179 0.00100607 -2.12576e-05)
(-0.00290069 0.000991612 -1.31639e-05)
(-0.00385957 0.00094673 -9.28966e-06)
(-0.00475766 0.000882831 -7.83614e-06)
(-0.00557101 0.000799811 -7.85912e-06)
(-0.00627764 0.000695643 -9.26603e-06)
(-0.00685431 0.000568196 -1.21576e-05)
(-0.00727668 0.00041561 -1.67048e-05)
(-0.00751951 0.000237297 -2.29693e-05)
(-0.00755985 3.31269e-05 -3.11251e-05)
(-0.00737502 -0.000193267 -4.0409e-05)
(-0.00694608 -0.000435623 -5.07487e-05)
(-0.00626501 -0.000683901 -6.12315e-05)
(-0.00533533 -0.000923672 -7.01543e-05)
(-0.00418102 -0.00113414 -7.42159e-05)
(-0.00286905 -0.00127858 -6.86245e-05)
(-0.00138935 -0.00126161 -5.09569e-05)
(-0.000296279 -0.000758986 1.2666e-05)
(-0.000194179 0.00123 -8.34223e-05)
(-0.00100137 0.00204439 -5.43617e-05)
(-0.00216387 0.00219214 -4.2179e-05)
(-0.00326109 0.00214792 -3.23365e-05)
(-0.00432979 0.00203704 -2.64641e-05)
(-0.00532992 0.00188298 -2.28216e-05)
(-0.00623597 0.00168716 -2.05162e-05)
(-0.00702448 0.00144727 -1.95365e-05)
(-0.00767058 0.00116065 -2.00895e-05)
(-0.0081483 0.000825203 -2.24056e-05)
(-0.00843129 0.000440214 -2.66024e-05)
(-0.00849148 6.92906e-06 -3.29623e-05)
(-0.00830159 -0.000468178 -4.10531e-05)
(-0.00784036 -0.000972634 -5.0705e-05)
(-0.00709489 -0.00148643 -6.09405e-05)
(-0.00606452 -0.00198062 -6.9852e-05)
(-0.00477155 -0.00241388 -7.36552e-05)
(-0.00328908 -0.00271278 -6.68602e-05)
(-0.00160324 -0.00268889 -4.70062e-05)
(-0.00034594 -0.00170168 2.31113e-05)
(-0.000202203 0.00195528 -9.94459e-05)
(-0.00105422 0.00319081 -7.15912e-05)
(-0.00228406 0.00340751 -5.90589e-05)
(-0.00344365 0.00333283 -4.81048e-05)
(-0.00457596 0.00315691 -4.09661e-05)
(-0.00563978 0.00291507 -3.59318e-05)
(-0.00660984 0.00260988 -3.21507e-05)
(-0.00746274 0.00223834 -2.96824e-05)
(-0.0081731 0.00179665 -2.88206e-05)
(-0.00871355 0.00128149 -2.9896e-05)
(-0.00905494 0.000691445 -3.32209e-05)
(-0.00916698 2.89482e-05 -3.9257e-05)
(-0.00901614 -0.000699133 -4.73595e-05)
(-0.00857098 -0.00147653 -5.74524e-05)
(-0.00780935 -0.00227419 -6.85275e-05)
(-0.00672138 -0.00304849 -7.85384e-05)
(-0.00532264 -0.00373492 -8.30962e-05)
(-0.00369092 -0.00421737 -7.56367e-05)
(-0.00180813 -0.00420258 -5.33412e-05)
(-0.000391557 -0.00269878 2.58337e-05)
(-0.000208821 0.0027354 -0.000113834)
(-0.00110629 0.00442499 -8.65544e-05)
(-0.00240819 0.00471614 -7.37154e-05)
(-0.00363626 0.00461101 -6.19871e-05)
(-0.00484016 0.00436929 -5.41072e-05)
(-0.00597781 0.0040391 -4.83582e-05)
(-0.00702487 0.00362424 -4.39135e-05)
(-0.00795858 0.00312082 -4.08924e-05)
(-0.00875358 0.00252334 -3.96625e-05)
(-0.00938139 0.00182629 -4.06479e-05)
(-0.00980995 0.00102575 -4.42449e-05)
(-0.0100031 0.000121825 -5.0791e-05)
(-0.00991999 -0.000877803 -6.0716e-05)
(-0.00951772 -0.00195589 -7.30546e-05)
(-0.00875784 -0.00307635 -8.69338e-05)
(-0.00761369 -0.00418079 -9.99522e-05)
(-0.00608638 -0.00517715 -0.000106782)
(-0.00425685 -0.00589498 -9.9255e-05)
(-0.00210237 -0.0059142 -7.36123e-05)
(-0.000459264 -0.0038343 1.95302e-05)
(-0.000217567 0.00357102 -0.000129586)
(-0.0011722 0.00575286 -0.000102487)
(-0.00256441 0.00612608 -8.93357e-05)
(-0.00387848 0.00599186 -7.69252e-05)
(-0.00517205 0.00568555 -6.8498e-05)
(-0.00640225 0.0052693 -6.23234e-05)
(-0.00754632 0.00474833 -5.76054e-05)
(-0.00858294 0.00411754 -5.4529e-05)
(-0.00948749 0.003369 -5.35467e-05)
(-0.010231 0.00249369 -5.51893e-05)
(-0.0107786 0.00148317 -5.99638e-05)
(-0.0110887 0.000332616 -6.82686e-05)
(-0.0111106 -0.000955641 -8.1661e-05)
(-0.0107848 -0.00236646 -9.81925e-05)
(-0.0100501 -0.0038599 -0.000117286)
(-0.00885333 -0.00536353 -0.000136081)
(-0.00716889 -0.00675313 -0.000147752)
(-0.00507428 -0.00778795 -0.000141551)
(-0.00253825 -0.00788545 -0.000111636)
(-0.000564 -0.0051577 2.45703e-06)
(-0.000228761 0.00447458 -0.000148868)
(-0.00125435 0.00719486 -0.000121968)
(-0.00275756 0.00765922 -0.000108471)
(-0.00417625 0.00749723 -9.52401e-05)
(-0.00557803 0.00712772 -8.61462e-05)
(-0.00691938 0.00662864 -7.94771e-05)
(-0.00818012 0.00600705 -7.45055e-05)
(-0.00934154 0.00525652 -7.15188e-05)
(-0.0103812 0.00436602 -7.10918e-05)
(-0.011271 0.0033214 -7.39239e-05)
(-0.0119747 0.00210702 -8.06563e-05)
(-0.0124454 0.000708925 -9.15638e-05)
(-0.0126225 -0.00087983 -0.000110862)
(-0.0124256 -0.00265502 -0.000134349)
(-0.0117618 -0.0045803 -0.000162409)
(-0.0105375 -0.00657398 -0.000191683)
(-0.00867978 -0.00847636 -0.000213119)
(-0.00624519 -0.00995597 -0.00021161)
(-0.00318496 -0.0102095 -0.000176999)
(-0.000728518 -0.00675126 -3.20936e-05)
(-0.000242328 0.00546252 -0.000173309)
(-0.0013535 0.00877726 -0.000146964)
(-0.00298917 0.00934244 -0.000133016)
(-0.00453036 0.00915264 -0.000118588)
(-0.00605723 0.00872017 -0.000108408)
(-0.00752594 0.0081413 -0.000100856)
(-0.00892026 0.00742578 -9.53447e-05)
(-0.0102259 0.00656622 -9.23262e-05)
(-0.0114247 0.00554813 -9.2569e-05)
(-0.0124922 0.004351 -9.70569e-05)
(-0.0133935 0.00294918 -0.000106913)
(-0.0140779 0.00131477 -0.000123842)
(-0.014477 -0.000576544 -0.00014983)
(-0.0144884 -0.00274049 -0.000184116)
(-0.013977 -0.00515993 -0.000227209)
(-0.0127896 -0.00775601 -0.000275222)
(-0.0107748 -0.0103366 -0.000316005)
(-0.00792766 -0.0124586 -0.000327154)
(-0.00416318 -0.0130055 -0.000289234)
(-0.000998 -0.00873885 -0.000100678)
(-0.000258671 0.00655434 -0.000204775)
(-0.0014717 0.0105303 -0.000179682)
(-0.0032624 0.0112051 -0.000165032)
(-0.00494274 0.0109842 -0.000148678)
(-0.00660888 0.0104862 -0.000136567)
(-0.00821722 0.0098291 -0.000127311)
(-0.00975726 0.00902676 -0.000120573)
(-0.0112214 0.0080718 -0.000117058)
(-0.0125989 0.00694678 -0.000117816)
(-0.0138727 0.0056244 -0.000124243)
(-0.0150139 0.00406688 -0.000138138)
(-0.0159743 0.00222693 -0.000162113)
(-0.0166811 5.16592e-05 -0.000198601)
(-0.0170133 -0.00250243 -0.000250388)
(-0.0167884 -0.00546621 -0.000318319)
(-0.0157691 -0.00878984 -0.000399447)
(-0.013681 -0.0122676 -0.00047805)
(-0.0103771 -0.0153314 -0.000520516)
(-0.00569894 -0.0164161 -0.000485939)
(-0.00146829 -0.0113162 -0.000241364)
(-0.000279319 0.00777517 -0.000245924)
(-0.00161417 0.0124904 -0.000223167)
(-0.00358469 0.0132803 -0.000207261)
(-0.00541934 0.0130189 -0.000187633)
(-0.00723514 0.0124473 -0.000172047)
(-0.00898957 0.0117097 -0.000159575)
(-0.0106802 0.0108262 -0.000150301)
(-0.0123087 0.00979134 -0.000145282)
(-0.0138753 0.0085863 -0.00014594)
(-0.0153756 0.00717827 -0.000154187)
(-0.0167948 0.00551739 -0.000172643)
(-0.0180973 0.00353402 -0.000204779)
(-0.019211 0.00113915 -0.000254173)
(-0.0200125 -0.0017647 -0.000334358)
(-0.0202803 -0.0052838 -0.000443004)
(-0.0196675 -0.00944747 -0.000581578)
(-0.0177214 -0.0140894 -0.000732561)
(-0.0140112 -0.0185333 -0.00084769)
(-0.00823362 -0.0205874 -0.000840401)
(-0.00234919 -0.0148055 -0.000547675)
(-0.000308195 0.00916036 -0.000300977)
(-0.00179226 0.0147047 -0.000282034)
(-0.00397144 0.0156069 -0.000263675)
(-0.00597377 0.0152845 -0.000238305)
(-0.00794423 0.0146216 -0.000216493)
(-0.00984315 0.0137938 -0.000198156)
(-0.0116787 0.0128304 -0.000184039)
(-0.0134647 0.0117302 -0.000175665)
(-0.0152157 0.0104762 -0.000174896)
(-0.0169457 0.00903394 -0.000184293)
(-0.0186628 0.00734507 -0.000207641)
(-0.0203578 0.00531915 -0.000250208)
(-0.0219859 0.0028249 -0.000319519)
(-0.0234451 -0.000315468 -0.000437846)
(-0.0244946 -0.00429797 -0.00060771)
(-0.0246855 -0.00933258 -0.000840413)
(-0.0233346 -0.0154056 -0.00112427)
(-0.0195118 -0.0218216 -0.00139724)
(-0.0126452 -0.0255777 -0.00149984)
(-0.00410792 -0.0197924 -0.00126392)
(-0.000354354 0.0107647 -0.000377111)
(-0.00202914 0.017237 -0.000363638)
(-0.00445211 0.0182325 -0.00034031)
(-0.0066326 0.0178097 -0.00030464)
(-0.00875508 0.0170219 -0.000271724)
(-0.0107859 0.016082 -0.000242976)
(-0.012747 0.0150305 -0.000220131)
(-0.0146662 0.0138736 -0.000205259)
(-0.0165752 0.0126009 -0.000200663)
(-0.0185109 0.0111833 -0.0002096)
(-0.0205144 0.00956444 -0.000237328)
(-0.0226234 0.00764531 -0.000292393)
(-0.0248531 0.00526203 -0.000388155)
(-0.0271475 0.00215694 -0.000540705)
(-0.0293343 -0.00203172 -0.000798828)
(-0.0309471 -0.00775198 -0.00117399)
(-0.0310515 -0.0154024 -0.00168445)
(-0.0279516 -0.0244741 -0.00226862)
(-0.0206863 -0.0311189 -0.00270498)
(-0.00783944 -0.0273491 -0.0029617)
(-0.000438854 0.0126834 -0.000487536)
(-0.00237158 0.0201833 -0.000480592)
(-0.00508009 0.0212179 -0.00044673)
(-0.00744342 0.0206241 -0.000392042)
(-0.00970356 0.0196542 -0.000339355)
(-0.0118392 0.0185611 -0.000292476)
(-0.0138892 0.0173972 -0.000254489)
(-0.0158963 0.0161783 -0.000227989)
(-0.0179079 0.0149058 -0.000215473)
(-0.0199842 0.0135659 -0.000220519)
(-0.0222031 0.0121201 -0.000249316)
(-0.0246633 0.0104846 -0.00031273)
(-0.0274793 0.00849316 -0.000428786)
(-0.030752 0.00583318 -0.000626394)
(-0.034461 0.00196349 -0.000969695)
(-0.0383392 -0.00391794 -0.00153052)
(-0.0413766 -0.0127987 -0.00233702)
(-0.0408568 -0.0249654 -0.00339688)
(-0.0354058 -0.0362924 -0.00457266)
(-0.0157625 -0.0392281 -0.00645115)
(-0.000609836 0.015053 -0.000658163)
(-0.00291845 0.0236865 -0.00065786)
(-0.00595411 0.0246686 -0.000604834)
(-0.00848666 0.023795 -0.00051443)
(-0.0108499 0.0225392 -0.000423726)
(-0.0130445 0.0212079 -0.000342818)
(-0.015128 0.0198733 -0.000277683)
(-0.0171547 0.0185608 -0.000231045)
(-0.0191835 0.0172853 -0.000204509)
(-0.0212915 0.0160576 -0.000200815)
(-0.0235895 0.0148824 -0.000226128)
(-0.0262433 0.0137378 -0.000293355)
(-0.0294976 0.0125297 -0.000424768)
(-0.0336793 0.0109837 -0.000653482)
(-0.0391564 0.00848601 -0.00100933)
(-0.0461457 0.00378465 -0.00154194)
(-0.0540837 -0.00508481 -0.00245953)
(-0.0593919 -0.02069 -0.00376436)
(-0.0597509 -0.0397819 -0.00536466)
(-0.0299855 -0.0598937 -0.0103785)
(-0.000927 0.0183622 -0.00093885)
(-0.00376442 0.027733 -0.000904937)
(-0.00719234 0.0283207 -0.0007995)
(-0.00988645 0.0268978 -0.000635414)
(-0.0123154 0.0252785 -0.000486498)
(-0.0144963 0.0237187 -0.000359254)
(-0.0165213 0.0222387 -0.000257712)
(-0.0184641 0.0208391 -0.000182883)
(-0.0203845 0.0195439 -0.000134968)
(-0.0223523 0.0184012 -0.000115063)
(-0.0244767 0.0174864 -0.000124067)
(-0.0269525 0.0168787 -0.000166202)
(-0.0301429 0.0166419 -0.000246295)
(-0.0346706 0.0166893 -0.000361098)
(-0.0415444 0.0165587 -0.000464781)
(-0.0521018 0.0146305 -0.000415181)
(-0.0674071 0.007761 -0.000113784)
(-0.0821093 -0.0121797 0.000698513)
(-0.0924138 -0.0463927 0.00216728)
(-0.0472295 -0.103533 -0.00785836)
(-0.00216334 0.0219128 -0.00145522)
(-0.00612545 0.0338359 -0.00151275)
(-0.00936851 0.0339964 -0.00128398)
(-0.0118818 0.0320636 -0.000981133)
(-0.0140458 0.0296517 -0.000672867)
(-0.016047 0.0273181 -0.000410128)
(-0.0179379 0.0251932 -0.000204745)
(-0.0197429 0.0233192 -5.71243e-05)
(-0.0214724 0.021738 3.95198e-05)
(-0.023153 0.020509 8.94069e-05)
(-0.024863 0.0197681 9.88236e-05)
(-0.0267725 0.019716 8.17469e-05)
(-0.0292682 0.0206888 8.45591e-05)
(-0.0331322 0.0229611 0.000236767)
(-0.0400987 0.0265035 0.000901092)
(-0.0525537 0.029086 0.00295159)
(-0.0752386 0.0256033 0.00754322)
(-0.100169 -0.00597042 0.0150117)
(-0.123678 -0.0755151 0.0206827)
(-0.0554328 -0.188412 -0.00195741)
(-0.00149812 0.033384 -0.00246946)
(-0.00617732 0.0377903 -0.00195286)
(-0.0115939 0.0361738 -0.00153776)
(-0.0144186 0.0324327 -0.000888637)
(-0.0168596 0.0295834 -0.000398646)
(-0.0185683 0.027233 -1.21422e-05)
(-0.0199081 0.0252543 0.000263655)
(-0.0210394 0.0235215 0.000443904)
(-0.022023 0.0220443 0.000551981)
(-0.0228487 0.0208591 0.000600449)
(-0.0235001 0.0201782 0.000611068)
(-0.02396 0.0202406 0.000628984)
(-0.0244545 0.0216848 0.000792981)
(-0.0255828 0.0248977 0.00145979)
(-0.0297252 0.0308877 0.00362377)
(-0.0392737 0.0350513 0.0091881)
(-0.0678311 0.0311623 0.0207131)
(-0.10045 -0.0238781 0.0329822)
(-0.137724 -0.142724 0.0316954)
(-0.0467599 -0.29414 -0.0140868)
(-0.0117692 0.0317924 -0.00356503)
(-0.0215178 0.0542394 -0.00383393)
(-0.0175869 0.0497153 -0.00299818)
(-0.0187269 0.0446367 -0.0018628)
(-0.0178097 0.0387531 -0.000728571)
(-0.0169345 0.0337709 0.000127815)
(-0.0160797 0.0296433 0.000722395)
(-0.0153232 0.0262598 0.00109215)
(-0.0146265 0.0235606 0.00129506)
(-0.0138134 0.0214197 0.00134978)
(-0.0128755 0.019988 0.00131789)
(-0.0114381 0.0194266 0.00124537)
(-0.00980428 0.0204334 0.00138267)
(-0.00710047 0.0235082 0.00218566)
(-0.00726846 0.0305206 0.00509933)
(-0.00563072 0.0359042 0.0120667)
(-0.0265584 0.0305005 0.0261594)
(-0.0430615 -0.0468424 0.0374547)
(-0.103454 -0.20226 0.0223983)
(-0.0245597 -0.362397 -0.0437257)
(-0.0462933 0.0904076 -0.0110401)
(-0.0305167 0.0446493 -0.00641154)
(-0.0220927 0.0383172 -0.00371633)
(-0.00570781 0.0312605 -0.00110831)
(0.00753731 0.0250466 0.000696464)
(0.0198265 0.0209355 0.0018635)
(0.0298198 0.0182046 0.00262458)
(0.0381872 0.0160694 0.00303543)
(0.0448402 0.0144989 0.00321721)
(0.050771 0.0131014 0.00315172)
(0.0555072 0.012319 0.00290972)
(0.060898 0.0116181 0.00251673)
(0.065426 0.0119663 0.00216781)
(0.0741282 0.0121167 0.00185632)
(0.0782085 0.0132133 0.00339769)
(0.0998084 0.0103599 0.00639588)
(0.0886902 -0.00382042 0.0149057)
(0.115604 -0.0739071 0.0271425)
(0.00434131 -0.22434 0.00421995)
(0.0246385 -0.361013 -0.0616464)
(0.117678 0.111598 -0.0111324)
(0.144729 0.0597445 -0.0112532)
(0.21739 0.0398197 -0.0104527)
(0.261669 0.026935 -0.00871177)
(0.294193 0.0183906 -0.00672933)
(0.320203 0.0126972 -0.00499253)
(0.340047 0.00917315 -0.00331868)
(0.356499 0.00684691 -0.00204544)
(0.367873 0.00544042 -0.000761344)
(0.379161 0.00450454 5.31528e-05)
(0.384555 0.00384589 0.000770125)
(0.394733 0.00374224 0.00117139)
(0.394426 0.003108 0.00102233)
(0.409402 0.00371328 0.00170625)
(0.398863 0.00198396 0.000510401)
(0.426035 0.000766279 0.00275543)
(0.386341 -0.00721243 0.00146148)
(0.4126 -0.0271806 0.00226875)
(0.25308 -0.0692967 -0.00525006)
(0.167324 -0.138407 -0.0716246)
(-0.000129956 0.000136049 -4.02305e-05)
(-0.000825229 0.000332405 4.39824e-06)
(-0.00189081 0.000373345 2.05433e-05)
(-0.0028863 0.000368778 2.89874e-05)
(-0.0038505 0.000351582 2.96428e-05)
(-0.00474875 0.000327596 2.5162e-05)
(-0.00555944 0.000296583 1.70412e-05)
(-0.00626156 0.000257446 5.71842e-06)
(-0.00683232 0.000209068 -8.83537e-06)
(-0.00724743 0.000150765 -2.68052e-05)
(-0.00748235 8.18528e-05 -4.76968e-05)
(-0.00751367 2.91801e-06 -7.12859e-05)
(-0.00731973 -8.56913e-05 -9.67335e-05)
(-0.00688394 -0.000181076 -0.000123125)
(-0.00619842 -0.000279146 -0.000148522)
(-0.00526645 -0.000374183 -0.000170063)
(-0.00410967 -0.000457489 -0.000183004)
(-0.00279242 -0.000512114 -0.000180552)
(-0.00129664 -0.000488631 -0.000158362)
(-0.00024356 -0.000234451 -6.85875e-05)
(-0.000337728 0.000859171 -0.000118621)
(-0.00162789 0.00161827 -7.97781e-05)
(-0.00343835 0.00176381 -6.00643e-05)
(-0.005136 0.00172343 -4.43511e-05)
(-0.00676329 0.00162214 -3.59011e-05)
(-0.00826235 0.0014842 -3.21637e-05)
(-0.00959481 0.00131161 -3.17097e-05)
(-0.010726 0.00110291 -3.43551e-05)
(-0.0116206 0.000856504 -4.02814e-05)
(-0.0122434 0.000571714 -4.97562e-05)
(-0.0125599 0.000248532 -6.2948e-05)
(-0.0125396 -0.000111234 -7.99477e-05)
(-0.0121546 -0.000500203 -9.93631e-05)
(-0.0113849 -0.000907555 -0.000120588)
(-0.0102244 -0.00131724 -0.000141614)
(-0.00868321 -0.00170669 -0.00015909)
(-0.0067992 -0.00204249 -0.000167216)
(-0.00466738 -0.00225945 -0.00015831)
(-0.00227403 -0.00217499 -0.000128798)
(-0.000495318 -0.00122164 -2.4751e-05)
(-0.000400502 0.0020063 -0.000155107)
(-0.00188667 0.00350016 -0.000120103)
(-0.00394677 0.00377075 -9.90669e-05)
(-0.00587276 0.00366759 -8.00503e-05)
(-0.00771472 0.00343536 -6.79415e-05)
(-0.00940869 0.00312285 -6.02694e-05)
(-0.0109128 0.00273639 -5.57062e-05)
(-0.0121896 0.00227558 -5.42474e-05)
(-0.0132007 0.00173952 -5.62636e-05)
(-0.0139084 0.00112835 -6.21723e-05)
(-0.0142764 0.000444263 -7.22113e-05)
(-0.014268 -0.000307322 -8.66669e-05)
(-0.0138498 -0.00111346 -0.000104643)
(-0.0129986 -0.00195261 -0.000125392)
(-0.0117029 -0.00279273 -0.000146761)
(-0.0099683 -0.00358885 -0.000164968)
(-0.00783178 -0.00427482 -0.000173329)
(-0.00539768 -0.00472132 -0.000162972)
(-0.00264729 -0.00457196 -0.000130207)
(-0.000584072 -0.00271506 -1.58994e-05)
(-0.000424798 0.00316834 -0.000186247)
(-0.0020091 0.00542475 -0.00015528)
(-0.00420553 0.0058205 -0.000133547)
(-0.00625632 0.00565204 -0.000112219)
(-0.00822067 0.00528868 -9.75153e-05)
(-0.0100324 0.00480342 -8.70492e-05)
(-0.0116494 0.00420639 -7.96026e-05)
(-0.0130338 0.00349767 -7.53431e-05)
(-0.0141465 0.00267621 -7.48244e-05)
(-0.0149476 0.00174187 -7.86638e-05)
(-0.0153973 0.000697433 -8.74199e-05)
(-0.0154545 -0.00044843 -0.000101759)
(-0.0150772 -0.00168107 -0.000120505)
(-0.014229 -0.00297043 -0.000143074)
(-0.0128859 -0.00426999 -0.000167167)
(-0.0110412 -0.00551178 -0.000188617)
(-0.00872288 -0.00659264 -0.000199572)
(-0.00604161 -0.0073097 -0.00018925)
(-0.00297327 -0.00711208 -0.000153148)
(-0.000656337 -0.00428697 -2.35331e-05)
(-0.000447602 0.00441066 -0.000216081)
(-0.00213176 0.00748505 -0.000188506)
(-0.00447229 0.00801412 -0.000166142)
(-0.00665766 0.00777831 -0.000142953)
(-0.00875689 0.00728006 -0.000126392)
(-0.010702 0.00661818 -0.000114126)
(-0.0124519 0.00580673 -0.000105034)
(-0.0139693 0.00484593 -9.94524e-05)
(-0.0152148 0.00373373 -9.8127e-05)
(-0.0161468 0.00246828 -0.000101905)
(-0.0167205 0.00105043 -0.000111574)
(-0.0168878 -0.00051255 -0.000127792)
(-0.0165948 -0.00220474 -0.00015071)
(-0.0157879 -0.00399119 -0.000178834)
(-0.0144217 -0.00581334 -0.000209892)
(-0.0124662 -0.00757917 -0.000238919)
(-0.00992971 -0.00914091 -0.000256202)
(-0.0069271 -0.0102029 -0.000247946)
(-0.00342926 -0.00998167 -0.000207499)
(-0.000760097 -0.00607039 -5.25444e-05)
(-0.000477156 0.00574068 -0.000249571)
(-0.0022869 0.00969911 -0.000225255)
(-0.0048079 0.0103725 -0.000202187)
(-0.00716213 0.0100681 -0.000177119)
(-0.0094303 0.00943243 -0.000158841)
(-0.0115428 0.00859236 -0.000145084)
(-0.0134603 0.00756615 -0.000134856)
(-0.0151473 0.00635378 -0.000128691)
(-0.0165653 0.00495101 -0.000127575)
(-0.0176715 0.00335219 -0.000132645)
(-0.0184169 0.00155308 -0.000145037)
(-0.0187458 -0.000444567 -0.000165771)
(-0.0185886 -0.00263166 -0.000196271)
(-0.0178673 -0.00497252 -0.000234287)
(-0.0165055 -0.00740101 -0.00027779)
(-0.0144357 -0.00980136 -0.000320783)
(-0.0116294 -0.0119724 -0.000350635)
(-0.00819616 -0.0134978 -0.000348602)
(-0.00409811 -0.0133 -0.000303366)
(-0.000918254 -0.00814922 -0.000109338)
(-0.000515009 0.00718126 -0.000290718)
(-0.00248183 0.0121041 -0.000270353)
(-0.00522626 0.0129346 -0.000246378)
(-0.00778776 0.0125589 -0.000218917)
(-0.0102616 0.0117821 -0.000198414)
(-0.0125769 0.010762 -0.000182745)
(-0.0146975 0.00952179 -0.000171142)
(-0.0165916 0.00806094 -0.000164426)
(-0.0182236 0.00637187 -0.000163918)
(-0.0195517 0.00444256 -0.000171188)
(-0.0205239 0.00225918 -0.000187873)
(-0.0210787 -0.000189492 -0.000215585)
(-0.0211287 -0.00290265 -0.000258055)
(-0.0205639 -0.00586134 -0.000311971)
(-0.0192655 -0.00900058 -0.00037624)
(-0.0171069 -0.0121861 -0.000443744)
(-0.0139937 -0.0151551 -0.000497614)
(-0.0100046 -0.0173328 -0.000510776)
(-0.00508248 -0.0172473 -0.000462305)
(-0.00116291 -0.0106629 -0.000210456)
(-0.000561907 0.0087601 -0.00034298)
(-0.00272052 0.0147448 -0.000328)
(-0.00573459 0.0157454 -0.000302677)
(-0.00854225 0.0152924 -0.000271723)
(-0.0112575 0.0143677 -0.000247773)
(-0.0138083 0.013164 -0.000229012)
(-0.0161644 0.0117108 -0.000215057)
(-0.0183003 0.0100075 -0.000207156)
(-0.020187 0.00804233 -0.000207112)
(-0.0217876 0.00579449 -0.000217131)
(-0.0230524 0.00323576 -0.000239579)
(-0.023911 0.000334692 -0.000276863)
(-0.0242642 -0.00292913 -0.000337101)
(-0.0239707 -0.00656881 -0.000415559)
(-0.0228482 -0.0105404 -0.000513522)
(-0.0206839 -0.0147079 -0.000623298)
(-0.0172706 -0.0187463 -0.000722418)
(-0.0125975 -0.0218774 -0.00077014)
(-0.00656584 -0.0220709 -0.000725229)
(-0.00155993 -0.0138303 -0.000391386)
(-0.000619444 0.0105084 -0.000410495)
(-0.00300916 0.0176704 -0.000403131)
(-0.00634294 0.018852 -0.000375589)
(-0.00943554 0.0183098 -0.000339169)
(-0.012425 0.017225 -0.000309525)
(-0.0152394 0.0158308 -0.000285436)
(-0.0178571 0.0141654 -0.000267151)
(-0.0202633 0.0122291 -0.000256536)
(-0.0224402 0.0100063 -0.000256077)
(-0.0243622 0.00746564 -0.000268929)
(-0.0259878 0.0045604 -0.000299036)
(-0.0272478 0.00123142 -0.000352052)
(-0.028037 -0.00258532 -0.000433187)
(-0.0281827 -0.00695122 -0.000548193)
(-0.0274299 -0.0118798 -0.000699453)
(-0.0254441 -0.0172711 -0.000880962)
(-0.021837 -0.0227599 -0.00106432)
(-0.0163869 -0.0273219 -0.00118838)
(-0.00890881 -0.0281145 -0.0011673)
(-0.00225667 -0.0180281 -0.000728035)
(-0.000691066 0.0124641 -0.000499117)
(-0.00335912 0.0209377 -0.000502526)
(-0.00706854 0.0223053 -0.000471075)
(-0.0104844 0.0216516 -0.000425768)
(-0.0137764 0.0203856 -0.000386549)
(-0.0168745 0.0187882 -0.000353267)
(-0.01977 0.0169092 -0.000327163)
(-0.0224635 0.0147526 -0.000310945)
(-0.024955 0.0123 -0.000307952)
(-0.0272384 0.00951013 -0.000322493)
(-0.0292919 0.00631503 -0.000360328)
(-0.0310624 0.00261903 -0.000429228)
(-0.0324534 -0.00170069 -0.000537991)
(-0.0332759 -0.00678903 -0.000707938)
(-0.0332055 -0.0127694 -0.00094181)
(-0.0317542 -0.0196515 -0.00124221)
(-0.0282657 -0.0271017 -0.00157937)
(-0.022092 -0.0338375 -0.00186678)
(-0.0128759 -0.0358571 -0.00192892)
(-0.00360507 -0.0239805 -0.00139441)
(-0.000783775 0.0146773 -0.000617862)
(-0.00379103 0.0246158 -0.00063621)
(-0.00794089 0.0261614 -0.000597611)
(-0.0117174 0.025357 -0.000537508)
(-0.0153332 0.0238746 -0.000482147)
(-0.0187233 0.022051 -0.000433222)
(-0.0218974 0.019952 -0.000393484)
(-0.0248773 0.0175885 -0.000366717)
(-0.0276879 0.0149433 -0.000357217)
(-0.0303529 0.0119676 -0.000370584)
(-0.0328852 0.00857418 -0.000414829)
(-0.0352707 0.00462602 -0.000501328)
(-0.0374536 -7.46789e-05 -0.000645796)
(-0.0392674 -0.00577769 -0.000887691)
(-0.0403507 -0.012801 -0.00123952)
(-0.0400682 -0.021393 -0.00172575)
(-0.0374164 -0.0314231 -0.00233211)
(-0.0310101 -0.0414256 -0.00295235)
(-0.0201634 -0.0458844 -0.00327601)
(-0.0064874 -0.0332385 -0.00281632)
(-0.000911573 0.0172195 -0.000781439)
(-0.00434194 0.0287922 -0.000819621)
(-0.00900986 0.0304837 -0.000767741)
(-0.0131816 0.0294626 -0.00068258)
(-0.0171315 0.0277068 -0.00060001)
(-0.0208052 0.0256183 -0.00052486)
(-0.0242374 0.0232828 -0.00046212)
(-0.0274771 0.0207227 -0.000416845)
(-0.030581 0.0179272 -0.000394187)
(-0.0336131 0.0148485 -0.000400896)
(-0.0366398 0.0113901 -0.000447435)
(-0.0397189 0.00738495 -0.000550396)
(-0.0428675 0.00256468 -0.000735963)
(-0.0460263 -0.00346835 -0.00104198)
(-0.0489203 -0.0113058 -0.0015485)
(-0.0508627 -0.0216169 -0.00229777)
(-0.0505109 -0.0347926 -0.0033352)
(-0.0454182 -0.0494784 -0.00456878)
(-0.0343757 -0.0586795 -0.00559351)
(-0.013103 -0.0492129 -0.00597263)
(-0.00110371 0.0202056 -0.00101524)
(-0.00507883 0.0335856 -0.00107772)
(-0.0103571 0.0353381 -0.00100033)
(-0.0149522 0.0339918 -0.000871875)
(-0.0192293 0.031878 -0.000743589)
(-0.0231547 0.0294663 -0.000625143)
(-0.0267965 0.0268632 -0.000524631)
(-0.0302359 0.024106 -0.000448464)
(-0.0335647 0.0211983 -0.000402076)
(-0.0368923 0.0181055 -0.000392307)
(-0.0403508 0.0147409 -0.000430528)
(-0.0440988 0.0109328 -0.000536542)
(-0.0483139 0.00636898 -0.000744129)
(-0.0531702 0.000502736 -0.00110883)
(-0.0586752 -0.00751353 -0.00175037)
(-0.0644145 -0.01894 -0.00278908)
(-0.0689529 -0.035225 -0.0043294)
(-0.0685967 -0.0560226 -0.0063924)
(-0.0610649 -0.0741143 -0.00875488)
(-0.0269507 -0.0788962 -0.0118464)
(-0.00142554 0.0237743 -0.00136591)
(-0.00614693 0.0391941 -0.00145829)
(-0.0121307 0.0408926 -0.00133704)
(-0.0171444 0.0390716 -0.00113286)
(-0.0217081 0.0364431 -0.000922721)
(-0.0258235 0.0335816 -0.000728449)
(-0.029596 0.0306317 -0.000564317)
(-0.0331382 0.027648 -0.000437717)
(-0.0365756 0.0246494 -0.000352373)
(-0.0400621 0.0216278 -0.000312665)
(-0.0438014 0.0185435 -0.000328001)
(-0.0480769 0.0152868 -0.000418161)
(-0.0532843 0.0116012 -0.000617973)
(-0.0599301 0.00692083 -0.000982709)
(-0.0686166 0.000167917 -0.00156524)
(-0.0798887 -0.0106375 -0.00246119)
(-0.0927219 -0.0285825 -0.00393074)
(-0.10125 -0.0571394 -0.00589133)
(-0.100519 -0.0924166 -0.00854034)
(-0.0444152 -0.136249 -0.0168579)
(-0.00188542 0.0284911 -0.0019107)
(-0.00751825 0.0452979 -0.00196743)
(-0.014441 0.0464852 -0.00174759)
(-0.0199259 0.0438398 -0.00140244)
(-0.0247568 0.040676 -0.00107407)
(-0.0289547 0.0374553 -0.000778376)
(-0.0327105 0.0342558 -0.000528825)
(-0.0361906 0.0311083 -0.000331816)
(-0.0395453 0.0280538 -0.000189134)
(-0.042941 0.0251348 -0.000100344)
(-0.0466081 0.0223995 -6.24602e-05)
(-0.0509165 0.0198663 -7.22105e-05)
(-0.0564933 0.017483 -0.000122731)
(-0.064342 0.0149148 -0.000184951)
(-0.0759665 0.0111793 -0.000134392)
(-0.0931407 0.00359747 0.00036795)
(-0.115434 -0.0135081 0.00187765)
(-0.131003 -0.0536449 0.00504053)
(-0.134751 -0.122549 0.00746242)
(-0.0448938 -0.231967 -0.0113729)
(-0.00384902 0.0330541 -0.00283839)
(-0.0114441 0.0547455 -0.00308423)
(-0.0181602 0.0553595 -0.00265601)
(-0.0235624 0.0519675 -0.0020712)
(-0.0281457 0.0475229 -0.00145481)
(-0.0322219 0.0430947 -0.000904893)
(-0.0358744 0.038919 -0.000450573)
(-0.0392113 0.035083 -0.000101118)
(-0.0423414 0.031649 0.000149712)
(-0.04541 0.0286762 0.000314382)
(-0.0486392 0.0263044 0.000416707)
(-0.0523925 0.0247442 0.000503922)
(-0.0573464 0.0243529 0.000694886)
(-0.0646803 0.0253234 0.00128593)
(-0.0764144 0.027159 0.00305782)
(-0.0943673 0.0256118 0.00774429)
(-0.119041 0.0105146 0.0176489)
(-0.131851 -0.050254 0.0324646)
(-0.14066 -0.165908 0.0385008)
(-0.0216478 -0.334429 -0.00540069)
(-0.00209662 0.0477303 -0.00456357)
(-0.010422 0.0587213 -0.00399524)
(-0.0218432 0.0572534 -0.00323483)
(-0.027958 0.051836 -0.00208838)
(-0.033345 0.0474368 -0.00116279)
(-0.0371495 0.0434002 -0.000372529)
(-0.0400577 0.0396687 0.000249745)
(-0.0423788 0.0361712 0.000711461)
(-0.0443219 0.032985 0.00103057)
(-0.0460134 0.0301803 0.00123563)
(-0.047568 0.0280551 0.00138745)
(-0.0491064 0.0269211 0.00160709)
(-0.0510363 0.0276412 0.00220792)
(-0.0539592 0.0306378 0.00394031)
(-0.0598065 0.0364537 0.00867319)
(-0.0681658 0.0375333 0.0195281)
(-0.0886201 0.0237153 0.040234)
(-0.0917474 -0.053889 0.0618858)
(-0.112591 -0.208191 0.0561612)
(0.00704989 -0.410011 -0.0206477)
(-0.0116438 0.0400354 -0.00616494)
(-0.0267738 0.0825303 -0.00686106)
(-0.0278085 0.0781215 -0.005665)
(-0.0349558 0.0711823 -0.0038224)
(-0.037329 0.0625975 -0.00189755)
(-0.0382778 0.0547488 -0.000344892)
(-0.0379492 0.0479234 0.000833243)
(-0.0369283 0.0420722 0.00165162)
(-0.0355285 0.0371631 0.00217834)
(-0.033791 0.0330527 0.00244897)
(-0.032015 0.029965 0.00257895)
(-0.0297991 0.0281837 0.0026959)
(-0.0277356 0.0287518 0.0032947)
(-0.0240755 0.0321747 0.00524469)
(-0.0224289 0.0409251 0.0109292)
(-0.0113812 0.0455342 0.0230299)
(-0.0163078 0.0390112 0.0449929)
(0.0118944 -0.040758 0.0663706)
(-0.0299224 -0.231215 0.0462606)
(0.0497468 -0.445256 -0.0477677)
(-0.0748313 0.103411 -0.016094)
(-0.0602784 0.0650787 -0.0102687)
(-0.0594186 0.0619216 -0.00641092)
(-0.0390033 0.0533163 -0.00266703)
(-0.0214179 0.0448877 -3.57873e-05)
(-0.00287706 0.0384737 0.00193778)
(0.0140401 0.0336047 0.00343588)
(0.0297952 0.0294137 0.00440832)
(0.0434299 0.0261107 0.00500389)
(0.0563799 0.0229488 0.00518638)
(0.066942 0.0208766 0.00504073)
(0.0782436 0.0187903 0.00465035)
(0.0863934 0.0186055 0.00429913)
(0.101335 0.0181658 0.00398152)
(0.105621 0.0197156 0.00659347)
(0.143085 0.0172549 0.011247)
(0.136284 -0.00160904 0.0202471)
(0.197472 -0.0517263 0.0399991)
(0.133463 -0.230329 0.0192655)
(0.139882 -0.416074 -0.0666298)
(0.119682 0.140012 -0.0159652)
(0.152756 0.0863829 -0.0166258)
(0.231974 0.0642493 -0.0158211)
(0.286464 0.048929 -0.0137576)
(0.328965 0.037937 -0.0112549)
(0.365971 0.0297519 -0.00896679)
(0.395539 0.0239785 -0.00654937)
(0.424086 0.019516 -0.0045982)
(0.443708 0.016123 -0.00256172)
(0.467933 0.0136799 -0.000948124)
(0.478628 0.011175 0.000255264)
(0.502485 0.0101573 0.00152707)
(0.503401 0.00813955 0.00158528)
(0.53249 0.00795802 0.00256775)
(0.520455 0.00635954 0.00242929)
(0.558528 0.00386897 0.00281928)
(0.524904 -0.00294013 0.0050491)
(0.549855 -0.024394 -0.000695335)
(0.425895 -0.0699999 -0.00445959)
(0.299983 -0.14549 -0.0792858)
(-0.000142294 0.000142065 -5.27017e-05)
(-0.000907314 0.000362657 -3.93225e-05)
(-0.00207817 0.000408948 -2.87117e-05)
(-0.00316702 0.000403234 -2.04298e-05)
(-0.00421776 0.000383002 -1.70725e-05)
(-0.00519241 0.000355192 -1.76798e-05)
(-0.00606795 0.000319569 -2.15073e-05)
(-0.00682243 0.000274902 -2.82962e-05)