/*--------------------------------*- C++ -*----------------------------------*\
  =========                 |
  \\      /  F ield         | OpenFOAM: The Open Source CFD Toolbox
   \\    /   O peration     | Website:  https://openfoam.org
    \\  /    A nd           | Version:  10
     \\/     M anipulation  |
\*---------------------------------------------------------------------------*/
FoamFile
{
    format      ascii;
    class       volVectorField;
    location    "1.1";
    object      U;
}
// * * * * * * * * * * * * * * * * * * * * * * * * * * * * * * * * * * * * * //

dimensions      [0 1 -1 0 0 0 0];

internalField   nonuniform List<vector> 
400
(
(-0.000309456 0.000304747 0)
(-0.00103672 0.000372175 0)
(-0.00184006 0.000360029 0)
(-0.0025827 0.000333833 0)
(-0.00325985 0.000299203 0)
(-0.00385483 0.000257316 0)
(-0.00435318 0.000209243 0)
(-0.00474303 0.000156115 0)
(-0.00501495 9.90957e-05 0)
(-0.00516203 3.93734e-05 0)
(-0.00517992 -2.18259e-05 0)
(-0.00506688 -8.32417e-05 0)
(-0.00482394 -0.000143492 0)
(-0.00445514 -0.000201112 0)
(-0.00396768 -0.000254532 0)
(-0.00337221 -0.000302109 0)
(-0.00268304 -0.000342189 0)
(-0.00191797 -0.000372979 0)
(-0.00108427 -0.000388072 0)
(-0.000324827 -0.000319608 0)
(-0.00039278 0.00104225 0)
(-0.00130248 0.00125869 0)
(-0.00229725 0.00121684 0)
(-0.0032174 0.00112777 0)
(-0.00405567 0.00101001 0)
(-0.00479133 0.00086777 0)
(-0.00540665 0.000704805 0)
(-0.0058872 0.000525018 0)
(-0.00622167 0.00033237 0)
(-0.0064018 0.000130848 0)
(-0.0064225 -7.55171e-05 0)
(-0.00628175 -0.000282376 0)
(-0.00598087 -0.000485268 0)
(-0.00552478 -0.000679327 0)
(-0.00492223 -0.000859317 0)
(-0.00418615 -0.00101972 0)
(-0.00333406 -0.00115492 0)
(-0.00238791 -0.00125872 0)
(-0.00135788 -0.00130996 0)
(-0.000410704 -0.00109018 0)
(-0.00041619 0.00191259 0)
(-0.00138027 0.00229449 0)
(-0.00243384 0.00221688 0)
(-0.00340711 0.00205366 0)
(-0.00429289 0.00183813 0)
(-0.00506954 0.00157824 0)
(-0.00571876 0.00128103 0)
(-0.00622582 0.000953682 0)
(-0.00657925 0.0006034 0)
(-0.00677075 0.000237335 0)
(-0.00679488 -0.00013731 0)
(-0.00664938 -0.000512952 0)
(-0.00633532 -0.000881623 0)
(-0.00585713 -0.00123464 0)
(-0.00522325 -0.00156257 0)
(-0.0044465 -0.00185534 0)
(-0.00354479 -0.00210257 0)
(-0.00254107 -0.00229263 0)
(-0.00144586 -0.00238743 0)
(-0.000437393 -0.00199957 0)
(-0.000445311 0.00281712 0)
(-0.00147706 0.00337258 0)
(-0.002604 0.0032566 0)
(-0.00364343 0.00301518 0)
(-0.00458799 0.0026972 0)
(-0.00541503 0.00231469 0)
(-0.0061058 0.00187826 0)
(-0.00664548 0.00139854 0)
(-0.00702267 0.000885927 0)
(-0.00722905 0.000350637 0)
(-0.00725906 -0.00019715 0)
(-0.00710995 -0.000746986 0)
(-0.00678201 -0.00128752 0)
(-0.00627879 -0.00180637 0)
(-0.00560783 -0.00228981 0)
(-0.00478137 -0.00272292 0)
(-0.00381738 -0.00308997 0)
(-0.00273992 -0.00337318 0)
(-0.00156037 -0.00351604 0)
(-0.000472212 -0.00295156 0)
(-0.000486165 0.00379389 0)
(-0.00161227 0.00453671 0)
(-0.00284092 0.00437768 0)
(-0.00397163 0.00405003 0)
(-0.0049967 0.00362006 0)
(-0.00589223 0.00310467 0)
(-0.00663909 0.00251858 0)
(-0.00722264 0.00187615 0)
(-0.00763183 0.00119108 0)
(-0.00785858 0.000476393 0)
(-0.00789721 -0.000255131 0)
(-0.0077443 -0.000990412 0)
(-0.00739899 -0.00171517 0)
(-0.00686334 -0.00241345 0)
(-0.00614326 -0.00306713 0)
(-0.00524973 -0.00365586 0)
(-0.00420035 -0.00415758 0)
(-0.00302042 -0.00454685 0)
(-0.00172264 -0.00474586 0)
(-0.000521785 -0.00399025 0)
(-0.000540578 0.00487029 0)
(-0.00179186 0.00581863 0)
(-0.00315457 0.0056095 0)
(-0.00440452 0.00518397 0)
(-0.00553364 0.00462837 0)
(-0.00651669 0.00396573 0)
(-0.0073345 0.00321572 0)
(-0.0079732 0.00239685 0)
(-0.00842265 0.00152608 0)
(-0.00867547 0.000618999 0)
(-0.00872607 -0.000309619 0)
(-0.00857018 -0.0012448 0)
(-0.00820523 -0.00216991 0)
(-0.00763092 -0.00306584 0)
(-0.00685039 -0.00390996 0)
(-0.00587214 -0.00467587 0)
(-0.00471246 -0.00533369 0)
(-0.00339765 -0.00584807 0)
(-0.00194199 -0.00611557 0)
(-0.000589069 -0.00514992 0)
(-0.000610894 0.00607647 0)
(-0.00202324 0.00725315 0)
(-0.00355694 0.00698352 0)
(-0.00495701 0.00644365 0)
(-0.00621513 0.00574368 0)
(-0.0073049 0.00491463 0)
(-0.00820798 0.00398234 0)
(-0.00891229 0.00296999 0)
(-0.00940969 0.00189777 0)
(-0.0096943 0.000783176 0)
(-0.00976102 -0.000357913 0)
(-0.00960461 -0.00150984 0)
(-0.00922003 -0.00265468 0)
(-0.00860341 -0.00377097 0)
(-0.00775331 -0.00483183 0)
(-0.00667371 -0.00580403 0)
(-0.00537773 -0.00664801 0)
(-0.00389165 -0.00731513 0)
(-0.00223126 -0.00766981 0)
(-0.000678256 -0.00647058 0)
(-0.000700586 0.0074485 0)
(-0.00231711 0.00888136 0)
(-0.00406498 0.00853576 0)
(-0.00564961 0.00785827 0)
(-0.00706288 0.00698836 0)
(-0.00827804 0.00596776 0)
(-0.00927916 0.00483012 0)
(-0.0100578 0.00360398 0)
(-0.0106095 0.00231245 0)
(-0.0109312 0.000973991 0)
(-0.0110191 -0.00039592 0)
(-0.010867 -0.00178278 0)
(-0.0104664 -0.00316931 0)
(-0.00980807 -0.00453313 0)
(-0.00888347 -0.0058439 0)
(-0.00768864 -0.00706106 0)
(-0.0062301 -0.00813301 0)
(-0.00453169 -0.00899294 0)
(-0.00260981 -0.00946345 0)
(-0.000795834 -0.00800273 0)
(-0.000814923 0.00903086 0)
(-0.00268933 0.0107527 0)
(-0.00470297 0.0103078 0)
(-0.00651073 0.00945954 0)
(-0.00810591 0.0083847 0)
(-0.00946316 0.00713972 0)
(-0.0105718 0.00576827 0)
(-0.01143 0.00430491 0)
(-0.0120397 0.00277506 0)
(-0.0124027 0.00119658 0)
(-0.0125178 -0.000417736 0)
(-0.012378 -0.00205729 0)
(-0.0119704 -0.00370851 0)
(-0.011278 -0.00535086 0)
(-0.0102813 -0.00695229 0)
(-0.00896323 -0.00846512 0)
(-0.00731779 -0.0098231 0)
(-0.00536114 -0.0109346 0)
(-0.00310752 -0.0115657 0)
(-0.000952169 -0.00981262 0)
(-0.000962185 0.0108806 0)
(-0.00316386 0.0129286 0)
(-0.00550623 0.0123482 0)
(-0.00758019 0.0112814 0)
(-0.00938303 0.00995342 0)
(-0.0108945 0.00844123 0)
(-0.012114 0.00680129 0)
(-0.013051 0.00507463 0)
(-0.0137178 0.00328781 0)
(-0.014124 0.00145557 0)
(-0.014273 -0.000415276 0)
(-0.0141577 -0.002322 0)
(-0.01376 -0.00425926 0)
(-0.0130519 -0.00621316 0)
(-0.0119978 -0.00815378 0)
(-0.01056 -0.010028 0)
(-0.00870977 -0.0117527 0)
(-0.00644534 -0.0132033 0)
(-0.00377205 -0.0140664 0)
(-0.00116463 -0.0119916 0)
(-0.00115601 0.0130746 0)
(-0.00377818 0.0154872 0)
(-0.00652719 0.0147146 0)
(-0.00891439 0.0133587 0)
(-0.0109464 0.0117108 0)
(-0.0126154 0.0098755 0)
(-0.0139384 0.0079253 0)
(-0.0149435 0.00590765 0)
(-0.0156588 0.00384797 0)
(-0.0161058 0.00175406 0)
(-0.0162954 -0.000378064 0)
(-0.016222 -0.00255889 0)
(-0.0158616 -0.0047976 0)
(-0.0151725 -0.00709418 0)
(-0.0140961 -0.00942856 0)
(-0.0125628 -0.0117476 0)
(-0.0105058 -0.0139515 0)
(-0.00788496 -0.015873 0)
(-0.00468246 -0.017085 0)
(-0.00146405 -0.0146724 0)
(-0.00142015 0.0157213 0)
(-0.00459306 0.018531 0)
(-0.00784524 0.0174752 0)
(-0.0105945 0.0157249 0)
(-0.0128668 0.0136633 0)
(-0.0146801 0.0114321 0)
(-0.0160819 0.00912243 0)
(-0.0171284 0.00678677 0)
(-0.0178715 0.00444487 0)
(-0.0183501 0.00209193 0)
(-0.018586 -0.000293332 0)
(-0.0185773 -0.00274146 0)
(-0.0182953 -0.00528451 0)
(-0.0176828 -0.00794656 0)
(-0.0166512 -0.0107298 0)
(-0.0150837 -0.0135947 0)
(-0.0128511 -0.0164325 0)
(-0.00983825 -0.019027 0)
(-0.005976 -0.0207825 0)
(-0.00190886 -0.0180602 0)
(-0.00179844 0.0189845 0)
(-0.005711 0.0221967 0)
(-0.00958298 0.0207095 0)
(-0.0127384 0.0184049 0)
(-0.0152399 0.0157984 0)
(-0.0171564 0.0130778 0)
(-0.0185839 0.0103542 0)
(-0.0196212 0.00767827 0)
(-0.0203537 0.00505636 0)
(-0.0208441 0.00246346 0)
(-0.0211289 -0.000146937 0)
(-0.0212133 -0.00283309 0)
(-0.0210667 -0.00566078 0)
(-0.0206178 -0.00869183 0)
(-0.0197442 -0.0119691 0)
(-0.0182666 -0.0154911 0)
(-0.0159582 -0.0191678 0)
(-0.0125587 -0.0227477 0)
(-0.0079019 -0.0253726 0)
(-0.00261688 -0.0224946 0)
(-0.00237722 0.0231048 0)
(-0.00731328 0.02666 0)
(-0.0119329 0.0245039 0)
(-0.0155197 0.0214006 0)
(-0.0181946 0.0180681 0)
(-0.0201245 0.0147449 0)
(-0.0214817 0.011552 0)
(-0.0224263 0.00852484 0)
(-0.0230864 0.00564396 0)
(-0.0235534 0.00285406 0)
(-0.0238826 7.52626e-05 0)
(-0.0240912 -0.0027866 0)
(-0.0241541 -0.00584253 0)
(-0.0239913 -0.00920862 0)
(-0.0234504 -0.012995 0)
(-0.0222835 -0.0172771 0)
(-0.0201333 -0.022039 0)
(-0.0164558 -0.0270767 0)
(-0.0109364 -0.0310957 0)
(-0.00384654 -0.0286169 0)
(-0.00331883 0.0287074 0)
(-0.00971047 0.0322149 0)
(-0.0151921 0.0289527 0)
(-0.0191909 0.0246628 0)
(-0.0218966 0.0203661 0)
(-0.0236728 0.0163113 0)
(-0.024804 0.0126028 0)
(-0.0255292 0.009236 0)
(-0.0260244 0.00614648 0)
(-0.0264127 0.00323618 0)
(-0.0267694 0.000384558 0)
(-0.0271309 -0.00254672 0)
(-0.0274886 -0.0057203 0)
(-0.0277701 -0.00932284 0)
(-0.0278123 -0.0135631 0)
(-0.0273116 -0.0186515 0)
(-0.0257894 -0.0247377 0)
(-0.0221619 -0.0318799 0)
(-0.0160705 -0.0380987 0)
(-0.00625591 -0.0376073 0)
(-0.00516795 0.0349156 0)
(-0.0137535 0.0386271 0)
(-0.0198949 0.0339511 0)
(-0.0241262 0.028018 0)
(-0.0265461 0.0224801 0)
(-0.0278861 0.0175703 0)
(-0.0285542 0.0133324 0)
(-0.0288791 0.00967923 0)
(-0.0290817 0.00647547 0)
(-0.0293102 0.00356489 0)
(-0.0296596 0.000780422 0)
(-0.0301894 -0.00206056 0)
(-0.0309226 -0.00516751 0)
(-0.0318252 -0.00880363 0)
(-0.0327681 -0.0133039 0)
(-0.0334458 -0.0190917 0)
(-0.0333776 -0.0266344 0)
(-0.0305562 -0.0368311 0)
(-0.0252408 -0.046326 0)
(-0.0113267 -0.0517533 0)
(-0.00723905 0.0508221 0)
(-0.0188426 0.0478792 0)
(-0.0262627 0.0400512 0)
(-0.0306748 0.0312766 0)
(-0.0323039 0.0240544 0)
(-0.0327575 0.0181838 0)
(-0.0326134 0.0134738 0)
(-0.0322889 0.00966467 0)
(-0.0320282 0.00650405 0)
(-0.0319851 0.00376204 0)
(-0.0322605 0.00122578 0)
(-0.0329319 -0.00131963 0)
(-0.0340696 -0.00409809 0)
(-0.0357235 -0.00747324 0)
(-0.0378841 -0.0119498 0)
(-0.0403707 -0.0183598 0)
(-0.0431692 -0.0275754 0)
(-0.042386 -0.0423346 0)
(-0.0412181 -0.0573274 0)
(-0.0209811 -0.0764943 0)
(-0.0180036 0.0543688 0)
(-0.0360625 0.0570148 0)
(-0.0365801 0.0454574 0)
(-0.0394172 0.0339922 0)
(-0.0384404 0.0248848 0)
(-0.036916 0.0179855 0)
(-0.035254 0.0129006 0)
(-0.0338251 0.00910665 0)
(-0.0327996 0.00618039 0)
(-0.0322685 0.00380842 0)
(-0.0322971 0.00174764 0)
(-0.032942 -0.000215055 0)
(-0.0343589 -0.00230236 0)
(-0.0367622 -0.00477818 0)
(-0.04044 -0.00800727 0)
(-0.0453158 -0.0131053 0)
(-0.0525618 -0.0199551 0)
(-0.0545675 -0.0385633 0)
(-0.0616356 -0.0554178 0)
(-0.0275665 -0.111455 0)
(-0.0451493 0.12081 0)
(-0.0454112 0.058206 0)
(-0.0387838 0.0439146 0)
(-0.0316561 0.0293945 0)
(-0.0232791 0.0195604 0)
(-0.016575 0.0135337 0)
(-0.0113129 0.00950826 0)
(-0.00743426 0.0066595 0)
(-0.00472487 0.00457857 0)
(-0.00299906 0.00298884 0)
(-0.00214234 0.0016935 0)
(-0.00211352 0.000531817 0)
(-0.00292762 -0.000685141 0)
(-0.00450906 -0.00225589 0)
(-0.0073576 -0.00467338 0)
(-0.00929478 -0.0100207 0)
(-0.018514 -0.020009 0)
(-0.0113094 -0.0472343 0)
(-0.0391456 -0.0913062 0)
(0.0082966 -0.191773 0)
(0.128603 0.118424 0)
(0.143651 0.0566142 0)
(0.21176 0.0343157 0)
(0.240136 0.0209968 0)
(0.257718 0.0123955 0)
(0.270187 0.0075873 0)
(0.278648 0.00491957 0)
(0.284406 0.0033116 0)
(0.288402 0.00227395 0)
(0.291136 0.00156607 0)
(0.292889 0.00105159 0)
(0.293837 0.00064986 0)
(0.29389 0.000321595 0)
(0.293401 -0.000122045 0)
(0.290097 -0.000705528 0)
(0.289105 -0.00254973 0)
(0.269254 -0.00644531 0)
(0.273353 -0.0167367 0)
(0.176911 -0.0386572 0)
(0.17276 -0.106624 0)
)
;

boundaryField
{
    movingWall
    {
        type            fixedValue;
        value           uniform (1 0 0);
    }
    fixedWalls
    {
        type            noSlip;
    }
    frontAndBack
    {
        type            empty;
    }
}


// ************************************************************************* //
