/*--------------------------------*- C++ -*----------------------------------*\
  =========                 |
  \\      /  F ield         | OpenFOAM: The Open Source CFD Toolbox
   \\    /   O peration     | Website:  https://openfoam.org
    \\  /    A nd           | Version:  10
     \\/     M anipulation  |
\*---------------------------------------------------------------------------*/
FoamFile
{
    format      ascii;
    class       volVectorField;
    location    "4.125";
    object      U;
}
// * * * * * * * * * * * * * * * * * * * * * * * * * * * * * * * * * * * * * //

dimensions      [0 1 -1 0 0 0 0];

internalField   nonuniform List<vector> 
475
(
(0.972183 0.0169613 0)
(0.977399 0.00515356 0)
(0.948896 0.03226 0)
(0.955724 -0.000199182 0)
(0.91975 0.0302741 0)
(0.997824 0.00888693 0)
(1.01503 0.0142159 0)
(1.02585 0.0151196 0)
(1.04352 0.00899777 0)
(1.05582 -0.000202759 0)
(0.999859 0.000193811 0)
(1.01005 -0.00311814 0)
(1.02372 -0.00455505 0)
(1.04141 -0.00880111 0)
(1.05685 -0.016986 0)
(1.00006 -0.0101702 0)
(1.01019 -0.0195819 0)
(1.02187 -0.0218563 0)
(1.03653 -0.0229875 0)
(1.04429 -0.0274023 0)
(0.980848 -0.00959362 0)
(0.969043 -0.0192028 0)
(0.95338 -0.02161 0)
(0.934135 -0.0225882 0)
(0.906313 -0.0235959 0)
(0.9273 -0.0185029 0)
(0.936469 -0.0342357 0)
(0.94344 -0.0446378 0)
(0.950608 -0.0483447 0)
(0.970711 -0.0628086 0)
(0.998822 -0.089623 0)
(1.0295 -0.117165 0)
(1.05702 -0.161191 0)
(1.07967 -0.209085 0)
(1.09613 -0.248181 0)
(1.09326 -0.286959 0)
(1.08184 -0.312654 0)
(1.05546 -0.324325 0)
(1.01466 -0.318866 0)
(0.967894 -0.282658 0)
(0.90341 -0.236677 0)
(0.843123 -0.186477 0)
(0.788069 -0.116533 0)
(0.711358 -0.0418277 0)
(0.627566 0.0107086 0)
(0.565856 0.0396973 0)
(0.535265 0.0600622 0)
(0.530409 0.0790285 0)
(0.541579 0.0931744 0)
(0.558964 0.0977072 0)
(0.575514 0.0919942 0)
(0.587963 0.0791023 0)
(0.595941 0.0631121 0)
(0.600459 0.0472852 0)
(0.602782 0.0335427 0)
(0.603902 0.0226487 0)
(0.604443 0.0145984 0)
(0.604726 0.00898297 0)
(0.604899 0.00525668 0)
(0.605018 0.0028932 0)
(0.605103 0.0014587 0)
(0.605162 0.000628676 0)
(0.605204 0.000172447 0)
(0.605232 -5.52759e-05 0)
(0.605245 -0.000153927 0)
(0.605248 -0.000177161 0)
(0.605246 -0.000172103 0)
(0.605242 -0.000139844 0)
(0.605239 -0.000121248 0)
(0.605234 -7.40337e-05 0)
(1.06898 -0.00963561 0)
(1.07952 -0.0217727 0)
(1.08443 -0.0393395 0)
(1.08926 -0.0480085 0)
(1.09679 -0.0635748 0)
(1.09911 -0.0913678 0)
(1.10601 -0.1201 0)
(1.10551 -0.163167 0)
(1.09403 -0.204923 0)
(1.07775 -0.240436 0)
(1.04208 -0.276099 0)
(1.00352 -0.288809 0)
(0.954687 -0.283672 0)
(0.885533 -0.267853 0)
(0.817486 -0.22064 0)
(0.740116 -0.161649 0)
(0.658104 -0.101777 0)
(0.586524 -0.0202861 0)
(0.516194 0.0593929 0)
(0.45771 0.0937907 0)
(0.425433 0.0864815 0)
(0.416859 0.0695715 0)
(0.426155 0.0620283 0)
(0.448189 0.0627988 0)
(0.476473 0.0642056 0)
(0.50504 0.061491 0)
(0.530245 0.054225 0)
(0.550654 0.0442314 0)
(0.566223 0.0336605 0)
(0.577585 0.024073 0)
(0.585591 0.0162557 0)
(0.591072 0.0103804 0)
(0.594729 0.0062503 0)
(0.597113 0.00351301 0)
(0.598632 0.00179459 0)
(0.599575 0.000777605 0)
(0.600144 0.0002147 0)
(0.600472 -6.66795e-05 0)
(0.600657 -0.000187373 0)
(0.600757 -0.00022419 0)
(0.600806 -0.000212246 0)
(0.600825 -0.000187078 0)
(0.600828 -0.00014448 0)
(0.600826 -0.000120478 0)
(0.600816 -7.22426e-05 0)
(1.06739 -0.0228942 0)
(1.0792 -0.0325128 0)
(1.08044 -0.0497937 0)
(1.08105 -0.0600963 0)
(1.08132 -0.0762586 0)
(1.07168 -0.0984243 0)
(1.06796 -0.121495 0)
(1.05071 -0.154127 0)
(1.0256 -0.186709 0)
(0.996351 -0.218951 0)
(0.948511 -0.241561 0)
(0.901153 -0.240219 0)
(0.839956 -0.22262 0)
(0.753464 -0.199683 0)
(0.670672 -0.156659 0)
(0.591793 -0.0973749 0)
(0.515895 -0.0389955 0)
(0.461143 0.0231225 0)
(0.432253 0.0790552 0)
(0.42787 0.100416 0)
(0.437259 0.0876916 0)
(0.446725 0.0650227 0)
(0.454502 0.0496865 0)
(0.465013 0.0437678 0)
(0.480023 0.0419307 0)
(0.497946 0.0394823 0)
(0.516213 0.0347738 0)
(0.532745 0.0283078 0)
(0.546409 0.0213295 0)
(0.556914 0.0149305 0)
(0.564519 0.00972332 0)
(0.569744 0.00586718 0)
(0.573166 0.00323094 0)
(0.575306 0.00155732 0)
(0.576581 0.000569553 0)
(0.577301 3.45157e-05 0)
(0.577682 -0.000222571 0)
(0.577858 -0.000315679 0)
(0.577918 -0.000319934 0)
(0.577917 -0.000286215 0)
(0.577892 -0.000235046 0)
(0.577857 -0.000188755 0)
(0.577821 -0.000137917 0)
(0.577795 -0.000109514 0)
(0.577759 -6.3908e-05 0)
(1.04835 -0.0311604 0)
(1.05237 -0.0375455 0)
(1.04457 -0.0463931 0)
(1.03714 -0.0553486 0)
(1.0199 -0.0663992 0)
(0.997247 -0.0780418 0)
(0.969604 -0.0972475 0)
(0.924181 -0.115479 0)
(0.879044 -0.135767 0)
(0.805567 -0.164918 0)
(0.719995 -0.176726 0)
(0.647857 -0.168125 0)
(0.53556 -0.13676 0)
(0.38708 -0.0800877 0)
(0.275004 -0.0271031 0)
(0.211641 0.00897063 0)
(0.181429 0.0367469 0)
(0.182008 0.0622393 0)
(0.209186 0.0791568 0)
(0.250918 0.0794915 0)
(0.292868 0.066913 0)
(0.326575 0.0528356 0)
(0.352507 0.0425755 0)
(0.374695 0.0356528 0)
(0.395795 0.0301392 0)
(0.416163 0.0248019 0)
(0.434825 0.0193613 0)
(0.450694 0.0141299 0)
(0.463199 0.00955852 0)
(0.472368 0.00594059 0)
(0.478651 0.00333125 0)
(0.482683 0.00160735 0)
(0.485099 0.000565429 0)
(0.486437 -6.5342e-06 0)
(0.487093 -0.000276962 0)
(0.487352 -0.000371956 0)
(0.487399 -0.00037437 0)
(0.48734 -0.000335707 0)
(0.487241 -0.000280279 0)
(0.487133 -0.000223795 0)
(0.487035 -0.000170854 0)
(0.486952 -0.00012914 0)
(0.486884 -9.07307e-05 0)
(0.486839 -6.88717e-05 0)
(0.486785 -3.88313e-05 0)
(0.87862 -0.0236791 0)
(0.846619 -0.0283778 0)
(0.80926 -0.0287217 0)
(0.771267 -0.0332694 0)
(0.718532 -0.0388694 0)
(0.667259 -0.0400187 0)
(0.597936 -0.0531628 0)
(0.515886 -0.0547385 0)
(0.432509 -0.0690822 0)
(0.297481 -0.0995218 0)
(0.150719 -0.0694275 0)
(0.0443666 -0.00368017 0)
(-0.0219272 0.0275833 0)
(-0.0575399 0.0247646 0)
(-0.0732214 0.00937555 0)
(-0.0757006 0.000295954 0)
(-0.0654592 0.0015756 0)
(-0.0404555 0.00885247 0)
(-0.000401189 0.0142968 0)
(0.045818 0.0149349 0)
(0.0875772 0.0114134 0)
(0.121219 0.00725325 0)
(0.147209 0.00431133 0)
(0.167884 0.00271209 0)
(0.184949 0.00189769 0)
(0.199078 0.00134308 0)
(0.210358 0.00082577 0)
(0.218811 0.00034362 0)
(0.224665 -4.32812e-05 0)
(0.228361 -0.000299575 0)
(0.230441 -0.000430235 0)
(0.23142 -0.000463556 0)
(0.231716 -0.000435364 0)
(0.231636 -0.000380243 0)
(0.231383 -0.000314137 0)
(0.231073 -0.000248261 0)
(0.230772 -0.00018961 0)
(0.230509 -0.000141427 0)
(0.230293 -0.000103127 0)
(0.230122 -7.352e-05 0)
(0.229992 -5.12944e-05 0)
(0.229896 -3.5224e-05 0)
(0.229826 -2.30509e-05 0)
(0.229779 -1.55866e-05 0)
(0.229734 -7.81025e-06 0)
(-5.35357e-05 -0.0343911 0)
(-0.00756853 -0.0249239 0)
(-0.0409429 0.0095667 0)
(-0.126725 0.0463165 0)
(-0.237456 0.0588307 0)
(-0.336315 0.0534419 0)
(-0.412477 0.0414821 0)
(-0.456333 0.0274609 0)
(-0.468282 0.0121785 0)
(-0.451534 -0.00496771 0)
(-0.40781 -0.0212035 0)
(-0.338721 -0.0352367 0)
(-0.250134 -0.0456947 0)
(-0.147984 -0.0511686 0)
(-0.038478 -0.0527398 0)
(0.073015 -0.0499882 0)
(0.178905 -0.0412112 0)
(0.270713 -0.0273588 0)
(0.340649 -0.00984119 0)
(0.381126 0.0082477 0)
(0.388541 0.0215312 0)
(0.369248 0.025852 0)
(0.336681 0.0219521 0)
(0.302796 0.0149098 0)
(0.274513 0.00853364 0)
(0.254016 0.0040604 0)
(0.240682 0.00136693 0)
(0.23281 -5.0916e-05 0)
(0.228639 -0.000677352 0)
(0.226754 -0.000865418 0)
(0.226169 -0.000838296 0)
(0.226259 -0.000723634 0)
(0.226658 -0.000588245 0)
(0.22716 -0.00046187 0)
(0.227657 -0.000352829 0)
(0.228099 -0.000264545 0)
(0.228471 -0.000195679 0)
(0.22877 -0.000142773 0)
(0.229005 -0.000102492 0)
(0.229184 -7.25183e-05 0)
(0.229318 -5.03072e-05 0)
(0.229416 -3.43943e-05 0)
(0.229487 -2.256e-05 0)
(0.229534 -1.52687e-05 0)
(0.229579 -7.62803e-06 0)
(-0.0155054 0.0440529 0)
(-0.0693164 0.072572 0)
(-0.141521 0.11666 0)
(-0.204122 0.140994 0)
(-0.259176 0.137648 0)
(-0.296182 0.112031 0)
(-0.316996 0.0755745 0)
(-0.315143 0.0330028 0)
(-0.295581 -0.0128659 0)
(-0.254437 -0.0579815 0)
(-0.194981 -0.0992024 0)
(-0.116165 -0.134036 0)
(-0.0246572 -0.158164 0)
(0.0764984 -0.172866 0)
(0.178429 -0.179552 0)
(0.278332 -0.176394 0)
(0.373128 -0.159742 0)
(0.455564 -0.131735 0)
(0.524002 -0.0953411 0)
(0.580013 -0.0518624 0)
(0.619529 -0.00706016 0)
(0.634391 0.0282808 0)
(0.625019 0.0464013 0)
(0.600913 0.0482881 0)
(0.57238 0.0405737 0)
(0.546337 0.0297026 0)
(0.525777 0.0195815 0)
(0.510971 0.0117917 0)
(0.50095 0.00647558 0)
(0.494474 0.00314975 0)
(0.490457 0.00121316 0)
(0.488077 0.000167442 0)
(0.486751 -0.000342593 0)
(0.486089 -0.000545387 0)
(0.485821 -0.00058665 0)
(0.485774 -0.000546425 0)
(0.485842 -0.000472517 0)
(0.485961 -0.000389316 0)
(0.486091 -0.00030896 0)
(0.486215 -0.000238831 0)
(0.486321 -0.000178803 0)
(0.486407 -0.000133355 0)
(0.486478 -9.2842e-05 0)
(0.486523 -7.00195e-05 0)
(0.486578 -3.93204e-05 0)
(-0.030967 0.0378133 0)
(-0.0492187 0.0928343 0)
(-0.0431944 0.126983 0)
(-0.0383817 0.147135 0)
(-0.0235003 0.141458 0)
(-0.00141341 0.107215 0)
(0.021727 0.0605671 0)
(0.0514507 0.00920066 0)
(0.0928473 -0.0463575 0)
(0.148098 -0.103691 0)
(0.211741 -0.158854 0)
(0.282707 -0.207135 0)
(0.356454 -0.239712 0)
(0.431101 -0.253947 0)
(0.499323 -0.258679 0)
(0.557273 -0.252556 0)
(0.608787 -0.226326 0)
(0.649113 -0.184462 0)
(0.672941 -0.139351 0)
(0.68939 -0.0904946 0)
(0.707334 -0.0342057 0)
(0.720938 0.0199388 0)
(0.720329 0.0565695 0)
(0.704789 0.0695928 0)
(0.681149 0.0646402 0)
(0.656243 0.0512657 0)
(0.634258 0.0367314 0)
(0.616828 0.0245437 0)
(0.603914 0.0155635 0)
(0.59475 0.00942247 0)
(0.588442 0.00541332 0)
(0.584213 0.00288384 0)
(0.581451 0.0013393 0)
(0.579701 0.000436448 0)
(0.57863 -6.0286e-05 0)
(0.578009 -0.000304762 0)
(0.577672 -0.000394533 0)
(0.577512 -0.000399065 0)
(0.577452 -0.00035937 0)
(0.577448 -0.000304114 0)
(0.577469 -0.000242904 0)
(0.577499 -0.000192192 0)
(0.577533 -0.000139226 0)
(0.577557 -0.000110022 0)
(0.577591 -6.4094e-05 0)
(-0.0222124 0.15468 0)
(0.0180329 0.102647 0)
(0.0669879 0.122521 0)
(0.123923 0.137383 0)
(0.191916 0.124167 0)
(0.260624 0.0889365 0)
(0.323954 0.0397688 0)
(0.386233 -0.0247577 0)
(0.451925 -0.0924898 0)
(0.515175 -0.157022 0)
(0.57552 -0.214073 0)
(0.632701 -0.26117 0)
(0.682157 -0.298826 0)
(0.72686 -0.313181 0)
(0.765181 -0.306102 0)
(0.788186 -0.290922 0)
(0.799507 -0.256129 0)
(0.804556 -0.196332 0)
(0.796009 -0.135408 0)
(0.774046 -0.0860091 0)
(0.754976 -0.037258 0)
(0.746433 0.014963 0)
(0.740702 0.0594199 0)
(0.729827 0.0843579 0)
(0.712161 0.0878118 0)
(0.69052 0.0765559 0)
(0.668811 0.0594212 0)
(0.649799 0.0426446 0)
(0.634657 0.029019 0)
(0.623397 0.0190118 0)
(0.615436 0.0120659 0)
(0.610022 0.00740236 0)
(0.60645 0.0043453 0)
(0.604155 0.00238944 0)
(0.602714 0.00117997 0)
(0.601835 0.000463728 0)
(0.601313 6.78543e-05 0)
(0.601012 -0.000130171 0)
(0.600846 -0.000212364 0)
(0.60076 -0.000232139 0)
(0.60072 -0.000213371 0)
(0.600707 -0.000186127 0)
(0.600707 -0.000143192 0)
(0.600711 -0.000119391 0)
(0.600723 -7.17097e-05 0)
(0.0997524 0.00241518 0)
(0.120344 -0.0109279 0)
(0.224947 -0.00237385 0)
(0.309166 0.00303374 0)
(0.405706 -0.0119742 0)
(0.500967 -0.0397056 0)
(0.587613 -0.0762111 0)
(0.668578 -0.126673 0)
(0.743616 -0.179472 0)
(0.808007 -0.233647 0)
(0.856953 -0.286255 0)
(0.897222 -0.320138 0)
(0.923728 -0.341127 0)
(0.934185 -0.346294 0)
(0.930879 -0.324735 0)
(0.911594 -0.292844 0)
(0.88293 -0.248112 0)
(0.844825 -0.176841 0)
(0.797045 -0.101384 0)
(0.74692 -0.0459128 0)
(0.704073 -0.00457073 0)
(0.677635 0.0349709 0)
(0.667365 0.0713633 0)
(0.664923 0.0950575 0)
(0.662815 0.101129 0)
(0.657681 0.0925572 0)
(0.649388 0.0760259 0)
(0.639545 0.0576473 0)
(0.630019 0.04115 0)
(0.622035 0.0280107 0)
(0.616019 0.0183115 0)
(0.61184 0.0115212 0)
(0.609116 0.00695799 0)
(0.607429 0.00399989 0)
(0.606427 0.00214823 0)
(0.605852 0.00103281 0)
(0.605532 0.000389192 0)
(0.605356 4.00132e-05 0)
(0.605261 -0.000127319 0)
(0.605217 -0.000192418 0)
(0.605199 -0.000197342 0)
(0.605193 -0.000182597 0)
(0.605194 -0.000145191 0)
(0.605195 -0.000124125 0)
(0.6052 -7.52609e-05 0)
)
;

boundaryField
{
    inlet
    {
        type            fixedValue;
        value           uniform (1 0 0);
    }
    outlet
    {
        type            zeroGradient;
    }
    upperWall
    {
        type            noSlip;
    }
    lowerWall
    {
        type            noSlip;
    }
    frontAndBack
    {
        type            empty;
    }
}


// ************************************************************************* //
