/*--------------------------------*- C++ -*----------------------------------*\
  =========                 |
  \\      /  F ield         | OpenFOAM: The Open Source CFD Toolbox
   \\    /   O peration     | Website:  https://openfoam.org
    \\  /    A nd           | Version:  10
     \\/     M anipulation  |
\*---------------------------------------------------------------------------*/
FoamFile
{
    format      ascii;
    class       volVectorField;
    location    "3.95";
    object      U;
}
// * * * * * * * * * * * * * * * * * * * * * * * * * * * * * * * * * * * * * //

dimensions      [0 1 -1 0 0 0 0];

internalField   nonuniform List<vector> 
400
(
(-0.00011839 0.000114827 0)
(-0.00085 0.000331025 0)
(-0.00200828 0.000380319 0)
(-0.00309125 0.000377568 0)
(-0.0041401 0.000361336 0)
(-0.0051197 0.000338246 0)
(-0.00600624 0.00030783 0)
(-0.00677753 0.000268585 0)
(-0.00740894 0.000219073 0)
(-0.00787401 0.000158113 0)
(-0.00814521 8.50122e-05 0)
(-0.00819496 1.09353e-07 0)
(-0.00799765 -9.65615e-05 0)
(-0.00753297 -0.000202014 0)
(-0.00678968 -0.000311685 0)
(-0.00576891 -0.000418914 0)
(-0.00449404 -0.000513292 0)
(-0.0030363 -0.000574715 0)
(-0.00137839 -0.000544241 0)
(-0.000240682 -0.000253684 0)
(-0.000348573 0.000854619 0)
(-0.00175307 0.001699 0)
(-0.00376463 0.00187424 0)
(-0.00565162 0.00183674 0)
(-0.0074582 0.0017313 0)
(-0.00912453 0.0015861 0)
(-0.0106074 0.0014031 0)
(-0.0118689 0.00118006 0)
(-0.0128704 0.000914573 0)
(-0.0135729 0.000604964 0)
(-0.0139375 0.000250784 0)
(-0.0139286 -0.000146933 0)
(-0.0135136 -0.000580617 0)
(-0.012668 -0.00103834 0)
(-0.011382 -0.00150192 0)
(-0.00966423 -0.00194507 0)
(-0.00755702 -0.00232778 0)
(-0.00516567 -0.0025718 0)
(-0.00248097 -0.00246072 0)
(-0.000521731 -0.0013592 0)
(-0.000420593 0.00207648 0)
(-0.0020524 0.00374978 0)
(-0.00435554 0.00407612 0)
(-0.00650915 0.00397379 0)
(-0.00856557 0.00372509 0)
(-0.0104585 0.00338738 0)
(-0.0121405 0.00296768 0)
(-0.0135705 0.00246472 0)
(-0.0147066 0.00187641 0)
(-0.0155069 0.0012017 0)
(-0.0159308 0.000441734 0)
(-0.0159357 -0.000398937 0)
(-0.0154824 -0.00130685 0)
(-0.0145424 -0.00225816 0)
(-0.0130998 -0.00321625 0)
(-0.0111575 -0.00412838 0)
(-0.0087565 -0.00491517 0)
(-0.00601234 -0.00542018 0)
(-0.00291104 -0.00522112 0)
(-0.000622785 -0.00305986 0)
(-0.000446228 0.00331094 0)
(-0.0021877 0.00584498 0)
(-0.00464598 0.00632283 0)
(-0.00694115 0.00615264 0)
(-0.00913595 0.00576067 0)
(-0.0111622 0.00523294 0)
(-0.0129723 0.00458074 0)
(-0.0145249 0.00380303 0)
(-0.0157774 0.00289709 0)
(-0.0166859 0.00186103 0)
(-0.0172055 0.000696052 0)
(-0.0172893 -0.000590162 0)
(-0.0168877 -0.00198325 0)
(-0.0159564 -0.0034504 0)
(-0.0144642 -0.00493874 0)
(-0.0123985 -0.00636854 0)
(-0.00978891 -0.0076154 0)
(-0.00675763 -0.00843274 0)
(-0.00328485 -0.00816589 0)
(-0.00070359 -0.00486529 0)
(-0.000468889 0.00462324 0)
(-0.00231807 0.00807714 0)
(-0.00493552 0.00871602 0)
(-0.00737929 0.00847653 0)
(-0.00972321 0.00793845 0)
(-0.0118979 0.00721807 0)
(-0.0138569 0.00633102 0)
(-0.0155601 0.00527601 0)
(-0.0169646 0.00404866 0)
(-0.0180249 0.00264445 0)
(-0.0186909 0.00106155 0)
(-0.0189079 -0.000694926 0)
(-0.0186125 -0.00261051 0)
(-0.0177396 -0.00464788 0)
(-0.0162319 -0.00674152 0)
(-0.0140472 -0.0087841 0)
(-0.01119 -0.0105969 0)
(-0.00778633 -0.0118188 0)
(-0.00381088 -0.0115148 0)
(-0.000820726 -0.00693188 0)
(-0.00049813 0.00601962 0)
(-0.00248156 0.0104649 0)
(-0.00529667 0.0112781 0)
(-0.00792564 0.0109693 0)
(-0.0104554 0.0102841 0)
(-0.0128155 0.00937144 0)
(-0.014962 0.00825157 0)
(-0.016857 0.00692238 0)
(-0.0184593 0.00537642 0)
(-0.0197222 0.00360398 0)
(-0.0205916 0.00159632 0)
(-0.0210045 -0.000649401 0)
(-0.0208794 -0.00312754 0)
(-0.0201224 -0.00580301 0)
(-0.0186384 -0.00860354 0)
(-0.0163378 -0.0113953 0)
(-0.0131777 -0.0139351 0)
(-0.00927426 -0.0157114 0)
(-0.00459236 -0.0154305 0)
(-0.00100287 -0.00937697 0)
(-0.000535541 0.0075206 0)
(-0.00268616 0.0130434 0)
(-0.0057449 0.0140466 0)
(-0.00860033 0.0136676 0)
(-0.0113556 0.0128339 0)
(-0.0139399 0.01173 0)
(-0.0163132 0.0103816 0)
(-0.0184423 0.00878549 0)
(-0.02029 0.00692958 0)
(-0.0218115 0.00479602 0)
(-0.0229502 0.00236396 0)
(-0.023637 -0.000385814 0)
(-0.0237708 -0.00346178 0)
(-0.0232213 -0.00685002 0)
(-0.0218411 -0.0104842 0)
(-0.0194668 -0.0142123 0)
(-0.0159696 -0.0177183 0)
(-0.0114215 -0.020292 0)
(-0.00576425 -0.0201511 0)
(-0.00129322 -0.0123904 0)
(-0.000581587 0.00915145 0)
(-0.00293514 0.0158556 0)
(-0.00628631 0.0170654 0)
(-0.00940941 0.0166126 0)
(-0.0124283 0.0156265 0)
(-0.0152722 0.0143319 0)
(-0.017908 0.0127609 0)
(-0.0203102 0.0109097 0)
(-0.0224498 0.00876063 0)
(-0.0242887 0.006285 0)
(-0.0257741 0.0034439 0)
(-0.0268306 0.0001925 0)
(-0.0273442 -0.00350447 0)
(-0.0271477 -0.00767764 0)
(-0.0260204 -0.0122921 0)
(-0.0236915 -0.0172014 0)
(-0.0198861 -0.0220201 0)
(-0.0145515 -0.0257851 0)
(-0.00757673 -0.0260111 0)
(-0.0017837 -0.0162792 0)
(-0.000637421 0.0109392 0)
(-0.00323343 0.018947 0)
(-0.00692888 0.0203785 0)
(-0.0103598 0.0198433 0)
(-0.0136765 0.0186969 0)
(-0.0168099 0.01721 0)
(-0.0197364 0.0154236 0)
(-0.0224433 0.0133346 0)
(-0.0249152 0.0109204 0)
(-0.0271287 0.00813967 0)
(-0.029043 0.0049309 0)
(-0.0305852 0.00121492 0)
(-0.0316413 -0.00309679 0)
(-0.0320127 -0.00810143 0)
(-0.0313931 -0.0138426 0)
(-0.0293646 -0.0202325 0)
(-0.025421 -0.0268512 0)
(-0.0192222 -0.0324371 0)
(-0.0105406 -0.0334827 0)
(-0.00268671 -0.0215835 0)
(-0.000705845 0.0129152 0)
(-0.0035906 0.0223677 0)
(-0.00768682 0.0240311 0)
(-0.011464 0.0233957 0)
(-0.0151072 0.0220736 0)
(-0.0185504 0.0203886 0)
(-0.0217844 0.0183941 0)
(-0.0248143 0.0160904 0)
(-0.0276456 0.013452 0)
(-0.030279 0.010426 0)
(-0.0326995 0.00692691 0)
(-0.0348589 0.00283221 0)
(-0.0366618 -0.00202161 0)
(-0.0379001 -0.00783507 0)
(-0.0381951 -0.0148017 0)
(-0.0369522 -0.0229918 0)
(-0.0333321 -0.032058 0)
(-0.0264367 -0.0404398 0)
(-0.0157751 -0.0432255 0)
(-0.00451892 -0.0293483 0)
(-0.000792829 0.0151189 0)
(-0.00402452 0.0261758 0)
(-0.0085853 0.0280698 0)
(-0.0127446 0.0273016 0)
(-0.0167343 0.0257765 0)
(-0.0204947 0.02388 0)
(-0.0240359 0.0216818 0)
(-0.0273866 0.0191899 0)
(-0.0305809 0.0163807 0)
(-0.0336551 0.0131948 0)
(-0.0366383 0.00952589 0)
(-0.0395357 0.00520485 0)
(-0.042312 -1.94322e-05 0)
(-0.0448064 -0.00647443 0)
(-0.0466252 -0.0146102 0)
(-0.0470255 -0.0248248 0)
(-0.0447635 -0.0370827 0)
(-0.0380452 -0.04966 0)
(-0.0257792 -0.0559819 0)
(-0.00857465 -0.0418735 0)
(-0.000910691 0.0176065 0)
(-0.00456799 0.0304425 0)
(-0.00966763 0.0325432 0)
(-0.0142401 0.0315862 0)
(-0.0185841 0.0298129 0)
(-0.0226509 0.0276789 0)
(-0.0264762 0.0252744 0)
(-0.030117 0.0226198 0)
(-0.0336425 0.0197014 0)
(-0.037136 0.0164648 0)
(-0.0406923 0.0127995 0)
(-0.0444087 0.00850917 0)
(-0.0483502 0.00326906 0)
(-0.0525231 -0.00342127 0)
(-0.0566965 -0.0123299 0)
(-0.0601513 -0.024442 0)
(-0.0613206 -0.0404364 0)
(-0.0572424 -0.0589186 0)
(-0.0456475 -0.0723252 0)
(-0.0179211 -0.063858 0)
(-0.00108567 0.0204639 0)
(-0.00528183 0.035259 0)
(-0.0110063 0.0374939 0)
(-0.0160128 0.0362564 0)
(-0.0207005 0.0341689 0)
(-0.0250393 0.0317573 0)
(-0.029097 0.029132 0)
(-0.0329615 0.0263312 0)
(-0.036738 0.0233608 0)
(-0.0405593 0.0201893 0)
(-0.0445969 0.016729 0)
(-0.0490719 0.0127974 0)
(-0.054259 0.00804227 0)
(-0.0604742 0.00181316 0)
(-0.0679665 -0.00694484 0)
(-0.0765346 -0.0198831 0)
(-0.0846852 -0.0390716 0)
(-0.0882026 -0.0650381 0)
(-0.0813013 -0.0922354 0)
(-0.0351205 -0.104864 0)
(-0.00137261 0.0238171 0)
(-0.00629391 0.040806 0)
(-0.0127315 0.0430804 0)
(-0.018156 0.0414397 0)
(-0.0231442 0.0388998 0)
(-0.0276938 0.0361004 0)
(-0.0319043 0.0331921 0)
(-0.0358897 0.0302323 0)
(-0.0397855 0.0272476 0)
(-0.0437684 0.0242471 0)
(-0.0480852 0.0212181 0)
(-0.0531003 0.0180869 0)
(-0.0593588 0.0146235 0)
(-0.0676373 0.0102525 0)
(-0.0789959 0.00378528 0)
(-0.0946362 -0.00711357 0)
(-0.113873 -0.0269329 0)
(-0.129493 -0.0628308 0)
(-0.127376 -0.11791 0)
(-0.0495849 -0.180002 0)
(-0.00178554 0.0281077 0)
(-0.00755526 0.0465737 0)
(-0.0149251 0.048436 0)
(-0.0208165 0.0460696 0)
(-0.026096 0.0431309 0)
(-0.0307497 0.040115 0)
(-0.034963 0.0370865 0)
(-0.0388995 0.0340734 0)
(-0.0427079 0.0311288 0)
(-0.0465588 0.0283319 0)
(-0.0507045 0.0257959 0)
(-0.0555829 0.0236475 0)
(-0.0619783 0.0219885 0)
(-0.0712216 0.0206864 0)
(-0.085497 0.0189377 0)
(-0.107783 0.0135922 0)
(-0.137866 -0.00397598 0)
(-0.15996 -0.0573502 0)
(-0.154517 -0.164884 0)
(-0.0404628 -0.291848 0)
(-0.0037085 0.0320589 0)
(-0.0114355 0.0558757 0)
(-0.0184724 0.0573466 0)
(-0.0241912 0.0544767 0)
(-0.0291893 0.0503815 0)
(-0.0337566 0.0462337 0)
(-0.0379294 0.0422821 0)
(-0.0417805 0.038623 0)
(-0.0453869 0.035337 0)
(-0.0488649 0.0325374 0)
(-0.0524121 0.0304632 0)
(-0.0563927 0.0295248 0)
(-0.061547 0.0304165 0)
(-0.0692372 0.0338392 0)
(-0.082049 0.0398649 0)
(-0.102488 0.0428049 0)
(-0.131457 0.0274368 0)
(-0.146395 -0.0560491 0)
(-0.139797 -0.22878 0)
(-0.0207798 -0.398891 0)
(-0.00147645 0.04613 0)
(-0.00966338 0.0587947 0)
(-0.0217272 0.0580678 0)
(-0.0281218 0.0533268 0)
(-0.0341413 0.0496014 0)
(-0.0385798 0.0462022 0)
(-0.0421073 0.0429977 0)
(-0.0449888 0.0398986 0)
(-0.0473786 0.0370007 0)
(-0.0493362 0.034433 0)
(-0.0508794 0.0326111 0)
(-0.0520026 0.0320937 0)
(-0.0529419 0.0342069 0)
(-0.0538971 0.0399164 0)
(-0.0570688 0.0505844 0)
(-0.0606277 0.0561505 0)
(-0.0779343 0.040392 0)
(-0.0796781 -0.0617165 0)
(-0.0875783 -0.276694 0)
(-0.00424851 -0.474467 0)
(-0.0114091 0.0362674 0)
(-0.0256582 0.0820342 0)
(-0.0267724 0.0790306 0)
(-0.0345265 0.073331 0)
(-0.0380069 0.0657382 0)
(-0.0399841 0.0587119 0)
(-0.0404665 0.0524827 0)
(-0.0399909 0.0469903 0)
(-0.0388378 0.0422381 0)
(-0.0370094 0.0381667 0)
(-0.0347235 0.0350231 0)
(-0.0314045 0.033383 0)
(-0.0274421 0.0346229 0)
(-0.0200866 0.0396056 0)
(-0.0133226 0.0518021 0)
(0.00714303 0.0596711 0)
(0.0138783 0.0512023 0)
(0.0474572 -0.0452144 0)
(0.00943997 -0.283072 0)
(0.0397045 -0.500319 0)
(-0.0754689 0.0995019 0)
(-0.060479 0.0627549 0)
(-0.0617002 0.061347 0)
(-0.0414576 0.0544467 0)
(-0.0246794 0.0472809 0)
(-0.0061703 0.0416505 0)
(0.0110649 0.0372746 0)
(0.0275247 0.0333321 0)
(0.042242 0.0301276 0)
(0.0565594 0.0268584 0)
(0.0688653 0.024583 0)
(0.0821526 0.0223041 0)
(0.092442 0.0219542 0)
(0.111446 0.0220892 0)
(0.118581 0.0230439 0)
(0.164557 0.0214656 0)
(0.165237 -0.00537031 0)
(0.22422 -0.0648965 0)
(0.162024 -0.258185 0)
(0.127397 -0.44451 0)
(0.120405 0.140221 0)
(0.15395 0.0865694 0)
(0.233097 0.0644191 0)
(0.288592 0.0493104 0)
(0.331857 0.0387831 0)
(0.37012 0.0310554 0)
(0.400541 0.0256503 0)
(0.431177 0.0215603 0)
(0.451777 0.0182191 0)
(0.479028 0.0160807 0)
(0.490736 0.0133055 0)
(0.518391 0.0124146 0)
(0.520383 0.010215 0)
(0.553345 0.009682 0)
(0.543375 0.00878868 0)
(0.582685 0.00428637 0)
(0.552906 -0.00267724 0)
(0.570141 -0.0292212 0)
(0.438353 -0.0826302 0)
(0.277911 -0.156656 0)
)
;

boundaryField
{
    movingWall
    {
        type            fixedValue;
        value           uniform (1 0 0);
    }
    fixedWalls
    {
        type            noSlip;
    }
    frontAndBack
    {
        type            empty;
    }
}


// ************************************************************************* //
