/*--------------------------------*- C++ -*----------------------------------*\
  =========                 |
  \\      /  F ield         | OpenFOAM: The Open Source CFD Toolbox
   \\    /   O peration     | Website:  https://openfoam.org
    \\  /    A nd           | Version:  10
     \\/     M anipulation  |
\*---------------------------------------------------------------------------*/
FoamFile
{
    format      ascii;
    class       volScalarField;
    location    "1";
    object      p;
}
// * * * * * * * * * * * * * * * * * * * * * * * * * * * * * * * * * * * * * //

dimensions      [0 2 -2 0 0 0 0];

internalField   nonuniform List<scalar> 
400
(
-8.89264e-10
3.7407e-05
0.000162565
0.000361159
0.000629066
0.000959931
0.00134577
0.00177723
0.00224375
0.00273376
0.00323488
0.00373414
0.00421824
0.00467391
0.00508816
0.00544879
0.00574476
0.00596678
0.0061083
0.00615313
-3.74352e-05
-2.9468e-08
0.000126548
0.000327153
0.000597818
0.000932193
0.00132226
0.0017586
0.00223059
0.00272658
0.00323405
0.00373994
0.00423077
0.00469305
0.0051136
0.00547993
0.00578076
0.00600656
0.00615076
0.00619611
-0.000164809
-0.000126569
4.76619e-06
0.00021299
0.000494016
0.000841274
0.00124648
0.00169994
0.00219071
0.0027068
0.00323537
0.00376282
0.00427523
0.00475853
0.00519889
0.00558309
0.00589907
0.00613656
0.00628839
0.00633587
-0.000375077
-0.000334898
-0.000195617
2.52876e-05
0.000323496
0.000692053
0.00112223
0.00160384
0.00212544
0.00267448
0.0032375
0.00380025
0.00434802
0.0048658
0.0053387
0.00575232
0.0060933
0.00635015
0.00651466
0.00656623
-0.000673401
-0.000630313
-0.000479686
-0.000240732
8.18683e-05
0.000480588
0.000946043
0.00146737
0.00203239
0.00262782
0.0032394
0.00385199
0.00444978
0.00501655
0.00553589
0.00599172
0.0063688
0.00665375
0.00683679
0.00689455
-0.00106744
-0.00102047
-0.000854783
-0.000591951
-0.00023717
0.000201233
0.00071299
0.00128633
0.00190816
0.00256427
0.00323945
0.00391749
0.00458128
0.00521302
0.00579441
0.00630707
0.00673316
0.00705656
0.00726517
0.00733167
-0.00156719
-0.00151527
-0.00133039
-0.00103722
-0.000641684
-0.000153207
0.000416775
0.00105534
0.0017483
0.00248038
0.00323529
0.00399572
0.00474304
0.00545764
0.00611891
0.0067055
0.0071961
0.00757071
0.00781372
0.00789228
-0.00218549
-0.00212745
-0.00191862
-0.00158775
-0.00114181
-0.000591721
4.95671e-05
0.000767696
0.0015472
0.00237164
0.00322365
0.00408483
0.00493504
0.00575272
0.00651454
0.00719556
0.0077698
0.00821185
0.00850086
0.00859605
-0.00293855
-0.00287302
-0.00263459
-0.00225741
-0.00174995
-0.00112518
-0.000398048
0.000415317
0.00129798
0.00223234
0.00320002
0.00418177
0.00515621
0.00609985
0.00698647
0.00778682
0.00846893
0.0089998
0.00935063
0.00946916
-0.00384673
-0.00377197
-0.00349697
-0.00306306
-0.00248093
-0.00176639
-0.000937045
-1.12178e-05
0.000992506
0.0020554
0.00315838
0.00428184
0.00540368
0.00649905
0.00753891
0.0084892
0.00931046
0.00995917
0.0103943
0.0105467
-0.00493577
-0.00484925
-0.00452881
-0.00402509
-0.00335223
-0.00253009
-0.00157981
-0.000522474
0.000621495
0.00183241
0.00309097
0.00437802
0.00567182
0.00694729
0.00817353
0.00931155
0.010313
0.01112
0.0116724
0.0118765
-0.00623874
-0.00613633
-0.00575863
-0.005168
-0.0043842
-0.00343281
-0.00233976
-0.00112966
0.000174969
0.0015538
0.00298806
0.00446039
0.00595102
0.0074367
0.0088868
0.0102589
0.0114947
0.0125182
0.0132378
0.0135263
-0.00779952
-0.00767344
-0.00722223
-0.00652127
-0.00560013
-0.00449233
-0.00323036
-0.00184351
-0.000356758
0.00120946
0.00283813
0.00451554
0.00622624
0.00795206
0.00966643
0.0113276
0.0128693
0.0141941
0.0151591
0.0155948
-0.00967998
-0.00951361
-0.00896552
-0.00812056
-0.00702625
-0.00572653
-0.00426356
-0.00267274
-0.000981536
0.000790137
0.00262843
0.00452646
0.00647539
0.00846726
0.0104858
0.0124973
0.0144358
0.0161895
0.0175251
0.0182306
-0.0119555
-0.0117249
-0.0110486
-0.0100092
-0.00869087
-0.00715176
-0.00544788
-0.00362181
-0.00170329
0.000289821
0.00235026
0.00447344
0.00666837
0.00894165
0.0112962
0.0137194
0.0161615
0.0185339
0.020428
0.0216968
-0.0148739
-0.0144452
-0.0135661
-0.0122407
-0.0106233
-0.00877991
-0.00678431
-0.00468688
-0.00251858
-0.000293764
0.00198688
0.00433362
0.00676705
0.00931713
0.0120172
0.0148936
0.0179367
0.0211781
0.0238873
0.026416
-0.01793
-0.017607
-0.0165658
-0.0148643
-0.0128469
-0.0106116
-0.00825996
-0.0058498
-0.00341088
-0.000950489
0.00154199
0.00409001
0.00672945
0.00951479
0.0125154
0.0158176
0.0194745
0.0239466
0.0276487
0.0330493
-0.0247208
-0.0218699
-0.0204517
-0.0179974
-0.0153769
-0.0126134
-0.0098232
-0.00705865
-0.00433614
-0.00164751
0.001034
0.00375585
0.00654366
0.00951286
0.0127945
0.0166375
0.0211017
0.0274808
0.0330765
0.0431304
-0.0285289
-0.0279247
-0.0254789
-0.0221925
-0.0185798
-0.0149573
-0.0115364
-0.00832733
-0.00529086
-0.00238294
0.00044174
0.00323083
0.00606414
0.00898323
0.0120141
0.0156209
0.01853
0.026971
0.0294471
0.052001
-0.0543981
-0.0297833
-0.0278746
-0.023754
-0.0195009
-0.0156839
-0.0121494
-0.00882338
-0.00569016
-0.0027114
0.000162734
0.00298803
0.00582532
0.00882178
0.0120808
0.0165725
0.0219731
0.0347566
0.050725
0.0999033
)
;

boundaryField
{
    movingWall
    {
        type            zeroGradient;
    }
    fixedWalls
    {
        type            zeroGradient;
    }
    frontAndBack
    {
        type            empty;
    }
}


// ************************************************************************* //
