/*--------------------------------*- C++ -*----------------------------------*\
  =========                 |
  \\      /  F ield         | OpenFOAM: The Open Source CFD Toolbox
   \\    /   O peration     | Website:  https://openfoam.org
    \\  /    A nd           | Version:  10
     \\/     M anipulation  |
\*---------------------------------------------------------------------------*/
FoamFile
{
    format      ascii;
    class       surfaceScalarField;
    location    "1";
    object      phi;
}
// * * * * * * * * * * * * * * * * * * * * * * * * * * * * * * * * * * * * * //

dimensions      [0 3 -1 0 0 0 0];

internalField   nonuniform List<scalar> 
760
(
-1.25936e-05
1.25936e-05
-2.75876e-05
1.4994e-05
-4.20426e-05
1.44551e-05
-5.54253e-05
1.33826e-05
-6.73974e-05
1.19722e-05
-7.76694e-05
1.0272e-05
-8.59967e-05
8.32733e-06
-9.21822e-05
6.18552e-06
-9.60767e-05
3.89442e-06
-9.75788e-05
1.50214e-06
-9.66362e-05
-9.42554e-07
-9.32473e-05
-3.38897e-06
-8.74635e-05
-5.78376e-06
-7.93936e-05
-8.06995e-06
-6.92069e-05
-1.01867e-05
-5.71364e-05
-1.20705e-05
-4.34792e-05
-1.36572e-05
-2.86005e-05
-1.48788e-05
-1.30863e-05
-1.55142e-05
-1.30863e-05
-1.56117e-05
2.82053e-05
-3.39191e-05
3.33014e-05
-5.15551e-05
3.20911e-05
-6.78725e-05
2.97e-05
-8.24562e-05
2.65559e-05
-9.49546e-05
2.27703e-05
-0.000105074
1.84466e-05
-0.000112579
1.36909e-05
-0.000117294
8.6096e-06
-0.000119101
3.3086e-06
-0.000117938
-2.10526e-06
-0.000113805
-7.5224e-06
-0.000106763
-1.28256e-05
-9.6942e-05
-1.78909e-05
-8.45444e-05
-2.25844e-05
-6.98496e-05
-2.67652e-05
-5.32169e-05
-3.02899e-05
-3.5092e-05
-3.30037e-05
-1.61831e-05
-3.44231e-05
-2.92694e-05
-1.65181e-05
4.47233e-05
-3.58857e-05
5.2669e-05
-5.45216e-05
5.0727e-05
-7.17454e-05
4.69237e-05
-8.71227e-05
4.19333e-05
-0.000100289
3.5937e-05
-0.000110945
2.91021e-05
-0.000118851
2.15971e-05
-0.00012383
1.35889e-05
-0.000125763
5.24122e-06
-0.000124581
-3.28682e-06
-0.000120283
-1.18205e-05
-0.000112922
-2.01865e-05
-0.000102622
-2.81918e-05
-8.95791e-05
-3.56268e-05
-7.40771e-05
-4.22672e-05
-5.6486e-05
-4.7881e-05
-3.72746e-05
-5.22151e-05
-1.71951e-05
-5.45026e-05
-4.64645e-05
-1.76865e-05
6.24098e-05
-3.84216e-05
7.34042e-05
-5.83476e-05
7.06529e-05
-7.67338e-05
6.531e-05
-9.31216e-05
5.83211e-05
-0.000107134
4.99494e-05
-0.000118466
4.04343e-05
-0.000126881
3.00122e-05
-0.000132203
1.8911e-05
-0.000134312
7.35016e-06
-0.000133137
-4.46191e-06
-0.000128664
-1.62936e-05
-0.000120933
-2.79172e-05
-0.000110052
-3.90729e-05
-9.62064e-05
-4.94727e-05
-7.96728e-05
-5.88008e-05
-6.0832e-05
-6.67217e-05
-4.0183e-05
-7.28641e-05
-1.85465e-05
-7.61391e-05
-6.5011e-05
-1.93231e-05
8.17329e-05
-4.19624e-05
9.60434e-05
-6.36762e-05
9.23668e-05
-8.36626e-05
8.52964e-05
-0.00010143
7.60887e-05
-0.000116588
6.51074e-05
-0.000128832
5.26778e-05
-0.00013793
3.91106e-05
-0.000143715
2.46959e-05
-0.000146069
9.70434e-06
-0.000144917
-5.61448e-06
-0.000140228
-2.09824e-05
-0.000132021
-3.61238e-05
-0.000120376
-5.07179e-05
-0.000105453
-6.43961e-05
-8.75138e-05
-7.67396e-05
-6.69469e-05
-8.72887e-05
-4.42899e-05
-9.55211e-05
-2.04623e-05
-9.99667e-05
-8.54734e-05
-2.14992e-05
0.000103232
-4.66573e-05
0.000121202
-7.07182e-05
0.000116428
-9.27836e-05
0.000107362
-0.000112323
9.56278e-05
-0.000128935
8.17196e-05
-0.000142324
6.60669e-05
-0.000152278
4.90644e-05
-0.000158645
3.10634e-05
-0.000161319
1.23782e-05
-0.000160219
-6.71469e-06
-0.000155293
-2.59081e-05
-0.000146526
-4.48911e-05
-0.000133951
-6.3293e-05
-0.000117682
-8.06655e-05
-9.7947e-05
-9.64742e-05
-7.51302e-05
-0.000110106
-4.98134e-05
-0.000120838
-2.30492e-05
-0.000126731
-0.000108523
-2.43074e-05
0.00012754
-5.26963e-05
0.000149591
-7.97336e-05
0.000143465
-0.000104397
0.000132025
-0.000126113
0.000117344
-0.000144482
0.000100089
-0.000159236
8.08211e-05
-0.000170202
6.003e-05
-0.000177264
3.81256e-05
-0.000180337
1.54507e-05
-0.000179339
-7.71212e-06
-0.000174189
-3.10579e-05
-0.00016482
-5.42605e-05
-0.000151192
-7.69215e-05
-0.000133337
-9.85204e-05
-0.000111415
-0.000118396
-8.57795e-05
-0.000135741
-5.70514e-05
-0.000149566
-2.6457e-05
-0.000157325
-0.00013498
-2.78837e-05
0.000155423
-6.03511e-05
0.000182058
-9.10865e-05
0.0001742
-0.000118911
0.000159849
-0.000143213
0.000141646
-0.000163619
0.000120495
-0.000179923
9.7125e-05
-0.000192025
7.21316e-05
-0.000199874
4.59748e-05
-0.000203426
1.90029e-05
-0.000202609
-8.52873e-06
-0.0001973
-3.63672e-05
-0.000187357
-6.42039e-05
-0.000172627
-9.16514e-05
-0.000153008
-0.000118139
-0.000128532
-0.000142872
-9.94645e-05
-0.000164808
-6.6444e-05
-0.000182587
-3.0913e-05
-0.000192856
-0.000165893
-3.24306e-05
0.000187854
-7.0016e-05
0.000219643
-0.00010529
0.000209474
-0.000136881
0.00019144
-0.000164161
0.000168927
-0.000186831
0.000143164
-0.000204801
0.000115096
-0.000218102
8.54321e-05
-0.000226792
5.46649e-05
-0.000230899
2.31099e-05
-0.000230376
-9.05147e-06
-0.000225049
-4.16941e-05
-0.00021467
-7.45833e-05
-0.000198918
-0.000107403
-0.000177476
-0.000139581
-0.000150145
-0.000170203
-0.000117009
-0.000197945
-7.86515e-05
-0.000220944
-3.6771e-05
-0.000234737
-0.000202664
-3.82589e-05
0.000226113
-8.22749e-05
0.000263659
-0.000123076
0.000250276
-0.000159069
0.000227433
-0.000189661
0.000199519
-0.000214712
0.000168215
-0.000234346
0.000134729
-0.000248803
9.9889e-05
-0.000258318
6.41805e-05
-0.000263037
2.78284e-05
-0.000262962
-9.12601e-06
-0.000257867
-4.6789e-05
-0.000247358
-8.50931e-05
-0.00023087
-0.00012389
-0.000207758
-0.000162693
-0.000177435
-0.000200527
-0.000139617
-0.000235763
-9.46873e-05
-0.000265873
-4.46031e-05
-0.000284821
-0.000247267
-4.58645e-05
0.000271977
-9.80125e-05
0.000315807
-0.00014551
0.000297773
-0.000186527
0.00026845
-0.000220629
0.000233621
-0.000247985
0.000195571
-0.000269076
0.00015582
-0.000284474
0.000115288
-0.000294685
7.43908e-05
-0.00030003
3.31735e-05
-0.000300602
-8.55358e-06
-0.000296131
-5.12605e-05
-0.000286042
-9.51813e-05
-0.000269436
-0.000140497
-0.00024517
-0.000186959
-0.00021204
-0.000233657
-0.000169083
-0.000278719
-0.000116151
-0.000318806
-5.53814e-05
-0.00034559
-0.000302648
-5.60749e-05
0.000328052
-0.000118606
0.000378338
-0.000174162
0.000353329
-0.000220725
0.000315013
-0.000258264
0.00027116
-0.000287515
0.000224822
-0.00030953
0.000177836
-0.000325385
0.000131142
-0.000335977
8.49835e-05
-0.000341891
3.90874e-05
-0.000343351
-7.09344e-06
-0.00034007
-5.4542e-05
-0.000331282
-0.00010397
-0.000315669
-0.00015611
-0.000291385
-0.000211242
-0.000256247
-0.000268795
-0.000208119
-0.000326847
-0.000145645
-0.00038128
-7.08621e-05
-0.000420373
-0.00037351
-7.03462e-05
0.000398398
-0.000146262
0.000454254
-0.0002114
0.000418467
-0.000263728
0.000367341
-0.00030413
0.000311562
-0.000334307
0.000254999
-0.000356203
0.000199732
-0.000371634
0.000146573
-0.000382034
9.53836e-05
-0.000388339
4.53919e-05
-0.000390953
-4.47932e-06
-0.000389629
-5.58657e-05
-0.000383436
-0.000110163
-0.000370602
-0.000168944
-0.000348415
-0.000233429
-0.000313224
-0.000303986
-0.000260879
-0.000379192
-0.000187548
-0.000454611
-9.45033e-05
-0.000513418
-0.000468013
-9.14305e-05
0.000489829
-0.000184629
0.000547452
-0.00026083
0.000494669
-0.000318444
0.000424955
-0.000360206
0.000353324
-0.000389426
0.000284219
-0.000409441
0.000219747
-0.000423043
0.000160174
-0.000432318
0.000104659
-0.000438637
5.17107e-05
-0.000442653
-4.63479e-07
-0.000444246
-5.42727e-05
-0.000442424
-0.000111985
-0.000435035
-0.000176333
-0.000418444
-0.000250021
-0.000387168
-0.000335261
-0.000333763
-0.000432597
-0.00024945
-0.000538923
-0.00013388
-0.000628988
-0.000601894
-0.000124544
0.000614373
-0.000239707
0.000662615
-0.000327941
0.000582903
-0.00038888
0.000485894
-0.000428836
0.00039328
-0.000453891
0.000309274
-0.00046928
0.000235136
-0.000478963
0.000169858
-0.000485736
0.000111432
-0.000491417
5.73918e-05
-0.000496963
5.082e-06
-0.00050254
-4.86956e-05
-0.000507316
-0.000107208
-0.000509058
-0.000174591
-0.000503453
-0.000255625
-0.000483108
-0.000355607
-0.00043631
-0.000479395
-0.000344443
-0.000630791
-0.00020275
-0.000770681
-0.000804644
-0.000184899
0.000799272
-0.000323616
0.000801332
-0.000421531
0.000680819
-0.000480251
0.000544613
-0.000512576
0.000425605
-0.000528342
0.00032504
-0.000535093
0.000241887
-0.000537983
0.000172747
-0.000540408
0.000113857
-0.000544505
6.1489e-05
-0.000551446
1.20226e-05
-0.000561915
-3.82266e-05
-0.000575645
-9.34781e-05
-0.000591033
-0.000159203
-0.000603939
-0.00024272
-0.000605691
-0.000353854
-0.000580892
-0.000504194
-0.000492601
-0.000719082
-0.000332508
-0.000930774
-0.00113715
-0.000257679
0.00105695
-0.000437431
0.000981084
-0.000548835
0.000792222
-0.000597759
0.000593538
-0.00061276
0.000440605
-0.00061141
0.00032369
-0.000603979
0.000234457
-0.000596438
0.000165206
-0.000592185
0.000109605
-0.000593257
6.25609e-05
-0.000601057
1.98231e-05
-0.000616614
-2.26696e-05
-0.000640921
-6.91719e-05
-0.000674023
-0.000126101
-0.000714171
-0.000202572
-0.00075337
-0.000314655
-0.000780566
-0.000476998
-0.000722188
-0.000777459
-0.000572396
-0.00108057
-0.00170955
-0.000551404
0.00160835
-0.000683464
0.00111314
-0.000737054
0.000845812
-0.000738014
0.000594499
-0.000710435
0.000413026
-0.000676428
0.000289683
-0.000645472
0.000203501
-0.000621582
0.000141316
-0.00060665
9.46725e-05
-0.000601763
5.76739e-05
-0.000607851
2.59106e-05
-0.000626241
-4.27892e-06
-0.000660435
-3.49789e-05
-0.000713524
-7.30112e-05
-0.000790199
-0.000125896
-0.000886412
-0.000218443
-0.000998725
-0.000364685
-0.00102247
-0.000753712
-0.000871718
-0.00123132
-0.00258127
-0.000850761
0.00245912
-0.000803686
0.00106607
-0.000682664
0.00072479
-0.000538066
0.000449901
-0.000400053
0.000275013
-0.00029041
0.000180041
-0.000209184
0.000122274
-0.000151587
8.37187e-05
-0.000113601
5.6687e-05
-9.25614e-05
3.6634e-05
-8.7122e-05
2.04713e-05
-9.70811e-05
5.68011e-06
-0.000122812
-9.24808e-06
-0.000165426
-3.03971e-05
-0.000227723
-6.35995e-05
-0.000307381
-0.000138785
-0.000388444
-0.000283621
-0.000488561
-0.000653595
-0.000423587
-0.00129629
-0.00300485
0.00245912
0.00352518
0.00424997
0.00469988
0.00497489
0.00515493
0.0052772
0.00536092
0.00541761
0.00545424
0.00547471
0.00548039
0.00547115
0.00544075
0.00537715
0.00523836
0.00495474
0.00430115
0.00300485
)
;

boundaryField
{
    movingWall
    {
        type            calculated;
        value           uniform 0;
    }
    fixedWalls
    {
        type            calculated;
        value           uniform 0;
    }
    frontAndBack
    {
        type            empty;
        value           nonuniform List<scalar> 0();
    }
}


// ************************************************************************* //
