/*--------------------------------*- C++ -*----------------------------------*\
  =========                 |
  \\      /  F ield         | OpenFOAM: The Open Source CFD Toolbox
   \\    /   O peration     | Website:  https://openfoam.org
    \\  /    A nd           | Version:  10
     \\/     M anipulation  |
\*---------------------------------------------------------------------------*/
FoamFile
{
    format      ascii;
    class       volVectorField;
    location    "1";
    object      U;
}
// * * * * * * * * * * * * * * * * * * * * * * * * * * * * * * * * * * * * * //

dimensions      [0 1 -1 0 0 0 0];

internalField   nonuniform List<vector> 
400
(
(-0.000300841 0.00029618 0)
(-0.000992687 0.000354136 0)
(-0.0017463 0.000341511 0)
(-0.00244429 0.000316274 0)
(-0.00307983 0.000283077 0)
(-0.00363744 0.00024302 0)
(-0.00410362 0.000197152 0)
(-0.00446736 0.000146579 0)
(-0.00471999 9.24287e-05 0)
(-0.00485526 3.58455e-05 0)
(-0.00486934 -2.20057e-05 0)
(-0.00476086 -7.99199e-05 0)
(-0.00453106 -0.000136611 0)
(-0.00418392 -0.000190719 0)
(-0.00372637 -0.000240794 0)
(-0.00316845 -0.000285333 0)
(-0.00252354 -0.000322829 0)
(-0.00180797 -0.0003517 0)
(-0.00103057 -0.000366691 0)
(-0.000313201 -0.000308101 0)
(-0.000374303 0.000998606 0)
(-0.00122521 0.00118339 0)
(-0.00214434 0.00114066 0)
(-0.00299592 0.00105593 0)
(-0.00377071 0.00094448 0)
(-0.00444974 0.000810174 0)
(-0.00501676 0.000656629 0)
(-0.00545856 0.00048759 0)
(-0.00576489 0.000306841 0)
(-0.00592839 0.00011817 0)
(-0.00594458 -7.46112e-05 0)
(-0.00581193 -0.000267466 0)
(-0.00553191 -0.000456251 0)
(-0.0051093 -0.000636492 0)
(-0.00455234 -0.000803403 0)
(-0.00387306 -0.000951976 0)
(-0.00308757 -0.00107714 0)
(-0.00221573 -0.00117348 0)
(-0.00126911 -0.00122375 0)
(-0.000388634 -0.00103693 0)
(-0.000396 0.00181724 0)
(-0.00129638 0.00214183 0)
(-0.00226837 0.00206343 0)
(-0.00316775 0.00190932 0)
(-0.00398514 0.00170684 0)
(-0.0047008 0.00146324 0)
(-0.00529795 0.00118524 0)
(-0.00576318 0.000879682 0)
(-0.00608612 0.000553377 0)
(-0.00625938 0.000213068 0)
(-0.00627827 -0.000134495 0)
(-0.00614106 -0.000482297 0)
(-0.005849 -0.000822999 0)
(-0.00540644 -0.00114867 0)
(-0.00482137 -0.00145073 0)
(-0.00410574 -0.0017201 0)
(-0.00327599 -0.00194746 0)
(-0.00235287 -0.00212271 0)
(-0.00134839 -0.00221485 0)
(-0.00041297 -0.00188665 0)
(-0.000424021 0.00267025 0)
(-0.00138816 0.00314162 0)
(-0.00242828 0.00302491 0)
(-0.00338915 0.00279737 0)
(-0.00426096 0.00249918 0)
(-0.00502304 0.00214133 0)
(-0.00565823 0.0017339 0)
(-0.00615305 0.00128698 0)
(-0.00649724 0.000810419 0)
(-0.00668347 0.000313814 0)
(-0.00670697 -0.000193333 0)
(-0.00656562 -0.000701312 0)
(-0.00626004 -0.00119973 0)
(-0.00579385 -0.00167727 0)
(-0.00517427 -0.00212151 0)
(-0.00441277 -0.002519 0)
(-0.00352589 -0.00285567 0)
(-0.00253536 -0.00311608 0)
(-0.0014542 -0.00325427 0)
(-0.000445551 -0.00277747 0)
(-0.000463369 0.00359233 0)
(-0.00151655 0.00422211 0)
(-0.00265129 0.00406237 0)
(-0.00369711 0.00375369 0)
(-0.00464352 0.00335064 0)
(-0.00546873 0.00286872 0)
(-0.00615525 0.00232191 0)
(-0.00668983 0.00172386 0)
(-0.00706259 0.00108749 0)
(-0.0072665 0.000425081 0)
(-0.00729674 -0.000251451 0)
(-0.00715068 -0.000929962 0)
(-0.00682799 -0.00159737 0)
(-0.00633101 -0.00223913 0)
(-0.00566557 -0.00283884 0)
(-0.00484208 -0.00337819 0)
(-0.00387682 -0.00383747 0)
(-0.00279264 -0.00419461 0)
(-0.00160399 -0.00438627 0)
(-0.000491863 -0.00374887 0)
(-0.000515781 0.0046094 0)
(-0.00168711 0.00541281 0)
(-0.0029466 0.00520301 0)
(-0.00410336 0.00480196 0)
(-0.00514612 0.00428101 0)
(-0.00605188 0.00366132 0)
(-0.00680321 0.0029616 0)
(-0.0073876 0.00219942 0)
(-0.00779616 0.00139084 0)
(-0.00802255 0.000550496 0)
(-0.00806215 -0.000307783 0)
(-0.00791166 -0.00117009 0)
(-0.00756933 -0.00202118 0)
(-0.00703543 -0.00284363 0)
(-0.00631343 -0.003617 0)
(-0.00541161 -0.00431751 0)
(-0.00434518 -0.00491855 0)
(-0.00313789 -0.00538941 0)
(-0.00180598 -0.00564578 0)
(-0.000554546 -0.00483221 0)
(-0.00058357 0.00575031 0)
(-0.00190705 0.00674646 0)
(-0.0033257 0.00647622 0)
(-0.00462215 0.00596695 0)
(-0.00578429 0.00531014 0)
(-0.00678815 0.0045344 0)
(-0.00761716 0.00366432 0)
(-0.0082606 0.00272192 0)
(-0.00871153 0.00172628 0)
(-0.00896513 0.000693903 0)
(-0.00901733 -0.000360364 0)
(-0.00886408 -0.00142193 0)
(-0.00850154 -0.00247434 0)
(-0.00792683 -0.00349804 0)
(-0.00713946 -0.00446869 0)
(-0.00614379 -0.00535643 0)
(-0.00495235 -0.00612601 0)
(-0.00358894 -0.00673519 0)
(-0.00207163 -0.00707321 0)
(-0.000637374 -0.00606421 0)
(-0.000670165 0.00704972 0)
(-0.00218679 0.00826173 0)
(-0.00380497 0.00791564 0)
(-0.00527318 0.00727573 0)
(-0.00657881 0.00645854 0)
(-0.00769771 0.00550275 0)
(-0.00861571 0.00444038 0)
(-0.00932565 0.00329852 0)
(-0.00982418 0.00209905 0)
(-0.0101092 0.000859347 0)
(-0.010178 -0.000406067 0)
(-0.0100256 -0.00168361 0)
(-0.00964544 -0.00295736 0)
(-0.00902978 -0.00420687 0)
(-0.00817184 -0.00540462 0)
(-0.00706913 -0.00651415 0)
(-0.00572852 -0.00748944 0)
(-0.00417176 -0.0082725 0)
(-0.00241815 -0.00871797 0)
(-0.00074615 -0.00749089 0)
(-0.000780766 0.00855047 0)
(-0.00254178 0.0100053 0)
(-0.00440782 0.00956018 0)
(-0.00608378 0.00875766 0)
(-0.00755744 0.00774654 0)
(-0.00880633 0.00657933 0)
(-0.00982141 0.00529762 0)
(-0.0106019 0.00393415 0)
(-0.0111507 0.00251294 0)
(-0.0114702 0.0010508 0)
(-0.0115603 -0.00044023 0)
(-0.0114154 -0.00195012 0)
(-0.0110248 -0.00346622 0)
(-0.0103741 -0.00496962 0)
(-0.00944675 -0.00643113 0)
(-0.00822887 -0.00780773 0)
(-0.00671642 -0.00904028 0)
(-0.00492469 -0.0100492 0)
(-0.00287197 -0.0106422 0)
(-0.000890071 -0.00917233 0)
(-0.000923539 0.0103078 0)
(-0.00299543 0.0120353 0)
(-0.00516845 0.0114554 0)
(-0.00709222 0.0104441 0)
(-0.00875735 0.00919276 0)
(-0.0101467 0.00777327 0)
(-0.0112609 0.00623928 0)
(-0.0121104 0.00462957 0)
(-0.0127075 0.00296909 0)
(-0.0130624 0.00127166 0)
(-0.0131789 -0.000456307 0)
(-0.0130517 -0.00221195 0)
(-0.012665 -0.00399006 0)
(-0.0119947 -0.00577743 0)
(-0.0110099 -0.00754642 0)
(-0.00967861 -0.00924876 0)
(-0.00797708 -0.0108102 0)
(-0.00590532 -0.012122 0)
(-0.00347495 -0.0129261 0)
(-0.00108437 -0.0111907 0)
(-0.00111192 0.0123964 0)
(-0.0035844 0.014426 0)
(-0.00613764 0.0136554 0)
(-0.00835285 0.0123671 0)
(-0.0102285 0.0108113 0)
(-0.0117599 0.00908628 0)
(-0.0129652 0.00726047 0)
(-0.0138722 0.00537847 0)
(-0.0145087 0.00346389 0)
(-0.0148957 0.00152379 0)
(-0.0150439 -0.000445632 0)
(-0.0149491 -0.00245363 0)
(-0.0145903 -0.00450814 0)
(-0.0139305 -0.00660816 0)
(-0.0129181 -0.00873423 0)
(-0.0114931 -0.0108371 0)
(-0.00959849 -0.0128271 0)
(-0.00720203 -0.0145577 0)
(-0.00429608 -0.0156764 0)
(-0.00135579 -0.0136648 0)
(-0.00136928 0.0149221 0)
(-0.00436824 0.0172751 0)
(-0.00739251 0.0162238 0)
(-0.00994378 0.0145566 0)
(-0.0120385 0.0126066 0)
(-0.0136976 0.0105067 0)
(-0.0149688 0.00834284 0)
(-0.015907 0.00616354 0)
(-0.0165623 0.00398639 0)
(-0.016972 0.00180615 0)
(-0.0171564 -0.000397367 0)
(-0.0171142 -0.00265194 0)
(-0.0168195 -0.00498625 0)
(-0.0162208 -0.00742054 0)
(-0.0152389 -0.00995439 0)
(-0.0137719 -0.0125492 0)
(-0.0117086 -0.0151051 0)
(-0.00895333 -0.0174314 0)
(-0.00545411 -0.0190363 0)
(-0.00175429 -0.016776 0)
(-0.00173869 0.0180452 0)
(-0.00544766 0.0207131 0)
(-0.00905242 0.0192344 0)
(-0.0119788 0.0170337 0)
(-0.0142788 0.0145637 0)
(-0.0160237 0.0120009 0)
(-0.0173084 0.00944851 0)
(-0.0182287 0.00695208 0)
(-0.0188661 0.00451517 0)
(-0.0192795 0.00211283 0)
(-0.0195021 -0.000298868 0)
(-0.0195381 -0.00277416 0)
(-0.0193589 -0.00537176 0)
(-0.0188986 -0.00814553 0)
(-0.0180468 -0.0111303 0)
(-0.0166443 -0.0143188 0)
(-0.0144945 -0.0176241 0)
(-0.0113802 -0.0208184 0)
(-0.00716296 -0.0231952 0)
(-0.00237953 -0.0208233 0)
(-0.00230494 0.0220072 0)
(-0.00700096 0.0249089 0)
(-0.0113051 0.0227666 0)
(-0.0146248 0.0197954 0)
(-0.0170718 0.0166327 0)
(-0.0188129 0.0135015 0)
(-0.0200177 0.010511 0)
(-0.0208404 0.00768931 0)
(-0.0214016 0.00501395 0)
(-0.021786 0.00243028 0)
(-0.0220434 -0.000137266 0)
(-0.0221871 -0.00277734 0)
(-0.0221909 -0.00558917 0)
(-0.0219793 -0.00867533 0)
(-0.0214122 -0.0121293 0)
(-0.0202664 -0.0160091 0)
(-0.0182257 -0.020287 0)
(-0.0148374 -0.0247622 0)
(-0.00982964 -0.0283708 0)
(-0.00345024 -0.0263622 0)
(-0.00323274 0.0273989 0)
(-0.00934099 0.0301263 0)
(-0.0144422 0.026898 0)
(-0.018125 0.0227856 0)
(-0.0205735 0.0187059 0)
(-0.0221457 0.0148889 0)
(-0.0231207 0.0114215 0)
(-0.0237257 0.00828975 0)
(-0.0241251 0.00542603 0)
(-0.0244306 0.00273375 0)
(-0.0247096 9.78828e-05 0)
(-0.0249899 -0.00260999 0)
(-0.0252568 -0.00553841 0)
(-0.0254386 -0.00885365 0)
(-0.0253803 -0.0127366 0)
(-0.0248027 -0.0173617 0)
(-0.0232691 -0.02284 0)
(-0.0198746 -0.0291663 0)
(-0.0142921 -0.0347227 0)
(-0.00551391 -0.0344102 0)
(-0.00504198 0.033561 0)
(-0.0132775 0.0361985 0)
(-0.0189708 0.031536 0)
(-0.0228318 0.0258291 0)
(-0.0249685 0.0205726 0)
(-0.0260963 0.0159623 0)
(-0.0266149 0.0120143 0)
(-0.0268334 0.00863003 0)
(-0.0269546 0.00567131 0)
(-0.0271108 0.00298491 0)
(-0.0273833 0.0004114 0)
(-0.0278191 -0.00221965 0)
(-0.0284298 -0.00510087 0)
(-0.0291719 -0.00847112 0)
(-0.0299135 -0.0126263 0)
(-0.0303622 -0.017924 0)
(-0.0300427 -0.0247558 0)
(-0.0272742 -0.0337625 0)
(-0.0222091 -0.042226 0)
(-0.00981897 -0.0468537 0)
(-0.00726521 0.0488215 0)
(-0.0184928 0.0449115 0)
(-0.0251788 0.0371337 0)
(-0.0290959 0.0287163 0)
(-0.0304075 0.0218805 0)
(-0.0306553 0.0163984 0)
(-0.0303915 0.0120416 0)
(-0.0299969 0.00853911 0)
(-0.0296897 0.00563924 0)
(-0.0296021 0.00311948 0)
(-0.0298181 0.000778677 0)
(-0.0303979 -0.00158059 0)
(-0.0313942 -0.00417735 0)
(-0.0328364 -0.00733211 0)
(-0.0346842 -0.0114949 0)
(-0.0367483 -0.017373 0)
(-0.0388703 -0.0257877 0)
(-0.0378018 -0.0388758 0)
(-0.0361096 -0.0522572 0)
(-0.0182529 -0.0687388 0)
(-0.0177894 0.0529381 0)
(-0.0350349 0.0527759 0)
(-0.0351576 0.0416161 0)
(-0.0374395 0.0307192 0)
(-0.0362676 0.0222587 0)
(-0.0346582 0.0159556 0)
(-0.033004 0.0113491 0)
(-0.0316202 0.0079227 0)
(-0.0306447 0.00527697 0)
(-0.0301462 0.00311833 0)
(-0.0301696 0.0012177 0)
(-0.0307708 -0.000629057 0)
(-0.032071 -0.00262407 0)
(-0.0342365 -0.00502964 0)
(-0.0374857 -0.0082271 0)
(-0.0418098 -0.0130774 0)
(-0.0479881 -0.0198805 0)
(-0.0497193 -0.0361378 0)
(-0.0557285 -0.050891 0)
(-0.0262012 -0.0982425 0)
(-0.0409515 0.117496 0)
(-0.0435087 0.0551634 0)
(-0.0367816 0.0408006 0)
(-0.0305743 0.0267226 0)
(-0.0229823 0.0175305 0)
(-0.0169317 0.0119918 0)
(-0.0122419 0.00832427 0)
(-0.0088235 0.00575118 0)
(-0.00646961 0.00387615 0)
(-0.00501497 0.00243337 0)
(-0.00436348 0.00123527 0)
(-0.00447458 0.000124417 0)
(-0.00537004 -0.00107401 0)
(-0.007064 -0.00263708 0)
(-0.00982962 -0.00507094 0)
(-0.0123504 -0.0101175 0)
(-0.0204689 -0.019476 0)
(-0.0151345 -0.0437253 0)
(-0.0392276 -0.0818753 0)
(0.00349312 -0.174869 0)
(0.125516 0.111985 0)
(0.136722 0.0512808 0)
(0.202003 0.0306421 0)
(0.226976 0.0183122 0)
(0.242715 0.0106101 0)
(0.253815 0.0064425 0)
(0.261217 0.0041492 0)
(0.266202 0.00276757 0)
(0.269617 0.00187476 0)
(0.271895 0.00126008 0)
(0.273284 0.000805135 0)
(0.273914 0.000444998 0)
(0.273734 0.000117364 0)
(0.272859 -0.00031839 0)
(0.269719 -0.000944653 0)
(0.267449 -0.00280491 0)
(0.249764 -0.0064247 0)
(0.25154 -0.0167689 0)
(0.162134 -0.0361499 0)
(0.161963 -0.101365 0)
)
;

boundaryField
{
    movingWall
    {
        type            fixedValue;
        value           uniform (1 0 0);
    }
    fixedWalls
    {
        type            noSlip;
    }
    frontAndBack
    {
        type            empty;
    }
}


// ************************************************************************* //
