/*--------------------------------*- C++ -*----------------------------------*\
  =========                 |
  \\      /  F ield         | OpenFOAM: The Open Source CFD Toolbox
   \\    /   O peration     | Website:  https://openfoam.org
    \\  /    A nd           | Version:  10
     \\/     M anipulation  |
\*---------------------------------------------------------------------------*/
FoamFile
{
    format      ascii;
    class       volVectorField;
    location    "0.7";
    object      U;
}
// * * * * * * * * * * * * * * * * * * * * * * * * * * * * * * * * * * * * * //

dimensions      [0 1 -1 0 0 0 0];

internalField   nonuniform List<vector> 
496
(
(9.94031 0.0612451 0)
(10.0275 -0.194773 0)
(10.2294 -0.121399 0)
(10.7634 -0.254587 0)
(10.0296 0.382114 0)
(9.92351 -1.11645 0)
(10.3115 -0.389339 0)
(10.8711 -1.18556 0)
(10.8601 1.14868 0)
(9.00596 -2.58791 0)
(11.3343 -0.261466 0)
(10.5366 -3.77143 0)
(12.0553 1.37444 0)
(7.95507 -2.40335 0)
(12.8862 0.458337 0)
(9.70402 -6.22146 0)
(11.4257 -0.199922 1.6162e-18)
(12.2317 -0.191065 1.12944e-18)
(11.6945 -0.507448 -1.51428e-18)
(12.521 -0.0852622 3.17789e-18)
(13.1067 -2.02695 -1.03587e-19)
(12.934 -0.579321 -4.30876e-18)
(13.1522 -5.53644 -3.58348e-17)
(14.9139 -4.24641 6.34767e-17)
(12.7923 -0.194098 0)
(13.1507 -0.1647 0)
(13.375 -0.100339 0)
(13.5029 -0.022856 0)
(13.147 -0.0583053 0)
(13.5855 -0.387942 0)
(13.8751 -0.470908 0)
(14.0736 -0.412549 0)
(12.9989 0.59071 0)
(12.8714 0.252537 0)
(13.5049 0.299417 0)
(13.8857 0.546552 0)
(11.1429 -3.28841 0)
(9.17515 -1.7773 0)
(9.14651 -0.0419495 0)
(11.0401 -0.659885 0)
(13.5266 0.092479 0)
(13.4786 0.217387 0)
(13.3591 0.294802 0)
(13.101 0.323034 0)
(12.7763 0.376394 0)
(12.3924 0.420424 0)
(11.926 0.468214 0)
(11.4854 0.513003 0)
(11.2449 0.570864 0)
(11.1847 0.550573 0)
(11.153 0.472647 0)
(11.0664 0.359758 0)
(11.0334 0.301449 0)
(11.1313 0.243815 0)
(11.3165 0.229729 0)
(11.485 0.178339 0)
(11.5677 0.19075 0)
(11.6214 0.19822 0)
(11.6578 0.310021 0)
(11.7068 0.345673 0)
(11.6648 0.455097 0)
(11.5963 0.47256 0)
(11.4369 0.603405 0)
(11.2819 0.619261 0)
(11.065 0.766519 0)
(10.873 0.770751 0)
(10.6709 0.89974 0)
(10.4837 0.877877 0)
(10.321 0.967814 0)
(10.1043 0.938153 0)
(9.95833 0.990918 0)
(9.71336 0.973334 0)
(9.62239 0.986664 0)
(9.3903 0.97539 0)
(9.34277 0.964876 0)
(9.10116 0.960465 0)
(9.06402 0.946854 0)
(8.82431 0.93446 0)
(8.81649 0.921796 0)
(8.58342 0.907745 0)
(14.1704 -0.309328 0)
(14.1078 -0.157808 0)
(13.929 -0.0773633 0)
(13.6903 0.00559325 0)
(13.4243 0.0912025 0)
(13.0831 0.151857 0)
(12.6902 0.0683285 0)
(12.323 -0.0133863 0)
(12.086 -0.158552 0)
(11.9244 -0.222219 0)
(11.8549 -0.362551 0)
(11.7923 -0.409594 0)
(11.8557 -0.510149 0)
(11.9766 -0.43579 0)
(12.2043 -0.467439 0)
(12.3771 -0.395222 0)
(12.5604 -0.443715 0)
(12.704 -0.358663 0)
(12.8219 -0.382052 0)
(12.8894 -0.328361 0)
(12.8889 -0.344433 0)
(12.8936 -0.308542 0)
(12.796 -0.320713 0)
(12.7428 -0.335271 0)
(12.5713 -0.348176 0)
(12.4723 -0.390048 0)
(12.276 -0.401745 0)
(12.169 -0.460143 0)
(11.996 -0.477846 0)
(11.8654 -0.528373 0)
(11.7065 -0.540392 0)
(11.5435 -0.563935 0)
(11.4234 -0.575625 0)
(11.2713 -0.588755 0)
(11.1956 -0.602093 0)
(11.0394 -0.604948 0)
(10.9681 -0.611042 0)
(10.8093 -0.61097 0)
(10.7652 -0.617177 0)
(10.6228 -0.614121 0)
(14.0144 0.603988 0)
(14.034 0.613463 0)
(13.8816 0.674284 0)
(13.7759 0.812824 0)
(13.6308 1.08062 0)
(13.3558 1.33527 0)
(12.936 1.55329 0)
(12.5538 1.53341 0)
(12.3352 1.34449 0)
(12.2178 0.926066 0)
(12.1943 0.546153 0)
(12.0452 0.13332 0)
(12.1359 -0.00638536 0)
(12.1469 -0.173893 0)
(12.3566 -0.14683 0)
(12.3294 -0.189098 0)
(12.5289 -0.0202196 0)
(12.476 0.0643293 0)
(12.6608 0.26949 0)
(12.6194 0.371957 0)
(12.822 0.564154 0)
(12.742 0.651168 0)
(12.8551 0.788365 0)
(12.7381 0.855777 0)
(12.8226 0.94177 0)
(12.6973 0.982223 0)
(12.7687 1.02653 0)
(12.6501 1.04522 0)
(12.7247 1.05228 0)
(12.6004 1.0489 0)
(12.6594 1.03747 0)
(12.5186 1.02958 0)
(12.5718 1.01953 0)
(12.446 1.0077 0)
(12.5053 0.993041 0)
(12.3838 0.972019 0)
(12.4229 0.958995 0)
(12.2982 0.940641 0)
(12.333 0.931937 0)
(12.2154 0.914735 0)
(9.56345 -0.338875 0)
(10.1461 -0.332569 0)
(9.8305 -0.535717 0)
(10.0854 -0.276828 0)
(10.4591 -0.0997155 0)
(10.7426 0.144287 0)
(11.0205 0.388626 0)
(11.0647 0.57396 0)
(11.0982 0.568942 0)
(10.8403 0.377646 0)
(10.6691 0.0866352 0)
(10.2912 -0.119523 0)
(10.116 -0.291112 0)
(9.74098 -0.4877 0)
(9.71452 -0.676471 0)
(9.5203 -0.814427 0)
(9.63856 -0.833625 0)
(9.54656 -0.803739 0)
(9.68387 -0.714326 0)
(9.60078 -0.65556 0)
(9.71674 -0.576102 0)
(9.71504 -0.501423 0)
(9.87424 -0.400792 0)
(9.92179 -0.319961 0)
(10.0481 -0.250726 0)
(10.1134 -0.206216 0)
(10.2193 -0.172361 0)
(10.3167 -0.157799 0)
(10.3999 -0.156816 0)
(10.5138 -0.167553 0)
(10.5606 -0.183593 0)
(10.6803 -0.195721 0)
(10.7078 -0.205783 0)
(10.8457 -0.214879 0)
(10.8648 -0.229075 0)
(11.0058 -0.246435 0)
(11.0017 -0.261111 0)
(11.141 -0.273529 0)
(11.127 -0.283152 0)
(11.2794 -0.293489 0)
(12.237 0.692509 -9.5505e-18)
(7.90899 -0.840483 -1.65789e-17)
(11.3507 0.268747 2.86518e-17)
(4.75561 -4.55341 -7.94801e-17)
(12.677 -0.495814 9.29321e-18)
(7.66144 0.813348 1.61917e-17)
(11.9977 0.296198 -2.79398e-17)
(4.7548 4.72399 7.76061e-17)
(-3.42331 1.46943 0)
(-1.80086 -3.15409 0)
(6.36117 2.33208 0)
(-3.22745 2.19086 0)
(-3.57208 -1.43473 3.9599e-17)
(1.76076 -3.74933 0)
(-7.73665 2.42021 0)
(1.2119 1.48523 0)
(-1.88799 -0.991286 0)
(1.35869 1.0238 0)
(-1.69226 0.196871 0)
(1.46843 0.492769 0)
(0.678944 0.712292 0)
(1.50516 0.981073 0)
(2.023 1.12985 0)
(2.44095 1.11576 0)
(2.81067 0.994435 0)
(3.07415 0.79239 0)
(3.26025 0.601749 0)
(3.3657 0.39308 0)
(3.34961 0.236221 0)
(3.35237 0.181261 0)
(3.31651 0.203789 0)
(3.2256 0.245371 0)
(3.19688 0.324296 0)
(3.16087 0.406344 0)
(3.22545 0.483604 0)
(3.28834 0.535237 0)
(3.43919 0.594769 0)
(3.58807 0.61144 0)
(3.76784 0.642455 0)
(3.99157 0.637312 0)
(4.18458 0.668926 0)
(4.46014 0.656545 0)
(4.64774 0.678272 0)
(4.96756 0.653436 0)
(5.12416 0.655591 0)
(5.4673 0.629188 0)
(5.56897 0.622754 0)
(5.91523 0.612817 0)
(5.98128 0.608465 0)
(6.33501 0.605195 0)
(6.38948 0.595993 0)
(6.73234 0.592004 0)
(6.76308 0.586148 0)
(7.08593 0.587276 0)
(7.10905 0.587108 0)
(7.42795 0.586934 0)
(-0.580881 -1.64754 0)
(0.532538 -1.29816 0)
(-0.351094 -0.519136 0)
(0.609808 -1.40258 0)
(0.230894 -0.792459 0)
(0.848476 -0.555454 0)
(1.51024 -0.311212 0)
(2.26221 -0.0746593 0)
(2.98789 0.0738986 0)
(3.53843 0.163471 0)
(3.94706 0.137649 0)
(4.23546 0.0405503 0)
(4.33154 -0.108114 0)
(4.292 -0.300126 0)
(4.14018 -0.539159 0)
(3.8754 -0.773766 0)
(3.66495 -0.966998 0)
(3.4622 -1.05311 0)
(3.37533 -1.06245 0)
(3.31854 -1.01716 0)
(3.37193 -0.965509 0)
(3.44289 -0.872811 0)
(3.56581 -0.801055 0)
(3.7505 -0.707767 0)
(3.91972 -0.666504 0)
(4.18742 -0.603551 0)
(4.37566 -0.593285 0)
(4.70925 -0.553016 0)
(4.87918 -0.549714 0)
(5.24592 -0.525706 0)
(5.3632 -0.524079 0)
(5.73507 -0.521464 0)
(5.81442 -0.52265 0)
(6.19222 -0.527377 0)
(6.25752 -0.52309 0)
(6.62257 -0.528295 0)
(6.66109 -0.525836 0)
(7.00449 -0.53712 0)
(7.03106 -0.537861 0)
(7.36871 -0.549777 0)
(11.6692 -1.72281 0)
(8.51589 2.88582 0)
(12.3346 -1.0436 0)
(10.7512 6.91157 0)
(10.6955 -1.46947 0)
(9.26074 3.22341 0)
(11.1997 0.092009 0)
(11.0065 4.39869 0)
(9.96388 -0.593287 0)
(9.8731 1.42261 0)
(10.2074 0.267558 0)
(10.9324 1.21031 0)
(9.93296 -0.0918457 0)
(9.9333 0.199981 0)
(10.181 0.118565 0)
(10.8145 0.208352 0)
(12.6401 5.30596 4.65107e-17)
(16.2792 4.64608 -7.44848e-17)
(13.1303 2.17449 0)
(13.5525 0.631152 0)
(11.6595 0.445836 0)
(12.6602 -0.180835 0)
(11.4587 0.236719 0)
(12.2641 0.176393 0)
(9.6826 2.75206 0)
(10.6389 1.77011 0)
(9.05215 0.918614 0)
(8.84522 -0.0411198 0)
(12.9997 -0.534303 0)
(13.185 -0.878781 0)
(13.4514 -0.646068 0)
(13.8748 -0.427192 0)
(13.2334 -0.130043 0)
(13.6742 0.14321 0)
(13.9305 0.404077 0)
(14.004 0.446821 0)
(12.8164 0.200594 0)
(13.1419 0.173643 0)
(13.2722 0.0902536 0)
(13.2641 -0.0383043 0)
(9.96631 -0.365706 0)
(10.5318 -0.252318 0)
(10.0021 -0.156195 0)
(9.94832 -0.232007 0)
(9.67246 -0.204956 0)
(9.37155 -0.213457 0)
(9.31824 -0.216162 0)
(9.39414 -0.239401 0)
(9.7697 -0.233914 0)
(10.0526 -0.207974 0)
(10.5287 -0.133547 0)
(10.7797 -0.0425156 0)
(11.238 0.0684399 0)
(11.4515 0.203475 0)
(11.7981 0.346394 0)
(11.7628 0.517996 0)
(11.7687 0.635093 0)
(11.479 0.705217 0)
(11.3085 0.691655 0)
(10.8854 0.653613 0)
(10.6147 0.566107 0)
(10.2264 0.486835 0)
(10.0282 0.400405 0)
(9.80288 0.339375 0)
(9.73559 0.283306 0)
(9.68316 0.244948 0)
(9.72196 0.212898 0)
(9.80113 0.197939 0)
(9.88538 0.19578 0)
(10.0283 0.20449 0)
(10.1023 0.219516 0)
(10.2675 0.229297 0)
(10.3273 0.238541 0)
(10.5131 0.245057 0)
(10.5601 0.258539 0)
(10.747 0.272434 0)
(10.7632 0.285967 0)
(10.9464 0.293869 0)
(10.9436 0.302803 0)
(11.1372 0.30805 0)
(14.0867 -0.498605 0)
(14.1114 -0.663567 0)
(13.8596 -0.693365 0)
(13.6292 -0.694373 0)
(13.3859 -0.661356 0)
(13.2027 -0.585197 0)
(13.0612 -0.568043 0)
(13.0184 -0.568879 0)
(13.0605 -0.64949 0)
(13.0792 -0.620222 0)
(13.113 -0.654382 0)
(13.0132 -0.585687 0)
(12.996 -0.629614 0)
(12.8089 -0.535664 0)
(12.7828 -0.557882 0)
(12.5871 -0.446995 0)
(12.625 -0.463002 0)
(12.4481 -0.340179 0)
(12.5187 -0.355522 0)
(12.3509 -0.28597 0)
(12.439 -0.349281 0)
(12.2985 -0.36604 0)
(12.4011 -0.479978 0)
(12.284 -0.552449 0)
(12.3857 -0.669171 0)
(12.2864 -0.752493 0)
(12.3965 -0.842655 0)
(12.3187 -0.90328 0)
(12.4352 -0.94537 0)
(12.3507 -0.969977 0)
(12.4459 -0.979157 0)
(12.3384 -0.986691 0)
(12.4197 -0.987131 0)
(12.3199 -0.983062 0)
(12.3991 -0.973296 0)
(12.2976 -0.956638 0)
(12.3496 -0.94607 0)
(12.2414 -0.931207 0)
(12.2828 -0.923702 0)
(12.179 -0.909772 0)
(13.9359 0.320152 0)
(13.797 0.129783 0)
(13.6049 0.0284712 0)
(13.3626 -0.0141327 0)
(13.1199 -0.000801303 0)
(12.8736 -0.0021794 0)
(12.6457 0.0232697 0)
(12.4927 -0.0296999 0)
(12.4642 -0.0173705 0)
(12.4216 -0.027206 0)
(12.3113 0.0661472 0)
(12.1073 0.0612013 0)
(11.9945 0.166224 0)
(11.914 0.19048 0)
(11.9094 0.356621 0)
(11.8576 0.39145 0)
(11.8962 0.52298 0)
(11.9613 0.504523 0)
(12.0803 0.57173 0)
(12.1999 0.525824 0)
(12.2853 0.542491 0)
(12.3784 0.487625 0)
(12.3834 0.462621 0)
(12.424 0.426179 0)
(12.3358 0.391394 0)
(12.3058 0.393974 0)
(12.1655 0.377208 0)
(12.0989 0.41836 0)
(11.9527 0.42907 0)
(11.8391 0.480217 0)
(11.6895 0.497529 0)
(11.5319 0.528229 0)
(11.4136 0.547403 0)
(11.2623 0.567022 0)
(11.1862 0.585723 0)
(11.0299 0.592987 0)
(10.9583 0.602004 0)
(10.7999 0.604942 0)
(10.7557 0.612114 0)
(10.6129 0.611441 0)
(13.1771 -0.168344 0)
(13.0555 -0.271067 0)
(12.8997 -0.347386 0)
(12.6723 -0.374312 0)
(12.4147 -0.391512 0)
(12.1557 -0.383921 0)
(11.9032 -0.36978 0)
(11.7065 -0.332903 0)
(11.616 -0.32922 0)
(11.5177 -0.328078 0)
(11.3301 -0.372323 0)
(11.1099 -0.399675 0)
(10.9645 -0.431251 0)
(10.8735 -0.413523 0)
(10.7996 -0.418361 0)
(10.7508 -0.371021 0)
(10.7401 -0.354674 0)
(10.8011 -0.303955 0)
(10.8859 -0.336895 0)
(11.0095 -0.321696 0)
(11.0768 -0.406416 0)
(11.1401 -0.41092 0)
(11.1092 -0.533314 0)
(11.0637 -0.547368 0)
(10.9299 -0.694227 0)
(10.7944 -0.70077 0)
(10.6257 -0.835067 0)
(10.4567 -0.821116 0)
(10.3003 -0.918808 0)
(10.0849 -0.896635 0)
(9.93681 -0.955647 0)
(9.69061 -0.943627 0)
(9.59827 -0.961338 0)
(9.36696 -0.954345 0)
(9.31998 -0.947063 0)
(9.08104 -0.946073 0)
(9.04544 -0.934841 0)
(8.8087 -0.925252 0)
(8.80155 -0.914153 0)
(8.57 -0.903035 0)
)
;

boundaryField
{
    inlet
    {
        type            fixedValue;
        value           uniform (10 0 0);
    }
    outlet
    {
        type            zeroGradient;
    }
    obstacle
    {
        type            noSlip;
    }
    upperWall
    {
        type            noSlip;
    }
    lowerWall
    {
        type            noSlip;
    }
    frontAndBack
    {
        type            empty;
    }
}


// ************************************************************************* //
