/*--------------------------------*- C++ -*----------------------------------*\
  =========                 |
  \\      /  F ield         | OpenFOAM: The Open Source CFD Toolbox
   \\    /   O peration     | Website:  https://openfoam.org
    \\  /    A nd           | Version:  10
     \\/     M anipulation  |
\*---------------------------------------------------------------------------*/
FoamFile
{
    format      ascii;
    class       volVectorField;
    location    "4.65";
    object      U;
}
// * * * * * * * * * * * * * * * * * * * * * * * * * * * * * * * * * * * * * //

dimensions      [0 1 -1 0 0 0 0];

internalField   nonuniform List<vector> 
400
(
(-9.40382e-05 8.90564e-05 0)
(-0.000800692 0.000310046 0)
(-0.0019729 0.000371833 0)
(-0.00309367 0.000376857 0)
(-0.00419501 0.000367276 0)
(-0.00523984 0.000351869 0)
(-0.00620541 0.00032998 0)
(-0.00706903 0.0002992 0)
(-0.00780337 0.000256994 0)
(-0.0083768 0.000200959 0)
(-0.00875396 0.000129178 0)
(-0.00889704 4.11453e-05 0)
(-0.00876771 -6.50148e-05 0)
(-0.00833163 -0.000186154 0)
(-0.00756473 -0.000317042 0)
(-0.00645852 -0.000448843 0)
(-0.0050349 -0.000566262 0)
(-0.00338342 -0.000640303 0)
(-0.00151025 -0.000599102 0)
(-0.000250952 -0.000269299 0)
(-0.000331412 0.000807 0)
(-0.00176404 0.00170434 0)
(-0.0038855 0.00193668 0)
(-0.0059135 0.00192963 0)
(-0.00787925 0.00184525 0)
(-0.00971638 0.00172054 0)
(-0.0113797 0.00155749 0)
(-0.0128279 0.00135105 0)
(-0.0140164 0.00109519 0)
(-0.0148969 0.000784246 0)
(-0.0154181 0.000413726 0)
(-0.0155301 -1.9295e-05 0)
(-0.0151823 -0.000510172 0)
(-0.0143301 -0.00104652 0)
(-0.0129474 -0.00160641 0)
(-0.0110313 -0.00215429 0)
(-0.00862542 -0.00263109 0)
(-0.00586423 -0.00292323 0)
(-0.00277274 -0.00276354 0)
(-0.000562501 -0.00148419 0)
(-0.000414708 0.00204976 0)
(-0.00211837 0.00386707 0)
(-0.00459472 0.00431334 0)
(-0.00695068 0.00426827 0)
(-0.00922555 0.00405327 0)
(-0.0113449 0.00374386 0)
(-0.0132583 0.00334797 0)
(-0.0149207 0.00285962 0)
(-0.0162835 0.00227031 0)
(-0.0172951 0.00157175 0)
(-0.017902 0.000757793 0)
(-0.0180452 -0.000173815 0)
(-0.0176646 -0.00121476 0)
(-0.0167086 -0.00234063 0)
(-0.0151406 -0.00350745 0)
(-0.0129471 -0.00464338 0)
(-0.0101673 -0.00563033 0)
(-0.00694901 -0.00623919 0)
(-0.00331531 -0.00594089 0)
(-0.000685512 -0.00339076 0)
(-0.000441447 0.00332031 0)
(-0.00226585 0.00609759 0)
(-0.00491602 0.00675835 0)
(-0.00743185 0.00666995 0)
(-0.00986427 0.00632241 0)
(-0.0121371 0.0058298 0)
(-0.0142009 0.00520512 0)
(-0.0160113 0.00444069 0)
(-0.0175198 0.00352445 0)
(-0.0186731 0.0024437 0)
(-0.019413 0.00118838 0)
(-0.0196763 -0.000243792 0)
(-0.0193887 -0.00184814 0)
(-0.0184759 -0.00359277 0)
(-0.0168765 -0.00541613 0)
(-0.0145501 -0.00721094 0)
(-0.0115144 -0.00879242 0)
(-0.00792465 -0.00979496 0)
(-0.00379995 -0.0093853 0)
(-0.000786918 -0.00545039 0)
(-0.000459198 0.00466645 0)
(-0.00238481 0.00846799 0)
(-0.00519135 0.00935597 0)
(-0.0078555 0.00922485 0)
(-0.0104403 0.00874471 0)
(-0.0128696 0.00807031 0)
(-0.0150971 0.00721995 0)
(-0.0170816 0.00618373 0)
(-0.0187764 0.0049447 0)
(-0.0201276 0.00348326 0)
(-0.021072 0.00178093 0)
(-0.0215374 -0.000174352 0)
(-0.0214314 -0.00237928 0)
(-0.0206494 -0.00480755 0)
(-0.0190906 -0.00738557 0)
(-0.0166651 -0.00997174 0)
(-0.013344 -0.0123022 0)
(-0.00927981 -0.0138356 0)
(-0.00449048 -0.0133587 0)
(-0.000937323 -0.00784575 0)
(-0.000480821 0.00608488 0)
(-0.00252621 0.0109838 0)
(-0.00551833 0.0121164 0)
(-0.00836001 0.0119462 0)
(-0.011128 0.0113374 0)
(-0.0137468 0.0104886 0)
(-0.0161756 0.00942407 0)
(-0.0183783 0.00813117 0)
(-0.0203128 0.00658645 0)
(-0.0219272 0.00476009 0)
(-0.0231559 0.00261946 0)
(-0.0239144 0.000135002 0)
(-0.0240916 -0.00270512 0)
(-0.0235453 -0.00589383 0)
(-0.0221131 -0.00935772 0)
(-0.0196288 -0.0129259 0)
(-0.0159779 -0.0162422 0)
(-0.0112809 -0.0185352 0)
(-0.00554801 -0.0180835 0)
(-0.00118294 -0.0107406 0)
(-0.000508654 0.00759103 0)
(-0.00270129 0.0136731 0)
(-0.00591849 0.0150706 0)
(-0.00897345 0.0148649 0)
(-0.0119595 0.0141322 0)
(-0.0148028 0.0131193 0)
(-0.0174702 0.0118572 0)
(-0.0199347 0.0103308 0)
(-0.0221625 0.00850892 0)
(-0.0241087 0.00634808 0)
(-0.0257097 0.00379501 0)
(-0.0268728 0.000793189 0)
(-0.0274702 -0.00270561 0)
(-0.027315 -0.00673171 0)
(-0.0261626 -0.0112388 0)
(-0.023731 -0.0160476 0)
(-0.0197571 -0.0207032 0)
(-0.0142568 -0.0241352 0)
(-0.00720854 -0.0238978 0)
(-0.00160326 -0.014418 0)
(-0.000543018 0.00920573 0)
(-0.00291292 0.0165729 0)
(-0.00639689 0.0182565 0)
(-0.00969943 0.0180166 0)
(-0.0129345 0.017163 0)
(-0.0160312 0.0159963 0)
(-0.0189674 0.014557 0)
(-0.0217293 0.0128284 0)
(-0.0242981 0.0107717 0)
(-0.0266433 0.00832722 0)
(-0.0287124 0.00541499 0)
(-0.0304162 0.00193823 0)
(-0.0316183 -0.00220703 0)
(-0.0320871 -0.00712791 0)
(-0.0314794 -0.0128459 0)
(-0.0293498 -0.0192241 0)
(-0.0251936 -0.0257299 0)
(-0.0187665 -0.0309196 0)
(-0.00994896 -0.0312914 0)
(-0.00238155 -0.0193722 0)
(-0.000584886 0.0109511 0)
(-0.00316513 0.0197215 0)
(-0.00695903 0.0217109 0)
(-0.0105401 0.0214322 0)
(-0.0140483 0.0204559 0)
(-0.0174173 0.0191442 0)
(-0.0206398 0.0175504 0)
(-0.0237211 0.0156594 0)
(-0.0266647 0.0134265 0)
(-0.0294663 0.0107764 0)
(-0.0320994 0.00759776 0)
(-0.0344955 0.0037395 0)
(-0.0365382 -0.000989344 0)
(-0.0379671 -0.00678116 0)
(-0.0383365 -0.0138377 0)
(-0.0370008 -0.0221571 0)
(-0.0330935 -0.0312145 0)
(-0.0258385 -0.0391493 0)
(-0.0148373 -0.0409811 0)
(-0.00397224 -0.0265574 0)
(-0.00063713 0.0128527 0)
(-0.00346713 0.0231608 0)
(-0.00761729 0.0254694 0)
(-0.0115036 0.0251366 0)
(-0.0152998 0.0240271 0)
(-0.0189458 0.0225739 0)
(-0.022454 0.0208479 0)
(-0.0258544 0.018841 0)
(-0.0291824 0.0165079 0)
(-0.0324734 0.0137628 0)
(-0.0357508 0.0104666 0)
(-0.0390054 0.00641027 0)
(-0.042144 0.00130092 0)
(-0.0449612 -0.00521331 0)
(-0.0469896 -0.0136106 0)
(-0.0473545 -0.0241904 0)
(-0.044733 -0.036656 0)
(-0.0374485 -0.0488288 0)
(-0.0243309 -0.0539319 0)
(-0.00752286 -0.0380129 0)
(-0.000706226 0.0149452 0)
(-0.00383773 0.0269402 0)
(-0.00839678 0.0295671 0)
(-0.01261 0.0291474 0)
(-0.0166969 0.0278795 0)
(-0.0206063 0.0262775 0)
(-0.0243747 0.0244364 0)
(-0.0280627 0.0223614 0)
(-0.0317448 0.0200166 0)
(-0.0355098 0.0173183 0)
(-0.0394548 0.0141142 0)
(-0.0436661 0.0101499 0)
(-0.0481753 0.00502687 0)
(-0.0529362 -0.00185264 0)
(-0.0575799 -0.0112304 0)
(-0.0611907 -0.0240433 0)
(-0.0620545 -0.0406092 0)
(-0.0572013 -0.0589752 0)
(-0.0434582 -0.0711278 0)
(-0.015634 -0.0581319 0)
(-0.00080565 0.0172806 0)
(-0.00431265 0.0311228 0)
(-0.00934375 0.0340407 0)
(-0.0138986 0.0334734 0)
(-0.0182632 0.0319989 0)
(-0.0223994 0.0302237 0)
(-0.0263725 0.0282715 0)
(-0.0302762 0.0261686 0)
(-0.0342279 0.0239017 0)
(-0.0383791 0.0214111 0)
(-0.0429245 0.0185653 0)
(-0.0481044 0.0151112 0)
(-0.0541822 0.0105915 0)
(-0.0613593 0.00422753 0)
(-0.0697735 -0.00513279 0)
(-0.0790215 -0.0191205 0)
(-0.0873332 -0.039592 0)
(-0.0899189 -0.0664836 0)
(-0.078268 -0.0937007 0)
(-0.0307 -0.0960818 0)
(-0.000963136 0.0199388 0)
(-0.00495781 0.0357794 0)
(-0.0105383 0.0389018 0)
(-0.0154382 0.0380855 0)
(-0.0200463 0.0363364 0)
(-0.0243445 0.0343491 0)
(-0.0284324 0.0322726 0)
(-0.0324347 0.0301609 0)
(-0.0365046 0.0280392 0)
(-0.0408489 0.0259003 0)
(-0.0457592 0.0236819 0)
(-0.0516541 0.0212151 0)
(-0.0591241 0.0181181 0)
(-0.06896 0.0136116 0)
(-0.0821585 0.00627814 0)
(-0.0998389 -0.0062377 0)
(-0.120625 -0.028271 0)
(-0.135188 -0.0670026 0)
(-0.123378 -0.125393 0)
(-0.0443749 -0.165913 0)
(-0.00124249 0.0230964 0)
(-0.00592258 0.0411922 0)
(-0.0121283 0.0444378 0)
(-0.017327 0.0432446 0)
(-0.0221033 0.0410467 0)
(-0.0264735 0.0386885 0)
(-0.0305629 0.0363785 0)
(-0.0345112 0.0342076 0)
(-0.0384898 0.0322442 0)
(-0.0427375 0.0305592 0)
(-0.0476132 0.0292325 0)
(-0.0536886 0.028317 0)
(-0.0618964 0.0277523 0)
(-0.0737038 0.0271557 0)
(-0.0913675 0.0254006 0)
(-0.117409 0.0188186 0)
(-0.149738 -0.00309104 0)
(-0.170293 -0.0657453 0)
(-0.149801 -0.180714 0)
(-0.0419159 -0.270408 0)
(-0.00163958 0.0270448 0)
(-0.0070882 0.0464958 0)
(-0.0141552 0.0492805 0)
(-0.0197347 0.0473182 0)
(-0.0246972 0.0447423 0)
(-0.0290163 0.042249 0)
(-0.0329094 0.0399342 0)
(-0.0365606 0.0378459 0)
(-0.0401346 0.0360836 0)
(-0.0438248 0.0348161 0)
(-0.0479396 0.0343208 0)
(-0.0530396 0.0350068 0)
(-0.0601604 0.0374188 0)
(-0.0710745 0.0419123 0)
(-0.0888023 0.0478473 0)
(-0.116194 0.0485891 0)
(-0.150583 0.0232366 0)
(-0.1642 -0.0742181 0)
(-0.139384 -0.251716 0)
(-0.0342128 -0.376814 0)
(-0.00364472 0.0307316 0)
(-0.0111947 0.0556185 0)
(-0.0177878 0.0581844 0)
(-0.0229262 0.0557641 0)
(-0.0273244 0.0519958 0)
(-0.0313164 0.0483345 0)
(-0.0349592 0.045057 0)
(-0.0383017 0.0422834 0)
(-0.0413816 0.0401374 0)
(-0.0442582 0.038833 0)
(-0.0470468 0.0388066 0)
(-0.0500043 0.0408258 0)
(-0.0538061 0.0461924 0)
(-0.0593909 0.0558738 0)
(-0.0689342 0.0694292 0)
(-0.0832638 0.0743479 0)
(-0.105102 0.0444798 0)
(-0.107374 -0.0803194 0)
(-0.102984 -0.301276 0)
(-0.0259185 -0.464268 0)
(-0.00132416 0.0448202 0)
(-0.00919086 0.0583121 0)
(-0.0207876 0.0580526 0)
(-0.0265269 0.0534371 0)
(-0.0318958 0.0500189 0)
(-0.0356603 0.0471864 0)
(-0.0385309 0.0447407 0)
(-0.0407089 0.0425618 0)
(-0.0422789 0.0407716 0)
(-0.0431864 0.0395688 0)
(-0.0432753 0.0395288 0)
(-0.042181 0.0414134 0)
(-0.0398462 0.047047 0)
(-0.0349802 0.0569521 0)
(-0.0298306 0.0720246 0)
(-0.0194175 0.0773948 0)
(-0.0227597 0.0484119 0)
(-0.0147185 -0.0772575 0)
(-0.0453223 -0.316839 0)
(0.00379061 -0.517665 0)
(-0.0119076 0.0343335 0)
(-0.0250343 0.0806486 0)
(-0.0255413 0.0785791 0)
(-0.0327954 0.0732268 0)
(-0.0358476 0.0659376 0)
(-0.03731 0.0594564 0)
(-0.0371713 0.0538772 0)
(-0.0358881 0.0491606 0)
(-0.0336763 0.0452499 0)
(-0.0304393 0.0420643 0)
(-0.0263222 0.0399496 0)
(-0.0202688 0.0392636 0)
(-0.012867 0.0418846 0)
(0.000505146 0.0476955 0)
(0.0157583 0.0598837 0)
(0.0457978 0.0656946 0)
(0.0590904 0.0477248 0)
(0.0969899 -0.0514482 0)
(0.0439269 -0.294608 0)
(0.0553916 -0.511535 0)
(-0.0762949 0.0979632 0)
(-0.0618067 0.060963 0)
(-0.0636234 0.0604786 0)
(-0.042964 0.0537955 0)
(-0.0260561 0.0468828 0)
(-0.00693168 0.0416158 0)
(0.01105 0.0377045 0)
(0.0286041 0.0342346 0)
(0.0446561 0.0315473 0)
(0.0608068 0.0287834 0)
(0.0747344 0.0270063 0)
(0.0911239 0.0252133 0)
(0.102634 0.0249293 0)
(0.126213 0.0258069 0)
(0.135774 0.0252172 0)
(0.183112 0.0225638 0)
(0.18639 -0.00957713 0)
(0.241074 -0.0771006 0)
(0.172592 -0.266809 0)
(0.127129 -0.446784 0)
(0.120119 0.140297 0)
(0.152814 0.0861139 0)
(0.230916 0.0637724 0)
(0.286108 0.0485496 0)
(0.328225 0.0380007 0)
(0.366596 0.0303418 0)
(0.396115 0.0249076 0)
(0.427513 0.0211298 0)
(0.447735 0.018048 0)
(0.47673 0.0159699 0)
(0.488504 0.0140963 0)
(0.51903 0.0127749 0)
(0.522184 0.0118108 0)
(0.557007 0.0109789 0)
(0.551112 0.0100569 0)
(0.588836 0.00715541 0)
(0.563834 -0.00259283 0)
(0.575293 -0.0261709 0)
(0.440741 -0.0772013 0)
(0.278417 -0.157979 0)
)
;

boundaryField
{
    movingWall
    {
        type            fixedValue;
        value           uniform (1 0 0);
    }
    fixedWalls
    {
        type            noSlip;
    }
    frontAndBack
    {
        type            empty;
    }
}


// ************************************************************************* //
