/*--------------------------------*- C++ -*----------------------------------*\
  =========                 |
  \\      /  F ield         | OpenFOAM: The Open Source CFD Toolbox
   \\    /   O peration     | Website:  https://openfoam.org
    \\  /    A nd           | Version:  10
     \\/     M anipulation  |
\*---------------------------------------------------------------------------*/
FoamFile
{
    format      ascii;
    class       surfaceScalarField;
    location    "3.275";
    object      phi;
}
// * * * * * * * * * * * * * * * * * * * * * * * * * * * * * * * * * * * * * //

dimensions      [0 3 -1 0 0 0 0];

internalField   nonuniform List<scalar> 
928
(
0.0956943
0.00430569
0.103214
-0.00751974
0.106785
-0.00357072
-0.00940137
0.116186
0.0948474
0.00945828
0.106097
-0.018769
0.10324
-0.000713523
-0.0194326
0.113271
0.0961467
0.0133116
0.109969
-0.0325911
0.104498
0.00475716
-0.0410321
0.126098
0.10278
0.0105315
0.0922773
-0.0220883
0.0974232
-0.00038871
0.146213
-0.0898219
0.111306
0.00488021
-0.0164138
0.12772
0.110019
0.00813235
-0.0418018
0.135407
0.128219
0.00601063
-0.0481248
0.134542
0.152224
0.104099
0.127775
-5.55197e-05
0.127843
-6.74164e-05
0.129415
-0.00157279
-0.00155886
0.130974
0.136346
-0.000995277
0.136049
0.000229637
0.136104
-0.00162751
-0.00275241
0.137298
0.136676
-0.00312938
0.139199
-0.00229274
0.1423
-0.00472891
-0.00125606
0.140804
0.109174
-0.00820449
0.0890828
0.0177985
0.0892294
-0.00487557
0.0964725
-0.00849917
0.132055
-0.00108055
0.132549
-0.000494446
0.131519
0.00102977
0.13089
0.000629184
0.129695
0.00119526
0.129216
0.000478687
0.128468
0.000747996
0.127858
0.000609946
0.126974
0.000884715
0.125838
0.00113544
0.125374
0.000463767
0.124151
0.00122311
0.123536
0.000615636
0.121858
0.00167726
0.120652
0.00120674
0.118619
0.00203317
0.116181
0.00243715
0.113623
0.00255853
0.11056
0.00306317
0.108694
0.00186563
0.106562
0.00213239
0.106606
-4.41852e-05
0.10681
-0.000203817
0.108563
-0.00175348
0.11036
-0.00179718
0.11214
-0.00177955
0.113351
-0.00121117
0.113293
5.80921e-05
0.112787
0.000506368
0.110451
0.00233604
0.107811
0.00263962
0.104294
0.00351655
0.101566
0.00272813
0.0993985
0.00216776
0.0982049
0.00119368
0.098181
2.38579e-05
0.09868
-0.000499002
0.0993684
-0.000688433
0.100069
-0.000700734
-0.000283841
0.138441
-0.00222401
0.13811
-0.000163707
0.137433
0.00170755
0.137651
0.000410556
0.137517
0.00132942
0.138053
-5.71121e-05
0.137147
0.00165353
0.136594
0.00116333
0.136026
0.00145285
0.135528
0.00163333
0.135483
0.000508341
0.13445
0.00225645
0.134562
0.000504049
0.133548
0.00269046
0.132927
0.0018283
0.131279
0.00368127
0.129217
0.00449882
0.127317
0.00445808
0.124387
0.00599382
0.122891
0.00336176
0.120552
0.0044707
0.120282
0.000226221
0.12039
-0.000312296
0.122029
-0.00339252
0.124135
-0.00390316
0.125849
-0.00349309
0.127921
-0.00328333
0.128493
-0.000513733
0.129133
-0.000133656
0.127619
0.00384983
0.126286
0.00397325
0.123645
0.00615724
0.121164
0.00520937
0.118816
0.00451542
0.117014
0.00299618
0.116714
0.000323586
0.116898
-0.000683373
0.117747
-0.00153688
0.118773
-0.00172758
-0.00121516
0.137755
0.00082484
0.13521
0.00238123
0.137556
-0.000638283
0.138402
-0.000435203
0.138899
0.000831969
0.137978
0.000864372
0.137427
0.00220461
0.137404
0.00118563
0.137235
0.00162199
0.136987
0.00188181
0.13563
0.00186481
0.136189
0.00169717
0.135851
0.000842265
0.136933
0.00160826
0.137349
0.00141242
0.13783
0.00320058
0.137422
0.00490692
0.135693
0.0061872
0.134316
0.00737063
0.131991
0.0056865
0.130835
0.0056267
0.128891
0.00217055
0.127277
0.00130184
0.127099
-0.00321451
0.127079
-0.00388311
0.128251
-0.00466574
0.129509
-0.00454145
0.131891
-0.00289579
0.133828
-0.00206989
0.134939
0.00273837
0.134894
0.00401833
0.133185
0.00786667
0.131317
0.00707714
0.129201
0.00663171
0.128626
0.00357065
0.127425
0.00152424
0.126404
0.000338161
0.126434
-0.00156644
0.125261
-0.000554691
-0.000319784
0.0924962
0.0048012
0.0867097
0.00816771
0.0890694
-0.00299799
0.0902768
-0.00164256
0.0893306
0.00177811
0.0847078
0.00548716
0.0859902
0.000922213
0.0877912
-0.000615316
0.0859217
0.00349145
0.0843117
0.00349179
0.0841076
0.00206896
0.0846028
0.00120192
0.0853197
0.000125372
0.088099
-0.00117102
0.0913446
-0.0018332
0.096079
-0.00153377
0.100306
0.000680229
0.104155
0.0023381
0.106753
0.00477229
0.105578
0.0068619
0.103168
0.00803677
0.098338
0.00700019
0.0943305
0.00530934
0.0898134
0.00130258
0.0874605
-0.00153019
0.0872218
-0.00442709
0.090591
-0.00791059
0.0953925
-0.0076973
0.100399
-0.00707679
0.107336
-0.0041982
0.11264
-0.00128599
0.117528
0.00297869
0.11909
0.00551536
0.117723
0.00799841
0.112637
0.00865723
0.103638
0.0105229
0.0950243
0.008952
0.0864178
0.00704003
0.0792555
0.00660765
0.00199947
0.111088
-0.000556278
0.0888526
0.000146827
0.0897382
-0.00127424
-8.37075e-05
0.109489
-0.0100456
0.0879109
0.0217253
0.0867269
-9.02897e-05
0.0866432
-0.00283889
-0.0053656
-0.0275265
0.042486
-0.0197141
-0.0126879
-0.0379783
0.00976497
-0.00728099
0.0019154
0.0184314
0.0167736
0.0187695
-0.013026
-0.0140201
-0.0051887
0.00391479
0.0106514
-0.00423977
0.0163223
-0.00886448
0.00162672
0.0115119
-0.0220189
0.00574799
0.007542
-0.00284827
0.0140834
-0.000650205
-0.00127586
0.00210705
-0.00337257
0.00470105
0.000897454
0.00574771
0.00244512
0.00713773
0.000678946
0.00878925
-0.0004496
0.0113358
-0.0024212
0.0151894
-0.00502458
0.0197969
-0.0064407
0.0234978
-0.00523473
0.0277052
-0.00352716
0.0302771
-0.000233769
0.0311185
0.00393086
0.0319926
0.00598779
0.0321169
0.00791251
0.0319067
0.00721034
0.0323288
0.00488728
0.0327082
0.000923232
0.033662
-0.00248404
0.0357159
-0.006481
0.0375793
-0.00977399
0.0403593
-0.0104773
0.0433512
-0.0100687
0.0457171
-0.00656408
0.046494
-0.00206287
0.047159
0.00231366
0.047118
0.00555636
0.044411
0.0107054
0.0431867
0.00988154
0.0423383
0.0113713
0.0413052
0.00998513
0.0419871
0.0063581
0.0433802
0.0052146
9.61843e-06
-0.00666671
0.003298
0.00656821
0.00308735
0.00554741
0.00264752
-0.00527492
-0.0111966
-0.00534728
0.00761436
0.00743425
0.00130189
0.0113947
-0.00523632
0.00817861
-0.000156456
0.00861213
0.000463929
0.0116301
-0.00057281
0.0143634
-0.00205443
0.0169191
-0.00300527
0.0193699
-0.00487196
0.0203878
-0.00604247
0.0207641
-0.00681703
0.0220727
-0.00654337
0.0238892
-0.00534368
0.0264251
-0.00276968
0.029014
0.00134199
0.032696
0.00230582
0.0364382
0.00417036
0.0399649
0.00368357
0.043114
0.00173821
0.0441258
-8.86026e-05
0.044627
-0.00298519
0.043607
-0.005461
0.0409238
-0.00709078
0.0384996
-0.00805305
0.0367124
-0.00828154
0.035777
-0.00562862
0.0354363
-0.00172223
0.0364342
0.00131574
0.0378503
0.00414034
0.0410268
0.00752881
0.044636
0.00627239
0.049257
0.00675021
0.0548444
0.0043978
0.0596163
0.00158619
0.0646769
0.000153975
-0.00324942
0.103204
-0.0132501
0.0946577
0.030272
0.0990366
-0.00446919
0.0396355
0.146044
0.0955902
-0.00884025
0.107582
0.0182804
0.103338
-0.000225312
0.019744
0.123229
0.0949107
-0.00375091
0.105813
0.00737835
0.10255
0.00303702
0.0100078
0.112287
0.0962491
0.103627
0.106664
0.116672
0.154875
-0.0088306
0.0454873
0.109388
0.123974
-0.00957483
0.0422815
0.127179
0.108337
-0.00562521
0.0170154
0.133603
0.111047
0.128062
0.107648
0.00365501
0.115336
0.00908598
0.103999
-0.00168914
0.000189827
0.0986203
0.131333
-0.00049847
0.138173
0.0022463
0.133829
0.00265424
0.00171481
0.132304
0.133487
-0.000382411
0.134632
0.00110138
0.135949
0.00133757
0.00131426
0.136349
0.12768
0.128781
0.130119
0.131433
0.101535
0.000383238
0.104592
3.04001e-05
0.105972
0.00126767
0.0960122
-0.00123688
0.10187
0.00175666
0.102321
0.000850431
0.0980299
-0.00094492
0.0999149
-0.0020414
0.102266
-0.00188701
0.103533
-0.00184035
0.104858
-0.0033791
0.105884
-0.00403107
0.106631
-0.00561884
0.105587
-0.00499828
0.103944
-0.00517419
0.100626
-0.00322567
0.0971749
-0.00189258
0.0947221
-0.000316884
0.0940759
0.00198818
0.0949546
0.00142712
0.0970654
0.00205957
0.102009
-0.00126027
0.105583
-0.00183508
0.110658
-0.00516433
0.112928
-0.005255
0.113485
-0.0060177
0.11134
-0.00494565
0.105745
-0.00245834
0.0986131
-0.00114972
0.0901291
0.00285534
0.085045
0.00336192
0.0803116
0.0060491
0.0808136
0.00363838
0.0828908
0.00545154
0.0869325
0.00223069
0.0922414
0.00144134
0.0980809
-0.00144165
0.103833
-0.00416552
0.109788
-0.0058011
-0.00730935
0.131931
0.000756797
0.132342
-0.000381096
0.133235
0.000374824
0.132544
-0.000546081
0.134154
0.000146473
0.135252
-0.000246961
0.13396
0.00034725
0.133087
-0.00116846
0.133048
-0.00184868
0.133558
-0.00235049
0.133382
-0.00320257
0.13201
-0.00265963
0.130732
-0.0043402
0.128663
-0.00292969
0.127893
-0.00440346
0.126794
-0.00212758
0.126626
-0.00172454
0.126403
-9.36927e-05
0.126914
0.00147754
0.128219
0.00012234
0.129281
0.000997648
0.130708
-0.00268803
0.130901
-0.00202785
0.130301
-0.00456404
0.129042
-0.00399589
0.127024
-0.00400041
0.125426
-0.00334692
0.123581
-0.000613671
0.121824
0.000607043
0.120801
0.00387857
0.120183
0.00398036
0.120718
0.00551352
0.120733
0.00362357
0.122899
0.00328514
0.124381
0.000749078
0.12697
-0.00114778
0.129182
-0.00365357
0.130012
-0.00499513
0.130662
-0.00645101
-0.00610059
0.136319
0.000786906
0.135913
2.49175e-05
0.136443
-0.000154992
0.136829
-0.000931938
0.136999
-2.35099e-05
0.137261
-0.000509768
0.137554
5.44822e-05
0.136929
-0.00054308
0.135994
-0.000914159
0.135097
-0.00145303
0.13387
-0.0019759
0.132705
-0.00149479
0.130961
-0.00259576
0.129539
-0.00150813
0.127317
-0.00218132
0.126311
-0.00112168
0.1256
-0.00101281
0.125906
-0.000399951
0.126903
0.000480296
0.127302
-0.000276402
0.128286
1.39093e-05
0.127233
-0.0016354
0.126693
-0.00148791
0.12479
-0.00266132
0.123061
-0.00226672
0.121176
-0.00211579
0.119297
-0.0014676
0.118925
-0.000241981
0.118869
0.000663103
0.120708
0.00204037
0.122295
0.00239298
0.125111
0.00269793
0.12682
0.00191427
0.128924
0.00118099
0.12994
-0.000266531
0.129957
-0.00116483
0.128983
-0.00268034
0.127038
-0.00304988
0.124773
-0.00418555
-0.00352771
0.13222
0.132245
0.13209
0.131158
0.131135
0.130625
0.130679
0.130136
0.129222
0.127769
0.125793
0.124298
0.121703
0.120195
0.118013
0.116892
0.115879
0.115479
0.115959
0.115683
0.115697
0.114061
0.112573
0.109912
0.107645
0.105529
0.104062
0.10382
0.104483
0.106523
0.108916
0.111614
0.113528
0.114709
0.114443
0.113278
0.110598
0.107548
0.103362
)
;

boundaryField
{
    inlet
    {
        type            calculated;
        value           nonuniform List<scalar> 10(-0.1 -0.1 -0.1 -0.1 -0.1 -0.1 -0.1 -0.1 -0.1 -0.1);
    }
    outlet
    {
        type            calculated;
        value           nonuniform List<scalar> 10(0.100353 0.119705 0.124365 0.0769362 0.04537 0.0679359 0.113848 0.129453 0.1222 0.0998346);
    }
    obstacle
    {
        type            calculated;
        value           uniform 0;
    }
    upperWall
    {
        type            calculated;
        value           uniform 0;
    }
    lowerWall
    {
        type            calculated;
        value           uniform 0;
    }
    frontAndBack
    {
        type            empty;
        value           nonuniform List<scalar> 0();
    }
}


// ************************************************************************* //
