/*--------------------------------*- C++ -*----------------------------------*\
  =========                 |
  \\      /  F ield         | OpenFOAM: The Open Source CFD Toolbox
   \\    /   O peration     | Website:  https://openfoam.org
    \\  /    A nd           | Version:  10
     \\/     M anipulation  |
\*---------------------------------------------------------------------------*/
FoamFile
{
    format      ascii;
    class       volVectorField;
    location    "4.975";
    object      U;
}
// * * * * * * * * * * * * * * * * * * * * * * * * * * * * * * * * * * * * * //

dimensions      [0 1 -1 0 0 0 0];

internalField   nonuniform List<vector> 
8000
(
(-4.61527e-05 6.06025e-05 -1.96605e-05)
(-0.000408964 0.000157344 1.64423e-05)
(-0.00101827 0.000184353 2.90493e-05)
(-0.00161606 0.00019052 3.46721e-05)
(-0.00222191 0.00019183 3.43263e-05)
(-0.00281171 0.000191683 3.0316e-05)
(-0.00337278 0.000189303 2.37991e-05)
(-0.00389125 0.000182963 1.49136e-05)
(-0.00434999 0.000170615 3.11139e-06)
(-0.00472837 0.000150579 -1.14183e-05)
(-0.00500171 0.000121427 -2.83819e-05)
(-0.00514246 8.25742e-05 -4.74407e-05)
(-0.00512168 3.30968e-05 -6.86877e-05)
(-0.00491278 -2.77786e-05 -9.15475e-05)
(-0.00449617 -9.62333e-05 -0.000114415)
(-0.00386378 -0.000167225 -0.000134738)
(-0.0030287 -0.00023242 -0.000147917)
(-0.0020534 -0.000277418 -0.000147097)
(-0.000943742 -0.000272511 -0.000127353)
(-0.000172141 -0.000134786 -5.20524e-05)
(-0.000139158 0.000473511 -7.62959e-05)
(-0.000804062 0.000879486 -4.66214e-05)
(-0.00181952 0.000986597 -3.326e-05)
(-0.00281171 0.000997633 -2.36709e-05)
(-0.0038036 0.000978188 -1.9101e-05)
(-0.00475619 0.000943146 -1.75736e-05)
(-0.00564681 0.00089187 -1.80622e-05)
(-0.00645289 0.000820015 -2.05782e-05)
(-0.00714801 0.000722247 -2.54857e-05)
(-0.00770164 0.000593637 -3.3124e-05)
(-0.00807875 0.000429854 -4.37102e-05)
(-0.00824238 0.000227404 -5.7328e-05)
(-0.00815605 -1.39596e-05 -7.47424e-05)
(-0.00778311 -0.000288884 -9.35877e-05)
(-0.00709683 -0.00058542 -0.000113168)
(-0.00608971 -0.000883472 -0.000130631)
(-0.00478417 -0.00115075 -0.000140313)
(-0.00326945 -0.00133075 -0.000134454)
(-0.0015594 -0.0013084 -0.000108241)
(-0.000320755 -0.000763596 -1.6875e-05)
(-0.000167011 0.00117115 -0.000103442)
(-0.00093496 0.00200523 -7.67507e-05)
(-0.00209172 0.00221582 -6.30149e-05)
(-0.00321585 0.00222233 -5.12966e-05)
(-0.00433619 0.00215904 -4.42326e-05)
(-0.00541012 0.00205678 -3.99241e-05)
(-0.00641346 0.0019164 -3.74405e-05)
(-0.00732225 0.00173151 -3.69205e-05)
(-0.00810835 0.00149391 -3.88359e-05)
(-0.00873915 0.00119505 -4.37426e-05)
(-0.00917795 0.000827353 -5.2117e-05)
(-0.00938342 0.000385402 -6.44043e-05)
(-0.00930984 -0.000130122 -8.06178e-05)
(-0.00891385 -0.000709371 -9.98171e-05)
(-0.0081619 -0.00132905 -0.000120646)
(-0.00703716 -0.00194899 -0.000139885)
(-0.00555672 -0.00250427 -0.000150763)
(-0.00381814 -0.00288029 -0.000144003)
(-0.00183291 -0.00284426 -0.000114234)
(-0.000380701 -0.00175146 -9.97403e-06)
(-0.000172343 0.00189278 -0.0001239)
(-0.000980747 0.00317581 -0.000100185)
(-0.00220149 0.00349027 -8.65287e-05)
(-0.00338561 0.00349035 -7.35855e-05)
(-0.00456889 0.00338318 -6.50123e-05)
(-0.00570809 0.0032159 -5.89872e-05)
(-0.00678044 0.00299052 -5.4667e-05)
(-0.00776307 0.00269832 -5.23672e-05)
(-0.00862844 0.00232745 -5.27506e-05)
(-0.00934338 0.00186498 -5.65185e-05)
(-0.00986842 0.00129873 -6.43358e-05)
(-0.0101577 0.00062073 -7.69041e-05)
(-0.0101596 -0.000169671 -9.54542e-05)
(-0.00981624 -0.00106449 -0.000117518)
(-0.00907483 -0.00203032 -0.000142315)
(-0.00790062 -0.00300814 -0.000165991)
(-0.00629498 -0.00389769 -0.000180448)
(-0.00436073 -0.00451588 -0.000174253)
(-0.00210611 -0.00449102 -0.000140602)
(-0.00043858 -0.00280753 -1.84963e-05)
(-0.000172663 0.00266603 -0.000141146)
(-0.00101098 0.00443269 -0.000119777)
(-0.00228629 0.0048587 -0.000106291)
(-0.00352392 0.00485431 -9.26804e-05)
(-0.00476675 0.00470521 -8.34196e-05)
(-0.00597188 0.00447627 -7.67436e-05)
(-0.00711932 0.00417105 -7.18876e-05)
(-0.0081888 0.00377841 -6.92957e-05)
(-0.00915459 0.00328229 -6.98016e-05)
(-0.00998406 0.00266412 -7.43924e-05)
(-0.0106355 0.00190488 -8.4059e-05)
(-0.0110565 0.000988723 -9.98956e-05)
(-0.0111857 -9.16966e-05 -0.000123199)
(-0.0109471 -0.00132667 -0.000151568)
(-0.0102604 -0.00268407 -0.000184755)
(-0.0090605 -0.00408632 -0.000217805)
(-0.00731721 -0.00539266 -0.00024016)
(-0.00513069 -0.00633354 -0.000236515)
(-0.00250512 -0.00636056 -0.000197299)
(-0.000527622 -0.00401588 -4.68694e-05)
(-0.000172705 0.00348271 -0.000159013)
(-0.00104504 0.00576933 -0.000139758)
(-0.00238359 0.00631686 -0.000126536)
(-0.00368385 0.00631232 -0.000112536)
(-0.00499656 0.00612674 -0.000103009)
(-0.00627967 0.00584464 -9.62595e-05)
(-0.00751727 0.00547178 -9.16247e-05)
(-0.00869323 0.00499469 -8.96991e-05)
(-0.00978547 0.00439255 -9.15138e-05)
(-0.0107636 0.00363952 -9.83592e-05)
(-0.0115855 0.00270679 -0.000111666)
(-0.0121937 0.00156626 -0.000132961)
(-0.0125114 0.00019693 -0.000163308)
(-0.0124424 -0.00140141 -0.000204661)
(-0.0118712 -0.00320438 -0.00025277)
(-0.0106799 -0.00512112 -0.000302749)
(-0.00878536 -0.00696531 -0.00034056)
(-0.00626659 -0.00835726 -0.000344177)
(-0.0031165 -0.00851161 -0.000297949)
(-0.000673964 -0.00542951 -0.000103727)
(-0.000173058 0.00434971 -0.000180182)
(-0.00108643 0.00719837 -0.000163434)
(-0.00250012 0.00787904 -0.000150584)
(-0.00387333 0.00787916 -0.000136182)
(-0.00526621 0.00766353 -0.000126391)
(-0.00663802 0.00733904 -0.000119646)
(-0.00797851 0.0069148 -0.000115458)
(-0.00927774 0.00637555 -0.000114644)
(-0.01052 0.00569562 -0.000118526)
(-0.0116803 0.00484067 -0.000128826)
(-0.0127194 0.00376884 -0.000147626)
(-0.0135768 0.00243413 -0.000177255)
(-0.0141638 0.000794325 -0.00021979)
(-0.0143602 -0.00117745 -0.00028091)
(-0.0140018 -0.00347918 -0.000354091)
(-0.0128965 -0.00601957 -0.000434275)
(-0.0108711 -0.00856998 -0.000502321)
(-0.0079411 -0.0106138 -0.000524967)
(-0.00406836 -0.0110328 -0.000472261)
(-0.000923456 -0.00714612 -0.000212644)
(-0.000173571 0.00527834 -0.000206425)
(-0.00113554 0.00873894 -0.000193077)
(-0.00263623 0.00956478 -0.000180645)
(-0.00409053 0.0095728 -0.000165529)
(-0.00557006 0.00933237 -0.00015508)
(-0.00703602 0.00897642 -0.000147982)
(-0.00848557 0.00851938 -0.000144026)
(-0.00991758 0.00794565 -0.00014436)
(-0.0113262 0.00722563 -0.000150735)
(-0.012697 0.00631644 -0.000165525)
(-0.0139993 0.00516104 -0.000191831)
(-0.0151762 0.00368929 -0.000233292)
(-0.0161319 0.00182392 -0.000293958)
(-0.0167279 -0.000506672 -0.000386948)
(-0.0167406 -0.00333073 -0.000500843)
(-0.0158737 -0.00660845 -0.000634628)
(-0.0138144 -0.0100844 -0.000761858)
(-0.010428 -0.0130839 -0.000831438)
(-0.00560155 -0.0140139 -0.000781059)
(-0.00137574 -0.00932061 -0.000429758)
(-0.00017467 0.00628283 -0.000239552)
(-0.00119412 0.0104137 -0.000231008)
(-0.0027937 0.011395 -0.00021891)
(-0.0043342 0.01141 -0.000202362)
(-0.00590151 0.0111461 -0.000190348)
(-0.00745937 0.0107673 -0.000181982)
(-0.00901441 0.0102962 -0.00017749)
(-0.0105771 0.00971946 -0.000178487)
(-0.0121558 0.00900629 -0.00018733)
(-0.0137527 0.00810736 -0.00020735)
(-0.0153556 0.00695113 -0.000243254)
(-0.0169244 0.00544028 -0.000301407)
(-0.0183721 0.00345186 -0.000390682)
(-0.0195324 0.00084986 -0.000519134)
(-0.0201442 -0.00247418 -0.000706733)
(-0.019799 -0.00657297 -0.000936154)
(-0.0179546 -0.0112274 -0.00117848)
(-0.0141783 -0.0156185 -0.00135836)
(-0.00819784 -0.0175004 -0.00135049)
(-0.00225797 -0.0121965 -0.000891924)
(-0.000178202 0.00738312 -0.000282067)
(-0.00126792 0.0122513 -0.000280327)
(-0.00297984 0.0133935 -0.000268205)
(-0.00460849 0.0134062 -0.000248849)
(-0.00625815 0.0131124 -0.00023357)
(-0.00789583 0.012713 -0.000222186)
(-0.00953964 0.0122428 -0.000215568)
(-0.0112144 0.0116949 -0.000215945)
(-0.0129465 0.0110419 -0.000226471)
(-0.0147619 0.010234 -0.000251772)
(-0.0166781 0.00919108 -0.000298867)
(-0.0186898 0.00779277 -0.000378241)
(-0.0207404 0.00586802 -0.000504154)
(-0.022681 0.00319353 -0.000692163)
(-0.0242276 -0.00048877 -0.00098759)
(-0.0248535 -0.00536066 -0.00137786)
(-0.0237454 -0.0114127 -0.00183851)
(-0.0199378 -0.0177549 -0.00226703)
(-0.0128247 -0.0213639 -0.00244113)
(-0.00407524 -0.0161776 -0.00196728)
(-0.000188858 0.00861023 -0.000337964)
(-0.00137033 0.0142915 -0.000345711)
(-0.00321225 0.0155893 -0.00033266)
(-0.00492792 0.0155763 -0.000307998)
(-0.00664676 0.0152324 -0.000286471)
(-0.00834029 0.0148031 -0.000269008)
(-0.0100398 0.0143392 -0.000257399)
(-0.0117861 0.0138452 -0.000254628)
(-0.0136261 0.0133045 -0.000264777)
(-0.0156148 0.0126771 -0.000294019)
(-0.0178108 0.0118884 -0.00035225)
(-0.0202655 0.0108102 -0.000455463)
(-0.0229964 0.00923446 -0.000628218)
(-0.0259313 0.00684387 -0.00090682)
(-0.0288052 0.00320545 -0.00133435)
(-0.0310949 -0.00216172 -0.00198953)
(-0.0317231 -0.00953349 -0.00282979)
(-0.0288925 -0.0183382 -0.00376777)
(-0.0213508 -0.0248927 -0.00450013)
(-0.00794051 -0.0219129 -0.00450329)
(-0.000217124 0.0100166 -0.000414175)
(-0.00152872 0.0165933 -0.000434722)
(-0.00352594 0.018021 -0.000418773)
(-0.00532417 0.0179351 -0.000384291)
(-0.00708976 0.0174998 -0.000351355)
(-0.00880131 0.0170122 -0.000322675)
(-0.010505 0.0165431 -0.000301325)
(-0.0122572 0.0161122 -0.000291052)
(-0.014124 0.0157221 -0.000296876)
(-0.0161892 0.0153575 -0.000326597)
(-0.0185593 0.0149732 -0.000393392)
(-0.0213635 0.0144693 -0.000519883)
(-0.0247384 0.0136492 -0.000743905)
(-0.0287758 0.0121526 -0.00112206)
(-0.0334204 0.00938025 -0.001723)
(-0.0382408 0.00442881 -0.00265423)
(-0.042168 -0.00369493 -0.00405907)
(-0.042486 -0.0150926 -0.00580612)
(-0.0366731 -0.0265022 -0.00773397)
(-0.0159022 -0.0305888 -0.00936302)
(-0.00028609 0.0116926 -0.000523385)
(-0.00179686 0.019241 -0.000559219)
(-0.00398512 0.0207311 -0.000535559)
(-0.00585605 0.020489 -0.000483015)
(-0.00763325 0.0198945 -0.000430295)
(-0.00930858 0.0192981 -0.000382519)
(-0.0109455 0.0187872 -0.000344162)
(-0.0126125 0.0183999 -0.000319487)
(-0.0143866 0.0181655 -0.00031429)
(-0.0163701 0.0181088 -0.000337328)
(-0.0187068 0.0182428 -0.000403842)
(-0.0216011 0.0185463 -0.00054087)
(-0.0253379 0.018917 -0.000794625)
(-0.0302791 0.0190657 -0.00123485)
(-0.0368235 0.0183618 -0.0019459)
(-0.0452252 0.0155352 -0.00301687)
(-0.0546084 0.00844059 -0.00462428)
(-0.0612609 -0.0055254 -0.00670087)
(-0.0606542 -0.0259973 -0.00895996)
(-0.0292591 -0.0476303 -0.0134661)
(-0.000449973 0.0138163 -0.000695124)
(-0.0022891 0.0224427 -0.000755677)
(-0.00470576 0.0239073 -0.000720347)
(-0.0066163 0.0233938 -0.000634453)
(-0.00834679 0.0225082 -0.000541511)
(-0.009916 0.021677 -0.000454573)
(-0.0114025 0.0210189 -0.000382566)
(-0.0128757 0.0205939 -0.000331265)
(-0.0144097 0.0204602 -0.000305366)
(-0.0161041 0.0206928 -0.00031265)
(-0.0181111 0.0213932 -0.000367431)
(-0.0206749 0.0226794 -0.000494694)
(-0.0242061 0.0246601 -0.000731655)
(-0.0293596 0.0272825 -0.00110746)
(-0.037192 0.0300769 -0.0015705)
(-0.0490907 0.0312387 -0.00188164)
(-0.0657002 0.0266433 -0.0016916)
(-0.0825489 0.00657744 -2.98995e-05)
(-0.0913032 -0.0340402 0.00242568)
(-0.044983 -0.0895039 -0.00721486)
(-0.000764524 0.0168117 -0.000960621)
(-0.00307904 0.0260061 -0.000994907)
(-0.00578817 0.0270104 -0.000915364)
(-0.0077442 0.0258865 -0.000761806)
(-0.00940506 0.0246083 -0.000614924)
(-0.0107881 0.0235631 -0.000483156)
(-0.0120067 0.0228021 -0.000373368)
(-0.0131406 0.0223457 -0.000289272)
(-0.0142463 0.0222561 -0.000234311)
(-0.0153816 0.0226508 -0.00021368)
(-0.016644 0.0237379 -0.000232505)
(-0.0182204 0.0258093 -0.000294956)
(-0.0205414 0.0292771 -0.000381995)
(-0.0244756 0.0343918 -0.000340699)
(-0.0319861 0.0409864 0.000372949)
(-0.0462583 0.0460182 0.00304799)
(-0.0724306 0.0421522 0.00923442)
(-0.104259 0.00661835 0.0193104)
(-0.12359 -0.0750563 0.0263734)
(-0.0539426 -0.175084 0.00195685)
(-0.00207213 0.0200239 -0.00150314)
(-0.00558232 0.0317382 -0.00164736)
(-0.00800397 0.0323745 -0.0014735)
(-0.00957434 0.030768 -0.00119488)
(-0.0107258 0.0286766 -0.000891889)
(-0.0116828 0.0268239 -0.000618467)
(-0.0125322 0.0253565 -0.00039181)
(-0.013282 0.0243361 -0.000218076)
(-0.013906 0.0238365 -9.68147e-05)
(-0.0143585 0.0239755 -2.65525e-05)
(-0.0146135 0.0250226 -1.89136e-06)
(-0.014681 0.0273669 1.14198e-05)
(-0.0148991 0.0317674 0.000144863)
(-0.0160427 0.0386379 0.000859579)
(-0.0212167 0.0485549 0.00345263)
(-0.0351971 0.0559585 0.0107429)
(-0.0707495 0.0490317 0.0247897)
(-0.115553 -0.0201551 0.0401816)
(-0.142399 -0.162359 0.0364995)
(-0.0517543 -0.282612 -0.0110358)
(-0.00137011 0.0315903 -0.00254278)
(-0.00548883 0.0356417 -0.00223024)
(-0.00998581 0.034086 -0.00186528)
(-0.0117932 0.0303736 -0.00125455)
(-0.0131412 0.0277161 -0.000762346)
(-0.0136667 0.0257689 -0.000340602)
(-0.0137928 0.0243765 -8.24523e-06)
(-0.0136465 0.0233989 0.000232521)
(-0.0132549 0.0228555 0.000386521)
(-0.0125053 0.0227931 0.000469)
(-0.0112561 0.0235405 0.000497619)
(-0.00916116 0.0253248 0.000545826)
(-0.00641119 0.0292715 0.000835622)
(-0.00275835 0.0354507 0.00211388)
(-0.00252189 0.0457919 0.00614564)
(-0.00780115 0.0521482 0.0165055)
(-0.0435323 0.0371727 0.0343055)
(-0.0880352 -0.0668171 0.0448381)
(-0.129923 -0.240762 0.0227503)
(-0.0451815 -0.361446 -0.0387743)
(-0.0122663 0.0295813 -0.00344853)
(-0.021393 0.0513793 -0.00398826)
(-0.0164449 0.0471662 -0.00345428)
(-0.0162572 0.0423144 -0.00248266)
(-0.0139091 0.0366444 -0.00137953)
(-0.011502 0.0319768 -0.000460413)
(-0.00908692 0.0283049 0.000243364)
(-0.00670955 0.0254804 0.000716309)
(-0.00434491 0.0234265 0.00100779)
(-0.00165259 0.0219716 0.00112982)
(0.00134524 0.0212972 0.00110918)
(0.00562176 0.0214171 0.00102506)
(0.0105902 0.0232684 0.00109379)
(0.0187494 0.0267319 0.0018498)
(0.0244132 0.0342986 0.00530947)
(0.0353532 0.0394619 0.0141483)
(0.0177536 0.0256036 0.0284053)
(0.00360302 -0.0825458 0.0350786)
(-0.07632 -0.258667 0.00812966)
(-0.0245752 -0.399008 -0.056988)
(-0.0463498 0.0889308 -0.011998)
(-0.0300099 0.0420914 -0.00784613)
(-0.021022 0.0358341 -0.00530157)
(-0.00319799 0.0288153 -0.00287191)
(0.0115357 0.0225822 -0.00115279)
(0.0256843 0.0185112 0.000139864)
(0.0376305 0.0159471 0.00108559)
(0.048109 0.0140455 0.0017137)
(0.0567333 0.0128015 0.00213638)
(0.0648888 0.0117339 0.00230188)
(0.0714252 0.0113488 0.00227896)
(0.0795218 0.0109564 0.00194683)
(0.0854215 0.0115254 0.00155239)
(0.0985069 0.0115987 0.00101291)
(0.103649 0.0116302 0.0017311)
(0.132106 0.00631372 0.0054191)
(0.1182 -0.0113782 0.0104415)
(0.153049 -0.0878019 0.0194762)
(0.0289975 -0.237079 0.000492938)
(0.0294171 -0.371845 -0.067198)
(0.117639 0.111829 -0.01123)
(0.144208 0.0595589 -0.0117033)
(0.216495 0.0393767 -0.0112497)
(0.260885 0.0262796 -0.00984035)
(0.293433 0.0175284 -0.00816858)
(0.320219 0.0117009 -0.00674245)
(0.340663 0.00805992 -0.00535298)
(0.358882 0.00570912 -0.00422009)
(0.371363 0.00427731 -0.00315361)
(0.385627 0.00332783 -0.00222486)
(0.391931 0.00283047 -0.00163104)
(0.406495 0.00255362 -0.000786129)
(0.405789 0.00253636 -0.000808136)
(0.426102 0.00238826 -0.000135155)
(0.413706 0.0019997 -0.000205838)
(0.444119 -0.000959096 0.000508672)
(0.4023 -0.00902007 0.00139698)
(0.423429 -0.0317758 0.000577797)
(0.255965 -0.0748123 -0.00824014)
(0.165505 -0.139894 -0.0768373)
(-9.69176e-05 0.000106838 -5.60035e-05)
(-0.000740481 0.000303669 -8.1039e-06)
(-0.00178977 0.000358903 1.30225e-05)
(-0.00280262 0.000364748 2.42124e-05)
(-0.00380613 0.000357189 2.51353e-05)
(-0.0047636 0.000344542 1.91598e-05)
(-0.005655 0.000326267 7.96143e-06)
(-0.00645927 0.00030011 -8.29414e-06)
(-0.00715009 0.000263861 -3.0125e-05)
(-0.00769658 0.00021503 -5.76909e-05)
(-0.00806438 0.000151527 -9.09507e-05)
(-0.00821704 7.25762e-05 -0.000129559)
(-0.00811707 -2.29033e-05 -0.000172945)
(-0.00773017 -0.000132796 -0.000219326)
(-0.00703244 -0.000252136 -0.000265351)
(-0.00601559 -0.000372725 -0.000305787)
(-0.00469948 -0.000480242 -0.000332011)
(-0.00317108 -0.000547479 -0.000332151)
(-0.00144284 -0.000512617 -0.000297401)
(-0.000257117 -0.000225643 -0.000158015)
(-0.000305255 0.000794934 -0.000157349)
(-0.00158244 0.00159801 -0.000123139)
(-0.0034605 0.00181053 -9.96031e-05)
(-0.00527276 0.00181238 -7.99618e-05)
(-0.00704478 0.00174457 -6.97528e-05)
(-0.0087116 0.00164137 -6.61406e-05)
(-0.0102335 0.00150464 -6.75755e-05)
(-0.0115721 0.00132934 -7.41852e-05)
(-0.0126848 0.00110952 -8.66503e-05)
(-0.0135249 0.000839073 -0.000105712)
(-0.0140419 0.00051297 -0.000131887)
(-0.0141858 0.000128084 -0.000165181)
(-0.0139067 -0.00031251 -0.000206401)
(-0.013159 -0.000797538 -0.000251025)
(-0.0119149 -0.00130695 -0.000296393)
(-0.0101702 -0.00180756 -0.000336167)
(-0.00796406 -0.00224387 -0.000359393)
(-0.00542761 -0.00251027 -0.000352143)
(-0.00259115 -0.00237365 -0.000304825)
(-0.000539886 -0.00126162 -0.000131)
(-0.000378278 0.00194787 -0.000209323)
(-0.00189406 0.00357704 -0.000183802)
(-0.0040857 0.00398975 -0.000159617)
(-0.00618992 0.00396783 -0.00013566)
(-0.00823938 0.00379384 -0.000120461)
(-0.010161 0.00353711 -0.000111453)
(-0.0119109 0.00320478 -0.000107306)
(-0.0134469 0.00279034 -0.000108471)
(-0.0147229 0.00228457 -0.000115971)
(-0.0156885 0.00167823 -0.000130959)
(-0.0162905 0.000963999 -0.000154428)
(-0.0164713 0.0001385 -0.000187223)
(-0.0161707 -0.000791895 -0.000228399)
(-0.0153351 -0.00180641 -0.00027615)
(-0.013927 -0.00286475 -0.000326585)
(-0.0119317 -0.00390006 -0.00037235)
(-0.00938308 -0.00480129 -0.000400184)
(-0.00642616 -0.00535604 -0.000393162)
(-0.00309011 -0.00509934 -0.000340009)
(-0.000652527 -0.00288507 -0.000140682)
(-0.000402218 0.00313592 -0.000251694)
(-0.00202349 0.00562917 -0.000235021)
(-0.00436613 0.00624289 -0.000211111)
(-0.00661045 0.00619199 -0.000184461)
(-0.0087993 0.00590933 -0.000165999)
(-0.0108577 0.00549973 -0.000153429)
(-0.0127429 0.004975 -0.000145674)
(-0.0144139 0.00432662 -0.000143558)
(-0.0158244 0.00354141 -0.000148525)
(-0.0169227 0.00260528 -0.000162161)
(-0.0176513 0.0015062 -0.000185894)
(-0.0179468 0.00023901 -0.00022077)
(-0.0177376 -0.00119047 -0.000269426)
(-0.0169491 -0.00275836 -0.000326284)
(-0.015519 -0.00440763 -0.000388434)
(-0.0134068 -0.00603846 -0.000447086)
(-0.0106254 -0.00747814 -0.000486048)
(-0.00732705 -0.00838881 -0.000483771)
(-0.00353904 -0.00803546 -0.000425009)
(-0.000747257 -0.0046208 -0.000188013)
(-0.000417015 0.00440128 -0.000290182)
(-0.00212326 0.00782009 -0.000281812)
(-0.00459743 0.0086473 -0.000258414)
(-0.00696775 0.00856836 -0.00023)
(-0.00928764 0.00817712 -0.00020966)
(-0.0114821 0.00761627 -0.000195352)
(-0.0135117 0.00690271 -0.000186265)
(-0.0153386 0.00602565 -0.000183599)
(-0.0169187 0.00496693 -0.000189276)
(-0.0182003 0.00370542 -0.00020554)
(-0.0191216 0.00222054 -0.000234615)
(-0.0196084 0.000497896 -0.00027881)
(-0.0195734 -0.00146187 -0.000340203)
(-0.0189153 -0.00363706 -0.000414665)
(-0.0175319 -0.00596115 -0.000499414)
(-0.0153374 -0.00830234 -0.000583348)
(-0.0123005 -0.010415 -0.000645005)
(-0.00857021 -0.0118017 -0.000654449)
(-0.00417419 -0.0113895 -0.000588468)
(-0.000886685 -0.00661156 -0.000289122)
(-0.000434534 0.00573865 -0.000331482)
(-0.00223965 0.01015 -0.000331755)
(-0.00486774 0.0112068 -0.000309042)
(-0.00738677 0.0111035 -0.000279225)
(-0.00986197 0.0106079 -0.000257621)
(-0.012219 0.00990365 -0.000242486)
(-0.014424 0.00901359 -0.000233355)
(-0.0164445 0.00792443 -0.000231894)
(-0.018241 0.00661179 -0.000240625)
(-0.019764 0.00504471 -0.000262633)
(-0.0209494 0.00318921 -0.000301294)
(-0.0217132 0.00101446 -0.00036022)
(-0.0219486 -0.00149695 -0.000441858)
(-0.0215184 -0.00433809 -0.000547856)
(-0.0202639 -0.00744435 -0.000671175)
(-0.0180273 -0.0106573 -0.00079949)
(-0.0146985 -0.0136458 -0.000903742)
(-0.0103953 -0.0157052 -0.0009394)
(-0.00514086 -0.0153132 -0.000866466)
(-0.00111294 -0.00896809 -0.000468702)
(-0.000457174 0.00716397 -0.000380799)
(-0.00238358 0.0126464 -0.00039135)
(-0.00519763 0.0139515 -0.00036943)
(-0.00789421 0.0138273 -0.000337922)
(-0.0105527 0.0132318 -0.000314765)
(-0.0131004 0.0123942 -0.000298658)
(-0.0155111 0.0113445 -0.000289646)
(-0.0177612 0.0100675 -0.000290044)
(-0.0198197 0.00853154 -0.000303218)
(-0.021644 0.00669317 -0.00033345)
(-0.0231723 0.00449907 -0.000385839)
(-0.024314 0.00189234 -0.000466161)
(-0.0249449 -0.00117609 -0.000579771)
(-0.0248857 -0.00473624 -0.000733932)
(-0.0239017 -0.00874839 -0.000920209)
(-0.0217272 -0.0130463 -0.00112524)
(-0.0181167 -0.017208 -0.00130915)
(-0.013091 -0.0202602 -0.00140305)
(-0.00664814 -0.0200482 -0.00132998)
(-0.00149764 -0.011897 -0.000782135)
(-0.000485462 0.0086987 -0.000442169)
(-0.00255836 0.0153457 -0.000465778)
(-0.00559273 0.0169181 -0.000444538)
(-0.00849441 0.0167735 -0.000410307)
(-0.0113603 0.0160801 -0.000384345)
(-0.0141204 0.0151186 -0.000366045)
(-0.0167593 0.0139289 -0.000356208)
(-0.0192665 0.0124952 -0.000358046)
(-0.0216252 0.0107792 -0.000376101)
(-0.0238072 0.00872323 -0.000416371)
(-0.0257617 0.00624943 -0.000486559)
(-0.0274007 0.00326285 -0.000596097)
(-0.0285913 -0.000339777 -0.000755816)
(-0.0291136 -0.00464157 -0.000983541)
(-0.0286403 -0.009681 -0.0012697)
(-0.0267543 -0.0153264 -0.00160613)
(-0.0229914 -0.0210825 -0.00193903)
(-0.0171392 -0.0256412 -0.00216124)
(-0.00911553 -0.0259354 -0.0021157)
(-0.00220595 -0.015768 -0.00134939)
(-0.000520729 0.0103673 -0.000520038)
(-0.0027689 0.0182876 -0.000560714)
(-0.0060598 0.020144 -0.000539618)
(-0.0091911 0.0199725 -0.000500604)
(-0.0122819 0.0191772 -0.000469304)
(-0.015266 0.018098 -0.000446186)
(-0.0181428 0.0167885 -0.000433135)
(-0.0209198 0.0152355 -0.000434564)
(-0.0236019 0.0133968 -0.00045657)
(-0.0261856 0.0112013 -0.000507525)
(-0.0286461 0.00854431 -0.000598908)
(-0.0309186 0.00528319 -0.000745599)
(-0.0328682 0.00124078 -0.000966129)
(-0.0342605 -0.0037628 -0.00129238)
(-0.0346884 -0.00991042 -0.00174374)
(-0.0335317 -0.0171864 -0.00230366)
(-0.0300019 -0.0250997 -0.00291345)
(-0.0234165 -0.0319705 -0.00341367)
(-0.0134758 -0.0334544 -0.00349317)
(-0.00364963 -0.0213378 -0.0024458)
(-0.000566443 0.0122007 -0.000620526)
(-0.00302595 0.021519 -0.000683712)
(-0.00661355 0.0236685 -0.000661448)
(-0.00999551 0.0234514 -0.000613997)
(-0.0133197 0.0225392 -0.000572917)
(-0.0165257 0.0213404 -0.000540302)
(-0.0196318 0.0199279 -0.000519562)
(-0.022669 0.0182963 -0.000516618)
(-0.0256719 0.016405 -0.000539501)
(-0.0286743 0.0141753 -0.00059966)
(-0.031697 0.0114796 -0.00071395)
(-0.0347249 0.00812649 -0.000906977)
(-0.037665 0.00384836 -0.0012136)
(-0.0403182 -0.00170218 -0.00167577)
(-0.0422328 -0.00889296 -0.00236197)
(-0.0425957 -0.018007 -0.00328342)
(-0.0402091 -0.0287379 -0.00439488)
(-0.0335832 -0.0391035 -0.00548075)
(-0.0218754 -0.0432261 -0.00599056)
(-0.00689497 -0.0303152 -0.00475237)
(-0.000630134 0.014243 -0.000753023)
(-0.00335105 0.0250991 -0.000845843)
(-0.00728325 0.0275349 -0.000819679)
(-0.0109332 0.0272333 -0.000757563)
(-0.0144882 0.026171 -0.000699308)
(-0.017896 0.0248364 -0.000649442)
(-0.0211985 0.0233276 -0.00061346)
(-0.0244551 0.0216544 -0.000599047)
(-0.0277371 0.0197866 -0.000616349)
(-0.0311276 0.0176505 -0.000680216)
(-0.034715 0.0151097 -0.000813713)
(-0.0385757 0.0119358 -0.00105311)
(-0.0427366 0.00776734 -0.00145265)
(-0.0470918 0.00206807 -0.00208805)
(-0.0512993 -0.00582805 -0.00308768)
(-0.0545346 -0.0166694 -0.00456503)
(-0.0551853 -0.0306925 -0.00650289)
(-0.0506239 -0.0460361 -0.00869122)
(-0.0387078 -0.0557881 -0.0103424)
(-0.0144174 -0.046527 -0.00967654)
(-0.000727087 0.0165624 -0.000932867)
(-0.00378452 0.0291092 -0.00106429)
(-0.00812204 0.0317965 -0.00102905)
(-0.0120525 0.0313388 -0.000941725)
(-0.0158212 0.0300644 -0.000854122)
(-0.019389 0.0285542 -0.000774546)
(-0.0228257 0.0269373 -0.000711339)
(-0.0262223 0.0252454 -0.00067398)
(-0.0296895 0.0234709 -0.00067452)
(-0.0333671 0.0215645 -0.000730926)
(-0.0374313 0.0194119 -0.000872586)
(-0.0420956 0.0167898 -0.00114895)
(-0.0475882 0.0132935 -0.00164153)
(-0.0540756 0.00823702 -0.00247276)
(-0.061566 0.000565232 -0.0037927)
(-0.0696306 -0.0111018 -0.00584988)
(-0.0765953 -0.0281798 -0.00881227)
(-0.0782675 -0.0501912 -0.0123339)
(-0.0692393 -0.071557 -0.015652)
(-0.0288152 -0.0786073 -0.0173927)
(-0.000887611 0.0192627 -0.00118586)
(-0.00439802 0.0336386 -0.00136398)
(-0.00922028 0.0364762 -0.00130825)
(-0.0134375 0.0357419 -0.0011778)
(-0.017384 0.0341681 -0.00104243)
(-0.0210422 0.0324246 -0.000915072)
(-0.0245167 0.0306666 -0.000807141)
(-0.0279299 0.0289521 -0.000729542)
(-0.0314258 0.0273108 -0.000695598)
(-0.0351937 0.0257425 -0.000724415)
(-0.0394968 0.024198 -0.00084786)
(-0.0447073 0.0225301 -0.00112151)
(-0.051343 0.0204014 -0.00163965)
(-0.0600722 0.0171185 -0.0025425)
(-0.0716774 0.0114231 -0.00398765)
(-0.0867805 0.00115287 -0.00604918)
(-0.103654 -0.0173395 -0.00863259)
(-0.114616 -0.0490577 -0.0107093)
(-0.108792 -0.0952851 -0.0120887)
(-0.042878 -0.143294 -0.0194073)
(-0.00118906 0.0225596 -0.00156718)
(-0.00536504 0.0390317 -0.00181795)
(-0.010749 0.041925 -0.00173156)
(-0.0152094 0.0407593 -0.00152714)
(-0.0192523 0.0386845 -0.00130234)
(-0.0229039 0.0365187 -0.00108559)
(-0.0262989 0.0344754 -0.000897122)
(-0.0295742 0.0326496 -0.000750631)
(-0.0328904 0.0311126 -0.000657308)
(-0.036465 0.0299342 -0.00063281)
(-0.0406207 0.0291873 -0.000703434)
(-0.0458631 0.0289099 -0.000912481)
(-0.0530006 0.0290247 -0.00131924)
(-0.0632572 0.0291103 -0.0019407)
(-0.0783799 0.0279448 -0.00252448)
(-0.0999535 0.0219068 -0.0020833)
(-0.125223 0.00204745 0.00150032)
(-0.140967 -0.0496382 0.0105685)
(-0.135669 -0.139407 0.0177403)
(-0.0404875 -0.241931 -0.00639112)
(-0.00161519 0.0268441 -0.00212432)
(-0.00656852 0.0445417 -0.00236199)
(-0.0127607 0.0468718 -0.00218936)
(-0.0175576 0.0448378 -0.00185072)
(-0.0217126 0.0422552 -0.00151214)
(-0.0252367 0.0398235 -0.00119211)
(-0.0283555 0.0376582 -0.000909436)
(-0.0312493 0.0358137 -0.000675221)
(-0.0340776 0.0343855 -0.000497892)
(-0.0370243 0.0335255 -0.000385219)
(-0.0403756 0.0334766 -0.00033892)
(-0.0446308 0.0345584 -0.00034194)
(-0.0506969 0.037152 -0.000302059)
(-0.0600682 0.0412508 0.000221493)
(-0.0751155 0.045555 0.00270365)
(-0.0977114 0.0434899 0.0106105)
(-0.125682 0.019301 0.028422)
(-0.140679 -0.0577958 0.0531632)
(-0.139238 -0.192632 0.0581218)
(-0.0255073 -0.336995 -0.000702713)
(-0.00366949 0.0310462 -0.00313376)
(-0.0107154 0.0537675 -0.00360773)
(-0.0164969 0.055769 -0.00327993)
(-0.0208586 0.053065 -0.00272836)
(-0.0244022 0.0491648 -0.00210492)
(-0.0274923 0.0454747 -0.00151432)
(-0.0302326 0.0422601 -0.000995529)
(-0.0326914 0.0396341 -0.00056668)
(-0.0349193 0.0377087 -0.000230559)
(-0.036982 0.0366691 1.86247e-05)
(-0.0390143 0.0368855 0.000210541)
(-0.0412807 0.038922 0.000464363)
(-0.044462 0.0437016 0.00115603)
(-0.0495972 0.051477 0.00344845)
(-0.0589928 0.0608414 0.0103831)
(-0.0738093 0.0611978 0.0276646)
(-0.0977471 0.0344655 0.058651)
(-0.109959 -0.0646691 0.0871043)
(-0.120718 -0.240094 0.067331)
(-0.0082317 -0.414392 -0.0194106)
(-0.00175893 0.0458244 -0.00500826)
(-0.00930496 0.0575449 -0.00489168)
(-0.0197057 0.0566955 -0.00418197)
(-0.0246814 0.0515678 -0.00306523)
(-0.0289702 0.0476893 -0.00211955)
(-0.0316708 0.0444603 -0.0012503)
(-0.0335088 0.0417503 -0.000506139)
(-0.0347064 0.03944 0.000101138)
(-0.0353799 0.0376554 0.000573511)
(-0.0355114 0.0365454 0.000921181)
(-0.0350566 0.0366138 0.00120578)
(-0.0337821 0.0383505 0.00164922)
(-0.031878 0.043177 0.0028407)
(-0.0288232 0.0508859 0.00642924)
(-0.027366 0.0619094 0.0159731)
(-0.0244834 0.0630655 0.0370265)
(-0.0389878 0.0380543 0.0703623)
(-0.0417146 -0.0701145 0.0887716)
(-0.0724072 -0.269042 0.047395)
(0.018671 -0.467215 -0.0428539)
(-0.012058 0.0373156 -0.006275)
(-0.0254293 0.0803148 -0.0074897)
(-0.0252469 0.077235 -0.00680745)
(-0.0314244 0.0709376 -0.0052257)
(-0.0329171 0.0628904 -0.00333379)
(-0.032853 0.0558147 -0.00165533)
(-0.0313809 0.0498297 -0.000281489)
(-0.0290003 0.0448746 0.000761943)
(-0.0259665 0.0409419 0.00151467)
(-0.0221697 0.0378375 0.00198175)
(-0.0179106 0.0359321 0.00222275)
(-0.0121764 0.0353035 0.00245351)
(-0.00599221 0.0374936 0.00316348)
(0.00467696 0.0420768 0.00568134)
(0.0144443 0.0517262 0.0129078)
(0.0364618 0.0555682 0.0290774)
(0.0389109 0.0416473 0.0506751)
(0.0711905 -0.0497643 0.0641117)
(0.0172146 -0.258462 0.0249715)
(0.0682291 -0.47155 -0.0593281)
(-0.0756959 0.101262 -0.0181318)
(-0.0612321 0.0627199 -0.0130037)
(-0.0606693 0.0607841 -0.00926162)
(-0.0393461 0.0525787 -0.00576939)
(-0.0210752 0.0444842 -0.00324688)
(-0.00122383 0.0384722 -0.0011632)
(0.0170741 0.0340711 0.000536059)
(0.0346822 0.0303161 0.00186983)
(0.050275 0.0275436 0.00290648)
(0.0659674 0.024831 0.00354752)
(0.0787304 0.0233027 0.00384087)
(0.0941165 0.0216151 0.00363038)
(0.104044 0.0216186 0.00338467)
(0.124847 0.0218888 0.00297655)
(0.131666 0.021738 0.00410589)
(0.173456 0.0189622 0.0111211)
(0.169248 -0.00692649 0.0148475)
(0.228671 -0.0629064 0.024001)
(0.158513 -0.237356 0.00790126)
(0.148909 -0.42036 -0.0730551)
(0.119386 0.139938 -0.0165067)
(0.15155 0.0856972 -0.0177433)
(0.229691 0.063431 -0.0173943)
(0.284028 0.0480705 -0.0157697)
(0.325496 0.037161 -0.0136967)
(0.362985 0.0291216 -0.0118258)
(0.391904 0.0234169 -0.00997393)
(0.421943 0.0192101 -0.0082726)
(0.441329 0.016143 -0.00672572)
(0.468537 0.0137108 -0.00519338)
(0.479304 0.0119231 -0.00400261)
(0.507536 0.0105984 -0.00288967)
(0.50943 0.00936446 -0.00184762)
(0.542106 0.00900112 -0.00165229)
(0.533437 0.00740066 2.33546e-05)
(0.571462 0.00559851 -0.00083831)
(0.541768 -0.00348956 0.00272438)
(0.561645 -0.0239018 -0.00332937)
(0.433997 -0.0709535 -0.00745735)
(0.303384 -0.149112 -0.0840722)
(-0.000108465 0.000109038 -7.81378e-05)
(-0.000834842 0.000337532 -6.75372e-05)
(-0.00201796 0.00040184 -5.40381e-05)
(-0.00315324 0.000407546 -4.36772e-05)
(-0.00427108 0.000396806 -4.06094e-05)
(-0.00533089 0.00037976 -4.35971e-05)
(-0.00631119 0.000356084 -5.19142e-05)
(-0.00718917 0.000323407 -6.55973e-05)
(-0.00793684 0.000279221 -8.47951e-05)
(-0.00852178 0.000221108 -0.00011005)
(-0.0089077 0.000147104 -0.000141698)
(-0.00905599 5.66187e-05 -0.000179604)