/*--------------------------------*- C++ -*----------------------------------*\
  =========                 |
  \\      /  F ield         | OpenFOAM: The Open Source CFD Toolbox
   \\    /   O peration     | Website:  https://openfoam.org
    \\  /    A nd           | Version:  10
     \\/     M anipulation  |
\*---------------------------------------------------------------------------*/
FoamFile
{
    format      ascii;
    class       volScalarField;
    location    "2";
    object      p;
}
// * * * * * * * * * * * * * * * * * * * * * * * * * * * * * * * * * * * * * //

dimensions      [0 2 -2 0 0 0 0];

internalField   nonuniform List<scalar> 
475
(
-0.00726925
-0.0351494
-0.0647056
-0.0842564
-0.110424
-0.0354342
-0.0472847
-0.06618
-0.0873105
-0.105526
-0.0329683
-0.0418908
-0.0571478
-0.0757743
-0.0931748
-0.0326358
-0.0430939
-0.0577903
-0.0741255
-0.0880055
-0.0026888
-0.0295368
-0.0526614
-0.0702611
-0.08309
-0.125484
-0.135768
-0.200143
-0.265692
-0.293034
-0.275216
-0.205899
-0.115612
-0.0430014
0.000759906
0.0212148
0.0298456
0.0386007
0.0491253
0.0571612
0.0617148
0.0634808
0.0635135
0.0625277
0.0609465
0.0590226
0.0568977
0.0546517
0.0523312
0.0499643
0.0475683
0.0451545
0.0427297
0.040298
0.037862
0.0354231
0.0329823
0.0305404
0.0280977
0.0256547
0.0232116
0.0207683
0.0183251
0.0158817
0.0134382
0.010995
0.00855149
0.00610811
0.00366497
0.00122167
-0.128262
-0.146903
-0.170992
-0.196173
-0.201938
-0.180786
-0.132467
-0.0731002
-0.0263068
0.0012743
0.0168408
0.0265051
0.0372329
0.046823
0.0535271
0.0574824
0.059798
0.0605629
0.060274
0.0593035
0.0578653
0.0561018
0.0541153
0.051977
0.0497358
0.0474253
0.0450681
0.0426799
0.0402712
0.0378491
0.0354184
0.0329822
0.0305426
0.0281011
0.0256583
0.0232151
0.0207714
0.0183277
0.0158839
0.01344
0.0109964
0.0085525
0.00610882
0.00366538
0.0012218
-0.1079
-0.117984
-0.128928
-0.138058
-0.135932
-0.124169
-0.103336
-0.0711465
-0.0391151
-0.0209837
-0.0105979
0.00642778
0.0282005
0.0447532
0.0530255
0.0569236
0.0587332
0.0595207
0.0594663
0.0587159
0.0574493
0.0558153
0.053923
0.051851
0.0496554
0.0473754
0.0450387
0.0426642
0.0402646
0.0378482
0.0354207
0.0329862
0.0305473
0.0281058
0.0256627
0.0232189
0.0207747
0.0183304
0.015886
0.0134417
0.0109976
0.00855345
0.00610949
0.00366575
0.00122192
-0.098055
-0.10463
-0.108612
-0.108208
-0.0996783
-0.087792
-0.0767841
-0.0625479
-0.0475252
-0.0368596
-0.025118
-0.00707244
0.0121111
0.0283868
0.0405219
0.0487832
0.053901
0.0566472
0.0577083
0.0576207
0.0567617
0.0553844
0.0536564
0.0516907
0.0495636
0.0473271
0.045017
0.0426577
0.040266
0.0378534
0.0354275
0.0329932
0.0305538
0.0281115
0.0256676
0.023223
0.0207779
0.018333
0.0158881
0.0134432
0.0109988
0.00855433
0.00611011
0.00366606
0.00122202
-0.0905621
-0.0940485
-0.0953863
-0.0907869
-0.07809
-0.0666046
-0.0612232
-0.0557838
-0.049122
-0.0432162
-0.0324369
-0.0118517
0.0114792
0.0307349
0.043495
0.0511838
0.055512
0.0576486
0.0583233
0.0580043
0.0570058
0.0555422
0.0537602
0.05176
0.0496106
0.0473599
0.0450406
0.0426755
0.04028
0.0378646
0.0354365
0.0330005
0.0305597
0.0281162
0.0256713
0.0232259
0.0207802
0.0183347
0.0158894
0.0134443
0.0109995
0.0085549
0.00611052
0.00366625
0.00122208
-0.189076
-0.198699
-0.220597
-0.249918
-0.257546
-0.224816
-0.14672
-0.0445816
0.048069
0.109214
0.134898
0.13767
0.129465
0.11765
0.105789
0.0951924
0.0862167
0.078785
0.072677
0.0676254
0.0633709
0.0596945
0.0564255
0.0534371
0.0506386
0.0479671
0.0453796
0.0428471
0.0403503
0.0378763
0.0354166
0.0329655
0.0305196
0.0280765
0.025635
0.0231941
0.0207534
0.0183127
0.0158717
0.0134304
0.0109889
0.00854715
0.0061052
0.00366313
0.00122101
-0.185636
-0.195193
-0.230026
-0.276188
-0.297216
-0.271339
-0.19216
-0.0789078
0.027697
0.0986437
0.128758
0.132439
0.124434
0.113126
0.102138
0.0925289
0.0843902
0.0775631
0.0719064
0.0671654
0.0631103
0.0595553
0.0563566
0.0534075
0.0506306
0.0479703
0.045388
0.0428573
0.0403605
0.0378857
0.0354248
0.0329725
0.0305254
0.0280812
0.0256386
0.023197
0.0207557
0.0183144
0.0158731
0.0134314
0.0109897
0.00854768
0.00610553
0.00366338
0.0012211
-0.192882
-0.209503
-0.261675
-0.32907
-0.369826
-0.353709
-0.267949
-0.132107
-0.00776518
0.077361
0.115017
0.120726
0.113528
0.10372
0.0945756
0.0867126
0.0801305
0.0747222
0.0700655
0.0659901
0.0623698
0.0590972
0.056081
0.0532477
0.0505425
0.0479253
0.0453682
0.0428519
0.0403629
0.0378917
0.0354321
0.0329798
0.030532
0.028087
0.0256435
0.0232011
0.0207589
0.0183171
0.0158751
0.013433
0.0109909
0.00854851
0.00610608
0.00366375
0.00122124
-0.186086
-0.202886
-0.266299
-0.342733
-0.393318
-0.386309
-0.303277
-0.167342
-0.0412067
0.0451901
0.0844875
0.0949213
0.0940656
0.0898908
0.0850106
0.0802429
0.0756219
0.0715349
0.0678675
0.0645178
0.0614114
0.0584874
0.0556993
0.0530123
0.0503995
0.0478405
0.0453201
0.0428266
0.0403515
0.0378885
0.0354334
0.0329833
0.0305365
0.0280915
0.0256478
0.0232049
0.0207622
0.0183198
0.0158773
0.0134347
0.0109923
0.00854947
0.00610672
0.00366415
0.00122139
-0.178616
-0.17738
-0.247649
-0.322004
-0.364428
-0.357228
-0.281157
-0.161598
-0.054757
0.0139407
0.0432585
0.0530749
0.0594675
0.0656197
0.0692242
0.0698939
0.0690779
0.0672438
0.0649855
0.0625731
0.0601038
0.0576142
0.0551227
0.0526373
0.0501606
0.0476923
0.0452311
0.0427754
0.0403239
0.0378752
0.0354285
0.0329831
0.0305387
0.0280949
0.0256514
0.0232083
0.0207653
0.0183224
0.0158795
0.0134365
0.0109936
0.00855048
0.00610741
0.00366456
0.00122153
)
;

boundaryField
{
    inlet
    {
        type            zeroGradient;
    }
    outlet
    {
        type            fixedValue;
        value           uniform 0;
    }
    upperWall
    {
        type            zeroGradient;
    }
    lowerWall
    {
        type            zeroGradient;
    }
    frontAndBack
    {
        type            empty;
    }
}


// ************************************************************************* //
