/*--------------------------------*- C++ -*----------------------------------*\
  =========                 |
  \\      /  F ield         | OpenFOAM: The Open Source CFD Toolbox
   \\    /   O peration     | Website:  https://openfoam.org
    \\  /    A nd           | Version:  10
     \\/     M anipulation  |
\*---------------------------------------------------------------------------*/
FoamFile
{
    format      ascii;
    class       surfaceScalarField;
    location    "2";
    object      phi;
}
// * * * * * * * * * * * * * * * * * * * * * * * * * * * * * * * * * * * * * //

dimensions      [0 3 -1 0 0 0 0];

internalField   nonuniform List<scalar> 
890
(
0.00989464
0.000105365
0.00966104
0.000233594
0.00945716
0.000203876
0.00937357
8.35979e-05
0.000275624
0.00909794
0.0100829
2.24689e-05
0.0102188
9.76578e-05
0.0104229
-2.00559e-07
0.0105084
-1.86018e-06
1.49455e-05
0.010769
0.0100613
-3.87972e-05
0.010241
-8.21158e-05
0.0103722
-0.000131365
0.0105342
-0.000163906
-0.000167133
0.0107163
0.01009
-0.000128802
0.0102282
-0.000220332
0.0103197
-0.000222825
0.0104076
-0.000251837
-0.000278306
0.0105188
0.0098712
0.00965087
0.00942804
0.0091762
0.0088979
0.00909605
-7.9887e-05
8.178e-05
0.00956922
-7.05821e-06
-0.000466108
0.0100812
-0.000130858
-0.000381096
0.0106042
-0.000937897
0.000414906
0.0109917
-0.00194275
0.00155526
0.011042
-0.00290282
0.00285244
0.0105498
-0.00374776
0.00423998
0.00957446
-0.0040357
0.00501105
0.00831037
-0.00329299
0.00455708
0.00693759
-0.00215498
0.00352776
0.00589457
-0.00147225
0.00251528
0.00548867
-0.00111206
0.00151796
0.00553102
-0.000693771
0.000651427
0.00567314
-0.00024035
9.82284e-05
0.00576123
6.80279e-05
-0.000156114
0.00576935
0.000203858
-0.000211982
0.00573702
0.00021987
-0.000187537
0.00569776
0.000187478
-0.000148222
0.00566571
0.000145181
-0.000113127
0.00564385
0.000108026
-8.61684e-05
0.00563041
7.9403e-05
-6.59598e-05
0.00562268
5.83382e-05
-5.06169e-05
0.0056185
4.29806e-05
-3.87926e-05
0.00561638
3.17374e-05
-2.96158e-05
0.00561542
2.34483e-05
-2.2496e-05
0.00561511
1.73053e-05
-1.69961e-05
0.00561514
1.27445e-05
-1.27678e-05
0.0056153
9.36106e-06
-9.52753e-06
0.00561551
6.85695e-06
-7.06089e-06
0.0056157
5.00917e-06
-5.20177e-06
0.00561586
3.64934e-06
-3.81243e-06
0.00561599
2.65122e-06
-2.78168e-06
0.00561609
1.92038e-06
-2.02127e-06
0.00561617
1.38681e-06
-1.46322e-06
0.00561623
9.98046e-07
-1.05551e-06
0.00561627
7.15886e-07
-7.58224e-07
0.0056163
5.12069e-07
-5.43422e-07
0.00561632
3.64714e-07
-3.8769e-07
0.00561634
2.59347e-07
-2.75503e-07
0.00561635
1.85162e-07
-1.97365e-07
0.00561636
1.28832e-07
-1.3733e-07
0.00561637
9.52855e-08
-1.01062e-07
0.00561637
6.32263e-08
-6.80409e-08
0.00561638
5.07658e-08
-5.43825e-08
3.11661e-08
-3.32315e-08
0.0109182
-0.000229024
0.0111898
-0.000278697
0.0115068
-0.000447846
0.0115129
-0.000943953
0.011238
-0.00166788
0.0107412
-0.00240598
0.00972668
-0.00273328
0.00826548
-0.00257449
0.00694155
-0.00196907
0.0059699
-0.00118334
0.00525214
-0.000754484
0.00484732
-0.00070724
0.00478996
-0.000636418
0.00493924
-0.000389629
0.00513002
-0.00012275
0.00529182
4.20576e-05
0.00540615
0.000105545
0.00547864
0.00011499
0.00552346
0.000100361
0.00555152
7.99656e-05
0.00556968
6.12363e-05
0.0055819
4.61213e-05
0.00559036
3.45168e-05
0.00559633
2.57684e-05
0.00560057
1.92082e-05
0.00560359
1.4293e-05
0.00560572
1.06084e-05
0.00560724
7.84256e-06
0.00560833
5.76851e-06
0.00560912
4.22116e-06
0.00560969
3.07467e-06
0.00561011
2.23007e-06
0.00561042
1.61135e-06
0.00561065
1.15996e-06
0.00561081
8.31181e-07
0.00561094
5.94196e-07
0.00561103
4.22464e-07
0.00561109
2.99863e-07
0.00561114
2.12946e-07
0.00561117
1.50441e-07
0.0056112
1.05199e-07
0.00561121
7.79514e-08
0.00561123
5.01005e-08
0.00561124
4.10056e-08
2.53828e-08
0.0107537
-0.000266388
0.0109086
-0.000433648
0.0110929
-0.000632085
0.011007
-0.000858049
0.0106576
-0.00131847
0.0101557
-0.00190413
0.00947462
-0.00205219
0.0087578
-0.00185767
0.00834469
-0.00155596
0.00826519
-0.00110383
0.00807933
-0.000568631
0.00752695
-0.000154859
0.00681337
7.71684e-05
0.00622455
0.000199183
0.00586207
0.000239733
0.00567364
0.000230487
0.00558435
0.000194837
0.00554704
0.000152299
0.00553376
0.000113641
0.00553101
8.27159e-05
0.00553267
5.95764e-05
0.00553598
4.28066e-05
0.00553971
3.07919e-05
0.00554329
2.21912e-05
0.00554648
1.60126e-05
0.00554922
1.15545e-05
0.0055515
8.32846e-06
0.00555335
5.99316e-06
0.00555481
4.30801e-06
0.00555593
3.09584e-06
0.00555679
2.22308e-06
0.00555742
1.59264e-06
0.0055579
1.13869e-06
0.00555825
8.11402e-07
0.0055585
5.75023e-07
0.00555869
4.08404e-07
0.00555882
2.85924e-07
0.00555892
2.02303e-07
0.00555899
1.43125e-07
0.00555904
9.80694e-08
0.00555908
7.05924e-08
0.0055591
5.13416e-08
0.00555912
3.05548e-08
0.00555914
2.6876e-08
1.67737e-08
0.0105308
-0.000278406
0.0104801
-0.000382975
0.0103942
-0.000546159
0.0101531
-0.00061698
0.0096877
-0.000853026
0.00900549
-0.00122193
0.008158
-0.0012047
0.00717765
-0.000877321
0.0062512
-0.000629508
0.0055817
-0.000434332
0.00516579
-0.000152722
0.00488849
0.000122445
0.00471045
0.000255203
0.00465671
0.000252928
0.00469611
0.000200331
0.0047795
0.000147098
0.00486883
0.000105502
0.00494566
7.54759e-05
0.00500516
5.4133e-05
0.00504894
3.89421e-05
0.0050804
2.81121e-05
0.00510284
2.03673e-05
0.00511884
1.47978e-05
0.00513026
1.0767e-05
0.00513844
7.83512e-06
0.0051443
5.69533e-06
0.0051485
4.12963e-06
0.00515151
2.98279e-06
0.00515367
2.14535e-06
0.00515523
1.53619e-06
0.00515636
1.0963e-06
0.00515717
7.78193e-07
0.00515776
5.50843e-07
0.00515818
3.87603e-07
0.00515849
2.70588e-07
0.0051587
1.90449e-07
0.00515886
1.29659e-07
0.00515897
9.21714e-08
0.00515905
6.39605e-08
0.00515911
4.17234e-08
0.00515914
3.27186e-08
0.00515917
2.13733e-08
0.00515919
1.12504e-08
0.00515921
1.22403e-08
7.0956e-09
0.00861949
0.00823652
0.00769036
0.00707338
0.00622035
0.00499843
0.00379373
0.00291641
0.0022869
0.00185257
0.00169985
0.00182229
0.00207749
0.00233042
0.00253075
0.00267785
0.00278335
0.00285883
0.00291296
0.0029519
0.00298002
0.00300038
0.00301518
0.00302595
0.00303378
0.00303948
0.00304361
0.00304659
0.00304874
0.00305027
0.00305137
0.00305215
0.0030527
0.00305309
0.00305336
0.00305355
0.00305368
0.00305377
0.00305383
0.00305387
0.00305391
0.00305393
0.00305394
0.00305395
-0.000640273
0.000640273
-0.00151034
0.000870067
-0.00260118
0.00109085
-0.00360306
0.00100188
-0.00411086
0.000507799
-0.00391896
-0.000191905
-0.00304164
-0.000877317
-0.00170631
-0.00133533
-0.000227142
-0.00147917
0.00109246
-0.00131961
0.00208094
-0.000988477
0.00272832
-0.000647383
0.00309898
-0.000370656
0.00327626
-0.000177283
0.0033341
-5.78408e-05
0.00332641
7.69705e-06
0.00328941
3.70013e-05
0.00324366
4.57482e-05
0.0032002
4.34603e-05
0.00316352
3.66766e-05
0.00313452
2.89999e-05
0.00311247
2.20546e-05
0.00309609
1.63732e-05
0.00308412
1.19711e-05
0.00307546
8.66492e-06
0.00306923
6.22869e-06
0.00306477
4.45658e-06
0.00306159
3.17843e-06
0.00305933
2.26005e-06
0.00305773
1.60278e-06
0.0030566
1.13219e-06
0.0030558
7.97885e-07
0.00305524
5.59649e-07
0.00305485
3.91953e-07
0.00305457
2.7487e-07
0.00305438
1.90108e-07
0.00305425
1.35029e-07
0.00305416
9.17248e-08
0.00305409
6.28031e-08
0.00305405
4.6318e-08
0.00305402
2.68075e-08
0.003054
2.08193e-08
0.00305398
1.60094e-08
0.00305397
9.88179e-09
6.95936e-09
-0.000645605
0.00128588
-0.00166372
0.00188818
-0.00274088
0.002168
-0.00347101
0.00173202
-0.00364841
0.000685191
-0.00318885
-0.000651463
-0.00214308
-0.00192308
-0.000671098
-0.00280731
0.000919456
-0.00306972
0.0023447
-0.00274485
0.00341735
-0.00206113
0.00414751
-0.00137754
0.00462186
-0.000844999
0.00491936
-0.000474786
0.00509546
-0.00023394
0.00518989
-8.67382e-05
0.0052334
-6.5013e-06
0.00524495
3.41973e-05
0.00524048
4.7925e-05
0.00522926
4.79e-05
0.00521629
4.19696e-05
0.00520406
3.42889e-05
0.00519358
2.68449e-05
0.00518511
2.04424e-05
0.0051785
1.52782e-05
0.00517346
1.12722e-05
0.00516966
8.24796e-06
0.00516684
6.00057e-06
0.00516476
4.34384e-06
0.00516323
3.13169e-06
0.00516211
2.24847e-06
0.0051613
1.60951e-06
0.00516071
1.14783e-06
0.00516029
8.1646e-07
0.00515998
5.80399e-07
0.00515976
4.08959e-07
0.00515961
2.90947e-07
0.0051595
2.03499e-07
0.00515942
1.41088e-07
0.00515936
1.0265e-07
0.00515932
6.69255e-08
0.00515929
4.8626e-08
0.00515928
3.51886e-08
0.00515926
2.58306e-08
1.63797e-08
-0.000186809
0.00147269
-0.000852467
0.00255384
-0.00130933
0.00262486
-0.00137678
0.00179947
-0.00110174
0.000410146
-0.000459952
-0.00129325
0.000561216
-0.00294425
0.00176022
-0.00400632
0.0029894
-0.0042989
0.0040452
-0.00380065
0.00476594
-0.00278188
0.00514177
-0.00175337
0.00531968
-0.00102291
0.00542434
-0.000579444
0.00549922
-0.000308824
0.00555055
-0.000138071
0.00557819
-3.41427e-05
0.00559171
2.06811e-05
0.00559597
4.36653e-05
0.00559454
4.93299e-05
0.00559046
4.60512e-05
0.00558554
3.92083e-05
0.00558069
3.16895e-05
0.00557633
2.48073e-05
0.00557259
1.90211e-05
0.00556949
1.4373e-05
0.00556699
1.07389e-05
0.00556504
7.95144e-06
0.00556354
5.84469e-06
0.0055624
4.27098e-06
0.00556155
3.10509e-06
0.00556091
2.2482e-06
0.00556043
1.62145e-06
0.00556009
1.16553e-06
0.00555983
8.35835e-07
0.00555964
5.96045e-07
0.00555951
4.25418e-07
0.00555941
3.01489e-07
0.00555934
2.11941e-07
0.00555929
1.52454e-07
0.00555925
1.04151e-07
0.00555923
7.5758e-08
0.00555921
5.24419e-08
0.00555919
4.09975e-08
2.52905e-08
0.000435684
0.001037
0.000819256
0.00217027
0.0014337
0.00201042
0.00220865
0.00102452
0.00302008
-0.000401291
0.00382489
-0.00209806
0.00468157
-0.00380093
0.0054816
-0.00480635
0.0060125
-0.0048298
0.00634091
-0.00412906
0.00654068
-0.00298165
0.00652687
-0.00173956
0.00632722
-0.000823254
0.00608116
-0.000333385
0.00588925
-0.000116909
0.00577239
-2.1215e-05
0.00571023
2.802e-05
0.00567732
5.35922e-05
0.00565849
6.24938e-05
0.00564668
6.11382e-05
0.00563838
5.43506e-05
0.00563208
4.55136e-05
0.00562714
3.66259e-05
0.00562328
2.86703e-05
0.00562029
2.20029e-05
0.00561803
1.66422e-05
0.00561631
1.2452e-05
0.00561502
9.24063e-06
0.00561405
6.81301e-06
0.00561333
4.99667e-06
0.00561279
3.64799e-06
0.00561238
2.65309e-06
0.00561208
1.92255e-06
0.00561186
1.38853e-06
0.00561169
9.99995e-07
0.00561157
7.17e-07
0.00561148
5.13311e-07
0.00561142
3.65712e-07
0.00561137
2.58988e-07
0.00561134
1.85735e-07
0.00561131
1.28724e-07
0.0056113
9.42064e-08
0.00561128
6.40105e-08
0.00561127
5.09904e-08
3.12332e-08
0.00111878
0.00282295
0.00445227
0.0058917
0.00704566
0.00780005
0.0082391
0.0084438
0.00817108
0.00756978
0.00710341
0.0068818
0.00670997
0.00647481
0.00620179
0.00596859
0.00580908
0.00571445
0.00566381
0.00563878
0.00562717
0.00562207
0.0056199
0.00561896
0.00561847
0.00561811
0.0056178
0.00561751
0.00561726
0.00561706
0.00561689
0.00561676
0.00561666
0.00561659
0.00561653
0.00561649
0.00561646
0.00561644
0.00561642
0.00561641
0.0056164
0.0056164
0.00561639
0.00561639
)
;

boundaryField
{
    inlet
    {
        type            calculated;
        value           nonuniform List<scalar> 5(-0.01 -0.01 -0.01 -0.01 -0.01);
    }
    outlet
    {
        type            calculated;
        value           nonuniform List<scalar> 10(0.00561638 0.00561124 0.00555915 0.00515922 0.00305396 0.00305397 0.00515925 0.00555918 0.00561127 0.00561639);
    }
    upperWall
    {
        type            calculated;
        value           uniform 0;
    }
    lowerWall
    {
        type            calculated;
        value           uniform 0;
    }
    frontAndBack
    {
        type            empty;
        value           nonuniform List<scalar> 0();
    }
}


// ************************************************************************* //
