/*--------------------------------*- C++ -*----------------------------------*\
  =========                 |
  \\      /  F ield         | OpenFOAM: The Open Source CFD Toolbox
   \\    /   O peration     | Website:  https://openfoam.org
    \\  /    A nd           | Version:  10
     \\/     M anipulation  |
\*---------------------------------------------------------------------------*/
FoamFile
{
    format      ascii;
    class       volVectorField;
    location    "2";
    object      U;
}
// * * * * * * * * * * * * * * * * * * * * * * * * * * * * * * * * * * * * * //

dimensions      [0 1 -1 0 0 0 0];

internalField   nonuniform List<vector> 
475
(
(0.99071 0.0102719 0)
(0.964293 0.0168256 0)
(0.95797 0.0266871 0)
(0.949002 0.00517123 0)
(0.914604 0.0405938 0)
(1.0036 0.00552388 0)
(1.00522 0.024116 0)
(1.03141 0.010715 0)
(1.05289 0.00868698 0)
(1.05715 0.0119932 0)
(0.999071 0.000855248 0)
(1.01042 -0.00123858 0)
(1.02648 -0.0102526 0)
(1.03947 -0.00844951 0)
(1.0629 -0.00799768 0)
(0.999028 -0.0109661 0)
(1.01221 -0.0181286 0)
(1.02289 -0.0191658 0)
(1.0318 -0.0273838 0)
(1.04733 -0.0278145 0)
(0.9806 -0.00898175 0)
(0.969092 -0.0204718 0)
(0.953438 -0.0220267 0)
(0.933554 -0.0203869 0)
(0.906474 -0.0254555 0)
(0.932443 -0.0105697 0)
(0.909221 -0.00475653 0)
(0.954052 -0.0205269 0)
(1.03179 -0.098119 0)
(1.08758 -0.193968 0)
(1.13141 -0.286691 0)
(1.119 -0.393131 0)
(1.01522 -0.462679 0)
(0.893575 -0.411606 0)
(0.75343 -0.291698 0)
(0.619029 -0.196967 0)
(0.553159 -0.125299 0)
(0.546348 -0.0560077 0)
(0.560489 -0.000460986 0)
(0.572741 0.0288261 0)
(0.576956 0.0356444 0)
(0.575183 0.0309821 0)
(0.571291 0.0234082 0)
(0.567699 0.0167293 0)
(0.565117 0.01181 0)
(0.563476 0.00840286 0)
(0.56251 0.00605943 0)
(0.561974 0.0044209 0)
(0.561693 0.0032501 0)
(0.561559 0.00239821 0)
(0.561508 0.00177115 0)
(0.561503 0.00130717 0)
(0.561517 0.000963292 0)
(0.561538 0.000708302 0)
(0.561559 0.00051933 0)
(0.561578 0.000379569 0)
(0.561592 0.000276527 0)
(0.561605 0.000200788 0)
(0.561612 0.000145316 0)
(0.561622 0.000104817 0)
(0.561624 7.53187e-05 0)
(0.56163 5.39937e-05 0)
(0.561631 3.85321e-05 0)
(0.561633 2.74191e-05 0)
(0.561636 1.96343e-05 0)
(0.561635 1.36744e-05 0)
(0.561637 1.00898e-05 0)
(0.561637 6.75857e-06 0)
(0.561637 5.4137e-06 0)
(0.561638 3.31455e-06 0)
(1.08411 -0.0109352 0)
(1.09557 0.00103412 0)
(1.12236 -0.0102196 0)
(1.15743 -0.0776333 0)
(1.14657 -0.173275 0)
(1.12007 -0.266988 0)
(1.0569 -0.328694 0)
(0.901682 -0.318023 0)
(0.742124 -0.224716 0)
(0.635701 -0.120724 0)
(0.554059 -0.0812079 0)
(0.496093 -0.0838062 0)
(0.473877 -0.0740916 0)
(0.482517 -0.0441488 0)
(0.50293 -0.0139561 0)
(0.521809 0.00453681 0)
(0.535572 0.0120594 0)
(0.544725 0.0131242 0)
(0.550406 0.0114597 0)
(0.553899 0.00913092 0)
(0.556124 0.00698643 0)
(0.557606 0.00525478 0)
(0.558625 0.00392569 0)
(0.559342 0.0029245 0)
(0.559851 0.00217465 0)
(0.560213 0.00161344 0)
(0.56047 0.0011932 0)
(0.560651 0.000878859 0)
(0.560781 0.000644727 0)
(0.560873 0.000471314 0)
(0.560942 0.00034345 0)
(0.56099 0.000249481 0)
(0.561028 0.000180639 0)
(0.561053 0.000130377 0)
(0.561075 9.3734e-05 0)
(0.561087 6.71854e-05 0)
(0.561099 4.79928e-05 0)
(0.561106 3.41529e-05 0)
(0.561111 2.42915e-05 0)
(0.561117 1.73075e-05 0)
(0.561117 1.20508e-05 0)
(0.561121 8.93626e-06 0)
(0.561122 5.87933e-06 0)
(0.561123 4.73758e-06 0)
(0.561124 2.92032e-06 0)
(1.07545 -0.0285638 0)
(1.07443 -0.0480794 0)
(1.096 -0.0707361 0)
(1.11241 -0.103533 0)
(1.09016 -0.165443 0)
(1.04924 -0.230638 0)
(0.996216 -0.241842 0)
(0.912329 -0.220121 0)
(0.835604 -0.185433 0)
(0.820864 -0.128009 0)
(0.830732 -0.0802116 0)
(0.793499 -0.0612981 0)
(0.714592 -0.0488134 0)
(0.643264 -0.0285074 0)
(0.597671 -0.00775078 0)
(0.572975 0.00543282 0)
(0.560951 0.010775 0)
(0.555551 0.0112062 0)
(0.553476 0.00959083 0)
(0.552923 0.00755784 0)
(0.553004 0.00574504 0)
(0.553327 0.00430263 0)
(0.553721 0.00320404 0)
(0.554111 0.0023798 0)
(0.554465 0.00176338 0)
(0.554772 0.00130236 0)
(0.55503 0.000958114 0)
(0.55524 0.000702104 0)
(0.555408 0.000512605 0)
(0.555538 0.000372808 0)
(0.555638 0.000270188 0)
(0.555711 0.000195098 0)
(0.555768 0.000140419 0)
(0.555807 0.000100696 0)
(0.55584 7.18631e-05 0)
(0.555859 5.12295e-05 0)
(0.555877 3.62366e-05 0)
(0.555887 2.56747e-05 0)
(0.555895 1.81965e-05 0)
(0.555903 1.27436e-05 0)
(0.555905 8.96156e-06 0)
(0.55591 6.60041e-06 0)
(0.555912 4.13637e-06 0)
(0.555913 3.45269e-06 0)
(0.555915 2.13989e-06 0)
(1.05449 -0.0281246 0)
(1.04977 -0.0439913 0)
(1.04394 -0.0623447 0)
(1.03437 -0.076209 0)
(1.0031 -0.107259 0)
(0.941809 -0.147236 0)
(0.863901 -0.158973 0)
(0.768161 -0.14639 0)
(0.662392 -0.130129 0)
(0.582992 -0.0952935 0)
(0.536616 -0.0334814 0)
(0.503053 0.0284635 0)
(0.477314 0.0612361 0)
(0.464667 0.0626747 0)
(0.464862 0.0501601 0)
(0.472338 0.0363664 0)
(0.481864 0.0252903 0)
(0.490601 0.0173652 0)
(0.49758 0.0119058 0)
(0.502783 0.00817972 0)
(0.506539 0.00564231 0)
(0.509217 0.00391267 0)
(0.511123 0.00272901 0)
(0.512482 0.00191445 0)
(0.513455 0.00135063 0)
(0.514151 0.000958001 0)
(0.51465 0.000682543 0)
(0.515008 0.000487664 0)
(0.515265 0.000348824 0)
(0.515449 0.000249262 0)
(0.515583 0.000177927 0)
(0.515678 0.000126623 0)
(0.515749 8.99684e-05 0)
(0.515798 6.36795e-05 0)
(0.515836 4.47364e-05 0)
(0.515859 3.16563e-05 0)
(0.51588 2.18159e-05 0)
(0.515891 1.54261e-05 0)
(0.515901 1.08931e-05 0)
(0.515909 7.19468e-06 0)
(0.515912 5.40763e-06 0)
(0.515917 3.8583e-06 0)
(0.515918 2.10043e-06 0)
(0.51592 2.00177e-06 0)
(0.515922 1.24491e-06 0)
(0.875568 -0.0248818 0)
(0.846219 -0.0287811 0)
(0.799765 -0.0430994 0)
(0.743667 -0.0433602 0)
(0.67974 -0.0581647 0)
(0.567624 -0.0927006 0)
(0.431016 -0.0792241 0)
(0.325862 -0.0257398 0)
(0.252523 0.00687597 0)
(0.200135 0.00905573 0)
(0.173137 0.00276581 0)
(0.174038 -0.00209713 0)
(0.19408 -0.00575301 0)
(0.22005 -0.00708198 0)
(0.243181 -0.00601001 0)
(0.260689 -0.00405013 0)
(0.273301 -0.00226952 0)
(0.282297 -0.00101322 0)
(0.288726 -0.000249798 0)
(0.29334 0.000161835 0)
(0.296665 0.00035182 0)
(0.29907 0.000411559 0)
(0.300814 0.000399615 0)
(0.302083 0.000352283 0)
(0.303006 0.000291567 0)
(0.303678 0.00023029 0)
(0.304166 0.000175377 0)
(0.304518 0.000129838 0)
(0.304773 9.42146e-05 0)
(0.304955 6.74207e-05 0)
(0.305086 4.78088e-05 0)
(0.305178 3.35348e-05 0)
(0.305245 2.33878e-05 0)
(0.30529 1.61009e-05 0)
(0.305324 1.09942e-05 0)
(0.305345 7.56324e-06 0)
(0.305362 4.93226e-06 0)
(0.305372 3.57173e-06 0)
(0.305381 2.30388e-06 0)
(0.305385 1.45169e-06 0)
(0.305389 1.32807e-06 0)
(0.305393 5.78357e-07 0)
(0.305393 2.50585e-07 0)
(0.305395 4.95698e-07 0)
(0.305396 1.96379e-07 0)
(-0.0285062 -0.00413216 0)
(-0.0998115 0.023216 0)
(-0.209716 0.0464565 0)
(-0.328834 0.0547613 0)
(-0.403846 0.030839 0)
(-0.412327 -0.000692046 0)
(-0.351655 -0.0360511 0)
(-0.237281 -0.0596149 0)
(-0.0930481 -0.0663778 0)
(0.0478372 -0.0571985 0)
(0.162622 -0.0399989 0)
(0.244032 -0.0228608 0)
(0.294511 -0.00964783 0)
(0.321324 -0.00125074 0)
(0.332364 0.00304949 0)
(0.334184 0.00454301 0)
(0.331429 0.00448711 0)
(0.326957 0.00382283 0)
(0.322314 0.00300888 0)
(0.318215 0.00226683 0)
(0.314891 0.00166494 0)
(0.312324 0.00120469 0)
(0.310401 0.000863778 0)
(0.308986 0.000615064 0)
(0.307959 0.000435139 0)
(0.307218 0.000306093 0)
(0.306688 0.000214512 0)
(0.306309 0.000150039 0)
(0.30604 0.00010473 0)
(0.305848 7.29264e-05 0)
(0.305713 5.05208e-05 0)
(0.305617 3.48763e-05 0)
(0.30555 2.38907e-05 0)
(0.305502 1.63694e-05 0)
(0.30547 1.12103e-05 0)
(0.305447 7.57875e-06 0)
(0.305432 5.35635e-06 0)
(0.305419 3.4208e-06 0)
(0.305413 2.37047e-06 0)
(0.305407 1.68119e-06 0)
(0.305403 7.03967e-07 0)
(0.305402 7.54362e-07 0)
(0.305399 5.59485e-07 0)
(0.305398 1.92843e-07 0)
(0.305397 2.41656e-07 0)
(-0.0168961 0.138522 0)
(-0.105666 0.160152 0)
(-0.238413 0.179521 0)
(-0.331338 0.148187 0)
(-0.374776 0.0678365 0)
(-0.350479 -0.0410258 0)
(-0.269418 -0.147149 0)
(-0.140292 -0.216005 0)
(0.0141632 -0.23253 0)
(0.165812 -0.20617 0)
(0.290395 -0.156663 0)
(0.380244 -0.105883 0)
(0.440706 -0.0642821 0)
(0.479542 -0.0342887 0)
(0.50305 -0.0145913 0)
(0.516078 -0.00287637 0)
(0.522413 0.00321506 0)
(0.524711 0.00559948 0)
(0.524764 0.0059113 0)
(0.52378 0.00525513 0)
(0.522442 0.00428372 0)
(0.521103 0.00331987 0)
(0.519924 0.0024941 0)
(0.518953 0.00183863 0)
(0.518186 0.00134021 0)
(0.517597 0.000970056 0)
(0.517153 0.000698667 0)
(0.516822 0.000501288 0)
(0.516577 0.000358505 0)
(0.516396 0.000255733 0)
(0.516264 0.000181798 0)
(0.516168 0.000128966 0)
(0.516099 9.11249e-05 0)
(0.516048 6.4242e-05 0)
(0.516014 4.53428e-05 0)
(0.515986 3.15832e-05 0)
(0.515969 2.24512e-05 0)
(0.515954 1.55102e-05 0)
(0.515945 1.06124e-05 0)
(0.515939 7.87017e-06 0)
(0.515933 4.87196e-06 0)
(0.515931 3.53507e-06 0)
(0.515928 2.71787e-06 0)
(0.515927 1.85527e-06 0)
(0.515925 1.17614e-06 0)
(0.0196612 0.10651 0)
(-0.0530237 0.198529 0)
(-0.126875 0.231702 0)
(-0.15169 0.1752 0)
(-0.136856 0.053394 0)
(-0.087684 -0.106347 0)
(0.00257133 -0.262679 0)
(0.123017 -0.364661 0)
(0.24206 -0.38701 0)
(0.350506 -0.33607 0)
(0.440729 -0.247487 0)
(0.495952 -0.164654 0)
(0.523189 -0.103593 0)
(0.537402 -0.0616431 0)
(0.546732 -0.033457 0)
(0.553242 -0.0154268 0)
(0.557183 -0.00478585 0)
(0.559091 0.000808152 0)
(0.55977 0.00329746 0)
(0.559751 0.00404239 0)
(0.559389 0.00390597 0)
(0.558888 0.0033963 0)
(0.558366 0.00278421 0)
(0.557884 0.00219873 0)
(0.557465 0.00169268 0)
(0.557113 0.00128007 0)
(0.556828 0.000955475 0)
(0.556603 0.000705988 0)
(0.556429 0.000517439 0)
(0.556296 0.000376838 0)
(0.556196 0.00027293 0)
(0.55612 0.00019684 0)
(0.556067 0.000141386 0)
(0.556024 0.000101239 0)
(0.555996 7.23653e-05 0)
(0.555972 5.13994e-05 0)
(0.555958 3.66331e-05 0)
(0.555945 2.58445e-05 0)
(0.555937 1.80776e-05 0)
(0.555932 1.30213e-05 0)
(0.555926 8.75572e-06 0)
(0.555924 6.36512e-06 0)
(0.555922 4.45509e-06 0)
(0.55592 3.41036e-06 0)
(0.555918 2.13169e-06 0)
(0.0426587 0.192088 0)
(0.0516979 0.314526 0)
(0.100903 0.288962 0)
(0.169756 0.181361 0)
(0.254094 0.0261362 0)
(0.348142 -0.163318 0)
(0.441838 -0.3432 0)
(0.529694 -0.456169 0)
(0.583477 -0.484326 0)
(0.608628 -0.426506 0)
(0.637479 -0.305348 0)
(0.653841 -0.180149 0)
(0.643334 -0.0958207 0)
(0.61891 -0.0509219 0)
(0.596427 -0.0262478 0)
(0.581527 -0.010858 0)
(0.573222 -0.00148548 0)
(0.568918 0.0035816 0)
(0.566617 0.0056925 0)
(0.565231 0.00602667 0)
(0.56427 0.00546548 0)
(0.563544 0.00457122 0)
(0.562974 0.00364492 0)
(0.562526 0.00281981 0)
(0.56218 0.00213937 0)
(0.561917 0.00160324 0)
(0.561717 0.00119177 0)
(0.561567 0.000880501 0)
(0.561454 0.000647141 0)
(0.561368 0.000473487 0)
(0.561305 0.00034501 0)
(0.561257 0.000250503 0)
(0.561223 0.000181265 0)
(0.561195 0.000130754 0)
(0.561178 9.40783e-05 0)
(0.561162 6.73709e-05 0)
(0.561153 4.81988e-05 0)
(0.561145 3.43022e-05 0)
(0.561139 2.42348e-05 0)
(0.561136 1.73996e-05 0)
(0.561131 1.20235e-05 0)
(0.561131 8.78091e-06 0)
(0.561129 6.00163e-06 0)
(0.561128 4.75987e-06 0)
(0.561127 2.92881e-06 0)
(0.0615177 0.000242453 0)
(0.180665 0.110972 0)
(0.354366 0.105754 0)
(0.509855 0.0223642 0)
(0.647652 -0.102835 0)
(0.765568 -0.25832 0)
(0.832324 -0.421354 0)
(0.855238 -0.513295 0)
(0.84191 -0.495225 0)
(0.775763 -0.418036 0)
(0.715073 -0.310667 0)
(0.693535 -0.183464 0)
(0.681495 -0.07859 0)
(0.659825 -0.0207435 0)
(0.632337 0.000557888 0)
(0.606314 0.00574631 0)
(0.586832 0.00656412 0)
(0.574732 0.00655229 0)
(0.568058 0.00628439 0)
(0.564664 0.00576914 0)
(0.563059 0.00506214 0)
(0.562348 0.00426822 0)
(0.562049 0.00348428 0)
(0.561925 0.00277339 0)
(0.561867 0.00216365 0)
(0.56183 0.00166007 0)
(0.561798 0.0012565 0)
(0.561767 0.000941025 0)
(0.561739 0.000698915 0)
(0.561716 0.000515572 0)
(0.561697 0.000378163 0)
(0.561682 0.000276062 0)
(0.561672 0.000200671 0)
(0.561661 0.000145312 0)
(0.561658 0.000104873 0)
(0.56165 7.536e-05 0)
(0.561649 5.40405e-05 0)
(0.561645 3.85733e-05 0)
(0.561642 2.74028e-05 0)
(0.561643 1.96598e-05 0)
(0.56164 1.36759e-05 0)
(0.561641 1.00444e-05 0)
(0.56164 6.79437e-06 0)
(0.561639 5.42809e-06 0)
(0.561639 3.3234e-06 0)
)
;

boundaryField
{
    inlet
    {
        type            fixedValue;
        value           uniform (1 0 0);
    }
    outlet
    {
        type            zeroGradient;
    }
    upperWall
    {
        type            noSlip;
    }
    lowerWall
    {
        type            noSlip;
    }
    frontAndBack
    {
        type            empty;
    }
}


// ************************************************************************* //
