/*--------------------------------*- C++ -*----------------------------------*\
  =========                 |
  \\      /  F ield         | OpenFOAM: The Open Source CFD Toolbox
   \\    /   O peration     | Website:  https://openfoam.org
    \\  /    A nd           | Version:  10
     \\/     M anipulation  |
\*---------------------------------------------------------------------------*/
FoamFile
{
    format      ascii;
    class       surfaceScalarField;
    location    "0.775";
    object      phi;
}
// * * * * * * * * * * * * * * * * * * * * * * * * * * * * * * * * * * * * * //

dimensions      [0 3 -1 0 0 0 0];

internalField   nonuniform List<scalar> 
760
(
-1.1071e-05
1.1071e-05
-2.36796e-05
1.26087e-05
-3.5762e-05
1.20824e-05
-4.69219e-05
1.11599e-05
-5.68798e-05
9.95796e-06
-6.53958e-05
8.51597e-06
-7.22696e-05
6.87381e-06
-7.73424e-05
5.07281e-06
-8.04969e-05
3.15446e-06
-8.16569e-05
1.15998e-06
-8.07874e-05
-8.695e-07
-7.78955e-05
-2.89187e-06
-7.30318e-05
-4.86368e-06
-6.62927e-05
-6.73915e-06
-5.78225e-05
-8.47014e-06
-4.78156e-05
-1.0007e-05
-3.65154e-05
-1.13002e-05
-2.4215e-05
-1.23004e-05
-1.13361e-05
-1.28788e-05
-1.13361e-05
-1.31637e-05
2.42347e-05
-2.8014e-05
2.7459e-05
-4.22376e-05
2.6306e-05
-5.53679e-05
2.42902e-05
-6.70749e-05
2.16649e-05
-7.70776e-05
1.85187e-05
-8.51442e-05
1.49404e-05
-9.10917e-05
1.10204e-05
-9.47862e-05
6.8489e-06
-9.6141e-05
2.51484e-06
-9.51164e-05
-1.89415e-06
-9.17207e-05
-6.28757e-06
-8.60116e-05
-1.05727e-05
-7.80994e-05
-1.46514e-05
-6.81501e-05
-1.84194e-05
-5.63885e-05
-2.17685e-05
-4.30989e-05
-2.45897e-05
-2.86266e-05
-2.67728e-05
-1.34675e-05
-2.80379e-05
-2.48036e-05
-1.38876e-05
3.81223e-05
-2.95525e-05
4.31238e-05
-4.45395e-05
4.1293e-05
-5.83578e-05
3.81084e-05
-7.06623e-05
3.39694e-05
-8.11634e-05
2.90198e-05
-8.96247e-05
2.34017e-05
-9.58623e-05
1.7258e-05
-9.97424e-05
1.0729e-05
-0.000101178
3.95079e-06
-0.000100128
-2.94405e-06
-9.65987e-05
-9.81731e-06
-9.0642e-05
-1.65294e-05
-8.23643e-05
-2.29291e-05
-7.19292e-05
-2.88546e-05
-5.95632e-05
-3.41345e-05
-4.55592e-05
-3.85937e-05
-3.0279e-05
-4.2053e-05
-1.42482e-05
-4.40687e-05
-3.90518e-05
-1.48911e-05
5.30134e-05
-3.16807e-05
5.99135e-05
-4.77203e-05
5.73327e-05
-6.24809e-05
5.28689e-05
-7.55974e-05
4.7086e-05
-8.67702e-05
4.01926e-05
-9.57606e-05
3.2392e-05
-0.000102387
2.38842e-05
-0.000106518
1.48603e-05
-0.00010807
5.5023e-06
-0.000106998
-4.01573e-06
-0.000103303
-1.3512e-05
-9.70297e-05
-2.28029e-05
-8.82728e-05
-3.1686e-05
-7.7188e-05
-3.99394e-05
-6.39999e-05
-4.73227e-05
-4.90095e-05
-5.35841e-05
-3.26017e-05
-5.84608e-05
-1.5349e-05
-6.13214e-05
-5.44008e-05
-1.62987e-05
6.93121e-05
-3.46581e-05
7.82728e-05
-5.2159e-05
7.48336e-05
-6.8218e-05
6.89279e-05
-8.24435e-05
6.13115e-05
-9.45255e-05
5.22746e-05
-0.000104227
4.20931e-05
-0.000111372
3.10299e-05
-0.00011584
1.9328e-05
-0.00011755
7.21219e-06
-0.000116457
-5.10882e-06
-0.000112553
-1.74163e-05
-0.000105866
-2.94894e-05
-9.64743e-05
-4.10777e-05
-8.45159e-05
-5.18978e-05
-7.02065e-05
-6.1632e-05
-5.38544e-05
-6.99363e-05
-3.58738e-05
-7.64414e-05
-1.69045e-05
-8.02907e-05
-7.13053e-05
-1.81705e-05
8.74826e-05
-3.8607e-05
9.87093e-05
-5.80253e-05
9.42519e-05
-7.5769e-05
8.66716e-05
-9.14151e-05
7.69576e-05
-0.000104647
6.55062e-05
-0.000115236
5.26825e-05
-0.000123026
3.88202e-05
-0.000127913
2.42142e-05
-0.000129825
9.12501e-06
-0.000128719
-6.21472e-06
-0.000124574
-2.15617e-05
-0.000117394
-3.66694e-05
-0.000107225
-5.12468e-05
-9.41733e-05
-6.49496e-05
-7.84324e-05
-7.73729e-05
-6.03097e-05
-8.80589e-05
-4.02534e-05
-9.64978e-05
-1.89937e-05
-0.00010155
-9.0299e-05
-2.05901e-05
0.000108073
-4.36939e-05
0.000121813
-6.55449e-05
0.000116103
-8.53921e-05
0.000106519
-0.000102779
9.43449e-05
-0.000117394
8.01205e-05
-0.000129034
6.43225e-05
-0.000137578
4.73646e-05
-0.000142955
2.95907e-05
-0.000145115
1.12857e-05
-0.000144018
-7.31232e-06
-0.000139623
-2.59565e-05
-0.000131899
-4.43933e-05
-0.000120839
-6.23063e-05
-0.000106494
-7.92952e-05
-8.90082e-05
-9.48585e-05
-6.86714e-05
-0.000108396
-4.59627e-05
-0.000119207
-2.17298e-05
-0.000125783
-0.000112029
-2.368e-05
0.000131753
-5.01585e-05
0.000148292
-7.5035e-05
0.000140979
-9.74397e-05
0.000128924
-0.000116889
0.000113794
-0.000133097
9.63278e-05
-0.000145917
7.71427e-05
-0.000155294
5.67417e-05
-0.000161213
3.55101e-05
-0.000163664
1.37366e-05
-0.000162614
-8.36282e-06
-0.000157997
-3.0573e-05
-0.000149728
-5.26621e-05
-0.000137719
-7.43161e-05
-0.000121921
-9.50927e-05
-0.000102391
-0.000114388
-7.93619e-05
-0.000131425
-5.3328e-05
-0.000145241
-2.5283e-05
-0.000153828
-0.000137312
-2.76237e-05
0.000159376
-5.83501e-05
0.000179018
-8.6944e-05
0.000169573
-0.000112393
0.000154372
-0.000134206
0.000135608
-0.000152167
0.000114288
-0.000166236
9.12118e-05
-0.00017647
6.69756e-05
-0.000182948
4.19888e-05
-0.000185723
1.65114e-05
-0.000184783
-9.30361e-06
-0.000180027
-3.53286e-05
-0.000171292
-6.13973e-05
-0.000158364
-8.72441e-05
-0.000141039
-0.000112417
-0.000119212
-0.000136216
-9.2988e-05
-0.000157649
-6.28351e-05
-0.000175393
-2.99151e-05
-0.000186748
-0.000167227
-3.27036e-05
0.00019208
-6.87877e-05
0.000215102
-0.000101914
0.0002027
-0.00013091
0.000183369
-0.000155332
0.00016003
-0.000175108
0.000134065
-0.000190388
0.000106492
-0.000201411
7.79982e-05
-0.000208405
4.8983e-05
-0.000211519
1.96255e-05
-0.00021078
-1.00423e-05
-0.000206049
-4.00598e-05
-0.000197049
-7.03973e-05
-0.000183385
-0.000100908
-0.00016461
-0.000131192
-0.00014034
-0.000160486
-0.000110432
-0.000187557
-7.52232e-05
-0.000210602
-3.60429e-05
-0.000225929
-0.00020327
-3.93726e-05
0.000231453
-8.2262e-05
0.000257992
-0.000120879
0.000241317
-0.000153905
0.000216395
-0.000181051
0.000187176
-0.000202531
0.000155544
-0.000218807
0.000122767
-0.000230402
8.95938e-05
-0.000237771
5.63515e-05
-0.000241205
2.30597e-05
-0.000240795
-1.0452e-05
-0.000236363
-4.44922e-05
-0.000227486
-7.92746e-05
-0.000213508
-0.000114886
-0.000193619
-0.000151082
-0.000166987
-0.000187118
-0.000132999
-0.000221544
-9.16487e-05
-0.000251953
-4.43641e-05
-0.000273213
-0.000247634
-4.83939e-05
0.000279846
-0.000100011
0.000309609
-0.000145225
0.000286531
-0.000182649
0.000253818
-0.000212384
0.000216911
-0.000235157
0.000178318
-0.000251932
0.000139542
-0.000263657
0.000101319
-0.000271112
6.38065e-05
-0.000274793
2.67409e-05
-0.000274878
-1.03674e-05
-0.000271159
-4.82105e-05
-0.000263048
-8.73864e-05
-0.000249552
-0.000128382
-0.000229325
-0.000171309
-0.000200836
-0.000215606
-0.00016265
-0.00025973
-0.000113975
-0.000300627
-5.61227e-05
-0.000331066
-0.000303757
-6.11388e-05
0.000340985
-0.000124035
0.000372505
-0.000177038
0.000339534
-0.000218924
0.000295704
-0.000250648
0.000248635
-0.000273806
0.000201476
-0.000290145
0.000155881
-0.000301239
0.000112414
-0.00030829
7.08573e-05
-0.000312059
3.05097e-05
-0.000312838
-9.5877e-06
-0.000310421
-5.06284e-05
-0.000304046
-9.37614e-05
-0.000292341
-0.000140087
-0.000273275
-0.000190374
-0.000244224
-0.000244658
-0.000202369
-0.000301585
-0.000145307
-0.000357689
-7.37751e-05
-0.000402598
-0.000377532
-8.02987e-05
0.000421284
-0.00015766
0.000449866
-0.000219497
0.000401372
-0.000265225
0.000341431
-0.000297471
0.000280881
-0.000319305
0.00022331
-0.000333679
0.000170254
-0.000342959
0.000121693
-0.000348849
7.67477e-05
-0.000352416
3.40765e-05
-0.000354108
-7.89565e-06
-0.000353759
-5.09773e-05
-0.000350491
-9.70293e-05
-0.000342567
-0.000148011
-0.000327186
-0.000205756
-0.000300296
-0.000271547
-0.000256706
-0.000345175
-0.000190912
-0.000423483
-0.00010223
-0.00049128
-0.000479761
-0.000110942
0.000532225
-0.000206442
0.000545366
-0.000277432
0.000472362
-0.00032492
0.000388919
-0.000354714
0.000310675
-0.000372385
0.000240981
-0.000382453
0.000180323
-0.000388206
0.000127446
-0.000391858
8.03997e-05
-0.000394766
3.69845e-05
-0.000397558
-5.10361e-06
-0.000400189
-4.83465e-05
-0.000401806
-9.54122e-05
-0.00040048
-0.000149336
-0.000392738
-0.000213498
-0.000372919
-0.000291366
-0.000332515
-0.000385579
-0.000259816
-0.000496182
-0.000150808
-0.000600288
-0.000630569
-0.000165528
0.000697753
-0.000280683
0.000660521
-0.00035823
0.000549909
-0.000402243
0.000432932
-0.000424292
0.000332725
-0.00043334
0.000250029
-0.000435767
0.000182749
-0.000435713
0.000127392
-0.000435755
8.04413e-05
-0.000437379
3.86087e-05
-0.000441346
-1.13705e-06
-0.000447842
-4.18498e-05
-0.000456356
-8.68983e-05
-0.000465236
-0.000140456
-0.000470849
-0.000207885
-0.00046622
-0.000295996
-0.000439115
-0.000412683
-0.000366789
-0.000568508
-0.000240503
-0.000726575
-0.000871072
-0.000242845
0.000940598
-0.000386662
0.000804338
-0.000469805
0.000633052
-0.000501595
0.000464721
-0.000507101
0.000338231
-0.00050095
0.000243878
-0.00049137
0.000173169
-0.000482833
0.000118856
-0.000477681
7.52892e-05
-0.000477182
3.81091e-05
-0.000482172
3.85331e-06
-0.000493093
-3.09286e-05
-0.000510227
-6.97641e-05
-0.000533036
-0.000117647
-0.000559215
-0.000181706
-0.000581948
-0.000273263
-0.000588023
-0.000406608
-0.000531748
-0.000624783
-0.000407771
-0.000850552
-0.00127884
-0.000498919
0.00143952
-0.000600023
0.000905442
-0.000631722
0.000664751
-0.000621091
0.00045409
-0.000590985
0.000308125
-0.000558774
0.000211668
-0.000531158
0.000145552
-0.000510626
9.83234e-05
-0.000498139
6.2803e-05
-0.000494138
3.41081e-05
-0.0004988
8.51463e-06
-0.000513579
-1.61496e-05
-0.000539619
-4.37239e-05
-0.000578772
-7.84939e-05
-0.000633188
-0.00012729
-0.00070059
-0.000205861
-0.000774285
-0.000332913
-0.000784623
-0.000614446
-0.000682332
-0.000952842
-0.00196118
-0.000713231
0.00215275
-0.000688545
0.000880756
-0.000600389
0.000576596
-0.000489047
0.000342748
-0.00038473
0.000203808
-0.000303179
0.000130117
-0.000243623
8.59967e-05
-0.000202338
5.70379e-05
-0.000176325
3.679e-05
-0.000163641
2.14238e-05
-0.000163542
8.41634e-06
-0.000175683
-4.00887e-06
-0.000201653
-1.77544e-05
-0.0002429
-3.72465e-05
-0.000301202
-6.89879e-05
-0.000374344
-0.000132719
-0.000454624
-0.000252633
-0.000523855
-0.000545216
-0.000476944
-0.000999753
-0.00243812
0.00215275
0.0030335
0.0036101
0.00395285
0.00415666
0.00428677
0.00437277
0.00442981
0.0044666
0.00448802
0.00449644
0.00449243
0.00447467
0.00443743
0.00436844
0.00423572
0.00398309
0.00343787
0.00243812
)
;

boundaryField
{
    movingWall
    {
        type            calculated;
        value           uniform 0;
    }
    fixedWalls
    {
        type            calculated;
        value           uniform 0;
    }
    frontAndBack
    {
        type            empty;
        value           nonuniform List<scalar> 0();
    }
}


// ************************************************************************* //
