/*--------------------------------*- C++ -*----------------------------------*\
  =========                 |
  \\      /  F ield         | OpenFOAM: The Open Source CFD Toolbox
   \\    /   O peration     | Website:  https://openfoam.org
    \\  /    A nd           | Version:  10
     \\/     M anipulation  |
\*---------------------------------------------------------------------------*/
FoamFile
{
    format      ascii;
    class       surfaceScalarField;
    location    "4.825";
    object      phi;
}
// * * * * * * * * * * * * * * * * * * * * * * * * * * * * * * * * * * * * * //

dimensions      [0 3 -1 0 0 0 0];

internalField   nonuniform List<scalar> 
890
(
0.00984387
0.000156129
0.00972259
0.000121286
0.00946548
0.000257106
0.00941094
5.4543e-05
0.000142282
0.00926865
0.010121
3.5119e-05
0.010204
3.83411e-05
0.0104064
5.4665e-05
0.0104642
-3.29195e-06
-7.64369e-05
0.0106829
0.0100734
-3.82365e-05
0.0102123
-0.00010056
0.0103785
-0.000111536
0.0105245
-0.000149289
-0.000191738
0.0106398
0.0100914
-0.000129644
0.0102082
-0.000217355
0.0103334
-0.000236729
0.0104212
-0.000237118
-0.000250596
0.0104801
0.00987036
0.009653
0.00941627
0.00917915
0.00892856
0.00926561
-8.5939e-05
8.89879e-05
0.00928594
-0.000261453
0.000241119
0.00939318
-0.000357676
0.000250438
0.00958583
-0.000450993
0.000258342
0.00982647
-0.000612149
0.000371505
0.0100823
-0.000841616
0.00058577
0.0103305
-0.00114915
0.000900958
0.0105574
-0.00151727
0.00129041
0.0107462
-0.00190914
0.00172028
0.0108463
-0.00228296
0.00218294
0.010879
-0.00260926
0.00257649
0.0108371
-0.00282873
0.00287064
0.0106708
-0.00293101
0.00309735
0.0104026
-0.00285539
0.00312354
0.0100685
-0.00264393
0.00297805
0.00967953
-0.00238652
0.0027755
0.00923752
-0.00197968
0.00242169
0.00874148
-0.00146225
0.00195828
0.00824532
-0.00100269
0.00149884
0.00776712
-0.000544888
0.0010231
0.00725743
-7.2394e-06
0.000516929
0.0067442
0.000436298
7.69249e-05
0.00628663
0.000695857
-0.000238282
0.00595162
0.000759469
-0.000424459
0.00577689
0.000762123
-0.000587397
0.00574696
0.000799875
-0.000769938
0.00581371
0.000865648
-0.0009324
0.00591971
0.000901883
-0.00100789
0.00602101
0.000869572
-0.000970865
0.00609574
0.000770759
-0.000845493
0.00614084
0.000631789
-0.000676886
0.00616313
0.000482599
-0.00050489
0.00617163
0.000345384
-0.000353886
0.00617346
0.000232005
-0.000233838
0.00617288
0.000145867
-0.000145287
0.00617189
8.49541e-05
-8.39583e-05
0.00617113
4.47029e-05
-4.39469e-05
0.00617073
1.97855e-05
-1.93845e-05
0.00617062
5.58077e-06
-5.47432e-06
0.00617052
-1.76555e-06
1.86857e-06
0.0061704
-4.79306e-06
4.91366e-06
0.00617024
-5.74763e-06
5.90447e-06
0.00617007
-5.0822e-06
5.2559e-06
0.00616988
-4.62657e-06
4.81663e-06
-3.03038e-06
3.15668e-06
0.0107536
-0.000156578
0.010783
-0.000290884
0.0108344
-0.000409096
0.0109299
-0.00054643
0.0110076
-0.000689875
0.0110608
-0.000894788
0.0110629
-0.00115124
0.0109988
-0.00145325
0.010874
-0.0017843
0.0106552
-0.00206413
0.0103919
-0.00234598
0.0100619
-0.00249868
0.0096039
-0.00247306
0.00907668
-0.00232817
0.00851611
-0.00208336
0.00790748
-0.00177789
0.00728238
-0.00135458
0.00666229
-0.000842152
0.00604558
-0.000385984
0.00543299
6.77052e-05
0.00488295
0.000542805
0.00445533
0.000863915
0.00422463
0.000926551
0.00416947
0.000814639
0.00424627
0.000685316
0.00442116
0.000624987
0.00466174
0.000625068
0.00493091
0.000632709
0.0051937
0.000606783
0.00542592
0.000538541
0.00561679
0.000440917
0.00576551
0.000333879
0.00587656
0.000234341
0.00595642
0.000152144
0.00601185
9.04307e-05
0.00604896
4.78496e-05
0.00607284
2.08257e-05
0.0060875
5.11867e-06
0.00609611
-3.03154e-06
0.00610088
-6.52678e-06
0.00610326
-7.18181e-06
0.00610428
-6.76395e-06
0.00610459
-5.3929e-06
0.00610452
-4.55295e-06
-2.8348e-06
0.0107398
-0.000256597
0.0107818
-0.000332957
0.0108107
-0.000437948
0.0108227
-0.000558394
0.0108036
-0.000670778
0.0107542
-0.000845409
0.0106238
-0.00102085
0.0104367
-0.00126619
0.0101826
-0.00153021
0.00988019
-0.00176168
0.00953859
-0.00200439
0.00900819
-0.00196828
0.00836906
-0.00183393
0.00772276
-0.00168186
0.00696365
-0.00132425
0.0061267
-0.00094094
0.0053552
-0.000583076
0.00470168
-0.000188631
0.00414728
0.000168409
0.00371536
0.000499627
0.00349044
0.000767723
0.00348286
0.000871499
0.00361002
0.000799391
0.0037804
0.000644261
0.00395705
0.000508659
0.00414951
0.000432536
0.00437237
0.000402201
0.00462088
0.000384196
0.00487432
0.000353352
0.00510998
0.000302881
0.00531193
0.00023896
0.00547317
0.00017264
0.00559398
0.000113531
0.00567926
6.68653e-05
0.00573598
3.3706e-05
0.00577141
1.24276e-05
0.005792
2.33899e-07
0.00580293
-5.81531e-06
0.00580789
-7.98783e-06
0.00580942
-8.06304e-06
0.00580924
-6.99914e-06
0.00580823
-5.75318e-06
0.00580709
-4.25338e-06
0.0058059
-3.36088e-06
-2.00766e-06
0.0105134
-0.000289944
0.0104963
-0.000315807
0.0104417
-0.000383377
0.0103147
-0.000431355
0.0101479
-0.000503999
0.00989691
-0.000594425
0.00955456
-0.000678512
0.0091305
-0.00084212
0.00855032
-0.000950029
0.0079406
-0.00115196
0.00725234
-0.00131613
0.00635244
-0.00106838
0.00520138
-0.000682872
0.00389278
-0.00037327
0.00273693
-0.000168395
0.00187447
-7.84815e-05
0.00133308
-4.16924e-05
0.00109532
4.91299e-05
0.00109037
0.000173358
0.00128384
0.000306156
0.00164774
0.00040383
0.00209854
0.000420696
0.00252724
0.000370694
0.00287909
0.000292405
0.0031611
0.000226647
0.00340702
0.000186618
0.00364415
0.000165071
0.00387948
0.000148865
0.00410385
0.000128989
0.00430297
0.000103758
0.00446616
7.5773e-05
0.00458971
4.90847e-05
0.00467596
2.72878e-05
0.0047312
1.16207e-05
0.0047633
1.60533e-06
0.00477929
-3.5578e-06
0.00478531
-5.79246e-06
0.00478572
-6.21886e-06
0.00478342
-5.68589e-06
0.00478012
-4.76661e-06
0.00477684
-3.72408e-06
0.00477391
-2.82061e-06
0.00477165
-1.98782e-06
0.00476976
-1.47716e-06
-8.38649e-07
0.00863861
0.00832281
0.00793943
0.00750808
0.00700408
0.00640965
0.00573114
0.00488902
0.00393899
0.00278703
0.0014709
0.000402529
-0.000280343
-0.000653613
-0.000822009
-0.00090049
-0.000942183
-0.000893053
-0.000719695
-0.000413539
-9.70864e-06
0.000410988
0.000781682
0.00107409
0.00130073
0.00148735
0.00165242
0.00180129
0.00193028
0.00203403
0.00210981
0.00215889
0.00218618
0.0021978
0.00219941
0.00219585
0.00219006
0.00218384
0.00217815
0.00217338
0.00216966
0.00216684
0.00216485
0.00216337
2.02752e-05
-2.02752e-05
-0.000117382
0.000137658
-0.000593731
0.000476349
-0.00140912
0.000815386
-0.00233069
0.000921574
-0.00314385
0.000813163
-0.00375475
0.000610891
-0.00413707
0.000382324
-0.00426512
0.000128052
-0.00415321
-0.000111908
-0.00382301
-0.000330206
-0.00329289
-0.000530115
-0.00260079
-0.000692102
-0.00180264
-0.000798155
-0.00094927
-0.000853365
-7.77128e-05
-0.000871557
0.000775016
-0.000852728
0.00157569
-0.000800675
0.00229659
-0.000720898
0.00289189
-0.000595301
0.00332413
-0.000432243
0.00356288
-0.000238751
0.00358282
-1.99326e-05
0.00341132
0.000171501
0.00310981
0.000301506
0.00277492
0.000334894
0.00248533
0.000289586
0.00227555
0.000209782
0.00214505
0.000130497
0.00207732
6.77325e-05
0.00205227
2.50499e-05
0.00205263
-3.65327e-07
0.00206473
-1.20997e-05
0.00208125
-1.65134e-05
0.00209783
-1.65812e-05
0.00211254
-1.47102e-05
0.00212475
-1.22085e-05
0.00213446
-9.71419e-06
0.00214193
-7.47029e-06
0.00214754
-5.60942e-06
0.00215163
-4.09136e-06
0.0021546
-2.96455e-06
0.00215663
-2.03278e-06
0.00215812
-1.486e-06
-8.40252e-07
-0.000333978
0.000313702
-0.000935757
0.000739437
-0.00154524
0.00108584
-0.00204341
0.00131355
-0.00244055
0.00131872
-0.0027155
0.00108811
-0.00283873
0.000734119
-0.0028016
0.000345196
-0.0026014
-7.21477e-05
-0.00224686
-0.000466447
-0.00172303
-0.000854036
-0.00104865
-0.0012045
-0.000255249
-0.0014855
0.000593414
-0.00164682
0.00146555
-0.0017255
0.00233114
-0.00173715
0.00314274
-0.00166432
0.00387666
-0.0015346
0.00452188
-0.00136612
0.00505814
-0.00113156
0.00547309
-0.00084719
0.00580091
-0.000566573
0.00607247
-0.000291493
0.00623431
9.66165e-06
0.00622694
0.000308878
0.00604365
0.000518184
0.00575006
0.000583173
0.00543714
0.000522704
0.00517125
0.000396386
0.00497804
0.000260935
0.0048535
0.000149597
0.00478112
7.20095e-05
0.00474437
2.46565e-05
0.00472911
-1.26025e-06
0.0047254
-1.28716e-05
0.00472777
-1.70781e-05
0.00473283
-1.72728e-05
0.0047387
-1.55788e-05
0.00474432
-1.3096e-05
0.00474929
-1.05716e-05
0.00475336
-8.16237e-06
0.00475665
-6.25647e-06
0.00475907
-4.45005e-06
0.00476101
-3.43081e-06
-2.02892e-06
-0.000455652
0.000769354
-0.000566701
0.000850486
-0.00051098
0.00103011
-0.000379482
0.00118206
-0.000201365
0.0011406
1.45325e-05
0.000872212
0.000271051
0.0004776
0.000578413
3.78337e-05
0.000986309
-0.000480044
0.00150786
-0.000988002
0.002105
-0.00145117
0.0027674
-0.0018669
0.00347814
-0.00219625
0.00418098
-0.00234966
0.00485271
-0.00239722
0.00549486
-0.00237931
0.00605651
-0.00222597
0.00649743
-0.00197552
0.00683352
-0.00170221
0.00707429
-0.00137232
0.00720145
-0.000974349
0.00723598
-0.0006011
0.00725159
-0.000307102
0.00729959
-3.83377e-05
0.00732761
0.000280853
0.00727035
0.000575448
0.00710226
0.000751264
0.00685653
0.000768434
0.00659029
0.00066262
0.00635073
0.000500495
0.00616092
0.000339408
0.00602343
0.000209499
0.00593023
0.000117854
0.00587001
5.89654e-05
0.00583326
2.38791e-05
0.0058118
4.38497e-06
0.00580038
-5.85841e-06
0.00579507
-1.02631e-05
0.00579324
-1.12738e-05
0.00579335
-1.06827e-05
0.00579434
-9.15261e-06
0.00579571
-7.62127e-06
0.00579699
-5.72619e-06
0.00579822
-4.66069e-06
-2.85775e-06
-0.000103671
0.000873026
0.000219033
0.000527781
0.000691749
0.000557398
0.00126992
0.000603883
0.00189315
0.000517371
0.00250261
0.000262758
0.00309942
-0.000119218
0.00369697
-0.000559709
0.00427959
-0.00106266
0.004885
-0.00159341
0.00548638
-0.00205255
0.00606285
-0.00244337
0.00663423
-0.00276763
0.00717035
-0.00288578
0.00761755
-0.00284442
0.00798429
-0.00274604
0.00826349
-0.00250517
0.00842851
-0.00214054
0.00848322
-0.00175692
0.00845635
-0.00134546
0.00836096
-0.00087895
0.00819504
-0.000435181
0.00799604
-0.000108108
0.00782099
0.000136716
0.00771152
0.000390324
0.00762653
0.00066044
0.00750903
0.000868765
0.0073338
0.000943663
0.0071148
0.000881614
0.00688423
0.000731071
0.00667211
0.000551522
0.00649627
0.000385345
0.00636186
0.000252261
0.00626557
0.000155252
0.00620029
8.91561e-05
0.00615823
4.64507e-05
0.00613211
2.02566e-05
0.00611669
5.15816e-06
0.00610806
-2.6377e-06
0.00610357
-6.20028e-06
0.00610149
-7.073e-06
0.00610074
-6.87119e-06
0.00610063
-5.61027e-06
0.00610084
-4.87542e-06
-3.12085e-06
0.000962013
0.00173091
0.00253875
0.00340098
0.00428985
0.00513838
0.00592012
0.00665082
0.00730843
0.00789796
0.00842189
0.00884917
0.0091789
0.00941665
0.00955027
0.00957974
0.00949626
0.00931399
0.00905592
0.00873355
0.00837153
0.00801328
0.00766689
0.00737914
0.00718207
0.00707257
0.00700894
0.00694471
0.00685546
0.00674104
0.00661567
0.00649613
0.00639451
0.00631592
0.00625979
0.00622228
0.00619859
0.00618436
0.00617625
0.00617192
0.00616976
0.00616879
0.00616844
0.00616838
)
;

boundaryField
{
    inlet
    {
        type            calculated;
        value           nonuniform List<scalar> 5(-0.01 -0.01 -0.01 -0.01 -0.01);
    }
    outlet
    {
        type            calculated;
        value           nonuniform List<scalar> 10(0.00616975 0.00610432 0.00580507 0.00476859 0.00216254 0.00215896 0.0047622 0.00579904 0.00610111 0.00616842);
    }
    upperWall
    {
        type            calculated;
        value           uniform 0;
    }
    lowerWall
    {
        type            calculated;
        value           uniform 0;
    }
    frontAndBack
    {
        type            empty;
        value           nonuniform List<scalar> 0();
    }
}


// ************************************************************************* //
