/*--------------------------------*- C++ -*----------------------------------*\
  =========                 |
  \\      /  F ield         | OpenFOAM: The Open Source CFD Toolbox
   \\    /   O peration     | Website:  https://openfoam.org
    \\  /    A nd           | Version:  10
     \\/     M anipulation  |
\*---------------------------------------------------------------------------*/
FoamFile
{
    format      ascii;
    class       volScalarField;
    location    "0.5";
    object      p;
}
// * * * * * * * * * * * * * * * * * * * * * * * * * * * * * * * * * * * * * //

dimensions      [0 2 -2 0 0 0 0];

internalField   nonuniform List<scalar> 
475
(
0.00398768
-0.0163053
-0.0774475
-0.108711
-0.166723
-0.00859886
-0.0317678
-0.0543996
-0.0752642
-0.0743314
-0.00364243
-0.0121517
-0.0349212
-0.0508747
-0.0426811
0.00613828
-0.00749619
-0.0268955
-0.0332683
-0.0223342
0.0371891
0.00895491
-0.0155902
-0.0211787
-0.0102535
-0.214575
-0.174754
-0.0755308
0.0304074
0.109762
0.137893
0.138226
0.132062
0.126349
0.121847
0.118073
0.114608
0.111249
0.107915
0.104577
0.101224
0.0978564
0.0944734
0.0910777
0.0876719
0.0842581
0.0808379
0.0774123
0.0739823
0.0705491
0.0671136
0.0636764
0.0602381
0.0567986
0.0533583
0.0499171
0.0464754
0.0430334
0.0395912
0.0361489
0.0327065
0.0292641
0.0258214
0.0223787
0.0189357
0.0154928
0.0120501
0.00860606
0.00516316
0.00172158
-0.0693109
-0.0425793
-0.0092295
0.0277138
0.059602
0.085539
0.10257
0.111534
0.115062
0.115427
0.114128
0.111987
0.109405
0.106571
0.103578
0.100475
0.0972908
0.0940457
0.0907541
0.0874271
0.084073
0.080698
0.0773067
0.0739027
0.0704891
0.0670685
0.0636425
0.0602126
0.0567796
0.053344
0.0499064
0.0464673
0.0430273
0.0395866
0.0361455
0.032704
0.0292623
0.02582
0.0223777
0.0189349
0.0154922
0.0120497
0.00860581
0.00516308
0.00172159
-0.0405196
-0.0368054
0.00579842
0.0530703
0.0859827
0.101687
0.108772
0.111844
0.112809
0.112587
0.111561
0.109919
0.107813
0.105366
0.102671
0.0997929
0.0967777
0.0936594
0.0904632
0.087208
0.083908
0.0805737
0.077213
0.0738322
0.0704362
0.0670288
0.0636129
0.0601904
0.0567628
0.0533313
0.0498969
0.0464602
0.043022
0.0395828
0.0361427
0.0327019
0.0292607
0.0258188
0.0223768
0.0189342
0.0154917
0.0120494
0.00860565
0.00516306
0.0017216
-0.00730328
0.0124924
0.0343385
0.0559283
0.0739913
0.0873843
0.097135
0.10368
0.107395
0.108932
0.108993
0.108064
0.106453
0.104362
0.101925
0.0992367
0.0963622
0.0933486
0.0902305
0.0870337
0.0837772
0.0804755
0.0771393
0.073777
0.070395
0.066998
0.0635899
0.0601731
0.0567498
0.0533216
0.0498896
0.0464548
0.0430181
0.0395798
0.0361405
0.0327003
0.0292594
0.0258179
0.0223762
0.0189338
0.0154914
0.0120492
0.00860554
0.00516304
0.00172158
0.00216367
0.0120201
0.0285941
0.0506077
0.0698781
0.0841207
0.0939415
0.100595
0.104649
0.106682
0.107238
0.106731
0.105455
0.103619
0.101375
0.0988288
0.0960597
0.0931241
0.0900638
0.0869098
0.0836851
0.0804069
0.0770883
0.0737391
0.0703668
0.0669771
0.0635743
0.0601615
0.0567412
0.0533152
0.0498849
0.0464514
0.0430155
0.0395779
0.0361391
0.0326992
0.0292586
0.0258173
0.0223757
0.0189335
0.0154912
0.012049
0.00860558
0.00516306
0.00172145
-0.0139674
0.0107152
0.0466679
0.0869111
0.114585
0.130273
0.1369
0.137742
0.135347
0.131362
0.126729
0.121938
0.117221
0.112669
0.108305
0.104118
0.100086
0.096182
0.0923817
0.0886633
0.0850094
0.0814059
0.0778412
0.074306
0.070793
0.0672969
0.0638138
0.0603407
0.0568754
0.0534159
0.0499604
0.046508
0.0430578
0.0396094
0.0361623
0.0327164
0.0292713
0.0258267
0.0223826
0.0189386
0.0154949
0.0120516
0.0086072
0.00516367
0.00172152
-0.0247026
-0.00103116
0.0363203
0.0826579
0.112919
0.129439
0.136042
0.136665
0.134149
0.130182
0.125663
0.12103
0.116476
0.112074
0.107839
0.103758
0.0998101
0.0959726
0.0922232
0.0885437
0.0849196
0.0813388
0.0777911
0.0742686
0.070765
0.0672759
0.0637981
0.0603292
0.0568669
0.0534096
0.0499558
0.0465045
0.0430552
0.0396074
0.0361608
0.0327153
0.0292705
0.0258261
0.0223823
0.0189383
0.0154947
0.0120515
0.00860696
0.00516354
0.00172161
-0.104289
-0.0652936
0.00268187
0.0718764
0.11079
0.129634
0.136049
0.135984
0.132999
0.128865
0.124385
0.119894
0.11552
0.111296
0.107219
0.103272
0.0994342
0.0956835
0.0920021
0.0883757
0.0847924
0.0812428
0.0777188
0.074214
0.0707239
0.0672451
0.0637751
0.060312
0.0568542
0.0534001
0.0499486
0.0464991
0.0430511
0.0396043
0.0361586
0.0327137
0.0292693
0.0258253
0.0223816
0.0189378
0.0154943
0.0120512
0.00860678
0.00516346
0.00172161
-0.165808
-0.129875
-0.0429505
0.0529894
0.10752
0.129866
0.135963
0.135008
0.131462
0.127155
0.122752
0.11846
0.114319
0.110321
0.106445
0.102666
0.0989633
0.0953205
0.091724
0.0881636
0.0846314
0.0811209
0.0776265
0.0741442
0.0706712
0.0672054
0.0637454
0.0602899
0.0568376
0.0533876
0.0499392
0.046492
0.0430457
0.0396004
0.0361557
0.0327116
0.0292678
0.0258241
0.0223808
0.0189372
0.0154939
0.0120509
0.00860655
0.00516337
0.00172162
-0.343063
-0.201462
-0.095716
0.0278946
0.103183
0.128503
0.133724
0.132234
0.128669
0.124611
0.120572
0.116661
0.112872
0.109176
0.105548
0.10197
0.0984265
0.0949083
0.0914087
0.0879233
0.0844489
0.0809825
0.0775217
0.074065
0.0706114
0.0671604
0.0637116
0.0602645
0.0568186
0.0533733
0.0499284
0.0464838
0.0430396
0.0395958
0.0361524
0.0327091
0.029266
0.0258228
0.0223798
0.0189364
0.0154933
0.0120505
0.00860628
0.00516327
0.00172162
)
;

boundaryField
{
    inlet
    {
        type            zeroGradient;
    }
    outlet
    {
        type            fixedValue;
        value           uniform 0;
    }
    upperWall
    {
        type            zeroGradient;
    }
    lowerWall
    {
        type            zeroGradient;
    }
    frontAndBack
    {
        type            empty;
    }
}


// ************************************************************************* //
