/*--------------------------------*- C++ -*----------------------------------*\
  =========                 |
  \\      /  F ield         | OpenFOAM: The Open Source CFD Toolbox
   \\    /   O peration     | Website:  https://openfoam.org
    \\  /    A nd           | Version:  10
     \\/     M anipulation  |
\*---------------------------------------------------------------------------*/
FoamFile
{
    format      ascii;
    class       volVectorField;
    location    "0.5";
    object      U;
}
// * * * * * * * * * * * * * * * * * * * * * * * * * * * * * * * * * * * * * //

dimensions      [0 1 -1 0 0 0 0];

internalField   nonuniform List<vector> 
475
(
(0.947162 0.0329598 0)
(1.01774 -0.0546097 0)
(0.924463 0.0935935 0)
(1.04994 -0.0991969 0)
(1.00202 0.0149044 0)
(1.0181 -0.0068981 0)
(0.984623 0.0222517 0)
(1.0471 -0.00595499 0)
(1.05716 -0.0757941 0)
(1.03458 -0.0355178 0)
(1.00327 0.00503881 0)
(0.987777 -0.0271014 0)
(1.03792 -0.0218497 0)
(1.04773 -0.0471793 0)
(1.02213 -0.0969271 0)
(1.00327 -0.0138923 0)
(0.996383 -0.0249258 0)
(1.02599 -0.0334087 0)
(1.03652 -0.058756 0)
(1.00287 -0.059534 0)
(0.981791 -0.00942742 0)
(0.957197 -0.0214662 0)
(0.958096 -0.0267335 0)
(0.920424 -0.0300836 0)
(0.853567 -0.0345118 0)
(1.06386 -0.209903 0)
(1.17595 -0.341274 0)
(1.17941 -0.378951 0)
(1.04246 -0.334739 0)
(0.85557 -0.254975 0)
(0.71579 -0.181797 0)
(0.628818 -0.129761 0)
(0.578682 -0.0946198 0)
(0.551632 -0.0696398 0)
(0.537434 -0.051165 0)
(0.529874 -0.0374131 0)
(0.525671 -0.0272437 0)
(0.523198 -0.0197803 0)
(0.521665 -0.0143335 0)
(0.520674 -0.0103731 0)
(0.520015 -0.00750004 0)
(0.519568 -0.00541886 0)
(0.51926 -0.00391302 0)
(0.519047 -0.0028245 0)
(0.518898 -0.00203817 0)
(0.518792 -0.00147033 0)
(0.518716 -0.00106029 0)
(0.518663 -0.00076425 0)
(0.518625 -0.000550644 0)
(0.518598 -0.000396674 0)
(0.518579 -0.000285803 0)
(0.518565 -0.00020599 0)
(0.518554 -0.000148478 0)
(0.518547 -0.000106964 0)
(0.518541 -7.69694e-05 0)
(0.518538 -5.53216e-05 0)
(0.518535 -3.9737e-05 0)
(0.518534 -2.85422e-05 0)
(0.518532 -2.05315e-05 0)
(0.518531 -1.47944e-05 0)
(0.51853 -1.06803e-05 0)
(0.51853 -7.72455e-06 0)
(0.518529 -5.60221e-06 0)
(0.51853 -4.09607e-06 0)
(0.518526 -3.02065e-06 0)
(0.518534 -2.30753e-06 0)
(0.518522 -1.83989e-06 0)
(0.518535 -1.45342e-06 0)
(0.51853 -1.59815e-06 0)
(0.518529 -1.59043e-06 0)
(1.07285 -0.186932 0)
(0.927042 -0.392975 0)
(0.720446 -0.369779 0)
(0.61888 -0.218187 0)
(0.587507 -0.118635 0)
(0.576717 -0.0845302 0)
(0.569824 -0.0733644 0)
(0.562289 -0.0635907 0)
(0.553865 -0.0520853 0)
(0.545629 -0.0406744 0)
(0.538574 -0.0308143 0)
(0.533064 -0.0229336 0)
(0.528975 -0.016891 0)
(0.526013 -0.0123608 0)
(0.523887 -0.00900842 0)
(0.522366 -0.00654696 0)
(0.521278 -0.00474844 0)
(0.520502 -0.00343857 0)
(0.519947 -0.002487 0)
(0.519548 -0.00179717 0)
(0.519261 -0.00129792 0)
(0.519054 -0.000936915 0)
(0.518905 -0.000675947 0)
(0.518799 -0.00048732 0)
(0.518723 -0.000351068 0)
(0.518668 -0.000252793 0)
(0.518628 -0.000182045 0)
(0.518599 -0.000131195 0)
(0.518578 -9.46398e-05 0)
(0.518562 -6.82818e-05 0)
(0.518552 -4.91883e-05 0)
(0.518545 -3.53184e-05 0)
(0.51854 -2.52671e-05 0)
(0.518536 -1.80253e-05 0)
(0.518533 -1.28689e-05 0)
(0.51853 -9.24267e-06 0)
(0.518529 -6.7134e-06 0)
(0.518527 -4.94056e-06 0)
(0.518528 -3.6815e-06 0)
(0.518523 -2.74991e-06 0)
(0.518531 -2.1096e-06 0)
(0.518519 -1.65564e-06 0)
(0.518532 -1.32109e-06 0)
(0.518527 -1.44426e-06 0)
(0.518525 -1.60409e-06 0)
(1.02952 -0.114927 0)
(0.991423 -0.0976701 0)
(0.868627 -0.126154 0)
(0.75341 -0.158655 0)
(0.690199 -0.148982 0)
(0.653698 -0.115526 0)
(0.622039 -0.0827183 0)
(0.594784 -0.0586936 0)
(0.57382 -0.0424078 0)
(0.558472 -0.0311452 0)
(0.547365 -0.0230271 0)
(0.53934 -0.0170226 0)
(0.533537 -0.0125446 0)
(0.529336 -0.00920907 0)
(0.526296 -0.00673603 0)
(0.524096 -0.00491152 0)
(0.522507 -0.00357143 0)
(0.521359 -0.00259122 0)
(0.520531 -0.00187703 0)
(0.519933 -0.00135826 0)
(0.5195 -0.000982043 0)
(0.519188 -0.000709299 0)
(0.518964 -0.000511617 0)
(0.518802 -0.000368558 0)
(0.518685 -0.000265355 0)
(0.518601 -0.000191162 0)
(0.51854 -0.000137904 0)
(0.518496 -9.9586e-05 0)
(0.518464 -7.18631e-05 0)
(0.518441 -5.16935e-05 0)
(0.518425 -3.70107e-05 0)
(0.518414 -2.64056e-05 0)
(0.518406 -1.88531e-05 0)
(0.518399 -1.35372e-05 0)
(0.518395 -9.80839e-06 0)
(0.518391 -7.16693e-06 0)
(0.518389 -5.24287e-06 0)
(0.518386 -3.81412e-06 0)
(0.518387 -2.72357e-06 0)
(0.518382 -1.96288e-06 0)
(0.51839 -1.44999e-06 0)
(0.518378 -1.17184e-06 0)
(0.518391 -1.00775e-06 0)
(0.518385 -1.24709e-06 0)
(0.518383 -1.44324e-06 0)
(0.953611 -0.0795523 0)
(0.908055 -0.124975 0)
(0.850756 -0.126911 0)
(0.776008 -0.0936314 0)
(0.707812 -0.0613751 0)
(0.657029 -0.0436869 0)
(0.620223 -0.0340588 0)
(0.593108 -0.0270893 0)
(0.572934 -0.0212786 0)
(0.557762 -0.0164222 0)
(0.546323 -0.0124789 0)
(0.537764 -0.00936936 0)
(0.531416 -0.0069715 0)
(0.526739 -0.00515125 0)
(0.523309 -0.00378507 0)
(0.520805 -0.00276853 0)
(0.518981 -0.00201747 0)
(0.517657 -0.0014659 0)
(0.516697 -0.00106283 0)
(0.516002 -0.000769286 0)
(0.515498 -0.00055595 0)
(0.515134 -0.000401134 0)
(0.514872 -0.000289007 0)
(0.514683 -0.000208032 0)
(0.514546 -0.000149728 0)
(0.514448 -0.000107812 0)
(0.514376 -7.76505e-05 0)
(0.514325 -5.58803e-05 0)
(0.514288 -4.01206e-05 0)
(0.514261 -2.87211e-05 0)
(0.514242 -2.0529e-05 0)
(0.514229 -1.46932e-05 0)
(0.514219 -1.0551e-05 0)
(0.514212 -7.60424e-06 0)
(0.514207 -5.49129e-06 0)
(0.514203 -3.96612e-06 0)
(0.5142 -2.81878e-06 0)
(0.514197 -2.04067e-06 0)
(0.514198 -1.37791e-06 0)
(0.514193 -1.14117e-06 0)
(0.5142 -7.82639e-07 0)
(0.514188 -6.72306e-07 0)
(0.514201 -8.14327e-07 0)
(0.514195 -7.84075e-07 0)
(0.514193 -1.11467e-06 0)
(0.803246 -0.0315663 0)
(0.753589 -0.0219479 0)
(0.685327 -0.0192284 0)
(0.61839 -0.0190985 0)
(0.569244 -0.0170169 0)
(0.535164 -0.0138566 0)
(0.50986 -0.0106161 0)
(0.490293 -0.00789762 0)
(0.475281 -0.00586774 0)
(0.463853 -0.00439538 0)
(0.45519 -0.00330187 0)
(0.448666 -0.00247346 0)
(0.44379 -0.00184318 0)
(0.440173 -0.00136537 0)
(0.437505 -0.00100557 0)
(0.435548 -0.000736666 0)
(0.434119 -0.000537177 0)
(0.433079 -0.000390208 0)
(0.432324 -0.000282591 0)
(0.431778 -0.000204166 0)
(0.431383 -0.000147204 0)
(0.431098 -0.000105927 0)
(0.430893 -7.60841e-05 0)
(0.430745 -5.45687e-05 0)
(0.43064 -3.91093e-05 0)
(0.430563 -2.80309e-05 0)
(0.430508 -2.00948e-05 0)
(0.430469 -1.4396e-05 0)
(0.430441 -1.02896e-05 0)
(0.43042 -7.32769e-06 0)
(0.430406 -5.20077e-06 0)
(0.430396 -3.68784e-06 0)
(0.430389 -2.62194e-06 0)
(0.430383 -1.88595e-06 0)
(0.430379 -1.37246e-06 0)
(0.430376 -9.99129e-07 0)
(0.430374 -6.98238e-07 0)
(0.430372 -5.26289e-07 0)
(0.430373 -3.12285e-07 0)
(0.430369 -3.26972e-07 0)
(0.430375 -1.33058e-07 0)
(0.430365 -1.2423e-07 0)
(0.430376 -3.16507e-07 0)
(0.430371 -2.46818e-07 0)
(0.430368 -5.42715e-07 0)
(-0.0276486 -0.0176789 0)
(-0.012763 -0.0261209 0)
(0.0601407 -0.0301523 0)
(0.126036 -0.0338939 0)
(0.196559 -0.0312612 0)
(0.257756 -0.0256112 0)
(0.305954 -0.0195547 0)
(0.341939 -0.0143018 0)
(0.36795 -0.0101979 0)
(0.386411 -0.00717268 0)
(0.399399 -0.00501426 0)
(0.40851 -0.00350095 0)
(0.414904 -0.00244796 0)
(0.419402 -0.00171599 0)
(0.422576 -0.00120617 0)
(0.424821 -0.000850372 0)
(0.426412 -0.000601544 0)
(0.427543 -0.000426785 0)
(0.428349 -0.000303276 0)
(0.428926 -0.000215569 0)
(0.429338 -0.000153285 0)
(0.429631 -0.000109207 0)
(0.42984 -7.80486e-05 0)
(0.42999 -5.5896e-05 0)
(0.430098 -3.99854e-05 0)
(0.430176 -2.84791e-05 0)
(0.430232 -2.01826e-05 0)
(0.430271 -1.42841e-05 0)
(0.430299 -1.01678e-05 0)
(0.430319 -7.30855e-06 0)
(0.430333 -5.28603e-06 0)
(0.430343 -3.82129e-06 0)
(0.430351 -2.73027e-06 0)
(0.430357 -1.90461e-06 0)
(0.430361 -1.3155e-06 0)
(0.430363 -9.24588e-07 0)
(0.430365 -7.0077e-07 0)
(0.430366 -5.11475e-07 0)
(0.430368 -4.69982e-07 0)
(0.430366 -2.62763e-07 0)
(0.430372 -2.9633e-07 0)
(0.430365 -1.93942e-07 0)
(0.430374 5.02534e-08 0)
(0.430373 -2.03282e-08 0)
(0.43037 1.44084e-07 0)
(-0.0225307 0.0690003 0)
(-0.0139939 -0.0571497 0)
(0.0725246 -0.0949315 0)
(0.153674 -0.113292 0)
(0.242226 -0.104732 0)
(0.315838 -0.0854533 0)
(0.371845 -0.0651876 0)
(0.412791 -0.0478552 0)
(0.442124 -0.0343789 0)
(0.462948 -0.0244184 0)
(0.477697 -0.0172579 0)
(0.48815 -0.0121836 0)
(0.495574 -0.00860945 0)
(0.500862 -0.0060946 0)
(0.504637 -0.0043233 0)
(0.507335 -0.00307388 0)
(0.509266 -0.00219073 0)
(0.51065 -0.00156431 0)
(0.511645 -0.0011182 0)
(0.512361 -0.000799709 0)
(0.512876 -0.000572359 0)
(0.513245 -0.000410266 0)
(0.51351 -0.000294585 0)
(0.513701 -0.000211653 0)
(0.513839 -0.000151875 0)
(0.513939 -0.000108716 0)
(0.514011 -7.77054e-05 0)
(0.514063 -5.56229e-05 0)
(0.514099 -4.00086e-05 0)
(0.514125 -2.89348e-05 0)
(0.514144 -2.09636e-05 0)
(0.514157 -1.5123e-05 0)
(0.514168 -1.07854e-05 0)
(0.514175 -7.56638e-06 0)
(0.514181 -5.25465e-06 0)
(0.514184 -3.66802e-06 0)
(0.514187 -2.6569e-06 0)
(0.514188 -1.94516e-06 0)
(0.514191 -1.58272e-06 0)
(0.514188 -1.0994e-06 0)
(0.514196 -9.71335e-07 0)
(0.514186 -7.31565e-07 0)
(0.514199 -3.18875e-07 0)
(0.514195 -4.13855e-07 0)
(0.514194 -2.60051e-07 0)
(-0.104566 0.00212921 0)
(-0.101973 -0.15026 0)
(0.0528282 -0.201427 0)
(0.155699 -0.217415 0)
(0.263183 -0.192294 0)
(0.343165 -0.15137 0)
(0.397903 -0.11249 0)
(0.43471 -0.0812482 0)
(0.459615 -0.0578867 0)
(0.476715 -0.0410102 0)
(0.488638 -0.0290208 0)
(0.497055 -0.0205597 0)
(0.503051 -0.0145946 0)
(0.507345 -0.0103828 0)
(0.51043 -0.00740235 0)
(0.512649 -0.00528831 0)
(0.514247 -0.00378473 0)
(0.5154 -0.00271203 0)
(0.516233 -0.00194481 0)
(0.516834 -0.00139551 0)
(0.517267 -0.00100227 0)
(0.517578 -0.00072062 0)
(0.517802 -0.00051846 0)
(0.517963 -0.00037289 0)
(0.518081 -0.000267885 0)
(0.518166 -0.000192273 0)
(0.518228 -0.000138079 0)
(0.518271 -9.93993e-05 0)
(0.518302 -7.17738e-05 0)
(0.518324 -5.19045e-05 0)
(0.51834 -3.74606e-05 0)
(0.518352 -2.68716e-05 0)
(0.518361 -1.91219e-05 0)
(0.518368 -1.35394e-05 0)
(0.518373 -9.61379e-06 0)
(0.518375 -6.90002e-06 0)
(0.518378 -5.03777e-06 0)
(0.518378 -3.71689e-06 0)
(0.518381 -2.79238e-06 0)
(0.518378 -2.04689e-06 0)
(0.518387 -1.56348e-06 0)
(0.518376 -1.17825e-06 0)
(0.518389 -8.4102e-07 0)
(0.518385 -8.88791e-07 0)
(0.518384 -9.23427e-07 0)
(0.0277611 0.328888 0)
(0.0292535 -0.188005 0)
(0.15912 -0.324305 0)
(0.236356 -0.340174 0)
(0.328595 -0.289029 0)
(0.399159 -0.216063 0)
(0.442517 -0.153268 0)
(0.468153 -0.107179 0)
(0.483796 -0.0749556 0)
(0.493886 -0.0526455 0)
(0.500751 -0.0371629 0)
(0.505605 -0.0263535 0)
(0.509111 -0.0187569 0)
(0.511667 -0.013388 0)
(0.513534 -0.00957722 0)
(0.514897 -0.00686345 0)
(0.51589 -0.00492543 0)
(0.516615 -0.00353782 0)
(0.517143 -0.00254241 0)
(0.517526 -0.00182779 0)
(0.517803 -0.00131475 0)
(0.518002 -0.000946359 0)
(0.518147 -0.000681487 0)
(0.518252 -0.000490656 0)
(0.518328 -0.000352978 0)
(0.518384 -0.000253715 0)
(0.518424 -0.000182354 0)
(0.518452 -0.00013124 0)
(0.518472 -9.46862e-05 0)
(0.518486 -6.84552e-05 0)
(0.518497 -4.94619e-05 0)
(0.518505 -3.55697e-05 0)
(0.518511 -2.53887e-05 0)
(0.518515 -1.79923e-05 0)
(0.518518 -1.27341e-05 0)
(0.51852 -9.08594e-06 0)
(0.518521 -6.6036e-06 0)
(0.518521 -4.89886e-06 0)
(0.518524 -3.72867e-06 0)
(0.518521 -2.83038e-06 0)
(0.518529 -2.19856e-06 0)
(0.518518 -1.68044e-06 0)
(0.518531 -1.24127e-06 0)
(0.518527 -1.18599e-06 0)
(0.518525 -1.22023e-06 0)
(0.394311 -0.131848 0)
(0.302478 -0.324199 0)
(0.496028 -0.451886 0)
(0.502511 -0.45387 0)
(0.500899 -0.373873 0)
(0.511005 -0.270398 0)
(0.514737 -0.183519 0)
(0.514881 -0.123042 0)
(0.514592 -0.083568 0)
(0.514641 -0.0578263 0)
(0.515003 -0.0406327 0)
(0.515532 -0.0288423 0)
(0.516098 -0.0205983 0)
(0.51662 -0.0147635 0)
(0.517062 -0.0106039 0)
(0.517417 -0.00762587 0)
(0.517696 -0.00548824 0)
(0.517912 -0.00395147 0)
(0.518076 -0.00284575 0)
(0.518198 -0.00204989 0)
(0.518287 -0.00147686 0)
(0.518352 -0.00106405 0)
(0.518399 -0.000766477 0)
(0.518435 -0.00055192 0)
(0.518461 -0.000397305 0)
(0.518481 -0.000286026 0)
(0.518494 -0.000206034 0)
(0.518504 -0.000148524 0)
(0.51851 -0.000107103 0)
(0.518514 -7.71857e-05 0)
(0.518518 -5.55256e-05 0)
(0.518521 -3.98412e-05 0)
(0.518524 -2.85233e-05 0)
(0.518526 -2.0425e-05 0)
(0.518527 -1.46587e-05 0)
(0.518527 -1.0563e-05 0)
(0.518527 -7.65649e-06 0)
(0.518527 -5.58805e-06 0)
(0.518529 -4.11872e-06 0)
(0.518525 -3.04649e-06 0)
(0.518533 -2.31131e-06 0)
(0.518522 -1.81305e-06 0)
(0.518535 -1.40284e-06 0)
(0.51853 -1.4904e-06 0)
(0.518529 -1.48284e-06 0)
)
;

boundaryField
{
    inlet
    {
        type            fixedValue;
        value           uniform (1 0 0);
    }
    outlet
    {
        type            zeroGradient;
    }
    upperWall
    {
        type            noSlip;
    }
    lowerWall
    {
        type            noSlip;
    }
    frontAndBack
    {
        type            empty;
    }
}


// ************************************************************************* //
