/*--------------------------------*- C++ -*----------------------------------*\
  =========                 |
  \\      /  F ield         | OpenFOAM: The Open Source CFD Toolbox
   \\    /   O peration     | Website:  https://openfoam.org
    \\  /    A nd           | Version:  10
     \\/     M anipulation  |
\*---------------------------------------------------------------------------*/
FoamFile
{
    format      ascii;
    class       volScalarField;
    location    "3";
    object      p;
}
// * * * * * * * * * * * * * * * * * * * * * * * * * * * * * * * * * * * * * //

dimensions      [0 2 -2 0 0 0 0];

internalField   nonuniform List<scalar> 
8000
(
2.21823e-06
-1.12555e-05
2.19006e-05
8.38072e-05
0.000179063
0.000307679
0.000468724
0.000660538
0.000880429
0.00112445
0.00138739
0.00166235
0.00194083
0.00221289
0.00246738
0.00269255
0.00287671
0.0030095
0.00308958
0.00308727
1.72817e-05
1.41177e-06
3.40701e-05
9.39902e-05
0.000186502
0.000311857
0.000469365
0.000657614
0.000874161
0.00111534
0.001376
0.00164932
0.00192726
0.00219972
0.00245542
0.00268237
0.00286856
0.00300333
0.00308596
0.00308305
-2.11694e-05
-4.02142e-05
-8.62756e-06
5.01009e-05
0.000141808
0.000266909
0.000424984
0.000614948
0.000834691
0.00108084
0.00134853
0.00163143
0.00192087
0.00220655
0.00247659
0.00271799
0.00291738
0.00306249
0.0031521
0.00314803
-9.55543e-05
-0.000117386
-8.68976e-05
-2.93626e-05
6.17827e-05
0.000187299
0.000347221
0.000540981
0.000766998
0.00102239
0.00130268
0.00160159
0.00191089
0.00221955
0.0025145
0.00278104
0.00300359
0.00316713
0.00326928
0.00326586
-0.000211379
-0.000236467
-0.000207222
-0.00015087
-5.99225e-05
6.68619e-05
0.000230145
0.000430062
0.00066577
0.000935099
0.00123417
0.00155707
0.00189564
0.00223828
0.00257055
0.00287534
0.0031336
0.00332601
0.00344798
0.00344678
-0.000370804
-0.000399972
-0.000372322
-0.000317498
-0.000226844
-9.85012e-05
6.90079e-05
0.000276749
0.000524868
0.000812185
0.00113572
0.00149018
0.0018681
0.00225708
0.00264111
0.00300004
0.00331002
0.00354522
0.00369713
0.00370058
-0.000576385
-0.000610697
-0.000585278
-0.000532816
-0.000443204
-0.000313816
-0.000142146
7.40621e-05
0.000336257
0.000644616
0.00099744
0.00139045
0.00181801
0.00226678
0.00271938
0.00315214
0.00353492
0.00383229
0.00402885
0.00404135
-0.000831403
-0.000872177
-0.000849966
-0.000801281
-0.000714252
-0.000585322
-0.000410736
-0.000186756
8.97321e-05
0.000420716
0.000806225
0.00124238
0.00173071
0.00225345
0.00279384
0.00332485
0.00380862
0.00419603
0.00445935
0.00448887
-0.00113988
-0.00118869
-0.00117101
-0.00112816
-0.00104616
-0.000920364
-0.000745538
-0.000516173
-0.000227102
0.00012611
0.000546792
0.00103746
0.00158708
0.00219623
0.00284538
0.0035043
0.0041266
0.00464513
0.00500963
0.0050744
-0.00150677
-0.00156545
-0.0015539
-0.00151957
-0.00144598
-0.00132728
-0.00115653
-0.000926206
-0.000628824
-0.000257258
0.000194816
0.000731932
0.00135532
0.00206349
0.00284285
0.00366418
0.0044739
0.00518454
0.00570465
0.00584378
-0.00193843
-0.00200891
-0.00200517
-0.00198252
-0.0019216
-0.00181523
-0.00165455
-0.00142988
-0.00113126
-0.000748607
-0.000271763
0.000309013
0.0010006
0.00181157
0.00273767
0.00375707
0.00481475
0.00580583
0.00657007
0.00686726
-0.00244355
-0.00252749
-0.00253278
-0.00252506
-0.00248166
-0.00239387
-0.00225076
-0.00204041
-0.00175054
-0.00136838
-0.000880085
-0.000270133
0.000479156
0.00138104
0.00245615
0.00370081
0.00507352
0.00646785
0.00762131
0.00825611
-0.00303523
-0.0031326
-0.00314671
-0.00315648
-0.00313543
-0.003073
-0.00295588
-0.00276994
-0.00250109
-0.00213482
-0.00165506
-0.00104225
-0.00027182
0.000688332
0.00188925
0.00335918
0.00510267
0.00705544
0.00880743
0.0101982
-0.00373792
-0.00384263
-0.00386063
-0.00388805
-0.00389306
-0.00386218
-0.0037792
-0.00362781
-0.0033928
-0.00305963
-0.00261254
-0.0020302
-0.00128071
-0.000313624
0.000932962
0.0025459
0.0046465
0.00729481
0.00994559
0.0129586
-0.00457653
-0.00468382
-0.00469587
-0.00473698
-0.00476723
-0.00477008
-0.00472641
-0.00461733
-0.00442697
-0.00414316
-0.00375647
-0.00325314
-0.00261238
-0.00178689
-0.000691649
0.000839572
0.00311913
0.00659563
0.0104773
0.016518
-0.00571772
-0.00564889
-0.00561026
-0.0056343
-0.00569974
-0.0057609
-0.0057801
-0.00572819
-0.00558971
-0.00536056
-0.00504481
-0.00464594
-0.00416388
-0.00356896
-0.00277105
-0.00150724
0.000501727
0.00418898
0.00871988
0.0197768
-0.0068885
-0.00712796
-0.00700313
-0.00707152
-0.00710648
-0.00712666
-0.00711259
-0.007044
-0.00691127
-0.00671319
-0.0064689
-0.00620624
-0.00597826
-0.00583095
-0.00579755
-0.00574019
-0.00587983
-0.00204055
0.00264894
0.0220128
-0.0106007
-0.00798454
-0.00774627
-0.00750311
-0.00759878
-0.00777321
-0.00794023
-0.00802633
-0.0080096
-0.00788669
-0.00770911
-0.00752166
-0.00745634
-0.00761251
-0.0082422
-0.0090541
-0.0113905
-0.00806371
-0.00351319
0.0271794
-0.0108122
-0.0118355
-0.0108907
-0.010902
-0.0106316
-0.0104242
-0.0102193
-0.00998605
-0.00972645
-0.00941755
-0.00912752
-0.0089014
-0.00891742
-0.00938118
-0.0107869
-0.0126638
-0.0178854
-0.014219
-0.00887569
0.0476064
-0.0343083
-0.00949875
-0.0087368
-0.00811911
-0.00802247
-0.00833593
-0.00872719
-0.00896611
-0.00909284
-0.00902565
-0.00896588
-0.00880521
-0.00894799
-0.00911701
-0.00995574
-0.00961521
-0.00845271
0.00726558
0.0403371
0.137978
7.09425e-06
-1.64891e-05
1.53378e-05
7.66309e-05
0.000172199
0.000301611
0.000463766
0.000656993
0.000878559
0.0011246
0.0013897
0.00166697
0.00194795
0.00222258
0.00247957
0.00270694
0.0028926
0.00302537
0.0031043
0.00309113
3.01873e-05
5.3161e-06
3.71597e-05
9.60448e-05
0.000188072
0.000313182
0.000470563
0.000658811
0.000875501
0.00111699
0.00137818
0.00165225
0.00193108
0.00220458
0.00246137
0.00268933
0.00287604
0.00301018
0.00309177
0.00307724
-6.12095e-06
-3.48773e-05
-4.03566e-06
5.3557e-05
0.000144648
0.000269344
0.00042712
0.00061691
0.000836641
0.00108297
0.00135105
0.00163458
0.00192486
0.0022116
0.00248279
0.00272527
0.00292523
0.00306965
0.0031581
0.00314086
-7.81228e-05
-0.000110319
-8.055e-05
-2.42386e-05
6.61781e-05
0.000191153
0.000350625
0.000544054
0.000769904
0.00102534
0.00130591
0.00160544
0.00191555
0.00222527
0.00252143
0.00278917
0.00301237
0.00317512
0.00327594
0.00325771
-0.000191764
-0.000227983
-0.000199431
-0.000144357
-5.4184e-05
7.20136e-05
0.000234803
0.000434356
0.000669879
0.000939261
0.00123868
0.00156228
0.0019018
0.00224569
0.00257944
0.0028857
0.00314485
0.00333643
0.00345681
0.00343859
-0.000348722
-0.000389974
-0.000362974
-0.000309468
-0.000219609
-9.18633e-05
7.51551e-05
0.000282554
0.00053054
0.000818005
0.00114205
0.00149751
0.0018766
0.0022672
0.00265319
0.00301414
0.00332549
0.00355992
0.00370995
0.00369328
-0.000551231
-0.000598799
-0.000573968
-0.000522871
-0.000434081
-0.000305302
-0.000134117
8.17879e-05
0.000343934
0.000652595
0.00100622
0.00140081
0.0018298
0.00228077
0.00273617
0.00317195
0.00355701
0.00385399
0.0040484
0.00403654
-0.000802348
-0.00085781
-0.000836103
-0.000788857
-0.000702702
-0.000574427
-0.000400341
-0.000176635
9.98956e-05
0.000431368
0.000818146
0.00125797
0.0017469
0.00227274
0.00281736
0.00335317
0.00384101
0.00422913
0.00449033
0.00449135
-0.00110582
-0.00117107
-0.00115379
-0.00111251
-0.0010315
-0.000906469
-0.000732217
-0.000503137
-0.000213964
0.000139805
0.000561281
0.00105113
0.00160766
0.00222243
0.00287833
0.00354522
0.00417509
0.00469697
0.00505985
0.00509094
-0.00146622
-0.00154345
-0.00153222
-0.00149968
-0.00142734
-0.00130966
-0.00113967
-0.000909718
-0.000612183
-0.000239773
0.000213809
0.00075182
0.00138292
0.00209898
0.00288884
0.00372352
0.00454746
0.00526759
0.00578805
0.00589018
-0.00188927
-0.00198095
-0.00197746
-0.00195705
-0.00189788
-0.00179303
-0.00163353
-0.00140949
-0.00111077
-0.000726938
-0.000247152
0.000340792
0.00103705
0.00185865
0.00280093
0.00384264
0.00492676
0.00594156
0.00671186
0.00698385
-0.00238254
-0.00249116
-0.00249676
-0.00249215
-0.00245148
-0.00236617
-0.00222506
-0.00201595
-0.00172632
-0.00134303
-0.000851708
-0.000236246
0.000520255
0.00144024
0.00254027
0.00382139
0.00524178
0.00668912
0.00786665
0.00853727
-0.0029569
-0.00308389
-0.00309881
-0.00311346
-0.00309702
-0.00303888
-0.00292532
-0.00274185
-0.00247403
-0.00210701
-0.00162411
-0.00100526
-0.000226538
0.000763165
0.00199792
0.00352187
0.00534453
0.00740056
0.00922436
0.0108663
-0.00363257
-0.00377464
-0.00379437
-0.00383024
-0.00384381
-0.00382097
-0.00374458
-0.00359793
-0.00336547
-0.00303236
-0.00258185
-0.00199034
-0.00121951
-0.000232906
0.00104262
0.0027258
0.00493818
0.00776212
0.0105806
0.014401
-0.0044225
-0.00458892
-0.0046057
-0.00466443
-0.00470935
-0.00472532
-0.00469257
-0.00459166
-0.00440649
-0.00412465
-0.00373544
-0.00322679
-0.00257462
-0.00173597
-0.000613976
0.000987816
0.00332866
0.00701627
0.0110134
0.0187313
-0.00547415
-0.0054546
-0.00544233
-0.00549958
-0.00560291
-0.00569843
-0.005746
-0.00571522
-0.00559046
-0.00536696
-0.00505
-0.00464414
-0.00415153
-0.00354603
-0.00272802
-0.00150299
4.50945e-05
0.00354503
0.0069712
0.0205555
-0.00641868
-0.00690744
-0.00680558
-0.00697214
-0.00706496
-0.00713431
-0.00715342
-0.00710698
-0.00698693
-0.00679182
-0.00654365
-0.00627259
-0.00604299
-0.00593123
-0.00605451
-0.00657273
-0.00776244
-0.00544661
-0.00395845
0.0189981
-0.00984684
-0.00741008
-0.00728179
-0.00718409
-0.00744139
-0.00774129
-0.00800066
-0.00814817
-0.00816733
-0.00805287
-0.00786864
-0.00765603
-0.00758059
-0.00777728
-0.00870837
-0.0102268
-0.0148021
-0.0142568
-0.0134864
0.0233924
-0.00789484
-0.0106751
-0.0102459
-0.0108114
-0.010857
-0.0108434
-0.0107486
-0.0105566
-0.0102957
-0.00993656
-0.00957028
-0.00926206
-0.00918334
-0.00963176
-0.0113722
-0.0137629
-0.021435
-0.0208604
-0.0128162
0.0501694
-0.0315904
-0.00742845
-0.00716032
-0.00722517
-0.00758876
-0.00816353
-0.00874129
-0.00910624
-0.00932079
-0.00923931
-0.0092028
-0.00895543
-0.00914329
-0.00928834
-0.0104158
-0.0104597
-0.00922572
0.00712912
0.0519555
0.164436
1.21697e-05
-1.45171e-05
1.6553e-05
7.71663e-05
0.000172514
0.000302004
0.000464458
0.000658133
0.000880369
0.00112723
0.0013934
0.00167197
0.00195435
0.00223042
0.00248879
0.00271733
0.00290368
0.00303636
0.00311468
0.00309772
3.84014e-05
1.02406e-05
4.1435e-05
9.95343e-05
0.000191089
0.000315914
0.00047316
0.00066142
0.000878293
0.00112014
0.00138186
0.00165666
0.00193635
0.00221081
0.00246857
0.00269735
0.00288451
0.00301839
0.00309941
0.00308126
3.47516e-06
-2.88124e-05
1.38747e-06
5.81247e-05
0.000148662
0.000272978
0.000430516
0.000620219
0.000840031
0.00108663
0.00135519
0.0016394
0.00193055
0.00221829
0.00249052
0.00273393
0.00293443
0.00307861
0.00316646
0.00314513
-6.67353e-05
-0.000102714
-7.35988e-05
-1.82337e-05
7.15335e-05
0.00019602
0.00035514
0.000548372
0.000774208
0.00102984
0.00131085
0.00161108
0.00192211
0.00223293
0.00253029
0.00279912
0.00302302
0.00318562
0.00328585
0.00326305
-0.000178462
-0.000218783
-0.000190907
-0.000136859
-4.74134e-05
7.82171e-05
0.00024058
0.000439877
0.000675354
0.000944944
0.00124486
0.00156929
0.00190991
0.00225517
0.00259045
0.00289819
0.00315839
0.00335
0.00346988
0.00344653
-0.000333142
-0.000378899
-0.000352604
-0.000300213
-0.000211165
-8.4065e-05
8.24601e-05
0.000289561
0.000537498
0.000825228
0.00114991
0.00150645
0.00188695
0.00227937
0.00266748
0.00303058
0.00334362
0.00357848
0.00372819
0.00370567
-0.00053279
-0.00058536
-0.000561272
-0.000511414
-0.000423551
-0.000295532
-0.000124933
9.06163e-05
0.000352713
0.000661725
0.00101621
0.00141225
0.0018431
0.00229658
0.00275502
0.00319407
0.00358197
0.00388022
0.00407475
0.00405619
-0.000780224
-0.0008413
-0.000820402
-0.00077458
-0.000689541
-0.00056221
-0.000388872
-0.000165636
0.000110804
0.000442695
0.000830582
0.00127247
0.00176378
0.00229313
0.00284225
0.00338318
0.00387587
0.00426695
0.00452922
0.00452215
-0.00107888
-0.0011505
-0.00113415
-0.00109458
-0.001015
-0.000891235
-0.000718023
-0.000489648
-0.00020071
0.000153443
0.000576082
0.00106807
0.00162833
0.00224824
0.00291083
0.00358575
0.00422397
0.00475214
0.00511827
0.00514091
-0.00143288
-0.00151742
-0.00150732
-0.00147699
-0.00140661
-0.00129073
-0.0011223
-0.000893494
-0.000596496
-0.000223781
0.000231375
0.000773669
0.00140795
0.00213077
0.00293029
0.00377741
0.00461547
0.00534829
0.00587666
0.00597347
-0.00184722
-0.00194742
-0.00194546
-0.00192807
-0.00187175
-0.00176964
-0.00161259
-0.00139047
-0.0010929
-0.000709192
-0.000228319
0.000361168
0.0010648
0.00189576
0.00285157
0.00391195
0.00501926
0.00605847
0.00684613
0.0071253
-0.00232833
-0.00244708
-0.00245493
-0.00245472
-0.00241842
-0.00233743
-0.00220027
-0.00199442
-0.00170702
-0.00132464
-0.000832511
-0.000214037
0.000549057
0.0014801
0.0025977
0.00390516
0.00536183
0.00685351
0.0080683
0.00878278
-0.00288509
-0.00302452
-0.00304301
-0.00306443
-0.00305498
-0.00300381
-0.00289668
-0.00271866
-0.00245493
-0.00209027
-0.00160763
-0.000986151
-0.000199227
0.000800623
0.00205503
0.00361181
0.00548622
0.00761562
0.00951196
0.0112989
-0.00353411
-0.00369211
-0.0037176
-0.00376444
-0.00378969
-0.00377843
-0.00371265
-0.00357503
-0.00334963
-0.00302123
-0.00257299
-0.00198091
-0.00120798
-0.000210885
0.00108035
0.00279475
0.00506685
0.00799868
0.0109463
0.0150891
-0.00428303
-0.00447249
-0.00449918
-0.00457709
-0.00464098
-0.0046754
-0.00465957
-0.00457314
-0.00439953
-0.00412575
-0.00374211
-0.00323639
-0.00258706
-0.00175035
-0.000629262
0.000978167
0.00333602
0.00713901
0.0112984
0.0195654
-0.0052668
-0.00526956
-0.00527668
-0.00536374
-0.0055013
-0.00563049
-0.00570918
-0.00570424
-0.0055989
-0.00538861
-0.00508005
-0.00468007
-0.00419513
-0.00360435
-0.00281305
-0.00160561
-0.000269936
0.00313559
0.00648428
0.0206893
-0.00608534
-0.00663777
-0.00656788
-0.00679937
-0.00694935
-0.00707198
-0.00714097
-0.00713288
-0.00703953
-0.00686046
-0.00662143
-0.00635712
-0.00614182
-0.00607157
-0.00630915
-0.00713139
-0.00884838
-0.00714918
-0.00570566
0.0177215
-0.00941457
-0.00702274
-0.00691817
-0.00689606
-0.00724725
-0.00763686
-0.00797825
-0.00818934
-0.00825408
-0.00816509
-0.00799391
-0.00778359
-0.00772285
-0.00796579
-0.00908117
-0.0109496
-0.0163913
-0.0170944
-0.0157838
0.0226981
-0.00683447
-0.00986198
-0.00959714
-0.0103541
-0.0105785
-0.0107471
-0.0108048
-0.0107162
-0.0105194
-0.0101838
-0.00981404
-0.00948934
-0.00939715
-0.00988025
-0.0118531
-0.0145743
-0.0230449
-0.022711
-0.0111217
0.0537723
-0.0307389
-0.0065807
-0.00638863
-0.00665121
-0.00722581
-0.00797414
-0.00869352
-0.00915274
-0.00943865
-0.00937933
-0.00935979
-0.00909225
-0.00931051
-0.00950764
-0.0107496
-0.0109022
-0.00903976
0.00841115
0.0587893
0.175253
1.72881e-05
-1.12406e-05
1.91624e-05
7.92089e-05
0.00017429
0.000303742
0.00046635
0.000660387
0.00088316
0.00113075
0.0013978
0.00167738
0.00196089
0.00223814
0.00249763
0.0027271
0.00291402
0.00304668
0.00312462
0.00310563
4.53729e-05
1.54832e-05
4.60733e-05
0.000103505
0.000194631
0.000319206
0.00047636
0.000664689
0.0008818
0.00112407
0.00138638
0.00166195
0.00194253
0.00221795
0.00247665
0.00270622
0.00289382
0.00302761
0.00310825
0.00308788
1.16518e-05
-2.24606e-05
7.13571e-06
6.31525e-05
0.000153189
0.00027717
0.000434524
0.000624205
0.000844173
0.00109112
0.00136023
0.0016452
0.00193726
0.00222602
0.00249929
0.00274359
0.00294464
0.00308877
0.00317626
0.00315246
-5.69631e-05
-9.48753e-05
-6.63881e-05
-1.18107e-05
7.73702e-05
0.000201423
0.000360257
0.000553369
0.000779279
0.00103521
0.00131675
0.00161777
0.00192981
0.0022418
0.00254039
0.00281036
0.00303502
0.00319769
0.00329762
0.00327209
-0.000166886
-0.000209275
-0.000182071
-0.000128893
-4.01201e-05
8.49863e-05
0.000246978
0.000446088
0.000681601
0.000951492
0.00125201
0.00157737
0.0019192
0.00226595
0.00260285
0.00291216
0.00317355
0.00336553
0.00348527
0.00345887
-0.000319384
-0.000367376
-0.000341813
-0.0002904
-0.000202134
-7.56659e-05
9.03932e-05
0.000297239
0.000545189
0.000833261
0.00115867
0.00151637
0.00189845
0.00229285
0.00268322
0.00304864
0.00336362
0.00359945
0.0037494
0.00372349
-0.000516276
-0.000571292
-0.000548027
-0.000499299
-0.000412376
-0.000285146
-0.000115153
0.000100038
0.000362107
0.000671508
0.00102689
0.00142443
0.00185736
0.00231355
0.00277525
0.00321785
0.00360899
0.00390931
0.00410485
0.00408269
-0.000760156
-0.000823941
-0.000804002
-0.000759541
-0.000675686
-0.000549396
-0.000376895
-0.000154199
0.000122109
0.000454405
0.000843378
0.00128718
0.00178123
0.00231434
0.0028682
0.00341457
0.00391269
0.00430789
0.00457272
0.00456228
-0.00105415
-0.00112881
-0.00111363
-0.00107578
-0.000997776
-0.000875462
-0.000703473
-0.000475962
-0.000187382
0.000167088
0.000590914
0.00108519
0.00164907
0.00227415
0.00294359
0.00362685
0.00427406
0.00481009
0.00518179
0.00520263
-0.00140193
-0.00148994
-0.00148136
-0.00145331
-0.00138513
-0.00127137
-0.0011048
-0.000877417
-0.000581205
-0.000208408
0.000248007
0.000793197
0.00143173
0.00216132
0.00297043
0.00383002
0.00468272
0.00543011
0.00596986
0.00607
-0.00180782
-0.00191205
-0.00191217
-0.00189796
-0.00184487
-0.00174594
-0.00159179
-0.00137204
-0.00107602
-0.000692804
-0.000211073
0.000380961
0.00109
0.00192955
0.00289819
0.00397655
0.00510696
0.00617234
0.00698282
0.007279
-0.00227718
-0.00240077
-0.00241161
-0.00241602
-0.0023846
-0.00230853
-0.00217593
-0.00197393
-0.00168937
-0.00130849
-0.000816248
-0.000195526
0.000572926
0.00151357
0.00264674
0.00397831
0.00546975
0.00700648
0.00826726
0.00903029
-0.00281725
-0.0029627
-0.00298566
-0.00301408
-0.00301217
-0.00296868
-0.00286874
-0.00269693
-0.00243804
-0.00207651
-0.00159539
-0.000973113
-0.000182242
0.000826459
0.00209629
0.00368095
0.00560334
0.00780492
0.00978752
0.0117101
-0.00344159
-0.00360771
-0.00364006
-0.00369778
-0.00373497
-0.00373585
-0.00368139
-0.00355363
-0.00333616
-0.00301368
-0.00256941
-0.00197909
-0.00120557
-0.00020543
0.00109368
0.00282926
0.00515625
0.0081889
0.0112889
0.015731
-0.0041547
-0.00435593
-0.00439362
-0.00448935
-0.0045717
-0.00462476
-0.00462635
-0.00455511
-0.00439398
-0.00413015
-0.00375436
-0.00325545
-0.00261399
-0.00178915
-0.000687677
0.000892554
0.00328417
0.00719762
0.0115887
0.0204056
-0.00508127
-0.00509718
-0.00512175
-0.00523506
-0.00540299
-0.00556342
-0.00567142
-0.00569183
-0.0056068
-0.00541199
-0.00511572
-0.00472769
-0.00426002
-0.00370188
-0.00298698
-0.00202154
-0.000627555
0.00272834
0.00620807
0.0211695
-0.00581148
-0.0064065
-0.00636149
-0.006645
-0.00684186
-0.00701094
-0.00711994
-0.00714496
-0.00707783
-0.00691814
-0.00669451
-0.00644597
-0.00625662
-0.00623663
-0.0065642
-0.00745166
-0.00980848
-0.00858393
-0.00706807
0.017385
-0.0090346
-0.00667575
-0.00660395
-0.00664228
-0.00706444
-0.00752767
-0.00793631
-0.00820282
-0.00831023
-0.00824959
-0.00809842
-0.00790417
-0.00787519
-0.0081842
-0.00947336
-0.0116418
-0.0178449
-0.01946
-0.017898
0.0224786
-0.00619143
-0.00938116
-0.00915589
-0.0100431
-0.0103806
-0.010657
-0.0108087
-0.0107936
-0.0106501
-0.0103425
-0.00998424
-0.00966449
-0.0095857
-0.0101297
-0.0122928
-0.0153181
-0.0245059
-0.0244849
-0.0116326
0.0564276
-0.0299924
-0.00585385
-0.00574054
-0.00614109
-0.00687291
-0.00776441
-0.00860623
-0.00915707
-0.00951586
-0.00949119
-0.00949594
-0.00923592
-0.00948319
-0.00973734
-0.0110722
-0.0113537
-0.00947927
0.00841386
0.0608797
0.181803
2.23084e-05
-6.86953e-06
2.31489e-05
8.27872e-05
0.000177598
0.000306915
0.000469529
0.000663718
0.000886789
0.00113483
0.00140249
0.00168282
0.00196718
0.00224533
0.00250569
0.0027359
0.0029233
0.0030561
0.00313396
0.00311423
5.12257e-05
2.06393e-05
5.08489e-05
0.000107834
0.000198632
0.000322999
0.000480072
0.000668457
0.000885769
0.00112839
0.00139122
0.00166746
0.00194882
0.00222508
0.00248462
0.00271491
0.00290299
0.00303693
0.00311754
0.00309646
1.83866e-05
-1.64655e-05
1.27347e-05
6.82653e-05
0.000157926
0.000281642
0.000438856
0.000628538
0.000848665
0.00109595
0.00136557
0.00165122
0.00194412
0.00223381
0.00250804
0.0027532
0.00295486
0.00309923
0.00318675
0.00316222
-4.89555e-05
-8.76584e-05
-5.95984e-05
-5.56663e-06
8.31684e-05
0.00020688
0.000365497
0.000558542
0.000784562
0.0010408
0.00132287
0.00162465
0.00193765
0.00225076
0.00255052
0.0028216
0.00304713
0.00321025
0.00331034
0.00328404
-0.000157314
-0.000200561
-0.00017383
-0.000121274
-3.30318e-05
9.16455e-05
0.000253338
0.000452314
0.000687901
0.000958112
0.00125923
0.00158548
0.00192849
0.00227666
0.00261514
0.00292602
0.00318873
0.00338152
0.00350169
0.00347449
-0.000307853
-0.000356791
-0.000331767
-0.000281082
-0.00019346
-6.75389e-05
9.81125e-05
0.000304742
0.000552725
0.000841136
0.00116725
0.00152605
0.00190964
0.00230594
0.00269851
0.00306622
0.00338329
0.00362059
0.00377143
0.00374478
-0.000502253
-0.000558322
-0.000535696
-0.000487849
-0.000401739
-0.000275231
-0.000105809
0.000109033
0.000371058
0.000680806
0.00103701
0.00143592
0.00187081
0.00232958
0.00279439
0.00324041
0.00363489
0.00393782
0.00413514
0.00411246
-0.000742913
-0.00080789
-0.000788739
-0.00074539
-0.000662606
-0.000537312
-0.000365647
-0.000143524
0.000132585
0.000465176
0.000855068
0.00130054
0.00179711
0.0023337
0.00289197
0.00344346
0.0039469
0.00434669
0.00461488
0.00460456
-0.0010327
-0.00110872
-0.00109456
-0.00105818
-0.000981646
-0.000860761
-0.000690032
-0.000463474
-0.000175391
0.000179202
0.00060395
0.00110014
0.00166719
0.00229686
0.00297244
0.00366326
0.00431889
0.00486286
0.00524082
0.00526346
-0.00137489
-0.00146451
-0.0014573
-0.00143125
-0.00136517
-0.00125352
-0.00108889
-0.000863077
-0.000567894
-0.000195365
0.000261793
0.000809008
0.00145124
0.00218662
0.003004
0.00387449
0.00474025
0.00550124
0.00605244
0.0061585
-0.00177328
-0.00187945
-0.00188148
-0.00187009
-0.00182007
-0.0017243
-0.00157314
-0.00135596
-0.00106188
-0.000679696
-0.000197783
0.000396036
0.00110893
0.00195526
0.0029344
0.00402777
0.00517786
0.00626602
0.00709761
0.00740913
-0.0022324
-0.00235839
-0.00237198
-0.00238048
-0.00235361
-0.0022823
-0.00215431
-0.00195645
-0.00167527
-0.00129676
-0.000805448
-0.000183852
0.000587793
0.00153521
0.00268036
0.00403105
0.00555072
0.00712435
0.00842429
0.00922273
-0.00275834
-0.00290685
-0.00293383
-0.00296827
-0.00297318
-0.00293688
-0.00284398
-0.00267865
-0.00242539
-0.00206852
-0.00159017
-0.000969167
-0.000177762
0.000835472
0.00211661
0.00372236
0.00568207
0.00794014
0.0099916
0.0119976
-0.00336274
-0.00353308
-0.00357127
-0.00363797
-0.0036854
-0.00369716
-0.00365336
-0.00353548
-0.00332679
-0.00301161
-0.00257315
-0.00198725
-0.00121633
-0.000217448
0.00108522
0.0028355
0.00520385
0.00831195
0.0115307
0.0161375
-0.00404874
-0.00425578
-0.00430205
-0.00441138
-0.00450874
-0.00457769
-0.00459502
-0.00453843
-0.00439026
-0.00413766
-0.00377182
-0.00328257
-0.00265188
-0.00184084
-0.000755547
0.000816203
0.00322597
0.00721964
0.0118061
0.0209112
-0.00493509
-0.00495695
-0.00499366
-0.0051259
-0.00531651
-0.0055014
-0.00563368
-0.0056765
-0.00561089
-0.00543245
-0.0051508
-0.00477792
-0.0043299
-0.00380101
-0.0031337
-0.00223821
-0.000869748
0.00247667
0.00617276
0.0215194
-0.0056164
-0.00622744
-0.00619621
-0.00651112
-0.00673957
-0.00694212
-0.00708374
-0.00713865
-0.00709702
-0.00695831
-0.00675323
-0.00652431
-0.00636257
-0.00638773
-0.00679292
-0.0078045
-0.0104528
-0.00943588
-0.00764124
0.0173258
-0.00877377
-0.00642544
-0.00637178
-0.00644402
-0.00690989
-0.00742174
-0.00787835
-0.008189
-0.00833358
-0.00830185
-0.00817451
-0.00800288
-0.00800792
-0.00837628
-0.00979185
-0.0121662
-0.0188118
-0.0209081
-0.0188718
0.0223224
-0.00587997
-0.00909217
-0.0088612
-0.00979826
-0.0101899
-0.0105321
-0.0107501
-0.010793
-0.010696
-0.0104211
-0.010086
-0.00978687
-0.00973584
-0.0103419
-0.0126431
-0.0158901
-0.0255116
-0.0256936
-0.0119814
0.0575527
-0.0295973
-0.00544091
-0.00535117
-0.00580566
-0.00661508
-0.0075931
-0.00851598
-0.0091328
-0.0095453
-0.00955849
-0.00958899
-0.00934954
-0.00962794
-0.0099396
-0.0113592
-0.0117606
-0.00993216
0.00816565
0.0618042
0.184432
2.69346e-05
-2.54072e-06
2.72198e-05
8.65722e-05
0.000181167
0.00031036
0.000472955
0.000667243
0.000890537
0.00113893
0.00140708
0.001688
0.00197304
0.00225191
0.00251299
0.00274382
0.00293167
0.0030647
0.00314263
0.00312264
5.62833e-05
2.54001e-05
5.53521e-05
0.000112036
0.000202592
0.0003268
0.000483812
0.00067225
0.000889742
0.00113268
0.00139596
0.00167278
0.00195481
0.00223181
0.00249208
0.00272303
0.0029116
0.00304581
0.0031265
0.00310516
2.41288e-05
-1.10352e-05
1.78926e-05
7.30921e-05
0.000162475
0.000285991
0.000443102
0.0006328
0.000853081
0.00110067
0.00137075
0.00165702
0.00195066
0.00224119
0.00251627
0.00276222
0.0029645
0.00310924
0.00319693
0.00317212
-4.21902e-05
-8.12264e-05
-5.34667e-05
1.86944e-07
8.85883e-05
0.000212038
0.000370492
0.000563502
0.000789641
0.00104618
0.00132874
0.00163121
0.00194507
0.00225919
0.00256004
0.00283215
0.00305856
0.00322225
0.00332266
0.00329611
-0.000149225
-0.000192835
-0.000166447
-0.000114336
-2.65038e-05
9.78301e-05
0.000259284
0.000458164
0.000693837
0.000964351
0.00126602
0.00159308
0.00193717
0.00228664
0.00262656
0.0029389
0.00320291
0.00339665
0.0035174
0.00349002
-0.000298074
-0.000347408
-0.000322793
-0.00027265
-0.000185547
-6.00844e-05
0.00010522
0.000311666
0.000559685
0.000848405
0.00117515
0.00153494
0.00191989
0.00231791
0.00271247
0.0030823
0.00340137
0.00364023
0.00379214
0.00376545
-0.000490303
-0.000546819
-0.000524697
-0.000477533
-0.000392105
-0.000266229
-9.73224e-05
0.000117197
0.000379164
0.000689199
0.00104611
0.00144622
0.00188285
0.00234391
0.00281151
0.00326063
0.0036582
0.00396374
0.00416294
0.00414054
-0.000728159
-0.00079365
-0.000775147
-0.000732691
-0.000650838
-0.000526444
-0.000355557
-0.000133992
0.000141881
0.000474669
0.000865307
0.00131218
0.00181094
0.00235056
0.00291269
0.00346871
0.00397693
0.00438103
0.00465253
0.00464319
-0.00101429
-0.00109092
-0.00107762
-0.00104245
-0.000967225
-0.000847652
-0.000678117
-0.000452503
-0.000164978
0.000189592
0.000615011
0.00111274
0.00168242
0.00231599
0.00299681
0.00369413
0.00435708
0.00490816
0.00529187
0.00531697
-0.00135167
-0.00144203
-0.001436
-0.00141164
-0.00134744
-0.00123772
-0.00107493
-0.000850678
-0.000556598
-0.000184526
0.000273021
0.000821678
0.00146692
0.00220705
0.00303127
0.00391083
0.00478756
0.00556015
0.00612133
0.00623298
-0.00174367
-0.00185076
-0.00185446
-0.00184546
-0.00179816
-0.00170528
-0.00155693
-0.00134225
-0.00105015
-0.000669189
-0.000187493
0.000407488
0.00112317
0.00197481
0.00296233
0.00406783
0.00523387
0.00634057
0.00718962
0.00751318
-0.00219425
-0.00232143
-0.00233739
-0.00234931
-0.00232641
-0.00225938
-0.00213563
-0.00194168
-0.00166382
-0.00128778
-0.000797868
-0.000176322
0.000597438
0.00154991
0.00270424
0.00407
0.00561183
0.00721426
0.00854485
0.00936813
-0.00270873
-0.0028588
-0.00288913
-0.0029285
-0.00293918
-0.00290915
-0.00282257
-0.0026632
-0.00241521
-0.00206263
-0.00158769
-0.000968754
-0.000177931
0.000838758
0.0021277
0.00375001
0.00573828
0.00803916
0.0101425
0.0122024
-0.00329766
-0.00347013
-0.00351303
-0.00358677
-0.00364255
-0.00366342
-0.00362886
-0.0035198
-0.00331913
-0.00301107
-0.00257875
-0.00199788
-0.0012302
-0.000233202
0.00107245
0.00283573
0.00523477
0.0083985
0.0117047
0.0164144
-0.00396364
-0.00417349
-0.00422622
-0.00434561
-0.00445468
-0.00453645
-0.0045669
-0.00452298
-0.00438655
-0.00414465
-0.0037888
-0.00330939
-0.00268912
-0.00188996
-0.000815995
0.000754639
0.00318003
0.00723475
0.0119636
0.0212496
-0.00482181
-0.00484649
-0.00489175
-0.00503733
-0.00524459
-0.00544809
-0.00559949
-0.00566065
-0.00561181
-0.00544847
-0.00518116
-0.00482343
-0.00439382
-0.00388896
-0.0032529
-0.0023925
-0.00103697
0.00231766
0.00617829
0.0217843
-0.0054748
-0.00609248
-0.00606955
-0.00640367
-0.00665369
-0.00688045
-0.00704659
-0.00712515
-0.00710494
-0.00698549
-0.0067988
-0.00658977
-0.00645404
-0.00651739
-0.00698236
-0.00808432
-0.0108956
-0.00996727
-0.00796969
0.0173772
-0.00858586
-0.00624152
-0.00620081
-0.00629368
-0.0067872
-0.00733187
-0.00782316
-0.00816703
-0.00834114
-0.00833449
-0.00823017
-0.00808203
-0.0081195
-0.00853796
-0.0100463
-0.0125605
-0.0194819
-0.0218275
-0.0195076
0.0222171
-0.00569294
-0.00890525
-0.00866245
-0.00962161
-0.0100427
-0.0104242
-0.0106851
-0.0107695
-0.0107081
-0.0104618
-0.0101518
-0.00987681
-0.00985691
-0.0105161
-0.01292
-0.0163181
-0.0262254
-0.0265327
-0.0124446
0.0580114
-0.0293416
-0.00517046
-0.00508918
-0.00556939
-0.00642131
-0.00745157
-0.00842877
-0.00909459
-0.00954848
-0.00958891
-0.00965237
-0.00943773
-0.0097495
-0.0101078
-0.0116051
-0.0120934
-0.0103674
0.00780678
0.0619106
0.185636
3.09518e-05
1.35519e-06
3.09551e-05
9.01196e-05
0.000184557
0.000313648
0.000476214
0.000670563
0.000894018
0.00114268
0.0014112
0.00169259
0.00197817
0.00225764
0.00251929
0.00275065
0.00293892
0.00307221
0.00315027
0.00313023
6.0545e-05
2.95337e-05
5.93203e-05
0.000115807
0.000206194
0.000330285
0.000487252
0.000675735
0.000893374
0.00113657
0.00140022
0.00167751
0.00196011
0.00223772
0.00249861
0.00273012
0.00291916
0.00305366
0.00313452
0.00311313
2.89074e-05
-6.38982e-06
2.23587e-05
7.73389e-05
0.000166525
0.000289894
0.000446932
0.00063665
0.000857062
0.00110491
0.00137538
0.00166216
0.00195642
0.00224765
0.00252346
0.0027701
0.00297296
0.00311811
0.00320603
0.0031812
-3.66119e-05
-7.57911e-05
-4.82352e-05
5.16145e-06
9.33215e-05
0.000216576
0.00037491
0.000567902
0.00079415
0.00105094
0.00133392
0.00163697
0.00195158
0.00226655
0.00256833
0.00284136
0.00306856
0.00323285
0.00333364
0.00330711
-0.000142573
-0.00018634
-0.000160194
-0.000108396
-2.08706e-05
0.000103198
0.000264466
0.000463276
0.000699027
0.000969801
0.00127193
0.00159969
0.00194468
0.00229526
0.00263641
0.00295002
0.0032152
0.00340986
0.00353123
0.00350396
-0.000290024
-0.000339539
-0.000315222
-0.000265473
-0.000178773
-5.36788e-05
0.000111341
0.000317634
0.00056568
0.000854654
0.00118192
0.00154254
0.00192864
0.0023281
0.00272435
0.003096
0.00341681
0.00365713
0.00381006
0.00378365
-0.000480453
-0.000537179
-0.000515438
-0.000468791
-0.00038391
-0.000258559
-9.00893e-05
0.000124143
0.000386042
0.000696294
0.00105378
0.00145487