/*--------------------------------*- C++ -*----------------------------------*\
  =========                 |
  \\      /  F ield         | OpenFOAM: The Open Source CFD Toolbox
   \\    /   O peration     | Website:  https://openfoam.org
    \\  /    A nd           | Version:  10
     \\/     M anipulation  |
\*---------------------------------------------------------------------------*/
FoamFile
{
    format      ascii;
    class       surfaceScalarField;
    location    "3";
    object      phi;
}
// * * * * * * * * * * * * * * * * * * * * * * * * * * * * * * * * * * * * * //

dimensions      [0 3 -1 0 0 0 0];

internalField   nonuniform List<scalar> 
22800
(
-3.55836e-06
3.74984e-06
-1.94776e-07
-9.94654e-06
6.24266e-06
1.45521e-07
-1.67132e-05
6.52687e-06
2.39778e-07
-2.3288e-05
6.2919e-06
2.82927e-07
-2.94455e-05
5.87861e-06
2.7883e-07
-3.50257e-05
5.33489e-06
2.45377e-07
-3.9881e-05
4.66348e-06
1.91851e-07
-4.38653e-05
3.86296e-06
1.21291e-07
-4.68336e-05
2.93368e-06
3.45847e-08
-4.86508e-05
1.87879e-06
-6.15774e-08
-4.91849e-05
7.09535e-07
-1.75372e-07
-4.83244e-05
-5.6226e-07
-2.98292e-07
-4.59909e-05
-1.9062e-06
-4.27259e-07
-4.21503e-05
-3.28361e-06
-5.57042e-07
-3.68298e-05
-4.64121e-06
-6.79313e-07
-3.01361e-05
-5.91209e-06
-7.81526e-07
-2.22831e-05
-7.01105e-06
-8.41957e-07
-1.36618e-05
-7.79464e-06
-8.26724e-07
-5.14831e-06
-7.79666e-06
-7.16805e-07
-4.94189e-06
-2.06413e-07
-6.12388e-06
1.0553e-05
-6.79321e-07
-1.59444e-05
1.64091e-05
-3.45882e-07
-2.6205e-05
1.70167e-05
-2.29192e-07
-3.61143e-05
1.63436e-05
-1.42393e-07
-4.5335e-05
1.5197e-05
-9.77296e-08
-5.3623e-05
1.37008e-05
-7.78689e-08
-6.07588e-05
1.18736e-05
-7.43904e-08
-6.6534e-05
9.72299e-06
-8.48007e-08
-7.07503e-05
7.2592e-06
-1.09242e-07
-7.32199e-05
4.49728e-06
-1.48835e-07
-7.37791e-05
1.47094e-06
-2.02248e-07
-7.22941e-05
-1.77665e-06
-2.70609e-07
-6.86595e-05
-5.19309e-06
-3.47715e-07
-6.28474e-05
-8.6653e-06
-4.3042e-07
-5.49109e-05
-1.20671e-05
-5.10559e-07
-4.50118e-05
-1.52366e-05
-5.74602e-07
-3.34575e-05
-1.79678e-05
-5.97505e-07
-2.07973e-05
-1.99126e-05
-5.42234e-07
-8.22294e-06
-1.99735e-05
-3.97566e-07
-1.33242e-05
1.59404e-07
-6.7868e-06
1.82139e-05
-8.74094e-07
-1.75867e-05
2.77541e-05
-5.45173e-07
-2.88359e-05
2.86847e-05
-4.18895e-07
-3.96854e-05
2.75079e-05
-3.14852e-07
-4.97778e-05
2.55412e-05
-2.51731e-07
-5.88544e-05
2.29894e-05
-2.12021e-07
-6.66817e-05
1.98879e-05
-1.86952e-07
-7.3038e-05
1.62547e-05
-1.75341e-07
-7.77114e-05
1.21107e-05
-1.78052e-07
-8.05044e-05
7.48648e-06
-1.96234e-07
-8.12353e-05
2.43176e-06
-2.29858e-07
-7.97244e-05
-3.00792e-06
-2.79718e-07
-7.58649e-05
-8.70999e-06
-3.42604e-07
-6.96026e-05
-1.45128e-05
-4.14762e-07
-6.09687e-05
-2.02137e-05
-4.87312e-07
-5.01148e-05
-2.55451e-05
-5.45514e-07
-3.73588e-05
-3.01623e-05
-5.61533e-07
-2.32968e-05
-3.34804e-05
-4.9416e-07
-9.25097e-06
-3.3686e-05
-3.33319e-07
-2.28416e-05
2.66426e-07
-7.16048e-06
2.64169e-05
-1.04254e-06
-1.86042e-05
3.99152e-05
-7.17307e-07
-3.05228e-05
4.11872e-05
-5.83885e-07
-4.20296e-05
3.94815e-05
-4.66816e-07
-5.27581e-05
3.66595e-05
-3.89823e-07
-6.24445e-05
3.30112e-05
-3.35358e-07
-7.0851e-05
2.85893e-05
-2.94928e-07
-7.7749e-05
2.34206e-05
-2.67917e-07
-8.29161e-05
1.75335e-05
-2.55745e-07
-8.61362e-05
1.09667e-05
-2.60084e-07
-8.7206e-05
3.78363e-06
-2.82095e-07
-8.59225e-05
-3.96666e-06
-3.24717e-07
-8.21134e-05
-1.21372e-05
-3.81898e-07
-7.56767e-05
-2.04983e-05
-4.51158e-07
-6.65973e-05
-2.87691e-05
-5.24031e-07
-5.49886e-05
-3.65693e-05
-5.84401e-07
-4.11586e-05
-4.33919e-05
-6.00349e-07
-2.57516e-05
-4.83632e-05
-5.24255e-07
-1.02456e-05
-4.88467e-05
-3.45355e-07
-3.34021e-05
3.14868e-07
-7.61171e-06
3.52359e-05
-1.20723e-06
-1.98408e-05
5.30226e-05
-8.78398e-07
-3.25871e-05
5.4671e-05
-7.37505e-07
-4.49136e-05
5.24169e-05
-6.08907e-07
-5.64423e-05
4.87094e-05
-5.21178e-07
-6.6906e-05
4.39313e-05
-4.56455e-07
-7.60638e-05
3.81534e-05
-4.06285e-07
-8.36821e-05
3.14094e-05
-3.70531e-07
-8.95275e-05
2.37302e-05
-3.51196e-07
-9.33644e-05
1.51542e-05
-3.50695e-07
-9.49542e-05
5.74452e-06
-3.71087e-07
-9.40542e-05
-4.45197e-06
-4.14644e-07
-9.04208e-05
-1.52941e-05
-4.76447e-07
-8.38699e-05
-2.64945e-05
-5.54726e-07
-7.42974e-05
-3.77015e-05
-6.40171e-07
-6.17441e-05
-4.84081e-05
-7.145e-07
-4.64868e-05
-5.79091e-05
-7.40024e-07
-2.9228e-05
-6.49633e-05
-6.5868e-07
-1.16749e-05
-6.59442e-05
-4.5557e-07
-4.53805e-05
3.03549e-07
-8.20234e-06
4.48348e-05
-1.39657e-06
-2.14476e-05
6.73265e-05
-1.05854e-06
-3.52635e-05
6.93956e-05
-9.08781e-07
-4.86452e-05
6.65662e-05
-7.67555e-07
-6.12015e-05
6.19347e-05
-6.68892e-07
-7.26629e-05
5.59873e-05
-5.94597e-07
-8.27887e-05
4.88155e-05
-5.36272e-07
-9.13431e-05
4.04581e-05
-4.94316e-07
-9.80845e-05
3.09429e-05
-4.71361e-07
-0.000102757
2.02974e-05
-4.70576e-07
-0.000105086
8.56818e-06
-4.95087e-07
-0.000104777
-4.2126e-06
-5.48517e-07
-0.000101483
-1.79627e-05
-6.24497e-07
-9.49085e-05
-3.23457e-05
-7.23761e-07
-8.48091e-05
-4.69646e-05
-8.36225e-07
-7.10939e-05
-6.11831e-05
-9.40275e-07
-5.39622e-05
-7.4051e-05
-9.89849e-07
-3.41674e-05
-8.38477e-05
-9.10477e-07
-1.37397e-05
-8.56945e-05
-6.77391e-07
-5.93496e-05
2.29337e-07
-8.94616e-06
5.54144e-05
-1.63346e-06
-2.34637e-05
8.31277e-05
-1.2837e-06
-3.86104e-05
8.5665e-05
-1.12264e-06
-5.32966e-05
8.22174e-05
-9.64975e-07
-6.71164e-05
7.66063e-05
-8.51812e-07
-7.98018e-05
6.94376e-05
-7.64923e-07
-9.11182e-05
6.08282e-05
-6.96311e-07
-0.000100835
5.08222e-05
-6.47189e-07
-0.00010871
3.94388e-05
-6.21079e-07
-0.000114472
2.66819e-05
-6.22259e-07
-0.000117809
1.25607e-05
-6.55542e-07
-0.000118377
-2.91751e-06
-7.26926e-07
-0.000115693
-1.98195e-05
-8.27379e-07
-0.000109304
-3.77721e-05
-9.63075e-07
-9.87566e-05
-5.63883e-05
-1.12336e-06
-8.37314e-05
-7.4926e-05
-1.28237e-06
-6.42555e-05
-9.21452e-05
-1.38168e-06
-4.10877e-05
-0.000105694
-1.32185e-06
-1.6695e-05
-0.00010903
-1.05667e-06
-7.61003e-05
5.57349e-08
-9.85553e-06
6.72088e-05
-1.93884e-06
-2.59241e-05
0.000100773
-1.57715e-06
-4.26779e-05
0.000103819
-1.40071e-06
-5.89233e-05
9.96823e-05
-1.21952e-06
-7.42407e-05
9.30082e-05
-1.08453e-06
-8.83705e-05
8.45456e-05
-9.78158e-07
-0.000101095
7.44457e-05
-8.93547e-07
-0.0001122
6.27612e-05
-8.33202e-07
-0.000121458
4.94988e-05
-8.01899e-07
-0.000128597
3.46261e-05
-8.05443e-07
-0.000133272
1.8087e-05
-8.51253e-07
-0.000135111
-1.26193e-07
-9.52011e-07
-0.000133449
-2.03932e-05
-1.08843e-06
-0.000127643
-4.22951e-05
-1.28299e-06
-0.000116931
-6.55773e-05
-1.52369e-06
-0.000100611
-8.94651e-05
-1.78049e-06
-7.83563e-05
-0.000112422
-1.9774e-06
-5.07985e-05
-0.000131274
-1.97763e-06
-2.09696e-05
-0.00013717
-1.68899e-06
-9.68089e-05
-2.61078e-07
-1.09528e-05
8.05007e-05
-2.33905e-06
-2.88838e-05
0.000120672
-1.9675e-06
-4.754e-05
0.000124244
-1.7686e-06
-6.56027e-05
0.000119297
-1.55161e-06
-8.26428e-05
0.00011143
-1.38175e-06
-9.84205e-05
0.000101567
-1.24353e-06
-0.000112749
8.99069e-05
-1.13234e-06
-0.000125455
7.65193e-05
-1.0527e-06
-0.000136344
6.1399e-05
-1.01105e-06
-0.000145172
4.44692e-05
-1.01491e-06
-0.000151601
2.55891e-05
-1.07274e-06
-0.000155161
4.62265e-06
-1.1897e-06
-0.000155154
-1.89957e-05
-1.40396e-06
-0.000150608
-4.51482e-05
-1.69297e-06
-0.000140347
-7.37734e-05
-2.06519e-06
-0.000123072
-0.000104247
-2.4923e-06
-9.77739e-05
-0.000134844
-2.87681e-06
-6.46299e-05
-0.000161393
-3.02482e-06
-2.73585e-05
-0.000171696
-2.74584e-06
-0.000123274
-8.93857e-07
-1.22806e-05
9.56538e-05
-2.87258e-06
-3.24361e-05
0.000143323
-2.49535e-06
-5.33155e-05
0.000147385
-2.2611e-06
-7.34538e-05
0.000141422
-1.98702e-06
-9.24221e-05
0.000132158
-1.75974e-06
-0.000110017
0.000120731
-1.5685e-06
-0.000126107
0.00010741
-1.41276e-06
-0.000140582
9.22934e-05
-1.29985e-06
-0.000153318
7.53736e-05
-1.23836e-06
-0.000164138
5.65276e-05
-1.2382e-06
-0.000172752
3.55127e-05
-1.30999e-06
-0.000178662
1.19932e-05
-1.4604e-06
-0.000181149
-1.47396e-05
-1.76895e-06
-0.000178915
-4.5187e-05
-2.19489e-06
-0.00017025
-7.96649e-05
-2.77384e-06
-0.000152963
-0.000118045
-3.48992e-06
-0.000124827
-0.000158752
-4.22695e-06
-8.48355e-05
-0.000196675
-4.70973e-06
-3.73905e-05
-0.000214603
-4.53773e-06
-0.000158432
-2.23247e-06
-1.39206e-05
0.000113174
-3.60014e-06
-3.67421e-05
0.000169367
-3.22234e-06
-6.01998e-05
0.000173771
-2.92834e-06
-8.26651e-05
0.000166447
-2.55958e-06
-0.000103731
0.00015546
-2.23597e-06
-0.000123257
0.000142213
-1.9562e-06
-0.000141192
0.000127071
-1.72633e-06
-0.000157525
0.000110184
-1.5574e-06
-0.000172247
9.15558e-05
-1.46018e-06
-0.000185303
7.10307e-05
-1.44738e-06
-0.000196522
4.8266e-05
-1.53492e-06
-0.000205496
2.27173e-05
-1.74979e-06
-0.000211559
-6.52323e-06
-2.15364e-06
-0.000213172
-4.08097e-05
-2.76389e-06
-0.000208039
-8.11458e-05
-3.65179e-06
-0.000192748
-0.000128497
-4.83911e-06
-0.000163056
-0.000182228
-6.21705e-06
-0.000115361
-0.000236942
-7.42756e-06
-5.41658e-05
-0.000268174
-7.62416e-06
-0.000207476
-5.12094e-06
-1.60327e-05
0.00013383
-4.6232e-06
-4.20848e-05
0.000199665
-4.24582e-06
-6.85167e-05
0.000204047
-3.8447e-06
-9.35379e-05
0.000194782
-3.31359e-06
-0.000116808
0.000181556
-2.82622e-06
-0.000138287
0.00016609
-2.39874e-06
-0.000158041
0.000148873
-2.04727e-06
-0.000176195
0.000130125
-1.78671e-06
-0.000192901
0.00010989
-1.62864e-06
-0.000208298
8.80143e-05
-1.58676e-06
-0.000222441
6.40925e-05
-1.68307e-06
-0.000235157
3.73919e-05
-1.95897e-06
-0.000246027
6.80963e-06
-2.46205e-06
-0.000253562
-2.99675e-05
-3.30739e-06
-0.000255008
-7.50765e-05
-4.62342e-06
-0.00024552
-0.000131458
-6.52725e-06
-0.000217793
-0.000200951
-9.00424e-06
-0.000163307
-0.000279738
-1.16904e-05
-8.45561e-05
-0.000333938
-1.29865e-05
-0.000280522
-1.15103e-05
-1.89457e-05
0.0001589
-6.12368e-06
-4.89685e-05
0.000235421
-5.73325e-06
-7.88011e-05
0.000239007
-5.12665e-06
-0.000106552
0.000226838
-4.30566e-06
-0.000132031
0.000210572
-3.53553e-06
-0.000155352
0.000192272
-2.86184e-06
-0.000176736
0.000172572
-2.31386e-06
-0.000196482
0.000151778
-1.9083e-06
-0.000214944
0.000130005
-1.65229e-06
-0.000232527
0.000107151
-1.5535e-06
-0.000249635
8.28321e-05
-1.63116e-06
-0.000266567
5.62504e-05
-1.92684e-06
-0.000283335
2.60731e-05
-2.49532e-06
-0.000299363
-1.02947e-05
-3.64528e-06
-0.00031174
-5.72624e-05
-5.43698e-06
-0.00031462
-0.000120323
-8.25473e-06
-0.000296757
-0.000206434
-1.238e-05
-0.000241132
-0.000317664
-1.76995e-05
-0.000143054
-0.000410047
-2.1969e-05
-0.000397529
-2.60475e-05
-2.33771e-05
0.000190698
-8.42096e-06
-5.83679e-05
0.00027835
-7.93869e-06
-9.19689e-05
0.000279558
-6.95043e-06
-0.000122472
0.000262946
-5.6054e-06
-0.000149991
0.000242428
-4.33714e-06
-0.000174842
0.000220372
-3.2486e-06
-0.000197449
0.000197565
-2.38646e-06
-0.000218301
0.00017439
-1.76026e-06
-0.000237985
0.000151049
-1.35923e-06
-0.000257217
0.000127554
-1.17115e-06
-0.000276883
0.000103698
-1.20077e-06
-0.000298029
7.88881e-05
-1.49161e-06
-0.000321521
5.16841e-05
-2.1191e-06
-0.000347753
1.90296e-05
-3.09188e-06
-0.000376381
-2.35432e-05
-5.0917e-06
-0.000402018
-8.60343e-05
-8.65138e-06
-0.000409775
-0.000184191
-1.4486e-05
-0.000368499
-0.000335474
-2.34659e-05
-0.000255189
-0.000489365
-3.39909e-05
-0.000596838
-5.58806e-05
-3.00313e-05
0.000233089
-1.23598e-05
-7.13859e-05
0.000331001
-1.12966e-05
-0.000109255
0.000326915
-9.48803e-06
-0.000142446
0.000303251
-7.11288e-06
-0.000171595
0.000276573
-4.99594e-06
-0.000197362
0.000249398
-3.2586e-06
-0.000220473
0.000222608
-1.93179e-06
-0.00024162
0.000196529
-9.92125e-07
-0.000261572
0.000171387
-3.86688e-07
-0.000281278
0.000147312
-5.25612e-08
-0.00030201
0.000124391
4.06117e-08
-0.000325551
0.000102465
-3.66124e-08
-0.000354704
8.11605e-05
-3.23624e-07
-0.000393058
5.84137e-05
-1.02985e-06
-0.000443566
2.93964e-05
-2.4315e-06
-0.000504922
-2.0028e-05
-4.65063e-06
-0.000565952
-0.000114063
-9.09767e-06
-0.000568068
-0.00031472
-1.86387e-05
-0.000451164
-0.00057339
-3.28805e-05
-0.000957047
-9.09538e-05
-4.88104e-05
0.000300443
-1.85433e-05
-9.48029e-05
0.000395108
-1.81139e-05
-0.000134441
0.000380892
-1.4339e-05
-0.000167879
0.000346763
-1.00746e-05
-0.000197195
0.000311936
-6.04716e-06
-0.000222964
0.000277994
-2.82708e-06
-0.000245759
0.000245896
-4.93184e-07
-0.000266147
0.000215938
9.7858e-07
-0.000285061
0.000188457
1.84417e-06
-0.0003037
0.00016372
2.23062e-06
-0.000323953
0.000142313
2.3305e-06
-0.000348381
0.000124592
2.3016e-06
-0.000381218
0.000111571
2.42645e-06
-0.000428699
0.00010276
3.13412e-06
-0.000500508
9.5692e-05
5.51367e-06
-0.000603501
7.18209e-05
1.11442e-05
-0.000737761
-3.53656e-06
2.37341e-05
-0.000817043
-0.000270608
3.51705e-05
-0.000705915
-0.00072701
4.24921e-05
-0.00158033
-8.26334e-05
-4.77062e-05
0.000379563
-3.14138e-05
-0.000114561
0.000484313
-2.23507e-05
-0.000164232
0.000447123
-1.65593e-05
-0.000202973
0.00039354
-8.03579e-06
-0.000232324
0.000343259
-1.97205e-06
-0.0002547
0.000298089
2.28137e-06
-0.000272606
0.000258768
5.03449e-06
-0.000287665
0.000224429
6.56847e-06
-0.000301123
0.000194642
7.27344e-06
-0.000313788
0.000168918
7.46597e-06
-0.000327218
0.000148184
7.55898e-06
-0.000343398
0.00013279
7.98229e-06
-0.000367857
0.000126303
9.72765e-06
-0.000410123
0.000130349
1.46763e-05
-0.000490653
0.000149132
2.70902e-05
-0.000631181
0.00015618
5.61693e-05
-0.000858471
0.000114058
0.000109695
-0.00101382
-0.00028995
0.000174688
-0.000879713
-0.0010694
0.000208287
-0.0023973
-6.27427e-05
-0.000180366
0.000607973
-4.8044e-05
-0.000207805
0.000559404
-4.76524e-05
-0.000220828
0.000492973
-3.2827e-05
-0.000233291
0.000423318
-1.73153e-05
-0.000239174
0.000352724
-3.58224e-06
-0.000242153
0.000295364
5.70419e-06
-0.000243994
0.000249157
1.14515e-05
-0.000244892
0.000210929
1.43982e-05
-0.000245507
0.000179784
1.54727e-05
-0.000245744
0.000153888
1.52675e-05
-0.000247532
0.000135218
1.47542e-05
-0.000250941
0.000121689
1.45089e-05
-0.000261503
0.000119983
1.68816e-05
-0.000283343
0.000126878
2.5312e-05
-0.000337655
0.000153305
5.01393e-05
-0.000441405
0.000156207
0.000103722
-0.000627797
8.75146e-05
0.000212936
-0.000819704
-0.000420495
0.000322453
-0.000725564
-0.00146703
0.000303485
-0.00294833
-0.000174536
-0.000381352
0.00110791
-0.000118585
-0.000293058
0.000527132
-5.6022e-05
-0.000172449
0.000396688
-2.43249e-05
-5.09097e-05
0.00029445
7.32881e-06
5.64451e-05
0.000219851
2.55184e-05
0.000145841
0.00016978
3.61885e-05
0.000218221
0.000136094
4.06831e-05
0.000276663
0.000111543
4.09441e-05
0.000323481
9.41162e-05
3.88495e-05
0.000362929
7.96687e-05
3.47716e-05
0.000396871
7.04932e-05
3.07838e-05
0.000429386
6.23682e-05
2.68055e-05
0.00046533
5.87308e-05
2.53086e-05
0.000505078
5.84044e-05
2.87246e-05
0.000560248
5.07444e-05
4.73908e-05
0.000591187
3.91075e-05
8.61607e-05
0.000572248
-8.16779e-05
0.000188132
0.000288997
-0.000464734
0.000327489
1.52791e-05
-0.00136991
0.000176599
-0.00252069
-0.000412358
0.00124226
-0.000134351
0.00189693
-0.000127542
0.00240537
-0.000111749
0.00278407
-8.42467e-05
0.0030595
-5.55849e-05
0.00326025
-3.0965e-05
0.00340701
-1.06713e-05
0.00351533
3.23141e-06
0.00359463
1.48105e-05
0.00365604
1.82556e-05
0.00370367
2.28684e-05
0.00374654
1.94999e-05
0.00378558
1.96856e-05
0.003824
1.99857e-05
0.00385936
1.53849e-05
0.00385914
3.93268e-05
0.00374674
3.07245e-05
0.00320876
7.32422e-05
0.00183568
3.17018e-06
-0.000685006
-5.723e-06
5.83022e-06
-3.01992e-07
-1.55866e-05
1.00727e-05
-6.36736e-08
-2.5938e-05
1.05612e-05
2.99999e-08
-3.58596e-05
1.0121e-05
8.35034e-08
-4.50451e-05
9.36713e-06
9.72808e-08
-5.32763e-05
8.39383e-06
8.26874e-08
-6.03456e-05
7.21406e-06
4.70818e-08
-6.60518e-05
5.83331e-06
-5.81496e-09
-7.01963e-05
4.26094e-06
-8.18277e-08
-7.25958e-05
2.50904e-06
-1.71148e-07
-7.30928e-05
5.95166e-07
-2.7349e-07
-7.1553e-05
-1.45326e-06
-3.84803e-07
-6.78881e-05
-3.58741e-06
-5.04793e-07
-6.20728e-05
-5.7466e-06
-6.25742e-07
-5.41623e-05
-7.85179e-06
-7.38058e-07
-4.43105e-05
-9.80497e-06
-8.28382e-07
-3.27973e-05
-1.14787e-05
-8.76409e-07
-2.01321e-05
-1.26369e-05
-8.5497e-07
-7.64248e-06
-1.24547e-05
-7.51736e-07
-7.51067e-06
-3.38217e-07
-1.02637e-05
1.61292e-05
-7.14646e-07
-2.60396e-05
2.60157e-05
-5.12937e-07
-4.23759e-05
2.70619e-05
-3.93624e-07
-5.79627e-05
2.58594e-05
-2.93932e-07
-7.23067e-05
2.38477e-05
-2.34309e-07
-8.50511e-05
2.12632e-05
-2.0279e-07
-9.58724e-05
1.8153e-05
-1.92078e-07
-0.000104469
1.45455e-05
-1.99969e-07
-0.000110565
1.0473e-05
-2.25843e-07
-0.000113909
5.97449e-06
-2.69786e-07
-0.000114297
1.1119e-06
-3.3138e-07
-0.00011156
-4.05052e-06
-4.09951e-07
-0.000105599
-9.398e-06
-4.98549e-07
-9.64082e-05
-1.47762e-05
-5.91468e-07
-8.40962e-05
-1.99957e-05
-6.78606e-07
-6.89112e-05
-2.48199e-05
-7.44701e-07
-5.12799e-05
-2.89419e-05
-7.65652e-07
-3.19537e-05
-3.17938e-05
-7.11549e-07
-1.27756e-05
-3.14556e-05
-5.74782e-07
-2.00318e-05
-9.51605e-08
-1.15165e-05
2.76852e-05
-9.13519e-07
-2.90502e-05
4.37346e-05
-7.30384e-07
-4.71449e-05
4.53392e-05
-6.0148e-07
-6.43806e-05
4.32643e-05
-4.84026e-07
-8.02294e-05
3.98489e-05
-4.04161e-07
-9.43074e-05
3.54801e-05
-3.50934e-07
-0.000106267
3.02432e-05
-3.17513e-07
-0.000115786
2.41922e-05
-3.0257e-07
-0.000122569
1.73844e-05
-3.06489e-07
-0.000126351
9.88987e-06
-3.30099e-07
-0.000126902
1.80642e-06
-3.73297e-07
-0.000124008
-6.78895e-06
-4.35211e-07
-0.000117561
-1.5676e-05
-5.11488e-07
-0.000107529
-2.46276e-05
-5.9601e-07
-9.39954e-05
-3.33386e-05
-6.77705e-07
-7.72031e-05
-4.14179e-05
-7.39917e-07
-5.75976e-05
-4.8353e-05
-7.55869e-07
-3.59978e-05
-5.31953e-05
-6.9237e-07
-1.4456e-05
-5.27886e-05
-5.42108e-07
-3.41956e-05
-2.57309e-08
-1.22358e-05
3.99825e-05
-1.10403e-06
-3.09038e-05
6.26259e-05
-9.40585e-07
-5.01578e-05
6.48121e-05
-8.02791e-07
-6.85061e-05
6.18152e-05
-6.69418e-07
-8.54044e-05
5.69299e-05
-5.72561e-07
-0.00010046
5.07019e-05
-5.01212e-07
-0.000113318
4.32556e-05
-4.49213e-07
-0.000123647
3.4669e-05
-4.16014e-07
-0.000131136
2.50208e-05
-4.02882e-07
-0.000135498
1.44028e-05
-4.11337e-07
-0.000136476
2.94442e-06
-4.42219e-07
-0.000133815
-9.2778e-06
-4.97076e-07
-0.000127331
-2.19722e-05
-5.69635e-07
-0.000116928
-3.48267e-05
-6.54481e-07
-0.000102631
-4.74195e-05
-7.40331e-07
-8.4631e-05
-5.91937e-05
-8.08515e-07
-6.33617e-05
-6.93944e-05
-8.2824e-07
-3.97078e-05
-7.66128e-05
-7.60792e-07
-1.59629e-05
-7.62825e-05
-5.96365e-07
-4.98159e-05
-2.76423e-08
-1.3094e-05
5.31732e-05
-1.30398e-06
-3.31266e-05
8.29385e-05
-1.15835e-06
-5.3791e-05
8.57496e-05
-1.01069e-06
-7.35028e-05
8.17789e-05
-8.60778e-07
-9.16987e-05
7.53521e-05
-7.47464e-07
-0.00010798
6.71865e-05
-6.60005e-07
-0.000121986
5.74482e-05
-5.9276e-07
-0.000133379
4.62374e-05
-5.4601e-07
-0.000141835
3.36475e-05
-5.21911e-07
-0.00014704
1.97801e-05
-5.22962e-07
-0.000148689
4.77362e-06
-5.51127e-07
-0.000146475
-1.12995e-05
-6.07585e-07
-0.000140117
-2.81189e-05
-6.87674e-07
-0.00012941
-4.53021e-05
-7.86348e-07
-0.000114261
-6.23175e-05
-8.91245e-07
-9.4765e-05
-7.84232e-05
-9.80744e-07
-7.13137e-05
-9.25681e-05
-1.01765e-06
-4.48712e-05
-0.000102761
-9.5341e-07
-1.8085e-05
-0.000102752
-7.72771e-07
-6.74779e-05
-1.19469e-07
-1.4216e-05
6.75322e-05
-1.53953e-06
-3.60137e-05
0.000105089
-1.41185e-06
-5.84982e-05
0.000108577
-1.25162e-06
-7.9963e-05
0.000103558
-1.082e-06
-9.9822e-05
9.54918e-05
-9.49617e-07
-0.000117672
8.52862e-05
-8.44272e-07
-0.000133153
7.31542e-05
-7.61048e-07
-0.000145926
5.92174e-05
-7.01285e-07
-0.000155658
4.35761e-05
-6.68256e-07
-0.000162009
2.63259e-05
-6.65635e-07
-0.000164624
7.59085e-06
-6.96772e-07
-0.000163121
-1.25874e-05
-7.64273e-07
-0.000157087
-3.39129e-05
-8.63716e-07
-0.000146161
-5.59603e-05
-9.91508e-07
-0.000130065
-7.81161e-05
-1.1343e-06
-0.000108716
-9.94455e-05
-1.26637e-06
-8.24003e-05
-0.000118533
-1.34105e-06
-5.21528e-05
-0.000132625
-1.29389e-06
-2.11195e-05
-0.000133364
-1.09823e-06
-8.80539e-05
-3.14094e-07
-1.56382e-05
8.33726e-05
-1.8357e-06
-3.9655e-05
0.000129553
-1.72991e-06
-6.44124e-05
0.000133764
-1.55252e-06
-8.80501e-05
0.000127587
-1.35624e-06
-0.000109957
0.000117745
-1.19783e-06
-0.000129732
0.000105365
-1.06821e-06
-0.000147026
9.07156e-05
-9.63768e-07
-0.000161511
7.39421e-05
-8.87366e-07
-0.000172855
5.51433e-05
-8.43805e-07
-0.000180703
3.43899e-05
-8.38445e-07
-0.000184651
1.17596e-05
-8.76691e-07
-0.000184232
-1.27693e-05
-9.63601e-07
-0.000178865
-3.90121e-05
-1.09537e-06
-0.000167966
-6.65504e-05
-1.27175e-06
-0.000150973
-9.47532e-05
-1.47908e-06
-0.000127498
-0.000122517
-1.68676e-06
-9.75878e-05
-0.00014799
-1.83461e-06
-6.22873e-05
-0.000167414
-1.83296e-06
-2.54217e-05
-0.000169655
-1.63176e-06
-0.000112761
-6.58882e-07
-1.73953e-05
0.000101048
-2.21901e-06
-4.41355e-05
0.000156859
-2.14289e-06
-7.16536e-05
0.000161822
-1.94079e-06
-9.79009e-05
0.000154321
-1.70586e-06
-0.000122243
0.000142512
-1.50879e-06
-0.000144293
0.000127779
-1.34277e-06
-0.00016373
0.000110465
-1.20655e-06
-0.000180257
9.07416e-05
-1.10527e-06
-0.00019357
6.87002e-05
-1.04577e-06
-0.000203316
4.43657e-05
-1.03563e-06
-0.000209055
1.77304e-05
-1.08325e-06
-0.000210244
-1.13336e-05
-1.19798e-06
-0.000206095
-4.28723e-05
-1.37757e-06
-0.000195733
-7.65671e-05
-1.62872e-06
-0.000178173
-0.000111897
-1.93972e-06
-0.00015251
-0.000147685
-2.27591e-06
-0.000118305
-0.000181612
-2.55918e-06
-7.64288e-05
-0.000208607
-2.66063e-06
-3.16049e-05
-0.000213686
-2.48147e-06
-0.000143379
-1.24789e-06
-1.95418e-05
0.000120975
-2.72416e-06
-4.95779e-05
0.000187617
-2.68967e-06
-8.03874e-05
0.000193313
-2.45016e-06
-0.000109695
0.000184234
-2.1567e-06
-0.000136852
0.000170186
-1.89971e-06
-0.000161502
0.000152863
-1.67684e-06
-0.000183381
0.000132703
-1.49089e-06
-0.000202261
0.000109919
-1.35017e-06
-0.000217898
8.45901e-05
-1.26417e-06
-0.000229981
5.66769e-05
-1.24312e-06
-0.000238068
2.60441e-05
-1.29889e-06
-0.000241566
-7.57915e-06
-1.44609e-06
-0.000239474
-4.46742e-05
-1.69431e-06
-0.000230553
-8.51258e-05
-2.05509e-06
-0.000213226
-0.000128763
-2.52615e-06
-0.000185757
-0.000174572
-3.07437e-06
-0.000146764
-0.00021988
-3.60175e-06
-9.64988e-05
-0.000257976
-3.92192e-06
-4.07934e-05
-0.000268306
-3.83171e-06
-0.000182796
-2.27054e-06
-2.21671e-05
0.000143671
-3.40151e-06
-5.61712e-05
0.000222551
-3.42511e-06
-9.08583e-05
0.000228866
-3.12626e-06
-0.000123687
0.000217817
-2.74113e-06
-0.000154008
0.000201137
-2.38914e-06
-0.000181534
0.000180895
-2.07615e-06
-0.000206095
0.000157663
-1.81144e-06
-0.000227577
0.000131709
-1.60774e-06
-0.000245854
0.000103107
-1.47753e-06
-0.000260719
7.17375e-05
-1.43384e-06
-0.000271787
3.72945e-05
-1.49249e-06
-0.000278504
-6.44669e-07
-1.6779e-06
-0.000279666
-4.32703e-05
-2.0111e-06
-0.00027366
-9.08049e-05
-2.52148e-06
-0.000258133
-0.000143836
-3.22825e-06
-0.000230093
-0.000201988
-4.11438e-06
-0.000186448
-0.000262681
-5.07029e-06
-0.000125841
-0.000317456
-5.83656e-06
-5.52238e-05
-0.000337469
-5.99156e-06
-0.000236152
-4.09956e-06
-2.54228e-05
0.000169822
-4.32845e-06
-6.42137e-05
0.00026255
-4.4306e-06
-0.000103434
0.000269192
-4.03355e-06
-0.000140242
0.000255565
-3.50088e-06
-0.000174025
0.00023568
-2.99608e-06
-0.000204609
0.000212063
-2.53956e-06
-0.00023198
0.000185458
-2.15067e-06
-0.0002562
0.000156219
-1.8477e-06
-0.000277336
0.000124428
-1.64561e-06
-0.000295374
8.98872e-05
-1.55902e-06
-0.000310113
5.21029e-05
-1.60397e-06
-0.000321054
1.03427e-05
-1.79645e-06
-0.000327114
-3.71126e-05
-2.25163e-06
-0.000326269
-9.14627e-05
-2.95097e-06
-0.000315313
-0.000154462
-3.98192e-06
-0.000289515
-0.000227245
-5.37968e-06
-0.000242914
-0.000308438
-7.06057e-06
-0.000170586
-0.000388507
-8.70493e-06
-7.9726e-05
-0.000426482
-9.47133e-06
-0.000313496
-7.5035e-06
-2.95735e-05
0.000200401
-5.629e-06
-7.41862e-05
0.000308747
-5.83048e-06
-0.000118678
0.000315104
-5.2652e-06
-0.000159894
0.000297958
-4.48961e-06
-0.000197336
0.000274033
-3.73641e-06
-0.000231018
0.000246397
-3.05127e-06
-0.000261152
0.000216014
-2.46859e-06
-0.000288056
0.00018335
-2.0126e-06
-0.000312078
0.00014852
-1.69842e-06
-0.000333515
0.000111276
-1.53943e-06
-0.000352501
7.09619e-05
-1.55557e-06
-0.000368786
2.64571e-05
-1.78862e-06
-0.000381732
-2.43367e-05
-2.29183e-06
-0.000389229
-8.40944e-05
-3.17816e-06
-0.000387385
-0.000156329
-4.60158e-06
-0.000369423
-0.000245028
-6.70627e-06
-0.00032504
-0.000352288
-9.53841e-06
-0.000242522
-0.000469898
-1.2817e-05
-0.000125693
-0.000541226
-1.50711e-05
-0.000436635
-1.40647e-05
-3.51067e-05
0.000236895
-7.51055e-06
-8.68704e-05
0.000362602
-7.8238e-06
-0.000137444
0.00036751
-6.95998e-06
-0.000183424
0.000345407
-5.77453e-06
-0.000224558
0.000316245
-4.61344e-06
-0.000261152
0.000283694
-3.5647e-06
-0.000293745
0.000248976
-2.68349e-06
-0.000322993
0.000212688
-1.99786e-06
-0.000349617
0.000175006
-1.51583e-06
-0.00037434
0.000135685
-1.23885e-06
-0.000397816
9.3983e-05
-1.17579e-06
-0.000420436
4.85131e-05
-1.36294e-06
-0.00044247
-2.92236e-06
-1.87564e-06
-0.000462332
-6.49864e-05
-2.89177e-06
-0.000476436
-0.000143004
-4.65711e-06
-0.000476429
-0.000245741
-7.54824e-06
-0.000446612
-0.000382516
-1.19684e-05
-0.000363706
-0.000552534
-1.79704e-05
-0.000218646
-0.00068462
-2.36342e-05
-0.000653713
-2.76153e-05
-4.30263e-05
0.000281823
-1.03231e-05
-0.000103716
0.000426065
-1.07125e-05
-0.00016111
0.000427276
-9.32314e-06
-0.000211977
0.000398108
-7.43922e-06
-0.000256553
0.000362084
-5.60004e-06
-0.000295557
0.000323419
-3.97029e-06
-0.000329951
0.000283618
-2.63419e-06
-0.000360813
0.000243406
-1.61541e-06
-0.000389312
0.000203045
-8.99053e-07
-0.000416715
0.000162372
-4.54997e-07
-0.000444434
0.000120758
-2.57468e-07
-0.000473957
7.68555e-05
-3.11221e-07
-0.0005062
2.78564e-05
-6.54133e-07
-0.000542612
-3.02703e-05
-1.39593e-06
-0.000581828
-0.000105783
-3.09724e-06
-0.000616079
-0.000213793
-6.34747e-06
-0.000625886
-0.000374999
-1.21969e-05
-0.000567619
-0.000612504
-2.17627e-05
-0.000399865
-0.000852317
-3.4048e-05
-0.00105643
-5.30331e-05
-5.35245e-05
0.000337768
-1.47798e-05
-0.000125691
0.000501884
-1.49486e-05
-0.000191202
0.000495872
-1.25728e-05
-0.000247151
0.000456388
-9.44381e-06
-0.000294595
0.00041104
-6.50817e-06
-0.000335008
0.000364562
-3.98943e-06
-0.00037003
0.000318699
-1.99119e-06
-0.000401242
0.000274147
-5.2084e-07
-0.000430252
0.000231151
5.16826e-07
-0.000458799
0.000189652
1.21338e-06
-0.000488975
0.000149312
1.66392e-06
-0.000523486
0.000109355
1.97417e-06
-0.000566556
6.83939e-05
2.20958e-06
-0.00062297
2.29088e-05
2.20463e-06
-0.000696066
-3.68148e-05
1.69645e-06
-0.000784157
-0.000130564
2.10197e-07
-0.000871514
-0.0002928
-3.93864e-06
-0.000873457
-0.00061514
-1.40601e-05
-0.000678246
-0.00104839
-3.20168e-05
-0.00174422
-8.14015e-05
-8.26788e-05
0.000423449
-2.15455e-05
-0.000163867
0.000587259
-2.23009e-05
-0.000233053
0.000568714
-1.79954e-05
-0.000290305
0.000516367
-1.28014e-05
-0.000338543
0.000461006
-7.77511e-06
-0.000379074
0.000405839
-3.57287e-06
-0.000413453
0.000352955
-3.70043e-07
-0.000443432
0.000303233
1.87142e-06
-0.000471019
0.000257253
3.32908e-06
-0.000498534
0.000215159
4.23857e-06
-0.000529106
0.000177345
4.86955e-06
-0.000566557
0.000143602
5.50547e-06
-0.00061687
0.000114569
6.56481e-06
-0.000688018
8.8624e-05
8.56708e-06
-0.000792911
6.10451e-05
1.25466e-05
-0.000933454
1.71893e-06
1.94042e-05
-0.0011036
-0.000128154
2.92342e-05
-0.00116212
-0.000558417
3.69633e-05
-0.000893822
-0.0013036
2.9406e-05
-0.00264181
-7.88722e-05
-7.36632e-05
0.000499321
-3.36232e-05
-0.000190151
0.000710267
-2.88709e-05
-0.00028064
0.000664637
-2.19934e-05
-0.0003483
0.000588475
-1.24839e-05
-0.000397606
0.000513263
-4.92303e-06
-0.000433262
0.000442878
8.98725e-07
-0.000459885
0.000379779
4.83304e-06
-0.000481152
0.000323686
7.38241e-06
-0.000499876
0.000274342
8.90833e-06
-0.000518027
0.000230966
9.81148e-06
-0.000538583
0.00019482
1.06389e-05
-0.000564825
0.000165834
1.19934e-05
-0.000604254
0.000148674
1.50511e-05
-0.00066774
0.000145119
2.16675e-05
-0.000775224
0.000160157
3.54625e-05
-0.000932343
0.00015228
6.27279e-05
-0.00113191
7.13892e-05
0.000109719
-0.00118244
-0.000493932
0.000160736
-0.000804104
-0.00163181
0.000158162
-0.00342799
-8.06648e-05
-0.000216193
0.000715979
-4.85085e-05
-0.000296986
0.000793726
-5.03184e-05
-0.000359184
0.000730849
-3.68402e-05
-0.000406198
0.000639582
-2.14079e-05
-0.000428532
0.000539268
-7.25363e-06
-0.00043574
0.000452541
3.24944e-06
-0.000434438
0.000379708
1.02203e-05
-0.000428592
0.000317884
1.4355e-05
-0.000421774
0.00026653
1.64667e-05
-0.000415408
0.000222654
1.72137e-05
-0.000413549
0.00019005
1.76658e-05
-0.000416191
0.000164284
1.87008e-05
-0.000429503
0.000156105
2.27634e-05
-0.000451282
0.000159126
3.30839e-05
-0.000490997
0.00019168
5.83308e-05
-0.000534392
0.000191785
0.000107611
-0.000560191
0.000111511
0.000198614
-0.000564309
-0.00045499
0.000287628
-0.000257611
-0.00187332
0.000238289
-0.00368024
-0.000179895
-0.000640081
0.00133414
-9.66696e-05
-0.000594139
0.000752248
-6.04854e-05
-0.000468785
0.000615691
-3.45211e-05
-0.000302796
0.000486924
-6.00293e-06
-0.000134734
0.000384696
1.20289e-05
2.19182e-05
0.000307599
2.4479e-05
0.000160761
0.000249782
3.17654e-05
0.000281363
0.000203458
3.47685e-05
0.000383584
0.000168033
3.51249e-05
0.000470413
0.000137404
3.31921e-05
0.000544152
0.000116136
3.09581e-05
0.000607792
9.88334e-05
2.86166e-05
0.000673336
8.69031e-05
2.89662e-05
0.000740681
8.62599e-05
3.42453e-05
0.000852701
7.39615e-05
5.30895e-05
0.000978315
6.31669e-05
8.91648e-05
0.00115469
-4.59087e-05
0.000169176
0.00119881
-0.000451696
0.000280077
0.000858187
-0.0015126
0.000156509
-0.00289201
-0.000342405
0.00130633
-0.000106542
0.00204033
-0.000109286
0.00264527
-0.000101006
0.00313069
-8.27367e-05
0.00352043
-6.06279e-05
0.00383603
-3.89717e-05
0.00409418
-1.90362e-05
0.00430458
-3.70723e-06
0.00447814
9.28444e-06
0.00461868
1.51188e-05
0.00473652
2.11649e-05
0.00483435
2.05012e-05
0.00492025
2.06894e-05
0.00500271
2.37792e-05
0.00507368
1.83817e-05
0.00513916
3.70147e-05
0.00509019
3.37873e-05
0.0046673
4.44345e-05
0.00313141
2.64514e-05
-0.0004456
-6.09397e-06
6.13203e-06
-3.40056e-07
-1.66232e-05
1.0736e-05
-2.7035e-07
-2.76592e-05
1.12723e-05
-2.06384e-07
-3.82149e-05
1.07926e-05
-1.53391e-07
-4.79645e-05
9.97166e-06