/*--------------------------------*- C++ -*----------------------------------*\
  =========                 |
  \\      /  F ield         | OpenFOAM: The Open Source CFD Toolbox
   \\    /   O peration     | Website:  https://openfoam.org
    \\  /    A nd           | Version:  10
     \\/     M anipulation  |
\*---------------------------------------------------------------------------*/
FoamFile
{
    format      ascii;
    class       volVectorField;
    location    "3";
    object      U;
}
// * * * * * * * * * * * * * * * * * * * * * * * * * * * * * * * * * * * * * //

dimensions      [0 1 -1 0 0 0 0];

internalField   nonuniform List<vector> 
8000
(
(-0.000119775 0.000127806 -1.1155e-05)
(-0.000622915 0.000236092 1.64972e-05)
(-0.0013423 0.000249819 2.33316e-05)
(-0.00200774 0.000242271 2.59817e-05)
(-0.00264671 0.00022819 2.51285e-05)
(-0.00323639 0.000209374 2.21924e-05)
(-0.00376057 0.00018565 1.78902e-05)
(-0.00420481 0.000156689 1.24396e-05)
(-0.00455454 0.000122267 5.83385e-06)
(-0.00479569 8.22936e-05 -1.82745e-06)
(-0.00491488 3.72654e-05 -1.01113e-05)
(-0.00489976 -1.23924e-05 -1.89958e-05)
(-0.00474063 -6.59823e-05 -2.83437e-05)
(-0.00443169 -0.00012165 -3.77736e-05)
(-0.00397238 -0.000177108 -4.67138e-05)
(-0.00336883 -0.000229499 -5.42909e-05)
(-0.00263707 -0.000275165 -5.89227e-05)
(-0.0018143 -0.000307989 -5.80307e-05)
(-0.000882849 -0.000307544 -4.98975e-05)
(-0.000189419 -0.000182418 -1.14735e-05)
(-0.000230085 0.0006545 -4.72146e-05)
(-0.0010354 0.00105377 -2.05032e-05)
(-0.00212157 0.00109782 -1.19473e-05)
(-0.00312939 0.00105671 -6.09341e-06)
(-0.00409007 0.00098525 -3.34409e-06)
(-0.00497004 0.000891501 -2.32541e-06)
(-0.00574507 0.000776271 -2.32712e-06)
(-0.0063941 0.000639658 -3.21788e-06)
(-0.00689679 0.000482027 -5.00516e-06)
(-0.00723374 0.000304199 -7.69806e-06)
(-0.0073874 0.000107808 -1.13259e-05)
(-0.00734266 -0.000104719 -1.59631e-05)
(-0.0070872 -0.000328245 -2.11953e-05)
(-0.00661418 -0.000556328 -2.68488e-05)
(-0.00592455 -0.000780385 -3.24008e-05)
(-0.0050282 -0.000989526 -3.69327e-05)
(-0.00394882 -0.00116991 -3.86358e-05)
(-0.00273754 -0.00129822 -3.47088e-05)
(-0.00137649 -0.00129981 -2.39086e-05)
(-0.000322491 -0.000844752 1.8745e-05)
(-0.000256485 0.00143333 -6.10953e-05)
(-0.00114513 0.0021988 -3.45382e-05)
(-0.00233718 0.00227551 -2.5308e-05)
(-0.00344118 0.00218341 -1.82493e-05)
(-0.00449287 0.00202811 -1.41652e-05)
(-0.00545626 0.00182604 -1.16821e-05)
(-0.00630559 0.00157995 -1.01277e-05)
(-0.00701851 0.00129115 -9.41457e-06)
(-0.00757334 0.000961302 -9.60646e-06)
(-0.00794961 0.000592853 -1.07803e-05)
(-0.00812838 0.000189398 -1.29389e-05)
(-0.00809124 -0.000243569 -1.61757e-05)
(-0.00782351 -0.000696891 -2.02981e-05)
(-0.00731703 -0.00115783 -2.50944e-05)
(-0.00657019 -0.00160942 -2.99966e-05)
(-0.00559108 -0.00203034 -3.40114e-05)
(-0.00440324 -0.00239342 -3.51366e-05)
(-0.003062 -0.00265268 -3.02665e-05)
(-0.00154611 -0.00266432 -1.82037e-05)
(-0.000364562 -0.0017963 2.77466e-05)
(-0.000269293 0.00222181 -7.24741e-05)
(-0.00120969 0.00336764 -4.58704e-05)
(-0.0024737 0.00347718 -3.61447e-05)
(-0.00364357 0.00333368 -2.82288e-05)
(-0.00476008 0.00309513 -2.32421e-05)
(-0.0057859 0.00278608 -1.97942e-05)
(-0.00669479 0.00241093 -1.72231e-05)
(-0.00746388 0.00197187 -1.54754e-05)
(-0.00807067 0.00147139 -1.46528e-05)
(-0.00849324 0.000912966 -1.48736e-05)
(-0.00871077 0.000301941 -1.62221e-05)
(-0.00870262 -0.000353557 -1.89302e-05)
(-0.00844956 -0.00104229 -2.25978e-05)
(-0.00793767 -0.00174585 -2.71083e-05)
(-0.00716055 -0.0024392 -3.19339e-05)
(-0.00612182 -0.00308977 -3.5995e-05)
(-0.00484209 -0.00365529 -3.70098e-05)
(-0.00338029 -0.00406405 -3.1416e-05)
(-0.00171197 -0.00409637 -1.7918e-05)
(-0.000404289 -0.00279196 3.27148e-05)
(-0.000284664 0.00306973 -8.3251e-05)
(-0.00128776 0.00462588 -5.59941e-05)
(-0.00264014 0.00477112 -4.57637e-05)
(-0.00389192 0.00457402 -3.71402e-05)
(-0.00508958 0.00424878 -3.15209e-05)
(-0.00619437 0.00382876 -2.74786e-05)
(-0.00717974 0.00332007 -2.43421e-05)
(-0.00802251 0.00272566 -2.20815e-05)
(-0.00869944 0.00204851 -2.08311e-05)
(-0.00918714 0.00129243 -2.07567e-05)
(-0.00946206 0.000463159 -2.20037e-05)
(-0.00950001 -0.000429993 -2.47481e-05)
(-0.00927615 -0.00137346 -2.86634e-05)
(-0.00876871 -0.00234467 -3.36849e-05)
(-0.0079626 -0.00331116 -3.92346e-05)
(-0.00685292 -0.00422817 -4.40977e-05)
(-0.0054542 -0.005035 -4.55961e-05)
(-0.00382889 -0.00562759 -3.94283e-05)
(-0.00194901 -0.00569714 -2.39809e-05)
(-0.000462418 -0.00391038 3.41008e-05)
(-0.000305052 0.00398729 -9.55084e-05)
(-0.00138958 0.00599109 -6.70943e-05)
(-0.00285614 0.00617612 -5.6281e-05)
(-0.00421363 0.00592321 -4.69207e-05)
(-0.0055156 0.00550792 -4.07071e-05)
(-0.00672171 0.00497331 -3.61721e-05)
(-0.00780535 0.00432736 -3.26315e-05)
(-0.00874334 0.00357361 -3.00802e-05)
(-0.00951203 0.00271497 -2.86852e-05)
(-0.0100867 0.00175468 -2.86558e-05)
(-0.010441 0.000697599 -3.02045e-05)
(-0.0105467 -0.000447777 -3.35923e-05)
(-0.0103711 -0.00166836 -3.83761e-05)
(-0.00988159 -0.00293871 -4.46708e-05)
(-0.00905025 -0.00422001 -5.18515e-05)
(-0.00785805 -0.00545483 -5.84895e-05)
(-0.00630753 -0.00656001 -6.13362e-05)
(-0.00446255 -0.00738937 -5.49374e-05)
(-0.00228938 -0.00752427 -3.69851e-05)
(-0.000547945 -0.00519648 3.22207e-05)
(-0.000330832 0.00499215 -0.000110825)
(-0.00151765 0.00748994 -8.09579e-05)
(-0.00312683 0.0077195 -6.94257e-05)
(-0.00461539 0.00740753 -5.91262e-05)
(-0.00604592 0.0068977 -5.21407e-05)
(-0.00737637 0.00624409 -4.69754e-05)
(-0.00858057 0.0054569 -4.29512e-05)
(-0.00963607 0.00454013 -4.01027e-05)
(-0.0105196 0.00349605 -3.86438e-05)
(-0.0112057 0.00232616 -3.88478e-05)
(-0.0116657 0.00103258 -4.10324e-05)
(-0.011867 -0.000379255 -4.56124e-05)
(-0.0117681 -0.00190068 -5.19275e-05)
(-0.0113214 -0.00350671 -6.04734e-05)
(-0.0104807 -0.00515543 -7.0589e-05)
(-0.00920434 -0.00677755 -8.05645e-05)
(-0.00747237 -0.00826328 -8.63123e-05)
(-0.00534337 -0.0094105 -8.06313e-05)
(-0.00277282 -0.00965819 -5.97475e-05)
(-0.000673048 -0.00671628 2.53714e-05)
(-0.000362322 0.00610604 -0.000130555)
(-0.00167421 0.00915488 -9.90902e-05)
(-0.00345681 0.00943362 -8.66149e-05)
(-0.0051027 0.00905722 -7.498e-05)
(-0.0066862 0.00844622 -6.68213e-05)
(-0.00816354 0.0076676 -6.06589e-05)
(-0.00950991 0.00673444 -5.58612e-05)
(-0.0107048 0.00565136 -5.25298e-05)
(-0.0117267 0.0044195 -5.09468e-05)
(-0.0125508 0.0030373 -5.14741e-05)
(-0.0131471 0.00150174 -5.45934e-05)
(-0.0134806 -0.000189232 -6.11326e-05)
(-0.0134992 -0.00203205 -6.97723e-05)
(-0.0131371 -0.00401261 -8.20298e-05)
(-0.0123233 -0.00609135 -9.71734e-05)
(-0.0109806 -0.00819127 -0.000113204)
(-0.0090492 -0.0101738 -0.000124817)
(-0.00656564 -0.0117634 -0.000122219)
(-0.00346441 -0.0122046 -9.85184e-05)
(-0.000859531 -0.0085648 7.98947e-06)
(-0.000400319 0.00735442 -0.000156372)
(-0.00186308 0.0110233 -0.000123308)
(-0.00385303 0.0113546 -0.0001095)
(-0.00568352 0.0109047 -9.58277e-05)
(-0.00744401 0.0101824 -8.57561e-05)
(-0.00908936 0.00927011 -7.79063e-05)
(-0.0105975 0.00818506 -7.17631e-05)
(-0.0119518 0.00693294 -6.75363e-05)
(-0.0131344 0.00551363 -6.56008e-05)
(-0.0141243 0.00392137 -6.64206e-05)
(-0.014893 0.00214551 -7.05558e-05)
(-0.0154016 0.000172427 -7.84349e-05)
(-0.0155923 -0.00200612 -9.20854e-05)
(-0.0153817 -0.00439659 -0.000110438)
(-0.0146623 -0.00697354 -0.000134001)
(-0.0133062 -0.00966355 -0.000160827)
(-0.0111856 -0.0123031 -0.000184053)
(-0.00827826 -0.0145271 -0.000189905)
(-0.00447878 -0.0153006 -0.000164826)
(-0.00115094 -0.0108841 -3.00408e-05)
(-0.00044666 0.00876891 -0.00019074)
(-0.00209113 0.0131399 -0.000156209)
(-0.00432692 0.0135236 -0.000140339)
(-0.0063703 0.0129849 -0.000123381)
(-0.00833068 0.0121352 -0.000110079)
(-0.0101623 0.0110764 -9.93241e-05)
(-0.011848 0.00983119 -9.08254e-05)
(-0.0133772 0.00840765 -8.49509e-05)
(-0.0147393 0.00680473 -8.21964e-05)
(-0.01592 0.00501199 -8.31652e-05)
(-0.0168971 0.00300922 -8.84919e-05)
(-0.0176332 0.000767742 -9.84498e-05)
(-0.0180693 -0.00174533 -0.000119013)
(-0.0181058 -0.00456604 -0.000146604)
(-0.017594 -0.00770378 -0.000183807)
(-0.016336 -0.0111127 -0.000229456)
(-0.014097 -0.014623 -0.000275184)
(-0.0107202 -0.0177751 -0.000301343)
(-0.00602582 -0.0191224 -0.000280063)
(-0.00163717 -0.013897 -0.000111478)
(-0.000505389 0.0103917 -0.000237611)
(-0.002371 0.0155607 -0.000201805)
(-0.00489759 0.0159891 -0.000182438)
(-0.00718316 0.0153355 -0.000159921)
(-0.00936387 0.014333 -0.000141048)
(-0.0113951 0.0131074 -0.000125284)
(-0.0132674 0.0116895 -0.000112718)
(-0.0149794 0.0100914 -0.000103927)
(-0.0165314 0.00831237 -9.95356e-05)
(-0.0179211 0.00633779 -0.000100341)
(-0.0191386 0.00413707 -0.000107338)
(-0.0201575 0.00166222 -0.000122274)
(-0.0209275 -0.00115159 -0.000149792)
(-0.0213418 -0.00438663 -0.000190215)
(-0.0212139 -0.00811824 -0.00024851)
(-0.0202602 -0.0123718 -0.000325814)
(-0.0180923 -0.0170204 -0.000413739)
(-0.0142794 -0.0215379 -0.000486121)
(-0.00850637 -0.0238844 -0.000483999)
(-0.00251003 -0.0179764 -0.000294537)
(-0.000585366 0.012284 -0.000303753)
(-0.00272623 0.0183588 -0.000266571)
(-0.0055973 0.0188093 -0.000240782)
(-0.0081547 0.0179968 -0.000208476)
(-0.0105714 0.0168012 -0.000179854)
(-0.0128077 0.015377 -0.000155476)
(-0.0148652 0.0137664 -0.000136017)
(-0.0167556 0.0119874 -0.000122263)
(-0.0184942 0.0100421 -0.00011489)
(-0.0200967 0.00791406 -0.000114808)
(-0.0215741 0.00556415 -0.000123553)
(-0.0229234 0.00292459 -0.00014403)
(-0.0241198 -0.000108092 -0.000179467)
(-0.0250746 -0.00367349 -0.000237012)
(-0.025586 -0.00796213 -0.000325929)
(-0.0252867 -0.0131359 -0.000453168)
(-0.0235961 -0.0192174 -0.000615798)
(-0.0195895 -0.0257165 -0.000785714)
(-0.0127137 -0.0297793 -0.000848966)
(-0.00419421 -0.0238027 -0.00072417)
(-0.000706978 0.0145479 -0.000401694)
(-0.00320246 0.0216403 -0.000361967)
(-0.0064806 0.0220581 -0.000323347)
(-0.00933751 0.021012 -0.000272959)
(-0.0119973 0.0195591 -0.000226962)
(-0.0144315 0.0178868 -0.000187793)
(-0.0166578 0.0160508 -0.000156868)
(-0.0187045 0.0140775 -0.00013501)
(-0.0206055 0.0119747 -0.000122595)
(-0.0223998 0.00972853 -0.000120208)
(-0.0241288 0.00729709 -0.000129355)
(-0.0258307 0.00459725 -0.000153034)
(-0.0275266 0.001487 -0.000194718)
(-0.029198 -0.00224111 -0.000277405)
(-0.030686 -0.00689458 -0.000403275)
(-0.031587 -0.0128976 -0.000597666)
(-0.0311461 -0.0206283 -0.000876496)
(-0.0276445 -0.0298845 -0.00122685)
(-0.0202376 -0.0368229 -0.00148286)
(-0.00769552 -0.0327418 -0.00173624)
(-0.000917179 0.0172903 -0.000554162)
(-0.00389519 0.0255201 -0.000505657)
(-0.00764565 0.025816 -0.000442189)
(-0.010818 0.0244218 -0.000357921)
(-0.0137101 0.0226126 -0.00028032)
(-0.0163162 0.0206151 -0.000215499)
(-0.0186736 0.0185019 -0.00016577)
(-0.0208305 0.0163083 -0.000131293)
(-0.0228416 0.0140498 -0.000111196)
(-0.0247723 0.011722 -0.000104858)
(-0.0267033 0.00929453 -0.00011322)
(-0.0287313 0.00669622 -0.000140022)
(-0.0309557 0.00378582 -0.00019076)
(-0.0334544 0.000282358 -0.000264532)
(-0.0362529 -0.00430588 -0.000414827)
(-0.039128 -0.0107573 -0.000672885)
(-0.0412781 -0.0200553 -0.00108156)
(-0.0398886 -0.0329768 -0.0016961)
(-0.0340459 -0.0445847 -0.00238035)
(-0.0152083 -0.0470683 -0.00388392)
(-0.00126841 0.0211434 -0.000825201)
(-0.00489635 0.0302481 -0.000731919)
(-0.00921545 0.0301236 -0.000610881)
(-0.01272 0.028136 -0.00045678)
(-0.015814 0.0258467 -0.000322933)
(-0.0185376 0.0234565 -0.000216669)
(-0.0209574 0.0210213 -0.000138506)
(-0.0231471 0.0185748 -8.57604e-05)
(-0.0251795 0.0161473 -5.46917e-05)
(-0.0271394 0.0137535 -4.20415e-05)
(-0.0291346 0.0113855 -4.5156e-05)
(-0.031313 0.00898789 -6.27905e-05)
(-0.0339053 0.00643554 -9.63444e-05)
(-0.037243 0.00343962 -0.000166754)
(-0.0416787 -0.000568023 -0.000295982)
(-0.0474132 -0.00668202 -0.000481353)
(-0.0542275 -0.0165495 -0.000823274)
(-0.0578146 -0.033252 -0.00152223)
(-0.0574316 -0.0517241 -0.00246581)
(-0.0289887 -0.0713819 -0.00653113)
(-0.00244851 0.0250384 -0.00125829)
(-0.00724816 0.0364894 -0.00120025)
(-0.0116636 0.0358015 -0.000937979)
(-0.0152902 0.0331299 -0.000649935)
(-0.0183882 0.029995 -0.000385095)
(-0.0211143 0.0268076 -0.000179794)
(-0.0235096 0.0237333 -3.71338e-05)
(-0.0256379 0.0208377 5.21471e-05)
(-0.0275726 0.0181529 9.86578e-05)
(-0.0294185 0.0156947 0.000114593)
(-0.0313254 0.0134935 0.000109609)
(-0.0335054 0.0115648 9.02662e-05)
(-0.0362844 0.00992247 7.29795e-05)
(-0.0401696 0.00843429 8.66069e-05)
(-0.0459761 0.0066567 0.000218718)
(-0.0545816 0.00305705 0.000584857)
(-0.0674806 -0.00511928 0.00136358)
(-0.0785579 -0.0280623 0.00208143)
(-0.0888768 -0.0608488 0.00278772)
(-0.0451406 -0.118857 -0.00595544)
(-0.00202933 0.0367715 -0.00220709)
(-0.00786468 0.0412893 -0.00149319)
(-0.0145542 0.0391777 -0.00107428)
(-0.0186207 0.0348389 -0.000474925)
(-0.021972 0.0311564 -6.44987e-05)
(-0.0244914 0.0277781 0.00021145)
(-0.026446 0.0246693 0.000371779)
(-0.0280533 0.0217751 0.00045152)
(-0.0294465 0.0191045 0.000478255)
(-0.0307185 0.0166828 0.000472618)
(-0.031979 0.0146096 0.00046031)
(-0.0333833 0.0129488 0.000466303)
(-0.0352838 0.0119101 0.000555167)
(-0.0383521 0.0115174 0.000849977)
(-0.0440772 0.0117458 0.00164608)
(-0.0540606 0.0104383 0.00362179)
(-0.0752078 0.00406023 0.0074123)
(-0.0935091 -0.0281573 0.0121049)
(-0.116727 -0.0877201 0.0149758)
(-0.047779 -0.200996 -0.00467211)
(-0.011486 0.0360436 -0.00347777)
(-0.0225953 0.0582373 -0.00339399)
(-0.0204112 0.0525732 -0.00223808)
(-0.0232814 0.0463974 -0.00108761)
(-0.0237967 0.0396898 -0.000107004)
(-0.0241837 0.0336363 0.000528551)
(-0.0243464 0.0284759 0.000894184)
(-0.0244371 0.02414 0.00106014)
(-0.0244858 0.0205607 0.00109798)
(-0.024489 0.0176225 0.00104991)
(-0.0245693 0.0154193 0.000982361)
(-0.0247357 0.013963 0.000928895)
(-0.0253708 0.013724 0.00105144)
(-0.0266183 0.0150268 0.00159137)
(-0.0305202 0.0187002 0.00330495)
(-0.0358847 0.0216108 0.00720472)
(-0.0560658 0.0196027 0.0153863)
(-0.0661302 -0.0289778 0.0233877)
(-0.107293 -0.124775 0.0212425)
(-0.0240663 -0.288047 -0.0154863)
(-0.0465063 0.0941066 -0.00921634)
(-0.0318977 0.048922 -0.00410458)
(-0.0248353 0.0419775 -0.00158389)
(-0.0105863 0.0341473 0.000884202)
(0.000675138 0.0272956 0.00223971)
(0.0105623 0.0224875 0.00295741)
(0.0186001 0.0189854 0.00318605)
(0.0251002 0.0161622 0.00311162)
(0.0302446 0.0139028 0.00287664)
(0.0346163 0.0119538 0.00251559)
(0.0380637 0.010642 0.00218035)
(0.0416549 0.00950107 0.00185501)
(0.0445098 0.00943617 0.0017222)
(0.0492599 0.00930466 0.00194822)
(0.0510511 0.0104415 0.00332484)
(0.0633177 0.00743137 0.00635312)
(0.0494365 -0.0047304 0.0144824)
(0.0692045 -0.0624537 0.0245892)
(-0.0195682 -0.187418 0.00997396)
(0.0254634 -0.327692 -0.0373526)
(0.118267 0.112293 -0.0105301)
(0.146581 0.0608872 -0.00989745)
(0.219186 0.0409277 -0.00854546)
(0.26278 0.0281622 -0.006259)
(0.293903 0.0195237 -0.00391839)
(0.317264 0.0137468 -0.00198697)
(0.334377 0.0100187 -0.000458077)
(0.347132 0.00754835 0.000569691)
(0.355901 0.00602514 0.00131734)
(0.363481 0.00487015 0.00147185)
(0.367478 0.00417705 0.0017182)
(0.374181 0.00361772 0.00136109)
(0.374265 0.00290176 0.00141402)
(0.384365 0.00314598 0.00126051)
(0.37695 0.000695227 0.00102761)
(0.395764 0.00173112 0.0029669)
(0.362904 -0.00844257 0.00180643)
(0.383069 -0.0202074 0.00779611)
(0.23379 -0.0610188 -0.00232569)
(0.17031 -0.13374 -0.0595183)
(-0.0001997 0.000202739 -2.67317e-05)
(-0.00098893 0.000388194 9.63277e-06)
(-0.00209262 0.000411741 2.06511e-05)
(-0.00310387 0.000396421 2.62444e-05)
(-0.00406301 0.000369124 2.64458e-05)
(-0.00493821 0.000333588 2.31691e-05)
(-0.00570696 0.000289966 1.74499e-05)
(-0.00634916 0.000238123 9.6818e-06)
(-0.00684478 0.000178196 1.24736e-07)
(-0.00717459 0.000110412 -1.12652e-05)
(-0.00732154 3.53178e-05 -2.41723e-05)
(-0.00727082 -4.61739e-05 -3.83926e-05)
(-0.00701101 -0.000132256 -5.3389e-05)
(-0.00653624 -0.000220287 -6.84628e-05)
(-0.00584776 -0.000306892 -8.25862e-05)
(-0.00495529 -0.00038789 -9.42405e-05)
(-0.00388078 -0.000457813 -0.0001009)
(-0.00267309 -0.000506538 -9.88017e-05)
(-0.00130442 -0.000497598 -8.58463e-05)
(-0.000281973 -0.000279465 -2.89062e-05)
(-0.000397753 0.00100827 -8.16477e-05)
(-0.00171372 0.0016851 -4.68052e-05)
(-0.00344605 0.00176081 -3.26284e-05)
(-0.00504177 0.00168551 -2.18504e-05)
(-0.00654524 0.00155762 -1.60646e-05)
(-0.00790696 0.00139272 -1.33798e-05)
(-0.00909132 0.0011934 -1.2767e-05)
(-0.0100676 0.000960998 -1.3979e-05)
(-0.0108068 0.000697346 -1.69717e-05)
(-0.0112825 0.00040477 -2.178e-05)
(-0.011472 8.63665e-05 -2.84283e-05)
(-0.0113563 -0.000253141 -3.69524e-05)
(-0.0109214 -0.000605454 -4.65844e-05)
(-0.0101621 -0.000960744 -5.68376e-05)
(-0.009083 -0.00130621 -6.66558e-05)
(-0.00770089 -0.00162592 -7.43495e-05)
(-0.00605026 -0.00189924 -7.69634e-05)
(-0.00420091 -0.002088 -7.03427e-05)
(-0.0021252 -0.0020608 -5.31422e-05)
(-0.000505659 -0.00127595 9.70498e-06)
(-0.000449528 0.00218364 -0.000105043)
(-0.00191819 0.00347344 -7.13976e-05)
(-0.00383867 0.00360572 -5.60061e-05)
(-0.00560452 0.00344267 -4.30563e-05)
(-0.00726644 0.00317213 -3.49393e-05)
(-0.00877075 0.00282524 -2.97518e-05)
(-0.0100792 0.00240867 -2.65076e-05)
(-0.011159 0.00192658 -2.50496e-05)
(-0.011979 0.00138354 -2.54492e-05)
(-0.0125114 0.000785189 -2.78239e-05)
(-0.0127313 0.000138765 -3.21774e-05)
(-0.0126163 -0.000545917 -3.85418e-05)
(-0.0121496 -0.0012541 -4.65068e-05)
(-0.0113241 -0.00196633 -5.55412e-05)
(-0.010142 -0.00265751 -6.45035e-05)
(-0.0086181 -0.00329653 -7.15498e-05)
(-0.00678744 -0.00384296 -7.33838e-05)
(-0.00472581 -0.00422209 -6.5371e-05)
(-0.00240072 -0.00418303 -4.63295e-05)
(-0.000575156 -0.002694 2.0741e-05)
(-0.000476412 0.00336822 -0.000125872)
(-0.00203927 0.00529295 -9.3305e-05)
(-0.00408445 0.0054817 -7.6999e-05)
(-0.00596324 0.00522942 -6.2362e-05)
(-0.00773354 0.00481615 -5.24511e-05)
(-0.00933948 0.00428824 -4.53687e-05)
(-0.0107419 0.00365612 -4.01635e-05)
(-0.0119072 0.00292633 -3.67567e-05)
(-0.0128034 0.00210571 -3.53049e-05)
(-0.0134004 0.00120236 -3.59938e-05)
(-0.0136714 0.000226811 -3.89451e-05)
(-0.0135902 -0.000806662 -4.44516e-05)
(-0.0131344 -0.00187897 -5.17999e-05)
(-0.0122897 -0.00296205 -6.05862e-05)
(-0.0110518 -0.00401883 -6.97016e-05)
(-0.00942987 -0.00500193 -7.71202e-05)
(-0.00745503 -0.0058487 -7.90554e-05)
(-0.0052079 -0.00644323 -7.01337e-05)
(-0.00265135 -0.00640419 -4.90951e-05)
(-0.000635202 -0.00416925 2.4628e-05)
(-0.000508387 0.00463695 -0.000146711)
(-0.00218388 0.00724402 -0.000114503)
(-0.00437994 0.00749291 -9.72063e-05)
(-0.00639677 0.00714645 -8.10173e-05)
(-0.00830039 0.00658339 -6.96281e-05)
(-0.0100326 0.00586645 -6.11208e-05)
(-0.0115538 0.00500997 -5.45614e-05)
(-0.0128299 0.0040228 -4.99396e-05)
(-0.0138279 0.00291355 -4.74951e-05)
(-0.0145159 0.00169181 -4.75134e-05)
(-0.0148635 0.000369667 -5.02301e-05)
(-0.0148396 -0.00103595 -5.58741e-05)
(-0.0144142 -0.00250191 -6.38741e-05)
(-0.0135625 -0.00399341 -7.3896e-05)
(-0.0122688 -0.00546199 -8.47202e-05)
(-0.0105307 -0.00684242 -9.40353e-05)
(-0.00837149 -0.0080449 -9.73424e-05)
(-0.00587626 -0.00890234 -8.80437e-05)
(-0.00300287 -0.00888131 -6.43482e-05)
(-0.000720864 -0.00581933 2.07261e-05)
(-0.000550639 0.0060088 -0.000170851)
(-0.00237236 0.0093582 -0.000138519)
(-0.00476323 0.0096722 -0.000120013)
(-0.00695794 0.00922544 -0.000102071)
(-0.00903264 0.00850421 -8.91071e-05)
(-0.0109266 0.00758918 -7.91847e-05)
(-0.0125999 0.00649904 -7.13962e-05)
(-0.0140187 0.00524474 -6.58107e-05)
(-0.0151497 0.00383598 -6.27587e-05)
(-0.0159594 0.00228252 -6.26313e-05)
(-0.0164136 0.00059612 -6.58023e-05)
(-0.0164754 -0.0012067 -7.2665e-05)
(-0.0161043 -0.00310197 -8.25369e-05)
(-0.015261 -0.0050502 -9.53361e-05)
(-0.0139122 -0.00699292 -0.000109741)
(-0.0120367 -0.00884593 -0.000123014)
(-0.00964182 -0.0104861 -0.000129621)
(-0.00681399 -0.0116802 -0.000121017)
(-0.00350317 -0.011709 -9.41511e-05)
(-0.000845209 -0.00771294 8.18473e-06)
(-0.000604502 0.00751211 -0.000201092)
(-0.00261082 0.0116785 -0.000168552)
(-0.00524593 0.0120628 -0.000148473)
(-0.00766189 0.0115069 -0.000128222)
(-0.00994789 0.0106162 -0.000113148)
(-0.0120404 0.00949145 -0.000101344)
(-0.0139003 0.0081565 -9.19759e-05)
(-0.015495 0.0066244 -8.52318e-05)
(-0.0167922 0.00490507 -8.15692e-05)
(-0.0177578 0.00300673 -8.15303e-05)
(-0.0183546 0.000938026 -8.57023e-05)
(-0.0185395 -0.00128834 -9.47482e-05)
(-0.0182593 -0.00365263 -0.000107823)
(-0.0174552 -0.00611569 -0.000125384)
(-0.0160685 -0.00861301 -0.000146051)
(-0.014047 -0.011042 -0.000166558)
(-0.0113681 -0.0132393 -0.000179857)
(-0.00811003 -0.0148839 -0.000174405)
(-0.00420812 -0.0150184 -0.000144433)
(-0.00102477 -0.00995075 -1.72122e-05)
(-0.000671297 0.00918017 -0.000240127)
(-0.00290512 0.0142551 -0.000207632)
(-0.00583888 0.014714 -0.000185372)
(-0.00852192 0.0140358 -0.000161803)
(-0.0110603 0.0129596 -0.000143571)
(-0.0133879 0.0116099 -0.000128894)
(-0.0154679 0.0100167 -0.000117105)
(-0.0172711 0.00819547 -0.00010858)
(-0.0187683 0.00615563 -0.000103951)
(-0.0199274 0.00390182 -0.000103971)
(-0.0207096 0.0014361 -0.000109544)
(-0.0210669 -0.00123789 -0.000121959)
(-0.0209325 -0.00411142 -0.000139839)
(-0.0202226 -0.00715455 -0.000164986)
(-0.0188429 -0.0103053 -0.000196044)
(-0.0166933 -0.013448 -0.000229253)
(-0.0136966 -0.0163741 -0.000255453)
(-0.00989984 -0.0186463 -0.000258582)
(-0.00521059 -0.0189848 -0.000227079)
(-0.00129027 -0.0126766 -6.55312e-05)
(-0.000753313 0.011051 -0.000291388)
(-0.00326408 0.0171446 -0.000259525)
(-0.00655744 0.0176793 -0.000234044)
(-0.009556 0.0168586 -0.000205438)
(-0.0123879 0.0155746 -0.00018222)
(-0.0149852 0.0139796 -0.000162923)
(-0.0173158 0.0121119 -0.000147202)
(-0.0193572 0.00999023 -0.000135711)
(-0.021087 0.00762295 -0.00012932)
(-0.0224785 0.00500905 -0.000129026)
(-0.0234954 0.00213995 -0.000135999)
(-0.0240881 -0.000996213 -0.000151393)
(-0.0241771 -0.00441223 -0.000177816)
(-0.0236507 -0.00810065 -0.000214726)
(-0.0223679 -0.0120186 -0.000262482)
(-0.0201565 -0.016052 -0.000317461)
(-0.016846 -0.01995 -0.000367976)
(-0.0124002 -0.0231279 -0.000391161)
(-0.00667505 -0.0238462 -0.000363264)
(-0.00170229 -0.0161102 -0.000156385)
(-0.000854662 0.0131703 -0.000359877)
(-0.00370187 0.0204127 -0.000329559)
(-0.00742473 0.021018 -0.000299002)
(-0.0107901 0.020024 -0.00026242)
(-0.0139556 0.0185 -0.000231105)
(-0.0168529 0.0166321 -0.000204253)
(-0.0194587 0.0144698 -0.000182078)
(-0.0217615 0.0120365 -0.000165625)
(-0.023751 0.0093398 -0.000156051)
(-0.0254119 0.00637115 -0.000154654)
(-0.0267163 0.00310705 -0.000162919)
(-0.0276205 -0.000488917 -0.000182438)
(-0.0280384 -0.00445896 -0.000219946)
(-0.027831 -0.00884334 -0.000273733)
(-0.0268023 -0.0136454 -0.000347259)
(-0.0246802 -0.018785 -0.000438502)
(-0.0211442 -0.023992 -0.000533789)
(-0.0159679 -0.0285144 -0.000600858)
(-0.00891242 -0.029932 -0.000590353)
(-0.00239023 -0.0206209 -0.00033172)
(-0.000982935 0.0155968 -0.000453406)
(-0.00424178 0.0241392 -0.000425751)
(-0.00847631 0.0247969 -0.000386695)
(-0.0122625 0.0235818 -0.000337033)
(-0.0157982 0.0217709 -0.000292342)
(-0.0190181 0.0195917 -0.000253089)
(-0.0219131 0.017109 -0.000220385)
(-0.024489 0.0143529 -0.000195783)
(-0.0267542 0.0113312 -0.000180715)
(-0.0287131 0.00802718 -0.000176771)
(-0.0303573 0.00439901 -0.000185829)
(-0.0316558 0.000378377 -0.000210499)
(-0.0325335 -0.00411914 -0.000261065)
(-0.0328399 -0.00921003 -0.000337232)
(-0.0323207 -0.0149888 -0.000448364)
(-0.0305809 -0.0214717 -0.000597474)
(-0.0270813 -0.0284365 -0.000772461)
(-0.0212065 -0.0349843 -0.000931904)
(-0.0125531 -0.037696 -0.000974015)
(-0.00365175 -0.0268839 -0.000689011)
(-0.00115258 0.0184106 -0.000584827)
(-0.00492308 0.0284225 -0.000560598)
(-0.00976777 0.029092 -0.000506588)
(-0.0140305 0.0275816 -0.000434832)
(-0.0179657 0.0254155 -0.000367769)
(-0.0215177 0.0228712 -0.000308169)
(-0.0246994 0.0200331 -0.000258504)
(-0.0275411 0.0169416 -0.000220865)
(-0.0300786 0.0136062 -0.000196775)
(-0.0323459 0.0100039 -0.000187892)
(-0.034367 0.00607462 -0.000196792)
(-0.0361405 0.00171634 -0.000228479)
(-0.0376291 -0.00321863 -0.000289171)
(-0.0387042 -0.00894871 -0.000391673)
(-0.0390801 -0.0157184 -0.00055293)
(-0.0382418 -0.023747 -0.000787611)
(-0.0353734 -0.0330146 -0.00109624)
(-0.0291624 -0.0425942 -0.0014381)
(-0.0189394 -0.0476914 -0.00162654)
(-0.00620467 -0.036265 -0.00145963)
(-0.00139326 0.0217382 -0.000776631)
(-0.00581435 0.0334003 -0.00075507)
(-0.0113856 0.0339934 -0.000673231)
(-0.0161792 0.0320706 -0.000562832)
(-0.0205298 0.0294498 -0.000457839)
(-0.0244032 0.0264646 -0.0003649)
(-0.0278442 0.0232232 -0.000288299)
(-0.0309171 0.019779 -0.00023043)
(-0.0336929 0.0161467 -0.000192227)
(-0.0362456 0.0123003 -0.000174457)
(-0.0386458 0.0081663 -0.000179115)
(-0.0409501 0.00360845 -0.000211136)
(-0.0432001 -0.0015928 -0.000278214)
(-0.0453436 -0.00773967 -0.000410237)
(-0.047144 -0.015316 -0.000623966)
(-0.0480547 -0.0249109 -0.000963724)
(-0.0470006 -0.0369936 -0.0014677)
(-0.0416041 -0.0509561 -0.002128)
(-0.0309045 -0.0603775 -0.00269187)
(-0.0118337 -0.0517799 -0.00316794)
(-0.00176808 0.0256683 -0.00106742)
(-0.00705335 0.0391998 -0.0010406)
(-0.0134784 0.0395921 -0.000908258)
(-0.0188384 0.0370958 -0.000729573)
(-0.0235925 0.0338766 -0.000559185)
(-0.0277455 0.0303405 -0.000411194)
(-0.0313843 0.0266276 -0.000292303)
(-0.0346163 0.0228049 -0.0002042)
(-0.0375551 0.0188938 -0.00014558)
(-0.0403235 0.0148726 -0.00011449)
(-0.0430555 0.0106707 -0.000110337)
(-0.0458957 0.00615027 -0.000136965)
(-0.0489722 0.00106166 -0.000201562)
(-0.0524241 -0.00504587 -0.000310879)
(-0.0562816 -0.0129316 -0.000541031)
(-0.0601937 -0.0236811 -0.000953973)
(-0.0630503 -0.0386784 -0.00164927)
(-0.0611218 -0.0586223 -0.00273626)
(-0.0533726 -0.0755622 -0.0040633)
(-0.0239359 -0.0790961 -0.00658345)
(-0.0022969 0.0310301 -0.00155332)
(-0.00867127 0.0460225 -0.0014689)
(-0.016192 0.0458238 -0.00123306)
(-0.0221749 0.0424246 -0.000924755)
(-0.027301 0.0384747 -0.000645176)
(-0.0316476 0.0343317 -0.00041207)
(-0.0353712 0.0301189 -0.000231142)
(-0.0386385 0.0259061 -0.000100852)
(-0.0416078 0.021731 -1.50175e-05)
(-0.0444443 0.0175909 3.447e-05)
(-0.0473339 0.013433 5.65241e-05)
(-0.0505111 0.00912211 5.85728e-05)
(-0.0543273 0.00441288 4.29923e-05)
(-0.0592411 -0.00118837 -1.57267e-05)
(-0.0656862 -0.00850447 -0.000146334)
(-0.073979 -0.0191673 -0.000366308)
(-0.0837382 -0.0356013 -0.000864702)
(-0.0890061 -0.0621599 -0.00195994)
(-0.0886617 -0.0917981 -0.00376907)
(-0.0414398 -0.1293 -0.0104813)
(-0.00414436 0.0359031 -0.00230271)
(-0.0124529 0.0551661 -0.00229844)
(-0.0201948 0.0541069 -0.00182931)
(-0.0264973 0.049729 -0.00129061)
(-0.0316959 0.0444842 -0.00077672)
(-0.0360784 0.0391458 -0.000360111)
(-0.0397593 0.0339918 -5.36731e-05)
(-0.0429176 0.029133 0.000151081)
(-0.0457388 0.024602 0.000274051)
(-0.0484369 0.0203896 0.00033882)
(-0.0512772 0.0164905 0.000369579)
(-0.0545905 0.012857 0.000389554)
(-0.0588464 0.00942154 0.000439055)
(-0.0647238 0.00589931 0.000577637)
(-0.0732994 0.00153136 0.000948657)
(-0.0856319 -0.00590582 0.00173536)
(-0.103044 -0.021077 0.00318127)
(-0.115127 -0.0582627 0.00463307)
(-0.123933 -0.114614 0.0049968)
(-0.0453082 -0.217187 -0.00981565)
(-0.00288244 0.0508482 -0.00379002)
(-0.0124434 0.0604792 -0.00285261)
(-0.0247854 0.0579767 -0.00213472)
(-0.0318844 0.0516633 -0.00110629)
(-0.0376942 0.0460745 -0.000345773)
(-0.0418109 0.0406923 0.000215798)
(-0.0448104 0.0355972 0.00058926)
(-0.0471244 0.0307894 0.000809003)
(-0.0490591 0.0263186 0.000921544)
(-0.0508384 0.0222062 0.000968504)
(-0.052696 0.0185597 0.00100495)
(-0.0549093 0.0154011 0.00109172)
(-0.0580012 0.0129685 0.0013571)
(-0.062823 0.0112177 0.00203003)
(-0.0709228 0.0100246 0.00361273)
(-0.0836586 0.00615034 0.00710035)
(-0.106577 -0.00634634 0.0134238)
(-0.115528 -0.05689 0.0209394)
(-0.131591 -0.152247 0.023483)
(-0.016418 -0.319193 -0.00901288)
(-0.0117285 0.0449263 -0.00565594)
(-0.0293778 0.0848547 -0.0057395)
(-0.0317073 0.0779425 -0.00404591)
(-0.0395662 0.0693966 -0.00221584)
(-0.0422582 0.0595193 -0.000568131)
(-0.0435677 0.050314 0.000577857)
(-0.0436566 0.0422641 0.00131064)
(-0.043175 0.0353831 0.00170706)
(-0.0424648 0.0296044 0.00187369)
(-0.0417154 0.024755 0.00188467)
(-0.0412719 0.0209811 0.00185957)
(-0.041149 0.0182675 0.00188184)
(-0.0419412 0.0172351 0.00224051)
(-0.0433271 0.0183511 0.00335233)
(-0.0472931 0.0226317 0.00638841)
(-0.0488615 0.0251046 0.0127065)
(-0.0623942 0.0208755 0.0250348)
(-0.0461354 -0.0431361 0.037496)
(-0.076518 -0.180592 0.0345737)
(0.0346052 -0.380267 -0.0216525)
(-0.0735424 0.108324 -0.0129133)
(-0.0584655 0.0682307 -0.00649688)
(-0.0571749 0.0630364 -0.00302821)
(-0.0382165 0.053057 0.000476439)
(-0.0216819 0.0435335 0.00256747)
(-0.00520319 0.0361443 0.00388657)
(0.00959295 0.0303658 0.00452244)
(0.0226638 0.0255254 0.00465528)
(0.0336379 0.0215655 0.00449922)
(0.0433206 0.0180506 0.00409441)
(0.0508705 0.0156452 0.00368595)
(0.058375 0.0133853 0.00326942)
(0.0636381 0.0129344 0.00315518)
(0.0721048 0.0122467 0.00361731)
(0.0751756 0.0139709 0.00578034)
(0.0991018 0.0108559 0.0101545)
(0.0891652 -0.00167434 0.0210025)
(0.144549 -0.0562041 0.0368422)
(0.079244 -0.215486 0.0225677)
(0.114175 -0.387999 -0.0442843)
(0.121221 0.14134 -0.0146968)
(0.156813 0.087842 -0.0142616)
(0.237098 0.0650298 -0.0127439)
(0.291917 0.0491443 -0.00995403)
(0.334372 0.0375269 -0.00688849)
(0.369279 0.0287722 -0.00412916)
(0.397511 0.022318 -0.00173212)
(0.421543 0.0173368 8.49553e-06)
(0.439256 0.0137595 0.00149014)
(0.457161 0.0108178 0.00202513)
(0.465957 0.00867397 0.00267839)
(0.482927 0.00734583 0.00242391)
(0.482444 0.00523224 0.00238534)
(0.504242 0.00598718 0.0026338)
(0.491933 0.00205833 0.00184472)
(0.523435 0.00351558 0.00442715)
(0.489019 -0.00485304 0.00383157)
(0.514614 -0.0225583 0.00611239)
(0.391976 -0.0568723 0.00347289)
(0.284889 -0.138644 -0.0661407)
(-0.000211614 0.000210811 -3.28277e-05)
(-0.00105391 0.000412367 -2.10708e-05)
(-0.00223241 0.000438246 -1.36844e-05)
(-0.00330914 0.000421514 -7.99339e-06)