/*--------------------------------*- C++ -*----------------------------------*\
  =========                 |
  \\      /  F ield         | OpenFOAM: The Open Source CFD Toolbox
   \\    /   O peration     | Website:  https://openfoam.org
    \\  /    A nd           | Version:  10
     \\/     M anipulation  |
\*---------------------------------------------------------------------------*/
FoamFile
{
    format      ascii;
    class       surfaceScalarField;
    location    "0.075";
    object      phi;
}
// * * * * * * * * * * * * * * * * * * * * * * * * * * * * * * * * * * * * * //

dimensions      [0 3 -1 0 0 0 0];

internalField   nonuniform List<scalar> 
760
(
-1.57763e-06
1.57762e-06
-3.13959e-06
1.56196e-06
-4.62041e-06
1.48082e-06
-5.98256e-06
1.36215e-06
-7.1926e-06
1.21004e-06
-8.2218e-06
1.0292e-06
-9.04657e-06
8.24774e-07
-9.64866e-06
6.02089e-07
-1.00151e-05
3.66464e-07
-1.01383e-05
1.23128e-07
-1.00155e-05
-1.22777e-07
-9.64933e-06
-3.66146e-07
-9.04749e-06
-6.01835e-07
-8.22289e-06
-8.24608e-07
-7.19375e-06
-1.02914e-06
-5.98366e-06
-1.21009e-06
-4.62135e-06
-1.36231e-06
-3.14027e-06
-1.48107e-06
-1.57798e-06
-1.56229e-06
-1.57798e-06
-1.64384e-06
3.22146e-06
-3.27077e-06
3.1889e-06
-4.81245e-06
3.0225e-06
-6.22966e-06
2.77936e-06
-7.48765e-06
2.46803e-06
-8.5568e-06
2.09834e-06
-9.41296e-06
1.68093e-06
-1.00376e-05
1.2267e-06
-1.04176e-05
7.46474e-07
-1.05452e-05
2.50786e-07
-1.0418e-05
-2.50047e-07
-1.00383e-05
-7.45805e-07
-9.41398e-06
-1.22617e-06
-8.558e-06
-1.68058e-06
-7.48892e-06
-2.09822e-06
-6.23087e-06
-2.46814e-06
-4.81349e-06
-2.7797e-06
-3.27152e-06
-3.02304e-06
-1.64423e-06
-3.18958e-06
-3.22222e-06
-1.72808e-06
4.94955e-06
-3.4375e-06
4.89831e-06
-5.05567e-06
4.64067e-06
-6.54113e-06
4.26481e-06
-7.85758e-06
3.78449e-06
-8.97455e-06
3.21531e-06
-9.86762e-06
2.574e-06
-1.05183e-05
1.8774e-06
-1.09138e-05
1.14199e-06
-1.10466e-05
3.83606e-07
-1.09143e-05
-3.82411e-07
-1.05192e-05
-1.14091e-06
-9.86882e-06
-1.87653e-06
-8.97598e-06
-2.57343e-06
-7.85909e-06
-3.2151e-06
-6.54257e-06
-3.78466e-06
-5.05691e-06
-4.26536e-06
-3.4384e-06
-4.64155e-06
-1.72856e-06
-4.89942e-06
-4.95078e-06
-1.85843e-06
6.80799e-06
-3.69518e-06
6.73506e-06
-5.431e-06
6.37649e-06
-7.02084e-06
5.85466e-06
-8.42613e-06
5.18978e-06
-9.61527e-06
4.40445e-06
-1.05637e-05
3.52238e-06
-1.12532e-05
2.56696e-06
-1.16717e-05
1.56051e-06
-1.18122e-05
5.24069e-07
-1.16723e-05
-5.22308e-07
-1.12543e-05
-1.55891e-06
-1.05652e-05
-2.56567e-06
-9.61705e-06
-3.52153e-06
-8.42803e-06
-4.40413e-06
-7.02266e-06
-5.19003e-06
-5.43256e-06
-5.85546e-06
-3.69632e-06
-6.37778e-06
-1.85903e-06
-6.73671e-06
-6.80981e-06
-2.0401e-06
8.84809e-06
-4.05375e-06
8.74871e-06
-5.95202e-06
8.27476e-06
-7.68482e-06
7.58746e-06
-9.21056e-06
6.71552e-06
-1.04965e-05
5.69039e-06
-1.15183e-05
4.54419e-06
-1.2259e-05
3.30763e-06
-1.27076e-05
2.00909e-06
-1.2858e-05
6.74485e-07
-1.27083e-05
-6.71997e-07
-1.22604e-05
-2.00682e-06
-1.15203e-05
-3.3058e-06
-1.04988e-05
-4.54297e-06
-9.21302e-06
-5.68992e-06
-7.6872e-06
-6.71585e-06
-5.95407e-06
-7.58859e-06
-4.05525e-06
-8.2766e-06
-2.04089e-06
-8.75107e-06
-8.8507e-06
-2.2807e-06
1.11288e-05
-4.52758e-06
1.09956e-05
-6.63814e-06
1.03853e-05
-8.55548e-06
9.5048e-06
-1.02344e-05
8.39448e-06
-1.16416e-05
7.09755e-06
-1.27539e-05
5.6565e-06
-1.35567e-05
4.11043e-06
-1.40414e-05
2.49381e-06
-1.42038e-05
8.36816e-07
-1.40424e-05
-8.33377e-07
-1.35585e-05
-2.49067e-06
-1.27565e-05
-4.10787e-06
-1.16447e-05
-5.65478e-06
-1.02377e-05
-7.09685e-06
-8.55865e-06
-8.39492e-06
-6.64089e-06
-9.50636e-06
-4.5296e-06
-1.03879e-05
-2.28177e-06
-1.09989e-05
-1.11325e-05
-2.59139e-06
1.37202e-05
-5.13744e-06
1.35416e-05
-7.51694e-06
1.27648e-05
-9.66399e-06
1.16519e-05
-1.15297e-05
1.02602e-05
-1.30812e-05
8.64906e-06
-1.42989e-05
6.87412e-06
-1.51724e-05
4.98399e-06
-1.56977e-05
3.01905e-06
-1.58732e-05
1.0124e-06
-1.56989e-05
-1.00771e-06
-1.51748e-05
-3.01475e-06
-1.43022e-05
-4.98047e-06
-1.30853e-05
-6.87171e-06
-1.15341e-05
-8.64804e-06
-9.66829e-06
-1.02607e-05
-7.52068e-06
-1.1654e-05
-5.14022e-06
-1.27684e-05
-2.59286e-06
-1.35463e-05
-1.37253e-05
-2.98848e-06
1.67087e-05
-5.91335e-06
1.64665e-05
-8.62732e-06
1.54788e-05
-1.10531e-05
1.40776e-05
-1.31387e-05
1.23458e-05
-1.48544e-05
1.03648e-05
-1.61877e-05
8.20738e-06
-1.71364e-05
5.93273e-06
-1.77036e-05
3.5862e-06
-1.78927e-05
1.20152e-06
-1.77052e-05
-1.19518e-06
-1.71396e-05
-3.58037e-06
-1.61922e-05
-5.9279e-06
-1.48599e-05
-8.20401e-06
-1.31446e-05
-1.03633e-05
-1.1059e-05
-1.23464e-05
-8.63248e-06
-1.40804e-05
-5.9172e-06
-1.54836e-05
-2.99053e-06
-1.64729e-05
-1.67159e-05
-3.4963e-06
2.0205e-05
-6.89912e-06
1.98693e-05
-1.00246e-05
1.86042e-05
-1.27813e-05
1.68344e-05
-1.51167e-05
1.46812e-05
-1.70098e-05
1.22578e-05
-1.84609e-05
9.65855e-06
-1.94821e-05
6.95386e-06
-2.00877e-05
4.19183e-06
-2.02889e-05
1.40276e-06
-2.00898e-05
-1.39426e-06
-1.94863e-05
-4.18397e-06
-1.84669e-05
-6.94726e-06
-1.70171e-05
-9.65384e-06
-1.51248e-05
-1.22556e-05
-1.27894e-05
-1.46818e-05
-1.00318e-05
-1.68381e-05
-6.90454e-06
-1.86108e-05
-3.49921e-06
-1.98783e-05
-2.02151e-05
-4.15216e-06
2.43571e-05
-8.1603e-06
2.38775e-05
-1.17883e-05
2.22323e-05
-1.49293e-05
1.99754e-05
-1.75363e-05
1.72881e-05
-1.96066e-05
1.43282e-05
-2.11643e-05
1.12162e-05
-2.22434e-05
8.03303e-06
-2.28765e-05
4.82489e-06
-2.30858e-05
1.61208e-06
-2.28793e-05
-1.60079e-06
-2.22489e-05
-4.81437e-06
-2.11721e-05
-8.02406e-06
-1.96164e-05
-1.12096e-05
-1.75472e-05
-1.43247e-05
-1.49405e-05
-1.72885e-05
-1.17984e-05
-1.99801e-05
-8.16804e-06
-2.22412e-05
-4.15636e-06
-2.38899e-05
-2.43714e-05
-5.01564e-06
2.93728e-05
-9.79768e-06
2.86595e-05
-1.40356e-05
2.64702e-05
-1.76092e-05
2.3549e-05
-2.04914e-05
2.01704e-05
-2.2716e-05
1.65528e-05
-2.43463e-05
1.28465e-05
-2.54514e-05
9.13808e-06
-2.60895e-05
5.46306e-06
-2.62991e-05
1.82159e-06
-2.60931e-05
-1.80675e-06
-2.54584e-05
-5.44909e-06
-2.43565e-05
-9.12591e-06
-2.27289e-05
-1.28372e-05
-2.05062e-05
-1.65474e-05
-1.76246e-05
-2.01702e-05
-1.40499e-05
-2.35548e-05
-9.8089e-06
-2.64822e-05
-5.02185e-06
-2.8677e-05
-2.93933e-05
-6.18655e-06
3.55593e-05
-1.19714e-05
3.44443e-05
-1.69411e-05
3.14399e-05
-2.09773e-05
2.75852e-05
-2.41033e-05
2.32964e-05
-2.64198e-05
1.88693e-05
-2.80541e-05
1.44808e-05
-2.91267e-05
1.02107e-05
-2.97319e-05
6.06824e-06
-2.99285e-05
2.01817e-06
-2.97363e-05
-1.9989e-06
-2.91355e-05
-6.04989e-06
-2.80672e-05
-1.01943e-05
-2.64367e-05
-1.44677e-05
-2.41232e-05
-1.8861e-05
-2.09986e-05
-2.32947e-05
-1.69616e-05
-2.75919e-05
-1.1988e-05
-3.14558e-05
-6.196e-06
-3.44689e-05
-3.55893e-05
-7.84192e-06
4.34012e-05
-1.49442e-05
4.15466e-05
-2.07703e-05
3.72661e-05
-2.5252e-05
3.20669e-05
-2.85244e-05
2.65687e-05
-3.08062e-05
2.11511e-05
-3.23243e-05
1.5999e-05
-3.32705e-05
1.11569e-05
-3.3784e-05
6.58175e-06
-3.39478e-05
2.18196e-06
-3.37894e-05
-2.15736e-06
-3.32813e-05
-6.55797e-06
-3.23406e-05
-1.1135e-05
-3.08278e-05
-1.59804e-05
-2.85508e-05
-2.1138e-05
-2.52816e-05
-2.65639e-05
-2.08e-05
-3.20735e-05
-1.49693e-05
-3.72865e-05
-7.85688e-06
-4.15813e-05
-4.34462e-05
-1.03166e-05
5.37178e-05
-1.91604e-05
5.03904e-05
-2.59296e-05
4.40352e-05
-3.07332e-05
3.68705e-05
-3.39352e-05
2.97707e-05
-3.59567e-05
2.31726e-05
-3.71679e-05
1.72102e-05
-3.78488e-05
1.18378e-05
-3.81877e-05
6.92064e-06
-3.82912e-05
2.28549e-06
-3.81938e-05
-2.25473e-06
-3.78614e-05
-6.89039e-06
-3.71875e-05
-1.18089e-05
-3.59838e-05
-1.71841e-05
-3.39698e-05
-2.3152e-05
-3.0774e-05
-2.97597e-05
-2.59729e-05
-3.68745e-05
-1.91995e-05
-4.40599e-05
-1.03416e-05
-5.04392e-05
-5.37878e-05
-1.42863e-05
6.80042e-05
-2.53896e-05
6.14937e-05
-3.30377e-05
5.16834e-05
-3.78123e-05
4.16451e-05
-4.05268e-05
3.24852e-05
-4.19202e-05
2.4566e-05
-4.25449e-05
1.78348e-05
-4.27719e-05
1.20648e-05
-4.28292e-05
6.97792e-06
-4.28379e-05
2.29415e-06
-4.28359e-05
-2.25674e-06
-4.27859e-05
-6.94034e-06
-4.25674e-05
-1.20274e-05
-4.19529e-05
-1.77987e-05
-4.05709e-05
-2.4534e-05
-3.78678e-05
-3.24628e-05
-3.31014e-05
-4.1641e-05
-2.54521e-05
-5.17093e-05
-1.43309e-05
-6.15604e-05
-6.81187e-05
-2.1194e-05
8.91982e-05
-3.49813e-05
7.52809e-05
-4.30038e-05
5.97059e-05
-4.69491e-05
4.55903e-05
-4.8446e-05
3.3982e-05
-4.86601e-05
2.47801e-05
-4.83255e-05
1.75002e-05
-4.78693e-05
1.16087e-05
-4.75234e-05
6.63201e-06
-4.73992e-05
2.16996e-06
-4.753e-05
-2.12603e-06
-4.78835e-05
-6.58685e-06
-4.83493e-05
-1.15615e-05
-4.86969e-05
-1.74511e-05
-4.84997e-05
-2.47313e-05
-4.70229e-05
-3.39396e-05
-4.3097e-05
-4.55669e-05
-3.50836e-05
-5.97227e-05
-2.12789e-05
-7.53651e-05
-8.93976e-05
-3.42573e-05
0.000123455
-5.02886e-05
9.13123e-05
-5.70332e-05
6.64505e-05
-5.85551e-05
4.71122e-05
-5.76705e-05
3.30974e-05
-5.59643e-05
2.30739e-05
-5.42389e-05
1.57749e-05
-5.28656e-05
1.02354e-05
-5.20028e-05
5.76919e-06
-5.17117e-05
1.87883e-06
-5.20081e-05
-1.82958e-06
-5.28777e-05
-5.71724e-06
-5.4261e-05
-1.01782e-05
-5.60016e-05
-1.57105e-05
-5.77308e-05
-2.3002e-05
-5.8648e-05
-3.30224e-05
-5.71663e-05
-4.70485e-05
-5.04589e-05
-6.64301e-05
-3.4435e-05
-9.1389e-05
-0.000123833
-6.16185e-05
0.000185074
-7.49875e-05
0.000104681
-7.63463e-05
6.78093e-05
-7.26277e-05
4.33936e-05
-6.77452e-05
2.8215e-05
-6.32998e-05
1.86285e-05
-5.9798e-05
1.22731e-05
-5.73378e-05
7.77519e-06
-5.58913e-05
4.32272e-06
-5.54157e-05
1.40322e-06
-5.58938e-05
-1.35146e-06
-5.73444e-05
-4.26664e-06
-5.98125e-05
-7.71009e-06
-6.33293e-05
-1.21937e-05
-6.78018e-05
-1.85295e-05
-7.27303e-05
-2.80939e-05
-7.65192e-05
-4.32596e-05
-7.52405e-05
-6.77088e-05
-6.1937e-05
-0.000104693
-0.00018577
-0.000104342
0.000289416
-0.000107304
0.000107644
-9.63978e-05
5.6903e-05
-8.35179e-05
3.05137e-05
-7.29646e-05
1.76617e-05
-6.51773e-05
1.08413e-05
-5.97448e-05
6.84053e-06
-5.61989e-05
4.22931e-06
-5.41986e-05
2.32244e-06
-5.35485e-05
7.53097e-07
-5.41855e-05
-7.14408e-07
-5.61724e-05
-2.2798e-06
-5.97042e-05
-4.17821e-06
-6.51223e-05
-6.77565e-06
-7.28945e-05
-1.07573e-05
-8.34303e-05
-1.75581e-05
-9.62894e-05
-3.04006e-05
-0.000107064
-5.69338e-05
-0.000103933
-0.000107823
-0.000289703
0.000289416
0.000397059
0.000453962
0.000484476
0.000502138
0.000512979
0.000519819
0.000524049
0.000526371
0.000527124
0.00052641
0.00052413
0.000519952
0.000513176
0.000502419
0.000484861
0.00045446
0.000397526
0.000289703
)
;

boundaryField
{
    movingWall
    {
        type            calculated;
        value           uniform 0;
    }
    fixedWalls
    {
        type            calculated;
        value           uniform 0;
    }
    frontAndBack
    {
        type            empty;
        value           nonuniform List<scalar> 0();
    }
}


// ************************************************************************* //
