/*--------------------------------*- C++ -*----------------------------------*\
  =========                 |
  \\      /  F ield         | OpenFOAM: The Open Source CFD Toolbox
   \\    /   O peration     | Website:  https://openfoam.org
    \\  /    A nd           | Version:  10
     \\/     M anipulation  |
\*---------------------------------------------------------------------------*/
FoamFile
{
    format      ascii;
    class       volVectorField;
    location    "4.425";
    object      U;
}
// * * * * * * * * * * * * * * * * * * * * * * * * * * * * * * * * * * * * * //

dimensions      [0 1 -1 0 0 0 0];

internalField   nonuniform List<vector> 
400
(
(-9.90465e-05 9.45421e-05 0)
(-0.000809315 0.000314179 0)
(-0.00197359 0.000372268 0)
(-0.00307856 0.000374922 0)
(-0.00415953 0.000363345 0)
(-0.00517998 0.00034563 0)
(-0.00611682 0.000321167 0)
(-0.00694752 0.000287839 0)
(-0.00764565 0.000243471 0)
(-0.00818131 0.00018607 0)
(-0.0085218 0.000114129 0)
(-0.00863281 2.74654e-05 0)
(-0.00848044 -7.50927e-05 0)
(-0.00803529 -0.000190481 0)
(-0.00727784 -0.00031368 0)
(-0.00620301 -0.00043662 0)
(-0.00483331 -0.000545749 0)
(-0.00325191 -0.00061516 0)
(-0.0014564 -0.000577152 0)
(-0.000244054 -0.00026063 0)
(-0.000334172 0.000815075 0)
(-0.00175438 0.00169677 0)
(-0.0038386 0.00191154 0)
(-0.00581859 0.00189471 0)
(-0.00773028 0.00180354 0)
(-0.00950933 0.00167225 0)
(-0.0111111 0.00150279 0)
(-0.0124954 0.00129105 0)
(-0.0136196 0.00103221 0)
(-0.0144387 0.000722 0)
(-0.0149053 0.00035736 0)
(-0.0149745 -6.3242e-05 0)
(-0.0146024 -0.000534029 0)
(-0.0137511 -0.00104269 0)
(-0.0124007 -0.00156856 0)
(-0.0105522 -0.00207938 0)
(-0.00824938 -0.00252285 0)
(-0.00561634 -0.00279764 0)
(-0.0026656 -0.00265294 0)
(-0.000545196 -0.00143269 0)
(-0.000413901 0.00204723 0)
(-0.00209128 0.00382138 0)
(-0.00451015 0.00423014 0)
(-0.0067983 0.0041662 0)
(-0.00899987 0.00393987 0)
(-0.0110429 0.00362088 0)
(-0.0128781 0.00321683 0)
(-0.0144614 0.00272332 0)
(-0.0157466 0.00213406 0)
(-0.0166853 0.00144333 0)
(-0.0172283 0.000647558 0)
(-0.0173224 -0.000253057 0)
(-0.0169147 -0.00124819 0)
(-0.0159619 -0.00231346 0)
(-0.0144349 -0.00340733 0)
(-0.0123262 -0.00446465 0)
(-0.00967602 -0.00538117 0)
(-0.00662101 -0.005953 0)
(-0.00317046 -0.00568574 0)
(-0.000660911 -0.00326433 0)
(-0.000440103 0.00330166 0)
(-0.00223434 0.00600536 0)
(-0.0048207 0.00660857 0)
(-0.00726249 0.006493 0)
(-0.00961514 0.00613029 0)
(-0.0118049 0.00562553 0)
(-0.0137829 0.00499108 0)
(-0.0155057 0.00422149 0)
(-0.0169267 0.00330795 0)
(-0.0179956 0.00224155 0)
(-0.0186588 0.00101627 0)
(-0.0188585 -0.000366661 0)
(-0.0185292 -0.00189857 0)
(-0.0176071 -0.00354728 0)
(-0.0160416 -0.00525388 0)
(-0.0138027 -0.00692072 0)
(-0.0109128 -0.00838455 0)
(-0.00751577 -0.00932127 0)
(-0.00361616 -0.00895632 0)
(-0.000755048 -0.00523205 0)
(-0.000459267 0.00463227 0)
(-0.00235666 0.00832825 0)
(-0.00510031 0.00913764 0)
(-0.00769051 0.00897041 0)
(-0.0101946 0.00847036 0)
(-0.0125383 0.00777989 0)
(-0.0146752 0.00691629 0)
(-0.0165643 0.00587254 0)
(-0.01816 0.00463601 0)
(-0.0194111 0.00319245 0)
(-0.0202589 0.00152951 0)
(-0.0206366 -0.000357858 0)
(-0.0204621 -0.00246562 0)
(-0.0196449 -0.0047594 0)
(-0.0180994 -0.00716887 0)
(-0.0157533 -0.00956452 0)
(-0.0125904 -0.0117128 0)
(-0.00875492 -0.0131354 0)
(-0.0042481 -0.012712 0)
(-0.000893532 -0.00750927 0)
(-0.000483191 0.00603879 0)
(-0.00250505 0.0107999 0)
(-0.00543848 0.0118317 0)
(-0.008209 0.0116152 0)
(-0.0108974 0.0109802 0)
(-0.0134297 0.0101091 0)
(-0.0157636 0.00902466 0)
(-0.0178624 0.00771772 0)
(-0.0196839 0.00617027 0)
(-0.0211774 0.00435949 0)
(-0.0222803 0.00226122 0)
(-0.0229189 -0.00014484 0)
(-0.0229892 -0.00286224 0)
(-0.0223632 -0.00587455 0)
(-0.0209062 -0.00910783 0)
(-0.0184793 -0.0124037 0)
(-0.0149943 -0.0154461 0)
(-0.0105724 -0.0175545 0)
(-0.00520639 -0.0171533 0)
(-0.0011162 -0.0102428 0)
(-0.000513941 0.00753835 0)
(-0.00268958 0.0134509 0)
(-0.00585456 0.0147239 0)
(-0.00884309 0.0144605 0)
(-0.0117525 0.0136932 0)
(-0.0145097 0.0126487 0)
(-0.017079 0.0113559 0)
(-0.0194309 0.00980358 0)
(-0.0215302 0.00796685 0)
(-0.0233314 0.00581102 0)
(-0.0247733 0.00329398 0)
(-0.0257688 0.000371804 0)
(-0.0261998 -0.00298428 0)
(-0.0259006 -0.00679217 0)
(-0.0246592 -0.0109965 0)
(-0.0222369 -0.0154263 0)
(-0.01842 -0.0196753 0)
(-0.0132488 -0.0227993 0)
(-0.00668848 -0.0225821 0)
(-0.00148875 -0.0136817 0)
(-0.000551871 0.00915323 0)
(-0.00291318 0.0163201 0)
(-0.00635379 0.0178544 0)
(-0.00959701 0.0175438 0)
(-0.012761 0.0166451 0)
(-0.0157745 0.0154344 0)
(-0.0186113 0.0139488 0)
(-0.0212536 0.0121758 0)
(-0.0236784 0.0100834 0)
(-0.0258519 0.00762245 0)
(-0.0277208 0.00472731 0)
(-0.029198 0.00132011 0)
(-0.0301544 -0.0026811 0)
(-0.0303816 -0.0073484 0)
(-0.0295781 -0.0126859 0)
(-0.0273607 -0.0185499 0)
(-0.0233083 -0.0244578 0)
(-0.0172524 -0.0291344 0)
(-0.00908183 -0.0294309 0)
(-0.00215888 -0.0182503 0)
(-0.000598002 0.0109071 0)
(-0.00318012 0.0194484 0)
(-0.00694238 0.0212624 0)
(-0.0104743 0.0208988 0)
(-0.0139204 0.0198651 0)
(-0.017213 0.0184937 0)
(-0.020339 0.0168331 0)
(-0.0232973 0.0148717 0)
(-0.0260844 0.0125718 0)
(-0.0286881 0.00986949 0)
(-0.0310762 0.00667072 0)
(-0.0331775 0.00285048 0)
(-0.0348694 -0.001745 0)
(-0.0359144 -0.00728177 0)
(-0.0359174 -0.0138926 0)
(-0.0343072 -0.0215413 0)
(-0.0303471 -0.0297356 0)
(-0.0234255 -0.0368209 0)
(-0.0132297 -0.0383242 0)
(-0.00348538 -0.0247432 0)
(-0.00065517 0.0128273 0)
(-0.00349964 0.0228802 0)
(-0.00763313 0.0249866 0)
(-0.0114843 0.0245541 0)
(-0.0152321 0.0233737 0)
(-0.018814 0.0218424 0)
(-0.0222349 0.0200245 0)
(-0.025516 0.0179136 0)
(-0.0286817 0.0154704 0)
(-0.0317542 0.0126196 0)
(-0.034741 0.0092396 0)
(-0.0376152 0.00515106 0)
(-0.0402899 0.00010596 0)
(-0.042546 -0.00619265 0)
(-0.0439316 -0.0141169 0)
(-0.0436734 -0.0238786 0)
(-0.0406115 -0.0351533 0)
(-0.0333544 -0.045953 0)
(-0.0210582 -0.0501126 0)
(-0.00636946 -0.0348081 0)
(-0.000729669 0.01495 0)
(-0.00389016 0.0266676 0)
(-0.00845092 0.0290657 0)
(-0.0126476 0.0285322 0)
(-0.0167056 0.0271796 0)
(-0.0205703 0.0254798 0)
(-0.0242696 0.0235181 0)
(-0.0278529 0.0212991 0)
(-0.0313801 0.0187899 0)
(-0.0349209 0.0159134 0)
(-0.038547 0.0125313 0)
(-0.0423148 0.00841649 0)
(-0.0462217 0.00321964 0)
(-0.0501739 -0.00355326 0)
(-0.053782 -0.0125609 0)
(-0.0561647 -0.0245215 0)
(-0.0557418 -0.0396302 0)
(-0.0499842 -0.0559038 0)
(-0.036719 -0.0656754 0)
(-0.0129994 -0.0520962 0)
(-0.000834578 0.0173283 0)
(-0.00438631 0.0308761 0)
(-0.0094407 0.0335402 0)
(-0.0140026 0.0328468 0)
(-0.0183644 0.0312757 0)
(-0.0224842 0.0293835 0)
(-0.0264177 0.0272809 0)
(-0.0302461 0.0249904 0)
(-0.0340697 0.0224965 0)
(-0.0380156 0.0197392 0)
(-0.0422421 0.0165912 0)
(-0.0469353 0.0128158 0)
(-0.0522829 0.00799816 0)
(-0.058416 0.00144654 0)
(-0.0652879 -0.00785651 0)
(-0.0723453 -0.0213535 0)
(-0.07785 -0.0404355 0)
(-0.0778281 -0.0642093 0)
(-0.0667071 -0.0857528 0)
(-0.026745 -0.0840388 0)
(-0.000997153 0.0200441 0)
(-0.00505228 0.0355832 0)
(-0.0106797 0.0384321 0)
(-0.0156153 0.0374814 0)
(-0.0202541 0.0356253 0)
(-0.0245742 0.0335026 0)
(-0.0286652 0.031247 0)
(-0.0326394 0.0289047 0)
(-0.0366336 0.0264921 0)
(-0.0408288 0.0239905 0)
(-0.0454743 0.0213248 0)
(-0.0509181 0.018315 0)
(-0.0576327 0.014577 0)
(-0.0662186 0.00935172 0)
(-0.0774061 0.00130905 0)
(-0.0918134 -0.0117051 0)
(-0.108048 -0.0329653 0)
(-0.119379 -0.0663683 0)
(-0.111258 -0.111929 0)
(-0.0434086 -0.144162 0)
(-0.00127811 0.0232579 0)
(-0.00602999 0.0410376 0)
(-0.0123095 0.0439853 0)
(-0.0175813 0.0426519 0)
(-0.0224318 0.0403484 0)
(-0.0268713 0.0378528 0)
(-0.0310178 0.0353521 0)
(-0.0350025 0.0329231 0)
(-0.038985 0.0306167 0)
(-0.0431836 0.0284787 0)
(-0.0479198 0.0265519 0)
(-0.0536957 0.0248374 0)
(-0.0613169 0.0231991 0)
(-0.0720264 0.0211541 0)
(-0.0876915 0.0175192 0)
(-0.110491 0.00927244 0)
(-0.139154 -0.0112902 0)
(-0.160199 -0.062482 0)
(-0.147704 -0.155882 0)
(-0.0450296 -0.242664 0)
(-0.00167935 0.0273011 0)
(-0.00722296 0.0464732 0)
(-0.0143843 0.0489788 0)
(-0.0200629 0.0468934 0)
(-0.025134 0.0442139 0)
(-0.0295736 0.0415676 0)
(-0.0335915 0.0390361 0)
(-0.0373668 0.0366569 0)
(-0.0410601 0.0345098 0)
(-0.0448586 0.0327291 0)
(-0.0490545 0.0315314 0)
(-0.0541752 0.0312217 0)
(-0.0611912 0.0321825 0)
(-0.0717792 0.0346148 0)
(-0.0888082 0.0379391 0)
(-0.11548 0.0371755 0)
(-0.150053 0.0159657 0)
(-0.168182 -0.0656051 0)
(-0.147794 -0.223388 0)
(-0.0331184 -0.35405 0)
(-0.00366282 0.0310695 0)
(-0.0112632 0.0556685 0)
(-0.0179837 0.057909 0)
(-0.0232975 0.0553592 0)
(-0.0278883 0.0515047 0)
(-0.0320786 0.0477076 0)
(-0.0359186 0.044233 0)
(-0.0394661 0.0411891 0)
(-0.0427722 0.0386822 0)
(-0.0459174 0.0368914 0)
(-0.0490503 0.036184 0)
(-0.0524779 0.0372134 0)
(-0.0569212 0.0410961 0)
(-0.0635331 0.0488 0)
(-0.074724 0.0602723 0)
(-0.0921209 0.0655205 0)
(-0.117413 0.0411673 0)
(-0.123846 -0.0709392 0)
(-0.114581 -0.281837 0)
(-0.0246389 -0.445953 0)
(-0.00135951 0.0451531 0)
(-0.00930609 0.0584046 0)
(-0.0210378 0.058002 0)
(-0.0269773 0.0533639 0)
(-0.032563 0.0498788 0)
(-0.0365594 0.0469023 0)
(-0.0396685 0.044251 0)
(-0.0421137 0.0418106 0)
(-0.0440013 0.039692 0)
(-0.045316 0.0380716 0)
(-0.0459582 0.0374735 0)
(-0.0456883 0.0386112 0)
(-0.0445404 0.0431923 0)
(-0.0417107 0.051944 0)
(-0.0393666 0.0661402 0)
(-0.0338207 0.0722494 0)
(-0.041307 0.0478331 0)
(-0.0360818 -0.0718333 0)
(-0.057438 -0.307713 0)
(-0.000943054 -0.50823 0)
(-0.0117612 0.0348162 0)
(-0.0251903 0.0809926 0)
(-0.0258694 0.0786827 0)
(-0.0332751 0.0732589 0)
(-0.0364724 0.0659154 0)
(-0.0381094 0.0593074 0)
(-0.0381832 0.0535701 0)
(-0.0371769 0.0486532 0)
(-0.0353253 0.0445066 0)
(-0.0325663 0.041073 0)
(-0.0290637 0.0386463 0)
(-0.0239136 0.0376763 0)
(-0.0176482 0.0399405 0)
(-0.00604475 0.0455589 0)
(0.0067137 0.0581547 0)
(0.0340546 0.0649444 0)
(0.0463908 0.0503592 0)
(0.0838142 -0.0489811 0)
(0.0355181 -0.292291 0)
(0.0523377 -0.511256 0)
(-0.0760556 0.0983339 0)
(-0.0614511 0.0614325 0)
(-0.0630937 0.0606979 0)
(-0.0425533 0.0539819 0)
(-0.025673 0.0470273 0)
(-0.00669826 0.041685 0)
(0.0110945 0.0376706 0)
(0.0283611 0.0340878 0)
(0.0440706 0.0312659 0)
(0.0596833 0.0283671 0)
(0.0732076 0.0264494 0)
(0.0886704 0.0244829 0)
(0.0997694 0.0242096 0)
(0.122236 0.0248844 0)
(0.130922 0.0246838 0)
(0.178163 0.0224853 0)
(0.181465 -0.00847699 0)
(0.237635 -0.0739571 0)
(0.171116 -0.264505 0)
(0.128341 -0.445699 0)
(0.120187 0.14023 0)
(0.153038 0.0861916 0)
(0.231441 0.0639178 0)
(0.286676 0.0487435 0)
(0.329113 0.0382236 0)
(0.367494 0.0305513 0)
(0.397287 0.0251476 0)
(0.428567 0.0213426 0)
(0.448995 0.01815 0)
(0.477574 0.0161487 0)
(0.489464 0.0140051 0)
(0.519415 0.0127651 0)
(0.522058 0.0115994 0)
(0.556947 0.010589 0)
(0.549574 0.0100268 0)
(0.588052 0.00643544 0)
(0.561921 -0.00285691 0)
(0.574497 -0.02654 0)
(0.441279 -0.0799198 0)
(0.277882 -0.158854 0)
)
;

boundaryField
{
    movingWall
    {
        type            fixedValue;
        value           uniform (1 0 0);
    }
    fixedWalls
    {
        type            noSlip;
    }
    frontAndBack
    {
        type            empty;
    }
}


// ************************************************************************* //
