/*--------------------------------*- C++ -*----------------------------------*\
  =========                 |
  \\      /  F ield         | OpenFOAM: The Open Source CFD Toolbox
   \\    /   O peration     | Website:  https://openfoam.org
    \\  /    A nd           | Version:  10
     \\/     M anipulation  |
\*---------------------------------------------------------------------------*/
FoamFile
{
    format      ascii;
    class       volVectorField;
    location    "4.025";
    object      U;
}
// * * * * * * * * * * * * * * * * * * * * * * * * * * * * * * * * * * * * * //

dimensions      [0 1 -1 0 0 0 0];

internalField   nonuniform List<vector> 
475
(
(0.971673 0.0171419 0)
(0.977975 0.00486525 0)
(0.948175 0.0323382 0)
(0.956425 -0.000537711 0)
(0.919803 0.0302736 0)
(0.997801 0.00882232 0)
(1.01526 0.0142662 0)
(1.0252 0.0155593 0)
(1.0437 0.00811416 0)
(1.05616 -0.000218758 0)
(1.00001 8.51202e-05 0)
(1.0098 -0.00265778 0)
(1.02376 -0.00437451 0)
(1.04178 -0.0100767 0)
(1.05613 -0.0168385 0)
(1.00017 -0.0101757 0)
(1.0098 -0.0193462 0)
(1.02248 -0.0219611 0)
(1.03673 -0.0238797 0)
(1.04296 -0.027481 0)
(0.980893 -0.0095551 0)
(0.968983 -0.0192136 0)
(0.95382 -0.0216936 0)
(0.933732 -0.0228311 0)
(0.905614 -0.0232204 0)
(0.927622 -0.0193675 0)
(0.937471 -0.0350085 0)
(0.944079 -0.0437702 0)
(0.951104 -0.0477741 0)
(0.971392 -0.0647723 0)
(0.999723 -0.0885205 0)
(1.0308 -0.118322 0)
(1.05839 -0.166646 0)
(1.08345 -0.211264 0)
(1.09679 -0.251799 0)
(1.09167 -0.293769 0)
(1.07881 -0.320367 0)
(1.04795 -0.331768 0)
(1.00671 -0.317833 0)
(0.95228 -0.277828 0)
(0.88293 -0.233327 0)
(0.825526 -0.174419 0)
(0.762131 -0.0949125 0)
(0.675211 -0.0231667 0)
(0.594406 0.0201187 0)
(0.544114 0.0447373 0)
(0.525521 0.0655644 0)
(0.529664 0.08392 0)
(0.545616 0.0945833 0)
(0.564024 0.0945219 0)
(0.579378 0.085252 0)
(0.589962 0.0707015 0)
(0.596321 0.0547239 0)
(0.599757 0.0399574 0)
(0.60148 0.027728 0)
(0.602318 0.0183773 0)
(0.602745 0.0116636 0)
(0.602991 0.00708718 0)
(0.603152 0.00410505 0)
(0.603266 0.00223962 0)
(0.603347 0.00111901 0)
(0.603403 0.000474711 0)
(0.603441 0.000122695 0)
(0.603466 -5.22355e-05 0)
(0.603478 -0.000127269 0)
(0.603481 -0.000144052 0)
(0.60348 -0.000139064 0)
(0.603477 -0.000112611 0)
(0.603475 -9.74463e-05 0)
(0.603472 -5.86325e-05 0)
(1.06865 -0.00903892 0)
(1.0789 -0.0246394 0)
(1.08415 -0.0401517 0)
(1.0902 -0.0464672 0)
(1.09528 -0.0653114 0)
(1.0987 -0.0913581 0)
(1.1075 -0.121888 0)
(1.10442 -0.167431 0)
(1.09503 -0.206106 0)
(1.07708 -0.244458 0)
(1.03973 -0.280575 0)
(1.00061 -0.290592 0)
(0.944371 -0.287147 0)
(0.874772 -0.264132 0)
(0.804478 -0.210407 0)
(0.719539 -0.152656 0)
(0.638013 -0.0828566 0)
(0.567038 0.00833615 0)
(0.497839 0.077512 0)
(0.446968 0.0930625 0)
(0.42311 0.0772984 0)
(0.421031 0.0624511 0)
(0.435599 0.0589051 0)
(0.460813 0.0608914 0)
(0.489651 0.0610826 0)
(0.516828 0.0566214 0)
(0.539715 0.0483069 0)
(0.557633 0.0382492 0)
(0.570953 0.0283643 0)
(0.580476 0.0198388 0)
(0.587077 0.0131442 0)
(0.591537 0.0082587 0)
(0.594483 0.0049038 0)
(0.596389 0.00272133 0)
(0.597596 0.00137109 0)
(0.598343 0.000581917 0)
(0.598793 0.000149662 0)
(0.599053 -6.45303e-05 0)
(0.599201 -0.000155645 0)
(0.59928 -0.000182332 0)
(0.59932 -0.000171551 0)
(0.599335 -0.000150849 0)
(0.599338 -0.000116329 0)
(0.599336 -9.69644e-05 0)
(0.599329 -5.74474e-05 0)
(1.06825 -0.0216589 0)
(1.07874 -0.034766 0)
(1.07849 -0.0501945 0)
(1.0819 -0.0587287 0)
(1.0797 -0.077697 0)
(1.07157 -0.0984064 0)
(1.06879 -0.122381 0)
(1.04763 -0.157954 0)
(1.02482 -0.189869 0)
(0.994234 -0.221954 0)
(0.944443 -0.244228 0)
(0.898021 -0.241174 0)
(0.830664 -0.223761 0)
(0.742018 -0.196348 0)
(0.661263 -0.145071 0)
(0.581047 -0.0851052 0)
(0.508393 -0.0253843 0)
(0.462042 0.0398355 0)
(0.442935 0.0882818 0)
(0.445242 0.0967592 0)
(0.454566 0.0779094 0)
(0.460956 0.0568424 0)
(0.467115 0.0453935 0)
(0.477456 0.0416826 0)
(0.492228 0.0399529 0)
(0.509148 0.0366877 0)
(0.525715 0.0312766 0)
(0.540207 0.0246532 0)
(0.551846 0.018037 0)
(0.560581 0.0123001 0)
(0.566778 0.00782747 0)
(0.570965 0.00462601 0)
(0.57367 0.00249619 0)
(0.575344 0.00117339 0)
(0.576335 0.000406561 0)
(0.576894 -2.2338e-06 0)
(0.577188 -0.000194818 0)
(0.577323 -0.000261869 0)
(0.57737 -0.00026123 0)
(0.57737 -0.000232307 0)
(0.57735 -0.000190438 0)
(0.577324 -0.000152965 0)
(0.577296 -0.000111781 0)
(0.577275 -8.88346e-05 0)
(0.577248 -5.13752e-05 0)
(1.04936 -0.0305586 0)
(1.05176 -0.0381517 0)
(1.04306 -0.0470928 0)
(1.03703 -0.0554932 0)
(1.01827 -0.06669 0)
(0.996744 -0.0794289 0)
(0.967916 -0.0981578 0)
(0.922594 -0.115975 0)
(0.876478 -0.138987 0)
(0.799479 -0.167484 0)
(0.71691 -0.177068 0)
(0.643109 -0.166828 0)
(0.522029 -0.13085 0)
(0.375135 -0.0726374 0)
(0.272186 -0.0208568 0)
(0.215394 0.0145963 0)
(0.191671 0.0430821 0)
(0.199335 0.0683648 0)
(0.231541 0.0808221 0)
(0.273704 0.0762589 0)
(0.312291 0.062518 0)
(0.342081 0.0497515 0)
(0.365666 0.0407302 0)
(0.386834 0.0341234 0)
(0.407274 0.0283405 0)
(0.426656 0.0226652 0)
(0.44387 0.0171276 0)
(0.458032 0.0121031 0)
(0.468857 0.00794441 0)
(0.476585 0.00480129 0)
(0.481763 0.00261859 0)
(0.485024 0.00122021 0)
(0.48695 0.000396738 0)
(0.488002 -4.46289e-05 0)
(0.488514 -0.000246758 0)
(0.488714 -0.000313917 0)
(0.488748 -0.000311094 0)
(0.488701 -0.000276946 0)
(0.488622 -0.000230775 0)
(0.488535 -0.000184384 0)
(0.488458 -0.000141027 0)
(0.488391 -0.000106882 0)
(0.488336 -7.52307e-05 0)
(0.4883 -5.72398e-05 0)
(0.488257 -3.20471e-05 0)
(0.878861 -0.0240541 0)
(0.845665 -0.0284577 0)
(0.809134 -0.028313 0)
(0.769971 -0.0343228 0)
(0.717232 -0.038394 0)
(0.666265 -0.04054 0)
(0.594404 -0.0536423 0)
(0.514887 -0.0539805 0)
(0.427843 -0.0731551 0)
(0.2873 -0.101007 0)
(0.143122 -0.063535 0)
(0.0402655 0.000747107 0)
(-0.0231368 0.0271587 0)
(-0.0563884 0.0223696 0)
(-0.0699885 0.00844587 0)
(-0.0697725 0.00163286 0)
(-0.0557677 0.00438474 0)
(-0.0262657 0.0114521 0)
(0.0167745 0.0151828 0)
(0.0626983 0.0141216 0)
(0.102184 0.00998699 0)
(0.133371 0.00603603 0)
(0.157643 0.00349521 0)
(0.177139 0.00218172 0)
(0.193147 0.00149194 0)
(0.206118 0.000987264 0)
(0.216155 0.000523626 0)
(0.22342 0.000119711 0)
(0.228278 -0.000179331 0)
(0.231237 -0.000358461 0)
(0.232836 -0.000434072 0)
(0.233543 -0.000436257 0)
(0.233715 -0.000394565 0)
(0.233603 -0.000336238 0)
(0.233368 -0.000273042 0)
(0.233098 -0.000213356 0)
(0.232842 -0.00016185 0)
(0.232621 -0.000120198 0)
(0.232441 -8.74917e-05 0)
(0.232299 -6.23885e-05 0)
(0.232191 -4.36498e-05 0)
(0.232111 -3.00728e-05 0)
(0.232053 -1.97349e-05 0)
(0.232013 -1.33903e-05 0)
(0.231976 -6.64788e-06 0)
(-0.000598158 -0.0340001 0)
(-0.0090138 -0.0240378 0)
(-0.0442555 0.0109984 0)
(-0.132448 0.0474205 0)
(-0.244789 0.059388 0)
(-0.344738 0.0537479 0)
(-0.421085 0.041423 0)
(-0.463901 0.0266863 0)
(-0.473987 0.0106395 0)
(-0.453984 -0.00712077 0)
(-0.405819 -0.0240168 0)
(-0.331549 -0.0383029 0)
(-0.237336 -0.0487836 0)
(-0.129672 -0.0537775 0)
(-0.014963 -0.0545839 0)
(0.100317 -0.0499828 0)
(0.207001 -0.0388616 0)
(0.296001 -0.0228672 0)
(0.358941 -0.00410256 0)
(0.388651 0.0130985 0)
(0.385608 0.0235623 0)
(0.360338 0.0247125 0)
(0.326702 0.0194007 0)
(0.294913 0.0125768 0)
(0.269817 0.00697415 0)
(0.252256 0.00321428 0)
(0.241083 0.00101364 0)
(0.234574 -0.000116374 0)
(0.231141 -0.000601194 0)
(0.229583 -0.000736859 0)
(0.229086 -0.000704517 0)
(0.229141 -0.000605022 0)
(0.229454 -0.000490986 0)
(0.229856 -0.0003859 0)
(0.230258 -0.000294955 0)
(0.230618 -0.000221568 0)
(0.230921 -0.000164293 0)
(0.231167 -0.000120239 0)
(0.23136 -8.66211e-05 0)
(0.231508 -6.15506e-05 0)
(0.231619 -4.28841e-05 0)
(0.2317 -2.94486e-05 0)
(0.231759 -1.9407e-05 0)
(0.231799 -1.3168e-05 0)
(0.231836 -6.50427e-06 0)
(-0.016319 0.0460853 0)
(-0.0706946 0.0746614 0)
(-0.143632 0.119458 0)
(-0.207501 0.143569 0)
(-0.263272 0.139472 0)
(-0.301183 0.112964 0)
(-0.32224 0.0753108 0)
(-0.319646 0.0308936 0)
(-0.298931 -0.0170151 0)
(-0.255384 -0.0640894 0)
(-0.192807 -0.106922 0)
(-0.110388 -0.142734 0)
(-0.0149185 -0.166863 0)
(0.0896154 -0.181609 0)
(0.194579 -0.187209 0)
(0.297591 -0.18013 0)
(0.393161 -0.158252 0)
(0.474759 -0.125113 0)
(0.542575 -0.0831252 0)
(0.595746 -0.0358649 0)
(0.627014 0.0074582 0)
(0.631264 0.0364681 0)
(0.614663 0.0474952 0)
(0.58848 0.044959 0)
(0.561508 0.0358346 0)
(0.538524 0.025403 0)
(0.521026 0.0164348 0)
(0.508634 0.00981663 0)
(0.500284 0.00539868 0)
(0.494873 0.00265799 0)
(0.491496 0.00105996 0)
(0.489477 0.000189229 0)
(0.488339 -0.000243069 0)
(0.48776 -0.000420911 0)
(0.487516 -0.000464512 0)
(0.48746 -0.00043814 0)
(0.487503 -0.000381756 0)
(0.487591 -0.000316376 0)
(0.487692 -0.000252364 0)
(0.487789 -0.000195904 0)
(0.487873 -0.000147295 0)
(0.487942 -0.000110261 0)
(0.487999 -7.69297e-05 0)
(0.488035 -5.81786e-05 0)
(0.488079 -3.24357e-05 0)
(-0.0306728 0.0403349 0)
(-0.0476184 0.0945131 0)
(-0.0412769 0.129721 0)
(-0.037237 0.149799 0)
(-0.022337 0.14325 0)
(-0.000713756 0.108153 0)
(0.022025 0.0603015 0)
(0.0523227 0.00711147 0)
(0.0943505 -0.0509079 0)
(0.150594 -0.111222 0)
(0.215224 -0.169042 0)
(0.287616 -0.218786 0)
(0.363177 -0.249649 0)
(0.43825 -0.263686 0)
(0.504535 -0.269099 0)
(0.562331 -0.257829 0)
(0.613448 -0.223939 0)
(0.649611 -0.178618 0)
(0.671594 -0.129732 0)
(0.691376 -0.0731537 0)
(0.710768 -0.0122958 0)
(0.719306 0.0373124 0)
(0.711107 0.0635882 0)
(0.690888 0.0674462 0)
(0.66645 0.0579177 0)
(0.643302 0.043922 0)
(0.6241 0.0307443 0)
(0.609415 0.020364 0)
(0.598729 0.0129236 0)
(0.591199 0.00787577 0)
(0.586026 0.00457037 0)
(0.582559 0.0024683 0)
(0.580295 0.00117343 0)
(0.578859 0.000410737 0)
(0.577981 -1.37567e-05 0)
(0.577471 -0.000225332 0)
(0.577192 -0.000306593 0)
(0.577058 -0.00031561 0)
(0.577006 -0.000286696 0)
(0.577 -0.000243845 0)
(0.577014 -0.000195647 0)
(0.577037 -0.000155361 0)
(0.577063 -0.000112711 0)
(0.577082 -8.92449e-05 0)
(0.577108 -5.15344e-05 0)
(-0.0212129 0.155332 0)
(0.0207777 0.102551 0)
(0.0715019 0.125938 0)
(0.129141 0.14153 0)
(0.198851 0.12706 0)
(0.268063 0.09136 0)
(0.33149 0.0400336 0)
(0.394318 -0.0275631 0)
(0.459978 -0.0973071 0)
(0.523203 -0.16334 0)
(0.583447 -0.221938 0)
(0.63842 -0.273351 0)
(0.68626 -0.310454 0)
(0.73144 -0.31954 0)
(0.766171 -0.31335 0)
(0.784668 -0.295601 0)
(0.795154 -0.248844 0)
(0.796426 -0.183077 0)
(0.780813 -0.124876 0)
(0.758412 -0.0739376 0)
(0.745191 -0.018803 0)
(0.739836 0.034596 0)
(0.73229 0.0723939 0)
(0.717867 0.0872507 0)
(0.697794 0.0827529 0)
(0.675927 0.0679154 0)
(0.655738 0.0507306 0)
(0.639072 0.0356218 0)
(0.626347 0.024 0)
(0.617161 0.0156823 0)
(0.610798 0.00996165 0)
(0.606527 0.00612381 0)
(0.603731 0.00360283 0)
(0.601941 0.00198677 0)
(0.600818 0.000987149 0)
(0.600131 0.000394779 0)
(0.599722 6.67997e-05 0)
(0.599485 -9.77779e-05 0)
(0.599353 -0.000167299 0)
(0.599285 -0.000184995 0)
(0.599252 -0.00017102 0)
(0.599241 -0.000149671 0)
(0.59924 -0.000115229 0)
(0.599243 -9.61626e-05 0)
(0.599252 -5.708e-05 0)
(0.102887 0.00116815 0)
(0.119652 -0.0120396 0)
(0.226405 -0.00212069 0)
(0.312212 0.00316364 0)
(0.410781 -0.0125964 0)
(0.506361 -0.0394649 0)
(0.594214 -0.0774903 0)
(0.676661 -0.128856 0)
(0.752215 -0.182851 0)
(0.814106 -0.241445 0)
(0.862538 -0.293173 0)
(0.902155 -0.326813 0)
(0.924505 -0.350273 0)
(0.931343 -0.350553 0)
(0.922083 -0.32676 0)
(0.897872 -0.294114 0)
(0.865994 -0.238231 0)
(0.823099 -0.157696 0)
(0.771333 -0.0853551 0)
(0.721277 -0.0344098 0)
(0.683993 0.00834434 0)
(0.665514 0.0498201 0)
(0.660629 0.0828521 0)
(0.659633 0.0988978 0)
(0.656731 0.0974404 0)
(0.65028 0.0842763 0)
(0.641281 0.0663859 0)
(0.631692 0.048824 0)
(0.623132 0.0340975 0)
(0.616392 0.0228522 0)
(0.611556 0.014775 0)
(0.608324 0.00922318 0)
(0.60628 0.00553891 0)
(0.605042 0.00317136 0)
(0.604319 0.00169827 0)
(0.603908 0.000814268 0)
(0.603681 0.00030521 0)
(0.603555 2.94388e-05 0)
(0.603487 -0.00010271 0)
(0.603456 -0.000154147 0)
(0.603442 -0.000158076 0)
(0.603439 -0.000146335 0)
(0.603439 -0.000116302 0)
(0.60344 -9.94287e-05 0)
(0.603443 -5.94749e-05 0)
)
;

boundaryField
{
    inlet
    {
        type            fixedValue;
        value           uniform (1 0 0);
    }
    outlet
    {
        type            zeroGradient;
    }
    upperWall
    {
        type            noSlip;
    }
    lowerWall
    {
        type            noSlip;
    }
    frontAndBack
    {
        type            empty;
    }
}


// ************************************************************************* //
