/*--------------------------------*- C++ -*----------------------------------*\
  =========                 |
  \\      /  F ield         | OpenFOAM: The Open Source CFD Toolbox
   \\    /   O peration     | Website:  https://openfoam.org
    \\  /    A nd           | Version:  10
     \\/     M anipulation  |
\*---------------------------------------------------------------------------*/
FoamFile
{
    format      ascii;
    class       volScalarField;
    location    "0.55";
    object      p;
}
// * * * * * * * * * * * * * * * * * * * * * * * * * * * * * * * * * * * * * //

dimensions      [0 2 -2 0 0 0 0];

internalField   nonuniform List<scalar> 
400
(
-1.07077e-10
6.87985e-05
0.000231603
0.000480737
0.000809713
0.00121016
0.00167196
0.00218351
0.00273205
0.00330393
0.00388487
0.0044603
0.00501559
0.00553645
0.0060092
0.00642117
0.00676108
0.00701945
0.00718882
0.00726089
-6.74035e-05
2.58837e-06
0.000168473
0.000422226
0.00075726
0.00116504
0.00163525
0.0021561
0.00271462
0.00329693
0.00388856
0.00447468
0.00504046
0.00557133
0.00605334
0.00647356
0.0068204
0.00708413
0.00725711
0.00733063
-0.000233543
-0.000160474
1.29844e-05
0.000278267
0.000628402
0.0010544
0.00154545
0.00208925
0.0026723
0.00328022
0.00389801
0.00451031
0.00510173
0.00565708
0.00616178
0.00660218
0.00696602
0.00724292
0.00742465
0.00750184
-0.000497874
-0.000419718
-0.000234123
4.95922e-05
0.000423822
0.000878835
0.00140301
0.00198321
0.00260514
0.00325362
0.00391283
0.00456661
0.00519867
0.00579291
0.0063337
0.0068063
0.00719735
0.00749534
0.00769115
0.00777439
-0.000867372
-0.000781976
-0.00057924
-0.000269568
0.000138492
0.000634112
0.00120451
0.0018354
0.00251137
0.00321615
0.00393288
0.0046443
0.00533298
0.00598153
0.00657291
0.00709086
0.00752036
0.00784832
0.00806418
0.00815613
-0.00135191
-0.00125683
-0.0010313
-0.000687233
-0.000234538
0.000314428
0.000945307
0.00164229
0.00238855
0.00316646
0.00395791
0.00474432
0.00550686
0.00622657
0.00688459
0.00746261
0.00794336
0.00831152
0.00855444
0.00865822
-0.00196458
-0.00185695
-0.00160201
-0.00121382
-0.000704192
-8.75915e-05
0.000619538
0.00139946
0.00223359
0.00310279
0.00398748
0.00486765
0.00572289
0.00653241
0.00727513
0.00793012
0.00847714
0.00889771
0.00917616
0.00929563
-0.00272234
-0.00259861
-0.00230628
-0.0018624
-0.0012815
-0.000580924
0.000220155
0.00110159
0.00204278
0.00302288
0.00402082
0.00501514
0.0059838
0.00690399
0.00775207
0.00850385
0.00913518
0.00962319
0.00994788
0.010088
-0.00364684
-0.00350246
-0.00316274
-0.002649
-0.00197968
-0.00117608
-0.000260935
0.000742676
0.00181186
0.00292402
0.00405674
0.00518728
0.00629212
0.00734644
0.00832376
0.00919597
0.00993383
0.0105084
0.0108934
0.011061
-0.00476568
-0.00459449
-0.00419434
-0.00359283
-0.0028141
-0.0018849
-0.000832585
0.000316224
0.00153616
0.00280304
0.00409341
0.0053838
0.00664966
0.00786444
0.00899878
0.01002
0.0108925
0.0115788
0.0120432
0.0122479
-0.00611437
-0.00590754
-0.0054293
-0.00471666
-0.00380213
-0.00272009
-0.00150385
-0.000184194
0.00121101
0.00265639
0.0041282
0.00560314
0.00705663
0.0084612
0.00978491
0.0109902
0.0120332
0.0128652
0.0134363
0.0136928
-0.0077394
-0.00748348
-0.00690223
-0.00604689
-0.00496262
-0.00369435
-0.00228298
-0.000764024
0.000832327
0.00248042
0.00415751
0.00584189
0.00751058
0.00913681
0.0106873
0.0121196
0.0133803
0.0144053
0.0151234
0.0154554
-0.0097032
-0.00937666
-0.00865564
-0.00761353
-0.00631482
-0.00481872
-0.00317571
-0.00142646
0.000397526
0.00227181
0.00417659
0.00609396
0.00800499
0.00988619
0.0117055
0.0134173
0.0149579
0.0162434
0.0171702
0.0176187
-0.012094
-0.0116585
-0.0107417
-0.00944921
-0.00787585
-0.0060999
-0.00418325
-0.00217068
-9.32322e-05
0.00202824
0.00417955
0.00634967
0.00852722
0.010696
0.0128293
0.0148829
0.0167856
0.0184296
0.0196594
0.0203084
-0.0150451
-0.0144189
-0.0132235
-0.0115862
-0.00965666
-0.00753657
-0.00529847
-0.00298886
-0.000634948
0.00174953
0.0041596
0.00659493
0.00905625
0.0115402
0.0140325
0.0164985
0.0188671
0.0210146
0.0226913
0.0237244
-0.0188384
-0.0177867
-0.0161762
-0.0140499
-0.0116555
-0.00911243
-0.0065006
-0.00386229
-0.00121508
0.00143939
0.00410981
0.00681074
0.00956047
0.0123753
0.0152635
0.0182139
0.0211732
0.0240287
0.0263693
0.0282076
-0.0233257
-0.0218057
-0.0196614
-0.0168445
-0.0138438
-0.0107858
-0.0077479
-0.00475655
-0.00181085
0.00110713
0.0040247
0.00697406
0.00999642
0.013135
0.0164332
0.0199237
0.0236027
0.0274554
0.0307135
0.0341474
-0.0318292
-0.0271465
-0.023955
-0.0199957
-0.0161585
-0.0124739
-0.00896597
-0.00561559
-0.00238528
0.000771118
0.00390567
0.00706055
0.010313
0.0137344
0.0174166
0.0214878
0.026092
0.0315746
0.0364531
0.0438337
-0.0377298
-0.0327789
-0.0284139
-0.0232065
-0.0184353
-0.0140649
-0.0100759
-0.00638462
-0.00290556
0.000440876
0.00372862
0.00704507
0.0104527
0.0140538
0.0179632
0.0223311
0.0271989
0.0339939
0.0383774
0.0518677
-0.0676124
-0.0383528
-0.0328324
-0.0256021
-0.0197375
-0.014905
-0.0106426
-0.00677101
-0.00316835
0.000268956
0.00363197
0.00700812
0.010493
0.0142149
0.0183811
0.023435
0.0297785
0.0403959
0.0510668
0.089484
)
;

boundaryField
{
    movingWall
    {
        type            zeroGradient;
    }
    fixedWalls
    {
        type            zeroGradient;
    }
    frontAndBack
    {
        type            empty;
    }
}


// ************************************************************************* //
