/*--------------------------------*- C++ -*----------------------------------*\
  =========                 |
  \\      /  F ield         | OpenFOAM: The Open Source CFD Toolbox
   \\    /   O peration     | Website:  https://openfoam.org
    \\  /    A nd           | Version:  10
     \\/     M anipulation  |
\*---------------------------------------------------------------------------*/
FoamFile
{
    format      ascii;
    class       volVectorField;
    location    "6.1";
    object      U;
}
// * * * * * * * * * * * * * * * * * * * * * * * * * * * * * * * * * * * * * //

dimensions      [0 1 -1 0 0 0 0];

internalField   nonuniform List<vector> 
496
(
(9.99369 0.068211 0)
(9.92417 -0.154515 0)
(10.1823 -0.14442 0)
(10.702 -0.201311 0)
(10.049 0.437148 0)
(9.87693 -1.03463 0)
(10.1843 -0.486382 0)
(10.842 -0.961901 0)
(10.6191 1.18503 0)
(9.40926 -2.45032 0)
(10.8406 -0.435306 0)
(10.9291 -3.26106 0)
(11.5915 1.40648 0)
(8.56133 -2.18802 0)
(12.1013 0.402172 0)
(10.1722 -5.54942 0)
(11.37 -0.243609 4.00148e-18)
(12.0233 -0.184444 -1.42175e-18)
(11.5037 -0.633486 1.53574e-18)
(12.4014 -0.0583433 5.63791e-19)
(12.596 -2.24225 -5.54223e-18)
(13.1172 -0.34576 8.59339e-19)
(12.6084 -5.65293 -2.33558e-17)
(14.8838 -3.61854 4.81209e-17)
(12.7034 -0.211452 0)
(13.0318 -0.210545 0)
(13.3687 -0.235965 0)
(13.4397 -0.0703505 0)
(13.033 -0.0361835 0)
(13.4176 -0.318393 0)
(13.8731 -0.40438 0)
(14.1648 -0.222382 0)
(12.888 0.225581 0)
(12.855 -0.0939649 0)
(13.5746 0.421339 0)
(14.0197 0.551133 0)
(10.7607 -3.72494 0)
(7.48786 -2.05259 0)
(11.0262 -0.0549952 0)
(10.1152 -0.570442 0)
(13.4611 0.0568721 0)
(13.1841 0.145648 0)
(13.0482 0.186804 0)
(13.0452 0.238313 0)
(13.2374 0.380922 0)
(13.3577 0.424672 0)
(13.3608 0.472827 0)
(13.243 0.46247 0)
(13.1312 0.493551 0)
(13.0122 0.478361 0)
(12.9403 0.484491 0)
(12.8171 0.469437 0)
(12.742 0.459452 0)
(12.572 0.436696 0)
(12.498 0.414738 0)
(12.2872 0.390216 0)
(12.2186 0.363179 0)
(11.9907 0.349394 0)
(11.9877 0.321993 0)
(11.7805 0.316645 0)
(11.8325 0.278628 0)
(11.6071 0.279594 0)
(11.6564 0.228461 0)
(11.4689 0.244839 0)
(11.5471 0.213241 0)
(11.4303 0.240632 0)
(11.4182 0.242809 0)
(11.3065 0.257314 0)
(11.1193 0.271938 0)
(10.9562 0.257382 0)
(10.6371 0.300412 0)
(10.4361 0.273574 0)
(10.2293 0.297776 0)
(10.0412 0.23877 0)
(10.1161 0.180858 0)
(9.93699 0.136175 0)
(10.2553 0.0530489 0)
(10.1669 0.0686009 0)
(10.4947 0.0347504 0)
(10.508 0.089815 0)
(14.1138 -0.164108 0)
(13.8498 -0.344952 0)
(13.6845 -0.448519 0)
(13.8422 -0.446954 0)
(14.0163 -0.387096 0)
(14.0944 -0.405451 0)
(14.0727 -0.397674 0)
(13.9903 -0.367848 0)
(13.9219 -0.322136 0)
(13.8164 -0.27445 0)
(13.8038 -0.235618 0)
(13.6874 -0.189564 0)
(13.677 -0.156845 0)
(13.5116 -0.150251 0)
(13.5108 -0.108109 0)
(13.3153 -0.126973 0)
(13.3232 -0.0828527 0)
(13.1301 -0.09937 0)
(13.173 -0.0760609 0)
(13.0154 -0.0709628 0)
(13.07 -0.106418 0)
(12.9304 -0.0638139 0)
(12.9581 -0.156421 0)
(12.9037 -0.0602099 0)
(12.9416 -0.145467 0)
(12.9726 -0.0477522 0)
(12.9422 -0.0362079 0)
(12.9352 0.0467004 0)
(12.7857 0.15748 0)
(12.6743 0.145978 0)
(12.4881 0.226593 0)
(12.2519 0.0640088 0)
(12.1527 0.0647208 0)
(11.8717 -0.131767 0)
(11.9339 -0.147649 0)
(11.77 -0.259744 0)
(11.9524 -0.324207 0)
(12.0095 -0.252493 0)
(12.1828 -0.301602 0)
(12.4002 -0.0761798 0)
(13.6946 0.377135 0)
(13.3324 0.233822 0)
(13.4012 0.213151 0)
(13.5921 0.388339 0)
(13.6379 0.288187 0)
(13.6477 0.396749 0)
(13.8119 0.480244 0)
(13.6516 0.44396 0)
(13.778 0.55246 0)
(13.5926 0.489401 0)
(13.8057 0.599041 0)
(13.5954 0.494647 0)
(13.7416 0.567953 0)
(13.5165 0.450875 0)
(13.6003 0.518027 0)
(13.4355 0.443959 0)
(13.3996 0.47192 0)
(13.3704 0.464353 0)
(13.2211 0.390655 0)
(13.336 0.438095 0)
(13.081 0.232614 0)
(13.2435 0.332849 0)
(12.9852 0.0830362 0)
(13.1599 0.224405 0)
(13.0347 0.0391575 0)
(13.1809 0.17384 0)
(13.2885 0.201873 0)
(13.3062 0.257163 0)
(13.5432 0.569478 0)
(13.3647 0.528326 0)
(13.4872 0.933041 0)
(13.1123 0.759539 0)
(13.1223 0.9021 0)
(12.8496 0.577617 0)
(12.7816 0.274185 0)
(12.6346 0.00493799 0)
(12.4193 -0.406222 0)
(12.5212 -0.260641 0)
(12.3419 -0.501497 0)
(12.5553 -0.18053 0)
(8.73358 -0.0410949 0)
(9.30472 -0.0367016 0)
(8.34026 -0.0637345 0)
(9.77627 -0.782191 0)
(7.31696 -0.64846 0)
(9.46322 -0.501061 0)
(8.13005 -0.634521 0)
(8.3642 -0.233154 0)
(8.33082 -0.0868693 0)
(8.49661 0.0307485 0)
(8.90861 0.0445234 0)
(8.62523 0.00490514 0)
(9.22388 -0.00392117 0)
(8.75537 -0.0355289 0)
(9.41371 0.00869866 0)
(8.91944 0.00713205 0)
(9.37069 0.111454 0)
(9.06399 0.136643 0)
(9.21043 0.201916 0)
(9.151 0.177903 0)
(8.75377 0.123815 0)
(9.12757 0.155634 0)
(8.4456 0.0325917 0)
(9.0046 0.0321816 0)
(8.44517 -0.0602052 0)
(9.27022 -0.0969337 0)
(8.97891 -0.207949 0)
(9.67192 -0.20001 0)
(10.0527 -0.103869 0)
(10.3401 -0.0416332 0)
(11.0977 0.121507 0)
(10.8945 0.164213 0)
(11.3961 0.253939 0)
(10.8215 0.255849 0)
(10.524 0.234294 0)
(9.85674 0.246227 0)
(9.08633 0.17866 0)
(9.03571 0.146906 0)
(8.28791 -0.108047 0)
(8.78731 -0.171144 0)
(12.162 0.663074 -1.08383e-17)
(7.98694 -0.801652 -1.81041e-17)
(11.3517 0.569886 3.18047e-17)
(4.70411 -4.59774 -8.60314e-17)
(12.4254 -0.555758 1.03745e-17)
(7.55991 1.04905 1.73605e-17)
(12.2262 0.371498 -3.04739e-17)
(4.23381 5.15556 8.04038e-17)
(-6.20024 1.14817 0)
(3.0353 -1.51839 0)
(-0.653215 3.8762 0)
(-1.64903 -2.16311 0)
(15.3613 -4.17261 3.73306e-17)
(-13.5479 -3.62323 0)
(7.01569 4.35371 0)
(-1.90324 -2.84289 0)
(0.675874 0.298633 0)
(4.0791 0.514519 0)
(1.50694 1.34765 0)
(1.30317 -0.829133 0)
(1.92641 -0.608787 0)
(1.50398 2.73022 0)
(-1.49256 -0.328331 0)
(0.0647015 0.0897957 0)
(0.205914 0.421627 0)
(0.73743 0.288214 0)
(0.66884 0.201342 0)
(0.645529 0.29994 0)
(0.692972 0.298928 0)
(1.07466 0.286373 0)
(0.923598 0.297578 0)
(1.17693 0.295175 0)
(1.40615 0.303415 0)
(1.40219 0.506088 0)
(1.98046 0.537125 0)
(1.4213 0.252555 0)
(1.76472 0.306845 0)
(2.45352 0.467245 0)
(1.79163 -0.00453523 0)
(2.42833 0.0077223 0)
(2.60955 -0.022156 0)
(2.97817 -0.371542 0)
(2.86261 -0.335722 0)
(3.60094 -0.35723 0)
(3.80651 -0.211686 0)
(3.99542 0.0717064 0)
(4.26037 0.297744 0)
(4.29318 0.533813 0)
(4.3095 0.840112 0)
(4.36236 0.974738 0)
(3.89909 0.863238 0)
(4.07946 0.722982 0)
(4.11306 0.384204 0)
(3.95026 0.074621 0)
(4.14223 -0.506432 0)
(4.52504 -0.436662 0)
(1.21941 -1.81315 0)
(-0.889594 -0.0568634 0)
(-1.03278 0.788987 0)
(2.10487 -1.07817 0)
(-3.89871 0.547115 0)
(1.24815 1.26088 0)
(1.07885 -0.313844 0)
(0.125005 -0.653709 0)
(0.67625 -0.597191 0)
(0.521274 -0.372245 0)
(0.486352 -0.113531 0)
(0.88104 -0.174341 0)
(1.36485 -0.343514 0)
(1.49815 -0.329309 0)
(1.41575 -0.153565 0)
(1.76071 -0.214454 0)
(1.66022 -0.114743 0)
(1.89219 -0.109777 0)
(2.57722 -0.186496 0)
(2.43375 0.0763343 0)
(2.50073 -0.126466 0)
(3.29731 -0.284548 0)
(3.13109 -0.22301 0)
(2.85822 -0.295418 0)
(3.92708 -0.741698 0)
(3.28525 -0.745496 0)
(3.08594 -0.654789 0)
(3.83102 -0.890629 0)
(2.89427 -0.621641 0)
(3.70629 -0.401703 0)
(3.40965 -0.0483487 0)
(3.62961 0.323909 0)
(4.08195 0.498507 0)
(4.24188 0.624742 0)
(4.56255 0.698263 0)
(5.05289 0.460924 0)
(5.14063 0.189298 0)
(5.48319 -0.0236944 0)
(5.5542 -0.542008 0)
(5.24128 -0.567761 0)
(12.2537 -1.47236 0)
(8.29311 2.74451 0)
(12.696 -0.720683 0)
(11.1626 7.02173 0)
(10.8091 -1.51204 0)
(9.16223 3.2513 0)
(11.2816 0.139753 0)
(10.9836 4.31104 0)
(10.0422 -0.493379 0)
(9.8296 1.32752 0)
(10.2528 0.445724 0)
(10.968 1.15487 0)
(9.9691 -0.0637027 0)
(9.9572 0.149616 0)
(10.2097 0.147057 0)
(10.8524 0.197304 0)
(12.6522 5.51207 4.93716e-17)
(17.1905 4.80945 -7.96151e-17)
(13.4406 2.1958 0)
(13.4485 0.187347 0)
(11.7539 0.475595 0)
(12.6833 -0.233659 0)
(11.5279 0.208535 0)
(12.2864 0.175896 0)
(9.79329 2.10661 0)
(12.537 2.98668 0)
(9.93412 -0.719391 0)
(10.5116 0.218645 0)
(13.2092 -1.23549 0)
(12.5051 -2.03461 0)
(13.2689 -1.85309 0)
(12.9624 -1.1392 0)
(13.2254 -0.34784 0)
(13.5421 0.186572 0)
(13.788 0.510615 0)
(13.4811 0.685748 0)
(12.7601 0.111121 0)
(12.9335 0.119578 0)
(12.8779 -0.145017 0)
(12.7094 -0.334814 0)
(11.042 -0.019438 0)
(10.4161 0.589487 0)
(10.077 0.680995 0)
(9.95677 0.924713 0)
(10.4013 0.970186 0)
(9.31879 0.553843 0)
(9.81451 0.321732 0)
(10.0219 0.184311 0)
(10.0273 0.0370725 0)
(10.2763 -0.00828468 0)
(9.87787 -0.0182141 0)
(10.2814 -0.0452512 0)
(9.78659 -0.0270711 0)
(10.4457 -0.05052 0)
(9.83788 0.0291376 0)
(10.3805 0.000311412 0)
(9.94208 0.0700488 0)
(10.2396 0.0250856 0)
(10.2512 0.0214481 0)
(10.3599 0.0119723 0)
(10.6122 0.00313777 0)
(10.5992 -0.0224722 0)
(11.1101 -0.0810599 0)
(10.8453 -0.0900683 0)
(11.3418 -0.193295 0)
(11.1108 -0.198149 0)
(10.9833 -0.171841 0)
(10.6798 -0.176922 0)
(10.0877 -0.111183 0)
(9.9766 -0.110226 0)
(9.2076 0.0203935 0)
(9.41808 0.131942 0)
(9.00942 0.288145 0)
(9.48385 0.341357 0)
(9.77111 0.299011 0)
(10.0697 0.260165 0)
(10.9055 0.00376174 0)
(10.997 -0.069378 0)
(11.78 -0.268339 0)
(11.8355 -0.225917 0)
(12.9811 -0.83512 0)
(12.6578 -0.376227 0)
(12.9768 -0.25458 0)
(13.0524 -0.132848 0)
(13.2645 -0.191906 0)
(13.3202 -0.242048 0)
(13.3623 -0.248167 0)
(13.3994 -0.437934 0)
(13.3058 -0.493404 0)
(13.3287 -0.616586 0)
(13.1478 -0.507983 0)
(13.2094 -0.550092 0)
(13.0224 -0.365906 0)
(13.1222 -0.424431 0)
(12.9831 -0.277694 0)
(13.0666 -0.360876 0)
(12.984 -0.287082 0)
(12.9646 -0.331367 0)
(13.0047 -0.367722 0)
(12.9311 -0.355158 0)
(13.0599 -0.497874 0)
(12.8606 -0.406935 0)
(12.9882 -0.658061 0)
(12.6879 -0.547025 0)
(12.7406 -0.73823 0)
(12.4694 -0.626071 0)
(12.4307 -0.559082 0)
(12.3407 -0.426421 0)
(12.1696 -0.064224 0)
(12.2553 -0.0477446 0)
(12.053 0.325046 0)
(12.328 0.144234 0)
(12.2643 0.293705 0)
(12.5558 0.0734033 0)
(12.6942 -0.138328 0)
(12.8715 -0.255933 0)
(13.0052 -0.735916 0)
(12.8659 -0.652454 0)
(12.8279 -1.11623 0)
(12.458 -0.818383 0)
(13.171 0.771451 0)
(12.9256 0.878168 0)
(13.1811 0.861436 0)
(13.3911 0.789934 0)
(13.7093 0.672132 0)
(13.744 0.593222 0)
(13.8228 0.48441 0)
(13.6841 0.406384 0)
(13.7032 0.307801 0)
(13.5573 0.245791 0)
(13.5666 0.213636 0)
(13.4455 0.192315 0)
(13.4406 0.220967 0)
(13.354 0.198682 0)
(13.3417 0.236621 0)
(13.3033 0.177903 0)
(13.2737 0.19294 0)
(13.2305 0.133094 0)
(13.1876 0.137054 0)
(13.1432 0.0968429 0)
(13.0913 0.0678727 0)
(12.9613 0.0736923 0)
(12.8794 0.0055373 0)
(12.6893 0.0543331 0)
(12.6379 -0.00195624 0)
(12.4247 0.100029 0)
(12.3716 0.106213 0)
(12.2005 0.160509 0)
(12.2054 0.223898 0)
(12.2199 0.202236 0)
(12.2835 0.325424 0)
(12.4548 0.209361 0)
(12.506 0.24843 0)
(12.7311 0.074064 0)
(12.6636 -0.012169 0)
(12.7507 -0.142839 0)
(12.5662 -0.234407 0)
(12.4374 -0.176812 0)
(12.298 -0.162822 0)
(11.9225 0.0479194 0)
(12.5282 -0.445862 0)
(12.4386 -0.399524 0)
(12.5953 -0.371292 0)
(12.7893 -0.407047 0)
(13.0713 -0.433319 0)
(13.1302 -0.496011 0)
(13.2351 -0.488976 0)
(13.0524 -0.493625 0)
(13.0452 -0.475473 0)
(12.8284 -0.485237 0)
(12.8596 -0.459705 0)
(12.6553 -0.456338 0)
(12.6927 -0.412479 0)
(12.491 -0.403566 0)
(12.5139 -0.358528 0)
(12.334 -0.365951 0)
(12.3295 -0.350954 0)
(12.1754 -0.367563 0)
(12.1294 -0.371529 0)
(12.0164 -0.378951 0)
(11.9172 -0.402991 0)
(11.7702 -0.383644 0)
(11.5806 -0.415533 0)
(11.3965 -0.385328 0)
(11.2534 -0.421049 0)
(11.0624 -0.375656 0)
(11.0014 -0.357195 0)
(10.7947 -0.303097 0)
(10.8963 -0.224507 0)
(10.7647 -0.201573 0)
(10.9803 -0.122283 0)
(10.9463 -0.152756 0)
(11.0953 -0.123332 0)
(11.1043 -0.187701 0)
(11.0119 -0.227795 0)
(10.9741 -0.260678 0)
(10.6147 -0.336414 0)
(10.4352 -0.315233 0)
(10.06 -0.410081 0)
(9.78011 -0.333866 0)
)
;

boundaryField
{
    inlet
    {
        type            fixedValue;
        value           uniform (10 0 0);
    }
    outlet
    {
        type            zeroGradient;
    }
    obstacle
    {
        type            noSlip;
    }
    upperWall
    {
        type            noSlip;
    }
    lowerWall
    {
        type            noSlip;
    }
    frontAndBack
    {
        type            empty;
    }
}


// ************************************************************************* //
