/*--------------------------------*- C++ -*----------------------------------*\
  =========                 |
  \\      /  F ield         | OpenFOAM: The Open Source CFD Toolbox
   \\    /   O peration     | Website:  https://openfoam.org
    \\  /    A nd           | Version:  10
     \\/     M anipulation  |
\*---------------------------------------------------------------------------*/
FoamFile
{
    format      ascii;
    class       volVectorField;
    location    "1.7";
    object      U;
}
// * * * * * * * * * * * * * * * * * * * * * * * * * * * * * * * * * * * * * //

dimensions      [0 1 -1 0 0 0 0];

internalField   nonuniform List<vector> 
400
(
(-0.000313181 0.000309637 0)
(-0.00116578 0.000432379 0)
(-0.00218892 0.000428145 0)
(-0.00312584 0.000400641 0)
(-0.00398927 0.000362679 0)
(-0.00475585 0.000315948 0)
(-0.00540639 0.000261404 0)
(-0.00592469 0.000200061 0)
(-0.00629699 0.000133031 0)
(-0.00651225 6.15345e-05 0)
(-0.00656234 -1.29962e-05 0)
(-0.00644227 -8.9282e-05 0)
(-0.0061507 -0.000165403 0)
(-0.0056905 -0.000239353 0)
(-0.00506922 -0.000308868 0)
(-0.00429958 -0.000371475 0)
(-0.00340048 -0.000424534 0)
(-0.00239926 -0.000464485 0)
(-0.00128904 -0.000475925 0)
(-0.000350415 -0.00034675 0)
(-0.000451846 0.00116904 0)
(-0.00162936 0.00157942 0)
(-0.0030101 0.0015598 0)
(-0.00427763 0.00145779 0)
(-0.00544331 0.00131702 0)
(-0.00647561 0.00114415 0)
(-0.00734881 0.000943118 0)
(-0.00804152 0.00071799 0)
(-0.00853598 0.000473051 0)
(-0.00881808 0.000212834 0)
(-0.00887801 -5.79546e-05 0)
(-0.00870978 -0.000333593 0)
(-0.008312 -0.000607798 0)
(-0.0076891 -0.000873587 0)
(-0.00685139 -0.001123 0)
(-0.0058159 -0.00134732 0)
(-0.00460786 -0.00153713 0)
(-0.00326327 -0.00167958 0)
(-0.00177806 -0.00172228 0)
(-0.000496908 -0.00129078 0)
(-0.000485279 0.00226193 0)
(-0.00174875 0.00300535 0)
(-0.00322812 0.00296318 0)
(-0.00458441 0.00276733 0)
(-0.00583094 0.00249763 0)
(-0.00693442 0.0021671 0)
(-0.00786792 0.00178372 0)
(-0.00860923 0.00135547 0)
(-0.00913993 0.000890626 0)
(-0.00944564 0.00039775 0)
(-0.00951536 -0.000114191 0)
(-0.00934209 -0.000634945 0)
(-0.00892411 -0.00115297 0)
(-0.00826486 -0.00165529 0)
(-0.00737384 -0.0021271 0)
(-0.00626779 -0.00255199 0)
(-0.00497257 -0.00291205 0)
(-0.00352631 -0.00318268 0)
(-0.00192392 -0.0032677 0)
(-0.000538258 -0.00248586 0)
(-0.000516869 0.00338148 0)
(-0.00186469 0.00447247 0)
(-0.00344328 0.00440594 0)
(-0.0048888 0.00411287 0)
(-0.00621675 0.00371062 0)
(-0.00739229 0.00321879 0)
(-0.0083877 0.0026495 0)
(-0.00918036 0.00201471 0)
(-0.00975152 0.00132649 0)
(-0.0100862 0.000597198 0)
(-0.0101728 -0.000160088 0)
(-0.010003 -0.000931656 0)
(-0.00957285 -0.00170093 0)
(-0.00888388 -0.00244907 0)
(-0.00794354 -0.00315434 0)
(-0.00676695 -0.00379212 0)
(-0.00537958 -0.004335 0)
(-0.00382162 -0.00474518 0)
(-0.00208739 -0.00487927 0)
(-0.000584104 -0.00372923 0)
(-0.000560451 0.00458369 0)
(-0.0020233 0.00604941 0)
(-0.00373654 0.00595549 0)
(-0.00530302 0.00555693 0)
(-0.00674083 0.0050119 0)
(-0.00801318 0.00434748 0)
(-0.00909159 0.00358047 0)
(-0.00995324 0.00272703 0)
(-0.0105793 0.00180304 0)
(-0.0109543 0.00082426 0)
(-0.011066 -0.0001931 0)
(-0.0109039 -0.0012318 0)
(-0.0104612 -0.00227105 0)
(-0.00973614 -0.00328654 0)
(-0.00873266 -0.00424942 0)
(-0.00746272 -0.00512589 0)
(-0.00595035 -0.00587717 0)
(-0.00423794 -0.00644907 0)
(-0.00231944 -0.00664405 0)
(-0.000649768 -0.00509288 0)
(-0.000618397 0.00590018 0)
(-0.00223334 0.00777678 0)
(-0.0041236 0.00765076 0)
(-0.00584806 0.0071347 0)
(-0.00742821 0.00643229 0)
(-0.00882503 0.00557951 0)
(-0.0100095 0.00459869 0)
(-0.0109593 0.00351056 0)
(-0.0116558 0.00233469 0)
(-0.0120838 0.0010897 0)
(-0.0122304 -0.000205818 0)
(-0.0120824 -0.00153254 0)
(-0.0116289 -0.00286637 0)
(-0.0108634 -0.0041783 0)
(-0.009784 -0.00543233 0)
(-0.008397 -0.00658439 0)
(-0.00672281 -0.00758164 0)
(-0.0048055 -0.00834876 0)
(-0.00263809 -0.0086235 0)
(-0.000740574 -0.00662735 0)
(-0.000692769 0.00736426 0)
(-0.00250215 0.00969756 0)
(-0.00461727 0.00953204 0)
(-0.00654023 0.00888164 0)
(-0.00829724 0.00800199 0)
(-0.00984694 0.00694003 0)
(-0.0111606 0.0057249 0)
(-0.0122173 0.00438245 0)
(-0.0130002 0.00293575 0)
(-0.0134949 0.00140545 0)
(-0.0136883 -0.000188861 0)
(-0.0135645 -0.00182761 0)
(-0.013107 -0.00348534 0)
(-0.0123022 -0.00512995 0)
(-0.0111389 -0.00671886 0)
(-0.00961402 -0.00819676 0)
(-0.00774009 -0.00949335 0)
(-0.0055606 -0.0105051 0)
(-0.00306615 -0.0108895 0)
(-0.000863581 -0.00839265 0)
(-0.00078654 0.00901529 0)
(-0.00284 0.011862 0)
(-0.00523487 0.0116454 0)
(-0.00740102 0.010837 0)
(-0.00937123 0.00975316 0)
(-0.0111022 0.00845483 0)
(-0.0125672 0.0069798 0)
(-0.0137485 0.00535981 0)
(-0.0146329 0.00362111 0)
(-0.0152085 0.00178514 0)
(-0.0154634 -0.000129455 0)
(-0.0153789 -0.00210584 0)
(-0.0149313 -0.00412018 0)
(-0.014097 -0.00614049 0)
(-0.012851 -0.00811957 0)
(-0.011174 -0.00999048 0)
(-0.00906359 -0.0116616 0)
(-0.00655707 -0.0129914 0)
(-0.00363894 -0.013533 0)
(-0.00103022 -0.0104676 0)
(-0.000904232 0.0109003 0)
(-0.00326185 0.0143294 0)
(-0.00600096 0.0140432 0)
(-0.00845997 0.0130434 0)
(-0.0106811 0.0117186 0)
(-0.0126204 0.0101485 0)
(-0.0142558 0.0083821 0)
(-0.0155761 0.006458 0)
(-0.016575 0.00440511 0)
(-0.0172455 0.00224369 0)
(-0.0175793 -1.21946e-05 0)
(-0.0175553 -0.00234924 0)
(-0.0171417 -0.0047534 0)
(-0.0163016 -0.00719741 0)
(-0.0149892 -0.00963398 0)
(-0.0131593 -0.0119862 0)
(-0.0107821 -0.0141374 0)
(-0.0078765 -0.0158953 0)
(-0.0044131 -0.0166719 0)
(-0.00125994 -0.0129597 0)
(-0.00105298 0.0130778 0)
(-0.00379017 0.0171711 0)
(-0.00695091 0.0167859 0)
(-0.00975813 0.0155464 0)
(-0.012268 0.0139304 0)
(-0.0144389 0.0120424 0)
(-0.0162578 0.00994618 0)
(-0.0177256 0.00768844 0)
(-0.0188473 0.00530001 0)
(-0.0196259 0.00279748 0)
(-0.0200564 0.000186613 0)
(-0.0201201 -0.00252978 0)
(-0.0197795 -0.00535327 0)
(-0.0189776 -0.00827011 0)
(-0.01764 -0.011242 0)
(-0.0156815 -0.0141889 0)
(-0.0130247 -0.0169682 0)
(-0.00964494 -0.0193218 0)
(-0.00548314 -0.0204624 0)
(-0.00158785 -0.0160248 0)
(-0.00124459 0.0156241 0)
(-0.00445964 0.0204764 0)
(-0.00813662 0.0199443 0)
(-0.0113534 0.0183948 0)
(-0.0141874 0.0164177 0)
(-0.016605 0.0141511 0)
(-0.0186099 0.0116781 0)
(-0.0202225 0.00905476 0)
(-0.0214661 0.00631266 0)
(-0.0223591 0.00346141 0)
(-0.0229066 0.000493752 0)
(-0.0230953 -0.00260846 0)
(-0.0228821 -0.00586897 0)
(-0.0221904 -0.00930099 0)
(-0.0209083 -0.012891 0)
(-0.0188908 -0.0165722 0)
(-0.0159811 -0.0201849 0)
(-0.0120615 -0.0233927 0)
(-0.0070143 -0.0251153 0)
(-0.00208167 -0.0199031 0)
(-0.00149977 0.0186439 0)
(-0.00532583 0.0243594 0)
(-0.00963577 0.0236023 0)
(-0.0133285 0.0216382 0)
(-0.0165144 0.019202 0)
(-0.0191789 0.0164766 0)
(-0.0213545 0.0135693 0)
(-0.0230913 0.0105471 0)
(-0.0244409 0.00743955 0)
(-0.025445 0.00424478 0)
(-0.0261264 0.000935376 0)
(-0.026483 -0.00253457 0)
(-0.0264721 -0.00622496 0)
(-0.0259997 -0.0101935 0)
(-0.0249117 -0.0144761 0)
(-0.0229825 -0.0190505 0)
(-0.0199306 -0.0237715 0)
(-0.0154472 -0.0282377 0)
(-0.00931106 -0.0309163 0)
(-0.00288147 -0.0249914 0)
(-0.00185714 0.0222932 0)
(-0.0064813 0.0289721 0)
(-0.0115667 0.0278596 0)
(-0.0158035 0.0253228 0)
(-0.019352 0.0222898 0)
(-0.0222382 0.018999 0)
(-0.0245398 0.0155885 0)
(-0.0263526 0.0121343 0)
(-0.0277687 0.00866032 0)
(-0.0288636 0.00514712 0)
(-0.0296863 0.00153959 0)
(-0.0302559 -0.00224479 0)
(-0.0305414 -0.00631553 0)
(-0.0304418 -0.0107976 0)
(-0.0297659 -0.0158121 0)
(-0.0281955 -0.0214357 0)
(-0.0252803 -0.0276072 0)
(-0.0203309 -0.0339596 0)
(-0.0129616 -0.0382371 0)
(-0.00429286 -0.0319947 0)
(-0.00239429 0.026749 0)
(-0.00809079 0.0344867 0)
(-0.0141144 0.0328224 0)
(-0.0189547 0.0294806 0)
(-0.0228416 0.0256592 0)
(-0.025881 0.0216647 0)
(-0.0282197 0.0176698 0)
(-0.0300198 0.0137543 0)
(-0.0314283 0.00992856 0)
(-0.032566 0.00614859 0)
(-0.0335186 0.00232525 0)
(-0.0343385 -0.00166891 0)
(-0.0350253 -0.00600516 0)
(-0.0354967 -0.0108973 0)
(-0.0355506 -0.0165977 0)
(-0.0347906 -0.0233677 0)
(-0.0326037 -0.0313572 0)
(-0.0275838 -0.0405008 0)
(-0.0191463 -0.0473941 0)
(-0.00702471 -0.0423501 0)
(-0.0032192 0.0328565 0)
(-0.010372 0.041322 0)
(-0.0175363 0.0386669 0)
(-0.0230303 0.0341246 0)
(-0.0271718 0.0292444 0)
(-0.0302286 0.0243681 0)
(-0.0324505 0.0196979 0)
(-0.0340934 0.0153021 0)
(-0.0353735 0.0111624 0)
(-0.0364655 0.00719977 0)
(-0.0375021 0.00328679 0)
(-0.0385842 -0.000754913 0)
(-0.039767 -0.00514228 0)
(-0.041031 -0.0102081 0)
(-0.0422323 -0.0163723 0)
(-0.0429677 -0.024197 0)
(-0.0425988 -0.0342041 0)
(-0.0384857 -0.0473099 0)
(-0.0303187 -0.0582544 0)
(-0.0128855 -0.0587829 0)
(-0.00509784 0.0385595 0)
(-0.0144631 0.0490617 0)
(-0.0224263 0.0452646 0)
(-0.0284473 0.0391607 0)
(-0.0325987 0.0328913 0)
(-0.0354221 0.0269158 0)
(-0.0372743 0.0214812 0)
(-0.0385377 0.0166111 0)
(-0.0395067 0.0122318 0)
(-0.0404111 0.00821528 0)
(-0.041436 0.00439931 0)
(-0.0427224 0.000583579 0)
(-0.0444236 -0.0035042 0)
(-0.0466585 -0.0083018 0)
(-0.0494484 -0.0143346 0)
(-0.0525202 -0.0226953 0)
(-0.0557227 -0.0341999 0)
(-0.0543697 -0.0531747 0)
(-0.0502004 -0.0703977 0)
(-0.0246264 -0.0870231 0)
(-0.00578944 0.0554154 0)
(-0.0177105 0.0590437 0)
(-0.028652 0.052799 0)
(-0.0354697 0.0438177 0)
(-0.0393408 0.0358208 0)
(-0.0414801 0.0287215 0)
(-0.0425082 0.0226065 0)
(-0.0430109 0.0173799 0)
(-0.0433577 0.012902 0)
(-0.0438108 0.00899639 0)
(-0.0445718 0.0054565 0)
(-0.0458451 0.00202734 0)
(-0.0479119 -0.00161704 0)
(-0.0509806 -0.00591817 0)
(-0.0555112 -0.0115145 0)
(-0.0612899 -0.0201136 0)
(-0.0707306 -0.0328075 0)
(-0.0741144 -0.0583426 0)
(-0.0792949 -0.0861736 0)
(-0.0383055 -0.13629 0)
(-0.0156505 0.0549097 0)
(-0.0360154 0.0764202 0)
(-0.0387819 0.0647489 0)
(-0.0449603 0.0524373 0)
(-0.0458868 0.0410925 0)
(-0.045602 0.0314388 0)
(-0.0445154 0.0238272 0)
(-0.0432634 0.0179012 0)
(-0.0421878 0.0132781 0)
(-0.0415415 0.00960217 0)
(-0.0415426 0.00661243 0)
(-0.0423994 0.00409901 0)
(-0.0443971 0.00196838 0)
(-0.0477944 -5.3156e-05 0)
(-0.0536717 -0.0014991 0)
(-0.0609654 -0.0072434 0)
(-0.0752237 -0.0117001 0)
(-0.0770929 -0.0477426 0)
(-0.0923893 -0.0857932 0)
(-0.0233648 -0.209352 0)
(-0.0636334 0.123185 0)
(-0.0521844 0.0684404 0)
(-0.0480189 0.0573681 0)
(-0.0354593 0.0431491 0)
(-0.0231603 0.0314638 0)
(-0.0125952 0.0233442 0)
(-0.00366357 0.0175714 0)
(0.00339832 0.013247 0)
(0.00878366 0.00996225 0)
(0.0127272 0.00746418 0)
(0.0154424 0.00558827 0)
(0.0172208 0.0041409 0)
(0.0178322 0.00321302 0)
(0.0189077 0.00206439 0)
(0.0155642 0.00110118 0)
(0.0209117 -0.00478384 0)
(0.00614126 -0.0169516 0)
(0.0302975 -0.0622753 0)
(-0.0203735 -0.149914 0)
(0.043371 -0.288466 0)
(0.131836 0.139659 0)
(0.164785 0.0799296 0)
(0.242829 0.0537039 0)
(0.288512 0.0368729 0)
(0.318545 0.0245786 0)
(0.340235 0.0162216 0)
(0.356139 0.0109629 0)
(0.36767 0.00768878 0)
(0.376121 0.00555355 0)
(0.382505 0.00409134 0)
(0.387086 0.00309704 0)
(0.391087 0.00231741 0)
(0.392408 0.00174195 0)
(0.397167 0.00140536 0)
(0.390982 -0.00047909 0)
(0.403463 0.000617187 0)
(0.371377 -0.00806923 0)
(0.389709 -0.0117917 0)
(0.265788 -0.0500041 0)
(0.224077 -0.127645 0)
)
;

boundaryField
{
    movingWall
    {
        type            fixedValue;
        value           uniform (1 0 0);
    }
    fixedWalls
    {
        type            noSlip;
    }
    frontAndBack
    {
        type            empty;
    }
}


// ************************************************************************* //
