/*--------------------------------*- C++ -*----------------------------------*\
  =========                 |
  \\      /  F ield         | OpenFOAM: The Open Source CFD Toolbox
   \\    /   O peration     | Website:  https://openfoam.org
    \\  /    A nd           | Version:  10
     \\/     M anipulation  |
\*---------------------------------------------------------------------------*/
FoamFile
{
    format      ascii;
    class       volScalarField;
    location    "2.025";
    object      p;
}
// * * * * * * * * * * * * * * * * * * * * * * * * * * * * * * * * * * * * * //

dimensions      [0 2 -2 0 0 0 0];

internalField   nonuniform List<scalar> 
400
(
3.93443e-09
-1.14631e-05
4.72649e-05
0.000150533
0.000300328
0.000494426
0.000729365
0.00100071
0.00130287
0.00162906
0.00197124
0.00232017
0.00266548
0.00299597
0.00329992
0.00356562
0.00378187
0.00393894
0.00403401
0.00403417
1.00845e-05
-2.71389e-06
5.56596e-05
0.000157168
0.000304582
0.000496021
0.000728254
0.000997059
0.00129704
0.00162154
0.00196256
0.0023112
0.00265691
0.00298842
0.00329389
0.00356141
0.00377947
0.00393821
0.00403525
0.00403457
-5.08225e-05
-6.62098e-05
-7.45172e-06
9.51436e-05
0.000244733
0.000439605
0.00067669
0.000951927
0.00126003
0.00159441
0.00194722
0.00230922
0.00266951
0.00301639
0.00333735
0.00361959
0.00385055
0.00401919
0.00412266
0.00412103
-0.000162245
-0.000180191
-0.000120305
-1.51628e-05
0.000138915
0.00034049
0.000586736
0.000873815
0.00119661
0.00154858
0.00192172
0.00230686
0.00269246
0.00306597
0.00341376
0.00372155
0.003975
0.0041611
0.004276
0.00427487
-0.000328681
-0.000349715
-0.000288002
-0.000178849
-1.7898e-05
0.000193785
0.000453707
0.000758325
0.00110275
0.00148054
0.00188358
0.00230252
0.00272516
0.0031379
0.00352549
0.00387153
0.00415897
0.00437173
0.00450421
0.00450481
-0.000553627
-0.000578675
-0.000514616
-0.00040026
-0.00023035
-5.44171e-06
0.00027242
0.000600107
0.000973056
0.00138503
0.00182777
0.00229191
0.00276441
0.00323054
0.003673
0.00407249
0.00440815
0.00465937
0.00481757
0.00482148
-0.000841233
-0.000871554
-0.000804928
-0.00068459
-0.0005041
-0.000263322
3.63129e-05
0.000392242
0.00080039
0.00125495
0.00174827
0.00226875
0.00280499
0.00334054
0.00385563
0.00432724
0.00472937
0.00503473
0.00522989
0.00523974
-0.00119678
-0.00123408
-0.00116507
-0.00103853
-0.000846462
-0.000587781
-0.000263108
0.000125732
0.000575287
0.00108023
0.00163304
0.00222354
0.00283899
0.00346216
0.00407101
0.00463809
0.00513066
0.00551191
0.00576021
0.00578071
-0.0016266
-0.00167319
-0.00160256
-0.00147036
-0.0012665
-0.000988674
-0.000636426
-0.000210653
0.000286004
0.000848961
0.00147142
0.00214426
0.00285493
0.0035859
0.00431336
0.00500532
0.00562044
0.0061086
0.00643421
0.00647451
-0.00213811
-0.00219715
-0.00212642
-0.00199008
-0.00177528
-0.00147803
-0.00109654
-0.000630612
-8.19292e-05
0.000545912
0.0012473
0.00201429
0.00283621
0.0036965
0.00457109
0.00542446
0.00620544
0.00684604
0.00728614
0.00736507
-0.00273985
-0.0028157
-0.00274745
-0.0026098
-0.00238618
-0.00207035
-0.00165892
-0.0011505
-0.000545858
0.000152438
0.000940258
0.00181167
0.00275941
0.00377031
0.00482302
0.00588154
0.00688639
0.00774746
0.00836073
0.008519
-0.00344169
-0.00354041
-0.00347863
-0.00334419
-0.00311545
-0.00278309
-0.00234184
-0.00178933
-0.00112577
-0.000353029
0.000526233
0.00150885
0.00259281
0.00377199
0.0050329
0.00634566
0.00764841
0.00883269
0.00971349
0.0100423
-0.00425553
-0.00438513
-0.00433586
-0.0042114
-0.00398304
-0.00363727
-0.00316672
-0.00256859
-0.00184358
-0.000993926
-2.15027e-05
0.00107342
0.00229564
0.00365123
0.00514198
0.00675623
0.00844421
0.010102
0.0114075
0.0121092
-0.0051991
-0.00536918
-0.00534002
-0.00523465
-0.00501416
-0.00465858
-0.00415839
-0.0035117
-0.00272178
-0.00179337
-0.000729362
0.000472429
0.00181884
0.0033401
0.00505845
0.007
0.00915884
0.0114948
0.0134828
0.0150286
-0.00626347
-0.00650554
-0.00651392
-0.00644343
-0.00624122
-0.00587881
-0.00534554
-0.00464306
-0.00378088
-0.00277025
-0.00161923
-0.000330384
0.00110346
0.00275341
0.0046474
0.00688069
0.00955316
0.0128192
0.0158637
0.019299
-0.00766747
-0.00784846
-0.00790068
-0.00787266
-0.00770391
-0.00733902
-0.00676316
-0.00598769
-0.00503628
-0.00393221
-0.00269137
-0.00131395
0.000212108
0.00194863
0.00389854
0.00627849
0.00928295
0.0135553
0.0178358
0.0249817
-0.00880709
-0.00955921
-0.00962814
-0.0097287
-0.00958212
-0.00915492
-0.00847373
-0.00757489
-0.00649904
-0.00528393
-0.00396596
-0.00257547
-0.00113487
0.0003284
0.00189062
0.00388099
0.00644355
0.0118478
0.0170712
0.031091
-0.0122406
-0.0104298
-0.0108733
-0.0110201
-0.0110785
-0.0107992
-0.0101708
-0.00923234
-0.0080528
-0.00670559
-0.00526103
-0.00375932
-0.00226008
-0.00079369
0.000603048
0.00208904
0.00336093
0.0085455
0.0140191
0.0380127
-0.0113378
-0.0151454
-0.0151673
-0.0158487
-0.0155984
-0.0146957
-0.0133748
-0.01183
-0.0101759
-0.00847844
-0.00682611
-0.00526373
-0.00394913
-0.00298072
-0.00272918
-0.00291552
-0.00590425
-0.000816346
0.00325806
0.0502671
-0.0337053
-0.0115362
-0.012501
-0.0133278
-0.0135352
-0.0132619
-0.0125657
-0.0114692
-0.010084
-0.00851681
-0.00696928
-0.00536237
-0.0041487
-0.00281531
-0.00249804
-0.000992317
0.00131827
0.0176085
0.054431
0.143291
)
;

boundaryField
{
    movingWall
    {
        type            zeroGradient;
    }
    fixedWalls
    {
        type            zeroGradient;
    }
    frontAndBack
    {
        type            empty;
    }
}


// ************************************************************************* //
