/*--------------------------------*- C++ -*----------------------------------*\
  =========                 |
  \\      /  F ield         | OpenFOAM: The Open Source CFD Toolbox
   \\    /   O peration     | Website:  https://openfoam.org
    \\  /    A nd           | Version:  10
     \\/     M anipulation  |
\*---------------------------------------------------------------------------*/
FoamFile
{
    format      ascii;
    class       surfaceScalarField;
    location    "7.725";
    object      phi;
}
// * * * * * * * * * * * * * * * * * * * * * * * * * * * * * * * * * * * * * //

dimensions      [0 3 -1 0 0 0 0];

internalField   nonuniform List<scalar> 
890
(
0.00984625
0.000153751
0.00971783
0.000128424
0.00946924
0.000248581
0.00941954
4.97045e-05
0.000147106
0.00927243
0.0101197
3.40027e-05
0.0102014
4.67735e-05
0.0104078
4.21405e-05
0.0104652
-7.64909e-06
-6.92708e-05
0.0106816
0.0100713
-3.73331e-05
0.0102155
-9.73566e-05
0.010378
-0.000120395
0.0105209
-0.000150582
-0.000190788
0.0106425
0.0100898
-0.000127174
0.0102141
-0.000221583
0.0103297
-0.000236007
0.0104183
-0.000239186
-0.000250985
0.0104785
0.00987283
0.00965124
0.00941524
0.00917605
0.00892507
0.00926882
-0.000105459
0.000109068
0.00929339
-0.000267898
0.000243338
0.00936898
-0.000388066
0.00031247
0.00948289
-0.000489187
0.00037528
0.00962703
-0.00059636
0.00045222
0.00980252
-0.00073886
0.000563371
0.00999201
-0.000906649
0.00071716
0.0101887
-0.00111004
0.000913328
0.0103814
-0.00134204
0.00114937
0.0105523
-0.00159435
0.00142349
0.0106889
-0.00184769
0.00171107
0.0107807
-0.00208781
0.001996
0.0108159
-0.00227846
0.00224321
0.0107881
-0.00241161
0.00243945
0.0106719
-0.00243713
0.00255333
0.0104647
-0.00236905
0.00257629
0.010215
-0.00228335
0.00253298
0.00995149
-0.00216301
0.00242655
0.00967098
-0.00196844
0.00224896
0.00938053
-0.00172516
0.0020156
0.00909453
-0.00144455
0.00173056
0.00881935
-0.00113425
0.00140942
0.00857113
-0.000823251
0.00107147
0.00836271
-0.00052408
0.000732496
0.00819649
-0.000247533
0.000413755
0.00807016
-4.33925e-06
0.000130672
0.0079783
0.00021698
-0.000125124
0.00792153
0.000401836
-0.000345061
0.00788739
0.00054992
-0.000515779
0.00786777
0.000656761
-0.000637148
0.00785896
0.000725918
-0.000717105
0.00785657
0.000761441
-0.000759046
0.00785217
0.000767721
-0.000763327
0.00783523
0.000752276
-0.000735339
0.00780005
0.000722678
-0.000687496
0.00774572
0.000686398
-0.000632067
0.00767764
0.000628313
-0.000560227
0.0075963
0.00056543
-0.000484089
0.00750592
0.000479918
-0.000389538
0.00740242
0.000439148
-0.000335649
0.00729988
0.00038198
-0.000279443
0.00719087
0.000408171
-0.000299163
0.00709701
0.000369554
-0.000275693
0.00699731
0.000411724
-0.000312025
0.0003549
-0.000275779
0.0107447
-0.000168601
0.010769
-0.000292158
0.0107928
-0.000411852
0.0108272
-0.0005236
0.0108653
-0.000634455
0.010889
-0.000762619
0.0108957
-0.000913287
0.0108796
-0.00109394
0.0108359
-0.00129833
0.010756
-0.0015145
0.01063
-0.00172169
0.0104507
-0.00190851
0.0102224
-0.00205015
0.00992791
-0.00211713
0.00952877
-0.00203799
0.00907158
-0.00191186
0.00858496
-0.00179673
0.00808752
-0.00166556
0.0076003
-0.00148123
0.00713214
-0.00125699
0.00670385
-0.00101627
0.00632019
-0.000750582
0.00599434
-0.000497405
0.00573478
-0.000264516
0.00553954
-5.2288e-05
0.00541155
0.00012365
0.00535314
0.000275391
0.005351
0.000403975
0.005393
0.000507922
0.00546453
0.000585224
0.00555242
0.000638032
0.00564392
0.000669937
0.00572691
0.000684732
0.00579435
0.000684838
0.00584661
0.000670417
0.00589199
0.000641016
0.00592994
0.000590363
0.00596253
0.000532843
0.00597896
0.000463484
0.00599086
0.000427255
0.00599361
0.000379228
0.0060089
0.000392879
0.00603274
0.000345714
0.00607128
0.000373184
0.000300826
0.0107272
-0.000253306
0.0107709
-0.000335927
0.0107854
-0.000426366
0.0107804
-0.000518581
0.0107549
-0.000608925
0.0107034
-0.000711103
0.0106201
-0.000830046
0.0105002
-0.000974006
0.0103357
-0.00113387
0.010135
-0.00131378
0.00990236
-0.00148904
0.00963136
-0.0016375
0.00927289
-0.00169169
0.00874922
-0.00159345
0.00812273
-0.00141151
0.00750566
-0.00129479
0.00681255
-0.00110361
0.00603707
-0.000890087
0.00528567
-0.000729837
0.00461226
-0.000583583
0.00401459
-0.000418595
0.00352963
-0.000265618
0.00315564
-0.000123417
0.0028898
1.32184e-06
0.00271849
0.000119027
0.00262871
0.000213431
0.00261501
0.00028909
0.00266644
0.000352542
0.0027707
0.000403662
0.00291353
0.000442394
0.00308218
0.000469379
0.00326643
0.00048569
0.00345913
0.000492033
0.00365602
0.000487947
0.0038535
0.000472939
0.00404941
0.000445108
0.00423421
0.000405561
0.00440552
0.000361534
0.0045528
0.000316202
0.0046945
0.000285554
0.00482001
0.000253721
0.00496526
0.000247625
0.00509934
0.000211639
0.00525742
0.000215099
0.000156617
0.0105087
-0.000283537
0.0104926
-0.000319854
0.0104337
-0.000367471
0.0103247
-0.000409567
0.0101756
-0.000459753
0.00997366
-0.000509211
0.00971639
-0.000572768
0.00938914
-0.000646761
0.00898637
-0.000731095
0.00851159
-0.000839005
0.00795052
-0.000927959
0.00738454
-0.00107152
0.0067293
-0.00103645
0.00585086
-0.00071501
0.00479289
-0.000353537
0.00356323
-6.51356e-05
0.00239377
6.58478e-05
0.00144757
5.61194e-05
0.000788087
-7.03587e-05
0.000387147
-0.000182644
0.000171942
-0.00020339
6.19008e-05
-0.000155577
2.3168e-05
-8.46839e-05
3.69219e-05
-1.24321e-05
0.000110542
4.54072e-05
0.000232555
9.14173e-05
0.000394369
0.000127276
0.000591662
0.000155249
0.000818283
0.000177041
0.00106754
0.000193139
0.00133316
0.000203757
0.00160922
0.000209632
0.00189038
0.000210868
0.00217161
0.000206724
0.00244721
0.000197332
0.00271025
0.00018207
0.00295363
0.000162182
0.00317487
0.000140293
0.00337215
0.000118919
0.00355592
0.000101786
0.00372261
8.7029e-05
0.00389209
7.8146e-05
0.00403856
6.51768e-05
0.00419272
6.09355e-05
4.08116e-05
0.00864153
0.00832167
0.0079542
0.00754464
0.00708488
0.00657567
0.00600291
0.00535614
0.00462505
0.00378604
0.00285809
0.00178656
0.000750113
3.51031e-05
-0.000318434
-0.00038357
-0.000317722
-0.000261603
-0.000331961
-0.000514605
-0.000717994
-0.000873571
-0.000958255
-0.000970687
-0.00092528
-0.000833863
-0.000706587
-0.000551338
-0.000374297
-0.000181158
2.25989e-05
0.000232231
0.000443099
0.000649823
0.000847155
0.00102922
0.00119141
0.0013317
0.00145062
0.00155241
0.00163943
0.00171758
0.00178276
0.00184369
4.44201e-05
-4.44201e-05
7.31278e-06
3.71073e-05
-0.00015744
0.000164752
-0.000504628
0.000347188
-0.000988846
0.000484218
-0.00151697
0.00052812
-0.002016
0.000499031
-0.00244543
0.00042943
-0.00277786
0.00033243
-0.00298971
0.000211852
-0.00306636
7.66523e-05
-0.00300395
-6.24166e-05
-0.00280785
-0.000196098
-0.00248523
-0.000322616
-0.00205441
-0.000430824
-0.0015394
-0.000515011
-0.000975728
-0.000563668
-0.000389565
-0.000586163
0.000198096
-0.000587662
0.000757741
-0.000559644
0.00126354
-0.000505803
0.00169461
-0.000431062
0.0020365
-0.000341898
0.0022827
-0.000246198
0.00243262
-0.000149922
0.00249143
-5.88009e-05
0.00247518
1.62445e-05
0.00240449
7.06959e-05
0.00228979
0.000114692
0.00214146
0.000148332
0.00197005
0.000171407
0.00179008
0.000179972
0.0016196
0.000170482
0.00148019
0.000139412
0.00137983
0.000100363
0.00131726
6.25658e-05
0.00128675
3.05108e-05
0.00128381
2.93457e-06
0.00129957
-1.57604e-05
0.00132871
-2.91396e-05
0.00136111
-3.23924e-05
0.00139755
-3.64479e-05
0.00143163
-3.40752e-05
0.00147334
-4.17145e-05
-3.9122e-05
-0.000125306
8.08858e-05
-0.000477603
0.000389404
-0.000893026
0.000580176
-0.00127581
0.000729969
-0.00159001
0.00079842
-0.00183392
0.00077203
-0.00200722
0.000672331
-0.00210106
0.000523274
-0.00210576
0.000337123
-0.00200749
0.000113586
-0.00180776
-0.00012308
-0.00150077
-0.000369401
-0.00108176
-0.000615108
-0.000563638
-0.000840742
3.62696e-05
-0.00103073
0.000682712
-0.00116145
0.00136044
-0.00124139
0.00204543
-0.00127115
0.00270951
-0.00125174
0.00333231
-0.00118245
0.00389349
-0.00106698
0.00437687
-0.000914441
0.00477113
-0.000736155
0.0050713
-0.000546373
0.00527929
-0.000357913
0.00540072
-0.000180223
0.00544112
-2.41636e-05
0.00541154
0.000100277
0.00532569
0.000200545
0.00520107
0.000272954
0.00505398
0.000318491
0.00490162
0.000332334
0.00475907
0.000313037
0.00462705
0.000271429
0.00450333
0.000224085
0.00439182
0.000174076
0.00429594
0.00012639
0.004219
7.98755e-05
0.00415506
4.81769e-05
0.00410151
2.44122e-05
0.00404743
2.16904e-05
0.0040058
5.17414e-06
0.00397737
-5.64219e-06
0.00396991
-3.42555e-05
-5.79479e-05
-0.00051272
0.000593606
-0.000693849
0.000570534
-0.00073169
0.000618016
-0.000675007
0.000673286
-0.000551464
0.000674877
-0.000385985
0.000606551
-0.000183446
0.000469792
5.7653e-05
0.000282176
0.00035056
4.42167e-05
0.000709827
-0.000245681
0.00113911
-0.000552366
0.00163413
-0.000864419
0.00218156
-0.00116254
0.00277455
-0.00143373
0.00339428
-0.00165046
0.00402693
-0.0017941
0.00465118
-0.00186565
0.00524748
-0.00186745
0.00580368
-0.00180794
0.0063067
-0.00168547
0.00674264
-0.00150293
0.00710301
-0.0012748
0.00738364
-0.00101679
0.0075838
-0.000746526
0.0077069
-0.000481017
0.00776288
-0.000236199
0.00776101
-2.23021e-05
0.00769903
0.000162262
0.00759616
0.000303414
0.00746421
0.000404899
0.00731303
0.000469677
0.00715132
0.000494041
0.00698509
0.000479264
0.00681938
0.000437144
0.0066562
0.000387269
0.00650413
0.000326142
0.00637243
0.000258092
0.00627375
0.000178555
0.0062034
0.000118525
0.00614616
8.16511e-05
0.00608779
8.00654e-05
0.00600674
8.62173e-05
0.00592009
8.10074e-05
0.00581318
7.2658e-05
2.03587e-05
-0.000241629
0.000835234
-0.000143372
0.000472277
9.9498e-05
0.000375146
0.000465293
0.000307491
0.000915643
0.000224528
0.00141491
0.000107282
0.00194112
-5.64154e-05
0.00248058
-0.000257288
0.00303939
-0.000514592
0.003611
-0.00081729
0.00419689
-0.00113825
0.00479436
-0.00146189
0.00539518
-0.00176336
0.00598565
-0.0020242
0.00655176
-0.00221658
0.00708068
-0.00232301
0.00756233
-0.0023473
0.00799114
-0.00229626
0.00836198
-0.00217878
0.00867235
-0.00199584
0.00892005
-0.00175063
0.00910499
-0.00145974
0.00923081
-0.0011426
0.00930048
-0.0008162
0.00932045
-0.000500982
0.00930261
-0.000218368
0.0092513
2.90096e-05
0.00916116
0.000252405
0.00904358
0.000420993
0.00890829
0.000540186
0.00876023
0.000617742
0.00860063
0.000653641
0.00843102
0.000648874
0.00825991
0.000608255
0.00809499
0.000552186
0.00793341
0.000487721
0.00777593
0.000415571
0.00762002
0.000334472
0.00748605
0.000252488
0.00736896
0.000198747
0.00728373
0.00016529
0.00719082
0.000179135
0.00710279
0.000169031
0.00698499
0.000190462
0.000146742
0.000944303
0.00165992
0.00234753
0.0030303
0.00370705
0.0043777
0.00503845
0.00569449
0.00632927
0.00693546
0.00750828
0.00804239
0.00852224
0.00893749
0.00927424
0.00952751
0.00971319
0.00984348
0.00991366
0.00993341
0.00991334
0.00986302
0.00979189
0.00970819
0.00962096
0.00953326
0.00943715
0.00934449
0.00924971
0.00915275
0.00905338
0.00894798
0.00883352
0.00870644
0.00857113
0.00842678
0.00828213
0.00813251
0.00799546
0.00785856
0.0077444
0.00762438
0.00751771
0.00739615
)
;

boundaryField
{
    inlet
    {
        type            calculated;
        value           nonuniform List<scalar> 5(-0.01 -0.01 -0.01 -0.01 -0.01);
    }
    outlet
    {
        type            calculated;
        value           nonuniform List<scalar> 10(0.00691819 0.00612535 0.00540163 0.00430852 0.0018845 0.00151247 0.00398874 0.00573487 0.0068586 0.00726711);
    }
    upperWall
    {
        type            calculated;
        value           uniform 0;
    }
    lowerWall
    {
        type            calculated;
        value           uniform 0;
    }
    frontAndBack
    {
        type            empty;
        value           nonuniform List<scalar> 0();
    }
}


// ************************************************************************* //
