/*--------------------------------*- C++ -*----------------------------------*\
  =========                 |
  \\      /  F ield         | OpenFOAM: The Open Source CFD Toolbox
   \\    /   O peration     | Website:  https://openfoam.org
    \\  /    A nd           | Version:  10
     \\/     M anipulation  |
\*---------------------------------------------------------------------------*/
FoamFile
{
    format      ascii;
    class       volVectorField;
    location    "2.525";
    object      U;
}
// * * * * * * * * * * * * * * * * * * * * * * * * * * * * * * * * * * * * * //

dimensions      [0 1 -1 0 0 0 0];

internalField   nonuniform List<vector> 
400
(
(-0.00024382 0.000241741 0)
(-0.00110072 0.000421032 0)
(-0.00225035 0.000436174 0)
(-0.0032989 0.000415359 0)
(-0.00428247 0.000382758 0)
(-0.00517112 0.000341236 0)
(-0.00594181 0.000291191 0)
(-0.00657457 0.000232916 0)
(-0.00705072 0.000166883 0)
(-0.00735338 9.38377e-05 0)
(-0.00746821 1.49857e-05 0)
(-0.00738334 -6.91015e-05 0)
(-0.00709095 -0.000155947 0)
(-0.00658904 -0.000243034 0)
(-0.00588185 -0.000327257 0)
(-0.00498123 -0.000404916 0)
(-0.00390963 -0.000471517 0)
(-0.0027094 -0.000519366 0)
(-0.0013549 -0.000517275 0)
(-0.000312687 -0.000314514 0)
(-0.000436862 0.00110295 0)
(-0.00178874 0.00173798 0)
(-0.00351601 0.00178171 0)
(-0.00509919 0.00169012 0)
(-0.00657669 0.0015488 0)
(-0.00790403 0.00136995 0)
(-0.00904656 0.00115669 0)
(-0.00997517 0.000911583 0)
(-0.0106636 0.000637604 0)
(-0.0110888 0.000338341 0)
(-0.0112328 1.79571e-05 0)
(-0.0110807 -0.000317795 0)
(-0.0106228 -0.000660717 0)
(-0.00985907 -0.00100142 0)
(-0.00879743 -0.00132828 0)
(-0.00745641 -0.00162752 0)
(-0.00586957 -0.00188239 0)
(-0.00409597 -0.00206404 0)
(-0.00211138 -0.00206257 0)
(-0.000525128 -0.001349 0)
(-0.000484416 0.00231661 0)
(-0.00197171 0.00350783 0)
(-0.00386302 0.00357841 0)
(-0.00559403 0.0033884 0)
(-0.00720824 0.0030982 0)
(-0.00865796 0.00273236 0)
(-0.00990622 0.00229829 0)
(-0.0109221 0.00180213 0)
(-0.0116779 0.00125056 0)
(-0.0121494 0.000651167 0)
(-0.0123165 1.27394e-05 0)
(-0.0121614 -0.000653379 0)
(-0.0116736 -0.00133236 0)
(-0.010851 -0.00200582 0)
(-0.00969964 -0.00265133 0)
(-0.00823701 -0.00324217 0)
(-0.00649741 -0.0037457 0)
(-0.00454447 -0.00410561 0)
(-0.00235035 -0.00411507 0)
(-0.000587516 -0.00277859 0)
(-0.000513499 0.00354135 0)
(-0.00209605 0.00530988 0)
(-0.00411045 0.00540703 0)
(-0.00595234 0.00511679 0)
(-0.00767123 0.00467688 0)
(-0.00921754 0.00412393 0)
(-0.0105532 0.00346936 0)
(-0.0116466 0.00272261 0)
(-0.0124688 0.0018936 0)
(-0.0129943 0.000993333 0)
(-0.0132012 3.49049e-05 0)
(-0.013069 -0.00096612 0)
(-0.0125817 -0.00198959 0)
(-0.0117327 -0.00300878 0)
(-0.0105234 -0.00399028 0)
(-0.00896691 -0.00489353 0)
(-0.0070953 -0.00566808 0)
(-0.0049761 -0.00622681 0)
(-0.00257797 -0.00625761 0)
(-0.000644355 -0.0042636 0)
(-0.000550741 0.00485023 0)
(-0.00225397 0.00723879 0)
(-0.00442474 0.00736406 0)
(-0.0064084 0.0069674 0)
(-0.00826139 0.00636948 0)
(-0.00993199 0.00561997 0)
(-0.0113811 0.00473464 0)
(-0.0125766 0.0037262 0)
(-0.0134887 0.00260746 0)
(-0.0140903 0.00139204 0)
(-0.0143566 9.55533e-05 0)
(-0.0142631 -0.00126237 0)
(-0.0137881 -0.00265734 0)
(-0.0129166 -0.00405561 0)
(-0.0116416 -0.00541295 0)
(-0.00996829 -0.00667329 0)
(-0.00792358 -0.00776458 0)
(-0.00557889 -0.00856152 0)
(-0.00289915 -0.00863026 0)
(-0.000725794 -0.00591233 0)
(-0.000600099 0.00626929 0)
(-0.00246126 0.00933413 0)
(-0.00483559 0.00948952 0)
(-0.0070032 0.00897807 0)
(-0.00902934 0.00821118 0)
(-0.0108598 0.00725304 0)
(-0.0124548 0.00612426 0)
(-0.013782 0.00484086 0)
(-0.0148113 0.00341804 0)
(-0.0155144 0.00187103 0)
(-0.0158635 0.000216605 0)
(-0.0158294 -0.00152468 0)
(-0.0153818 -0.00332573 0)
(-0.0144945 -0.00514745 0)
(-0.0131472 -0.00693563 0)
(-0.0113315 -0.00861723 0)
(-0.00906383 -0.0100935 0)
(-0.00641736 -0.0111897 0)
(-0.0033512 -0.0113249 0)
(-0.000842126 -0.00779394 0)
(-0.000662931 0.00782884 0)
(-0.00272402 0.0116404 0)
(-0.00535461 0.0118274 0)
(-0.00775191 0.0111895 0)
(-0.00999266 0.010239 0)
(-0.01202 0.00905667 0)
(-0.0137941 0.00766891 0)
(-0.0152836 0.00609521 0)
(-0.0164593 0.00435253 0)
(-0.0172925 0.00245629 0)
(-0.0177529 0.000422088 0)
(-0.017806 -0.00173118 0)
(-0.0174115 -0.00397803 0)
(-0.0165271 -0.00627757 0)
(-0.015113 -0.00856812 0)
(-0.0131382 -0.0107592 0)
(-0.0105983 -0.0127192 0)
(-0.00756229 -0.0142079 0)
(-0.00397826 -0.014458 0)
(-0.0010064 -0.00999952 0)
(-0.000740864 0.00956424 0)
(-0.00304917 0.0142095 0)
(-0.00599464 0.014428 0)
(-0.00867066 0.013647 0)
(-0.011169 0.0124929 0)
(-0.0134305 0.0110664 0)
(-0.0154165 0.00940078 0)
(-0.0170985 0.00751955 0)
(-0.0184504 0.00544089 0)
(-0.019445 0.0031786 0)
(-0.020051 0.000744135 0)
(-0.0202296 -0.00184963 0)
(-0.0199283 -0.00458467 0)
(-0.0190848 -0.00742473 0)
(-0.0176305 -0.0103067 0)
(-0.0154982 -0.0131257 0)
(-0.0126453 -0.015711 0)
(-0.00912089 -0.0177353 0)
(-0.00485192 -0.0181839 0)
(-0.00124165 -0.0126567 0)
(-0.000836496 0.0115158 0)
(-0.00344686 0.0171001 0)
(-0.00677365 0.0173463 0)
(-0.00978119 0.0163982 0)
(-0.0125812 0.0150136 0)
(-0.0151129 0.0133169 0)
(-0.0173412 0.0113508 0)
(-0.0192437 0.00914353 0)
(-0.0208005 0.00671413 0)
(-0.0219894 0.00407278 0)
(-0.0227812 0.00122307 0)
(-0.0231349 -0.00183401 0)
(-0.0229866 -0.00509636 0)
(-0.0222494 -0.00854302 0)
(-0.0208161 -0.0121214 0)
(-0.0185632 -0.0157216 0)
(-0.0153802 -0.0191341 0)
(-0.0112622 -0.0219165 0)
(-0.00609559 -0.0227088 0)
(-0.00159179 -0.0159532 0)
(-0.000954157 0.0137313 0)
(-0.00393249 0.0203799 0)
(-0.0077176 0.0206434 0)
(-0.0111137 0.0194933 0)
(-0.0142595 0.0178409 0)
(-0.0170941 0.0158402 0)
(-0.0195901 0.0135462 0)
(-0.0217355 0.0109936 0)
(-0.0235215 0.00820211 0)
(-0.0249363 0.00517632 0)
(-0.025958 0.00190773 0)
(-0.0265491 -0.00162173 0)
(-0.0266374 -0.00543722 0)
(-0.0261101 -0.00954947 0)
(-0.024812 -0.0139378 0)
(-0.0225385 -0.0185099 0)
(-0.0190649 -0.0230309 0)
(-0.0142593 -0.0269215 0)
(-0.00793356 -0.0283146 0)
(-0.00214639 -0.0201872 0)
(-0.0011014 0.0162704 0)
(-0.00453026 0.0241306 0)
(-0.00886486 0.0243884 0)
(-0.0127111 0.0229847 0)
(-0.0162447 0.0210125 0)
(-0.0194086 0.0186627 0)
(-0.0221882 0.0160072 0)
(-0.0245883 0.0130892 0)
(-0.0266183 0.00992946 0)
(-0.0282842 0.00652581 0)
(-0.0295796 0.00285358 0)
(-0.0304802 -0.0011319 0)
(-0.0309147 -0.00549753 0)
(-0.0307504 -0.0103079 0)
(-0.0297804 -0.0156094 0)
(-0.0276939 -0.0213725 0)
(-0.0240902 -0.0273814 0)
(-0.0185646 -0.032929 0)
(-0.0107987 -0.0353873 0)
(-0.00310091 -0.0258693 0)
(-0.0012921 0.0192131 0)
(-0.0052794 0.0284523 0)
(-0.0102731 0.0286601 0)
(-0.014635 0.0269258 0)
(-0.018593 0.0245603 0)
(-0.0221007 0.021801 0)
(-0.0251645 0.0187412 0)
(-0.027814 0.015436 0)
(-0.0300855 0.011909 0)
(-0.0320128 0.00815035 0)
(-0.0336164 0.00411604 0)
(-0.0349008 -0.000274287 0)
(-0.0358141 -0.00513026 0)
(-0.0362229 -0.0106109 0)
(-0.0358824 -0.0168784 0)
(-0.0343637 -0.0240449 0)
(-0.0310293 -0.0320193 0)
(-0.024945 -0.0400562 0)
(-0.0155746 -0.0444329 0)
(-0.00490554 -0.0339458 0)
(-0.00155404 0.0226773 0)
(-0.00624666 0.0334792 0)
(-0.0120301 0.0335511 0)
(-0.0169745 0.0313685 0)
(-0.021382 0.0285061 0)
(-0.0252294 0.0252549 0)
(-0.0285542 0.0217356 0)
(-0.0314215 0.0180185 0)
(-0.0339049 0.0141322 0)
(-0.0360781 0.0100612 0)
(-0.0380052 0.0057429 0)
(-0.0397275 0.00106171 0)
(-0.0412528 -0.00415121 0)
(-0.0425007 -0.0101597 0)
(-0.0432242 -0.0173161 0)
(-0.0429153 -0.0259973 0)
(-0.0406837 -0.0364542 0)
(-0.0347071 -0.0481617 0)
(-0.0241183 -0.0559356 0)
(-0.00864264 -0.0464454 0)
(-0.00194334 0.0267459 0)
(-0.00755627 0.0393313 0)
(-0.0142778 0.0391478 0)
(-0.0198614 0.0363556 0)
(-0.0247199 0.0328538 0)
(-0.0288733 0.0289993 0)
(-0.0324021 0.0249481 0)
(-0.0354183 0.0207882 0)
(-0.0380436 0.0165554 0)
(-0.0404027 0.0122337 0)
(-0.0426165 0.00775098 0)
(-0.0447956 0.0029734 0)
(-0.0470365 -0.00232822 0)
(-0.0493903 -0.00855476 0)
(-0.0517355 -0.016271 0)
(-0.053628 -0.0262759 0)
(-0.0540562 -0.0395453 0)
(-0.0499092 -0.0564055 0)
(-0.0402085 -0.0699962 0)
(-0.0169439 -0.0672549 0)
(-0.0024914 0.0322932 0)
(-0.00926888 0.0463633 0)
(-0.0171704 0.0455563 0)
(-0.0234654 0.041843 0)
(-0.028752 0.0375274 0)
(-0.0331372 0.0329558 0)
(-0.0367654 0.0282962 0)
(-0.0398121 0.0236554 0)
(-0.0424548 0.0190861 0)
(-0.0448746 0.0145792 0)
(-0.0472535 0.0100585 0)
(-0.049789 0.00535774 0)
(-0.0527554 0.000205482 0)
(-0.0564101 -0.00581735 0)
(-0.0609176 -0.0134125 0)
(-0.0663093 -0.0239058 0)
(-0.0719235 -0.0392579 0)
(-0.0729114 -0.062307 0)
(-0.0686269 -0.0852134 0)
(-0.0326242 -0.103585 0)
(-0.00420937 0.0370188 0)
(-0.0129071 0.0550595 0)
(-0.021296 0.0533816 0)
(-0.0281063 0.0486283 0)
(-0.033619 0.0430704 0)
(-0.038098 0.0373465 0)
(-0.0416779 0.0317821 0)
(-0.0445801 0.026518 0)
(-0.0470424 0.021596 0)
(-0.04932 0.0169975 0)
(-0.0516907 0.012681 0)
(-0.054458 0.0085524 0)
(-0.0579653 0.00445675 0)
(-0.0626806 3.46729e-05 0)
(-0.0693629 -0.00558951 0)
(-0.0788509 -0.0143828 0)
(-0.0920053 -0.0296701 0)
(-0.101023 -0.0615325 0)
(-0.106956 -0.10274 0)
(-0.0475128 -0.170896 0)
(-0.00312729 0.0520639 0)
(-0.0132958 0.0612585 0)
(-0.0261934 0.0583272 0)
(-0.0338894 0.0516843 0)
(-0.03993 0.0455276 0)
(-0.0441916 0.0395049 0)
(-0.0471516 0.0337606 0)
(-0.049297 0.028364 0)
(-0.0509869 0.0233768 0)
(-0.0524998 0.0188213 0)
(-0.0540966 0.0147273 0)
(-0.056076 0.0110439 0)
(-0.0589406 0.00778759 0)
(-0.0635227 0.00469139 0)
(-0.0712606 0.0013913 0)
(-0.0834793 -0.00462862 0)
(-0.105181 -0.0174433 0)
(-0.117697 -0.059154 0)
(-0.132326 -0.133365 0)
(-0.0338955 -0.272658 0)
(-0.0117729 0.0465007 0)
(-0.0303931 0.0853559 0)
(-0.0334144 0.0773675 0)
(-0.041808 0.0682516 0)
(-0.0450122 0.0579707 0)
(-0.046703 0.0481634 0)
(-0.047064 0.0395167 0)
(-0.0467434 0.0321778 0)
(-0.0461307 0.0260684 0)
(-0.0455179 0.0210221 0)
(-0.0452562 0.0170661 0)
(-0.0455376 0.0141353 0)
(-0.046915 0.0126592 0)
(-0.0494413 0.0129516 0)
(-0.0549573 0.015928 0)
(-0.0606069 0.0177558 0)
(-0.077347 0.0141677 0)
(-0.0699273 -0.0443084 0)
(-0.0960459 -0.164069 0)
(0.0175521 -0.357866 0)
(-0.0722637 0.110672 0)
(-0.0558705 0.0690106 0)
(-0.0551751 0.0631857 0)
(-0.0376061 0.0529964 0)
(-0.0223485 0.0430618 0)
(-0.00757902 0.0350726 0)
(0.00569895 0.0287443 0)
(0.0172438 0.0235289 0)
(0.0268762 0.0192404 0)
(0.035028 0.0156414 0)
(0.0414378 0.0130942 0)
(0.0473837 0.0109678 0)
(0.0516487 0.0105512 0)
(0.0581896 0.0100692 0)
(0.0607142 0.0120491 0)
(0.0794024 0.00889925 0)
(0.0690756 -0.00341292 0)
(0.116882 -0.0639567 0)
(0.0497526 -0.219971 0)
(0.0954171 -0.385324 0)
(0.124731 0.142761 0)
(0.163075 0.0885841 0)
(0.244308 0.0647535 0)
(0.299933 0.0485551 0)
(0.341827 0.0366794 0)
(0.374864 0.0275647 0)
(0.401056 0.0207255 0)
(0.422139 0.0156172 0)
(0.438072 0.0119819 0)
(0.45229 0.00914956 0)
(0.460586 0.00722197 0)
(0.473488 0.00580909 0)
(0.473481 0.00418402 0)
(0.492015 0.00467018 0)
(0.479397 0.0010095 0)
(0.509825 0.00396418 0)
(0.473646 -0.00741158 0)
(0.496956 -0.0202194 0)
(0.367654 -0.0562632 0)
(0.261935 -0.143025 0)
)
;

boundaryField
{
    movingWall
    {
        type            fixedValue;
        value           uniform (1 0 0);
    }
    fixedWalls
    {
        type            noSlip;
    }
    frontAndBack
    {
        type            empty;
    }
}


// ************************************************************************* //
