/*--------------------------------*- C++ -*----------------------------------*\
  =========                 |
  \\      /  F ield         | OpenFOAM: The Open Source CFD Toolbox
   \\    /   O peration     | Website:  https://openfoam.org
    \\  /    A nd           | Version:  10
     \\/     M anipulation  |
\*---------------------------------------------------------------------------*/
FoamFile
{
    format      ascii;
    class       volScalarField;
    location    "4.525";
    object      p;
}
// * * * * * * * * * * * * * * * * * * * * * * * * * * * * * * * * * * * * * //

dimensions      [0 2 -2 0 0 0 0];

internalField   nonuniform List<scalar> 
400
(
-2.62136e-08
-2.71412e-05
-1.18866e-06
5.39041e-05
0.000144367
0.000270929
0.000434407
0.000635478
0.000874013
0.00114851
0.00145555
0.00178915
0.00214006
0.00249568
0.00283971
0.00315297
0.00341419
0.00360255
0.00371381
0.00369853
2.7626e-05
-4.03227e-07
2.77022e-05
8.13043e-05
0.000168144
0.000289607
0.00044695
0.000641231
0.000872696
0.00114026
0.00144093
0.00176878
0.00211602
0.00246979
0.00281397
0.00312922
0.00339366
0.00358619
0.00370376
0.00368713
-2.31459e-06
-3.58429e-05
-9.37834e-06
4.13194e-05
0.000124789
0.000242665
0.000396644
0.000588401
0.000818915
0.00108791
0.0013932
0.00173041
0.00209143
0.00246374
0.00283049
0.00317065
0.00345933
0.00367125
0.00380194
0.00377986
-6.80608e-05
-0.000105968
-8.18785e-05
-3.51385e-05
4.37255e-05
0.000156755
0.000306353
0.00049514
0.000725246
0.000997732
0.00131182
0.00166405
0.00204843
0.0024524
0.00285822
0.00324187
0.00357334
0.00382026
0.00397509
0.00395074
-0.000175343
-0.000217825
-0.000196996
-0.000155334
-8.23107e-05
2.46428e-05
0.000168843
0.000354173
0.000584339
0.000862297
0.00118941
0.00156414
0.0019823
0.00243234
0.00289588
0.0033455
0.00374402
0.00404724
0.00424143
0.00421765
-0.000324019
-0.000371911
-0.000355367
-0.000320305
-0.00025504
-0.000156398
-1.99775e-05
0.00015964
0.00038818
0.000671143
0.00101296
0.00141606
0.00187601
0.00238718
0.00293032
0.00347409
0.00397202
0.00436225
0.00461877
0.0046009
-0.000513715
-0.000568162
-0.000557139
-0.000530754
-0.000476072
-0.000389308
-0.000264875
-9.55998e-05
0.000126651
0.000410558
0.000764512
0.00119503
0.00170497
0.00229163
0.00293847
0.00361146
0.00425312
0.00477709
0.00513256
0.00513438
-0.00074428
-0.000806647
-0.000802607
-0.000787533
-0.000747205
-0.00067734
-0.000571193
-0.000419752
-0.000212202
6.39176e-05
0.000422144
0.00087564
0.00143509
0.00210717
0.00288191
0.00372623
0.00457187
0.00530208
0.00581732
0.00587486
-0.00101553
-0.00108731
-0.00109179
-0.00109106
-0.00106969
-0.00102318
-0.000943843
-0.000820986
-0.0006411
-0.000387591
-4.08016e-05
0.00042087
0.00101756
0.00177564
0.00269677
0.00375802
0.00488658
0.00593366
0.00671549
0.00692101
-0.00132722
-0.00140994
-0.00142423
-0.00144092
-0.0014436
-0.00142804
-0.00138613
-0.00130599
-0.00117188
-0.000963348
-0.000654237
-0.00021202
0.000402163
0.00121486
0.00227957
0.00359322
0.00509832
0.00662765
0.00787369
0.00845025
-0.00167936
-0.00177436
-0.00179886
-0.00183546
-0.0018671
-0.00189058
-0.00189817
-0.00187779
-0.00181271
-0.00168005
-0.00144894
-0.00107834
-0.000517383
0.000286102
0.00145947
0.00301942
0.00498229
0.00722401
0.00929087
0.0107712
-0.00207289
-0.00218093
-0.00221409
-0.00227143
-0.00233567
-0.0024056
-0.00247495
-0.00253284
-0.00256355
-0.00254469
-0.00244412
-0.00221509
-0.00178795
-0.00105889
2.67171e-05
0.00169292
0.00405188
0.00720892
0.0106592
0.0139992
-0.00251131
-0.00263187
-0.00266843
-0.002744
-0.00284144
-0.00296282
-0.0031045
-0.00325823
-0.00341191
-0.00354815
-0.00364122
-0.00365196
-0.00351907
-0.00314758
-0.00241098
-0.00112807
0.0011293
0.00504669
0.0104089
0.0168629
-0.00300141
-0.0031265
-0.00315186
-0.00323765
-0.00336692
-0.00354362
-0.00376569
-0.00402887
-0.00432775
-0.00465491
-0.00499972
-0.00534648
-0.00567293
-0.00594848
-0.0061576
-0.00625911
-0.00578567
-0.00307651
0.00295444
0.0135858
-0.00357493
-0.00371652
-0.00371888
-0.00380935
-0.00395241
-0.00416439
-0.00445211
-0.00481933
-0.00526971
-0.0058099
-0.00645411
-0.007228
-0.00818609
-0.00944194
-0.0112986
-0.0142108
-0.0184497
-0.0192628
-0.013789
0.00195227
-0.00430955
-0.00424753
-0.00415509
-0.00417708
-0.00433067
-0.00460888
-0.0050024
-0.00550596
-0.00612539
-0.00687808
-0.00780419
-0.00898279
-0.0105812
-0.0128672
-0.0166184
-0.0227856
-0.0330291
-0.0390123
-0.0351923
-0.0125538
-0.00478356
-0.00522186
-0.00500385
-0.00510339
-0.00520925
-0.00544189
-0.0058119
-0.00633299
-0.0070185
-0.00789041
-0.00900321
-0.0104532
-0.0125161
-0.0154739
-0.0206962
-0.0284452
-0.0427656
-0.0519719
-0.048939
-0.0133317
-0.00807063
-0.00554858
-0.00503809
-0.00462833
-0.00473187
-0.00510482
-0.00568257
-0.00641034
-0.00729164
-0.00832769
-0.00959762
-0.0111413
-0.0133739
-0.0163441
-0.0217751
-0.0296213
-0.0422289
-0.0484527
-0.0393155
0.0143012
-0.00487286
-0.00777828
-0.0068791
-0.00707139
-0.00687413
-0.0069059
-0.0071409
-0.00760783
-0.00830342
-0.00919122
-0.0103502
-0.0117116
-0.0138031
-0.0165123
-0.0216158
-0.0282044
-0.0368964
-0.0333096
-0.00674766
0.0790228
-0.0296831
-0.00472663
-0.00351711
-0.00295842
-0.00298667
-0.00349188
-0.00434682
-0.00529726
-0.00645278
-0.00764022
-0.0091594
-0.0108375
-0.0131379
-0.0159724
-0.0194568
-0.0213569
-0.0184296
0.00907569
0.0777265
0.217005
)
;

boundaryField
{
    movingWall
    {
        type            zeroGradient;
    }
    fixedWalls
    {
        type            zeroGradient;
    }
    frontAndBack
    {
        type            empty;
    }
}


// ************************************************************************* //
