/*--------------------------------*- C++ -*----------------------------------*\
  =========                 |
  \\      /  F ield         | OpenFOAM: The Open Source CFD Toolbox
   \\    /   O peration     | Website:  https://openfoam.org
    \\  /    A nd           | Version:  10
     \\/     M anipulation  |
\*---------------------------------------------------------------------------*/
FoamFile
{
    format      ascii;
    class       volVectorField;
    location    "5.075";
    object      U;
}
// * * * * * * * * * * * * * * * * * * * * * * * * * * * * * * * * * * * * * //

dimensions      [0 1 -1 0 0 0 0];

internalField   nonuniform List<vector> 
475
(
(0.974648 0.0162691 0)
(0.974723 0.00629787 0)
(0.951166 0.0312026 0)
(0.953632 0.00213219 0)
(0.92098 0.0294175 0)
(0.998412 0.00919656 0)
(1.01401 0.0146704 0)
(1.02552 0.0140965 0)
(1.04414 0.00978889 0)
(1.05653 0.00184629 0)
(0.9997 0.000826366 0)
(1.01043 -0.00344305 0)
(1.02379 -0.00522411 0)
(1.04141 -0.00893693 0)
(1.05678 -0.0140762 0)
(1.00027 -0.00998735 0)
(1.01029 -0.0196932 0)
(1.02301 -0.0217772 0)
(1.03501 -0.0234333 0)
(1.0445 -0.0247753 0)
(0.981338 -0.00991401 0)
(0.968272 -0.0189279 0)
(0.954502 -0.0216689 0)
(0.932355 -0.0226232 0)
(0.908346 -0.0222338 0)
(0.923521 -0.0150062 0)
(0.933039 -0.0330724 0)
(0.939281 -0.0444759 0)
(0.945836 -0.0509324 0)
(0.961476 -0.0609216 0)
(0.98381 -0.080415 0)
(1.01201 -0.107744 0)
(1.04026 -0.14045 0)
(1.06319 -0.17813 0)
(1.08263 -0.215932 0)
(1.09289 -0.251432 0)
(1.09262 -0.278776 0)
(1.08453 -0.292829 0)
(1.06551 -0.29714 0)
(1.03962 -0.285972 0)
(1.00241 -0.261025 0)
(0.959877 -0.231406 0)
(0.921994 -0.191447 0)
(0.878458 -0.143611 0)
(0.831999 -0.0982466 0)
(0.791669 -0.0566675 0)
(0.750545 -0.0153262 0)
(0.70539 0.0222493 0)
(0.661194 0.0492752 0)
(0.625491 0.0649324 0)
(0.602656 0.0745616 0)
(0.592691 0.0844397 0)
(0.592626 0.0947695 0)
(0.598556 0.100876 0)
(0.60658 0.0989702 0)
(0.613753 0.0891028 0)
(0.618663 0.0741262 0)
(0.62126 0.0574778 0)
(0.6222 0.0417962 0)
(0.622249 0.0285677 0)
(0.621961 0.0183028 0)
(0.621637 0.0108912 0)
(0.621388 0.00587637 0)
(0.621219 0.0027271 0)
(0.621127 0.000868144 0)
(0.621081 -8.39333e-05 0)
(0.621049 -0.000542221 0)
(0.621008 -0.000623618 0)
(0.620985 -0.000653726 0)
(0.620942 -0.000463508 0)
(1.06793 -0.00778831 0)
(1.07967 -0.0205831 0)
(1.08571 -0.0321628 0)
(1.0887 -0.0435277 0)
(1.09354 -0.0586578 0)
(1.09946 -0.0787204 0)
(1.10236 -0.107627 0)
(1.10372 -0.13948 0)
(1.09869 -0.177158 0)
(1.08451 -0.21281 0)
(1.06302 -0.243523 0)
(1.03049 -0.266606 0)
(0.99313 -0.27232 0)
(0.948508 -0.265654 0)
(0.895598 -0.248084 0)
(0.837045 -0.21859 0)
(0.776014 -0.18148 0)
(0.718794 -0.132447 0)
(0.663198 -0.0816801 0)
(0.608723 -0.0419313 0)
(0.555916 -0.0029408 0)
(0.503209 0.0421499 0)
(0.457421 0.0784727 0)
(0.428909 0.0928346 0)
(0.419668 0.0892375 0)
(0.424299 0.0809902 0)
(0.437978 0.0771642 0)
(0.457933 0.0782356 0)
(0.48191 0.0795953 0)
(0.507318 0.0770474 0)
(0.531569 0.069372 0)
(0.552804 0.0578726 0)
(0.570195 0.04484 0)
(0.583711 0.0323385 0)
(0.593765 0.0216917 0)
(0.600948 0.0134373 0)
(0.605882 0.00755249 0)
(0.609137 0.00366121 0)
(0.611179 0.00130853 0)
(0.612392 1.36947e-05 0)
(0.613065 -0.000572394 0)
(0.613417 -0.000805698 0)
(0.613552 -0.000752238 0)
(0.613611 -0.000706276 0)
(0.61357 -0.000471184 0)
(1.06885 -0.0216605 0)
(1.07738 -0.0337252 0)
(1.08255 -0.0438307 0)
(1.08367 -0.057966 0)
(1.08172 -0.0716812 0)
(1.07919 -0.0890653 0)
(1.06874 -0.112809 0)
(1.05894 -0.136528 0)
(1.038 -0.167425 0)
(1.01122 -0.193786 0)
(0.978557 -0.21852 0)
(0.931766 -0.231861 0)
(0.883855 -0.222975 0)
(0.820952 -0.205805 0)
(0.74488 -0.187964 0)
(0.669848 -0.162655 0)
(0.59135 -0.127565 0)
(0.51686 -0.0831958 0)
(0.453517 -0.0338141 0)
(0.402483 0.0100278 0)
(0.360299 0.0499843 0)
(0.33155 0.0825845 0)
(0.322977 0.0969556 0)
(0.33274 0.0915034 0)
(0.351507 0.0756816 0)
(0.371959 0.060921 0)
(0.3926 0.0529807 0)
(0.414911 0.0509521 0)
(0.439823 0.0507415 0)
(0.466418 0.0487633 0)
(0.492604 0.0436295 0)
(0.516313 0.0359169 0)
(0.536199 0.0271285 0)
(0.551755 0.0187387 0)
(0.563159 0.0117142 0)
(0.571004 0.00643801 0)
(0.576053 0.00287252 0)
(0.579067 0.000690212 0)
(0.580712 -0.000477968 0)
(0.581495 -0.000991573 0)
(0.581754 -0.001088 0)
(0.581763 -0.00102058 0)
(0.581607 -0.000811963 0)
(0.581493 -0.00068019 0)
(0.581241 -0.000421267 0)
(1.05128 -0.0304306 0)
(1.05051 -0.0368855 0)
(1.04956 -0.0431577 0)
(1.03896 -0.0526356 0)
(1.02694 -0.0602725 0)
(1.00687 -0.0733716 0)
(0.978561 -0.0860614 0)
(0.945841 -0.103514 0)
(0.894124 -0.124087 0)
(0.841776 -0.140558 0)
(0.766773 -0.163847 0)
(0.681338 -0.168229 0)
(0.603999 -0.15162 0)
(0.490192 -0.125925 0)
(0.342256 -0.0786896 0)
(0.225639 -0.0304511 0)
(0.150545 -0.00395824 0)
(0.107206 0.0124577 0)
(0.0877573 0.0303082 0)
(0.088996 0.0476684 0)
(0.107807 0.0625939 0)
(0.139985 0.0707853 0)
(0.180861 0.069068 0)
(0.223546 0.0592952 0)
(0.261491 0.0474151 0)
(0.292678 0.0380226 0)
(0.319069 0.032421 0)
(0.343555 0.0294769 0)
(0.367842 0.0272144 0)
(0.39184 0.0241382 0)
(0.414245 0.0198401 0)
(0.433587 0.0148263 0)
(0.44898 0.00990932 0)
(0.46023 0.00574861 0)
(0.467744 0.00266797 0)
(0.472289 0.000664542 0)
(0.474686 -0.000478032 0)
(0.475651 -0.00100344 0)
(0.475793 -0.00113454 0)
(0.47552 -0.00106321 0)
(0.475078 -0.000888819 0)
(0.474636 -0.000705482 0)
(0.474206 -0.000509963 0)
(0.473933 -0.000388739 0)
(0.473567 -0.000224254 0)
(0.879829 -0.0252067 0)
(0.848069 -0.0254897 0)
(0.815099 -0.0296111 0)
(0.772873 -0.0315625 0)
(0.732144 -0.0348235 0)
(0.674611 -0.0416195 0)
(0.617818 -0.0434775 0)
(0.543511 -0.056797 0)
(0.45437 -0.0601196 0)
(0.362296 -0.0745616 0)
(0.223359 -0.0912156 0)
(0.0925494 -0.0477956 0)
(0.00543927 0.0142854 0)
(-0.0450428 0.0424074 0)
(-0.070962 0.0347701 0)
(-0.0844996 0.00866712 0)
(-0.0941688 -0.0111431 0)
(-0.0992616 -0.0154335 0)
(-0.0957702 -0.0095886 0)
(-0.0803545 6.6306e-05 0)
(-0.0525888 0.0081731 0)
(-0.0153742 0.0120768 0)
(0.0248499 0.0122942 0)
(0.0615206 0.0100699 0)
(0.0917157 0.0073779 0)
(0.115605 0.00537139 0)
(0.135155 0.00423667 0)
(0.152266 0.00364694 0)
(0.167898 0.00315316 0)
(0.182021 0.00248833 0)
(0.194056 0.00165996 0)
(0.203423 0.000858096 0)
(0.209949 0.000220304 0)
(0.213913 -0.000201608 0)
(0.215876 -0.000423334 0)
(0.216462 -0.000500499 0)
(0.216243 -0.000506938 0)
(0.215642 -0.000456275 0)
(0.214919 -0.000377988 0)
(0.214218 -0.000295608 0)
(0.213616 -0.000218803 0)
(0.213133 -0.000155484 0)
(0.212765 -0.000104133 0)
(0.212515 -7.04243e-05 0)
(0.212265 -3.71525e-05 0)
(0.00397487 -0.0347759 0)
(0.0025644 -0.0300134 0)
(-0.018402 -0.00157339 0)
(-0.0821932 0.0359266 0)
(-0.176456 0.0522085 0)
(-0.26525 0.0494432 0)
(-0.336821 0.0401583 0)
(-0.385629 0.0294843 0)
(-0.410333 0.0179098 0)
(-0.412478 0.00639861 0)
(-0.393754 -0.00585282 0)
(-0.355345 -0.0172108 0)
(-0.300025 -0.0268614 0)
(-0.231271 -0.033602 0)
(-0.154878 -0.0366076 0)
(-0.0746804 -0.0378422 0)
(0.00598856 -0.0371689 0)
(0.0836338 -0.034078 0)
(0.155675 -0.028987 0)
(0.219894 -0.0228093 0)
(0.274029 -0.0151054 0)
(0.315433 -0.00451903 0)
(0.340885 0.00896326 0)
(0.347413 0.0215621 0)
(0.335009 0.0271452 0)
(0.308759 0.023271 0)
(0.277012 0.0146734 0)
(0.247513 0.00680621 0)
(0.224624 0.00176302 0)
(0.209462 -0.000813869 0)
(0.201077 -0.00188628 0)
(0.197719 -0.0021878 0)
(0.19753 -0.00214276 0)
(0.199038 -0.00192456 0)
(0.201211 -0.00159604 0)
(0.203457 -0.0012503 0)
(0.205476 -0.000945015 0)
(0.207158 -0.000695173 0)
(0.208491 -0.000498183 0)
(0.209514 -0.000349173 0)
(0.210273 -0.000239087 0)
(0.210826 -0.000160944 0)
(0.211223 -0.000103845 0)
(0.211483 -6.87631e-05 0)
(0.211736 -3.6129e-05 0)
(-0.00883379 0.0298923 0)
(-0.0542321 0.056658 0)
(-0.11895 0.0933777 0)
(-0.172817 0.118471 0)
(-0.22226 0.120378 0)
(-0.255084 0.103101 0)
(-0.276257 0.0755319 0)
(-0.280347 0.0446695 0)
(-0.268301 0.0109118 0)
(-0.24207 -0.0226604 0)
(-0.200662 -0.0544801 0)
(-0.144157 -0.0822729 0)
(-0.0753283 -0.105146 0)
(0.00317513 -0.120156 0)
(0.0872426 -0.127412 0)
(0.170741 -0.129256 0)
(0.251265 -0.126488 0)
(0.326941 -0.118877 0)
(0.394693 -0.107803 0)
(0.452932 -0.093881 0)
(0.501872 -0.0767836 0)
(0.540159 -0.0580317 0)
(0.568352 -0.0383899 0)
(0.591122 -0.0153448 0)
(0.609333 0.0116292 0)
(0.617291 0.0358115 0)
(0.609014 0.0484832 0)
(0.585024 0.0472623 0)
(0.553198 0.0369458 0)
(0.522716 0.0240973 0)
(0.498874 0.0129466 0)
(0.482827 0.00504353 0)
(0.473345 0.000259681 0)
(0.468622 -0.00217159 0)
(0.466862 -0.00308916 0)
(0.466707 -0.00316015 0)
(0.467314 -0.00282414 0)
(0.468224 -0.00235117 0)
(0.469179 -0.00186313 0)
(0.470054 -0.00142923 0)
(0.470802 -0.00105838 0)
(0.471393 -0.000777471 0)
(0.471889 -0.000536732 0)
(0.472189 -0.000397242 0)
(0.472568 -0.000226688 0)
(-0.0309412 0.0174048 0)
(-0.0580622 0.0731883 0)
(-0.0567987 0.103105 0)
(-0.0493346 0.124621 0)
(-0.0353136 0.125301 0)
(-0.0142711 0.101444 0)
(0.00881855 0.0643516 0)
(0.0336121 0.024417 0)
(0.06893 -0.0161066 0)
(0.11437 -0.0593442 0)
(0.170311 -0.102522 0)
(0.2325 -0.141034 0)
(0.301161 -0.173906 0)
(0.371029 -0.194962 0)
(0.439823 -0.202853 0)
(0.504914 -0.20332 0)
(0.563818 -0.195964 0)
(0.616632 -0.1783 0)
(0.660348 -0.155845 0)
(0.692069 -0.133426 0)
(0.714416 -0.106935 0)
(0.728645 -0.0747506 0)
(0.732597 -0.0449478 0)
(0.729624 -0.0221656 0)
(0.728416 -0.000380348 0)
(0.731504 0.0254112 0)
(0.732072 0.0503649 0)
(0.722957 0.0651896 0)
(0.703083 0.0654395 0)
(0.676803 0.0541408 0)
(0.649978 0.0380663 0)
(0.626911 0.0229684 0)
(0.609347 0.0116164 0)
(0.597132 0.00433256 0)
(0.589187 0.000234668 0)
(0.584343 -0.00176172 0)
(0.581583 -0.00250572 0)
(0.58015 -0.0025799 0)
(0.579531 -0.00233106 0)
(0.579366 -0.00197816 0)
(0.57945 -0.00158375 0)
(0.579619 -0.00125379 0)
(0.579862 -0.000912853 0)
(0.580016 -0.000720661 0)
(0.580285 -0.000433664 0)
(-0.0248979 0.144543 0)
(-0.000106073 0.102081 0)
(0.0359444 0.102166 0)
(0.0864593 0.108798 0)
(0.143925 0.102691 0)
(0.204104 0.0783134 0)
(0.264633 0.0406751 0)
(0.321189 -0.00679839 0)
(0.381443 -0.0589554 0)
(0.444346 -0.112343 0)
(0.506252 -0.161942 0)
(0.567622 -0.202819 0)
(0.62736 -0.237317 0)
(0.682149 -0.260129 0)
(0.731948 -0.263457 0)
(0.77555 -0.256624 0)
(0.809502 -0.243605 0)
(0.834417 -0.21863 0)
(0.852341 -0.184035 0)
(0.859972 -0.147991 0)
(0.857567 -0.112882 0)
(0.85057 -0.0761201 0)
(0.838224 -0.0402276 0)
(0.819063 -0.0119985 0)
(0.798464 0.0085512 0)
(0.783448 0.0294197 0)
(0.774679 0.0534948 0)
(0.76631 0.0740564 0)
(0.752967 0.0829948 0)
(0.733652 0.0783461 0)
(0.71067 0.0642837 0)
(0.687305 0.0469248 0)
(0.666315 0.0309738 0)
(0.649247 0.0186129 0)
(0.636433 0.0100997 0)
(0.627422 0.00472559 0)
(0.621442 0.00157917 0)
(0.617669 -0.000122338 0)
(0.615402 -0.000924847 0)
(0.614118 -0.00122976 0)
(0.613455 -0.00122614 0)
(0.613141 -0.00112755 0)
(0.613046 -0.000898941 0)
(0.613014 -0.000769132 0)
(0.613083 -0.000490623 0)
(0.0816873 0.00334438 0)
(0.121314 -0.00625923 0)
(0.212407 -0.00357319 0)
(0.290466 -0.00153983 0)
(0.371771 -0.00939632 0)
(0.456716 -0.030332 0)
(0.540274 -0.0618699 0)
(0.615899 -0.101433 0)
(0.686023 -0.144194 0)
(0.753935 -0.190338 0)
(0.812554 -0.236645 0)
(0.862444 -0.270468 0)
(0.904459 -0.292944 0)
(0.934652 -0.30773 0)
(0.953656 -0.304129 0)
(0.961666 -0.287013 0)
(0.962918 -0.264102 0)
(0.956707 -0.228654 0)
(0.940835 -0.185244 0)
(0.920026 -0.142327 0)
(0.893485 -0.0975827 0)
(0.861046 -0.050745 0)
(0.828332 -0.00998351 0)
(0.796222 0.0176686 0)
(0.766413 0.0341441 0)
(0.743379 0.0486335 0)
(0.728479 0.0666314 0)
(0.719297 0.0845178 0)
(0.711889 0.0949304 0)
(0.703211 0.0939083 0)
(0.692051 0.0828937 0)
(0.678922 0.0664361 0)
(0.665334 0.0491025 0)
(0.652867 0.0338267 0)
(0.642555 0.0218096 0)
(0.63475 0.0130962 0)
(0.62927 0.00718724 0)
(0.625665 0.00340595 0)
(0.623428 0.00116337 0)
(0.622109 -8.00289e-05 0)
(0.621376 -0.000634312 0)
(0.620999 -0.000851078 0)
(0.62083 -0.000789543 0)
(0.620756 -0.000746226 0)
(0.620743 -0.000503428 0)
)
;

boundaryField
{
    inlet
    {
        type            fixedValue;
        value           uniform (1 0 0);
    }
    outlet
    {
        type            zeroGradient;
    }
    upperWall
    {
        type            noSlip;
    }
    lowerWall
    {
        type            noSlip;
    }
    frontAndBack
    {
        type            empty;
    }
}


// ************************************************************************* //
