/*--------------------------------*- C++ -*----------------------------------*\
  =========                 |
  \\      /  F ield         | OpenFOAM: The Open Source CFD Toolbox
   \\    /   O peration     | Website:  https://openfoam.org
    \\  /    A nd           | Version:  10
     \\/     M anipulation  |
\*---------------------------------------------------------------------------*/
FoamFile
{
    format      ascii;
    class       volScalarField;
    location    "9.975";
    object      p;
}
// * * * * * * * * * * * * * * * * * * * * * * * * * * * * * * * * * * * * * //

dimensions      [0 2 -2 0 0 0 0];

internalField   nonuniform List<scalar> 
400
(
6.15925e-08
-3.46962e-05
2.28773e-05
0.000135753
0.000313102
0.000558422
0.000877684
0.00127894
0.0017709
0.00236119
0.00305346
0.00384383
0.00471475
0.00562866
0.00651978
0.00729743
0.00785828
0.00814207
0.00818794
0.00801263
3.9084e-05
3.90773e-06
7.13318e-05
0.000188475
0.000366065
0.000608414
0.000921756
0.00131392
0.00179328
0.00236754
0.00304136
0.00381264
0.00466482
0.00556653
0.00645259
0.00722931
0.00778383
0.00804822
0.00807222
0.00787958
-3.57577e-05
-8.13509e-05
-1.55693e-05
9.62877e-05
0.000265584
0.000496676
0.000796229
0.00117297
0.00163693
0.00219876
0.00286757
0.00364687
0.00452949
0.00548734
0.00645074
0.00730721
0.00790605
0.00814271
0.00808542
0.00781671
-0.000201716
-0.000254432
-0.000193476
-9.15052e-05
6.35265e-05
0.000276114
0.000553552
0.00090586
0.00134549
0.0018874
0.00254786
0.00334025
0.00426735
0.00530863
0.00639733
0.00739191
0.00807581
0.00826589
0.00804428
0.00765709
-0.000470655
-0.000528985
-0.000476951
-0.000390417
-0.000256763
-7.13479e-05
0.000173736
0.000489842
0.00089209
0.00140029
0.00203926
0.00283657
0.00381226
0.00496024
0.00622489
0.00743373
0.00826201
0.00837761
0.00788793
0.00731503
-0.00084071
-0.000904178
-0.000865123
-0.000799919
-0.000695789
-0.000548364
-0.000349831
-8.8285e-05
0.000252972
0.000697413
0.0012773
0.0020348
0.00301433
0.00423788
0.00570041
0.00720993
0.00827958
0.0082822
0.00746354
0.00656894
-0.00130413
-0.00137291
-0.00135076
-0.00131322
-0.00124804
-0.00115194
-0.00101864
-0.00083815
-0.00059535
-0.000267499
0.000178705
0.000790507
0.0016323
0.00278275
0.00428902
0.00610002
0.00754476
0.00753527
0.00657306
0.00528844
-0.00184981
-0.00192435
-0.00192269
-0.00191908
-0.00190275
-0.00187285
-0.00182689
-0.00176048
-0.00166675
-0.00153441
-0.00134537
-0.00107663
-0.000697832
-0.00011908
0.000889208
0.00260169
0.00454141
0.00529538
0.00501743
0.00377295
-0.00246365
-0.00254433
-0.00256562
-0.00260086
-0.00264189
-0.00269201
-0.00275558
-0.00283871
-0.00295135
-0.00311004
-0.00334549
-0.00373041
-0.00441714
-0.0054796
-0.00644508
-0.00595239
-0.00355758
-0.000187285
0.00233797
0.00318824
-0.00312911
-0.00321586
-0.0032602
-0.00333596
-0.00343852
-0.00357726
-0.00376631
-0.0040275
-0.00439739
-0.00493998
-0.00577211
-0.00712752
-0.00951485
-0.0133449
-0.0181006
-0.0201706
-0.0174659
-0.0104388
-0.00320275
0.00213196
-0.00382844
-0.00392066
-0.00398445
-0.00409721
-0.004258
-0.0044839
-0.00480041
-0.00524798
-0.00589545
-0.00686619
-0.00839119
-0.0109025
-0.015269
-0.0221562
-0.0309289
-0.0360256
-0.0335987
-0.0240701
-0.0129838
-0.00350019
-0.00454419
-0.00463987
-0.00471308
-0.0048512
-0.0050564
-0.0053537
-0.00577817
-0.00638544
-0.0072698
-0.0085973
-0.0106786
-0.0140507
-0.0197349
-0.0282725
-0.0390175
-0.0452659
-0.0434147
-0.0340796
-0.0234134
-0.0122941
-0.00526494
-0.00536254
-0.00543015
-0.00557424
-0.00579879
-0.00613604
-0.00662638
-0.00733178
-0.00835502
-0.00986809
-0.0122026
-0.0158604
-0.0218054
-0.0302677
-0.0408128
-0.0464821
-0.0451717
-0.0371601
-0.0287813
-0.0183907
-0.00597974
-0.00606839
-0.00609907
-0.00621689
-0.00642824
-0.00676833
-0.00727496
-0.00800682
-0.00905965
-0.010573
-0.0128492
-0.0163006
-0.0215936
-0.0287176
-0.037095
-0.0414773
-0.0407392
-0.0340853
-0.0290042
-0.0195636
-0.00671387
-0.00679905
-0.00676464
-0.00682814
-0.00698203
-0.00727225
-0.00773401
-0.00841714
-0.00940267
-0.0107781
-0.0128019
-0.0156913
-0.0198282
-0.025043
-0.0309509
-0.0339213
-0.0331809
-0.027437
-0.0253576
-0.015768
-0.00755588
-0.00744014
-0.00725878
-0.00717783
-0.00724564
-0.00747878
-0.00789145
-0.00850875
-0.0093802
-0.0105901
-0.0122772
-0.0145579
-0.0176184
-0.0211773
-0.0249978
-0.0263916
-0.0257236
-0.0205945
-0.0202291
-0.00662492
-0.00798553
-0.00835856
-0.007974
-0.00789176
-0.00779965
-0.00786954
-0.00811272
-0.0085618
-0.00925622
-0.0102549
-0.0116386
-0.0134481
-0.0157803
-0.0182836
-0.0208466
-0.0215726
-0.0206102
-0.0156013
-0.0136041
0.0110353
-0.0113495
-0.00876278
-0.00801241
-0.00728712
-0.00710431
-0.00719269
-0.00749945
-0.00798573
-0.00867578
-0.0095945
-0.0108266
-0.012366
-0.0143028
-0.0162305
-0.0180499
-0.0180654
-0.0164549
-0.00974073
-0.000961838
0.042265
-0.00791718
-0.0108273
-0.00957261
-0.00943339
-0.00885238
-0.0085281
-0.00841171
-0.00852536
-0.00892588
-0.00959448
-0.010642
-0.0119988
-0.0138647
-0.0157746
-0.0178536
-0.0177151
-0.0152969
-0.00177864
0.0223734
0.0988688
-0.0331608
-0.00797312
-0.00626726
-0.00539296
-0.0051027
-0.00524125
-0.0056895
-0.00626173
-0.00705174
-0.00797779
-0.00925645
-0.0107
-0.0124608
-0.0137467
-0.0142203
-0.0102507
0.000839764
0.0347026
0.0997952
0.229845
)
;

boundaryField
{
    movingWall
    {
        type            zeroGradient;
    }
    fixedWalls
    {
        type            zeroGradient;
    }
    frontAndBack
    {
        type            empty;
    }
}


// ************************************************************************* //
