/*--------------------------------*- C++ -*----------------------------------*\
  =========                 |
  \\      /  F ield         | OpenFOAM: The Open Source CFD Toolbox
   \\    /   O peration     | Website:  https://openfoam.org
    \\  /    A nd           | Version:  10
     \\/     M anipulation  |
\*---------------------------------------------------------------------------*/
FoamFile
{
    format      ascii;
    class       surfaceScalarField;
    location    "9.975";
    object      phi;
}
// * * * * * * * * * * * * * * * * * * * * * * * * * * * * * * * * * * * * * //

dimensions      [0 3 -1 0 0 0 0];

internalField   nonuniform List<scalar> 
760
(
-1.46083e-05
1.46081e-05
-4.74911e-05
3.28828e-05
-8.72621e-05
3.97711e-05
-0.000129621
4.23593e-05
-0.0001734
4.37781e-05
-0.000218435
4.50351e-05
-0.000264537
4.61022e-05
-0.000311041
4.65038e-05
-0.000356532
4.54913e-05
-0.000398571
4.2039e-05
-0.00043344
3.48692e-05
-0.000456041
2.26009e-05
-0.00046012
4.07915e-06
-0.000438921
-2.11992e-05
-0.00038758
-5.13407e-05
-0.000306153
-8.14271e-05
-0.000203622
-0.000102531
-9.99326e-05
-0.000103689
-2.25558e-05
-7.73768e-05
-2.25558e-05
-3.6233e-05
5.08411e-05
-0.000102285
9.89352e-05
-0.000179938
0.000117423
-0.00026205
0.000124472
-0.000346076
0.000127804
-0.000430948
0.000129907
-0.000515589
0.000130743
-0.000598212
0.000129127
-0.000675896
0.000123175
-0.00074423
0.000110373
-0.000797046
8.76857e-05
-0.00082624
5.17947e-05
-0.000823185
1.02469e-06
-0.000777898
-6.6487e-05
-0.000683931
-0.000145308
-0.000542018
-0.00022334
-0.000366124
-0.000278425
-0.000187997
-0.000281816
-5.16154e-05
-0.000213758
-7.41712e-05
-4.66274e-05
9.74686e-05
-0.000128902
0.00018121
-0.000224608
0.000213129
-0.000325123
0.000224987
-0.000427359
0.000230039
-0.000529958
0.000232506
-0.000631602
0.000232388
-0.000730266
0.00022779
-0.000822748
0.000215658
-0.000904267
0.000191892
-0.000968056
0.000151475
-0.00100535
8.90867e-05
-0.00100517
8.49345e-07
-0.000954742
-0.000116918
-0.000843805
-0.000256245
-0.000669571
-0.000397574
-0.000446974
-0.000501022
-0.000220027
-0.000508763
-5.44438e-05
-0.000379342
-0.000128615
-5.07261e-05
0.000148195
-0.0001401
0.000270584
-0.000243745
0.000316775
-0.000352407
0.00033365
-0.000463002
0.000340634
-0.000574402
0.000343905
-0.000685655
0.000343641
-0.000795232
0.000337367
-0.000900529
0.000320955
-0.000997338
0.0002887
-0.00107916
0.0002333
-0.00113644
0.00014636
-0.00115608
2.04907e-05
-0.00112071
-0.000152283
-0.0010107
-0.000366253
-0.000812242
-0.000596035
-0.000534708
-0.000778556
-0.000241205
-0.000802266
-4.37921e-05
-0.000576754
-0.000172407
-5.14669e-05
0.000199662
-0.000143115
0.000362232
-0.000249697
0.000423357
-0.000361795
0.000445747
-0.00047663
0.000455469
-0.000593667
0.000460942
-0.000712796
0.000462771
-0.000833598
0.000458169
-0.000954815
0.000442172
-0.00107367
0.000407558
-0.00118486
0.00034449
-0.00127904
0.000240533
-0.00134066
8.21124e-05
-0.00134674
-0.000146198
-0.00126235
-0.000450643
-0.00104919
-0.000809203
-0.000695802
-0.00113194
-0.000290018
-0.00120805
-2.97901e-05
-0.000836982
-0.000202197
-5.04417e-05
0.000250103
-0.000141785
0.000453575
-0.000248726
0.000530299
-0.000361894
0.000558915
-0.000478954
0.000572529
-0.000600198
0.000582187
-0.000726738
0.00058931
-0.000859801
0.000591233
-0.00100029
0.000582663
-0.00114807
0.000555331
-0.00130073
0.000497154
-0.00145167
0.000391477
-0.00158623
0.000216671
-0.00167813
-5.42976e-05
-0.00166738
-0.000461399
-0.0014682
-0.00100838
-0.00102055
-0.0015796
-0.000438108
-0.00179049
-4.00764e-05
-0.00123501
-0.000242274
-4.83509e-05
0.000298454
-0.000137807
0.000543031
-0.000243435
0.000635926
-0.000355961
0.000671441
-0.000473517
0.000690085
-0.000597313
0.000705982
-0.000729916
0.000721912
-0.000874729
0.000736046
-0.00103574
0.000743676
-0.00121717
0.000736755
-0.00142261
0.000702594
-0.00165336
0.000622226
-0.00190319
0.000466504
-0.00214191
0.000184421
-0.00228
-0.000323309
-0.00214523
-0.00114314
-0.00161457
-0.00211026
-0.000826292
-0.00257876
-0.000161627
-0.00189968
-0.0004039
-4.54529e-05
0.000343907
-0.000131805
0.000629384
-0.000234643
0.000738764
-0.000344702
0.000781499
-0.000460476
0.000805859
-0.000584034
0.00082954
-0.000719426
0.000857305
-0.000872455
0.000889075
-0.00105102
0.000922237
-0.0012656
0.00095134
-0.00152972
0.000966709
-0.00185949
0.000952004
-0.00226465
0.000871657
-0.00270687
0.000626642
-0.00304709
1.69117e-05
-0.00302118
-0.00116906
-0.00249403
-0.00263741
-0.00158587
-0.00348692
-0.000528473
-0.00295708
-0.000932373
-4.19123e-05
0.000385819
-0.000124129
0.0007116
-0.000222681
0.000837316
-0.000328099
0.000886917
-0.000438994
0.000916754
-0.000558043
0.00094859
-0.000690509
0.00098977
-0.000844351
0.00104292
-0.00103131
0.0011092
-0.00126891
0.00118893
-0.00158286
0.00128067
-0.00200543
0.00137457
-0.00255658
0.0014228
-0.00317844
0.00124851
-0.00366326
0.000501727
-0.00376575
-0.00106657
-0.00339512
-0.00300803
-0.00254546
-0.00433658
-0.00115222
-0.00435032
-0.00208459
-3.80308e-05
0.00042385
-0.000115394
0.000788964
-0.000208227
0.00093015
-0.000306575
0.000985265
-0.000408801
0.00101898
-0.000517731
0.00105752
-0.000639146
0.00111118
-0.000782122
0.00118589
-0.000960701
0.00128778
-0.00119681
0.00142504
-0.00152331
0.00160716
-0.00197785
0.00182912
-0.0025674
0.00201235
-0.00320446
0.00188557
-0.00369154
0.00098881
-0.00385326
-0.000904854
-0.00368715
-0.00317414
-0.00307624
-0.00494749
-0.00174442
-0.00568214
-0.00382902
-3.43759e-05
0.000458226
-0.000106786
0.000861374
-0.000192806
0.00101617
-0.000281669
0.00107413
-0.000371116
0.00110843
-0.000463487
0.00114989
-0.00056392
0.00121162
-0.000680507
0.00130248
-0.00082571
0.00143298
-0.00101838
0.00161771
-0.00128428
0.00187306
-0.00164602
0.00219086
-0.0020909
0.00245723
-0.00253504
0.0023297
-0.00286908
0.00132285
-0.00302637
-0.000747567
-0.00304789
-0.00315262
-0.00277852
-0.00521685
-0.00182972
-0.00663094
-0.00565874
-3.20721e-05
0.000490298
-0.00010058
0.000929882
-0.000179345
0.00109493
-0.00025664
0.00115142
-0.000329535
0.00118132
-0.000399396
0.00121975
-0.00046958
0.0012818
-0.000544981
0.00137788
-0.000632328
0.00152033
-0.000740065
0.00172545
-0.000876798
0.00200979
-0.00104343
0.00235749
-0.00122759
0.00264139
-0.00139578
0.00249789
-0.00154211
0.00146919
-0.00168523
-0.000604451
-0.00187204
-0.00296581
-0.00196419
-0.00512469
-0.00146562
-0.00712951
-0.00712436
-3.23212e-05
0.000522619
-9.93602e-05
0.000996921
-0.000171728
0.0011673
-0.000236734
0.00121643
-0.000290725
0.00123531
-0.000334064
0.00126309
-0.000368127
0.00131586
-0.000393891
0.00140365
-0.000411295
0.00153773
-0.000417218
0.00173137
-0.000404446
0.00199702
-0.000358267
0.00231131
-0.000280655
0.00256378
-0.000209313
0.00242655
-0.000217223
0.0014771
-0.000398697
-0.000422977
-0.000769419
-0.00259509
-0.0011669
-0.00472722
-0.00106708
-0.00722932
-0.00819144
-3.94914e-05
0.000562111
-0.000110368
0.0010678
-0.00017697
0.0012339
-0.000227649
0.00126711
-0.000260608
0.00126827
-0.000276034
0.00127852
-0.000273203
0.00131303
-0.000249796
0.00138024
-0.000200544
0.00148848
-0.000114273
0.0016451
2.69654e-05
0.00185578
0.000234855
0.00210342
0.000509343
0.00228929
0.000768612
0.00216728
0.00086019
0.00138552
0.000642889
-0.000205676
0.000140183
-0.00209238
-0.000535766
-0.00405127
-0.000757235
-0.00700785
-0.00894868
-4.976e-05
0.000611871
-0.000129208
0.00114725
-0.000196112
0.00130081
-0.000239141
0.00131014
-0.000254333
0.00128346
-0.000242962
0.00126715
-0.000204865
0.00127494
-0.000136908
0.00131228
-3.19954e-05
0.00138357
0.000121123
0.00149198
0.000339378
0.00163753
0.000642688
0.00180011
0.00101949
0.00191249
0.00138187
0.00180489
0.00154635
0.00122105
0.00132479
1.58801e-05
0.000731478
-0.00149907
-0.000100838
-0.00321895
-0.000507308
-0.00660138
-0.00945599
-0.000117702
0.000729572
-0.000211114
0.00124066
-0.000260612
0.00135031
-0.0002744
0.00132393
-0.000260323
0.00126938
-0.000221091
0.00122792
-0.000154237
0.00120808
-5.42068e-05
0.00121225
8.68467e-05
0.00124251
0.000279986
0.00129884
0.000538593
0.00137892
0.000874559
0.00146414
0.00127112
0.00151593
0.00165196
0.00142406
0.00184131
0.0010317
0.00165949
0.000197698
0.00106174
-0.000901319
0.000180708
-0.00233792
-0.000315706
-0.00610497
-0.00977169
-7.57195e-05
0.000805292
-0.000236334
0.00140127
-0.000324255
0.00143823
-0.000346331
0.001346
-0.000321776
0.00124483
-0.000261389
0.00116753
-0.000167687
0.00111438
-3.75837e-05
0.00108215
0.000134176
0.00107075
0.000356672
0.00107635
0.000636163
0.00109943
0.000976744
0.00112356
0.00135804
0.00113463
0.00172015
0.00106195
0.00192003
0.000831814
0.00177553
0.000342196
0.00128404
-0.000409822
0.000537687
-0.00159157
6.12066e-05
-0.00562849
-0.00971049
-0.000372981
0.00117827
-0.000413044
0.00144133
-0.000435468
0.00146065
-0.000443182
0.00135372
-0.000401928
0.00120357
-0.000318615
0.00108422
-0.000196172
0.000991938
-3.23368e-05
0.000918313
0.000171848
0.000866568
0.000421718
0.000826477
0.000714789
0.000806359
0.00105079
0.000787559
0.00140844
0.000776985
0.00173457
0.000735819
0.00195258
0.000613802
0.00193613
0.000358652
0.00177332
-0.000247018
0.00144071
-0.00125897
0.000821188
-0.00500896
-0.0088893
-0.00136294
0.00254121
-0.00131855
0.00139695
-0.00104609
0.00118818
-0.000659858
0.000967489
-0.000254416
0.000798133
0.000154654
0.000675146
0.000557062
0.00058953
0.000953361
0.000522014
0.00134526
0.00047467
0.00173827
0.000433469
0.00213679
0.000407837
0.00254202
0.000382326
0.002958
0.00036101
0.00336651
0.00032731
0.0037352
0.00024511
0.00398364
0.000110212
0.0040606
-0.000323982
0.00393184
-0.00113021
0.00249772
-0.00357483
-0.00639158
0.00254121
0.00393816
0.00512635
0.00609383
0.00689197
0.00756711
0.00815664
0.00867866
0.00915333
0.0095868
0.00999463
0.010377
0.010738
0.0110653
0.0113104
0.0114206
0.0110966
0.00996641
0.00639158
)
;

boundaryField
{
    movingWall
    {
        type            calculated;
        value           uniform 0;
    }
    fixedWalls
    {
        type            calculated;
        value           uniform 0;
    }
    frontAndBack
    {
        type            empty;
        value           nonuniform List<scalar> 0();
    }
}


// ************************************************************************* //
