/*--------------------------------*- C++ -*----------------------------------*\
  =========                 |
  \\      /  F ield         | OpenFOAM: The Open Source CFD Toolbox
   \\    /   O peration     | Website:  https://openfoam.org
    \\  /    A nd           | Version:  10
     \\/     M anipulation  |
\*---------------------------------------------------------------------------*/
FoamFile
{
    format      ascii;
    class       volScalarField;
    location    "0.625";
    object      p;
}
// * * * * * * * * * * * * * * * * * * * * * * * * * * * * * * * * * * * * * //

dimensions      [0 2 -2 0 0 0 0];

internalField   nonuniform List<scalar> 
475
(
0.0102949
-0.00724497
-0.0573042
-0.0922623
-0.134762
-0.00333062
-0.0228904
-0.0445303
-0.0667979
-0.0731272
3.74267e-05
-0.00593079
-0.0214605
-0.0447632
-0.0463497
0.00822152
-0.00136807
-0.0180438
-0.0307598
-0.0265628
0.0393543
0.0141983
-0.00773116
-0.0191475
-0.0146311
-0.187352
-0.194435
-0.11404
-0.0287662
0.0489357
0.106537
0.128106
0.128675
0.123585
0.118488
0.114274
0.110664
0.107334
0.104105
0.100898
0.0976843
0.0944537
0.0912049
0.0879399
0.0846616
0.0813729
0.0780756
0.0747715
0.0714619
0.0681481
0.0648313
0.0615124
0.0581918
0.0548699
0.0515469
0.0482229
0.0448983
0.0415733
0.038248
0.0349225
0.031597
0.0282714
0.0249454
0.0216196
0.0182934
0.0149671
0.0116413
0.00831428
0.00498779
0.00166288
-0.0805321
-0.059974
-0.018704
0.00715997
0.0303393
0.0589171
0.0832177
0.0976665
0.104829
0.107686
0.107971
0.106763
0.104744
0.10229
0.0995817
0.096711
0.0937266
0.0906589
0.0875289
0.0843521
0.0811397
0.0779002
0.0746396
0.0713628
0.0680737
0.0647755
0.0614706
0.0581605
0.0548465
0.0515294
0.0482099
0.0448885
0.041566
0.0382425
0.0349185
0.031594
0.0282692
0.0249439
0.0216184
0.0182925
0.0149664
0.0116409
0.00831398
0.00498766
0.00166287
-0.040852
-0.0424329
-0.0195191
0.0278852
0.0672809
0.088642
0.0991829
0.104302
0.106176
0.106309
0.10565
0.104476
0.102834
0.100793
0.0984391
0.0958476
0.0930767
0.0901705
0.0871621
0.0840768
0.0809331
0.077745
0.0745231
0.0712754
0.0680083
0.0647267
0.0614341
0.0581333
0.0548261
0.0515141
0.0481984
0.04488
0.0415596
0.0382379
0.0349151
0.0315915
0.0282673
0.0249424
0.0216174
0.0182917
0.0149659
0.0116405
0.00831378
0.00498762
0.00166287
-0.0157037
-0.00222724
0.01943
0.0407748
0.0575517
0.0707761
0.0819631
0.0909371
0.0970929
0.100505
0.101928
0.101971
0.10107
0.0995168
0.0975017
0.0951533
0.0925601
0.0897853
0.0868747
0.083862
0.0807726
0.0776249
0.0744333
0.0712084
0.0679584
0.0646895
0.0614064
0.0581126
0.0548107
0.0515026
0.0481898
0.0448736
0.041555
0.0382344
0.0349126
0.0315896
0.0282659
0.0249414
0.0216166
0.0182912
0.0149655
0.0116403
0.00831366
0.0049876
0.00166286
-0.00355119
0.00475339
0.0160346
0.0342377
0.0532093
0.0691968
0.0810621
0.0893322
0.0948814
0.0983518
0.100066
0.100466
0.0999047
0.0986346
0.0968416
0.094662
0.0921954
0.0895148
0.0866741
0.0837133
0.0806622
0.077543
0.0743725
0.0711633
0.067925
0.0646648
0.0613881
0.058099
0.0548006
0.0514951
0.0481843
0.0448696
0.041552
0.0382322
0.0349109
0.0315884
0.028265
0.0249407
0.021616
0.0182908
0.0149653
0.01164
0.00831364
0.00498768
0.00166279
-0.0529347
-0.0343249
0.00469211
0.0579235
0.0943199
0.118074
0.130093
0.13389
0.132841
0.129307
0.124695
0.119753
0.114843
0.110118
0.105621
0.101346
0.0972692
0.0933567
0.0895769
0.0859022
0.0823099
0.0787817
0.0753028
0.0718612
0.0684479
0.0650558
0.0616801
0.0583169
0.0549632
0.0516165
0.0482751
0.0449373
0.0416024
0.0382696
0.0349385
0.0316087
0.0282799
0.0249517
0.0216242
0.0182968
0.0149696
0.011643
0.00831555
0.00498854
0.00166295
-0.0592987
-0.0436575
-0.00591741
0.0514073
0.091413
0.117081
0.129408
0.132927
0.131617
0.128003
0.123462
0.118675
0.113946
0.109396
0.105053
0.100907
0.0969334
0.093102
0.0893847
0.0857577
0.0822018
0.0787011
0.0752428
0.0718166
0.0684147
0.0650311
0.0616617
0.0583033
0.0549531
0.0516092
0.0482696
0.0449333
0.0415994
0.0382673
0.0349368
0.0316074
0.028279
0.0249511
0.0216238
0.0182965
0.0149693
0.0116429
0.00831533
0.00498831
0.00166297
-0.137351
-0.113416
-0.0482976
0.03257
0.0851636
0.116354
0.129607
0.132459
0.130451
0.126505
0.121935
0.117285
0.112761
0.108424
0.104278
0.1003
0.096464
0.0927421
0.0891105
0.0855499
0.082045
0.0785833
0.0751544
0.0717503
0.0683649
0.0649939
0.061634
0.0582827
0.0549379
0.0515978
0.0482611
0.0449269
0.0415946
0.0382638
0.0349342
0.0316056
0.0282777
0.0249501
0.021623
0.0182959
0.0149689
0.0116426
0.00831513
0.0049882
0.00166296
-0.19918
-0.192864
-0.10322
0.00217585
0.0759754
0.114587
0.129143
0.131395
0.128696
0.124459
0.119928
0.115493
0.111247
0.10719
0.103295
0.0995304
0.0958675
0.0922834
0.0887599
0.0852834
0.0818433
0.0784309
0.0750395
0.0716637
0.0682998
0.0649451
0.0615975
0.0582555
0.0549176
0.0515826
0.0482497
0.0449183
0.0415882
0.038259
0.0349307
0.031603
0.0282758
0.0249487
0.021622
0.0182952
0.0149684
0.0116422
0.00831486
0.00498807
0.00166294
-0.326164
-0.25631
-0.154054
-0.0250149
0.0685166
0.112186
0.125663
0.127228
0.124759
0.121051
0.117079
0.113166
0.109381
0.105717
0.102145
0.0986397
0.0951826
0.0917592
0.0883603
0.0849799
0.0816134
0.0782573
0.0749085
0.071565
0.0682255
0.0648893
0.0615558
0.0582244
0.0548943
0.0515652
0.0482366
0.0449085
0.0415808
0.0382536
0.0349267
0.0316001
0.0282737
0.0249472
0.0216209
0.0182943
0.0149677
0.0116417
0.00831454
0.00498792
0.00166292
)
;

boundaryField
{
    inlet
    {
        type            zeroGradient;
    }
    outlet
    {
        type            fixedValue;
        value           uniform 0;
    }
    upperWall
    {
        type            zeroGradient;
    }
    lowerWall
    {
        type            zeroGradient;
    }
    frontAndBack
    {
        type            empty;
    }
}


// ************************************************************************* //
