/*--------------------------------*- C++ -*----------------------------------*\
  =========                 |
  \\      /  F ield         | OpenFOAM: The Open Source CFD Toolbox
   \\    /   O peration     | Website:  https://openfoam.org
    \\  /    A nd           | Version:  10
     \\/     M anipulation  |
\*---------------------------------------------------------------------------*/
FoamFile
{
    format      ascii;
    class       volVectorField;
    location    "0.3";
    object      U;
}
// * * * * * * * * * * * * * * * * * * * * * * * * * * * * * * * * * * * * * //

dimensions      [0 1 -1 0 0 0 0];

internalField   nonuniform List<vector> 
8000
(
(-0.000131453 0.0001306 4.35707e-08)
(-0.000399618 0.000135122 1.96769e-07)
(-0.000665935 0.000128334 2.17321e-07)
(-0.000914873 0.000118142 2.15429e-07)
(-0.00114022 0.000105033 1.97259e-07)
(-0.00133652 8.94161e-05 1.69895e-07)
(-0.00149919 7.17386e-05 1.36675e-07)
(-0.00162453 5.24611e-05 9.95425e-08)
(-0.0017098 3.2043e-05 5.98073e-08)
(-0.00175316 1.09357e-05 1.8449e-08)
(-0.00175367 -1.04168e-05 -2.37537e-08)
(-0.00171129 -3.15719e-05 -6.59027e-08)
(-0.00162686 -5.20817e-05 -1.07136e-07)
(-0.00150213 -7.14869e-05 -1.46351e-07)
(-0.00133979 -8.93168e-05 -1.82057e-07)
(-0.00114349 -0.000105096 -2.1204e-07)
(-0.000917825 -0.000118363 -2.32524e-07)
(-0.000668268 -0.000128689 -2.36316e-07)
(-0.000401102 -0.000135562 -2.05885e-07)
(-0.000131976 -0.000131068 -5.10417e-08)
(-0.000142828 0.000404686 -1.21087e-07)
(-0.000433973 0.000418464 3.69928e-08)
(-0.000722848 0.000397408 7.3566e-08)
(-0.0009927 0.000365759 8.27535e-08)
(-0.00123681 0.000325076 7.91753e-08)
(-0.0014493 0.000276656 6.91879e-08)
(-0.00162524 0.000221897 5.572e-08)
(-0.00176073 0.00016223 4.02278e-08)
(-0.00185286 9.90729e-05 2.3484e-08)
(-0.00189969 3.38106e-05 5.92114e-09)
(-0.00190026 -3.22007e-05 -1.22576e-08)
(-0.00185451 -9.76114e-05 -3.06654e-08)
(-0.00176332 -0.000161053 -4.89949e-08)
(-0.00162852 -0.000221117 -6.66722e-08)
(-0.00145294 -0.00027635 -8.27035e-08)
(-0.00124046 -0.000325279 -9.53044e-08)
(-0.000996002 -0.000366453 -1.01001e-07)
(-0.000725463 -0.000398526 -9.26695e-08)
(-0.000435645 -0.000419876 -5.26708e-08)
(-0.00014341 -0.000406203 1.10735e-07)
(-0.000150198 0.000698408 -1.84562e-07)
(-0.000456274 0.000721764 -1.21677e-08)
(-0.000759734 0.000685225 3.20082e-08)
(-0.00104285 0.000630352 4.54455e-08)
(-0.00129857 0.000559927 4.58992e-08)
(-0.00152081 0.000476255 4.0401e-08)
(-0.00170453 0.000381792 3.21483e-08)
(-0.00184583 0.000279018 2.25797e-08)
(-0.00194182 0.00017036 1.23152e-08)
(-0.00199063 5.81614e-05 1.55548e-09)
(-0.0019913 -5.52981e-05 -9.69513e-09)
(-0.00194377 -0.000167758 -2.13347e-08)
(-0.00184887 -0.000276919 -3.32978e-08)
(-0.00170839 -0.000380396 -4.52217e-08)
(-0.00152511 -0.000475702 -5.62608e-08)
(-0.0013029 -0.000560279 -6.46816e-08)
(-0.00104677 -0.000631583 -6.68979e-08)
(-0.00076284 -0.000687216 -5.53929e-08)
(-0.000458253 -0.000724301 -1.16105e-08)
(-0.000150875 -0.000701117 1.60137e-07)
(-0.000161451 0.00101003 -2.19035e-07)
(-0.000490313 0.00104335 -3.56994e-08)
(-0.000815952 0.000989958 1.28128e-08)
(-0.00111914 0.000909982 2.84397e-08)
(-0.00139232 0.000807607 3.02056e-08)
(-0.00162909 0.000686316 2.618e-08)
(-0.00182433 0.000549749 1.9916e-08)
(-0.00197416 0.000401518 1.29256e-08)
(-0.00207581 0.000245086 5.73484e-09)
(-0.0021275 8.37399e-05 -1.7195e-09)
(-0.00212833 -7.93627e-05 -9.44762e-09)
(-0.00207823 -0.000241104 -1.77655e-08)
(-0.00197795 -0.000398297 -2.68e-08)
(-0.00182914 -0.000547596 -3.63582e-08)
(-0.00163447 -0.000685449 -4.56838e-08)
(-0.00139774 -0.000808129 -5.29822e-08)
(-0.00112408 -0.00091186 -5.43541e-08)
(-0.000819876 -0.000993015 -4.1528e-08)
(-0.000492817 -0.00104725 5.78922e-09)
(-0.000162305 -0.0010142 1.89691e-07)
(-0.000177196 0.00134858 -2.50138e-07)
(-0.000537886 0.00139235 -5.06862e-08)
(-0.000894354 0.00131997 1.6942e-09)
(-0.00122524 0.00121195 1.84448e-08)
(-0.00152226 0.0010742 2.03834e-08)
(-0.00177869 0.000911676 1.64569e-08)
(-0.00198936 0.00072941 1.08026e-08)
(-0.00215052 0.000532259 5.12985e-09)
(-0.00225963 0.000324755 -1.37761e-10)
(-0.00231511 0.000111087 -5.15314e-09)
(-0.00231617 -0.000104796 -1.03857e-08)
(-0.00226273 -0.000319022 -1.6446e-08)
(-0.00215539 -0.000527605 -2.37264e-08)
(-0.00199557 -0.000726276 -3.22551e-08)
(-0.00178567 -0.000910386 -4.13842e-08)
(-0.00152933 -0.00107492 -4.92049e-08)
(-0.00123169 -0.00121464 -5.13287e-08)
(-0.000899506 -0.00132439 -3.83135e-08)
(-0.000541183 -0.00139802 1.28191e-08)
(-0.000178319 -0.00135465 2.13589e-07)
(-0.000198109 0.0017237 -2.84224e-07)
(-0.000600977 0.00177843 -6.35282e-08)
(-0.000998013 0.00168391 -7.27641e-09)
(-0.00136494 0.00154356 9.61965e-09)
(-0.00169258 0.0013656 1.06133e-08)
(-0.00197388 0.00115685 5.87343e-09)
(-0.00220375 0.000924037 3.62647e-10)
(-0.00237882 0.00067343 -4.00636e-09)
(-0.00249699 0.000410641 -7.07738e-09)
(-0.00255705 0.000140671 -9.44706e-09)
(-0.00255844 -0.000131901 -1.19933e-08)
(-0.00250104 -0.000402631 -1.5693e-08)
(-0.0023852 -0.000666893 -2.13172e-08)
(-0.00221192 -0.000919591 -2.9223e-08)
(-0.00198311 -0.00115496 -3.89492e-08)
(-0.00170199 -0.00136653 -4.84634e-08)
(-0.00137358 -0.00154729 -5.27179e-08)
(-0.00100495 -0.00169012 -4.06434e-08)
(-0.00060543 -0.00178645 1.45335e-08)
(-0.000199629 -0.00173231 2.37323e-07)
(-0.000225182 0.00214663 -3.24936e-07)
(-0.000682471 0.0022127 -7.74007e-08)
(-0.00113133 0.00209144 -1.74658e-08)
(-0.00154358 0.00191272 -2.03479e-09)
(-0.00190898 0.00168785 -3.24659e-09)
(-0.00222026 0.00142619 -8.96869e-09)
(-0.00247278 0.0011366 -1.37997e-08)
(-0.00266392 0.000826903 -1.61863e-08)
(-0.00279239 0.00050379 -1.62663e-08)
(-0.00285765 0.000172887 -1.50321e-08)
(-0.00285947 -0.00016087 -1.38904e-08)
(-0.00279772 -0.000492779 -1.43287e-08)
(-0.00267235 -0.000817856 -1.76494e-08)
(-0.00248364 -0.00113036 -2.47605e-08)
(-0.0022326 -0.00142344 -3.55656e-08)
(-0.00192166 -0.00168899 -4.79546e-08)
(-0.00155531 -0.00191778 -5.59831e-08)
(-0.00114082 -0.00210004 -4.61378e-08)
(-0.000688596 -0.00222392 1.24434e-08)
(-0.000227277 -0.00215871 2.62788e-07)
(-0.00025988 0.00263101 -3.74776e-07)
(-0.000786584 0.0027084 -9.43248e-08)
(-0.00130062 0.00255368 -3.14912e-08)
(-0.00176857 0.00232798 -1.9034e-08)
(-0.00217911 0.00204704 -2.33935e-08)
(-0.00252513 0.00172369 -3.02512e-08)
(-0.00280304 0.00136947 -3.40111e-08)
(-0.00301162 0.000993979 -3.32957e-08)
(-0.003151 0.000604847 -2.88292e-08)
(-0.00322172 0.000208003 -2.22607e-08)
(-0.00322411 -0.000191722 -1.56538e-08)
(-0.00315803 -0.000589868 -1.11551e-08)
(-0.00302279 -0.000981561 -1.06663e-08)
(-0.00281751 -0.00136076 -1.61691e-08)
(-0.00254173 -0.00171967 -2.83164e-08)
(-0.00219633 -0.00204833 -4.49868e-08)
(-0.00178467 -0.00233475 -5.91231e-08)
(-0.00131376 -0.00256548 -5.4179e-08)
(-0.000795132 -0.00272401 6.06427e-09)
(-0.000262812 -0.00264791 2.8985e-07)
(-0.000304407 0.00319406 -4.3636e-07)
(-0.000919575 0.0032818 -1.16645e-07)
(-0.00151497 0.00308353 -5.3101e-08)
(-0.00205027 0.00279852 -4.5764e-08)
(-0.00251326 0.00244893 -5.44306e-08)
(-0.00289783 0.00205244 -6.23331e-08)
(-0.00320249 0.00162395 -6.35688e-08)
(-0.00342854 0.00117497 -5.75875e-08)
(-0.00357836 0.000713785 -4.60024e-08)
(-0.00365422 0.000246061 -3.13956e-08)
(-0.00365735 -0.000224199 -1.66742e-08)
(-0.00358756 -0.000693565 -4.52985e-09)
(-0.00344325 -0.00115801 2.48403e-09)
(-0.00322174 -0.0016118 3.24919e-10)
(-0.00292017 -0.00204648 -1.29851e-08)
(-0.00253674 -0.00245018 -3.47779e-08)
(-0.00207252 -0.0028074 -5.85163e-08)
(-0.00153338 -0.00309963 -6.4006e-08)
(-0.000931672 -0.0033035 -6.72691e-09)
(-0.000308577 -0.00321778 3.16624e-07)
(-0.000362207 0.00385844 -5.13459e-07)
(-0.001091 0.00395344 -1.4851e-07)
(-0.00178778 0.00369617 -8.89556e-08)
(-0.00240323 0.00333388 -8.98886e-08)
(-0.00292518 0.00289831 -1.03691e-07)
(-0.00335012 0.0024138 -1.10937e-07)
(-0.00368051 0.00189941 -1.06556e-07)
(-0.00392178 0.00136853 -9.14379e-08)
(-0.00407991 0.000829478 -6.88109e-08)
(-0.0041597 0.000286733 -4.24889e-08)
(-0.00416374 -0.000257634 -1.61729e-08)
(-0.00409184 -0.000802379 7.6945e-09)
(-0.00394102 -0.00134546 2.38167e-08)
(-0.00370598 -0.00188243 2.82245e-08)
(-0.00338012 -0.00240487 1.70767e-08)
(-0.00295726 -0.00289907 -1.18241e-08)
(-0.00243418 -0.00334528 -5.01148e-08)
(-0.00181386 -0.00371798 -7.37981e-08)
(-0.00110839 -0.00398366 -2.8847e-08)
(-0.000368254 -0.00389194 3.39007e-07)
(-0.000438937 0.00465547 -6.12831e-07)
(-0.00131597 0.00474997 -1.98651e-07)
(-0.0021392 0.00440934 -1.51613e-07)
(-0.0028482 0.00394323 -1.64202e-07)
(-0.00343334 0.00339763 -1.81671e-07)
(-0.00389672 0.00280596 -1.83518e-07)
(-0.00424777 0.00219206 -1.66979e-07)
(-0.00449847 0.00157071 -1.36306e-07)
(-0.00466016 0.000949137 -9.7325e-08)
(-0.00474133 0.000329118 -5.49991e-08)
(-0.00474646 -0.000290787 -1.32817e-08)
(-0.00467539 -0.00091313 2.57288e-08)
(-0.00452331 -0.00153949 5.52531e-08)
(-0.00428115 -0.00216827 7.07202e-08)
(-0.0039368 -0.0027924 6.53759e-08)
(-0.00347715 -0.00339694 3.38691e-08)
(-0.00289152 -0.00395733 -2.39614e-08)
(-0.00217661 -0.00443864 -7.80025e-08)
(-0.00134149 -0.00479217 -6.19671e-08)
(-0.000447941 -0.00470331 3.49331e-07)
(-0.00054455 0.00563088 -7.47514e-07)
(-0.00161949 0.00570664 -2.87634e-07)
(-0.00260014 0.00524333 -2.65103e-07)
(-0.00341502 0.00463368 -2.89737e-07)
(-0.00406245 0.00394475 -3.03387e-07)
(-0.00455569 0.00322164 -2.87916e-07)
(-0.00491576 0.00249315 -2.47023e-07)
(-0.00516471 0.00177385 -1.91298e-07)
(-0.00532151 0.00106767 -1.29669e-07)
(-0.00539962 0.000371524 -6.71101e-08)
(-0.00540598 -0.000321663 -6.28728e-09)
(-0.00534053 -0.00102033 5.13902e-08)
(-0.00519616 -0.00173183 9.98983e-08)
(-0.00495889 -0.00245978 1.33892e-07)
(-0.00460878 -0.00320081 1.42447e-07)
(-0.00412219 -0.00394066 1.1289e-07)
(-0.00347598 -0.00465007 3.86979e-08)
(-0.00265456 -0.00528211 -6.3441e-08)
(-0.00165794 -0.00576569 -1.05558e-07)
(-0.000558478 -0.00570031 3.31094e-07)
(-0.000697867 0.00685553 -9.38128e-07)
(-0.00204484 0.00687034 -4.71743e-07)
(-0.00321894 0.00621975 -4.74987e-07)
(-0.00414689 0.00540666 -4.99859e-07)
(-0.00484538 0.00452867 -4.86844e-07)
(-0.00534832 0.00364486 -4.28886e-07)
(-0.00569556 0.00278673 -3.4445e-07)
(-0.00592395 0.001965 -2.51803e-07)
(-0.00606248 0.00117681 -1.61181e-07)
(-0.00613066 0.000411167 -7.51216e-08)
(-0.00613831 -0.000347277 8.41676e-09)
(-0.00608556 -0.00111536 8.67656e-08)
(-0.00596276 -0.00190892 1.59876e-07)
(-0.00575013 -0.00273997 2.22417e-07)
(-0.00541768 -0.00361264 2.59674e-07)
(-0.00492642 -0.00451749 2.47812e-07)
(-0.00423308 -0.00542349 1.6261e-07)
(-0.00329936 -0.00626978 6.23598e-09)
(-0.00210474 -0.0069529 -1.35742e-07)
(-0.000720545 -0.00695863 2.42274e-07)
(-0.000936957 0.00844639 -1.22876e-06)
(-0.0026705 0.00830195 -8.90305e-07)
(-0.004072 0.00735718 -8.601e-07)
(-0.00510623 0.00625038 -8.40609e-07)
(-0.00582427 0.00512322 -7.44417e-07)
(-0.00629763 0.00404626 -6.00994e-07)
(-0.00659562 0.0030465 -4.47697e-07)
(-0.00677463 0.00212413 -3.05739e-07)
(-0.00687534 0.00126418 -1.81978e-07)
(-0.00692372 0.000443828 -7.26933e-08)
(-0.00693251 -0.000363505 3.28386e-08)
(-0.00690218 -0.0011857 1.32776e-07)
(-0.00682077 -0.00205011 2.35881e-07)
(-0.00666261 -0.00298121 3.39937e-07)
(-0.0063863 -0.00399636 4.28752e-07)
(-0.00593303 -0.00509829 4.66787e-07)
(-0.0052284 -0.00626256 3.99385e-07)
(-0.00419272 -0.00741865 1.83945e-07)
(-0.00276766 -0.00841646 -6.46602e-08)
(-0.000976412 -0.00860447 -8.18266e-09)
(-0.00134346 0.010613 -1.74365e-06)
(-0.00364507 0.0100745 -1.87366e-06)
(-0.00528048 0.00865848 -1.53392e-06)
(-0.00638103 0.007126 -1.34796e-06)
(-0.00704952 0.00567687 -1.06179e-06)
(-0.00742505 0.00437638 -7.73363e-07)
(-0.0076177 0.00323216 -5.24668e-07)
(-0.00770628 0.00222245 -3.26453e-07)
(-0.00774278 0.00131266 -1.72587e-07)
(-0.00775835 0.000463638 -4.62222e-08)
(-0.00776783 -0.000365098 7.246e-08)
(-0.00777217 -0.00121456 1.9053e-07)
(-0.00775828 -0.00212632 3.26997e-07)
(-0.00769637 -0.00314181 4.88111e-07)
(-0.00753475 -0.00429947 6.62231e-07)
(-0.0071926 -0.0056266 8.06213e-07)
(-0.00655359 -0.00712225 8.28862e-07)
(-0.00546415 -0.00872643 5.74469e-07)
(-0.00381038 -0.0102287 3.6549e-07)
(-0.00141774 -0.0108621 -6.23218e-07)
(-0.0021036 0.0136726 -2.34587e-06)
(-0.00526627 0.0122462 -4.11087e-06)
(-0.00703277 0.0100776 -2.55801e-06)
(-0.0080881 0.00794387 -1.97273e-06)
(-0.0085739 0.0060968 -1.34485e-06)
(-0.00874234 0.00455769 -8.55453e-07)
(-0.00874954 0.00328649 -5.03303e-07)
(-0.00869412 0.00222204 -2.6256e-07)
(-0.00863414 0.00130085 -9.86251e-08)
(-0.00860146 0.000463285 2.75589e-08)
(-0.0086107 -0.000346154 1.39646e-07)
(-0.00866339 -0.00118174 2.65587e-07)
(-0.00874801 -0.00210008 4.34607e-07)
(-0.00883576 -0.00316354 6.69836e-07)
(-0.00887108 -0.00444089 9.77561e-07)
(-0.00875578 -0.00600212 1.32054e-06)
(-0.00832836 -0.00790136 1.57541e-06)
(-0.00731318 -0.010136 1.3613e-06)
(-0.00555813 -0.0124462 1.90223e-06)
(-0.00225216 -0.0141239 -2.0286e-06)
(-0.00357524 0.0190033 -9.74669e-06)
(-0.00806882 0.0149042 -9.94787e-06)
(-0.0095974 0.0114868 -3.65217e-06)
(-0.0103616 0.00852944 -2.40505e-06)
(-0.010435 0.00623002 -1.30768e-06)
(-0.0102345 0.00447777 -6.32338e-07)
(-0.00995247 0.00313576 -2.40817e-07)
(-0.00969101 0.00207871 -2.46869e-08)
(-0.00950061 0.00120527 9.81648e-08)
(-0.00940441 0.000434632 1.81139e-07)
(-0.00941188 -0.000301113 2.65303e-07)
(-0.00952509 -0.00106625 3.84628e-07)
(-0.00973906 -0.00192942 5.82535e-07)
(-0.0100361 -0.00297374 9.11562e-07)
(-0.0103722 -0.00430597 1.42528e-06)
(-0.0106519 -0.00606284 2.13126e-06)
(-0.0106862 -0.0084041 2.8729e-06)
(-0.0100265 -0.0114934 2.68793e-06)
(-0.00864419 -0.0151085 6.80158e-06)
(-0.00393238 -0.0196163 -1.87075e-06)
(-0.00728827 0.0232514 1.53774e-05)
(-0.0138997 0.016694 -1.09692e-05)
(-0.013381 0.0122284 3.36652e-07)
(-0.0132963 0.00845693 -7.97868e-07)
(-0.012572 0.00581665 -6.15431e-08)
(-0.0117801 0.00398998 3.62299e-07)
(-0.0110902 0.00270079 5.0597e-07)
(-0.0105649 0.00175123 5.19014e-07)
(-0.0102175 0.00100617 4.95533e-07)
(-0.0100462 0.000371217 4.85073e-07)
(-0.0100491 -0.000226042 5.23775e-07)
(-0.0102283 -0.000850704 6.32014e-07)
(-0.0105911 -0.00157492 8.69931e-07)
(-0.0111465 -0.00249289 1.32416e-06)
(-0.0118923 -0.0037415 2.11678e-06)
(-0.0127828 -0.0055265 3.32197e-06)
(-0.0136823 -0.0081468 4.42869e-06)
(-0.0139614 -0.0120165 1.00951e-06)
(-0.0147191 -0.0165491 9.28727e-06)
(-0.00777059 -0.0249272 -2.70207e-05)
(-0.0109303 0.049802 -6.93069e-05)
(-0.0186497 0.0205547 -4.16966e-05)
(-0.0153731 0.0130286 -1.84964e-06)
(-0.0140252 0.00757513 1.25936e-06)
(-0.0120201 0.00460941 3.01056e-06)
(-0.010398 0.00292661 2.84522e-06)
(-0.0091974 0.00188682 2.24258e-06)
(-0.00836485 0.00118952 1.70855e-06)
(-0.00784022 0.000676372 1.35078e-06)
(-0.00757999 0.000255958 1.16411e-06)
(-0.00756188 -0.000133069 1.12995e-06)
(-0.00778545 -0.000542421 1.27748e-06)
(-0.00827222 -0.00103302 1.67752e-06)
(-0.00906502 -0.00169682 2.53871e-06)
(-0.0102233 -0.00269913 4.32424e-06)
(-0.0117968 -0.00436774 7.98136e-06)
(-0.0137693 -0.00736452 1.55282e-05)
(-0.0147556 -0.0132125 2.01978e-05)
(-0.0187051 -0.0216132 7.32167e-05)
(-0.00863551 -0.0519904 4.06199e-05)
(0.0589554 0.0386262 4.7552e-05)
(0.0512181 0.0131021 -6.63643e-05)
(0.0769052 0.00728972 1.99542e-05)
(0.0823125 0.00372143 1.1372e-05)
(0.0868118 0.00200856 7.27783e-06)
(0.0895762 0.00117352 5.03815e-06)
(0.0912771 0.000719056 3.31763e-06)
(0.0923463 0.000442635 2.27526e-06)
(0.0929902 0.000252806 1.73266e-06)
(0.0933132 0.000104204 1.51964e-06)
(0.0933618 -2.96326e-05 1.54435e-06)
(0.0931405 -0.000169374 1.78699e-06)
(0.0926117 -0.000339453 2.27803e-06)
(0.0916795 -0.000581048 3.08102e-06)
(0.0901442 -0.000979117 4.25215e-06)
(0.0876271 -0.00172755 5.302e-06)
(0.0830629 -0.00326138 8.49851e-06)
(0.0787557 -0.00685802 -1.71505e-05)
(0.0516545 -0.0122938 4.713e-05)
(0.060621 -0.037841 -0.000121435)
(-0.000139269 0.000138363 2.67495e-08)
(-0.000423452 0.000143322 2.23865e-07)
(-0.000705706 0.000136131 2.64807e-07)
(-0.000969444 0.000125316 2.71301e-07)
(-0.00120816 0.000111407 2.53335e-07)
(-0.00141611 9.4839e-05 2.20713e-07)
(-0.00158841 7.60857e-05 1.78501e-07)
(-0.00172116 5.56359e-05 1.29852e-07)
(-0.00181146 3.3977e-05 7.69276e-08)
(-0.00185737 1.15877e-05 2.1328e-08)
(-0.00185789 -1.1061e-05 -3.55481e-08)
(-0.00181298 -3.34997e-05 -9.24583e-08)
(-0.00172354 -5.52533e-05 -1.47918e-07)
(-0.00159141 -7.58349e-05 -2.00101e-07)
(-0.00141944 -9.47454e-05 -2.46551e-07)
(-0.00121151 -0.000111481 -2.83714e-07)
(-0.000972461 -0.000125552 -3.06019e-07)
(-0.000708093 -0.000136504 -3.04061e-07)
(-0.000424977 -0.000143789 -2.58287e-07)
(-0.000139801 -0.000138855 -7.4586e-08)
(-0.000151504 0.000428837 -1.54001e-07)
(-0.00046041 0.000443944 3.93883e-08)
(-0.000766915 0.000421617 9.51746e-08)
(-0.00105314 0.000388029 1.14007e-07)
(-0.00131204 0.000344858 1.1305e-07)
(-0.00153739 0.000293481 1.0089e-07)
(-0.00172396 0.00023538 8.20579e-08)
(-0.00186763 0.000172074 5.91022e-08)
(-0.00196531 0.000105068 3.35187e-08)
(-0.00201496 3.58311e-05 6.23653e-09)
(-0.00201554 -3.41986e-05 -2.20206e-08)
(-0.001967 -0.000103589 -5.06918e-08)
(-0.00187027 -0.000170888 -7.89442e-08)
(-0.0017273 -0.000234603 -1.05582e-07)
(-0.0015411 -0.000293193 -1.28721e-07)
(-0.00131577 -0.000345095 -1.45279e-07)
(-0.00105651 -0.000388771 -1.49958e-07)
(-0.000769588 -0.000422794 -1.33384e-07)
(-0.000462117 -0.000445428 -7.5905e-08)
(-0.000152093 -0.000430412 1.1724e-07)
(-0.000159323 0.000740099 -2.39187e-07)
(-0.000484091 0.000765735 -3.24164e-08)
(-0.000806091 0.00072698 3.17897e-08)
(-0.0011064 0.000668746 5.67411e-08)
(-0.00137763 0.000594013 6.20979e-08)
(-0.00161332 0.000505229 5.69684e-08)
(-0.00180816 0.000404999 4.61886e-08)
(-0.00195798 0.000295955 3.22742e-08)
(-0.00205976 0.000180672 1.65077e-08)
(-0.0021115 6.16364e-05 -4.50467e-10)
(-0.00211218 -5.87329e-05 -1.83167e-08)
(-0.00206175 -0.000178038 -3.68351e-08)
(-0.00196109 -0.00029384 -5.55429e-08)
(-0.00181209 -0.000403609 -7.35459e-08)
(-0.00161771 -0.000504709 -8.91582e-08)
(-0.00138204 -0.000594427 -9.93489e-08)
(-0.00111041 -0.000670066 -9.86384e-08)
(-0.000809267 -0.000729082 -7.71204e-08)
(-0.000486116 -0.000768396 -1.408e-08)
(-0.000160015 -0.000742928 1.89077e-07)
(-0.000171263 0.00107024 -2.95014e-07)
(-0.000520216 0.00110683 -7.57015e-08)
(-0.000865753 0.0010502 -5.18571e-09)
(-0.00118736 0.000965337 2.32534e-08)
(-0.0014771 0.000856709 3.17464e-08)
(-0.0017282 0.000728015 3.00993e-08)
(-0.00193526 0.00058312 2.35666e-08)
(-0.00209414 0.000425856 1.47283e-08)
(-0.00220192 0.000259897 4.70137e-09)
(-0.00225671 8.87314e-05 -6.05537e-09)
(-0.00225756 -8.42924e-05 -1.76934e-08)
(-0.0022044 -0.000255866 -3.02519e-08)
(-0.00209802 -0.000422611 -4.36126e-08)
(-0.00194018 -0.000580977 -5.71376e-08)
(-0.00173371 -0.000727198 -6.92582e-08)
(-0.00148265 -0.000857326 -7.68168e-08)
(-0.00119241 -0.000967353 -7.38563e-08)
(-0.000869771 -0.00105344 -4.95131e-08)
(-0.000522779 -0.00111093 1.86435e-08)
(-0.000172137 -0.00107461 2.36468e-07)
(-0.000187968 0.0014289 -3.47553e-07)
(-0.000570699 0.00147698 -1.08997e-07)
(-0.000948952 0.00140022 -3.19123e-08)
(-0.00129994 0.0012856 -7.55217e-10)
(-0.00161497 0.00113944 9.00547e-09)
(-0.00188694 0.00096701 8.93698e-09)
(-0.00211035 0.000773637 4.90796e-09)
(-0.00228124 0.000564483 -4.02858e-10)
(-0.00239692 0.000344353 -6.06492e-09)
(-0.00245573 0.000117692 -1.20277e-08)
(-0.00245682 -0.000111311 -1.87644e-08)
(-0.00240011 -0.000338549 -2.67563e-08)
(-0.00228624 -0.000559793 -3.63241e-08)
(-0.00211671 -0.000770517 -4.71461e-08)
(-0.00189409 -0.000965793 -5.77769e-08)
(-0.00162222 -0.0011403 -6.48527e-08)
(-0.00130656 -0.00128849 -6.16928e-08)
(-0.000954237 -0.0014049 -3.59487e-08)
(-0.000574078 -0.00148295 3.73124e-08)
(-0.00018912 -0.00143526 2.75205e-07)
(-0.000210155 0.00182628 -4.05278e-07)
(-0.000637644 0.00188645 -1.41223e-07)
(-0.00105895 0.00178621 -5.71624e-08)
(-0.00144817 0.00163729 -2.39674e-08)
(-0.00179568 0.00144847 -1.37407e-08)
(-0.00209401 0.001227 -1.31304e-08)
(-0.00233779 0.000980013 -1.5294e-08)
(-0.00252343 0.000714157 -1.72889e-08)
(-0.00264871 0.000435388 -1.84455e-08)
(-0.00271238 0.000149011 -1.92508e-08)
(-0.0027138 -0.000140115 -2.06845e-08)
(-0.00265288 -0.000427277 -2.38644e-08)
(-0.00252999 -0.000707568 -2.96935e-08)
(-0.00234618 -0.000975585 -3.83089e-08)
(-0.00210349 -0.00122522 -4.84779e-08)
(-0.00180535 -0.0014496 -5.66023e-08)
(-0.00145704 -0.00164131 -5.5107e-08)
(-0.00106607 -0.00179279 -2.94749e-08)
(-0.000642216 -0.00189489 4.89176e-08)
(-0.000211715 -0.0018353 3.12652e-07)
(-0.000238878 0.0022743 -4.74528e-07)
(-0.000724115 0.00234702 -1.78246e-07)
(-0.00120041 0.00221843 -8.69063e-08)
(-0.00163771 0.00202879 -5.28562e-08)
(-0.00202526 0.00179022 -4.31805e-08)
(-0.0023554 0.00151262 -4.19821e-08)
(-0.00262319 0.00120539 -4.15775e-08)
(-0.00282587 0.00087686 -3.91293e-08)
(-0.00296207 0.000534106 -3.43305e-08)
(-0.00303123 0.000183104 -2.82643e-08)
(-0.00303311 -0.000170913 -2.26926e-08)
(-0.00296756 -0.000522956 -1.95756e-08)
(-0.00283455 -0.000867738 -2.06263e-08)
(-0.00263436 -0.00119918 -2.66811e-08)
(-0.0023681 -0.00151 -3.6916e-08)
(-0.00203831 -0.00179162 -4.76063e-08)
(-0.00164978 -0.00203426 -5.00663e-08)
(-0.00121018 -0.00222754 -2.70389e-08)
(-0.000730413 -0.00235883 5.62563e-08)
(-0.000241029 -0.00228697 3.52102e-07)
(-0.000275688 0.00278742 -5.60956e-07)
(-0.000834585 0.00287273 -2.25148e-07)
(-0.00138004 0.00270865 -1.26766e-07)
(-0.00187643 0.00246917 -9.30603e-08)
(-0.00231186 0.00217111 -8.45914e-08)
(-0.00267884 0.00182807 -8.24276e-08)
(-0.00297354 0.00145229 -7.81237e-08)
(-0.00319471 0.00105397 -6.89666e-08)
(-0.00334247 0.00064119 -5.53508e-08)
(-0.0034174 0.000220249 -3.93768e-08)
(-0.00341986 -0.00020373 -2.38669e-08)
(-0.0033497 -0.000626016 -1.17895e-08)
(-0.00320621 -0.00104144 -5.98675e-09)
(-0.00298845 -0.0014436 -8.32251e-09)
(-0.00269594 -0.00182422 -1.8694e-08)
(-0.0023296 -0.00217275 -3.33737e-08)
(-0.00189301 -0.00247649 -4.28313e-08)
(-0.00139358 -0.00272117 -2.60872e-08)
(-0.000843385 -0.00288918 6.00366e-08)
(-0.000278704 -0.00280516 3.94462e-07)
(-0.000322927 0.00338386 -6.71404e-07)
(-0.000975694 0.00348083 -2.88393e-07)
(-0.00160748 0.00327057 -1.84499e-07)
(-0.0021753 0.00296816 -1.5278e-07)
(-0.00266637 0.00259727 -1.45875e-07)
(-0.00307422 0.00217664 -1.41337e-07)
(-0.00339729 0.00172207 -1.29988e-07)
(-0.00363697 0.0012458 -1.09867e-07)
(-0.00379579 0.000756601 -8.2891e-08)
(-0.00387615 0.000260487 -5.25567e-08)
(-0.00387937 -0.000238297 -2.28809e-08)
(-0.00380527 -0.000736109 2.02911e-09)
(-0.00365213 -0.00122868 1.84737e-08)
(-0.00341714 -0.00170993 2.23026e-08)
(-0.00309725 -0.0021709 1.20298e-08)
(-0.00269058 -0.00259899 -8.64777e-09)
(-0.00219825 -0.00297779 -2.93221e-08)
(-0.00162647 -0.00328766 -2.41973e-08)
(-0.000988164 -0.00350371 5.94728e-08)
(-0.000327222 -0.00340877 4.38661e-07)
(-0.000384247 0.00408762 -8.15972e-07)
(-0.00115758 0.00419308 -3.78378e-07)
(-0.00189695 0.00392025 -2.72726e-07)
(-0.00254978 0.00353586 -2.44907e-07)
(-0.00310338 0.00307375 -2.38527e-07)
(-0.00355404 0.00255975 -2.274e-07)
(-0.00390438 0.00201407 -2.02609e-07)
(-0.00416018 0.00145092 -1.64684e-07)
(-0.00432779 0.000879139 -1.17839e-07)
(-0.0044123 0.00030346 -6.71961e-08)
(-0.00441646 -0.000273914 -1.78026e-08)
(-0.00434009 -0.000851662 2.57481e-08)
(-0.00418003 -0.00142762 5.78717e-08)
(-0.00393066 -0.00199707 7.27639e-08)
(-0.003585 -0.00255108 6.60715e-08)
(-0.00313649 -0.00307512 3.78148e-08)
(-0.00258175 -0.00354826 -6.22666e-11)
(-0.00192388 -0.00394344 -1.64305e-08)
(-0.00117554 -0.00422498 5.34221e-08)
(-0.000390485 -0.00412283 4.81257e-07)
(-0.000465652 0.00493184 -1.01165e-06)
(-0.00139627 0.00503773 -5.13884e-07)
(-0.00226981 0.00467649 -4.13224e-07)
(-0.00302188 0.00418197 -3.89736e-07)
(-0.00364248 0.00360314 -3.78446e-07)
(-0.0041339 0.00297546 -3.50555e-07)
(-0.00450612 0.00232424 -3.00847e-07)
(-0.0047719 0.00166515 -2.3461e-07)
(-0.00494325 0.00100584 -1.59308e-07)
(-0.0050292 0.000348211 -8.14519e-08)
(-0.00503449 -0.000309271 -6.42917e-09)
(-0.00495898 -0.00096931 6.19847e-08)
(-0.00479754 -0.00163357 1.16849e-07)
(-0.00454059 -0.00230038 1.50514e-07)
(-0.00417529 -0.0029622 1.54044e-07)
(-0.00368776 -0.00360322 1.21988e-07)
(-0.00306666 -0.0041974 6.05809e-08)
(-0.00230849 -0.0047077 7.5227e-09)
(-0.00142267 -0.00508233 4.23236e-08)
(-0.000474957 -0.00498218 5.1514e-07)
(-0.000577695 0.00596492 -1.28839e-06)
(-0.00171829 0.00605212 -7.3247e-07)
(-0.00275886 0.00556077 -6.44506e-07)
(-0.00362323 0.00491398 -6.18943e-07)
(-0.00430989 0.00418311 -5.86158e-07)
(-0.00483293 0.00341604 -5.20269e-07)
(-0.0052147 0.00264329 -4.26089e-07)
(-0.00547859 0.00188032 -3.16721e-07)
(-0.00564472 0.0011313 -2.03e-07)
(-0.00572741 0.000392941 -9.10785e-08)
(-0.00573398 -0.000342251 1.51727e-08)
(-0.00566439 -0.00108323 1.1476e-07)
(-0.0055111 -0.00183778 2.01194e-07)
(-0.00525929 -0.00260974 2.65375e-07)
(-0.00488784 -0.00339551 2.92285e-07)
(-0.0043717 -0.00417998 2.65492e-07)
(-0.00368634 -0.00493213 1.80685e-07)
(-0.00281523 -0.0056022 6.94942e-08)
(-0.00175814 -0.00611463 3.21015e-08)
(-0.000592122 -0.00603809 5.23949e-07)
(-0.000740327 0.00726177 -1.69301e-06)
(-0.00216954 0.00728584 -1.12183e-06)
(-0.00341534 0.00659593 -1.03465e-06)
(-0.00439965 0.00573337 -9.79303e-07)
(-0.00514043 0.004802 -8.83259e-07)
(-0.00567372 0.00386451 -7.39643e-07)
(-0.00604184 0.0029543 -5.7188e-07)
(-0.00628389 0.00208273 -4.01516e-07)
(-0.00643063 0.00124675 -2.39641e-07)
(-0.00650275 0.000434701 -8.83752e-08)
(-0.00651066 -0.000369689 5.34822e-08)
(-0.00645451 -0.00118428 1.89029e-07)
(-0.00632405 -0.00202587 3.16693e-07)
(-0.00609832 -0.00290715 4.2736e-07)
(-0.00574554 -0.00383251 5.0016e-07)
(-0.00522438 -0.00479191 5.02783e-07)
(-0.00448901 -0.00575244 4.04628e-07)
(-0.0034988 -0.00664962 2.19227e-07)
(-0.00223176 -0.00737346 5.98216e-08)
(-0.000763902 -0.00737071 4.61812e-07)
(-0.000993889 0.00894599 -2.31167e-06)
(-0.00283314 0.00880326 -1.8783e-06)
(-0.00432026 0.00780155 -1.69352e-06)
(-0.00541731 0.00662753 -1.52549e-06)
(-0.00617876 0.00543199 -1.27853e-06)
(-0.00668064 0.00428972 -9.93977e-07)
(-0.00699649 0.00322937 -7.16035e-07)
(-0.00718614 0.00225111 -4.67131e-07)
(-0.00729275 0.00133907 -2.51304e-07)
(-0.00734385 0.000469029 -6.06873e-08)
(-0.00735296 -0.000387197 1.15601e-07)
(-0.00732057 -0.00125917 2.89593e-07)
(-0.00723396 -0.00217591 4.68509e-07)
(-0.00706593 -0.00316331 6.46901e-07)
(-0.00677259 -0.00423975 8.00431e-07)
(-0.00629162 -0.0054081 8.79085e-07)
(-0.0055442 -0.00664242 8.10287e-07)
(-0.00444583 -0.00786799 5.43484e-07)
(-0.00293445 -0.00892523 2.45081e-07)
(-0.00103511 -0.0091137 2.27391e-07)
(-0.00142483 0.0112391 -3.33704e-06)
(-0.00386652 0.0106814 -3.43063e-06)
(-0.00560195 0.00918051 -2.76127e-06)
(-0.0067694 0.00755524 -2.28698e-06)
(-0.00747826 0.0060184 -1.73677e-06)
(-0.00787635 0.0046392 -1.22869e-06)
(-0.00808046 0.00342576 -8.05238e-07)
(-0.00817419 0.00235498 -4.7e-07)
(-0.00821271 0.00139014 -2.06257e-07)
(-0.00822902 0.000489743 1.14865e-08)
(-0.00823887 -0.000389177 2.13106e-07)
(-0.00824322 -0.00129009 4.22533e-07)
(-0.00822819 -0.00225705 6.61209e-07)
(-0.00816217 -0.00333397 9.3421e-07)
(-0.00799032 -0.00456156 1.22059e-06)
(-0.00762704 -0.0059687 1.45543e-06)
(-0.00694906 -0.00755434 1.51338e-06)
(-0.00579354 -0.00925491 1.19975e-06)
(-0.00403972 -0.0108465 9.23834e-07)
(-0.00150297 -0.0115046 -3.98354e-07)
(-0.00223055 0.0144717 -4.64834e-06)
(-0.00558499 0.0129805 -6.58661e-06)
(-0.00745978 0.0106841 -4.28009e-06)
(-0.00857971 0.00842143 -3.1652e-06)
(-0.00909482 0.00646285 -2.1085e-06)
(-0.00927327 0.00483083 -1.30562e-06)
(-0.0092807 0.00348291 -7.31215e-07)
(-0.00922174 0.00235421 -3.33119e-07)
(-0.00915797 0.00137737 -5.2616e-08)
(-0.00912316 0.000489147 1.63942e-07)
(-0.00913278 -0.000369304 3.67502e-07)
(-0.00918843 -0.00125552 6.00934e-07)
(-0.00927783 -0.00222951 9.0393e-07)
(-0.00937044 -0.00335735 1.30386e-06)
(-0.00940731 -0.00471189 1.7987e-06)
(-0.00928436 -0.00636726 2.3212e-06)
(-0.00883054 -0.00838076 2.69009e-06)
(-0.00775328 -0.0107499 2.43215e-06)
(-0.0058924 -0.0131961 3.01164e-06)
(-0.00238792 -0.0149574 -1.95422e-06)
(-0.00378619 0.0201218 -1.39545e-05)
(-0.00854995 0.0157982 -1.39957e-05)
(-0.0101768 0.0121798 -5.84882e-06)
(-0.0109904 0.00904186 -3.72134e-06)
(-0.0110681 0.00660358 -2.00027e-06)
(-0.0108554 0.00474573 -9.3257e-07)
(-0.0105561 0.00332286 -3.00158e-07)
(-0.0102787 0.0022021 6.29741e-08)
(-0.0100767 0.00127595 2.81376e-07)
(-0.00997465 0.000458733 4.45792e-07)
(-0.00998246 -0.000321562 6.22396e-07)
(-0.0101023 -0.00113309 8.64242e-07)
(-0.0103289 -0.00204863 1.23396e-06)
(-0.0106434 -0.00315623 1.79997e-06)
(-0.010999 -0.00456901 2.61443e-06)
(-0.0112946 -0.00643179 3.64701e-06)
(-0.0113303 -0.00891417 4.64325e-06)
(-0.010628 -0.0121922 4.41713e-06)
(-0.00916196 -0.0160204 9.08716e-06)
(-0.00416943 -0.0207834 -1.77023e-06)
(-0.00772749 0.0245713 1.39062e-05)
(-0.0147353 0.0176872 -1.57858e-05)
(-0.0141876 0.0129644 -1.38895e-06)
(-0.0141034 0.00896482 -1.72956e-06)
(-0.0133327 0.0061659 -3.35776e-07)
(-0.0124925 0.00422913 4.52981e-07)
(-0.0117607 0.00286215 7.78499e-07)
(-0.0112035 0.00185529 8.74496e-07)
(-0.010835 0.00106524 8.9917e-07)
(-0.0106533 0.000391904 9.41567e-07)
(-0.0106563 -0.000241535 1.06702e-06)
(-0.0108462 -0.000904087 1.31438e-06)
(-0.0112305 -0.00167222 1.77195e-06)
(-0.0118187 -0.00264574 2.55483e-06)
(-0.0126084 -0.00396951 3.80038e-06)
(-0.0135514 -0.0058612 5.53383e-06)
(-0.0145065 -0.00863651 7.01533e-06)
(-0.0147973 -0.01274 2.88311e-06)
(-0.0156025 -0.0175309 1.22771e-05)
(-0.00823857 -0.0264118 -3.10012e-05)
(-0.0116174 0.052657 -8.31845e-05)
(-0.0197261 0.0217489 -5.26369e-05)
(-0.0162638 0.0138125 -4.45483e-06)
(-0.014833 0.00802918 5.25278e-07)
(-0.012698 0.00488634 3.34823e-06)
(-0.0109742 0.00310251 3.55583e-06)
(-0.00969839 0.00199991 3.016e-06)
(-0.00881378 0.00126044 2.44705e-06)
(-0.0082562 0.000716274 2.05564e-06)
(-0.00797927 0.000270433 1.87923e-06)
(-0.00795911 -0.00014215 1.92057e-06)