/*--------------------------------*- C++ -*----------------------------------*\
  =========                 |
  \\      /  F ield         | OpenFOAM: The Open Source CFD Toolbox
   \\    /   O peration     | Website:  https://openfoam.org
    \\  /    A nd           | Version:  10
     \\/     M anipulation  |
\*---------------------------------------------------------------------------*/
FoamFile
{
    format      ascii;
    class       volScalarField;
    location    "2.675";
    object      p;
}
// * * * * * * * * * * * * * * * * * * * * * * * * * * * * * * * * * * * * * //

dimensions      [0 2 -2 0 0 0 0];

internalField   nonuniform List<scalar> 
8000
(
5.58525e-07
-1.17032e-05
2.79933e-05
0.000100581
0.000209728
0.000354899
0.000534455
0.000745935
0.000985807
0.00124929
0.00153036
0.00182147
0.00211371
0.00239692
0.00266007
0.00289174
0.00308079
0.00321749
0.00330027
0.0033004
1.13099e-05
-2.33e-06
3.70546e-05
0.000107858
0.000214548
0.00035686
0.000533393
0.000741917
0.000979121
0.00124046
0.00151994
0.00181014
0.00210241
0.00238646
0.00265111
0.00288471
0.00307581
0.0032144
0.0032995
0.00329906
-3.42576e-05
-5.0561e-05
-1.17151e-05
5.86385e-05
0.000165457
0.000308663
0.000487097
0.000698809
0.000940744
0.00120856
0.00149651
0.00179739
0.00210196
0.00239968
0.00267872
0.0029265
0.00313034
0.00327885
0.00337055
0.00336922
-0.000119242
-0.000138056
-9.96224e-05
-2.93363e-05
7.84212e-05
0.000223919
0.0004064
0.00062434
0.000875097
0.00115468
0.00145752
0.00177643
0.00210224
0.00242363
0.00272758
0.00299997
0.0032261
0.00339219
0.00349571
0.00349519
-0.00024913
-0.000270968
-0.000232883
-0.000162259
-5.26307e-05
9.67483e-05
0.00028567
0.000513195
0.000777251
0.00107435
0.0013993
0.00174496
0.00210201
0.00245838
0.00279962
0.00310924
0.00336951
0.00356291
0.00368496
0.00368673
-0.000426656
-0.000452348
-0.000414736
-0.000343694
-0.000231667
-7.72872e-05
0.000119964
0.000359929
0.000641315
0.000961351
0.00131541
0.00169665
0.00209578
0.00249988
0.00289274
0.00325488
0.00356425
0.00379774
0.00394746
0.00395369
-0.00065502
-0.000685643
-0.000648913
-0.00057784
-0.000463476
-0.000303666
-9.69502e-05
0.000157535
0.000459539
0.000807306
0.0011971
0.00162269
0.00207528
0.00254122
0.00300253
0.00343612
0.00381407
0.00410515
0.00429559
0.00430998
-0.000938281
-0.000975206
-0.000940133
-0.000869994
-0.000754093
-0.000589294
-0.000372948
-0.000102898
0.000221963
0.000601267
0.00103263
0.0015109
0.00202853
0.00257171
0.00312106
0.00364965
0.00412216
0.00449564
0.00474613
0.00477568
-0.00128139
-0.00132632
-0.0012941
-0.00122654
-0.00111078
-0.000942491
-0.000717555
-0.000432225
-8.37033e-05
0.00032946
0.000806817
0.001345
0.00193858
0.00257499
0.00323464
0.00388726
0.00448908
0.00498101
0.00532101
0.00537897
-0.00169038
-0.0017454
-0.00171762
-0.00165504
-0.00154211
-0.00137302
-0.00114193
-0.000843219
-0.000472087
-2.48634e-05
0.000500662
0.00110487
0.00178195
0.00252658
0.00332035
0.00413166
0.00490861
0.00557241
0.00604815
0.00616398
-0.0021728
-0.00224031
-0.0022189
-0.00216439
-0.00205798
-0.00189207
-0.00165877
-0.00135034
-0.000959844
-0.000481218
9.06688e-05
0.000759473
0.00152667
0.00239101
0.00334126
0.00434984
0.00536024
0.00627482
0.00695997
0.00719671
-0.00273861
-0.00282101
-0.00280791
-0.00276508
-0.00266978
-0.00251217
-0.00228195
-0.00196918
-0.00156484
-0.0010606
-0.000448297
0.000280469
0.00113385
0.00211911
0.00323993
0.00448233
0.00579526
0.007073
0.00808819
0.00858028
-0.00340212
-0.00350062
-0.00349708
-0.00346952
-0.00339044
-0.00324701
-0.00302612
-0.00271553
-0.00230464
-0.00178372
-0.00114251
-0.000368574
0.00055462
0.00164519
0.00293192
0.00442871
0.00611336
0.00790467
0.00943896
0.0104773
-0.00418917
-0.00429952
-0.00430327
-0.00429302
-0.00423487
-0.00411137
-0.00390585
-0.00360387
-0.00319407
-0.00266708
-0.00201287
-0.00121664
-0.00025436
0.000908946
0.00231022
0.00403035
0.00612112
0.00859954
0.0109183
0.0131845
-0.00512012
-0.00524052
-0.00524783
-0.0052553
-0.00522051
-0.00512009
-0.00493378
-0.00464451
-0.00424124
-0.00371768
-0.00306919
-0.00228841
-0.00135798
-0.000238039
0.00115485
0.00298446
0.00540242
0.00876482
0.0122363
0.0169269
-0.00638461
-0.00635245
-0.00632774
-0.00633079
-0.00632786
-0.00626748
-0.00611281
-0.00583962
-0.00544186
-0.00492133
-0.00428484
-0.00353423
-0.0026609
-0.00162173
-0.000307145
0.0014695
0.00382832
0.00782758
0.0122887
0.0212324
-0.00766601
-0.00794793
-0.00785178
-0.00789991
-0.00787169
-0.00776245
-0.00755547
-0.00723791
-0.00680869
-0.0062752
-0.00565983
-0.00498721
-0.00429396
-0.00359604
-0.0028876
-0.00198975
-0.000758865
0.00380884
0.00883038
0.025271
-0.0114374
-0.00893189
-0.00880017
-0.00860964
-0.00866565
-0.00870578
-0.00864735
-0.00843347
-0.00805719
-0.0075346
-0.00692128
-0.00626126
-0.00565705
-0.00516861
-0.00496236
-0.0047936
-0.00528911
-0.000716035
0.00448074
0.0314448
-0.0119095
-0.0130615
-0.0122299
-0.0122764
-0.0119672
-0.0115792
-0.011094
-0.0105092
-0.0098463
-0.00910615
-0.00836602
-0.00766219
-0.00717273
-0.00703433
-0.00765959
-0.00865555
-0.0123615
-0.00735254
-0.00353304
0.0478762
-0.0351896
-0.0107235
-0.0102117
-0.00975973
-0.00966688
-0.00982652
-0.00991938
-0.00979499
-0.00947135
-0.0089261
-0.00835852
-0.00766473
-0.00725869
-0.00680545
-0.00695657
-0.0059819
-0.0040961
0.0112135
0.0418368
0.132429
3.75457e-06
-1.70763e-05
2.16936e-05
9.37979e-05
0.000203275
0.000349214
0.00052982
0.000742598
0.000984053
0.00124938
0.00153241
0.00182561
0.00212006
0.00240555
0.00267088
0.00290446
0.00309479
0.00323146
0.00331325
0.00330342
2.30864e-05
1.09906e-06
3.97567e-05
0.000109594
0.000215825
0.000357907
0.000534321
0.000742842
0.000980181
0.0012418
0.00152176
0.0018126
0.00210563
0.00239057
0.00265613
0.00289056
0.00308205
0.00322003
0.00330415
0.00329307
-2.02691e-05
-4.56802e-05
-7.5767e-06
6.16925e-05
0.000167919
0.000310738
0.000488893
0.000700441
0.00094236
0.00121033
0.0014986
0.00180001
0.00210528
0.00240386
0.00268384
0.00293247
0.00313672
0.00328454
0.00337516
0.00336181
-0.000102935
-0.000131497
-9.38239e-05
-2.47326e-05
8.23149e-05
0.000227291
0.000409345
0.00062697
0.000877557
0.00115715
0.0014602
0.00177958
0.00210604
0.00242827
0.00273317
0.00300646
0.00323303
0.00339832
0.0035006
0.00348664
-0.000230676
-0.000263011
-0.000225687
-0.000156335
-4.74787e-05
0.000101319
0.000289757
0.000516918
0.000780769
0.00107786
0.00140303
0.00174921
0.00210699
0.00246433
0.00280669
0.0031174
0.00337824
0.00357077
0.00369136
0.00367779
-0.000405755
-0.00044288
-0.000406014
-0.00033631
-0.000225101
-7.13366e-05
0.000125409
0.000365004
0.0006462
0.000966272
0.00132064
0.00170255
0.00210261
0.00250794
0.00290226
0.00326587
0.00357612
0.00380872
0.00395675
0.00394517
-0.000631056
-0.000674272
-0.00063826
-0.000568606
-0.00045512
-0.000295968
-8.97814e-05
0.000164337
0.000466188
0.000814076
0.00120434
0.00163087
0.00208469
0.00255232
0.00301567
0.00345139
0.00383085
0.00412122
0.00430969
0.00430274
-0.000910399
-0.000961339
-0.000926945
-0.000858343
-0.000743421
-0.00057936
-0.000363597
-9.39256e-05
0.000230826
0.000610364
0.00104241
0.00152201
0.00204137
0.00258698
0.00313937
0.0036713
0.00414651
0.00451993
0.00476826
0.00477176
-0.00124844
-0.00130913
-0.00127754
-0.00121171
-0.00109711
-0.000929721
-0.000705487
-0.000420592
-7.21553e-05
0.000341363
0.000819633
0.00135963
0.00195576
0.00259581
0.00326016
0.00391827
0.00452511
0.00501872
0.00535683
0.00538444
-0.00165079
-0.00172369
-0.00169654
-0.001636
-0.00152456
-0.0013567
-0.00112656
-0.000828431
-0.000457413
-9.72741e-06
0.000516872
0.00112224
0.00180437
0.00255458
0.00335575
0.00417628
0.00496273
0.00563222
0.00610728
0.00618845
-0.00212428
-0.00221235
-0.00219164
-0.00213976
-0.00203546
-0.00187137
-0.0016395
-0.00133199
-0.000941741
-0.000462512
0.000110967
0.000782014
0.00155551
0.00242789
0.00338969
0.00441372
0.00544189
0.00637129
0.00705939
0.00726359
-0.00267766
-0.00278416
-0.00277204
-0.00273294
-0.0026409
-0.0024862
-0.00225834
-0.00194714
-0.00154338
-0.00103846
-0.000423648
0.000310953
0.00116933
0.0021659
0.00330438
0.00457205
0.00591729
0.00722945
0.0082574
0.00874763
-0.0033228
-0.0034504
-0.00344877
-0.00342713
-0.00335353
-0.00321503
-0.00299814
-0.00269034
-0.00228078
-0.00175948
-0.00111571
-0.000336365
0.000595072
0.00170215
0.0030138
0.00454909
0.00628861
0.00815014
0.00972742
0.0108781
-0.00408122
-0.00422864
-0.00423617
-0.00423625
-0.00418795
-0.00407324
-0.00387475
-0.00357769
-0.00317055
-0.00264379
-0.00198676
-0.00118346
-0.000205432
0.000962391
0.00239642
0.0041702
0.0063412
0.00894316
0.0113813
0.0141262
-0.00495827
-0.0051382
-0.00515397
-0.0051819
-0.00516477
-0.00507927
-0.00490454
-0.0046237
-0.00422532
-0.00370329
-0.00305345
-0.00226904
-0.00133695
-0.000199254
0.00124117
0.00310243
0.00560044
0.00914654
0.01278
0.0186303
-0.00613026
-0.00615258
-0.00616086
-0.00620395
-0.00624322
-0.00621919
-0.00609181
-0.00583823
-0.00545056
-0.00493305
-0.00429408
-0.00353598
-0.00265066
-0.00158486
-0.000255491
0.00139918
0.00364457
0.00763367
0.0116752
0.0226841
-0.00718156
-0.00772865
-0.00766094
-0.00781614
-0.00785135
-0.00779051
-0.00761344
-0.00731286
-0.00689024
-0.00635493
-0.00573356
-0.00505301
-0.00435974
-0.00369169
-0.00311598
-0.00248485
-0.00210686
0.00166912
0.00461852
0.0244345
-0.0106253
-0.00831454
-0.00833606
-0.00831897
-0.00854985
-0.00871681
-0.00874751
-0.00858413
-0.00823089
-0.00770643
-0.00708028
-0.00639523
-0.00578687
-0.00534669
-0.00539704
-0.00584013
-0.0081632
-0.00562101
-0.00330696
0.0288821
-0.00901789
-0.011985
-0.0116965
-0.0123438
-0.0123425
-0.0121346
-0.01172
-0.0111362
-0.0104314
-0.00961177
-0.00878985
-0.00800449
-0.00745031
-0.00733644
-0.00824435
-0.00985439
-0.0158436
-0.013596
-0.00769449
0.0490322
-0.0323714
-0.00866891
-0.00872076
-0.00900181
-0.00937877
-0.00979006
-0.0100685
-0.010034
-0.0097622
-0.00918359
-0.00862391
-0.00783883
-0.00749321
-0.0070234
-0.00752481
-0.0070233
-0.00551451
0.0104048
0.0517832
0.156032
7.67629e-06
-1.56356e-05
2.25601e-05
9.41222e-05
0.000203411
0.000349404
0.000530259
0.000743459
0.000985405
0.00125139
0.00153528
0.00182952
0.00212508
0.00241169
0.00267808
0.00291253
0.00310335
0.00323988
0.00332114
0.00330807
2.99837e-05
5.21042e-06
4.3319e-05
0.000112475
0.00021828
0.000360094
0.000536372
0.000744885
0.00098234
0.00124422
0.00152459
0.00181598
0.00210966
0.00239532
0.0026616
0.0028966
0.00308836
0.00322605
0.00330965
0.00329547
-1.20342e-05
-4.047e-05
-2.95614e-06
6.55366e-05
0.000171248
0.000313707
0.000491624
0.000703063
0.000945007
0.00121316
0.00150176
0.00180367
0.00210957
0.00240889
0.00268961
0.00293887
0.00314344
0.00329096
0.00338105
0.00336446
-9.30407e-05
-0.000124864
-8.78169e-05
-1.95974e-05
8.68311e-05
0.000231335
0.000413036
0.000630438
0.000880951
0.00116064
0.00146397
0.00178382
0.00211093
0.00243393
0.00273967
0.00301368
0.00324065
0.00340567
0.00350742
0.00348991
-0.000219008
-0.000254892
-0.000218238
-0.000149848
-4.16996e-05
0.000106536
0.000294534
0.000521396
0.000785116
0.00108228
0.00140773
0.00175445
0.00211298
0.00247127
0.00281465
0.00312633
0.00338778
0.00358012
0.00370018
0.00368263
-0.000391975
-0.000433008
-0.000396862
-0.00032823
-0.000217829
-6.47228e-05
0.000131496
0.000370726
0.000651752
0.000971893
0.00132661
0.00170919
0.00211021
0.00251677
0.00291249
0.00327749
0.00358874
0.00382138
0.0039689
0.00395243
-0.000614612
-0.000662182
-0.000626959
-0.000558524
-0.000445987
-0.00028763
-8.20916e-05
0.000171569
0.000473204
0.000821174
0.00121188
0.00163927
0.00209437
0.00256369
0.00302905
0.00346688
0.00384808
0.00413899
0.00432718
0.00431452
-0.000890507
-0.000946358
-0.000912855
-0.000845689
-0.000731936
-0.000568889
-0.00035397
-8.49084e-05
0.000239536
0.00061915
0.00105174
0.00153247
0.00205355
0.00260154
0.0031569
0.00369214
0.00417038
0.00454539
0.00479405
0.00479099
-0.00122401
-0.0012903
-0.00125977
-0.00119571
-0.00108264
-0.000916623
-0.000693561
-0.000409544
-6.15937e-05
0.000351935
0.000830832
0.00137225
0.00197071
0.00261412
0.00328288
0.0039462
0.00455831
0.0050556
0.00539542
0.0054153
-0.00162026
-0.00169967
-0.00167385
-0.00161563
-0.0015063
-0.0013404
-0.00111199
-0.000815198
-0.000444998
2.52471e-06
0.000529765
0.00113678
0.00182202
0.00257688
0.00338447
0.00421313
0.00500857
0.00568581
0.00616553
0.00623978
-0.00208541
-0.00218114
-0.00216227
-0.0021136
-0.00201239
-0.00185125
-0.00162201
-0.00131661
-0.000927768
-0.000449046
0.000125093
0.000798583
0.00157527
0.00245365
0.00342446
0.00446077
0.00550388
0.00644853
0.00714724
0.00735123
-0.00262702
-0.00274279
-0.0027334
-0.00269901
-0.00261171
-0.0024616
-0.00223787
-0.00193004
-0.00152869
-0.001025
-0.000410107
0.000325779
0.00118868
0.00219294
0.0033434
0.0046286
0.00599748
0.00733788
0.00838834
0.00890017
-0.00325501
-0.00339419
-0.00339691
-0.00338264
-0.00331656
-0.00318537
-0.00297504
-0.00267264
-0.00226707
-0.00174822
-0.00110536
-0.000324793
0.000610507
0.00172611
0.00305172
0.0046095
0.00638352
0.00829322
0.00991522
0.0111441
-0.00398736
-0.00415008
-0.00416482
-0.00417697
-0.00414103
-0.00403819
-0.00385023
-0.00356174
-0.00316104
-0.00263853
-0.00198412
-0.00118086
-0.000201211
0.000973916
0.00242007
0.00421667
0.00643021
0.00910582
0.0116316
0.0145857
-0.00482363
-0.00502645
-0.00505423
-0.00510287
-0.00510619
-0.00503981
-0.0048817
-0.00461401
-0.00422552
-0.00371004
-0.00306418
-0.00228183
-0.00134887
-0.000213165
0.00122852
0.00309386
0.00562035
0.00926343
0.0130352
0.0192955
-0.00592838
-0.00597444
-0.00600616
-0.0060832
-0.00615966
-0.00617032
-0.00607282
-0.00584128
-0.00546898
-0.00496053
-0.00432653
-0.00357151
-0.00269017
-0.00163232
-0.000321594
0.0012848
0.00345736
0.00745366
0.0115159
0.0231236
-0.00686197
-0.00748019
-0.00744791
-0.0076733
-0.00776828
-0.00776029
-0.00762687
-0.00735625
-0.00695213
-0.00642604
-0.00580908
-0.00513241
-0.00445123
-0.00381748
-0.00332562
-0.00286353
-0.00285991
0.000576633
0.00337732
0.0239731
-0.0101874
-0.00793228
-0.00799518
-0.00806698
-0.00840121
-0.00865924
-0.00876356
-0.00865283
-0.0083322
-0.00782191
-0.00720086
-0.00651535
-0.00592193
-0.00552742
-0.0057253
-0.00644286
-0.00946488
-0.00774557
-0.00517254
0.0282322
-0.00799531
-0.0112305
-0.0111184
-0.011971
-0.0121783
-0.0121513
-0.0118644
-0.0113502
-0.0106773
-0.00985471
-0.00901647
-0.00820975
-0.0076515
-0.00758549
-0.00868525
-0.0106317
-0.0174296
-0.0157698
-0.00715934
0.0510537
-0.0314928
-0.00784088
-0.00800736
-0.00851805
-0.00912268
-0.00970679
-0.0101001
-0.0101381
-0.00991314
-0.00933605
-0.00878077
-0.00797466
-0.00766791
-0.00724949
-0.00791038
-0.00756924
-0.00575126
0.0109553
0.057301
0.165162
1.189e-05
-1.30215e-05
2.46304e-05
9.57026e-05
0.000204747
0.000350687
0.000531649
0.000745104
0.000987492
0.00125405
0.00153863
0.00183365
0.00213007
0.00241757
0.0026848
0.00291993
0.00311112
0.00324753
0.00332842
0.00331358
3.59414e-05
9.63768e-06
4.72076e-05
0.000115768
0.000221173
0.000362737
0.000538898
0.000747424
0.000985034
0.00124721
0.00152802
0.00181995
0.00211428
0.00240063
0.00266757
0.00290311
0.00309512
0.00323262
0.00331583
0.00329972
-4.92148e-06
-3.49953e-05
1.95169e-06
6.97855e-05
0.000175019
0.000317141
0.00049485
0.000706212
0.000948223
0.00121659
0.00150556
0.00180799
0.00211453
0.00241456
0.00269598
0.00294582
0.00315068
0.00329803
0.00338772
0.0033689
-8.44386e-05
-0.000118012
-8.1579e-05
-1.4102e-05
9.17551e-05
0.00023582
0.000417205
0.000634427
0.000884913
0.00116474
0.0014684
0.00178877
0.00211655
0.00244033
0.00274688
0.0030216
0.00324898
0.00341388
0.00351524
0.00349526
-0.000208723
-0.000246492
-0.000210513
-0.000142963
-3.54867e-05
0.000112206
0.000299789
0.000526385
0.000790014
0.00108729
0.00141308
0.00176037
0.0021197
0.00247894
0.00282338
0.00313604
0.00339815
0.00359053
0.00371027
0.00368994
-0.000379652
-0.000422739
-0.000387348
-0.000319678
-0.000210076
-5.76396e-05
0.000138048
0.000376916
0.000657789
0.000978026
0.00133312
0.00171641
0.00211844
0.00252628
0.00292346
0.00328991
0.00360229
0.0038353
0.00398271
0.00396323
-0.000599709
-0.000649546
-0.000615188
-0.000547888
-0.000436331
-0.000278825
-7.39829e-05
0.000179183
0.000480581
0.00082863
0.00121979
0.00164807
0.0021045
0.00257558
0.00304304
0.0034831
0.00386623
0.00415818
0.00434671
0.00433074
-0.000872261
-0.000930645
-0.000898175
-0.000832401
-0.0007199
-0.00055798
-0.000344011
-7.5654e-05
0.000248412
0.000628057
0.00106117
0.00154303
0.00206586
0.0026163
0.00317472
0.00371341
0.00419497
0.00457227
0.0048222
0.00481579
-0.00120135
-0.00127052
-0.00124128
-0.00117901
-0.00106761
-0.000903156
-0.000681449
-0.000398478
-5.11542e-05
0.000362281
0.000841741
0.00138452
0.00198528
0.00263205
0.00330524
0.00397389
0.0045916
0.00509351
0.00543642
0.00545366
-0.00159168
-0.00167441
-0.0016503
-0.00159448
-0.0014875
-0.00132386
-0.00109744
-0.000802251
-0.0004331
1.40706e-05
0.000541817
0.00115039
0.00183852
0.00259784
0.0034117
0.00424842
0.00505313
0.00573919
0.00622557
0.00629993
-0.00204872
-0.00214838
-0.00213188
-0.0020866
-0.00198883
-0.00183104
-0.00160483
-0.00130191
-0.000914812
-0.000436922
0.000137498
0.000812638
0.00159263
0.00247661
0.00345592
0.004504
0.00556192
0.00652283
0.00723512
0.00744702
-0.00257899
-0.00269957
-0.00269364
-0.00266425
-0.00258213
-0.00243712
-0.00221802
-0.00191406
-0.00151556
-0.00101353
-0.000398905
0.000338318
0.00120457
0.00221522
0.00337633
0.00467768
0.00606911
0.00743806
0.0085159
0.00905484
-0.00319074
-0.00333606
-0.00334407
-0.00333743
-0.00327936
-0.00315604
-0.00295286
-0.00265644
-0.00225542
-0.00173953
-0.00109782
-0.000316893
0.000620876
0.00174246
0.00307951
0.00465691
0.00646257
0.00841913
0.0100936
0.0113994
-0.00389892
-0.00407021
-0.00409326
-0.00411746
-0.00409415
-0.00400362
-0.00382671
-0.00354741
-0.00315375
-0.00263634
-0.00198488
-0.00118293
-0.000202598
0.000974875
0.00242964
0.0042445
0.006495
0.00923885
0.0118627
0.0150064
-0.00469947
-0.00491518
-0.00495605
-0.00502426
-0.00504765
-0.00500044
-0.00485923
-0.00460543
-0.00422766
-0.00372019
-0.00308023
-0.00230273
-0.00137499
-0.000244693
0.00119454
0.003059
0.00560611
0.00933461
0.0132705
0.019918
-0.00574726
-0.00580889
-0.00586221
-0.00596977
-0.00607955
-0.00612232
-0.00605302
-0.00584367
-0.00548771
-0.00499062
-0.00436497
-0.00361772
-0.0027469
-0.0017032
-0.000408435
0.00113848
0.00325217
0.00726652
0.0114845
0.0237069
-0.00659551
-0.00726187
-0.00726009
-0.00754344
-0.00768852
-0.00772689
-0.00763009
-0.00738721
-0.00700274
-0.00648966
-0.00588273
-0.00521734
-0.00455761
-0.00396938
-0.00357587
-0.0032554
-0.00354892
-0.000329511
0.00254435
0.0240697
-0.00980515
-0.0075888
-0.00769861
-0.00784434
-0.00825863
-0.00859257
-0.00876017
-0.00869705
-0.00840846
-0.00791632
-0.00730691
-0.00663174
-0.00606511
-0.00572897
-0.0060656
-0.00702912
-0.0105577
-0.00940644
-0.00677658
0.0281237
-0.00736226
-0.0107733
-0.0107195
-0.0117306
-0.0120572
-0.0121385
-0.0119344
-0.0114768
-0.0108361
-0.0100231
-0.00918557
-0.00837689
-0.00783384
-0.00782922
-0.00909004
-0.0113394
-0.0187453
-0.0175354
-0.00793713
0.052803
-0.030723
-0.00711629
-0.00739361
-0.00807249
-0.00885282
-0.00958379
-0.0100891
-0.0102069
-0.0100286
-0.00946763
-0.00892506
-0.00811833
-0.00784117
-0.00747599
-0.00824571
-0.00804958
-0.0062858
0.0107031
0.058835
0.170587
1.6105e-05
-9.37508e-06
2.79391e-05
9.86463e-05
0.000207429
0.000353217
0.000534137
0.000747666
0.00099025
0.00125712
0.00154213
0.00183768
0.00213471
0.00242285
0.00269068
0.00292629
0.00311776
0.0032542
0.00333495
0.00331946
4.09399e-05
1.40162e-05
5.12361e-05
0.000119386
0.00022447
0.000365811
0.00054185
0.000750364
0.000988078
0.00125048
0.00153163
0.00182402
0.00211887
0.0024058
0.0026733
0.00290929
0.00310157
0.00323909
0.00332219
0.00330544
9.09511e-07
-2.98311e-05
6.73772e-06
7.41135e-05
0.000178972
0.00032081
0.000498334
0.000709624
0.000951686
0.00122024
0.00150953
0.00181241
0.0021195
0.00242014
0.00270218
0.00295255
0.00315776
0.00330516
0.00339477
0.00337526
-7.74265e-05
-0.00011172
-7.57098e-05
-8.75974e-06
9.66446e-05
0.000240341
0.000421457
0.000638528
0.000889
0.00116897
0.00147293
0.00179377
0.00212216
0.00244665
0.00275395
0.00302935
0.00325722
0.00342229
0.00352363
0.00350291
-0.000200258
-0.000238817
-0.000203318
-0.000136383
-2.94564e-05
0.000117767
0.000304983
0.000531343
0.000794895
0.00109227
0.00141838
0.00176621
0.00212627
0.00248642
0.00283184
0.00314545
0.00340833
0.0036011
0.00372098
0.00369986
-0.000369365
-0.000413332
-0.000378501
-0.000311565
-0.000202643
-5.0812e-05
0.00014438
0.000382904
0.000663624
0.000983939
0.00133938
0.00172331
0.00212627
0.00253531
0.00293386
0.00330172
0.00361534
0.00384914
0.00399698
0.00397673
-0.000587096
-0.000637926
-0.000604245
-0.00053785
-0.000427162
-0.000270457
-6.62962e-05
0.000186366
0.000487498
0.000835576
0.00122711
0.00165618
0.00211381
0.00258651
0.00305593
0.00349812
0.00388327
0.00417671
0.00436621
0.00434958
-0.000856631
-0.000916155
-0.000884534
-0.000819918
-0.000708571
-0.000547748
-0.000334745
-6.71388e-05
0.000256475
0.000636047
0.00106955
0.00155234
0.00207673
0.00262936
0.00319057
0.00373248
0.00421731
0.00459733
0.00484921
0.00484248
-0.00118175
-0.00125226
-0.00122413
-0.0011634
-0.00105359
-0.000890687
-0.000670385
-0.000388553
-4.19926e-05
0.000371166
0.000850951
0.00139478
0.00199748
0.00264715
0.00332426
0.00399772
0.0046207
0.00512743
0.00547407
0.00549192
-0.00156679
-0.00165112
-0.00162852
-0.00157483
-0.00147011
-0.00130872
-0.00108439
-0.000790949
-0.000423077
2.34324e-05
0.000551286
0.00116091
0.0018513
0.00261431
0.00343351
0.00427723
0.00509022
0.00578471
0.00627804
0.00635537
-0.00201668
-0.00211831
-0.00210395
-0.00206171
-0.00196722
-0.00181275
-0.00158966
-0.00128945
-0.000904448
-0.00042788
0.000146175
0.000822087
0.00160447
0.00249277
0.00347891
0.00453679
0.00560734
0.00658263
0.00730779
0.00752822
-0.00253713
-0.00266022
-0.00265742
-0.00263246
-0.0025552
-0.00241515
-0.00220074
-0.00190092
-0.00150578
-0.00100616
-0.000392787
0.000344634
0.00121269
0.00222767
0.00339676
0.00471089
0.0061207
0.0075132
0.00861495
0.00917481
-0.00313524
-0.00328388
-0.00329653
-0.00329649
-0.0032457
-0.0031298
-0.00293366
-0.00264351
-0.00224772
-0.00173594
-0.00109705
-0.000317465
0.000620722
0.00174522
0.00309006
0.00468227
0.00651284
0.00850596
0.0102226
0.0115778
-0.00382409
-0.00400006
-0.00403005
-0.00406422
-0.00405187
-0.00397246
-0.00380605
-0.00353609
-0.00315029
-0.00263909
-0.00199244
-0.00119396
-0.000215066
0.000960805
0.00241902
0.00424667
0.00652644
0.00932142
0.0120188
0.0152679
-0.00459798
-0.00482024
-0.00487131
-0.00495466
-0.00499445
-0.00496376
-0.00483798
-0.00459776
-0.00423125
-0.00373297
-0.0031008
-0.00233079
-0.00141218
-0.000291059
0.00114273
0.00300881
0.005577
0.00936634
0.0134268
0.0202732
-0.00560632
-0.0056755
-0.00574381
-0.00587348
-0.00600833
-0.0060765
-0.00603062
-0.00584163
-0.00550182
-0.00501739
-0.00440242
-0.00366581
-0.00280771
-0.00177688
-0.000481756
0.00102202
0.00312166
0.00715487
0.0115211
0.024051
-0.00640737
-0.00709279
-0.00710907
-0.00742829
-0.00760791
-0.00768056
-0.007615
-0.00739832
-0.00703434
-0.00653687
-0.00594317
-0.00529214
-0.00465395
-0.00410388
-0.00379075
-0.00353028
-0.00387666
-0.00082802
0.00222421
0.0241923
-0.0095492
-0.00734574
-0.00748076
-0.00766879
-0.00813348
-0.00851878
-0.00873341
-0.00870956
-0.00845082
-0.00797957
-0.00738643
-0.00672712
-0.0061869
-0.00589754
-0.00632755
-0.00745544
-0.0113493
-0.0103585
-0.00747189
0.028062
-0.00705309
-0.0104932
-0.0104455
-0.0115214
-0.0119105
-0.0120624
-0.0119231
-0.0115143
-0.0109079
-0.0101156
-0.00929222
-0.00849611
-0.00797689
-0.00802696
-0.0094004
-0.0118514
-0.0195981
-0.0185949
-0.00838841
0.0535172
-0.0303192
-0.00670457
-0.00702359
-0.00777584
-0.00864826
-0.00947056
-0.0100516
-0.0102251
-0.0100873
-0.00955001
-0.00902488
-0.00823073
-0.0079817
-0.00766637
-0.00851941
-0.00843817
-0.00673876
0.0103884
0.0594284
0.172625
2.00197e-05
-5.73338e-06
3.13407e-05
0.000101778
0.000210342
0.000355981
0.000536836
0.00075039
0.000993098
0.00126019
0.00154552
0.00184147
0.00213895
0.00242757
0.00269587
0.00293187
0.00312361
0.00326014
0.00334088
0.00332514
4.52689e-05
1.80708e-05
5.50443e-05
0.000122904
0.00022774
0.000368895
0.000544826
0.000753321
0.000991114
0.0012537
0.00153514
0.00182789
0.00212319
0.00241059
0.00267856
0.00291496
0.00310752
0.00324514
0.00332824
0.00331123
5.88147e-06
-2.51522e-05
1.11482e-05
7.81987e-05
0.000182767
0.000324373
0.000501741
0.000712967
0.00095507
0.00122378
0.00151334
0.0018166
0.00212416
0.00242533
0.00270791
0.00295877
0.00316432
0.00331189
0.00340154
0.00338175
-7.15055e-05
-0.000106118
-7.04119e-05
-3.84201e-06
0.000101208
0.000244602
0.000425493
0.000642437
0.000892899
0.00117299
0.00147722
0.00179846
0.00212739
0.00245252
0.00276048
0.00303652
0.00326488
0.00343024
0.00353171
0.0035107
-0.000193109
-0.00023202
-0.000196878
-0.000130399
-2.39154e-05
0.000122913
0.000309814
0.000535968
0.000799451
0.00109693
0.00142331
0.0017716
0.00213232
0.00249326
0.00283958
0.00315408
0.00341772
0.00361099
0.00373116
0.00370979
-0.000360646
-0.000405006
-0.000370607
-0.000304236
-0.00019588
-4.45747e-05
0.000150176
0.000388384
0.000668956
0.000989328
0.00134506
0.00172955
0.00213333
0.00254342
0.00294321
0.00331236
0.00362717
0.00386187
0.00401028
0.00398987
-0.000576356
-0.000627635
-0.000594496
-0.000528822
-0.000418881
-0.000262893
-5.93599e-05
0.000192824
0.000493684
0.000841751
0.00123359
0.00166331
0.00212198
0.00259609
0.00306724
0.00351135
0.00389839
0.00419337
0.00438395
0.00436734
-0.000843268
-0.000903322
-0.000872404
-0.00080874
-0.000698408
-0.000538589
-0.000326494
-5.96169e-05
0.000263524
0.000642957
0.00107673
0.00156027
0.00208595
0.00264044
0.00320407
0.00374881
0.00423661
0.00461925
0.00487309
0.00486679
-0.00116495
-0.0012361
-0.00120892
-0.00114948
-0.0010411
-0.000879624
-0.000660655
-0.000379943
-3.41815e-05
0.000378602
0.00085854
0.00140316
0.0020074
0.00265947
0.00333988
0.00401745
0.00464502
0.00515614
0.00550627
0.00552545
-0.00154545
-0.00163058
-0.00160929
-0.00155742
-0.00145472
-0.0012954
-0.00107305
-0.000781319
-0.00041476
3.09663e-05
0.000558694
0.001169
0.00186111
0.00262705
0.00345058
0.00430011
0.00512007
0.00582181
0.0063213
0.00640183
-0.00198928
-0.00209194
-0.00207944
-0.00203978
-0.00194821
-0.00179678
-0.00157662
-0.001279
-0.000896102
-0.000420986
0.000152401
0.000828571
0.00161264
0.00250419
0.00349569
0.00456143
0.00564227
0.00662935
0.00736527
0.00759284
-0.00250158
-0.00262604
-0.0026259
-0.00260467
-0.00253166
-0.00239605
-0.00218596
-0.00189004
-0.00149818
-0.00100103
-0.000389211
0.000347888
0.00121679
0.00223465
0.00340963
0.00473381
0.00615821
0.00756926
0.00868996
0.00926486
-0.0030887
-0.00323918
-0.00325567
-0.00326104
-0.00321643
-0.00310702
-0.00291719
-0.00263281
-0.002242
-0.0017342
-0.00109837
-0.000320735
0.000616844
0.0017425
0.00309237
0.00469638
0.00654647
0.00856761
0.0103164
0.0117041
-0.00376259
-0.00394117
-0.00397668
-0.00401871
-0.00401533
-0.00394531
-0.00378804
-0.00352641
-0.00314789
-0.00264287
-0.0020014
-0.00120706
-0.000230489
0.000941135
0.00239943
0.00423918
0.00654297
0.00937673
0.0121284
0.0154435
-0.00451686
-0.00474261
-0.00480137
-0.00489605
-0.00494869
-0.0049314
-0.0048186
-0.0045902
-0.00423403
-0.00374471
-0.00312065
-0.00235901
-0.00145156
-0.000343543
0.00107414
0.00295473
0.00554573
0.0093836
0.0135343
0.0205034
-0.00549775
-0.00557101
-0.0056499
-0.00579527
-0.00594866
-0.00603632
-0.00600924
-0.00583693
-0.0055114
-0.00503905
-0.00443505
-0.00370987
-0.0028661
-0.00185721
-0.000628046
0.000912513
0.00301553
0.00708016
0.0115621
0.0242841
-0.0062706
-0.00696477
-0.00699259
-0.00733454
-0.00753839
-0.00763648
-0.00759502
-0.00739945
-0.00705339
-0.00657094
-0.00599087
-0.00535419
-0.00473368
-0.00420311
-0.00388211
-0.00372676
-0.00413962
-0.00113732
0.00205065
0.0243124
-0.00936601
-0.00716798
-0.00732039
-0.00753487
-0.00803269
-0.00845368
-0.0087029
-0.00870903
-0.00847478
-0.00802271
-0.00744598
-0.00680313
-0.0062855
-0.00602845
-0.0065111
-0.00775112
-0.0118305
-0.0109367
-0.00789704
0.0280437
-0.00686408
-0.0103086
-0.0102576
-0.0113656
-0.0117927
-0.01199
-0.0118933
-0.0115206
-0.010943
-0.0101716
-0.00936499
-0.00858511
-0.00808969
-0.00818236
-0.00963358
-0.012213
-0.0201679
-0.019268
-0.00881705
0.0538145
-0.0300578
-0.00643259
-0.00677159
-0.00756259
-0.00848853
-0.00936853
-0.0100033
-0.0102209
-0.0101176
-0.00960354
-0.00909714
-0.00831918
-0.00809626
-0.0078193
-0.00873745
-0.00873121
-0.00711816
0.0100664
0.0594241
0.173522
2.34299e-05
-2.44162e-06
3.44759e-05
0.000104728
0.000213122
0.000358633
0.000539414
0.000752964
0.000995742
0.00126298
0.00154853
0.00184478
0.00214262
0.00243162
0.00270028
0.00293661
0.00312858
0.00326524
0.00334603
0.00333022
4.89185e-05
2.15955e-05
5.84045e-05
0.000126066
0.000230718
0.000371726
0.000547565
0.000756036
0.00099388
0.0012566
0.00153826
0.0018313
0.00212695
0.00241475
0.0026831
0.00291984
0.00311266
0.00325044
0.0033336
0.00331652
1.0015e-05
-2.11518e-05
1.49658e-05
8.17908e-05
0.000186142
0.000327567
0.000504808
0.000715977
0.000958107
0.00122693
0.00151671
0.00182028
0.00212822
0.00242983
0.00271286
0.00296413
0.00317002
0.00331781
0.00340756
0.00338771
-6.66303e-05
-0.000101389
-6.58966e-05
4.03645e-07
0.000105185
0.000248341
0.00042905
0.000645888
0.00089634
0.00117653
0.00148097
0.00180256
0.00213193
0.00245758
0.00276611
0.0030427
0.00327153
0.00343721
0.00353887
0.00351783
-0.000187239
-0.000226316
-0.000191432
-0.000125286
-1.91458e-05
0.000127364
0.000314004
0.000539984
0.000803406
0.00110095
0.00142755
0.00177624
0.00213749
0.00249911
0.00284618
0.00316145
0.00342578
0.00361958
0.00374009
0.00371874
-0.00035348
-0.000398033
-0.000363957
-0.000298011
-0.000190107
-3.92351e-05
0.000155142
0.000393075
0.00067351
0.000993913
0.00134987
0.00173481
0.00213926
0.00255023
0.00295105
0.00332132
0.00363718
0.00387273
0.00402174
0.00400145
-0.000567515
-0.000619026
-0.000586303
-0.000521188
-0.000411856
-0.000256473
-5.34809e-05
0.000198278
0.00049888
0.000846907
0.00123896
0.0016692
0.0021287
0.00260397
0.00307655
0.00352227
0.00391092