/*--------------------------------*- C++ -*----------------------------------*\
  =========                 |
  \\      /  F ield         | OpenFOAM: The Open Source CFD Toolbox
   \\    /   O peration     | Website:  https://openfoam.org
    \\  /    A nd           | Version:  10
     \\/     M anipulation  |
\*---------------------------------------------------------------------------*/
FoamFile
{
    format      ascii;
    class       surfaceScalarField;
    location    "8.05";
    object      phi;
}
// * * * * * * * * * * * * * * * * * * * * * * * * * * * * * * * * * * * * * //

dimensions      [0 3 -1 0 0 0 0];

internalField   nonuniform List<scalar> 
760
(
-1.21366e-05
1.21366e-05
-3.91302e-05
2.69937e-05
-7.15689e-05
3.24386e-05
-0.000105671
3.41024e-05
-0.000140235
3.45633e-05
-0.000174887
3.46523e-05
-0.00020926
3.43735e-05
-0.000242686
3.3426e-05
-0.000274064
3.13771e-05
-0.000301762
2.76987e-05
-0.00032356
2.17976e-05
-0.000336636
1.30766e-05
-0.000337712
1.07525e-06
-0.000323343
-1.43687e-05
-0.000290834
-3.25091e-05
-0.000239391
-5.14433e-05
-0.000171903
-6.7488e-05
-9.68836e-05
-7.50189e-05
-3.00658e-05
-6.68178e-05
-3.00658e-05
-2.89345e-05
4.10711e-05
-8.16564e-05
7.97156e-05
-0.000143118
9.39e-05
-0.000207067
9.80519e-05
-0.000271085
9.85806e-05
-0.000334016
9.75839e-05
-0.000394804
9.51613e-05
-0.000452027
9.06494e-05
-0.000503693
8.30427e-05
-0.0005471
7.11061e-05
-0.00057877
5.34676e-05
-0.000594404
2.87106e-05
-0.00058961
-3.71938e-06
-0.000559302
-4.46766e-05
-0.000499991
-9.18195e-05
-0.000410987
-0.000140447
-0.000297007
-0.000181469
-0.00017133
-0.000200696
-5.8033e-05
-0.000180115
-8.80988e-05
-3.65496e-05
7.76206e-05
-0.000101215
0.000144381
-0.000175778
0.000168462
-0.000252788
0.000175062
-0.000329399
0.000175193
-0.000404244
0.000172429
-0.000476103
0.00016702
-0.000543413
0.000157959
-0.00060403
0.00014366
-0.000655055
0.000122131
-0.000692702
9.11155e-05
-0.000712391
4.8399e-05
-0.000708398
-7.71188e-06
-0.000674646
-7.84286e-05
-0.000606042
-0.000160423
-0.000500459
-0.000246031
-0.000362433
-0.000319495
-0.000208101
-0.000355027
-6.88878e-05
-0.000319328
-0.000156987
-3.94626e-05
0.000117083
-0.000109336
0.000214255
-0.000189661
0.000248788
-0.000272486
0.000257886
-0.000354956
0.000257662
-0.000435839
0.000253312
-0.000514114
0.000245295
-0.000588456
0.000232301
-0.00065697
0.000212174
-0.000716937
0.000182098
-0.000764521
0.000138699
-0.000794513
7.83907e-05
-0.000800615
-1.60955e-06
-0.000773943
-0.0001051
-0.000706194
-0.000228173
-0.00059125
-0.000360975
-0.000431006
-0.000479739
-0.000244785
-0.000541248
-7.61751e-05
-0.000487938
-0.000233162
-4.03266e-05
0.00015741
-0.000112522
0.00028645
-0.000195704
0.00033197
-0.000281712
0.000343894
-0.000367865
0.000343815
-0.000453274
0.000338721
-0.000537359
0.00032938
-0.000619315
0.000314257
-0.000697803
0.000290662
-0.000770596
0.000254891
-0.000834102
0.000202206
-0.000882728
0.000127017
-0.00090824
2.39029e-05
-0.000899596
-0.000113745
-0.000842321
-0.000285448
-0.000722902
-0.000480394
-0.000536069
-0.000666572
-0.000301485
-0.000775832
-8.57487e-05
-0.000703674
-0.00031891
-4.04156e-05
0.000197825
-0.000113848
0.000359883
-0.000198874
0.000416996
-0.000287213
0.000432234
-0.000376446
0.000433048
-0.000466159
0.000428434
-0.000556411
0.000419632
-0.00064719
0.000405036
-0.000738073
0.000381545
-0.000827787
0.000344604
-0.000913521
0.00028794
-0.000989894
0.000203389
-0.00104744
8.14474e-05
-0.00107223
-8.89531e-05
-0.0010421
-0.00031558
-0.000930749
-0.000591742
-0.000715321
-0.000882001
-0.000404329
-0.00108682
-0.000105089
-0.00100291
-0.000423999
-4.01761e-05
0.000238002
-0.000114417
0.000434124
-0.000200856
0.000503434
-0.00029109
0.000522467
-0.000382986
0.000524944
-0.000476709
0.000522156
-0.000573134
0.000516058
-0.000673336
0.000505238
-0.000778279
0.000486488
-0.000888346
0.000454672
-0.00100253
0.000402121
-0.00111704
0.000317898
-0.00122301
0.000187422
-0.00130686
-5.10569e-06
-0.00133677
-0.000285671
-0.00126772
-0.000660785
-0.00103647
-0.00111326
-0.000609415
-0.00151388
-0.000157544
-0.00145479
-0.000581543
-3.97125e-05
0.000277714
-0.000114497
0.000508908
-0.000201966
0.000590904
-0.000293513
0.000614015
-0.000387283
0.000618714
-0.000484057
0.000618929
-0.000585671
0.000617671
-0.00069458
0.000614147
-0.000813671
0.000605579
-0.000945962
0.000586963
-0.00109394
0.0005501
-0.00125825
0.00048221
-0.00143548
0.000364645
-0.00161276
0.000172181
-0.00176404
-0.000134389
-0.00180735
-0.000617481
-0.00159656
-0.00132405
-0.00101067
-0.00209977
-0.000301295
-0.00216416
-0.000882838
-3.90782e-05
0.000316792
-0.000114188
0.000584018
-0.000202199
0.000678915
-0.000294158
0.000705974
-0.000388421
0.000712977
-0.000486367
0.000716876
-0.000590821
0.000722125
-0.000705762
0.000729088
-0.000836443
0.00073626
-0.000989517
0.000740036
-0.00117295
0.000733536
-0.00139574
0.000704998
-0.00166712
0.000636023
-0.00199024
0.000495303
-0.00233765
0.000213024
-0.00257762
-0.000377514
-0.00242066
-0.00148101
-0.00166583
-0.0028546
-0.000629189
-0.0032008
-0.00151203
-3.84357e-05
0.000355228
-0.000113792
0.000659374
-0.000201788
0.000766911
-0.000292931
0.000797117
-0.000385674
0.00080572
-0.000481889
0.000813091
-0.00058526
0.000825496
-0.000701187
0.000845016
-0.000837302
0.000872375
-0.00100437
0.000907109
-0.00121772
0.000946877
-0.0014991
0.000986379
-0.00187741
0.00101433
-0.00237608
0.000993981
-0.0029473
0.000784242
-0.00336792
4.3109e-05
-0.00326702
-0.00158191
-0.00246565
-0.00365597
-0.00120054
-0.0044659
-0.00271257
-3.817e-05
0.000393398
-0.000114057
0.000735262
-0.000201558
0.000854412
-0.000290445
0.000886004
-0.000379114
0.000894388
-0.000469736
0.000903713
-0.000566517
0.000922277
-0.000675741
0.00095424
-0.000806726
0.00100336
-0.000973577
0.00107396
-0.00119818
0.00117148
-0.00151406
0.00130226
-0.00196427
0.00146454
-0.00257082
0.00160054
-0.0032431
0.00145652
-0.00370044
0.000500447
-0.00365816
-0.00162419
-0.00305454
-0.00425959
-0.00181376
-0.00570669
-0.00452633
-3.90786e-05
0.000432476
-0.000116506
0.000812689
-0.000203274
0.000941179
-0.000288353
0.000971084
-0.000370072
0.000976107
-0.000450667
0.000984308
-0.000534314
0.00100592
-0.000627171
0.0010471
-0.000738518
0.00111471
-0.000882732
0.00121817
-0.0010823
0.00137105
-0.00137005
0.00159001
-0.0017815
0.001876
-0.00231019
0.00212923
-0.00284917
0.00199549
-0.00319193
0.000843208
-0.00323034
-0.00158579
-0.00292882
-0.0045611
-0.00192883
-0.00670668
-0.00645515
-4.22507e-05
0.000474727
-0.000123231
0.00089367
-0.000209666
0.00102761
-0.000289762
0.00105118
-0.000361713
0.00104806
-0.000427643
0.00105024
-0.000491199
0.00106948
-0.000556943
0.00111284
-0.00063141
0.00118917
-0.000724256
0.00131102
-0.000849504
0.00149629
-0.00102326
0.00176376
-0.00125784
0.00211058
-0.00152855
0.00239994
-0.00178402
0.00225096
-0.00194768
0.00100687
-0.00206004
-0.00147342
-0.00209354
-0.00452761
-0.00154936
-0.00725086
-0.00800451
-5.13376e-05
0.000526065
-0.000139976
0.000982308
-0.000225864
0.0011135
-0.000298299
0.00112361
-0.00035731
0.00110707
-0.000405118
0.00109805
-0.000443637
0.001108
-0.000474986
0.00114419
-0.000501319
0.00121551
-0.000524663
0.00133436
-0.000546617
0.00151825
-0.000562108
0.00177925
-0.000564326
0.0021128
-0.000533369
0.00236898
-0.000499677
0.00221727
-0.000513477
0.00102067
-0.000686289
-0.0013006
-0.00107541
-0.00413849
-0.00103922
-0.00728705
-0.00904373
-6.29398e-05
0.000589005
-0.000163057
0.00108243
-0.000253035
0.00120348
-0.000322566
0.00119314
-0.00036942
0.00115392
-0.000396703
0.00112533
-0.000406466
0.00111776
-0.000398979
0.0011367
-0.000372389
0.00118892
-0.000321609
0.00128358
-0.000237609
0.00143425
-0.000101322
0.00164297
0.000107546
0.00190393
0.000379332
0.0020972
0.000647732
0.00194887
0.000711935
0.000956463
0.000430033
-0.0010187
-0.000276015
-0.00343244
-0.000626326
-0.00693674
-0.00967006
-0.000130549
0.000719554
-0.000245173
0.00119705
-0.00031997
0.00127828
-0.000363246
0.00123642
-0.000385046
0.00117572
-0.000388775
0.00112906
-0.000372874
0.00110186
-0.000332984
0.00109681
-0.000262629
0.00111856
-0.0001516
0.00117255
1.54757e-05
0.00126717
0.000252957
0.00140549
0.000583534
0.00157335
0.000995563
0.00168517
0.00138105
0.00156338
0.00150169
0.000835814
0.00115992
-0.000676925
0.000304078
-0.0025766
-0.000271822
-0.00636084
-0.00994188
-8.44026e-05
0.000803956
-0.000264229
0.00137688
-0.00037918
0.00139323
-0.000436837
0.00129408
-0.000453225
0.00119211
-0.000438518
0.00111435
-0.000395239
0.00105858
-0.000320707
0.00102228
-0.000208885
0.00100674
-4.79863e-05
0.00101166
0.000174713
0.00104447
0.000476947
0.00110325
0.000867786
0.00118251
0.00132986
0.00122309
0.001757
0.00113625
0.00190348
0.000689329
0.00154566
-0.000319098
0.000723156
-0.0017541
0.00011954
-0.00575723
-0.00982234
-0.000379983
0.00118394
-0.000440032
0.00143692
-0.00049196
0.00144516
-0.000532946
0.00133507
-0.000526805
0.00118597
-0.000479502
0.00106705
-0.000394839
0.000973919
-0.000271109
0.000898552
-0.00010874
0.00084437
0.000100024
0.000802892
0.000360403
0.000784092
0.000685487
0.000778169
0.00107344
0.000794559
0.00149718
0.000799347
0.00189818
0.000735248
0.00208605
0.000501465
0.0019856
-0.000218653
0.0015669
-0.00133539
0.000870353
-0.00506068
-0.00895198
-0.00136251
0.00254645
-0.00132622
0.00140063
-0.00106876
0.0011877
-0.000699287
0.000965594
-0.000309218
0.0007959
8.51809e-05
0.000672649
0.00047258
0.00058652
0.000852154
0.000518978
0.00122616
0.000470362
0.00159941
0.000429647
0.00198015
0.000403348
0.00237552
0.000382801
0.00280264
0.000367439
0.00325391
0.00034808
0.00371442
0.000274731
0.00407272
0.000143165
0.00416816
-0.00031409
0.0039939
-0.00116113
0.00252888
-0.00359567
-0.00642311
0.00254645
0.00394708
0.00513478
0.00610037
0.00689627
0.00756892
0.00815544
0.00867442
0.00914478
0.00957443
0.00997778
0.0103606
0.010728
0.0110761
0.0113508
0.011494
0.0111799
0.0100188
0.00642311
)
;

boundaryField
{
    movingWall
    {
        type            calculated;
        value           uniform 0;
    }
    fixedWalls
    {
        type            calculated;
        value           uniform 0;
    }
    frontAndBack
    {
        type            empty;
        value           nonuniform List<scalar> 0();
    }
}


// ************************************************************************* //
