/*--------------------------------*- C++ -*----------------------------------*\
  =========                 |
  \\      /  F ield         | OpenFOAM: The Open Source CFD Toolbox
   \\    /   O peration     | Website:  https://openfoam.org
    \\  /    A nd           | Version:  10
     \\/     M anipulation  |
\*---------------------------------------------------------------------------*/
FoamFile
{
    format      ascii;
    class       volVectorField;
    location    "6.35";
    object      U;
}
// * * * * * * * * * * * * * * * * * * * * * * * * * * * * * * * * * * * * * //

dimensions      [0 1 -1 0 0 0 0];

internalField   nonuniform List<vector> 
496
(
(9.9855 0.0436072 0)
(10.0255 -0.176231 0)
(10.3252 -0.145737 0)
(10.8279 -0.272087 0)
(10.033 0.228807 0)
(9.98656 -0.929448 0)
(10.3911 -0.541174 0)
(10.9961 -1.12063 0)
(10.7762 0.904626 0)
(9.17515 -2.2762 0)
(11.2424 -0.484111 0)
(10.657 -3.40458 0)
(11.8792 1.13717 0)
(8.17735 -2.26011 0)
(12.4296 0.131399 0)
(9.93145 -6.06018 0)
(11.4815 -0.234221 3.07304e-18)
(12.1926 -0.182257 -4.28256e-19)
(11.7723 -0.726391 1.4308e-19)
(12.5924 -0.114815 1.74417e-18)
(13.1075 -2.14035 -3.21983e-18)
(13.1172 -0.308899 -1.31564e-18)
(12.6926 -5.75699 -3.04612e-17)
(15.1759 -4.05456 5.6437e-17)
(12.8025 -0.182824 0)
(13.1893 -0.108998 0)
(13.4187 -0.0677271 0)
(13.4846 0.022281 0)
(13.2441 -0.115256 0)
(13.6949 -0.359561 0)
(13.9723 -0.52233 0)
(14.1549 -0.54709 0)
(13.1319 0.526338 0)
(12.9507 0.410258 0)
(13.5686 0.513966 0)
(13.8147 0.50175 0)
(10.3615 -3.69756 0)
(8.68098 -1.74142 0)
(9.66174 -0.415653 0)
(9.85755 -0.522438 0)
(13.5356 0.159684 0)
(13.5266 0.225261 0)
(13.4714 0.329293 0)
(13.3252 0.318418 0)
(13.1879 0.396688 0)
(13.0046 0.420795 0)
(12.879 0.468299 0)
(12.635 0.486049 0)
(12.4501 0.506327 0)
(12.1113 0.559561 0)
(11.9888 0.574043 0)
(11.8471 0.661311 0)
(11.7877 0.600936 0)
(11.5184 0.590579 0)
(11.3803 0.525384 0)
(11.3563 0.469147 0)
(11.4543 0.40016 0)
(11.5663 0.268901 0)
(11.6345 0.235326 0)
(11.7472 0.142765 0)
(11.8808 0.164036 0)
(12.0233 0.132875 0)
(12.1834 0.147475 0)
(12.1574 0.169709 0)
(12.2133 0.171628 0)
(11.9931 0.226374 0)
(11.982 0.211953 0)
(11.7102 0.264654 0)
(11.6831 0.245131 0)
(11.4742 0.273383 0)
(11.4112 0.265999 0)
(11.3022 0.257574 0)
(11.1926 0.283183 0)
(11.1453 0.263246 0)
(11.0158 0.334278 0)
(10.9386 0.315953 0)
(10.8334 0.392649 0)
(10.6192 0.368443 0)
(10.5431 0.404708 0)
(10.125 0.397173 0)
(14.2322 -0.416823 0)
(14.2054 -0.366856 0)
(14.1266 -0.265747 0)
(13.9791 -0.260235 0)
(13.9097 -0.134787 0)
(13.7267 -0.117791 0)
(13.6029 -0.102021 0)
(13.3936 -0.12928 0)
(13.2083 -0.153378 0)
(12.9564 -0.126292 0)
(12.823 -0.230391 0)
(12.7373 -0.230591 0)
(12.584 -0.408857 0)
(12.4219 -0.383043 0)
(12.2516 -0.401854 0)
(12.2327 -0.341851 0)
(12.2842 -0.362295 0)
(12.3538 -0.486282 0)
(12.4989 -0.456049 0)
(12.5716 -0.533192 0)
(12.8141 -0.365664 0)
(12.9136 -0.335258 0)
(13.1755 -0.194623 0)
(13.2037 -0.11774 0)
(13.3319 -0.0701099 0)
(13.2566 0.0329667 0)
(13.252 -0.00368041 0)
(13.1684 0.091474 0)
(13.0989 0.0114598 0)
(13.0674 0.0513001 0)
(12.9601 -0.0199483 0)
(12.9823 -0.0408794 0)
(12.8936 -0.0656911 0)
(12.926 -0.0903613 0)
(12.8873 -0.065615 0)
(12.8364 -0.0629341 0)
(12.8432 0.00498611 0)
(12.6358 0.0186921 0)
(12.6472 0.0931788 0)
(12.3182 0.00912281 0)
(14.1463 0.405016 0)
(13.983 0.290713 0)
(13.9767 0.271681 0)
(13.9184 0.378104 0)
(13.9538 0.61991 0)
(13.7741 0.630552 0)
(13.6371 0.757009 0)
(13.6216 0.833308 0)
(13.424 0.893835 0)
(13.2723 0.969163 0)
(12.9545 0.968936 0)
(12.8549 0.995021 0)
(12.6236 0.808449 0)
(12.4646 0.748539 0)
(12.3357 0.619036 0)
(12.0854 0.475261 0)
(12.1356 0.273313 0)
(11.8942 -0.0846339 0)
(12.1589 -0.18041 0)
(11.9512 -0.456361 0)
(12.2726 -0.296386 0)
(12.1821 -0.336741 0)
(12.3602 -0.162836 0)
(12.4691 -0.0214017 0)
(12.4486 0.0394702 0)
(12.6748 0.274036 0)
(12.5206 0.17197 0)
(12.7771 0.419139 0)
(12.6375 0.263002 0)
(12.7762 0.360438 0)
(12.7727 0.275698 0)
(12.7673 0.210959 0)
(12.9202 0.27155 0)
(12.838 0.113744 0)
(13.0666 0.333001 0)
(13.022 0.177706 0)
(13.2776 0.480234 0)
(13.2644 0.448528 0)
(13.4028 0.672768 0)
(13.2727 0.763956 0)
(9.38933 -0.039779 0)
(9.39339 -0.485819 0)
(9.17045 -0.0976786 0)
(10.1605 0.0683165 0)
(10.0405 -0.190236 0)
(9.68617 -0.0519253 0)
(10.241 0.221176 0)
(10.559 0.295375 0)
(10.9446 0.233431 0)
(11.0548 0.242166 0)
(11.4333 0.310666 0)
(11.7005 0.27353 0)
(11.8603 0.198562 0)
(12.2404 0.0266626 0)
(12.0963 -0.0627292 0)
(12.1361 -0.14123 0)
(11.6004 -0.139655 0)
(11.1807 -0.164209 0)
(10.4297 -0.194449 0)
(9.63082 -0.199389 0)
(9.45935 -0.270063 0)
(8.52082 -0.317919 0)
(8.75569 -0.243646 0)
(8.45445 -0.255518 0)
(8.58401 -0.219912 0)
(8.60171 -0.133154 0)
(8.47581 -0.0480386 0)
(9.0873 0.0446522 0)
(8.3732 0.00689454 0)
(9.05719 0.0826178 0)
(8.4934 0.0343226 0)
(8.78555 -0.0030671 0)
(8.72598 -0.0185387 0)
(8.69256 -0.144514 0)
(9.11988 -0.153348 0)
(8.98743 -0.205627 0)
(9.77836 -0.174961 0)
(9.77209 -0.150768 0)
(10.3672 -0.07126 0)
(10.6902 0.0371593 0)
(12.2888 0.813526 -1.06521e-17)
(7.76905 -0.904025 -1.78894e-17)
(11.4694 0.400359 3.13536e-17)
(4.40546 -4.53658 -8.47544e-17)
(13.1726 -0.625494 1.03706e-17)
(7.16183 0.871721 1.73882e-17)
(12.5134 0.182065 -3.04967e-17)
(4.3488 4.68986 8.27189e-17)
(-5.25501 1.06807 0)
(1.95169 -0.0403078 0)
(2.55089 3.21654 0)
(-5.99379 0.43017 0)
(0.857793 -2.44672 2.93647e-17)
(-3.0502 -3.52758 0)
(-4.34145 5.18073 0)
(5.54819 -2.24655 0)
(1.0489 -1.47117 0)
(-2.36214 -0.545811 0)
(2.97729 0.0912097 0)
(1.55094 0.944693 0)
(-1.73634 -0.539027 0)
(2.01861 -0.666673 0)
(1.77854 0.407082 0)
(1.93085 0.795996 0)
(1.65729 0.28281 0)
(2.30663 0.0827569 0)
(2.51438 0.0964419 0)
(2.68797 0.192823 0)
(2.79735 0.46715 0)
(2.55872 0.731673 0)
(1.8795 0.617396 0)
(1.80779 0.79497 0)
(1.80931 0.947141 0)
(1.35534 0.785359 0)
(1.13695 0.737791 0)
(1.79421 0.622129 0)
(1.17786 0.398202 0)
(1.19328 -0.0580764 0)
(1.79296 0.15127 0)
(1.97842 0.278939 0)
(1.42298 -0.163995 0)
(2.18134 0.0897059 0)
(2.39345 0.366644 0)
(2.24469 0.244472 0)
(2.34161 0.176214 0)
(2.83123 0.341904 0)
(2.71327 0.244938 0)
(2.89526 0.0712966 0)
(3.13359 0.0853823 0)
(3.26978 -0.104523 0)
(3.36666 -0.253917 0)
(3.92213 -0.204614 0)
(3.99762 -0.130148 0)
(4.185 -0.220367 0)
(4.69411 0.11554 0)
(4.67374 0.40897 0)
(-2.68776 -0.559068 0)
(2.73873 -2.55989 0)
(-3.49098 -0.89768 0)
(-0.293451 1.7743 0)
(1.55354 -1.46467 0)
(-0.860426 -1.27575 0)
(-0.992069 0.268225 0)
(0.679087 -0.427402 0)
(0.737881 -0.491582 0)
(1.00769 -0.177233 0)
(1.10998 0.159956 0)
(1.27657 0.330291 0)
(1.20302 0.440141 0)
(1.78169 0.445203 0)
(2.11802 0.416034 0)
(1.56749 0.412788 0)
(2.4708 0.309117 0)
(2.02534 0.34152 0)
(2.43593 -0.00205117 0)
(2.91362 -0.346772 0)
(2.41686 -0.18642 0)
(3.01987 -0.432833 0)
(2.57641 -0.779237 0)
(3.30427 -0.607251 0)
(2.91386 -0.477252 0)
(2.8624 -0.505286 0)
(3.374 -0.480013 0)
(3.38426 -0.307119 0)
(3.27634 -0.183438 0)
(3.67402 -0.247133 0)
(3.88906 -0.273948 0)
(3.84836 -0.336277 0)
(4.0545 -0.419888 0)
(4.17193 -0.556892 0)
(4.10262 -0.635894 0)
(4.08492 -0.724781 0)
(4.19156 -0.702761 0)
(4.1718 -0.713219 0)
(3.94355 -0.360097 0)
(4.41791 -0.00541813 0)
(11.0483 -1.41466 0)
(8.90914 2.72679 0)
(11.5139 -0.66283 0)
(11.0737 6.93018 0)
(10.3426 -1.22055 0)
(9.66299 2.90574 0)
(11.0546 0.325627 0)
(11.281 4.05993 0)
(9.83295 -0.388271 0)
(10.0882 1.19013 0)
(10.2245 0.409008 0)
(11.1574 1.18029 0)
(9.92144 -0.0695267 0)
(10.0213 0.184492 0)
(10.2426 0.107994 0)
(10.9001 0.261472 0)
(11.9835 5.55463 4.24146e-17)
(16.5761 4.69327 -6.923e-17)
(13.2307 2.1858 0)
(13.8325 0.426395 0)
(11.7781 0.576873 0)
(12.7938 -0.0191066 0)
(11.533 0.210136 0)
(12.2587 0.20577 0)
(8.44146 2.87863 0)
(10.8197 2.47421 0)
(7.54744 0.758064 0)
(9.08975 0.194043 0)
(13.3369 -0.653659 0)
(13.4181 -0.919979 0)
(13.779 -0.446234 0)
(14.3053 -0.471844 0)
(13.4405 -0.0941181 0)
(13.8851 0.247457 0)
(14.1872 0.518993 0)
(14.306 0.489626 0)
(12.8714 0.166432 0)
(13.2201 0.134477 0)
(13.4097 0.063446 0)
(13.3533 -0.0922333 0)
(9.8983 0.091058 0)
(9.14867 0.21349 0)
(9.47762 0.457267 0)
(8.16451 0.000854117 0)
(8.15412 -0.0223336 0)
(9.14562 0.17916 0)
(8.39322 -0.125459 0)
(8.34707 -0.349865 0)
(8.27558 -0.368007 0)
(8.24262 -0.312818 0)
(8.55684 -0.154814 0)
(8.25156 0.0730874 0)
(8.75744 0.237268 0)
(8.52054 0.389268 0)
(9.17142 0.390314 0)
(9.3974 0.435223 0)
(9.71829 0.399656 0)
(10.4225 0.402436 0)
(10.3062 0.389873 0)
(11.3492 0.255707 0)
(11.1371 0.239981 0)
(11.7284 0.0935822 0)
(11.6816 0.071379 0)
(11.7559 0.0601896 0)
(11.7557 0.0388528 0)
(11.2096 0.124034 0)
(11.5067 0.0622295 0)
(10.855 0.116082 0)
(11.1731 0.0492779 0)
(10.7444 0.0810645 0)
(10.9994 -0.00412999 0)
(11.0287 -0.0362192 0)
(10.9697 -0.0471872 0)
(11.2991 -0.140855 0)
(10.9092 -0.0766577 0)
(11.204 -0.14705 0)
(10.5358 -0.0571477 0)
(10.6157 -0.07158 0)
(10.0227 -0.015002 0)
(9.8225 0.0929674 0)
(14.5831 -0.720118 0)
(14.4759 -0.866361 0)
(14.171 -0.850995 0)
(14.1135 -0.646778 0)
(13.9491 -0.39454 0)
(13.8892 -0.495158 0)
(13.9035 -0.575593 0)
(13.6963 -0.602199 0)
(13.7263 -0.615549 0)
(13.4603 -0.426384 0)
(13.6371 -0.430488 0)
(13.429 -0.166633 0)
(13.5068 -0.159948 0)
(13.403 -0.0143757 0)
(13.4662 -0.0424462 0)
(13.6015 -0.149291 0)
(13.6002 -0.169475 0)
(13.8249 -0.439399 0)
(13.6658 -0.397504 0)
(13.7857 -0.71453 0)
(13.5512 -0.695398 0)
(13.4879 -0.818304 0)
(13.3364 -0.768888 0)
(13.1714 -0.599399 0)
(13.2046 -0.58584 0)
(12.9546 -0.243746 0)
(13.0993 -0.350595 0)
(12.8091 -0.0956406 0)
(13.0291 -0.302534 0)
(12.7977 -0.231827 0)
(12.9308 -0.374878 0)
(12.7906 -0.514777 0)
(12.7422 -0.511267 0)
(12.6691 -0.724423 0)
(12.4542 -0.552399 0)
(12.4775 -0.681554 0)
(12.2298 -0.387021 0)
(12.2888 -0.336281 0)
(12.1271 -0.078568 0)
(12.12 0.0583525 0)
(14.2644 0.327158 0)
(14.053 0.146075 0)
(13.9109 0.205838 0)
(13.7699 0.169256 0)
(13.6211 0.245544 0)
(13.4566 0.222095 0)
(13.3433 0.17987 0)
(13.2282 0.10614 0)
(13.1217 0.0845091 0)
(13.0209 0.196086 0)
(13.0067 0.195794 0)
(12.9925 0.31433 0)
(13.0479 0.293479 0)
(13.05 0.369668 0)
(13.1453 0.326256 0)
(13.2153 0.286635 0)
(13.3328 0.270983 0)
(13.3414 0.156935 0)
(13.2851 0.177149 0)
(13.1958 0.0566874 0)
(13.0542 0.119238 0)
(12.9745 0.101142 0)
(12.8318 0.210363 0)
(12.7789 0.264403 0)
(12.6901 0.30303 0)
(12.651 0.351342 0)
(12.6752 0.293692 0)
(12.6418 0.330493 0)
(12.7577 0.22907 0)
(12.664 0.226893 0)
(12.7514 0.138599 0)
(12.5844 0.126049 0)
(12.5988 0.112264 0)
(12.4138 0.10597 0)
(12.3378 0.192651 0)
(12.2065 0.158882 0)
(12.0939 0.278821 0)
(12.1152 0.239538 0)
(12.0349 0.307234 0)
(12.1696 0.280287 0)
(13.3511 -0.235457 0)
(13.1578 -0.338413 0)
(13.0176 -0.344856 0)
(12.8278 -0.429148 0)
(12.7356 -0.406379 0)
(12.5179 -0.403664 0)
(12.3659 -0.386216 0)
(12.2493 -0.389143 0)
(12.1694 -0.381463 0)
(12.0648 -0.304578 0)
(11.9977 -0.318374 0)
(11.9839 -0.249301 0)
(11.9978 -0.275553 0)
(11.9847 -0.237744 0)
(12.0731 -0.253077 0)
(12.0975 -0.261125 0)
(12.2266 -0.250571 0)
(12.117 -0.317963 0)
(12.0962 -0.298341 0)
(11.8441 -0.386169 0)
(11.7629 -0.372148 0)
(11.5496 -0.421864 0)
(11.4474 -0.411259 0)
(11.3409 -0.394332 0)
(11.2514 -0.405084 0)
(11.2605 -0.331956 0)
(11.2062 -0.372033 0)
(11.2424 -0.301691 0)
(11.2165 -0.375352 0)
(11.1539 -0.362273 0)
(11.1431 -0.419105 0)
(10.9068 -0.441681 0)
(10.9212 -0.448678 0)
(10.5708 -0.479086 0)
(10.5934 -0.431765 0)
(10.3101 -0.436073 0)
(10.3583 -0.342975 0)
(10.2715 -0.303876 0)
(10.2911 -0.234486 0)
(10.3748 -0.198921 0)
)
;

boundaryField
{
    inlet
    {
        type            fixedValue;
        value           uniform (10 0 0);
    }
    outlet
    {
        type            zeroGradient;
    }
    obstacle
    {
        type            noSlip;
    }
    upperWall
    {
        type            noSlip;
    }
    lowerWall
    {
        type            noSlip;
    }
    frontAndBack
    {
        type            empty;
    }
}


// ************************************************************************* //
