/*--------------------------------*- C++ -*----------------------------------*\
  =========                 |
  \\      /  F ield         | OpenFOAM: The Open Source CFD Toolbox
   \\    /   O peration     | Website:  https://openfoam.org
    \\  /    A nd           | Version:  10
     \\/     M anipulation  |
\*---------------------------------------------------------------------------*/
FoamFile
{
    format      ascii;
    class       volScalarField;
    location    "7.625";
    object      p;
}
// * * * * * * * * * * * * * * * * * * * * * * * * * * * * * * * * * * * * * //

dimensions      [0 2 -2 0 0 0 0];

internalField   nonuniform List<scalar> 
475
(
-0.0559804
-0.0813628
-0.110746
-0.134373
-0.157116
-0.0817415
-0.0950686
-0.111329
-0.130378
-0.1473
-0.0798609
-0.0891943
-0.104149
-0.121608
-0.137963
-0.07919
-0.0899552
-0.104838
-0.120238
-0.133774
-0.0493233
-0.0762651
-0.099865
-0.117481
-0.130212
-0.175393
-0.185996
-0.189744
-0.191519
-0.194083
-0.19786
-0.202358
-0.205811
-0.206695
-0.204157
-0.197659
-0.187362
-0.174258
-0.159562
-0.144581
-0.129952
-0.116194
-0.105058
-0.0985691
-0.0974622
-0.0996022
-0.102252
-0.103632
-0.102597
-0.0987951
-0.0931573
-0.0863926
-0.0782352
-0.0691397
-0.0597985
-0.0508208
-0.0425521
-0.0351415
-0.028466
-0.0224183
-0.0169928
-0.0124715
-0.00899351
-0.00660226
-0.00490432
-0.00360803
-0.00243088
-0.00132317
-0.000464426
2.75405e-05
-0.16387
-0.175388
-0.181149
-0.182914
-0.183289
-0.183401
-0.183269
-0.182357
-0.180078
-0.176159
-0.170494
-0.163417
-0.155338
-0.14688
-0.138354
-0.129236
-0.120077
-0.113242
-0.110218
-0.111632
-0.115572
-0.119395
-0.121006
-0.119336
-0.114078
-0.106567
-0.0974016
-0.0871434
-0.0761079
-0.0649381
-0.0542057
-0.0442366
-0.0351987
-0.0271644
-0.0201519
-0.0141535
-0.00941849
-0.00601348
-0.00390686
-0.00259787
-0.00168928
-0.000878802
-5.92498e-05
0.000352014
0.000457503
-0.151297
-0.160776
-0.166297
-0.168418
-0.168183
-0.166414
-0.163596
-0.159893
-0.155542
-0.150781
-0.146483
-0.143786
-0.142904
-0.142408
-0.137916
-0.128225
-0.121397
-0.119765
-0.119796
-0.120885
-0.123621
-0.125651
-0.125575
-0.122661
-0.117023
-0.10886
-0.0991659
-0.0883275
-0.076806
-0.0652081
-0.0540469
-0.0436514
-0.0342002
-0.0257801
-0.0184755
-0.0123643
-0.00764441
-0.00431491
-0.00223839
-0.000930001
-4.86365e-05
0.00064575
0.00121458
0.00125991
0.000925815
-0.144495
-0.152243
-0.156932
-0.158668
-0.157662
-0.15441
-0.149395
-0.14298
-0.135933
-0.129131
-0.124988
-0.12533
-0.13342
-0.145603
-0.143773
-0.125814
-0.110312
-0.107829
-0.114571
-0.122355
-0.127597
-0.129623
-0.128435
-0.124626
-0.117512
-0.108504
-0.0981741
-0.0869642
-0.0753452
-0.0637732
-0.0526472
-0.0422547
-0.0327994
-0.0244087
-0.0171841
-0.0112407
-0.00667009
-0.00340555
-0.00127223
0.000110455
0.000989104
0.00159339
0.00190208
0.00170177
0.00105152
-0.139791
-0.146804
-0.151165
-0.152669
-0.151226
-0.1472
-0.140979
-0.133384
-0.125049
-0.117703
-0.113007
-0.114662
-0.12595
-0.140729
-0.144918
-0.137263
-0.126737
-0.119916
-0.118683
-0.121023
-0.123761
-0.124952
-0.123751
-0.119738
-0.113528
-0.105247
-0.0954643
-0.0847061
-0.0734679
-0.0622153
-0.0513317
-0.0411141
-0.0318105
-0.0235627
-0.0164882
-0.0106935
-0.00622206
-0.00299327
-0.000817743
0.0006001
0.00148392
0.00201974
0.00216417
0.00186626
0.00103092
-0.200639
-0.201235
-0.202151
-0.203369
-0.205501
-0.209603
-0.215371
-0.221239
-0.225091
-0.224568
-0.218164
-0.20529
-0.18612
-0.161582
-0.133558
-0.104437
-0.0768626
-0.0527423
-0.0332424
-0.0191727
-0.0105509
-0.00672424
-0.00662012
-0.0090193
-0.0128058
-0.0171082
-0.0212398
-0.0247069
-0.0274163
-0.0294964
-0.0311485
-0.0324116
-0.0330641
-0.0326777
-0.0311596
-0.0287155
-0.0256014
-0.0220159
-0.0182628
-0.014627
-0.0113661
-0.00854998
-0.00599982
-0.00355878
-0.0010485
-0.19485
-0.196915
-0.19832
-0.200931
-0.20499
-0.210942
-0.218154
-0.225124
-0.229861
-0.230173
-0.22465
-0.212599
-0.193739
-0.169083
-0.140649
-0.110642
-0.0825286
-0.0578991
-0.0380548
-0.0235233
-0.0144469
-0.0101959
-0.00968246
-0.0116914
-0.015105
-0.0190949
-0.0230082
-0.0262014
-0.0284037
-0.0299148
-0.0312465
-0.0325088
-0.0332133
-0.0328918
-0.0313653
-0.0287783
-0.0253568
-0.021409
-0.0173377
-0.0136512
-0.010707
-0.00833123
-0.00614572
-0.0039134
-0.0013714
-0.203829
-0.202345
-0.202008
-0.203002
-0.206832
-0.21349
-0.221559
-0.229135
-0.234634
-0.235141
-0.229569
-0.217456
-0.198813
-0.174592
-0.146775
-0.117873
-0.0906597
-0.067025
-0.0480203
-0.034201
-0.0257144
-0.0218247
-0.021299
-0.0229064
-0.0255639
-0.0284288
-0.0310515
-0.0329897
-0.0339292
-0.0340888
-0.0340336
-0.0339822
-0.0334362
-0.0318658
-0.0294409
-0.0264865
-0.0233043
-0.0198389
-0.0163185
-0.0129487
-0.010007
-0.00760465
-0.00551095
-0.00347667
-0.00134117
-0.191134
-0.193497
-0.194786
-0.197559
-0.202443
-0.20956
-0.217792
-0.225432
-0.23075
-0.231754
-0.226838
-0.21557
-0.198139
-0.175757
-0.150484
-0.124688
-0.10057
-0.0799046
-0.0637934
-0.05268
-0.0463118
-0.043697
-0.0434831
-0.0444585
-0.0456515
-0.0463706
-0.0463018
-0.0456081
-0.0439107
-0.0414303
-0.0387467
-0.0360871
-0.0332884
-0.0302216
-0.0270648
-0.0239278
-0.0206553
-0.0171354
-0.0135797
-0.0103682
-0.00781863
-0.00584288
-0.00424115
-0.00265294
-0.0010826
-0.227329
-0.206521
-0.202711
-0.20095
-0.202909
-0.208463
-0.21547
-0.221399
-0.224819
-0.224176
-0.218398
-0.207231
-0.191281
-0.171739
-0.150477
-0.129417
-0.110141
-0.094229
-0.0830412
-0.076839
-0.0744003
-0.0740841
-0.0744633
-0.0744737
-0.0734337
-0.0711337
-0.0676184
-0.0628677
-0.0572
-0.0511141
-0.0450982
-0.0394456
-0.0342292
-0.0293231
-0.0246286
-0.0202088
-0.0162626
-0.0128381
-0.0100224
-0.00770976
-0.00585523
-0.00424144
-0.00284703
-0.00156191
-0.000554987
)
;

boundaryField
{
    inlet
    {
        type            zeroGradient;
    }
    outlet
    {
        type            fixedValue;
        value           uniform 0;
    }
    upperWall
    {
        type            zeroGradient;
    }
    lowerWall
    {
        type            zeroGradient;
    }
    frontAndBack
    {
        type            empty;
    }
}


// ************************************************************************* //
