/*--------------------------------*- C++ -*----------------------------------*\
  =========                 |
  \\      /  F ield         | OpenFOAM: The Open Source CFD Toolbox
   \\    /   O peration     | Website:  https://openfoam.org
    \\  /    A nd           | Version:  10
     \\/     M anipulation  |
\*---------------------------------------------------------------------------*/
FoamFile
{
    format      ascii;
    class       surfaceScalarField;
    location    "2.925";
    object      phi;
}
// * * * * * * * * * * * * * * * * * * * * * * * * * * * * * * * * * * * * * //

dimensions      [0 3 -1 0 0 0 0];

internalField   nonuniform List<scalar> 
760
(
-1.1788e-05
1.1788e-05
-3.25324e-05
2.07444e-05
-5.43236e-05
2.17911e-05
-7.51939e-05
2.08703e-05
-9.4495e-05
1.93011e-05
-0.00011177
1.72754e-05
-0.000126589
1.48189e-05
-0.000138532
1.19424e-05
-0.000147194
8.66246e-06
-0.0001522
5.00582e-06
-0.000153214
1.01373e-06
-0.000149952
-3.26159e-06
-0.000142236
-7.71623e-06
-0.000130012
-1.22239e-05
-0.000113393
-1.66195e-05
-9.26948e-05
-2.06978e-05
-6.85026e-05
-2.41922e-05
-4.18911e-05
-2.66115e-05
-1.56978e-05
-2.61933e-05
-1.56978e-05
-2.13953e-05
3.31833e-05
-5.47374e-05
5.40865e-05
-8.92543e-05
5.63081e-05
-0.000122156
5.3772e-05
-0.000152396
4.95416e-05
-0.000179228
4.41073e-05
-0.000201977
3.7568e-05
-0.000220019
2.99837e-05
-0.000232779
2.14223e-05
-0.000239738
1.19656e-05
-0.000240481
1.75644e-06
-0.000234647
-9.09549e-06
-0.000222037
-2.03269e-05
-0.000202643
-3.16176e-05
-0.000176691
-4.25712e-05
-0.000144697
-5.26915e-05
-0.000107555
-6.13348e-05
-6.68544e-05
-6.73118e-05
-2.65119e-05
-6.65359e-05
-4.22097e-05
-2.40338e-05
5.72172e-05
-6.10926e-05
9.11452e-05
-9.93217e-05
9.45372e-05
-0.000135702
9.01522e-05
-0.000169113
8.29526e-05
-0.00019875
7.37449e-05
-0.000223891
6.27084e-05
-0.000243865
4.99584e-05
-0.000258061
3.56179e-05
-0.000265933
1.98375e-05
-0.000267006
2.82906e-06
-0.000260827
-1.52741e-05
-0.000247183
-3.39714e-05
-0.000226009
-5.27914e-05
-0.000197483
-7.1097e-05
-0.000162106
-8.80681e-05
-0.000120812
-0.000102629
-7.53344e-05
-0.000112789
-3.00271e-05
-0.000111843
-7.22368e-05
-2.55246e-05
8.27417e-05
-6.49804e-05
0.000130601
-0.000105658
0.000135215
-0.000144385
0.000128879
-0.000180007
0.000118575
-0.000211703
0.000105441
-0.000238733
8.97381e-05
-0.000260408
7.16331e-05
-0.000276085
5.12954e-05
-0.00028517
2.89228e-05
-0.000287139
4.79783e-06
-0.000281446
-2.09676e-05
-0.000267718
-4.76992e-05
-0.00024576
-7.47492e-05
-0.000215624
-0.000101233
-0.000177703
-0.000125989
-0.000132903
-0.000147429
-8.30979e-05
-0.000162594
-3.31561e-05
-0.000161785
-0.000105393
-2.73078e-05
0.00011005
-6.96483e-05
0.000172942
-0.000113307
0.000178874
-0.000154913
0.000170485
-0.000193274
0.000156936
-0.000227554
0.000139721
-0.000257003
0.000119187
-0.000280918
9.55479e-05
-0.000298628
6.90054e-05
-0.000309484
3.9779e-05
-0.000312858
8.17169e-06
-0.000308101
-2.5724e-05
-0.000294636
-6.1165e-05
-0.000272031
-9.73534e-05
-0.000240094
-0.000133171
-0.000199017
-0.000167066
-0.000149612
-0.000196834
-9.39249e-05
-0.000218282
-3.75744e-05
-0.000218136
-0.000142967
-2.9639e-05
0.000139689
-7.57093e-05
0.000219012
-0.000123214
0.000226379
-0.000168524
0.000215794
-0.000210397
0.00019881
-0.000247989
0.000177313
-0.000280549
0.000151747
-0.000307372
0.000122371
-0.000327767
8.94002e-05
-0.000341032
5.3044e-05
-0.000346437
1.3576e-05
-0.000343174
-2.89869e-05
-0.000330391
-7.39481e-05
-0.000307325
-0.000120419
-0.000273387
-0.000167108
-0.0002284
-0.000212053
-0.000172948
-0.000252286
-0.000109225
-0.000282005
-4.3911e-05
-0.000283449
-0.000186878
-3.25875e-05
0.000172276
-8.33408e-05
0.000269765
-0.000135644
0.000278682
-0.000185542
0.000265692
-0.000231743
0.00024501
-0.000273403
0.000218972
-0.000309792
0.000188136
-0.000340226
0.000152806
-0.000364021
0.000113195
-0.000380439
6.94621e-05
-0.000388649
2.17856e-05
-0.000387675
-2.99608e-05
-0.000376304
-8.53188e-05
-0.000353308
-0.000143415
-0.000317493
-0.000202924
-0.000268023
-0.000261522
-0.000204982
-0.000315327
-0.000130576
-0.000356411
-5.29297e-05
-0.000361095
-0.000239808
-3.62169e-05
0.000208493
-9.27035e-05
0.000326252
-0.000150826
0.000336805
-0.000206232
0.000321098
-0.00025758
0.000296358
-0.000304052
0.000265444
-0.000344975
0.000229059
-0.000379729
0.00018756
-0.000407682
0.000141148
-0.000428106
8.98857e-05
-0.000440097
3.37768e-05
-0.000442528
-2.75293e-05
-0.000433752
-9.4095e-05
-0.000411926
-0.000165241
-0.00037496
-0.00023989
-0.000320905
-0.000315578
-0.000248803
-0.000387429
-0.000160478
-0.000444736
-6.5953e-05
-0.00045562
-0.000305761
-4.06246e-05
0.000249118
-0.000104026
0.000389653
-0.000169071
0.00040185
-0.000230932
0.000382959
-0.000288231
0.000353658
-0.000340215
0.000317428
-0.000386321
0.000275164
-0.000426064
0.000227303
-0.000458938
0.000174022
-0.000484304
0.000115252
-0.00050126
5.07334e-05
-0.000508605
-2.01848e-05
-0.000504219
-9.8481e-05
-0.000485518
-0.000183942
-0.000449155
-0.000276253
-0.000391392
-0.000373341
-0.000309219
-0.000469602
-0.000203137
-0.000550818
-8.54633e-05
-0.000573294
-0.000391224
-4.59692e-05
0.000295087
-0.000117653
0.000461336
-0.000190828
0.000475025
-0.000260108
0.00045224
-0.000324113
0.000417662
-0.000382212
0.000375527
-0.000434032
0.000326985
-0.000479318
0.000272589
-0.000517805
0.000212508
-0.00054907
0.000146517
-0.000572347
7.4011e-05
-0.000586523
-6.00938e-06
-0.000589102
-9.59023e-05
-0.00057671
-0.000196333
-0.000544379
-0.000308585
-0.00048568
-0.000432039
-0.00039386
-0.000561422
-0.000265937
-0.000678741
-0.000116455
-0.000722776
-0.000507679
-5.25171e-05
0.000347604
-0.000134123
0.000542942
-0.000216764
0.000557666
-0.000294424
0.0005299
-0.000365785
0.000489023
-0.000430431
0.000440173
-0.000488286
0.00038484
-0.000539447
0.00032375
-0.000584038
0.000257099
-0.000622045
0.000184524
-0.000653076
0.000105042
-0.000676289
1.72028e-05
-0.000689308
-8.28827e-05
-0.00068806
-0.000197581
-0.000665806
-0.000330838
-0.000612431
-0.000485414
-0.000514933
-0.00065892
-0.000362519
-0.000831155
-0.000169769
-0.000915526
-0.000677448
-6.07313e-05
0.000408335
-0.000154293
0.000636504
-0.00024788
0.000651253
-0.00033483
0.00061685
-0.000414018
0.00056821
-0.000485372
0.000511528
-0.000549248
0.000448716
-0.000606242
0.000380744
-0.000657049
0.000307906
-0.000702303
0.000229778
-0.000742356
0.000145095
-0.000776787
5.16335e-05
-0.000804519
-5.51502e-05
-0.000821239
-0.000180861
-0.00081894
-0.000333137
-0.000783272
-0.000521082
-0.000691878
-0.000750315
-0.000519276
-0.00100376
-0.000271266
-0.00116354
-0.000948714
-7.14742e-05
0.000479809
-0.000179556
0.000744586
-0.000285683
0.00075738
-0.000382694
0.000713861
-0.000469886
0.000655402
-0.000547708
0.00058935
-0.000617107
0.000518115
-0.000679331
0.000442968
-0.000735819
0.000364393
-0.00078809
0.000282049
-0.000837597
0.000194602
-0.000885316
9.93524e-05
-0.00093228
-8.18573e-06
-0.000975414
-0.000137727
-0.00100785
-0.000300706
-0.00101223
-0.000516701
-0.000954756
-0.000807786
-0.000785422
-0.00117309
-0.000477502
-0.00147146
-0.00142622
-8.64264e-05
0.000566236
-0.000212417
0.000870577
-0.000332527
0.000877489
-0.000439982
0.000821316
-0.000534887
0.000750308
-0.000618378
0.000672842
-0.000692158
0.000591895
-0.000758259
0.000509069
-0.000818997
0.000425131
-0.000876996
0.000340048
-0.000935307
0.000252913
-0.000997347
0.000161393
-0.00106537
5.98387e-05
-0.00114348
-5.96141e-05
-0.00123022
-0.000213969
-0.00131054
-0.000436379
-0.0013433
-0.000775034
-0.00123513
-0.00128125
-0.00087958
-0.00182701
-0.0023058
-0.00010595
0.000672186
-0.000254544
0.00101917
-0.000391022
0.00101397
-0.000509431
0.000939724
-0.000611226
0.000852103
-0.000698753
0.000760369
-0.000774866
0.000668008
-0.000842506
0.000576709
-0.000904806
0.000487431
-0.000965346
0.000400588
-0.00102849
0.000316056
-0.00110016
0.000233061
-0.00118999
0.000149671
-0.00130923
5.96284e-05
-0.00146779
-5.5407e-05
-0.00166756
-0.000236612
-0.00187681
-0.000565789
-0.00190996
-0.0012481
-0.00148781
-0.00224916
-0.00379361
-0.000161039
0.000833225
-0.000327058
0.00118519
-0.000470568
0.00115748
-0.000592766
0.00106192
-0.000698016
0.000957353
-0.00078781
0.000850163
-0.000864366
0.000744564
-0.000930659
0.000643002
-0.000990641
0.000547413
-0.00104904
0.000458982
-0.00111245
0.000379466
-0.00118909
0.000309706
-0.00129205
0.000252627
-0.00144025
0.000207832
-0.00166416
0.000168502
-0.00198045
7.96807e-05
-0.00237616
-0.000170077
-0.00253634
-0.00108792
-0.00193184
-0.00285365
-0.00572545
-0.000133958
0.000967183
-0.000371345
0.00142258
-0.000559072
0.00134521
-0.000704909
0.00120776
-0.000815642
0.00106809
-0.000898373
0.000932894
-0.000961198
0.000807389
-0.00101103
0.000692838
-0.00105343
0.000589809
-0.00109226
0.000497815
-0.0011335
0.000420703
-0.00118401
0.000360213
-0.00125964
0.000328262
-0.00138564
0.000333831
-0.00160885
0.000391713
-0.00194994
0.000420772
-0.00241114
0.000291122
-0.00254091
-0.000958155
-0.00169725
-0.00369731
-0.0074227
-0.000415048
0.00138223
-0.00057387
0.0015814
-0.000704806
0.00147614
-0.00081412
0.00131707
-0.000876885
0.00113085
-0.000906581
0.00096259
-0.000915104
0.000815912
-0.00091041
0.000688144
-0.000899986
0.000579385
-0.000886846
0.000484676
-0.000879481
0.000413337
-0.000877655
0.000358387
-0.000893124
0.000343731
-0.000921082
0.000361789
-0.000980844
0.000451474
-0.0010466
0.000486526
-0.00108674
0.000331263
-0.00109578
-0.000949114
-0.000517377
-0.00427572
-0.00794008
-0.00126687
0.0026491
-0.00118224
0.00149677
-0.000941484
0.00123539
-0.000618348
0.000993937
-0.000289013
0.000801515
2.1643e-05
0.000651934
0.000301545
0.00053601
0.00054918
0.000440509
0.000763155
0.00036541
0.000948554
0.000299277
0.00111031
0.000251577
0.00125366
0.000215038
0.00140888
0.000188512
0.00157595
0.000194719
0.00185732
0.000170104
0.00218843
0.000155414
0.00260343
-8.37345e-05
0.00265556
-0.00100125
0.00175427
-0.00337442
-0.00618581
0.0026491
0.00414587
0.00538126
0.00637519
0.00717671
0.00782864
0.00836465
0.00880516
0.00917057
0.00946985
0.00972142
0.00993646
0.010125
0.0103197
0.0104898
0.0106452
0.0105615
0.00956023
0.00618581
)
;

boundaryField
{
    movingWall
    {
        type            calculated;
        value           uniform 0;
    }
    fixedWalls
    {
        type            calculated;
        value           uniform 0;
    }
    frontAndBack
    {
        type            empty;
        value           nonuniform List<scalar> 0();
    }
}


// ************************************************************************* //
