/*--------------------------------*- C++ -*----------------------------------*\
  =========                 |
  \\      /  F ield         | OpenFOAM: The Open Source CFD Toolbox
   \\    /   O peration     | Website:  https://openfoam.org
    \\  /    A nd           | Version:  10
     \\/     M anipulation  |
\*---------------------------------------------------------------------------*/
FoamFile
{
    format      ascii;
    class       volVectorField;
    location    "0.5";
    object      U;
}
// * * * * * * * * * * * * * * * * * * * * * * * * * * * * * * * * * * * * * //

dimensions      [0 1 -1 0 0 0 0];

internalField   nonuniform List<vector> 
8000
(
(-0.00018801 0.000185911 1.20584e-08)
(-0.000581985 0.000199878 6.70483e-07)
(-0.000982788 0.000190403 7.98314e-07)
(-0.00135715 0.000175503 8.023e-07)
(-0.00169645 0.000156249 7.41068e-07)
(-0.00199247 0.000133246 6.41733e-07)
(-0.00223822 0.000107144 5.18008e-07)
(-0.00242806 7.86172e-05 3.77497e-07)
(-0.00255777 4.83384e-05 2.25222e-07)
(-0.00262445 1.69729e-05 6.50628e-08)
(-0.00262659 -1.48214e-05 -9.98781e-08)
(-0.00256396 -4.63833e-05 -2.65257e-07)
(-0.00243773 -7.70387e-05 -4.27487e-07)
(-0.00225042 -0.000106091 -5.81806e-07)
(-0.00200602 -0.000132818 -7.21887e-07)
(-0.00171001 -0.00015649 -8.38423e-07)
(-0.00136936 -0.000176389 -9.15608e-07)
(-0.000992399 -0.000191841 -9.24292e-07)
(-0.00058805 -0.000201696 -7.96578e-07)
(-0.000190072 -0.000187794 -1.32345e-07)
(-0.000211741 0.000587913 -6.82354e-07)
(-0.000654537 0.000631011 6.00621e-09)
(-0.00110406 0.000601028 1.80054e-07)
(-0.00152369 0.00055385 2.36991e-07)
(-0.00190376 0.00049292 2.40017e-07)
(-0.00223511 0.000420197 2.1551e-07)
(-0.00250997 0.000337763 1.75842e-07)
(-0.00272217 0.000247754 1.26731e-07)
(-0.00286707 0.000152287 7.10742e-08)
(-0.00294155 5.34422e-05 1.04563e-08)
(-0.00294394 -4.67353e-05 -5.38223e-08)
(-0.00287402 -0.000146193 -1.19925e-07)
(-0.00273301 -0.000242835 -1.864e-07)
(-0.00252368 -0.000334485 -2.50578e-07)
(-0.00225035 -0.000418878 -3.08112e-07)
(-0.00191903 -0.000493697 -3.51399e-07)
(-0.00153745 -0.000556653 -3.65727e-07)
(-0.00111491 -0.000605571 -3.22068e-07)
(-0.000661395 -0.000636767 -1.52359e-07)
(-0.000214068 -0.000593883 5.47493e-07)
(-0.000222833 0.00102851 -9.17379e-07)
(-0.000688755 0.00110248 -1.93336e-07)
(-0.00116144 0.00104975 -9.20413e-10)
(-0.00160212 0.000966903 7.40102e-08)
(-0.00200068 0.000860068 9.54026e-08)
(-0.00234763 0.000732777 9.12069e-08)
(-0.00263503 0.000588737 7.44753e-08)
(-0.00285668 0.000431695 5.06712e-08)
(-0.00300798 0.000265327 2.20588e-08)
(-0.00308585 9.31948e-05 -1.06997e-08)
(-0.00308865 -8.122e-05 -4.61182e-08)
(-0.00301611 -0.000254438 -8.43511e-08)
(-0.0028694 -0.000422892 -1.24508e-07)
(-0.00265113 -0.000582848 -1.64611e-07)
(-0.00236557 -0.000730383 -2.00833e-07)
(-0.0020187 -0.000861425 -2.25775e-07)
(-0.0016184 -0.000971898 -2.24312e-07)
(-0.0011743 -0.00105788 -1.65939e-07)
(-0.000696885 -0.00111281 2.07235e-08)
(-0.000225583 -0.00103923 7.55276e-07)
(-0.000239327 0.00149405 -1.07979e-06)
(-0.000739529 0.00160043 -3.06901e-07)
(-0.00124639 0.00152304 -9.81772e-08)
(-0.00171801 0.00140182 -1.36326e-08)
(-0.00214356 0.00124591 1.73168e-08)
(-0.00251308 0.00106066 2.30082e-08)
(-0.00281849 0.000851587 1.70403e-08)
(-0.00305362 0.000624161 5.14183e-09)
(-0.00321402 0.000383648 -1.02798e-08)
(-0.00329675 0.000135063 -2.861e-08)
(-0.00330021 -0.000116751 -4.99665e-08)
(-0.00322411 -0.000366976 -7.48314e-08)
(-0.00306942 -0.000610646 -1.02862e-07)
(-0.00283854 -0.000842502 -1.32567e-07)
(-0.00253549 -0.00105691 -1.60347e-07)
(-0.00216614 -0.00124792 -1.78542e-07)
(-0.00173849 -0.00140944 -1.70874e-07)
(-0.00126261 -0.00153552 -1.04061e-07)
(-0.000749807 -0.00161635 9.94563e-08)
(-0.000242802 -0.00151057 8.86807e-07)
(-0.000262468 0.00199942 -1.23672e-06)
(-0.000810642 0.00214048 -3.93967e-07)
(-0.00136508 0.0020353 -1.66611e-07)
(-0.00187948 0.00187128 -7.39405e-08)
(-0.00234199 0.00166115 -3.86682e-08)
(-0.00274213 0.00141247 -2.83594e-08)
(-0.00307172 0.00113291 -2.83311e-08)
(-0.00332482 0.000829827 -3.26809e-08)
(-0.00349729 0.000510124 -3.94638e-08)
(-0.00358647 0.0001802 -4.86335e-08)
(-0.0035909 -0.000153878 -6.10973e-08)
(-0.00351022 -0.000486118 -7.79208e-08)
(-0.00334512 -0.000810295 -9.9434e-08)
(-0.00309758 -0.00111968 -1.24683e-07)
(-0.00277115 -0.0014069 -1.50226e-07)
(-0.00237137 -0.00166388 -1.67837e-07)
(-0.00190624 -0.0018822 -1.59285e-07)
(-0.00138637 -0.00205336 -8.68516e-08)
(-0.000824167 -0.00216362 1.35956e-07)
(-0.000267042 -0.00202348 9.97971e-07)
(-0.000293254 0.00255893 -1.41788e-06)
(-0.000905069 0.0027375 -4.8247e-07)
(-0.00152218 0.00259991 -2.32806e-07)
(-0.00209233 0.00238669 -1.32005e-07)
(-0.00260237 0.00211502 -9.35017e-08)
(-0.00304132 0.00179537 -8.02834e-08)
(-0.00340114 0.00143796 -7.58238e-08)
(-0.00367641 0.00105231 -7.38488e-08)
(-0.00386365 0.000646958 -7.28232e-08)
(-0.00396076 0.000229555 -7.35554e-08)
(-0.00396654 -0.000192864 -7.78564e-08)
(-0.00388053 -0.000613417 -8.76922e-08)
(-0.00370299 -0.00102488 -1.04323e-07)
(-0.00343514 -0.00141921 -1.27535e-07)
(-0.00307969 -0.00178723 -1.54133e-07)
(-0.00264146 -0.00211855 -1.75147e-07)
(-0.00212814 -0.00240184 -1.69608e-07)
(-0.00155083 -0.00262531 -9.31195e-08)
(-0.000923338 -0.00277025 1.51381e-07)
(-0.000299438 -0.0025931 1.1122e-06)
(-0.000333142 0.00318923 -1.64327e-06)
(-0.0010271 0.00340857 -5.89533e-07)
(-0.0017243 0.00323186 -3.13255e-07)
(-0.00236458 0.00296033 -2.03622e-07)
(-0.00293332 0.00261704 -1.62096e-07)
(-0.00341918 0.00221631 -1.45775e-07)
(-0.00381478 0.00177158 -1.35891e-07)
(-0.00411583 0.00129477 -1.25932e-07)
(-0.00432004 0.000796044 -1.15117e-07)
(-0.00442629 0.000284013 -1.05275e-07)
(-0.00443388 -0.000233745 -9.93522e-08)
(-0.00434223 -0.00074995 -1.0065e-07)
(-0.00415091 -0.00125682 -1.1171e-07)
(-0.00385993 -0.0017453 -1.33444e-07)
(-0.00347049 -0.00220448 -1.63243e-07)
(-0.00298598 -0.00262133 -1.91413e-07)
(-0.00241322 -0.00298091 -1.9352e-07)
(-0.00176349 -0.00326704 -1.16224e-07)
(-0.00105223 -0.00345439 1.52224e-07)
(-0.000341666 -0.00323723 1.23911e-06)
(-0.000384287 0.00391049 -1.93163e-06)
(-0.00118299 0.00417403 -7.301e-07)
(-0.00198087 0.00394832 -4.22695e-07)
(-0.00270741 0.00360558 -3.02941e-07)
(-0.00334641 0.00317684 -2.57441e-07)
(-0.00388678 0.00268175 -2.35882e-07)
(-0.00432268 0.00213778 -2.17208e-07)
(-0.00465194 0.00155958 -1.95218e-07)
(-0.00487441 0.000958731 -1.70126e-07)
(-0.00499055 0.000344324 -1.45086e-07)
(-0.0050005 -0.000276228 -1.24639e-07)
(-0.0049036 -0.000896037 -1.13756e-07)
(-0.00469833 -0.0015075 -1.16702e-07)
(-0.00438281 -0.00210112 -1.36124e-07)
(-0.00395573 -0.00266447 -1.70761e-07)
(-0.0034179 -0.00318161 -2.10561e-07)
(-0.00277413 -0.00363308 -2.26914e-07)
(-0.00203516 -0.00399663 -1.54939e-07)
(-0.00121808 -0.00423783 1.37347e-07)
(-0.000396226 -0.00397773 1.3806e-06)
(-0.000449938 0.00474809 -2.30725e-06)
(-0.00138205 0.00505879 -9.2409e-07)
(-0.00230553 0.00476926 -5.80734e-07)
(-0.00313637 0.00433682 -4.48096e-07)
(-0.00385716 0.0038037 -3.95305e-07)
(-0.00445824 0.0031969 -3.63245e-07)
(-0.00493696 0.00253903 -3.29283e-07)
(-0.00529488 0.00184765 -2.87954e-07)
(-0.0055353 0.00113539 -2.40983e-07)
(-0.00566125 0.000410949 -1.93507e-07)
(-0.00567424 -0.00031953 -1.52007e-07)
(-0.00557351 -0.00105079 -1.22991e-07)
(-0.00535599 -0.00177657 -1.12945e-07)
(-0.0050169 -0.0024879 -1.27258e-07)
(-0.00455099 -0.00317142 -1.67606e-07)
(-0.0039546 -0.00380812 -2.24758e-07)
(-0.00322859 -0.00437292 -2.64911e-07)
(-0.00238159 -0.00483519 -2.10356e-07)
(-0.00143173 -0.00514754 1.00751e-07)
(-0.000466932 -0.00484247 1.532e-06)
(-0.000535168 0.00573526 -2.80759e-06)
(-0.00163845 0.00609426 -1.20485e-06)
(-0.0027183 0.00571818 -8.18719e-07)
(-0.00367334 0.00516915 -6.66157e-07)
(-0.00448634 0.00450552 -5.97407e-07)
(-0.00515145 0.00376447 -5.44012e-07)
(-0.00567193 0.00297497 -4.82646e-07)
(-0.00605559 0.00215747 -4.09497e-07)
(-0.00631111 0.00132478 -3.29195e-07)
(-0.00644547 0.000483828 -2.49322e-07)
(-0.00646224 -0.000362186 -1.78039e-07)
(-0.00636064 -0.00121143 -1.22382e-07)
(-0.00613545 -0.00206084 -8.9853e-08)
(-0.00577766 -0.00290357 -9.26283e-08)
(-0.00527595 -0.00372644 -1.37709e-07)
(-0.00461941 -0.00450767 -2.18722e-07)
(-0.00380163 -0.00521542 -2.99553e-07)
(-0.00282606 -0.00580756 -2.84633e-07)
(-0.00170994 -0.00621793 2.52159e-08)
(-0.000559834 -0.00586859 1.67741e-06)
(-0.000648277 0.00691773 -3.49682e-06)
(-0.00197455 0.00732121 -1.63445e-06)
(-0.00324923 0.00682271 -1.18982e-06)
(-0.00434948 0.00611737 -9.99078e-07)
(-0.00526184 0.00528699 -8.94128e-07)
(-0.00598879 0.00438257 -7.9739e-07)
(-0.00654396 0.00344051 -6.85832e-07)
(-0.00694507 0.00248357 -5.60915e-07)
(-0.00720894 0.00152309 -4.31749e-07)
(-0.00734822 0.000562014 -3.07555e-07)
(-0.00736949 -0.000401844 -1.9613e-07)
(-0.00727216 -0.00137254 -1.01801e-07)
(-0.00704814 -0.00235282 -3.51916e-08)
(-0.00668251 -0.00334058 -1.41129e-08)
(-0.00615508 -0.00432508 -6.01713e-08)
(-0.00544359 -0.00528284 -1.72188e-07)
(-0.004529 -0.00617457 -3.15651e-07)
(-0.00340387 -0.00694282 -3.75277e-07)
(-0.00207952 -0.00749399 -1.05105e-07)
(-0.000685014 -0.00710809 1.7834e-06)
(-0.000803732 0.00836203 -4.4975e-06)
(-0.00242716 0.00879346 -2.33317e-06)
(-0.00394443 0.00811481 -1.78411e-06)
(-0.0052096 0.00719369 -1.5109e-06)
(-0.00622115 0.0061462 -1.32522e-06)
(-0.00699794 0.00504123 -1.13953e-06)
(-0.00757094 0.00392309 -9.38504e-07)
(-0.00797301 0.00281478 -7.33328e-07)
(-0.00823267 0.00172295 -5.37036e-07)
(-0.00837041 0.000643273 -3.56508e-07)
(-0.00839679 -0.000435017 -1.93677e-07)
(-0.00831162 -0.00152513 -4.78094e-08)
(-0.00810349 -0.00263903 7.01122e-08)
(-0.00774991 -0.00378317 1.29793e-07)
(-0.0072182 -0.00495327 1.03318e-07)
(-0.00646891 -0.0061277 -3.78438e-08)
(-0.00546224 -0.00726009 -2.75102e-07)
(-0.00416953 -0.00827388 -4.67348e-07)
(-0.00258532 -0.00903522 -2.93749e-07)
(-0.000860483 -0.00863846 1.78643e-06)
(-0.00102897 0.0101719 -6.07022e-06)
(-0.00305981 0.0105818 -3.53181e-06)
(-0.00487577 0.00962934 -2.74721e-06)
(-0.00631874 0.00840264 -2.29322e-06)
(-0.00741433 0.0070685 -1.92783e-06)
(-0.00821191 0.00571758 -1.56872e-06)
(-0.00877042 0.00439944 -1.21993e-06)
(-0.00914522 0.00313196 -9.01012e-07)
(-0.00938045 0.00191202 -6.20028e-07)
(-0.00950619 0.000723532 -3.73173e-07)
(-0.0095379 -0.000456846 -1.4823e-07)
(-0.00947617 -0.00165541 6.34596e-08)
(-0.00930617 -0.00289765 2.38613e-07)
(-0.00899675 -0.00420373 3.55381e-07)
(-0.00849961 -0.00558216 3.7855e-07)
(-0.00775041 -0.00702031 2.45376e-07)
(-0.00667596 -0.00847056 -9.48063e-08)
(-0.00520836 -0.00983472 -5.23695e-07)
(-0.00330639 -0.010919 -5.48149e-07)
(-0.0011217 -0.0105835 1.57177e-06)
(-0.00138133 0.012518 -8.74962e-06)
(-0.00398839 0.0127777 -5.70134e-06)
(-0.00615585 0.0113987 -4.29697e-06)
(-0.00777123 0.00973041 -3.44684e-06)
(-0.00890625 0.00801722 -2.69857e-06)
(-0.00966702 0.00636903 -2.03469e-06)
(-0.0101566 0.00483047 -1.46988e-06)
(-0.0104604 0.00340475 -1.007e-06)
(-0.0106411 0.0020712 -6.30869e-07)
(-0.0107393 0.000796099 -3.11951e-07)
(-0.0107757 -0.000461042 -1.89353e-08)
(-0.0107524 -0.00174373 2.55483e-07)
(-0.0106518 -0.00309582 5.00035e-07)
(-0.0104344 -0.00455777 7.06024e-07)
(-0.0100348 -0.0061602 8.28811e-07)
(-0.00935731 -0.00791192 7.68333e-07)
(-0.00827761 -0.00977905 3.75745e-07)
(-0.00665428 -0.0116519 -4.42067e-07)
(-0.00438954 -0.0132437 -6.99261e-07)
(-0.00154473 -0.0131522 7.75487e-07)
(-0.00198354 0.0157265 -1.37702e-05)
(-0.00543129 0.0154958 -9.94561e-06)
(-0.007962 0.0134369 -6.6822e-06)
(-0.00970127 0.0111251 -4.97301e-06)
(-0.0107758 0.00891886 -3.49517e-06)
(-0.0113987 0.00692259 -2.37246e-06)
(-0.0117347 0.00515515 -1.53941e-06)
(-0.0119045 0.00358856 -9.29272e-07)
(-0.0119891 0.00217323 -4.71217e-07)
(-0.0120384 0.000850933 -9.55252e-08)
(-0.0120777 -0.000440201 2.47402e-07)
(-0.012111 -0.00176424 5.75635e-07)
(-0.0121202 -0.0031877 9.17254e-07)
(-0.0120611 -0.00477846 1.28049e-06)
(-0.0118537 -0.00660199 1.60747e-06)
(-0.0113692 -0.00870909 1.74749e-06)
(-0.010417 -0.0111086 1.42873e-06)
(-0.00871877 -0.0137182 6.46487e-08)
(-0.00611666 -0.016117 -8.82339e-08)
(-0.00229594 -0.0167213 -1.54662e-06)
(-0.00313271 0.0200334 -2.03914e-05)
(-0.00784809 0.0187864 -1.75447e-05)
(-0.0105738 0.0156895 -9.65399e-06)
(-0.0122907 0.012462 -6.41587e-06)
(-0.0131088 0.00963809 -3.79037e-06)
(-0.0134307 0.00726142 -2.13809e-06)
(-0.0134905 0.00528489 -1.08931e-06)
(-0.0134422 0.00362299 -4.16801e-07)
(-0.0133786 0.00218286 5.22305e-08)
(-0.0133526 0.000874616 4.13139e-07)
(-0.0133908 -0.000386995 7.44449e-07)
(-0.0134998 -0.00168665 1.12949e-06)
(-0.0136659 -0.00311493 1.63185e-06)
(-0.0138486 -0.00477304 2.28823e-06)
(-0.0139652 -0.00677588 3.05754e-06)
(-0.0138637 -0.00924576 3.74086e-06)
(-0.0132876 -0.0122891 3.8799e-06)
(-0.0117224 -0.015942 1.73483e-06)
(-0.0090528 -0.0195978 3.54666e-06)
(-0.0037576 -0.0218846 -7.50818e-06)
(-0.00516018 0.0284889 -6.37597e-05)
(-0.011792 0.0230799 -3.81941e-05)
(-0.0143409 0.018108 -1.24165e-05)
(-0.0157519 0.013523 -6.27766e-06)
(-0.0159724 0.00995301 -2.1526e-06)
(-0.0157471 0.00721213 -2.70421e-07)
(-0.0153679 0.00510134 6.10163e-07)
(-0.0150009 0.00343474 1.01402e-06)
(-0.0147316 0.00205913 1.23068e-06)
(-0.0146021 0.000850459 1.42221e-06)
(-0.0146326 -0.000296493 1.70917e-06)
(-0.0148322 -0.00148114 2.19375e-06)
(-0.0151997 -0.0028143 2.98668e-06)
(-0.0157148 -0.00442886 4.23232e-06)
(-0.0163185 -0.00650075 6.0221e-06)
(-0.0168735 -0.00926643 8.21012e-06)
(-0.0171035 -0.0130372 1.01295e-05)
(-0.0160983 -0.0182271 6.20585e-06)
(-0.0141993 -0.0239877 1.90211e-05)
(-0.00668354 -0.0310275 -1.17791e-05)
(-0.0111961 0.033544 -5.36241e-06)
(-0.0209954 0.0258318 -3.60295e-05)
(-0.0200571 0.0194089 7.90201e-06)
(-0.0202824 0.0135672 4.8308e-06)
(-0.0192257 0.00943812 6.04159e-06)
(-0.0180703 0.00654005 5.70537e-06)
(-0.0170435 0.00447848 4.91448e-06)
(-0.0162511 0.00295734 4.15447e-06)
(-0.0157227 0.00176918 3.63801e-06)
(-0.0154622 0.000766718 3.43682e-06)
(-0.015471 -0.00016449 3.63759e-06)
(-0.0157604 -0.00112468 4.38261e-06)
(-0.0163494 -0.00222664 5.77483e-06)
(-0.0172616 -0.00361701 8.18817e-06)
(-0.0185157 -0.00550914 1.1974e-05)
(-0.0200914 -0.00822938 1.66279e-05)
(-0.021902 -0.0122315 1.93088e-05)
(-0.0223889 -0.0185603 -1.25955e-06)
(-0.0242043 -0.0251753 2.26195e-05)
(-0.0129299 -0.0399406 -7.98858e-05)
(-0.0174418 0.073163 -0.000217968)
(-0.0263451 0.0308503 -5.66721e-05)
(-0.0214783 0.0204929 2.97781e-05)
(-0.019476 0.0121745 3.06274e-05)
(-0.0162047 0.00750061 2.79849e-05)
(-0.0136176 0.00483729 2.11885e-05)
(-0.0116857 0.0031672 1.54151e-05)
(-0.0103302 0.00204099 1.14307e-05)
(-0.00945863 0.00121802 9.05907e-06)
(-0.00900402 0.000555144 7.97393e-06)
(-0.00892859 -4.44764e-05 7.96652e-06)
(-0.00923113 -0.000666082 9.15445e-06)
(-0.00994481 -0.00139872 1.21325e-05)
(-0.0111321 -0.00239097 1.79207e-05)
(-0.0128787 -0.00391554 2.88222e-05)
(-0.0152103 -0.00653815 4.85011e-05)
(-0.0184329 -0.0112854 8.89754e-05)
(-0.0188668 -0.0210893 8.95952e-05)
(-0.0265508 -0.0348468 0.000253472)
(-0.00977638 -0.0817582 3.85622e-05)
(0.0826653 0.059816 -7.46321e-05)
(0.0769814 0.0216948 -0.000213122)
(0.11553 0.0123293 3.49825e-05)
(0.124318 0.00653119 4.41059e-05)
(0.131378 0.0035321 3.41405e-05)
(0.135919 0.00207432 2.7077e-05)
(0.138724 0.00128365 1.96555e-05)
(0.140517 0.00080779 1.42746e-05)
(0.141634 0.000489695 1.12237e-05)
(0.142246 0.000250702 9.98641e-06)
(0.142433 4.69976e-05 1.02331e-05)
(0.142213 -0.000159377 1.19791e-05)
(0.141541 -0.000400608 1.57e-05)
(0.140273 -0.000740091 2.22437e-05)
(0.138086 -0.0013114 3.3344e-05)
(0.134549 -0.00244505 4.43191e-05)
(0.127086 -0.00475551 8.12046e-05)
(0.122419 -0.0106466 -1.22478e-05)
(0.0790428 -0.0190663 7.58764e-05)
(0.0884491 -0.0574479 -0.000408758)
(-0.000206293 0.000203973 -7.00129e-08)
(-0.000638887 0.000219953 7.21893e-07)
(-0.00107899 0.000209546 9.19046e-07)
(-0.00148968 0.000193131 9.58456e-07)
(-0.0018618 0.000171923 9.05429e-07)
(-0.00218638 0.000146591 7.94203e-07)
(-0.00245578 0.000117852 6.44042e-07)
(-0.00266385 8.64466e-05 4.66668e-07)
(-0.00280594 5.3118e-05 2.70182e-07)
(-0.00287893 1.85978e-05 6.10787e-08)
(-0.00288113 -1.63894e-05 -1.55039e-07)
(-0.00281234 -5.11166e-05 -3.72978e-07)
(-0.00267383 -8.48426e-05 -5.86132e-07)
(-0.00246839 -0.000116801 -7.86688e-07)
(-0.00220038 -0.000146201 -9.64408e-07)
(-0.00187581 -0.000172238 -1.1048e-06)
(-0.0015023 -0.000194125 -1.18526e-06)
(-0.00108892 -0.000211122 -1.1686e-06)
(-0.000645156 -0.000221931 -9.80021e-07)
(-0.000208419 -0.000206002 -1.85771e-07)
(-0.000233041 0.000645282 -9.02324e-07)
(-0.000720665 0.000694597 -7.43254e-08)
(-0.00121565 0.000661639 1.75986e-07)
(-0.00167733 0.00060965 2.79104e-07)
(-0.00209536 0.000542519 3.03722e-07)
(-0.00245972 0.000462411 2.82509e-07)
(-0.0027619 0.000371621 2.3314e-07)
(-0.00299513 0.000272502 1.65154e-07)
(-0.00315432 0.000167388 8.41923e-08)
(-0.00323607 5.85697e-05 -5.46247e-09)
(-0.00323853 -5.16999e-05 -1.0184e-07)
(-0.0031615 -0.000161164 -2.016e-07)
(-0.00300633 -0.000267516 -3.00808e-07)
(-0.00277606 -0.000368363 -3.94132e-07)
(-0.00247546 -0.000461219 -4.73577e-07)
(-0.00211113 -0.000543536 -5.26447e-07)
(-0.00169155 -0.000612801 -5.31177e-07)
(-0.00122686 -0.000666622 -4.5046e-07)
(-0.000727743 -0.000700849 -2.09459e-07)
(-0.000235436 -0.000651707 6.2636e-07)
(-0.000245292 0.00112891 -1.23914e-06)
(-0.000758483 0.00121357 -3.70844e-07)
(-0.00127907 0.0011556 -9.15222e-08)
(-0.00176398 0.00106431 3.65342e-08)
(-0.00220243 0.000946599 8.78365e-08)
(-0.002584 0.000806382 9.70994e-08)
(-0.00290002 0.000647739 8.20852e-08)
(-0.00314366 0.000474803 5.189e-08)
(-0.0033099 0.000291624 1.13392e-08)
(-0.00339537 0.000102124 -3.69424e-08)
(-0.00339826 -8.98618e-05 -9.156e-08)
(-0.00331832 -0.000280506 -1.5062e-07)
(-0.00315683 -0.000465883 -2.11362e-07)
(-0.00291668 -0.00064189 -2.69454e-07)
(-0.00260257 -0.000804215 -3.17591e-07)
(-0.00222108 -0.000948386 -3.43276e-07)
(-0.00178084 -0.00106993 -3.24305e-07)
(-0.00129237 -0.00116452 -2.21522e-07)
(-0.000766891 -0.00122479 4.32787e-08)
(-0.000248132 -0.00114046 9.20006e-07)
(-0.000263466 0.0016396 -1.50003e-06)
(-0.000814447 0.00176136 -5.73641e-07)
(-0.0013727 0.00167629 -2.66177e-07)
(-0.00189168 0.00154274 -1.18272e-07)
(-0.00235983 0.00137099 -4.94816e-08)
(-0.00276623 0.00116696 -2.23156e-08)
(-0.00310205 0.000936727 -1.74866e-08)
(-0.00336052 0.000686327 -2.57675e-08)
(-0.00353675 0.000421557 -4.2773e-08)
(-0.00362752 0.000147941 -6.67253e-08)
(-0.00363112 -0.000129191 -9.70436e-08)
(-0.00354722 -0.000404536 -1.32757e-07)
(-0.00337692 -0.000672634 -1.72148e-07)
(-0.00312288 -0.000927703 -2.11581e-07)
(-0.00278952 -0.00116356 -2.43994e-07)
(-0.00238329 -0.00137365 -2.56399e-07)
(-0.00191296 -0.00155132 -2.24937e-07)
(-0.00138955 -0.00168999 -1.07048e-07)
(-0.00082511 -0.00177865 1.81602e-07)
(-0.000267066 -0.00165741 1.12116e-06)
(-0.000288956 0.00219389 -1.76028e-06)
(-0.00089281 0.00235538 -7.49761e-07)
(-0.00150349 0.00223977 -4.10484e-07)
(-0.00206956 0.00205908 -2.43838e-07)
(-0.00257838 0.00182762 -1.61719e-07)
(-0.00301847 0.00155377 -1.2174e-07)
(-0.00338087 0.00124594 -1.02705e-07)
(-0.00365907 0.000912286 -9.49589e-08)
(-0.00384854 0.000560383 -9.45708e-08)
(-0.00394637 0.000197285 -1.00537e-07)
(-0.00395099 -0.000170332 -1.13034e-07)
(-0.00386201 -0.000535872 -1.32343e-07)
(-0.00368023 -0.000892492 -1.57799e-07)
(-0.00340782 -0.0012328 -1.86459e-07)
(-0.00304871 -0.00154868 -2.11376e-07)
(-0.00260901 -0.00183131 -2.18606e-07)
(-0.00209746 -0.00207139 -1.81644e-07)
(-0.00152567 -0.00225961 -5.29832e-08)
(-0.000906887 -0.00238053 2.62198e-07)
(-0.00029371 -0.00221984 1.29092e-06)
(-0.000322865 0.00280753 -2.06118e-06)
(-0.000996855 0.00301202 -9.38662e-07)
(-0.00167659 0.00286079 -5.61316e-07)
(-0.00230403 0.0026259 -3.74254e-07)
(-0.00286515 0.00232667 -2.78799e-07)
(-0.00334791 0.00197468 -2.26718e-07)
(-0.00374354 0.00158117 -1.94199e-07)
(-0.00404608 0.00115665 -1.7091e-07)
(-0.00425175 0.000710509 -1.53323e-07)
(-0.00435824 0.000251178 -1.4136e-07)
(-0.00436428 -0.000213601 -1.365e-07)
(-0.00426938 -0.000676255 -1.40567e-07)
(-0.00407386 -0.00112884 -1.54196e-07)
(-0.00377908 -0.00156252 -1.75391e-07)
(-0.00338802 -0.00196722 -1.97418e-07)
(-0.002906 -0.00233153 -2.05124e-07)
(-0.00234147 -0.002643 -1.68723e-07)
(-0.00170652 -0.0028887 -3.29066e-08)
(-0.00101593 -0.00304764 3.12564e-07)
(-0.000329311 -0.00284439 1.4591e-06)
(-0.000366799 0.00349878 -2.43608e-06)
(-0.00113131 0.00375007 -1.17016e-06)
(-0.00189929 0.00355583 -7.46466e-07)
(-0.00260392 0.00325671 -5.3507e-07)
(-0.00322961 0.00287861 -4.23748e-07)
(-0.00376396 0.00243734 -3.56826e-07)
(-0.0041989 0.00194772 -3.07377e-07)
(-0.00452974 0.00142287 -2.64429e-07)
(-0.00475401 0.000873992 -2.25096e-07)
(-0.00487048 0.000310564 -1.90773e-07)
(-0.00487842 -0.00025907 -1.64759e-07)
(-0.00477725 -0.000826902 -1.50755e-07)
(-0.00456649 -0.00138437 -1.51169e-07)
(-0.0042462 -0.00192154 -1.65491e-07)
(-0.00381772 -0.00242642 -1.87715e-07)
(-0.0032848 -0.0028847 -2.01506e-07)
(-0.00265489 -0.00328 -1.71803e-07)
(-0.00194034 -0.00359453 -3.34472e-08)
(-0.00115761 -0.00379992 3.44376e-07)
(-0.000375704 -0.00355059 1.64011e-06)
(-0.000423129 0.00428977 -2.92011e-06)
(-0.00130307 0.00459189 -1.4745e-06)
(-0.00218198 0.00434375 -9.94084e-07)
(-0.00298155 0.00396619 -7.51699e-07)
(-0.00368453 0.00349399 -6.18621e-07)
(-0.00427881 0.00294882 -5.30009e-07)
(-0.00475801 0.00234996 -4.55576e-07)
(-0.00511981 0.00171351 -3.84031e-07)
(-0.00536406 0.00105228 -3.13964e-07)
(-0.0054913 0.000376233 -2.4887e-07)
(-0.00550175 -0.000306453 -1.94207e-07)
(-0.00539469 -0.000988201 -1.55913e-07)
(-0.00516849 -0.00166065 -1.38949e-07)
(-0.00482112 -0.00231337 -1.45235e-07)
(-0.00435119 -0.00293272 -1.69874e-07)
(-0.00375959 -0.00350118 -1.95533e-07)
(-0.00305162 -0.0039974 -1.81735e-07)
(-0.00223897 -0.00439695 -4.94842e-08)
(-0.00133987 -0.00466135 3.59356e-07)
(-0.000435631 -0.00436238 1.83853e-06)
(-0.00049544 0.00520828 -3.56032e-06)
(-0.0015224 0.00556484 -1.89272e-06)
(-0.00253969 0.0052465 -1.34173e-06)
(-0.00345405 0.00477011 -1.05663e-06)
(-0.00424699 0.00418295 -8.89999e-07)
(-0.004908 0.00351478 -7.66255e-07)
(-0.00543421 0.00279054 -6.51917e-07)
(-0.00582742 0.00202955 -5.3678e-07)
(-0.00609129 0.00124573 -4.21968e-07)
(-0.00622921 0.000448651 -3.13421e-07)
(-0.00624286 -0.000354927 -2.18938e-07)
(-0.00613145 -0.00115921 -1.46728e-07)
(-0.00589166 -0.00195733 -1.05205e-07)
(-0.00551826 -0.00273941 -9.94694e-08)
(-0.00500553 -0.00349078 -1.27775e-07)
(-0.00434949 -0.00419058 -1.73004e-07)
(-0.00355108 -0.00481126 -1.89705e-07)
(-0.0026197 -0.00531921 -7.85957e-08)
(-0.00157462 -0.00566158 3.52951e-07)
(-0.000513276 -0.00531032 2.05025e-06)
(-0.000589322 0.00629073 -4.42831e-06)
(-0.00180491 0.0067034 -2.49018e-06)
(-0.00299448 0.00628982 -1.84662e-06)
(-0.00404553 0.005685 -1.4962e-06)
(-0.00493987 0.00495411 -1.27264e-06)
(-0.00567122 0.00413814 -1.08838e-06)
(-0.00624325 0.00326901 -9.08652e-07)
(-0.00666462 0.00236925 -7.26708e-07)
(-0.00694496 0.00145294 -5.46976e-07)
(-0.00709197 0.000527709 -3.77875e-07)
(-0.00710961 -0.000402922 -2.28926e-07)
(-0.00699709 -0.00133692 -1.10066e-07)
(-0.00674869 -0.00227093 -3.36292e-08)
(-0.00635458 -0.00319742 -8.35693e-09)
(-0.00580235 -0.00410189 -3.94132e-08)
(-0.00508009 -0.00496043 -1.13627e-07)
(-0.00418075 -0.0057381 -1.80185e-07)
(-0.00310808 -0.00638862 -1.16897e-07)
(-0.00188023 -0.0068384 3.12422e-07)
(-0.000615271 -0.00643506 2.25785e-06)
(-0.000713928 0.00758714 -5.64235e-06)
(-0.00217524 0.00805224 -3.3796e-06)
(-0.00357945 0.00750398 -2.60003e-06)
(-0.00479029 0.00672701 -2.13805e-06)
(-0.00579387 0.0058125 -1.81095e-06)
(-0.0065931 0.0048167 -1.51934e-06)
(-0.00720311 0.00377969 -1.23218e-06)
(-0.0076435 0.00272653 -9.48807e-07)
(-0.00793283 0.00166967 -6.77642e-07)
(-0.00808508 0.000612332 -4.27745e-07)
(-0.00810749 -0.000447883 -2.07931e-07)
(-0.00799946 -0.00151542 -2.80189e-08)
(-0.00775215 -0.00259329 1.02249e-07)
(-0.00734922 -0.00367916 1.64983e-07)
(-0.00676855 -0.00476119 1.38808e-07)
(-0.00598572 -0.00581363 2.73676e-08)
(-0.00497988 -0.00679333 -1.19098e-07)
(-0.00374282 -0.00763719 -1.51284e-07)
(-0.00228613 -0.00824125 2.26142e-07)
(-0.000752685 -0.00779361 2.42135e-06)
(-0.000885198 0.00917021 -7.41375e-06)
(-0.00267391 0.00967032 -4.76254e-06)
(-0.00434534 0.00892389 -3.747e-06)
(-0.00573764 0.00790933 -3.07774e-06)
(-0.0068502 0.00675584 -2.55428e-06)
(-0.00770404 0.00553938 -2.07197e-06)
(-0.00833343 0.00430871 -1.61083e-06)
(-0.00877465 0.00308908 -1.17922e-06)
(-0.00905916 0.00188779 -7.86395e-07)
(-0.00920952 0.000700048 -4.35497e-07)
(-0.00923737 -0.000485989 -1.28931e-07)
(-0.00914249 -0.00168484 1.31233e-07)
(-0.00891243 -0.00290962 3.40664e-07)
(-0.00852248 -0.00416738 4.66886e-07)
(-0.00793683 -0.00545336 4.71736e-07)
(-0.00711224 -0.00674376 3.2518e-07)
(-0.00600505 -0.00798772 5.9186e-08)
(-0.00458375 -0.00910114 -1.49053e-07)
(-0.00284154 -0.00993555 9.26474e-08)
(-0.000945314 -0.00947084 2.46149e-06)
(-0.0011333 0.0111531 -1.01541e-05)
(-0.00337079 0.0116351 -6.99583e-06)
(-0.00537119 0.0105875 -5.50564e-06)
(-0.00695908 0.00923663 -4.43497e-06)
(-0.00816385 0.00776782 -3.53614e-06)
(-0.00904025 0.00628092 -2.72301e-06)
(-0.00965342 0.00483037 -1.99573e-06)
(-0.0100644 0.00343581 -1.3637e-06)
(-0.0103219 0.00209374 -8.2166e-07)
(-0.0104589 0.000786405 -3.5487e-07)
(-0.0104924 -0.000511865 5.01033e-08)
(-0.0104231 -0.00182999 4.14499e-07)
(-0.0102347 -0.00319596 7.27175e-07)
(-0.00989296 -0.00463181 9.54548e-07)
(-0.00934491 -0.00614678 1.03852e-06)
(-0.00852008 -0.00772688 8.97905e-07)
(-0.00733818 -0.00931984 4.87562e-07)
(-0.00572457 -0.010818 -3.76996e-08)
(-0.00363323 -0.0120065 -8.22988e-08)
(-0.00123206 -0.0116024 2.23341e-06)
(-0.00152106 0.0137211 -1.4646e-05)
(-0.00439303 0.0140459 -1.07385e-05)
(-0.00678074 0.0125298 -8.16879e-06)
(-0.00855822 0.0106933 -6.31199e-06)
(-0.00980597 0.0088079 -4.71126e-06)
(-0.0106415 0.00699434 -3.36559e-06)
(-0.0111785 0.00530168 -2.27012e-06)
(-0.0115113 0.00373338 -1.39504e-06)
(-0.0117086 0.00226659 -6.91803e-07)
(-0.0118151 0.000864149 -1.10941e-07)
(-0.0118538 -0.000518507 4.0201e-07)
(-0.0118266 -0.00192923 8.84725e-07)
(-0.0117142 -0.00341612 1.33698e-06)
(-0.0114733 -0.0050235 1.73013e-06)
(-0.0110319 -0.00678483 1.98134e-06)
(-0.0102853 -0.00870956 1.94062e-06)
(-0.00909726 -0.0107603 1.42416e-06)
(-0.00731236 -0.012817 3.64082e-07)
(-0.00482244 -0.0145622 -6.35076e-08)
(-0.00169645 -0.0144178 1.28119e-06)
(-0.00218265 0.0172301 -2.2513e-05)
(-0.00597968 0.0170276 -1.73883e-05)
(-0.0087684 0.0147654 -1.20169e-05)
(-0.0106822 0.012222 -8.63553e-06)
(-0.0118629 0.00979512 -5.81898e-06)
(-0.0125465 0.00759942 -3.71534e-06)
(-0.0129144 0.00565569 -2.18262e-06)
(-0.0130995 0.00393298 -1.07062e-06)
(-0.0131911 0.00237664 -2.41539e-07)
(-0.013244 0.000922484 4.21745e-07)
(-0.0132858 -0.00049757 1.03019e-06)
(-0.0133207 -0.00195391 1.64441e-06)
(-0.013329 -0.00351952 2.29999e-06)
(-0.0132617 -0.00526883 2.98291e-06)
(-0.013031 -0.0072735 3.58097e-06)
(-0.0124956 -0.00958898 3.84468e-06)
(-0.0114469 -0.0122246 3.37854e-06)
(-0.00957935 -0.0150905 1.48681e-06)
(-0.00671919 -0.0177207 9.89254e-07)
(-0.0025217 -0.0183309 -1.55883e-06)
(-0.00344367 0.0219161 -3.29829e-05)
(-0.00863436 0.0206289 -2.84224e-05)
(-0.0116404 0.0172337 -1.66458e-05)
(-0.0135302 0.0136856 -1.07042e-05)
(-0.0144286 0.0105811 -6.07196e-06)
(-0.0147809 0.00796831 -3.10862e-06)
(-0.0148449 0.00579559 -1.22886e-06)
(-0.0147902 0.00396877 -2.81107e-08)
(-0.0147189 0.00238558 7.93317e-07)
(-0.0146892 0.00094707 1.45073e-06)
(-0.01473 -0.000440527 2.10195e-06)
(-0.0148484 -0.00187026 2.8757e-06)
(-0.015029 -0.00344154 3.855e-06)
(-0.0152271 -0.00526537 5.06551e-06)
(-0.0153518 -0.00746755 6.39325e-06)
(-0.0152362 -0.0101819 7.46608e-06)
(-0.0145999 -0.0135248 7.55998e-06)
(-0.0128777 -0.0175378 4.44837e-06)
(-0.00994526 -0.0215444 5.91438e-06)
(-0.00412957 -0.0239954 -8.94289e-06)
(-0.00564937 0.0311679 -8.71932e-05)
(-0.0129423 0.0253378 -5.51352e-05)
(-0.015774 0.0198912 -2.09649e-05)
(-0.0173341 0.0148483 -1.05414e-05)
(-0.0175757 0.0109246 -3.58338e-06)
(-0.0173266 0.00791236 -1.4148e-07)
(-0.0169079 0.00559275 1.53862e-06)
(-0.0165031 0.00376126 2.35928e-06)
(-0.016206 0.0022493 2.84211e-06)
(-0.0160629 0.000920417 3.29572e-06)
(-0.0160957 -0.000341082 3.93878e-06)
(-0.016314 -0.00164455 4.95278e-06)
(-0.016716 -0.0031116 6.48309e-06)
(-0.0172791 -0.00488799 8.69253e-06)
(-0.0179382 -0.00716647 1.15944e-05)
(-0.0185422 -0.0102062 1.47568e-05)
(-0.0187909 -0.0143485 1.70349e-05)
(-0.0176807 -0.0200558 1.14041e-05)
(-0.0156011 -0.0263692 2.52083e-05)
(-0.00735231 -0.034036 -1.44125e-05)
(-0.0122697 0.0365201 -2.30318e-05)
(-0.0230453 0.0283642 -5.47963e-05)
(-0.0220493 0.0213272 2.09344e-06)
(-0.0223145 0.0149055 2.88765e-06)
(-0.0211454 0.0103661 7.05306e-06)
(-0.0198716 0.00717891 8.08393e-06)
(-0.0187397 0.00491204 7.75115e-06)
(-0.0178665 0.00323973 7.07619e-06)
(-0.0172842 0.00193354 6.58836e-06)
(-0.0169969 0.000831241 6.53047e-06)
(-0.0170056 -0.000193072 7.09764e-06)
(-0.0173225 -0.0012497 8.59778e-06)
(-0.0179675 -0.00246228 1.11258e-05)
(-0.0189656 -0.00399154 1.5139e-05)
(-0.020337 -0.00607066 2.09033e-05)
(-0.0220586 -0.00905605 2.73164e-05)
(-0.0240435 -0.0134397 3.02378e-05)
(-0.0245605 -0.0203985 3.82601e-06)
(-0.0265485 -0.0276432 2.89815e-05)
(-0.0141464 -0.0439513 -9.68333e-05)
(-0.0194538 0.0796967 -0.000271582)
(-0.0288994 0.0337339 -8.44685e-05)
(-0.0235992 0.0225006 2.40945e-05)
(-0.021331 0.0133703 3.20062e-05)
(-0.0176805 0.00823944 3.31659e-05)
(-0.014805 0.0053137 2.72008e-05)
(-0.0126599 0.00347693 2.1128e-05)
(-0.0111556 0.00223813 1.65979e-05)
(-0.0101879 0.00133301 1.38456e-05)
(-0.00968071 0.000603916 1.27192e-05)
(-0.00959116 -5.57874e-05 1.30773e-05)
(-0.00991614 -0.000739501 1.52465e-05)
(-0.0106899 -0.0015452 1.99274e-05)
(-0.011978 -0.00263547 2.83262e-05)
(-0.0138692 -0.00430832 4.29794e-05)
(-0.016378 -0.0071858 6.76219e-05)
(-0.0198635 -0.0123799 0.000115157)