/*--------------------------------*- C++ -*----------------------------------*\
  =========                 |
  \\      /  F ield         | OpenFOAM: The Open Source CFD Toolbox
   \\    /   O peration     | Website:  https://openfoam.org
    \\  /    A nd           | Version:  10
     \\/     M anipulation  |
\*---------------------------------------------------------------------------*/
FoamFile
{
    format      ascii;
    class       surfaceScalarField;
    location    "7.575";
    object      phi;
}
// * * * * * * * * * * * * * * * * * * * * * * * * * * * * * * * * * * * * * //

dimensions      [0 3 -1 0 0 0 0];

internalField   nonuniform List<scalar> 
22800
(
-2.77912e-06
3.46133e-06
-6.8011e-07
-8.78335e-06
6.28726e-06
-2.83034e-07
-1.59195e-05
7.20935e-06
-7.32119e-08
-2.35143e-05
7.55446e-06
4.03851e-08
-3.13023e-05
7.74871e-06
3.92755e-08
-3.91685e-05
7.91221e-06
-4.60042e-08
-4.70069e-05
8.03255e-06
-1.9415e-07
-5.46349e-05
8.05259e-06
-4.24652e-07
-6.17753e-05
7.8939e-06
-7.53495e-07
-6.80377e-05
7.46417e-06
-1.20175e-06
-7.29094e-05
6.6625e-06
-1.79082e-06
-7.57656e-05
5.39233e-06
-2.53607e-06
-7.59137e-05
3.58568e-06
-3.43759e-06
-7.26787e-05
1.23457e-06
-4.4696e-06
-6.55494e-05
-1.5751e-06
-5.55424e-06
-5.44052e-05
-4.58e-06
-6.56413e-06
-3.98356e-05
-7.30504e-06
-7.26457e-06
-2.34486e-05
-9.01034e-06
-7.37668e-06
-8.05274e-06
-8.72218e-06
-6.67368e-06
-4.22541e-06
-3.82733e-06
-5.44577e-06
1.08003e-05
-1.89316e-06
-1.55941e-05
1.81637e-05
-1.72813e-06
-2.74103e-05
2.0595e-05
-1.56944e-06
-3.98734e-05
2.14394e-05
-1.42183e-06
-5.2537e-05
2.17866e-05
-1.37428e-06
-6.51666e-05
2.19488e-05
-1.40686e-06
-7.75401e-05
2.19199e-05
-1.51392e-06
-8.93529e-05
2.15765e-05
-1.71109e-06
-0.000100175
2.074e-05
-2.02394e-06
-0.000109425
1.91972e-05
-2.48324e-06
-0.000116356
1.67143e-05
-3.12061e-06
-0.000120062
1.30582e-05
-3.9603e-06
-0.000119578
8.10815e-06
-5.0057e-06
-0.000113995
1.89819e-06
-6.2471e-06
-0.000102563
-5.44994e-06
-7.55748e-06
-8.51376e-05
-1.32457e-05
-8.75927e-06
-6.2593e-05
-2.02837e-05
-9.56591e-06
-3.72687e-05
-2.47185e-05
-9.61613e-06
-1.3343e-05
-2.40855e-05
-8.56236e-06
-1.30759e-05
-4.49247e-06
-6.35806e-06
1.97235e-05
-2.56522e-06
-1.80447e-05
3.24118e-05
-2.56142e-06
-3.15547e-05
3.65458e-05
-2.44081e-06
-4.57357e-05
3.78888e-05
-2.26834e-06
-6.01008e-05
3.83313e-05
-2.17969e-06
-7.4401e-05
3.84128e-05
-2.16388e-06
-8.84052e-05
3.81457e-05
-2.22149e-06
-0.0001018
3.7347e-05
-2.37548e-06
-0.00011414
3.57401e-05
-2.66062e-06
-0.000124807
3.29845e-05
-3.11956e-06
-0.000132997
2.87011e-05
-3.79755e-06
-0.000137722
2.25185e-05
-4.73467e-06
-0.000137824
1.41664e-05
-5.95695e-06
-0.000132096
3.61578e-06
-7.44499e-06
-0.000119547
-8.92912e-06
-9.06999e-06
-9.98002e-05
-2.23794e-05
-1.06133e-05
-7.36734e-05
-3.47226e-05
-1.16879e-05
-4.38784e-05
-4.27155e-05
-1.17981e-05
-1.55458e-05
-4.19501e-05
-1.0468e-05
-2.32961e-05
-5.32565e-06
-6.57167e-06
2.93632e-05
-3.06799e-06
-1.87709e-05
4.78246e-05
-3.21358e-06
-3.28639e-05
5.37705e-05
-3.13175e-06
-4.76668e-05
5.56392e-05
-2.94757e-06
-6.27093e-05
5.62103e-05
-2.83649e-06
-7.77794e-05
5.6278e-05
-2.79502e-06
-9.26909e-05
5.58875e-05
-2.83043e-06
-0.000107179
5.48091e-05
-2.97428e-06
-0.000120842
5.26753e-05
-3.27242e-06
-0.000133086
4.90128e-05
-3.78327e-06
-0.000143081
4.32686e-05
-4.57328e-06
-0.00014972
3.48662e-05
-5.70794e-06
-0.000151633
2.33182e-05
-7.23898e-06
-0.000147272
8.43629e-06
-9.18191e-06
-0.000135146
-9.6367e-06
-1.14185e-05
-0.000114257
-2.96519e-05
-1.3616e-05
-8.51182e-05
-4.86149e-05
-1.52467e-05
-5.07632e-05
-6.15067e-05
-1.55638e-05
-1.76173e-05
-6.12411e-05
-1.38549e-05
-3.38887e-05
-7.02479e-06
-6.49857e-06
3.9318e-05
-3.45625e-06
-1.88128e-05
6.38726e-05
-3.7337e-06
-3.30979e-05
7.17438e-05
-3.68819e-06
-4.81675e-05
7.42139e-05
-3.50509e-06
-6.35891e-05
7.50247e-05
-3.3929e-06
-7.92143e-05
7.52607e-05
-3.35746e-06
-9.49366e-05
7.50233e-05
-3.41354e-06
-0.000110581
7.40565e-05
-3.60313e-06
-0.000125836
7.19177e-05
-3.98685e-06
-0.000140183
6.80041e-05
-4.645e-06
-0.000152799
6.15613e-05
-5.67669e-06
-0.000162475
5.17325e-05
-7.19042e-06
-0.00016755
3.76776e-05
-9.2838e-06
-0.000165929
1.88158e-05
-1.20008e-05
-0.000155416
-4.85217e-06
-1.52976e-05
-0.000133986
-3.23871e-05
-1.86945e-05
-0.000101396
-5.978e-05
-2.14248e-05
-6.08581e-05
-7.97611e-05
-2.22839e-05
-2.07115e-05
-8.13708e-05
-2.00169e-05
-4.44375e-05
-1.01627e-05
-6.30206e-06
4.94235e-05
-3.80343e-06
-1.85684e-05
8.03489e-05
-4.21003e-06
-3.28934e-05
9.0271e-05
-4.20216e-06
-4.80914e-05
9.34408e-05
-4.0289e-06
-6.3776e-05
9.46395e-05
-3.93023e-06
-7.98802e-05
9.52881e-05
-3.92313e-06
-9.64059e-05
9.55811e-05
-4.03212e-06
-0.000113309
9.52718e-05
-4.31255e-06
-0.000130422
9.38761e-05
-4.84512e-06
-0.000147363
9.06865e-05
-5.74105e-06
-0.000163404
8.47493e-05
-7.14725e-06
-0.000177294
7.48664e-05
-9.2442e-06
-0.000187094
5.96958e-05
-1.22181e-05
-0.000190081
3.80085e-05
-1.62058e-05
-0.000182944
9.27282e-06
-2.12618e-05
-0.000162179
-2.62892e-05
-2.68631e-05
-0.000125876
-6.42956e-05
-3.17873e-05
-7.68108e-05
-9.4812e-05
-3.40141e-05
-2.59712e-05
-0.000101165
-3.1045e-05
-5.46933e-05
-1.57154e-05
-6.02711e-06
5.9617e-05
-4.16639e-06
-1.81492e-05
9.71856e-05
-4.71455e-06
-3.24088e-05
0.000109277
-4.74693e-06
-4.76122e-05
0.000113229
-4.58452e-06
-6.34205e-05
0.00011495
-4.50189e-06
-7.98611e-05
0.000116258
-4.52964e-06
-9.70696e-05
0.000117495
-4.70528e-06
-0.000115175
0.000118479
-5.10189e-06
-0.000134222
0.00011875
-5.82743e-06
-0.000154064
0.000117566
-7.03725e-06
-0.000174195
0.000113831
-8.95027e-06
-0.000193502
0.000106034
-1.18615e-05
-0.000209909
9.22302e-05
-1.61267e-05
-0.000220058
7.02434e-05
-2.20863e-05
-0.000219086
3.82647e-05
-2.99641e-05
-0.000201885
-3.8733e-06
-3.96171e-05
-0.000162964
-5.42753e-05
-4.89408e-05
-0.000103065
-0.000100087
-5.46237e-05
-3.59061e-05
-0.00011704
-5.12846e-05
-6.45603e-05
-2.60392e-05
-5.68223e-06
6.98789e-05
-4.57969e-06
-1.75766e-05
0.000114372
-5.29169e-06
-3.16509e-05
0.000128716
-5.36406e-06
-4.66842e-05
0.000133466
-5.20355e-06
-6.23793e-05
0.00013577
-5.12532e-06
-7.88621e-05
0.000137918
-5.17684e-06
-9.64198e-05
0.000140465
-5.41241e-06
-0.000115392
0.000143379
-5.92778e-06
-0.000136104
0.000146328
-6.86586e-06
-0.000158763
0.000148666
-8.44127e-06
-0.000183274
0.000149318
-1.09761e-05
-0.000208922
0.000146625
-1.49422e-05
-0.000233886
0.000138179
-2.0985e-05
-0.000254558
0.000120784
-2.98683e-05
-0.000264939
9.08895e-05
-4.22436e-05
-0.000256218
4.58138e-05
-5.84085e-05
-0.000219604
-1.42484e-05
-7.66409e-05
-0.000148482
-8.0911e-05
-9.02984e-05
-5.6869e-05
-0.00012022
-8.8433e-05
-7.42078e-05
-4.72214e-05
-5.28728e-06
8.02382e-05
-5.07201e-06
-1.68873e-05
0.000131951
-5.97917e-06
-3.06367e-05
0.000148552
-6.08656e-06
-4.52579e-05
0.000153994
-5.90696e-06
-6.04814e-05
0.000156799
-5.80523e-06
-7.65252e-05
0.000159811
-5.84928e-06
-9.38264e-05
0.000163879
-6.11324e-06
-0.000112947
0.00016922
-6.71935e-06
-0.00013454
0.000175774
-7.85271e-06
-0.000159279
0.000183205
-9.80128e-06
-0.000187692
0.000190752
-1.30201e-05
-0.000219848
0.000197008
-1.82269e-05
-0.000254768
0.000199607
-2.65078e-05
-0.0002895
0.000194849
-3.93334e-05
-0.000317741
0.000177453
-5.83228e-05
-0.000328602
0.00014065
-8.39749e-05
-0.000304678
7.73667e-05
-0.000115539
-0.000229241
-1.34591e-05
-0.000142889
-0.000103219
-0.000100652
-0.00014559
-8.83724e-05
-8.90542e-05
-4.90313e-06
9.08212e-05
-5.67982e-06
-1.61991e-05
0.00015007
-6.82347e-06
-2.94889e-05
0.000168796
-6.95467e-06
-4.34023e-05
0.000174628
-6.72048e-06
-5.76762e-05
0.000177621
-6.54818e-06
-7.26043e-05
0.000181269
-6.52989e-06
-8.87468e-05
0.000186784
-6.76178e-06
-0.000106856
0.000194722
-7.39305e-06
-0.000127885
0.000205454
-8.65147e-06
-0.000152991
0.000219214
-1.09025e-05
-0.000183484
0.000235996
-1.47512e-05
-0.00022061
0.000255341
-2.12069e-05
-0.000265063
0.000275929
-3.18687e-05
-0.000316035
0.000294796
-4.89746e-05
-0.000369516
0.000305824
-7.48903e-05
-0.000414503
0.000295895
-0.000110258
-0.00042631
0.000238686
-0.000149512
-0.000363956
0.000104185
-0.000179999
-0.000198429
-7.89218e-05
-0.000187258
-0.000137669
-0.000149132
-4.66424e-06
0.000101948
-6.46253e-06
-1.57731e-05
0.000169074
-7.89484e-06
-2.85173e-05
0.00018957
-8.02909e-06
-4.14046e-05
0.000195201
-7.68617e-06
-5.41558e-05
0.000197746
-7.37353e-06
-6.71202e-05
0.000201445
-7.21159e-06
-8.09248e-05
0.000207907
-7.31841e-06
-9.64173e-05
0.00021808
-7.86503e-06
-0.000114724
0.000232872
-9.11076e-06
-0.000137336
0.000253304
-1.14775e-05
-0.000166192
0.000280539
-1.56873e-05
-0.000203743
0.000315788
-2.28972e-05
-0.000252974
0.000359968
-3.48074e-05
-0.000317115
0.000412161
-5.32244e-05
-0.000398034
0.000464632
-7.78897e-05
-0.000490146
0.000490011
-0.000102004
-0.000566559
0.000426308
-0.000111209
-0.000553064
0.000187742
-9.70517e-05
-0.000352339
-0.000173108
-0.000106539
-0.000322334
-0.000167674
-4.83113e-06
0.000114308
-7.52892e-06
-1.60975e-05
0.000189667
-9.32707e-06
-2.83122e-05
0.000211228
-9.44364e-06
-3.98554e-05
0.000215662
-8.91756e-06
-5.04632e-05
0.000216714
-8.3608e-06
-6.05201e-05
0.00021944
-7.93832e-06
-7.06415e-05
0.00022582
-7.79171e-06
-8.16106e-05
0.000237152
-8.10352e-06
-9.44796e-05
0.000254882
-9.14101e-06
-0.000110712
0.000280861
-1.13247e-05
-0.000132404
0.000317587
-1.53559e-05
-0.000162679
0.00036812
-2.20573e-05
-0.000206505
0.000435753
-3.19594e-05
-0.000272144
0.00052019
-4.23902e-05
-0.000372752
0.00060707
-4.18296e-05
-0.000519136
0.000643176
-6.78117e-06
-0.00069672
0.000519633
8.4259e-05
-0.000772031
8.37437e-05
0.000179309
-0.000520159
-0.000562009
0.00013703
-0.000770985
-7.15083e-05
-5.8631e-06
0.000129216
-9.04492e-06
-1.79796e-05
0.000213018
-1.12341e-05
-2.98298e-05
0.000234304
-1.1226e-05
-3.97496e-05
0.000235967
-1.03855e-05
-4.7583e-05
0.000234016
-9.46832e-06
-5.37674e-05
0.000234303
-8.67842e-06
-5.88423e-05
0.000239054
-8.15931e-06
-6.33086e-05
0.000249693
-8.07392e-06
-6.77779e-05
0.000268015
-8.66343e-06
-7.30967e-05
0.000296413
-1.02335e-05
-8.07581e-05
0.00033842
-1.31717e-05
-9.36684e-05
0.000398229
-1.71986e-05
-0.000118826
0.000480504
-1.95937e-05
-0.000172705
0.000582655
-8.58472e-06
-0.000293239
0.00068357
4.40345e-05
-0.000529378
0.000697551
0.000181763
-0.000869222
0.000458156
0.000401322
-0.00101106
-0.000315946
0.000541523
-0.000668848
-0.00129147
0.000387258
-0.00148506
4.52233e-05
-8.81822e-06
0.000149639
-1.16047e-05
-2.30074e-05
0.000241678
-1.44707e-05
-3.46683e-05
0.000260385
-1.44196e-05
-4.24748e-05
0.000256897
-1.31239e-05
-4.68274e-05
0.000249914
-1.15455e-05
-4.83337e-05
0.000245857
-1.00478e-05
-4.72999e-05
0.000246869
-8.84916e-06
-4.37798e-05
0.000254309
-8.13631e-06
-3.7658e-05
0.000269962
-8.06897e-06
-2.86437e-05
0.000296133
-8.73465e-06
-1.7027e-05
0.00033682
-1.00165e-05
-5.21866e-06
0.000396376
-9.95533e-06
-3.38112e-06
0.000480197
-1.5306e-06
-4.1584e-05
0.000583507
3.73506e-05
-0.000191695
0.000683712
0.000149968
-0.000545537
0.000669146
0.000382248
-0.00103401
0.00026932
0.000677307
-0.00118352
-0.000908539
0.000742108
-0.000812548
-0.00206191
0.00039946
-0.00230894
1.13383e-05
-1.41661e-05
0.000179134
-1.53286e-05
-3.19284e-05
0.000277507
-1.80672e-05
-4.39845e-05
0.000289964
-1.75235e-05
-5.01599e-05
0.00027843
-1.53566e-05
-5.09082e-05
0.000263729
-1.30668e-05
-4.7137e-05
0.000253008
-1.09217e-05
-3.92021e-05
0.000248065
-9.13067e-06
-2.67565e-05
0.000249697
-7.83372e-06
-8.86327e-06
0.000259229
-7.16066e-06
1.59211e-05
0.000278281
-6.93155e-06
4.85935e-05
0.000310762
-6.61442e-06
8.86126e-05
0.000359444
-3.08719e-06
0.000125354
0.000429792
1.36633e-05
0.000120544
0.000517036
7.12814e-05
-2.76045e-05
0.000610217
0.000221644
-0.000419329
0.000567333
0.000493538
-0.000940055
2.14001e-05
0.000768646
-0.00115495
-0.0013581
0.000664456
-0.000904078
-0.00257792
0.000265137
-0.00308181
-0.000131209
-3.55003e-05
0.000238021
-2.33867e-05
-5.707e-05
0.000326937
-2.78597e-05
-6.59209e-05
0.000325311
-2.64955e-05
-6.51616e-05
0.00030073
-2.30603e-05
-5.88013e-05
0.000276294
-1.89247e-05
-4.82847e-05
0.000257464
-1.49728e-05
-3.34945e-05
0.000244896
-1.16214e-05
-1.30751e-05
0.000238348
-9.07031e-06
1.49585e-05
0.000238665
-7.46971e-06
5.33031e-05
0.000246409
-6.47344e-06
0.000105211
0.000264421
-5.5664e-06
0.000172561
0.000293381
-1.28654e-06
0.000248063
0.000337909
1.63807e-05
0.000304263
0.000389683
7.11537e-05
0.000249257
0.000449535
0.000215688
-3.29748e-05
0.000394906
0.000454658
-0.000506805
-0.000156514
0.000651744
-0.000898599
-0.00145733
0.000491024
-0.000855786
-0.00280452
0.000183782
-0.00364883
-0.000288766
-3.01456e-05
0.000307166
-3.89996e-05
-6.93391e-05
0.000405247
-3.91171e-05
-8.60702e-05
0.000377349
-3.53066e-05
-8.87922e-05
0.00033114
-2.76878e-05
-7.94901e-05
0.00028872
-2.17282e-05
-6.18278e-05
0.000256092
-1.62902e-05
-3.75644e-05
0.000232469
-1.18362e-05
-6.30061e-06
0.000215613
-8.52922e-06
3.33634e-05
0.000205639
-6.63772e-06
8.50147e-05
0.000200782
-6.02388e-06
0.000152456
0.000203293
-6.31369e-06
0.000240377
0.000210474
-5.01478e-06
0.000345034
0.000226547
6.70618e-06
0.000454373
0.000238178
4.21661e-05
0.000512099
0.000249869
0.00014194
0.000410268
0.000184047
0.00031269
3.6821e-05
-0.000223334
0.000440266
-0.000499023
-0.00129418
0.000372698
-0.000686834
-0.00274081
0.000124104
-0.00390601
-0.000429652
-0.000180688
0.000536071
-4.82173e-05
-0.0001778
0.000463287
-6.09275e-05
-0.000148591
0.000407876
-5.97363e-05
-0.000115224
0.000349105
-5.13312e-05
-7.30197e-05
0.000285204
-3.86889e-05
-2.69773e-05
0.000237055
-2.70054e-05
2.1357e-05
0.000202216
-1.80811e-05
7.34654e-05
0.000175323
-1.18178e-05
0.000130638
0.00015696
-8.49419e-06
0.000197501
0.000142224
-8.30458e-06
0.000275877
0.000135313
-1.03957e-05
0.000372135
0.0001282
-1.39838e-05
0.000481573
0.000129619
-1.25103e-05
0.000597179
0.000119536
3.03558e-06
0.00069255
0.000103778
5.07199e-05
0.000703001
1.75058e-05
0.00015609
0.000511447
-0.000253372
0.000221593
-5.29548e-06
-0.00102562
0.000248182
-0.000378468
-0.00241475
4.71086e-05
-0.00371842
-0.000566064
-0.000370977
0.0010778
-0.000170752
-0.000261503
0.000481117
-0.000127304
-0.000105899
0.000350699
-9.84277e-05
6.50815e-05
0.000248931
-7.08064e-05
0.000227966
0.000175516
-5.31963e-05
0.000377393
0.000126872
-3.92433e-05
0.000511629
9.68335e-05
-2.88542e-05
0.000633396
7.5179e-05
-2.16226e-05
0.000745145
6.22655e-05
-1.7054e-05
0.000852111
5.09485e-05
-1.56912e-05
0.000957966
4.67092e-05
-1.72511e-05
0.00106856
4.01692e-05
-2.25619e-05
0.00118724
3.89756e-05
-2.80375e-05
0.00130742
2.74905e-05
-2.81328e-05
0.00142308
6.58689e-06
-1.84711e-05
0.00148365
-6.77771e-05
2.47119e-05
0.00141104
-0.000257223
7.64564e-05
0.00100758
-0.000730669
0.000108514
0.000277297
-0.00168437
-9.64087e-08
-0.00274645
-0.000694671
0.00122686
-0.000149065
0.0018682
-0.000160217
0.00237834
-0.000159446
0.00277225
-0.000144979
0.00307529
-0.000127517
0.00331482
-0.000112659
0.00351018
-9.85333e-05
0.00367339
-8.80294e-05
0.00381302
-7.73589e-05
0.00393516
-7.11974e-05
0.00404584
-6.39663e-05
0.00414855
-6.25418e-05
0.00424489
-5.73618e-05
0.00433125
-5.88733e-05
0.00438598
-4.81445e-05
0.00436607
-4.78691e-05
0.00413508
-2.62328e-05
0.00346117
-5.67587e-05
0.001895
-0.000118193
-0.000851451
-4.73964e-06
5.43475e-06
-1.37522e-06
-1.49553e-05
1.11842e-05
-1.25156e-06
-2.7131e-05
1.31633e-05
-1.06082e-06
-3.98752e-05
1.37287e-05
-9.44011e-07
-5.27059e-05
1.38425e-05
-9.72583e-07
-6.5433e-05
1.38087e-05
-1.12758e-06
-7.78567e-05
1.36364e-05
-1.40685e-06
-8.96857e-05
1.3233e-05
-1.8287e-06
-0.00010049
1.24728e-05
-2.42231e-06
-0.000109681
1.12102e-05
-3.22062e-06
-0.000116509
9.29046e-06
-4.25369e-06
-0.000120077
6.5712e-06
-5.53843e-06
-0.000119411
2.95978e-06
-7.06422e-06
-0.000113565
-1.54002e-06
-8.77489e-06
-0.00010185
-6.73476e-06
-1.05346e-05
-8.41444e-05
-1.21348e-05
-1.21351e-05
-6.13131e-05
-1.68274e-05
-1.32685e-05
-3.57765e-05
-1.93429e-05
-1.35704e-05
-1.2202e-05
-1.75984e-05
-1.26497e-05
-7.75081e-06
-8.27851e-06
-1.07321e-05
1.71743e-05
-2.90068e-06
-2.99566e-05
3.19532e-05
-3.27268e-06
-5.22514e-05
3.70494e-05
-3.16075e-06
-7.53639e-05
3.84095e-05
-2.99019e-06
-9.83832e-05
3.84446e-05
-2.95702e-06
-0.000120831
3.79189e-05
-3.06928e-06
-0.000142262
3.68905e-05
-3.33718e-06
-0.000162116
3.51703e-05
-3.79391e-06
-0.000179659
3.24763e-05
-4.4851e-06
-0.000193947
2.8477e-05
-5.46138e-06
-0.000203831
2.28223e-05
-6.76929e-06
-0.00020796
1.51769e-05
-8.43643e-06
-0.000204977
5.42127e-06
-1.04502e-05
-0.000193568
-6.43021e-06
-1.27661e-05
-0.000172778
-1.99253e-05
-1.51566e-05
-0.000142566
-3.3772e-05
-1.73349e-05
-0.000104355
-4.57442e-05
-1.88592e-05
-6.1912e-05
-5.22071e-05
-1.91953e-05
-2.24196e-05
-4.79877e-05
-1.76656e-05
-2.37775e-05
-1.08853e-05
-1.32369e-05
3.16499e-05
-3.80394e-06
-3.63749e-05
5.70225e-05
-4.4927e-06
-6.29528e-05
6.56268e-05
-4.44027e-06
-9.03261e-05
6.77469e-05
-4.2324e-06
-0.00011745
6.75312e-05
-4.1424e-06
-0.000143776
6.62779e-05
-4.19707e-06
-0.000168803
6.41143e-05
-4.41796e-06
-0.00019192
6.07633e-05
-4.85164e-06
-0.000212331
5.57871e-05
-5.56038e-06
-0.000229015
4.86565e-05
-6.61538e-06
-0.000240704
3.88007e-05
-8.0866e-06
-0.000245926
2.56923e-05
-1.00286e-05
-0.000243013
9.01072e-06
-1.24594e-05
-0.000230268
-1.13095e-05
-1.53102e-05
-0.000206416
-3.44962e-05
-1.83511e-05
-0.000171093
-5.84977e-05
-2.12105e-05
-0.000125708
-7.95323e-05
-2.32854e-05
-7.46794e-05
-9.12221e-05
-2.38111e-05
-2.69164e-05
-8.43781e-05
-2.18406e-05
-4.28908e-05
-1.31288e-05
-1.41467e-05
4.72619e-05
-4.53326e-06
-3.8927e-05
8.4091e-05
-5.50183e-06
-6.73253e-05
9.64034e-05
-5.51e-06
-9.65421e-05
9.93004e-05
-5.28429e-06
-0.00012553
9.88442e-05
-5.16141e-06
-0.000153781
9.69193e-05
-5.18516e-06
-0.00018085
9.37424e-05
-5.39025e-06
-0.000206181
8.89598e-05
-5.8395e-06
-0.00022903
8.19807e-05
-6.61703e-06
-0.000248391
7.20581e-05
-7.82409e-06
-0.000262939
5.8345e-05
-9.56936e-06
-0.000271001
3.99993e-05
-1.19523e-05
-0.000270585
1.63962e-05
-1.50412e-05
-0.000259482
-1.27746e-05
-1.88195e-05
-0.000235521
-4.6855e-05
-2.30206e-05
-0.000197507
-8.2981e-05
-2.71466e-05
-0.000146362
-0.0001156
-3.03235e-05
-8.70806e-05
-0.00013473
-3.13377e-05
-3.08752e-05
-0.000125677
-2.87611e-05
-6.38148e-05
-1.69759e-05
-1.44315e-05
6.33951e-05
-5.15791e-06
-3.99966e-05
0.000112315
-6.39269e-06
-6.93615e-05
0.000128543
-6.4629e-06
-9.96526e-05
0.000132322
-6.23587e-06
-0.000129871
0.000131777
-6.10817e-06
-0.000159606
0.000129439
-6.14154e-06
-0.000188535
0.000125644
-6.38654e-06
-0.000216236
0.000119985
-6.92715e-06
-0.000242089
0.000111725
-7.87751e-06
-0.000265174
9.98806e-05
-9.38224e-06
-0.000284151
8.32568e-05
-1.16114e-05
-0.000297144
6.05413e-05
-1.47403e-05
-0.000301653
3.05389e-05
-1.89173e-05
-0.00029469
-7.5173e-06
-2.42211e-05
-0.000272761
-5.36735e-05
-3.04079e-05
-0.000233121
-0.000104507
-3.68084e-05
-0.000175473
-0.000152562
-4.21108e-05
-0.000105111
-0.00018312
-4.4256e-05
-3.66802e-05
-0.0001734
-4.0725e-05
-8.72052e-05
-2.34526e-05
-1.45198e-05
7.98718e-05
-5.76034e-06
-4.06112e-05
0.000141466
-7.26938e-06
-7.07101e-05
0.000161846
-7.40639e-06
-0.000101886
0.000166658
-7.1891e-06
-0.000133207
0.000166244
-7.07521e-06
-0.000164402
0.000163857
-7.14686e-06
-0.000195322
0.000160006
-7.47434e-06
-0.000225751
0.000154271
-8.1689e-06
-0.000255287
0.0001458
-9.38511e-06
-0.000283195
0.000133377
-1.13287e-05
-0.000308232
0.000115407
-1.42612e-05
-0.000328395
8.99501e-05
-1.84894e-05
-0.000340667
5.49225e-05
-2.43296e-05
-0.000341107
8.72109e-06
-3.2005e-05
-0.000324319
-5.02446e-05
-4.14784e-05
-0.000285016
-0.000118789
-5.18845e-05
-0.00022027
-0.000187849
-6.12462e-05
-0.000134453
-0.00023702
-6.59314e-05
-4.68249e-05
-0.00023107
-6.10032e-05
-0.000115838
-3.39074e-05
-1.45492e-05
9.66661e-05
-6.41151e-06
-4.11082e-05
0.000171535
-8.22474e-06
-7.18812e-05
0.000196305
-8.4332e-06
-0.000103867
0.000202285
-8.22493e-06
-0.000136213
0.000202213
-8.12502e-06
-0.000168813
0.000200167
-8.23986e-06
-0.00020175
0.000196902
-8.66404e-06
-0.000235097
0.000192059
-9.5432e-06
-0.000268785
0.000184746
-1.10849e-05
-0.000302439
0.000173573
-1.35792e-05
-0.000335122
0.000156562
-1.74221e-05
-0.000364968
0.000131063
-2.31287e-05
-0.000388687
9.38066e-05
-3.12913e-05
-0.000401035
4.14085e-05
-4.24256e-05
-0.000394991
-2.90645e-05
-5.71882e-05
-0.000361258
-0.000117564
-7.45752e-05
-0.000291674
-0.000214772
-9.16017e-05
-0.000185954
-0.000295514
-0.00010185
-6.72583e-05
-0.000305839
-9.52111e-05
-0.000158224
-5.09115e-05
-1.45529e-05
0.000113803
-7.16423e-06
-4.15716e-05
0.000202592
-9.33002e-06
-7.29677e-05
0.000231947
-9.60986e-06
-0.000105636
0.000239144
-9.39387e-06
-0.0001388
0.000239537
-9.28535e-06
-0.000172544
0.000238153
-9.41937e-06
-0.00020723
0.000236095
-9.91932e-06
-0.000243305
0.000233178
-1.09716e-05
-0.000281182
0.000228606
-1.28484e-05
-0.000321071
0.00022097
-1.59493e-05
-0.000362682
0.000208053
-2.0857e-05
-0.000404748
0.000186586
-2.84e-05
-0.00044431
0.000152056
-3.96724e-05
-0.000475646
9.88753e-05
-5.59986e-05
-0.000490234
2.17439e-05
-7.84645e-05
-0.000474114
-8.51429e-05
-0.00010695
-0.000410091
-0.000218409
-0.000137026
-0.000283908
-0.000354852
-0.000157143
-0.000113801
-0.000415957
-0.000148423
-0.000240245
-7.90014e-05
-1.45622e-05
0.000131364
-8.07009e-06
-4.20623e-05
0.000234768
-1.06553e-05
-7.40012e-05
0.000268798
-1.09988e-05
-0.000107118
0.000277093
-1.07391e-05
-0.000140702
0.000277889
-1.05727e-05
-0.000175035
0.000277305
-1.0668e-05
-0.000210789
0.000276915
-1.118e-05
-0.000248852
0.00027686
-1.23382e-05
-0.000290261
0.000276648
-1.44862e-05
-0.000336073
0.000275131
-1.81501e-05
-0.00038711
0.000270215
-2.41442e-05
-0.000443472
0.000258439
-3.37179e-05
-0.000503712
0.000234487
-4.86982e-05
-0.000563646
0.00019087
-7.13945e-05
-0.000614194
0.000117915
-0.000103945
-0.000640905
4.51141e-06
-0.000146918
-0.000608768
-0.00017525
-0.000190835
-0.000473002
-0.000416592
-0.000216915
-0.00021953
-0.000611756
-0.000203263
-0.000428622
-0.000120207
-1.46611e-05
0.000149542
-9.19666e-06
-4.2739e-05
0.000268313
-1.229e-05
-7.51317e-05
0.000306916
-1.26795e-05
-0.000108358
0.000315916
-1.23167e-05
-0.000141751
0.000316746
-1.20122e-05
-0.000175786
0.000316781
-1.19718e-05
-0.00021144
0.000318189
-1.23821e-05
-0.000250058
0.000321598
-1.35118e-05
-0.000293367
0.000327072
-1.57675e-05
-0.000343478
0.000334134
-1.97945e-05
-0.000402824
0.000341452
-2.66423e-05
-0.000473891
0.000346311
-3.80129e-05
-0.000558695
0.00034392
-5.6497e-05
-0.000657813
0.000326306
-8.52932e-05
-0.000767444
0.000278612
-0.000125955
-0.00086853
0.000166893
-0.000171553
-0.000910581
-8.09084e-05
-0.000201804
-0.000785161
-0.00052771
-0.0001943
-0.000412459
-0.000995151
-0.000176566
-0.000836407
-0.000153806
-1.50328e-05
0.00016876
-1.0648e-05
-4.39534e-05
0.000303703
-1.43641e-05
-7.67556e-05
0.000346455
-1.47659e-05
-0.000109675
0.000355361
-1.4212e-05
-0.000142068
0.000355419
-1.36536e-05
-0.000174584
0.000355424
-1.33383e-05
-0.000208454
0.00035822
-1.34796e-05
-0.000245407
0.000365056
-1.43706e-05
-0.000287787
0.000376793
-1.64509e-05
-0.000338759
0.000394056
-2.04275e-05
-0.000402576
0.000417054
-2.74721e-05
-0.000484832
0.000445134
-3.94645e-05
-0.000592821
0.000475995
-5.88935e-05
-0.000735177
0.000502243
-8.68054e-05
-0.000915717
0.000496895
-0.000115633
-0.0011136
0.000379742
-0.000116969
-0.00124316
-1.29752e-05
-4.95891e-05
-0.00113357
-0.000778868
4.4524e-05
-0.000642423
-0.00159828
5.44148e-06
-0.00152131
-0.000125197
-1.60413e-05
0.000189871
-1.25989e-05
-4.63801e-05
0.000341819
-1.71042e-05
-7.96549e-05
0.000387768
-1.74823e-05
-0.000111795
0.000395201
-1.66171e-05
-0.000142221
0.000393123
-1.5639e-05
-0.000171733
0.000391852
-1.48547e-05
-0.000201715
0.000394915
-1.45041e-05
-0.00023409
0.000404208
-1.48814e-05
-0.000271544
0.000421511
-1.64053e-05
-0.000317947
0.000448856
-1.97222e-05
-0.000379017
0.000488596
-2.58278e-05
-0.000463014
0.000543002
-3.59274e-05
-0.000581774
0.000612559
-4.97642e-05
-0.000749939
0.000686657
-5.86388e-05
-0.000975927
0.000713072
-3.20179e-05
-0.00123684
0.000547848
8.60302e-05
-0.00143584
-3.86409e-05
0.000308917
-0.00133554
-0.0011553
0.00045544
-0.000777818
-0.00226738
0.000248409
-0.00234957
-2.106e-05
-1.82389e-05
0.00021437
-1.53044e-05
-5.10239e-05
0.00038409
-2.0721e-05
-8.50696e-05
0.000431518
-2.09299e-05
-0.000116042
0.000435352
-1.9564e-05
-0.00014347
0.000429066
-1.79837e-05
-0.000168312
0.000424558
-1.65425e-05
-0.000192008
0.00042593
-1.54793e-05
-0.000216373
0.000435547
-1.50469e-05
-0.000243871
0.000455916
-1.55711e-05
-0.000278182
0.000490377
-1.74431e-05
-0.000325099
0.000543322
-2.09804e-05
-0.000393349
0.000619385
-2.5332e-05
-0.000496411
0.000720212
-2.41848e-05
-0.00065146
0.000827245
5.87484e-06
-0.000879152
0.000862316
0.000122483
-0.00117143
0.000633995
0.000387891
-0.00143419
-0.000105219
0.000730665
-0.0013519
-0.00148001
0.000783939
-0.000798735
-0.0027541
0.000320812
-0.00313582
3.27332e-05
-2.33387e-05
0.000245547
-1.94435e-05
-6.04392e-05
0.000433016
-2.6296e-05
-9.53051e-05
0.000478337
-2.63727e-05
-0.000124044
0.000475256
-2.42889e-05
-0.000147106
0.000462296
-2.17131e-05
-0.00016575
0.000452328
-1.9174e-05
-0.000181135
0.000449451
-1.69848e-05
-0.0001945
0.000456166
-1.53906e-05
-0.000207521
0.00047543
-1.45621e-05
-0.000222626
0.000511238
-1.44908e-05
-0.000244118
0.000569293
-1.44956e-05
-0.000278745
0.000654998
-1.09413e-05
-0.000339641
0.000770781
8.79664e-06
-0.000447878
0.000889567
8.32658e-05
-0.000646229
0.000929131
0.000281503
-0.000946416
0.000672739
0.000643691
-0.00124178
-0.000127251
0.000994701
-0.00118574
-0.00162409
0.000830152
-0.000741711
-0.00300549
0.00020682
-0.00380595
-6.02397e-05
-2.99361e-05
0.00028535
-2.51949e-05
-7.33268e-05
0.000491326
-3.29866e-05
-0.000110952
0.000530918
-3.24792e-05
-0.000139178
0.000517307
-2.91822e-05
-0.000157924
0.000493429
-2.54535e-05
-0.000169033
0.000474279
-2.17632e-05
-0.000173932
0.000463651
-1.84314e-05
-0.000173448
0.00046349
-1.56419e-05
-0.000168088
0.000476366
-1.34556e-05
-0.000158189
0.000505893
-1.14859e-05
-0.000145403
0.000558145
-8.25249e-06
-0.000132509
0.000637367
1.65052e-06
-0.000130724
0.000747606
3.5053e-05
-0.000162244
0.000858715
0.000133654
-0.000287632
0.000910642
0.000365521
-0.000526499
0.000670276
0.000734868
-0.000782123
-9.56371e-05
0.000992656
-0.000835761
-0.00156087
0.000654874
-0.000588858
-0.00308748
0.000100221
-0.00431976
-0.000206261
-6.34774e-05
0.000360866
-3.54255e-05
-0.000113637
0.00055966
-4.60335e-05
-0.000145657
0.000581208
-4.47651e-05
-0.000163085
0.000551694
-4.00188e-05
-0.000171527
0.000517071
-3.41243e-05
-0.000172968
0.000488896
-2.81488e-05
-0.000167519
0.00046925
-2.26699e-05
-0.000154089
0.000458977
-1.79871e-05
-0.000131216
0.000460207
-1.41828e-05
-9.64125e-05
0.000475237
-1.0621e-05
-4.78672e-05
0.000509855
-5.82186e-06
1.6109e-05
0.000565916
6.18813e-06
9.07132e-05
0.000648562
4.08205e-05
0.000158307
0.000732199
0.000130076
0.000178685
0.000772033
0.000333918
6.84269e-05
0.000598087
0.000637105
-0.000105182
-5.6743e-05
0.000786459
-0.000344755
-0.00129625
0.000465981
-0.000326278
-0.002973
5.08257e-05
-0.00462093
-0.000313874
-4.38619e-05
0.000419353
-5.36253e-05
-0.000124613
0.000665388
-6.40943e-05
-0.000176054
0.00065695
-5.9608e-05
-0.000201446
0.000599572
-5.0174e-05
-0.000207966
0.000543495
-4.1633e-05
-0.000200603
0.000498587
-3.33453e-05
-0.000181827
0.000464591
-2.59538e-05
-0.000151488
0.000439842
-1.97328e-05
-0.000108326
0.000425372
-1.49655e-05
-4.82338e-05
0.000420229
-1.11084e-05
3.2899e-05
0.000429596
-7.18725e-06
0.000139533
0.000452649
1.61838e-06
0.000274349
0.000494157
2.62958e-05
0.000429282
0.000532996
8.64357e-05
0.000575172
0.000548539
0.000219545
0.000626544
0.00043201
0.000427394
0.000511268
-1.60238e-05
0.000514823
0.000186816
-0.000927845
0.000328742
4.04224e-05
-0.00271872
1.62262e-05
-0.00462656
-0.000383591
-0.000191472
0.000624304
-6.16958e-05
-0.000220356
0.000717271
-8.39274e-05
-0.000239615
0.00070186
-8.53863e-05
-0.000250732
0.000635218
-7.58604e-05
-0.000236944
0.000552859
-6.18399e-05
-0.000204244
0.000486708
-4.78263e-05
-0.000157134
0.000435221
-3.58205e-05
-9.57739e-05
0.000393048
-2.63833e-05
-2.15583e-05
0.000362682
-2.00195e-05
6.83808e-05
0.000338157
-1.61715e-05
0.000175975
0.000326347
-1.47409e-05
0.000308066
0.000319663
-1.30886e-05
0.000465156
0.000328408
-3.85164e-06
0.000641317
0.000334062
2.5808e-05
0.000828469
0.000324747
8.73592e-05
0.000959644
0.000248003
0.000208923
0.00100335
-7.98707e-05
0.000241732
0.00083151
-0.000684464
0.000176644
0.000517242
-0.00234747
-9.87828e-06
-0.00423679
-0.000438593
-0.00066687
0.00128589
-0.000165466
-0.000626488
0.000706026
-0.000156441
-0.000484244
0.000590924
-0.000129737
-0.000286513
0.000473177
-0.000106496
-7.97646e-05
0.000381727
-8.8813e-05
0.000125431
0.000315028
-7.27594e-05
0.000322755
0.000268691
-5.96483e-05
0.000511633
0.0002317
-4.91532e-05
0.00069287
0.000205802
-4.14113e-05
0.000868825
0.000183219
-3.67078e-05
0.00104391
0.000169347
-3.5334e-05
0.00122021
0.000157265
-3.64613e-05
0.00140994
0.000150015
-3.93836e-05
0.00160558
0.000142263
-3.19704e-05
0.00182144
0.000112116
-2.16998e-05
0.0020151
5.74954e-05
2.15563e-05
0.00210261
-0.000150538
5.96204e-05
0.00204624
-0.00055923
3.965e-05
0.00139147
-0.00166317
-2.96279e-05
-0.00305631
-0.000483683
0.0012696
-0.000132774
0.00196971
-0.000154306
0.00256019
-0.000158995
0.0030409
-0.000152518
0.0034373
-0.000142184
0.00377085
-0.000131186
0.0040607
-0.000119689
0.00431486
-0.000110495
0.00454379
-0.000100482
0.00475017
-9.43617e-05
0.0049416
-8.60501e-05
0.00512145
-8.51212e-05
0.00529126
-7.71582e-05
0.00545647
-8.18172e-05
0.00558864
-6.82055e-05
0.00567654
-7.82701e-05
0.00555509
-5.53225e-05
0.00503995
-0.000100849
0.00337282
-0.000114235
-0.00053494
-5.3769e-06
5.74224e-06
-1.74056e-06
-1.71375e-05
1.25716e-05
-2.0625e-06
-3.11529e-05
1.49712e-05
-2.01668e-06
-4.57266e-05
1.55956e-05
-1.96592e-06
-6.02854e-05
1.56229e-05
-2.03658e-06
-7.46126e-05
1.54409e-05
-2.24133e-06
-8.84951e-05
1.50682e-05
-2.5925e-06
-0.00010161
1.4403e-05
-3.11663e-06
-0.000113488
1.33035e-05
-3.84825e-06