/*--------------------------------*- C++ -*----------------------------------*\
  =========                 |
  \\      /  F ield         | OpenFOAM: The Open Source CFD Toolbox
   \\    /   O peration     | Website:  https://openfoam.org
    \\  /    A nd           | Version:  10
     \\/     M anipulation  |
\*---------------------------------------------------------------------------*/
FoamFile
{
    format      ascii;
    class       volScalarField;
    location    "6.075";
    object      p;
}
// * * * * * * * * * * * * * * * * * * * * * * * * * * * * * * * * * * * * * //

dimensions      [0 2 -2 0 0 0 0];

internalField   nonuniform List<scalar> 
475
(
-0.058091
-0.0834495
-0.112907
-0.136524
-0.159327
-0.0838743
-0.0971562
-0.11336
-0.132429
-0.149396
-0.0819237
-0.0913597
-0.106215
-0.123718
-0.140088
-0.081321
-0.0920912
-0.106789
-0.122353
-0.135836
-0.0514772
-0.0783116
-0.101955
-0.119553
-0.132297
-0.177475
-0.18758
-0.1919
-0.195787
-0.202079
-0.210995
-0.219853
-0.225229
-0.225307
-0.219528
-0.208029
-0.191924
-0.17351
-0.155281
-0.138401
-0.123091
-0.110878
-0.104018
-0.101388
-0.0999158
-0.0976041
-0.0920862
-0.0826636
-0.0717232
-0.0610485
-0.0505077
-0.0395097
-0.0282467
-0.0181463
-0.0106182
-0.00574874
-0.00251364
0.000342178
0.00337157
0.00629445
0.0085381
0.00975327
0.00996083
0.00939842
0.00834392
0.00701304
0.00554286
0.00398651
0.00240101
0.000800065
-0.165849
-0.177532
-0.183905
-0.186941
-0.189238
-0.191676
-0.193561
-0.193352
-0.190597
-0.18489
-0.176503
-0.166548
-0.156573
-0.147434
-0.138654
-0.130396
-0.124516
-0.122105
-0.121808
-0.121067
-0.118164
-0.110853
-0.0991401
-0.0853899
-0.0713462
-0.0574767
-0.0439179
-0.0309841
-0.0197176
-0.0112193
-0.00544545
-0.00133293
0.00225217
0.00573458
0.00882784
0.0110339
0.0120857
0.0120441
0.0111735
0.00977863
0.00810677
0.00631642
0.0044907
0.00267411
0.000890625
-0.15339
-0.16309
-0.168819
-0.171384
-0.171707
-0.170674
-0.168309
-0.164573
-0.159704
-0.154276
-0.149908
-0.147512
-0.147629
-0.14524
-0.138519
-0.134755
-0.135797
-0.136999
-0.136421
-0.133512
-0.127166
-0.117071
-0.103025
-0.0877357
-0.0724978
-0.0576702
-0.0432786
-0.0300012
-0.0188195
-0.0102714
-0.00408299
0.000570183
0.00448111
0.00797052
0.0108661
0.0128268
0.0136685
0.0134488
0.0123971
0.0107931
0.00889531
0.00687385
0.00484332
0.00285592
0.000931266
-0.146611
-0.15429
-0.158922
-0.160629
-0.159356
-0.155848
-0.150045
-0.142782
-0.134462
-0.128021
-0.125326
-0.131079
-0.145771
-0.148557
-0.134647
-0.123063
-0.124383
-0.132983
-0.138951
-0.138917
-0.132994
-0.120874
-0.105087
-0.0878619
-0.071072
-0.055266
-0.0408668
-0.0282405
-0.0177412
-0.00951865
-0.00325659
0.00165085
0.00573522
0.0092099
0.011962
0.0137593
0.0144755
0.0141669
0.013035
0.0113304
0.00932144
0.00718052
0.00502774
0.00294494
0.000939932
-0.141837
-0.148644
-0.152881
-0.153993
-0.152037
-0.147058
-0.139679
-0.130462
-0.120936
-0.11338
-0.111105
-0.120402
-0.138486
-0.148168
-0.145863
-0.139638
-0.135391
-0.134319
-0.134413
-0.131562
-0.1245
-0.11349
-0.099294
-0.0835896
-0.0678382
-0.0528552
-0.0391573
-0.0271333
-0.0170834
-0.00904448
-0.00273996
0.00228045
0.00641501
0.00982368
0.0124291
0.0140673
0.0146527
0.0142505
0.0130592
0.0113285
0.00928213
0.00713358
0.00499032
0.00291145
0.000917845
-0.204689
-0.205852
-0.207698
-0.210038
-0.215847
-0.225879
-0.237679
-0.247086
-0.250089
-0.244459
-0.229438
-0.205496
-0.174265
-0.13857
-0.102063
-0.0682787
-0.0395787
-0.017305
-0.00205612
0.00675761
0.0104957
0.0107469
0.0090673
0.00677946
0.00472143
0.00311012
0.00199113
0.000818653
-0.000866746
-0.00286352
-0.00490405
-0.00636352
-0.00698194
-0.00668518
-0.00566123
-0.00403853
-0.00214136
-0.00025781
0.00132475
0.0024178
0.00294984
0.00295505
0.00251273
0.00172378
0.00067783
-0.197735
-0.200302
-0.203301
-0.208789
-0.217813
-0.230754
-0.244183
-0.254481
-0.2583
-0.253696
-0.239744
-0.216128
-0.184636
-0.148147
-0.110386
-0.0757551
-0.0463482
-0.0234562
-0.00765242
0.00165083
0.00592451
0.00674881
0.00553219
0.00381126
0.0027494
0.00226362
0.001293
-0.000474506
-0.00247362
-0.00422728
-0.0050701
-0.00525253
-0.00526666
-0.00523171
-0.00477653
-0.00369348
-0.00204088
-0.000199004
0.00140942
0.00251851
0.00304217
0.00302239
0.00255732
0.00174374
0.000681242
-0.206509
-0.20498
-0.205755
-0.210318
-0.220833
-0.235583
-0.250136
-0.261474
-0.265776
-0.261149
-0.246876
-0.223266
-0.19242
-0.156815
-0.120175
-0.0866527
-0.0583069
-0.036145
-0.0209153
-0.0119399
-0.00755375
-0.00612025
-0.00628091
-0.00691274
-0.00711907
-0.00664549
-0.00582217
-0.00503301
-0.0045065
-0.00404172
-0.0036655
-0.00349815
-0.00349942
-0.00345127
-0.00294428
-0.00187643
-0.000418155
0.0010986
0.00237219
0.00317493
0.00345445
0.00324695
0.00266082
0.00176687
0.000658303
-0.193619
-0.195841
-0.19781
-0.203861
-0.214727
-0.229344
-0.243678
-0.254685
-0.259481
-0.256368
-0.244051
-0.222332
-0.194029
-0.162132
-0.12951
-0.0999185
-0.0753429
-0.0562291
-0.0433077
-0.0358446
-0.0316421
-0.029045
-0.027093
-0.0250267
-0.0224322
-0.019157
-0.015482
-0.0118899
-0.00891872
-0.00660588
-0.0047741
-0.00328221
-0.00197527
-0.000732878
0.000492903
0.00171498
0.0028872
0.00384271
0.00441991
0.00458818
0.00435734
0.00376268
0.00294369
0.00188247
0.000657063
-0.228143
-0.206217
-0.203479
-0.204663
-0.21236
-0.225416
-0.238255
-0.247061
-0.24982
-0.245414
-0.233269
-0.213555
-0.189007
-0.162725
-0.136717
-0.113279
-0.0946747
-0.0817673
-0.0735717
-0.0686589
-0.0650498
-0.0609062
-0.0555584
-0.0492737
-0.0425776
-0.0354966
-0.0277248
-0.0201487
-0.0137468
-0.00899365
-0.00574032
-0.00331803
-0.00108785
0.00122064
0.00346236
0.00532653
0.00654744
0.00707232
0.00699998
0.00649592
0.00568412
0.00466906
0.00342768
0.00210822
0.000706592
)
;

boundaryField
{
    inlet
    {
        type            zeroGradient;
    }
    outlet
    {
        type            fixedValue;
        value           uniform 0;
    }
    upperWall
    {
        type            zeroGradient;
    }
    lowerWall
    {
        type            zeroGradient;
    }
    frontAndBack
    {
        type            empty;
    }
}


// ************************************************************************* //
