/*--------------------------------*- C++ -*----------------------------------*\
  =========                 |
  \\      /  F ield         | OpenFOAM: The Open Source CFD Toolbox
   \\    /   O peration     | Website:  https://openfoam.org
    \\  /    A nd           | Version:  10
     \\/     M anipulation  |
\*---------------------------------------------------------------------------*/
FoamFile
{
    format      ascii;
    class       volVectorField;
    location    "7.975";
    object      U;
}
// * * * * * * * * * * * * * * * * * * * * * * * * * * * * * * * * * * * * * //

dimensions      [0 1 -1 0 0 0 0];

internalField   nonuniform List<vector> 
8000
(
(-7.63675e-05 0.000101609 -3.55052e-05)
(-0.000527483 0.000212561 1.41939e-06)
(-0.00127094 0.000247905 1.92128e-05)
(-0.00203563 0.000263101 2.84389e-05)
(-0.00283838 0.000275341 2.90505e-05)
(-0.00365793 0.000289445 2.40118e-05)
(-0.00448517 0.000304547 1.46896e-05)
(-0.00530644 0.0003177 7.05065e-07)
(-0.00609857 0.000325049 -1.91122e-05)
(-0.0068267 0.000322014 -4.62743e-05)
(-0.00744218 0.000303381 -8.2386e-05)
(-0.00788217 0.000263965 -0.00012873)
(-0.00807232 0.000200441 -0.000185592)
(-0.00793386 0.000111567 -0.000251432)
(-0.00739646 -9.08517e-07 -0.000320938)
(-0.00641892 -0.000125998 -0.000384523)
(-0.00502162 -0.00024043 -0.000427597)
(-0.00335053 -0.000310173 -0.0004321)
(-0.0014854 -0.000294029 -0.000383519)
(-0.000247525 -9.71388e-05 -0.000201058)
(-0.00018315 0.000658832 -0.000114513)
(-0.000983869 0.00114668 -9.59228e-05)
(-0.00221335 0.00130953 -8.38045e-05)
(-0.00347659 0.00137339 -7.42508e-05)
(-0.00479157 0.00140998 -7.11991e-05)
(-0.00612001 0.00143993 -7.26561e-05)
(-0.00744172 0.00146203 -7.78887e-05)
(-0.00873164 0.00146655 -8.77382e-05)
(-0.00995207 0.00143977 -0.000103817)
(-0.0110495 0.00136527 -0.000128219)
(-0.0119518 0.00122494 -0.000163306)
(-0.0125667 0.00100121 -0.000211193)
(-0.0127877 0.000680268 -0.000272837)
(-0.0125057 0.000259906 -0.000347768)
(-0.0116218 -0.000240998 -0.000429738)
(-0.0100758 -0.000773965 -0.000505152)
(-0.00790004 -0.00125066 -0.000554382)
(-0.00530621 -0.00153867 -0.000552286)
(-0.00241546 -0.00147581 -0.000477085)
(-0.000442184 -0.000713992 -0.000213283)
(-0.000216324 0.0015837 -0.000158264)
(-0.00114411 0.00261617 -0.000149835)
(-0.00255445 0.0029613 -0.000140634)
(-0.00399473 0.00308696 -0.000130137)
(-0.00548904 0.00314382 -0.000124824)
(-0.00699502 0.00317537 -0.000123309)
(-0.0084917 0.00318178 -0.000125215)
(-0.00995349 0.00314627 -0.000131771)
(-0.0113415 0.00304367 -0.000145088)
(-0.0125998 0.00284311 -0.000167994)
(-0.0136513 0.00251031 -0.000203757)
(-0.0143968 0.00201174 -0.000255597)
(-0.0147148 0.00132171 -0.000326044)
(-0.0144687 0.000436566 -0.000415238)
(-0.0135269 -0.00060721 -0.000515627)
(-0.0117987 -0.00171842 -0.000611557)
(-0.00929574 -0.00272079 -0.000676357)
(-0.00625682 -0.00334039 -0.000675605)
(-0.00281929 -0.00323492 -0.000580027)
(-0.000492735 -0.0017057 -0.000247191)
(-0.000219711 0.00255976 -0.000189287)
(-0.0011844 0.00417262 -0.000189752)
(-0.00265587 0.00470415 -0.000183174)
(-0.00415507 0.00488876 -0.000172386)
(-0.00571429 0.00496466 -0.000165963)
(-0.00729281 0.00500032 -0.000163049)
(-0.00887452 0.00499845 -0.00016363)
(-0.0104394 0.00493642 -0.000169353)
(-0.0119543 0.00477855 -0.000182913)
(-0.0133675 0.0044793 -0.000208048)
(-0.0146034 0.00398609 -0.000249373)
(-0.0155562 0.00324502 -0.00031182)
(-0.0160872 0.00221268 -0.000399633)
(-0.0160285 0.000874473 -0.00051461)
(-0.0152016 -0.000729682 -0.000653118)
(-0.0134474 -0.00247864 -0.000789473)
(-0.010713 -0.00409939 -0.000887713)
(-0.00725156 -0.0051443 -0.000896866)
(-0.00320825 -0.00503803 -0.000773202)
(-0.000508866 -0.00265395 -0.000332134)
(-0.000209956 0.00358683 -0.000211241)
(-0.00117306 0.00581833 -0.000219461)
(-0.00265815 0.00654838 -0.000215184)
(-0.00417354 0.00679846 -0.000204688)
(-0.00575927 0.00690213 -0.000198458)
(-0.0073789 0.00695628 -0.000196167)
(-0.00902467 0.00696841 -0.000198233)
(-0.0106864 0.00691205 -0.00020687)
(-0.0123416 0.00674258 -0.000225575)
(-0.0139492 0.0064001 -0.000259317)
(-0.0154396 0.00581111 -0.000314681)
(-0.0167045 0.00489414 -0.000399385)
(-0.0175858 0.00357265 -0.000520486)
(-0.017871 0.00179895 -0.000681116)
(-0.0173147 -0.000404906 -0.000888043)
(-0.0156496 -0.00287961 -0.00109836)
(-0.0126997 -0.00527821 -0.00126382)
(-0.00870331 -0.00692498 -0.00130319)
(-0.00378776 -0.00691184 -0.00113947)
(-0.00052993 -0.00356371 -0.000502672)
(-0.000193931 0.00463142 -0.000229148)
(-0.00113769 0.00750917 -0.000244687)
(-0.00261527 0.00844996 -0.000242698)
(-0.00412806 0.00877519 -0.000233016)
(-0.00572288 0.00892123 -0.000227952)
(-0.00736902 0.00901785 -0.000227783)
(-0.00906949 0.00908089 -0.000233494)
(-0.0108275 0.00908346 -0.000248076)
(-0.0126368 0.00897517 -0.000276158)
(-0.0144737 0.00868388 -0.000324473)
(-0.0162841 0.00811441 -0.000402451)
(-0.0179664 0.00715071 -0.000522374)
(-0.019351 0.0056679 -0.000697732)
(-0.0201806 0.0035592 -0.000939963)
(-0.0200997 0.000790285 -0.00124577)
(-0.0187063 -0.00249443 -0.00160166)
(-0.0156291 -0.00588307 -0.00190888)
(-0.0109758 -0.0084276 -0.00203528)
(-0.00476954 -0.00872349 -0.00182528)
(-0.000596421 -0.00435144 -0.000828298)
(-0.000173432 0.00567987 -0.0002468)
(-0.00108669 0.00922768 -0.000270018)
(-0.00254296 0.0103913 -0.000270406)
(-0.00403782 0.0108015 -0.000261645)
(-0.00562406 0.0110056 -0.000257978)
(-0.00727715 0.0111719 -0.000260465)
(-0.00901258 0.0113297 -0.000270851)
(-0.0108503 0.0114575 -0.000293161)
(-0.0128056 0.011505 -0.000333598)
(-0.0148813 0.011394 -0.000401454)
(-0.0170523 0.0110121 -0.000510435)
(-0.0192417 0.0102078 -0.000679961)
(-0.0212861 0.00879455 -0.000934707)
(-0.0228963 0.00657559 -0.00129841)
(-0.0236212 0.00340575 -0.00178317)
(-0.0228696 -0.000687227 -0.00239723)
(-0.0199436 -0.00523326 -0.00299732)
(-0.0146339 -0.00911976 -0.00336203)
(-0.0066125 -0.0101814 -0.00314307)
(-0.0008505 -0.0049569 -0.00148883)
(-0.000148711 0.0067259 -0.000266269)
(-0.00102224 0.0109669 -0.00029804)
(-0.00244437 0.0123629 -0.000300715)
(-0.00390265 0.0128637 -0.000292348)
(-0.00545494 0.0131366 -0.000289418)
(-0.0070822 0.0133954 -0.000293993)
(-0.00881277 0.0136902 -0.000308805)
(-0.0106855 0.0140126 -0.000339222)
(-0.0127418 0.0143233 -0.000393475)
(-0.01502 0.0145506 -0.000484275)
(-0.0175404 0.014579 -0.000631395)
(-0.0202792 0.0142355 -0.000865007)
(-0.0231209 0.0132775 -0.00122818)
(-0.0257925 0.0113984 -0.00177325)
(-0.0277866 0.00827945 -0.00254843)
(-0.0282749 0.00372504 -0.00356977)
(-0.0262036 -0.00203777 -0.00476788)
(-0.0206775 -0.00777344 -0.00571097)
(-0.0104211 -0.0105404 -0.00566826)
(-0.00174801 -0.00532045 -0.00292185)
(-0.000120761 0.00776724 -0.000289081)
(-0.000948195 0.0127243 -0.000330659)
(-0.00232432 0.0143562 -0.000335227)
(-0.00372309 0.0149429 -0.00032597)
(-0.00520659 0.0152832 -0.000322101)
(-0.00675933 0.0156451 -0.000326951)
(-0.00842099 0.0161067 -0.000344448)
(-0.0102482 0.0166831 -0.000381504)
(-0.0123097 0.0173603 -0.000448758)
(-0.0146845 0.0180939 -0.000563082)
(-0.0174527 0.0187951 -0.000751755)
(-0.0206724 0.0193071 -0.00105891)
(-0.0243344 0.0193756 -0.00155337)
(-0.0282787 0.0186199 -0.00233128)
(-0.0320726 0.0165333 -0.00350143)
(-0.0348516 0.0125371 -0.00514964)
(-0.0350128 0.00613923 -0.00725464)
(-0.0305117 -0.00218346 -0.0094116)
(-0.0183951 -0.00869002 -0.0100551)
(-0.00441308 -0.00564123 -0.0060584)
(-9.27595e-05 0.00880874 -0.000317164)
(-0.000875097 0.0145052 -0.000370135)
(-0.00219811 0.016365 -0.000375829)
(-0.00351223 0.0170159 -0.000363511)
(-0.00488387 0.0174021 -0.00035586)
(-0.006298 0.0178544 -0.00035774)
(-0.00780199 0.0184874 -0.000374453)
(-0.00946558 0.01935 -0.000414505)
(-0.0113784 0.0204693 -0.000490878)
(-0.0136545 0.0218547 -0.000624409)
(-0.0164337 0.023486 -0.000849752)
(-0.0198745 0.0252891 -0.00122508)
(-0.0241286 0.0270971 -0.00184411)
(-0.0292795 0.0285776 -0.0028431)
(-0.0352233 0.0290958 -0.00438921)
(-0.0414099 0.0274404 -0.0066462)
(-0.0461064 0.0214469 -0.00970399)
(-0.0453193 0.0091929 -0.0131464)
(-0.0331767 -0.00534525 -0.0149767)
(-0.0105525 -0.00743002 -0.0111732)
(-7.18219e-05 0.00986977 -0.000353876)
(-0.000825255 0.0163299 -0.000420065)
(-0.00209911 0.018391 -0.000425582)
(-0.00330534 0.019059 -0.00040693)
(-0.00451727 0.0194393 -0.000391272)
(-0.00571699 0.0199358 -0.00038537)
(-0.00695424 0.0207042 -0.000395927)
(-0.00830194 0.0218345 -0.000432768)
(-0.00985565 0.0234089 -0.000510464)
(-0.0117441 0.0255152 -0.000651883)
(-0.0141411 0.028246 -0.000894445)
(-0.017278 0.0316865 -0.00129901)
(-0.0214698 0.0358811 -0.00195099)
(-0.0271512 0.0406803 -0.00293245)
(-0.0348827 0.0452791 -0.00428285)
(-0.0451105 0.0471722 -0.00601465)
(-0.0564259 0.0408203 -0.00848311)
(-0.0629827 0.0198816 -0.0116334)
(-0.0538768 -0.0100236 -0.0136962)
(-0.0198439 -0.0190277 -0.0138206)
(-7.2308e-05 0.0109984 -0.000405776)
(-0.000840541 0.0182506 -0.000488031)
(-0.00208829 0.0204597 -0.000492172)
(-0.00316962 0.0210633 -0.000462843)
(-0.00417372 0.0213474 -0.000433005)
(-0.00507822 0.0217975 -0.000412499)
(-0.00593115 0.0226115 -0.000409599)
(-0.00679467 0.0239202 -0.000434891)
(-0.0077464 0.025865 -0.000503215)
(-0.00889235 0.0286234 -0.000635421)
(-0.010386 0.0324293 -0.000861059)
(-0.0124573 0.0375634 -0.0012145)
(-0.0155179 0.044318 -0.00168456)
(-0.0203882 0.0526049 -0.0020661)
(-0.0285992 0.0609614 -0.00189639)
(-0.0424874 0.0642098 -0.000662675)
(-0.0633643 0.0525773 0.000679436)
(-0.0830453 0.0148898 0.00171055)
(-0.0764559 -0.0370737 0.00373142)
(-0.0277995 -0.0523553 -0.00654343)
(-0.000120522 0.012276 -0.000483034)
(-0.000990004 0.0203302 -0.000580867)
(-0.00226138 0.0225751 -0.000577187)
(-0.00321124 0.0229799 -0.000528959)
(-0.00396457 0.0230389 -0.000477689)
(-0.00449645 0.0233143 -0.000436478)
(-0.00485379 0.0240307 -0.000413852)
(-0.00507448 0.0253481 -0.000419221)
(-0.00519055 0.0274516 -0.000466064)
(-0.00523821 0.030585 -0.000566799)
(-0.00528944 0.0350983 -0.00072796)
(-0.00548837 0.0414018 -0.000912197)
(-0.00632004 0.0499275 -0.000914924)
(-0.0090997 0.0603005 7.92253e-06)
(-0.0172197 0.0701317 0.00302596)
(-0.0368201 0.0712973 0.00931526)
(-0.0740124 0.049784 0.0181999)
(-0.107405 -0.0167781 0.0287833)
(-0.096402 -0.101562 0.0293549)
(-0.0341475 -0.114048 0.00466519)
(-0.000281724 0.0139169 -0.000620949)
(-0.00142472 0.0228583 -0.000753147)
(-0.00279143 0.025033 -0.000748417)
(-0.0035877 0.0250831 -0.000673489)
(-0.00403269 0.024719 -0.0005825)
(-0.00412379 0.0245973 -0.000499538)
(-0.00390733 0.0249736 -0.000438624)
(-0.00338255 0.0260203 -0.00041158)
(-0.00252291 0.0279348 -0.000427542)
(-0.0012623 0.0309717 -0.000485509)
(0.000439996 0.0355427 -0.000564089)
(0.00258792 0.0420693 -0.00053421)
(0.00458563 0.050995 3.36107e-05)
(0.00468792 0.0616552 0.00247454)
(-0.00313366 0.0710816 0.00873021)
(-0.0298956 0.0684449 0.0208301)
(-0.0839378 0.0288884 0.0381322)
(-0.122178 -0.0838784 0.0483008)
(-0.113236 -0.190202 0.0310949)
(-0.0433842 -0.198236 0.00231796)
(-0.000602459 0.0164203 -0.000832514)
(-0.00219661 0.0256748 -0.000946794)
(-0.00377295 0.0272341 -0.000908741)
(-0.00447027 0.0264715 -0.000777549)
(-0.00463284 0.0254915 -0.000642643)
(-0.00425381 0.0249072 -0.000522896)
(-0.00340987 0.0248925 -0.000432033)
(-0.00208457 0.025541 -0.000379111)
(-0.000204144 0.0269931 -0.000371565)
(0.00242749 0.029482 -0.000393364)
(0.00597388 0.0333819 -0.000418436)
(0.0106191 0.0390349 -0.000274483)
(0.0158038 0.0468669 0.000668852)
(0.0197775 0.0562001 0.00393909)
(0.0152177 0.064583 0.0125468)
(-0.0103613 0.0571262 0.0280385)
(-0.0679219 -0.0021768 0.0456982)
(-0.105107 -0.142968 0.0410786)
(-0.120819 -0.250141 0.0163867)
(-0.047634 -0.282558 -0.0130843)
(-0.0019612 0.0188894 -0.00134622)
(-0.00488003 0.0303613 -0.0015777)
(-0.00620988 0.0314766 -0.00148314)
(-0.00637865 0.0301236 -0.00126122)
(-0.00579442 0.0281288 -0.0010025)
(-0.00471044 0.0264831 -0.000764883)
(-0.00318861 0.0254197 -0.000577623)
(-0.00114562 0.0250312 -0.000454998)
(0.00160694 0.025424 -0.000396919)
(0.00539152 0.0267254 -0.000407688)
(0.0104569 0.0291967 -0.000432223)
(0.0172497 0.0329831 -0.000367729)
(0.0253438 0.0384302 0.000553603)
(0.0341236 0.0446964 0.00347475)
(0.0364593 0.0511063 0.0116969)
(0.026709 0.0424651 0.0258681)
(-0.0207266 -0.0213904 0.0384243)
(-0.0616885 -0.156019 0.028909)
(-0.111225 -0.27911 0.0101032)
(-0.0428144 -0.348564 -0.0304196)
(-0.00131557 0.0303587 -0.00236514)
(-0.00494213 0.0341182 -0.00226082)
(-0.00833605 0.0325873 -0.00202221)
(-0.00866759 0.0286579 -0.0015169)
(-0.00816537 0.0257761 -0.00113093)
(-0.00650755 0.0237354 -0.000795986)
(-0.00414276 0.0224134 -0.000544972)
(-0.00108572 0.0216151 -0.000388764)
(0.00275002 0.0213871 -0.000338559)
(0.00771196 0.0216469 -0.00041263)
(0.014032 0.0226471 -0.000567313)
(0.0223795 0.0242279 -0.00072543)
(0.0322193 0.0266103 -0.000254757)
(0.0444896 0.0285051 0.00152102)
(0.0519166 0.0299389 0.00713868)
(0.0580297 0.0213979 0.0174009)
(0.0248684 -0.0295683 0.0260796)
(-0.011377 -0.141499 0.0236541)
(-0.0890781 -0.281451 0.00482841)
(-0.0335483 -0.387916 -0.0449318)
(-0.0127797 0.0277494 -0.00312966)
(-0.0214175 0.0486802 -0.00393956)
(-0.0153634 0.0444228 -0.00377549)
(-0.0135082 0.0394465 -0.00317916)
(-0.00916218 0.0335102 -0.002329)
(-0.00446452 0.0286478 -0.00156955)
(0.000497832 0.0248662 -0.000997171)
(0.0058157 0.0219489 -0.000628069)
(0.0114743 0.0198879 -0.000476456)
(0.0180835 0.0183515 -0.000587383)
(0.0254438 0.0175111 -0.000853605)
(0.0347733 0.0168533 -0.00127685)
(0.0443997 0.016872 -0.00141268)
(0.0576357 0.0157594 -0.000757624)
(0.0638407 0.0142957 0.00204125)
(0.0782419 0.00585065 0.0086781)
(0.055014 -0.0257047 0.0139593)
(0.0463616 -0.114064 0.018333)
(-0.0517941 -0.262688 -0.000984108)
(-0.0128104 -0.399119 -0.0559648)
(-0.0466064 0.0876983 -0.0125197)
(-0.0298496 0.0397924 -0.00893391)
(-0.0205311 0.0334658 -0.00679776)
(-0.0012365 0.026391 -0.00478721)
(0.0149895 0.0199918 -0.00344261)
(0.031187 0.0156888 -0.00241059)
(0.0452445 0.0129347 -0.00166626)
(0.0585231 0.0108035 -0.00119787)
(0.0698053 0.00943546 -0.00094251)
(0.0817663 0.00815149 -0.000953788)
(0.0913301 0.00765484 -0.00116556)
(0.104339 0.00673713 -0.00163094)
(0.112408 0.00653876 -0.0020798)
(0.130327 0.00467084 -0.00227706)
(0.131625 0.0013342 -0.00167494)
(0.156646 -0.00863277 0.00174526)
(0.130851 -0.03452 0.0055163)
(0.154177 -0.100138 0.0109635)
(0.0315651 -0.236056 -0.0033212)
(0.0356681 -0.366116 -0.0659728)
(0.117538 0.112281 -0.0111983)
(0.144142 0.0598847 -0.0118667)
(0.216017 0.0394984 -0.011756)
(0.260823 0.0262072 -0.0105901)
(0.293406 0.0173736 -0.00915835)
(0.321002 0.0113999 -0.00794251)
(0.34148 0.00768932 -0.00681543)
(0.361109 0.00514045 -0.00595379)
(0.37369 0.00365645 -0.00515971)
(0.390209 0.00246202 -0.00461998)
(0.396919 0.0019154 -0.00418639)
(0.414307 0.00133121 -0.00391698)
(0.41446 0.00107129 -0.00382956)
(0.436345 0.000393579 -0.00355563)
(0.424455 -0.000984303 -0.00344623)
(0.450523 -0.00461853 -0.00256025)
(0.406306 -0.0132207 -0.00178692)
(0.417384 -0.0324859 -0.00164081)
(0.250168 -0.0723679 -0.00961594)
(0.166878 -0.138048 -0.0759986)
(-0.000127923 0.000151835 -0.000117266)
(-0.000894762 0.000381157 -7.90659e-05)
(-0.00216537 0.00046013 -5.24492e-05)
(-0.003463 0.000485689 -3.77252e-05)
(-0.00480161 0.000498158 -3.92972e-05)
(-0.00614388 0.000510189 -5.35054e-05)
(-0.00747346 0.000521218 -7.92125e-05)
(-0.00876758 0.000526441 -0.000118156)
(-0.009989 0.000519561 -0.000173459)
(-0.0110837 0.000493177 -0.000248804)
(-0.0119788 0.00043901 -0.000347784)
(-0.0125822 0.000348985 -0.000472831)
(-0.0127876 0.000217859 -0.000623584)
(-0.012483 4.32069e-05 -0.000795026)
(-0.0115698 -0.000170184 -0.000972955)
(-0.00999249 -0.000399725 -0.00113423)
(-0.00778504 -0.000601721 -0.00124471)
(-0.00516107 -0.000707147 -0.00126394)
(-0.00226321 -0.000625325 -0.00115371)
(-0.000369408 -0.000196026 -0.000702658)
(-0.000373423 0.00103266 -0.000282659)
(-0.00191044 0.00201624 -0.000291783)
(-0.0042364 0.00236267 -0.000275283)
(-0.0066108 0.00246916 -0.000257189)
(-0.00903489 0.00249654 -0.00025329)
(-0.0114339 0.00249627 -0.000262459)
(-0.0137653 0.00247038 -0.000284912)
(-0.0159803 0.00240342 -0.000323783)
(-0.0180109 0.00227306 -0.000383745)
(-0.0197668 0.00205303 -0.000470272)
(-0.0211319 0.00171509 -0.000588837)
(-0.021965 0.00123296 -0.000743374)
(-0.0221094 0.000587835 -0.000933966)
(-0.0214085 -0.000218863 -0.0011571)
(-0.0197238 -0.00114823 -0.00139122)
(-0.0169827 -0.00210828 -0.00160363)
(-0.0132534 -0.00293067 -0.00174594)
(-0.00886397 -0.00335251 -0.00175939)
(-0.00405066 -0.00302696 -0.0015796)
(-0.000766796 -0.00134939 -0.000889498)
(-0.000472392 0.00252308 -0.000378994)
(-0.00234418 0.00458678 -0.000417816)
(-0.0051305 0.00530825 -0.000408046)
(-0.0079559 0.00551465 -0.000386975)
(-0.0108247 0.00553699 -0.000377623)
(-0.0136498 0.00548091 -0.000380659)
(-0.0163829 0.0053553 -0.00039742)
(-0.0189698 0.0051339 -0.000432319)
(-0.0213366 0.00477594 -0.000491655)
(-0.0233852 0.00423231 -0.000583043)
(-0.0249894 0.00345025 -0.00071447)
(-0.0259944 0.00238089 -0.000892817)
(-0.02622 0.000991496 -0.00112188)
(-0.0254695 -0.000711011 -0.00139694)
(-0.0235612 -0.00265377 -0.00169448)
(-0.0203811 -0.004654 -0.00197374)
(-0.015972 -0.00637461 -0.00216771)
(-0.0107075 -0.00727586 -0.00219235)
(-0.00486605 -0.00663698 -0.00195761)
(-0.000898134 -0.0032296 -0.00106793)
(-0.000502071 0.0041039 -0.00045263)
(-0.00250689 0.00732108 -0.000517471)
(-0.00548895 0.00842633 -0.000514168)
(-0.00850332 0.00872414 -0.000491865)
(-0.011565 0.00873431 -0.00047953)
(-0.0145876 0.00862076 -0.000479457)
(-0.0175286 0.00840043 -0.000494217)
(-0.0203408 0.0080375 -0.000529738)
(-0.0229573 0.00747349 -0.000594391)
(-0.0252847 0.0066354 -0.000698778)
(-0.0271962 0.0054416 -0.000854943)
(-0.0285248 0.00381255 -0.00107464)
(-0.0290623 0.00169137 -0.00136671)
(-0.0285662 -0.000925462 -0.00173237)
(-0.0267733 -0.00395795 -0.00214824)
(-0.0234615 -0.00713779 -0.00255517)
(-0.0185828 -0.0099395 -0.00285702)
(-0.0125266 -0.0114763 -0.00292014)
(-0.00560772 -0.0105416 -0.00260583)
(-0.000962162 -0.00514404 -0.00139509)
(-0.000502706 0.00576521 -0.000510752)
(-0.00255686 0.0102093 -0.000599353)
(-0.00563131 0.0117203 -0.000602249)
(-0.00874117 0.0121182 -0.000580315)
(-0.0119132 0.0121272 -0.000568019)
(-0.0150676 0.0119756 -0.000569345)
(-0.0181752 0.0116915 -0.000588341)
(-0.0212039 0.0112315 -0.000632919)
(-0.0241026 0.0105204 -0.00071431)
(-0.0267924 0.00945972 -0.000847374)
(-0.0291532 0.00793204 -0.00105048)
(-0.0310092 0.00581253 -0.00134384)
(-0.0321152 0.00299225 -0.00174562)
(-0.0321648 -0.000580372 -0.00226446)
(-0.0307721 -0.00482173 -0.00288643)
(-0.0275351 -0.0094233 -0.00352657)
(-0.0222235 -0.013643 -0.00404306)
(-0.0151771 -0.0161317 -0.00420773)
(-0.00670596 -0.0149835 -0.0037674)
(-0.0010435 -0.00719985 -0.00196975)
(-0.000492827 0.00746098 -0.000562803)
(-0.00256609 0.0131893 -0.000674829)
(-0.00569743 0.0151293 -0.000684145)
(-0.00887289 0.0156423 -0.000663826)
(-0.0121303 0.0156721 -0.000653767)
(-0.0154001 0.0155187 -0.00065986)
(-0.0186714 0.0152261 -0.000688015)
(-0.0219344 0.0147477 -0.000748734)
(-0.0251633 0.0139941 -0.000857143)
(-0.0283051 0.012841 -0.00103415)
(-0.0312605 0.0111291 -0.00130747)
(-0.0338586 0.00867151 -0.00171135)
(-0.0358294 0.00527579 -0.0022817)
(-0.0367721 0.000796678 -0.00304433)
(-0.0361601 -0.00475146 -0.00400434)
(-0.0333473 -0.0110776 -0.00507963)
(-0.02775 -0.0172283 -0.00602946)
(-0.0194789 -0.0212642 -0.00645228)
(-0.00864775 -0.0201875 -0.00582777)
(-0.00123206 -0.00950256 -0.00294647)
(-0.000478223 0.0091775 -0.000616543)
(-0.00255956 0.0162434 -0.000753731)
(-0.00573499 0.0186365 -0.000769787)
(-0.00896207 0.0192812 -0.000751219)
(-0.0122892 0.0193569 -0.000743758)
(-0.0156589 0.0192451 -0.000755603)
(-0.0190829 0.0190128 -0.000794998)
(-0.0225806 0.0186172 -0.000875753)
(-0.0261625 0.0179616 -0.00101817)
(-0.0298179 0.0169 -0.00125162)
(-0.0334911 0.0152305 -0.00161776)
(-0.0370448 0.0126916 -0.00217317)
(-0.0402089 0.00897398 -0.00298601)
(-0.0425247 0.00377555 -0.00412441)
(-0.0433262 -0.00308033 -0.00564618)
(-0.0416478 -0.0113868 -0.00748544)
(-0.0363576 -0.0201504 -0.00928736)
(-0.026909 -0.0268376 -0.0103325)
(-0.0126057 -0.0266807 -0.00949408)
(-0.0018273 -0.0125321 -0.00466521)
(-0.000460055 0.0109121 -0.000677031)
(-0.00254422 0.0193707 -0.000842704)
(-0.00575616 0.0222387 -0.000865365)
(-0.00901886 0.0230263 -0.000847113)
(-0.0123907 0.0231678 -0.00084036)
(-0.0158266 0.0231377 -0.000856078)
(-0.0193637 0.0230366 -0.000905336)
(-0.0230572 0.0228364 -0.00100596)
(-0.0269654 0.0224459 -0.00118467)
(-0.0311391 0.0217118 -0.0014819)
(-0.0355983 0.0204009 -0.00195885)
(-0.0402902 0.0181805 -0.00270611)
(-0.0450187 0.0146081 -0.00384914)
(-0.0493545 0.00916024 -0.00553882)
(-0.0525383 0.00135951 -0.00790237)
(-0.0533739 -0.00893922 -0.0109721)
(-0.0500491 -0.0211481 -0.0142937)
(-0.0404171 -0.0326111 -0.0165296)
(-0.0215212 -0.0358272 -0.0155175)
(-0.00375604 -0.0178844 -0.0078185)
(-0.00043975 0.012666 -0.000748643)
(-0.00252594 0.0225753 -0.000947543)
(-0.00576848 0.0259321 -0.000975934)
(-0.00904386 0.0268604 -0.000954692)
(-0.0124198 0.0270724 -0.000944183)
(-0.0158623 0.0271499 -0.000958638)
(-0.0194346 0.0272393 -0.00101228)
(-0.0232306 0.0273426 -0.00112729)
(-0.0273649 0.0273942 -0.00133752)
(-0.0319687 0.0272599 -0.00169638)
(-0.0371737 0.026709 -0.00228913)
(-0.043077 0.0253744 -0.00325097)
(-0.0496748 0.0227123 -0.00478602)
(-0.0567569 0.017985 -0.00716295)
(-0.063778 0.0102943 -0.0106479)
(-0.0696022 -0.00138579 -0.0152719)
(-0.0715985 -0.0180641 -0.0202281)
(-0.0644401 -0.0386732 -0.0234665)
(-0.0405822 -0.0516448 -0.0222102)
(-0.00897943 -0.0299733 -0.0131837)
(-0.000421625 0.0144487 -0.000836948)
(-0.00251884 0.0258701 -0.00107537)
(-0.00579157 0.029714 -0.00110769)
(-0.00905089 0.0307575 -0.00107799)
(-0.0123743 0.0310176 -0.00105635)
(-0.0157359 0.0312002 -0.00106072)
(-0.0192224 0.031511 -0.0011086)
(-0.0229644 0.0319994 -0.00122619)
(-0.0271325 0.0326516 -0.00145384)
(-0.0319456 0.0333923 -0.00185693)
(-0.0376739 0.0340525 -0.00254437)
(-0.0446328 0.0343183 -0.00369669)
(-0.0531596 0.0336692 -0.00559255)
(-0.0635737 0.0312811 -0.00858045)
(-0.0760647 0.0257011 -0.0128524)
(-0.090039 0.0139132 -0.0178197)
(-0.101581 -0.00989129 -0.0214164)
(-0.0998633 -0.0492154 -0.0213097)
(-0.0714179 -0.0847738 -0.0198653)
(-0.0188479 -0.0590167 -0.0185435)
(-0.000415341 0.0162866 -0.000950838)
(-0.00255283 0.0292837 -0.00123672)
(-0.00586929 0.0335855 -0.00126971)
(-0.00908257 0.0346823 -0.00122345)
(-0.0122841 0.0349283 -0.00118005)
(-0.0154516 0.0351697 -0.00116167)
(-0.0186894 0.0356826 -0.0011887)
(-0.0221549 0.0365795 -0.00129001)
(-0.026061 0.0379255 -0.00150943)
(-0.0306998 0.0397504 -0.00191799)
(-0.0364727 0.0420261 -0.00263419)
(-0.0439266 0.044622 -0.00384683)
(-0.0538184 0.0472347 -0.00579118)
(-0.067242 0.0490675 -0.00852205)
(-0.0855332 0.0474514 -0.0112525)
(-0.108801 0.0348104 -0.0112514)
(-0.130464 -0.00373946 -0.00468866)
(-0.133594 -0.0772978 0.00570173)
(-0.101085 -0.146905 0.00292156)
(-0.0295301 -0.12005 -0.0151616)
(-0.000441035 0.018243 -0.00110628)
(-0.00268609 0.0328927 -0.00145179)
(-0.0060849 0.0375906 -0.00148262)
(-0.00922506 0.0386318 -0.00140924)
(-0.0122266 0.0387446 -0.00132891)
(-0.0150685 0.0389338 -0.00127011)
(-0.0178658 0.0395541 -0.00125622)
(-0.0207838 0.0407905 -0.00131672)
(-0.0240469 0.0428059 -0.00149371)
(-0.0279751 0.0457762 -0.00185056)
(-0.0330395 0.0498911 -0.00248057)
(-0.0399264 0.0553132 -0.00348041)
(-0.0496779 0.0620126 -0.00474508)
(-0.0640024 0.0688162 -0.00525224)
(-0.0849503 0.0701537 -0.00191023)
(-0.113127 0.051355 0.0108289)
(-0.141865 -0.0100724 0.0348886)
(-0.148932 -0.121464 0.0530069)
(-0.115698 -0.217981 0.0340374)
(-0.0353489 -0.204082 -0.000922243)
(-0.000530768 0.0204013 -0.0013263)
(-0.00300124 0.0367228 -0.00173586)
(-0.00656019 0.0416421 -0.00174925)
(-0.00961917 0.0424358 -0.0016308)
(-0.0123491 0.0422548 -0.00149765)
(-0.0147277 0.0422464 -0.00138331)
(-0.0168783 0.0428185 -0.00131088)
(-0.0189535 0.0442166 -0.00130581)
(-0.0211424 0.0466986 -0.00140208)
(-0.0237134 0.050584 -0.00163597)
(-0.0270881 0.0562839 -0.00202622)
(-0.0319099 0.0642107 -0.00244225)
(-0.0392317 0.0744072 -0.00213598)
(-0.051104 0.0846507 0.00153471)
(-0.0703929 0.0861152 0.0140618)
(-0.0993332 0.0586825 0.0421889)
(-0.134777 -0.0211502 0.079691)
(-0.144576 -0.156729 0.0880321)
(-0.116582 -0.268577 0.044434)
(-0.0343005 -0.285412 0.00627041)
(-0.000786451 0.0230623 -0.00168303)
(-0.00375034 0.0413192 -0.0022071)
(-0.00756915 0.0463791 -0.00221401)
(-0.0104753 0.04673 -0.00203267)
(-0.012807 0.045946 -0.00180765)
(-0.0145833 0.0453873 -0.00159322)
(-0.0159234 0.0455433 -0.00142166)
(-0.0169269 0.046713 -0.00131965)
(-0.0177043 0.0492153 -0.00130677)
(-0.0184022 0.0534575 -0.00138004)
(-0.0192893 0.0599953 -0.00146259)
(-0.020776 0.0693164 -0.0011383)
(-0.0237492 0.0814059 0.000981917)
(-0.0302639 0.0929529 0.00891242)
(-0.0446231 0.093846 0.0294671)
(-0.0711369 0.0614394 0.0671944)
(-0.111109 -0.0271654 0.103804)
(-0.11813 -0.178208 0.089101)
(-0.108727 -0.302873 0.0345754)
(-0.0270942 -0.359385 -0.00336511)
(-0.00116772 0.0266331 -0.00218941)
(-0.00470123 0.045787 -0.00274154)
(-0.00906272 0.0501081 -0.00268783)
(-0.012008 0.0493523 -0.00239341)
(-0.0140519 0.0478266 -0.0020711)
(-0.015164 0.0467712 -0.00176413)
(-0.0155344 0.0465507 -0.00150481)
(-0.0152525 0.0473797 -0.00131403)
(-0.0143511 0.0495537 -0.00120251)
(-0.0128024 0.0534882 -0.0011299)
(-0.0106724 0.0597997 -0.000971025)
(-0.0079528 0.0688791 -0.000138715)
(-0.00531338 0.0808372 0.00307012)
(-0.00404913 0.0920373 0.0129731)
(-0.00959041 0.0935453 0.0367016)
(-0.0258255 0.0618281 0.0742753)
(-0.0621789 -0.0258109 0.100607)
(-0.0650981 -0.177566 0.0708058)
(-0.0891733 -0.316149 0.0256162)
(-0.0130556 -0.418382 -0.0185977)
(-0.00326097 0.02985 -0.00320847)
(-0.009015 0.0536691 -0.00401929)
(-0.0128577 0.0577859 -0.00388595)
(-0.0149628 0.0563253 -0.00344929)
(-0.0158514 0.0531989 -0.00290383)
(-0.0159349 0.0505065 -0.00237007)
(-0.0152793 0.0487374 -0.00190935)
(-0.013815 0.0481255 -0.00155426)
(-0.011393 0.0489173 -0.00130813)
(-0.00774037 0.0514075 -0.00114004)
(-0.0027531 0.0561277 -0.000897875)
(0.00414901 0.0633389 -4.06832e-05)
(0.0124817 0.0731859 0.00304808)
(0.0224601 0.0824542 0.011554)
(0.0276879 0.0853208 0.0320329)
(0.0306991 0.060481 0.0623643)
(0.00317234 -0.0166593 0.0785501)
(-0.000829717 -0.148287 0.0531732)
(-0.0574132 -0.308016 0.0194794)
(0.00655639 -0.455804 -0.0322104)
(-0.00134907 0.0444394 -0.00517414)
(-0.00763817 0.057196 -0.00567909)
(-0.0160069 0.0576022 -0.00519316)
(-0.0184321 0.0528449 -0.00424267)
(-0.0197611 0.0492531 -0.00346971)
(-0.0191775 0.0466278 -0.00274782)
(-0.0173921 0.0449002 -0.00214276)
(-0.0144177 0.0439507 -0.00168386)
(-0.0101962 0.0439463 -0.00140023)
(-0.00437589 0.0449637 -0.00127572)
(0.00326331 0.0475919 -0.00119772)
(0.0136544 0.0518411 -0.000800469)
(0.0262495 0.0578017 0.00118511)
(0.0429909 0.0629484 0.00655343)
(0.0557406 0.0637508 0.0197801)
(0.0745049 0.0470747 0.0405155)
(0.0565713 -0.0118986 0.0507947)
(0.0573379 -0.111281 0.0396806)
(-0.0197832 -0.283608 0.0134116)
(0.0336302 -0.469975 -0.0442628)
(-0.0124272 0.0350881 -0.00608128)
(-0.0237307 0.0782748 -0.00796183)
(-0.0211499 0.0763929 -0.00805534)
(-0.0249175 0.0704813 -0.00714052)
(-0.0238985 0.0625514 -0.00569157)
(-0.0211585 0.0558333 -0.00430174)
(-0.0166796 0.0504131 -0.00318088)
(-0.0107648 0.0461478 -0.00237902)
(-0.00364894 0.0431002 -0.00194711)
(0.00517238 0.0409835 -0.00186247)
(0.0153822 0.040178 -0.0020685)
(0.0282572 0.0403082 -0.00234633)
(0.0422032 0.0420083 -0.00188193)
(0.0614646 0.0428264 0.000560786)
(0.0741207 0.0424218 0.00668449)
(0.100438 0.0321081 0.0195523)
(0.0891072 -0.00325304 0.0239157)
(0.113053 -0.0721742 0.0245509)
(0.0382885 -0.253249 0.00779101)
(0.0777666 -0.461311 -0.0552182)
(-0.0763027 0.0993637 -0.0199653)
(-0.0611897 0.0601982 -0.0160591)
(-0.0603991 0.0593305 -0.0128746)
(-0.0375175 0.0513902 -0.0100652)
(-0.0181838 0.0434122 -0.00809761)
(0.00330591 0.0375313 -0.00642376)
(0.0232429 0.0333167 -0.0051467)
(0.0432482 0.0297265 -0.00423006)
(0.0611662 0.0271996 -0.00364827)
(0.0804885 0.0248147 -0.00345467)
(0.0964883 0.0236051 -0.00361372)
(0.117262 0.0222232 -0.00410898)
(0.130696 0.0218844 -0.0046999)
(0.158427 0.0210136 -0.00442606)
(0.164791 0.016949 -0.00328058)
(0.205204 0.00955002 0.00157461)
(0.189927 -0.0213658 0.006781)
(0.232959 -0.0732733 0.0080055)
(0.155489 -0.23381 0.00276595)
(0.15046 -0.41371 -0.0659534)
(0.119093 0.140169 -0.0171061)
(0.151452 0.0855627 -0.0188829)
(0.228666 0.0631264 -0.0190671)
(0.283432 0.0476398 -0.0177672)
(0.324571 0.0367367 -0.0160051)
(0.362559 0.0286654 -0.0144533)
(0.391004 0.0230451 -0.0129221)
(0.4218 0.0187821 -0.0117761)
(0.441018 0.015746 -0.0105485)
(0.469152 0.0133463 -0.00990609)
(0.480623 0.0115231 -0.00893873)
(0.509879 0.0102427 -0.00894266)
(0.513229 0.00895296 -0.00804044)
(0.546642 0.00805269 -0.00865284)
(0.538773 0.00616009 -0.00691525)
(0.574652 0.0023706 -0.00797781)
(0.541862 -0.00604717 -0.00433424)
(0.555406 -0.0256033 -0.00958735)
(0.425119 -0.0668825 -0.011058)
(0.302618 -0.144309 -0.0791317)
(-0.000140236 0.000145369 -0.000180955)
(-0.00102095 0.000418777 -0.000201612)
(-0.00249064 0.000515712 -0.000191893)
(-0.00398319 0.000544802 -0.00018458)
(-0.00551171 0.000555291 -0.000191608)
(-0.00703272 0.000563577 -0.000213332)
(-0.0085282 0.000569542 -0.000250888)
(-0.00997301 0.000567781 -0.000307317)
(-0.0113262 0.00055111 -0.000386751)
(-0.0125287 0.000511057 -0.000493676)
(-0.0135014 0.000438131 -0.000632088)
(-0.0141444 0.000323114 -0.000804091)
(-0.0143418 0.000160013 -0.00100794)
(-0.0139706 -5.5769e-05 -0.00123561)
(-0.0129208 -0.000315095 -0.00146883)
(-0.0111292 -0.000590823 -0.00167971)
(-0.00863183 -0.00082864 -0.00182957)
(-0.0056717 -0.000942126 -0.0018742)
(-0.00242242 -0.000816743 -0.00175929)
(-0.000360024 -0.000264502 -0.00118401)
(-0.000445512 0.00110433 -0.000342925)