/*--------------------------------*- C++ -*----------------------------------*\
  =========                 |
  \\      /  F ield         | OpenFOAM: The Open Source CFD Toolbox
   \\    /   O peration     | Website:  https://openfoam.org
    \\  /    A nd           | Version:  10
     \\/     M anipulation  |
\*---------------------------------------------------------------------------*/
FoamFile
{
    format      ascii;
    class       surfaceScalarField;
    location    "6.25";
    object      phi;
}
// * * * * * * * * * * * * * * * * * * * * * * * * * * * * * * * * * * * * * //

dimensions      [0 3 -1 0 0 0 0];

internalField   nonuniform List<scalar> 
760
(
-9.55408e-06
9.55415e-06
-3.14512e-05
2.18971e-05
-5.74929e-05
2.60417e-05
-8.43185e-05
2.68256e-05
-0.000110832
2.65136e-05
-0.000136595
2.57633e-05
-0.000161184
2.45887e-05
-0.000184004
2.28198e-05
-0.00020424
2.02365e-05
-0.000220838
1.65971e-05
-0.000232495
1.16579e-05
-0.000237701
5.2059e-06
-0.000234818
-2.88314e-06
-0.000222282
-1.25362e-05
-0.000198932
-2.33498e-05
-0.000164467
-3.44648e-05
-0.000120198
-4.42693e-05
-7.02621e-05
-4.9936e-05
-2.3747e-05
-4.65151e-05
-2.3747e-05
-2.30851e-05
3.26392e-05
-6.55261e-05
6.43381e-05
-0.000114227
7.47421e-05
-0.000163753
7.63518e-05
-0.000212026
7.47869e-05
-0.000257978
7.17158e-05
-0.000300657
6.72668e-05
-0.000338949
6.11124e-05
-0.0003715
5.27872e-05
-0.000396671
4.17686e-05
-0.000412522
2.75085e-05
-0.000416933
9.61677e-06
-0.000407714
-1.21017e-05
-0.000382705
-3.75457e-05
-0.000340494
-6.55608e-05
-0.000280957
-9.40012e-05
-0.000206328
-0.000118898
-0.000123054
-0.00013321
-4.47615e-05
-0.000124808
-6.85085e-05
-2.88104e-05
6.14496e-05
-8.01476e-05
0.000115675
-0.000138379
0.000132974
-0.000197183
0.000135156
-0.000254187
0.00013179
-0.00030817
0.000125699
-0.00035806
0.000117157
-0.000402643
0.000105696
-0.000440459
9.06032e-05
-0.000469744
7.10539e-05
-0.000488438
4.62021e-05
-0.000494169
1.53476e-05
-0.000484159
-2.21113e-05
-0.000455859
-6.58461e-05
-0.000407243
-0.000114176
-0.000337667
-0.000163578
-0.000249236
-0.000207329
-0.000149336
-0.00023311
-5.45282e-05
-0.000219616
-0.000123037
-3.09799e-05
9.24295e-05
-8.6258e-05
0.000170953
-0.00014878
0.000195496
-0.000211842
0.000198218
-0.000273059
0.000193007
-0.000331277
0.000183917
-0.000385508
0.000171387
-0.000434623
0.000154811
-0.000477231
0.000133211
-0.00051157
0.000105393
-0.000535433
7.00648e-05
-0.000546143
2.6058e-05
-0.00054045
-2.78053e-05
-0.000514608
-9.16881e-05
-0.000465256
-0.000163528
-0.000390254
-0.00023858
-0.000290848
-0.000306735
-0.000175237
-0.000348721
-6.37025e-05
-0.00033115
-0.000186739
-3.2055e-05
0.000124485
-8.98226e-05
0.000228721
-0.000155254
0.000260926
-0.000221403
0.000264368
-0.00028596
0.000257564
-0.000347939
0.000245896
-0.000406551
0.000229999
-0.000460873
0.000209134
-0.000509693
0.000182031
-0.000551344
0.000147045
-0.000583521
0.000102241
-0.000603103
4.56405e-05
-0.000606115
-2.47935e-05
-0.000587201
-0.000110602
-0.000540782
-0.000209946
-0.000462034
-0.000317328
-0.000349931
-0.000418838
-0.000213034
-0.000485618
-7.7322e-05
-0.000466862
-0.000264061
-3.29965e-05
0.000157481
-9.3154e-05
0.000288879
-0.000161492
0.000329264
-0.000230821
0.000333697
-0.000298939
0.000325682
-0.0003651
0.000312057
-0.000428813
0.000293712
-0.000489487
0.000269807
-0.000546236
0.000238779
-0.000597655
0.000198464
-0.00064151
0.000146097
-0.000674322
7.84519e-05
-0.000691381
-7.73391e-06
-0.000685143
-0.00011684
-0.000646822
-0.000248267
-0.000567084
-0.000397067
-0.000440258
-0.000545664
-0.00027325
-0.000652625
-9.99879e-05
-0.000640125
-0.000364049
-3.40642e-05
0.000191545
-9.68997e-05
0.000351714
-0.000168472
0.000400837
-0.000241296
0.000406521
-0.000313305
0.000397691
-0.000384064
0.000382815
-0.000453487
0.000363136
-0.000521477
0.000337797
-0.000587698
0.000305001
-0.000651298
0.000262063
-0.000710474
0.000205273
-0.000761831
0.000129809
-0.000799755
3.01896e-05
-0.000815154
-0.000101441
-0.000794519
-0.000268901
-0.000721635
-0.000469952
-0.000581794
-0.000685505
-0.000374441
-0.000859978
-0.000141221
-0.000873344
-0.00050527
-3.52997e-05
0.000226845
-0.000101173
0.000417587
-0.000176301
0.000475964
-0.000252823
0.000483043
-0.000328827
0.000473696
-0.000404258
0.000458246
-0.000479562
0.00043844
-0.000555327
0.000413561
-0.00063207
0.000381744
-0.000709933
0.000339927
-0.000788158
0.000283498
-0.000864216
0.000205867
-0.000932275
9.82485e-05
-0.000982858
-5.08575e-05
-0.000997582
-0.000254178
-0.000950892
-0.000516642
-0.000811796
-0.000824602
-0.000557848
-0.00111393
-0.000225436
-0.00120576
-0.000730706
-3.67375e-05
0.000263582
-0.000106033
0.000486883
-0.000184952
0.000554883
-0.000265156
0.000563247
-0.000344899
0.000553439
-0.000424562
0.000537909
-0.000505239
0.000519117
-0.000588404
0.000496727
-0.000675766
0.000469105
-0.00076902
0.000433181
-0.000869344
0.000383822
-0.000976438
0.00031296
-0.00108674
0.000208548
-0.00119212
5.45299e-05
-0.00127318
-0.000173124
-0.00129505
-0.000494769
-0.00119939
-0.000920266
-0.000908015
-0.0014053
-0.000408275
-0.0017055
-0.00113898
-3.85009e-05
0.000302083
-0.000111698
0.00056008
-0.000194574
0.000637758
-0.000278195
0.000646869
-0.000360985
0.000636229
-0.000443802
0.000620726
-0.000528453
0.000603767
-0.000617444
0.000585718
-0.000713996
0.000565658
-0.000822006
0.000541191
-0.00094579
0.000507606
-0.00108937
0.000456543
-0.00125492
0.000374097
-0.00143946
0.00023907
-0.0016371
2.4513e-05
-0.00180442
-0.000327451
-0.00183776
-0.000886923
-0.0015326
-0.00171045
-0.000759539
-0.00247856
-0.00189852
-4.08857e-05
0.000342969
-0.000118708
0.000637903
-0.000205698
0.000724748
-0.000292223
0.000733393
-0.000376893
0.000720899
-0.000461058
0.000704891
-0.000547229
0.000689939
-0.00063894
0.000677429
-0.000741001
0.000667719
-0.000859897
0.000660086
-0.00100421
0.000651924
-0.00118492
0.000637251
-0.00141533
0.000604503
-0.00171053
0.000534268
-0.00207636
0.00039034
-0.00248223
7.8425e-05
-0.00272255
-0.000646599
-0.00238181
-0.00205119
-0.00124741
-0.00361296
-0.00314593
-4.44915e-05
0.000387461
-0.000128145
0.000721557
-0.000219473
0.000816076
-0.000308144
0.000822064
-0.000393043
0.000805798
-0.000476014
0.000787862
-0.000560162
0.000774087
-0.00064981
0.000767077
-0.000751088
0.000768997
-0.00087289
0.000781888
-0.00102831
0.000807348
-0.00123686
0.000845795
-0.00152738
0.00089503
-0.00193827
0.000945154
-0.00249612
0.00094819
-0.0031154
0.000697701
-0.00347762
-0.000284379
-0.00303881
-0.00249
-0.00170403
-0.00494775
-0.00484996
-5.03455e-05
0.000437806
-0.000141791
0.000813002
-0.000237886
0.000912171
-0.000327832
0.000912011
-0.000410877
0.000888843
-0.000489402
0.000866387
-0.000566977
0.000851661
-0.000648108
0.000848208
-0.000739289
0.000860178
-0.000850535
0.000893133
-0.000997828
0.000954642
-0.00120707
0.00105504
-0.00151845
0.00120641
-0.00197829
0.001405
-0.00259745
0.00156735
-0.00323045
0.0013307
-0.00350564
-9.19036e-06
-0.00307533
-0.0029203
-0.00191418
-0.0061089
-0.00676414
-6.13262e-05
0.000499132
-0.000163897
0.000915573
-0.000264425
0.0010127
-0.000353331
0.00100092
-0.000431764
0.000967276
-0.000502727
0.00093735
-0.000569224
0.000918158
-0.000635144
0.000914128
-0.000705971
0.000931005
-0.000790198
0.00097736
-0.000901776
0.00106622
-0.00106284
0.0012161
-0.00130632
0.00144989
-0.001658
0.00175667
-0.00210193
0.00201128
-0.00249885
0.00172762
-0.00269013
0.000182085
-0.00249927
-0.00311116
-0.00175571
-0.00685246
-0.00851985
-7.46702e-05
0.000573802
-0.000191852
0.00103275
-0.000300368
0.00112122
-0.00039152
0.00109207
-0.000464739
0.00104049
-0.000524262
0.000996874
-0.000573766
0.000967662
-0.000616199
0.000956561
-0.000654224
0.00096903
-0.000691285
0.00101442
-0.000733414
0.00110835
-0.000788203
0.00127089
-0.000868477
0.00153017
-0.00096988
0.00185808
-0.00109289
0.00213429
-0.00117568
0.00181041
-0.00127072
0.000277124
-0.00141573
-0.00296615
-0.00119871
-0.00706948
-0.00971856
-0.00014161
0.000715413
-0.00027327
0.00116441
-0.000369776
0.00121772
-0.000440023
0.00116232
-0.000495232
0.0010957
-0.000539274
0.00104092
-0.000572245
0.00100063
-0.000592368
0.000976685
-0.000597114
0.000973776
-0.000582203
0.00099951
-0.000542479
0.00106862
-0.000468431
0.00119684
-0.0003504
0.00141213
-0.000168262
0.00167594
7.13928e-05
0.00189464
0.000257185
0.00162462
0.000256581
0.000277728
-0.000245959
-0.00246361
-0.00054495
-0.00677049
-0.0102635
-9.2591e-05
0.000808004
-0.000288057
0.00135988
-0.000427177
0.00135684
-0.000517937
0.00125308
-0.000573065
0.00115083
-0.000602393
0.00107024
-0.00061
0.00100824
-0.000595765
0.000962449
-0.000556173
0.000934184
-0.000481519
0.000924856
-0.000358804
0.00094591
-0.00016519
0.00100323
0.000125832
0.00112111
0.00052709
0.00127468
0.00102102
0.00140071
0.00144102
0.00120462
0.00146795
0.000250797
0.000780684
-0.00177634
0.000141122
-0.00613093
-0.0101224
-0.000386622
0.00119463
-0.000466037
0.0014393
-0.000543629
0.00143443
-0.000613072
0.00132252
-0.000637247
0.00117501
-0.000622499
0.00105549
-0.000574977
0.000960718
-0.000495115
0.000882587
-0.000384653
0.000823722
-0.000235753
0.000775956
-4.02372e-05
0.000750394
0.000219415
0.000743573
0.000567607
0.000772921
0.00101753
0.000824759
0.0015592
0.000859038
0.00202792
0.000735898
0.00228589
-7.16611e-06
0.00188595
-0.0013764
0.00100472
-0.0052497
-0.00911768
-0.00135745
0.00255208
-0.00132354
0.00140538
-0.00107681
0.00118771
-0.000719777
0.000965482
-0.000340638
0.000795868
4.24393e-05
0.000672417
0.000416737
0.00058642
0.000780152
0.000519172
0.00113396
0.000469919
0.00148123
0.000428684
0.00183078
0.000400841
0.00219224
0.000382113
0.00259371
0.000371455
0.00304779
0.000370673
0.00359108
0.000315747
0.00412048
0.000206508
0.0043611
-0.00024779
0.00418934
-0.00120465
0.00262154
-0.00368189
-0.00649614
0.00255208
0.00395746
0.00514517
0.00611065
0.00690652
0.00757894
0.00816536
0.00868453
0.00915445
0.00958313
0.00998397
0.0103661
0.0107375
0.0111082
0.011424
0.0116305
0.0113827
0.010178
0.00649614
)
;

boundaryField
{
    movingWall
    {
        type            calculated;
        value           uniform 0;
    }
    fixedWalls
    {
        type            calculated;
        value           uniform 0;
    }
    frontAndBack
    {
        type            empty;
        value           nonuniform List<scalar> 0();
    }
}


// ************************************************************************* //
