/*--------------------------------*- C++ -*----------------------------------*\
  =========                 |
  \\      /  F ield         | OpenFOAM: The Open Source CFD Toolbox
   \\    /   O peration     | Website:  https://openfoam.org
    \\  /    A nd           | Version:  10
     \\/     M anipulation  |
\*---------------------------------------------------------------------------*/
FoamFile
{
    format      ascii;
    class       volVectorField;
    location    "7.775";
    object      U;
}
// * * * * * * * * * * * * * * * * * * * * * * * * * * * * * * * * * * * * * //

dimensions      [0 1 -1 0 0 0 0];

internalField   nonuniform List<vector> 
496
(
(10.0413 0.110295 0)
(9.82239 -0.242917 0)
(10.2639 -0.161328 0)
(10.9147 -0.226084 0)
(10.4081 0.565852 0)
(9.38785 -1.41125 0)
(10.4301 -0.49798 0)
(10.7518 -1.16672 0)
(11.616 1.53424 0)
(8.36432 -3.0036 0)
(11.49 -0.0920663 0)
(10.3894 -3.90549 0)
(13.6263 1.35215 0)
(7.01262 -2.29991 0)
(14.508 0.374769 0)
(9.48307 -6.1218 0)
(11.6939 -0.242883 7.8665e-19)
(12.3023 -0.215277 1.87316e-18)
(11.7485 -0.773621 -2.36005e-18)
(12.4936 -0.0270654 4.17671e-18)
(12.7982 -2.38758 1.57295e-18)
(12.9368 -0.286814 -6.05262e-18)
(14.4841 -5.92593 -4.31886e-17)
(15.225 -4.00146 6.95761e-17)
(12.9558 -0.183934 0)
(13.2425 -0.103583 0)
(13.4657 0.00319167 0)
(13.3114 0.260804 0)
(13.1504 -0.0571614 0)
(13.581 -0.258545 0)
(13.9208 -0.401173 0)
(13.8831 -0.32838 0)
(12.2701 0.572868 0)
(12.7245 0.893964 0)
(12.8822 1.03147 0)
(13.1582 1.25559 0)
(12.5467 -4.03646 0)
(10.4572 -1.32033 0)
(11.5053 -0.791164 0)
(12.1965 -0.426077 0)
(13.1446 0.352911 0)
(12.8282 0.494942 0)
(12.7002 0.475043 0)
(12.6104 0.595686 0)
(12.4337 0.449378 0)
(12.227 0.377514 0)
(12.0658 0.258218 0)
(12.3193 0.237713 0)
(12.4795 0.198516 0)
(12.7094 0.102265 0)
(12.5878 0.115395 0)
(12.6531 0.0468012 0)
(12.614 0.151447 0)
(12.7313 0.135731 0)
(12.7464 0.218325 0)
(12.6556 0.206945 0)
(12.6166 0.237406 0)
(12.4565 0.301708 0)
(12.4866 0.325255 0)
(12.2397 0.428982 0)
(12.1021 0.41576 0)
(11.7558 0.500652 0)
(11.4392 0.482402 0)
(11.1357 0.526564 0)
(10.7394 0.517045 0)
(10.6742 0.438479 0)
(10.4199 0.385371 0)
(10.5741 0.235971 0)
(10.5494 0.227029 0)
(10.7416 0.155502 0)
(10.8964 0.196872 0)
(10.8017 0.23765 0)
(10.915 0.275625 0)
(10.4184 0.354045 0)
(10.2907 0.357665 0)
(9.66846 0.47698 0)
(9.32616 0.431389 0)
(9.13477 0.406976 0)
(8.8158 0.289648 0)
(9.13399 0.12221 0)
(13.5936 -0.451652 0)
(13.3094 -0.383021 0)
(13.1361 -0.315145 0)
(13.0356 -0.172673 0)
(12.6957 -0.243323 0)
(12.5767 -0.335102 0)
(12.5142 -0.314627 0)
(12.8335 -0.275837 0)
(13.0122 -0.171276 0)
(13.2616 -0.286431 0)
(13.2878 -0.210729 0)
(13.4098 -0.265363 0)
(13.5223 -0.136699 0)
(13.6107 -0.13751 0)
(13.6887 -0.116825 0)
(13.6104 -0.106345 0)
(13.6419 -0.147703 0)
(13.6032 -0.0184188 0)
(13.6354 -0.0712575 0)
(13.5478 0.124777 0)
(13.3685 0.0890559 0)
(13.1978 0.254215 0)
(12.8685 0.164778 0)
(12.6832 0.0763792 0)
(12.3015 -0.00311193 0)
(12.1477 -0.223985 0)
(11.9864 -0.158904 0)
(11.9849 -0.436938 0)
(12.1241 -0.334378 0)
(12.1844 -0.456629 0)
(12.4827 -0.292048 0)
(12.4722 -0.0978625 0)
(12.6059 0.0916321 0)
(12.3861 0.425042 0)
(12.2122 0.331136 0)
(11.9628 0.416338 0)
(11.5033 0.0583488 0)
(11.3495 -0.0542058 0)
(10.92 -0.270762 0)
(11.0111 -0.437549 0)
(12.7061 1.09035 0)
(12.9308 1.01776 0)
(12.7583 0.904983 0)
(12.6922 0.90083 0)
(12.3375 0.355671 0)
(12.116 0.0387607 0)
(12.3389 -0.1342 0)
(12.4208 -0.210452 0)
(12.7668 -0.175361 0)
(12.6705 -0.351685 0)
(12.9346 -0.141819 0)
(12.8759 -0.177286 0)
(13.0662 0.137088 0)
(13.0978 0.081 0)
(13.0478 0.159687 0)
(13.1888 0.123777 0)
(12.9973 0.0472754 0)
(13.3286 0.263364 0)
(13.1913 0.139959 0)
(13.5192 0.521022 0)
(13.497 0.519549 0)
(13.5402 0.933498 0)
(13.5044 1.08622 0)
(13.1179 1.09476 0)
(13.2703 1.19014 0)
(12.7308 0.611637 0)
(13.0866 0.602003 0)
(12.4261 -0.151218 0)
(12.6937 -0.0938427 0)
(12.3806 -0.3149 0)
(12.5318 -0.30934 0)
(12.7595 0.0898937 0)
(12.847 0.0457515 0)
(13.3121 0.791495 0)
(13.1564 0.835712 0)
(13.203 1.37948 0)
(12.8323 1.3402 0)
(12.5267 1.12671 0)
(12.4515 0.720454 0)
(12.0251 -0.0902517 0)
(11.561 -0.184547 0)
(11.7013 0.167592 0)
(11.4511 0.607444 0)
(12.3939 0.0548053 0)
(10.1359 -0.02551 0)
(10.4045 0.171449 0)
(9.79024 0.0804414 0)
(10.0681 -0.10254 0)
(9.16956 -0.296005 0)
(9.44706 -0.442164 0)
(9.34882 -0.515283 0)
(9.26475 -0.521076 0)
(9.44741 -0.461154 0)
(8.66721 -0.332958 0)
(8.89083 -0.192845 0)
(8.08429 -0.0602449 0)
(8.40138 -0.0212411 0)
(8.39113 -0.0393558 0)
(8.34222 -0.172738 0)
(9.19093 -0.149288 0)
(9.01688 -0.10014 0)
(10.2985 0.104774 0)
(10.0584 0.23473 0)
(10.6469 0.328614 0)
(10.4183 0.418884 0)
(9.65863 0.35411 0)
(9.65342 0.439084 0)
(8.05227 0.277118 0)
(8.68042 0.229223 0)
(7.65436 -0.142568 0)
(8.22103 -0.312432 0)
(8.81525 -0.395873 0)
(8.81549 -0.412792 0)
(10.5043 -0.00926191 0)
(10.3178 0.0988375 0)
(11.7189 0.449488 0)
(11.7249 0.489547 0)
(11.8812 0.339083 0)
(11.811 0.413075 0)
(10.5539 0.240407 0)
(10.8395 0.484233 -9.51725e-18)
(9.17208 -0.944108 -1.66596e-17)
(10.2566 -0.12193 2.86888e-17)
(5.5631 -5.13213 -7.72913e-17)
(12.6866 -0.338494 9.59844e-18)
(7.34494 0.619591 1.63266e-17)
(12.4053 0.0504328 -2.84604e-17)
(3.95699 4.71134 7.74701e-17)
(-8.54781 1.50733 0)
(4.23124 -1.75017 0)
(-0.0425989 2.72789 0)
(-3.02842 2.0341 0)
(-3.31494 -1.6849 3.1234e-17)
(-0.809273 -3.21221 0)
(-6.70405 4.60116 0)
(1.73953 -1.54198 0)
(0.999513 -0.107667 0)
(-1.19408 -0.429219 0)
(3.33287 2.31483 0)
(-0.328296 1.6821 0)
(-0.499779 -0.851146 0)
(2.89015 0.709801 0)
(0.509128 0.604254 0)
(1.00666 -0.389945 0)
(1.0957 -0.46611 0)
(1.64537 0.0609868 0)
(1.25326 0.322851 0)
(1.04226 0.464862 0)
(0.789585 0.56554 0)
(0.798197 0.498442 0)
(0.665443 0.454117 0)
(1.077 0.377966 0)
(1.29934 0.129358 0)
(1.60146 -0.0664111 0)
(1.73457 -0.337606 0)
(2.38627 -0.309595 0)
(2.6515 -0.131143 0)
(3.39972 0.280604 0)
(3.34352 0.558075 0)
(3.44865 0.846319 0)
(3.84697 1.24037 0)
(3.35993 1.16265 0)
(3.61913 1.00808 0)
(3.70031 0.602446 0)
(3.81735 -0.029719 0)
(4.00951 -0.53496 0)
(4.59988 -0.91905 0)
(4.55204 -1.09049 0)
(5.50886 -1.093 0)
(5.85214 -0.593993 0)
(6.1363 -0.356961 0)
(6.94742 0.285965 0)
(6.40777 0.687941 0)
(6.78512 1.00201 0)
(6.3123 1.35151 0)
(6.11656 0.564977 0)
(-1.43923 -2.06437 0)
(-1.19775 -0.592021 0)
(-2.58578 1.03114 0)
(3.00028 0.535587 0)
(0.38827 -0.571303 0)
(1.23848 0.168707 0)
(0.928345 0.499763 0)
(2.57788 -0.363504 0)
(1.47097 -0.390935 0)
(1.37444 -0.306674 0)
(1.314 -0.212423 0)
(1.36474 -0.292646 0)
(1.75291 -0.362127 0)
(1.74315 -0.322982 0)
(1.66309 -0.350057 0)
(1.84354 -0.478167 0)
(2.24031 -0.745831 0)
(2.25538 -0.815171 0)
(2.35289 -0.959061 0)
(2.37102 -0.907738 0)
(2.49108 -0.789385 0)
(2.82615 -0.549796 0)
(2.9134 0.0583686 0)
(3.21357 0.385511 0)
(3.8174 0.670553 0)
(4.28848 0.679069 0)
(4.68654 0.615583 0)
(5.3391 0.149746 0)
(5.66877 -0.196557 0)
(5.67452 -0.625454 0)
(5.72912 -1.01266 0)
(5.52603 -1.13489 0)
(5.04632 -1.27978 0)
(5.26012 -0.928326 0)
(5.05557 -0.525751 0)
(5.06216 0.235189 0)
(5.841 0.674174 0)
(5.71779 0.90431 0)
(6.19135 1.2676 0)
(6.90606 0.565947 0)
(11.0661 -1.77446 0)
(9.38092 2.69885 0)
(11.0618 -1.0361 0)
(11.8285 6.35354 0)
(10.2105 -1.44099 0)
(10.0381 2.90107 0)
(10.5333 0.54317 0)
(11.7032 3.65004 0)
(9.88764 -0.683876 0)
(10.0099 1.2947 0)
(9.89911 0.454963 0)
(11.0337 0.942781 0)
(9.9858 -0.0795157 0)
(9.86771 0.114051 0)
(9.98107 0.178497 0)
(10.7686 0.160948 0)
(11.0662 5.29203 4.04922e-17)
(17.28 3.99816 -6.43044e-17)
(12.609 2.56088 0)
(14.0172 0.404712 0)
(11.4585 0.642179 0)
(12.6786 -0.0502862 0)
(11.383 0.281386 0)
(12.1872 0.224911 0)
(7.04957 3.34897 0)
(10.7073 1.4357 0)
(7.9086 1.26547 0)
(8.81065 0.131432 0)
(13.3625 0.0851696 0)
(13.3796 -0.305079 0)
(13.9392 -0.184442 0)
(14.0194 -0.36627 0)
(13.2723 -0.0270249 0)
(13.6791 0.208435 0)
(14.0831 0.370036 0)
(14.3915 0.311252 0)
(12.7817 0.226762 0)
(13.2435 0.273572 0)
(13.4319 0.264844 0)
(13.5863 0.154244 0)
(10.2532 -0.041876 0)
(9.61148 -0.0200374 0)
(9.98841 -0.106376 0)
(8.99692 -0.0607213 0)
(10.6449 -0.13104 0)
(10.2365 -0.12415 0)
(10.3756 -0.28314 0)
(10.748 -0.281353 0)
(10.7651 -0.131298 0)
(11.568 0.0929727 0)
(10.4703 0.309416 0)
(11.4794 0.373422 0)
(10.1374 0.502033 0)
(11.2533 0.366715 0)
(10.3293 0.380404 0)
(10.847 0.179111 0)
(10.7819 -0.0171228 0)
(10.5549 -0.18097 0)
(10.9402 -0.359727 0)
(9.88392 -0.276114 0)
(10.3328 -0.319199 0)
(9.21793 -0.108153 0)
(9.58836 -0.0168315 0)
(9.21517 0.23558 0)
(9.21292 0.385702 0)
(10.0631 0.344055 0)
(9.80417 0.306794 0)
(11.1886 -0.0480507 0)
(11.0902 -0.274417 0)
(12.0319 -0.5303 0)
(12.2685 -0.616818 0)
(12.1077 -0.519137 0)
(12.153 -0.492841 0)
(10.6909 -0.330664 0)
(10.542 -0.365315 0)
(9.18907 0.0538791 0)
(9.08939 0.220226 0)
(9.22708 0.359883 0)
(9.00835 0.562353 0)
(10.0918 0.0103507 0)
(14.5272 -0.821282 0)
(14.0213 -0.680783 0)
(14.0139 -0.745641 0)
(13.6211 -0.387015 0)
(13.6446 -0.551411 0)
(13.513 -0.676342 0)
(13.3541 -0.657445 0)
(13.619 -0.664526 0)
(13.3243 -0.373293 0)
(13.6281 -0.524631 0)
(13.204 -0.15538 0)
(13.4848 -0.322538 0)
(13.2428 -0.0348003 0)
(13.4322 -0.237444 0)
(13.4444 -0.307268 0)
(13.2507 -0.448467 0)
(13.3066 -0.794536 0)
(12.7705 -0.733114 0)
(12.9341 -1.04536 0)
(12.3308 -0.611163 0)
(12.6202 -0.699225 0)
(12.1791 -0.182929 0)
(12.3538 -0.112115 0)
(12.3112 -0.0023918 0)
(12.3882 0.124331 0)
(12.749 -0.300808 0)
(12.702 -0.244068 0)
(13.0185 -0.919895 0)
(12.6271 -1.0098 0)
(12.456 -1.41575 0)
(11.9582 -1.47469 0)
(11.5094 -1.01519 0)
(11.4885 -0.786688 0)
(10.9235 0.278493 0)
(11.2862 0.287568 0)
(10.8703 0.842289 0)
(11.3408 0.653388 0)
(11.3367 0.404056 0)
(11.7137 0.348721 0)
(12.0774 -0.353814 0)
(14.3848 0.112271 0)
(14.1455 0.0912609 0)
(13.8589 -0.0333362 0)
(13.6175 0.0369171 0)
(13.4411 -0.0297065 0)
(13.2883 -0.0306022 0)
(13.2136 0.055684 0)
(13.1294 0.027174 0)
(13.0234 0.275627 0)
(12.958 0.244877 0)
(12.9215 0.491591 0)
(13.0254 0.392153 0)
(13.0758 0.566443 0)
(13.2586 0.481126 0)
(13.2518 0.446805 0)
(13.312 0.351957 0)
(13.1147 0.204501 0)
(13.0468 0.25887 0)
(12.8157 0.13681 0)
(12.6547 0.336693 0)
(12.5004 0.22534 0)
(12.4287 0.388667 0)
(12.4958 0.329014 0)
(12.5629 0.353476 0)
(12.6965 0.316114 0)
(12.7523 0.0656735 0)
(12.7111 0.0183386 0)
(12.6323 -0.289236 0)
(12.3735 -0.160337 0)
(12.1964 -0.201392 0)
(11.7685 -0.012337 0)
(11.4858 0.138169 0)
(11.2061 0.152944 0)
(11.0761 0.428417 0)
(11.277 0.360633 0)
(11.2804 0.533062 0)
(11.7505 0.317448 0)
(11.7637 0.247278 0)
(12.1216 -0.108712 0)
(12.044 -0.310105 0)
(13.5475 -0.0593944 0)
(13.3464 -0.116675 0)
(13.1145 -0.272698 0)
(12.9007 -0.22633 0)
(12.7429 -0.277404 0)
(12.3973 -0.24068 0)
(12.3016 -0.334246 0)
(12.1412 -0.422723 0)
(12.2009 -0.381639 0)
(11.9127 -0.421665 0)
(11.9371 -0.35306 0)
(11.8909 -0.458437 0)
(12.092 -0.376953 0)
(12.1915 -0.444403 0)
(12.2062 -0.410088 0)
(12.2369 -0.488699 0)
(11.9788 -0.525464 0)
(11.972 -0.54643 0)
(11.6089 -0.62165 0)
(11.6295 -0.531903 0)
(11.3406 -0.557286 0)
(11.4107 -0.386852 0)
(11.3638 -0.385332 0)
(11.3936 -0.291731 0)
(11.4928 -0.313838 0)
(11.3405 -0.357795 0)
(11.3996 -0.357615 0)
(10.9862 -0.464672 0)
(10.7703 -0.451117 0)
(10.2605 -0.575656 0)
(9.90291 -0.52604 0)
(9.70822 -0.451548 0)
(9.44695 -0.337249 0)
(9.6486 -0.134025 0)
(9.69895 -0.123892 0)
(10.0219 0.00363423 0)
(10.3404 -0.0666716 0)
(10.2738 -0.0817607 0)
(10.5846 -0.176882 0)
(10.0094 -0.322998 0)
)
;

boundaryField
{
    inlet
    {
        type            fixedValue;
        value           uniform (10 0 0);
    }
    outlet
    {
        type            zeroGradient;
    }
    obstacle
    {
        type            noSlip;
    }
    upperWall
    {
        type            noSlip;
    }
    lowerWall
    {
        type            noSlip;
    }
    frontAndBack
    {
        type            empty;
    }
}


// ************************************************************************* //
