/*--------------------------------*- C++ -*----------------------------------*\
  =========                 |
  \\      /  F ield         | OpenFOAM: The Open Source CFD Toolbox
   \\    /   O peration     | Website:  https://openfoam.org
    \\  /    A nd           | Version:  10
     \\/     M anipulation  |
\*---------------------------------------------------------------------------*/
FoamFile
{
    format      ascii;
    class       volScalarField;
    location    "1.6";
    object      p;
}
// * * * * * * * * * * * * * * * * * * * * * * * * * * * * * * * * * * * * * //

dimensions      [0 2 -2 0 0 0 0];

internalField   nonuniform List<scalar> 
400
(
5.35126e-09
4.97147e-06
8.7786e-05
0.00022628
0.000420191
0.000665721
0.000957674
0.00128969
0.00165422
0.00204254
0.00244486
0.00285043
0.00324772
0.0036247
0.00396924
0.00426953
0.00451457
0.00469499
0.00480648
0.0048222
-6.2645e-06
-2.28802e-06
8.06009e-05
0.000218529
0.000411783
0.000656774
0.000948446
0.00128056
0.00164564
0.00203505
0.00243895
0.00284673
0.0032467
0.0036267
0.00397444
0.00427786
0.00452572
0.00470846
0.00482199
0.00483733
-9.0902e-05
-8.83602e-05
-3.61925e-06
0.000137659
0.000335986
0.000587811
0.000888093
0.00123058
0.00160777
0.00201088
0.00243007
0.00285426
0.00327133
0.00366867
0.0040333
0.00435236
0.00461367
0.00480675
0.00492698
0.00494255
-0.000238569
-0.000237164
-0.000148954
-1.53657e-06
0.000205887
0.000469812
0.000785193
0.00114573
0.00154381
0.00197047
0.00241549
0.00286752
0.00331369
0.00374052
0.00413389
0.00447963
0.004764
0.00497491
0.00510674
0.00512415
-0.000453503
-0.000453347
-0.000360042
-0.000203643
1.70197e-05
0.00029849
0.000635701
0.00102228
0.00145044
0.00191096
0.00239323
0.00288536
0.00337361
0.00384324
0.00427863
0.00466361
0.00498217
0.00521974
0.00536907
0.00538979
-0.000740767
-0.000742244
-0.000642256
-0.000474073
-0.000236025
6.8494e-05
0.000434396
0.000855212
0.00132297
0.00182815
0.00235967
0.00290511
0.00344962
0.00397699
0.00446956
0.00490856
0.00527474
0.00554991
0.00572418
0.00575011
-0.00110662
-0.00111037
-0.0010022
-0.000819522
-0.000559992
-0.000226905
0.00017464
0.000638076
0.00115524
0.00171632
0.00230975
0.00292269
0.00353907
0.00414103
0.00470848
0.00521929
0.00564981
0.00597663
0.00618574
0.00621961
-0.00155904
-0.00156603
-0.00144832
-0.00124857
-0.000963526
-0.000596333
-0.00015209
0.000362548
0.000939245
0.00156791
0.00223655
0.00293225
0.00363766
0.00433338
0.00499659
0.00560106
0.00611737
0.00651463
0.00677224
0.00681836
-0.00210783
-0.00211951
-0.0019911
-0.00177188
-0.00145737
-0.00105051
-0.000556383
1.82365e-05
0.000664868
0.00137324
0.0021308
0.00292554
0.00373859
0.00454969
0.00533341
0.00605875
0.00668891
0.00718253
0.00750832
0.00757404
-0.00276481
-0.00278333
-0.00264337
-0.00240253
-0.00205467
-0.00160249
-0.00105112
-0.000407521
0.000319673
0.00112038
0.00198338
0.00289139
0.00383147
0.00478186
0.00571505
0.00659519
0.00737648
0.0080033
0.00842656
0.00852539
-0.00354425
-0.00357272
-0.0034208
-0.00315647
-0.00277141
-0.00226801
-0.00165167
-0.000929817
-0.000111523
0.000792953
0.00177218
0.00281285
0.00390072
0.00501604
0.00613157
0.00720831
0.00819046
0.00900412
0.00956966
0.00972827
-0.00446345
-0.00450633
-0.00434274
-0.00405336
-0.00362705
-0.00306591
-0.00237605
-0.00156595
-0.000645612
0.000374397
0.00148341
0.00267069
0.00392484
0.0052302
0.00656327
0.00788577
0.00913452
0.0102145
0.0109923
0.0112669
-0.005544
-0.00560734
-0.00543351
-0.00511777
-0.00464552
-0.00401867
-0.00324494
-0.00233508
-0.00130104
-0.000154227
0.00109552
0.00244037
0.00387468
0.00539083
0.00697495
0.00859716
0.0101943
0.0116602
0.0127613
0.0132739
-0.00681684
-0.00690695
-0.00672512
-0.00638136
-0.00585685
-0.00515309
-0.00428147
-0.00325721
-0.00209619
-0.000811959
0.000586101
0.00209366
0.00371309
0.00544974
0.00730804
0.0092803
0.0113191
0.0133482
0.0149528
0.0159632
-0.00829306
-0.00843487
-0.0082565
-0.00788553
-0.00729955
-0.00650114
-0.00551041
-0.00435113
-0.00304635
-0.00161393
-6.40215e-05
0.00160175
0.00339772
0.00534386
0.00747389
0.00982374
0.0123911
0.0152259
0.0175829
0.0197284
-0.0102343
-0.0102885
-0.010106
-0.0096949
-0.00902705
-0.00810197
-0.00695755
-0.00563247
-0.00416064
-0.00256645
-0.000862805
0.000952186
0.00289249
0.00500219
0.00735378
0.0100497
0.0131609
0.0170668
0.020389
0.0250371
-0.0119405
-0.0124945
-0.0123363
-0.011904
-0.0111179
-0.0100037
-0.00864646
-0.00710829
-0.0054367
-0.0036645
-0.00181303
0.000107252
0.00209441
0.00424137
0.00660177
0.00940963
0.012562
0.0180604
0.022279
0.0322339
-0.0163564
-0.014607
-0.0147657
-0.0141747
-0.0133105
-0.0120499
-0.0104938
-0.00872524
-0.00682351
-0.00484718
-0.00282603
-0.000753927
0.00140466
0.0037201
0.00613637
0.00898895
0.0122026
0.0187544
0.0245407
0.0408472
-0.0172004
-0.020355
-0.0198152
-0.0191986
-0.0176697
-0.0155231
-0.0131896
-0.0108183
-0.00848076
-0.00620305
-0.00400801
-0.00191106
1.75082e-05
0.00177341
0.00298988
0.00521393
0.00476649
0.014303
0.0123283
0.050878
-0.0399406
-0.0181012
-0.0187815
-0.0182999
-0.0168978
-0.0151298
-0.013151
-0.0109869
-0.00873588
-0.00648612
-0.00430412
-0.00216124
-0.000208506
0.00188794
0.00348722
0.00657975
0.0101305
0.0250961
0.0517371
0.122632
)
;

boundaryField
{
    movingWall
    {
        type            zeroGradient;
    }
    fixedWalls
    {
        type            zeroGradient;
    }
    frontAndBack
    {
        type            empty;
    }
}


// ************************************************************************* //
