/*--------------------------------*- C++ -*----------------------------------*\
  =========                 |
  \\      /  F ield         | OpenFOAM: The Open Source CFD Toolbox
   \\    /   O peration     | Website:  https://openfoam.org
    \\  /    A nd           | Version:  10
     \\/     M anipulation  |
\*---------------------------------------------------------------------------*/
FoamFile
{
    format      ascii;
    class       volVectorField;
    location    "1.6";
    object      U;
}
// * * * * * * * * * * * * * * * * * * * * * * * * * * * * * * * * * * * * * //

dimensions      [0 1 -1 0 0 0 0];

internalField   nonuniform List<vector> 
400
(
(-0.000317083 0.000313271 0)
(-0.00115773 0.000427336 0)
(-0.00215284 0.000421279 0)
(-0.00306525 0.000393532 0)
(-0.00390442 0.000355584 0)
(-0.00464805 0.000309023 0)
(-0.00527762 0.00025485 0)
(-0.00577754 0.000194128 0)
(-0.00613476 0.000128006 0)
(-0.00633893 5.77242e-05 0)
(-0.00638262 -1.52978e-05 0)
(-0.0062615 -8.97498e-05 0)
(-0.00597476 -0.000163796 0)
(-0.00552564 -0.000235511 0)
(-0.00492178 -0.000302743 0)
(-0.00417571 -0.00036316 0)
(-0.00330573 -0.0004143 0)
(-0.00233745 -0.000452968 0)
(-0.00126666 -0.000465465 0)
(-0.000350394 -0.000346261 0)
(-0.000447257 0.0011613 0)
(-0.0015895 0.00154007 0)
(-0.00291402 0.00151497 0)
(-0.00413106 0.0014137 0)
(-0.0052484 0.00127518 0)
(-0.0062363 0.00110559 0)
(-0.00707028 0.000908907 0)
(-0.00773004 0.000689254 0)
(-0.0081989 0.000450945 0)
(-0.0084638 0.000198497 0)
(-0.00851577 -6.34256e-05 0)
(-0.00834967 -0.000329252 0)
(-0.00796475 -0.000593 0)
(-0.00736568 -0.000848014 0)
(-0.0065627 -0.00108679 0)
(-0.00557232 -0.00130116 0)
(-0.00441858 -0.00148242 0)
(-0.00313494 -0.00161909 0)
(-0.00172013 -0.00166481 0)
(-0.000487313 -0.00126921 0)
(-0.000479016 0.00222644 0)
(-0.00170167 0.00290964 0)
(-0.00311768 0.00285823 0)
(-0.00441708 0.00266538 0)
(-0.00560925 0.00240206 0)
(-0.00666283 0.00208031 0)
(-0.00755227 0.00170805 0)
(-0.00825654 0.00129328 0)
(-0.00875841 0.000844223 0)
(-0.00904458 0.000369347 0)
(-0.00910506 -0.000122568 0)
(-0.00893386 -0.000621603 0)
(-0.00852994 -0.00111679 0)
(-0.00789706 -0.00159584 0)
(-0.00704473 -0.00204487 0)
(-0.00598925 -0.00244858 0)
(-0.00475524 -0.00279047 0)
(-0.00337805 -0.00304862 0)
(-0.00185568 -0.0031382 0)
(-0.000526157 -0.00242448 0)
(-0.000510578 0.00332005 0)
(-0.00181549 0.0043212 0)
(-0.00332701 0.00424151 0)
(-0.00471233 0.00395351 0)
(-0.00598253 0.00356149 0)
(-0.0071048 0.00308359 0)
(-0.00805285 0.00253182 0)
(-0.0088053 0.00191814 0)
(-0.00934467 0.00125455 0)
(-0.00965717 0.000553227 0)
(-0.00973236 -0.000173083 0)
(-0.00956298 -0.000911063 0)
(-0.00914612 -0.00164493 0)
(-0.00848387 -0.00235691 0)
(-0.00758391 -0.00302663 0)
(-0.00646111 -0.00363119 0)
(-0.00513983 -0.00414538 0)
(-0.00365731 -0.00453554 0)
(-0.00201126 -0.00467533 0)
(-0.000570401 -0.00362733 0)
(-0.000554311 0.00449535 0)
(-0.00197199 0.00583944 0)
(-0.00361378 0.00572803 0)
(-0.00511606 0.0053365 0)
(-0.00649195 0.0048055 0)
(-0.00770679 0.00416014 0)
(-0.00873358 0.00341712 0)
(-0.00955083 0.00259257 0)
(-0.010141 0.00170228 0)
(-0.0104901 0.000761797 0)
(-0.010587 -0.00021303 0)
(-0.0104227 -0.00120546 0)
(-0.00999175 -0.00219568 0)
(-0.00929329 -0.00316075 0)
(-0.00833185 -0.00407363 0)
(-0.00711957 -0.00490292 0)
(-0.00567961 -0.00561299 0)
(-0.00405124 -0.00615562 0)
(-0.00223214 -0.00635686 0)
(-0.000633734 -0.00494508 0)
(-0.000612481 0.00578383 0)
(-0.00217938 0.0075041 0)
(-0.00399256 0.00735562 0)
(-0.00564763 0.00684838 0)
(-0.00716043 0.00616369 0)
(-0.00849418 0.00533507 0)
(-0.00962149 0.0043847 0)
(-0.0105213 0.00333336 0)
(-0.0111766 0.0022005 0)
(-0.0115736 0.00100457 0)
(-0.0117007 -0.000236249 0)
(-0.0115467 -0.00150305 0)
(-0.0111024 -0.00277287 0)
(-0.0103627 -0.00401825 0)
(-0.00932693 -0.00520546 0)
(-0.00800223 -0.00629358 0)
(-0.00640866 -0.00723412 0)
(-0.00458702 -0.00796002 0)
(-0.00253463 -0.00824048 0)
(-0.000721023 -0.00642576 0)
(-0.000687231 0.0072187 0)
(-0.00244514 0.00935726 0)
(-0.00447617 0.00916352 0)
(-0.00632333 0.00852346 0)
(-0.0080062 0.00766503 0)
(-0.00948589 0.0066322 0)
(-0.0107354 0.00545398 0)
(-0.0117351 0.00415628 0)
(-0.0124699 0.00276213 0)
(-0.012927 0.00129204 0)
(-0.0130947 -0.000234706 0)
(-0.0129594 -0.00179887 0)
(-0.012507 -0.00337604 0)
(-0.0117259 -0.00493569 0)
(-0.0106073 -0.00643788 0)
(-0.00914972 -0.00783121 0)
(-0.00736644 -0.00905119 0)
(-0.00529784 -0.0100057 0)
(-0.00293964 -0.0103932 0)
(-0.000838793 -0.00812598 0)
(-0.00078168 0.00883931 0)
(-0.00277977 0.0114483 0)
(-0.00508222 0.0111966 0)
(-0.00716489 0.0103997 0)
(-0.00905278 0.00934024 0)
(-0.0107053 0.00807583 0)
(-0.0120974 0.00664409 0)
(-0.0132132 0.00507687 0)
(-0.0140409 0.00340042 0)
(-0.0145705 0.00163615 0)
(-0.0147917 -0.000197487 0)
(-0.0146881 -0.00208358 0)
(-0.0142392 -0.00399917 0)
(-0.0134246 -0.00591348 0)
(-0.0122226 -0.00778201 0)
(-0.0106174 -0.00954247 0)
(-0.00860915 -0.0111108 0)
(-0.00623277 -0.0123609 0)
(-0.00347937 -0.0128998 0)
(-0.00099752 -0.0101195 0)
(-0.000900567 0.0106929 0)
(-0.0031987 0.0138354 0)
(-0.00583567 0.013506 0)
(-0.00820222 0.0125181 0)
(-0.0103313 0.0112206 0)
(-0.0121822 0.00968895 0)
(-0.0137344 0.00797209 0)
(-0.0149788 0.00610874 0)
(-0.0159107 0.00412788 0)
(-0.0165249 0.00204997 0)
(-0.0168145 -0.000110375 0)
(-0.0167611 -0.0023415 0)
(-0.0163369 -0.00462735 0)
(-0.0155088 -0.00694161 0)
(-0.0142365 -0.00923922 0)
(-0.0124809 -0.0114482 0)
(-0.0102177 -0.0134613 0)
(-0.0074659 -0.0151071 0)
(-0.00420513 -0.0158689 0)
(-0.00121482 -0.0125065 0)
(-0.00105136 0.0128387 0)
(-0.00372505 0.0165895 0)
(-0.00677253 0.0161509 0)
(-0.00947694 0.0149231 0)
(-0.0118835 0.0133365 0)
(-0.013954 0.0114911 0)
(-0.0156778 0.00945054 0)
(-0.0170575 0.00726145 0)
(-0.0180998 0.00495465 0)
(-0.0188088 0.00254699 0)
(-0.0191832 4.48929e-05 0)
(-0.0192051 -0.00254853 0)
(-0.0188394 -0.00523288 0)
(-0.0180365 -0.00799371 0)
(-0.0167293 -0.0107933 0)
(-0.0148426 -0.0135556 0)
(-0.0123095 -0.0161487 0)
(-0.00911118 -0.0183418 0)
(-0.00520179 -0.0194445 0)
(-0.00152206 -0.0154303 0)
(-0.00124641 0.0153542 0)
(-0.00439463 0.0197992 0)
(-0.00794574 0.019201 0)
(-0.0110478 0.0176615 0)
(-0.0137651 0.0157151 0)
(-0.0160683 0.013495 0)
(-0.0179643 0.0110836 0)
(-0.0194749 0.00853676 0)
(-0.0206253 0.00588568 0)
(-0.0214348 0.00314003 0)
(-0.02191 0.000293178 0)
(-0.022039 -0.00266948 0)
(-0.0217822 -0.00577024 0)
(-0.0210693 -0.00901872 0)
(-0.0197986 -0.0123987 0)
(-0.0178402 -0.0158442 0)
(-0.0150565 -0.019205 0)
(-0.0113477 -0.0221788 0)
(-0.00661632 -0.0238204 0)
(-0.00197886 -0.0191099 0)
(-0.00150733 0.0183464 0)
(-0.00526486 0.0235784 0)
(-0.00943465 0.0227387 0)
(-0.0129988 0.0207808 0)
(-0.0160521 0.0183756 0)
(-0.0185858 0.0157001 0)
(-0.0206362 0.0128607 0)
(-0.0222556 0.00992306 0)
(-0.0234967 0.00691593 0)
(-0.0244015 0.00383699 0)
(-0.0249928 0.000660009 0)
(-0.0252686 -0.00265771 0)
(-0.0251887 -0.00617084 0)
(-0.024665 -0.00992998 0)
(-0.0235551 -0.0139628 0)
(-0.0216541 -0.0182409 0)
(-0.0187116 -0.0226226 0)
(-0.014463 -0.0267406 0)
(-0.0087165 -0.0292592 0)
(-0.00270669 -0.0239024 0)
(-0.00187435 0.0219753 0)
(-0.00643161 0.0280787 0)
(-0.0113604 0.0268621 0)
(-0.0154521 0.0243244 0)
(-0.0188482 0.0213211 0)
(-0.0215838 0.0180837 0)
(-0.0237416 0.0147483 0)
(-0.0254199 0.0113879 0)
(-0.0267116 0.00802397 0)
(-0.027691 0.00463566 0)
(-0.0284049 0.00116879 0)
(-0.0288701 -0.00245521 0)
(-0.0290547 -0.00633768 0)
(-0.0288614 -0.0105913 0)
(-0.02811 -0.0153201 0)
(-0.0265068 -0.0205817 0)
(-0.0236441 -0.0263026 0)
(-0.0189281 -0.0321315 0)
(-0.0120139 -0.0361055 0)
(-0.00396717 -0.0304328 0)
(-0.00242803 0.026433 0)
(-0.00806509 0.0334771 0)
(-0.0139123 0.0316768 0)
(-0.0185866 0.02832 0)
(-0.0222955 0.0245248 0)
(-0.0251593 0.0205884 0)
(-0.0273325 0.0166785 0)
(-0.0289802 0.0128687 0)
(-0.0302492 0.00916397 0)
(-0.0312569 0.0055169 0)
(-0.0320839 0.00183827 0)
(-0.0327754 -0.0019958 0)
(-0.0333251 -0.00614399 0)
(-0.0336478 -0.0108039 0)
(-0.033546 -0.0161987 0)
(-0.0326458 -0.0225492 0)
(-0.0303775 -0.0299594 0)
(-0.0255179 -0.0383254 0)
(-0.017525 -0.0446733 0)
(-0.00635946 -0.0399623 0)
(-0.0032893 0.0325339 0)
(-0.0104052 0.0401772 0)
(-0.0173598 0.037349 0)
(-0.0226572 0.0327705 0)
(-0.026583 0.027912 0)
(-0.0294309 0.0231029 0)
(-0.0314615 0.0185339 0)
(-0.0329342 0.0142613 0)
(-0.0340628 0.0102568 0)
(-0.0350157 0.00643532 0)
(-0.0359164 0.00266761 0)
(-0.0368508 -0.00122148 0)
(-0.037861 -0.00544059 0)
(-0.0389139 -0.0102995 0)
(-0.0398523 -0.0161743 0)
(-0.0402766 -0.0235596 0)
(-0.0395645 -0.032879 0)
(-0.0353844 -0.0448705 0)
(-0.0273873 -0.0549007 0)
(-0.0114363 -0.0548745 0)
(-0.00518636 0.0383757 0)
(-0.014541 0.0477562 0)
(-0.0222947 0.043739 0)
(-0.0280828 0.0375587 0)
(-0.0319635 0.03131 0)
(-0.0345327 0.025425 0)
(-0.0361644 0.0201215 0)
(-0.0372429 0.0154021 0)
(-0.0380558 0.0111782 0)
(-0.0388218 0.00731228 0)
(-0.0397114 0.00363502 0)
(-0.0408485 -5.86065e-05 0)
(-0.0423608 -0.00405125 0)
(-0.0443294 -0.00872284 0)
(-0.0467373 -0.0145698 0)
(-0.0492738 -0.0225824 0)
(-0.051703 -0.0334367 0)
(-0.0498312 -0.0508162 0)
(-0.045087 -0.0664422 0)
(-0.0218703 -0.0802229 0)
(-0.00613999 0.055335 0)
(-0.0181745 0.0579477 0)
(-0.0286274 0.0512855 0)
(-0.0351429 0.0421462 0)
(-0.038645 0.034098 0)
(-0.0404757 0.027058 0)
(-0.0412674 0.0210732 0)
(-0.0415921 0.0160148 0)
(-0.041804 0.0117143 0)
(-0.0421509 0.00797541 0)
(-0.0428209 0.00457952 0)
(-0.0440077 0.00127001 0)
(-0.0459193 -0.00227264 0)
(-0.0487176 -0.0065052 0)
(-0.052816 -0.0119975 0)
(-0.0579253 -0.0204396 0)
(-0.0659845 -0.0327478 0)
(-0.0683784 -0.0565287 0)
(-0.0722278 -0.0813903 0)
(-0.035777 -0.124345 0)
(-0.0162618 0.0555304 0)
(-0.0365259 0.0739651 0)
(-0.0390132 0.0620828 0)
(-0.0446918 0.0496463 0)
(-0.0452642 0.0384595 0)
(-0.0447146 0.0291278 0)
(-0.0434694 0.0218632 0)
(-0.0421366 0.0162608 0)
(-0.0410368 0.0119109 0)
(-0.0403974 0.00845056 0)
(-0.0404084 0.00561059 0)
(-0.0412505 0.00317562 0)
(-0.0432022 0.00103157 0)
(-0.0464641 -0.00117716 0)
(-0.0520772 -0.00304994 0)
(-0.0591489 -0.00924999 0)
(-0.0723356 -0.0136229 0)
(-0.0743343 -0.0474457 0)
(-0.0882417 -0.0791668 0)
(-0.025967 -0.19148 0)
(-0.0615134 0.12418 0)
(-0.0515152 0.067549 0)
(-0.0467393 0.0557878 0)
(-0.0350198 0.0412197 0)
(-0.0232899 0.029592 0)
(-0.0133424 0.021694 0)
(-0.00502734 0.01615 0)
(0.00147243 0.0120398 0)
(0.00635886 0.00894491 0)
(0.00986466 0.00659984 0)
(0.0121979 0.00482091 0)
(0.013598 0.00342703 0)
(0.0138594 0.00242318 0)
(0.0143489 0.00118482 0)
(0.0106633 -0.000193518 0)
(0.0150282 -0.00617179 0)
(0.000380273 -0.0181154 0)
(0.0217826 -0.0605504 0)
(-0.0256234 -0.140099 0)
(0.0358634 -0.273299 0)
(0.132406 0.137812 0)
(0.163278 0.0772878 0)
(0.24027 0.0511201 0)
(0.283607 0.034504 0)
(0.311571 0.022538 0)
(0.331651 0.014638 0)
(0.346223 0.00980547 0)
(0.356672 0.00683649 0)
(0.364277 0.0049073 0)
(0.369945 0.0035945 0)
(0.374003 0.00269575 0)
(0.377334 0.00199959 0)
(0.378532 0.00148213 0)
(0.382031 0.00109144 0)
(0.376592 -0.000466576 0)
(0.386375 0.000246932 0)
(0.356028 -0.00789909 0)
(0.37259 -0.0123186 0)
(0.251185 -0.0492984 0)
(0.216744 -0.124703 0)
)
;

boundaryField
{
    movingWall
    {
        type            fixedValue;
        value           uniform (1 0 0);
    }
    fixedWalls
    {
        type            noSlip;
    }
    frontAndBack
    {
        type            empty;
    }
}


// ************************************************************************* //
