/*--------------------------------*- C++ -*----------------------------------*\
  =========                 |
  \\      /  F ield         | OpenFOAM: The Open Source CFD Toolbox
   \\    /   O peration     | Website:  https://openfoam.org
    \\  /    A nd           | Version:  10
     \\/     M anipulation  |
\*---------------------------------------------------------------------------*/
FoamFile
{
    format      ascii;
    class       volScalarField;
    location    "6.825";
    object      p;
}
// * * * * * * * * * * * * * * * * * * * * * * * * * * * * * * * * * * * * * //

dimensions      [0 2 -2 0 0 0 0];

internalField   nonuniform List<scalar> 
475
(
-0.059422
-0.0847821
-0.114181
-0.137909
-0.16067
-0.0851604
-0.0984802
-0.114738
-0.133784
-0.150643
-0.0832295
-0.0926033
-0.107574
-0.124978
-0.14133
-0.0824946
-0.0934183
-0.108231
-0.123586
-0.137112
-0.0527253
-0.0796235
-0.103217
-0.120854
-0.133534
-0.178889
-0.189154
-0.1929
-0.195453
-0.199539
-0.205565
-0.212208
-0.216812
-0.217599
-0.213936
-0.20537
-0.192446
-0.176883
-0.160437
-0.144443
-0.129396
-0.116253
-0.107389
-0.103911
-0.104418
-0.105886
-0.105584
-0.102222
-0.095934
-0.0875054
-0.0778463
-0.0676255
-0.0576832
-0.0482956
-0.0394151
-0.0308472
-0.0228136
-0.0159748
-0.0108697
-0.00749608
-0.00519929
-0.00322701
-0.00122188
0.000694487
0.00221927
0.00309254
0.00327852
0.00284375
0.00194997
0.000733897
-0.16717
-0.178679
-0.184602
-0.186811
-0.187997
-0.189128
-0.189966
-0.189586
-0.18721
-0.182575
-0.175772
-0.167354
-0.158227
-0.149211
-0.140782
-0.132001
-0.124339
-0.120144
-0.120154
-0.12276
-0.125181
-0.12485
-0.120337
-0.111954
-0.100974
-0.088871
-0.0763909
-0.0641325
-0.0524945
-0.0415274
-0.0312959
-0.0220908
-0.0145351
-0.00907559
-0.00548237
-0.00299277
-0.000863286
0.00121345
0.00308655
0.0044455
0.00504673
0.00487479
0.00404777
0.00271631
0.0010759
-0.154644
-0.16415
-0.169708
-0.171941
-0.171931
-0.170442
-0.16783
-0.164194
-0.159642
-0.154552
-0.150183
-0.147678
-0.147204
-0.145544
-0.139459
-0.132303
-0.130017
-0.130931
-0.132248
-0.133918
-0.134427
-0.131671
-0.125126
-0.115293
-0.103332
-0.09023
-0.0770746
-0.0643881
-0.0523015
-0.0408415
-0.0302125
-0.0208701
-0.0133047
-0.00771365
-0.00380167
-0.000961491
0.0013645
0.003415
0.00509576
0.00617798
0.0064858
0.00602161
0.00488954
0.0032439
0.00126232
-0.147787
-0.155528
-0.160105
-0.161783
-0.160616
-0.15721
-0.151834
-0.145064
-0.137369
-0.130571
-0.126871
-0.129593
-0.141728
-0.150188
-0.141395
-0.122764
-0.115749
-0.121744
-0.130763
-0.137064
-0.138619
-0.135159
-0.127507
-0.116429
-0.103296
-0.0894834
-0.0757392
-0.0625693
-0.0502229
-0.0388442
-0.0285666
-0.0196533
-0.0124033
-0.00687874
-0.00280765
0.000254496
0.00270283
0.00470696
0.00621603
0.00707651
0.00717619
0.00653204
0.0052322
0.00345595
0.00129578
-0.143077
-0.149983
-0.154224
-0.155516
-0.153802
-0.149334
-0.142561
-0.134238
-0.125236
-0.117714
-0.113557
-0.118569
-0.134121
-0.147008
-0.146904
-0.139065
-0.131856
-0.129037
-0.130414
-0.132678
-0.132596
-0.129048
-0.121769
-0.111646
-0.0995608
-0.0865531
-0.0734509
-0.060765
-0.0486962
-0.0376007
-0.0276156
-0.0189953
-0.0119383
-0.00644777
-0.00229357
0.000868457
0.00334536
0.00527804
0.00664449
0.00733431
0.00728218
0.0065059
0.00512011
0.00328197
0.00116997
-0.204817
-0.205631
-0.206986
-0.208607
-0.212139
-0.218807
-0.227357
-0.235142
-0.239114
-0.236727
-0.226767
-0.209259
-0.184782
-0.155013
-0.122694
-0.0909286
-0.0624173
-0.038843
-0.0211711
-0.00968309
-0.00375889
-0.0022151
-0.00362742
-0.00662917
-0.010106
-0.0133216
-0.0159206
-0.0178506
-0.0192527
-0.0202374
-0.0209554
-0.0212111
-0.0208606
-0.0198447
-0.0180859
-0.0159802
-0.0138041
-0.0116723
-0.00959959
-0.00748692
-0.00538063
-0.00341102
-0.00178358
-0.000613355
7.12517e-05
-0.198528
-0.200755
-0.202848
-0.206592
-0.212716
-0.221635
-0.231756
-0.240584
-0.245389
-0.243778
-0.23505
-0.218164
-0.193741
-0.163557
-0.130388
-0.0976669
-0.0684679
-0.0443777
-0.0262106
-0.0142019
-0.00777753
-0.00576469
-0.0067521
-0.00934605
-0.0124003
-0.0151544
-0.0172552
-0.0186962
-0.0196395
-0.0205812
-0.0215141
-0.0220977
-0.0215116
-0.0195427
-0.0169051
-0.0143385
-0.0123482
-0.0108636
-0.00939881
-0.00763354
-0.00561834
-0.00360012
-0.00188134
-0.000670496
3.45361e-05
-0.207434
-0.20583
-0.20592
-0.208285
-0.214878
-0.225144
-0.236336
-0.245944
-0.251518
-0.250243
-0.241028
-0.224078
-0.200012
-0.170474
-0.138199
-0.106576
-0.0783447
-0.0551624
-0.0377782
-0.0263476
-0.0202444
-0.018167
-0.0186129
-0.0202799
-0.0221389
-0.023611
-0.0245609
-0.0247414
-0.0242739
-0.0234401
-0.0224727
-0.021135
-0.019348
-0.0171764
-0.0148729
-0.0128011
-0.0110791
-0.00953242
-0.00801438
-0.00636848
-0.00460263
-0.0028961
-0.00147003
-0.00050662
-1.21763e-05
-0.194602
-0.196746
-0.198344
-0.202297
-0.209664
-0.220176
-0.231315
-0.240825
-0.246348
-0.245952
-0.238073
-0.222455
-0.200201
-0.17329
-0.14432
-0.116378
-0.0916249
-0.0715116
-0.0570698
-0.0480779
-0.0433203
-0.0413822
-0.0409309
-0.0407776
-0.0400271
-0.0384858
-0.0368366
-0.0342538
-0.0308827
-0.0273791
-0.0242183
-0.0213875
-0.0186398
-0.0157548
-0.0128952
-0.0102924
-0.00817705
-0.00651606
-0.00510373
-0.00373344
-0.00241173
-0.00123343
-0.00040673
4.58042e-05
4.04501e-05
-0.230293
-0.20858
-0.205231
-0.204541
-0.208803
-0.217832
-0.227707
-0.235217
-0.238764
-0.236823
-0.228416
-0.21359
-0.193845
-0.171006
-0.147234
-0.124885
-0.105804
-0.0912869
-0.0821134
-0.0775565
-0.0755027
-0.074064
-0.0722225
-0.0692715
-0.0649365
-0.0597222
-0.0535001
-0.0468315
-0.0399697
-0.0334213
-0.0274343
-0.0220019
-0.0171709
-0.0132031
-0.0101271
-0.00775479
-0.00577318
-0.00393373
-0.00218994
-0.00066862
0.000446585
0.00110318
0.00125093
0.000996487
0.000356009
)
;

boundaryField
{
    inlet
    {
        type            zeroGradient;
    }
    outlet
    {
        type            fixedValue;
        value           uniform 0;
    }
    upperWall
    {
        type            zeroGradient;
    }
    lowerWall
    {
        type            zeroGradient;
    }
    frontAndBack
    {
        type            empty;
    }
}


// ************************************************************************* //
