/*--------------------------------*- C++ -*----------------------------------*\
  =========                 |
  \\      /  F ield         | OpenFOAM: The Open Source CFD Toolbox
   \\    /   O peration     | Website:  https://openfoam.org
    \\  /    A nd           | Version:  10
     \\/     M anipulation  |
\*---------------------------------------------------------------------------*/
FoamFile
{
    format      ascii;
    class       volScalarField;
    location    "1.725";
    object      p;
}
// * * * * * * * * * * * * * * * * * * * * * * * * * * * * * * * * * * * * * //

dimensions      [0 2 -2 0 0 0 0];

internalField   nonuniform List<scalar> 
400
(
3.62391e-09
-2.44495e-07
7.52798e-05
0.000203181
0.000383929
0.000614208
0.000889357
0.0012036
0.00154997
0.00192031
0.00230535
0.00269475
0.0030773
0.00344117
0.00377433
0.00406497
0.00430198
0.00447587
0.00458274
0.00459378
-1.12528e-06
-2.49229e-06
7.29382e-05
0.000199869
0.000379394
0.00060845
0.000882544
0.00119605
0.00154212
0.0019127
0.00229848
0.00268934
0.00307388
0.0034402
0.00377608
0.00406948
0.00430903
0.00448505
0.00459395
0.00460448
-7.85495e-05
-8.17248e-05
-4.92089e-06
0.000124633
0.00030831
0.000543131
0.000824667
0.00114734
0.0015043
0.00188744
0.00228749
0.00269387
0.00309482
0.00347794
0.00383036
0.00413918
0.00439208
0.00457836
0.00469392
0.00470436
-0.000215282
-0.000220072
-0.000140559
-6.01613e-06
0.000185303
0.000430539
0.000725341
0.00106417
0.00144016
0.00184508
0.00226936
0.00270225
0.00313126
0.00354311
0.00392382
0.0042591
0.00453499
0.0047391
0.00486627
0.0048782
-0.000415597
-0.000422265
-0.000338717
-0.000196788
5.75608e-06
0.000266213
0.000580328
0.000942606
0.00134614
0.00178254
0.00224194
0.00271316
0.00318288
0.00363664
0.00405887
0.00443327
0.00474345
0.00497436
0.00511915
0.00513399
-0.000684067
-0.000693191
-0.000604377
-0.000452785
-0.000235531
4.48977e-05
0.000384382
0.000777494
0.0012173
0.00169525
0.00220114
0.0027234
0.00324769
0.00375812
0.00423708
0.00466557
0.00502379
0.00529275
0.00546287
0.00548244
-0.00102628
-0.00103873
-0.00094358
-0.000780257
-0.000544999
-0.000239993
0.00013084
0.00056219
0.00104714
0.00157703
0.00214131
0.00272821
0.00332224
0.00390604
0.00445954
0.00496027
0.00538378
0.00570542
0.00591122
0.00593827
-0.00144935
-0.00146636
-0.00136406
-0.00118722
-0.000930922
-0.000596926
-0.000188878
0.000288097
0.00082718
0.00141971
0.00205481
0.00272079
0.00340116
0.00407727
0.00472639
0.00532179
0.00583291
0.00622699
0.00648297
0.00652197
-0.00196194
-0.00198532
-0.00187538
-0.00168364
-0.00140359
-0.00103644
-0.000585461
-5.55516e-05
0.000546657
0.00121279
0.00193278
0.00269165
0.00347612
0.00426586
0.00503558
0.0057537
0.00638189
0.00687599
0.00720326
0.00726212
-0.00257442
-0.00260675
-0.00248919
-0.00228168
-0.00197559
-0.00157139
-0.00107193
-0.000481905
0.000192168
0.000942076
0.00175776
0.00262675
0.0035346
0.00446149
0.0053809
0.00625679
0.00704138
0.00767514
0.00810546
0.00819919
-0.00329914
-0.00334412
-0.00321966
-0.0029962
-0.00266225
-0.00221729
-0.00166383
-0.00100654
-0.00025195
0.000591937
0.00151581
0.00250907
0.00355887
0.00464739
0.00574908
0.00682556
0.00781926
0.00865091
0.00923342
0.00939243
-0.00415084
-0.00421376
-0.00408419
-0.00384546
-0.00348225
-0.00299281
-0.00237951
-0.00164749
-0.00080376
0.000143689
0.00118658
0.00231634
0.00352424
0.00479738
0.0061154
0.00744228
0.00871433
0.00983091
0.010643
0.0109326
-0.00514766
-0.00523583
-0.00510455
-0.00485228
-0.00445864
-0.00392033
-0.00324024
-0.00242497
-0.00148312
-0.000423415
0.00074665
0.00202137
0.00339785
0.00487253
0.00643727
0.00806767
0.00970302
0.0112355
0.0124018
0.012965
-0.00631574
-0.00643775
-0.00630946
-0.00604619
-0.00562055
-0.0050269
-0.00427015
-0.00336043
-0.00231003
-0.00112998
0.000172256
0.00159422
0.00313895
0.00481803
0.00664543
0.00862459
0.0107171
0.0128561
0.014583
0.0157281
-0.00765701
-0.00784366
-0.00773278
-0.00746559
-0.00700551
-0.00634534
-0.00549594
-0.00447486
-0.0033017
-0.00199267
-0.00055718
0.00100364
0.00270267
0.00456425
0.00663733
0.00897844
0.0116068
0.0146058
0.0171882
0.0196538
-0.00942287
-0.00954122
-0.009444
-0.00917018
-0.00866612
-0.0079174
-0.00694698
-0.00578686
-0.00446918
-0.00301858
-0.00144868
0.000243766
0.00207213
0.00405374
0.00629921
0.00894663
0.0120915
0.0161848
0.0198798
0.0251826
-0.0109266
-0.0115776
-0.011516
-0.0112692
-0.0106985
-0.00980407
-0.00865509
-0.00730865
-0.00581299
-0.0042042
-0.00250996
-0.000749428
0.00107558
0.00299127
0.00511836
0.00779411
0.010877
0.0164765
0.0213156
0.0323342
-0.0149777
-0.0132465
-0.013555
-0.0132475
-0.0127038
-0.0117599
-0.0104876
-0.00896481
-0.00727054
-0.00547398
-0.00362033
-0.00172248
0.000209297
0.00225782
0.00434662
0.00703623
0.0097615
0.0159483
0.0224303
0.0405916
-0.015252
-0.0187636
-0.0184561
-0.0182917
-0.0171915
-0.0154158
-0.013372
-0.0112226
-0.00907417
-0.00695957
-0.00491999
-0.0029792
-0.00121882
0.000397249
0.00138238
0.00257242
0.00163958
0.00866298
0.0115467
0.0509842
-0.037764
-0.0159565
-0.0168187
-0.0168627
-0.0160146
-0.014715
-0.0131161
-0.0112589
-0.00924745
-0.00718723
-0.00517957
-0.00318848
-0.00144651
0.000430965
0.00159802
0.00427271
0.0074271
0.0227172
0.0530693
0.128949
)
;

boundaryField
{
    movingWall
    {
        type            zeroGradient;
    }
    fixedWalls
    {
        type            zeroGradient;
    }
    frontAndBack
    {
        type            empty;
    }
}


// ************************************************************************* //
