/*--------------------------------*- C++ -*----------------------------------*\
  =========                 |
  \\      /  F ield         | OpenFOAM: The Open Source CFD Toolbox
   \\    /   O peration     | Website:  https://openfoam.org
    \\  /    A nd           | Version:  10
     \\/     M anipulation  |
\*---------------------------------------------------------------------------*/
FoamFile
{
    format      ascii;
    class       volVectorField;
    location    "3.5";
    object      U;
}
// * * * * * * * * * * * * * * * * * * * * * * * * * * * * * * * * * * * * * //

dimensions      [0 1 -1 0 0 0 0];

internalField   nonuniform List<vector> 
400
(
(-0.000148524 0.000145756 0)
(-0.000915589 0.000356284 0)
(-0.00207729 0.000395895 0)
(-0.00315058 0.000387546 0)
(-0.00417967 0.000366335 0)
(-0.00513089 0.00033753 0)
(-0.00597998 0.000300867 0)
(-0.00670514 0.000255428 0)
(-0.00728342 0.000200432 0)
(-0.0076914 0.000135402 0)
(-0.00790601 6.03402e-05 0)
(-0.00790529 -2.41165e-05 0)
(-0.00767029 -0.00011703 0)
(-0.00718782 -0.000215465 0)
(-0.00645297 -0.000315305 0)
(-0.00547146 -0.000411002 0)
(-0.004267 -0.000494517 0)
(-0.00290095 -0.000550427 0)
(-0.00134692 -0.000528262 0)
(-0.000252399 -0.000261965 0)
(-0.000372207 0.000919213 0)
(-0.00176962 0.00171773 0)
(-0.00371207 0.00185261 0)
(-0.00551546 0.00179596 0)
(-0.0072281 0.00167732 0)
(-0.00879465 0.00151923 0)
(-0.0101736 0.00132386 0)
(-0.0113296 0.00109062 0)
(-0.0122275 0.000819128 0)
(-0.0128337 0.000509783 0)
(-0.0131164 0.000164126 0)
(-0.0130477 -0.000214839 0)
(-0.012604 -0.000618613 0)
(-0.0117704 -0.00103582 0)
(-0.0105451 -0.00145047 0)
(-0.00894159 -0.00184095 0)
(-0.00700023 -0.00217656 0)
(-0.00481051 -0.00239776 0)
(-0.00234995 -0.00232116 0)
(-0.000515051 -0.0013318 0)
(-0.000436669 0.00214233 0)
(-0.00203244 0.00369933 0)
(-0.00422548 0.00394429 0)
(-0.00625669 0.00380833 0)
(-0.00818203 0.00354105 0)
(-0.00994081 0.00318824 0)
(-0.0114879 0.00275672 0)
(-0.0127851 0.00224788 0)
(-0.0137946 0.00166308 0)
(-0.0144803 0.00100487 0)
(-0.0148088 0.000277821 0)
(-0.0147464 -0.000510341 0)
(-0.0142647 -0.00134448 0)
(-0.0133462 -0.00220182 0)
(-0.0119848 -0.00305029 0)
(-0.0101902 -0.00384699 0)
(-0.0080028 -0.00453128 0)
(-0.00552026 -0.0049849 0)
(-0.00271492 -0.00485375 0)
(-0.000603216 -0.00293732 0)
(-0.000462586 0.00337251 0)
(-0.00216253 0.00571581 0)
(-0.00450017 0.00607126 0)
(-0.0066627 0.00585401 0)
(-0.00871543 0.0054386 0)
(-0.0105957 0.00489351 0)
(-0.0122578 0.00422951 0)
(-0.0136629 0.00344935 0)
(-0.0147721 0.00255525 0)
(-0.0155472 0.00155075 0)
(-0.0159514 0.00044234 0)
(-0.0159467 -0.000757981 0)
(-0.0154962 -0.00203226 0)
(-0.0145708 -0.00334838 0)
(-0.0131534 -0.00465937 0)
(-0.0112435 -0.00589989 0)
(-0.00887382 -0.00697514 0)
(-0.0061482 -0.00770006 0)
(-0.00303311 -0.00753076 0)
(-0.000674262 -0.00462477 0)
(-0.000489288 0.00468254 0)
(-0.00230167 0.00786722 0)
(-0.00479978 0.00834036 0)
(-0.00711061 0.00803897 0)
(-0.00930967 0.00747083 0)
(-0.0113326 0.00672843 0)
(-0.013134 0.00582661 0)
(-0.0146749 0.00476907 0)
(-0.015916 0.00355813 0)
(-0.016817 0.0021968 0)
(-0.0173361 0.000691073 0)
(-0.0174288 -0.000946767 0)
(-0.0170471 -0.0026961 0)
(-0.0161459 -0.00451866 0)
(-0.0146886 -0.00635473 0)
(-0.0126545 -0.00811518 0)
(-0.0100607 -0.00966353 0)
(-0.00701554 -0.0107308 0)
(-0.0034796 -0.0105479 0)
(-0.000776362 -0.00653628 0)
(-0.000524292 0.00608503 0)
(-0.00247992 0.01018 0)
(-0.00518139 0.010781 0)
(-0.00768042 0.0103929 0)
(-0.0100648 0.00966787 0)
(-0.0122685 0.00872428 0)
(-0.0142469 0.00758126 0)
(-0.0159624 0.00624307 0)
(-0.0173758 0.0047109 0)
(-0.0184452 0.00298532 0)
(-0.0191243 0.00106875 0)
(-0.0193611 -0.00103053 0)
(-0.0190928 -0.00329539 0)
(-0.0182517 -0.00568559 0)
(-0.0167733 -0.00813188 0)
(-0.0146035 -0.0105213 0)
(-0.0117285 -0.012667 0)
(-0.00825408 -0.0141901 0)
(-0.00413072 -0.0140401 0)
(-0.000930349 -0.00876869 0)
(-0.000568891 0.00760363 0)
(-0.00270392 0.012693 0)
(-0.00565798 0.0134338 0)
(-0.00838905 0.0129551 0)
(-0.0110004 0.0120676 0)
(-0.0134246 0.0109183 0)
(-0.0156192 0.00953127 0)
(-0.0175492 0.00791092 0)
(-0.0191777 0.00605613 0)
(-0.0204628 0.00396245 0)
(-0.0213553 0.00162482 0)
(-0.0217959 -0.000957959 0)
(-0.0217049 -0.00377991 0)
(-0.0209854 -0.00680837 0)
(-0.0195332 -0.00997327 0)
(-0.0172413 -0.0131417 0)
(-0.0140389 -0.0160685 0)
(-0.0100087 -0.0182282 0)
(-0.00508071 -0.0181979 0)
(-0.00116517 -0.0114701 0)
(-0.000623747 0.00926656 0)
(-0.00297758 0.0154527 0)
(-0.00623708 0.0163456 0)
(-0.00924502 0.0157691 0)
(-0.0121247 0.0147107 0)
(-0.0148074 0.0133496 0)
(-0.0172551 0.0117159 0)
(-0.0194382 0.00981424 0)
(-0.0213249 0.00764026 0)
(-0.022877 0.00518194 0)
(-0.0240451 0.00242205 0)
(-0.0247661 -0.000657716 0)
(-0.0249435 -0.00407287 0)
(-0.0244464 -0.00781397 0)
(-0.0231167 -0.011827 0)
(-0.0207677 -0.0159731 0)
(-0.0172278 -0.019947 0)
(-0.0125076 -0.0230326 0)
(-0.00649596 -0.0232845 0)
(-0.00153903 -0.0148689 0)
(-0.000690234 0.0111045 0)
(-0.00330685 0.0185089 0)
(-0.00692895 0.0195649 0)
(-0.0102591 0.0188782 0)
(-0.0134464 0.0176358 0)
(-0.0164221 0.0160542 0)
(-0.0191552 0.014171 0)
(-0.0216253 0.0119924 0)
(-0.0238104 0.00951022 0)
(-0.0256813 0.00670275 0)
(-0.0271951 0.00353508 0)
(-0.0282907 -3.83764e-05 0)
(-0.0288613 -0.0040602 0)
(-0.0287412 -0.00857618 0)
(-0.0277063 -0.0135772 0)
(-0.0254565 -0.0189505 0)
(-0.0216546 -0.0243478 0)
(-0.0161326 -0.0288226 0)
(-0.00869716 -0.0296649 0)
(-0.00217944 -0.0193438 0)
(-0.000771269 0.0131527 0)
(-0.00370212 0.0219174 0)
(-0.0077501 0.0231424 0)
(-0.0114481 0.0223246 0)
(-0.0149788 0.0208779 0)
(-0.0182753 0.0190622 0)
(-0.0213177 0.016926 0)
(-0.0240996 0.0144787 0)
(-0.0266151 0.0117094 0)
(-0.0288527 0.00858598 0)
(-0.0307867 0.00505279 0)
(-0.0323615 0.00103 0)
(-0.0334818 -0.00357662 0)
(-0.0339659 -0.00889216 0)
(-0.0335112 -0.0150032 0)
(-0.0316738 -0.02189 0)
(-0.0278666 -0.029224 0)
(-0.0215425 -0.0358139 0)
(-0.0123473 -0.0378499 0)
(-0.00338343 -0.0255832 0)
(-0.000872749 0.0154554 0)
(-0.00418158 0.0257426 0)
(-0.00872746 0.0271324 0)
(-0.0128382 0.0261483 0)
(-0.0167424 0.0244655 0)
(-0.0203774 0.0223949 0)
(-0.0237398 0.0199994 0)
(-0.0268429 0.0172946 0)
(-0.0297041 0.0142699 0)
(-0.0323389 0.0108852 0)
(-0.034752 0.00706481 0)
(-0.0369211 0.0026903 0)
(-0.0387849 -0.00240877 0)
(-0.0401728 -0.00845897 0)
(-0.0407362 -0.0157209 0)
(-0.0398807 -0.0243865 0)
(-0.0366828 -0.0343022 0)
(-0.0299131 -0.0440957 0)
(-0.0188951 -0.0484928 0)
(-0.00587476 -0.0349598 0)
(-0.00100661 0.018073 0)
(-0.00477745 0.0300627 0)
(-0.00990498 0.0315924 0)
(-0.0144711 0.030385 0)
(-0.0187688 0.0284177 0)
(-0.0227453 0.0260598 0)
(-0.0264194 0.0233925 0)
(-0.0298304 0.020442 0)
(-0.0330259 0.0172026 0)
(-0.0360593 0.013633 0)
(-0.0389834 0.00964492 0)
(-0.0418376 0.00508547 0)
(-0.0446351 -0.000290736 0)
(-0.0472896 -0.00683919 0)
(-0.0494972 -0.0150998 0)
(-0.050589 -0.0256411 0)
(-0.049283 -0.0387921 0)
(-0.0433296 -0.053247 0)
(-0.0314749 -0.0621753 0)
(-0.0114663 -0.0505287 0)
(-0.00119847 0.0210963 0)
(-0.00554866 0.0349813 0)
(-0.0113537 0.0365824 0)
(-0.0164106 0.0350608 0)
(-0.0211067 0.0327383 0)
(-0.0254067 0.0300455 0)
(-0.0293593 0.0270838 0)
(-0.0330345 0.0238941 0)
(-0.0365148 0.020483 0)
(-0.0398985 0.016819 0)
(-0.0433019 0.0128178 0)
(-0.0468603 0.00831111 0)
(-0.0507166 0.0029988 0)
(-0.0550067 -0.00360931 0)
(-0.0596571 -0.0122979 0)
(-0.0641787 -0.0242588 0)
(-0.0671329 -0.0408408 0)
(-0.0650899 -0.0615205 0)
(-0.0558421 -0.0789662 0)
(-0.0238856 -0.0781925 0)
(-0.0014998 0.0246226 0)
(-0.00661402 0.0406311 0)
(-0.013198 0.0422031 0)
(-0.0187527 0.040243 0)
(-0.0238247 0.0374444 0)
(-0.028404 0.0343268 0)
(-0.0325726 0.0310224 0)
(-0.0364327 0.0275858 0)
(-0.0401021 0.0240381 0)
(-0.0437252 0.0203728 0)
(-0.0474921 0.0165486 0)
(-0.0516589 0.0124557 0)
(-0.0565638 0.00783889 0)
(-0.0626285 0.00214101 0)
(-0.0703728 -0.00568251 0)
(-0.0802145 -0.0175424 0)
(-0.0910661 -0.0363584 0)
(-0.0980746 -0.0648475 0)
(-0.0958995 -0.098186 0)
(-0.0430677 -0.129507 0)
(-0.00193116 0.0292291 0)
(-0.00796264 0.0467902 0)
(-0.0155417 0.0479504 0)
(-0.0216334 0.0452626 0)
(-0.0270612 0.0419944 0)
(-0.0318314 0.0385463 0)
(-0.0360993 0.0349895 0)
(-0.0400138 0.0313632 0)
(-0.0437159 0.0277159 0)
(-0.0473651 0.0240947 0)
(-0.0511794 0.020542 0)
(-0.0555078 0.0170599 0)
(-0.0609422 0.0135655 0)
(-0.0684294 0.00969688 0)
(-0.0793967 0.00447606 0)
(-0.0957446 -0.00446901 0)
(-0.117718 -0.0221042 0)
(-0.135789 -0.0598195 0)
(-0.139063 -0.124793 0)
(-0.0505152 -0.220112 0)
(-0.00377989 0.0333731 0)
(-0.0116878 0.0560917 0)
(-0.0191079 0.056708 0)
(-0.0252469 0.053428 0)
(-0.030599 0.0489972 0)
(-0.0354172 0.0444152 0)
(-0.0397334 0.0399335 0)
(-0.043639 0.0356583 0)
(-0.0472401 0.031659 0)
(-0.0506882 0.0280036 0)
(-0.0542175 0.0248342 0)
(-0.0582025 0.0223534 0)
(-0.0633192 0.0208939 0)
(-0.0707867 0.0207103 0)
(-0.0827564 0.0215127 0)
(-0.101841 0.020156 0)
(-0.129148 0.00719205 0)
(-0.148096 -0.051342 0)
(-0.152297 -0.173521 0)
(-0.0293156 -0.337027 0)
(-0.00170029 0.0474868 0)
(-0.0102637 0.0594415 0)
(-0.0226991 0.0583232 0)
(-0.0295658 0.0533314 0)
(-0.035907 0.0491736 0)
(-0.0406378 0.0451693 0)
(-0.0443721 0.0412623 0)
(-0.0474168 0.0374111 0)
(-0.0499803 0.0337068 0)
(-0.0521878 0.0302467 0)
(-0.0541639 0.027352 0)
(-0.0560723 0.0253817 0)
(-0.0583431 0.0252308 0)
(-0.0617702 0.0276818 0)
(-0.0682992 0.0335909 0)
(-0.0787041 0.0369412 0)
(-0.102707 0.0255398 0)
(-0.109952 -0.0556434 0)
(-0.118638 -0.231697 0)
(-0.00192472 -0.430018 0)
(-0.0111079 0.0383976 0)
(-0.0264294 0.0833964 0)
(-0.0280777 0.0793761 0)
(-0.0361893 0.0731375 0)
(-0.0398629 0.0650506 0)
(-0.0420653 0.0573675 0)
(-0.0428152 0.0504203 0)
(-0.0426978 0.0442158 0)
(-0.042032 0.0387989 0)
(-0.0408851 0.0340776 0)
(-0.039548 0.0303474 0)
(-0.0377219 0.0280521 0)
(-0.0358187 0.0282365 0)
(-0.0325144 0.032243 0)
(-0.0304062 0.0423691 0)
(-0.0191984 0.0498413 0)
(-0.0217894 0.045764 0)
(0.00674658 -0.044097 0)
(-0.0258961 -0.262414 0)
(0.0314725 -0.470813 0)
(-0.0748058 0.101413 0)
(-0.0592638 0.064479 0)
(-0.0600315 0.0621726 0)
(-0.0402018 0.0548214 0)
(-0.023639 0.0471993 0)
(-0.00586551 0.0410572 0)
(0.01056 0.0361179 0)
(0.0259008 0.0317036 0)
(0.0393561 0.0280265 0)
(0.0521435 0.024378 0)
(0.0628169 0.0218244 0)
(0.0739915 0.0193516 0)
(0.0830093 0.0189277 0)
(0.0978708 0.0188222 0)
(0.10442 0.0207891 0)
(0.145165 0.0186866 0)
(0.141363 -0.00152664 0)
(0.201891 -0.058332 0)
(0.140823 -0.253991 0)
(0.118056 -0.438568 0)
(0.120881 0.140548 0)
(0.155676 0.0872695 0)
(0.23563 0.0650924 0)
(0.291585 0.0499072 0)
(0.335559 0.039235 0)
(0.373364 0.031349 0)
(0.404069 0.0256787 0)
(0.433098 0.0211293 0)
(0.453461 0.0176379 0)
(0.478207 0.0149408 0)
(0.488936 0.0120106 0)
(0.513497 0.0111241 0)
(0.514376 0.0080609 0)
(0.543796 0.00877192 0)
(0.532741 0.00603911 0)
(0.570178 0.00334345 0)
(0.538137 -0.00308663 0)
(0.559639 -0.0313264 0)
(0.428125 -0.0769225 0)
(0.277164 -0.152318 0)
)
;

boundaryField
{
    movingWall
    {
        type            fixedValue;
        value           uniform (1 0 0);
    }
    fixedWalls
    {
        type            noSlip;
    }
    frontAndBack
    {
        type            empty;
    }
}


// ************************************************************************* //
