/*--------------------------------*- C++ -*----------------------------------*\
  =========                 |
  \\      /  F ield         | OpenFOAM: The Open Source CFD Toolbox
   \\    /   O peration     | Website:  https://openfoam.org
    \\  /    A nd           | Version:  10
     \\/     M anipulation  |
\*---------------------------------------------------------------------------*/
FoamFile
{
    format      ascii;
    class       volScalarField;
    location    "0.4";
    object      p;
}
// * * * * * * * * * * * * * * * * * * * * * * * * * * * * * * * * * * * * * //

dimensions      [0 2 -2 0 0 0 0];

internalField   nonuniform List<scalar> 
400
(
-6.82176e-11
8.01429e-05
0.000256792
0.000523872
0.000874342
0.0012992
0.00178764
0.00232738
0.00290493
0.00350596
0.00411559
0.00471866
0.00530008
0.00584515
0.00633989
0.00677137
0.00712815
0.00740056
0.00758104
0.00766312
-7.86674e-05
3.12838e-06
0.000183525
0.000456193
0.000813928
0.00124751
0.0017459
0.00229655
0.00288572
0.00349884
0.00412076
0.00473607
0.00532942
0.00588582
0.006391
0.00683174
0.00719629
0.00747474
0.00765927
0.00774317
-0.000258995
-0.000173341
1.56528e-05
0.00030122
0.000675705
0.00112936
0.00165058
0.00222623
0.00284199
0.00348272
0.00413269
0.00477594
0.00539651
0.0059788
0.00650787
0.00696983
0.00735224
0.00764453
0.00783835
0.00792645
-0.000542888
-0.00045103
-0.000248401
5.75816e-05
0.000458526
0.000943832
0.00150097
0.00211587
0.00277334
0.00345733
0.00415128
0.00483832
0.00550162
0.0061246
0.00669131
0.00718676
0.00759742
0.00791169
0.00812027
0.00821516
-0.000937864
-0.000837236
-0.00061542
-0.000280791
0.000157164
0.000686592
0.00129365
0.00196298
0.00267815
0.00342194
0.00417663
0.00492424
0.00564672
0.00632623
0.00694539
0.0074877
0.00793805
0.00828329
0.00851277
0.00861729
-0.00145454
-0.00134221
-0.00109489
-0.000722326
-0.000235584
0.000351736
0.00102401
0.00176418
0.00255423
0.00337549
0.00420887
0.00503502
0.00583446
0.00658772
0.00727565
0.00787974
0.00838271
0.00876925
0.00902672
0.00914422
-0.00210703
-0.00197951
-0.00169924
-0.00127796
-0.000728947
-6.82118e-05
0.000686261
0.00151526
0.00239884
0.00331665
0.00424806
0.0051722
0.00606795
0.006914
0.00768901
0.00837191
0.00894255
0.00938262
0.00967661
0.00981116
-0.0029136
-0.00276659
-0.00244431
-0.00196139
-0.00133427
-0.000582275
0.000273544
0.00121128
0.00220877
0.0032438
0.00429412
0.00533734
0.00635066
0.00731074
0.00819368
0.00897524
0.00963152
0.01014
0.0104812
0.0106379
-0.00389763
-0.00372557
-0.00334982
-0.00278931
-0.00206506
-0.0012009
-0.000221897
0.000846781
0.00198045
0.003155
0.00434673
0.00553186
0.00668608
0.00778399
0.00879886
0.00970262
0.0104665
0.0110623
0.0114645
0.0116502
-0.005089
-0.00488439
-0.00444009
-0.00378168
-0.00293685
-0.00193565
-0.000808325
0.000416068
0.00171015
0.00304812
0.00440515
0.00575665
0.0070772
0.00833962
0.00951425
0.0105686
0.0114675
0.0121751
0.0126569
0.0128812
-0.00652624
-0.00627845
-0.00574491
-0.00496192
-0.00396694
-0.00279863
-0.00149383
-8.61286e-05
0.00139446
0.0029209
0.0044681
0.00601157
0.00752574
0.00898238
0.0103491
0.0115885
0.0126577
0.0135099
0.0140975
0.0143745
-0.00826002
-0.00795296
-0.00730063
-0.00635686
-0.0051736
-0.00380133
-0.00228515
-0.000663655
0.00103088
0.00277127
0.00453355
0.00629484
0.00803105
0.00971434
0.0113107
0.0127775
0.0140626
0.0151046
0.0158366
0.0161882
-0.0103593
-0.00996629
-0.0091513
-0.00799617
-0.00657452
-0.00495264
-0.00318584
-0.00131765
0.000618695
0.00259764
0.00459846
0.00660222
0.00858869
0.0105329
0.0124012
0.0141473
0.0157085
0.0170042
0.0179388
0.0184038
-0.0129236
-0.012393
-0.0113496
-0.00991065
-0.00818363
-0.00625588
-0.00419388
-0.00204456
0.000160284
0.00239953
0.00465866
0.00692592
0.00918838
0.0114276
0.0136143
0.0157019
0.0176187
0.0192603
0.0204858
0.0211416
-0.0161028
-0.0153293
-0.0139571
-0.0121279
-0.0100062
-0.00770426
-0.0052977
-0.00283322
-0.000337013
0.00217839
0.00470874
0.00725348
0.0098115
0.0123762
0.0149289
0.0174298
0.0198044
0.0219271
0.0235799
0.0245879
-0.0201737
-0.0189005
-0.0170414
-0.0146633
-0.0120304
-0.00927328
-0.00647061
-0.00366119
-0.00085859
0.00193892
0.00474222
0.0075667
0.0104284
0.0133391
0.0163003
0.0192914
0.0222502
0.0250475
0.0273356
0.0290547
-0.0252243
-0.0231979
-0.0206569
-0.0175046
-0.0142117
-0.0109097
-0.00766375
-0.00449048
-0.0013805
0.00169004
0.00475231
0.00784165
0.0109962
0.0142541
0.0176487
0.0211981
0.024885
0.0286263
0.0318334
0.0349294
-0.0340213
-0.0287471
-0.0249721
-0.0206199
-0.0164584
-0.0125168
-0.00879744
-0.00526424
-0.00186752
0.00144663
0.00473328
0.00805016
0.0114611
0.0150352
0.0188521
0.0230011
0.0275915
0.0327967
0.0375477
0.0443455
-0.0406936
-0.034163
-0.0292759
-0.0236171
-0.0185315
-0.0139413
-0.00977103
-0.00591716
-0.00228185
0.0012228
0.00467816
0.00816062
0.0117562
0.0155615
0.0196945
0.0243022
0.0295123
0.0359659
0.0409165
0.0523315
-0.0717538
-0.041136
-0.0342161
-0.0261916
-0.0199101
-0.0147787
-0.010304
-0.00626145
-0.00249894
0.00110069
0.00463541
0.00820022
0.0118933
0.0158484
0.0202664
0.0255088
0.0320733
0.0420219
0.0518277
0.0876456
)
;

boundaryField
{
    movingWall
    {
        type            zeroGradient;
    }
    fixedWalls
    {
        type            zeroGradient;
    }
    frontAndBack
    {
        type            empty;
    }
}


// ************************************************************************* //
