/*--------------------------------*- C++ -*----------------------------------*\
  =========                 |
  \\      /  F ield         | OpenFOAM: The Open Source CFD Toolbox
   \\    /   O peration     | Website:  https://openfoam.org
    \\  /    A nd           | Version:  10
     \\/     M anipulation  |
\*---------------------------------------------------------------------------*/
FoamFile
{
    format      ascii;
    class       surfaceScalarField;
    location    "8.325";
    object      phi;
}
// * * * * * * * * * * * * * * * * * * * * * * * * * * * * * * * * * * * * * //

dimensions      [0 3 -1 0 0 0 0];

internalField   nonuniform List<scalar> 
760
(
-1.25286e-05
1.25286e-05
-4.03735e-05
2.7845e-05
-7.38664e-05
3.34929e-05
-0.000109157
3.52907e-05
-0.000145039
3.58816e-05
-0.000181159
3.61207e-05
-0.000217168
3.60089e-05
-0.000252391
3.52227e-05
-0.000285682
3.32908e-05
-0.00031531
2.96281e-05
-0.000338878
2.35683e-05
-0.00035331
1.44316e-05
-0.000354993
1.68288e-06
-0.000340108
-1.4885e-05
-0.000305669
-3.44392e-05
-0.000250854
-5.48145e-05
-0.000179021
-7.18335e-05
-9.97457e-05
-7.92748e-05
-3.01624e-05
-6.95833e-05
-3.01624e-05
-2.99443e-05
4.24728e-05
-8.44701e-05
8.23708e-05
-0.000148128
9.71507e-05
-0.000214543
0.000101706
-0.000281263
0.000102601
-0.000347134
0.000101991
-0.000411087
9.99624e-05
-0.000471654
9.57891e-05
-0.000526726
8.83632e-05
-0.000573403
7.63053e-05
-0.000607901
5.80659e-05
-0.000625488
3.20193e-05
-0.000621329
-2.4768e-06
-0.000589728
-4.64853e-05
-0.000526822
-9.73454e-05
-0.000431904
-0.000149733
-0.000310402
-0.000193336
-0.000177273
-0.000212403
-5.88817e-05
-0.000187975
-8.90441e-05
-3.78999e-05
8.03727e-05
-0.000104902
0.000149373
-0.000182281
0.00017453
-0.000262422
0.000181847
-0.000342428
0.000182608
-0.00042092
0.000180483
-0.000496661
0.000175703
-0.000568029
0.000167157
-0.000632756
0.000153091
-0.000687727
0.000131276
-0.000728821
9.91591e-05
-0.000750995
5.41935e-05
-0.000747899
-5.57225e-06
-0.000712788
-8.15969e-05
-0.000639912
-0.000170221
-0.000526921
-0.000262724
-0.000379092
-0.000341165
-0.000214858
-0.000376637
-6.92788e-05
-0.000333554
-0.000158323
-4.09514e-05
0.000121324
-0.000113388
0.00022181
-0.000196793
0.000257935
-0.000283029
0.000268083
-0.000369191
0.00026877
-0.00045405
0.000265343
-0.000536588
0.000258241
-0.000615452
0.000246021
-0.000688659
0.000226298
-0.000753315
0.000195931
-0.000805273
0.000151118
-0.000838826
8.77456e-05
-0.000847
2.60209e-06
-0.000819881
-0.000108716
-0.000748052
-0.00024205
-0.000624566
-0.00038621
-0.000451638
-0.000514092
-0.000251676
-0.000576599
-7.49994e-05
-0.000510231
-0.000233322
-4.17886e-05
0.000163113
-0.000116527
0.000296548
-0.000202785
0.000344193
-0.000292223
0.000357521
-0.00038213
0.000358677
-0.000471647
0.00035486
-0.000560245
0.00034684
-0.000647159
0.000332934
-0.000731043
0.000310183
-0.000809591
0.00027448
-0.000878988
0.000220515
-0.00093318
0.000141937
-0.000963003
3.24244e-05
-0.000956309
-0.000115409
-0.000896585
-0.000301775
-0.000768204
-0.000514591
-0.000564773
-0.000717523
-0.00030928
-0.000832092
-8.19876e-05
-0.000737523
-0.00031531
-4.17306e-05
0.000204843
-0.000117503
0.00037232
-0.000205409
0.000432099
-0.000297017
0.000449129
-0.000389898
0.000451557
-0.000483716
0.000448677
-0.000578645
0.000441769
-0.000674806
0.000429095
-0.000771903
0.000407279
-0.000868742
0.000371319
-0.000962478
0.00031425
-0.00104744
0.000226898
-0.0011134
9.83861e-05
-0.0011449
-8.39078e-05
-0.00111713
-0.000329546
-0.000999057
-0.000632664
-0.000762406
-0.000954175
-0.00041725
-0.00117725
-9.84817e-05
-0.00105629
-0.000413791
-4.12568e-05
0.0002461
-0.000117496
0.000448559
-0.000206474
0.000521077
-0.000299664
0.00054232
-0.000394953
0.000546846
-0.000492623
0.000546347
-0.000593748
0.000542894
-0.000699651
0.000534998
-0.000811599
0.000519228
-0.000930312
0.000490032
-0.0010551
0.000439035
-0.00118237
0.000354175
-0.00130317
0.000219182
-0.00140296
1.58801e-05
-0.00144651
-0.000285998
-0.00137895
-0.000700214
-0.00112137
-0.00121176
-0.000638621
-0.00166
-0.000151514
-0.0015434
-0.000565305
-4.04871e-05
0.000286587
-0.000116811
0.000524883
-0.000206345
0.000610611
-0.000300389
0.000636364
-0.00039712
0.000643577
-0.000497477
0.000646705
-0.000603561
0.000648977
-0.000718209
0.000649646
-0.000844837
0.000645856
-0.000987167
0.000632362
-0.00114861
0.000600478
-0.00133097
0.000536535
-0.00153227
0.000420484
-0.0017402
0.000223809
-0.00192551
-0.000100691
-0.00198298
-0.000642745
-0.00173529
-0.00145944
-0.00107102
-0.00232427
-0.000309844
-0.00230457
-0.000875149
-3.94841e-05
0.000326071
-0.000115571
0.00060097
-0.000205044
0.000700085
-0.000298879
0.000730198
-0.000395463
0.000740161
-0.000496348
0.00074759
-0.000604667
0.000757296
-0.000724876
0.000769855
-0.000862955
0.000783934
-0.00102669
0.000796096
-0.00122584
0.000799633
-0.00147223
0.000782924
-0.00177921
0.000727459
-0.00215217
0.000596767
-0.00254826
0.000295406
-0.00280053
-0.000390481
-0.00258598
-0.00167398
-0.00176363
-0.00314663
-0.000682821
-0.00338538
-0.00155797
-3.84226e-05
0.000364494
-0.000114104
0.000676651
-0.000202841
0.000788821
-0.000295078
0.000822436
-0.000389271
0.000834354
-0.000487443
0.000845762
-0.00059358
0.000863433
-0.00071358
0.000889856
-0.000855901
0.000926254
-0.00103272
0.000972911
-0.0012618
0.00102871
-0.00156901
0.00109014
-0.00198779
0.00114623
-0.00253871
0.00114768
-0.00314605
0.00090275
-0.00353635
-1.77394e-07
-0.00338467
-0.00182566
-0.00259169
-0.00393961
-0.00130685
-0.00467022
-0.00286482
-3.77071e-05
0.000402201
-0.000113204
0.000752148
-0.00020063
0.000876247
-0.000289691
0.000911497
-0.000378723
0.000923386
-0.000469979
0.000937018
-0.000567882
0.000961336
-0.000679103
0.00100108
-0.000813643
0.00106079
-0.000986856
0.00114612
-0.00122282
0.00126468
-0.00155786
0.00142518
-0.00203406
0.00162243
-0.00265826
0.00177188
-0.00330854
0.00155303
-0.00371102
0.000402303
-0.00364799
-0.00188869
-0.00310117
-0.00448643
-0.00187067
-0.00590073
-0.00473548
-3.81737e-05
0.000440375
-0.000114482
0.000828456
-0.000200307
0.000962072
-0.000284534
0.000995725
-0.000365362
0.00100421
-0.000444997
0.00101665
-0.00052765
0.00104399
-0.000619561
0.00109299
-0.000730139
0.00117137
-0.000873915
0.0012899
-0.00107328
0.00146404
-0.00135914
0.00171104
-0.00175896
0.00202226
-0.00225035
0.00226327
-0.00272204
0.00202473
-0.00300501
0.000685269
-0.00305322
-0.00184048
-0.00281462
-0.00472503
-0.00187931
-0.00683604
-0.00661479
-4.09231e-05
0.000481298
-0.000120088
0.000907621
-0.000204742
0.00104673
-0.000282962
0.00107395
-0.000352727
0.00107398
-0.000416003
0.00107993
-0.000476252
0.00110424
-0.000537743
0.00115448
-0.000606443
0.00124007
-0.000690827
0.00137428
-0.000802508
0.00157572
-0.000952625
0.00186116
-0.00114523
0.00221486
-0.0013515
0.00246953
-0.00153889
0.00221212
-0.00166375
0.000810132
-0.0017957
-0.00170853
-0.00189979
-0.00462094
-0.00145284
-0.00728299
-0.00806763
-4.97173e-05
0.000531015
-0.000135988
0.000993892
-0.000219334
0.00113007
-0.0002889
0.00114351
-0.000344485
0.00112956
-0.000388082
0.00112353
-0.000421299
0.00113746
-0.00044574
0.00117892
-0.000462648
0.00125698
-0.00047231
0.00138395
-0.000473243
0.00157666
-0.00045671
0.00184462
-0.000409835
0.00216799
-0.000325251
0.00238495
-0.000248108
0.00213497
-0.000265602
0.000827625
-0.000484131
-0.00149
-0.000940584
-0.00416449
-0.000972481
-0.00725109
-0.00904011
-6.10911e-05
0.000592106
-0.00015839
0.00109119
-0.00024525
0.00121693
-0.000311172
0.00120943
-0.00035367
0.00117206
-0.000375612
0.00114547
-0.000378743
0.00114059
-0.000362842
0.00116302
-0.000325245
0.00121938
-0.000259428
0.00131813
-0.000153504
0.00147073
1.30406e-05
0.00167808
0.000254344
0.00192669
0.00056201
0.00207728
0.000838032
0.00185895
0.000871575
0.000794082
0.000528583
-0.00114701
-0.000217017
-0.00341889
-0.000591918
-0.00687619
-0.00963203
-0.000128753
0.000720859
-0.000240482
0.00120292
-0.000311776
0.00128823
-0.000350869
0.00124853
-0.000367519
0.00118871
-0.000365027
0.00114298
-0.000341651
0.00111721
-0.000292769
0.00111414
-0.000211558
0.00113817
-8.76386e-05
0.00119421
9.45405e-05
0.00128855
0.000350812
0.00142181
0.00070133
0.00157617
0.00112205
0.00165656
0.00149309
0.00148792
0.00156759
0.00071958
0.00116994
-0.000749356
0.000297965
-0.00254692
-0.00027308
-0.00630514
-0.00990511
-8.31531e-05
0.000804012
-0.00026035
0.00138012
-0.000371491
0.00139937
-0.000424042
0.00130108
-0.000434501
0.00119917
-0.000413112
0.00112159
-0.00036229
0.00106639
-0.000279166
0.00103101
-0.000157596
0.0010166
1.43975e-05
0.00102221
0.000247506
0.00105544
0.000558936
0.00111038
0.000954281
0.00118082
0.00140784
0.00120301
0.00180576
0.00109
0.0019001
0.000625233
0.0015029
-0.000352152
0.000681694
-0.00172571
0.000105715
-0.00572916
-0.0097994
-0.000378949
0.00118296
-0.00043614
0.00143731
-0.000483952
0.00144718
-0.000520299
0.00133742
-0.000509264
0.00118814
-0.000456866
0.00106919
-0.000366674
0.000976198
-0.000236808
0.000901146
-6.76168e-05
0.000847411
0.000148097
0.000806502
0.000415399
0.000788142
0.000744883
0.000780894
0.00113176
0.000793948
0.00154353
0.000791234
0.00191754
0.000715985
0.00206758
0.00047519
0.00194501
-0.000229575
0.0015406
-0.00132131
0.000860445
-0.00504901
-0.00893895
-0.00136272
0.00254568
-0.00132548
0.00140007
-0.00106605
0.00118774
-0.000694377
0.000965755
-0.000302351
0.000796109
9.39074e-05
0.000672929
0.000483352
0.000586754
0.000865259
0.000519239
0.00124181
0.000470857
0.00161831
0.000430009
0.0020024
0.000404043
0.00240039
0.000382906
0.00282771
0.000366626
0.00327412
0.000344825
0.00372055
0.000269558
0.00405872
0.000137014
0.00414686
-0.000317715
0.00398032
-0.00115476
0.00252165
-0.00359035
-0.0064173
0.00254568
0.00394575
0.00513349
0.00609925
0.00689536
0.00756829
0.00815504
0.00867428
0.00914514
0.00957515
0.00997919
0.0103621
0.0107287
0.0110735
0.0113431
0.0114801
0.0111624
0.0100076
0.0064173
)
;

boundaryField
{
    movingWall
    {
        type            calculated;
        value           uniform 0;
    }
    fixedWalls
    {
        type            calculated;
        value           uniform 0;
    }
    frontAndBack
    {
        type            empty;
        value           nonuniform List<scalar> 0();
    }
}


// ************************************************************************* //
