/*--------------------------------*- C++ -*----------------------------------*\
  =========                 |
  \\      /  F ield         | OpenFOAM: The Open Source CFD Toolbox
   \\    /   O peration     | Website:  https://openfoam.org
    \\  /    A nd           | Version:  10
     \\/     M anipulation  |
\*---------------------------------------------------------------------------*/
FoamFile
{
    format      ascii;
    class       volScalarField;
    location    "9.725";
    object      p;
}
// * * * * * * * * * * * * * * * * * * * * * * * * * * * * * * * * * * * * * //

dimensions      [0 2 -2 0 0 0 0];

internalField   nonuniform List<scalar> 
400
(
3.42808e-07
-3.25262e-05
2.55449e-05
0.000138787
0.000316217
0.000561267
0.000879664
0.00127903
0.0017675
0.00235197
0.00303549
0.00381388
0.00467016
0.00556873
0.00644824
0.00722406
0.00779875
0.00811021
0.00818597
0.00802405
3.77904e-05
4.31614e-06
7.17332e-05
0.000188864
0.00036625
0.000608137
0.000920551
0.00131097
0.00178728
0.0023565
0.00302268
0.00378328
0.00462223
0.00550946
0.00638437
0.00715993
0.0077303
0.00802617
0.00808405
0.00790333
-3.62168e-05
-7.98977e-05
-1.42285e-05
9.767e-05
0.000266993
0.000498067
0.000797387
0.00117336
0.00163551
0.00219372
0.00285613
0.00362543
0.0044942
0.0054352
0.00638414
0.00723746
0.00785572
0.00813508
0.0081245
0.00786833
-0.000198952
-0.000249613
-0.000188686
-8.63686e-05
6.92491e-05
0.000282687
0.000561131
0.000914335
0.00135424
0.00189491
0.00255127
0.00333503
0.00424773
0.00526994
0.00633948
0.00732778
0.00803786
0.00828821
0.00814163
0.0077621
-0.000461598
-0.000517803
-0.000465474
-0.000377973
-0.000242765
-5.511e-05
0.000192893
0.00051244
0.000918216
0.00142912
0.00206832
0.00286092
0.00382446
0.00495206
0.00619197
0.00738956
0.00825662
0.008463
0.00807746
0.0075051
-0.000822303
-0.000883639
-0.000843741
-0.000776639
-0.000669565
-0.000517933
-0.000313721
-4.49303e-05
0.000305014
0.000758984
0.00134782
0.00211096
0.00308878
0.00430048
0.00573809
0.007233
0.00836508
0.00850756
0.00779038
0.00689861
-0.00127376
-0.00134046
-0.00131674
-0.0012761
-0.00120616
-0.00110324
-0.000960533
-0.000767361
-0.000507901
-0.000158904
0.000313314
0.000956019
0.00183125
0.00300841
0.0045275
0.00633846
0.00787811
0.00801602
0.00706131
0.0057735
-0.00180561
-0.0018782
-0.00187411
-0.001866
-0.00184277
-0.00180287
-0.00174277
-0.0016565
-0.00153495
-0.00136355
-0.00111919
-0.000769811
-0.00027137
0.000464367
0.00161447
0.00340226
0.00542708
0.00612644
0.00561949
0.00428738
-0.0024047
-0.00248365
-0.00250167
-0.00253097
-0.00256285
-0.00259955
-0.0026436
-0.00269826
-0.00276885
-0.00286422
-0.00300103
-0.00322288
-0.0036312
-0.0042905
-0.00483914
-0.00416793
-0.00181723
0.00112795
0.00307858
0.00355189
-0.00305557
-0.00314093
-0.00318134
-0.00324997
-0.00334148
-0.00346373
-0.00362821
-0.00385239
-0.0041652
-0.00461675
-0.00529805
-0.00639151
-0.00830488
-0.0114632
-0.0155288
-0.017502
-0.0151216
-0.00877258
-0.00213438
0.00278168
-0.00374151
-0.00383287
-0.00389245
-0.00399747
-0.00414622
-0.00435384
-0.00464265
-0.00504758
-0.00562758
-0.00648733
-0.00782253
-0.0100054
-0.0137927
-0.0200058
-0.02824
-0.0337544
-0.031884
-0.0227128
-0.0118282
-0.00262137
-0.00444607
-0.00454161
-0.00461098
-0.00474177
-0.00493543
-0.00521491
-0.00561219
-0.00617758
-0.00699606
-0.00821688
-0.0101164
-0.0131963
-0.0183975
-0.0265328
-0.0371715
-0.0443523
-0.0432486
-0.034032
-0.0230589
-0.0117094
-0.00515843
-0.00525676
-0.00532161
-0.00545996
-0.00567515
-0.00599754
-0.00646513
-0.0071358
-0.00810575
-0.00953805
-0.0117301
-0.0151721
-0.0208092
-0.0291408
-0.0398949
-0.0466904
-0.0461109
-0.0380053
-0.0291813
-0.0184116
-0.00586806
-0.00595843
-0.00598818
-0.006103
-0.00630855
-0.00663843
-0.00712884
-0.00783617
-0.008852
-0.0103214
-0.0125246
-0.0157967
-0.020998
-0.0281921
-0.037034
-0.0422939
-0.0421365
-0.0353143
-0.029866
-0.0200537
-0.00660045
-0.00668866
-0.00665593
-0.00671998
-0.00687237
-0.0071576
-0.00760998
-0.0082782
-0.00923975
-0.010597
-0.0125752
-0.0154031
-0.019551
-0.0249172
-0.031243
-0.0348221
-0.0345767
-0.0286693
-0.0263148
-0.0164355
-0.0074433
-0.00733131
-0.00715421
-0.00707765
-0.00714822
-0.00738156
-0.00779113
-0.00840108
-0.00926562
-0.0104623
-0.0121327
-0.014405
-0.017502
-0.0212146
-0.0253733
-0.0272524
-0.0268192
-0.0215516
-0.0209991
-0.00723573
-0.00787921
-0.00825737
-0.00788106
-0.00780678
-0.00772128
-0.00779451
-0.00803785
-0.00848333
-0.00917621
-0.0101669
-0.0115454
-0.0133628
-0.0157329
-0.0183544
-0.021138
-0.0221019
-0.0213317
-0.0162274
-0.014117
0.0105399
-0.0112462
-0.00866601
-0.00792566
-0.00721239
-0.0070382
-0.0071327
-0.00744232
-0.00792836
-0.00861737
-0.00952999
-0.0107582
-0.0123039
-0.0142717
-0.0162861
-0.0182616
-0.0184613
-0.0169835
-0.0101873
-0.00130177
0.0419212
-0.00782408
-0.0107437
-0.00950641
-0.00938104
-0.00880978
-0.00849061
-0.00837589
-0.00848833
-0.00888343
-0.00954371
-0.0105833
-0.011939
-0.0138291
-0.0158069
-0.018009
-0.0180269
-0.0157358
-0.00214098
0.0221569
0.0986335
-0.0330687
-0.00789489
-0.0062047
-0.00534199
-0.00505914
-0.00520218
-0.00565267
-0.00622482
-0.00701089
-0.00793005
-0.00920508
-0.0106534
-0.0124405
-0.0137913
-0.0143698
-0.0105246
0.0004643
0.034366
0.0995936
0.229702
)
;

boundaryField
{
    movingWall
    {
        type            zeroGradient;
    }
    fixedWalls
    {
        type            zeroGradient;
    }
    frontAndBack
    {
        type            empty;
    }
}


// ************************************************************************* //
