/*--------------------------------*- C++ -*----------------------------------*\
  =========                 |
  \\      /  F ield         | OpenFOAM: The Open Source CFD Toolbox
   \\    /   O peration     | Website:  https://openfoam.org
    \\  /    A nd           | Version:  10
     \\/     M anipulation  |
\*---------------------------------------------------------------------------*/
FoamFile
{
    format      ascii;
    class       volScalarField;
    location    "7";
    object      p;
}
// * * * * * * * * * * * * * * * * * * * * * * * * * * * * * * * * * * * * * //

dimensions      [0 2 -2 0 0 0 0];

internalField   nonuniform List<scalar> 
400
(
3.31891e-07
-2.04176e-05
3.09466e-05
0.000129571
0.000282276
0.000491102
0.000758913
0.00108902
0.00148405
0.001945
0.0024699
0.00305222
0.00367889
0.00432846
0.00496944
0.00556099
0.00605549
0.00640611
0.00660396
0.006571
2.3386e-05
1.84179e-06
5.84948e-05
0.000157927
0.000308472
0.000512967
0.000774777
0.00109753
0.00148419
0.00193617
0.00245217
0.00302646
0.00364637
0.00429273
0.00493427
0.00553
0.00603056
0.00638732
0.00659399
0.00655258
-3.53432e-05
-6.44463e-05
-9.60798e-06
8.59009e-05
0.000231217
0.000429461
0.000684598
0.00100119
0.00138348
0.00183454
0.00235501
0.00294139
0.00358459
0.00426535
0.00495161
0.00559809
0.0061468
0.00653703
0.00676079
0.00669124
-0.000156242
-0.000190721
-0.000139179
-4.97551e-05
8.75966e-05
0.000276457
0.000521709
0.000829306
0.00120546
0.00165591
0.0021846
0.00279176
0.00347115
0.00420787
0.0049691
0.00570355
0.00633876
0.00679026
0.00704686
0.00693451
-0.00034576
-0.000385046
-0.000338721
-0.000257945
-0.000131734
4.40771e-05
0.000275511
0.000570272
0.000937109
0.00138534
0.00192373
0.00255802
0.00328717
0.00410348
0.00497371
0.00584045
0.00661144
0.00716402
0.00747623
0.00728766
-0.000602834
-0.000647205
-0.000608102
-0.000538964
-0.000427979
-0.000270407
-5.90472e-05
0.000215698
0.000565452
0.00100382
0.00154576
0.00220565
0.00299331
0.00390279
0.0049165
0.00597118
0.0069486
0.00766551
0.00807184
0.00774243
-0.000924468
-0.000974731
-0.000945032
-0.000891151
-0.000800647
-0.000668447
-0.000486415
-0.000243292
7.53311e-05
0.000487525
0.00101522
0.0016835
0.00251629
0.00352618
0.00470965
0.00601439
0.00729822
0.00828793
0.00886105
0.00828039
-0.00130684
-0.0013641
-0.00134614
-0.00131165
-0.00124789
-0.00114999
-0.00100957
-0.000814508
-0.000548489
-0.00018979
0.000290067
0.000927552
0.00176566
0.00284598
0.0041899
0.00579291
0.00751369
0.00897549
0.00984049
0.00888477
-0.00174507
-0.00181055
-0.00180648
-0.00179553
-0.00176521
-0.0017116
-0.00162729
-0.00150092
-0.00131642
-0.00105092
-0.000672453
-0.000136743
0.000616531
0.00165946
0.00306096
0.00492234
0.00718165
0.00946926
0.010836
0.0095589
-0.00223315
-0.00230801
-0.00231916
-0.00233506
-0.00234417
-0.00234467
-0.00233164
-0.00229677
-0.00222772
-0.00210621
-0.00190498
-0.00158266
-0.00107696
-0.000299698
0.000870476
0.00255795
0.00514766
0.00867398
0.0109365
0.0101993
-0.00276432
-0.00284945
-0.00287534
-0.00291925
-0.00297147
-0.00303353
-0.00310497
-0.00318333
-0.00326453
-0.0033422
-0.0034071
-0.00344667
-0.00344632
-0.0034036
-0.00333041
-0.00301994
-0.00138998
0.00317736
0.00746429
0.00981929
-0.0033321
-0.0034276
-0.00346414
-0.00353326
-0.00362772
-0.00375375
-0.00391692
-0.00412331
-0.00438178
-0.00470656
-0.00512271
-0.00567808
-0.00647387
-0.00775322
-0.00997046
-0.0131465
-0.0147701
-0.0102009
-0.00300508
0.00444957
-0.00393297
-0.00403858
-0.00407776
-0.00416413
-0.00429269
-0.00447622
-0.00472781
-0.00506328
-0.00550779
-0.00610318
-0.00692362
-0.00810955
-0.00994187
-0.0129766
-0.0183647
-0.026232
-0.0331505
-0.0296226
-0.0199164
-0.0071318
-0.00456288
-0.00466934
-0.00468887
-0.00477406
-0.00492217
-0.0051504
-0.00547569
-0.00592312
-0.00653194
-0.00736803
-0.00854923
-0.0102913
-0.0130509
-0.0175725
-0.0254241
-0.0364275
-0.0474016
-0.0456386
-0.036115
-0.0204376
-0.00525227
-0.00536942
-0.00535091
-0.00541919
-0.00555534
-0.00579037
-0.00614775
-0.00665847
-0.00736885
-0.00835409
-0.00975041
-0.0117767
-0.0149819
-0.0200412
-0.0285754
-0.0396844
-0.0515472
-0.0497605
-0.042045
-0.0258037
-0.00608215
-0.00600471
-0.00586828
-0.00583466
-0.00593502
-0.00617729
-0.00656901
-0.00712826
-0.00789467
-0.00893558
-0.0103848
-0.0123999
-0.0155185
-0.0202103
-0.0277162
-0.0366966
-0.0450899
-0.0432833
-0.037945
-0.0192359
-0.00656929
-0.00699582
-0.00669961
-0.00670629
-0.00669657
-0.00682303
-0.00710076
-0.00756265
-0.00824788
-0.0092039
-0.0105492
-0.0123593
-0.0151032
-0.0189054
-0.0246259
-0.0306343
-0.0359905
-0.0328807
-0.0266812
0.000203319
-0.00994797
-0.00743003
-0.00679522
-0.00621223
-0.00614197
-0.00632845
-0.00671393
-0.00726247
-0.00799481
-0.00892441
-0.0101767
-0.0118006
-0.0141254
-0.0171149
-0.0212747
-0.0248071
-0.0271774
-0.0215098
-0.00923557
0.0346106
-0.00664186
-0.009642
-0.00857627
-0.0085944
-0.00814514
-0.00791658
-0.00787227
-0.00804408
-0.00847812
-0.00915875
-0.0101942
-0.0115958
-0.0137593
-0.0164434
-0.0205181
-0.0233403
-0.0242541
-0.0108257
0.0162309
0.0936414
-0.0318494
-0.0068121
-0.00529964
-0.00455926
-0.00436762
-0.00459693
-0.00512848
-0.0057642
-0.00661077
-0.00756731
-0.00889828
-0.0104748
-0.0126386
-0.0148458
-0.0169245
-0.0152641
-0.00647342
0.0270398
0.0952301
0.227358
)
;

boundaryField
{
    movingWall
    {
        type            zeroGradient;
    }
    fixedWalls
    {
        type            zeroGradient;
    }
    frontAndBack
    {
        type            empty;
    }
}


// ************************************************************************* //
