/*--------------------------------*- C++ -*----------------------------------*\
  =========                 |
  \\      /  F ield         | OpenFOAM: The Open Source CFD Toolbox
   \\    /   O peration     | Website:  https://openfoam.org
    \\  /    A nd           | Version:  10
     \\/     M anipulation  |
\*---------------------------------------------------------------------------*/
FoamFile
{
    format      ascii;
    class       volVectorField;
    location    "7";
    object      U;
}
// * * * * * * * * * * * * * * * * * * * * * * * * * * * * * * * * * * * * * //

dimensions      [0 1 -1 0 0 0 0];

internalField   nonuniform List<vector> 
400
(
(-0.000125645 0.000114292 0)
(-0.000979908 0.000369311 0)
(-0.00242708 0.000460509 0)
(-0.00389156 0.000485606 0)
(-0.00538324 0.000493363 0)
(-0.00686238 0.000498415 0)
(-0.0083096 0.000499963 0)
(-0.00970042 0.000492457 0)
(-0.0109963 0.000468832 0)
(-0.0121427 0.00042104 0)
(-0.0130668 0.000340388 0)
(-0.0136774 0.000218674 0)
(-0.0138681 5.01347e-05 0)
(-0.0135247 -0.000169859 0)
(-0.0125437 -0.000432045 0)
(-0.0108595 -0.000712823 0)
(-0.00849133 -0.000964291 0)
(-0.00564537 -0.00110678 0)
(-0.00245801 -0.00101525 0)
(-0.00038489 -0.000445783 0)
(-0.00041316 0.000994035 0)
(-0.00219078 0.00209185 0)
(-0.00490873 0.00248036 0)
(-0.00764819 0.00257396 0)
(-0.0104015 0.00256571 0)
(-0.013086 0.00251599 0)
(-0.0156512 0.00242702 0)
(-0.0180438 0.0022818 0)
(-0.0201935 0.00205666 0)
(-0.0220101 0.00172449 0)
(-0.0233801 0.0012566 0)
(-0.0241678 0.000626143 0)
(-0.0242244 -0.000186126 0)
(-0.0233915 -0.00117404 0)
(-0.0215278 -0.00229494 0)
(-0.018555 -0.00345051 0)
(-0.0145249 -0.00445587 0)
(-0.00975156 -0.00500342 0)
(-0.00446406 -0.00462111 0)
(-0.000842911 -0.00237289 0)
(-0.000535443 0.00256214 0)
(-0.0027275 0.00487081 0)
(-0.00601207 0.00566848 0)
(-0.00929688 0.00583599 0)
(-0.0125777 0.00576855 0)
(-0.0157581 0.00559072 0)
(-0.0187798 0.00531267 0)
(-0.0215838 0.00490636 0)
(-0.0240938 0.00432955 0)
(-0.0262128 0.00353255 0)
(-0.0278196 0.00246278 0)
(-0.0287681 0.00107199 0)
(-0.028882 -0.000671198 0)
(-0.0279665 -0.00275766 0)
(-0.0258421 -0.00510404 0)
(-0.0223826 -0.00751454 0)
(-0.0176083 -0.00961494 0)
(-0.0118703 -0.0107668 0)
(-0.00542671 -0.0100009 0)
(-0.00100996 -0.00539435 0)
(-0.00057407 0.00422247 0)
(-0.00294011 0.00782129 0)
(-0.00647978 0.00903477 0)
(-0.0100067 0.00926458 0)
(-0.0135301 0.00912861 0)
(-0.0169542 0.00881911 0)
(-0.0202265 0.00835454 0)
(-0.0232951 0.00769621 0)
(-0.0260907 0.00678304 0)
(-0.0285211 0.00554009 0)
(-0.0304643 0.00388495 0)
(-0.0317621 0.00173941 0)
(-0.0322166 -0.000951046 0)
(-0.0315781 -0.00420028 0)
(-0.0295747 -0.00790486 0)
(-0.0259685 -0.0117806 0)
(-0.0206711 -0.0152385 0)
(-0.0140412 -0.017217 0)
(-0.00635541 -0.0160897 0)
(-0.00111497 -0.00870442 0)
(-0.000581808 0.00596069 0)
(-0.00303364 0.0109284 0)
(-0.00672137 0.01258 0)
(-0.0103967 0.0128799 0)
(-0.0140839 0.012686 0)
(-0.0176943 0.0122634 0)
(-0.0211891 0.0116411 0)
(-0.0245322 0.0107704 0)
(-0.0276704 0.0095709 0)
(-0.0305253 0.00793828 0)
(-0.0329804 0.00575009 0)
(-0.0348669 0.00287806 0)
(-0.0359557 -0.000789808 0)
(-0.0359227 -0.00530787 0)
(-0.0343595 -0.0106037 0)
(-0.0308379 -0.016323 0)
(-0.0250486 -0.021625 0)
(-0.0172717 -0.02487 0)
(-0.00774428 -0.0234635 0)
(-0.0012464 -0.0125803 0)
(-0.000581356 0.00773605 0)
(-0.00309715 0.0141408 0)
(-0.00691008 0.0162572 0)
(-0.0107179 0.0166432 0)
(-0.01456 0.0164143 0)
(-0.0183586 0.0159158 0)
(-0.0220946 0.0151904 0)
(-0.0257551 0.0141824 0)
(-0.0293134 0.0127917 0)
(-0.0327176 0.0108814 0)
(-0.0358715 0.00827753 0)
(-0.0386108 0.00477586 0)
(-0.0406742 0.000167101 0)
(-0.0416623 -0.00569983 0)
(-0.0409936 -0.0128639 0)
(-0.0379393 -0.0209685 0)
(-0.0317983 -0.028906 0)
(-0.0225501 -0.0342466 0)
(-0.0101318 -0.0328529 0)
(-0.00147082 -0.0173394 0)
(-0.000578917 0.00953887 0)
(-0.00315842 0.0174483 0)
(-0.00709954 0.0200584 0)
(-0.011042 0.0205493 0)
(-0.0150412 0.0203136 0)
(-0.0190329 0.0197858 0)
(-0.0230229 0.019029 0)
(-0.0270303 0.0179848 0)
(-0.0310677 0.0165377 0)
(-0.0351288 0.0145177 0)
(-0.0391652 0.0116917 0)
(-0.0430472 0.00775797 0)
(-0.0465075 0.00236338 0)
(-0.0491044 -0.00484364 0)
(-0.0500865 -0.0141283 0)
(-0.0483293 -0.0252868 0)
(-0.0424859 -0.0370619 0)
(-0.0317038 -0.0460766 0)
(-0.0147856 -0.0455628 0)
(-0.00199754 -0.0237024 0)
(-0.000575147 0.0113701 0)
(-0.00322303 0.0208571 0)
(-0.00729956 0.0239894 0)
(-0.0113757 0.0246005 0)
(-0.0155236 0.0243832 0)
(-0.0196942 0.023874 0)
(-0.0239233 0.0231647 0)
(-0.0282709 0.0222049 0)
(-0.0328036 0.0208734 0)
(-0.0375849 0.0189757 0)
(-0.0426516 0.0162221 0)
(-0.047966 0.012201 0)
(-0.0533442 0.00635984 0)
(-0.0583973 -0.0019641 0)
(-0.0622958 -0.0133527 0)
(-0.0635573 -0.0281553 0)
(-0.0599017 -0.0454068 0)
(-0.048403 -0.0610884 0)
(-0.0248065 -0.0638825 0)
(-0.00352473 -0.0334217 0)
(-0.000570657 0.0132316 0)
(-0.00329411 0.0243747 0)
(-0.00751255 0.0280515 0)
(-0.0117118 0.028787 0)
(-0.015982 0.0286026 0)
(-0.0202895 0.0281511 0)
(-0.0247025 0.027566 0)
(-0.0293291 0.0268193 0)
(-0.0343044 0.025804 0)
(-0.0397888 0.0243251 0)
(-0.0459547 0.0220606 0)
(-0.0529514 0.0185057 0)
(-0.0608247 0.0129099 0)
(-0.069379 0.00426126 0)
(-0.0781479 -0.00861015 0)
(-0.0856838 -0.0269583 0)
(-0.0882233 -0.0516196 0)
(-0.0779633 -0.0795104 0)
(-0.0451836 -0.0919513 0)
(-0.00764927 -0.0505452 0)
(-0.000568725 0.0151286 0)
(-0.00338208 0.0280104 0)
(-0.0077509 0.0322405 0)
(-0.0120529 0.0330844 0)
(-0.016399 0.0329258 0)
(-0.0207688 0.0325511 0)
(-0.0252624 0.0321498 0)
(-0.0300371 0.0317358 0)
(-0.0353029 0.031245 0)
(-0.0413376 0.0305248 0)
(-0.0484975 0.0292835 0)
(-0.0572151 0.0270099 0)
(-0.0679703 0.0228691 0)
(-0.0812613 0.0156037 0)
(-0.0974878 0.00332673 0)
(-0.115857 -0.0171705 0)
(-0.12962 -0.051592 0)
(-0.121001 -0.101575 0)
(-0.0771272 -0.136295 0)
(-0.0166865 -0.0828812 0)
(-0.000577708 0.0170775 0)
(-0.00351213 0.0317825 0)
(-0.008049 0.0365489 0)
(-0.0124262 0.0374526 0)
(-0.0167821 0.037279 0)
(-0.0211059 0.0369651 0)
(-0.0255247 0.0367707 0)
(-0.0302378 0.036772 0)
(-0.0355206 0.0369826 0)
(-0.0417631 0.0373507 0)
(-0.0495198 0.0377154 0)
(-0.0595841 0.03773 0)
(-0.0730826 0.0367638 0)
(-0.0916286 0.0337181 0)
(-0.117186 0.0259531 0)
(-0.148843 0.00550416 0)
(-0.172843 -0.0440265 0)
(-0.160864 -0.131319 0)
(-0.111593 -0.20013 0)
(-0.0329641 -0.138814 0)
(-0.000615373 0.0191191 0)
(-0.00373529 0.0357372 0)
(-0.00847731 0.0409894 0)
(-0.0128974 0.0418602 0)
(-0.0171797 0.0415794 0)
(-0.02132 0.0412547 0)
(-0.0254629 0.0412281 0)
(-0.0298301 0.0416542 0)
(-0.0347321 0.0426594 0)
(-0.040628 0.0443634 0)
(-0.0482171 0.0468679 0)
(-0.0585804 0.0502357 0)
(-0.0733705 0.0544189 0)
(-0.0951085 0.0586461 0)
(-0.126653 0.0582965 0)
(-0.164811 0.0362586 0)
(-0.18868 -0.0365252 0)
(-0.170712 -0.168704 0)
(-0.133873 -0.271544 0)
(-0.049309 -0.227656 0)
(-0.000712226 0.02131 0)
(-0.00412911 0.0398707 0)
(-0.00914566 0.0454476 0)
(-0.0135855 0.0461201 0)
(-0.0177054 0.0456074 0)
(-0.0215027 0.0451691 0)
(-0.0251339 0.0452072 0)
(-0.0288135 0.045958 0)
(-0.0328242 0.0476753 0)
(-0.0375931 0.0506887 0)
(-0.0437955 0.0554554 0)
(-0.0525134 0.0626073 0)
(-0.0653923 0.0727893 0)
(-0.0844795 0.0848288 0)
(-0.112026 0.0902855 0)
(-0.142684 0.0627758 0)
(-0.158701 -0.0307841 0)
(-0.142493 -0.193813 0)
(-0.131893 -0.329904 0)
(-0.0497645 -0.335934 0)
(-0.00095892 0.0239373 0)
(-0.00492627 0.0447201 0)
(-0.0102994 0.0505611 0)
(-0.0146577 0.0508612 0)
(-0.0184696 0.0498197 0)
(-0.021766 0.0489352 0)
(-0.0246817 0.0487075 0)
(-0.0273702 0.0494523 0)
(-0.0300215 0.0515284 0)
(-0.0329043 0.055444 0)
(-0.0364332 0.0619604 0)
(-0.0412109 0.072105 0)
(-0.0481577 0.0868704 0)
(-0.05762 0.103881 0)
(-0.0712449 0.111495 0)
(-0.0840957 0.0788941 0)
(-0.0916403 -0.0232828 0)
(-0.0834977 -0.196767 0)
(-0.10101 -0.363545 0)
(-0.0344926 -0.423886 0)
(-0.00132083 0.0271501 0)
(-0.00586274 0.0489748 0)
(-0.0118794 0.0541786 0)
(-0.0163495 0.0535007 0)
(-0.0199586 0.0519037 0)
(-0.0226481 0.0507529 0)
(-0.0246197 0.0504043 0)
(-0.0260015 0.0510913 0)
(-0.0268583 0.0531744 0)
(-0.0272138 0.0572254 0)
(-0.0271048 0.0641243 0)
(-0.0263557 0.0749005 0)
(-0.0250984 0.0904999 0)
(-0.0218955 0.107596 0)
(-0.0190864 0.115041 0)
(-0.011816 0.0820861 0)
(-0.0150498 -0.0181659 0)
(-0.0153226 -0.179394 0)
(-0.0612716 -0.365265 0)
(-0.0175964 -0.47726 0)
(-0.00339625 0.0300068 0)
(-0.0102724 0.0570324 0)
(-0.015674 0.0621686 0)
(-0.0192245 0.0609569 0)
(-0.0216685 0.0578406 0)
(-0.0233721 0.0551458 0)
(-0.0243722 0.0533657 0)
(-0.024586 0.0527701 0)
(-0.0238281 0.0536642 0)
(-0.0218011 0.0565075 0)
(-0.0181731 0.0620706 0)
(-0.0120074 0.0710943 0)
(-0.00328361 0.0842693 0)
(0.0110175 0.0983914 0)
(0.026462 0.104678 0)
(0.0467546 0.0766992 0)
(0.0475125 -0.0111309 0)
(0.0435278 -0.146642 0)
(-0.0302363 -0.344224 0)
(0.000187504 -0.50548 0)
(-0.00107728 0.0438034 0)
(-0.00832921 0.0591884 0)
(-0.0187315 0.0604309 0)
(-0.0225432 0.0561252 0)
(-0.0255993 0.0529593 0)
(-0.0267271 0.0507988 0)
(-0.0266519 0.0494718 0)
(-0.0253335 0.0488847 0)
(-0.0226233 0.0492183 0)
(-0.0180926 0.0507489 0)
(-0.0112699 0.0541414 0)
(-0.000764931 0.0597064 0)
(0.0134662 0.0679795 0)
(0.0349124 0.0766605 0)
(0.0567357 0.0790865 0)
(0.0856951 0.0581035 0)
(0.0865276 -0.00803409 0)
(0.0808928 -0.109424 0)
(-0.00145207 -0.314194 0)
(0.0234291 -0.512283 0)
(-0.0125069 0.0325011 0)
(-0.0239182 0.0799582 0)
(-0.0229471 0.0792928 0)
(-0.0286058 0.0741907 0)
(-0.0299398 0.0668592 0)
(-0.0294947 0.0607384 0)
(-0.0270767 0.0557486 0)
(-0.0229497 0.0518472 0)
(-0.0171791 0.0490351 0)
(-0.00939493 0.04715 0)
(0.000338211 0.0465799 0)
(0.0135685 0.0473296 0)
(0.0295806 0.0501346 0)
(0.0521226 0.0530204 0)
(0.0719623 0.0545174 0)
(0.103013 0.0426117 0)
(0.102524 0.00313261 0)
(0.116399 -0.0700351 0)
(0.0475523 -0.281239 0)
(0.0588594 -0.496639 0)
(-0.0774783 0.0963285 0)
(-0.0631955 0.0590598 0)
(-0.0656108 0.0598861 0)
(-0.0438474 0.0532163 0)
(-0.0266189 0.046292 0)
(-0.00659299 0.0411446 0)
(0.0123062 0.0373861 0)
(0.0314664 0.0341926 0)
(0.0491614 0.0318613 0)
(0.0682219 0.0296564 0)
(0.0847942 0.0284089 0)
(0.105769 0.0274624 0)
(0.12103 0.0272141 0)
(0.150329 0.0273668 0)
(0.161093 0.0233284 0)
(0.204332 0.0156653 0)
(0.1967 -0.0186769 0)
(0.23053 -0.0774326 0)
(0.158878 -0.25596 0)
(0.126152 -0.437593 0)
(0.11956 0.140817 0)
(0.152309 0.0861944 0)
(0.228916 0.0635947 0)
(0.284373 0.0481155 0)
(0.32565 0.0374347 0)
(0.363931 0.0296514 0)
(0.392582 0.0241959 0)
(0.423726 0.0201481 0)
(0.443577 0.0172361 0)
(0.472207 0.0150076 0)
(0.484723 0.0132251 0)
(0.514493 0.0121444 0)
(0.519641 0.010932 0)
(0.553126 0.010225 0)
(0.548376 0.00853314 0)
(0.582975 0.00411045 0)
(0.553171 -0.0051099 0)
(0.559875 -0.027631 0)
(0.424268 -0.073162 0)
(0.27608 -0.151963 0)
)
;

boundaryField
{
    movingWall
    {
        type            fixedValue;
        value           uniform (1 0 0);
    }
    fixedWalls
    {
        type            noSlip;
    }
    frontAndBack
    {
        type            empty;
    }
}


// ************************************************************************* //
