/*--------------------------------*- C++ -*----------------------------------*\
  =========                 |
  \\      /  F ield         | OpenFOAM: The Open Source CFD Toolbox
   \\    /   O peration     | Website:  https://openfoam.org
    \\  /    A nd           | Version:  10
     \\/     M anipulation  |
\*---------------------------------------------------------------------------*/
FoamFile
{
    format      ascii;
    class       volScalarField;
    location    "5.15";
    object      p;
}
// * * * * * * * * * * * * * * * * * * * * * * * * * * * * * * * * * * * * * //

dimensions      [0 2 -2 0 0 0 0];

internalField   nonuniform List<scalar> 
475
(
-0.0541597
-0.0796927
-0.108737
-0.132509
-0.155189
-0.0799687
-0.0933119
-0.109618
-0.128724
-0.145769
-0.0781522
-0.0874676
-0.102472
-0.119948
-0.136494
-0.0774813
-0.0883212
-0.103334
-0.118627
-0.132377
-0.0476632
-0.0746551
-0.0982639
-0.115944
-0.128744
-0.173263
-0.184642
-0.190242
-0.196007
-0.205649
-0.218602
-0.229934
-0.235561
-0.233319
-0.223259
-0.206767
-0.185542
-0.163091
-0.142325
-0.123997
-0.107505
-0.0951237
-0.0884544
-0.0826547
-0.074598
-0.0654213
-0.0547164
-0.0406851
-0.0244693
-0.0114913
-0.00321593
0.00178531
0.00590949
0.010381
0.0147251
0.0179991
0.0197155
0.0199938
0.0192588
0.0179403
0.016341
0.0146305
0.0128876
0.011145
0.0094087
0.00768028
0.00595809
0.00424763
0.0025451
0.000847122
-0.162407
-0.174719
-0.182179
-0.186295
-0.190006
-0.194314
-0.197022
-0.196999
-0.193034
-0.185059
-0.174044
-0.161923
-0.150832
-0.140816
-0.131595
-0.122915
-0.115796
-0.111164
-0.105383
-0.0956402
-0.0827281
-0.0667016
-0.0492634
-0.0315222
-0.0168808
-0.00654532
0.000591651
0.00635188
0.0116543
0.0163109
0.0196926
0.0214551
0.0217296
0.0209108
0.0194216
0.0175901
0.0156245
0.013636
0.0116781
0.00976864
0.00791257
0.00609971
0.00432469
0.00257919
0.000853667
-0.150095
-0.15986
-0.166333
-0.169253
-0.17022
-0.16952
-0.167101
-0.163449
-0.157875
-0.152387
-0.148039
-0.146241
-0.145556
-0.141194
-0.137201
-0.136677
-0.134694
-0.12945
-0.120447
-0.106782
-0.089976
-0.0706111
-0.0500479
-0.0311226
-0.0162691
-0.00566218
0.00197031
0.0080255
0.0132561
0.0176371
0.0207851
0.0224747
0.0227765
0.0219817
0.0204528
0.0185084
0.0163832
0.0142223
0.0121025
0.0100576
0.00809334
0.00620542
0.00437901
0.00260068
0.000855354
-0.143147
-0.150921
-0.15587
-0.157286
-0.156218
-0.151937
-0.145714
-0.137512
-0.129102
-0.123332
-0.12323
-0.135011
-0.146508
-0.141823
-0.129932
-0.127461
-0.132269
-0.133419
-0.127213
-0.113223
-0.0933261
-0.0705897
-0.0485625
-0.0295391
-0.015061
-0.00465277
0.00297974
0.009028
0.0141361
0.0183365
0.0213642
0.0230331
0.0233742
0.0226144
0.021075
0.0190665
0.0168449
0.0145711
0.012348
0.010219
0.00819257
0.00625959
0.00440337
0.00260692
0.00085225
-0.138206
-0.145205
-0.149212
-0.150168
-0.147666
-0.14188
-0.133597
-0.123214
-0.113666
-0.106287
-0.108802
-0.124612
-0.140812
-0.146654
-0.144143
-0.138825
-0.133708
-0.128005
-0.118211
-0.103885
-0.0854726
-0.0648865
-0.044776
-0.0274944
-0.0139745
-0.00389776
0.00372048
0.00978275
0.014795
0.0188232
0.0216933
0.0232485
0.0235206
0.0227247
0.0211643
0.0191415
0.0168968
0.0146146
0.012384
0.010246
0.0082112
0.00627085
0.00440953
0.00260848
0.000851584
-0.202746
-0.20448
-0.206892
-0.210951
-0.220823
-0.236541
-0.252805
-0.263158
-0.262745
-0.250076
-0.225361
-0.190373
-0.148461
-0.104203
-0.062537
-0.0267668
0.00158905
0.0218349
0.0345223
0.041249
0.043744
0.0434235
0.0415583
0.0390338
0.0354219
0.0303107
0.0236246
0.0168179
0.0114742
0.00834272
0.00722048
0.00748648
0.00844051
0.00946843
0.0102498
0.010621
0.0105484
0.0100741
0.00926648
0.00819895
0.00693646
0.00553349
0.00403021
0.00245752
0.000837521
-0.194711
-0.19803
-0.202581
-0.21128
-0.225586
-0.244873
-0.262702
-0.273845
-0.274112
-0.263003
-0.239175
-0.2042
-0.161636
-0.115844
-0.0729513
-0.0366292
-0.00768713
0.0132797
0.0263485
0.0336556
0.0374539
0.0387162
0.0379454
0.0357031
0.0325094
0.0277165
0.0219947
0.0164705
0.0121607
0.00941415
0.00819663
0.00821586
0.00895642
0.00988806
0.0105891
0.010875
0.0107314
0.0102009
0.00934934
0.00824993
0.00696601
0.00554893
0.00403741
0.00245933
0.000837118
-0.203601
-0.202362
-0.204537
-0.213242
-0.23034
-0.252088
-0.271218
-0.283491
-0.284744
-0.272662
-0.2482
-0.213521
-0.172367
-0.128025
-0.0862779
-0.051359
-0.0236484
-0.00317914
0.00982489
0.0173553
0.0217516
0.0241314
0.0250975
0.0249746
0.0240521
0.0219347
0.0189444
0.0156995
0.0129663
0.0111416
0.0103357
0.0103484
0.0108027
0.0113244
0.0116367
0.0116194
0.0112344
0.010535
0.00956081
0.00837601
0.00703567
0.00558251
0.00404907
0.0024588
0.000831992
-0.190938
-0.19343
-0.196611
-0.206228
-0.222744
-0.243488
-0.261695
-0.273403
-0.275914
-0.267123
-0.245609
-0.213748
-0.176817
-0.137915
-0.100748
-0.0698018
-0.0458156
-0.0278834
-0.015993
-0.00828269
-0.00247372
0.00190078
0.00528723
0.00838583
0.010925
0.0124466
0.0124554
0.0120663
0.0121398
0.0127408
0.0134249
0.013903
0.0141193
0.0140633
0.0137249
0.0131156
0.0122648
0.0112011
0.00998248
0.00863811
0.00719206
0.0056691
0.00409027
0.00247299
0.000831285
-0.223133
-0.202761
-0.200175
-0.204738
-0.21794
-0.236727
-0.253158
-0.262336
-0.262565
-0.253344
-0.233986
-0.206027
-0.174826
-0.143943
-0.114726
-0.0898929
-0.0719641
-0.0596953
-0.0501461
-0.0420279
-0.0340176
-0.0252347
-0.0160903
-0.00873362
-0.00176016
0.00266055
0.00513061
0.00745597
0.0104267
0.0135109
0.0158562
0.0170934
0.0173237
0.01684
0.0159177
0.0147434
0.0134217
0.0120045
0.0105216
0.00898633
0.00740655
0.0057954
0.0041571
0.00250147
0.000835478
)
;

boundaryField
{
    inlet
    {
        type            zeroGradient;
    }
    outlet
    {
        type            fixedValue;
        value           uniform 0;
    }
    upperWall
    {
        type            zeroGradient;
    }
    lowerWall
    {
        type            zeroGradient;
    }
    frontAndBack
    {
        type            empty;
    }
}


// ************************************************************************* //
