/*--------------------------------*- C++ -*----------------------------------*\
  =========                 |
  \\      /  F ield         | OpenFOAM: The Open Source CFD Toolbox
   \\    /   O peration     | Website:  https://openfoam.org
    \\  /    A nd           | Version:  10
     \\/     M anipulation  |
\*---------------------------------------------------------------------------*/
FoamFile
{
    format      ascii;
    class       volVectorField;
    location    "2.6";
    object      U;
}
// * * * * * * * * * * * * * * * * * * * * * * * * * * * * * * * * * * * * * //

dimensions      [0 1 -1 0 0 0 0];

internalField   nonuniform List<vector> 
8000
(
(-0.000155261 0.000161354 -8.81819e-06)
(-0.000711366 0.000267504 1.48875e-05)
(-0.00146451 0.000276123 2.02349e-05)
(-0.00215759 0.000264447 2.22223e-05)
(-0.00281505 0.000245797 2.13808e-05)
(-0.00341472 0.00022167 1.88581e-05)
(-0.00394024 0.000192142 1.52283e-05)
(-0.00437729 0.000157233 1.06965e-05)
(-0.00471215 0.00011707 5.31689e-06)
(-0.00493218 7.19383e-05 -8.33265e-07)
(-0.00502614 2.25939e-05 -7.43347e-06)
(-0.00498432 -3.04912e-05 -1.44662e-05)
(-0.00479985 -8.60915e-05 -2.17785e-05)
(-0.00446992 -0.000142445 -2.90736e-05)
(-0.00399646 -0.00019742 -3.59249e-05)
(-0.0033873 -0.000248471 -4.16914e-05)
(-0.00265854 -0.000292532 -4.52211e-05)
(-0.00184281 -0.000324745 -4.46061e-05)
(-0.000924036 -0.000327476 -3.8554e-05)
(-0.000214603 -0.000209165 -7.77404e-06)
(-0.000265867 0.000736202 -3.84923e-05)
(-0.00111131 0.00111582 -1.50803e-05)
(-0.00220603 0.00114094 -8.13345e-06)
(-0.0032166 0.00108752 -3.50664e-06)
(-0.00417008 0.00100398 -1.38648e-06)
(-0.00503489 0.000896984 -6.31762e-07)
(-0.00578746 0.000767935 -6.95484e-07)
(-0.00640767 0.000617902 -1.44732e-06)
(-0.00687684 0.000448264 -2.85745e-06)
(-0.00717794 0.00026084 -4.90374e-06)
(-0.00729677 5.80172e-05 -7.5781e-06)
(-0.00722141 -0.000156852 -1.10276e-05)
(-0.00694321 -0.000378463 -1.48569e-05)
(-0.00645946 -0.000600597 -1.89329e-05)
(-0.00577394 -0.000815374 -2.28793e-05)
(-0.00489827 -0.00101328 -2.60396e-05)
(-0.00385532 -0.00118288 -2.71261e-05)
(-0.00268929 -0.00130592 -2.40797e-05)
(-0.00138412 -0.00131904 -1.59648e-05)
(-0.000342578 -0.000899479 1.77455e-05)
(-0.000291566 0.00154691 -4.94352e-05)
(-0.0012141 0.0022624 -2.58885e-05)
(-0.00240448 0.00230299 -1.83362e-05)
(-0.00350164 0.00219051 -1.27685e-05)
(-0.00453642 0.00201688 -9.61346e-06)
(-0.00547514 0.00179567 -7.7343e-06)
(-0.0062929 0.0015305 -6.59341e-06)
(-0.0069684 0.00122428 -6.09217e-06)
(-0.00748186 0.000880345 -6.24977e-06)
(-0.00781549 0.000502762 -7.10299e-06)
(-0.00795355 9.65076e-05 -8.64166e-06)
(-0.00788171 -0.000331643 -1.09003e-05)
(-0.00758996 -0.000772146 -1.37699e-05)
(-0.00707434 -0.00121281 -1.70633e-05)
(-0.00633681 -0.00163835 -2.03701e-05)
(-0.00538783 -0.00203034 -2.29915e-05)
(-0.00425047 -0.00236648 -2.35232e-05)
(-0.00297224 -0.00261106 -1.97131e-05)
(-0.0015344 -0.00264354 -1.06863e-05)
(-0.000381276 -0.00185511 2.5218e-05)
(-0.000307334 0.00236948 -5.85114e-05)
(-0.00128527 0.00343411 -3.45603e-05)
(-0.00254928 0.00349005 -2.65276e-05)
(-0.0037135 0.00331772 -2.02509e-05)
(-0.00481298 0.00305385 -1.63816e-05)
(-0.00581269 0.00271874 -1.37519e-05)
(-0.00668706 0.00231802 -1.18223e-05)
(-0.00741421 0.0018562 -1.05149e-05)
(-0.00797359 0.00133823 -9.87461e-06)
(-0.00834611 0.000769958 -9.96034e-06)
(-0.00851472 0.000158856 -1.07938e-05)
(-0.008463 -0.000485599 -1.25829e-05)
(-0.00817717 -0.00115087 -1.50026e-05)
(-0.00764932 -0.00181922 -1.79554e-05)
(-0.0068779 -0.00246791 -2.10641e-05)
(-0.00587015 -0.0030689 -2.35631e-05)
(-0.00464728 -0.00358768 -2.38786e-05)
(-0.00325985 -0.00396876 -1.94674e-05)
(-0.00168674 -0.0040294 -9.40769e-06)
(-0.000419512 -0.00285223 2.98216e-05)
(-0.000327676 0.0032539 -6.73023e-05)
(-0.00137642 0.00469536 -4.23769e-05)
(-0.0027349 0.00476801 -3.3836e-05)
(-0.00398581 0.00453244 -2.69429e-05)
(-0.00516907 0.00417355 -2.25429e-05)
(-0.00624811 0.00371898 -1.94193e-05)
(-0.00719672 0.00317654 -1.70176e-05)
(-0.00799256 0.00255232 -1.52733e-05)
(-0.00861435 0.00185262 -1.42524e-05)
(-0.00904172 0.00108453 -1.40454e-05)
(-0.00925536 0.000256776 -1.47276e-05)
(-0.00923593 -0.000618975 -1.63869e-05)
(-0.00896522 -0.0015274 -1.88344e-05)
(-0.00842923 -0.00244629 -2.19757e-05)
(-0.00761997 -0.00334571 -2.54049e-05)
(-0.00653876 -0.00418692 -2.82747e-05)
(-0.00520288 -0.00492051 -2.87476e-05)
(-0.00366598 -0.0054663 -2.38114e-05)
(-0.00190433 -0.00556915 -1.23455e-05)
(-0.000475136 -0.00396427 3.22619e-05)
(-0.000354653 0.00421505 -7.74459e-05)
(-0.00149608 0.00606866 -5.1031e-05)
(-0.00297759 0.00615995 -4.18868e-05)
(-0.00434109 0.0058569 -3.4321e-05)
(-0.00563265 0.00539726 -2.93928e-05)
(-0.00681392 0.00481685 -2.58272e-05)
(-0.00785816 0.00412594 -2.30503e-05)
(-0.00874285 0.00333212 -2.10098e-05)
(-0.00944623 0.00244267 -1.97911e-05)
(-0.00994679 0.00146521 -1.95091e-05)
(-0.0102229 0.000408758 -2.027e-05)
(-0.0102516 -0.0007147 -2.22013e-05)
(-0.0100086 -0.00188869 -2.50795e-05)
(-0.00947136 -0.00308754 -2.88811e-05)
(-0.00862217 -0.00427471 -3.31729e-05)
(-0.00745226 -0.00539994 -3.69878e-05)
(-0.00597091 -0.00639551 -3.81139e-05)
(-0.00423361 -0.00714913 -3.28108e-05)
(-0.0022124 -0.00731746 -1.95397e-05)
(-0.000555272 -0.00523453 3.30092e-05)
(-0.000388845 0.00527322 -9.02215e-05)
(-0.0016473 0.00758324 -6.1922e-05)
(-0.00328341 0.00769507 -5.20195e-05)
(-0.0047873 0.0073186 -4.35815e-05)
(-0.00621302 0.00675053 -3.79557e-05)
(-0.0075202 0.00603617 -3.38153e-05)
(-0.00868204 0.0051887 -3.0576e-05)
(-0.00967645 0.00421727 -2.82065e-05)
(-0.0104819 0.00312971 -2.68184e-05)
(-0.0110762 0.0019332 -2.65614e-05)
(-0.0114358 0.000635478 -2.75917e-05)
(-0.0115339 -0.000753031 -3.00963e-05)
(-0.0113386 -0.00221762 -3.38066e-05)
(-0.0108158 -0.0037317 -3.88308e-05)
(-0.0099334 -0.00525408 -4.47228e-05)
(-0.00866613 -0.00672292 -5.03535e-05)
(-0.00700797 -0.00804809 -5.30028e-05)
(-0.00501189 -0.00907476 -4.78117e-05)
(-0.00264205 -0.00934697 -3.24153e-05)
(-0.000669374 -0.00672287 3.10664e-05)
(-0.000430955 0.00645299 -0.000106792)
(-0.00183359 0.0092742 -7.6282e-05)
(-0.00365916 0.0094077 -6.53786e-05)
(-0.00533298 0.00894901 -5.57037e-05)
(-0.00691947 0.00826182 -4.90246e-05)
(-0.0083763 0.00740282 -4.39922e-05)
(-0.00967738 0.0063889 -4.00362e-05)
(-0.0108022 0.00523104 -3.71635e-05)
(-0.0117306 0.00393722 -3.55246e-05)
(-0.0124414 0.00251307 -3.53194e-05)
(-0.0129095 0.000963094 -3.67877e-05)
(-0.013105 -0.000706745 -4.02332e-05)
(-0.0129876 -0.00248771 -4.52866e-05)
(-0.0125082 -0.00435668 -5.23447e-05)
(-0.0116145 -0.0062722 -6.09991e-05)
(-0.0102547 -0.00816315 -6.99357e-05)
(-0.00839491 -0.00991376 -7.57453e-05)
(-0.0060748 -0.0113125 -7.19019e-05)
(-0.00324325 -0.0117525 -5.42859e-05)
(-0.000833906 -0.00851219 2.42597e-05)
(-0.000482271 0.00778333 -0.000128642)
(-0.00206042 0.0111823 -9.56421e-05)
(-0.00411474 0.0113365 -8.33325e-05)
(-0.00599004 0.0107823 -7.17901e-05)
(-0.00776441 0.0099608 -6.34173e-05)
(-0.00939379 0.00894278 -5.691e-05)
(-0.0108542 0.00775019 -5.17578e-05)
(-0.0121286 0.0063964 -4.80307e-05)
(-0.0132003 0.00488936 -4.59327e-05)
(-0.0140508 0.00323193 -4.57358e-05)
(-0.0146561 0.00142308 -4.78135e-05)
(-0.0149851 -0.0005391 -5.26823e-05)
(-0.0149889 -0.00265879 -5.9744e-05)
(-0.0146007 -0.0049225 -7.00436e-05)
(-0.0137413 -0.0072974 -8.33305e-05)
(-0.0123186 -0.00971013 -9.81741e-05)
(-0.01025 -0.0120198 -0.000110232)
(-0.00753742 -0.0139423 -0.000110647)
(-0.00410036 -0.014658 -9.15103e-05)
(-0.00107935 -0.0107228 6.70934e-06)
(-0.000545222 0.00930013 -0.000157997)
(-0.00233672 0.0133566 -0.000122231)
(-0.00466525 0.0135262 -0.000107781)
(-0.00677596 0.0128558 -9.32595e-05)
(-0.00876507 0.0118778 -8.20634e-05)
(-0.0105877 0.0106809 -7.30651e-05)
(-0.0122243 0.00929407 -6.58882e-05)
(-0.0136636 0.00773404 -6.06931e-05)
(-0.0148957 0.00600892 -5.77407e-05)
(-0.0159082 0.00411774 -5.73804e-05)
(-0.016681 0.002051 -6.01944e-05)
(-0.0171874 -0.000207623 -6.7399e-05)
(-0.0173715 -0.00267376 -7.70324e-05)
(-0.0171473 -0.00536365 -9.23304e-05)
(-0.0164039 -0.00826581 -0.000113178)
(-0.0149914 -0.0113202 -0.000138349)
(-0.0127465 -0.0143707 -0.000162512)
(-0.00958211 -0.0170503 -0.000173595)
(-0.00536316 -0.0182259 -0.000155563)
(-0.00146644 -0.0135401 -3.3456e-05)
(-0.000624584 0.0110506 -0.000198459)
(-0.00267765 0.0158583 -0.000159531)
(-0.00533434 0.0160293 -0.000141523)
(-0.00771693 0.0152101 -0.000122003)
(-0.00994619 0.014043 -0.000105984)
(-0.0119786 0.012639 -9.27525e-05)
(-0.0138018 0.011037 -8.2172e-05)
(-0.0154144 0.00925892 -7.45049e-05)
(-0.0168173 0.00731368 -7.00325e-05)
(-0.0180094 0.00519608 -6.91076e-05)
(-0.0189821 0.00288619 -7.21964e-05)
(-0.0197105 0.00034954 -7.94273e-05)
(-0.0201456 -0.00245316 -9.56297e-05)
(-0.0201934 -0.00557949 -0.000118733)
(-0.0197 -0.00906386 -0.000151464)
(-0.0184424 -0.0128906 -0.000194076)
(-0.0161358 -0.0169187 -0.000241042)
(-0.0125027 -0.0207116 -0.000276444)
(-0.00731006 -0.0226664 -0.000266933)
(-0.00212245 -0.0172636 -0.00012267)
(-0.000730121 0.0131022 -0.000256242)
(-0.0031099 0.0187671 -0.000213221)
(-0.00615995 0.0189096 -0.000188784)
(-0.00885308 0.0178895 -0.0001605)
(-0.0113441 0.0164836 -0.000136082)
(-0.0135948 0.0148317 -0.00011565)
(-0.0156051 0.0129856 -9.94329e-05)
(-0.0173876 0.0109747 -8.77473e-05)
(-0.0189593 0.00881007 -8.0778e-05)
(-0.0203365 0.00648303 -7.87927e-05)
(-0.0215283 0.0039629 -8.21488e-05)
(-0.0225274 0.00119574 -9.11069e-05)
(-0.0233013 -0.00189731 -0.000113631)
(-0.0237588 -0.005427 -0.000146892)
(-0.0237177 -0.00950648 -0.000196799)
(-0.0228717 -0.0142193 -0.000267044)
(-0.0207742 -0.0195093 -0.000354716)
(-0.0167774 -0.0249398 -0.000442562)
(-0.0104774 -0.0282286 -0.00046213)
(-0.00332058 -0.022412 -0.000331274)
(-0.000883213 0.0155638 -0.000342903)
(-0.00368278 0.022196 -0.000293362)
(-0.0072037 0.0222472 -0.000256233)
(-0.0102465 0.0209409 -0.000211797)
(-0.0130125 0.0192211 -0.000172433)
(-0.0154776 0.0172611 -0.000139765)
(-0.0176593 0.0151296 -0.000114407)
(-0.0195904 0.0128654 -9.6483e-05)
(-0.0213094 0.0104836 -8.57236e-05)
(-0.0228571 0.00797396 -8.20516e-05)
(-0.0242699 0.00529654 -8.60022e-05)
(-0.0255712 0.00237551 -9.97765e-05)
(-0.0267689 -0.000910849 -0.000126612)
(-0.0278034 -0.0047238 -0.000169665)
(-0.0284959 -0.00931126 -0.000240696)
(-0.028481 -0.01494 -0.000349307)
(-0.0271388 -0.0217749 -0.000502346)
(-0.0231801 -0.0295707 -0.000692842)
(-0.015933 -0.0350932 -0.000801174)
(-0.00568079 -0.0300212 -0.000823082)
(-0.00113252 0.0185428 -0.000478846)
(-0.00449627 0.0262619 -0.00041479)
(-0.0085724 0.026125 -0.000352926)
(-0.0119958 0.024405 -0.000278367)
(-0.0150322 0.0222605 -0.000212103)
(-0.0176866 0.0199056 -0.000158726)
(-0.0200005 0.0174298 -0.000118963)
(-0.0220331 0.0148824 -9.19301e-05)
(-0.0238499 0.0122841 -7.59014e-05)
(-0.0255226 0.00962658 -6.96711e-05)
(-0.0271258 0.00686794 -7.30477e-05)
(-0.0287338 0.00392482 -8.71399e-05)
(-0.0303994 0.000653301 -0.000111342)
(-0.0321582 -0.00320112 -0.000162439)
(-0.0339373 -0.00805361 -0.000252903)
(-0.0353868 -0.0144349 -0.000398997)
(-0.0358009 -0.0229584 -0.000634597)
(-0.0328802 -0.0340473 -0.000994723)
(-0.0258299 -0.0432175 -0.00132946)
(-0.0107191 -0.0419931 -0.0019572)
(-0.00153278 0.0227364 -0.00073075)
(-0.00565153 0.0313073 -0.00061491)
(-0.0104004 0.0306788 -0.000494302)
(-0.0142392 0.0282856 -0.000357021)
(-0.0175184 0.0255539 -0.000241512)
(-0.0203057 0.0226946 -0.000154259)
(-0.0226783 0.0198012 -9.30557e-05)
(-0.0247305 0.0169293 -5.388e-05)
(-0.0265581 0.0141088 -3.12466e-05)
(-0.0282643 0.0113361 -2.14472e-05)
(-0.0299603 0.00857032 -2.22456e-05)
(-0.0317714 0.0057135 -3.22138e-05)
(-0.0338757 0.00259202 -5.52957e-05)
(-0.0364852 -0.00110056 -0.000110921)
(-0.0397031 -0.00581345 -0.00017968)
(-0.0434224 -0.012433 -0.00029928)
(-0.047245 -0.0221594 -0.000558021)
(-0.0474156 -0.037164 -0.00107989)
(-0.043495 -0.0517339 -0.00172855)
(-0.020937 -0.0616815 -0.003882)
(-0.00274208 0.0268385 -0.00110157)
(-0.00813552 0.037518 -0.000979017)
(-0.0131551 0.0362451 -0.000726823)
(-0.0172583 0.0330191 -0.000472444)
(-0.0206192 0.0293895 -0.000252506)
(-0.0234186 0.0257147 -9.40315e-05)
(-0.0257323 0.0221871 7.33288e-06)
(-0.0276776 0.0188793 6.37031e-05)
(-0.0293795 0.0158114 8.9277e-05)
(-0.0309807 0.0129738 9.62318e-05)
(-0.0326502 0.0103478 9.17084e-05)
(-0.0345937 0.00788558 7.85749e-05)
(-0.0370682 0.00549996 6.89059e-05)
(-0.0403793 0.00295655 9.74968e-05)
(-0.0450247 -0.000266425 0.000191114)
(-0.0514412 -0.00565553 0.000343802)
(-0.0604668 -0.0151574 0.000504106)
(-0.0663941 -0.0361086 0.000359334)
(-0.0706448 -0.0603655 3.76794e-05)
(-0.0364547 -0.0976926 -0.00503012)
(-0.00259213 0.0390279 -0.00199577)
(-0.00927063 0.0432439 -0.00124075)
(-0.0165455 0.0405338 -0.000835167)
(-0.0211646 0.0355461 -0.000309626)
(-0.0246827 0.0311506 3.43574e-05)
(-0.0272462 0.0270752 0.000236117)
(-0.0291109 0.0233353 0.00033661)
(-0.0305544 0.0199004 0.000372186)
(-0.0317617 0.0167725 0.000371931)
(-0.0328778 0.0139546 0.000356079)
(-0.0340501 0.0114666 0.000344753)
(-0.0354641 0.00928134 0.000355405)
(-0.0374657 0.00741654 0.000428291)
(-0.0406343 0.0056603 0.000623353)
(-0.0461912 0.00371096 0.00104396)
(-0.0550354 -0.000447363 0.00202047)
(-0.0720639 -0.00914629 0.00376285)
(-0.0846995 -0.0361384 0.00570636)
(-0.100741 -0.0780159 0.00693545)
(-0.04528 -0.162826 -0.00428329)
(-0.0117245 0.0389999 -0.00325397)
(-0.0238602 0.0599053 -0.00299418)
(-0.0227423 0.0532699 -0.00174823)
(-0.0263828 0.0461086 -0.000697078)
(-0.0273064 0.0387042 0.000122639)
(-0.027903 0.031991 0.000593716)
(-0.0281178 0.0263417 0.000821001)
(-0.0281662 0.0216681 0.000887984)
(-0.0281437 0.0178506 0.000866049)
(-0.0281478 0.0147535 0.000799295)
(-0.0283564 0.0123728 0.000736878)
(-0.0289062 0.0106587 0.000705031)
(-0.0302195 0.00988994 0.000812173)
(-0.0325342 0.0101594 0.0012062)
(-0.0376619 0.0121156 0.0023437)
(-0.0447466 0.0128131 0.00485469)
(-0.0627775 0.0107668 0.0100284)
(-0.0702228 -0.0289899 0.0148461)
(-0.101674 -0.0971873 0.0152803)
(-0.0256552 -0.244529 -0.00826229)
(-0.0465891 0.0971897 -0.00792529)
(-0.0331333 0.051345 -0.00277262)
(-0.0268701 0.0436727 -0.00055497)
(-0.0140322 0.0349508 0.00157132)
(-0.00374484 0.0274312 0.00256325)
(0.00508398 0.0220761 0.00293122)
(0.0123626 0.0181261 0.00285791)
(0.018206 0.0149872 0.00258339)
(0.0228375 0.0124642 0.0022405)
(0.0266291 0.0103892 0.00188086)
(0.0295783 0.00892141 0.00160617)
(0.0323418 0.00772645 0.00139017)
(0.0343091 0.00749142 0.00140174)
(0.0374761 0.00717993 0.0017171)
(0.0375675 0.00800617 0.00294355)
(0.0458222 0.00468712 0.00568428)
(0.0305722 -0.00651757 0.0118072)
(0.0482199 -0.0577556 0.0193203)
(-0.026135 -0.165141 0.0106639)
(0.0254742 -0.302528 -0.0235714)
(0.11897 0.113017 -0.00979032)
(0.147626 0.0614661 -0.00870982)
(0.219656 0.0412016 -0.0070388)
(0.261929 0.0283417 -0.00451903)
(0.291042 0.0195065 -0.00220583)
(0.312021 0.013577 -0.000507268)
(0.326967 0.00973696 0.000627762)
(0.337674 0.00726708 0.0012334)
(0.345155 0.00569279 0.00153132)
(0.351265 0.00452275 0.00144764)
(0.354993 0.00377599 0.0014656)
(0.360205 0.00309409 0.00106179)
(0.36062 0.00245211 0.00122757)
(0.36844 0.00237059 0.000887536)
(0.361885 0.00032382 0.00130368)
(0.376721 0.00120113 0.00262644)
(0.34656 -0.00916533 0.00298467)
(0.361084 -0.0167805 0.00863334)
(0.22187 -0.0569119 -0.00212073)
(0.172812 -0.129942 -0.0479119)
(-0.00023918 0.000240781 -2.04779e-05)
(-0.00106873 0.000413489 1.02553e-05)
(-0.0021748 0.000427998 1.88934e-05)
(-0.00318426 0.000407861 2.31265e-05)
(-0.00413299 0.000376078 2.31229e-05)
(-0.00499082 0.000335586 2.03969e-05)
(-0.0057357 0.000286791 1.57679e-05)
(-0.00634821 0.000229985 9.57384e-06)
(-0.00681005 0.000165686 2.03741e-06)
(-0.00710446 9.45939e-05 -6.77442e-06)
(-0.00721742 1.76818e-05 -1.6658e-05)
(-0.00713751 -6.42073e-05 -2.74214e-05)
(-0.00685698 -0.000148811 -3.86322e-05)
(-0.00637364 -0.00023368 -4.97695e-05)
(-0.00569156 -0.000315781 -6.0091e-05)
(-0.00482225 -0.000391509 -6.8519e-05)
(-0.00378721 -0.000456466 -7.32722e-05)
(-0.00262862 -0.000503007 -7.16502e-05)
(-0.00132095 -0.000501244 -6.21825e-05)
(-0.000308024 -0.000305777 -1.83344e-05)
(-0.000425524 0.00108289 -6.4045e-05)
(-0.00173227 0.00169637 -3.3653e-05)
(-0.00339431 0.0017392 -2.23534e-05)
(-0.00491876 0.00165095 -1.40336e-05)
(-0.00634429 0.0015141 -9.62272e-06)
(-0.00762595 0.00134081 -7.5978e-06)
(-0.00873053 0.00113414 -7.15715e-06)
(-0.00962968 0.000896546 -8.0696e-06)
(-0.0102976 0.000630932 -1.02571e-05)
(-0.0107118 0.00034073 -1.36858e-05)
(-0.0108544 2.98742e-05 -1.83268e-05)
(-0.0107107 -0.000296091 -2.43485e-05)
(-0.0102714 -0.000629216 -3.10394e-05)
(-0.0095359 -0.000960395 -3.80402e-05)
(-0.00851177 -0.00127831 -4.46236e-05)
(-0.00721696 -0.00156951 -4.9631e-05)
(-0.00568365 -0.00181762 -5.10312e-05)
(-0.00397087 -0.00199416 -4.58739e-05)
(-0.00205331 -0.00199298 -3.32644e-05)
(-0.000513378 -0.00130505 1.4397e-05)
(-0.000471771 0.00225931 -8.19748e-05)
(-0.00191028 0.00341051 -5.20275e-05)
(-0.00373171 0.00348073 -3.97001e-05)
(-0.00539979 0.00329815 -2.97195e-05)
(-0.00695839 0.00301819 -2.35409e-05)
(-0.00835923 0.00266509 -1.96271e-05)
(-0.00956688 0.00224602 -1.71936e-05)
(-0.0105512 0.00176681 -1.60683e-05)
(-0.011285 0.00123382 -1.62547e-05)
(-0.0117446 0.000654301 -1.77961e-05)
(-0.0119099 3.67208e-05 -2.06784e-05)
(-0.0117639 -0.000608116 -2.4853e-05)
(-0.0112958 -0.00126589 -3.00857e-05)
(-0.0105032 -0.00191882 -3.59351e-05)
(-0.00939182 -0.00254509 -4.16044e-05)
(-0.00797862 -0.00311869 -4.58488e-05)
(-0.0062964 -0.00360775 -4.64401e-05)
(-0.00440888 -0.00395692 -4.013e-05)
(-0.00228687 -0.00396574 -2.61463e-05)
(-0.000574329 -0.00267813 2.43671e-05)
(-0.000500425 0.00344763 -9.81379e-05)
(-0.00203138 0.00515635 -6.83838e-05)
(-0.00397137 0.00525351 -5.51996e-05)
(-0.00574642 0.00497487 -4.3884e-05)
(-0.0074063 0.00455094 -3.63119e-05)
(-0.00890063 0.00401786 -3.09383e-05)
(-0.010193 0.00338667 -2.69966e-05)
(-0.0112525 0.00266632 -2.43643e-05)
(-0.012051 0.00186622 -2.30992e-05)
(-0.0125631 0.000996846 -2.32801e-05)
(-0.0127675 7.06507e-05 -2.49217e-05)
(-0.0126439 -0.000897313 -2.83014e-05)
(-0.0121768 -0.00188765 -3.28322e-05)
(-0.0113591 -0.00287457 -3.82106e-05)
(-0.010192 -0.00382571 -4.36692e-05)
(-0.00868803 -0.00470162 -4.78344e-05)
(-0.00687789 -0.00545308 -4.81902e-05)
(-0.00482925 -0.0059946 -4.10328e-05)
(-0.00250929 -0.00602342 -2.55686e-05)
(-0.000630172 -0.00410277 2.94211e-05)
(-0.000536872 0.00472149 -0.000114602)
(-0.00218458 0.00703005 -8.43533e-05)
(-0.00427488 0.0071556 -7.02013e-05)
(-0.00618636 0.00677461 -5.75883e-05)
(-0.0079756 0.00619827 -4.88096e-05)
(-0.00958988 0.0054756 -4.2279e-05)
(-0.0109919 0.00462184 -3.72322e-05)
(-0.0121503 0.00364908 -3.35866e-05)
(-0.013036 0.00256945 -3.14512e-05)
(-0.0136223 0.00139589 -3.09695e-05)
(-0.0138847 0.000143273 -3.22531e-05)
(-0.0137993 -0.00116962 -3.53862e-05)
(-0.0133449 -0.00251916 -4.00201e-05)
(-0.0125062 -0.00387281 -4.58501e-05)
(-0.0112761 -0.00518776 -5.20445e-05)
(-0.00965963 -0.00640954 -5.70582e-05)
(-0.00768213 -0.0074679 -5.79275e-05)
(-0.00541529 -0.00823995 -5.02083e-05)
(-0.00282229 -0.00830471 -3.28313e-05)
(-0.000709803 -0.00568603 2.96422e-05)
(-0.000585167 0.00610483 -0.000133901)
(-0.00238568 0.00906784 -0.000102605)
(-0.00467167 0.00922356 -8.72497e-05)
(-0.00676012 0.00873185 -7.31151e-05)
(-0.0087163 0.00799216 -6.29938e-05)
(-0.0104848 0.00706791 -5.52531e-05)
(-0.0120276 0.00597907 -4.91346e-05)
(-0.0133134 0.00474089 -4.46016e-05)
(-0.0143129 0.00336775 -4.18162e-05)
(-0.0149979 0.00187407 -4.09788e-05)
(-0.0153412 0.000275763 -4.22622e-05)
(-0.0153141 -0.00140746 -4.58376e-05)
(-0.0148871 -0.00314951 -5.1321e-05)
(-0.0140341 -0.00491259 -5.85111e-05)
(-0.0127351 -0.00664425 -6.65135e-05)
(-0.0109815 -0.00827364 -7.35407e-05)
(-0.00878854 -0.00970452 -7.5986e-05)
(-0.00622982 -0.0107658 -6.82428e-05)
(-0.00326232 -0.0108937 -4.85723e-05)
(-0.00082332 -0.00749123 2.51096e-05)
(-0.000646773 0.0076283 -0.000158258)
(-0.00264095 0.0113142 -0.000125595)
(-0.00517346 0.0115013 -0.00010866)
(-0.00748297 0.010887 -9.24947e-05)
(-0.00964605 0.00996916 -8.05536e-05)
(-0.0116043 0.00882776 -7.11868e-05)
(-0.0133199 0.00748837 -6.36718e-05)
(-0.0147627 0.0059696 -5.80432e-05)
(-0.0159039 0.0042875 -5.4535e-05)
(-0.0167153 0.00245655 -5.34282e-05)
(-0.0171671 0.000491439 -5.4997e-05)
(-0.0172255 -0.0015898 -5.95269e-05)
(-0.0168508 -0.00376264 -6.66235e-05)
(-0.0160018 -0.00598747 -7.62785e-05)
(-0.0146391 -0.00820458 -8.75638e-05)
(-0.0127324 -0.0103263 -9.83812e-05)
(-0.0102764 -0.0122245 -0.000104235)
(-0.00734106 -0.0136643 -9.77069e-05)
(-0.00387215 -0.0139012 -7.5633e-05)
(-0.000983572 -0.00960431 1.42486e-05)
(-0.000723463 0.00932783 -0.000189913)
(-0.00295762 0.0138212 -0.000155738)
(-0.00579338 0.0140387 -0.000136622)
(-0.0083713 0.0132848 -0.000117541)
(-0.0107827 0.0121686 -0.000102885)
(-0.0129664 0.0107897 -9.10638e-05)
(-0.0148862 0.00918078 -8.14523e-05)
(-0.0165148 0.00736427 -7.41987e-05)
(-0.0178264 0.00535728 -6.96379e-05)
(-0.0187944 0.00317262 -6.81616e-05)
(-0.019388 0.000820848 -7.0203e-05)
(-0.0195686 -0.00168596 -7.62571e-05)
(-0.0192852 -0.00433048 -8.58947e-05)
(-0.0184766 -0.00707745 -9.95394e-05)
(-0.017076 -0.00986558 -0.000116342)
(-0.0150177 -0.012593 -0.000133879)
(-0.0122593 -0.0150941 -0.000146461)
(-0.00885171 -0.0170491 -0.000143938)
(-0.00472004 -0.0174736 -0.000120157)
(-0.00121235 -0.0121451 -7.90108e-06)
(-0.000818104 0.0112449 -0.000231796)
(-0.00334639 0.0166478 -0.000196109)
(-0.00655001 0.016891 -0.000173809)
(-0.00944741 0.0159726 -0.000150326)
(-0.0121496 0.0146301 -0.000131421)
(-0.0145931 0.0129872 -0.000115716)
(-0.016746 0.0110857 -0.000102791)
(-0.0185868 0.00895271 -9.29655e-05)
(-0.0200961 0.00660607 -8.67045e-05)
(-0.0212523 0.00405486 -8.45439e-05)
(-0.0220262 0.00130177 -8.71487e-05)
(-0.0223773 -0.00165274 -9.53626e-05)
(-0.0222428 -0.00480678 -0.000108663)
(-0.0215376 -0.00813963 -0.000128419)
(-0.0201573 -0.0115998 -0.000154133)
(-0.0179824 -0.0150799 -0.000183249)
(-0.0149047 -0.0183762 -0.000208563)
(-0.0109231 -0.0210582 -0.00021605)
(-0.00592345 -0.0218063 -0.000193141)
(-0.00155145 -0.0152897 -5.14967e-05)
(-0.000935527 0.01343 -0.000288243)
(-0.00382379 0.0198639 -0.000251123)
(-0.00747055 0.0201202 -0.000223885)
(-0.0107428 0.0190007 -0.000193466)
(-0.0137779 0.0173929 -0.000167716)
(-0.0165122 0.0154507 -0.000145749)
(-0.0189215 0.0132283 -0.000127519)
(-0.0209952 0.010759 -0.000113577)
(-0.0227251 0.00806089 -0.000104519)
(-0.0240995 0.00513747 -0.000101018)
(-0.0250963 0.00197913 -0.000104052)
(-0.0256779 -0.00143248 -0.000115369)
(-0.0257728 -0.00512106 -0.000133299)
(-0.0252705 -0.00909711 -0.000161986)
(-0.0240198 -0.013339 -0.000201564)
(-0.0218227 -0.0177551 -0.000250048)
(-0.0184623 -0.0221148 -0.000298874)
(-0.0138147 -0.0258561 -0.000328825)
(-0.00769416 -0.0271671 -0.000313704)
(-0.00208506 -0.0193161 -0.000137235)
(-0.00108423 0.0159474 -0.000366091)
(-0.00441609 0.0235542 -0.000327495)
(-0.00859575 0.0237973 -0.000292105)
(-0.0123026 0.0224213 -0.000250345)
(-0.0157105 0.0204932 -0.000213349)
(-0.0187593 0.0182043 -0.000181218)
(-0.0214387 0.0156256 -0.000154516)
(-0.0237552 0.0127988 -0.00013406)
(-0.0257186 0.00974249 -0.000120495)
(-0.027335 0.00645269 -0.000114474)
(-0.0285971 0.00290345 -0.000116848)
(-0.0294784 -0.000950268 -0.000128371)
(-0.0299083 -0.00517168 -0.000155388)
(-0.0297565 -0.00982417 -0.000196791)
(-0.0288199 -0.0149495 -0.000256854)
(-0.026797 -0.0205139 -0.0003364)
(-0.023304 -0.0263001 -0.000427286)
(-0.0179546 -0.0316215 -0.000504857)
(-0.0104381 -0.033925 -0.000514555)
(-0.00299558 -0.0247048 -0.000310345)
(-0.00127987 0.0188845 -0.000476688)
(-0.00516644 0.0278246 -0.00043579)
(-0.00998779 0.0280039 -0.000386172)
(-0.0141928 0.026288 -0.00032525)
(-0.018007 0.0239608 -0.000269492)
(-0.0213815 0.0212608 -0.000220836)
(-0.0243282 0.0182807 -0.00018075)
(-0.0268795 0.0150732 -0.000150245)
(-0.0290723 0.0116584 -0.000129762)
(-0.0309396 0.00802384 -0.00011967)
(-0.0325003 0.00412367 -0.000120541)
(-0.0337539 -0.000122505 -0.000132953)
(-0.0346477 -0.00482329 -0.000168322)
(-0.0350495 -0.0101304 -0.000224645)
(-0.0347157 -0.0161959 -0.000312032)
(-0.0332278 -0.0231194 -0.000437842)
(-0.0299768 -0.0307936 -0.00059994)
(-0.0240668 -0.0384895 -0.000773572)
(-0.0149854 -0.0425712 -0.000850261)
(-0.00470642 -0.0323539 -0.000678934)
(-0.00155351 0.022377 -0.000640051)
(-0.00614841 0.0328211 -0.000593798)
(-0.011742 0.0328382 -0.000517784)
(-0.0165097 0.0306527 -0.000423272)
(-0.0207507 0.0278135 -0.000335703)
(-0.0244411 0.024614 -0.000260198)
(-0.0276273 0.0211741 -0.000199312)
(-0.0303784 0.0175595 -0.000153846)
(-0.0327687 0.0137932 -0.000123347)
(-0.0348705 0.00985477 -0.0001072)
(-0.0367441 0.00567821 -0.000105674)
(-0.0384259 0.0011459 -0.000121471)
(-0.039917 -0.00391087 -0.000159604)
(-0.0411305 -0.00974363 -0.000227559)
(-0.0418177 -0.0166877 -0.000344329)
(-0.0414748 -0.0250941 -0.000529111)
(-0.0392516 -0.0351647 -0.00079931)
(-0.0333855 -0.0463784 -0.00115012)
(-0.0230803 -0.0536062 -0.00140155)
(-0.00823811 -0.0441914 -0.00148787)
(-0.00197068 0.0265131 -0.0008897)
(-0.00750422 0.038669 -0.000826989)
(-0.0140167 0.0383891 -0.000702576)
(-0.0193987 0.0355557 -0.000548666)
(-0.0240586 0.0320482 -0.000406689)
(-0.028022 0.0282289 -0.000287709)
(-0.0313828 0.024253 -0.000195242)
(-0.0342599 0.0201997 -0.000128602)
(-0.036776 0.0160956 -8.48482e-05)
(-0.0390533 0.0119149 -6.06042e-05)
(-0.0412077 0.00757847 -5.39914e-05)
(-0.0433412 0.00294669 -6.47241e-05)
(-0.0455349 -0.00221076 -9.18777e-05)
(-0.0478243 -0.00828592 -0.000161374)
(-0.0500751 -0.0158216 -0.000294008)
(-0.0518227 -0.0255719 -0.000524926)
(-0.0521017 -0.038392 -0.000920534)
(-0.0478593 -0.0545993 -0.00154677)
(-0.0382587 -0.0672144 -0.00220078)
(-0.0160525 -0.063995 -0.0032578)
(-0.00256271 0.0322239 -0.00132321)
(-0.00929933 0.0457544 -0.00119144)
(-0.0169797 0.0447732 -0.000964725)
(-0.0230451 0.040941 -0.000696716)
(-0.0280879 0.0365675 -0.000461217)
(-0.0322343 0.0320047 -0.000274141)
(-0.0356519 0.0274167 -0.000136117)
(-0.0385286 0.0228922 -4.17486e-05)
(-0.0410434 0.0184647 1.72511e-05)
(-0.0433738 0.0141088 5.07517e-05)
(-0.0456937 0.0097356 6.65848e-05)
(-0.0481897 0.00516987 7.08558e-05)
(-0.051114 0.000133724 6.13425e-05)
(-0.0546933 -0.00579794 1.3444e-05)
(-0.0590516 -0.0133034 -5.66415e-05)
(-0.0641238 -0.023673 -0.000213937)
(-0.0692926 -0.0386503 -0.000613819)
(-0.0696576 -0.0609757 -0.00147311)
(-0.0649584 -0.0822501 -0.0026821)
(-0.0308025 -0.0989355 -0.0061357)
(-0.00438787 0.037283 -0.00194993)
(-0.013126 0.0545422 -0.00182533)
(-0.0212789 0.0525938 -0.00138396)
(-0.0278132 0.0476056 -0.000915428)
(-0.0329967 0.0419176 -0.000495302)
(-0.0371533 0.0361716 -0.00017663)
(-0.040456 0.0306773 4.00016e-05)
(-0.0431479 0.0255417 0.000171653)
(-0.0454658 0.0207776 0.000243077)
(-0.0476551 0.0163423 0.000277663)
(-0.0499809 0.0121709 0.000293794)
(-0.0527306 0.00814426 0.000304937)
(-0.0562274 0.0040846 0.000336797)
(-0.0608881 -0.00039849 0.000440578)
(-0.0674076 -0.00617905 0.000653123)
(-0.0763908 -0.0151885 0.000963862)
(-0.0886219 -0.0304427 0.00127351)
(-0.0959919 -0.0614907 0.00108536)
(-0.100774 -0.0995854 0.000195632)
(-0.0448594 -0.163641 -0.00792469)
(-0.00358612 0.0527022 -0.00329641)
(-0.013941 0.061167 -0.00228709)
(-0.0264278 0.057789 -0.00161452)
(-0.0338029 0.0506881 -0.000723882)
(-0.039374 0.0442564 -9.72833e-05)
(-0.043187 0.0381142 0.000317473)
(-0.0457815 0.0323974 0.000559706)
(-0.0476697 0.0271226 0.000677592)
(-0.0492003 0.0223097 0.000721106)
(-0.05064 0.01794 0.000729827)
(-0.0522401 0.0140077 0.000745754)
(-0.0542835 0.0104192 0.00080924)
(-0.0572508 0.00715228 0.000995346)
(-0.0619063 0.00385517 0.00140971)
(-0.0695622 0.000117689 0.00222875)
(-0.0811029 -0.00668046 0.00389427)
(-0.101188 -0.0200731 0.00666173)
(-0.110915 -0.0604273 0.00954725)
(-0.124687 -0.127512 0.0104179)
(-0.0320777 -0.259271 -0.00760098)
(-0.0123692 0.048149 -0.00512862)
(-0.031361 0.0849203 -0.00491298)
(-0.0342071 0.0763572 -0.00309911)
(-0.0420707 0.0665468 -0.0014447)
(-0.0445114 0.0558633 -8.29152e-05)
(-0.0455772 0.0459994 0.0007693)
(-0.0454756 0.0375391 0.00124061)
(-0.0448742 0.0304748 0.00143868)
(-0.0441315 0.0246573 0.00147365)
(-0.0435104 0.0198792 0.00142337)
(-0.0433425 0.0161311 0.00137724)
(-0.0437886 0.0132887 0.0013959)
(-0.0454161 0.0117229 0.00166301)
(-0.0481963 0.0115549 0.00242136)
(-0.0539986 0.0136243 0.00434659)
(-0.0595031 0.0138457 0.0082565)
(-0.0751816 0.00930093 0.0157528)
(-0.0659377 -0.045302 0.022698)
(-0.0920641 -0.14983 0.0225681)
(0.0187708 -0.337207 -0.0129027)
(-0.0723505 0.112324 -0.0108939)
(-0.0572985 0.0695828 -0.00445312)
(-0.0555567 0.0629222 -0.00146395)
(-0.0377871 0.0517124 0.001572)
(-0.0219969 0.0413427 0.00315302)
(-0.00691644 0.0333953 0.00392837)
(0.00646703 0.0272555 0.00406967)
(0.0179216 0.0222483 0.00384771)
(0.0273324 0.0181948 0.00347197)
(0.0351999 0.0148092 0.00302081)
(0.0412326 0.0124198 0.00266812)
(0.0467876 0.0103328 0.00239383)
(0.0504438 0.0098025 0.00247909)
(0.0563272 0.00898457 0.00303142)
(0.0576543 0.0103831 0.00491033)
(0.0746478 0.00673657 0.0088473)
(0.0632284 -0.00497881 0.0171368)
(0.110805 -0.060534 0.0282644)
(0.046616 -0.201296 0.0191474)
(0.0995059 -0.365016 -0.0297233)
(0.123082 0.142291 -0.0134771)
(0.159728 0.0879911 -0.0124045)
(0.240187 0.0642412 -0.0104743)
(0.294309 0.0478304 -0.00733504)
(0.335186 0.0356585 -0.00419332)
(0.367651 0.0264919 -0.0016492)
(0.393354 0.0197917 0.000228354)
(0.413989 0.014857 0.00140282)
(0.429495 0.0113954 0.00214366)
(0.443391 0.00870034 0.00221003)
(0.451311 0.00691132 0.00241288)
(0.463742 0.00552305 0.00186913)
(0.463527 0.00402919 0.00210289)
(0.480842 0.00426264 0.00180346)
(0.468541 0.00090193 0.00198394)
(0.496807 0.0032724 0.00416749)
(0.461593 -0.00719221 0.00412547)
(0.48591 -0.0182876 0.00911073)
(0.363742 -0.0513435 0.00347668)
(0.271759 -0.135185 -0.0550672)
(-0.000250167 0.000248927 -2.45097e-05)
(-0.00112355 0.000433884 -1.4531e-05)