/*--------------------------------*- C++ -*----------------------------------*\
  =========                 |
  \\      /  F ield         | OpenFOAM: The Open Source CFD Toolbox
   \\    /   O peration     | Website:  https://openfoam.org
    \\  /    A nd           | Version:  10
     \\/     M anipulation  |
\*---------------------------------------------------------------------------*/
FoamFile
{
    format      ascii;
    class       surfaceScalarField;
    location    "3.125";
    object      phi;
}
// * * * * * * * * * * * * * * * * * * * * * * * * * * * * * * * * * * * * * //

dimensions      [0 3 -1 0 0 0 0];

internalField   nonuniform List<scalar> 
760
(
-1.12069e-05
1.12069e-05
-3.17507e-05
2.05438e-05
-5.35754e-05
2.18247e-05
-7.45763e-05
2.10009e-05
-9.40785e-05
1.95022e-05
-0.000111625
1.75468e-05
-0.000126782
1.51567e-05
-0.000139116
1.2334e-05
-0.000148202
9.08559e-06
-0.000153631
5.42941e-06
-0.000155029
1.39811e-06
-0.00015207
-2.95947e-06
-0.000144526
-7.54396e-06
-0.000132302
-1.22239e-05
-0.000115479
-1.68233e-05
-9.43608e-05
-2.11177e-05
-6.95554e-05
-2.48054e-05
-4.22375e-05
-2.73179e-05
-1.55328e-05
-2.67047e-05
-1.55328e-05
-2.12001e-05
3.2407e-05
-5.50482e-05
5.43918e-05
-9.03932e-05
5.71697e-05
-0.000124216
5.48235e-05
-0.000155406
5.06927e-05
-0.000183193
4.5334e-05
-0.00020688
3.8843e-05
-0.000225809
3.12631e-05
-0.000239367
2.2644e-05
-0.000246989
1.3051e-05
-0.000248192
2.60128e-06
-0.000242575
-8.57652e-06
-0.000229867
-2.02514e-05
-0.000210015
-3.20766e-05
-0.000183211
-4.36267e-05
-0.000149973
-5.43563e-05
-0.000111243
-6.3535e-05
-6.87797e-05
-6.97813e-05
-2.69335e-05
-6.85509e-05
-4.24663e-05
-2.4034e-05
5.6441e-05
-6.19153e-05
9.22731e-05
-0.000101309
9.65633e-05
-0.000138933
9.24472e-05
-0.000173593
8.53535e-05
-0.000204458
7.6199e-05
-0.000230775
6.516e-05
-0.00025184
5.23278e-05
-0.000266994
3.77984e-05
-0.000275639
2.1696e-05
-0.000277245
4.20699e-06
-0.000271283
-1.45386e-05
-0.000257472
-3.40622e-05
-0.000235691
-5.38574e-05
-0.000206076
-7.32418e-05
-0.000169121
-9.13121e-05
-0.000125809
-0.000106846
-7.8065e-05
-0.000117526
-3.07517e-05
-0.000115864
-7.3218e-05
-2.5529e-05
8.197e-05
-6.58695e-05
0.000132614
-0.000107792
0.000138486
-0.00014785
0.000132505
-0.000184818
0.000122321
-0.000217847
0.000109229
-0.000246171
9.34843e-05
-0.000269066
7.52226e-05
-0.000285843
5.45755e-05
-0.000295851
3.17032e-05
-0.000298494
6.85077e-06
-0.000293158
-1.98752e-05
-0.00027937
-4.785e-05
-0.000256851
-7.6376e-05
-0.000225587
-0.000104506
-0.000185943
-0.000130956
-0.000138862
-0.000153928
-8.64231e-05
-0.000169964
-3.40861e-05
-0.000168201
-0.000107304
-2.72513e-05
0.000109221
-7.04633e-05
0.000175826
-0.000115382
0.000183405
-0.000158355
0.000175477
-0.000198121
0.000162087
-0.000233822
0.00014493
-0.000264686
0.000124348
-0.000289976
0.000100512
-0.000308974
7.35734e-05
-0.000320969
4.36986e-05
-0.000325255
1.11368e-05
-0.000321094
-2.40362e-05
-0.000307783
-6.11606e-05
-0.000284773
-9.93869e-05
-0.00025175
-0.000137528
-0.000208834
-0.000173873
-0.000156847
-0.000205915
-9.80563e-05
-0.000228755
-3.87901e-05
-0.000227467
-0.000146094
-2.94932e-05
0.000138715
-7.63972e-05
0.00022273
-0.000125163
0.000232171
-0.000171868
0.000222182
-0.00021521
0.000205428
-0.000254327
0.000184047
-0.000288452
0.000158474
-0.00031685
0.00012891
-0.000338783
9.55066e-05
-0.000353484
5.83999e-05
-0.000360135
1.77873e-05
-0.000357823
-2.63481e-05
-0.000345532
-7.34517e-05
-0.000322326
-0.000122592
-0.000287431
-0.000172424
-0.000240505
-0.000220798
-0.000182085
-0.000264335
-0.000114594
-0.000296247
-4.55916e-05
-0.00029647
-0.000191686
-3.23248e-05
0.000171039
-8.38526e-05
0.000274258
-0.000137406
0.000285724
-0.000188724
0.000273501
-0.00023646
0.000253164
-0.000279764
0.000227351
-0.000317898
0.000196608
-0.000350154
0.000161166
-0.000375804
0.000121156
-0.000394046
7.66415e-05
-0.000403951
2.76928e-05
-0.00040443
-2.58695e-05
-0.000394055
-8.38262e-05
-0.000371363
-0.000145285
-0.000334866
-0.00020892
-0.000283431
-0.000272233
-0.000216965
-0.000330801
-0.000137868
-0.000375343
-5.53855e-05
-0.000378952
-0.000247071
-3.58018e-05
0.000206841
-9.2973e-05
0.000331429
-0.000152312
0.000345063
-0.000209148
0.000330338
-0.000262095
0.000306111
-0.000310341
0.000275597
-0.000353213
0.000239479
-0.000390079
0.000198032
-0.000420272
0.000151349
-0.000443004
9.9374e-05
-0.000457277
4.19659e-05
-0.000461849
-2.12981e-05
-0.000454807
-9.08681e-05
-0.000434
-0.000166091
-0.000396906
-0.000246014
-0.000341059
-0.000328079
-0.000265067
-0.000406794
-0.000170818
-0.000469592
-6.97547e-05
-0.000480015
-0.000316826
-4.00111e-05
0.000246852
-0.000103962
0.00039538
-0.000170153
0.000411254
-0.000233428
0.000393613
-0.000292375
0.000365057
-0.000346259
0.000329482
-0.000394534
0.000287755
-0.000436714
0.000240212
-0.000472276
0.000186911
-0.000500537
0.000127635
-0.000520515
6.19442e-05
-0.000530907
-1.0907e-05
-0.000529313
-9.24614e-05
-0.00051276
-0.000182644
-0.000477297
-0.000281478
-0.000418357
-0.000387019
-0.00033202
-0.000493131
-0.000218464
-0.000583149
-9.17465e-05
-0.000606732
-0.000408573
-4.50989e-05
0.000291951
-0.000117136
0.000467417
-0.000191334
0.000485452
-0.000261968
0.000464247
-0.000327637
0.000430726
-0.000387749
0.000389593
-0.000441959
0.000341965
-0.000490028
0.000288281
-0.000531695
0.000228578
-0.000566527
0.000162467
-0.0005937
8.91166e-05
-0.00061212
7.5138e-06
-0.000618937
-8.56451e-05
-0.000610414
-0.000191167
-0.0005808
-0.000311092
-0.000522414
-0.000445406
-0.000426834
-0.000588711
-0.000289812
-0.00072017
-0.000127672
-0.000768873
-0.000536244
-5.13169e-05
0.000343268
-0.000132998
0.000549098
-0.000216462
0.000568916
-0.000295354
0.000543138
-0.00036835
0.000503722
-0.000435089
0.000456332
-0.000495537
0.000402412
-0.000549824
0.000342569
-0.000598111
0.000276866
-0.000640432
0.000204788
-0.000676465
0.00012515
-0.000705064
3.61128e-05
-0.000724343
-6.63667e-05
-0.000729514
-0.000185996
-0.000713051
-0.000327554
-0.00066314
-0.000495316
-0.000564006
-0.000687845
-0.000401923
-0.000882254
-0.000191629
-0.000979167
-0.000727873
-5.91116e-05
0.00040238
-0.000152365
0.000642351
-0.000246472
0.000663024
-0.000334444
0.000631109
-0.000415172
0.000584451
-0.000488654
0.000529813
-0.000555289
0.000469048
-0.000615717
0.000402997
-0.000670691
0.00033184
-0.000720943
0.00025504
-0.000766965
0.000171172
-0.000808542
7.7689e-05
-0.000844758
-3.01506e-05
-0.000871372
-0.000159381
-0.000879786
-0.00031914
-0.000853735
-0.000521368
-0.000766819
-0.00077476
-0.000588274
-0.0010608
-0.000318497
-0.00124894
-0.00104637
-6.93266e-05
0.000471706
-0.000176586
0.000749611
-0.000282784
0.000769221
-0.000380493
0.000728819
-0.000469052
0.00067301
-0.000548979
0.00060974
-0.000621256
0.000541324
-0.000687162
0.000468903
-0.000748194
0.000392872
-0.000806016
0.000312862
-0.000862363
0.000227519
-0.00091868
0.000134006
-0.000976721
2.78906e-05
-0.00103408
-0.000102021
-0.00108447
-0.000268754
-0.00110955
-0.000496288
-0.00107084
-0.000813468
-0.000909177
-0.00122246
-0.000577051
-0.00158107
-0.00162342
-8.36238e-05
0.00055533
-0.000208135
0.000874122
-0.000327642
0.000888729
-0.000435314
0.000836491
-0.000531324
0.00076902
-0.000616855
0.000695271
-0.000693594
0.000618063
-0.000763559
0.000538868
-0.000829081
0.000458394
-0.000892939
0.00037672
-0.000958611
0.00029319
-0.00103034
0.000205733
-0.00111176
0.00010931
-0.00120784
-5.94283e-06
-0.00132167
-0.000154923
-0.0014402
-0.000377759
-0.00151851
-0.000735155
-0.00144594
-0.00129503
-0.00106243
-0.00196458
-0.00268585
-0.00010225
0.00065758
-0.000248473
0.00102034
-0.000383477
0.00102373
-0.000501584
0.000954598
-0.000604125
0.000871561
-0.000693547
0.000784693
-0.000772662
0.000697178
-0.000844276
0.000610483
-0.000911394
0.000525512
-0.000977569
0.000442895
-0.00104753
0.000363149
-0.00112821
0.000286412
-0.00123089
0.000211992
-0.00137125
0.000134421
-0.00156614
3.99619e-05
-0.00182277
-0.000121123
-0.00210814
-0.000449789
-0.00219286
-0.00121031
-0.00169986
-0.00245757
-0.00438571
-0.000158291
0.000815871
-0.00032023
0.00118228
-0.000459901
0.0011634
-0.000579861
0.00107456
-0.000684991
0.000976691
-0.000776691
0.000876393
-0.000856776
0.000777263
-0.000927597
0.000681304
-0.000992581
0.000590496
-0.00105605
0.000506365
-0.00112464
0.000431734
-0.00120727
0.000369047
-0.00131947
0.000324192
-0.00148577
0.000300716
-0.00174187
0.000296065
-0.0021126
0.00024961
-0.00255804
-4.3484e-06
-0.00272855
-0.00103981
-0.0019929
-0.00319322
-0.00637861
-0.000125502
0.000941373
-0.000357902
0.00141468
-0.000542688
0.00134819
-0.000687282
0.00121915
-0.000798498
0.00108791
-0.000883466
0.000961361
-0.000949688
0.000843484
-0.00100327
0.000734888
-0.0010492
0.000636429
-0.00109061
0.000547766
-0.00113298
0.000474106
-0.00118283
0.0004189
-0.00125601
0.000397372
-0.00137844
0.000423141
-0.00159953
0.000517157
-0.0019282
0.000578288
-0.00238895
0.000456394
-0.00248736
-0.000941395
-0.00158246
-0.00409812
-0.00796107
-0.0004061
0.00134747
-0.00055563
0.00156421
-0.000682411
0.00147497
-0.000791345
0.00132809
-0.000855083
0.00115164
-0.000886172
0.00099245
-0.000895989
0.000853301
-0.000891621
0.000730519
-0.00088046
0.000625268
-0.000864254
0.00053156
-0.000850819
0.000460672
-0.000838186
0.000406267
-0.000835045
0.00039423
-0.00083255
0.000420646
-0.000841576
0.000526184
-0.000837482
0.000574193
-0.000784757
0.000403669
-0.000785927
-0.000940225
-0.000325961
-0.00455809
-0.00828704
-0.0012788
0.00262627
-0.0011993
0.00148471
-0.000956914
0.00123259
-0.00062709
0.000998261
-0.000288098
0.000812653
3.47904e-05
0.000669562
0.000328705
0.000559386
0.000592104
0.00046712
0.000823175
0.000394197
0.00102624
0.000328499
0.00120814
0.000278767
0.00137119
0.000243218
0.0015525
0.000212924
0.00175178
0.00022136
0.00208015
0.000197817
0.00248423
0.000170115
0.00295844
-7.05482e-05
0.00303348
-0.00101526
0.00196692
-0.00349152
-0.00632012
0.00262627
0.00411098
0.00534357
0.00634183
0.00715449
0.00782405
0.00838343
0.00885056
0.00924475
0.00957325
0.00985202
0.0100952
0.0103082
0.0105295
0.0107273
0.0108975
0.0108269
0.00981164
0.00632012
)
;

boundaryField
{
    movingWall
    {
        type            calculated;
        value           uniform 0;
    }
    fixedWalls
    {
        type            calculated;
        value           uniform 0;
    }
    frontAndBack
    {
        type            empty;
        value           nonuniform List<scalar> 0();
    }
}


// ************************************************************************* //
