/*--------------------------------*- C++ -*----------------------------------*\
  =========                 |
  \\      /  F ield         | OpenFOAM: The Open Source CFD Toolbox
   \\    /   O peration     | Website:  https://openfoam.org
    \\  /    A nd           | Version:  10
     \\/     M anipulation  |
\*---------------------------------------------------------------------------*/
FoamFile
{
    format      ascii;
    class       volVectorField;
    location    "0.375";
    object      U;
}
// * * * * * * * * * * * * * * * * * * * * * * * * * * * * * * * * * * * * * //

dimensions      [0 1 -1 0 0 0 0];

internalField   nonuniform List<vector> 
496
(
(9.94437 0.0620683 0)
(9.98851 -0.157175 0)
(10.1955 -0.132752 0)
(10.7891 -0.202136 0)
(10.0185 0.421972 0)
(9.87932 -1.15398 0)
(10.2355 -0.394401 0)
(10.8877 -1.05831 0)
(10.8123 1.27671 0)
(9.12822 -2.81803 0)
(11.2241 -0.220778 0)
(10.7911 -3.90567 0)
(11.9368 1.47501 0)
(8.1919 -2.57017 0)
(12.6744 0.657527 0)
(10.2257 -6.48851 0)
(11.386 -0.216884 3.42892e-19)
(12.1054 -0.155665 2.08326e-18)
(11.596 -0.462095 -3.365e-18)
(12.4691 0.24537 4.60604e-18)
(13.0316 -2.06056 3.02251e-18)
(13.1881 -0.239373 -6.69114e-18)
(13.0161 -5.50181 -4.73792e-17)
(15.7153 -4.29817 7.61201e-17)
(12.5543 -0.148732 0)
(12.7958 -0.103545 0)
(12.8106 0.0169694 0)
(12.7456 0.177748 0)
(12.9601 0.224012 0)
(13.3438 -0.110533 0)
(13.4972 -0.4469 0)
(13.5298 -0.669912 0)
(12.5635 1.00808 0)
(12.6098 1.53529 0)
(12.7491 1.40923 0)
(12.976 1.31407 0)
(10.8008 -2.88632 0)
(10.3321 -1.81725 0)
(9.19106 -1.92894 0)
(9.93372 -1.36347 0)
(12.62 0.344549 0)
(12.5449 0.504228 0)
(12.4476 0.620472 0)
(12.3868 0.725056 0)
(12.2644 0.77734 0)
(12.1508 0.794646 0)
(11.968 0.80413 0)
(11.8093 0.826482 0)
(11.6159 0.858169 0)
(11.444 0.88375 0)
(11.2144 0.905974 0)
(10.9617 0.91915 0)
(10.707 0.941702 0)
(10.4695 0.966809 0)
(10.2866 0.99579 0)
(10.1249 1.0135 0)
(9.9864 1.02479 0)
(9.79312 1.04381 0)
(9.60745 1.06832 0)
(9.46052 1.10091 0)
(9.35389 1.12455 0)
(9.24784 1.14148 0)
(9.11966 1.14604 0)
(8.99864 1.12532 0)
(8.89788 1.07933 0)
(8.82295 1.00696 0)
(8.77675 0.913554 0)
(8.74781 0.804418 0)
(8.73715 0.684828 0)
(8.73729 0.563273 0)
(8.74049 0.442841 0)
(8.746 0.332527 0)
(8.75196 0.235697 0)
(8.76145 0.158562 0)
(8.77327 0.0958867 0)
(8.7914 0.0535132 0)
(8.80635 0.0203945 0)
(8.83058 0.00282672 0)
(8.84166 -0.0106754 0)
(8.86861 -0.0160883 0)
(13.4395 -0.781367 0)
(13.3593 -0.779186 0)
(13.2421 -0.737188 0)
(13.15 -0.668478 0)
(12.9859 -0.605984 0)
(12.8698 -0.563934 0)
(12.7378 -0.540363 0)
(12.6281 -0.52083 0)
(12.4829 -0.50652 0)
(12.3257 -0.518277 0)
(12.1341 -0.546187 0)
(11.9151 -0.583525 0)
(11.7147 -0.609879 0)
(11.5167 -0.632096 0)
(11.3624 -0.650198 0)
(11.2302 -0.680744 0)
(11.1321 -0.728358 0)
(11.0073 -0.769908 0)
(10.8746 -0.799636 0)
(10.7632 -0.817473 0)
(10.6823 -0.836488 0)
(10.6215 -0.850527 0)
(10.5576 -0.856361 0)
(10.5 -0.862601 0)
(10.4561 -0.864859 0)
(10.4153 -0.856077 0)
(10.3747 -0.824434 0)
(10.3269 -0.763965 0)
(10.2767 -0.67668 0)
(10.225 -0.570676 0)
(10.1741 -0.457936 0)
(10.1317 -0.35239 0)
(10.1002 -0.259771 0)
(10.0827 -0.18705 0)
(10.0753 -0.132111 0)
(10.0852 -0.0914386 0)
(10.0934 -0.061935 0)
(10.1216 -0.038829 0)
(10.1309 -0.025898 0)
(10.1679 -0.00930702 0)
(13.1171 1.1571 0)
(13.239 1.04811 0)
(13.2494 1.02615 0)
(13.2593 1.06375 0)
(13.1944 1.14947 0)
(13.1488 1.25849 0)
(13.0786 1.36307 0)
(13.0433 1.44445 0)
(12.9672 1.48616 0)
(12.8678 1.49157 0)
(12.7502 1.47662 0)
(12.6087 1.45785 0)
(12.4832 1.44115 0)
(12.3432 1.42215 0)
(12.2287 1.39943 0)
(12.1076 1.37149 0)
(11.9987 1.32481 0)
(11.8648 1.27401 0)
(11.7081 1.23475 0)
(11.5541 1.20678 0)
(11.4175 1.17946 0)
(11.3026 1.14542 0)
(11.1836 1.11271 0)
(11.0583 1.08102 0)
(10.932 1.04495 0)
(10.7956 0.99829 0)
(10.6543 0.935079 0)
(10.5097 0.856445 0)
(10.3744 0.758584 0)
(10.262 0.647263 0)
(10.1732 0.526838 0)
(10.1143 0.408131 0)
(10.0783 0.290563 0)
(10.0664 0.190856 0)
(10.0678 0.0991635 0)
(10.0897 0.0369797 0)
(10.1057 -0.0202153 0)
(10.1391 -0.0421686 0)
(10.1526 -0.0671579 0)
(10.1897 -0.0619438 0)
(9.50292 -1.47789 0)
(9.60686 -1.32314 0)
(9.69017 -1.21867 0)
(9.75482 -1.12312 0)
(9.7464 -1.00802 0)
(9.80937 -0.855093 0)
(9.89686 -0.696054 0)
(10.0407 -0.564004 0)
(10.1698 -0.477706 0)
(10.2932 -0.418638 0)
(10.4191 -0.377588 0)
(10.5246 -0.34071 0)
(10.646 -0.311373 0)
(10.7504 -0.291714 0)
(10.8767 -0.281483 0)
(10.9931 -0.28097 0)
(11.1133 -0.29402 0)
(11.2164 -0.316017 0)
(11.2998 -0.331652 0)
(11.3755 -0.337815 0)
(11.4424 -0.343985 0)
(11.5041 -0.358003 0)
(11.5503 -0.372342 0)
(11.578 -0.378932 0)
(11.602 -0.37707 0)
(11.6203 -0.367634 0)
(11.643 -0.35245 0)
(11.6612 -0.331041 0)
(11.6783 -0.306406 0)
(11.6823 -0.279838 0)
(11.6804 -0.252566 0)
(11.6445 -0.223874 0)
(11.604 -0.195941 0)
(11.5098 -0.165076 0)
(11.4256 -0.13577 0)
(11.2684 -0.106028 0)
(11.166 -0.0843642 0)
(10.9712 -0.0606382 0)
(10.9001 -0.0494914 0)
(10.6934 -0.0298762 0)
(12.3607 0.620174 -8.41422e-18)
(7.85015 -0.844973 -1.5102e-17)
(11.6146 0.0493857 2.57387e-17)
(4.76893 -4.66669 -7.33716e-17)
(12.3693 -0.614602 8.40125e-18)
(7.8438 0.850209 1.50784e-17)
(11.632 -0.0291441 -2.56987e-17)
(4.76804 4.68154 7.32332e-17)
(-7.96904 2.61189 0)
(8.69416 5.37781 0)
(-4.0006 2.60091 0)
(5.27213 3.17077 0)
(-7.61024 -2.67503 3.66824e-17)
(8.30816 -5.85791 0)
(-4.65369 -2.42947 0)
(5.51146 -2.86724 0)
(-0.143514 1.21159 0)
(2.12438 1.39926 0)
(1.65927 1.32236 0)
(1.57527 1.2745 0)
(1.69894 1.3321 0)
(1.90303 1.36768 0)
(2.11595 1.32859 0)
(2.44441 1.24671 0)
(2.76076 1.16452 0)
(3.21623 1.09611 0)
(3.58259 1.04089 0)
(4.01835 0.998113 0)
(4.36776 0.954448 0)
(4.74774 0.924009 0)
(5.12303 0.900046 0)
(5.47832 0.87818 0)
(5.85381 0.856714 0)
(6.17184 0.833822 0)
(6.48383 0.821068 0)
(6.76854 0.811677 0)
(7.04981 0.800972 0)
(7.33589 0.787911 0)
(7.60293 0.77232 0)
(7.85667 0.755638 0)
(8.09976 0.733747 0)
(8.32925 0.703616 0)
(8.55072 0.665939 0)
(8.75244 0.620239 0)
(8.93255 0.571255 0)
(9.09566 0.518351 0)
(9.23573 0.468939 0)
(9.36298 0.418006 0)
(9.47161 0.376756 0)
(9.57877 0.330325 0)
(9.66569 0.298266 0)
(9.76858 0.253063 0)
(9.83629 0.231433 0)
(9.93889 0.184317 0)
(9.97883 0.173192 0)
(10.0807 0.122922 0)
(-0.127168 -1.22845 0)
(2.15352 -1.41351 0)
(1.67 -1.32102 0)
(1.57624 -1.27116 0)
(1.69721 -1.3289 0)
(1.90034 -1.3641 0)
(2.11378 -1.32501 0)
(2.44299 -1.24357 0)
(2.7601 -1.1622 0)
(3.21588 -1.09435 0)
(3.58227 -1.0397 0)
(4.01787 -0.997572 0)
(4.36734 -0.954592 0)
(4.74755 -0.924528 0)
(5.1229 -0.900416 0)
(5.4783 -0.878041 0)
(5.85358 -0.855788 0)
(6.17167 -0.832417 0)
(6.48387 -0.819485 0)
(6.76911 -0.810273 0)
(7.05111 -0.799936 0)
(7.33789 -0.787275 0)
(7.60554 -0.772164 0)
(7.8597 -0.755867 0)
(8.10303 -0.734369 0)
(8.33252 -0.704475 0)
(8.55366 -0.666832 0)
(8.7549 -0.621132 0)
(8.93434 -0.572122 0)
(9.09681 -0.519309 0)
(9.23633 -0.469947 0)
(9.36323 -0.418939 0)
(9.47149 -0.377294 0)
(9.57833 -0.330364 0)
(9.66482 -0.297928 0)
(9.76758 -0.252694 0)
(9.83513 -0.23097 0)
(9.93791 -0.183897 0)
(9.97785 -0.172656 0)
(10.08 -0.122331 0)
(11.9383 -1.47936 0)
(8.19434 2.58583 0)
(12.6823 -0.664408 0)
(10.2416 6.51993 0)
(10.8133 -1.28041 0)
(9.12843 2.8323 0)
(11.2312 0.220729 0)
(10.7988 3.92285 0)
(10.0185 -0.424423 0)
(9.87889 1.16115 0)
(10.2375 0.39333 0)
(10.8908 1.06081 0)
(9.94428 -0.0621545 0)
(9.9881 0.157708 0)
(10.1967 0.133178 0)
(10.7921 0.201243 0)
(13.0348 5.50224 4.8101e-17)
(15.7492 4.31323 -7.70657e-17)
(13.0494 2.06193 0)
(13.1959 0.227537 0)
(11.6007 0.456604 0)
(12.4715 -0.256519 0)
(11.3894 0.21723 0)
(12.1076 0.154032 0)
(10.8217 2.84662 0)
(10.41 1.89806 0)
(9.1185 1.99499 0)
(9.85039 1.3183 0)
(12.5575 -1.03622 0)
(12.5874 -1.59822 0)
(12.7186 -1.4367 0)
(12.964 -1.30926 0)
(12.9582 -0.236806 0)
(13.338 0.1079 0)
(13.487 0.460113 0)
(13.5167 0.686022 0)
(12.5523 0.148341 0)
(12.7867 0.102888 0)
(12.7957 -0.0194704 0)
(12.7296 -0.181657 0)
(9.48041 1.46676 0)
(9.60351 1.32699 0)
(9.68271 1.22703 0)
(9.74111 1.13205 0)
(9.73007 1.01431 0)
(9.79482 0.859106 0)
(9.88573 0.698694 0)
(10.0325 0.565894 0)
(10.1639 0.479117 0)
(10.2892 0.419455 0)
(10.4167 0.378039 0)
(10.5231 0.341038 0)
(10.6449 0.311752 0)
(10.7496 0.291979 0)
(10.8759 0.281746 0)
(10.9923 0.281405 0)
(11.1121 0.294725 0)
(11.2147 0.316826 0)
(11.2979 0.332309 0)
(11.3737 0.338183 0)
(11.441 0.343933 0)
(11.5034 0.357484 0)
(11.5503 0.371374 0)
(11.5788 0.377688 0)
(11.6032 0.375756 0)
(11.622 0.366494 0)
(11.6449 0.351717 0)
(11.663 0.330826 0)
(11.6799 0.306563 0)
(11.6836 0.280062 0)
(11.6815 0.252758 0)
(11.6455 0.22412 0)
(11.6049 0.196455 0)
(11.5103 0.165686 0)
(11.4251 0.136464 0)
(11.2673 0.106617 0)
(11.1643 0.084818 0)
(10.9696 0.0609496 0)
(10.8983 0.0497624 0)
(10.692 0.0301501 0)
(13.1151 -1.14534 0)
(13.2385 -1.04165 0)
(13.2474 -1.02408 0)
(13.2554 -1.06298 0)
(13.1908 -1.14894 0)
(13.1468 -1.25801 0)
(13.0778 -1.36291 0)
(13.043 -1.44477 0)
(12.9668 -1.48688 0)
(12.8671 -1.49267 0)
(12.7494 -1.4779 0)
(12.6076 -1.45901 0)
(12.4816 -1.44196 0)
(12.3411 -1.42261 0)
(12.2267 -1.39941 0)
(12.1058 -1.37094 0)
(11.9972 -1.32378 0)
(11.8635 -1.27278 0)
(11.7071 -1.23355 0)
(11.5535 -1.20578 0)
(11.417 -1.17887 0)
(11.3021 -1.14543 0)
(11.1829 -1.11348 0)
(11.0574 -1.0825 0)
(10.9306 -1.04686 0)
(10.7936 -1.00018 0)
(10.6516 -0.936585 0)
(10.5061 -0.857403 0)
(10.3699 -0.75914 0)
(10.2572 -0.647698 0)
(10.1687 -0.52712 0)
(10.1109 -0.408089 0)
(10.0758 -0.290061 0)
(10.0643 -0.190082 0)
(10.0658 -0.0981837 0)
(10.0879 -0.0360357 0)
(10.104 0.0210362 0)
(10.1378 0.0427776 0)
(10.1516 0.0676468 0)
(10.1889 0.062265 0)
(13.4266 0.792536 0)
(13.35 0.784976 0)
(13.2366 0.740116 0)
(13.1471 0.670888 0)
(12.9835 0.608754 0)
(12.8678 0.566418 0)
(12.7363 0.542113 0)
(12.627 0.521922 0)
(12.4816 0.50716 0)
(12.3244 0.518702 0)
(12.1329 0.546606 0)
(11.9139 0.584071 0)
(11.7132 0.610555 0)
(11.5151 0.632852 0)
(11.3611 0.650967 0)
(11.2294 0.681367 0)
(11.1316 0.728685 0)
(11.0068 0.769886 0)
(10.8743 0.799396 0)
(10.7631 0.817108 0)
(10.6823 0.836166 0)
(10.6215 0.85033 0)
(10.5574 0.856335 0)
(10.5 0.862685 0)
(10.4562 0.86506 0)
(10.4157 0.856614 0)
(10.3747 0.825321 0)
(10.3262 0.764821 0)
(10.2747 0.677087 0)
(10.2223 0.570612 0)
(10.1715 0.457609 0)
(10.1299 0.352013 0)
(10.0989 0.2595 0)
(10.0815 0.187002 0)
(10.0737 0.132181 0)
(10.0834 0.0915365 0)
(10.0916 0.0620709 0)
(10.1202 0.0389637 0)
(10.1298 0.0260358 0)
(10.1672 0.00943083 0)
(12.6069 -0.348191 0)
(12.5367 -0.506843 0)
(12.4432 -0.622115 0)
(12.3846 -0.726333 0)
(12.2628 -0.778301 0)
(12.1493 -0.795349 0)
(11.9668 -0.804758 0)
(11.8084 -0.82708 0)
(11.6148 -0.858797 0)
(11.4428 -0.884417 0)
(11.2134 -0.906648 0)
(10.9607 -0.919838 0)
(10.7057 -0.942307 0)
(10.4681 -0.967257 0)
(10.2856 -0.995962 0)
(10.1243 -1.01346 0)
(9.98599 -1.02458 0)
(9.79285 -1.04341 0)
(9.6076 -1.06777 0)
(9.46082 -1.10042 0)
(9.35419 -1.12428 0)
(9.24767 -1.14164 0)
(9.11889 -1.14664 0)
(8.99744 -1.12642 0)
(8.89683 -1.0808 0)
(8.82244 -1.00837 0)
(8.77609 -0.914539 0)
(8.74622 -0.804978 0)
(8.7344 -0.685122 0)
(8.7342 -0.563272 0)
(8.73797 -0.442598 0)
(8.74459 -0.332109 0)
(8.7512 -0.235181 0)
(8.76072 -0.15807 0)
(8.77213 -0.0955017 0)
(8.79008 -0.0532303 0)
(8.80508 -0.0202024 0)
(8.82967 -0.00270298 0)
(8.841 0.0107518 0)
(8.86825 0.0161025 0)
)
;

boundaryField
{
    inlet
    {
        type            fixedValue;
        value           uniform (10 0 0);
    }
    outlet
    {
        type            zeroGradient;
    }
    obstacle
    {
        type            noSlip;
    }
    upperWall
    {
        type            noSlip;
    }
    lowerWall
    {
        type            noSlip;
    }
    frontAndBack
    {
        type            empty;
    }
}


// ************************************************************************* //
