/*--------------------------------*- C++ -*----------------------------------*\
  =========                 |
  \\      /  F ield         | OpenFOAM: The Open Source CFD Toolbox
   \\    /   O peration     | Website:  https://openfoam.org
    \\  /    A nd           | Version:  10
     \\/     M anipulation  |
\*---------------------------------------------------------------------------*/
FoamFile
{
    format      ascii;
    class       volScalarField;
    location    "8.7";
    object      p;
}
// * * * * * * * * * * * * * * * * * * * * * * * * * * * * * * * * * * * * * //

dimensions      [0 2 -2 0 0 0 0];

internalField   nonuniform List<scalar> 
8000
(
4.2485e-07
-3.7897e-06
5.07014e-05
0.000149257
0.000299037
0.000502712
0.000763452
0.00108453
0.00146844
0.00191585
0.00242423
0.00298612
0.00358709
0.004204
0.00480427
0.00534746
0.00578991
0.00609516
0.00626286
0.00624456
4.24745e-06
-3.47486e-07
5.69361e-05
0.000155768
0.000304209
0.000505211
0.000762199
0.00107865
0.00145728
0.00189909
0.0024021
0.00295957
0.00355772
0.00417348
0.00477451
0.00532151
0.00576754
0.00607367
0.00624199
0.00620773
-7.40521e-05
-8.28329e-05
-2.78834e-05
6.65179e-05
0.000208967
0.000402532
0.000651073
0.000958786
0.00132946
0.00176557
0.00226696
0.00282895
0.00343997
0.00407908
0.00471266
0.00529562
0.00577392
0.00609808
0.006271
0.00621047
-0.000220471
-0.000232269
-0.00018131
-9.40505e-05
3.86791e-05
0.000220191
0.000454982
0.000748289
0.00110548
0.00153134
0.00202871
0.00259653
0.00322682
0.00390078
0.00458425
0.00522614
0.00576197
0.0061212
0.00630611
0.00620322
-0.000442498
-0.000457281
-0.000412521
-0.000335629
-0.000216927
-5.28318e-05
0.000161837
0.000433491
0.000769379
0.00117714
0.00166372
0.00223321
0.0028835
0.00360094
0.00435343
0.00508263
0.00570795
0.00612637
0.00633547
0.00616574
-0.000740034
-0.000758084
-0.000721753
-0.00065872
-0.000559002
-0.000418922
-0.000232815
6.69763e-06
0.000308607
0.000683474
0.00114285
0.00169758
0.00235395
0.00310785
0.00393501
0.00477689
0.00553283
0.00604902
0.00631015
0.00603906
-0.00111045
-0.00113225
-0.00110658
-0.00106116
-0.000986062
-0.00087791
-0.000731174
-0.000538236
-0.000289162
2.87029e-05
0.000430949
0.000935535
0.0015603
0.00231612
0.00319552
0.00415222
0.00507129
0.00575148
0.0061283
0.0057364
-0.0015494
-0.00157549
-0.00156253
-0.00153848
-0.00149392
-0.00142649
-0.00133178
-0.00120336
-0.00103228
-0.000806141
-0.000508024
-0.000115929
0.000397251
0.00106066
0.00189449
0.00289253
0.00398109
0.00492278
0.00557159
0.0051503
-0.00205106
-0.00208188
-0.00208306
-0.00208341
-0.00207468
-0.00205652
-0.00202704
-0.00198292
-0.00191915
-0.00182803
-0.00169793
-0.0015112
-0.00124198
-0.000853259
-0.00029677
0.000486599
0.00156006
0.00285885
0.00411753
0.0041358
-0.00260869
-0.00264431
-0.00265968
-0.00268569
-0.00271605
-0.00275357
-0.00280052
-0.0028592
-0.0029322
-0.00302243
-0.00313287
-0.00326631
-0.00342463
-0.00359781
-0.00373775
-0.00368753
-0.00299337
-0.00125403
0.00125011
0.00252361
-0.00321555
-0.00325537
-0.00328262
-0.00333252
-0.00340124
-0.00349628
-0.00362555
-0.00379917
-0.0040312
-0.00434146
-0.00475826
-0.00532188
-0.00609189
-0.00711607
-0.0083583
-0.0094881
-0.00943718
-0.00679345
-0.00238049
0.000212205
-0.00386656
-0.00390878
-0.00394155
-0.00400868
-0.00410906
-0.00425634
-0.00446477
-0.00475344
-0.00514997
-0.00569514
-0.00644941
-0.00749783
-0.0089725
-0.0109483
-0.0133296
-0.0153521
-0.0151642
-0.01075
-0.0051282
-0.00154209
-0.0045629
-0.00460352
-0.00463038
-0.00470172
-0.00481927
-0.0050041
-0.00527656
-0.00566371
-0.00620524
-0.00696194
-0.00802226
-0.00949045
-0.01156
-0.0142565
-0.0173063
-0.0195328
-0.0190332
-0.0135283
-0.00821349
-0.00271306
-0.00531291
-0.00533893
-0.00533694
-0.00538844
-0.00550025
-0.00569983
-0.00601043
-0.00646417
-0.00710446
-0.00801212
-0.00928394
-0.0110558
-0.0135077
-0.0166162
-0.020026
-0.0226588
-0.023378
-0.0188382
-0.0133954
-0.00447517
-0.00614641
-0.00615272
-0.00609924
-0.00610669
-0.00617882
-0.0063534
-0.00665864
-0.00712437
-0.00781153
-0.0087853
-0.0101569
-0.0120521
-0.0146615
-0.0179464
-0.0217092
-0.0250906
-0.0282205
-0.0246197
-0.0186206
-0.00598008
-0.00724573
-0.00702167
-0.00682427
-0.00669152
-0.00668338
-0.00681673
-0.00710773
-0.00756712
-0.00825975
-0.00923227
-0.0105975
-0.0124605
-0.0149934
-0.0181576
-0.0219087
-0.0252728
-0.0288705
-0.0250081
-0.0194147
-0.00301801
-0.00812777
-0.00821355
-0.00785975
-0.00768601
-0.00753364
-0.00751969
-0.00767063
-0.00801119
-0.00860109
-0.00947408
-0.0107335
-0.0124462
-0.0147534
-0.017515
-0.0208194
-0.0233228
-0.0259312
-0.0205834
-0.015045
0.00817241
-0.0120229
-0.00916834
-0.00846628
-0.00768588
-0.00737296
-0.00731534
-0.00749365
-0.00786132
-0.0084587
-0.00929632
-0.0104832
-0.0120285
-0.0140802
-0.0163455
-0.0189574
-0.0202687
-0.0214581
-0.0136223
-0.00527381
0.0317142
-0.0115527
-0.0124321
-0.0108761
-0.0102857
-0.00946073
-0.00892382
-0.00865536
-0.00865685
-0.00897641
-0.00958856
-0.0106084
-0.0119736
-0.013928
-0.0160167
-0.0185482
-0.0191668
-0.0186562
-0.00604222
0.0115931
0.075126
-0.0363051
-0.0108536
-0.00908671
-0.0075162
-0.0066727
-0.00648328
-0.00668867
-0.00706273
-0.00770005
-0.00850731
-0.00973035
-0.0111233
-0.0130188
-0.014522
-0.0157645
-0.0129881
-0.00529896
0.0222273
0.0692965
0.17546
7.78523e-06
-9.90817e-06
4.17853e-05
0.000138805
0.000288441
0.000492608
0.000754275
0.00107683
0.00146302
0.00191384
0.0024272
0.00299602
0.00360619
0.00423447
0.00484762
0.0054031
0.00585389
0.00615959
0.00632119
0.00627915
2.34947e-05
6.51353e-06
6.36408e-05
0.000162155
0.00031077
0.000511956
0.000769048
0.00108558
0.0014644
0.00190672
0.00241089
0.00297064
0.00357257
0.00419342
0.00480303
0.00535761
0.00580865
0.00611386
0.00627797
0.00622011
-4.98491e-05
-7.34668e-05
-1.83882e-05
7.57932e-05
0.000218464
0.000412175
0.000660685
0.00096824
0.00133874
0.00177492
0.00227706
0.00284106
0.00345599
0.00410155
0.00474439
0.00533701
0.00582192
0.00614484
0.00631194
0.00622131
-0.000192546
-0.000220617
-0.000169315
-8.21695e-05
5.08847e-05
0.000232617
0.000467421
0.000760575
0.00111756
0.00154342
0.00204154
0.00261168
0.00324678
0.00392893
0.00462367
0.00528012
0.00582579
0.00618384
0.00636025
0.00621703
-0.000412737
-0.000444713
-0.000399551
-0.000322701
-0.000203509
-3.89487e-05
0.000176064
0.000447993
0.000784213
0.00119267
0.00168094
0.00225421
0.0029118
0.00364105
0.00440913
0.00516026
0.00580234
0.00622148
0.00641824
0.00618917
-0.00070957
-0.000745487
-0.000708768
-0.000645701
-0.000545271
-0.000404354
-0.000217361
2.31645e-05
0.000326375
0.000703189
0.00116589
0.0017267
0.00239408
0.00316551
0.0040142
0.00489159
0.00568017
0.00620887
0.00645618
0.00608357
-0.00107985
-0.00112015
-0.00109415
-0.00104866
-0.00097264
-0.00086326
-0.000715018
-0.000520169
-0.000268584
5.28069e-05
0.000460425
0.000973852
0.00161388
0.00239551
0.00331534
0.00432014
0.00530732
0.00603857
0.00641866
0.00583473
-0.00151901
-0.00156434
-0.00155122
-0.00152713
-0.00148154
-0.00141258
-0.00131581
-0.00118461
-0.0010098
-0.000778528
-0.000473151
-7.01889e-05
0.000460465
0.00115361
0.00203703
0.00311098
0.00432368
0.00544759
0.00618317
0.00541908
-0.00202113
-0.00207216
-0.00207346
-0.00207397
-0.0020643
-0.00204448
-0.00201257
-0.00196503
-0.00189659
-0.00179931
-0.00166124
-0.00146451
-0.00118329
-0.000781032
-0.000200503
0.000670235
0.00201831
0.00388913
0.00544347
0.00493705
-0.00257929
-0.0026365
-0.00265242
-0.002679
-0.00270872
-0.00274474
-0.00278921
-0.00284417
-0.00291215
-0.00299629
-0.00310092
-0.00323298
-0.00340609
-0.00363539
-0.00388597
-0.00388412
-0.00270209
0.00028213
0.00327024
0.00435672
-0.00318649
-0.00325004
-0.00327842
-0.00332952
-0.00339817
-0.00349214
-0.00361918
-0.00378927
-0.00401662
-0.00432244
-0.00473948
-0.0053208
-0.00615986
-0.00738471
-0.00899942
-0.0105469
-0.0100996
-0.00608542
-0.00124228
0.00252779
-0.00383732
-0.00390601
-0.00394032
-0.00400927
-0.00411044
-0.00425735
-0.00446409
-0.00474967
-0.00514228
-0.00568547
-0.00644904
-0.00754425
-0.00915935
-0.0115296
-0.0146272
-0.0177044
-0.0183316
-0.0134047
-0.00713508
-0.000705076
-0.00453217
-0.00460435
-0.00463393
-0.00470826
-0.00482745
-0.00501216
-0.00528281
-0.00566674
-0.00620449
-0.00695914
-0.00803158
-0.00957079
-0.0118396
-0.0150747
-0.0192378
-0.0233465
-0.025288
-0.0201838
-0.0138495
-0.00508707
-0.00527321
-0.00533686
-0.00533615
-0.00539126
-0.0055067
-0.00570817
-0.00601818
-0.00646858
-0.00710774
-0.00800917
-0.00929146
-0.0111039
-0.0137664
-0.0174723
-0.0222951
-0.0271906
-0.0310865
-0.0269893
-0.0215382
-0.0102954
-0.00609109
-0.00615644
-0.00610593
-0.00612127
-0.00619689
-0.00637179
-0.00667327
-0.00713604
-0.00781228
-0.00877203
-0.0101526
-0.0120226
-0.0148251
-0.0186211
-0.0237077
-0.0289575
-0.0346266
-0.0312987
-0.0270482
-0.0133194
-0.00712878
-0.00696962
-0.00678232
-0.0066612
-0.0066669
-0.00680959
-0.00710152
-0.00756258
-0.00823952
-0.00918374
-0.0105269
-0.0123674
-0.0149988
-0.0184818
-0.0231145
-0.0277067
-0.0327229
-0.0292371
-0.0274832
-0.00942551
-0.00783695
-0.00814585
-0.00779704
-0.00767615
-0.00753669
-0.00752953
-0.00767519
-0.00800627
-0.0085718
-0.00939708
-0.0106138
-0.0122792
-0.0146018
-0.0175059
-0.0213064
-0.0245348
-0.0279976
-0.0238808
-0.0225785
0.00489209
-0.0115498
-0.0088654
-0.00819905
-0.00745224
-0.00721823
-0.0072221
-0.0074319
-0.00780698
-0.00838678
-0.00917793
-0.0103131
-0.0118002
-0.0138469
-0.0162246
-0.0192052
-0.0211396
-0.0227745
-0.0169423
-0.0101899
0.0327111
-0.00892483
-0.0114956
-0.0103014
-0.0100683
-0.00940974
-0.00896987
-0.00873605
-0.00872557
-0.00900364
-0.00954025
-0.0104778
-0.0117521
-0.0136964
-0.0158855
-0.0188789
-0.0203413
-0.0204983
-0.00880457
0.0117283
0.0833751
-0.0340933
-0.00899373
-0.00747675
-0.006466
-0.00598214
-0.00596185
-0.00627911
-0.00670293
-0.00736958
-0.00814725
-0.00934312
-0.0107013
-0.0126076
-0.0142714
-0.0157092
-0.0134472
-0.00553041
0.0242899
0.0830869
0.20593
2.62053e-05
2.13587e-06
5.26831e-05
0.000149352
0.000299821
0.000505732
0.000770138
0.00109673
0.00148869
0.00194754
0.00247171
0.00305462
0.00368226
0.00433091
0.0049654
0.00554017
0.00600352
0.00631065
0.00646399
0.0064006
5.06853e-05
2.65376e-05
8.37771e-05
0.00018233
0.000331684
0.000534155
0.000793238
0.00111278
0.00149604
0.00194476
0.0024579
0.00302976
0.00364715
0.00428722
0.00491696
0.00549039
0.00595384
0.00626026
0.00641639
0.00633675
-1.6719e-05
-4.90787e-05
6.41416e-06
0.000100659
0.000243995
0.000438824
0.000689118
0.000999497
0.00137437
0.00181717
0.00232898
0.00290656
0.00353976
0.00420857
0.00487737
0.00549512
0.0059971
0.00632152
0.00647643
0.00635478
-0.000154027
-0.00019189
-0.000139937
-5.26823e-05
8.10569e-05
0.000263914
0.000500553
0.00079671
0.0011585
0.00159187
0.00210138
0.0026881
0.00334611
0.00405812
0.0047901
0.00548362
0.00605623
0.00641733
0.00657259
0.00638058
-0.000370166
-0.000412689
-0.000366727
-0.00028969
-0.000169667
-3.73656e-06
0.000213531
0.00048916
0.000831332
0.00124917
0.0017519
0.00234686
0.00303553
0.00380641
0.00462853
0.00543686
0.00612463
0.00655209
0.00671112
0.00639705
-0.000663814
-0.000710891
-0.000673255
-0.000609887
-0.000508395
-0.000365709
-0.000175812
6.9439e-05
0.000380205
0.00076892
0.00125013
0.00183936
0.00254875
0.00337895
0.00430917
0.00527764
0.00614817
0.0067018
0.00687944
0.00634701
-0.00103131
-0.00108335
-0.00105635
-0.00101047
-0.000933193
-0.000821676
-0.000669894
-0.00046929
-0.000208529
0.000127338
0.00055767
0.00110658
0.00180134
0.00266344
0.00369152
0.00484869
0.00598844
0.00679136
0.00703816
0.00616145
-0.00146778
-0.0015255
-0.00151137
-0.00148693
-0.00144005
-0.00136881
-0.00126816
-0.00113059
-0.000945596
-0.00069825
-0.000367597
7.51898e-05
0.000668641
0.00145791
0.00248429
0.00377095
0.00525751
0.00655632
0.00701865
0.00583083
-0.00196706
-0.0020312
-0.00203161
-0.00203203
-0.00202135
-0.00199953
-0.00196397
-0.00191028
-0.001832
-0.00171941
-0.00155777
-0.00132502
-0.00098996
-0.000508243
0.000196956
0.00127703
0.00296475
0.00512541
0.00626245
0.00548445
-0.0025219
-0.00259304
-0.00260834
-0.00263536
-0.00266478
-0.00269962
-0.00274147
-0.0027917
-0.00285215
-0.00292545
-0.00301595
-0.00313331
-0.00330387
-0.00357227
-0.00390875
-0.00390658
-0.00255391
0.000867847
0.00378003
0.00501739
-0.00312476
-0.00320321
-0.00323145
-0.00328384
-0.00335335
-0.00344758
-0.00357383
-0.00374183
-0.00396617
-0.00426994
-0.00469188
-0.00530218
-0.00624175
-0.0077361
-0.00982842
-0.0117675
-0.0112974
-0.0064461
-0.00130369
0.00282304
-0.00376882
-0.00385354
-0.00388817
-0.00395951
-0.00406321
-0.00421242
-0.00442086
-0.00470781
-0.00510309
-0.00565527
-0.0064477
-0.00762679
-0.00946144
-0.012337
-0.0162474
-0.0201452
-0.0209103
-0.015413
-0.00887325
-0.00178529
-0.0044531
-0.00454368
-0.00457458
-0.00465287
-0.0047765
-0.00496552
-0.00524012
-0.00562829
-0.00617296
-0.00694395
-0.00805983
-0.00972325
-0.0122757
-0.016135
-0.0212882
-0.0263546
-0.0289014
-0.0240171
-0.0173446
-0.00798355
-0.00517452
-0.00525843
-0.00525911
-0.0053198
-0.00544249
-0.00565125
-0.00596797
-0.00642474
-0.00707212
-0.00798993
-0.00931405
-0.011264
-0.014195
-0.0184621
-0.0242373
-0.029896
-0.034236
-0.0304719
-0.0243838
-0.0135073
-0.00596384
-0.00605577
-0.00600653
-0.00603099
-0.0061163
-0.0063006
-0.00660975
-0.00707872
-0.00775913
-0.00872761
-0.0101218
-0.0121189
-0.0151108
-0.0192239
-0.0250522
-0.0304296
-0.0355833
-0.0319338
-0.0273352
-0.0151049
-0.00694299
-0.00681596
-0.00663026
-0.00652047
-0.00654104
-0.00669832
-0.00700168
-0.00747044
-0.0081479
-0.00909536
-0.0104472
-0.0123002
-0.015047
-0.0187093
-0.0236069
-0.0279366
-0.0318017
-0.0279366
-0.0256204
-0.00981771
-0.00752058
-0.00789129
-0.00755508
-0.00746681
-0.007351
-0.00736493
-0.00752481
-0.00786395
-0.00842455
-0.00924573
-0.0104358
-0.0120903
-0.0144482
-0.0174315
-0.0213117
-0.0242931
-0.0267602
-0.0223674
-0.0192146
0.00509123
-0.0112124
-0.00855315
-0.00783427
-0.00709018
-0.00689182
-0.00693572
-0.00717573
-0.00757065
-0.00815154
-0.00892627
-0.010025
-0.0114868
-0.0135173
-0.0159482
-0.0189331
-0.0207422
-0.0215056
-0.0154762
-0.00642967
0.0338567
-0.00785177
-0.0106871
-0.0096019
-0.00948328
-0.00890619
-0.00853908
-0.00835115
-0.00837319
-0.00865562
-0.00918044
-0.0100732
-0.0113218
-0.0132383
-0.0155204
-0.0185845
-0.0200825
-0.0199434
-0.00774718
0.0150479
0.0864881
-0.0333699
-0.00814035
-0.00660782
-0.00573173
-0.00536896
-0.00541779
-0.00576952
-0.00621927
-0.00688073
-0.00764843
-0.00879664
-0.0101444
-0.0120283
-0.0137863
-0.0152803
-0.0130216
-0.00431098
0.0267256
0.0891653
0.213632
4.77264e-05
1.99546e-05
6.99999e-05
0.00016684
0.000318669
0.000527044
0.00079518
0.00112712
0.00152652
0.00199546
0.00253294
0.0031328
0.00378105
0.00445327
0.00511215
0.00570864
0.00618622
0.00649617
0.00664258
0.00656213
7.7332e-05
4.90928e-05
0.000106542
0.000205522
0.000356181
0.000560797
0.000823083
0.00114725
0.00153702
0.00199473
0.00251998
0.00310759
0.00374425
0.00440753
0.00506156
0.00565701
0.00613493
0.00644375
0.00659234
0.00649567
1.42797e-05
-2.30372e-05
3.28563e-05
0.00012756
0.000272184
0.000469096
0.000722533
0.00103754
0.0014191
0.00187136
0.00239628
0.00299138
0.00364732
0.00434368
0.00504252
0.00568833
0.00620895
0.00653546
0.00667777
0.00653147
-0.000118734
-0.000162167
-0.000109645
-2.1873e-05
0.000113216
0.000298236
0.000538176
0.000839282
0.00120838
0.00165237
0.00217703
0.00278465
0.00347027
0.00421773
0.00498996
0.00572259
0.00632208
0.00668456
0.00681649
0.0065854
-0.000331349
-0.000379908
-0.000333259
-0.000255625
-0.000134096
3.42588e-05
0.000255266
0.000536574
0.000887252
0.00131767
0.00183875
0.0024598
0.00318413
0.00400149
0.00487939
0.00574461
0.00647337
0.00690186
0.00701662
0.00663743
-0.000622032
-0.000675547
-0.000637137
-0.000573078
-0.000469878
-0.000324423
-0.000130215
0.000121633
0.000442369
0.000846004
0.00134931
0.00197074
0.00272583
0.00361672
0.0046255
0.00567767
0.00661263
0.007167
0.00726025
0.0066197
-0.000986844
-0.00104573
-0.00101792
-0.000971301
-0.00089218
-0.000777635
-0.00062109
-0.000413142
-0.000141218
0.000211475
0.000667025
0.00125358
0.00200292
0.00293969
0.00407039
0.00534731
0.00658886
0.00739109
0.00748329
0.00644988
-0.00142068
-0.00148571
-0.0014708
-0.00144572
-0.00139707
-0.00132281
-0.00121735
-0.00107231
-0.000875918
-0.000611376
-0.000254907
0.000226493
0.000876986
0.00174735
0.00287691
0.00431455
0.00593927
0.00724517
0.00746503
0.00613191
-0.0019171
-0.00198912
-0.00198892
-0.001989
-0.00197693
-0.00195256
-0.00191278
-0.00185249
-0.00176428
-0.00163713
-0.00145456
-0.00119258
-0.000819183
-0.000290831
0.000473382
0.00164301
0.003496
0.00579164
0.00667157
0.00585753
-0.00246849
-0.00254817
-0.00256317
-0.00259043
-0.00261921
-0.00265252
-0.00269154
-0.00273729
-0.00279141
-0.00285672
-0.00293902
-0.00305329
-0.0032428
-0.00357905
-0.00401681
-0.00404197
-0.00247679
0.00114363
0.00402023
0.00548885
-0.00306669
-0.00315451
-0.00318296
-0.00323643
-0.00330645
-0.00340063
-0.00352614
-0.00369287
-0.00391636
-0.00422244
-0.00465684
-0.0053066
-0.00635388
-0.00808675
-0.0104958
-0.0125855
-0.0120693
-0.00731119
-0.00192651
0.00291756
-0.00370374
-0.00379874
-0.00383413
-0.00390759
-0.00401327
-0.00416429
-0.0043744
-0.00466357
-0.00506374
-0.00562881
-0.0064545
-0.00771422
-0.00972896
-0.0129504
-0.0173374
-0.0215718
-0.0228541
-0.0178635
-0.0109424
-0.00286939
-0.00437734
-0.00447979
-0.00451229
-0.00459405
-0.00472123
-0.00491376
-0.00519191
-0.00558458
-0.00613718
-0.00692564
-0.00808247
-0.0098385
-0.0125858
-0.0168107
-0.0224962
-0.0280345
-0.0312004
-0.0270826
-0.0202888
-0.0102513
-0.0050806
-0.00517793
-0.00518067
-0.00524625
-0.00537443
-0.00558862
-0.00591039
-0.00637229
-0.00702659
-0.00795803
-0.00931321
-0.0113318
-0.014425
-0.0189652
-0.0251654
-0.0310109
-0.0355079
-0.0322514
-0.0266193
-0.0157211
-0.00584366
-0.00595263
-0.00590596
-0.00593811
-0.00603079
-0.00622179
-0.00653609
-0.0070086
-0.00769083
-0.00866246
-0.0100658
-0.0120992
-0.0151799
-0.019413
-0.0254093
-0.0305992
-0.0352912
-0.0318731
-0.0283752
-0.0163655
-0.00677455
-0.00666832
-0.00648651
-0.00638714
-0.00641824
-0.00658518
-0.00689543
-0.00736718
-0.00804134
-0.00898066
-0.0103161
-0.012174
-0.0149306
-0.018594
-0.0234238
-0.0274086
-0.0307155
-0.0271683
-0.0259649
-0.0100675
-0.00727214
-0.00768516
-0.00735189
-0.00728703
-0.00718692
-0.00721397
-0.00738123
-0.00772138
-0.00827312
-0.00907619
-0.0102414
-0.0118663
-0.0142032
-0.017167
-0.0209802
-0.0237419
-0.0258689
-0.0217919
-0.0196673
0.00573802
-0.0108903
-0.00826877
-0.00753932
-0.00681464
-0.00663602
-0.00670153
-0.00695695
-0.00735887
-0.00793319
-0.00869269
-0.00975118
-0.01118
-0.0131769
-0.0155904
-0.0185401
-0.0202635
-0.0208972
-0.0153036
-0.00696852
0.0353845
-0.00726479
-0.0102659
-0.00920006
-0.00914561
-0.00859986
-0.00826052
-0.00808839
-0.00811388
-0.00838679
-0.00888864
-0.00974436
-0.0109591
-0.012852
-0.0151509
-0.0182783
-0.0198552
-0.0198513
-0.00772491
0.0150064
0.0895002
-0.0328008
-0.0075584
-0.00602756
-0.0052167
-0.00491721
-0.00501379
-0.00539548
-0.00586168
-0.00652277
-0.00727616
-0.00839694
-0.00971454
-0.0115837
-0.0133403
-0.0148608
-0.0125307
-0.00369921
0.0278483
0.0910008
0.219306
7.07883e-05
4.16825e-05
9.20161e-05
0.000189732
0.000343474
0.000554899
0.000827492
0.00116569
0.00157365
0.00205398
0.00260623
0.00322455
0.00389488
0.00459189
0.00527608
0.00589487
0.0063872
0.0067009
0.0068417
0.00674769
0.000102793
7.2867e-05
0.000130842
0.000230772
0.000383311
0.000590835
0.00085734
0.00118743
0.00158534
0.00205397
0.00259349
0.00319912
0.0038574
0.00454587
0.00522579
0.00584425
0.00633725
0.00664917
0.0067909
0.00668091
4.26e-05
3.20559e-06
5.97288e-05
0.000155415
0.000301951
0.000501808
0.000759547
0.00108067
0.00147076
0.00193469
0.00247515
0.00309037
0.00377167
0.00449756
0.00522779
0.00590212
0.00644126
0.0067698
0.00689967
0.00673384
-8.72623e-05
-0.000133063
-7.98027e-05
9.01637e-06
0.000146114
0.000334227
0.000578729
0.000886417
0.00126485
0.00172187
0.00226437
0.00289566
0.0036113
0.00439625
0.00520929
0.00597998
0.00660411
0.00696619
0.00707397
0.00681147
-0.000296985
-0.000348131
-0.000300656
-0.00022189
-9.81907e-05
7.35276e-05
0.000299552
0.000588199
0.000949452
0.00139491
0.00193706
0.00258685
0.00334877
0.00421362
0.00514587
0.00606343
0.00682615
0.0072494
0.00731766
0.00688764
-0.000585015
-0.000641306
-0.000602005
-0.000536735
-0.000431196
-0.000282082
-8.23591e-05
0.000177646
0.00051028
0.000931077
0.00145883
0.00211445
0.00291589
0.00386637
0.00494632
0.00606992
0.00705155
0.00758992
0.00759788
0.00687802
-0.0009473
-0.00100916
-0.000980439
-0.000932598
-0.000851063
-0.0007327
-0.000570343
-0.000353724
-6.90544e-05
0.000302178
0.000784395
0.0014088
0.00221006
0.00321165
0.00443116
0.0057994
0.00710126
0.0078658
0.00781683
0.00667491
-0.00137857
-0.00144681
-0.00143106
-0.00140488
-0.00135395
-0.00127603
-0.00116493
-0.00101145
-0.000802669
-0.000520172
-0.000138029
0.000379627
0.00107972
0.00201495
0.00321928
0.00474146
0.00642431
0.00766544
0.00770724
0.0062826
-0.00187216
-0.00194767
-0.00194682
-0.00194613
-0.00193222
-0.00190478
-0.00186022
-0.00179284
-0.00169445
-0.00155324
-0.00135209
-0.00106752
-0.000671585
-0.000130309
0.000628095
0.00180051
0.00366717
0.0058561
0.00670286
0.00594354
-0.00242008
-0.00250357
-0.00251825
-0.00254529
-0.00257302
-0.00260437
-0.00264025
-0.00268148
-0.00272979
-0.00278886
-0.00286726
-0.00298804
-0.00321525
-0.00365141
-0.00424862
-0.00444566
-0.00297784
0.000611626
0.00374319
0.00553561
-0.0030136
-0.00310563
-0.00313422
-0.00318824
-0.00325829
-0.00335202
-0.00347661
-0.00364233
-0.003866
-0.00417677
-0.00462837
-0.00532582
-0.00648992
-0.00846804
-0.0112492
-0.0136886
-0.0133816
-0.00871826
-0.00282688
0.00262783
-0.00364383
-0.00374346
-0.00377951
-0.00385442
-0.00396139
-0.00411362
-0.0043251
-0.0046167
-0.00502265
-0.00560217
-0.00646274
-0.00780189
-0.00998444
-0.0135234
-0.0183687
-0.0230027
-0.0246396
-0.0200348
-0.0126481
-0.00391589
-0.00430741
-0.00441516
-0.00444894
-0.00453318
-0.00466287
-0.00485802
-0.00513914
-0.00553614
-0.00609684
-0.00690258
-0.00809723
-0.00993398
-0.0128433
-0.0173418
-0.0234082
-0.0291822
-0.032497
-0.0288117
-0.021898
-0.0116341
-0.00499518
-0.00509846
-0.00510301
-0.00517214
-0.00530403
-0.00552192
-0.00584738
-0.00631346
-0.006974
-0.00791757
-0.00929865
-0.0113729
-0.0145772
-0.0192707
-0.0256303
-0.0313218
-0.035486
-0.0323997
-0.0270052
-0.016518
-0.00573703
-0.0058532
-0.00580859
-0.00584587
-0.00594334
-0.00613869
-0.00645631
-0.00693101
-0.00761459
-0.00858859
-0.00999941
-0.0120529
-0.0151789
-0.0194699
-0.0252975
-0.0301238
-0.0339572
-0.0307432
-0.0275806
-0.0164085
-0.00663262
-0.00653601
-0.00635771
-0.00626573
-0.00630303
-0.00647532
-0.00678892
-0.0072611
-0.0079316
-0.00886334
-0.0101885
-0.0120346
-0.014775
-0.0183865
-0.0230306
-0.0266011
-0.0292593
-0.0257637
-0.0245828
-0.00968881
-0.00709174
-0.00752121
-0.00718588
-0.0071334
-0.00704142
-0.00707529
-0.00724555
-0.00758391
-0.00812756
-0.00891559
-0.0100603
-0.0116568
-0.0139618
-0.0168683
-0.0205519
-0.0230537
-0.0247077
-0.0206674
-0.0183734
0.00640474
-0.0106389
-0.00804631
-0.00731955
-0.00661202
-0.00644214
-0.00651674
-0.00677731
-0.00717892
-0.00774509
-0.00848734
-0.00952259
-0.0109191
-0.0128822
-0.0152503
-0.0181147
-0.01969
-0.020044
-0.0145133
-0.00595278
0.0364125
-0.00699225
-0.010035
-0.00895849
-0.00892563
-0.00838685
-0.00805571
-0.00788681
-0.00790928
-0.00817216
-0.00865499
-0.00948484
-0.0106704
-0.0125375
-0.0148115
-0.0178985
-0.0193775
-0.0191962
-0.00707184
0.0159599
0.0911901
-0.0324986
-0.00725746
-0.00572028
-0.0049222
-0.00464347
-0.00475947
-0.00515339
-0.00562317
-0.00627834
-0.00701769
-0.00811572
-0.00940728
-0.011249
-0.0129744
-0.0144445
-0.0120262
-0.00296137
0.0288698
0.0926144
0.221975
9.29128e-05
6.34587e-05
0.000114428
0.000213396
0.000369353
0.000584128
0.000861495
0.00120628
0.00162308
0.00211503
0.0026821
0.0033187
0.00401064
0.00473145
0.00543973
0.00607958
0.00658587
0.00690349
0.00703962
0.00693442
0.00012601
9.55052e-05
0.00015419
0.000255403
0.000410156
0.000620982
0.000892168
0.0012287
0.00163528
0.00211531
0.00266944
0.00329319
0.00397303
0.00468577
0.00539042
0.00603058
0.00653768
0.00685264
0.00698818
0.00686729
6.76452e-05
2.75318e-05
8.48325e-05
0.000181852
0.00033067
0.000533927
0.00079651
0.00112436
0.00152359
0.00199972
0.00255609
0.00319144
0.00389749
0.00465163
0.00541132
0.00611183
0.00666754
0.00699749
0.00711553
0.00693386
-6.00176e-05
-0.000106647
-5.25329e-05
3.76945e-05
0.000177196
0.000368898
0.000618551
0.00093347
0.00132188
0.00179245
0.00235298
0.00300764
0.00375278
0.00457227
0.00542246
0.0062268
0.00687152
0.00723143
0.0073156
0.00702814
-0.000267523
-0.000319583
-0.000271185
-0.000190923
-6.46593e-05
0.000110912
0.000342524
0.000639111
0.00101148
0.00147229
0.00203531
0.00271267
0.00350881
0.00441807
0.00539822
0.00636004
0.00714894
0.00756276
0.00758531
0.00711665
-0.00055338
-0.000610661
-0.000570391
-0.000503554
-0.000395309
-0.000242097
-3.63708e-05
0.000232253
0.000577092
0.00101497
0.00156634
0.00225395
0.0030975
0.0040998
0.00523962
0.00642057
0.00743488
0.00794908
0.00787432
0.00709778
-0.000913517
-0.000976452
-0.000946763
-0.00089736
-0.000813085
-0.000690536
-0.000522001
-0.000296451
9.41093e-07
0.000390078
0.000897162
0.00155554
0.00240197
0.00346043
0.00474624
0.00618129
0.00751973
0.00823335
0.00805127
0.00683668
-0.00134257
-0.00141198
-0.00139535
-0.00136775
-0.00131425
-0.00123236
-0.00111538
-0.000953441
-0.000732683
-0.000433549
-2.87628e-05
0.00051904
0.00125722
0.00223504
0.0034894
0.00505951
0.00676391
0.00792684
0.00780779
0.00633296
-0.00183368
-0.00191049
-0.00190895
-0.00190715
-0.00189112
-0.00186035
-0.00181089
-0.00173655
-0.00162873
-0.00147534
-0.00125965
-0.000960473
-0.000556904
-2.87266e-05
0.000685357
0.0018007
0.00361632
0.0057944
0.00658165
0.00590583
-0.00237855
-0.0024635
-0.0024778
-0.00250423
-0.00253058
-0.00255967
-0.00259228
-0.00262921
-0.00267257
-0.00272745
-0.00280624
-0.00294149
-0.00321996
-0.00378187
-0.00459253
-0.00501444
-0.00367035
-6.51689e-05
0.00334218
0.00546721
-0.00296802
-0.00306167
-0.00309029
-0.00314436
-0.00321399
-0.00330686
-0.00343027
-0.00359507
-0.00381957
-0.00413663
-0.00460856
-0.00535898
-0.00664761
-0.00888907
-0.0120783
-0.0149358
-0.0148376
-0.0101307
-0.00372223
0.0022952
-0.00359249
-0.00369392
-0.00373045
-0.00380616
-0.00391373
-0.0040665
-0.00427883
-0.00457257
-0.00498437
-0.00557876
-0.00647474
-0.00789351
-0.010243
-0.0140971
-0.0194089
-0.0244591
-0.0263073
-0.0217839
-0.014036
-0.00479896
-0.00424787
-0.00435767
-0.00439243
-0.00447825
-0.00460947
-0.00480624
-0.00508944
-0.00549004
-0.00605824
-0.00688049
-0.00811112
-0.0100242
-0.013085
-0.0178342
-0.0242421
-0.0301736
-0.0333903
-0.029776
-0.0229161
-0.0125514
-0.00492373
-0.00502932
-0.00503533
-0.00510678
-0.00524094
-0.00546106
-0.00578882
-0.00625791
-0.00692373
-0.00787833
-0.00928332
-0.0114062
-0.0147083
-0.0195276
-0.0260175
-0.0314648
-0.0352709
-0.0321321
-0.0271383
-0.0168889
-0.00565024
-0.00576926
-0.00572624
-0.00576667
-0.00586691
-0.00606459
-0.00638381
-0.00685939
-0.00754359
-0.00851944
-0.00993717
-0.012005
-0.0151635
-0.0194602
-0.0252013
-0.0296633
-0.0328617
-0.0296545
-0.0269995
-0.0161795
-0.00652125
-0.0064289
-0.00625362
-0.00616654
-0.00620737
-0.00638223
-0.00669677
-0.00716766
-0.00783412
-0.0087587
-0.0100751
-0.0119072
-0.0146286
-0.0181877
-0.022692
-0.0259444
-0.028119
-0.0246268
-0.0237522
-0.00911778
-0.00696506
-0.00740039
-0.00706236
-0.00701584
-0.00692723
-0.00696368
-0.00713394
-0.00746879
-0.00800476
-0.00877987
-0.0099062
-0.0114772
-0.0137495
-0.0165952
-0.0201602
-0.0224652
-0.023801
-0.0198208
-0.0177281
0.00713488
-0.0104563
-0.00788308
-0.00716419
-0.00646916
-0.00630375
-0.00638132
-0.00664194
-0.00703978
-0.00759784
-0.0083259
-0.0093401
-0.0107089
-0.0126407
-0.0149542
-0.0177301
-0.0191811
-0.019352
-0.0138806
-0.00545747
0.0373244
-0.00685584
-0.00990774
-0.00881496
-0.00878911
-0.00824868
-0.00791691
-0.00774503
-0.00776066
-0.0080141
-0.00848091
-0.00929236
-0.0104517
-0.0122943
-0.0145241
-0.0175473
-0.0189277
-0.0186196
-0.00642413
0.0166209
0.0925259
-0.0323141
-0.00708377
-0.00554191
-0.00474536
-0.0044742
-0.00459677
-0.0049951
-0.00546247
-0.00611223
-0.00683828
-0.0079213
-0.009188
-0.0110038
-0.0126769
-0.0140763
-0.0115262
-0.00230575
0.0297746
0.0936899
0.223762
0.000112549
8.31677e-05
0.000134908
0.000235256
0.000393451
0.000611506
0.000893472
0.00124451
0.00166962
0.00217234
0.00275298
0.00340615
0.00411741
0.00485946
0.00558899
0.00624729
0.00676578
0.00708693
0.00721919
0.00710485
0.000146135
0.000115533
0.000174999
0.000277604
0.000434605
0.000648709
0.000924468
0.00126721
0.00168201
0.00217272
0.00274037
0.00338063
0.00408002
0.00481428
0.00554069
0.00619978
0.00671906
0.00703664
0.00716678
0.00703704
8.89413e-05
4.86851e-05
0.000106813
0.000205278
0.000356427
0.000563081
0.000830421
0.00116476
0.00157268
0.00206023
0.00263125
0.00328491
0.00401307
0.00479204
0.0055773
0.00630023
0.0068698
0.00720053
0.00730798
0.00711361
-3.72141e-05
-8.40182e-05
-2.90216e-05
6.27272e-05
0.000204682
0.00039997
0.00065468
0.000976568
0.00137442
0.00185757
0.00243456
0.00311015
0.00388123
0.00473076
0.00561261
0.00644507
0.00710629
0.00746302
0.0075256
0.0072187
-0.000243085
-0.000295338
-0.000246004
-0.000164139
-3.52777e-05
0.000144115
0.00038116
0.000685321
0.00106809
0.00154298
0.00212478
0.00282669
0.00365395
0.00459959
0.00561953
0.00661755
0.00742663
0.00782939
0.00780983
0.00731196
-0.000527253
-0.000584746
-0.000543507
-0.00047501
-0.000364055
-0.000206828
4.65541e-06
0.000281375
0.000637433
0.00109068
0.00166285
0.00237785
0.00325554
0.00430227
0.00549155
0.00671911
0.00775842
0.0082461
0.00809446
0.00727662
-0.00088567
-0.000948843
-0.000918198
-0.000867147
-0.000780156
-0.000653559
-0.000479187
-0.000245391
6.34754e-05
0.000468374
0.000996819
0.00168374
0.00256743
0.00367192
0.00501105
0.00650033
0.00786809
0.00852675
0.00821939
0.00695419
-0.00131292
-0.00138261
-0.0013651
-0.00133598
-0.00127994
-0.00119425
-0.00107181
-0.000902186