/*--------------------------------*- C++ -*----------------------------------*\
  =========                 |
  \\      /  F ield         | OpenFOAM: The Open Source CFD Toolbox
   \\    /   O peration     | Website:  https://openfoam.org
    \\  /    A nd           | Version:  10
     \\/     M anipulation  |
\*---------------------------------------------------------------------------*/
FoamFile
{
    format      ascii;
    class       surfaceScalarField;
    location    "4.925";
    object      phi;
}
// * * * * * * * * * * * * * * * * * * * * * * * * * * * * * * * * * * * * * //

dimensions      [0 3 -1 0 0 0 0];

internalField   nonuniform List<scalar> 
890
(
0.00984229
0.000157714
0.00972078
0.000121509
0.0094693
0.000251477
0.00940858
6.07234e-05
0.000141042
0.00926754
0.0101195
3.81777e-05
0.0102037
3.73183e-05
0.0104088
4.64484e-05
0.0104654
4.07434e-06
-7.38166e-05
0.0106803
0.0100742
-3.60135e-05
0.0102137
-0.000102233
0.0103758
-0.000115639
0.0105262
-0.000146341
-0.000187616
0.01064
0.0100933
-0.000129292
0.0102097
-0.000218688
0.01033
-0.000235869
0.0104216
-0.000237989
-0.000247246
0.0104812
0.00987071
0.00965202
0.00941615
0.00917816
0.00893092
0.00926539
-8.79258e-05
9.00717e-05
0.00928479
-0.000255132
0.000235736
0.00938903
-0.000361912
0.000257664
0.00957595
-0.00045012
0.0002632
0.00981188
-0.000603069
0.00036714
0.0100658
-0.000835784
0.000581839
0.0103143
-0.00113482
0.000886311
0.0105368
-0.00148832
0.00126584
0.0107295
-0.00188037
0.00168772
0.0108404
-0.00225116
0.00214028
0.010875
-0.00258318
0.00254854
0.0108472
-0.0028083
0.00283608
0.0107022
-0.0029006
0.00304565
0.0104451
-0.00285226
0.00310936
0.0101237
-0.00265365
0.002975
0.00975073
-0.00239292
0.00276589
0.00933369
-0.00203078
0.00244782
0.00886252
-0.00153267
0.00200384
0.00837636
-0.00105509
0.00154125
0.00791481
-0.000628891
0.00109043
0.00744714
-0.000151078
0.000618751
0.00696792
0.000309084
0.000170134
0.00651401
0.000637453
-0.000183543
0.00614381
0.000758754
-0.000388549
0.00590959
0.000768805
-0.00053459
0.00581786
0.000783354
-0.000691626
0.00583856
0.000839549
-0.000860244
0.00592159
0.000894682
-0.00097771
0.00601867
0.000896155
-0.000993234
0.006099
0.000826685
-0.000907014
0.00615166
0.000703101
-0.000755766
0.00617943
0.000555188
-0.000582959
0.00619052
0.000409561
-0.000420646
0.00619282
0.000283148
-0.000285455
0.00619168
0.000183254
-0.000182113
0.00618986
0.000110185
-0.000108365
0.00618839
6.03979e-05
-5.89215e-05
0.00618746
2.86464e-05
-2.77242e-05
0.006187
9.97357e-06
-9.50974e-06
0.00618679
-1.27993e-07
3.37862e-07
0.00618656
-4.62482e-06
4.8505e-06
0.00618635
-6.31739e-06
6.53276e-06
0.00618613
-5.82934e-06
6.04512e-06
0.0061859
-5.44339e-06
5.67393e-06
-3.62377e-06
3.77798e-06
0.0107522
-0.000159859
0.0107869
-0.000289871
0.0108309
-0.00040589
0.0109232
-0.000542403
0.0110053
-0.000685199
0.0110539
-0.000884361
0.0110603
-0.00114124
0.0110005
-0.0014285
0.0108819
-0.00176179
0.0106727
-0.0020419
0.0104089
-0.00231936
0.0100878
-0.00248723
0.00965091
-0.00246373
0.00912992
-0.00233126
0.00857768
-0.0021014
0.00798811
-0.00180335
0.00737642
-0.00141909
0.00677146
-0.000927711
0.00618183
-0.000465458
0.00559194
-3.90011e-05
0.00503923
0.000401628
0.0045767
0.000771611
0.00429382
0.000920337
0.00419033
0.000862248
0.00422642
0.000732716
0.00436385
0.000645922
0.00457525
0.000628148
0.00482971
0.000640221
0.00509335
0.000632516
0.0053376
0.000582431
0.00554584
0.000494866
0.00571281
0.000388216
0.00584052
0.000281846
0.00593437
0.000189298
0.00600084
0.000116787
0.0060462
6.48208e-05
0.00607597
3.06371e-05
0.00609463
9.98115e-06
0.00610577
-1.16398e-06
0.00611207
-6.42996e-06
0.00611532
-7.8737e-06
0.00611677
-7.76582e-06
0.00611727
-6.33182e-06
0.00611725
-5.42762e-06
-3.41452e-06
0.0107376
-0.000257429
0.0107845
-0.000336761
0.0108097
-0.000431126
0.0108235
-0.000556208
0.0108036
-0.00066529
0.0107536
-0.000834305
0.0106272
-0.00101487
0.0104464
-0.00124767
0.0101987
-0.00151408
0.00989809
-0.00174132
0.00956503
-0.0019863
0.00904573
-0.00196793
0.00841109
-0.00182909
0.00777214
-0.00169231
0.00703204
-0.0013613
0.00620827
-0.000979584
0.00542488
-0.000635699
0.00475562
-0.000258452
0.0041968
9.33634e-05
0.00373928
0.000418515
0.00344746
0.000693452
0.00337486
0.000844214
0.00347099
0.000824201
0.00364119
0.000692045
0.00382582
0.000548095
0.00401838
0.000453356
0.00423507
0.000411456
0.00448066
0.000394636
0.00474053
0.000372642
0.00499191
0.000331056
0.00521532
0.000271452
0.00539963
0.000203913
0.00554186
0.000139615
0.00564507
8.60858e-05
0.00571557
4.62823e-05
0.00576081
1.95889e-05
0.00578786
3.58005e-06
0.00580272
-4.87737e-06
0.00580991
-8.34995e-06
0.0058125
-9.02717e-06
0.00581273
-8.09614e-06
0.00581175
-6.78522e-06
0.00581049
-5.0735e-06
0.0058091
-4.03886e-06
-2.42402e-06
0.0105147
-0.000290911
0.0104957
-0.000317764
0.0104433
-0.000378748
0.0103185
-0.000431363
0.0101506
-0.000497391
0.00990834
-0.000592038
0.00956495
-0.000671486
0.00914935
-0.000832073
0.00857953
-0.000944259
0.00796732
-0.00112911
0.00729179
-0.00131078
0.00641328
-0.00108941
0.00528022
-0.000696034
0.00397075
-0.000382839
0.00278836
-0.00017891
0.00189268
-8.39021e-05
0.00131518
-5.82029e-05
0.00103634
2.03916e-05
0.000992739
0.000136962
0.00114357
0.00026768
0.00146207
0.000374954
0.00189126
0.000415021
0.00233079
0.000384677
0.00270978
0.000313054
0.00301489
0.000242987
0.00327233
0.000195915
0.00351318
0.000170604
0.0037526
0.00015522
0.0039867
0.000138537
0.00420177
0.000115987
0.00438447
8.87505e-05
0.00452779
6.05993e-05
0.00463134
3.60629e-05
0.00470004
1.73894e-05
0.00474147
4.84708e-06
0.00476337
-2.31183e-06
0.00477258
-5.63185e-06
0.00477436
-6.65701e-06
0.00477237
-6.35709e-06
0.00476881
-5.47098e-06
0.00476507
-4.34741e-06
0.00476161
-3.32984e-06
0.0047589
-2.36404e-06
0.00475663
-1.76516e-06
-1.00511e-06
0.00864
0.00832224
0.00794349
0.00751213
0.00701474
0.0064227
0.00575122
0.00491914
0.00397488
0.00284578
0.001535
0.000445582
-0.000250452
-0.000633291
-0.000812201
-0.000896103
-0.000954306
-0.000933914
-0.000796953
-0.000529272
-0.000154318
0.000260703
0.00064538
0.000958434
0.00120142
0.00139734
0.00156794
0.00172316
0.0018617
0.00197768
0.00206643
0.00212703
0.0021631
0.00218049
0.00218533
0.00218302
0.00217739
0.00217073
0.00216438
0.0021589
0.00215456
0.00215123
0.00214886
0.0021471
2.64874e-05
-2.64874e-05
-0.00010269
0.000129177
-0.000562574
0.000459884
-0.0013592
0.000796623
-0.00226659
0.000907388
-0.0030716
0.00080501
-0.00368122
0.000609621
-0.00406871
0.00038749
-0.00420988
0.00014117
-0.00411557
-9.43083e-05
-0.00380802
-0.000307547
-0.00330542
-0.000502602
-0.00264048
-0.000664939
-0.0018681
-0.000772377
-0.00104114
-0.000826964
-0.000194234
-0.000846904
0.000636738
-0.000830972
0.00141681
-0.000780069
0.0021247
-0.00070789
0.00272396
-0.000599267
0.00317894
-0.000454973
0.00346051
-0.000281575
0.00354345
-8.29344e-05
0.00343269
0.000110759
0.00317167
0.000261015
0.00284451
0.000327161
0.00253768
0.000306831
0.00230141
0.00023627
0.00214618
0.000155232
0.00206031
8.58677e-05
0.00202459
3.57218e-05
0.00202038
4.20527e-06
0.00203204
-1.16551e-05
0.0020502
-1.81631e-05
0.00206926
-1.90623e-05
0.00208653
-1.72639e-05
0.00210101
-1.44801e-05
0.00211259
-1.15859e-05
0.00212153
-8.93619e-06
0.00212825
-6.72009e-06
0.00213316
-4.90573e-06
0.00213671
-3.556e-06
0.00213915
-2.44029e-06
0.00214093
-1.78262e-06
-1.00827e-06
-0.00032317
0.000296682
-0.00091483
0.000720837
-0.00151653
0.00106159
-0.00200978
0.00128987
-0.00240212
0.00129973
-0.00267588
0.00107877
-0.00280252
0.000736265
-0.00277234
0.000357302
-0.00258107
-5.00933e-05
-0.00224121
-0.000434169
-0.00173387
-0.000814893
-0.00107993
-0.00115654
-0.000305339
-0.00143952
0.000530008
-0.00160772
0.00138596
-0.00168291
0.00223817
-0.00169912
0.00304504
-0.00163784
0.00377218
-0.00150721
0.00440877
-0.00134448
0.00494783
-0.00113832
0.00537047
-0.000877617
0.00569353
-0.000604635
0.0059603
-0.000349699
0.00615688
-8.58253e-05
0.00621875
0.000199145
0.00610627
0.000439645
0.00585072
0.000562379
0.00553607
0.000550917
0.00524367
0.000447635
0.00501789
0.000311651
0.00486613
0.000187481
0.00477546
9.48713e-05
0.00472832
3.54901e-05
0.00470846
1.69454e-06
0.0047033
-1.39037e-05
0.00470591
-1.98765e-05
0.00471196
-2.05297e-05
0.00471905
-1.86722e-05
0.00472587
-1.57553e-05
0.00473189
-1.27412e-05
0.00473683
-9.85026e-06
0.00474083
-7.558e-06
0.00474378
-5.38164e-06
0.00474614
-4.1502e-06
-2.45743e-06
-0.00045825
0.000754932
-0.000576131
0.000838718
-0.000522996
0.00100845
-0.000391776
0.00115865
-0.000214685
0.00112264
-2.42952e-06
0.000866512
0.000251193
0.000482643
0.000555744
5.27499e-05
0.000953507
-0.000447856
0.00146676
-0.000947424
0.00205898
-0.00140711
0.0027106
-0.00180816
0.00341277
-0.00214169
0.0041223
-0.00231726
0.0047952
-0.00235581
0.00543233
-0.00233625
0.00600664
-0.00221215
0.00646894
-0.00196952
0.0068154
-0.00169094
0.00706786
-0.00139078
0.00722029
-0.00103005
0.00727048
-0.000654823
0.00726947
-0.000348686
0.0072882
-0.000104562
0.00732322
0.000164132
0.00730898
0.00045388
0.00719191
0.000679452
0.00697753
0.000765295
0.00671406
0.000711107
0.00645648
0.000569227
0.00624045
0.000403514
0.0060779
0.000257425
0.00596497
0.000148417
0.00589075
7.59104e-05
0.00584502
3.1827e-05
0.00581811
7.0383e-06
0.00580358
-6.00688e-06
0.00579669
-1.17788e-05
0.00579419
-1.32536e-05
0.00579414
-1.26914e-05
0.00579523
-1.09447e-05
0.00579684
-9.15971e-06
0.00579836
-6.90632e-06
0.00579985
-5.63732e-06
-3.46975e-06
-0.000110869
0.000865801
0.000197678
0.00053017
0.000659759
0.000546373
0.00122984
0.00058857
0.00184537
0.00050711
0.00244957
0.000262308
0.0030405
-0.000108286
0.00363357
-0.000540322
0.00421314
-0.00102742
0.00481423
-0.00154852
0.00542428
-0.00201716
0.00600704
-0.00239093
0.00657234
-0.00270699
0.00711867
-0.00286358
0.00758723
-0.00282437
0.00796532
-0.00271434
0.00825824
-0.00250507
0.00844914
-0.00216042
0.00853022
-0.00177201
0.00852067
-0.00138124
0.00844568
-0.000955058
0.00830631
-0.000515451
0.00811572
-0.000158099
0.00792419
8.69651e-05
0.00778576
0.000302566
0.00769439
0.000545247
0.00759711
0.000776733
0.00745011
0.000912295
0.00724955
0.000911672
0.00702013
0.000798643
0.00679438
0.000629262
0.00659704
0.000454769
0.00643978
0.000305678
0.00632335
0.000192337
0.00624229
0.000112887
0.00618884
6.04851e-05
0.00615507
2.7763e-05
0.00613477
8.52791e-06
0.0061232
-1.69035e-06
0.00611706
-6.55114e-06
0.00611413
-8.01251e-06
0.006113
-8.02325e-06
0.00611274
-6.64681e-06
0.00611294
-5.83664e-06
-3.76927e-06
0.000955873
0.00172178
0.00252582
0.00337759
0.00425184
0.00509598
0.00587401
0.00659953
0.00725982
0.00785159
0.00838297
0.00882811
0.00916677
0.00941255
0.00956317
0.00961473
0.00955748
0.0094009
0.00917014
0.00887934
0.00854304
0.00819772
0.00785608
0.00755449
0.00732247
0.00717609
0.00709258
0.00702716
0.0069456
0.00683723
0.00671073
0.00658254
0.00646757
0.00637445
0.00630522
0.00625735
0.00622619
0.00620699
0.00619579
0.00618958
0.00618642
0.00618492
0.00618432
0.00618416
)
;

boundaryField
{
    inlet
    {
        type            calculated;
        value           nonuniform List<scalar> 5(-0.01 -0.01 -0.01 -0.01 -0.01);
    }
    outlet
    {
        type            calculated;
        value           nonuniform List<scalar> 10(0.00618575 0.00611704 0.00580811 0.00475521 0.00214609 0.00214194 0.00474759 0.00580086 0.00611323 0.00618417);
    }
    upperWall
    {
        type            calculated;
        value           uniform 0;
    }
    lowerWall
    {
        type            calculated;
        value           uniform 0;
    }
    frontAndBack
    {
        type            empty;
        value           nonuniform List<scalar> 0();
    }
}


// ************************************************************************* //
