/*--------------------------------*- C++ -*----------------------------------*\
  =========                 |
  \\      /  F ield         | OpenFOAM: The Open Source CFD Toolbox
   \\    /   O peration     | Website:  https://openfoam.org
    \\  /    A nd           | Version:  10
     \\/     M anipulation  |
\*---------------------------------------------------------------------------*/
FoamFile
{
    format      ascii;
    class       surfaceScalarField;
    location    "9.35";
    object      phi;
}
// * * * * * * * * * * * * * * * * * * * * * * * * * * * * * * * * * * * * * //

dimensions      [0 3 -1 0 0 0 0];

internalField   nonuniform List<scalar> 
760
(
-1.38761e-05
1.38761e-05
-4.48794e-05
3.10033e-05
-8.22989e-05
3.74195e-05
-0.000122011
3.97123e-05
-0.00016282
4.08092e-05
-0.000204478
4.16579e-05
-0.000246721
4.22429e-05
-0.000288871
4.215e-05
-0.000329618
4.07467e-05
-0.000366814
3.71966e-05
-0.000397309
3.04949e-05
-0.000416883
1.95742e-05
-0.000420437
3.55386e-06
-0.00040247
-1.79673e-05
-0.000358838
-4.36321e-05
-0.000288965
-6.98729e-05
-0.000198974
-8.9991e-05
-0.000103938
-9.50363e-05
-2.72252e-05
-7.67126e-05
-2.72252e-05
-3.3816e-05
4.76922e-05
-9.53869e-05
9.25742e-05
-0.000167601
0.000109634
-0.000243613
0.000115725
-0.000320891
0.000118087
-0.000398317
0.000119083
-0.000474805
0.000118732
-0.000548697
0.000116041
-0.00061741
0.00010946
-0.000677178
9.69648e-05
-0.000722867
7.61846e-05
-0.000747844
4.45505e-05
-0.000745126
8.36055e-07
-0.000706549
-5.65437e-05
-0.000626642
-0.00012354
-0.000505161
-0.000191354
-0.000351723
-0.000243429
-0.000190087
-0.000256672
-5.71223e-05
-0.000209677
-8.43475e-05
-4.32011e-05
9.08933e-05
-0.000119455
0.000168828
-0.000207946
0.000198125
-0.000300439
0.000208217
-0.000393892
0.00021154
-0.000486922
0.000212113
-0.000578238
0.000210048
-0.000665981
0.000203784
-0.000747349
0.000190827
-0.000818277
0.000167893
-0.000873141
0.000131049
-0.000904788
7.61969e-05
-0.000904362
4.09896e-07
-0.000861539
-9.93663e-05
-0.000768038
-0.000217041
-0.000620916
-0.000338475
-0.000430012
-0.000434333
-0.000226699
-0.000459986
-6.37556e-05
-0.000372621
-0.000148103
-4.68533e-05
0.000137747
-0.000129504
0.000251479
-0.000225131
0.000293752
-0.000324906
0.000307992
-0.000425787
0.000312422
-0.00052659
0.000312916
-0.000626328
0.000309786
-0.000723543
0.000300999
-0.000815894
0.000283178
-0.000899736
0.000251734
-0.000969591
0.000200904
-0.00101757
0.000124175
-0.00103307
1.59115e-05
-0.00100237
-0.000130064
-0.000910258
-0.000309156
-0.000745908
-0.000502826
-0.0005143
-0.00066594
-0.000257236
-0.00071705
-6.03259e-05
-0.000569531
-0.000208429
-4.76145e-05
0.000185361
-0.000132525
0.000336389
-0.000231028
0.000392255
-0.000334118
0.000411082
-0.000439016
0.00041732
-0.000545036
0.000418936
-0.000651885
0.000416635
-0.000758985
0.000408099
-0.000865022
0.000389216
-0.000967392
0.000354104
-0.00106137
0.000294885
-0.00113896
0.000201764
-0.00118737
6.43223e-05
-0.00118842
-0.000129018
-0.00111609
-0.00038148
-0.000942971
-0.00067595
-0.000657435
-0.000951476
-0.000310224
-0.00106426
-5.40609e-05
-0.000825694
-0.00026249
-4.69724e-05
0.000232333
-0.000132106
0.000421522
-0.000231477
0.000491627
-0.000336074
0.000515679
-0.000443498
0.000524744
-0.000553768
0.000529206
-0.000667585
0.000530452
-0.000785689
0.000526203
-0.000908426
0.000511952
-0.00103511
0.000480788
-0.00116298
0.00042275
-0.00128549
0.000324279
-0.00138965
0.000168484
-0.00145447
-6.42012e-05
-0.00143834
-0.00039761
-0.00128196
-0.000832325
-0.000930424
-0.00130302
-0.00043451
-0.00156017
-6.0892e-05
-0.00119931
-0.000323382
-4.55385e-05
0.000277872
-0.000129738
0.000505721
-0.000228764
0.000590653
-0.000333632
0.000620547
-0.000442351
0.000633463
-0.000555734
0.000642589
-0.000675713
0.00065043
-0.000804771
0.000655262
-0.000945651
0.000652832
-0.00110089
0.00063603
-0.00127188
0.000593739
-0.00145718
0.00050958
-0.00164907
0.000360377
-0.00182689
0.000113616
-0.00193288
-0.000291618
-0.00184684
-0.000918367
-0.00143123
-0.00171862
-0.000731541
-0.00225987
-0.000137566
-0.00179329
-0.000460947
-4.35095e-05
0.000321381
-0.000125904
0.000588116
-0.000223511
0.00068826
-0.000327283
0.000724319
-0.000435575
0.000741755
-0.000549985
0.000757
-0.000673744
0.000774189
-0.000811372
0.000792889
-0.000968757
0.000810217
-0.00115319
0.000820459
-0.00137315
0.0008137
-0.00163791
0.000774339
-0.00195421
0.000676677
-0.00230549
0.000464901
-0.00261424
1.71261e-05
-0.0026549
-0.000877705
-0.00220702
-0.0021665
-0.00133465
-0.00313224
-0.000410214
-0.00271772
-0.000871162
-4.10004e-05
0.000362382
-0.000120845
0.000667961
-0.000215893
0.000783307
-0.000316852
0.000825278
-0.000422246
0.000847149
-0.000534308
0.000869061
-0.000657432
0.000897313
-0.000798113
0.00093357
-0.000965593
0.000977696
-0.00117305
0.00102792
-0.00143935
0.00108
-0.00178994
0.00112493
-0.00225027
0.00113701
-0.00280524
0.00101988
-0.00330828
0.000520159
-0.00348695
-0.000699036
-0.00310827
-0.00254517
-0.00223678
-0.00400374
-0.000974241
-0.00398026
-0.0018454
-3.8253e-05
0.000400635
-0.000115041
0.000744749
-0.000206394
0.00087466
-0.000302522
0.000921406
-0.000401849
0.000946477
-0.000506927
0.000974139
-0.000622872
0.00101326
-0.000757542
0.00106824
-0.000922796
0.00114295
-0.00113685
0.00124197
-0.00142775
0.00137091
-0.0018338
0.00153097
-0.00238504
0.00168825
-0.00304664
0.00168148
-0.00363018
0.0011037
-0.0038669
-0.000462311
-0.00367083
-0.00274125
-0.0030096
-0.00466496
-0.00164167
-0.00534819
-0.00348707
-3.57625e-05
0.000436397
-0.000109502
0.000818489
-0.000196252
0.00096141
-0.000285451
0.00101061
-0.000375123
0.00103615
-0.000467671
0.00106669
-0.000568112
0.0011137
-0.000684252
0.00118438
-0.000828131
0.00128683
-0.00101853
0.00143237
-0.00128386
0.00163623
-0.00165901
0.00190613
-0.00215739
0.00218663
-0.00271452
0.0022386
-0.00317798
0.00156717
-0.0033908
-0.000249497
-0.0033701
-0.00276195
-0.00299132
-0.00504374
-0.00189351
-0.006446
-0.00538058
-3.4532e-05
0.000470929
-0.000106222
0.000890179
-0.000187947
0.00104313
-0.000268241
0.0010909
-0.000344676
0.00111258
-0.000419078
0.00114109
-0.000495351
0.00118997
-0.000579284
0.00126831
-0.00067934
0.00138688
-0.000807646
0.00156067
-0.000979979
0.00180857
-0.00120995
0.00213609
-0.00149278
0.00246946
-0.0017777
0.00252352
-0.0020134
0.00180287
-0.00216523
-9.7667e-05
-0.00228698
-0.0026402
-0.00226236
-0.00506836
-0.00162443
-0.00708393
-0.00700501
-3.57186e-05
0.000506648
-0.000107603
0.000962064
-0.000184943
0.00112047
-0.000255346
0.0011613
-0.000315838
0.00117308
-0.000367518
0.00119277
-0.000412736
0.00123519
-0.000454
0.00130958
-0.000493993
0.00142688
-0.000534722
0.0016014
-0.000575887
0.00184973
-0.000609987
0.0021702
-0.000629478
0.00248895
-0.000627856
0.0025219
-0.000652358
0.00182737
-0.000774191
2.41654e-05
-0.00104833
-0.00236606
-0.00136206
-0.00475463
-0.00116952
-0.00727647
-0.00817453
-4.34725e-05
0.000550121
-0.00012042
0.00103901
-0.000193659
0.00119371
-0.000251815
0.00121946
-0.00029374
0.001215
-0.000320379
0.00121941
-0.000331983
0.00124679
-0.000327859
0.00130545
-0.000305346
0.00140436
-0.000257662
0.00155372
-0.000171621
0.00176369
-2.88393e-05
0.00202741
0.000176163
0.00228395
0.0003979
0.00230016
0.000526988
0.00169828
0.000406437
0.000144716
1.12362e-07
-0.00195974
-0.000635548
-0.00411897
-0.000812894
-0.00709912
-0.00898742
-5.4105e-05
0.000604226
-0.000140501
0.00112541
-0.000215205
0.00126842
-0.000267145
0.0012714
-0.000292893
0.00124075
-0.000294356
0.00122087
-0.000272093
0.00122453
-0.000224046
0.00125741
-0.000144769
0.00132509
-2.28769e-05
0.00143183
0.000155995
0.00158482
0.000412331
0.00177108
0.00075489
0.00194139
0.0011231
0.00193195
0.00135181
0.00146958
0.00123149
0.000265031
0.000704931
-0.00143318
-0.000111714
-0.00330233
-0.000523351
-0.00668748
-0.00951078
-0.000121938
0.000726163
-0.000222459
0.00122593
-0.00028037
0.00132633
-0.000303793
0.00129482
-0.000301316
0.00123827
-0.000275863
0.00119542
-0.000225165
0.00117383
-0.000143861
0.0011761
-2.42266e-05
0.00120545
0.000144529
0.00126307
0.0003773
0.00135205
0.000689831
0.00145855
0.00108035
0.00155087
0.00149213
0.00152017
0.00176295
0.00119875
0.00166608
0.000361904
0.00111546
-0.000882554
0.000223393
-0.00241026
-0.000300394
-0.0061637
-0.00981117
-7.85301e-05
0.000804694
-0.000245567
0.00139296
-0.000342356
0.00142312
-0.000375944
0.00132841
-0.000364523
0.00122685
-0.000318673
0.00114957
-0.000240732
0.00109589
-0.000127491
0.00106286
2.70709e-05
0.00105089
0.000232139
0.001058
0.00049776
0.00108642
0.000832689
0.00112362
0.00122551
0.00115805
0.00162785
0.00111783
0.0019024
0.000924208
0.00183341
0.00043089
0.00135588
-0.000405027
0.000579374
-0.00163375
7.34101e-05
-0.00565773
-0.00973776
-0.000375198
0.00117989
-0.000421766
0.00143953
-0.000453942
0.0014553
-0.000472648
0.00134711
-0.000442983
0.00119719
-0.000371438
0.00107802
-0.000261069
0.000985523
-0.000109604
0.000911397
8.2377e-05
0.00085891
0.000321074
0.000819306
0.000607013
0.000800485
0.000944031
0.000786599
0.0013164
0.000785683
0.00167674
0.00075749
0.00195182
0.000649132
0.00198743
0.00039528
0.0018287
-0.000246297
0.00147249
-0.00127755
0.000834077
-0.00501932
-0.00890368
-0.001363
0.00254289
-0.00132156
0.00139809
-0.00105425
0.00118799
-0.000673838
0.000966703
-0.000273804
0.000797153
0.000130086
0.000674132
0.000527305
0.000588305
0.000918049
0.000520653
0.00130411
0.00047285
0.00169132
0.000432092
0.00208545
0.000406354
0.00248945
0.000382604
0.00291165
0.000363485
0.00333566
0.000333475
0.00373149
0.000253302
0.00400802
0.000118754
0.00408524
-0.000323517
0.00394448
-0.00113679
0.00250448
-0.00357932
-0.00639921
0.00254289
0.00394098
0.00512897
0.00609567
0.00689282
0.00756696
0.00815526
0.00867591
0.00914876
0.00958085
0.00998721
0.0103698
0.0107333
0.0110668
0.0113201
0.0114388
0.0111153
0.00997852
0.00639921
)
;

boundaryField
{
    movingWall
    {
        type            calculated;
        value           uniform 0;
    }
    fixedWalls
    {
        type            calculated;
        value           uniform 0;
    }
    frontAndBack
    {
        type            empty;
        value           nonuniform List<scalar> 0();
    }
}


// ************************************************************************* //
