/*--------------------------------*- C++ -*----------------------------------*\
  =========                 |
  \\      /  F ield         | OpenFOAM: The Open Source CFD Toolbox
   \\    /   O peration     | Website:  https://openfoam.org
    \\  /    A nd           | Version:  10
     \\/     M anipulation  |
\*---------------------------------------------------------------------------*/
FoamFile
{
    format      ascii;
    class       volScalarField;
    location    "8";
    object      p;
}
// * * * * * * * * * * * * * * * * * * * * * * * * * * * * * * * * * * * * * //

dimensions      [0 2 -2 0 0 0 0];

internalField   nonuniform List<scalar> 
496
(
26.7126
26.3318
22.9245
16.7476
27.8225
27.7119
23.2739
16.8476
32.8453
30.5244
22.5593
12.1097
39.9408
37.4441
33.7327
18.92
8.3584
-0.682101
7.99552
-0.787312
-2.86978
-8.26979
-30.8809
-55.8816
-7.85394
-12.8096
-15.9758
-17.7452
-8.72554
-14.5219
-18.1562
-20.233
-3.20736
-5.43901
-12.3492
-17.4728
-26.2387
-11.1998
-14.6464
-19.257
-18.8572
-19.4238
-19.6838
-19.8066
-19.2507
-17.9858
-16.1745
-14.7209
-13.4199
-12.2815
-11.078
-9.85805
-8.79511
-8.06653
-8.2113
-8.22904
-7.97347
-7.6858
-8.02634
-8.77126
-8.72201
-8.25872
-7.38047
-7.00323
-6.733
-6.26152
-5.58669
-4.59539
-4.01117
-3.39175
-2.79306
-2.01792
-1.21417
-0.712644
-0.203135
0.0705064
0.256592
0.264778
0.092215
0.105223
-21.4003
-21.6315
-21.6144
-20.9868
-19.7804
-18.2358
-16.5083
-14.8342
-13.2094
-11.9945
-10.8061
-9.45233
-8.10412
-7.40388
-7.72779
-7.85894
-7.85437
-7.48267
-7.86779
-8.46172
-8.63581
-8.27996
-7.51665
-7.13257
-6.75309
-6.33029
-5.61446
-4.72991
-4.09923
-3.36652
-2.82234
-1.96468
-1.16217
-0.369076
0.190569
0.343702
0.512087
0.377374
0.324707
0.154231
-20.4371
-21.7787
-22.4951
-22.0736
-20.8234
-19.0929
-17.4211
-15.4206
-13.6692
-12.1838
-10.5993
-9.07607
-8.00273
-7.89214
-8.03999
-8.24468
-8.13738
-8.12388
-8.79618
-9.16149
-9.3342
-8.638
-7.82228
-7.14114
-6.48349
-6.14294
-5.39
-4.96037
-4.11423
-3.43815
-2.67884
-1.79752
-1.19347
-0.513426
-0.122113
0.137876
0.336243
0.185379
0.0995471
-0.145435
-20.1299
-21.0124
-21.5034
-22.2148
-21.72
-19.5065
-18.0072
-15.954
-13.9289
-11.5693
-9.27252
-7.39752
-6.1427
-6.43622
-6.41737
-6.988
-7.44316
-8.47114
-9.54802
-9.89232
-10.2026
-9.38079
-9.01724
-8.05284
-6.96094
-6.21225
-5.17396
-5.0886
-4.28695
-3.95459
-2.86393
-1.49072
-0.0347884
1.59798
1.48271
1.83138
0.852296
0.403038
0.251405
-0.573537
43.8249
46.0647
59.7266
72.2691
43.7633
44.7954
58.8483
71.0033
-27.4711
-35.4721
-21.0554
-19.2735
-30.2518
-30.8022
-25.989
-26.9356
-26.3798
-21.0033
-26.3303
-22.9363
-21.5673
-21.8708
-20.0975
-16.7994
-13.6575
-12.0708
-10.5175
-9.04133
-7.82749
-7.02462
-6.50098
-6.51766
-7.11694
-7.90385
-8.42487
-8.7333
-8.77165
-8.88643
-8.67747
-7.7521
-6.61372
-5.86011
-5.45323
-4.84258
-4.24581
-4.05537
-3.31203
-2.45313
-1.88032
-1.2677
-1.01691
-1.05234
-1.04952
-0.724634
-0.449871
-0.2196
-23.5164
-21.7
-21.5118
-23.7732
-22.9762
-20.8156
-18.539
-17.3709
-15.3192
-13.9842
-12.0905
-10.2921
-9.0884
-8.06287
-7.26337
-6.5713
-6.40456
-6.3796
-6.28556
-6.58945
-6.97668
-7.41437
-7.72619
-7.39539
-6.75021
-6.23527
-5.6642
-4.48622
-3.52104
-2.91
-2.15854
-1.88092
-2.20865
-2.67455
-3.29763
-3.76036
-2.99897
-2.32481
-1.27261
0.125501
39.0734
35.6521
31.5042
15.2608
30.4039
28.3043
19.9603
9.56255
25.3585
26.1574
22.3774
15.9136
24.8713
25.0623
21.7714
15.6404
-37.7218
-62.0285
-5.95707
-10.9954
6.93397
-1.99124
7.02467
-2.29622
-32.2022
-16.5075
-6.91098
-17.8808
-4.39976
-4.15359
-8.67787
-16.02
-9.45472
-15.2256
-18.756
-20.4361
-9.45455
-14.044
-16.1709
-17.3579
-24.662
-24.1907
-21.5017
-17.8128
-18.8754
-20.3559
-18.8176
-16.7698
-14.7437
-14.041
-13.0578
-11.3759
-10.1595
-8.14848
-6.83078
-5.49936
-4.98686
-4.99465
-4.61887
-5.30342
-5.66743
-6.8233
-7.41908
-7.6754
-7.70196
-6.54554
-6.02131
-4.45111
-3.19214
-2.04385
-1.588
-1.89456
-2.13399
-3.1993
-3.33775
-3.83451
-3.38761
-2.42626
-1.83774
-0.255584
-21.5644
-23.43
-22.4217
-20.3165
-18.3998
-18.0583
-17.9426
-16.7507
-15.0504
-13.7582
-12.8824
-11.6003
-10.3502
-8.83677
-7.68597
-6.83711
-6.43284
-6.3926
-6.11135
-6.38114
-6.46358
-6.75543
-7.03538
-7.02616
-6.99339
-6.15069
-5.31446
-4.19597
-3.26749
-2.66379
-2.35258
-2.42266
-2.66241
-2.91109
-3.03898
-2.89071
-2.43518
-1.69746
-1.10392
-0.386314
-21.345
-22.1307
-22.201
-20.9751
-19.2401
-17.7926
-16.9472
-15.9904
-14.7254
-13.3676
-12.3889
-11.5914
-10.5181
-9.42869
-8.09499
-7.17855
-6.39712
-6.18623
-6.44134
-6.43815
-6.4793
-6.14244
-6.12192
-6.16834
-6.20658
-5.88576
-5.08713
-4.4686
-3.65221
-3.20259
-2.73879
-2.39045
-2.17589
-2.08743
-2.08632
-1.7972
-1.71489
-1.57009
-1.27389
-0.709445
-18.2928
-19.1216
-19.689
-19.9046
-19.2787
-17.7459
-16.485
-15.4649
-14.5014
-13.2435
-12.2087
-11.5672
-10.6088
-9.47795
-8.17548
-7.44076
-6.88652
-6.59612
-6.61556
-6.58798
-6.5643
-6.15924
-6.07706
-6.14941
-6.1148
-5.82772
-5.05627
-4.39146
-3.66268
-3.23362
-2.79152
-2.45229
-2.29145
-2.04904
-2.02033
-1.82389
-1.73031
-1.5427
-1.06265
-0.466628
)
;

boundaryField
{
    inlet
    {
        type            zeroGradient;
    }
    outlet
    {
        type            fixedValue;
        value           uniform 0;
    }
    obstacle
    {
        type            zeroGradient;
    }
    upperWall
    {
        type            zeroGradient;
    }
    lowerWall
    {
        type            zeroGradient;
    }
    frontAndBack
    {
        type            empty;
    }
}


// ************************************************************************* //
