/*--------------------------------*- C++ -*----------------------------------*\
  =========                 |
  \\      /  F ield         | OpenFOAM: The Open Source CFD Toolbox
   \\    /   O peration     | Website:  https://openfoam.org
    \\  /    A nd           | Version:  10
     \\/     M anipulation  |
\*---------------------------------------------------------------------------*/
FoamFile
{
    format      ascii;
    class       surfaceScalarField;
    location    "8";
    object      phi;
}
// * * * * * * * * * * * * * * * * * * * * * * * * * * * * * * * * * * * * * //

dimensions      [0 3 -1 0 0 0 0];

internalField   nonuniform List<scalar> 
928
(
0.0970969
0.00290314
0.103159
-0.00606174
0.107056
-0.003897
-0.0089199
0.115975
0.0959632
0.00693992
0.106217
-0.0163152
0.104194
-0.00187432
-0.0181425
0.113417
0.0962802
0.0106597
0.107659
-0.0276943
0.104376
0.00140859
-0.0372488
0.123483
0.101152
0.00950775
0.0939465
-0.0204888
0.0967316
-0.00137654
0.144998
-0.0855155
0.111191
0.00478458
-0.016742
0.127933
0.109973
0.00822768
-0.0415034
0.134735
0.125512
0.00619863
-0.0442744
0.128283
0.151197
0.106923
0.128305
-0.000372277
0.129256
-0.000951081
0.130846
-0.00159002
-0.00182641
0.132673
0.13472
-0.000357774
0.135561
-0.00179191
0.136982
-0.00301117
-0.00310557
0.138261
0.133826
-0.0059007
0.139393
-0.00735943
0.136534
-0.000151749
-0.00307264
0.136501
0.107828
-0.00680654
0.107953
-0.0074842
0.100477
0.00732475
0.0967126
0.000691372
0.13364
-0.000967097
0.134547
-0.000907512
0.133791
0.000756719
0.132866
0.000924954
0.131359
0.00150658
0.130043
0.00131598
0.12843
0.00161271
0.126465
0.00196589
0.125177
0.00128713
0.12346
0.00171778
0.122613
0.000846647
0.12129
0.00132308
0.120994
0.000296045
0.120655
0.000338707
0.12028
0.00037526
0.120166
0.000113797
0.119157
0.00100866
0.118749
0.000407993
0.11718
0.00156926
0.116073
0.00110732
0.114205
0.00186795
0.11219
0.00201487
0.110462
0.00172842
0.108231
0.00223062
0.107415
0.000815536
0.106069
0.00134663
0.106163
-9.38349e-05
0.105903
0.000260023
0.10584
6.22845e-05
0.105974
-0.000133679
0.105439
0.000535017
0.105778
-0.000338533
0.105205
0.000572814
0.105922
-0.00071731
0.106009
-8.6864e-05
0.107014
-0.0010052
0.107857
-0.000842569
0.108198
-0.000341391
0.108443
-0.000245366
0.00158869
0.138844
-0.00154984
0.139421
-0.00148448
0.139368
0.000810115
0.139737
0.00055567
0.138648
0.00259573
0.13742
0.00254422
0.135836
0.00319684
0.134587
0.00321475
0.133264
0.00261023
0.131681
0.00330042
0.131177
0.00135072
0.130542
0.00195819
0.130955
-0.000117685
0.130796
0.000498627
0.130956
0.000214693
0.131422
-0.00035213
0.131192
0.00123921
0.131474
0.000125902
0.129993
0.00304973
0.128968
0.00213244
0.127291
0.00354545
0.12586
0.0034453
0.124393
0.00319548
0.122184
0.0044393
0.120861
0.00213854
0.118962
0.00324646
0.118691
0.000176666
0.118146
0.000805141
0.118233
-2.45906e-05
0.118544
-0.000444558
0.117947
0.00113192
0.118628
-0.00101999
0.118174
0.00102699
0.119013
-0.00155626
0.119818
-0.000891557
0.120732
-0.00191924
0.122369
-0.00248023
0.12317
-0.00114171
0.125018
-0.00209416
0.00137164
0.135402
-0.000450837
0.136486
-0.00256911
0.137514
-0.000217544
0.137451
0.000619041
0.137744
0.00230277
0.137859
0.00242903
0.137166
0.00389014
0.13561
0.00476997
0.133262
0.00495868
0.13318
0.00338227
0.132562
0.00196866
0.133035
0.00148505
0.132392
0.000525517
0.132582
0.000308553
0.133003
-0.000205777
0.133872
-0.00122132
0.135532
-0.000420907
0.135945
-0.000287148
0.136184
0.00281091
0.135177
0.00313884
0.133428
0.00529455
0.131133
0.00574085
0.12747
0.00685831
0.124374
0.00753518
0.120889
0.00562341
0.119274
0.00486208
0.117582
0.00186834
0.116453
0.00193356
0.115693
0.000736224
0.114874
0.000374269
0.11484
0.00116522
0.114316
-0.000495454
0.114426
0.000916885
0.114205
-0.00133525
0.113259
5.46887e-05
0.113038
-0.00169856
0.113379
-0.00282064
0.113947
-0.00170977
0.116417
-0.00456473
-0.0009642
0.100534
-0.00427256
0.0993234
-0.00135814
0.100244
-0.00113823
0.096991
0.0038721
0.0970904
0.00220332
0.100586
-0.00106681
0.0982292
0.00624725
0.0942894
0.00870977
0.0938473
0.00540076
0.0933004
0.00392917
0.0919477
0.00332138
0.0907217
0.00271105
0.0905419
0.000705272
0.0919603
-0.00110983
0.0941272
-0.00237273
0.0973886
-0.00448268
0.100944
-0.00397588
0.104461
-0.00380423
0.109982
-0.00271082
0.11387
-0.00074914
0.118767
0.000398234
0.122446
0.00206111
0.125655
0.00364939
0.128219
0.00497104
0.129482
0.00436128
0.129989
0.00435418
0.127789
0.00406875
0.1258
0.00392225
0.122903
0.00363359
0.118763
0.00451461
0.113403
0.0065249
0.10559
0.00731792
0.0976791
0.0088274
0.0877145
0.00862934
0.0805981
0.00717112
0.0754026
0.00349691
0.0733862
-0.000804206
0.0747915
-0.0031151
0.0788337
-0.00860695
-0.00562828
0.109007
0.000501032
0.0886937
-0.000175767
0.0857078
0.00160937
0.000192281
0.11066
-0.010159
0.0886377
0.0218467
0.089791
0.000456017
0.0899833
-0.0115491
0.00474254
0.0204606
-0.0394938
-0.0070376
0.0348229
0.00824451
-0.0145907
-0.00172409
0.00646663
-0.0161556
-0.0250624
0.000838727
0.0178286
0.0137359
-0.00465263
-0.00461348
-0.0142498
-0.00190383
-0.0040678
0.00970709
-0.0127491
-0.00484935
0.0184285
-0.0064653
0.00381928
0.00511354
-0.0126456
0.0107157
0.000645108
0.00992225
0.00950321
0.0084342
0.00688879
0.00986872
0.00249466
0.0138389
-0.000648794
0.0180356
-0.0014856
0.0214364
-0.00269561
0.0240836
-0.00375697
0.0259704
-0.00425956
0.0276525
-0.00616479
0.0301403
-0.00646372
0.0330074
-0.00667134
0.0343961
-0.00409951
0.0348883
-0.00124134
0.0350282
0.000258351
0.0349341
0.00215527
0.0348433
0.00374011
0.0351093
0.00470511
0.0351337
0.00433684
0.0352988
0.00418912
0.0368784
0.00248918
0.0384095
0.00239115
0.0388589
0.00318413
0.0400123
0.00336118
0.040577
0.00596019
0.0397481
0.00814682
0.0394232
0.00915231
0.0399429
0.00810966
0.0403255
0.00678848
0.0422635
0.00155899
0.0442645
-0.00280525
0.0461511
-0.00500172
0.04965
-0.0121059
-0.00837175
0.000729232
-0.00124317
-0.00192655
-0.00141202
-0.0120304
-0.00264532
-0.0021816
0.00857978
0.00224756
-0.00060988
-0.00493974
-0.00545835
-0.00448532
0.00019069
0.00381121
0.00120668
0.0104476
0.000252376
0.015177
-0.00223472
0.0180217
-0.00349354
0.0198638
-0.00332768
0.0211532
-0.00398502
0.0225303
-0.0051341
0.0235775
-0.00530668
0.0228706
-0.00545792
0.0215143
-0.00510741
0.0200332
-0.0051903
0.0187742
-0.00284046
0.0187673
-0.00123446
0.0188499
0.000175737
0.0187984
0.00220683
0.0206099
0.00192855
0.0226348
0.00268023
0.0249166
0.00205506
0.0270955
0.00201017
0.0296869
-0.000102153
0.0327065
-0.000628461
0.0354889
0.000401722
0.0388651
-1.50246e-05
0.0427707
0.0020546
0.0476663
0.00325118
0.052741
0.00407765
0.0576353
0.0032154
0.0625217
0.001902
0.065527
-0.00144632
0.0671484
-0.00442661
0.0679397
-0.005793
0.0646753
-0.00884155
-0.00608073
0.102398
-0.0125571
0.0915785
0.0326663
0.0962513
-0.00421678
0.0406393
0.145595
0.096145
-0.00870208
0.110804
0.0180074
0.105276
0.00131126
0.0191468
0.126768
0.0949992
-0.00370123
0.106042
0.00696491
0.103728
0.00362519
0.00949792
0.113377
0.0962988
0.103264
0.106889
0.116387
0.150201
-0.00460556
0.048531
0.10167
0.130155
-0.00799218
0.0417773
0.136909
0.110664
-0.0052791
0.0168263
0.135615
0.111108
0.127934
0.106956
0.00118059
0.0810974
0.000796189
0.090607
0.00831904
0.00203045
0.0839239
0.13717
0.000918758
0.139072
-0.00110499
0.144936
0.00245444
0.0049654
0.142001
0.137149
-0.000615403
0.13579
0.000254131
0.136669
0.00157508
0.00191717
0.139717
0.127319
0.127573
0.129148
0.131065
0.0844234
-0.00174273
0.0841591
-0.00114768
0.081571
-5.71722e-05
0.0873608
0.00278996
0.0859654
0.000785528
0.0832058
-0.00269879
0.0866294
-0.0032329
0.0901552
-0.00231912
0.0939387
-0.0035311
0.0964267
-0.0047228
0.0994451
-0.00651195
0.101905
-0.00578791
0.103861
-0.00594091
0.10341
-0.00468261
0.101468
-0.00336528
0.0986852
-0.00267474
0.094627
-0.0010492
0.0905221
-0.00108542
0.08606
0.00162165
0.0830056
0.00181997
0.0805083
0.002673
0.0801628
0.00255234
0.0812611
0.000830248
0.0824726
0.00146877
0.0863667
-0.00183904
0.0886707
-0.000293822
0.0912616
-0.0026931
0.0930377
-0.00240452
0.0950092
-0.00156977
0.0970369
-0.00204275
0.0982837
0.000807831
0.102418
-0.00088273
0.105146
0.00134973
0.110444
-0.00208339
0.115227
-0.00288027
0.119601
-0.00582116
0.124277
-0.00910248
0.12663
-0.00814565
0.128338
-0.0105499
-0.00538581
0.137584
0.00267492
0.136836
-0.00040037
0.137379
-0.000600114
0.141484
-0.00131442
0.141745
0.000523837
0.139376
-0.00032957
0.138538
-0.00239474
0.139281
-0.00306259
0.140086
-0.0043357
0.139084
-0.00372129
0.138169
-0.00559692
0.13693
-0.00454822
0.136085
-0.00509648
0.135192
-0.0037896
0.13432
-0.0024927
0.134085
-0.00244018
0.132721
0.000314998
0.131732
-9.64307e-05
0.131203
0.00215012
0.131027
0.00199628
0.131212
0.00248825
0.131096
0.00266801
0.131227
0.000699911
0.131534
0.0011617
0.131497
-0.00180263
0.132174
-0.000970806
0.131982
-0.00250061
0.131717
-0.00213967
0.131922
-0.00177447
0.131915
-0.00203637
0.132439
0.000283709
0.133232
-0.00167558
0.134354
0.000227941
0.135202
-0.00293144
0.135465
-0.00314278
0.134327
-0.00468379
0.131246
-0.00602113
0.127799
-0.00469874
0.123382
-0.00613341
-0.00232517
0.14062
0.00177191
0.139653
0.00056729
0.139206
-0.000154061
0.139542
-0.0016501
0.140505
-0.000439471
0.140504
-0.00032826
0.138952
-0.000842856
0.137559
-0.00166976
0.135763
-0.0025388
0.134114
-0.00207225
0.131573
-0.00305597
0.129429
-0.00240458
0.126946
-0.00261335
0.125285
-0.00212859
0.124171
-0.00137895
0.122992
-0.00126136
0.123222
8.54368e-05
0.123365
-0.000239932
0.124507
0.00100811
0.125755
0.00074855
0.127016
0.0012274
0.128621
0.00106246
0.128974
0.000347593
0.129926
0.000209513
0.12908
-0.00095722
0.128958
-0.000848637
0.12817
-0.00171214
0.127284
-0.00125412
0.126754
-0.00124389
0.12573
-0.00101218
0.126262
-0.000248498
0.125384
-0.000797844
0.125836
-0.00022442
0.124539
-0.00163361
0.123138
-0.00174256
0.121452
-0.00299748
0.11869
-0.00325883
0.116876
-0.00288534
0.113496
-0.00275328
-0.000608684
0.132837
0.133404
0.13325
0.1316
0.131161
0.130832
0.129989
0.12832
0.125781
0.123709
0.120653
0.118248
0.115635
0.113506
0.112127
0.110866
0.110951
0.110711
0.111719
0.112468
0.113695
0.114758
0.115105
0.115315
0.114358
0.113509
0.111797
0.110543
0.109299
0.108287
0.108038
0.10724
0.107016
0.105382
0.10364
0.100642
0.0973836
0.0944982
0.0917449
)
;

boundaryField
{
    inlet
    {
        type            calculated;
        value           nonuniform List<scalar> 10(-0.1 -0.1 -0.1 -0.1 -0.1 -0.1 -0.1 -0.1 -0.1 -0.1);
    }
    outlet
    {
        type            calculated;
        value           nonuniform List<scalar> 10(0.106855 0.125236 0.118753 0.0834978 0.0523935 0.0623843 0.127643 0.120322 0.11178 0.0911362);
    }
    obstacle
    {
        type            calculated;
        value           uniform 0;
    }
    upperWall
    {
        type            calculated;
        value           uniform 0;
    }
    lowerWall
    {
        type            calculated;
        value           uniform 0;
    }
    frontAndBack
    {
        type            empty;
        value           nonuniform List<scalar> 0();
    }
}


// ************************************************************************* //
