/*--------------------------------*- C++ -*----------------------------------*\
  =========                 |
  \\      /  F ield         | OpenFOAM: The Open Source CFD Toolbox
   \\    /   O peration     | Website:  https://openfoam.org
    \\  /    A nd           | Version:  10
     \\/     M anipulation  |
\*---------------------------------------------------------------------------*/
FoamFile
{
    format      ascii;
    class       volVectorField;
    location    "8";
    object      U;
}
// * * * * * * * * * * * * * * * * * * * * * * * * * * * * * * * * * * * * * //

dimensions      [0 1 -1 0 0 0 0];

internalField   nonuniform List<vector> 
496
(
(9.96092 0.0832938 0)
(9.99071 -0.196033 0)
(10.2344 -0.151667 0)
(10.8268 -0.227385 0)
(10.0731 0.356704 0)
(9.86165 -1.08961 0)
(10.3384 -0.470018 0)
(10.9213 -1.09157 0)
(11.0124 1.15967 0)
(8.92154 -2.62502 0)
(11.4018 -0.255932 0)
(10.5558 -3.74894 0)
(12.2031 1.29718 0)
(7.8577 -2.36769 0)
(13.0305 0.393958 0)
(9.72763 -6.25893 0)
(11.4776 -0.249555 2.33151e-18)
(12.2145 -0.178788 2.08261e-19)
(11.7087 -0.60737 -8.70892e-19)
(12.5222 -0.0105334 2.36124e-18)
(13.1007 -2.05925 -1.46331e-18)
(12.8941 -0.392014 -2.56998e-18)
(13.3728 -5.63147 -3.52306e-17)
(15.0407 -4.19888 6.33678e-17)
(12.7221 -0.208916 0)
(13.109 -0.122907 0)
(13.3082 -0.0566748 0)
(13.4583 0.000772035 0)
(13.0852 -0.045776 0)
(13.5719 -0.378709 0)
(13.8073 -0.547474 0)
(14.0186 -0.62786 0)
(12.7802 0.841652 0)
(12.6116 0.658747 0)
(13.3531 0.441181 0)
(13.4753 0.386642 0)
(11.3949 -3.27172 0)
(9.26768 -1.81946 0)
(9.43843 -0.56946 0)
(10.3604 -1.30714 0)
(13.4912 0.143206 0)
(13.5307 0.173225 0)
(13.4864 0.322935 0)
(13.453 0.334748 0)
(13.3375 0.417929 0)
(13.1316 0.389301 0)
(12.9273 0.412496 0)
(12.6855 0.425452 0)
(12.5896 0.37693 0)
(12.3935 0.388973 0)
(12.3462 0.306755 0)
(12.1706 0.349849 0)
(12.1266 0.276058 0)
(12.012 0.274251 0)
(12.0653 0.279326 0)
(12.0528 0.259922 0)
(11.9674 0.349883 0)
(11.8473 0.331051 0)
(11.7726 0.452284 0)
(11.7124 0.433948 0)
(11.5938 0.502095 0)
(11.2996 0.532373 0)
(11.1388 0.544224 0)
(10.8372 0.592955 0)
(10.855 0.501521 0)
(10.6297 0.48598 0)
(10.6719 0.357202 0)
(10.5451 0.316678 0)
(10.5826 0.269912 0)
(10.6074 0.229506 0)
(10.5696 0.252079 0)
(10.5865 0.174193 0)
(10.54 0.187873 0)
(10.51 0.080478 0)
(10.6611 0.0538725 0)
(10.5187 0.021239 0)
(10.9008 -0.0113815 0)
(10.639 0.0675351 0)
(11.0186 0.0633456 0)
(10.6811 0.194848 0)
(14.1055 -0.505449 0)
(14.1472 -0.492014 0)
(14.1599 -0.287059 0)
(14.0786 -0.228164 0)
(13.9888 -0.0866977 0)
(13.7881 -0.0804032 0)
(13.6559 -0.0402321 0)
(13.4405 0.0284338 0)
(13.3379 -0.0453491 0)
(13.2148 0.0281168 0)
(13.1789 -0.107515 0)
(13.0987 -0.0322132 0)
(13.0318 -0.176 0)
(13.0317 -0.141739 0)
(13.1196 -0.154401 0)
(13.1659 -0.194961 0)
(13.1757 -0.0992223 0)
(13.0547 -0.1937 0)
(13.0637 -0.0332221 0)
(12.9368 -0.1286 0)
(12.9103 -0.0832375 0)
(12.6616 -0.145339 0)
(12.5131 -0.225196 0)
(12.3006 -0.177255 0)
(12.1386 -0.355539 0)
(12.0213 -0.235921 0)
(11.8615 -0.387667 0)
(11.8379 -0.263445 0)
(11.7987 -0.262964 0)
(11.825 -0.253202 0)
(11.8815 -0.14048 0)
(11.7762 -0.231615 0)
(11.9151 -0.0485397 0)
(11.7346 -0.164651 0)
(12.04 -0.0438624 0)
(11.9003 -0.167393 0)
(12.2436 -0.118089 0)
(12.2124 -0.118712 0)
(12.4697 -0.0952397 0)
(12.5209 0.147345 0)
(13.9369 0.376285 0)
(13.8081 0.265365 0)
(14.072 0.378816 0)
(13.9179 0.285987 0)
(13.9218 0.506402 0)
(13.7582 0.470995 0)
(13.6506 0.547254 0)
(13.56 0.532815 0)
(13.4178 0.460582 0)
(13.413 0.49746 0)
(13.2913 0.293265 0)
(13.2094 0.313546 0)
(13.2202 0.0939906 0)
(13.1467 0.134175 0)
(13.4169 0.129348 0)
(13.2878 0.0648175 0)
(13.5833 0.247839 0)
(13.3883 0.159172 0)
(13.6909 0.54312 0)
(13.5464 0.532106 0)
(13.5361 0.816848 0)
(13.2998 0.91092 0)
(12.8715 0.962003 0)
(12.6709 1.15706 0)
(12.1195 0.840844 0)
(12.1242 0.890946 0)
(11.7309 0.429003 0)
(11.7522 0.401651 0)
(11.6125 0.281235 0)
(11.4426 0.168591 0)
(11.6161 0.359115 0)
(11.2861 -0.0159232 0)
(11.639 0.180157 0)
(11.2679 -0.306342 0)
(11.4587 -0.240879 0)
(11.278 -0.368891 0)
(11.2308 -0.466761 0)
(11.4469 -0.16531 0)
(11.3544 -0.377433 0)
(11.8856 0.115068 0)
(9.8727 -0.319515 0)
(9.81389 -0.652584 0)
(9.92329 -0.230821 0)
(9.61787 -0.0810121 0)
(10.5117 -0.0285305 0)
(9.47829 0.192006 0)
(9.86148 0.428199 0)
(9.47345 0.475269 0)
(9.73683 0.453801 0)
(9.45374 0.345989 0)
(9.10259 0.276316 0)
(9.16768 0.159161 0)
(8.74194 0.143171 0)
(9.31725 0.0268504 0)
(9.18891 -0.0798397 0)
(9.57416 -0.211305 0)
(9.89483 -0.298524 0)
(10.0796 -0.251891 0)
(10.9772 -0.167508 0)
(11.0114 -0.110888 0)
(11.8251 -0.0196884 0)
(11.9822 0.0321367 0)
(12.3934 0.1643 0)
(12.9278 0.199714 0)
(12.6841 0.196524 0)
(13.3011 0.100415 0)
(12.5349 -0.0175049 0)
(13.0507 -0.0552426 0)
(12.2209 -0.153034 0)
(12.237 -0.108948 0)
(11.684 -0.0885424 0)
(10.8722 -0.0298567 0)
(10.4633 0.137139 0)
(8.87719 0.268381 0)
(8.64512 0.401765 0)
(7.57002 0.304863 0)
(7.29107 0.0807179 0)
(7.62815 -0.0634829 0)
(7.22671 -0.496383 0)
(8.39023 -0.326413 0)
(12.0662 0.626396 -1.01261e-17)
(8.13142 -0.8462 -1.7311e-17)
(11.1767 0.161497 3.01106e-17)
(4.94947 -4.61412 -8.19923e-17)
(13.1188 -0.484662 9.97629e-18)
(7.07815 0.755054 1.68888e-17)
(12.5333 0.195941 -2.95e-17)
(4.13428 4.63809 8.05474e-17)
(-4.45649 2.72044 0)
(1.17136 -0.94327 0)
(4.82278 1.73242 0)
(-6.40736 1.64855 0)
(-1.21814 -1.9741 3.43875e-17)
(2.96332 -5.85172 0)
(-6.05223 3.9473 0)
(5.57955 -0.813018 0)
(2.43666 -1.10795 0)
(-2.59962 0.346786 0)
(1.73518 -0.381877 0)
(0.934067 0.938612 0)
(-2.0165 0.639983 0)
(0.371766 -0.53909 0)
(0.803166 0.41971 0)
(1.591 1.33986 0)
(0.622912 0.867067 0)
(0.828749 0.451739 0)
(1.13178 0.226445 0)
(1.73476 0.19419 0)
(1.91496 -0.100939 0)
(2.29877 -0.355804 0)
(2.52224 -0.462796 0)
(2.50779 -0.695213 0)
(2.87115 -0.593899 0)
(3.22415 -0.488789 0)
(3.45775 -0.320578 0)
(3.39045 -0.0164041 0)
(3.57066 0.197705 0)
(3.34831 0.441376 0)
(3.6631 0.688927 0)
(3.5318 0.868167 0)
(3.44315 0.764975 0)
(3.45532 0.734392 0)
(3.59846 0.696931 0)
(3.94923 0.764487 0)
(3.62282 0.742805 0)
(4.09716 0.811298 0)
(4.06701 1.07972 0)
(3.97363 1.13078 0)
(3.91584 1.17814 0)
(4.05615 1.00666 0)
(3.86736 0.7515 0)
(4.13162 0.200919 0)
(4.4112 -0.29154 0)
(4.4114 -0.528441 0)
(4.67049 -1.17445 0)
(5.24395 -0.729774 0)
(-2.40858 -0.768209 0)
(2.52624 -0.951183 0)
(-2.785 -1.23913 0)
(-0.228695 1.87187 0)
(-0.0972392 -0.252429 0)
(0.686362 -1.49195 0)
(-1.53336 -0.143112 0)
(0.447884 0.283709 0)
(0.520635 0.156015 0)
(1.34589 -0.108321 0)
(1.7843 -0.360939 0)
(1.75325 -0.39321 0)
(2.109 -0.412772 0)
(2.10032 -0.563465 0)
(2.44367 -0.576333 0)
(2.30971 -0.644596 0)
(2.06295 -0.601476 0)
(2.32399 -0.680484 0)
(1.741 -0.388854 0)
(1.85201 -0.185982 0)
(1.97768 -0.073217 0)
(1.69584 0.144373 0)
(2.05368 0.108612 0)
(2.26791 0.145379 0)
(2.27829 0.146548 0)
(2.52689 0.112655 0)
(2.95142 -0.125792 0)
(3.14064 -0.189494 0)
(3.31286 0.048315 0)
(3.75918 0.0184463 0)
(4.06238 0.261173 0)
(4.45002 0.518673 0)
(5.01933 0.581597 0)
(5.58771 0.510714 0)
(5.84494 0.408101 0)
(6.72497 0.0130064 0)
(6.4875 -0.34355 0)
(6.85923 -0.526291 0)
(6.81187 -1.09994 0)
(6.20272 -0.872056 0)
(11.1233 -1.61368 0)
(8.97711 2.81545 0)
(11.5746 -0.959721 0)
(11.1366 6.85378 0)
(10.3471 -1.33735 0)
(9.70308 2.99172 0)
(10.9475 0.324882 0)
(11.379 4.058 0)
(9.83074 -0.480199 0)
(10.0865 1.22079 0)
(10.0489 0.360275 0)
(11.0837 1.10499 0)
(9.88908 -0.063855 0)
(10.041 0.143343 0)
(10.1148 0.107014 0)
(10.8397 0.227195 0)
(11.8473 5.26326 4.30359e-17)
(16.6841 4.59589 -7.03463e-17)
(13.0619 2.24562 0)
(13.8615 0.34998 0)
(11.5966 0.449905 0)
(12.714 -0.176318 0)
(11.4062 0.200648 0)
(12.2281 0.208032 0)
(8.42152 2.37177 0)
(11.3403 1.99021 0)
(7.1884 1.55089 0)
(7.56852 0.658829 0)
(13.0257 -0.580554 0)
(13.3193 -1.29928 0)
(13.3222 -0.621733 0)
(13.7402 -0.313425 0)
(13.2471 -0.176787 0)
(13.6727 0.189851 0)
(13.9406 0.590351 0)
(14.0396 0.715811 0)
(12.7315 0.180333 0)
(13.0556 0.195489 0)
(13.1941 0.104285 0)
(13.2319 -0.0100967 0)
(9.58717 0.314189 0)
(8.55499 0.46888 0)
(9.37419 0.494485 0)
(8.31332 0.664794 0)
(7.62663 0.357917 0)
(8.86014 0.135746 0)
(8.71467 0.106781 0)
(8.95808 0.0514352 0)
(8.97795 -0.0278647 0)
(9.34593 -0.181524 0)
(10.0582 -0.288881 0)
(9.903 -0.264003 0)
(10.5823 -0.295407 0)
(10.1785 -0.221635 0)
(10.3154 -0.207031 0)
(10.0041 -0.132194 0)
(9.47375 -0.145917 0)
(9.61299 -0.143457 0)
(8.51353 -0.0568471 0)
(8.70957 -0.00775389 0)
(7.91255 0.140957 0)
(7.99434 0.182487 0)
(8.2093 0.170312 0)
(7.91913 0.239721 0)
(8.86403 0.122221 0)
(8.38159 0.240475 0)
(9.21586 0.0533113 0)
(9.21102 0.0454032 0)
(9.29796 0.0547567 0)
(9.79315 0.00965951 0)
(9.44819 0.223317 0)
(10.3148 0.183728 0)
(10.0663 0.348587 0)
(10.9458 0.171755 0)
(11.2586 0.0405847 0)
(11.6563 -0.176683 0)
(12.4731 -0.470315 0)
(12.3152 -0.490889 0)
(13.188 -0.606781 0)
(12.744 -0.326311 0)
(14.1335 -0.418615 0)
(14.3131 -0.572302 0)
(14.2753 -0.557492 0)
(14.036 -0.492847 0)
(13.8769 -0.296302 0)
(13.7863 -0.433739 0)
(14.0967 -0.600364 0)
(13.8434 -0.632362 0)
(14.033 -0.820242 0)
(13.7703 -0.756939 0)
(13.973 -1.0222 0)
(13.7505 -0.912797 0)
(13.7249 -0.973068 0)
(13.5859 -0.868336 0)
(13.3693 -0.635579 0)
(13.471 -0.591748 0)
(13.1746 -0.178932 0)
(13.3612 -0.18827 0)
(13.0848 0.163338 0)
(13.149 0.19085 0)
(13.1508 0.237084 0)
(12.9761 0.331228 0)
(13.2667 0.00455717 0)
(12.9425 0.115517 0)
(13.3937 -0.351533 0)
(13.0556 -0.249828 0)
(13.322 -0.514344 0)
(13.1146 -0.531441 0)
(13.182 -0.422817 0)
(13.2017 -0.521751 0)
(13.1461 -0.152492 0)
(13.3475 -0.393909 0)
(13.3001 -0.130758 0)
(13.5524 -0.464 0)
(13.5285 -0.541997 0)
(13.5381 -0.77914 0)
(13.3406 -1.16321 0)
(12.9076 -1.05714 0)
(12.6228 -1.44581 0)
(12.0332 -0.781671 0)
(14.1432 0.682308 0)
(14.1888 0.446072 0)
(14.261 0.379943 0)
(14.1544 0.225395 0)
(14.0484 0.322524 0)
(13.9489 0.292364 0)
(13.8848 0.214202 0)
(13.8226 0.131973 0)
(13.6297 0.0180699 0)
(13.4685 0.0655679 0)
(13.2481 -0.0526098 0)
(13.0856 0.0361441 0)
(12.8625 0.0218378 0)
(12.6505 0.13019 0)
(12.4533 0.209427 0)
(12.2947 0.178764 0)
(12.2559 0.323206 0)
(12.2846 0.224277 0)
(12.4136 0.380297 0)
(12.5383 0.309451 0)
(12.6772 0.359419 0)
(12.7574 0.299801 0)
(12.8608 0.193403 0)
(12.933 0.153783 0)
(13.0029 -0.00806687 0)
(12.9254 0.0186212 0)
(12.9008 -0.0647064 0)
(12.7308 0.0218801 0)
(12.7235 0.0554526 0)
(12.5801 0.116295 0)
(12.6142 0.222696 0)
(12.5708 0.143407 0)
(12.5702 0.216611 0)
(12.5622 -0.0162886 0)
(12.35 -0.0296947 0)
(12.2973 -0.184829 0)
(11.9484 -0.123311 0)
(11.8411 -0.00347416 0)
(11.5386 0.103959 0)
(11.1946 0.301672 0)
(13.3326 -0.0995866 0)
(13.3413 -0.215187 0)
(13.4143 -0.291218 0)
(13.3702 -0.403298 0)
(13.3383 -0.373673 0)
(13.1484 -0.376201 0)
(13.027 -0.395604 0)
(12.878 -0.42364 0)
(12.6896 -0.48727 0)
(12.4512 -0.461707 0)
(12.1843 -0.531226 0)
(11.9802 -0.512775 0)
(11.7374 -0.543319 0)
(11.4549 -0.515346 0)
(11.2697 -0.500956 0)
(11.0822 -0.459211 0)
(11.0958 -0.342647 0)
(10.9929 -0.297805 0)
(11.1675 -0.205747 0)
(11.1957 -0.192668 0)
(11.3714 -0.150744 0)
(11.4027 -0.134309 0)
(11.4658 -0.154137 0)
(11.5374 -0.132298 0)
(11.5007 -0.207892 0)
(11.4532 -0.166466 0)
(11.2797 -0.244916 0)
(11.0872 -0.222198 0)
(11.0237 -0.277103 0)
(10.7855 -0.287935 0)
(10.9115 -0.276332 0)
(10.6607 -0.336826 0)
(10.8179 -0.301626 0)
(10.5771 -0.401429 0)
(10.4915 -0.387417 0)
(10.2617 -0.47122 0)
(9.83224 -0.52421 0)
(9.67261 -0.521807 0)
(9.23219 -0.591577 0)
(9.12046 -0.405298 0)
)
;

boundaryField
{
    inlet
    {
        type            fixedValue;
        value           uniform (10 0 0);
    }
    outlet
    {
        type            zeroGradient;
    }
    obstacle
    {
        type            noSlip;
    }
    upperWall
    {
        type            noSlip;
    }
    lowerWall
    {
        type            noSlip;
    }
    frontAndBack
    {
        type            empty;
    }
}


// ************************************************************************* //
