/*--------------------------------*- C++ -*----------------------------------*\
  =========                 |
  \\      /  F ield         | OpenFOAM: The Open Source CFD Toolbox
   \\    /   O peration     | Website:  https://openfoam.org
    \\  /    A nd           | Version:  10
     \\/     M anipulation  |
\*---------------------------------------------------------------------------*/
FoamFile
{
    format      ascii;
    class       volScalarField;
    location    "2.525";
    object      p;
}
// * * * * * * * * * * * * * * * * * * * * * * * * * * * * * * * * * * * * * //

dimensions      [0 2 -2 0 0 0 0];

internalField   nonuniform List<scalar> 
400
(
3.08167e-09
-2.45273e-05
1.23667e-05
8.33076e-05
0.000191989
0.000337696
0.000518595
0.000732135
0.000974715
0.0012415
0.00152626
0.00182138
0.00211771
0.00240492
0.00267165
0.00290615
0.0030967
0.00323294
0.00331335
0.00329992
2.35054e-05
-2.4756e-06
3.40408e-05
0.000102459
0.000207485
0.00034886
0.000525055
0.000733811
0.000971804
0.00123446
0.00151575
0.00180802
0.00210256
0.00238892
0.00265565
0.00289078
0.00308233
0.00321977
0.00330234
0.0032877
-1.60934e-05
-4.56426e-05
-9.89683e-06
5.77169e-05
0.000162431
0.000304225
0.000481847
0.00069334
0.000935656
0.00120443
0.00149385
0.00179667
0.00210341
0.00240337
0.00268447
0.00293378
0.00313803
0.00328527
0.00337424
0.00335733
-9.45062e-05
-0.00012762
-9.26177e-05
-2.54849e-05
7.97036e-05
0.000223337
0.000404597
0.000621984
0.000872885
0.0011533
0.00145763
0.00177862
0.00210685
0.00243079
0.00273713
0.00301137
0.00323814
0.00340298
0.00350357
0.00348581
-0.000216756
-0.000254159
-0.000219931
-0.000152958
-4.64262e-05
0.000100615
0.000287941
0.000514677
0.000778805
0.00107684
0.00140354
0.00175176
0.00211185
0.00247151
0.00281591
0.00312812
0.00338957
0.0035819
0.00370083
0.00368322
-0.000384898
-0.00042779
-0.000394614
-0.000327891
-0.000219652
-6.82042e-05
0.000127022
0.000365988
0.000647489
0.000968774
0.00132517
0.00170985
0.0021131
0.00252178
0.0029192
0.00328527
0.00359693
0.0038299
0.00397642
0.00396037
-0.000601256
-0.000651176
-0.000619704
-0.00055392
-0.000444352
-0.000288342
-8.42721e-05
0.000168924
0.000471139
0.000820659
0.00121372
0.00164408
0.00210244
0.00257499
0.00304316
0.00348299
0.00386528
0.00415709
0.00434458
0.00433292
-0.000868868
-0.000927768
-0.000899155
-0.000835771
-0.000726206
-0.000566554
-0.000353841
-8.55777e-05
0.000239561
0.000621283
0.00105718
0.00154213
0.00206796
0.0026208
0.00318062
0.00371939
0.00419986
0.00457669
0.00482526
0.00482407
-0.0011913
-0.00126166
-0.00123769
-0.00117915
-0.00107213
-0.000911115
-0.000691415
-0.000408763
-6.00361e-05
0.000356322
0.000839811
0.00138717
0.00199247
0.00264304
0.00331866
0.00398787
0.00460416
0.00510474
0.00544562
0.00546844
-0.00157258
-0.00165752
-0.00164078
-0.00159076
-0.0014903
-0.00133189
-0.00110864
-0.000814157
-0.00044319
8.06501e-06
0.000541609
0.00115693
0.00185182
0.00261703
0.00343488
0.00427288
0.00507586
0.00575862
0.00624163
0.00631952
-0.00201719
-0.00212065
-0.00211464
-0.00207831
-0.00199028
-0.0018404
-0.00161911
-0.00131754
-0.00092812
-0.000444575
0.00013811
0.000823177
0.00161305
0.00250606
0.00349187
0.00454248
0.00559831
0.00655236
0.0072586
0.00746426
-0.00253025
-0.00265706
-0.00266631
-0.00265067
-0.00258312
-0.00244998
-0.00223839
-0.00193675
-0.00153529
-0.00102553
-0.000399441
0.000351705
0.00123274
0.00225741
0.00342941
0.00473607
0.00612548
0.00748189
0.00854796
0.00904997
-0.00311834
-0.00327359
-0.00330372
-0.00331803
-0.00328166
-0.003176
-0.00298401
-0.00269125
-0.00228638
-0.00175993
-0.0011023
-0.000301643
0.000657849
0.00180039
0.00315579
0.00474546
0.00655224
0.00848815
0.0101457
0.0113244
-0.00379265
-0.00398031
-0.00403646
-0.00409246
-0.00410118
-0.00403644
-0.00387568
-0.00360164
-0.00320271
-0.00267077
-0.00199759
-0.00116951
-0.00016077
0.00104821
0.00253565
0.00438088
0.00664968
0.009372
0.0119662
0.0147904
-0.00454833
-0.00478537
-0.00487609
-0.00499148
-0.00506244
-0.00505331
-0.00493553
-0.004689
-0.00430326
-0.00377531
-0.00310497
-0.00228991
-0.00131785
-0.000140414
0.00135291
0.00328698
0.00592034
0.00964036
0.0136059
0.0196562
-0.00554039
-0.00565871
-0.00578333
-0.0059656
-0.00613937
-0.00622901
-0.0061831
-0.00597546
-0.00560311
-0.00507656
-0.00441132
-0.00361634
-0.00268896
-0.00158003
-0.000205987
0.00149344
0.00387391
0.00807363
0.0127881
0.0242445
-0.00632604
-0.00704935
-0.00713582
-0.00750594
-0.00774238
-0.00784502
-0.00778186
-0.00754541
-0.00714333
-0.00659591
-0.00594259
-0.00522539
-0.00450365
-0.00383136
-0.00328878
-0.00272322
-0.00237488
0.00145271
0.005471
0.0260512
-0.0093559
-0.00727073
-0.0075405
-0.00786217
-0.00840383
-0.00882532
-0.00902912
-0.00896228
-0.00863646
-0.0080901
-0.00741285
-0.00667487
-0.00603473
-0.00563016
-0.00581113
-0.00661176
-0.00942022
-0.0073789
-0.00357997
0.0298624
-0.00714124
-0.010676
-0.0106993
-0.0118447
-0.0123122
-0.012467
-0.0122564
-0.0117655
-0.0110596
-0.0101822
-0.0092776
-0.00842235
-0.00784971
-0.00785125
-0.00905664
-0.011409
-0.0184388
-0.0168218
-0.00803906
0.0515087
-0.0299837
-0.00672613
-0.00721984
-0.00818439
-0.009187
-0.0100306
-0.0105602
-0.0106598
-0.0104034
-0.00976996
-0.00912044
-0.00826311
-0.00792671
-0.00757082
-0.00837027
-0.00830607
-0.00677336
0.0100873
0.057034
0.166433
)
;

boundaryField
{
    movingWall
    {
        type            zeroGradient;
    }
    fixedWalls
    {
        type            zeroGradient;
    }
    frontAndBack
    {
        type            empty;
    }
}


// ************************************************************************* //
