/*--------------------------------*- C++ -*----------------------------------*\
  =========                 |
  \\      /  F ield         | OpenFOAM: The Open Source CFD Toolbox
   \\    /   O peration     | Website:  https://openfoam.org
    \\  /    A nd           | Version:  10
     \\/     M anipulation  |
\*---------------------------------------------------------------------------*/
FoamFile
{
    format      ascii;
    class       volScalarField;
    location    "0.05";
    object      p;
}
// * * * * * * * * * * * * * * * * * * * * * * * * * * * * * * * * * * * * * //

dimensions      [0 2 -2 0 0 0 0];

internalField   nonuniform List<scalar> 
8000
(
1.31142e-09
0.000106239
0.000318096
0.000630076
0.00103415
0.00152003
0.00207549
0.00268671
0.00333862
0.00401531
0.00470033
0.00537705
0.00602902
0.00664033
0.00719589
0.00768188
0.00808606
0.00839813
0.00861005
0.00871632
-0.000106081
2.8668e-06
0.000220097
0.000539927
0.000954069
0.00145192
0.00202091
0.00264686
0.00331437
0.00400716
0.00470845
0.00540127
0.00606885
0.00669489
0.00726399
0.00776196
0.00817622
0.00849615
0.00871345
0.00882243
-0.000323181
-0.000208664
1.96145e-05
0.000355572
0.000790365
0.00131274
0.00190942
0.0025655
0.00326485
0.00399052
0.00472502
0.00545072
0.00615016
0.00680635
0.00740315
0.00792567
0.00836059
0.00869666
0.00892502
0.00903958
-0.000656965
-0.000533806
-0.000288406
7.24991e-05
0.000539177
0.00109933
0.00173858
0.00244089
0.00318905
0.00396504
0.00475038
0.00552642
0.00627468
0.00697712
0.00761652
0.00817685
0.00864369
0.00900473
0.00925023
0.00937345
-0.00111623
-0.000981014
-0.000711775
-0.000316219
0.000194611
0.000806917
0.00150473
0.00227047
0.00308544
0.00393023
0.00478502
0.00562987
0.00644497
0.00721088
0.00790889
0.00852141
0.00903244
0.00942818
0.00969755
0.00983283
-0.00171324
-0.00156205
-0.00126129
-0.000820078
-0.000251328
0.000429064
0.00120299
0.00205084
0.00295202
0.00388542
0.0048296
0.00576307
0.00666441
0.00751248
0.00828666
0.00896733
0.00953635
0.0099778
0.0102787
0.01043
-0.00246425
-0.00229242
-0.00195105
-0.00145133
-0.000808814
-4.22684e-05
0.000827367
0.00177788
0.0027864
0.00382981
0.00488488
0.00592839
0.00693711
0.00788791
0.00875789
0.0095248
0.0101677
0.0106677
0.0110093
0.0111813
-0.00339026
-0.00319201
-0.00279894
-0.00222524
-0.00149024
-0.000616658
0.000370869
0.0014469
0.00258589
0.00376252
0.00495172
0.00612848
0.00726774
0.00834414
0.00933212
0.0102062
0.0109417
0.0115158
0.0119092
0.0121076
-0.00451812
-0.00428603
-0.00382718
-0.00316032
-0.0023102
-0.001305
-0.000174173
0.00105291
0.0023477
0.00368266
0.00503098
0.00636611
0.00766125
0.00888881
0.0100202
0.0110261
0.0118769
0.0125443
0.0130036
0.0132359
-0.00588218
-0.00560628
-0.00506311
-0.00427852
-0.00328526
-0.00211904
-0.000815572
0.000591109
0.00206929
0.00358941
0.00512342
0.00664377
0.00812239
0.0095297
0.010834
0.0120011
0.0129952
0.0137806
0.0143244
0.0146006
-0.00752682
-0.00719303
-0.00654012
-0.00560533
-0.00443341
-0.00307053
-0.00156038
5.76564e-05
0.00174882
0.00348223
0.00522953
0.00696323
0.00865495
0.0102738
0.011785
0.013149
0.0143222
0.0152581
0.0159119
0.0162462
-0.00951055
-0.00909776
-0.00829866
-0.0071694
-0.00577285
-0.00416964
-0.00241339
-0.000549161
0.00138596
0.0033611
0.00534926
0.00732476
0.00926057
0.0111258
0.0128834
0.0144882
0.0158864
0.0170173
0.0178177
0.0182312
-0.0119127
-0.0113871
-0.0103872
-0.00900125
-0.00731962
-0.00542241
-0.00337488
-0.00122725
0.000982826
0.00322684
0.00548171
0.00772615
0.00993707
0.012086
0.0141352
0.0160345
0.0177184
0.0191066
0.0201085
0.0206353
-0.0148457
-0.0141484
-0.0128621
-0.0111301
-0.00908323
-0.00682657
-0.00443731
-0.00196841
0.000545388
0.00308159
0.00562467
0.00816135
0.0106761
0.0131465
0.0155379
0.0177972
0.0198472
0.0215825
0.0228718
0.023571
-0.0184777
-0.0174965
-0.0157851
-0.0135767
-0.011059
-0.00836528
-0.00558078
-0.00275537
8.50301e-05
0.00292928
0.00577415
0.00861889
0.0114603
0.0142874
0.0170744
0.0197714
0.0222933
0.0245064
0.0262225
0.0272071
-0.0230777
-0.021578
-0.0192123
-0.0163386
-0.0132157
-0.00999803
-0.00676724
-0.00355855
-0.00037983
0.00277612
0.00592389
0.0090803
0.01226
0.0154704
0.0187039
0.0219254
0.0250537
0.0279342
0.0303073
0.0318134
-0.0291103
-0.0265619
-0.0231651
-0.0193635
-0.0154758
-0.011649
-0.00793437
-0.00433324
-0.000822689
0.00263087
0.00606518
0.00951907
0.0130304
0.016633
0.0203501
0.0241811
0.0280752
0.0318861
0.0352945
0.0378562
-0.0375173
-0.0325677
-0.0275657
-0.0225028
-0.0176894
-0.0131944
-0.00899126
-0.00501894
-0.00120925
0.00250466
0.00618704
0.00990103
0.013711
0.0176841
0.0218889
0.0263874
0.0312075
0.0362818
0.0412999
0.0462734
-0.0481926
-0.0393051
-0.032074
-0.0254344
-0.0196029
-0.0144559
-0.00982006
-0.00554278
-0.00150017
0.00240997
0.00627722
0.0101871
0.0142291
0.0185058
0.0231414
0.0282894
0.0341249
0.0407756
0.048023
0.0569855
-0.0766416
-0.0483018
-0.0366322
-0.0277183
-0.0208626
-0.0152068
-0.0102863
-0.00582865
-0.00165654
0.00235927
0.00632506
0.0103403
0.0145113
0.0189674
0.0238865
0.0295426
0.0364044
0.0453497
0.0570648
0.0854883
-7.93739e-09
0.000106223
0.000318075
0.000630055
0.00103413
0.00152002
0.00207548
0.0026867
0.00333862
0.00401531
0.00470033
0.00537705
0.00602903
0.00664034
0.00719591
0.0076819
0.00808608
0.00839815
0.00861007
0.00871633
-0.000106079
2.85673e-06
0.000220084
0.000539915
0.000954057
0.00145191
0.0020209
0.00264686
0.00331436
0.00400716
0.00470845
0.00540127
0.00606885
0.0066949
0.00726401
0.00776198
0.00817623
0.00849616
0.00871346
0.00882243
-0.000323179
-0.000208673
1.96031e-05
0.00035556
0.000790355
0.00131273
0.00190941
0.00256549
0.00326485
0.00399052
0.00472502
0.00545073
0.00615016
0.00680635
0.00740316
0.00792568
0.0083606
0.00869667
0.00892503
0.00903958
-0.000656964
-0.000533815
-0.000288417
7.24877e-05
0.000539167
0.00109933
0.00173857
0.00244089
0.00318905
0.00396504
0.00475038
0.00552642
0.00627468
0.00697713
0.00761653
0.00817686
0.0086437
0.00900475
0.00925024
0.00937345
-0.00111623
-0.000981026
-0.000711788
-0.000316231
0.000194602
0.000806909
0.00150472
0.00227046
0.00308544
0.00393023
0.00478502
0.00562988
0.00644497
0.00721088
0.0079089
0.00852142
0.00903246
0.00942819
0.00969756
0.00983283
-0.00171324
-0.00156206
-0.0012613
-0.00082009
-0.000251338
0.000429057
0.00120299
0.00205084
0.00295202
0.00388542
0.0048296
0.00576307
0.00666442
0.00751248
0.00828667
0.00896734
0.00953637
0.00997781
0.0102787
0.01043
-0.00246425
-0.00229243
-0.00195107
-0.00145135
-0.000808823
-4.22738e-05
0.000827365
0.00177788
0.0027864
0.00382981
0.00488488
0.00592839
0.00693712
0.00788791
0.00875789
0.00952481
0.0101677
0.0106677
0.0110093
0.0111813
-0.00339027
-0.00319203
-0.00279896
-0.00222526
-0.00149025
-0.000616661
0.000370869
0.0014469
0.00258589
0.00376253
0.00495172
0.00612848
0.00726774
0.00834414
0.00933212
0.0102062
0.0109417
0.0115158
0.0119092
0.0121076
-0.00451813
-0.00428606
-0.0038272
-0.00316033
-0.00231021
-0.001305
-0.000174168
0.00105291
0.00234771
0.00368266
0.00503097
0.00636611
0.00766124
0.00888881
0.0100202
0.0110261
0.0118769
0.0125443
0.0130036
0.0132359
-0.0058822
-0.00560631
-0.00506314
-0.00427853
-0.00328526
-0.00211903
-0.00081556
0.000591121
0.0020693
0.00358942
0.00512342
0.00664376
0.00812238
0.00952969
0.0108339
0.0120011
0.0129952
0.0137806
0.0143244
0.0146007
-0.00752686
-0.00719307
-0.00654015
-0.00560534
-0.00443339
-0.0030705
-0.00156036
5.76768e-05
0.00174884
0.00348224
0.00522953
0.00696321
0.00865493
0.0102738
0.011785
0.013149
0.0143222
0.0152581
0.015912
0.0162462
-0.00951061
-0.00909782
-0.00829869
-0.00716938
-0.00577281
-0.0041696
-0.00241335
-0.000549129
0.00138598
0.00336111
0.00534926
0.00732474
0.00926054
0.0111258
0.0128834
0.0144882
0.0158864
0.0170173
0.0178178
0.0182313
-0.0119128
-0.0113872
-0.0103872
-0.0090012
-0.00731955
-0.00542233
-0.00337481
-0.00122721
0.000982854
0.00322685
0.0054817
0.00772612
0.00993702
0.0120859
0.0141351
0.0160344
0.0177183
0.0191066
0.0201086
0.0206354
-0.014846
-0.0141485
-0.0128621
-0.01113
-0.00908309
-0.00682645
-0.00443722
-0.00196835
0.000545423
0.0030816
0.00562466
0.00816131
0.0106761
0.0131464
0.0155377
0.017797
0.0198471
0.0215824
0.0228719
0.0235713
-0.0184781
-0.0174965
-0.0157849
-0.0135764
-0.0110588
-0.00836511
-0.00558066
-0.0027553
8.50693e-05
0.00292929
0.00577413
0.00861885
0.0114603
0.0142873
0.0170742
0.0197712
0.022293
0.0245062
0.0262225
0.0272075
-0.0230785
-0.0215778
-0.0192118
-0.0163382
-0.0132153
-0.00999781
-0.00676711
-0.00355847
-0.000379794
0.00277613
0.00592388
0.00908026
0.0122599
0.0154703
0.0187037
0.0219251
0.0250533
0.0279338
0.0303071
0.0318142
-0.0291118
-0.0265608
-0.0231642
-0.0193628
-0.0154754
-0.0116488
-0.00793426
-0.00433319
-0.000822668
0.00263087
0.00606517
0.00951905
0.0130303
0.0166329
0.0203499
0.0241807
0.0280745
0.0318852
0.0352935
0.0378578
-0.037522
-0.0325644
-0.027564
-0.0225019
-0.017689
-0.0131943
-0.00899122
-0.00501894
-0.00120926
0.00250466
0.00618703
0.00990103
0.013711
0.017684
0.0218887
0.0263869
0.0312065
0.0362801
0.0412966
0.0462782
-0.0481787
-0.0392923
-0.0320707
-0.0254335
-0.0196028
-0.014456
-0.00982018
-0.00554287
-0.00150023
0.00240994
0.00627722
0.0101871
0.0142292
0.0185059
0.0231415
0.0282891
0.0341238
0.040772
0.0480098
0.056972
-0.0766746
-0.0482897
-0.0366364
-0.0277201
-0.0208636
-0.0152073
-0.0102866
-0.0058288
-0.00165662
0.00235923
0.00632506
0.0103403
0.0145114
0.0189676
0.0238869
0.0295434
0.036406
0.0453538
0.0570529
0.0855222
-1.35831e-08
0.000106212
0.000318063
0.000630044
0.00103412
0.00152001
0.00207547
0.00268669
0.00333862
0.00401531
0.00470033
0.00537706
0.00602904
0.00664035
0.00719592
0.00768191
0.0080861
0.00839817
0.00861008
0.00871634
-0.000106087
2.84728e-06
0.000220073
0.000539905
0.000954049
0.0014519
0.0020209
0.00264685
0.00331436
0.00400716
0.00470845
0.00540128
0.00606886
0.00669491
0.00726401
0.00776199
0.00817624
0.00849617
0.00871347
0.00882244
-0.000323187
-0.000208682
1.95941e-05
0.000355552
0.000790347
0.00131273
0.00190941
0.00256549
0.00326485
0.00399051
0.00472502
0.00545073
0.00615017
0.00680636
0.00740317
0.00792568
0.00836061
0.00869668
0.00892504
0.00903959
-0.000656969
-0.000533823
-0.000288425
7.24801e-05
0.000539161
0.00109932
0.00173857
0.00244088
0.00318905
0.00396504
0.00475038
0.00552642
0.00627468
0.00697713
0.00761654
0.00817687
0.00864371
0.00900475
0.00925025
0.00937345
-0.00111623
-0.000981032
-0.000711795
-0.000316238
0.000194596
0.000806905
0.00150472
0.00227046
0.00308544
0.00393023
0.00478502
0.00562988
0.00644497
0.00721089
0.0079089
0.00852142
0.00903246
0.0094282
0.00969756
0.00983283
-0.00171324
-0.00156207
-0.00126131
-0.000820097
-0.000251343
0.000429053
0.00120299
0.00205083
0.00295202
0.00388542
0.0048296
0.00576307
0.00666442
0.00751248
0.00828667
0.00896735
0.00953637
0.00997782
0.0102787
0.01043
-0.00246426
-0.00229244
-0.00195107
-0.00145135
-0.000808827
-4.22761e-05
0.000827364
0.00177788
0.00278641
0.00382981
0.00488488
0.00592839
0.00693712
0.00788791
0.00875789
0.00952481
0.0101677
0.0106677
0.0110093
0.0111813
-0.00339027
-0.00319204
-0.00279896
-0.00222526
-0.00149025
-0.000616661
0.00037087
0.0014469
0.0025859
0.00376253
0.00495172
0.00612848
0.00726774
0.00834414
0.00933212
0.0102062
0.0109417
0.0115158
0.0119092
0.0121076
-0.00451814
-0.00428607
-0.00382721
-0.00316033
-0.00231021
-0.00130499
-0.000174163
0.00105292
0.00234771
0.00368267
0.00503097
0.0063661
0.00766124
0.00888881
0.0100202
0.0110261
0.0118769
0.0125443
0.0130036
0.013236
-0.00588221
-0.00560632
-0.00506314
-0.00427853
-0.00328525
-0.00211902
-0.000815549
0.00059113
0.0020693
0.00358942
0.00512342
0.00664376
0.00812237
0.00952968
0.0108339
0.0120011
0.0129952
0.0137806
0.0143245
0.0146007
-0.00752687
-0.00719308
-0.00654015
-0.00560533
-0.00443338
-0.00307048
-0.00156034
5.76915e-05
0.00174885
0.00348224
0.00522952
0.0069632
0.00865492
0.0102738
0.0117849
0.013149
0.0143222
0.0152581
0.015912
0.0162463
-0.00951063
-0.00909783
-0.00829868
-0.00716936
-0.00577278
-0.00416956
-0.00241332
-0.000549107
0.00138599
0.00336111
0.00534925
0.00732472
0.00926052
0.0111258
0.0128833
0.0144881
0.0158864
0.0170173
0.0178178
0.0182313
-0.0119129
-0.0113872
-0.0103872
-0.00900116
-0.0073195
-0.00542228
-0.00337477
-0.00122718
0.000982872
0.00322686
0.0054817
0.0077261
0.00993699
0.0120859
0.0141351
0.0160343
0.0177183
0.0191066
0.0201086
0.0206354
-0.014846
-0.0141485
-0.012862
-0.0111299
-0.00908301
-0.00682638
-0.00443716
-0.00196831
0.000545446
0.00308161
0.00562465
0.00816129
0.010676
0.0131464
0.0155377
0.017797
0.019847
0.0215824
0.0228719
0.0235713
-0.0184781
-0.0174965
-0.0157848
-0.0135763
-0.0110587
-0.008365
-0.00558059
-0.00275525
8.50954e-05
0.0029293
0.00577412
0.00861882
0.0114602
0.0142872
0.0170741
0.0197711
0.0222929
0.0245061
0.0262225
0.0272076
-0.0230786
-0.0215776
-0.0192116
-0.0163379
-0.0132152
-0.00999768
-0.00676702
-0.00355842
-0.000379769
0.00277613
0.00592387
0.00908023
0.0122599
0.0154702
0.0187035
0.0219249
0.025053
0.0279335
0.030307
0.0318144
-0.029112
-0.0265604
-0.0231637
-0.0193625
-0.0154752
-0.0116486
-0.00793418
-0.00433315
-0.000822651
0.00263088
0.00606516
0.00951902
0.0130303
0.0166328
0.0203497
0.0241804
0.0280742
0.0318847
0.0352931
0.0378581
-0.0375226
-0.0325635
-0.0275633
-0.0225015
-0.0176888
-0.0131942
-0.00899117
-0.00501893
-0.00120926
0.00250465
0.00618702
0.00990102
0.013711
0.0176839
0.0218886
0.0263867
0.031206
0.0362794
0.0412957
0.0462789
-0.0481773
-0.03929
-0.0320697
-0.0254331
-0.0196027
-0.014456
-0.00982019
-0.00554289
-0.00150025
0.00240993
0.00627721
0.0101871
0.0142292
0.0185058
0.0231414
0.028289
0.0341233
0.040771
0.0480076
0.0569707
-0.0766801
-0.0482885
-0.0366368
-0.0277204
-0.0208637
-0.0152075
-0.0102867
-0.00582885
-0.00165665
0.00235921
0.00632505
0.0103403
0.0145114
0.0189676
0.023887
0.0295435
0.0364062
0.0453542
0.0570518
0.0855281
-1.98248e-08
0.000106205
0.000318056
0.000630036
0.00103412
0.00152
0.00207547
0.00268669
0.00333861
0.00401531
0.00470033
0.00537706
0.00602904
0.00664035
0.00719592
0.00768192
0.0080861
0.00839817
0.00861009
0.00871635
-0.000106092
2.84053e-06
0.000220066
0.000539898
0.000954042
0.0014519
0.00202089
0.00264685
0.00331436
0.00400716
0.00470845
0.00540128
0.00606886
0.00669491
0.00726402
0.00776199
0.00817625
0.00849618
0.00871347
0.00882244
-0.000323191
-0.000208688
1.95877e-05
0.000355546
0.000790342
0.00131272
0.0019094
0.00256548
0.00326485
0.00399051
0.00472502
0.00545073
0.00615017
0.00680636
0.00740317
0.00792569
0.00836062
0.00869669
0.00892505
0.00903959
-0.000656973
-0.000533828
-0.000288431
7.24745e-05
0.000539156
0.00109932
0.00173857
0.00244088
0.00318905
0.00396504
0.00475038
0.00552642
0.00627469
0.00697713
0.00761654
0.00817687
0.00864371
0.00900476
0.00925026
0.00937346
-0.00111624
-0.000981037
-0.000711801
-0.000316243
0.000194591
0.000806901
0.00150472
0.00227046
0.00308544
0.00393023
0.00478502
0.00562988
0.00644498
0.00721089
0.0079089
0.00852143
0.00903247
0.0094282
0.00969757
0.00983284
-0.00171325
-0.00156207
-0.00126131
-0.000820102
-0.000251346
0.000429051
0.00120298
0.00205083
0.00295202
0.00388542
0.0048296
0.00576307
0.00666442
0.00751248
0.00828668
0.00896735
0.00953638
0.00997782
0.0102788
0.01043
-0.00246426
-0.00229244
-0.00195108
-0.00145136
-0.000808829
-4.22771e-05
0.000827364
0.00177788
0.00278641
0.00382981
0.00488488
0.00592839
0.00693712
0.00788791
0.0087579
0.00952481
0.0101677
0.0106677
0.0110093
0.0111813
-0.00339028
-0.00319204
-0.00279897
-0.00222527
-0.00149025
-0.00061666
0.000370872
0.0014469
0.0025859
0.00376253
0.00495172
0.00612848
0.00726774
0.00834414
0.00933212
0.0102062
0.0109417
0.0115158
0.0119092
0.0121076
-0.00451814
-0.00428607
-0.00382721
-0.00316033
-0.0023102
-0.00130499
-0.000174157
0.00105292
0.00234772
0.00368267
0.00503097
0.0063661
0.00766123
0.0088888
0.0100202
0.0110261
0.0118769
0.0125443
0.0130036
0.013236
-0.00588221
-0.00560633
-0.00506314
-0.00427852
-0.00328525
-0.00211901
-0.000815539
0.000591138
0.00206931
0.00358942
0.00512341
0.00664375
0.00812236
0.00952967
0.0108339
0.012001
0.0129952
0.0137807
0.0143245
0.0146007
-0.00752688
-0.00719309
-0.00654015
-0.00560532
-0.00443336
-0.00307047
-0.00156032
5.77043e-05
0.00174885
0.00348224
0.00522952
0.0069632
0.0086549
0.0102737
0.0117849
0.013149
0.0143222
0.0152581
0.015912
0.0162463
-0.00951064
-0.00909783
-0.00829867
-0.00716934
-0.00577275
-0.00416954
-0.00241329
-0.000549088
0.001386
0.00336112
0.00534925
0.00732471
0.0092605
0.0111257
0.0128833
0.0144881
0.0158864
0.0170173
0.0178178
0.0182313
-0.0119129
-0.0113872
-0.0103871
-0.00900112
-0.00731945
-0.00542224
-0.00337473
-0.00122715
0.000982888
0.00322686
0.00548169
0.00772608
0.00993696
0.0120858
0.014135
0.0160343
0.0177183
0.0191066
0.0201086
0.0206355
-0.014846
-0.0141485
-0.0128619
-0.0111298
-0.00908294
-0.00682632
-0.00443712
-0.00196828
0.000545465
0.00308162
0.00562464
0.00816127
0.010676
0.0131463
0.0155376
0.0177969
0.0198469
0.0215824
0.0228719
0.0235713
-0.0184782
-0.0174964
-0.0157847
-0.0135762
-0.0110586
-0.00836492
-0.00558053
-0.00275521
8.51165e-05
0.0029293
0.00577411
0.0086188
0.0114602
0.0142872
0.017074
0.019771
0.0222928
0.024506
0.0262225
0.0272076
-0.0230786
-0.0215775
-0.0192114
-0.0163377
-0.013215
-0.00999758
-0.00676696
-0.00355838
-0.000379748
0.00277614
0.00592386
0.0090802
0.0122598
0.0154701
0.0187034
0.0219248
0.0250529
0.0279334
0.0303069
0.0318144
-0.0291121
-0.0265601
-0.0231634
-0.0193622
-0.015475
-0.0116485
-0.00793411
-0.00433311
-0.000822636
0.00263088
0.00606515
0.009519
0.0130302
0.0166327
0.0203496
0.0241802
0.0280739
0.0318844
0.0352928
0.0378582
-0.0375228
-0.0325629
-0.0275629
-0.0225012
-0.0176886
-0.0131941
-0.00899113
-0.00501891
-0.00120925
0.00250465
0.00618701
0.009901
0.0137109
0.0176839
0.0218885
0.0263865
0.0312057
0.0362789
0.0412952
0.0462791
-0.0481767
-0.0392889
-0.0320691
-0.0254328
-0.0196025
-0.014456
-0.00982018
-0.00554289
-0.00150026
0.00240992
0.0062772
0.0101871
0.0142292
0.0185058
0.0231413
0.0282888
0.0341231
0.0407704
0.0480064
0.0569702
-0.076683
-0.0482879
-0.0366369
-0.0277205
-0.0208638
-0.0152075
-0.0102867
-0.00582888
-0.00165667
0.0023592
0.00632504
0.0103403
0.0145114
0.0189676
0.023887
0.0295435
0.0364062
0.0453542
0.0570512
0.0855311
-2.4337e-08
0.0001062
0.00031805
0.00063003
0.00103411
0.00152
0.00207547
0.00268669
0.00333861
0.00401531
0.00470033
0.00537706
0.00602905
0.00664036
0.00719593
0.00768193
0.00808611
0.00839818
0.00861009
0.00871635
-0.000106097
2.8354e-06
0.000220061
0.000539893
0.000954038
0.00145189
0.00202089
0.00264685
0.00331436
0.00400716
0.00470845
0.00540128
0.00606886
0.00669492
0.00726402
0.007762
0.00817626
0.00849618
0.00871348
0.00882245
-0.000323196
-0.000208692
1.95829e-05
0.000355541
0.000790337
0.00131272
0.0019094
0.00256548
0.00326484
0.00399051
0.00472502
0.00545073
0.00615017
0.00680637
0.00740318
0.00792569
0.00836062
0.00869669
0.00892505
0.0090396
-0.000656978
-0.000533832
-0.000288436
7.24704e-05
0.000539152
0.00109931
0.00173856
0.00244088
0.00318905
0.00396504
0.00475038
0.00552643
0.00627469
0.00697714
0.00761655
0.00817688
0.00864372
0.00900476
0.00925026
0.00937346
-0.00111624
-0.000981041
-0.000711804
-0.000316247
0.000194589
0.000806899
0.00150471
0.00227046
0.00308544
0.00393023
0.00478502
0.00562988
0.00644498
0.00721089
0.00790891
0.00852143
0.00903247
0.00942821
0.00969757
0.00983284
-0.00171325
-0.00156208
-0.00126132
-0.000820104
-0.000251348
0.00042905
0.00120298
0.00205083
0.00295202
0.00388542
0.0048296
0.00576307
0.00666442
0.00751249
0.00828668
0.00896735
0.00953638
0.00997783
0.0102788
0.01043
-0.00246426
-0.00229245
-0.00195108
-0.00145136
-0.00080883
-4.22771e-05
0.000827364
0.00177788
0.00278641
0.00382981
0.00488488
0.00592839
0.00693712
0.00788791
0.0087579
0.00952482
0.0101677
0.0106677
0.0110093
0.0111813
-0.00339028
-0.00319204
-0.00279897
-0.00222527
-0.00149025
-0.000616658
0.000370875
0.00144691
0.0025859
0.00376253
0.00495171
0.00612848
0.00726774
0.00834414
0.00933212
0.0102062
0.0109417
0.0115158
0.0119092
0.0121076
-0.00451814
-0.00428607
-0.00382721
-0.00316033
-0.0023102
-0.00130498
-0.000174152
0.00105293
0.00234772
0.00368267
0.00503097
0.0063661
0.00766123
0.0088888
0.0100202
0.0110261
0.0118769
0.0125443
0.0130037
0.013236
-0.00588221
-0.00560633
-0.00506314
-0.00427852
-0.00328524
-0.002119
-0.000815531
0.000591145
0.00206931
0.00358942
0.00512341
0.00664375
0.00812235
0.00952966
0.0108339
0.012001
0.0129952
0.0137806
0.0143245
0.0146007
-0.00752688
-0.00719308
-0.00654014
-0.0056053
-0.00443335
-0.00307045
-0.00156031
5.77151e-05
0.00174886
0.00348225
0.00522952
0.00696319
0.00865489
0.0102737
0.0117849
0.013149
0.0143222
0.0152581
0.015912
0.0162463
-0.00951063
-0.00909782
-0.00829865
-0.00716932
-0.00577273
-0.00416951
-0.00241327
-0.000549073
0.00138601
0.00336112
0.00534925
0.0073247
0.00926048
0.0111257
0.0128833
0.0144881
0.0158863
0.0170173
0.0178178
0.0182313
-0.0119129
-0.0113872
-0.0103871
-0.00900108
-0.00731942
-0.00542221
-0.00337471
-0.00122713
0.0009829
0.00322687
0.00548169
0.00772607
0.00993694
0.0120858
0.014135
0.0160343
0.0177182
0.0191066
0.0201086
0.0206355
-0.014846
-0.0141485
-0.0128619
-0.0111298
-0.00908288
-0.00682627
-0.00443708
-0.00196825
0.00054548
0.00308162
0.00562464
0.00816125
0.0106759
0.0131463
0.0155376
0.0177968
0.0198469
0.0215823
0.0228719
0.0235713
-0.0184781
-0.0174963
-0.0157846
-0.0135761
-0.0110585
-0.00836486
-0.00558048
-0.00275518
8.51332e-05
0.00292931
0.00577411
0.00861878
0.0114601
0.0142871
0.0170739
0.0197709
0.0222927
0.024506
0.0262224
0.0272076
-0.0230786
-0.0215774
-0.0192113
-0.0163376
-0.0132149
-0.00999751
-0.0067669
-0.00355835
-0.000379732
0.00277614
0.00592385
0.00908018
0.0122598
0.0154701
0.0187033
0.0219247
0.0250528
0.0279332
0.0303068
0.0318144
-0.029112
-0.02656
-0.0231632
-0.0193621
-0.0154749
-0.0116484
-0.00793406
-0.00433308
-0.000822622
0.00263088
0.00606514
0.00951897
0.0130302
0.0166326
0.0203495
0.0241801
0.0280738
0.0318843
0.0352927
0.0378582
-0.0375228
-0.0325627
-0.0275626
-0.022501
-0.0176885
-0.013194
-0.00899109
-0.00501889
-0.00120925
0.00250465
0.006187
0.00990098
0.0137109
0.0176838
0.0218884
0.0263864
0.0312056
0.0362787
0.041295
0.0462792
-0.0481766
-0.0392885
-0.0320689
-0.0254326
-0.0196025
-0.0144559
-0.00982016
-0.00554288
-0.00150025
0.00240992
0.00627719
0.0101871
0.0142291
0.0185058
0.0231413
0.0282887
0.0341229
0.0407701
0.0480061
0.0569702
-0.0766839
-0.0482878
-0.0366368
-0.0277204
-0.0208638
-0.0152075
-0.0102867
-0.00582888
-0.00165667
0.00235919
0.00632503
0.0103403
0.0145114
0.0189676
0.023887
0.0295435
0.0364062
0.0453542
0.0570512
0.0855321
-2.76613e-08
0.000106196
0.000318046
0.000630027
0.00103411
0.00152
0.00207546
0.00268669
0.00333861
0.00401531
0.00470033
0.00537706
0.00602905
0.00664036
0.00719593
0.00768193
0.00808611
0.00839818
0.0086101
0.00871636
-0.0001061
2.83176e-06
0.000220057
0.000539889
0.000954034
0.00145189
0.00202089
0.00264684
0.00331436
0.00400716
0.00470845
0.00540128
0.00606886
0.00669492
0.00726403
0.007762
0.00817626
0.00849619
0.00871348
0.00882245
-0.000323199
-0.000208696
1.95794e-05
0.000355538
0.000790335
0.00131271
0.0019094
0.00256548
0.00326484
0.00399051
0.00472502
0.00545073
0.00615017
0.00680637
0.00740318
0.0079257
0.00836063
0.0086967
0.00892505
0.0090396
-0.00065698
-0.000533835
-0.000288439
7.24676e-05
0.00053915
0.00109931
0.00173856
0.00244088
0.00318904
0.00396504
0.00475038
0.00552643
0.00627469
0.00697714
0.00761655
0.00817688
0.00864372
0.00900477
0.00925026
0.00937346
-0.00111624
-0.000981043
-0.000711807
-0.000316249
0.000194587
0.000806898
0.00150471
0.00227046
0.00308544
0.00393023
0.00478502
0.00562988
0.00644498
0.00721089
0.00790891
0.00852143
0.00903247
0.00942821
0.00969758
0.00983284
-0.00171325
-0.00156208
-0.00126132
-0.000820106
-0.000251349
0.000429049
0.00120298
0.00205083
0.00295202
0.00388542
0.0048296
0.00576307
0.00666442
0.00751249
0.00828668
0.00896736
0.00953638
0.00997783
0.0102788
0.01043
-0.00246426
-0.00229245
-0.00195108
-0.00145136
-0.00080883
-4.22765e-05
0.000827365
0.00177788
0.00278641
0.00382981
0.00488488
0.00592839
0.00693711
0.00788791
0.0087579
0.00952482
0.0101677
0.0106677
0.0110093
0.0111813
-0.00339028
-0.00319204
-0.00279897
-0.00222526
-0.00149025
-0.000616655
0.000370877
0.00144691
0.0025859
0.00376253
0.00495171
0.00612848
0.00726773
0.00834414
0.00933212
0.0102062
0.0109417
0.0115158
0.0119092
0.0121076
-0.00451814
-0.00428607
-0.00382721
-0.00316033
-0.00231019
-0.00130498
-0.000174148
0.00105293
0.00234772
0.00368267
0.00503097
0.0063661
0.00766123
0.00888879
0.0100202
0.0110261
0.0118769
0.0125443
0.0130037
0.013236
-0.00588221
-0.00560632
-0.00506313
-0.00427851
-0.00328523
-0.00211899
-0.000815523
0.000591151
0.00206932
0.00358942
0.00512341
0.00664374
0.00812235
0.00952966
0.0108339
0.012001
0.0129952
0.0137806
0.0143245
0.0146007
-0.00752687
-0.00719307
-0.00654013
-0.00560529
-0.00443333
-0.00307044
-0.0015603
5.77239e-05
0.00174887
0.00348225
0.00522952
0.00696318
0.00865489
0.0102737
0.0117849
0.013149
0.0143222
0.0152581
0.015912
0.0162463
-0.00951062
-0.0090978
-0.00829863
-0.0071693
-0.00577271
-0.00416949
-0.00241326
-0.00054906
0.00138602
0.00336112
0.00534924
0.00732469
0.00926047
0.0111257
0.0128833
0.0144881
0.0158863
0.0170173
0.0178178
0.0182313
-0.0119129
-0.0113872
-0.0103871
-0.00900106
-0.00731939
-0.00542218
-0.00337468
-0.00122711
0.00098291
0.00322687
0.00548168
0.00772606
0.00993692
0.0120858
0.014135
0.0160342
0.0177182
0.0191065
0.0201086
0.0206354
-0.014846
-0.0141484
-0.0128619
-0.0111298
-0.00908284
-0.00682623
-0.00443705
-0.00196823
0.000545492
0.00308162
0.00562463
0.00816124
0.0106759
0.0131463
0.0155375
0.0177968
0.0198468
0.0215823
0.0228718
0.0235713
-0.0184781
-0.0174963
-0.0157845
-0.013576
-0.0110584
-0.00836482
-0.00558045
-0.00275516
8.51461e-05
0.00292931
0.0057741
0.00861876
0.0114601
0.0142871
0.0170739
0.0197708
0.0222926
0.0245059
0.0262224
0.0272076
-0.0230786
-0.0215773
-0.0192112
-0.0163376
-0.0132149
-0.00999746
-0.00676687
-0.00355833
-0.000379719
0.00277614
0.00592384
0.00908016
0.0122598
0.01547
0.0187033
0.0219246
0.0250527
0.0279332
0.0303067
0.0318144
-0.029112
-0.0265599
-0.0231631
-0.019362
-0.0154748
-0.0116484
-0.00793403
-0.00433306
-0.000822611
0.00263088
0.00606513
0.00951896
0.0130302
0.0166326
0.0203495
0.02418
0.0280737
0.0318842
0.0352926
0.0378582
-0.0375228
-0.0325626
-0.0275625
-0.0225009
-0.0176884
-0.013194
-0.00899106
-0.00501887
-0.00120924
0.00250465
0.006187
0.00990096
0.0137109
0.0176838
0.0218883
0.0263863
0.0312055
0.0362786
0.0412949
0.0462792
-0.0481766
-0.0392884
-0.0320688
-0.0254326
-0.0196024
-0.0144559
-0.00982014
-0.00554287
-0.00150025
0.00240992
0.00627718
0.010187
0.0142291
0.0185057
0.0231412
0.0282886
0.0341228
0.04077
0.048006
0.0569702
-0.0766843
-0.0482878
-0.0366368
-0.0277204
-0.0208637
-0.0152075
-0.0102867
-0.00582887
-0.00165667
0.00235919
0.00632502
0.0103403
0.0145113
0.0189676
0.0238869
0.0295435
0.0364061
0.0453542
0.0570512
0.0855325
-3.0438e-08
0.000106193
0.000318043
0.000630024
0.0010341
0.00151999
0.00207546
0.00268669
0.00333861
0.00401531
0.00470033
0.00537706
0.00602905
0.00664036
0.00719593
0.00768193
0.00808612
0.00839819
0.0086101
0.00871636
-0.000106103
2.82909e-06
0.000220054
0.000539887
0.000954032
0.00145189
0.00202088
0.00264684
0.00331436
0.00400716
0.00470845
0.00540128
0.00606887
0.00669492
0.00726403
0.007762
0.00817626
0.00849619
0.00871349
0.00882246
-0.000323201
-0.000208698
1.9577e-05
0.000355536
0.000790333
0.00131271
0.0019094
0.00256548
0.00326484
0.00399051
0.00472502
0.00545073
0.00615018
0.00680637
0.00740318
0.0079257
0.00836063
0.0086967
0.00892506
0.0090396
-0.000656982
-0.000533837
-0.000288441
7.24658e-05
0.000539148
0.00109931
0.00173856
0.00244088
0.00318904
0.00396504
0.00475038
0.00552643
0.00627469
0.00697714
0.00761655
0.00817688
0.00864372
0.00900477
0.00925027
0.00937346
-0.00111624
-0.000981045
-0.000711808
-0.00031625
0.000194586
0.000806897
0.00150471
0.00227046
0.00308544
0.00393023
0.00478502
0.00562988
0.00644498
0.00721089
0.00790891
0.00852143
0.00903248
0.00942821
0.00969758
0.00983285
-0.00171325
-0.00156208
-0.00126132
-0.000820106
-0.00025135
0.000429049
0.00120298
0.00205083
0.00295202
0.00388542
0.0048296
0.00576307
0.00666442
0.00751249
0.00828668
0.00896736
0.00953638
0.00997783
0.0102788
0.01043
-0.00246426
-0.00229245
-0.00195108
-0.00145136
-0.000808829
-4.22757e-05
0.000827366
0.00177788
0.00278641
0.00382981
0.00488488
0.00592839
0.00693711
0.00788791
0.00875789
0.00952482
0.0101677
0.0106677
0.0110093
0.0111813
-0.00339028
-0.00319204
-0.00279897
-0.00222526
-0.00149025
-0.000616653
0.000370879
0.00144691
0.0025859
0.00376253
0.00495171
0.00612848
0.00726773
0.00834413
0.00933212
0.0102062
0.0109417
0.0115158
0.0119092
0.0121076
-0.00451814
-0.00428607
-0.0038272
-0.00316032
-0.00231019
-0.00130497
-0.000174144
0.00105293
0.00234772
0.00368267
0.00503097
0.00636609
0.00766122
0.00888879
0.0100202
0.0110261
0.0118769
0.0125443
0.0130036
0.013236
-0.00588221
-0.00560632
-0.00506313
-0.0042785
-0.00328522
-0.00211899
-0.000815517
0.000591156
0.00206932
0.00358942
0.00512341
0.00664374
0.00812234
0.00952965
0.0108339
0.012001
0.0129952
0.0137806
0.0143245
0.0146007
-0.00752686
-0.00719307
-0.00654012
-0.00560528
-0.00443332
-0.00307043
-0.00156029
5.77308e-05
0.00174887
0.00348225
0.00522951
0.00696318
0.00865488
0.0102737
0.0117849
0.013149
0.0143221
0.0152581
0.015912
0.0162463
-0.00951061
-0.00909779
-0.00829862
-0.00716928
-0.00577269
-0.00416948
-0.00241324
-0.000549051
0.00138603
0.00336112
0.00534924
0.00732469
0.00926046
0.0111257
0.0128833
0.014488
0.0158863
0.0170173
0.0178177
0.0182313
-0.0119128
-0.0113871
-0.0103871
-0.00900103
-0.00731936
-0.00542216
-0.00337467
-0.0012271
0.000982917
0.00322687
0.00548168
0.00772605
0.00993691
0.0120857
0.0141349
0.0160342
0.0177182
0.0191065
0.0201086
0.0206354
-0.014846
-0.0141484
-0.0128618
-0.0111297
-0.00908281
-0.00682621
-0.00443703
-0.00196821
0.000545501
0.00308163
0.00562463
0.00816123
0.0106759
0.0131462