/*--------------------------------*- C++ -*----------------------------------*\
  =========                 |
  \\      /  F ield         | OpenFOAM: The Open Source CFD Toolbox
   \\    /   O peration     | Website:  https://openfoam.org
    \\  /    A nd           | Version:  10
     \\/     M anipulation  |
\*---------------------------------------------------------------------------*/
FoamFile
{
    format      ascii;
    class       volVectorField;
    location    "6.725";
    object      U;
}
// * * * * * * * * * * * * * * * * * * * * * * * * * * * * * * * * * * * * * //

dimensions      [0 1 -1 0 0 0 0];

internalField   nonuniform List<vector> 
496
(
(9.9642 0.0686437 0)
(9.95925 -0.168891 0)
(10.1917 -0.109912 0)
(10.7345 -0.23277 0)
(10.0548 0.478663 0)
(9.8367 -1.21237 0)
(10.2341 -0.349014 0)
(10.8148 -1.13976 0)
(10.7813 1.35567 0)
(9.11439 -2.85622 0)
(11.2045 -0.162389 0)
(10.6829 -3.96696 0)
(12.0798 1.52691 0)
(8.10139 -2.55499 0)
(12.8658 0.744124 0)
(9.99617 -6.4043 0)
(11.4337 -0.186754 3.45985e-18)
(12.1353 -0.203646 -8.39624e-19)
(11.6463 -0.43382 -1.93617e-21)
(12.4496 0.0803208 1.4019e-18)
(12.991 -2.03734 -3.46219e-18)
(13.0213 -0.498244 -5.61528e-19)
(13.2207 -5.39717 -3.1694e-17)
(15.2752 -4.31339 6.04352e-17)
(12.7231 -0.159449 0)
(12.9965 -0.164951 0)
(13.2242 -0.0776069 0)
(13.2242 0.028372 0)
(13.0897 0.0972085 0)
(13.4457 -0.285922 0)
(13.7744 -0.500921 0)
(13.8611 -0.568893 0)
(12.6556 0.829725 0)
(12.7174 0.701835 0)
(13.129 0.445872 0)
(13.5345 0.486455 0)
(11.2022 -2.87005 0)
(10.6487 -1.97239 0)
(8.26446 -0.746838 0)
(11.6196 -0.811046 0)
(13.3163 0.133473 0)
(13.2189 0.284208 0)
(13.2471 0.336915 0)
(13.0696 0.429681 0)
(13.0504 0.418213 0)
(12.8561 0.444859 0)
(12.8479 0.409409 0)
(12.7146 0.405251 0)
(12.7711 0.363595 0)
(12.6931 0.324351 0)
(12.7729 0.310665 0)
(12.7312 0.315035 0)
(12.7887 0.363423 0)
(12.6778 0.381592 0)
(12.62 0.42508 0)
(12.4029 0.452911 0)
(12.1489 0.471639 0)
(11.8176 0.513858 0)
(11.5593 0.523361 0)
(11.4372 0.50008 0)
(11.3135 0.421707 0)
(11.3394 0.316676 0)
(11.3106 0.286911 0)
(11.4944 0.207217 0)
(11.5553 0.242485 0)
(11.6772 0.209997 0)
(11.6695 0.297258 0)
(11.5584 0.31566 0)
(11.4842 0.374167 0)
(11.1225 0.403976 0)
(11.0528 0.391916 0)
(10.5999 0.420681 0)
(10.6247 0.351117 0)
(10.2114 0.352825 0)
(10.2711 0.241043 0)
(10.1167 0.222478 0)
(10.2396 0.0978978 0)
(10.4 0.0867041 0)
(10.4832 0.00767581 0)
(10.7937 0.0111971 0)
(13.9848 -0.545676 0)
(13.9109 -0.394518 0)
(13.8697 -0.339768 0)
(13.7092 -0.259007 0)
(13.6146 -0.244831 0)
(13.4836 -0.252137 0)
(13.4243 -0.284548 0)
(13.3614 -0.27139 0)
(13.3459 -0.296637 0)
(13.3732 -0.350894 0)
(13.4329 -0.31904 0)
(13.5438 -0.276574 0)
(13.5584 -0.229473 0)
(13.581 -0.152767 0)
(13.4849 -0.0729025 0)
(13.4021 0.0491052 0)
(13.1547 -0.00933203 0)
(12.9765 0.00100951 0)
(12.6977 -0.150023 0)
(12.5419 -0.166722 0)
(12.4037 -0.297119 0)
(12.3783 -0.3751 0)
(12.468 -0.40555 0)
(12.5449 -0.451406 0)
(12.7824 -0.305047 0)
(12.8525 -0.30376 0)
(13.0595 -0.0896689 0)
(12.9637 -0.0743403 0)
(13.0277 0.0990777 0)
(12.7664 0.077902 0)
(12.7292 0.105149 0)
(12.4419 0.0785096 0)
(12.3486 -0.0312732 0)
(12.1046 -0.0357038 0)
(11.9508 -0.20164 0)
(11.917 -0.161935 0)
(11.8271 -0.321217 0)
(12.0723 -0.285077 0)
(12.0345 -0.368403 0)
(12.4009 -0.323598 0)
(13.6846 0.397011 0)
(13.8682 0.453284 0)
(13.6499 0.480741 0)
(13.6806 0.521229 0)
(13.4111 0.504126 0)
(13.3888 0.584224 0)
(13.2202 0.46335 0)
(13.2478 0.406497 0)
(13.0229 0.212805 0)
(13.0997 0.18017 0)
(13.0969 0.135571 0)
(13.1832 0.158235 0)
(13.1598 0.168873 0)
(13.33 0.33099 0)
(13.3639 0.529606 0)
(13.3513 0.798129 0)
(13.1107 0.993779 0)
(12.8479 1.0875 0)
(12.6824 1.05728 0)
(12.4032 0.794027 0)
(12.4786 0.552358 0)
(12.0877 0.0270959 0)
(12.4675 -0.0165943 0)
(12.1329 -0.349481 0)
(12.715 -0.122015 0)
(12.4285 -0.212433 0)
(12.9682 0.075032 0)
(12.8524 0.237909 0)
(13.1178 0.419095 0)
(13.0828 0.68911 0)
(12.9715 0.696392 0)
(13.0388 0.974632 0)
(12.5974 0.760036 0)
(12.7511 0.869516 0)
(12.224 0.456108 0)
(12.4327 0.359647 0)
(12.0315 -0.156075 0)
(12.1748 -0.287022 0)
(11.9865 -0.554401 0)
(11.98 -0.530719 0)
(9.55376 -0.40496 0)
(10.4982 -0.167354 0)
(10.5396 -0.527646 0)
(9.77123 -0.101087 0)
(10.4682 -0.00866169 0)
(10.6144 -0.0466479 0)
(9.834 0.158713 0)
(10.3867 0.135882 0)
(9.75113 -0.00612172 0)
(10.2159 -0.0339375 0)
(9.81779 -0.222193 0)
(9.80121 -0.326712 0)
(9.88975 -0.359819 0)
(10.1944 -0.312345 0)
(10.6232 -0.207398 0)
(10.9933 -0.0326471 0)
(11.4472 0.10603 0)
(11.4197 0.260626 0)
(11.806 0.310884 0)
(11.3044 0.221813 0)
(11.2961 0.120688 0)
(10.3412 0.00230537 0)
(10.6171 -0.0431386 0)
(9.60103 -0.239297 0)
(10.0757 -0.315431 0)
(9.45678 -0.445781 0)
(10.1952 -0.309909 0)
(10.244 -0.30277 0)
(10.6189 -0.158247 0)
(11.2061 -0.0371045 0)
(11.2319 0.0478349 0)
(12.119 0.145463 0)
(11.5784 0.0826337 0)
(12.4266 0.18619 0)
(11.384 0.0611143 0)
(11.6309 0.192461 0)
(10.0732 0.154487 0)
(9.82544 0.234464 0)
(8.58696 0.253749 0)
(8.1425 -0.058637 0)
(12.2576 0.650069 -1.09498e-17)
(7.91875 -0.854037 -1.83333e-17)
(11.4955 0.136045 3.21755e-17)
(4.85016 -4.64017 -8.65114e-17)
(12.0639 -0.594716 1.08446e-17)
(8.19595 0.887602 1.82052e-17)
(11.3474 0.0522558 -3.1914e-17)
(5.15395 4.7625 8.56081e-17)
(2.33578 3.50388 0)
(-2.98541 -2.3394 0)
(6.95449 0.950781 0)
(-2.01268 2.93925 0)
(-8.38837 -2.32025 3.04661e-17)
(9.56644 -4.85941 0)
(-10.9454 -0.158459 0)
(4.53009 3.08906 0)
(-2.85123 -3.3235 0)
(2.55996 1.91482 0)
(-3.04944 -0.925333 0)
(1.04767 -0.424462 0)
(0.478177 1.66424 0)
(-1.86395 -0.315973 0)
(-0.26592 0.0513004 0)
(1.55394 0.504729 0)
(0.454355 0.354672 0)
(1.36091 0.54364 0)
(0.583037 -0.111049 0)
(1.03246 -0.33759 0)
(2.18575 -0.222029 0)
(1.80767 -0.343533 0)
(2.30504 0.0642177 0)
(3.21225 0.374999 0)
(2.46988 0.386252 0)
(3.13448 0.748766 0)
(3.03591 1.11169 0)
(2.76109 0.993524 0)
(2.71843 0.744129 0)
(2.82933 0.589019 0)
(2.87941 0.368312 0)
(3.09937 -0.156084 0)
(3.19375 -0.448855 0)
(3.46219 -0.443102 0)
(3.97071 -0.419385 0)
(4.03763 -0.402409 0)
(4.26515 -0.336716 0)
(4.55579 0.0355119 0)
(4.76391 0.309533 0)
(4.56054 0.403224 0)
(4.69769 0.606527 0)
(4.49617 0.933968 0)
(4.36833 1.04037 0)
(4.08887 1.15736 0)
(3.79205 0.945181 0)
(4.01755 0.958683 0)
(3.60097 0.358173 0)
(4.00817 -0.300496 0)
(1.16624 0.0700018 0)
(-1.82361 0.445042 0)
(2.8025 0.24278 0)
(-1.63488 -0.919979 0)
(0.145417 1.54665 0)
(1.44672 0.301138 0)
(0.143741 -1.47479 0)
(0.568021 -0.412944 0)
(-0.340515 -0.0313533 0)
(1.07867 -0.193138 0)
(0.858288 -0.60609 0)
(0.975857 -1.08661 0)
(1.05039 -0.902952 0)
(0.596139 -0.693735 0)
(0.990791 -0.745024 0)
(1.44897 -0.357449 0)
(0.906455 0.111531 0)
(1.48043 0.352362 0)
(1.8686 0.491176 0)
(2.27069 0.363955 0)
(2.2202 0.302791 0)
(2.69587 0.0920282 0)
(3.15526 -0.363791 0)
(3.10229 -0.636737 0)
(2.80254 -0.620658 0)
(3.24595 -0.845189 0)
(3.0571 -0.935243 0)
(2.85038 -0.673374 0)
(2.72951 -0.403959 0)
(3.05456 -0.204273 0)
(3.04862 -0.0377752 0)
(3.06626 0.292423 0)
(2.88041 0.550794 0)
(3.71719 0.628653 0)
(3.56898 0.691087 0)
(3.81686 0.851761 0)
(4.58949 0.630074 0)
(4.41593 0.565874 0)
(5.32009 0.184776 0)
(5.12606 -0.395172 0)
(12.3117 -1.57637 0)
(7.87612 2.68009 0)
(13.1709 -0.780336 0)
(10.0372 6.64789 0)
(10.8983 -1.33468 0)
(8.99846 2.89864 0)
(11.2613 0.216 0)
(10.6835 4.01959 0)
(10.0855 -0.473647 0)
(9.79886 1.20221 0)
(10.2822 0.410901 0)
(10.8289 1.06484 0)
(9.98765 -0.0720075 0)
(9.93446 0.16818 0)
(10.2166 0.150779 0)
(10.7654 0.200217 0)
(13.5141 5.4559 3.68192e-17)
(15.6137 4.46975 -6.61724e-17)
(13.0498 2.15008 0)
(13.0619 0.30428 0)
(11.6744 0.491538 0)
(12.5034 -0.228383 0)
(11.4768 0.244727 0)
(12.1707 0.173668 0)
(11.411 2.78689 0)
(10.239 1.74576 0)
(9.16534 1.78163 0)
(8.44009 0.101572 0)
(12.5456 -0.893673 0)
(12.4882 -1.38532 0)
(12.9031 -0.965932 0)
(13.0601 -0.468984 0)
(13.0634 -0.138668 0)
(13.4635 0.201254 0)
(13.6824 0.586581 0)
(13.736 0.741774 0)
(12.7178 0.18555 0)
(12.9659 0.138482 0)
(13.1008 0.0336784 0)
(13.0859 -0.0759326 0)
(9.30532 -0.459573 0)
(9.87148 -0.076905 0)
(9.50712 -0.185824 0)
(10.1616 0.0372055 0)
(9.43689 0.319308 0)
(9.0293 0.0296249 0)
(9.88546 -0.0479625 0)
(9.74511 0.0999982 0)
(9.93297 0.163365 0)
(9.71045 -0.0173904 0)
(10.113 -0.166957 0)
(9.66509 -0.176858 0)
(9.52574 -0.2651 0)
(8.92203 -0.244823 0)
(8.39739 -0.214642 0)
(8.0911 -0.128602 0)
(7.74469 0.04048 0)
(7.71579 0.203222 0)
(7.8551 0.286548 0)
(8.48422 0.278866 0)
(8.65471 0.288003 0)
(9.46651 0.126522 0)
(9.45292 0.000964684 0)
(10.2536 -0.0880327 0)
(9.60533 -0.084161 0)
(10.039 -0.140894 0)
(8.97755 -0.147268 0)
(9.20657 -0.173525 0)
(8.16856 -0.123662 0)
(8.10045 -0.0663898 0)
(7.86299 -0.0258021 0)
(7.60141 0.141665 0)
(8.00362 0.261166 0)
(7.64993 0.37739 0)
(8.81282 0.369275 0)
(8.56426 0.447502 0)
(9.77789 0.350242 0)
(10.0366 0.301119 0)
(10.8019 0.0651019 0)
(11.55 -0.090634 0)
(13.5991 -0.177231 0)
(13.6344 -0.0684551 0)
(13.768 -0.0599706 0)
(13.6133 -0.112795 0)
(13.5061 -0.126777 0)
(13.3205 -0.0598749 0)
(13.4847 -0.206809 0)
(13.4057 -0.288989 0)
(13.4916 -0.396292 0)
(13.3703 -0.448778 0)
(13.4089 -0.535348 0)
(13.1921 -0.50754 0)
(13.1541 -0.398492 0)
(13.0516 -0.236112 0)
(13.0339 -0.0490301 0)
(12.9357 0.144484 0)
(12.9549 0.181197 0)
(13.0357 0.176101 0)
(13.0596 0.0605245 0)
(13.3637 -0.190271 0)
(13.3753 -0.369734 0)
(13.6236 -0.684808 0)
(13.4508 -0.73002 0)
(13.5894 -0.933418 0)
(13.3405 -0.732649 0)
(13.4636 -0.72362 0)
(13.2677 -0.357021 0)
(13.2508 -0.236792 0)
(13.1439 0.027009 0)
(12.9572 0.149545 0)
(12.9849 0.13988 0)
(12.8401 0.226564 0)
(12.9754 0.000586554 0)
(12.8761 0.185872 0)
(13.1418 -0.233664 0)
(13.2078 -0.0507146 0)
(13.5662 -0.542645 0)
(13.6253 -0.531678 0)
(13.9254 -0.876089 0)
(13.7456 -1.09417 0)
(13.7254 0.681529 0)
(13.7098 0.523873 0)
(13.7007 0.315341 0)
(13.6764 0.167107 0)
(13.6611 0.0814472 0)
(13.5975 0.10116 0)
(13.6213 0.0666654 0)
(13.5499 0.0144745 0)
(13.549 -0.000319678 0)
(13.4195 -0.0354736 0)
(13.3854 -0.0323085 0)
(13.2022 -0.0483891 0)
(13.1372 0.000968605 0)
(13.0138 0.0471185 0)
(13.1009 0.0748284 0)
(13.0908 0.167107 0)
(13.2356 0.162101 0)
(13.2582 0.161904 0)
(13.4153 0.055067 0)
(13.381 -0.0323647 0)
(13.4013 -0.15375 0)
(13.2042 -0.210529 0)
(13.095 -0.169271 0)
(12.8471 -0.141706 0)
(12.6764 0.0418562 0)
(12.5072 0.0812849 0)
(12.3515 0.22685 0)
(12.3899 0.262286 0)
(12.3321 0.335626 0)
(12.5534 0.358465 0)
(12.5268 0.384622 0)
(12.8061 0.368085 0)
(12.7796 0.322697 0)
(12.9854 0.261284 0)
(13.0097 0.166098 0)
(13.0426 0.084495 0)
(13.0852 -0.0981605 0)
(12.7904 -0.11373 0)
(12.8054 -0.313441 0)
(12.2943 -0.154265 0)
(13.1106 -0.203895 0)
(13.1023 -0.258903 0)
(13.1429 -0.333545 0)
(13.1355 -0.324207 0)
(13.1446 -0.338106 0)
(13.0485 -0.278941 0)
(12.9974 -0.275379 0)
(12.8765 -0.261129 0)
(12.8299 -0.251546 0)
(12.6393 -0.241509 0)
(12.5277 -0.232307 0)
(12.2923 -0.25122 0)
(12.2228 -0.234994 0)
(12.0946 -0.200104 0)
(12.1493 -0.153145 0)
(12.0932 -0.115533 0)
(12.1585 -0.101803 0)
(12.1009 -0.11903 0)
(12.1637 -0.159574 0)
(12.0368 -0.220346 0)
(12.0104 -0.25907 0)
(11.6934 -0.300063 0)
(11.5309 -0.318475 0)
(11.1607 -0.383586 0)
(11.0392 -0.354973 0)
(10.7727 -0.38208 0)
(10.7237 -0.299857 0)
(10.6587 -0.280989 0)
(10.6892 -0.217871 0)
(10.8616 -0.20457 0)
(10.8948 -0.185235 0)
(11.1387 -0.167281 0)
(11.075 -0.217636 0)
(11.2525 -0.200315 0)
(11.1142 -0.316452 0)
(11.1447 -0.30771 0)
(10.9945 -0.423001 0)
(10.7259 -0.393825 0)
(10.5764 -0.437934 0)
(9.95144 -0.458369 0)
)
;

boundaryField
{
    inlet
    {
        type            fixedValue;
        value           uniform (10 0 0);
    }
    outlet
    {
        type            zeroGradient;
    }
    obstacle
    {
        type            noSlip;
    }
    upperWall
    {
        type            noSlip;
    }
    lowerWall
    {
        type            noSlip;
    }
    frontAndBack
    {
        type            empty;
    }
}


// ************************************************************************* //
