/*--------------------------------*- C++ -*----------------------------------*\
  =========                 |
  \\      /  F ield         | OpenFOAM: The Open Source CFD Toolbox
   \\    /   O peration     | Website:  https://openfoam.org
    \\  /    A nd           | Version:  10
     \\/     M anipulation  |
\*---------------------------------------------------------------------------*/
FoamFile
{
    format      ascii;
    class       surfaceScalarField;
    location    "0.175";
    object      phi;
}
// * * * * * * * * * * * * * * * * * * * * * * * * * * * * * * * * * * * * * //

dimensions      [0 3 -1 0 0 0 0];

internalField   nonuniform List<scalar> 
760
(
-3.48583e-06
3.48583e-06
-7.0076e-06
3.52177e-06
-1.03485e-05
3.34088e-06
-1.34223e-05
3.07379e-06
-1.61533e-05
2.73103e-06
-1.84766e-05
2.32331e-06
-2.03389e-05
1.86232e-06
-2.1699e-05
1.3601e-06
-2.25277e-05
8.28619e-07
-2.28073e-05
2.79653e-07
-2.25321e-05
-2.75256e-07
-2.17074e-05
-8.24638e-07
-2.03505e-05
-1.35691e-06
-1.84903e-05
-1.86025e-06
-1.61677e-05
-2.32256e-06
-1.3436e-05
-2.7317e-06
-1.03602e-05
-3.07583e-06
-7.01607e-06
-3.34409e-06
-3.49022e-06
-3.52584e-06
-3.49023e-06
-3.70285e-06
7.18868e-06
-7.44081e-06
7.25973e-06
-1.09852e-05
6.88526e-06
-1.42441e-05
6.33271e-06
-1.71374e-05
5.62435e-06
-1.95969e-05
4.78276e-06
-2.15669e-05
3.83234e-06
-2.30048e-05
2.79798e-06
-2.38804e-05
1.70429e-06
-2.4176e-05
5.75188e-07
-2.38853e-05
-5.65938e-07
-2.3014e-05
-1.69591e-06
-2.15797e-05
-2.79127e-06
-1.96119e-05
-3.82796e-06
-1.71533e-05
-4.78117e-06
-1.42593e-05
-5.62574e-06
-1.09981e-05
-6.33699e-06
-7.4502e-06
-6.89204e-06
-3.70773e-06
-7.26832e-06
-7.19795e-06
-3.89269e-06
1.10814e-05
-7.82038e-06
1.11874e-05
-1.15407e-05
1.06056e-05
-1.49565e-05
9.74852e-06
-1.79841e-05
8.652e-06
-2.05535e-05
7.35208e-06
-2.26083e-05
5.88719e-06
-2.41062e-05
4.29591e-06
-2.50177e-05
2.6158e-06
-2.53255e-05
8.82894e-07
-2.50235e-05
-8.67936e-07
-2.41171e-05
-2.60223e-06
-2.26234e-05
-4.28503e-06
-2.05713e-05
-5.88005e-06
-1.8003e-05
-7.34945e-06
-1.49745e-05
-8.6542e-06
-1.15561e-05
-9.75543e-06
-7.83158e-06
-1.06166e-05
-3.89851e-06
-1.12014e-05
-1.10965e-05
-4.18563e-06
1.5267e-05
-8.40523e-06
1.5407e-05
-1.23952e-05
1.45955e-05
-1.60501e-05
1.34034e-05
-1.9281e-05
1.1883e-05
-2.20155e-05
1.00865e-05
-2.41969e-05
8.06863e-06
-2.57839e-05
5.8829e-06
-2.67484e-05
3.58026e-06
-2.7074e-05
1.20858e-06
-2.67554e-05
-1.18653e-06
-2.57974e-05
-3.56023e-06
-2.42157e-05
-5.86678e-06
-2.20378e-05
-8.05799e-06
-1.93047e-05
-1.00825e-05
-1.60728e-05
-1.18861e-05
-1.24146e-05
-1.34136e-05
-8.41941e-06
-1.46118e-05
-4.19302e-06
-1.54278e-05
-1.52895e-05
-4.59467e-06
1.98617e-05
-9.22049e-06
2.00328e-05
-1.35834e-05
1.89584e-05
-1.75661e-05
1.73861e-05
-2.10731e-05
1.53899e-05
-2.40292e-05
1.30427e-05
-2.63789e-05
1.04183e-05
-2.80832e-05
7.5872e-06
-2.9117e-05
4.61403e-06
-2.94662e-05
1.55778e-06
-2.91261e-05
-1.52662e-06
-2.81006e-05
-4.58567e-06
-2.64032e-05
-7.56427e-06
-2.40581e-05
-1.0403e-05
-2.11039e-05
-1.30367e-05
-1.75958e-05
-1.53942e-05
-1.36089e-05
-1.74005e-05
-9.23916e-06
-1.89815e-05
-4.60442e-06
-2.00625e-05
-1.98939e-05
-5.13719e-06
2.49989e-05
-1.02992e-05
2.51948e-05
-1.51498e-05
2.3809e-05
-1.9556e-05
2.17923e-05
-2.34142e-05
1.92481e-05
-2.66481e-05
1.62766e-05
-2.92053e-05
1.29755e-05
-3.10523e-05
9.43423e-06
-3.21696e-05
5.73133e-06
-3.25472e-05
1.9353e-06
-3.21816e-05
-1.89223e-06
-3.10752e-05
-5.69203e-06
-2.92372e-05
-9.40226e-06
-2.66863e-05
-1.2954e-05
-2.34552e-05
-1.62679e-05
-1.95957e-05
-1.92536e-05
-1.51842e-05
-2.1812e-05
-1.03244e-05
-2.38413e-05
-5.15039e-06
-2.52365e-05
-2.50443e-05
-5.83867e-06
3.08375e-05
-1.16892e-05
3.10454e-05
-1.7158e-05
2.92778e-05
-2.20914e-05
2.67257e-05
-2.63777e-05
2.35344e-05
-2.99423e-05
1.98412e-05
-3.2741e-05
1.57741e-05
-3.47507e-05
1.1444e-05
-3.59619e-05
6.94246e-06
-3.63711e-05
2.34457e-06
-3.59775e-05
-2.28583e-06
-3.47809e-05
-6.88867e-06
-3.27833e-05
-1.13999e-05
-2.99932e-05
-1.5744e-05
-2.64327e-05
-1.98284e-05
-2.21452e-05
-2.35411e-05
-1.72049e-05
-2.67523e-05
-1.17239e-05
-2.93224e-05
-5.85689e-06
-3.11035e-05
-3.09012e-05
-6.73663e-06
3.75742e-05
-1.34599e-05
3.77686e-05
-1.96976e-05
3.55156e-05
-2.52703e-05
3.22984e-05
-3.00601e-05
2.83242e-05
-3.40009e-05
2.3782e-05
-3.70647e-05
1.8838e-05
-3.92476e-05
1.36268e-05
-4.05561e-05
8.25103e-06
-4.09983e-05
2.78669e-06
-4.05767e-05
-2.70734e-06
-3.92874e-05
-8.17803e-06
-3.71209e-05
-1.35663e-05
-3.40691e-05
-1.87958e-05
-3.01345e-05
-2.3763e-05
-2.53438e-05
-2.83318e-05
-1.97623e-05
-3.23337e-05
-1.35081e-05
-3.55766e-05
-6.76215e-06
-3.78495e-05
-3.76633e-05
-7.88729e-06
4.54615e-05
-1.57126e-05
4.55939e-05
-2.28959e-05
4.26989e-05
-2.92269e-05
3.86293e-05
-3.45882e-05
3.36855e-05
-3.89346e-05
2.81285e-05
-4.2269e-05
2.21724e-05
-4.4619e-05
1.59768e-05
-4.60176e-05
9.64966e-06
-4.64899e-05
3.25897e-06
-4.60446e-05
-3.15268e-06
-4.46713e-05
-9.55128e-06
-4.23435e-05
-1.58942e-05
-3.90259e-05
-2.21133e-05
-3.4689e-05
-2.80999e-05
-2.93278e-05
-3.3693e-05
-2.2986e-05
-3.86755e-05
-1.57806e-05
-4.27821e-05
-7.92359e-06
-4.57065e-05
-4.55869e-05
-9.37767e-06
5.48391e-05
-1.85995e-05
5.48157e-05
-2.69363e-05
5.10357e-05
-3.41457e-05
4.58388e-05
-4.0127e-05
3.96668e-05
-4.48788e-05
3.28803e-05
-4.8458e-05
2.57515e-05
-5.09429e-05
1.84617e-05
-5.2407e-05
1.11138e-05
-5.29008e-05
3.75282e-06
-5.24418e-05
-3.6117e-06
-5.1011e-05
-1.09822e-05
-4.85558e-05
-1.83493e-05
-4.50005e-05
-2.56686e-05
-4.02636e-05
-3.28369e-05
-3.4285e-05
-3.96716e-05
-2.70629e-05
-4.58976e-05
-1.86966e-05
-5.11483e-05
-9.43026e-06
-5.49728e-05
-5.50172e-05
-1.13483e-05
6.61874e-05
-2.23548e-05
6.58223e-05
-3.20873e-05
6.07681e-05
-4.02823e-05
5.40338e-05
-4.68904e-05
4.62749e-05
-5.1995e-05
3.79849e-05
-5.57424e-05
2.94989e-05
-5.82896e-05
2.10089e-05
-5.9769e-05
1.25932e-05
-6.02671e-05
4.25087e-06
-5.98133e-05
-4.06543e-06
-5.8377e-05
-1.24185e-05
-5.58696e-05
-2.08567e-05
-5.2156e-05
-2.93822e-05
-4.70751e-05
-3.79178e-05
-4.0475e-05
-4.62717e-05
-3.22668e-05
-5.41057e-05
-2.2496e-05
-6.09192e-05
-1.14263e-05
-6.60425e-05
-6.64435e-05
-1.40379e-05
8.02253e-05
-2.73505e-05
7.91348e-05
-3.87488e-05
7.21664e-05
-4.7992e-05
6.32771e-05
-5.51533e-05
5.34362e-05
-6.04693e-05
4.33008e-05
-6.42295e-05
3.32592e-05
-6.67071e-05
2.34865e-05
-6.81158e-05
1.40019e-05
-6.85887e-05
4.72381e-06
-6.81709e-05
-4.48326e-06
-6.68169e-05
-1.37726e-05
-6.43921e-05
-2.32815e-05
-6.06799e-05
-3.30944e-05
-5.54015e-05
-4.31962e-05
-4.82591e-05
-5.34141e-05
-3.9006e-05
-6.33589e-05
-2.75595e-05
-7.23656e-05
-1.41574e-05
-7.94447e-05
-8.06009e-05
-1.78759e-05
9.81011e-05
-3.41933e-05
9.54522e-05
-4.75237e-05
8.54969e-05
-5.77682e-05
7.35215e-05
-6.52606e-05
6.09287e-05
-7.05008e-05
4.8541e-05
-7.40023e-05
3.67607e-05
-7.61984e-05
2.56827e-05
-7.74039e-05
1.52074e-05
-7.7807e-05
5.12684e-06
-7.74703e-05
-4.81991e-06
-7.63324e-05
-1.49105e-05
-7.42051e-05
-2.54088e-05
-7.07712e-05
-3.65283e-05
-6.55909e-05
-4.83765e-05
-5.81383e-05
-6.08668e-05
-4.7896e-05
-7.36011e-05
-3.45102e-05
-8.57514e-05
-1.80668e-05
-9.58881e-05
-9.86676e-05
-2.36793e-05
0.00012178
-4.38992e-05
0.000115672
-5.93273e-05
0.000100925
-7.02853e-05
8.44795e-05
-7.76174e-05
6.82608e-05
-8.2274e-05
5.31976e-05
-8.50878e-05
3.95745e-05
-8.66889e-05
2.72838e-05
-8.75031e-05
1.60216e-05
-8.77734e-05
5.39709e-06
-8.75796e-05
-5.01368e-06
-8.6846e-05
-1.56441e-05
-8.53322e-05
-2.69225e-05
-8.26122e-05
-3.92483e-05
-7.80496e-05
-5.29391e-05
-7.07958e-05
-6.81205e-05
-5.98711e-05
-8.45258e-05
-4.43922e-05
-0.00010123
-2.40007e-05
-0.00011628
-0.000122668
-3.30814e-05
0.000154862
-5.82044e-05
0.000140795
-7.55416e-05
0.000118262
-8.6414e-05
9.53519e-05
-9.26517e-05
7.44985e-05
-9.59032e-05
5.6449e-05
-9.74008e-05
4.10722e-05
-9.79797e-05
2.78627e-05
-9.8158e-05
1.61999e-05
-9.8215e-05
5.45403e-06
-9.82407e-05
-4.988e-06
-9.81532e-05
-1.57316e-05
-9.76808e-05
-2.7395e-05
-9.63095e-05
-4.06196e-05
-9.32019e-05
-5.60467e-05
-8.7109e-05
-7.42135e-05
-7.63407e-05
-9.5294e-05
-5.89917e-05
-0.000118579
-3.36564e-05
-0.000141615
-0.000156325
-4.95028e-05
0.000204365
-8.01176e-05
0.00017141
-9.81678e-05
0.000136312
-0.000107173
0.000104357
-0.000110703
7.80291e-05
-0.00011132
5.70656e-05
-0.000110659
4.04112e-05
-0.000109691
2.68947e-05
-0.000108952
1.54615e-05
-0.000108706
5.20745e-06
-0.000109033
-4.66066e-06
-0.000109866
-1.48991e-05
-0.000110955
-2.63057e-05
-0.000111778
-3.97967e-05
-0.000111372
-5.64525e-05
-0.000108094
-7.74917e-05
-9.93367e-05
-0.000104051
-8.1404e-05
-0.000136512
-5.05872e-05
-0.000172432
-0.000206912
-8.00918e-05
0.000284456
-0.000114771
0.000206089
-0.000129798
0.000151339
-0.000133492
0.000108052
-0.00013176
7.62967e-05
-0.000128076
5.33816e-05
-0.000124268
3.66035e-05
-0.000121209
2.38356e-05
-0.000119283
1.35355e-05
-0.000118648
4.57172e-06
-0.000119349
-3.95918e-06
-0.000121359
-1.28891e-05
-0.000124542
-2.31231e-05
-0.000128539
-3.57996e-05
-0.000132509
-5.24819e-05
-0.00013465
-7.53506e-05
-0.000131474
-0.000107228
-0.000116922
-0.000151064
-8.24092e-05
-0.000206945
-0.000289321
-0.000145444
0.0004299
-0.000169801
0.000230447
-0.000172922
0.000154459
-0.000165317
0.000100447
-0.000154705
6.56848e-05
-0.000144827
4.35035e-05
-0.000136947
2.87233e-05
-0.000131366
1.82549e-05
-0.000128071
1.02402e-05
-0.00012699
3.49106e-06
-0.000128099
-2.85048e-06
-0.000131442
-9.54582e-06
-0.000137117
-1.7448e-05
-0.000145178
-2.7739e-05
-0.000155382
-4.22773e-05
-0.000166551
-6.41822e-05
-0.000175055
-9.87232e-05
-0.000172889
-0.00015323
-0.00014909
-0.000230744
-0.000438411
-0.000217674
0.000647575
-0.000223602
0.000236374
-0.00020514
0.000135998
-0.000178121
7.34278e-05
-0.000154742
4.23062e-05
-0.000137046
2.58067e-05
-0.000124512
1.61894e-05
-0.000116252
9.99545e-06
-0.000111551
5.53872e-06
-0.000109976
1.91607e-06
-0.000111384
-1.44267e-06
-0.000115912
-5.01709e-06
-0.000123989
-9.37177e-06
-0.000136324
-1.54035e-05
-0.000153795
-2.48065e-05
-0.000176874
-4.11026e-05
-0.000203603
-7.19945e-05
-0.000220753
-0.000136081
-0.000213069
-0.000238427
-0.00065148
0.000647575
0.000883949
0.00101995
0.00109337
0.00113568
0.00116149
0.00117768
0.00118767
0.00119321
0.00119513
0.00119368
0.00118867
0.0011793
0.00116389
0.00113909
0.00109798
0.00102599
0.000889907
0.00065148
)
;

boundaryField
{
    movingWall
    {
        type            calculated;
        value           uniform 0;
    }
    fixedWalls
    {
        type            calculated;
        value           uniform 0;
    }
    frontAndBack
    {
        type            empty;
        value           nonuniform List<scalar> 0();
    }
}


// ************************************************************************* //
