/*--------------------------------*- C++ -*----------------------------------*\
  =========                 |
  \\      /  F ield         | OpenFOAM: The Open Source CFD Toolbox
   \\    /   O peration     | Website:  https://openfoam.org
    \\  /    A nd           | Version:  10
     \\/     M anipulation  |
\*---------------------------------------------------------------------------*/
FoamFile
{
    format      ascii;
    class       surfaceScalarField;
    location    "6.625";
    object      phi;
}
// * * * * * * * * * * * * * * * * * * * * * * * * * * * * * * * * * * * * * //

dimensions      [0 3 -1 0 0 0 0];

internalField   nonuniform List<scalar> 
890
(
0.00984546
0.000154539
0.00971863
0.000126832
0.00946932
0.000249311
0.00942146
4.78623e-05
0.000144446
0.00927701
0.0101198
3.47399e-05
0.0102016
4.49818e-05
0.0104059
4.50966e-05
0.010466
-1.22275e-05
-6.98378e-05
0.0106802
0.0100727
-3.79861e-05
0.0102149
-9.72201e-05
0.0103785
-0.000118426
0.0105202
-0.000154013
-0.000190653
0.0106411
0.0100911
-0.000129042
0.010212
-0.000218122
0.010332
-0.000238513
0.0104155
-0.000237502
-0.000253508
0.0104784
0.00987096
0.00965284
0.00941432
0.00917682
0.00892331
0.00926222
-0.00010633
0.000121123
0.00928817
-0.000268162
0.000242206
0.00936921
-0.000378602
0.000297561
0.00949941
-0.000477979
0.000347786
0.00966693
-0.00058362
0.000416094
0.00986596
-0.000749833
0.000550812
0.0100736
-0.000953233
0.000745632
0.010287
-0.0012034
0.00098991
0.0104848
-0.00148602
0.00128831
0.010652
-0.00178525
0.00161797
0.0107743
-0.00208091
0.00195867
0.0108377
-0.0023354
0.002272
0.0108385
-0.00253315
0.00253231
0.0107548
-0.00262406
0.00270776
0.0105708
-0.00258358
0.00276757
0.0103195
-0.00248
0.00273137
0.0100504
-0.00234302
0.00261209
0.00975952
-0.00210934
0.0024002
0.00945037
-0.00181435
0.00212351
0.00913657
-0.00147215
0.00178595
0.00882415
-0.00109423
0.00140665
0.00852917
-0.000724686
0.00101966
0.00827299
-0.000393839
0.000650022
0.0080508
-9.93739e-05
0.000321564
0.00785583
0.000151942
4.30275e-05
0.00770993
0.0003474
-0.000201497
0.00760755
0.000489957
-0.000387578
0.00753042
0.000601492
-0.000524364
0.00745986
0.000698204
-0.000627639
0.00738624
0.000774635
-0.000701023
0.00730559
0.000808813
-0.000728158
0.00721769
0.000787331
-0.000699431
0.00712382
0.000729176
-0.000635309
0.00702739
0.000671922
-0.00057549
0.00693617
0.0006435
-0.000552274
0.0068567
0.000640467
-0.000560998
0.00678944
0.000639426
-0.00057217
0.00672965
0.000613788
-0.000553997
0.00667287
0.000555183
-0.000498406
0.00661825
0.000467448
-0.00041283
0.00656876
0.000365773
-0.000316279
0.0065266
0.000267537
-0.00022538
0.00649491
0.000175921
-0.000144226
0.00647064
0.000117131
-9.28624e-05
5.14993e-05
-3.83033e-05
0.0107421
-0.000168175
0.010766
-0.000292033
0.010798
-0.000410639
0.010845
-0.000525012
0.0109011
-0.000639707
0.0109393
-0.000787999
0.0109485
-0.000962452
0.0109308
-0.00118575
0.0108702
-0.00142535
0.0107652
-0.00168022
0.0105993
-0.00191502
0.0103829
-0.00211904
0.0101051
-0.0022553
0.00972606
-0.00224507
0.00926765
-0.00212517
0.00877452
-0.00198686
0.00826378
-0.00183227
0.00775912
-0.00160469
0.00726751
-0.00132274
0.00681361
-0.00101825
0.00639718
-0.000677804
0.00603308
-0.00036059
0.00572416
-8.49113e-05
0.00547959
0.000145191
0.00530354
0.000327994
0.00518908
0.000461862
0.00511595
0.000563082
0.00507009
0.000647355
0.00505266
0.000715631
0.0050718
0.000755497
0.00512662
0.000753988
0.00520189
0.000712064
0.00528013
0.000650935
0.00535451
0.000597548
0.00543081
0.000567192
0.00551775
0.000553531
0.00561828
0.000538897
0.00572821
0.000503853
0.0058394
0.000443995
0.00594475
0.000362102
0.00603712
0.000273403
0.00611629
0.000188366
0.00617619
0.000116016
0.00622605
6.72771e-05
2.23496e-05
0.0107271
-0.000254265
0.0107694
-0.000334326
0.010789
-0.000430245
0.0107863
-0.000522291
0.0107691
-0.000622485
0.0107173
-0.000736212
0.0106315
-0.000876632
0.0104945
-0.00104871
0.0103096
-0.00124052
0.010086
-0.00145663
0.00981565
-0.00164464
0.00950467
-0.00180806
0.00902514
-0.00177578
0.00840136
-0.00162129
0.00776856
-0.00149237
0.007083
-0.0013013
0.00630332
-0.00105259
0.00553465
-0.00083602
0.00484895
-0.000637037
0.00424139
-0.000410693
0.00374678
-0.00018319
0.00336596
2.02348e-05
0.00308056
0.000200485
0.00288494
0.000340815
0.00277479
0.000438142
0.00274224
0.000494408
0.00277843
0.000526889
0.00288167
0.000544117
0.00304675
0.00055055
0.00325927
0.000542982
0.0034961
0.000517158
0.00373295
0.000475209
0.00395469
0.000429195
0.00416096
0.000391284
0.00436212
0.000366027
0.00456841
0.000347239
0.00478258
0.000324728
0.00499757
0.000288865
0.00520175
0.000239812
0.00538298
0.000180878
0.00553265
0.000123733
0.00564887
7.21463e-05
0.00572978
3.51077e-05
0.00578774
9.31737e-06
-5.68921e-06
0.0105054
-0.000281305
0.0104931
-0.000322024
0.010432
-0.000369072
0.0103224
-0.000412753
0.0101704
-0.000470454
0.00995696
-0.000522786
0.00968682
-0.000606497
0.00932303
-0.000684921
0.00889117
-0.000808658
0.00834905
-0.000914504
0.00776588
-0.00106147
0.00714122
-0.0011834
0.00632365
-0.000958203
0.00525992
-0.000557556
0.00399193
-0.000224382
0.00274134
-5.07144e-05
0.00170568
-1.69372e-05
0.000965757
-9.6094e-05
0.000505913
-0.000177193
0.000265349
-0.000170128
0.000170202
-8.80433e-05
0.000173287
1.71499e-05
0.000269887
0.000103885
0.000437075
0.000173628
0.000657777
0.00021744
0.000914069
0.000238116
0.00119626
0.000244695
0.00149654
0.00024384
0.00180808
0.000239007
0.00212222
0.000228848
0.00242668
0.000212692
0.00271011
0.000191778
0.00296917
0.000170138
0.00320889
0.000151567
0.003438
0.000136914
0.00366151
0.000123734
0.00387739
0.000108844
0.00407642
8.98331e-05
0.00424838
6.78532e-05
0.00438433
4.49298e-05
0.00448281
2.52519e-05
0.0045456
9.35735e-06
0.00458074
-3.5855e-08
0.00459596
-5.89911e-06
-6.80003e-06
0.00864201
0.00831998
0.00795091
0.00753816
0.00706771
0.00654492
0.00593842
0.0052535
0.00444484
0.00353034
0.00246887
0.00128546
0.00032726
-0.000230296
-0.000454678
-0.000505393
-0.00052233
-0.000618424
-0.000795617
-0.000965745
-0.00105379
-0.00103664
-0.000932754
-0.000759126
-0.000541686
-0.00030357
-5.88749e-05
0.000184965
0.000423972
0.00065282
0.000865511
0.00105729
0.00122743
0.00137899
0.00151591
0.00163964
0.00174849
0.00183832
0.00190617
0.0019511
0.00197635
0.00198571
0.00198568
0.00197978
5.90852e-05
-5.90852e-05
1.28477e-05
4.62375e-05
-0.000227727
0.000240575
-0.000721578
0.00049385
-0.00136212
0.000640537
-0.00200314
0.000641022
-0.00255721
0.000554069
-0.0029924
0.000435198
-0.00328316
0.000290757
-0.00341701
0.000133852
-0.00338396
-3.30497e-05
-0.00319683
-0.000187131
-0.00286256
-0.000334273
-0.00239845
-0.000464109
-0.00183561
-0.00056284
-0.00121449
-0.000621119
-0.000569126
-0.000645366
7.62021e-05
-0.000645328
0.00068973
-0.000613528
0.00124052
-0.000550786
0.0017069
-0.000466386
0.00207704
-0.000370139
0.00234882
-0.000271778
0.00252799
-0.000179172
0.00262488
-9.68874e-05
0.00264978
-2.48996e-05
0.00261075
3.90232e-05
0.0025109
9.98506e-05
0.00236204
0.000148861
0.00218361
0.000178432
0.0020044
0.000179215
0.00184615
0.000158241
0.00172208
0.000124076
0.0016381
8.39811e-05
0.00158883
4.92628e-05
0.00156829
2.05411e-05
0.00157091
-2.61594e-06
0.00159259
-2.16781e-05
0.00162925
-3.66574e-05
0.00167593
-4.66859e-05
0.0017254
-4.94688e-05
0.00177313
-4.77266e-05
0.00181279
-3.96589e-05
0.00184662
-3.38365e-05
-2.0827e-05
-0.000178014
0.000118929
-0.000601225
0.000469448
-0.00107888
0.000718229
-0.00150204
0.000917013
-0.00183846
0.000976959
-0.00209591
0.000898471
-0.00226187
0.000720024
-0.00232715
0.000500483
-0.00227987
0.000243475
-0.00211063
-3.53885e-05
-0.00183107
-0.000312608
-0.00142002
-0.000598178
-0.000891366
-0.000862931
-0.000264447
-0.00109103
0.00042677
-0.00125406
0.00115427
-0.00134861
0.00188746
-0.00137856
0.00259909
-0.00135695
0.00326194
-0.00127638
0.00385477
-0.00114361
0.00435863
-0.000970248
0.00476336
-0.000774872
0.00506907
-0.000577489
0.00527794
-0.000388038
0.00539559
-0.000214536
0.00544172
-7.10354e-05
0.00544071
4.00377e-05
0.00541325
0.000127307
0.00536827
0.000193841
0.0053114
0.000235303
0.00523808
0.000252541
0.00514954
0.000246779
0.00503967
0.000233948
0.00489702
0.000226626
0.00472727
0.000219012
0.00455388
0.00019393
0.00440581
0.000145459
0.00430553
7.86045e-05
0.00425777
1.10939e-05
0.00425503
-4.39455e-05
0.00428051
-7.49478e-05
0.00432237
-8.95859e-05
0.00436416
-8.14437e-05
0.00440625
-7.59256e-05
-5.00215e-05
-0.000494821
0.00061375
-0.000660043
0.000634671
-0.000664962
0.000723147
-0.000571111
0.000823163
-0.000423227
0.000829076
-0.000240084
0.000715327
-2.92566e-05
0.000509197
0.000227869
0.000243358
0.000541895
-7.05517e-05
0.000933663
-0.000427157
0.00141003
-0.000788972
0.00195366
-0.00114181
0.00255424
-0.00146351
0.00319441
-0.0017312
0.00385365
-0.00191329
0.00451129
-0.00200625
0.00514331
-0.00201059
0.00572526
-0.0019389
0.006245
-0.00179612
0.0066885
-0.00158711
0.00704687
-0.00132862
0.00731506
-0.00104306
0.00749338
-0.000755811
0.0075923
-0.000486959
0.00762707
-0.000249302
0.00760537
-4.93398e-05
0.00753658
0.00010883
0.00744028
0.000223604
0.00732306
0.000311063
0.0071841
0.000374263
0.00704114
0.000395504
0.00691868
0.000369234
0.00682688
0.00032575
0.00675225
0.000301261
0.00665977
0.00031149
0.00652566
0.000328034
0.00635533
0.000315793
0.00617566
0.000258275
0.0060153
0.000171451
0.00589355
7.78121e-05
0.00581215
6.44836e-06
0.00576758
-4.5018e-05
0.00574725
-6.11099e-05
0.00574287
-7.15464e-05
-5.40974e-05
-0.000201772
0.000815522
-4.89606e-05
0.000481859
0.00025692
0.000417267
0.000696716
0.000383367
0.00120804
0.000317752
0.00174703
0.00017634
0.00229717
-4.09439e-05
0.00284527
-0.000304749
0.00341009
-0.000635364
0.00398666
-0.00100373
0.00458093
-0.00138324
0.00518549
-0.00174637
0.00579257
-0.00207059
0.0063851
-0.00232374
0.00694393
-0.00247212
0.00745489
-0.00251722
0.00790862
-0.00246432
0.00829446
-0.00232474
0.00860881
-0.00211047
0.0088468
-0.00182511
0.00900944
-0.00149125
0.00910302
-0.00113664
0.00913118
-0.000783965
0.00910597
-0.000461755
0.00904274
-0.000186074
0.00894762
4.57826e-05
0.00881862
0.000237832
0.00866984
0.000372386
0.00851159
0.000469312
0.00834797
0.000537881
0.00817761
0.000565869
0.00800526
0.000541579
0.00784687
0.000484144
0.00771268
0.000435451
0.00759821
0.000425951
0.00748368
0.000442572
0.00734951
0.000449963
0.0071893
0.000418478
0.00701219
0.000348565
0.00683529
0.000254711
0.00667712
0.000164623
0.00654436
8.77381e-05
0.00644697
3.62749e-05
0.00637192
3.5113e-06
-1.37913e-05
0.000936645
0.00166071
0.00237554
0.00310669
0.00384054
0.00456769
0.00527237
0.00595754
0.00661048
0.00722472
0.00780015
0.00832578
0.0087875
0.00917152
0.00946698
0.00968113
0.0098289
0.00990436
0.0099174
0.00987823
0.00979364
0.00967666
0.00954271
0.00940252
0.00925948
0.00910376
0.00895402
0.00880204
0.00864371
0.00848057
0.00831828
0.00816043
0.00800926
0.00786922
0.0077429
0.00762448
0.00750227
0.00736675
0.00721691
0.00705879
0.00690713
0.00676949
0.00666154
0.00657219
)
;

boundaryField
{
    inlet
    {
        type            calculated;
        value           nonuniform List<scalar> 5(-0.01 -0.01 -0.01 -0.01 -0.01);
    }
    outlet
    {
        type            calculated;
        value           nonuniform List<scalar> 10(0.00645744 0.0062552 0.00581577 0.00459707 0.00197298 0.00186745 0.00443544 0.00574694 0.00633161 0.0065201);
    }
    upperWall
    {
        type            calculated;
        value           uniform 0;
    }
    lowerWall
    {
        type            calculated;
        value           uniform 0;
    }
    frontAndBack
    {
        type            empty;
        value           nonuniform List<scalar> 0();
    }
}


// ************************************************************************* //
