/*--------------------------------*- C++ -*----------------------------------*\
  =========                 |
  \\      /  F ield         | OpenFOAM: The Open Source CFD Toolbox
   \\    /   O peration     | Website:  https://openfoam.org
    \\  /    A nd           | Version:  10
     \\/     M anipulation  |
\*---------------------------------------------------------------------------*/
FoamFile
{
    format      ascii;
    class       surfaceScalarField;
    location    "6.9";
    object      phi;
}
// * * * * * * * * * * * * * * * * * * * * * * * * * * * * * * * * * * * * * //

dimensions      [0 3 -1 0 0 0 0];

internalField   nonuniform List<scalar> 
22800
(
-2.58507e-06
3.16531e-06
-5.84573e-07
-8.24641e-06
5.83482e-06
-1.73478e-07
-1.49646e-05
6.68765e-06
3.05373e-08
-2.20833e-05
6.9679e-06
1.50778e-07
-2.93272e-05
7.09075e-06
1.5318e-07
-3.65721e-05
7.16948e-06
7.54522e-08
-4.37013e-05
7.19087e-06
-6.17124e-08
-5.05477e-05
7.1016e-06
-2.55221e-07
-5.68536e-05
6.83697e-06
-5.31036e-07
-6.22738e-05
6.32144e-06
-9.01263e-07
-6.6369e-05
5.47485e-06
-1.37959e-06
-6.86178e-05
4.22398e-06
-1.9752e-06
-6.84543e-05
2.52282e-06
-2.68635e-06
-6.53393e-05
3.80117e-07
-3.49513e-06
-5.88461e-05
-2.14988e-06
-4.34327e-06
-4.89034e-05
-4.82703e-06
-5.11572e-06
-3.59774e-05
-7.27409e-06
-5.65191e-06
-2.13732e-05
-8.8668e-06
-5.73742e-06
-7.4852e-06
-8.69009e-06
-5.1979e-06
-4.55735e-06
-2.92785e-06
-5.11079e-06
9.96134e-06
-1.68525e-06
-1.47115e-05
1.689e-05
-1.4544e-06
-2.58536e-05
1.91063e-05
-1.27655e-06
-3.75264e-05
1.97609e-05
-1.12029e-06
-4.92841e-05
1.9906e-05
-1.0576e-06
-6.08858e-05
1.98364e-05
-1.06519e-06
-7.21079e-05
1.95475e-05
-1.13457e-06
-8.26615e-05
1.89315e-05
-1.27637e-06
-9.2157e-05
1.78408e-05
-1.50831e-06
-0.000100087
1.61032e-05
-1.85172e-06
-0.000105819
1.35347e-05
-2.32801e-06
-0.000108604
9.96189e-06
-2.95314e-06
-0.000107672
5.31999e-06
-3.72828e-06
-0.000102312
-3.34137e-07
-4.6467e-06
-9.18937e-05
-6.97018e-06
-5.59756e-06
-7.6351e-05
-1.3895e-05
-6.47469e-06
-5.63791e-05
-2.01837e-05
-7.06229e-06
-3.38778e-05
-2.42826e-05
-7.08548e-06
-1.23804e-05
-2.38861e-05
-6.30147e-06
-1.37166e-05
-3.22115e-06
-5.97682e-06
1.82231e-05
-2.28492e-06
-1.70376e-05
3.01346e-05
-2.18384e-06
-2.97769e-05
3.38747e-05
-2.02901e-06
-4.30554e-05
3.48807e-05
-1.84129e-06
-5.6388e-05
3.49737e-05
-1.73509e-06
-6.95192e-05
3.46605e-05
-1.69289e-06
-8.22145e-05
3.39532e-05
-1.71036e-06
-9.41738e-05
3.26946e-05
-1.80383e-06
-0.00010499
3.06551e-05
-1.99823e-06
-0.000114124
2.75607e-05
-2.32357e-06
-0.000120893
2.31148e-05
-2.81067e-06
-0.000124487
1.70409e-05
-3.48571e-06
-0.00012396
9.15982e-06
-4.36633e-06
-0.000118352
-5.13435e-07
-5.42845e-06
-0.000106903
-1.18354e-05
-6.58445e-06
-8.93302e-05
-2.3783e-05
-7.68453e-06
-6.62836e-05
-3.47797e-05
-8.45057e-06
-3.99281e-05
-4.21173e-05
-8.52074e-06
-1.45364e-05
-4.17085e-05
-7.56933e-06
-2.44826e-05
-3.77036e-06
-6.1956e-06
2.71571e-05
-2.73843e-06
-1.77743e-05
4.44763e-05
-2.76306e-06
-3.11e-05
4.9836e-05
-2.6356e-06
-4.49995e-05
5.12113e-05
-2.43113e-06
-5.89998e-05
5.12739e-05
-2.29984e-06
-7.28765e-05
5.07659e-05
-2.22875e-06
-8.64308e-05
4.97264e-05
-2.21888e-06
-9.93989e-05
4.7956e-05
-2.29334e-06
-0.000111404
4.51457e-05
-2.485e-06
-0.000121918
4.0909e-05
-2.83492e-06
-0.000130224
3.48092e-05
-3.38803e-06
-0.000135404
2.64082e-05
-4.18738e-06
-0.000136341
1.53647e-05
-5.26814e-06
-0.00013184
1.62954e-06
-6.64397e-06
-0.000120646
-1.48417e-05
-8.18774e-06
-0.000102062
-3.26523e-05
-9.71469e-06
-7.64791e-05
-4.95152e-05
-1.08473e-05
-4.62755e-05
-6.12546e-05
-1.10663e-05
-1.67055e-05
-6.13746e-05
-9.90387e-06
-3.61867e-05
-5.00148e-06
-6.17558e-06
3.64336e-05
-3.10087e-06
-1.79523e-05
5.94874e-05
-3.23435e-06
-3.15577e-05
6.65752e-05
-3.13379e-06
-4.58069e-05
6.83866e-05
-2.92602e-06
-6.02575e-05
6.8514e-05
-2.78954e-06
-7.47384e-05
6.79647e-05
-2.71785e-06
-8.91164e-05
6.68216e-05
-2.71717e-06
-0.000103197
6.48553e-05
-2.81828e-06
-0.000116672
6.16846e-05
-3.06473e-06
-0.000129055
5.6805e-05
-3.51255e-06
-0.000139622
4.96049e-05
-4.22831e-06
-0.00014735
3.94172e-05
-5.28099e-06
-0.000150882
2.56245e-05
-6.72854e-06
-0.000148522
7.88139e-06
-8.61176e-06
-0.00013855
-1.39497e-05
-1.08635e-05
-0.000119406
-3.86246e-05
-1.31721e-05
-9.09137e-05
-6.29851e-05
-1.5022e-05
-5.55478e-05
-8.1005e-05
-1.56156e-05
-1.99745e-05
-8.2796e-05
-1.41519e-05
-4.88215e-05
-7.33962e-06
-6.07031e-06
4.59462e-05
-3.44232e-06
-1.79456e-05
7.50456e-05
-3.68292e-06
-3.17465e-05
8.39874e-05
-3.61127e-06
-4.62753e-05
8.63239e-05
-3.4086e-06
-6.11281e-05
8.6646e-05
-3.27924e-06
-7.62036e-05
8.62656e-05
-3.22531e-06
-9.14591e-05
8.53369e-05
-3.25984e-06
-0.000106805
8.36245e-05
-3.42289e-06
-0.000122043
8.06939e-05
-3.77222e-06
-0.000136783
7.59307e-05
-4.38498e-06
-0.000150352
6.85329e-05
-5.35952e-06
-0.000161654
5.75309e-05
-6.81106e-06
-0.000169067
4.18928e-05
-8.85546e-06
-0.000170362
2.07493e-05
-1.15728e-05
-0.000162988
-6.3228e-06
-1.50014e-05
-0.000144108
-3.88026e-05
-1.87017e-05
-0.000112378
-7.27744e-05
-2.19411e-05
-6.99285e-05
-0.000100034
-2.34207e-05
-2.5367e-05
-0.000105744
-2.16133e-05
-6.26958e-05
-1.14927e-05
-5.91764e-06
5.56792e-05
-3.81533e-06
-1.78484e-05
9.11533e-05
-4.17695e-06
-3.1799e-05
0.000102075
-4.13731e-06
-4.65491e-05
0.000105015
-3.94073e-06
-6.17366e-05
0.000105654
-3.82024e-06
-7.73445e-05
0.000105662
-3.78866e-06
-9.34458e-05
0.000105307
-3.86866e-06
-0.000110096
0.000104387
-4.11298e-06
-0.000127262
0.000102459
-4.59858e-06
-0.000144733
9.88353e-05
-5.43312e-06
-0.000161982
9.25448e-05
-6.76328e-06
-0.000177966
8.22943e-05
-8.7795e-06
-0.000190875
6.65014e-05
-1.16998e-05
-0.000197927
4.35179e-05
-1.5716e-05
-0.000195399
1.21811e-05
-2.10324e-05
-0.000178778
-2.81561e-05
-2.72674e-05
-0.000144385
-7.389e-05
-3.32774e-05
-9.2841e-05
-0.000114653
-3.69245e-05
-3.48738e-05
-0.000128652
-3.50595e-05
-7.84054e-05
-1.91642e-05
-5.72234e-06
6.56544e-05
-4.25288e-06
-1.76731e-05
0.000107863
-4.75898e-06
-3.17107e-05
0.000120865
-4.75226e-06
-4.65743e-05
0.000124432
-4.55406e-06
-6.19428e-05
0.000125455
-4.43251e-06
-7.78939e-05
0.000126027
-4.41388e-06
-9.46387e-05
0.000126585
-4.53378e-06
-0.000112417
0.000127027
-4.86168e-06
-0.000131431
0.000126973
-5.49989e-06
-0.000151753
0.000125755
-6.59817e-06
-0.000173158
0.000122325
-8.37441e-06
-0.000194868
0.000115141
-1.11372e-05
-0.000215149
0.000102072
-1.5289e-05
-0.000230771
8.04428e-05
-2.13033e-05
-0.000236584
4.7531e-05
-2.95368e-05
-0.000226568
2.20537e-06
-4.03773e-05
-0.000192374
-5.63529e-05
-5.17315e-05
-0.000130846
-0.000115615
-6.05662e-05
-5.31576e-05
-0.000146161
-6.01791e-05
-9.66318e-05
-3.49311e-05
-5.49987e-06
7.59385e-05
-4.78421e-06
-1.74469e-05
0.000125277
-5.46721e-06
-3.14862e-05
0.000140395
-5.49041e-06
-4.62916e-05
0.00014451
-5.27253e-06
-6.15767e-05
0.000145866
-5.12611e-06
-7.75162e-05
0.000147061
-5.09416e-06
-9.44716e-05
0.000148769
-5.2286e-06
-0.000112895
0.000151071
-5.61979e-06
-0.000133285
0.000153765
-6.4017e-06
-0.000156107
0.000156354
-7.77783e-06
-0.000181638
0.000157918
-1.0063e-05
-0.000209671
0.000156916
-1.37417e-05
-0.000239005
0.000150932
-1.95259e-05
-0.000266682
0.000136446
-2.83274e-05
-0.000286941
0.000108898
-4.11076e-05
-0.000289748
6.36135e-05
-5.86005e-05
-0.000264491
-1.2361e-06
-8.03743e-05
-0.000196201
-8.40972e-05
-9.98076e-05
-9.07448e-05
-0.000146781
-0.000104836
-0.000119178
-6.81987e-05
-5.30295e-06
8.6689e-05
-5.44756e-06
-1.72686e-05
0.000143593
-6.34993e-06
-3.12209e-05
0.000160742
-6.3942e-06
-4.57378e-05
0.000165152
-6.1251e-06
-6.05579e-05
0.000166599
-5.91254e-06
-7.5949e-05
0.000168272
-5.82021e-06
-9.24152e-05
0.000171155
-5.91922e-06
-0.000110617
0.000175595
-6.32267e-06
-0.000131365
0.000181713
-7.20021e-06
-0.000155597
0.000189407
-8.82007e-06
-0.000184286
0.000198226
-1.16199e-05
-0.000218173
0.000207112
-1.63078e-05
-0.000257251
0.000213995
-2.39856e-05
-0.000299866
0.000215301
-3.62398e-05
-0.000341303
0.000205263
-5.49277e-05
-0.000371079
0.000174994
-8.16046e-05
-0.000368316
0.000111848
-0.000115847
-0.000307776
6.08623e-06
-0.000150724
-0.000167899
-0.00012195
-0.000164708
-0.000159933
-0.000127144
-5.25201e-06
9.82454e-05
-6.30435e-06
-1.7367e-05
0.000163188
-7.47982e-06
-3.11744e-05
0.000182076
-7.52721e-06
-4.5133e-05
0.000186268
-7.15674e-06
-5.89969e-05
0.000187277
-6.81428e-06
-7.31228e-05
0.000188987
-6.58885e-06
-8.81249e-05
0.00019273
-6.57269e-06
-0.000104819
0.000199189
-6.89986e-06
-0.000124263
0.000208928
-7.77165e-06
-0.000147815
0.000222476
-9.51769e-06
-0.000177162
0.000240268
-1.26935e-05
-0.000214299
0.000262445
-1.81968e-05
-0.000261236
0.000288455
-2.75222e-05
-0.000319258
0.00031611
-4.27875e-05
-0.000387348
0.000339504
-6.61514e-05
-0.000457963
0.000343519
-9.79103e-05
-0.000506964
0.000293787
-0.000132937
-0.000476744
0.000132868
-0.000157002
-0.000304609
-0.000126271
-0.000167814
-0.000285963
-0.000178579
-5.58581e-06
0.000111295
-7.46404e-06
-1.8179e-05
0.000184767
-8.98617e-06
-3.18587e-05
0.000204769
-9.01337e-06
-4.49674e-05
0.000207843
-8.46622e-06
-5.73011e-05
0.000207505
-7.89468e-06
-6.93013e-05
0.000208414
-7.42732e-06
-8.16408e-05
0.000212249
-7.18018e-06
-9.5173e-05
0.000220023
-7.30214e-06
-0.000111033
0.000232801
-8.01271e-06
-0.000130771
0.00025189
-9.67551e-06
-0.000156542
0.000278936
-1.28977e-05
-0.000191376
0.000315868
-1.85878e-05
-0.000239498
0.000364666
-2.80895e-05
-0.00030654
0.000425445
-4.22925e-05
-0.000398971
0.00049084
-5.89051e-05
-0.000517083
0.000528734
-6.71027e-05
-0.00064075
0.000464915
-4.74616e-05
-0.000685714
0.000170651
7.18074e-06
-0.000486347
-0.000341792
1.61552e-05
-0.000646321
-0.000125989
-6.74621e-06
0.000127144
-9.10284e-06
-2.04637e-05
0.000209485
-1.10003e-05
-3.41416e-05
0.000229355
-1.09078e-05
-4.60993e-05
0.000229853
-1.00523e-05
-5.62718e-05
0.000226809
-9.13105e-06
-6.52027e-05
0.000225654
-8.3089e-06
-7.35723e-05
0.000228328
-7.70875e-06
-8.20862e-05
0.000236007
-7.46968e-06
-9.16495e-05
0.000250171
-7.807e-06
-0.000103548
0.000272828
-9.03994e-06
-0.000119777
0.000306842
-1.16762e-05
-0.000143564
0.000355797
-1.61429e-05
-0.000180776
0.000424123
-2.22453e-05
-0.000241996
0.000512217
-2.55524e-05
-0.000349005
0.000608483
-1.06338e-05
-0.000528379
0.000653124
5.49848e-05
-0.000780212
0.000515816
0.000200931
-0.000937332
-3.31329e-05
0.000360904
-0.000666923
-0.000941804
0.000329603
-0.00132081
7.56593e-06
-9.75023e-06
0.00014867
-1.17755e-05
-2.57088e-05
0.000239775
-1.4332e-05
-3.94736e-05
0.000257291
-1.4171e-05
-4.97386e-05
0.000252959
-1.2841e-05
-5.69898e-05
0.000245314
-1.12537e-05
-6.19784e-05
0.000240369
-9.72582e-06
-6.52098e-05
0.000240015
-8.4565e-06
-6.70541e-05
0.000245466
-7.61492e-06
-6.78597e-05
0.000258333
-7.35647e-06
-6.80549e-05
0.00028089
-7.86701e-06
-6.86882e-05
0.000316803
-9.32767e-06
-7.22506e-05
0.000370367
-1.10074e-05
-8.65337e-05
0.000447969
-9.56252e-06
-0.000130582
0.000548012
8.25384e-06
-0.000256248
0.00065843
7.57183e-05
-0.000535026
0.000687961
0.00024394
-0.000967384
0.000431458
0.000516717
-0.00117159
-0.000526726
0.000697804
-0.00081502
-0.001779
0.000480619
-0.00216456
2.87273e-05
-1.50731e-05
0.000179382
-1.56389e-05
-3.46543e-05
0.000277383
-1.80267e-05
-4.89882e-05
0.000288964
-1.73396e-05
-5.79248e-05
0.000276997
-1.51015e-05
-6.1989e-05
0.000262147
-1.2769e-05
-6.22299e-05
0.000251174
-1.05647e-05
-5.92193e-05
0.000245677
-8.67251e-06
-5.29579e-05
0.000246421
-7.21608e-06
-4.30336e-05
0.000254723
-6.31432e-06
-2.8576e-05
0.000272401
-5.96887e-06
-8.97337e-06
0.000303166
-5.96558e-06
1.42456e-05
0.000351266
-4.1177e-06
3.24177e-05
0.000423804
5.99268e-06
1.47788e-05
0.000519495
4.61557e-05
-0.000116751
0.000629826
0.000160133
-0.000472305
0.000641718
0.000401798
-0.00100371
0.000249001
0.000713861
-0.00122787
-0.00106529
0.000762726
-0.000921995
-0.00244159
0.000356724
-0.00298194
-0.000104616
-3.62441e-05
0.000239376
-2.37497e-05
-5.93908e-05
0.000328526
-2.7996e-05
-7.05284e-05
0.000326452
-2.63499e-05
-7.27167e-05
0.000301899
-2.27137e-05
-6.99984e-05
0.000277848
-1.84192e-05
-6.38746e-05
0.000259357
-1.43064e-05
-5.439e-05
0.000246942
-1.07491e-05
-4.0464e-05
0.000240426
-7.9312e-06
-2.05771e-05
0.000240819
-5.98232e-06
7.98159e-06
0.000248561
-4.71844e-06
4.70167e-05
0.000267733
-3.60213e-06
9.83902e-05
0.000299797
9.5506e-08
0.000155917
0.000352127
1.41504e-05
0.000194076
0.000420467
6.08695e-05
0.000123833
0.000509517
0.000190552
-0.000169049
0.00050271
0.000431889
-0.000662457
4.56684e-05
0.000696741
-0.00101696
-0.00132035
0.000609559
-0.000916153
-0.00275994
0.000217547
-0.00362003
-0.000278062
-3.05326e-05
0.000309272
-3.93633e-05
-7.11111e-05
0.000408035
-3.89308e-05
-9.01219e-05
0.000380216
-3.47536e-05
-9.59499e-05
0.000334524
-2.67974e-05
-9.04249e-05
0.000292802
-2.04789e-05
-7.72162e-05
0.00026083
-1.46822e-05
-5.8187e-05
0.000237738
-9.82509e-06
-3.31034e-05
0.00022139
-6.04787e-06
-6.21036e-07
0.000211981
-3.64468e-06
4.19608e-05
0.000208185
-2.20554e-06
9.90467e-05
0.000212466
-1.81879e-06
0.000175286
0.000223321
2.36225e-07
0.000269459
0.000246973
1.09812e-05
0.000370816
0.000273988
4.51221e-05
0.000423677
0.000311585
0.000145071
0.000313653
0.000282914
0.000329821
-6.80542e-05
-8.0371e-05
0.000507746
-0.000584171
-0.00125286
0.000448617
-0.000738757
-0.00276336
0.000158002
-0.00392396
-0.000434822
-0.000180231
0.000538389
-4.88863e-05
-0.000178598
0.000467307
-6.09048e-05
-0.000151764
0.000412131
-5.87477e-05
-0.000121554
0.000353628
-4.93145e-05
-8.30383e-05
0.000290208
-3.59213e-05
-4.11998e-05
0.000242545
-2.35528e-05
2.37932e-06
0.00020812
-1.39618e-05
4.88928e-05
0.000181826
-6.9492e-06
9.97072e-05
0.000164004
-2.83693e-06
0.000159256
0.000150036
-1.39945e-06
0.000229997
0.000144234
-2.50961e-06
0.000319393
0.000139286
-5.36072e-06
0.00042564
0.000144377
-3.65123e-06
0.000546456
0.000141854
1.13177e-05
0.000656976
0.000139918
6.11468e-05
0.000691183
7.49506e-05
0.000173756
0.000527202
-0.000186492
0.000270102
1.78151e-06
-0.00101784
0.000290402
-0.000388452
-0.00244362
7.04976e-05
-0.00374112
-0.000571299
-0.000370694
0.00107849
-0.000169409
-0.000261612
0.000482542
-0.000124317
-0.000107411
0.00035236
-9.44308e-05
6.13677e-05
0.000250745
-6.58955e-05
0.000221541
0.000177429
-4.73943e-05
0.00036785
0.000128991
-3.27542e-05
0.000498479
9.908e-05
-2.15895e-05
0.000616037
7.76868e-05
-1.34181e-05
0.000722795
6.51237e-05
-7.87888e-06
0.00082407
5.41219e-05
-5.3606e-06
0.000923641
5.05096e-05
-5.84647e-06
0.0010283
4.48108e-05
-1.01857e-05
0.00114279
4.53064e-05
-1.54208e-05
0.00126457
3.6257e-05
-1.6179e-05
0.00139477
1.86604e-05
-8.94752e-06
0.00148229
-4.99275e-05
3.73589e-05
0.00143805
-0.000235698
9.34535e-05
0.00103571
-0.000733274
0.00011777
0.000280272
-0.00169364
5.45743e-06
-0.00275618
-0.000704667
0.00122716
-0.000148673
0.00186887
-0.000159164
0.00237884
-0.000157606
0.00277224
-0.000142659
0.00307462
-0.000124949
0.00331313
-0.000109517
0.00350757
-9.53654e-05
0.00366947
-8.42081e-05
0.0038075
-7.29082e-05
0.00392776
-6.61445e-05
0.00403648
-5.82042e-05
0.00413719
-5.59017e-05
0.00423303
-5.0534e-05
0.00432093
-5.16379e-05
0.00438128
-4.16901e-05
0.00437315
-4.18032e-05
0.00415758
-2.01228e-05
0.00347638
-5.20737e-05
0.00189515
-0.000112412
-0.00086103
-4.45311e-06
5.0259e-06
-1.15737e-06
-1.41255e-05
1.04701e-05
-9.71258e-07
-2.56091e-05
1.22871e-05
-7.72978e-07
-3.75341e-05
1.27246e-05
-6.4874e-07
-4.94351e-05
1.27105e-05
-6.56293e-07
-6.11159e-05
1.25295e-05
-7.7334e-07
-7.23782e-05
1.21919e-05
-9.91264e-07
-8.29335e-05
1.16221e-05
-1.32209e-06
-9.23956e-05
1.07158e-05
-1.78473e-06
-0.000100254
9.35754e-06
-2.40084e-06
-0.000105874
7.42975e-06
-3.18934e-06
-0.00010852
4.83003e-06
-4.1592e-06
-0.000107407
1.50106e-06
-5.30021e-06
-0.000101792
-2.54303e-06
-6.56714e-06
-9.11461e-05
-7.12293e-06
-7.866e-06
-7.53711e-05
-1.18444e-05
-9.04632e-06
-5.51491e-05
-1.59865e-05
-9.88743e-06
-3.24407e-05
-1.8326e-05
-1.01198e-05
-1.12494e-05
-1.69253e-05
-9.46394e-06
-7.95693e-06
-6.22031e-06
-1.01349e-05
1.59724e-05
-2.49686e-06
-2.83278e-05
2.99102e-05
-2.70149e-06
-4.93018e-05
3.45282e-05
-2.54358e-06
-7.08613e-05
3.55133e-05
-2.34954e-06
-9.21275e-05
3.5198e-05
-2.27897e-06
-0.000112631
3.42978e-05
-2.32955e-06
-0.000131942
3.28699e-05
-2.50234e-06
-0.00014954
3.07625e-05
-2.81887e-06
-0.000164774
2.77519e-05
-3.30977e-06
-0.000176842
2.35828e-05
-4.00892e-06
-0.000184788
1.79943e-05
-4.94633e-06
-0.000187522
1.07492e-05
-6.13917e-06
-0.000184002
1.83311e-06
-7.58013e-06
-0.000173154
-8.82028e-06
-9.2171e-06
-0.00015429
-2.0681e-05
-1.09036e-05
-0.0001274
-3.2766e-05
-1.24435e-05
-9.36162e-05
-4.33054e-05
-1.35268e-05
-5.59793e-05
-4.92724e-05
-1.3776e-05
-2.05924e-05
-4.58788e-05
-1.27348e-05
-2.38666e-05
-7.90389e-06
-1.24725e-05
2.94417e-05
-3.28174e-06
-3.43046e-05
5.32974e-05
-3.73894e-06
-5.92262e-05
6.10376e-05
-3.61692e-06
-8.46768e-05
6.25022e-05
-3.37951e-06
-0.000109656
6.16919e-05
-3.24981e-06
-0.00013363
5.98178e-05
-3.2391e-06
-0.000156116
5.70026e-05
-3.35675e-06
-0.000176549
5.30254e-05
-3.63371e-06
-0.000194225
4.75426e-05
-4.1126e-06
-0.000208275
4.015e-05
-4.84134e-06
-0.000217652
3.0426e-05
-5.86567e-06
-0.000221172
1.80036e-05
-7.22011e-06
-0.000217501
2.71324e-06
-8.91671e-06
-0.00020533
-1.55372e-05
-1.08833e-05
-0.000183707
-3.59048e-05
-1.29832e-05
-0.00015238
-5.6816e-05
-1.49617e-05
-0.000112459
-7.52654e-05
-1.64111e-05
-6.7455e-05
-8.5986e-05
-1.68114e-05
-2.48235e-05
-8.05414e-05
-1.55382e-05
-4.29797e-05
-9.4807e-06
-1.33341e-05
4.39628e-05
-3.92545e-06
-3.67243e-05
7.85376e-05
-4.61305e-06
-6.33612e-05
8.95718e-05
-4.53285e-06
-9.05375e-05
9.15193e-05
-4.27205e-06
-0.000117249
9.02099e-05
-4.10657e-06
-0.000142993
8.73931e-05
-4.06e-06
-0.000167328
8.32705e-05
-4.15128e-06
-0.000189732
7.75585e-05
-4.42306e-06
-0.000209531
6.97903e-05
-4.93312e-06
-0.000225857
5.93901e-05
-5.7495e-06
-0.000237601
4.5725e-05
-6.94271e-06
-0.000243405
2.81959e-05
-8.57582e-06
-0.0002417
6.42756e-06
-1.06875e-05
-0.00023071
-1.99048e-05
-1.32661e-05
-0.000208821
-4.98738e-05
-1.61073e-05
-0.000175147
-8.13042e-05
-1.89007e-05
-0.000130419
-0.000109769
-2.10721e-05
-7.85471e-05
-0.000127081
-2.18433e-05
-2.87106e-05
-0.000119987
-2.02945e-05
-6.43715e-05
-1.23203e-05
-1.36859e-05
5.90416e-05
-4.49381e-06
-3.79493e-05
0.000104971
-5.4047e-06
-6.56347e-05
0.000119493
-5.36951e-06
-9.3951e-05
0.00012201
-5.10044e-06
-0.00012193
0.000120323
-4.9232e-06
-0.000149149
0.000116768
-4.87437e-06
-0.00017526
0.000111649
-4.98421e-06
-0.000199842
0.000104632
-5.31033e-06
-0.000222307
9.51225e-05
-5.93093e-06
-0.000241836
8.23485e-05
-6.94284e-06
-0.000257278
6.53946e-05
-8.45589e-06
-0.000267083
4.32973e-05
-1.05773e-05
-0.000269253
1.52532e-05
-1.33841e-05
-0.000261401
-1.94039e-05
-1.69644e-05
-0.000240871
-6.01844e-05
-2.1083e-05
-0.000205606
-0.000104415
-2.53267e-05
-0.000155435
-0.00014609
-2.88719e-05
-9.44698e-05
-0.000173206
-3.04561e-05
-3.44242e-05
-0.000165673
-2.85116e-05
-8.89311e-05
-1.72042e-05
-1.3926e-05
7.45896e-05
-5.06432e-06
-3.89343e-05
0.000132507
-6.21041e-06
-6.7572e-05
0.000150745
-6.22518e-06
-9.697e-05
0.000153956
-5.95684e-06
-0.000126212
0.000152067
-5.78244e-06
-0.000154985
0.00014807
-5.75347e-06
-0.000183085
0.000142404
-5.91433e-06
-0.000210243
0.000134709
-6.34183e-06
-0.000236032
0.000124281
-7.14171e-06
-0.000259754
0.000110136
-8.45127e-06
-0.000280294
9.10146e-05
-1.04395e-05
-0.00029595
6.54382e-05
-1.32955e-05
-0.000304252
3.19103e-05
-1.72107e-05
-0.000302027
-1.0883e-05
-2.23186e-05
-0.000285095
-6.35977e-05
-2.85204e-05
-0.000249476
-0.00012346
-3.52752e-05
-0.00019311
-0.00018302
-4.13775e-05
-0.000119571
-0.000225466
-4.4699e-05
-4.40002e-05
-0.000220571
-4.2286e-05
-0.000119228
-2.51963e-05
-1.41715e-05
9.06484e-05
-5.70262e-06
-3.99671e-05
0.000161242
-7.11616e-06
-6.96064e-05
0.000183432
-7.1856e-06
-0.000100124
0.00018745
-6.91661e-06
-0.000130664
0.000185531
-6.74397e-06
-0.000161055
0.00018141
-6.73728e-06
-0.00019128
0.000175719
-6.95892e-06
-0.0002213
0.000168125
-7.51032e-06
-0.000250939
0.000157856
-8.53388e-06
-0.000279752
0.000143739
-1.02236e-05
-0.000306814
0.000124149
-1.2836e-05
-0.000330434
9.69717e-05
-1.66922e-05
-0.000347769
5.97081e-05
-2.21629e-05
-0.00035482
1.00233e-05
-2.95713e-05
-0.000345468
-5.48899e-05
-3.90924e-05
-0.00031282
-0.000133222
-5.01532e-05
-0.000251154
-0.000216916
-6.10471e-05
-0.00016133
-0.00028406
-6.81535e-05
-6.17213e-05
-0.000289687
-6.55534e-05
-0.000161709
-3.84047e-05
-1.4448e-05
0.000107303
-6.4591e-06
-4.11133e-05
0.000191338
-8.18986e-06
-7.1806e-05
0.000217687
-8.31479e-06
-0.000103431
0.000222551
-8.03025e-06
-0.000135196
0.000220704
-7.83956e-06
-0.000167098
0.000216733
-7.83458e-06
-0.000199358
0.000211544
-8.09974e-06
-0.000232243
0.000204915
-8.76663e-06
-0.000265961
0.000196099
-1.00239e-05
-0.000300506
0.000183826
-1.21406e-05
-0.000335406
0.000166171
-1.54971e-05
-0.000369332
0.000140375
-2.06139e-05
-0.000399518
0.000102743
-2.81378e-05
-0.000420952
4.89107e-05
-3.87575e-05
-0.000426317
-2.56441e-05
-5.34167e-05
-0.00040459
-0.000123604
-7.17225e-05
-0.00034356
-0.000238316
-9.13621e-05
-0.000236107
-0.000345725
-0.000106354
-9.86665e-05
-0.0003825
-0.000104807
-0.000234188
-6.11186e-05
-1.4783e-05
0.000124687
-7.38521e-06
-4.24249e-05
0.000223014
-9.50108e-06
-7.41938e-05
0.000253642
-9.6757e-06
-0.000106817
0.000259246
-9.34389e-06
-0.000139568
0.000257422
-9.09269e-06
-0.000172628
0.000253739
-9.0409e-06
-0.000206497
0.000249483
-9.29861e-06
-0.000241828
0.000244658
-1.00314e-05
-0.000279345
0.000238695
-1.1481e-05
-0.000319714
0.000230425
-1.40075e-05
-0.000363294
0.00021784
-1.8152e-05
-0.000409685
0.000197742
-2.47176e-05
-0.000456987
0.000165356
-3.48375e-05
-0.000500586
0.00011417
-4.99874e-05
-0.000532501
3.67833e-05
-7.162e-05
-0.000538109
-7.58476e-05
-0.000100749
-0.000495522
-0.000226825
-0.000134453
-0.00037794
-0.00040085
-0.000162265
-0.000181161
-0.000520937
-0.000163177
-0.00038386
-9.96878e-05
-1.52536e-05
0.000143042
-8.54928e-06
-4.40444e-05
0.000256594
-1.11395e-05
-7.68992e-05
0.00029145
-1.13484e-05
-0.000110312
0.00029745
-1.0916e-05
-0.000143615
0.000295346
-1.05336e-05
-0.000177187
0.000291843
-1.03522e-05
-0.000211824
0.000288711
-1.05098e-05
-0.000248609
0.000286326
-1.12056e-05
-0.000288889
0.000284508
-1.27339e-05
-0.000334235
0.000282502
-1.55505e-05
-0.000386301
0.000278665
-2.03781e-05
-0.00044644
0.000269935
-2.83615e-05
-0.000514996
0.000251175
-4.12485e-05
-0.000590196
0.000214527
-6.13973e-05
-0.000665751
0.000148747
-9.1337e-05
-0.000728301
3.74065e-05
-0.000132308
-0.000739787
-0.000153182
-0.000178004
-0.000633755
-0.00044757
-0.000210035
-0.000348218
-0.000764704
-0.000206479
-0.000711387
-0.000147835
-1.6029e-05
0.000162822
-1.00555e-05
-4.62896e-05
0.00029261
-1.32354e-05
-8.02682e-05
0.00033135
-1.3448e-05
-0.000114173
0.000337031
-1.28327e-05
-0.000147395
0.000333966
-1.22134e-05
-0.000180513
0.000330151
-1.17787e-05
-0.000214611
0.00032793
-1.16946e-05
-0.000251176
0.000328178
-1.21865e-05
-0.000292182
0.000331329
-1.35867e-05
-0.000340214
0.000337437
-1.64216e-05
-0.000398579
0.000345894
-2.15574e-05
-0.000471311
0.000354888
-3.04183e-05
-0.000563023
0.000360599
-4.52344e-05
-0.000678186
0.000355719
-6.8815e-05
-0.000817918
0.000324785
-0.000102457
-0.00096714
0.00022842
-0.000139701
-0.00106906
-2.50245e-05
-0.000159174
-0.00099037
-0.000545563
-0.000137699
-0.000590576
-0.00121285
-0.000119466
-0.00132348
-0.000157061
-1.74443e-05
0.000184877
-1.20748e-05
-4.97687e-05
0.000331953
-1.60042e-05
-8.49869e-05
0.000373734
-1.61795e-05
-0.000119009
0.000377849
-1.52617e-05
-0.000151329
0.000372639
-1.42475e-05
-0.000182735
0.00036751
-1.33802e-05
-0.000214535
0.000365405
-1.28553e-05
-0.000248511
0.000367763
-1.29109e-05
-0.00028711
0.000375799
-1.38843e-05
-0.000333787
0.000390745
-1.6306e-05
-0.000393497
0.000413752
-2.10453e-05
-0.000473235
0.000445497
-2.94582e-05
-0.000582827
0.000485317
-4.32165e-05
-0.000734566
0.000527297
-6.21314e-05
-0.000936309
0.000544657
-7.7034e-05
-0.00116802
0.000450737
-5.77077e-05
-0.00134463
6.53851e-05
3.87383e-05
-0.00128166
-0.000782378
0.000181021
-0.000776206
-0.00185807
0.00015593
-0.00215026
-7.54181e-05
-2.00398e-05
0.000210679
-1.48653e-05
-5.54412e-05
0.00037603
-1.96763e-05
-9.21899e-05
0.00041925
-1.96754e-05
-0.000125964
0.000419835
-1.82643e-05
-0.000156428
0.000410638
-1.66671e-05
-0.000184602
0.000402548
-1.51734e-05
-0.000211961
0.000399044
-1.39885e-05
-0.000240361
0.000402024
-1.33305e-05
-0.0002723
0.000413424
-1.34929e-05
-0.00031152
0.000435808
-1.48834e-05
-0.000363848
0.000472469
-1.80651e-05
-0.000438099
0.000527091
-2.34864e-05
-0.000547369
0.000602207
-2.98642e-05
-0.000707485
0.000689425
-2.75648e-05
-0.0009294
0.000741468
1.44703e-05
-0.00119627
0.000615638
0.00015695
-0.00142997
7.61852e-05
0.000423833
-0.00138533
-0.00109558
0.000629466
-0.000828734
-0.00248065
0.000395596
-0.00297956
8.13274e-06
-2.54302e-05
0.000243406
-1.90715e-05
-6.5658e-05
0.000427177
-2.52513e-05
-0.000103936
0.000468432
-2.50749e-05
-0.000136417
0.000462401
-2.29252e-05
-0.000163691
0.000446994
-2.0335e-05
-0.000187137
0.00043403
-1.77617e-05
-0.000208072
0.000427014
-1.54908e-05
-0.000227975
0.000428059
-1.3748e-05
-0.000248882
0.000439693
-1.27177e-05
-0.00027382
0.000465426
-1.25467e-05
-0.000307871
0.000510335
-1.31421e-05
-0.000358948
0.000580172
-1.30117e-05
-0.000440105
0.00067966
-5.85863e-06
-0.000567911
0.000794337
3.11469e-05
-0.000766816
0.000863281
0.000152811
-0.00104041
0.000706662
0.000426509
-0.00132523
6.97929e-05
0.000807935
-0.00129577
-0.00132415
0.000896899
-0.000787095
-0.00285897
0.000350264
-0.0037
-3.79264e-05
-3.22814e-05
0.000284957
-2.49085e-05
-7.92715e-05
0.000488083
-3.1942e-05
-0.000120888
0.000523825
-3.11162e-05
-0.000153594
0.00050771
-2.77046e-05
-0.000177518
0.00048207
-2.3921e-05
-0.000194676
0.000460787
-2.01648e-05
-0.000206724
0.000447114
-1.67244e-05
-0.000214846
0.000442733
-1.37674e-05
-0.000220066
0.000449972
-1.1374e-05
-0.000223595
0.000472364
-9.37749e-06
-0.000228242
0.00051594
-6.92443e-06
-0.000238397
0.000586766
-5.5672e-07
-0.000265516
0.000691833
2.09387e-05
-0.000325867
0.00081121
8.9634e-05
-0.000466883
0.000896419
0.000268011
-0.000704393
0.000737755
0.000608215
-0.000983874
9.43686e-05
0.000968765
-0.00100086
-0.00137834
0.000833903
-0.000653433
-0.00301335
0.000163686
-0.0042762
-0.000181845
-6.57558e-05
0.000362072
-3.51092e-05
-0.000119502
0.000558739
-4.49058e-05
-0.000155901
0.000577062
-4.31883e-05
-0.000178534
0.000545822
-3.81937e-05
-0.000193135
0.000510364
-3.21123e-05
-0.000201747
0.000481042
-2.59491e-05
-0.000204706
0.000459562
-2.02381e-05
-0.000201327
0.000446676
-1.52539e-05
-0.000190713
0.000444438
-1.10616e-05
-0.00017121
0.000455394
-7.25169e-06
-0.000141998
0.000485705
-2.58025e-06
-0.000102202
0.000539505
7.56127e-06
-5.71982e-05
0.000625677
3.53022e-05
-2.22451e-05
0.000725142
0.000111985
-3.18757e-05
0.000804201
0.000292401
-0.000152858
0.000686019
0.000604607
-0.000339208
0.000113066
0.000864394
-0.000506978
-0.00121809
0.000617074
-0.000402157
-0.00297382
7.31925e-05
-0.0046363
-0.000320127
-4.58246e-05
0.00042166
-5.31272e-05
-0.000130071
0.000666414
-6.23597e-05
-0.000186182
0.000655738
-5.73184e-05
-0.000217482
0.000597817
-4.74932e-05
-0.000230745
0.000541683
-3.85344e-05
-0.000230946
0.000496375
-2.98144e-05
-0.000220774
0.0004615
-2.19355e-05
-0.000200501
0.000435486
-1.51294e-05
-0.000169351
0.000419278
-9.63614e-06
-0.000123495
0.000412326
-4.99348e-06
-5.92744e-05
0.000420014
-3.48274e-07
2.90179e-05
0.000442799
8.65009e-06
0.000144079
0.000489597
3.20006e-05
0.000281173
0.000544237
8.89324e-05
0.00041899
0.000590632
0.000220824
0.000477208
0.000511396
0.000446225
0.000387922
0.000110973
0.000599125
8.79844e-05
-0.000897455
0.000427924
6.22711e-06
-0.00277413
4.00646e-05
-0.00466566
-0.000399234
-0.000192808
0.000627238
-6.16557e-05
-0.000225731
0.000720852
-8.24192e-05
-0.000250156
0.000703846
-8.24307e-05
-0.000266642
0.000636709
-7.17203e-05
-0.000258504
0.000554367
-5.67436e-05
-0.000231811
0.000488048
-4.1918e-05
-0.000191417
0.000436201
-2.90579e-05
-0.000137871
0.000393648
-1.86565e-05
-7.29727e-05
0.000362657
-1.1114e-05
6.6494e-06
0.000337318
-6.01293e-06
0.000102458
0.000324882
-3.18648e-06
0.000222037
0.000318328
-4.68608e-07
0.000369497
0.000329317
9.16913e-06
0.000544324
0.000342076
3.86511e-05
0.000743992
0.000349591
0.00010252
0.000904255
0.000292534
0.000232356
0.0010052
-1.8232e-05
0.000298362
0.000843885
-0.000672371
0.000226633
0.000518637
-0.00238119
2.81298e-06
-0.00426237
-0.000455947
-0.000667218
0.00128729
-0.000162241
-0.000628143
0.000708036
-0.000150576
-0.000488101
0.000592374
-0.000123
-0.000293019
0.000474427
-9.86947e-05
-8.88499e-05
0.000382872
-8.00684e-05
0.000113535
0.000316067
-6.31577e-05
0.000307613
0.000269543
-4.90094e-05
0.000492545
0.000232532
-3.72346e-05
0.000668839
0.000206519
-2.80357e-05
0.000838731
0.00018375
-2.16844e-05
0.00100652
0.0001698
-1.85538e-05
0.00117502
0.000158099
-1.84558e-05
0.00135723
0.000151901
-2.02184e-05
0.00154885
0.00014694
-1.26637e-05
0.00177381
0.000120635
-4.95015e-06
0.00199023
7.11207e-05
4.23555e-05
0.00211433
-0.000132708
8.38234e-05
0.00206858
-0.000560185
5.13393e-05
0.00140237
-0.00167622
-3.33096e-05
-0.00306489
-0.000499779
0.00126984
-0.000131228
0.00197034
-0.000151626
0.00256064
-0.000155528
0.00304098
-0.00014858
0.00343695
-0.000138042
0.00377003
-0.000126536
0.00405921
-0.000114996
0.00431274
-0.000105208
0.00454077
-9.44181e-05
0.00474587
-8.74994e-05
0.00493593
-7.84558e-05
0.00511391
-7.57891e-05
0.00528277
-6.74944e-05
0.00544907
-7.09948e-05
0.00558503
-5.70185e-05
0.00568291
-6.85594e-05
0.00557385
-4.37649e-05
0.00505757
-9.59863e-05
0.003379
-0.000110063
-0.000546913
-5.04798e-06
5.33896e-06
-1.44835e-06
-1.61499e-05
1.17907e-05
-1.66001e-06
-2.93157e-05
1.39787e-05
-1.58593e-06
-4.29012e-05
1.44494e-05
-1.51268e-06
-5.63532e-05
1.43387e-05
-1.54299e-06
-6.94507e-05
1.40064e-05
-1.68231e-06
-8.19762e-05
1.34703e-05
-1.93601e-06
-9.36239e-05
1.26462e-05
-2.32062e-06
-0.000103971
1.14211e-05
-2.859e-06