/*--------------------------------*- C++ -*----------------------------------*\
  =========                 |
  \\      /  F ield         | OpenFOAM: The Open Source CFD Toolbox
   \\    /   O peration     | Website:  https://openfoam.org
    \\  /    A nd           | Version:  10
     \\/     M anipulation  |
\*---------------------------------------------------------------------------*/
FoamFile
{
    format      ascii;
    class       surfaceScalarField;
    location    "4.6";
    object      phi;
}
// * * * * * * * * * * * * * * * * * * * * * * * * * * * * * * * * * * * * * //

dimensions      [0 3 -1 0 0 0 0];

internalField   nonuniform List<scalar> 
760
(
-8.57735e-06
8.57738e-06
-2.809e-05
1.95126e-05
-5.04352e-05
2.23452e-05
-7.27348e-05
2.22996e-05
-9.41038e-05
2.1369e-05
-0.000114097
1.99933e-05
-0.000132282
1.81844e-05
-0.000148152
1.58705e-05
-0.000161123
1.29707e-05
-0.000170532
9.40924e-06
-0.000175659
5.12697e-06
-0.00017575
9.08731e-08
-0.000170093
-5.65633e-06
-0.000158112
-1.19817e-05
-0.000139495
-1.86171e-05
-0.000114355
-2.51394e-05
-8.3515e-05
-3.08403e-05
-4.91538e-05
-3.43612e-05
-1.67401e-05
-3.24138e-05
-1.674e-05
-2.03219e-05
2.88993e-05
-5.69118e-05
5.61026e-05
-9.73897e-05
6.28231e-05
-0.000137327
6.22371e-05
-0.000175131
5.91726e-05
-0.000209883
5.47458e-05
-0.000240757
4.90583e-05
-0.000266893
4.2006e-05
-0.000287373
3.34506e-05
-0.000301224
2.32603e-05
-0.000307401
1.13038e-05
-0.00030502
-2.29002e-06
-0.000293047
-1.76292e-05
-0.000270833
-3.41956e-05
-0.000238103
-5.13472e-05
-0.000195214
-6.80281e-05
-0.00014355
-8.25046e-05
-8.64967e-05
-9.14141e-05
-3.20363e-05
-8.68742e-05
-4.87763e-05
-2.4558e-05
5.34572e-05
-6.7519e-05
9.90636e-05
-0.000114611
0.000109915
-0.000160853
0.000108478
-0.000204479
0.000102799
-0.000244471
9.47378e-05
-0.000279915
8.45021e-05
-0.000309872
7.19639e-05
-0.000333353
5.69316e-05
-0.000349307
3.92138e-05
-0.00035668
1.86768e-05
-0.000354249
-4.7213e-06
-0.000340934
-3.09437e-05
-0.000315879
-5.92512e-05
-0.000278608
-8.86181e-05
-0.000229323
-0.000117313
-0.000169421
-0.000142407
-0.000102689
-0.000158146
-3.84098e-05
-0.000151153
-8.71861e-05
-2.62407e-05
7.96979e-05
-7.22281e-05
0.000145051
-0.000122542
0.00016023
-0.00017194
0.000157875
-0.000218635
0.000149494
-0.000261626
0.000137728
-0.000300013
0.000122889
-0.000332864
0.000104815
-0.000359174
8.32416e-05
-0.000377839
5.78787e-05
-0.000387654
2.84923e-05
-0.000387351
-5.02465e-06
-0.000375366
-4.2929e-05
-0.000350429
-8.41877e-05
-0.000311544
-0.000127503
-0.000258447
-0.00017041
-0.000192305
-0.000208549
-0.000117222
-0.000233229
-4.39783e-05
-0.000224397
-0.000131164
-2.75763e-05
0.000107274
-7.62372e-05
0.000193712
-0.000129517
0.000213509
-0.000181927
0.000210286
-0.00023169
0.000199257
-0.000277854
0.000183893
-0.000319582
0.000164616
-0.000355987
0.00014122
-0.000386077
0.000113332
-0.0004087
8.05015e-05
-0.000422494
4.22867e-05
-0.000425942
-1.57632e-06
-0.00041701
-5.18614e-05
-0.000393748
-0.000107449
-0.000354288
-0.000166963
-0.000297427
-0.000227271
-0.000223709
-0.000282268
-0.000137564
-0.000319374
-5.19692e-05
-0.000309992
-0.000183134
-2.91789e-05
0.000136453
-8.10184e-05
0.000245551
-0.000137849
0.00027034
-0.000193884
0.000266321
-0.000247357
0.00025273
-0.000297403
0.000233939
-0.000343282
0.000210495
-0.000384202
0.000182141
-0.000419235
0.000148365
-0.000447221
0.000108488
-0.000466672
6.17373e-05
-0.000475753
7.50457e-06
-0.000471907
-5.57078e-05
-0.000452167
-0.000127189
-0.000413357
-0.000205773
-0.000352707
-0.00028792
-0.000269407
-0.000365567
-0.000167914
-0.000420867
-6.43545e-05
-0.000413551
-0.000247488
-3.11776e-05
0.000167631
-8.68973e-05
0.000301271
-0.000148023
0.000331466
-0.0002084
0.000326698
-0.000266285
0.000310615
-0.000320938
0.000288591
-0.000371772
0.00026133
-0.000418165
0.000228533
-0.000459338
0.000189537
-0.000494226
0.000143376
-0.000521308
8.88192e-05
-0.000538353
2.45497e-05
-0.000542476
-5.15842e-05
-0.000529279
-0.000140387
-0.000493706
-0.000241346
-0.000430435
-0.000351191
-0.000335981
-0.000460021
-0.000213768
-0.00054308
-8.41386e-05
-0.000543181
-0.000331627
-3.36032e-05
0.000201234
-9.39572e-05
0.000361625
-0.000160128
0.000397638
-0.000225515
0.000392085
-0.00028842
0.000373519
-0.000348276
0.000348447
-0.000404728
0.000317782
-0.00045742
0.000281225
-0.000505856
0.000237974
-0.000549227
0.000186747
-0.000586152
0.000125745
-0.00061433
5.27276e-05
-0.000630464
-3.54507e-05
-0.000628655
-0.000142196
-0.000601341
-0.00026866
-0.000539244
-0.000413288
-0.000433919
-0.000565346
-0.000285102
-0.000691897
-0.000117641
-0.000710642
-0.000449268
-3.6505e-05
0.000237739
-0.0001023
0.00042742
-0.000174246
0.000469584
-0.000245217
0.000463055
-0.000313585
0.000441888
-0.000379024
0.000413886
-0.000441501
0.000380258
-0.000501057
0.00034078
-0.00055766
0.000294577
-0.000611004
0.000240091
-0.000660185
0.000174925
-0.000703153
9.56965e-05
-0.000736896
-1.70772e-06
-0.000753905
-0.000125187
-0.000743874
-0.000278691
-0.000691898
-0.000465265
-0.000581005
-0.000676239
-0.000401946
-0.000870955
-0.000179575
-0.000933012
-0.000628843
-4.00009e-05
0.00027774
-0.000112147
0.000499566
-0.000190588
0.000548025
-0.000267587
0.000540054
-0.000341638
0.000515939
-0.000412728
0.000484977
-0.000481251
0.000448781
-0.000547789
0.000407318
-0.000612994
0.000359782
-0.000677409
0.000304506
-0.000741141
0.000238658
-0.000803271
0.000157826
-0.000860682
5.57032e-05
-0.000907562
-7.83065e-05
-0.000930139
-0.000256114
-0.000907037
-0.000488367
-0.000808424
-0.000774852
-0.000606492
-0.00107289
-0.000305892
-0.00123361
-0.000934735
-4.43371e-05
0.000322077
-0.000123949
0.000579178
-0.000209607
0.000633683
-0.000292915
0.000623362
-0.000372569
0.000595593
-0.000448963
0.000561371
-0.000523014
0.000522832
-0.000595975
0.000480279
-0.000669393
0.0004332
-0.000745026
0.000380139
-0.000824616
0.000318248
-0.000909314
0.000242525
-0.00099829
0.00014468
-0.00108938
1.2781e-05
-0.00116845
-0.000177039
-0.00121034
-0.000446482
-0.00116938
-0.000815811
-0.000981145
-0.00126112
-0.000578449
-0.00163631
-0.00151318
-4.99929e-05
0.00037207
-0.000138538
0.000667723
-0.000232154
0.000727299
-0.000321834
0.000713043
-0.000406629
0.000680387
-0.00048746
0.000642202
-0.000565843
0.000601215
-0.000643766
0.000558202
-0.000723792
0.000513227
-0.000809216
0.000465562
-0.000904167
0.000413199
-0.00101347
0.00035183
-0.00114178
0.000272991
-0.00129051
0.000161507
-0.00145975
-7.79827e-06
-0.00162719
-0.000279045
-0.00173323
-0.000709765
-0.00163372
-0.00136063
-0.00108166
-0.00218837
-0.00259484
-5.78837e-05
0.000429953
-0.000157393
0.000767232
-0.0002597
0.000829606
-0.000355499
0.000808842
-0.00044448
0.000769369
-0.00052827
0.000725991
-0.00060902
0.000681965
-0.000689368
0.00063855
-0.000772768
0.000596626
-0.000864
0.000556794
-0.000969853
0.000519052
-0.00109996
0.000481936
-0.00126752
0.00044055
-0.00148902
0.000383009
-0.00178127
0.000284448
-0.0021488
8.84852e-05
-0.00250319
-0.000355376
-0.00252338
-0.00134044
-0.00170472
-0.00300703
-0.00429956
-7.01167e-05
0.00050007
-0.000183518
0.000880633
-0.000294664
0.000940752
-0.00039537
0.000909549
-0.000486947
0.000860945
-0.00057178
0.000810825
-0.000652371
0.000762556
-0.000731686
0.000717865
-0.000813723
0.000678664
-0.000904284
0.000647356
-0.00101239
0.000627154
-0.00115256
0.000622105
-0.00134838
0.000636371
-0.00163494
0.000669576
-0.00205467
0.000704175
-0.00260996
0.000643771
-0.00314678
0.000181446
-0.00315353
-0.00133369
-0.00200568
-0.00415488
-0.00630525
-8.53801e-05
0.00058545
-0.000216339
0.00101159
-0.000338783
0.0010632
-0.00044614
0.00101691
-0.0005391
0.000953906
-0.000621678
0.000893402
-0.000697732
0.000838611
-0.000770685
0.000790817
-0.000844088
0.000752067
-0.000922809
0.000726077
-0.00101558
0.00071992
-0.00113825
0.000744776
-0.00132037
0.000818498
-0.00160663
0.000955833
-0.00204935
0.00114689
-0.00262093
0.00121535
-0.00312897
0.000689489
-0.00301785
-0.0014448
-0.001858
-0.00531473
-0.00816324
-0.000149401
0.000734851
-0.000293091
0.00115528
-0.000408372
0.00117848
-0.00050361
0.00111214
-0.000588408
0.0010387
-0.0006658
0.000970794
-0.000737069
0.000909879
-0.000802855
0.000856604
-0.000864362
0.000813573
-0.000923379
0.000785094
-0.000984482
0.000781023
-0.00105657
0.000816866
-0.0011611
0.000923022
-0.00132136
0.0011161
-0.00157898
0.00140451
-0.00187531
0.00151168
-0.00214311
0.000957292
-0.00210117
-0.00148674
-0.00143284
-0.00598307
-0.00959609
-0.000100427
0.000835279
-0.000308639
0.00136349
-0.000469398
0.00133924
-0.000589646
0.00123239
-0.000678839
0.0011279
-0.00074627
0.00103823
-0.000798131
0.00096174
-0.000837409
0.000895882
-0.000864975
0.000841139
-0.000878407
0.000798526
-0.000874484
0.000777101
-0.000845353
0.000787734
-0.00078961
0.000867279
-0.000691358
0.00101785
-0.000570772
0.00128393
-0.00045758
0.00139848
-0.000434436
0.000934149
-0.000616203
-0.00130497
-0.000548836
-0.00605043
-0.0101449
-0.000389578
0.00122486
-0.000492363
0.00146628
-0.000591766
0.00143864
-0.000683456
0.00132408
-0.000732171
0.00117661
-0.00074646
0.00105251
-0.000735267
0.000950547
-0.000701937
0.000862551
-0.000651829
0.000791032
-0.000580196
0.000726893
-0.000486441
0.000683346
-0.000352176
0.000653469
-0.000157181
0.000672284
0.000129094
0.000731571
0.000554743
0.000858278
0.00104782
0.000905412
0.00156193
0.000420038
0.00146438
-0.00120743
0.000831808
-0.00541786
-0.00931311
-0.00133537
0.00256022
-0.00128965
0.00142056
-0.00104626
0.00119525
-0.000697544
0.000975365
-0.000327607
0.000806674
4.15971e-05
0.000683311
0.000396609
0.000595535
0.000731773
0.000527388
0.00104967
0.000473136
0.00134899
0.000427571
0.00163911
0.000393224
0.00192785
0.000364733
0.00224606
0.00035407
0.00262214
0.000355495
0.00314636
0.000334052
0.00378373
0.000268041
0.00435841
-0.000154637
0.00431712
-0.00116614
0.00269185
-0.0037926
-0.00662126
0.00256022
0.00398078
0.00517603
0.0061514
0.00695807
0.00764139
0.00823692
0.00876431
0.00923744
0.00966501
0.0100582
0.010423
0.010777
0.0111325
0.0114666
0.0117346
0.01158
0.0104139
0.00662126
)
;

boundaryField
{
    movingWall
    {
        type            calculated;
        value           uniform 0;
    }
    fixedWalls
    {
        type            calculated;
        value           uniform 0;
    }
    frontAndBack
    {
        type            empty;
        value           nonuniform List<scalar> 0();
    }
}


// ************************************************************************* //
