/*--------------------------------*- C++ -*----------------------------------*\
  =========                 |
  \\      /  F ield         | OpenFOAM: The Open Source CFD Toolbox
   \\    /   O peration     | Website:  https://openfoam.org
    \\  /    A nd           | Version:  10
     \\/     M anipulation  |
\*---------------------------------------------------------------------------*/
FoamFile
{
    format      ascii;
    class       volScalarField;
    location    "0.875";
    object      p;
}
// * * * * * * * * * * * * * * * * * * * * * * * * * * * * * * * * * * * * * //

dimensions      [0 2 -2 0 0 0 0];

internalField   nonuniform List<scalar> 
400
(
-8.29089e-10
4.55767e-05
0.000180712
0.000392986
0.000677519
0.00102739
0.00143399
0.00188735
0.00237627
0.00288858
0.00341136
0.00393121
0.00443446
0.00490755
0.00533735
0.00571154
0.00601905
0.00625056
0.0063992
0.00645108
-4.5169e-05
7.01375e-07
0.000137663
0.00035262
0.000640773
0.000995152
0.00140708
0.00186648
0.00236205
0.0028815
0.00341177
0.0039393
0.00445024
0.00493081
0.00536766
0.00574818
0.00606105
0.00629673
0.00644825
0.00650089
-0.000182831
-0.000135537
6.92732e-06
0.00023056
0.000530357
0.000899066
0.00132768
0.00180578
0.00232167
0.0028627
0.00341541
0.0039657
0.00449927
0.00500175
0.00545911
0.00585807
0.00618654
0.00643425
0.00659366
0.00664884
-0.00040759
-0.000357537
-0.000206012
3.18643e-05
0.000350736
0.000742863
0.00119869
0.0017072
0.00225613
0.00283217
0.00342121
0.00400845
0.00457875
0.00511683
0.00560761
0.00603665
0.00639062
0.00665808
0.00683048
0.00689026
-0.000725106
-0.000671018
-0.000506595
-0.000248505
9.73589e-05
0.000522536
0.00101668
0.00156794
0.00216321
0.00278836
0.00342839
0.00406756
0.00468962
0.00527803
0.00581628
0.00628824
0.00667882
0.00697477
0.007166
0.00723262
-0.00114365
-0.00108416
-0.000902598
-0.000617742
-0.00023625
0.000232409
0.000776798
0.00138399
0.00203981
0.00272908
0.00343575
0.00414293
0.00483305
0.00548801
0.0060894
0.00661889
0.0070589
0.00739362
0.00761067
0.00768683
-0.00167407
-0.00160765
-0.00140414
-0.00108514
-0.000658398
-0.000134764
0.000472893
0.00115026
0.00188189
0.00265138
0.0034415
0.00423414
0.0050102
0.00574977
0.00643214
0.00703616
0.0075409
0.00792691
0.00817847
0.00826762
-0.00233036
-0.00225521
-0.00202412
-0.00166245
-0.00117949
-0.000587967
9.73617e-05
0.000860468
0.00168439
0.00255142
0.00344311
0.00434015
0.00522188
0.00606642
0.00685041
0.00754916
0.00813736
0.00859047
0.00888779
0.00899458
-0.00313028
-0.00304418
-0.00277867
-0.00236416
-0.00181215
-0.00113797
-0.000358831
0.000507126
0.00144122
0.00242439
0.00343707
0.00445899
0.00546813
0.00644066
0.00735032
0.00816827
0.00886345
0.00940426
0.00976253
0.00989366
-0.00409624
-0.00399624
-0.0036877
-0.00320786
-0.00257142
-0.00179734
-0.000906058
8.167e-05
0.00114526
0.00226438
0.00341865
0.00458729
0.00574751
0.00687393
0.00793748
0.00890455
0.00973689
0.0103931
0.0108336
0.0109993
-0.00525674
-0.00513859
-0.0047758
-0.00421466
-0.0034748
-0.00258026
-0.00155577
-0.000425275
0.000788583
0.00206443
0.00338162
0.0047197
0.00605616
0.00736518
0.00861548
0.00976854
0.0107774
0.0115873
0.0121411
0.0123581
-0.00664874
-0.00650564
-0.00607331
-0.00540976
-0.00454232
-0.00350225
-0.00231993
-0.00102325
0.00036294
0.00181672
0.00331811
0.00484831
0.00638673
0.007909
0.00938361
0.010768
0.0120053
0.0130233
0.0137369
0.014035
-0.00832155
-0.00814154
-0.00761819
-0.00682304
-0.00579634
-0.00457926
-0.00320976
-0.00172074
-0.000139207
0.00151319
0.00321868
0.00496191
0.00672678
0.0084934
0.0102333
0.0119034
0.0134377
0.0147429
0.0156891
0.0161235
-0.0103443
-0.0101047
-0.00945877
-0.00848989
-0.00726085
-0.00582602
-0.00423412
-0.00252368
-0.000723378
0.0011466
0.00307273
0.00504565
0.00705711
0.00909629
0.0111435
0.0131612
0.0150813
0.0167914
0.0180853
0.0187631
-0.0128051
-0.0124732
-0.0116581
-0.0104517
-0.00895948
-0.00725393
-0.00539695
-0.00343284
-0.00139081
0.00071236
0.00286958
0.00508108
0.00735029
0.00968153
0.0120724
0.0145027
0.0169152
0.0192062
0.0210208
0.0221966
-0.0159549
-0.0153837
-0.0143075
-0.0127547
-0.0109132
-0.00886664
-0.00669262
-0.00443969
-0.00213492
0.000211291
0.00260172
0.00504754
0.0075701
0.0101954
0.0129489
0.0158445
0.0188584
0.0219667
0.0245486
0.0268257
-0.0193617
-0.0187961
-0.0174611
-0.0154375
-0.0131305
-0.010652
-0.0080992
-0.00552074
-0.00293722
-0.000347873
0.00226369
0.0049247
0.00767348
0.0105629
0.013656
0.0170171
0.0206887
0.0249577
0.0285014
0.0332196
-0.0266912
-0.023453
-0.0215247
-0.0185941
-0.0155991
-0.0125588
-0.00955656
-0.00662223
-0.0037555
-0.000936487
0.00186885
0.00470758
0.00762746
0.0107264
0.0141321
0.0180482
0.022595
0.0287396
0.034125
0.0432571
-0.0310155
-0.0293675
-0.0263247
-0.0224945
-0.0185122
-0.0146618
-0.0110781
-0.0077337
-0.00457552
-0.00154806
0.00140671
0.00435258
0.00734404
0.0104616
0.0137825
0.0175749
0.0212011
0.0291238
0.0322048
0.0518458
-0.0579206
-0.0320854
-0.0293287
-0.02431
-0.019591
-0.0154734
-0.0117115
-0.00821705
-0.00494634
-0.00183882
0.00116831
0.00413921
0.00716252
0.0103624
0.0139013
0.0185604
0.0242717
0.0364646
0.0506134
0.0963113
)
;

boundaryField
{
    movingWall
    {
        type            zeroGradient;
    }
    fixedWalls
    {
        type            zeroGradient;
    }
    frontAndBack
    {
        type            empty;
    }
}


// ************************************************************************* //
