/*--------------------------------*- C++ -*----------------------------------*\
  =========                 |
  \\      /  F ield         | OpenFOAM: The Open Source CFD Toolbox
   \\    /   O peration     | Website:  https://openfoam.org
    \\  /    A nd           | Version:  10
     \\/     M anipulation  |
\*---------------------------------------------------------------------------*/
FoamFile
{
    format      ascii;
    class       surfaceScalarField;
    location    "7.575";
    object      phi;
}
// * * * * * * * * * * * * * * * * * * * * * * * * * * * * * * * * * * * * * //

dimensions      [0 3 -1 0 0 0 0];

internalField   nonuniform List<scalar> 
890
(
0.00984635
0.000153651
0.00971801
0.000128337
0.00946941
0.000248603
0.00941958
4.98286e-05
0.000146416
0.00927316
0.0101197
3.39137e-05
0.0102016
4.64744e-05
0.0104078
4.24096e-05
0.0104647
-7.05674e-06
-7.01241e-05
0.0106812
0.0100713
-3.73882e-05
0.0102155
-9.77355e-05
0.0103778
-0.000119887
0.0105211
-0.000150353
-0.000191335
0.0106423
0.01009
-0.000127414
0.0102138
-0.000221511
0.0103297
-0.000235798
0.0104186
-0.000239251
-0.000251275
0.0104786
0.00987259
0.00965107
0.00941528
0.00917603
0.00892475
0.00926828
-0.000106219
0.000111101
0.00929302
-0.000268369
0.000243631
0.00936904
-0.000387523
0.000311502
0.00948447
-0.000488071
0.000372639
0.00963155
-0.000595938
0.00044886
0.00981009
-0.000740151
0.000561608
0.0100018
-0.000912096
0.000720437
0.0102003
-0.0011204
0.000921899
0.0103938
-0.00135804
0.00116452
0.0105642
-0.00161625
0.00144583
0.0106999
-0.00187524
0.00173955
0.0107892
-0.00211698
0.00202765
0.0108202
-0.00230974
0.00227878
0.0107865
-0.0024405
0.00247414
0.0106625
-0.00245718
0.00258125
0.0104474
-0.0023852
0.0026003
0.0101953
-0.00229842
0.00255049
0.00993014
-0.00216607
0.00243122
0.00964727
-0.0019601
0.00224297
0.00935492
-0.00170442
0.00199677
0.00906789
-0.00141105
0.00169808
0.00879279
-0.00109109
0.00136619
0.0085457
-0.000771822
0.00101892
0.00833829
-0.000468372
0.000675776
0.0081715
-0.000192937
0.000359731
0.00804061
4.9301e-05
8.15858e-05
0.00794876
0.000263729
-0.00017188
0.00788795
0.000441105
-0.000380288
0.00784801
0.00057683
-0.000536892
0.0078242
0.000671083
-0.000647273
0.00781375
0.000729712
-0.000719261
0.00780814
0.000757568
-0.000751963
0.00779544
0.000760802
-0.000748096
0.00776588
0.000747382
-0.000717818
0.00771747
0.000720948
-0.00067254
0.00765298
0.00067826
-0.000613773
0.00757657
0.000610383
-0.000533973
0.00748719
0.000539024
-0.000449642
0.00738875
0.000465223
-0.000366785
0.00728176
0.000439443
-0.00033245
0.00717998
0.000405453
-0.000303678
0.00707656
0.000434486
-0.000331059
0.00698851
0.000389631
-0.000301588
0.00689539
0.0004169
-0.000323778
0.000330033
-0.000259382
0.0107444
-0.000169437
0.0107688
-0.000292758
0.0107929
-0.000411575
0.0108285
-0.000523677
0.0108682
-0.000635696
0.0108942
-0.000766085
0.0109013
-0.000919211
0.0108851
-0.00110424
0.0108395
-0.00131239
0.0107568
-0.00153362
0.0106265
-0.00174489
0.010443
-0.0019335
0.0102087
-0.00207547
0.00990579
-0.00213756
0.00949714
-0.00204852
0.00903444
-0.00192251
0.00854358
-0.00180756
0.00804563
-0.00166812
0.00755791
-0.00147238
0.00709201
-0.00123852
0.00666753
-0.000986568
0.00628881
-0.000712376
0.00596782
-0.000450837
0.00571328
-0.00021383
0.0055183
2.04537e-06
0.00539807
0.00016953
0.00534274
0.000319064
0.00534172
0.000442122
0.00538167
0.000536876
0.00544812
0.000604634
0.00552723
0.000650607
0.00560584
0.000678959
0.00567413
0.000692504
0.00573074
0.000690778
0.0057805
0.00067118
0.00582811
0.00063065
0.00586795
0.000570545
0.00589849
0.000508487
0.00591397
0.00044974
0.00592969
0.000423723
0.00594398
0.000391165
0.00597719
0.000401269
0.00601739
0.000349435
0.00607391
0.000360378
0.000267484
0.010727
-0.000254141
0.0107705
-0.000336248
0.0107855
-0.000426516
0.0107808
-0.000519075
0.0107558
-0.000610669
0.0107042
-0.000714432
0.0106203
-0.000835386
0.0104988
-0.000982648
0.010332
-0.00114564
0.010129
-0.00133064
0.00989202
-0.00150788
0.00961735
-0.00165884
0.00924646
-0.00170457
0.00870709
-0.00159819
0.0080749
-0.00141633
0.00745458
-0.00130218
0.00674645
-0.00109943
0.00596427
-0.000885935
0.00521842
-0.000726532
0.00455331
-0.000573406
0.00396826
-0.000401526
0.00349705
-0.000241165
0.00313821
-9.19958e-05
0.00288224
4.21454e-05
0.0027238
0.000160479
0.00264149
0.000251844
0.0026356
0.000324955
0.00269396
0.000383763
0.00280235
0.000428488
0.00294651
0.000460474
0.00311521
0.000481907
0.00330012
0.000494041
0.0034959
0.000496728
0.00369837
0.000488307
0.00390257
0.000466986
0.00410155
0.000431665
0.00428461
0.000387488
0.00445026
0.000342838
0.00459617
0.000303834
0.00474143
0.000278456
0.00487938
0.000253218
0.00503818
0.000242466
0.00518381
0.000203806
0.00534894
0.00019525
0.000130193
0.0105082
-0.000283839
0.0104919
-0.000319885
0.0104333
-0.000367965
0.0103239
-0.000409602
0.0101746
-0.000461406
0.00997071
-0.000510539
0.00971212
-0.000576803
0.00938031
-0.000650831
0.00897428
-0.000739619
0.00849189
-0.000848245
0.00792615
-0.000942137
0.00735732
-0.00109001
0.00668535
-0.0010326
0.00578078
-0.000693615
0.00469541
-0.00033096
0.00345019
-5.69655e-05
0.0022884
6.23596e-05
0.00136901
3.3451e-05
0.000734202
-9.1724e-05
0.000354412
-0.000193616
0.00015244
-0.000199554
5.35225e-05
-0.000142248
2.68818e-05
-6.53551e-05
5.89973e-05
1.00299e-05
0.000152013
6.74634e-05
0.000291242
0.000112615
0.000469772
0.000146425
0.000682114
0.000171421
0.000921043
0.000189559
0.00117957
0.000201951
0.00145225
0.000209223
0.00173352
0.000212768
0.0020187
0.000211548
0.00230218
0.000204826
0.00257676
0.000192408
0.00283432
0.000174106
0.00306928
0.000152528
0.00328148
0.000130638
0.00347386
0.000111448
0.00365598
9.63433e-05
0.00382567
8.35211e-05
0.00399472
7.34198e-05
0.00413881
5.97158e-05
0.0042822
5.18584e-05
3.1244e-05
0.00864091
0.00832103
0.00795306
0.00754346
0.00708205
0.00657151
0.00599471
0.00534388
0.00460426
0.00375602
0.00281388
0.00172387
0.000691265
-2.35047e-06
-0.00033331
-0.000390276
-0.000327916
-0.000294465
-0.000386189
-0.000579806
-0.00077936
-0.000921608
-0.000986963
-0.000976933
-0.000909469
-0.000796854
-0.000650429
-0.000479008
-0.000289449
-8.74984e-05
0.000121725
0.000334493
0.000546041
0.000750867
0.000943275
0.00111738
0.00126991
0.00140055
0.001512
0.00160834
0.00169186
0.00176528
0.001825
0.00187685
4.67692e-05
-4.67692e-05
9.55091e-06
3.72183e-05
-0.000163045
0.000172596
-0.000527195
0.00036415
-0.00103004
0.000502849
-0.00157313
0.00054308
-0.00208016
0.000507037
-0.00251159
0.000431432
-0.00284042
0.000328825
-0.00304429
0.000203871
-0.00310841
6.4119e-05
-0.00303178
-7.66258e-05
-0.00281938
-0.000212405
-0.00247962
-0.000339756
-0.00203237
-0.000447254
-0.00150348
-0.000528887
-0.000928364
-0.000575117
-0.000333469
-0.000594895
0.000259385
-0.000592854
0.000819548
-0.000560163
0.00132139
-0.00050184
0.00174473
-0.000423344
0.00207627
-0.000331535
0.00231077
-0.000234499
0.00244891
-0.000138141
0.00249846
-4.95474e-05
0.00247809
2.03643e-05
0.00240586
7.22303e-05
0.00228991
0.000115954
0.00213914
0.000150769
0.00196577
0.000173366
0.00178752
0.000178248
0.00162505
0.000162474
0.00149632
0.000128731
0.00140561
9.07118e-05
0.00135094
5.46656e-05
0.00132739
2.35489e-05
0.00132944
-2.04557e-06
0.00134769
-1.82466e-05
0.00137664
-2.89516e-05
0.00140755
-3.09077e-05
0.00144446
-3.69149e-05
0.00148122
-3.6758e-05
0.00152699
-4.57675e-05
-4.06908e-05
-0.000131079
8.43093e-05
-0.000491198
0.000397338
-0.000914045
0.000595443
-0.00130187
0.000751974
-0.00161918
0.000820157
-0.00186462
0.000788524
-0.00203746
0.000679877
-0.0021284
0.000522374
-0.00212728
0.000327704
-0.00202056
9.71482e-05
-0.00181238
-0.000144059
-0.00149337
-0.000395638
-0.00106123
-0.000644547
-0.000529898
-0.000871083
8.13963e-05
-0.00105855
0.000739203
-0.00118669
0.00142506
-0.00126097
0.00211556
-0.0012854
0.00278141
-0.0012587
0.00340209
-0.00118085
0.00395739
-0.00105714
0.0044315
-0.000897453
0.00481395
-0.000713979
0.00510136
-0.000521914
0.00529641
-0.000333195
0.00540557
-0.000158709
0.0054353
-9.35971e-06
0.00539874
0.000108789
0.00530962
0.000205075
0.0051859
0.000274485
0.00504653
0.000312738
0.00490929
0.000315492
0.00478148
0.000290279
0.00465869
0.000251518
0.00454103
0.000208372
0.00443567
0.000160026
0.00434429
0.000114928
0.00426759
7.46593e-05
0.00419636
5.29778e-05
0.0041309
3.65117e-05
0.00406951
3.04876e-05
0.00402996
2.62746e-06
0.00401082
-1.76177e-05
0.00401987
-5.48138e-05
-7.05589e-05
-0.000510982
0.000595291
-0.000689726
0.000576082
-0.000723366
0.000629082
-0.000661684
0.000690292
-0.000534426
0.000692899
-0.000366405
0.000620503
-0.00016246
0.000475932
8.03989e-05
0.000279515
0.000374996
3.31071e-05
0.000738017
-0.000265873
0.00117258
-0.000578624
0.00167314
-0.000896193
0.00222731
-0.00119872
0.0028264
-0.00147017
0.00345144
-0.00168359
0.00408819
-0.00182344
0.00471482
-0.00188761
0.00531103
-0.0018816
0.00586523
-0.0018129
0.00636271
-0.00167833
0.00679035
-0.00148478
0.00714032
-0.00124742
0.00740818
-0.000981839
0.00759451
-0.000708245
0.00770501
-0.000443691
0.00774879
-0.000202496
0.00773545
3.9861e-06
0.00766521
0.000179022
0.00755808
0.000312211
0.00742506
0.0004075
0.00727527
0.000462527
0.00711698
0.000473782
0.0069546
0.000452667
0.00679138
0.000414734
0.00663273
0.000367022
0.00649061
0.000302149
0.0063775
0.000228036
0.00629742
0.000154739
0.00623471
0.000115688
0.00617009
0.000101128
0.00608995
0.000110629
0.00598774
0.000104836
0.00588644
8.36823e-05
0.0057817
4.99292e-05
-4.7314e-06
-0.000237238
0.000832529
-0.000133023
0.000471867
0.000117025
0.000379035
0.00049176
0.000315557
0.000950109
0.000234549
0.00145487
0.000115739
0.00198472
-5.39106e-05
0.00252563
-0.000261395
0.00308591
-0.000527181
0.00365851
-0.000838467
0.00424541
-0.00116552
0.00484317
-0.00149396
0.00544532
-0.00180088
0.00603698
-0.00206182
0.00660262
-0.00224923
0.00713054
-0.00235136
0.00761049
-0.00236757
0.00803543
-0.00230654
0.00840116
-0.00217863
0.00870486
-0.00198203
0.00894396
-0.00172388
0.00911932
-0.00142279
0.00923405
-0.00109656
0.00929127
-0.000765466
0.00930092
-0.000453342
0.00927474
-0.000176313
0.00920969
6.90358e-05
0.00910882
0.000279892
0.00898499
0.000436032
0.00884697
0.00054552
0.00869557
0.000613934
0.00853069
0.000638655
0.00835934
0.000624026
0.00819205
0.000582018
0.00802904
0.000530034
0.00786626
0.000464929
0.00770763
0.00038666
0.0075598
0.000302569
0.00744028
0.000235213
0.00733771
0.000203694
0.00725379
0.000194547
0.00714922
0.000209406
0.00704342
0.000189488
0.00690586
0.000187487
0.000125217
0.00094363
0.00165913
0.00234967
0.00303786
0.00372127
0.00439862
0.00506514
0.00572565
0.00636298
0.00697035
0.00754438
0.00807808
0.00855598
0.0089683
0.00930032
0.00954927
0.00973219
0.00985686
0.00992121
0.00993595
0.00991015
0.00985356
0.00977591
0.00968622
0.00959261
0.00949788
0.00939504
0.00929464
0.00919378
0.00909203
0.0089867
0.00887339
0.00874932
0.00861352
0.00847102
0.00832217
0.00817486
0.00802779
0.00789621
0.00776746
0.00765833
0.00753667
0.00742457
0.00728828
)
;

boundaryField
{
    inlet
    {
        type            calculated;
        value           nonuniform List<scalar> 5(-0.01 -0.01 -0.01 -0.01 -0.01);
    }
    outlet
    {
        type            calculated;
        value           nonuniform List<scalar> 10(0.00682474 0.00613646 0.00548623 0.00438115 0.0019081 0.00156768 0.00404974 0.00571587 0.00677591 0.00715412);
    }
    upperWall
    {
        type            calculated;
        value           uniform 0;
    }
    lowerWall
    {
        type            calculated;
        value           uniform 0;
    }
    frontAndBack
    {
        type            empty;
        value           nonuniform List<scalar> 0();
    }
}


// ************************************************************************* //
