/*--------------------------------*- C++ -*----------------------------------*\
  =========                 |
  \\      /  F ield         | OpenFOAM: The Open Source CFD Toolbox
   \\    /   O peration     | Website:  https://openfoam.org
    \\  /    A nd           | Version:  10
     \\/     M anipulation  |
\*---------------------------------------------------------------------------*/
FoamFile
{
    format      ascii;
    class       volVectorField;
    location    "7.575";
    object      U;
}
// * * * * * * * * * * * * * * * * * * * * * * * * * * * * * * * * * * * * * //

dimensions      [0 1 -1 0 0 0 0];

internalField   nonuniform List<vector> 
475
(
(0.974267 0.0161432 0)
(0.975916 0.0062999 0)
(0.95025 0.0315326 0)
(0.954776 0.000952235 0)
(0.919986 0.0301689 0)
(0.998565 0.00863326 0)
(1.01403 0.014803 0)
(1.0254 0.0150785 0)
(1.04376 0.00859761 0)
(1.05558 0.00179868 0)
(0.99999 0.000261625 0)
(1.00966 -0.00305818 0)
(1.02424 -0.00479164 0)
(1.04125 -0.00935615 0)
(1.05626 -0.0145729 0)
(1.00033 -0.0100136 0)
(1.00978 -0.019661 0)
(1.02308 -0.021986 0)
(1.03513 -0.0232275 0)
(1.04461 -0.0256991 0)
(0.981259 -0.0097118 0)
(0.968553 -0.019157 0)
(0.954215 -0.021735 0)
(0.932601 -0.0225007 0)
(0.908101 -0.0227457 0)
(0.925659 -0.0168232 0)
(0.932855 -0.0361185 0)
(0.937894 -0.0484517 0)
(0.943931 -0.0572308 0)
(0.954051 -0.0658518 0)
(0.967987 -0.0767146 0)
(0.986806 -0.0916835 0)
(1.00756 -0.110833 0)
(1.029 -0.133462 0)
(1.04932 -0.158997 0)
(1.06642 -0.185094 0)
(1.07872 -0.210429 0)
(1.0851 -0.231691 0)
(1.08417 -0.247894 0)
(1.07586 -0.255492 0)
(1.06001 -0.255005 0)
(1.03635 -0.248034 0)
(1.00706 -0.234696 0)
(0.975479 -0.2156 0)
(0.945851 -0.191127 0)
(0.917685 -0.161518 0)
(0.891022 -0.128686 0)
(0.866963 -0.0942952 0)
(0.84519 -0.0602172 0)
(0.825748 -0.0287315 0)
(0.810306 -0.000976367 0)
(0.799598 0.02288 0)
(0.792126 0.0424582 0)
(0.786971 0.0574623 0)
(0.78351 0.0683283 0)
(0.78166 0.0756889 0)
(0.781057 0.0792441 0)
(0.780446 0.0790129 0)
(0.778628 0.0762197 0)
(0.774388 0.0720916 0)
(0.768742 0.0668213 0)
(0.760987 0.0592126 0)
(0.753587 0.0513851 0)
(0.743081 0.0431216 0)
(0.734571 0.0401284 0)
(0.721635 0.0366733 0)
(0.714551 0.0400608 0)
(0.700823 0.0365493 0)
(0.696736 0.0397815 0)
(0.682459 0.0326255 0)
(1.0685 -0.00906775 0)
(1.07771 -0.0217577 0)
(1.0827 -0.033438 0)
(1.08414 -0.044235 0)
(1.08566 -0.0557279 0)
(1.08651 -0.0692587 0)
(1.08856 -0.0860314 0)
(1.08843 -0.106541 0)
(1.08733 -0.130078 0)
(1.08172 -0.155495 0)
(1.07233 -0.181116 0)
(1.05651 -0.204237 0)
(1.03541 -0.2211 0)
(1.0068 -0.230741 0)
(0.972474 -0.228584 0)
(0.931297 -0.221852 0)
(0.882197 -0.211891 0)
(0.829377 -0.19572 0)
(0.77661 -0.173052 0)
(0.727901 -0.146935 0)
(0.683629 -0.11848 0)
(0.64518 -0.0898077 0)
(0.612218 -0.0617434 0)
(0.584598 -0.0353809 0)
(0.561735 -0.0114435 0)
(0.545029 0.0100029 0)
(0.536339 0.0285419 0)
(0.53388 0.0440841 0)
(0.535951 0.0560254 0)
(0.541313 0.0643302 0)
(0.548807 0.0696834 0)
(0.556874 0.0727245 0)
(0.564289 0.0741783 0)
(0.57037 0.0743951 0)
(0.575382 0.0730139 0)
(0.580115 0.0693925 0)
(0.584443 0.0631508 0)
(0.588226 0.0565216 0)
(0.590566 0.0498273 0)
(0.592031 0.0474585 0)
(0.593813 0.0439865 0)
(0.595061 0.046327 0)
(0.600727 0.0409664 0)
(0.602161 0.0432217 0)
(0.613619 0.0333011 0)
(1.06863 -0.0224897 0)
(1.07619 -0.0330702 0)
(1.08086 -0.0441202 0)
(1.08048 -0.0554222 0)
(1.07915 -0.0663283 0)
(1.07346 -0.0788797 0)
(1.06782 -0.0928796 0)
(1.05692 -0.109698 0)
(1.04492 -0.128644 0)
(1.02614 -0.14923 0)
(1.00404 -0.170218 0)
(0.974935 -0.187447 0)
(0.94114 -0.199087 0)
(0.897958 -0.196702 0)
(0.847848 -0.180246 0)
(0.781997 -0.167019 0)
(0.707146 -0.158912 0)
(0.63402 -0.149239 0)
(0.557793 -0.130327 0)
(0.483819 -0.103634 0)
(0.421228 -0.0747382 0)
(0.370165 -0.0474827 0)
(0.329751 -0.0237009 0)
(0.299848 -0.0039537 0)
(0.279486 0.0122857 0)
(0.267165 0.0266275 0)
(0.262881 0.038418 0)
(0.265737 0.0475928 0)
(0.27426 0.0544863 0)
(0.287016 0.05941 0)
(0.302805 0.062739 0)
(0.320534 0.0646521 0)
(0.339592 0.0651298 0)
(0.359457 0.0639279 0)
(0.379806 0.0610288 0)
(0.400022 0.0564753 0)
(0.419273 0.0508629 0)
(0.436735 0.0453587 0)
(0.452509 0.0406168 0)
(0.466481 0.0380196 0)
(0.481664 0.035092 0)
(0.494236 0.0347826 0)
(0.513638 0.029652 0)
(0.522583 0.02948 0)
(0.548585 0.0204317 0)
(1.05012 -0.0303921 0)
(1.05088 -0.0362789 0)
(1.04821 -0.0429984 0)
(1.03927 -0.049755 0)
(1.02789 -0.0566981 0)
(1.00861 -0.0644964 0)
(0.988194 -0.0731478 0)
(0.956987 -0.0841748 0)
(0.92436 -0.0961128 0)
(0.87783 -0.110722 0)
(0.827875 -0.124583 0)
(0.765277 -0.137605 0)
(0.69376 -0.14571 0)
(0.621427 -0.133612 0)
(0.539535 -0.110533 0)
(0.419419 -0.0830448 0)
(0.28013 -0.0463851 0)
(0.171031 -0.0146334 0)
(0.0959381 -0.00612786 0)
(0.0478633 -0.00794611 0)
(0.0221913 -0.00817914 0)
(0.00854575 -0.00333036 0)
(0.00250788 0.00380307 0)
(0.00287853 0.0112983 0)
(0.00957615 0.0183112 0)
(0.0215014 0.0237308 0)
(0.0375923 0.027781 0)
(0.0572674 0.0307713 0)
(0.0799138 0.0329617 0)
(0.104843 0.0344536 0)
(0.131467 0.0353289 0)
(0.159198 0.0356744 0)
(0.187566 0.0353459 0)
(0.216027 0.0341829 0)
(0.244009 0.032184 0)
(0.270671 0.0293866 0)
(0.295345 0.0261182 0)
(0.317713 0.0227749 0)
(0.33791 0.019822 0)
(0.356584 0.0174068 0)
(0.374354 0.0152601 0)
(0.390826 0.0134302 0)
(0.40803 0.0107762 0)
(0.419484 0.00930841 0)
(0.438079 0.00545256 0)
(0.879064 -0.024583 0)
(0.848814 -0.0258976 0)
(0.814137 -0.0287549 0)
(0.776227 -0.0301909 0)
(0.733473 -0.0334581 0)
(0.684729 -0.0353326 0)
(0.632323 -0.0397129 0)
(0.569334 -0.0435336 0)
(0.504488 -0.0493101 0)
(0.420767 -0.0569493 0)
(0.337771 -0.0606594 0)
(0.229536 -0.0767356 0)
(0.108252 -0.0556946 0)
(0.0234414 0.00123404 0)
(-0.0239121 0.0451927 0)
(-0.0390323 0.0689263 0)
(-0.0356516 0.0551767 0)
(-0.0290416 0.0189423 0)
(-0.0315348 -0.0145873 0)
(-0.0481293 -0.0286383 0)
(-0.0698977 -0.0283641 0)
(-0.0870305 -0.0221174 0)
(-0.0968725 -0.0149488 0)
(-0.0991776 -0.00851019 0)
(-0.0949267 -0.00312511 0)
(-0.0856804 0.000619317 0)
(-0.0725852 0.00324497 0)
(-0.0566208 0.00507826 0)
(-0.0385449 0.0063172 0)
(-0.0189821 0.00708843 0)
(0.00167326 0.00747981 0)
(0.0229048 0.00761884 0)
(0.0441653 0.00746239 0)
(0.0650159 0.00700977 0)
(0.0849227 0.00627943 0)
(0.103264 0.00531843 0)
(0.119611 0.004245 0)
(0.133757 0.00320462 0)
(0.145865 0.00232184 0)
(0.156254 0.00168852 0)
(0.165246 0.0012631 0)
(0.173105 0.00103378 0)
(0.179771 0.000935651 0)
(0.18513 0.000864756 0)
(0.19078 0.000656111 0)
(0.00372672 -0.0269388 0)
(0.00539823 -0.0270548 0)
(-0.00353832 -0.0151162 0)
(-0.0283561 0.00774936 0)
(-0.0755684 0.0260661 0)
(-0.131826 0.0320679 0)
(-0.185974 0.0318058 0)
(-0.234179 0.0288296 0)
(-0.272647 0.0241112 0)
(-0.298658 0.0182657 0)
(-0.310723 0.0114008 0)
(-0.30929 0.00370762 0)
(-0.293965 -0.00431363 0)
(-0.265619 -0.0118137 0)
(-0.225738 -0.0180876 0)
(-0.176461 -0.0228643 0)
(-0.121215 -0.0252772 0)
(-0.0626634 -0.026108 0)
(-0.00314941 -0.0253663 0)
(0.0545707 -0.0234715 0)
(0.107792 -0.0203666 0)
(0.154199 -0.0163063 0)
(0.192128 -0.0116985 0)
(0.220585 -0.00701094 0)
(0.239421 -0.00248596 0)
(0.248876 0.00144599 0)
(0.250371 0.00421011 0)
(0.245649 0.00619051 0)
(0.235868 0.00846111 0)
(0.222037 0.0112096 0)
(0.205265 0.0132495 0)
(0.187179 0.0130335 0)
(0.169943 0.0102318 0)
(0.155404 0.00588987 0)
(0.144497 0.00132473 0)
(0.13739 -0.00240576 0)
(0.133582 -0.00470869 0)
(0.132635 -0.00554378 0)
(0.133655 -0.00507427 0)
(0.136092 -0.0039127 0)
(0.139038 -0.00265132 0)
(0.142489 -0.00181306 0)
(0.146413 -0.00131441 0)
(0.14982 -0.00131981 0)
(0.156756 -0.00107065 0)
(-0.00234569 0.019759 0)
(-0.0251472 0.0361032 0)
(-0.0711345 0.0527021 0)
(-0.110559 0.0684762 0)
(-0.148606 0.0768458 0)
(-0.177447 0.0754643 0)
(-0.198937 0.0673031 0)
(-0.212595 0.0547076 0)
(-0.217235 0.0389489 0)
(-0.21117 0.020054 0)
(-0.194741 -0.000149418 0)
(-0.167112 -0.0209701 0)
(-0.129 -0.0414051 0)
(-0.0802908 -0.0600466 0)
(-0.0234158 -0.0754235 0)
(0.0409161 -0.0863826 0)
(0.109175 -0.0924624 0)
(0.178183 -0.0941781 0)
(0.245601 -0.0920299 0)
(0.309421 -0.086303 0)
(0.36809 -0.0771879 0)
(0.419664 -0.0653675 0)
(0.462754 -0.0517373 0)
(0.496546 -0.0373815 0)
(0.521039 -0.0232127 0)
(0.536558 -0.0102484 0)
(0.543833 0.00052529 0)
(0.543674 0.00939619 0)
(0.536789 0.0161315 0)
(0.525093 0.0204608 0)
(0.511056 0.0227924 0)
(0.497082 0.0232219 0)
(0.484434 0.0216469 0)
(0.472523 0.0188376 0)
(0.460432 0.0157932 0)
(0.449168 0.0125721 0)
(0.439071 0.00906782 0)
(0.4306 0.00516723 0)
(0.423015 0.00173948 0)
(0.416076 -0.00148093 0)
(0.409692 -0.00352942 0)
(0.404081 -0.00591164 0)
(0.402227 -0.00648153 0)
(0.399814 -0.00833393 0)
(0.404976 -0.00737283 0)
(-0.0341848 -0.00678256 0)
(-0.0655857 0.0365974 0)
(-0.0715524 0.059199 0)
(-0.0709979 0.0754749 0)
(-0.0619085 0.0815318 0)
(-0.0468492 0.0769552 0)
(-0.0281831 0.0637014 0)
(-0.00538353 0.0453731 0)
(0.0203743 0.0229271 0)
(0.0533813 -0.00250731 0)
(0.0935228 -0.030744 0)
(0.141921 -0.0609731 0)
(0.195457 -0.0905248 0)
(0.254151 -0.117111 0)
(0.316376 -0.138808 0)
(0.379739 -0.153428 0)
(0.442495 -0.161279 0)
(0.503042 -0.162468 0)
(0.559638 -0.157786 0)
(0.611374 -0.147234 0)
(0.65724 -0.131386 0)
(0.696219 -0.111387 0)
(0.727427 -0.0886792 0)
(0.7505 -0.0651354 0)
(0.7658 -0.0420883 0)
(0.773868 -0.0205702 0)
(0.775594 -0.0021812 0)
(0.771625 0.0124887 0)
(0.7625 0.0242833 0)
(0.749615 0.033474 0)
(0.734743 0.038672 0)
(0.719592 0.0393219 0)
(0.703987 0.03692 0)
(0.68776 0.0326422 0)
(0.671227 0.0273068 0)
(0.655886 0.0206643 0)
(0.642668 0.0142348 0)
(0.633409 0.0092622 0)
(0.626339 0.0081525 0)
(0.620786 0.00816964 0)
(0.613025 0.00922021 0)
(0.604819 0.00639128 0)
(0.592752 0.00311035 0)
(0.584562 -0.00243856 0)
(0.571599 -0.00676156 0)
(-0.0281126 0.140042 0)
(-0.0212154 0.0885949 0)
(-0.00414332 0.0754273 0)
(0.0281613 0.0698404 0)
(0.0699319 0.0630188 0)
(0.117775 0.0523528 0)
(0.17001 0.0359031 0)
(0.223227 0.0136786 0)
(0.277714 -0.0152829 0)
(0.335685 -0.0483584 0)
(0.395135 -0.0827662 0)
(0.456241 -0.117481 0)
(0.517366 -0.150462 0)
(0.577755 -0.179003 0)
(0.636242 -0.200799 0)
(0.690894 -0.214665 0)
(0.740365 -0.22013 0)
(0.784229 -0.217905 0)
(0.822196 -0.208663 0)
(0.854637 -0.191848 0)
(0.881432 -0.168575 0)
(0.90234 -0.14083 0)
(0.917287 -0.110175 0)
(0.9265 -0.0787057 0)
(0.930389 -0.0484644 0)
(0.92972 -0.0211843 0)
(0.925316 0.002753 0)
(0.917279 0.0222684 0)
(0.905841 0.0370458 0)
(0.892119 0.0476956 0)
(0.877243 0.0545443 0)
(0.861558 0.056768 0)
(0.844528 0.0548475 0)
(0.827506 0.0503997 0)
(0.810904 0.0451634 0)
(0.795187 0.0385302 0)
(0.778511 0.0307811 0)
(0.763608 0.022116 0)
(0.748455 0.015854 0)
(0.73949 0.0130456 0)
(0.727541 0.0138334 0)
(0.72315 0.0152425 0)
(0.706407 0.0139441 0)
(0.702705 0.0125051 0)
(0.677605 0.00576092 0)
(0.0836855 0.00300323 0)
(0.118015 -0.0054462 0)
(0.20329 -0.00772094 0)
(0.270415 -0.0124399 0)
(0.336021 -0.0200897 0)
(0.402493 -0.0318462 0)
(0.470933 -0.0484817 0)
(0.537516 -0.0697094 0)
(0.60276 -0.0951613 0)
(0.66687 -0.124934 0)
(0.727756 -0.156136 0)
(0.78491 -0.186975 0)
(0.836589 -0.215107 0)
(0.881401 -0.238154 0)
(0.918567 -0.253307 0)
(0.947434 -0.260083 0)
(0.967836 -0.258988 0)
(0.980771 -0.250382 0)
(0.987651 -0.235344 0)
(0.990788 -0.213491 0)
(0.990446 -0.185031 0)
(0.986989 -0.151882 0)
(0.981095 -0.116251 0)
(0.973344 -0.0802844 0)
(0.964564 -0.0466943 0)
(0.954973 -0.0168 0)
(0.945414 0.00935699 0)
(0.935495 0.0308411 0)
(0.925108 0.0471982 0)
(0.914606 0.0586853 0)
(0.903967 0.0659361 0)
(0.893081 0.0690941 0)
(0.881312 0.0689008 0)
(0.868598 0.0663806 0)
(0.854191 0.0622977 0)
(0.839939 0.0564025 0)
(0.824151 0.0483465 0)
(0.810578 0.0394342 0)
(0.79457 0.0311302 0)
(0.784597 0.0272546 0)
(0.76862 0.0248949 0)
(0.763273 0.0269056 0)
(0.743794 0.0244432 0)
(0.741482 0.0255273 0)
(0.715414 0.019488 0)
)
;

boundaryField
{
    inlet
    {
        type            fixedValue;
        value           uniform (1 0 0);
    }
    outlet
    {
        type            zeroGradient;
    }
    upperWall
    {
        type            noSlip;
    }
    lowerWall
    {
        type            noSlip;
    }
    frontAndBack
    {
        type            empty;
    }
}


// ************************************************************************* //
