/*--------------------------------*- C++ -*----------------------------------*\
  =========                 |
  \\      /  F ield         | OpenFOAM: The Open Source CFD Toolbox
   \\    /   O peration     | Website:  https://openfoam.org
    \\  /    A nd           | Version:  10
     \\/     M anipulation  |
\*---------------------------------------------------------------------------*/
FoamFile
{
    format      ascii;
    class       volVectorField;
    location    "8.8";
    object      U;
}
// * * * * * * * * * * * * * * * * * * * * * * * * * * * * * * * * * * * * * //

dimensions      [0 1 -1 0 0 0 0];

internalField   nonuniform List<vector> 
475
(
(0.974404 0.0161146 0)
(0.975688 0.00640111 0)
(0.950379 0.0314868 0)
(0.954221 0.00124737 0)
(0.920115 0.0302534 0)
(0.998366 0.00870328 0)
(1.01424 0.0148145 0)
(1.0252 0.0152278 0)
(1.04395 0.00869236 0)
(1.05553 0.00217422 0)
(0.999672 0.000270722 0)
(1.01001 -0.00295615 0)
(1.02397 -0.00466851 0)
(1.04153 -0.00932318 0)
(1.05615 -0.0143361 0)
(0.999741 -0.0100385 0)
(1.01042 -0.0195189 0)
(1.02245 -0.0220256 0)
(1.03579 -0.0230705 0)
(1.04417 -0.0256028 0)
(0.980837 -0.00964534 0)
(0.969088 -0.0191656 0)
(0.953733 -0.0217845 0)
(0.933372 -0.022361 0)
(0.907633 -0.0228339 0)
(0.924743 -0.0159853 0)
(0.932119 -0.035879 0)
(0.937417 -0.0486991 0)
(0.943755 -0.058263 0)
(0.952622 -0.0668625 0)
(0.965464 -0.0769607 0)
(0.981369 -0.0893656 0)
(1.00014 -0.104839 0)
(1.0195 -0.123444 0)
(1.03887 -0.144354 0)
(1.05617 -0.166979 0)
(1.07026 -0.188874 0)
(1.07914 -0.209113 0)
(1.08229 -0.22479 0)
(1.07875 -0.235149 0)
(1.06799 -0.238291 0)
(1.05032 -0.235105 0)
(1.02579 -0.227112 0)
(0.996459 -0.21481 0)
(0.965984 -0.198066 0)
(0.936715 -0.17762 0)
(0.908994 -0.15356 0)
(0.883031 -0.126846 0)
(0.859336 -0.0989789 0)
(0.838404 -0.0708761 0)
(0.822194 -0.0436967 0)
(0.810058 -0.0179379 0)
(0.80316 0.00600158 0)
(0.798849 0.0272647 0)
(0.799775 0.0461589 0)
(0.800151 0.0612257 0)
(0.805818 0.0737802 0)
(0.80689 0.0813844 0)
(0.81395 0.0869554 0)
(0.81255 0.0865262 0)
(0.818613 0.085305 0)
(0.813471 0.0787629 0)
(0.817066 0.0725751 0)
(0.808753 0.0636451 0)
(0.809916 0.05476 0)
(0.798758 0.0475965 0)
(0.797765 0.0394964 0)
(0.78311 0.0353769 0)
(0.782266 0.0301931 0)
(0.764695 0.0262954 0)
(1.06876 -0.00846307 0)
(1.0778 -0.0208899 0)
(1.08276 -0.0327558 0)
(1.08421 -0.043734 0)
(1.08472 -0.0548666 0)
(1.08531 -0.0671842 0)
(1.08552 -0.0817437 0)
(1.08566 -0.0988467 0)
(1.08347 -0.118861 0)
(1.07993 -0.140251 0)
(1.07179 -0.162771 0)
(1.06044 -0.183349 0)
(1.04284 -0.200948 0)
(1.02042 -0.211279 0)
(0.99139 -0.214248 0)
(0.956101 -0.208632 0)
(0.914412 -0.200618 0)
(0.865984 -0.190494 0)
(0.814444 -0.175479 0)
(0.76421 -0.155797 0)
(0.71651 -0.134009 0)
(0.673363 -0.111612 0)
(0.63533 -0.0898349 0)
(0.60209 -0.0687948 0)
(0.574086 -0.0483764 0)
(0.553662 -0.0286305 0)
(0.540457 -0.00966151 0)
(0.533593 0.0085433 0)
(0.532855 0.0254365 0)
(0.53893 0.0406944 0)
(0.547453 0.0532012 0)
(0.56107 0.0639684 0)
(0.572999 0.070898 0)
(0.589739 0.0764932 0)
(0.601044 0.0767711 0)
(0.61696 0.0768903 0)
(0.624871 0.0710515 0)
(0.636383 0.0672511 0)
(0.640425 0.0592393 0)
(0.645997 0.0544615 0)
(0.646538 0.0486317 0)
(0.647379 0.0435807 0)
(0.645794 0.0401264 0)
(0.645949 0.0353186 0)
(0.642986 0.0330369 0)
(1.06886 -0.0222641 0)
(1.07645 -0.03257 0)
(1.08098 -0.0438007 0)
(1.08116 -0.0546444 0)
(1.07891 -0.0653902 0)
(1.07441 -0.0763494 0)
(1.06718 -0.0890302 0)
(1.05866 -0.10287 0)
(1.04548 -0.11935 0)
(1.03088 -0.136341 0)
(1.00924 -0.154977 0)
(0.985956 -0.17071 0)
(0.954669 -0.183586 0)
(0.919971 -0.186293 0)
(0.875701 -0.177043 0)
(0.822624 -0.15936 0)
(0.756702 -0.147732 0)
(0.685038 -0.140523 0)
(0.615625 -0.131376 0)
(0.543738 -0.114309 0)
(0.472889 -0.0909997 0)
(0.41055 -0.0662597 0)
(0.359544 -0.0448427 0)
(0.318876 -0.028591 0)
(0.287827 -0.0160724 0)
(0.266742 -0.00551012 0)
(0.2549 0.00476329 0)
(0.25088 0.0155233 0)
(0.253575 0.025727 0)
(0.262224 0.0350722 0)
(0.275088 0.043295 0)
(0.292378 0.0506861 0)
(0.310978 0.0560161 0)
(0.332827 0.0600663 0)
(0.352991 0.0609286 0)
(0.37537 0.0611831 0)
(0.394046 0.0579559 0)
(0.413046 0.0563048 0)
(0.429861 0.0508365 0)
(0.443082 0.0486549 0)
(0.459961 0.0425036 0)
(0.467351 0.0397176 0)
(0.485439 0.0350442 0)
(0.488444 0.0319627 0)
(0.506461 0.0299266 0)
(1.05079 -0.0300118 0)
(1.05099 -0.0359863 0)
(1.04896 -0.0423706 0)
(1.04025 -0.0490895 0)
(1.02881 -0.0554558 0)
(1.0112 -0.0625368 0)
(0.989854 -0.0701189 0)
(0.963066 -0.0792704 0)
(0.929382 -0.0896021 0)
(0.891054 -0.101222 0)
(0.841202 -0.113679 0)
(0.789371 -0.124425 0)
(0.722044 -0.133709 0)
(0.655805 -0.132049 0)
(0.583212 -0.114652 0)
(0.497908 -0.0906662 0)
(0.379878 -0.0638593 0)
(0.254976 -0.0320367 0)
(0.157739 -0.00644263 0)
(0.0900656 -0.00047043 0)
(0.0498432 -0.00423957 0)
(0.0282007 -0.00625306 0)
(0.0159445 -0.00549845 0)
(0.00904886 -0.00359902 0)
(0.00580265 -0.00119691 0)
(0.00571162 0.0017031 0)
(0.00871195 0.00524406 0)
(0.0155104 0.00921039 0)
(0.026277 0.0135494 0)
(0.0408132 0.0181864 0)
(0.0587263 0.0226938 0)
(0.0799132 0.0269337 0)
(0.103403 0.0302548 0)
(0.129205 0.032756 0)
(0.155578 0.0337946 0)
(0.18316 0.0341599 0)
(0.209417 0.0328666 0)
(0.23546 0.0314205 0)
(0.259899 0.0284534 0)
(0.281598 0.0262998 0)
(0.304938 0.0226146 0)
(0.31976 0.0208213 0)
(0.344007 0.0172782 0)
(0.350387 0.0160887 0)
(0.377107 0.0143103 0)
(0.88019 -0.0242526 0)
(0.848664 -0.0261152 0)
(0.815836 -0.0281417 0)
(0.77692 -0.0304522 0)
(0.736067 -0.0323026 0)
(0.687493 -0.0352559 0)
(0.6369 -0.0374123 0)
(0.577403 -0.0422048 0)
(0.514112 -0.0451481 0)
(0.441085 -0.0523726 0)
(0.358697 -0.0554527 0)
(0.271325 -0.0633284 0)
(0.15949 -0.0667474 0)
(0.0617905 -0.0291117 0)
(-0.00341692 0.0205028 0)
(-0.0324174 0.0540527 0)
(-0.0367767 0.0692966 0)
(-0.0255382 0.0533542 0)
(-0.0127001 0.0197437 0)
(-0.0105633 -0.0112351 0)
(-0.0230727 -0.0247311 0)
(-0.041263 -0.0251593 0)
(-0.0571474 -0.0201285 0)
(-0.069067 -0.014725 0)
(-0.0771679 -0.0104491 0)
(-0.0818413 -0.00722626 0)
(-0.0832448 -0.00460694 0)
(-0.0815103 -0.00210793 0)
(-0.076699 9.92766e-05 0)
(-0.0686643 0.00205883 0)
(-0.0574679 0.00377268 0)
(-0.0432758 0.00527083 0)
(-0.0266021 0.00641257 0)
(-0.00782833 0.00720614 0)
(0.0121862 0.00758004 0)
(0.0327596 0.00764628 0)
(0.052872 0.00716386 0)
(0.0723408 0.00651395 0)
(0.0902235 0.00557781 0)
(0.10652 0.00467848 0)
(0.121134 0.00381051 0)
(0.133221 0.00301248 0)
(0.145387 0.00238668 0)
(0.152181 0.00223175 0)
(0.166419 0.00200368 0)
(0.00265055 -0.0239395 0)
(0.00274989 -0.0237032 0)
(-0.00528462 -0.0157823 0)
(-0.0223375 2.48186e-05 0)
(-0.0549808 0.0156511 0)
(-0.0975669 0.0240959 0)
(-0.142778 0.0267693 0)
(-0.186591 0.0265646 0)
(-0.225201 0.0241543 0)
(-0.255479 0.0201657 0)
(-0.274832 0.0149287 0)
(-0.282094 0.00888002 0)
(-0.277517 0.00188741 0)
(-0.260953 -0.00508691 0)
(-0.232994 -0.0116214 0)
(-0.195094 -0.0169955 0)
(-0.149703 -0.0204949 0)
(-0.0992307 -0.022721 0)
(-0.0459533 -0.0233572 0)
(0.00807224 -0.0227789 0)
(0.0607473 -0.0213164 0)
(0.109766 -0.0188082 0)
(0.15326 -0.0154127 0)
(0.189635 -0.0114397 0)
(0.217777 -0.00720841 0)
(0.237372 -0.00288401 0)
(0.247806 0.00119394 0)
(0.249844 0.00486994 0)
(0.244364 0.0079896 0)
(0.232748 0.00975418 0)
(0.216692 0.0102266 0)
(0.198114 0.0101273 0)
(0.178584 0.00981869 0)
(0.159545 0.00892401 0)
(0.141739 0.00716666 0)
(0.1263 0.004768 0)
(0.113795 0.00220518 0)
(0.105234 -7.30856e-05 0)
(0.100167 -0.00178862 0)
(0.098494 -0.0028092 0)
(0.0988604 -0.00340184 0)
(0.100904 -0.00366515 0)
(0.104202 -0.00328999 0)
(0.107241 -0.00300835 0)
(0.113259 -0.00190176 0)
(-0.00100982 0.0199703 0)
(-0.0187638 0.0336072 0)
(-0.0596848 0.043512 0)
(-0.0948798 0.0534626 0)
(-0.128777 0.0614702 0)
(-0.15583 0.0634993 0)
(-0.176928 0.0604573 0)
(-0.191593 0.0532468 0)
(-0.199404 0.042583 0)
(-0.19859 0.028365 0)
(-0.188111 0.0122903 0)
(-0.167973 -0.00554107 0)
(-0.13834 -0.0238484 0)
(-0.0992213 -0.0414891 0)
(-0.0514502 -0.0574661 0)
(0.00351673 -0.0702133 0)
(0.06443 -0.079218 0)
(0.127849 -0.0842783 0)
(0.191985 -0.0856984 0)
(0.254629 -0.083903 0)
(0.314209 -0.0792663 0)
(0.369499 -0.0718693 0)
(0.418877 -0.0620978 0)
(0.461203 -0.0504379 0)
(0.495312 -0.0377238 0)
(0.521502 -0.0247627 0)
(0.538919 -0.0118769 0)
(0.54816 -8.11866e-07 0)
(0.550003 0.0106563 0)
(0.544863 0.0195188 0)
(0.532928 0.0259534 0)
(0.515985 0.0293902 0)
(0.495603 0.0300075 0)
(0.47424 0.0287493 0)
(0.452582 0.0265385 0)
(0.432688 0.0231218 0)
(0.414017 0.0185769 0)
(0.398286 0.0130417 0)
(0.385382 0.00805956 0)
(0.375812 0.00355032 0)
(0.36892 0.000636617 0)
(0.36483 -0.00199789 0)
(0.362593 -0.00363767 0)
(0.362794 -0.00480442 0)
(0.362899 -0.0049357 0)
(-0.0347107 -0.0103491 0)
(-0.0672408 0.0300205 0)
(-0.0762007 0.0493018 0)
(-0.078683 0.0612038 0)
(-0.0729326 0.066751 0)
(-0.0606821 0.0652317 0)
(-0.0440023 0.0583431 0)
(-0.0222329 0.0464771 0)
(0.00286951 0.0301683 0)
(0.0333733 0.00988299 0)
(0.0702037 -0.0135729 0)
(0.113638 -0.0395147 0)
(0.163298 -0.0663434 0)
(0.217033 -0.0914348 0)
(0.275038 -0.113869 0)
(0.334827 -0.131246 0)
(0.395024 -0.142966 0)
(0.454171 -0.149102 0)
(0.510937 -0.14988 0)
(0.564143 -0.145906 0)
(0.613034 -0.137146 0)
(0.657019 -0.124072 0)
(0.695061 -0.107475 0)
(0.726743 -0.088259 0)
(0.751398 -0.0674142 0)
(0.769639 -0.0463625 0)
(0.781072 -0.0254999 0)
(0.786438 -0.00596893 0)
(0.785979 0.011357 0)
(0.78041 0.025783 0)
(0.769047 0.0373721 0)
(0.754144 0.0453865 0)
(0.735767 0.0497725 0)
(0.716459 0.0502931 0)
(0.695499 0.0485971 0)
(0.67646 0.0442862 0)
(0.656311 0.0378013 0)
(0.639766 0.0293702 0)
(0.62135 0.0206299 0)
(0.609203 0.0138052 0)
(0.593974 0.00720304 0)
(0.588015 0.0028465 0)
(0.576512 -0.00136211 0)
(0.5747 -0.00434101 0)
(0.567717 -0.00245255 0)
(-0.0297156 0.141405 0)
(-0.0252397 0.0891938 0)
(-0.0132886 0.0717086 0)
(0.0139117 0.0613961 0)
(0.0496373 0.0526029 0)
(0.0924839 0.0429523 0)
(0.140365 0.0299342 0)
(0.191464 0.0131757 0)
(0.244446 -0.00866438 0)
(0.300561 -0.0351299 0)
(0.35885 -0.0645137 0)
(0.418548 -0.094521 0)
(0.478857 -0.124207 0)
(0.538644 -0.151422 0)
(0.596708 -0.174182 0)
(0.651804 -0.191019 0)
(0.702634 -0.201006 0)
(0.748397 -0.204405 0)
(0.788887 -0.201881 0)
(0.824292 -0.193716 0)
(0.85476 -0.179635 0)
(0.880532 -0.160368 0)
(0.901265 -0.137173 0)
(0.917372 -0.111357 0)
(0.92858 -0.0842161 0)
(0.936079 -0.0568888 0)
(0.939189 -0.0303732 0)
(0.939387 -0.00565469 0)
(0.935813 0.0167043 0)
(0.929986 0.0351472 0)
(0.919488 0.0499687 0)
(0.907989 0.0608526 0)
(0.892461 0.0676413 0)
(0.878118 0.0702246 0)
(0.858969 0.0686372 0)
(0.844322 0.0645221 0)
(0.824148 0.05701 0)
(0.811114 0.0490304 0)
(0.790267 0.0388687 0)
(0.779522 0.0300797 0)
(0.760457 0.0224078 0)
(0.752853 0.014699 0)
(0.73504 0.0108038 0)
(0.729382 0.00407809 0)
(0.711777 0.00228158 0)
(0.0818665 0.00467726 0)
(0.119588 -0.00436886 0)
(0.203016 -0.00762609 0)
(0.268161 -0.013596 0)
(0.329776 -0.0219636 0)
(0.392411 -0.0330862 0)
(0.454898 -0.0469203 0)
(0.517708 -0.0643394 0)
(0.579574 -0.0851354 0)
(0.640877 -0.10935 0)
(0.700628 -0.136119 0)
(0.757117 -0.162996 0)
(0.809284 -0.188731 0)
(0.855913 -0.210993 0)
(0.89577 -0.228018 0)
(0.928058 -0.23848 0)
(0.952425 -0.241739 0)
(0.969227 -0.238928 0)
(0.97952 -0.230904 0)
(0.985056 -0.217851 0)
(0.987106 -0.199343 0)
(0.986369 -0.175789 0)
(0.983132 -0.148418 0)
(0.978552 -0.118847 0)
(0.972644 -0.0885838 0)
(0.96718 -0.0586718 0)
(0.961344 -0.0301989 0)
(0.956786 -0.00359319 0)
(0.950915 0.0202506 0)
(0.946788 0.0405378 0)
(0.939783 0.0568821 0)
(0.935558 0.0696694 0)
(0.926166 0.0775223 0)
(0.921146 0.0819403 0)
(0.908415 0.0811537 0)
(0.902795 0.0784733 0)
(0.887687 0.0711713 0)
(0.881741 0.0634327 0)
(0.864463 0.053724 0)
(0.857825 0.0443342 0)
(0.839161 0.0366371 0)
(0.833176 0.0280768 0)
(0.812971 0.0235594 0)
(0.809441 0.0182092 0)
(0.786544 0.0150743 0)
)
;

boundaryField
{
    inlet
    {
        type            fixedValue;
        value           uniform (1 0 0);
    }
    outlet
    {
        type            zeroGradient;
    }
    upperWall
    {
        type            noSlip;
    }
    lowerWall
    {
        type            noSlip;
    }
    frontAndBack
    {
        type            empty;
    }
}


// ************************************************************************* //
