/*--------------------------------*- C++ -*----------------------------------*\
  =========                 |
  \\      /  F ield         | OpenFOAM: The Open Source CFD Toolbox
   \\    /   O peration     | Website:  https://openfoam.org
    \\  /    A nd           | Version:  10
     \\/     M anipulation  |
\*---------------------------------------------------------------------------*/
FoamFile
{
    format      ascii;
    class       volScalarField;
    location    "0.3";
    object      p;
}
// * * * * * * * * * * * * * * * * * * * * * * * * * * * * * * * * * * * * * //

dimensions      [0 2 -2 0 0 0 0];

internalField   nonuniform List<scalar> 
400
(
-4.03904e-10
8.768e-05
0.000274001
0.000553491
0.000918795
0.00136051
0.00186739
0.00242668
0.00302445
0.00364592
0.00427576
0.00489842
0.00549849
0.00606094
0.00657154
0.00701717
0.00738621
0.00766887
0.00785747
0.00794632
-8.64345e-05
3.20828e-06
0.000193743
0.000479481
0.000852867
0.00130425
0.00182211
0.00239342
0.00300395
0.00363863
0.00428188
0.00491786
0.00553086
0.00610557
0.00662745
0.00708307
0.0074605
0.00774967
0.00794268
0.00803359
-0.000276729
-0.000182718
1.71156e-05
0.000316681
0.000707936
0.00118066
0.00172271
0.00232043
0.00295898
0.00362268
0.00429534
0.00496053
0.00560192
0.00620358
0.00675028
0.00722792
0.00762388
0.00792744
0.00813016
0.00822565
-0.000574266
-0.000473324
-0.000258838
6.24739e-05
0.000481772
0.000987911
0.00156777
0.00220671
0.00288891
0.00359778
0.0043162
0.00502688
0.00571253
0.00635625
0.00694178
0.00745394
0.00787901
0.00820524
0.00842329
0.00852606
-0.000986928
-0.000876229
-0.000641179
-0.00028943
0.000168994
0.000721601
0.00135387
0.00204977
0.00279219
0.00356327
0.00434475
0.0051181
0.00586485
0.00656678
0.00720622
0.00776647
0.00823225
0.00859032
0.00882995
0.008943
-0.00152583
-0.00140213
-0.00113976
-0.000747746
-0.000237794
0.000375718
0.00107636
0.0018463
0.00266674
0.00351831
0.00438129
0.00523576
0.00606176
0.00683945
0.00754938
0.00817284
0.00869244
0.00909277
0.0093612
0.00948802
-0.00220574
-0.00206518
-0.00176752
-0.00132377
-0.000748044
-5.73099e-05
0.000729487
0.0015922
0.00251001
0.00346178
0.00442617
0.00538168
0.00630671
0.00717954
0.00797852
0.0086824
0.00927097
0.0097259
0.0100318
0.0101766
-0.00304579
-0.0028836
-0.00254088
-0.00203161
-0.00137334
-0.000586578
0.000306442
0.00128271
0.00231906
0.00339239
0.00447968
0.00555786
0.0066036
0.00759312
0.00850223
0.00930653
0.00998212
0.0105066
0.0108606
0.0110287
-0.00407046
-0.00388047
-0.0034803
-0.00288844
-0.0021274
-0.00122254
-0.000200364
0.000912653
0.00209068
0.00330864
0.00454198
0.00576622
0.00695644
0.00808679
0.00913024
0.0100586
0.0108432
0.011456
0.0118719
0.0120702
-0.0053111
-0.00508501
-0.00461099
-0.00391473
-0.00302593
-0.00197664
-0.000798886
0.000476769
0.00182168
0.00320897
0.00461296
0.00600828
0.00736888
0.00866708
0.0098729
0.0109537
0.0118746
0.0126001
0.0130965
0.0133344
-0.00680822
-0.00653422
-0.00596376
-0.00513432
-0.0040862
-0.00286066
-0.00149669
-2.95697e-05
0.0015093
0.00309183
0.00469206
0.00628468
0.00784347
0.0093396
0.0107403
0.012008
0.0131002
0.0139707
0.0145734
0.0148649
-0.00861542
-0.00827532
-0.007576
-0.0065743
-0.00532617
-0.0038854
-0.00229963
-0.00060932
0.00115195
0.002956
0.00477807
0.00659453
0.0083805
0.0101075
0.0117407
0.0132376
0.0145461
0.0156061
0.0163529
0.0167198
-0.0108062
-0.0103688
-0.00949262
-0.00826414
-0.0067626
-0.0050585
-0.00321002
-0.00126242
0.000749965
0.00280086
0.00486891
0.00693452
0.00897662
0.0109693
0.0128779
0.0146557
0.0162399
0.0175518
0.0184991
0.0189798
-0.0134857
-0.0128925
-0.0117667
-0.0102335
-0.00840748
-0.00638124
-0.00422391
-0.00198372
0.000307001
0.00262692
0.00496129
0.00729784
0.00962272
0.0119162
0.0141474
0.0162684
0.0182068
0.0198601
0.0210945
0.0217622
-0.0168133
-0.0159464
-0.0144586
-0.0125068
-0.0102625
-0.00784348
-0.00532706
-0.00276011
-0.000168272
0.00243658
0.00505053
0.00767281
0.0103013
0.0129276
0.0155306
0.0180675
0.0204615
0.0225869
0.0242425
0.0252472
-0.0210611
-0.0196559
-0.0176307
-0.0150933
-0.0123096
-0.00941575
-0.00648933
-0.00356702
-0.000660105
0.00223502
0.00513039
0.0080416
0.0109836
0.013966
0.0169862
0.0200185
0.0229949
0.0257801
0.0280637
0.0297304
-0.0264912
-0.0241407
-0.0213262
-0.0179684
-0.0144943
-0.0110381
-0.00765787
-0.00436454
-0.00114397
0.00203094
0.0051934
0.00837976
0.011627
0.0149706
0.0184388
0.0220411
0.0257474
0.0294529
0.0326682
0.0356328
-0.035322
-0.0297806
-0.0256223
-0.0210592
-0.0167058
-0.0126055
-0.00875006
-0.00509535
-0.00158553
0.00183748
0.00523153
0.00865708
0.0121757
0.015855
0.0197682
0.0239905
0.0285843
0.0336334
0.0383684
0.0448051
-0.0426078
-0.0351511
-0.0298709
-0.0239741
-0.0186905
-0.0139526
-0.00965775
-0.00569044
-0.00194566
0.00166884
0.00523688
0.00883859
0.0125605
0.0165004
0.0207758
0.0255289
0.0309135
0.0372377
0.0426071
0.0529349
-0.0741537
-0.0429436
-0.0350568
-0.0266155
-0.0200972
-0.0147817
-0.0101702
-0.00601112
-0.00213696
0.00157636
0.00523109
0.00892258
0.0127551
0.0168614
0.0214368
0.0268093
0.0335023
0.0430732
0.0526405
0.0869073
)
;

boundaryField
{
    movingWall
    {
        type            zeroGradient;
    }
    fixedWalls
    {
        type            zeroGradient;
    }
    frontAndBack
    {
        type            empty;
    }
}


// ************************************************************************* //
