/*--------------------------------*- C++ -*----------------------------------*\
  =========                 |
  \\      /  F ield         | OpenFOAM: The Open Source CFD Toolbox
   \\    /   O peration     | Website:  https://openfoam.org
    \\  /    A nd           | Version:  10
     \\/     M anipulation  |
\*---------------------------------------------------------------------------*/
FoamFile
{
    format      ascii;
    class       volVectorField;
    location    "6.675";
    object      U;
}
// * * * * * * * * * * * * * * * * * * * * * * * * * * * * * * * * * * * * * //

dimensions      [0 1 -1 0 0 0 0];

internalField   nonuniform List<vector> 
400
(
(-0.000117737 0.000107531 0)
(-0.000939285 0.000355023 0)
(-0.00233303 0.000442542 0)
(-0.00373663 0.000465159 0)
(-0.00516055 0.000470581 0)
(-0.00656511 0.000472763 0)
(-0.00793028 0.000470911 0)
(-0.00923165 0.000459913 0)
(-0.0104324 0.000433418 0)
(-0.0114815 0.000384334 0)
(-0.0123124 0.000305213 0)
(-0.0128433 0.000189276 0)
(-0.01298 3.17114e-05 0)
(-0.012623 -0.000170562 0)
(-0.0116838 -0.000409088 0)
(-0.0101072 -0.000663311 0)
(-0.00791095 -0.000891973 0)
(-0.00527698 -0.00102495 0)
(-0.00231832 -0.000945939 0)
(-0.000373868 -0.000423881 0)
(-0.000394664 0.000952025 0)
(-0.00210524 0.00201398 0)
(-0.00471836 0.0023822 0)
(-0.00733841 0.00246189 0)
(-0.00996003 0.00244203 0)
(-0.0125025 0.00238041 0)
(-0.0149155 0.00227936 0)
(-0.0171477 0.00212378 0)
(-0.0191328 0.00189302 0)
(-0.0207875 0.00156382 0)
(-0.0220092 0.00111207 0)
(-0.0226777 0.000515684 0)
(-0.0226623 -0.000239953 0)
(-0.0218259 -0.00114675 0)
(-0.0200495 -0.00216622 0)
(-0.0172681 -0.00321307 0)
(-0.0135299 -0.00412806 0)
(-0.00911201 -0.00463968 0)
(-0.00420605 -0.00430875 0)
(-0.000811509 -0.0022478 0)
(-0.00051091 0.00245691 0)
(-0.00261504 0.00468414 0)
(-0.00576425 0.0054351 0)
(-0.00889747 0.00557169 0)
(-0.0120135 0.00548017 0)
(-0.0150185 0.00527966 0)
(-0.0178551 0.00498044 0)
(-0.0204661 0.00455819 0)
(-0.0227798 0.00397661 0)
(-0.0247067 0.00319366 0)
(-0.0261373 0.00216562 0)
(-0.0269418 0.000853436 0)
(-0.0269647 -0.000765977 0)
(-0.0260385 -0.00268004 0)
(-0.0240115 -0.00481303 0)
(-0.0207793 -0.00699482 0)
(-0.0163638 -0.00890309 0)
(-0.0110723 -0.00997713 0)
(-0.00511951 -0.00931871 0)
(-0.000983204 -0.00510984 0)
(-0.00054738 0.00404538 0)
(-0.00281697 0.00751127 0)
(-0.00620859 0.00865025 0)
(-0.00957085 0.00883262 0)
(-0.0129159 0.00866087 0)
(-0.01615 0.00831842 0)
(-0.0192208 0.00782353 0)
(-0.0220772 0.00714279 0)
(-0.0246529 0.00622372 0)
(-0.0268618 0.00500286 0)
(-0.0285928 0.00341165 0)
(-0.0297044 0.00138678 0)
(-0.0300214 -0.00111323 0)
(-0.0293272 -0.00409226 0)
(-0.0273914 -0.00745524 0)
(-0.0240153 -0.0109542 0)
(-0.0191311 -0.0140835 0)
(-0.0130518 -0.0159175 0)
(-0.00600816 -0.0149633 0)
(-0.00111211 -0.0082623 0)
(-0.000556238 0.00571047 0)
(-0.00291349 0.0104918 0)
(-0.00645427 0.0120398 0)
(-0.00996487 0.0122747 0)
(-0.013472 0.0120317 0)
(-0.016888 0.0115632 0)
(-0.0201724 0.0108971 0)
(-0.0232873 0.00999152 0)
(-0.0261798 0.0087767 0)
(-0.0287745 0.00716385 0)
(-0.030963 0.00505024 0)
(-0.0325928 0.0023314 0)
(-0.0334585 -0.00107955 0)
(-0.0332777 -0.00522655 0)
(-0.0317029 -0.0100268 0)
(-0.0283749 -0.0151706 0)
(-0.0230436 -0.019938 0)
(-0.0159586 -0.0229131 0)
(-0.00733447 -0.0217509 0)
(-0.00129513 -0.0119815 0)
(-0.000558967 0.00741768 0)
(-0.00298899 0.0135838 0)
(-0.00666524 0.0155665 0)
(-0.0103165 0.0158682 0)
(-0.0139844 0.0155741 0)
(-0.0175903 0.015012 0)
(-0.021111 0.0142224 0)
(-0.0245286 0.0131566 0)
(-0.0278124 0.0117272 0)
(-0.0309081 0.00981629 0)
(-0.0337217 0.00727598 0)
(-0.036099 0.00393665 0)
(-0.0378121 -0.000371312 0)
(-0.0385005 -0.00576237 0)
(-0.0376576 -0.0122503 0)
(-0.0346796 -0.0195092 0)
(-0.028993 -0.0265853 0)
(-0.0206124 -0.0313988 0)
(-0.00956808 -0.0302968 0)
(-0.00161522 -0.0165874 0)
(-0.000561134 0.00916178 0)
(-0.0030686 0.016784 0)
(-0.00688995 0.0192296 0)
(-0.0106904 0.0196149 0)
(-0.0145273 0.0192943 0)
(-0.0183339 0.0186797 0)
(-0.0221091 0.0178293 0)
(-0.0258629 0.0166912 0)
(-0.029598 0.0151632 0)
(-0.033298 0.0130964 0)
(-0.0369069 0.0102898 0)
(-0.0402961 0.00648669 0)
(-0.0432151 0.00139394 0)
(-0.0452639 -0.0052583 0)
(-0.0457786 -0.0136784 0)
(-0.0437983 -0.0236442 0)
(-0.0382245 -0.0340418 0)
(-0.0284486 -0.04197 0)
(-0.013744 -0.0416782 0)
(-0.00228772 -0.022753 0)
(-0.000563245 0.0109472 0)
(-0.00315713 0.0201041 0)
(-0.00713673 0.0230408 0)
(-0.0110914 0.0235229 0)
(-0.015096 0.0231981 0)
(-0.0190973 0.0225734 0)
(-0.023121 0.0217324 0)
(-0.0272137 0.0206282 0)
(-0.031425 0.0191513 0)
(-0.0357978 0.0171281 0)
(-0.0403465 0.0143038 0)
(-0.0450127 0.0103225 0)
(-0.0495992 0.00471864 0)
(-0.053728 -0.00305815 0)
(-0.0566234 -0.0134755 0)
(-0.0569735 -0.0267245 0)
(-0.0529302 -0.0418306 0)
(-0.0424251 -0.0552019 0)
(-0.0224539 -0.0577224 0)
(-0.00395853 -0.0320332 0)
(-0.000565905 0.012779 0)
(-0.00325755 0.0235567 0)
(-0.00740787 0.0270073 0)
(-0.011513 0.0275897 0)
(-0.0156676 0.0272732 0)
(-0.0198321 0.0266738 0)
(-0.0240627 0.0259114 0)
(-0.0284498 0.0249568 0)
(-0.0331038 0.0237093 0)
(-0.0381519 0.0219885 0)
(-0.043722 0.0195026 0)
(-0.0499058 0.0158023 0)
(-0.0566851 0.0102311 0)
(-0.0638032 0.00191583 0)
(-0.0706722 -0.0100982 0)
(-0.0759356 -0.0267428 0)
(-0.0767189 -0.0481257 0)
(-0.0676235 -0.0710999 0)
(-0.0406027 -0.0816362 0)
(-0.00811048 -0.0479458 0)
(-0.000572293 0.0146657 0)
(-0.00337987 0.0271563 0)
(-0.0077152 0.0311312 0)
(-0.0119578 0.0317986 0)
(-0.0162255 0.031484 0)
(-0.0204919 0.0309282 0)
(-0.0248441 0.0303005 0)
(-0.0294193 0.0296065 0)
(-0.0343974 0.0287785 0)
(-0.0400114 0.027665 0)
(-0.0465498 0.0259855 0)
(-0.0543426 0.023257 0)
(-0.063711 0.0186973 0)
(-0.0748943 0.0111465 0)
(-0.0879998 -0.000995642 0)
(-0.102268 -0.0199272 0)
(-0.11317 -0.0490372 0)
(-0.107854 -0.0889409 0)
(-0.07127 -0.118994 0)
(-0.0164189 -0.0778045 0)
(-0.000590463 0.0166264 0)
(-0.00354811 0.0309259 0)
(-0.00809106 0.0354116 0)
(-0.0124506 0.0361189 0)
(-0.0167755 0.0357692 0)
(-0.0210503 0.0352452 0)
(-0.0253904 0.0347784 0)
(-0.0299752 0.0344278 0)
(-0.0350496 0.0341896 0)
(-0.0409538 0.0339919 0)
(-0.0481608 0.0336487 0)
(-0.0573246 0.0327788 0)
(-0.0693281 0.0306938 0)
(-0.0853543 0.0262673 0)
(-0.106878 0.0174431 0)
(-0.134006 -0.000914432 0)
(-0.157634 -0.0402132 0)
(-0.152986 -0.110514 0)
(-0.10616 -0.176201 0)
(-0.0299967 -0.130124 0)
(-0.000637476 0.0187031 0)
(-0.00381065 0.0349134 0)
(-0.00860142 0.0398633 0)
(-0.0130514 0.0405228 0)
(-0.0173596 0.0400545 0)
(-0.0215195 0.0395014 0)
(-0.0256679 0.0391691 0)
(-0.0300121 0.0391856 0)
(-0.0348391 0.0396442 0)
(-0.0405673 0.040616 0)
(-0.0478237 0.0421252 0)
(-0.0575642 0.0441038 0)
(-0.0712352 0.046321 0)
(-0.0910385 0.0480877 0)
(-0.11989 0.0464615 0)
(-0.156994 0.0295554 0)
(-0.185779 -0.0275218 0)
(-0.17446 -0.142908 0)
(-0.129609 -0.249219 0)
(-0.0461403 -0.21229 0)
(-0.000743708 0.0209551 0)
(-0.00424396 0.0391239 0)
(-0.00935195 0.0443884 0)
(-0.0138707 0.0448454 0)
(-0.0180783 0.0441453 0)
(-0.0219744 0.043475 0)
(-0.0257132 0.0431952 0)
(-0.0295053 0.0435092 0)
(-0.0336272 0.0446267 0)
(-0.0384954 0.0468072 0)
(-0.044767 0.0503908 0)
(-0.0535011 0.055827 0)
(-0.0663497 0.0636108 0)
(-0.0856157 0.07323 0)
(-0.114221 0.0791403 0)
(-0.148873 0.0600459 0)
(-0.171263 -0.0181411 0)
(-0.155309 -0.17299 0)
(-0.133338 -0.313717 0)
(-0.0520697 -0.317372 0)
(-0.000996653 0.0236599 0)
(-0.00506935 0.0440711 0)
(-0.0105726 0.0495902 0)
(-0.0150624 0.0496782 0)
(-0.0190291 0.0484661 0)
(-0.0225082 0.0473706 0)
(-0.0256398 0.0468479 0)
(-0.0285867 0.0471805 0)
(-0.0315547 0.0486846 0)
(-0.0348419 0.0518047 0)
(-0.0389175 0.0572045 0)
(-0.0445214 0.0658162 0)
(-0.052809 0.0786928 0)
(-0.0647183 0.0945934 0)
(-0.0822016 0.104695 0)
(-0.100985 0.0812068 0)
(-0.113567 -0.00978905 0)
(-0.10221 -0.183072 0)
(-0.110954 -0.354386 0)
(-0.0391907 -0.413986 0)
(-0.00136307 0.0269695 0)
(-0.00603462 0.0484661 0)
(-0.0122134 0.0533694 0)
(-0.0168538 0.0525095 0)
(-0.0206721 0.0507743 0)
(-0.0236186 0.0494499 0)
(-0.0259038 0.0488528 0)
(-0.0276727 0.0491923 0)
(-0.0290178 0.0508009 0)
(-0.0300132 0.0542164 0)
(-0.030776 0.0602856 0)
(-0.0313564 0.0701035 0)
(-0.032112 0.0848297 0)
(-0.0321439 0.102254 0)
(-0.0333357 0.113054 0)
(-0.0310825 0.0878806 0)
(-0.0361923 -0.00466153 0)
(-0.0320433 -0.172159 0)
(-0.0704304 -0.365035 0)
(-0.0204417 -0.476483 0)
(-0.0034364 0.0299454 0)
(-0.0104297 0.0566919 0)
(-0.016008 0.0615279 0)
(-0.0197732 0.0601511 0)
(-0.0224895 0.0569479 0)
(-0.0245232 0.0541428 0)
(-0.0259201 0.0521957 0)
(-0.0266173 0.0513602 0)
(-0.026461 0.0519295 0)
(-0.0252063 0.0543625 0)
(-0.0225603 0.0594534 0)
(-0.0177943 0.0681068 0)
(-0.0108796 0.0813309 0)
(0.000932922 0.0966748 0)
(0.0138955 0.106469 0)
(0.0328262 0.0840514 0)
(0.0343553 0.000651306 0)
(0.0342416 -0.143498 0)
(-0.0337356 -0.348126 0)
(-0.00225736 -0.50791 0)
(-0.0011066 0.0438076 0)
(-0.00845164 0.0589607 0)
(-0.0190267 0.0599942 0)
(-0.0231046 0.055622 0)
(-0.0264861 0.0524341 0)
(-0.0279883 0.0502243 0)
(-0.0283377 0.0488049 0)
(-0.0275216 0.0480787 0)
(-0.0254156 0.0482273 0)
(-0.0216305 0.0495481 0)
(-0.0156829 0.0527444 0)
(-0.00627734 0.0582118 0)
(0.00677618 0.0669198 0)
(0.0271303 0.076878 0)
(0.0486636 0.0821274 0)
(0.0785183 0.0649691 0)
(0.0822099 0.000516546 0)
(0.0805203 -0.108178 0)
(-0.000851717 -0.317508 0)
(0.0229611 -0.515734 0)
(-0.0124837 0.0325962 0)
(-0.0240573 0.0799113 0)
(-0.0232897 0.0790981 0)
(-0.0291912 0.0739735 0)
(-0.0307882 0.0666603 0)
(-0.0306172 0.0605249 0)
(-0.0285095 0.055499 0)
(-0.0247509 0.0515456 0)
(-0.019415 0.0486544 0)
(-0.0121576 0.0466725 0)
(-0.00307938 0.0460056 0)
(0.00945519 0.0467085 0)
(0.0248891 0.0497414 0)
(0.0470317 0.0533468 0)
(0.0675787 0.0562663 0)
(0.100541 0.0461374 0)
(0.10279 0.00756969 0)
(0.120325 -0.0696837 0)
(0.0504284 -0.283619 0)
(0.0595504 -0.498824 0)
(-0.0774142 0.0964511 0)
(-0.063142 0.0591612 0)
(-0.0655838 0.0598892 0)
(-0.0439644 0.0532158 0)
(-0.0268114 0.0463018 0)
(-0.00688789 0.0411508 0)
(0.0119072 0.0373967 0)
(0.0309261 0.0342086 0)
(0.0484672 0.0318542 0)
(0.0672891 0.0296239 0)
(0.0836138 0.0283441 0)
(0.10422 0.0273795 0)
(0.119273 0.0272084 0)
(0.148198 0.0275274 0)
(0.159158 0.0238477 0)
(0.204177 0.0166591 0)
(0.197142 -0.0176761 0)
(0.232885 -0.0781114 0)
(0.160936 -0.25809 0)
(0.126069 -0.438904 0)
(0.119618 0.140804 0)
(0.152359 0.0861951 0)
(0.22905 0.0635955 0)
(0.28449 0.0481207 0)
(0.325732 0.0374424 0)
(0.364063 0.0296509 0)
(0.392649 0.0241889 0)
(0.423827 0.0201676 0)
(0.443723 0.0172476 0)
(0.472264 0.0150244 0)
(0.484857 0.0132703 0)
(0.514647 0.012185 0)
(0.519696 0.0110032 0)
(0.553577 0.010455 0)
(0.548718 0.00873313 0)
(0.584015 0.00453826 0)
(0.554664 -0.00468915 0)
(0.562007 -0.027686 0)
(0.42598 -0.0728782 0)
(0.27615 -0.15205 0)
)
;

boundaryField
{
    movingWall
    {
        type            fixedValue;
        value           uniform (1 0 0);
    }
    fixedWalls
    {
        type            noSlip;
    }
    frontAndBack
    {
        type            empty;
    }
}


// ************************************************************************* //
