/*--------------------------------*- C++ -*----------------------------------*\
  =========                 |
  \\      /  F ield         | OpenFOAM: The Open Source CFD Toolbox
   \\    /   O peration     | Website:  https://openfoam.org
    \\  /    A nd           | Version:  10
     \\/     M anipulation  |
\*---------------------------------------------------------------------------*/
FoamFile
{
    format      ascii;
    class       volScalarField;
    location    "2.3";
    object      p;
}
// * * * * * * * * * * * * * * * * * * * * * * * * * * * * * * * * * * * * * //

dimensions      [0 2 -2 0 0 0 0];

internalField   nonuniform List<scalar> 
475
(
-0.0235254
-0.0475081
-0.079692
-0.101883
-0.126347
-0.0500147
-0.0615188
-0.0775963
-0.099448
-0.115462
-0.0469296
-0.0558341
-0.0706398
-0.0888931
-0.104562
-0.0459297
-0.0566021
-0.0707124
-0.0860592
-0.0992366
-0.0158643
-0.04272
-0.0658649
-0.0826999
-0.0943816
-0.142834
-0.132973
-0.162487
-0.228102
-0.281781
-0.295538
-0.264907
-0.197532
-0.115012
-0.0460939
-0.00236276
0.0192998
0.0272645
0.0329804
0.0414138
0.0494565
0.0546741
0.0570015
0.0574818
0.0568258
0.0554854
0.0537381
0.0517528
0.0496282
0.0474212
0.0451655
0.0428809
0.0405799
0.0382698
0.0359546
0.0336366
0.0313172
0.028997
0.0266766
0.0243561
0.0220359
0.0197158
0.0173959
0.0150763
0.0127565
0.010437
0.00811756
0.00579807
0.00347885
0.00115966
-0.133509
-0.149049
-0.16289
-0.185066
-0.207419
-0.207717
-0.180697
-0.13619
-0.0834378
-0.0385765
-0.00835758
0.0118329
0.0236848
0.030901
0.039021
0.0461316
0.0507743
0.0536853
0.0549226
0.0549551
0.0541826
0.0528675
0.0511921
0.0492814
0.0472179
0.0450556
0.0428302
0.0405651
0.0382751
0.03597
0.033656
0.0313368
0.0290151
0.0266924
0.0243695
0.0220468
0.0197246
0.0174028
0.0150816
0.0127605
0.01044
0.00811968
0.0057995
0.00347967
0.00115992
-0.118192
-0.127937
-0.132955
-0.141431
-0.1496
-0.143964
-0.12683
-0.108166
-0.0827352
-0.0534991
-0.0332522
-0.0218308
-0.00906905
0.0121345
0.0316516
0.043885
0.0499709
0.0528205
0.0541672
0.0544237
0.0538435
0.0526746
0.0511022
0.0492571
0.0472316
0.0450888
0.0428711
0.0406067
0.0383138
0.0360043
0.0336855
0.0313616
0.0290356
0.0267091
0.0243828
0.0220574
0.0197328
0.0174092
0.0150864
0.0127642
0.0104427
0.00812157
0.00580077
0.00348039
0.00116014
-0.10895
-0.115917
-0.117896
-0.117552
-0.116555
-0.10531
-0.0910916
-0.0852253
-0.0777884
-0.0636239
-0.0508441
-0.0373868
-0.0177167
0.00295609
0.0207578
0.0338025
0.0427508
0.048472
0.0516553
0.0529743
0.0530143
0.0522079
0.0508482
0.0491291
0.0471779
0.0450781
0.042884
0.0406311
0.0383423
0.0360323
0.0337107
0.0313833
0.0290537
0.0267238
0.0243945
0.0220666
0.0197399
0.0174146
0.0150904
0.0127672
0.0104448
0.00812309
0.00580182
0.00348094
0.00116029
-0.102777
-0.107666
-0.107291
-0.103903
-0.0972138
-0.0827386
-0.0705469
-0.0700862
-0.0714734
-0.0661595
-0.0571044
-0.0438687
-0.0228136
0.000964405
0.0216747
0.0362553
0.0452599
0.0503664
0.0529266
0.0538089
0.0535705
0.052587
0.0511124
0.0493169
0.0473134
0.0451769
0.0429566
0.0406848
0.0383824
0.0360625
0.0337336
0.0314008
0.029067
0.0267338
0.0244022
0.0220723
0.0197442
0.0174178
0.0150928
0.0127689
0.0104461
0.00812396
0.00580244
0.00348127
0.00116037
-0.186411
-0.192876
-0.211673
-0.245392
-0.27738
-0.277427
-0.231878
-0.142572
-0.0344506
0.059788
0.119575
0.141952
0.140619
0.128825
0.114345
0.100702
0.0892097
0.0797783
0.0721709
0.0660738
0.0611506
0.0570962
0.0536578
0.0506396
0.0478986
0.0453353
0.0428829
0.0404979
0.0381526
0.0358297
0.0335183
0.0312122
0.0289076
0.0266027
0.0242963
0.0219882
0.0196784
0.0173669
0.015054
0.0127399
0.0104247
0.00810887
0.00579244
0.00347561
0.00115855
-0.179951
-0.185967
-0.21424
-0.263497
-0.311074
-0.321645
-0.28141
-0.190653
-0.0712626
0.0365106
0.106256
0.134323
0.134623
0.123253
0.109491
0.0971078
0.0865999
0.0779629
0.0710174
0.0654122
0.0608142
0.056957
0.0536279
0.0506635
0.0479443
0.0453859
0.0429305
0.0405391
0.0381867
0.0358571
0.03354
0.0312292
0.0289207
0.0266127
0.0243039
0.021994
0.0196827
0.0173701
0.0150564
0.0127416
0.010426
0.00810976
0.00579298
0.00347594
0.00115867
-0.187814
-0.191715
-0.232757
-0.299064
-0.363481
-0.38972
-0.357072
-0.260228
-0.125042
-0.00298063
0.0787798
0.114798
0.119319
0.110094
0.0982842
0.0880579
0.0801181
0.0737659
0.0684094
0.0638239
0.0598835
0.0564397
0.0533608
0.0505424
0.0479051
0.0453901
0.0429554
0.0405724
0.0382213
0.0358892
0.0335681
0.0312526
0.0289398
0.026628
0.0243159
0.0220033
0.0196899
0.0173756
0.0150606
0.0127446
0.0104282
0.00811131
0.00579395
0.0034765
0.00115888
-0.178233
-0.181399
-0.226258
-0.29824
-0.368481
-0.400061
-0.375013
-0.28618
-0.157291
-0.0377783
0.0432555
0.079665
0.0881284
0.0859217
0.0816819
0.077329
0.0729166
0.0688623
0.0651511
0.0617436
0.0586011
0.0556826
0.0529385
0.0503254
0.0478086
0.0453608
0.0429613
0.0405947
0.0382498
0.0359184
0.0335951
0.0312763
0.0289598
0.0266444
0.0243291
0.0220139
0.0196982
0.017382
0.0150655
0.0127483
0.0104309
0.00811323
0.00579519
0.00347721
0.00115912
-0.191717
-0.159654
-0.203978
-0.273181
-0.339395
-0.366276
-0.341123
-0.261057
-0.151117
-0.0521672
0.0125692
0.0406257
0.0483833
0.0514747
0.0558732
0.0601697
0.0623306
0.0623438
0.0610465
0.0591195
0.0569253
0.0546248
0.0522842
0.0499332
0.0475845
0.0452426
0.0429081
0.0405796
0.0382555
0.0359343
0.0336148
0.0312962
0.0289781
0.0266604
0.0243425
0.0220248
0.0197069
0.0173889
0.0150708
0.0127523
0.0104339
0.00811537
0.00579661
0.00347801
0.00115939
)
;

boundaryField
{
    inlet
    {
        type            zeroGradient;
    }
    outlet
    {
        type            fixedValue;
        value           uniform 0;
    }
    upperWall
    {
        type            zeroGradient;
    }
    lowerWall
    {
        type            zeroGradient;
    }
    frontAndBack
    {
        type            empty;
    }
}


// ************************************************************************* //
