/*--------------------------------*- C++ -*----------------------------------*\
  =========                 |
  \\      /  F ield         | OpenFOAM: The Open Source CFD Toolbox
   \\    /   O peration     | Website:  https://openfoam.org
    \\  /    A nd           | Version:  10
     \\/     M anipulation  |
\*---------------------------------------------------------------------------*/
FoamFile
{
    format      ascii;
    class       surfaceScalarField;
    location    "9.875";
    object      phi;
}
// * * * * * * * * * * * * * * * * * * * * * * * * * * * * * * * * * * * * * //

dimensions      [0 3 -1 0 0 0 0];

internalField   nonuniform List<scalar> 
928
(
0.0964769
0.00352307
0.1037
-0.00722333
0.108066
-0.00436617
-0.00947625
0.117543
0.0949671
0.00855592
0.106744
-0.0190006
0.103776
-0.00139778
-0.0196852
0.113985
0.0963362
0.0122197
0.109837
-0.0325012
0.106037
0.00240164
-0.0414475
0.1278
0.103159
0.00906098
0.0937899
-0.0231323
0.100012
-0.0038207
0.152472
-0.0939073
0.112577
0.00496578
-0.015762
0.128339
0.111195
0.00775537
-0.0404527
0.135886
0.131669
0.00388618
-0.0466688
0.137885
0.156358
0.109689
0.125317
0.00302212
0.124165
0.00115176
0.123341
0.000823655
-0.000223802
0.123565
0.136947
0.00196145
0.132289
0.00580931
0.129506
0.00360661
0.000262304
0.12902
0.13562
0.00422603
0.136967
0.00446283
0.133285
0.0072883
0.00248084
0.131067
0.111698
0.00221762
0.0994537
0.0167069
0.117378
-0.0106362
0.107922
0.011937
0.124882
-0.00131648
0.126597
-0.00171528
0.128505
-0.00190837
0.129598
-0.00109242
0.130619
-0.00102115
0.130677
-5.77726e-05
0.130874
-0.000197804
0.130317
0.000557121
0.129765
0.000552712
0.128719
0.00104574
0.127133
0.00158568
0.125341
0.00179262
0.123158
0.0021825
0.121307
0.00185099
0.119517
0.00179037
0.11891
0.000607084
0.11871
0.000199644
0.119506
-0.000796165
0.120081
-0.000574425
0.121015
-0.000934276
0.121006
8.68975e-06
0.120361
0.000645615
0.118198
0.00216293
0.115151
0.00304687
0.111522
0.00362878
0.107709
0.00381283
0.105105
0.0026038
0.102704
0.00240123
0.102942
-0.000237512
0.103292
-0.000350283
0.105936
-0.00264365
0.108024
-0.00208806
0.110466
-0.00244248
0.111767
-0.00130074
0.111728
3.92809e-05
0.110479
0.00124885
0.106864
0.00361498
0.103186
0.00367728
0.0978643
0.00532219
0.0030054
0.130777
-0.00307376
0.131769
-0.0027069
0.133169
-0.00330878
0.13472
-0.0026429
0.136755
-0.00305673
0.137389
-0.000690836
0.137684
-0.00049348
0.137585
0.000656778
0.137374
0.000763202
0.136419
0.00200108
0.134764
0.00324044
0.13339
0.00316652
0.131538
0.00403414
0.130456
0.00293342
0.128814
0.00343289
0.128185
0.00123578
0.127869
0.000515932
0.128413
-0.00134058
0.129441
-0.00160247
0.130844
-0.00233722
0.131834
-0.000981771
0.131649
0.000830973
0.130752
0.00305998
0.128714
0.00508463
0.126632
0.00571121
0.123176
0.00726883
0.120427
0.00535249
0.117386
0.00544184
0.116748
0.000400499
0.116774
-0.000376152
0.118586
-0.00445534
0.120846
-0.00434805
0.123388
-0.00498404
0.126201
-0.00411441
0.127401
-0.00116088
0.12851
0.000140563
0.126467
0.0056573
0.125417
0.00472794
0.122152
0.00858679
0.00649434
0.12829
-0.000297598
0.126411
-0.000827204
0.1295
-0.00639847
0.132041
-0.0051831
0.13248
-0.00349564
0.133138
-0.00134915
0.134705
-0.00206075
0.135673
-0.0003107
0.135263
0.00117275
0.134116
0.00314799
0.133248
0.00410895
0.132432
0.00398253
0.130975
0.00549027
0.129346
0.00456286
0.127714
0.00506455
0.126347
0.00260304
0.124917
0.00194572
0.125093
-0.00151629
0.126044
-0.00255317
0.127469
-0.00376218
0.128918
-0.00243058
0.130053
-0.000304235
0.130081
0.00303136
0.128206
0.00695978
0.125144
0.00877326
0.121469
0.0109441
0.118108
0.00871302
0.116365
0.00718547
0.114439
0.00232601
0.113598
0.000465189
0.114362
-0.00521909
0.115537
-0.00552386
0.117992
-0.00743866
0.120854
-0.00697615
0.123767
-0.00407443
0.127608
-0.00370052
0.12969
0.00357556
0.130669
0.00374866
0.128131
0.0111253
0.00938228
0.104282
0.00334241
0.100843
0.00261192
0.102462
-0.00801733
0.102228
-0.00494926
0.0980095
0.000722872
0.0970336
-0.000373241
0.0993818
-0.00440893
0.100473
-0.0014019
0.100346
0.00129953
0.102426
0.00106823
0.105601
0.000933826
0.108457
0.00112679
0.110982
0.00296498
0.111214
0.00433144
0.110296
0.00598176
0.106661
0.00623807
0.104195
0.00441174
0.101987
0.000692001
0.100454
-0.00101988
0.0998073
-0.00311583
0.10229
-0.0049136
0.105972
-0.00398569
0.110475
-0.00147207
0.115521
0.00191405
0.119346
0.00494848
0.12222
0.00807023
0.122464
0.00846858
0.119935
0.00971439
0.112818
0.00944278
0.106226
0.00705773
0.0980955
0.00291127
0.0931269
-0.000555242
0.0908306
-0.00514236
0.0918683
-0.0080139
0.0965158
-0.0087219
0.101109
-0.00829345
0.108356
-0.00367128
0.113654
-0.0015497
0.120449
0.00433037
0.0058096
0.109572
-0.000511519
0.0887011
-0.00226092
0.0894853
-0.00460492
-0.00442194
0.109178
-0.00968914
0.0880258
0.0188909
0.0841731
-0.000752208
0.0797511
-0.00746092
0.00967855
-0.0278664
0.0371124
0.0112291
-0.0497317
0.0249623
-0.00179619
-0.00921695
0.0188955
0.0198677
0.00802774
-0.00544685
-0.0244172
0.0113883
0.00812705
-0.000508378
0.00205461
-0.0047174
0.00682094
-0.00256782
-0.0101669
0.00763083
-0.0151479
-0.00215388
0.0105076
-0.00703138
0.00450426
7.86909e-06
-0.0114482
0.00760447
-0.00899851
0.010911
-0.00200703
0.0126143
-0.000635071
0.0131029
0.000445297
0.0135564
0.000673218
0.0158458
0.000675618
0.0181907
0.00198651
0.0184868
0.00568563
0.0197441
0.00498078
0.0221582
0.0019977
0.0233272
-0.000477062
0.0263679
-0.00406052
0.0317505
-0.00849847
0.036342
-0.00950506
0.0407722
-0.00841596
0.0452699
-0.00596974
0.0479176
-0.000733622
0.0489302
0.00393583
0.0486112
0.0083893
0.0461448
0.010935
0.0433411
0.0125181
0.041703
0.0110808
0.0411771
0.0075837
0.0421613
0.00192709
0.0437871
-0.00218108
0.0468757
-0.00823097
0.051198
-0.0123361
0.0555345
-0.0130585
0.0610517
-0.0138106
0.0650981
-0.00771767
0.0689083
-0.00535991
0.0695611
0.00367763
0.00844272
0.0180403
-0.00459732
0.0278933
-0.00303206
0.0160991
0.00162727
0.00162302
-0.000671842
0.00408115
0.00804945
0.00729298
0.00129243
0.00120946
-0.00536467
-0.00429257
-0.00349647
-0.0031214
-0.0031782
0.00047314
-0.00422962
0.00429436
-0.00337592
0.00764858
-0.002681
0.00939143
-0.00106723
0.0104193
0.000958596
0.0134171
0.00268785
0.017497
0.00090087
0.0198264
-0.000331707
0.0213641
-0.00201475
0.0230703
-0.00576669
0.0233423
-0.00877047
0.0228654
-0.00902815
0.0236957
-0.00924624
0.0250527
-0.00732676
0.0263925
-0.00207347
0.0292959
0.00103247
0.0322616
0.0054236
0.0351944
0.00800212
0.0391149
0.00859766
0.0440453
0.00615035
0.0478082
0.00382086
0.0501164
-0.000381153
0.0520069
-0.00407151
0.0505864
-0.00681048
0.0486364
-0.0103862
0.0466353
-0.0110574
0.0449068
-0.0120821
0.0444781
-0.00728896
0.0452277
-0.0061095
0.0467833
0.00212201
0.0074295
0.101779
-0.0114684
0.0943423
0.0263278
0.0947733
-0.00118318
0.0315703
0.142954
0.0961952
-0.00766357
0.107637
0.0148855
0.103615
0.00283947
0.0153212
0.119864
0.0956226
-0.00328619
0.104609
0.00589883
0.103242
0.00420632
0.00776598
0.110798
0.0967138
0.102613
0.106819
0.114585
0.143896
-0.000941929
0.0424863
0.10141
0.125139
-0.00621711
0.039392
0.128233
0.109214
-0.00463339
0.0167072
0.131899
0.109952
0.126659
0.106747
0.013558
0.105766
0.00900948
0.0880529
-0.00670453
0.000154601
0.0960253
0.139144
0.00264717
0.142452
0.00570153
0.134662
0.00108561
-0.000701329
0.135518
0.133753
0.00079332
0.137633
0.00182098
0.13696
0.0017586
0.000441511
0.135817
0.127452
0.129273
0.131032
0.131473
0.0903959
0.00103214
0.0864281
0.00093567
0.0874983
0.000557124
0.0860106
0.000815818
0.0913784
0.0026817
0.092145
0.000525792
0.0895163
-0.00273596
0.090289
-0.00426917
0.0910288
-0.00391796
0.0904356
-0.0036365
0.0894566
-0.00239684
0.0880592
-0.00128363
0.0873636
-0.000371601
0.0886539
-0.00033178
0.0910356
0.000306171
0.0937465
-0.00180995
0.0965279
-0.00311313
0.0996719
-0.00515879
0.0986019
-0.00469662
0.0949082
-0.00507683
0.0894845
-0.00360446
0.0827027
-0.00246445
0.076547
-0.00117098
0.0730775
0.00139595
0.0719949
0.00211513
0.0738293
0.00358922
0.0795055
0.00232584
0.0850427
0.00306054
0.0928268
-0.00163381
0.0996023
-0.00295461
0.106283
-0.00706137
0.109718
-0.00750744
0.109572
-0.00666358
0.104754
-0.00556833
0.0957295
-0.0020332
0.0858836
-0.00223623
0.0759764
0.00261819
0.070187
-0.000320025
0.0679554
0.0043536
0.00507564
0.136027
0.000522837
0.133961
0.0030023
0.132731
0.00178705
0.133397
0.000149396
0.137168
-0.00108911
0.138571
-0.000876815
0.137267
-0.00143227
0.134929
-0.00193162
0.133853
-0.00284132
0.133273
-0.00305641
0.132775
-0.00189885
0.132442
-0.000951106
0.131635
0.000435476
0.131955
-0.000651349
0.132769
-0.000507865
0.133104
-0.0021456
0.132622
-0.00263058
0.131434
-0.00397106
0.130342
-0.00360488
0.128951
-0.00368599
0.128194
-0.00284706
0.12717
-0.0014404
0.125743
0.000255706
0.125257
0.0018818
0.125065
0.00230743
0.125941
0.00271325
0.127541
0.000726289
0.130392
0.000209239
0.132657
-0.00389894
0.133918
-0.00421593
0.134124
-0.00726723
0.132863
-0.00624593
0.132224
-0.00602513
0.131644
-0.00498794
0.130266
-0.000655214
0.12866
-0.000630163
0.126689
0.00458859
0.12311
0.00325893
0.120989
0.00647467
0.00545667
0.136576
-0.000235521
0.138699
0.000879427
0.139567
0.000918453
0.139055
0.000661575
0.139076
-0.00111057
0.139403
-0.00120304
0.138887
-0.000916526
0.137674
-0.000718352
0.135894
-0.00106162
0.134294
-0.00145605
0.13352
-0.0011257
0.133346
-0.000776807
0.133837
-5.56192e-05
0.133672
-0.000486353
0.133725
-0.000560223
0.13286
-0.00128085
0.132013
-0.00178408
0.130351
-0.00230831
0.128984
-0.00223781
0.127125
-0.0018273
0.125557
-0.00127914
0.124895
-0.000778862
0.12507
8.1373e-05
0.126345
0.000606254
0.127519
0.00113338
0.129476
0.000757039
0.130105
9.68236e-05
0.130997
-0.000682858
0.129503
-0.00240507
0.128026
-0.00273872
0.125073
-0.00431403
0.122149
-0.00332187
0.119524
-0.00340006
0.116639
-0.00210304
0.116075
-9.1722e-05
0.1156
-0.000154421
0.117413
0.00277516
0.118697
0.00197484
0.121492
0.00368011
0.0027463
0.131238
0.132117
0.133035
0.133697
0.132586
0.131383
0.130467
0.129749
0.128687
0.127231
0.126105
0.125328
0.125273
0.124786
0.124226
0.122945
0.121161
0.118853
0.116615
0.114788
0.113509
0.11273
0.112811
0.113417
0.114551
0.115308
0.115405
0.114722
0.112317
0.109578
0.105264
0.101942
0.0985422
0.0964391
0.0963474
0.096193
0.0989681
0.100943
0.104623
)
;

boundaryField
{
    inlet
    {
        type            calculated;
        value           nonuniform List<scalar> 10(-0.1 -0.1 -0.1 -0.1 -0.1 -0.1 -0.1 -0.1 -0.1 -0.1);
    }
    outlet
    {
        type            calculated;
        value           nonuniform List<scalar> 10(0.0948589 0.118663 0.125243 0.124022 0.0669279 0.0477965 0.0703093 0.120608 0.124202 0.107369);
    }
    obstacle
    {
        type            calculated;
        value           uniform 0;
    }
    upperWall
    {
        type            calculated;
        value           uniform 0;
    }
    lowerWall
    {
        type            calculated;
        value           uniform 0;
    }
    frontAndBack
    {
        type            empty;
        value           nonuniform List<scalar> 0();
    }
}


// ************************************************************************* //
