/*--------------------------------*- C++ -*----------------------------------*\
  =========                 |
  \\      /  F ield         | OpenFOAM: The Open Source CFD Toolbox
   \\    /   O peration     | Website:  https://openfoam.org
    \\  /    A nd           | Version:  10
     \\/     M anipulation  |
\*---------------------------------------------------------------------------*/
FoamFile
{
    format      ascii;
    class       surfaceScalarField;
    location    "8.875";
    object      phi;
}
// * * * * * * * * * * * * * * * * * * * * * * * * * * * * * * * * * * * * * //

dimensions      [0 3 -1 0 0 0 0];

internalField   nonuniform List<scalar> 
760
(
-1.3277e-05
1.3277e-05
-4.28264e-05
2.95494e-05
-7.8434e-05
3.56076e-05
-0.000116106
3.7672e-05
-0.000154636
3.85303e-05
-0.000193723
3.90866e-05
-0.000233057
3.93336e-05
-0.000271957
3.89007e-05
-0.000309191
3.72337e-05
-0.000342812
3.36208e-05
-0.000370041
2.72288e-05
-0.000387228
1.71871e-05
-0.000390019
2.79108e-06
-0.000373747
-1.62718e-05
-0.000334818
-3.89292e-05
-0.000272456
-6.23621e-05
-0.000191265
-8.1191e-05
-0.000103432
-8.78321e-05
-2.92715e-05
-7.4161e-05
-2.92715e-05
-3.20066e-05
4.52836e-05
-9.02594e-05
8.78022e-05
-0.000158446
0.000103794
-0.00022994
0.000109167
-0.00030224
0.00011083
-0.000374201
0.000111048
-0.000444745
0.000109877
-0.000512299
0.000106455
-0.000574513
9.94481e-05
-0.000628047
8.71549e-05
-0.000668437
6.76189e-05
-0.000689992
3.87418e-05
-0.000686853
-3.4826e-07
-0.000651996
-5.11282e-05
-0.000580757
-0.000110169
-0.000472547
-0.000170573
-0.000334681
-0.000219056
-0.00018627
-0.000236243
-5.89769e-05
-0.000201454
-8.82484e-05
-4.06963e-05
8.598e-05
-0.000112564
0.00015967
-0.000195791
0.000187022
-0.000282433
0.000195808
-0.000369504
0.000197901
-0.000455617
0.000197161
-0.000539503
0.000193763
-0.000619416
0.000186369
-0.00069282
0.000172851
-0.000756119
0.000150454
-0.000804437
0.000115938
-0.000831685
6.59894e-05
-0.000830208
-1.82574e-06
-0.00079156
-8.97759e-05
-0.000708659
-0.00019307
-0.000578764
-0.000300467
-0.000409165
-0.000388656
-0.000224207
-0.000421201
-6.77629e-05
-0.000357898
-0.000156011
-4.40521e-05
0.000130032
-0.000121845
0.000237462
-0.000211666
0.000276842
-0.000305008
0.000289151
-0.000398884
0.000291778
-0.000492081
0.000290357
-0.000583592
0.000285274
-0.000672009
0.000274786
-0.000755166
0.000256008
-0.000829786
0.000225074
-0.000891055
0.000177207
-0.000932172
0.000107106
-0.000944307
1.031e-05
-0.000915748
-0.000118336
-0.000834186
-0.000274632
-0.000690769
-0.000443884
-0.000488795
-0.000590629
-0.000259081
-0.000650916
-6.91536e-05
-0.000547825
-0.000225165
-4.48432e-05
0.000174875
-0.000124907
0.000317526
-0.000217585
0.00036952
-0.000314181
0.000385747
-0.000411936
0.000389533
-0.000510075
0.000388496
-0.000608185
0.000383384
-0.000705591
0.000372191
-0.000800955
0.000351372
-0.000891806
0.000315925
-0.000973852
0.000259253
-0.00104003
0.000173285
-0.00107939
4.96668e-05
-0.00107673
-0.00012099
-0.00101105
-0.000340314
-0.00086126
-0.000593675
-0.000618239
-0.00083365
-0.000315742
-0.000953413
-6.94999e-05
-0.000794067
-0.000294665
-4.4479e-05
0.000219354
-0.000125151
0.000398198
-0.000219069
0.000463438
-0.00031749
0.000484167
-0.000417989
0.000490032
-0.000520408
0.000490915
-0.000625183
0.000488159
-0.000732741
0.00047975
-0.000843094
0.000461725
-0.000955276
0.000428106
-0.00106642
0.000370401
-0.00117034
0.000277196
-0.00125525
0.000134579
-0.00130289
-7.33472e-05
-0.00128096
-0.000362247
-0.00114581
-0.000728823
-0.000855307
-0.00112415
-0.000432164
-0.00137656
-7.97241e-05
-0.00114651
-0.000374389
-4.35075e-05
0.000262862
-0.00012392
0.000478611
-0.000218177
0.000557694
-0.000317505
0.000583496
-0.000419846
0.000592374
-0.000525752
0.00059682
-0.000636727
0.000599135
-0.000754671
0.000597694
-0.000881567
0.000588621
-0.00101899
0.000565525
-0.00116715
0.000518567
-0.00132333
0.000433373
-0.00147888
0.000290135
-0.00161642
6.41925e-05
-0.00169236
-0.000286315
-0.00162211
-0.000799072
-0.00129081
-0.00145545
-0.000687521
-0.00197984
-0.000138931
-0.0016951
-0.00051332
-4.20862e-05
0.000304948
-0.000121606
0.000558131
-0.0002154
0.000651488
-0.000314583
0.000682678
-0.000417416
0.000695208
-0.000525179
0.000704583
-0.000640549
0.000714504
-0.00076721
0.000724355
-0.000909799
0.000731209
-0.00107373
0.000729461
-0.00126475
0.000709586
-0.00148795
0.000656572
-0.00174555
0.00054773
-0.00202583
0.000344474
-0.00228293
-2.92154e-05
-0.00234812
-0.000733878
-0.00199626
-0.00180731
-0.001194
-0.00278211
-0.000346959
-0.00254214
-0.000860278
-4.03019e-05
0.00034525
-0.000118387
0.000636216
-0.00021083
0.000743931
-0.000308464
0.000780312
-0.000409749
0.000796493
-0.000516593
0.000811427
-0.000632785
0.000830696
-0.000763824
0.000855393
-0.000917319
0.000884705
-0.00110371
0.000915848
-0.00133718
0.000943057
-0.00163655
0.000955943
-0.0020234
0.000934581
-0.00249949
0.000820565
-0.00297238
0.000443673
-0.00320372
-0.000502539
-0.00287546
-0.00213557
-0.00199541
-0.00366216
-0.000828139
-0.0037094
-0.00168842
-3.83607e-05
0.000383611
-0.000114661
0.000712516
-0.000204833
0.000834103
-0.000299199
0.000874678
-0.000396206
0.0008935
-0.000498171
0.000913391
-0.000609685
0.000942211
-0.000737684
0.000983392
-0.00089239
0.00103941
-0.0010891
0.00111256
-0.00135108
0.00120503
-0.00171201
0.00131687
-0.00220853
0.0014311
-0.00283964
0.00145167
-0.00346149
0.00106553
-0.00377154
-0.000192487
-0.00356823
-0.00233889
-0.0028491
-0.00438128
-0.0015103
-0.0050482
-0.00319872
-3.67121e-05
0.000420323
-0.00011133
0.000787134
-0.000198474
0.000921247
-0.000287716
0.00096392
-0.000377242
0.000983026
-0.000469422
0.00100557
-0.000569046
0.00104184
-0.000683473
0.00109782
-0.000823939
0.00117988
-0.00100798
0.00129661
-0.00126304
0.00146009
-0.0016275
0.00168133
-0.00213257
0.00193617
-0.00274603
0.00206513
-0.00331205
0.00163155
-0.00359408
8.95489e-05
-0.00354622
-0.00238676
-0.00309537
-0.00483213
-0.00191106
-0.00623252
-0.00510977
-3.62769e-05
0.0004566
-0.000110198
0.000861056
-0.000193941
0.00100499
-0.00027621
0.00104619
-0.000354898
0.00106171
-0.000432064
0.00108274
-0.000511845
0.00112162
-0.000600395
0.00118637
-0.000706915
0.0012864
-0.000845252
0.00143494
-0.00103537
0.00165021
-0.00130027
0.00194623
-0.00164883
0.00228473
-0.00203377
0.00245007
-0.0023684
0.00196618
-0.00256607
0.000287221
-0.00264764
-0.00230519
-0.00252292
-0.00495685
-0.00174895
-0.00700649
-0.00685873
-3.81835e-05
0.000494783
-0.000113543
0.000936415
-0.000194405
0.00108585
-0.000268593
0.00112038
-0.000333602
0.00112672
-0.000390989
0.00114012
-0.000443699
0.00117433
-0.00049518
0.00123785
-0.000549858
0.00134108
-0.000613128
0.00149821
-0.000690571
0.00172765
-0.000782191
0.00203785
-0.000883621
0.00238616
-0.00096605
0.0025325
-0.00104738
0.00204751
-0.0011447
0.000384548
-0.00134152
-0.00210837
-0.00157206
-0.00472631
-0.00128381
-0.00729473
-0.00814254
-4.64069e-05
0.00054119
-0.000127772
0.00101778
-0.000205815
0.00116389
-0.000269394
0.00118396
-0.000317819
0.00117515
-0.000352553
0.00117486
-0.000374516
0.00119629
-0.000384147
0.00124748
-0.000380678
0.00133761
-0.000360748
0.00147828
-0.00031696
0.00168386
-0.000231393
0.00195229
-9.3166e-05
0.00224793
7.21527e-05
0.00236718
0.000202228
0.00191743
0.000139162
0.000447614
-0.000183952
-0.00178526
-0.000750058
-0.00416021
-0.000873233
-0.00717155
-0.00901578
-5.73598e-05
0.00059855
-0.000148883
0.0011093
-0.000229319
0.00124433
-0.000287837
0.00124247
-0.000321439
0.00120875
-0.00033249
0.00118591
-0.000322103
0.0011859
-0.000289059
0.00121444
-0.000229072
0.00127762
-0.000133163
0.00138237
1.51216e-05
0.00153558
0.000230437
0.00173697
0.00053248
0.00194589
0.000887467
0.00201219
0.00114859
0.00165631
0.00110394
0.00049226
0.000653205
-0.00133452
-0.0001416
-0.0033654
-0.000546058
-0.0067671
-0.00956183
-0.000125114
0.000723664
-0.000230901
0.00121509
-0.000295074
0.0013085
-0.000325771
0.00127317
-0.000332138
0.00121512
-0.00031727
0.00117104
-0.000279114
0.00114775
-0.00021261
0.00114793
-0.000110403
0.00117541
3.92678e-05
0.0012327
0.000248705
0.00132614
0.000538992
0.00144668
0.000915983
0.0015689
0.0013399
0.00158827
0.00166359
0.00133262
0.00164383
0.000512018
0.00115273
-0.000843415
0.000261115
-0.00247379
-0.000286637
-0.00621934
-0.00984847
-8.06633e-05
0.000804327
-0.000252467
0.00138689
-0.000355932
0.00141197
-0.000398286
0.00131552
-0.00039695
0.00121378
-0.000362342
0.00113643
-0.000296778
0.00108218
-0.000197156
0.00104831
-5.74612e-05
0.00103572
0.000133177
0.00104207
0.000385557
0.00107376
0.000712225
0.00112002
0.00110946
0.00117167
0.00153883
0.00115889
0.00187213
0.000999327
0.00187171
0.000512436
0.00141916
-0.000390865
0.000617833
-0.00167246
8.51689e-05
-0.00568668
-0.0097633
-0.000376911
0.00118124
-0.000428397
0.00143838
-0.000467869
0.00145144
-0.000494804
0.00134246
-0.000473824
0.0011928
-0.000411157
0.00107377
-0.000310016
0.000981042
-0.000168186
0.00090648
1.40928e-05
0.000853439
0.000242489
0.00081367
0.000520904
0.000795344
0.000856068
0.000784854
0.00123701
0.000790722
0.00162225
0.000773658
0.00194259
0.000678982
0.00202619
0.000428842
0.00187758
-0.000242256
0.00150111
-0.00129599
0.000845127
-0.0050307
-0.00891817
-0.00136294
0.00254417
-0.00132355
0.001399
-0.00105998
0.00118787
-0.000683731
0.000966207
-0.000287522
0.000796593
0.00011269
0.000673555
0.000506226
0.000587506
0.000892872
0.000519834
0.00127448
0.00047183
0.001657
0.000431152
0.00204706
0.000405283
0.00244899
0.000382928
0.00287461
0.000365101
0.0033097
0.000338567
0.0037283
0.00026038
0.00403083
0.000126314
0.00411052
-0.000321942
0.00395851
-0.00114399
0.00251123
-0.00358342
-0.00640694
0.00254417
0.00394317
0.00513104
0.00609725
0.00689384
0.0075674
0.0081549
0.00867474
0.00914657
0.00957772
0.009983
0.0103659
0.010731
0.0110696
0.01133
0.0114563
0.0111343
0.00999036
0.00640694
)
;

boundaryField
{
    movingWall
    {
        type            calculated;
        value           uniform 0;
    }
    fixedWalls
    {
        type            calculated;
        value           uniform 0;
    }
    frontAndBack
    {
        type            empty;
        value           nonuniform List<scalar> 0();
    }
}


// ************************************************************************* //
