/*--------------------------------*- C++ -*----------------------------------*\
  =========                 |
  \\      /  F ield         | OpenFOAM: The Open Source CFD Toolbox
   \\    /   O peration     | Website:  https://openfoam.org
    \\  /    A nd           | Version:  10
     \\/     M anipulation  |
\*---------------------------------------------------------------------------*/
FoamFile
{
    format      ascii;
    class       volVectorField;
    location    "8.875";
    object      U;
}
// * * * * * * * * * * * * * * * * * * * * * * * * * * * * * * * * * * * * * //

dimensions      [0 1 -1 0 0 0 0];

internalField   nonuniform List<vector> 
400
(
(-0.000163476 0.000142986 0)
(-0.00122201 0.000452338 0)
(-0.00301297 0.000565024 0)
(-0.00485457 0.000603299 0)
(-0.0067672 0.000625055 0)
(-0.00871306 0.000648774 0)
(-0.0106799 0.000673667 0)
(-0.0126457 0.000691739 0)
(-0.0145632 0.000691416 0)
(-0.0163543 0.00065748 0)
(-0.0179024 0.000571338 0)
(-0.0190466 0.000413084 0)
(-0.0195855 0.000166802 0)
(-0.0192862 -0.000185257 0)
(-0.0179283 -0.000623603 0)
(-0.0153797 -0.00109226 0)
(-0.01172 -0.00147732 0)
(-0.00740308 -0.0016182 0)
(-0.00283511 -0.00134197 0)
(-0.000252326 -0.000422335 0)
(-0.000530737 0.00124746 0)
(-0.00276151 0.00259785 0)
(-0.00618185 0.00310634 0)
(-0.00969901 0.00328131 0)
(-0.0133126 0.00334855 0)
(-0.0169338 0.00338187 0)
(-0.0205123 0.00338138 0)
(-0.0239866 0.00331718 0)
(-0.0272601 0.00314405 0)
(-0.0301918 0.00280435 0)
(-0.0325864 0.00223164 0)
(-0.0341897 0.00135703 0)
(-0.0347096 0.000122581 0)
(-0.033812 -0.0014804 0)
(-0.0311843 -0.00336417 0)
(-0.0266627 -0.00529498 0)
(-0.0203973 -0.0068377 0)
(-0.0130808 -0.0073789 0)
(-0.00538633 -0.00626582 0)
(-0.000747035 -0.00262088 0)
(-0.00069622 0.00324175 0)
(-0.00348288 0.00611389 0)
(-0.00767148 0.0071907 0)
(-0.0119482 0.0075466 0)
(-0.0163142 0.00764332 0)
(-0.0206619 0.00763196 0)
(-0.0249308 0.00751773 0)
(-0.0290514 0.00724519 0)
(-0.0329182 0.00672767 0)
(-0.0363787 0.00585451 0)
(-0.0392223 0.00449844 0)
(-0.0411752 0.00253068 0)
(-0.0418906 -0.000151804 0)
(-0.040957 -0.00355694 0)
(-0.0379634 -0.00752594 0)
(-0.0326202 -0.0115945 0)
(-0.025002 -0.0148768 0)
(-0.0159247 -0.0160442 0)
(-0.00631471 -0.013684 0)
(-0.000745144 -0.00606423 0)
(-0.000751159 0.00538219 0)
(-0.00377124 0.00989118 0)
(-0.00830105 0.0115528 0)
(-0.0129094 0.0120778 0)
(-0.0176126 0.0121925 0)
(-0.0223059 0.0121321 0)
(-0.0269402 0.0119095 0)
(-0.0314617 0.0114464 0)
(-0.0357836 0.0106167 0)
(-0.0397717 0.009255 0)
(-0.0432245 0.00716314 0)
(-0.0458565 0.0041311 0)
(-0.0472794 -1.65906e-05 0)
(-0.0469755 -0.00534634 0)
(-0.0443238 -0.0116948 0)
(-0.038735 -0.0183895 0)
(-0.0299791 -0.0239949 0)
(-0.0188894 -0.0261276 0)
(-0.00683093 -0.0221149 0)
(-0.000418505 -0.00945208 0)
(-0.000753375 0.00761471 0)
(-0.00385047 0.0138527 0)
(-0.00852344 0.0161293 0)
(-0.0132817 0.0168376 0)
(-0.01816 0.0169908 0)
(-0.0230686 0.0169179 0)
(-0.0279849 0.0166447 0)
(-0.0328888 0.0160751 0)
(-0.037734 0.0150464 0)
(-0.0424297 0.0133356 0)
(-0.0468109 0.0106588 0)
(-0.050598 0.00668502 0)
(-0.0533502 0.00109182 0)
(-0.0544301 -0.00633311 0)
(-0.0529226 -0.0155466 0)
(-0.0477109 -0.0257646 0)
(-0.0378748 -0.0349007 0)
(-0.0238335 -0.0389014 0)
(-0.00757838 -0.0325522 0)
(0.000227849 -0.0128624 0)
(-0.000732274 0.00985376 0)
(-0.00383465 0.0178799 0)
(-0.00856202 0.020803 0)
(-0.0133934 0.0217206 0)
(-0.0183809 0.0219527 0)
(-0.0234571 0.0219338 0)
(-0.0286368 0.0217134 0)
(-0.0339487 0.0211869 0)
(-0.0394087 0.0201627 0)
(-0.0450003 0.018362 0)
(-0.0506375 0.0154044 0)
(-0.0560994 0.0108016 0)
(-0.0609494 0.00399146 0)
(-0.0644789 -0.00555812 0)
(-0.0654652 -0.018115 0)
(-0.0620067 -0.0331276 0)
(-0.0517308 -0.0480062 0)
(-0.0334374 -0.0561133 0)
(-0.009707 -0.0465268 0)
(0.00121016 -0.0162986 0)
(-0.0006985 0.0120562 0)
(-0.00376908 0.021911 0)
(-0.00850399 0.0255118 0)
(-0.0133629 0.0266691 0)
(-0.0184129 0.0270284 0)
(-0.0236122 0.0271453 0)
(-0.02902 0.0271074 0)
(-0.034728 0.026819 0)
(-0.0408375 0.026077 0)
(-0.0474458 0.0245622 0)
(-0.0546111 0.0218039 0)
(-0.0622812 0.01714 0)
(-0.0701953 0.00969995 0)
(-0.0777557 -0.0015263 0)
(-0.0836261 -0.0174795 0)
(-0.0848362 -0.0388011 0)
(-0.0760278 -0.0632853 0)
(-0.0522019 -0.080537 0)
(-0.0167322 -0.0673543 0)
(0.00200005 -0.0209205 0)
(-0.000654591 0.0141978 0)
(-0.00366749 0.0259119 0)
(-0.00837406 0.0302171 0)
(-0.013214 0.0316383 0)
(-0.018266 0.0321668 0)
(-0.0235125 0.0324979 0)
(-0.0290592 0.0327771 0)
(-0.0350696 0.0329422 0)
(-0.0417531 0.0328136 0)
(-0.0493649 0.0320762 0)
(-0.0581931 0.0302192 0)
(-0.0685218 0.0264599 0)
(-0.0805523 0.0196662 0)
(-0.0942391 0.00821129 0)
(-0.108646 -0.0104039 0)
(-0.118889 -0.0395435 0)
(-0.113881 -0.0799673 0)
(-0.0840002 -0.115139 0)
(-0.0363124 -0.100825 0)
(0.000172687 -0.0309709 0)
(-0.000602178 0.0162585 0)
(-0.0035373 0.0298542 0)
(-0.00818178 0.0348783 0)
(-0.0129458 0.0365689 0)
(-0.0179138 0.0372859 0)
(-0.023087 0.0378858 0)
(-0.0286122 0.0385949 0)
(-0.0347222 0.0394172 0)
(-0.0417389 0.0402462 0)
(-0.0501049 0.0408503 0)
(-0.0604219 0.0408071 0)
(-0.0734967 0.0394175 0)
(-0.0904338 0.035553 0)
(-0.112415 0.0269072 0)
(-0.13837 0.00783692 0)
(-0.15965 -0.031815 0)
(-0.158414 -0.0973616 0)
(-0.126006 -0.159265 0)
(-0.075156 -0.15129 0)
(-0.00944551 -0.0556326 0)
(-0.000546159 0.0182237 0)
(-0.00339494 0.0337144 0)
(-0.00794978 0.0394501 0)
(-0.0125718 0.0413837 0)
(-0.0173455 0.0422681 0)
(-0.0222796 0.0431432 0)
(-0.0275479 0.0443402 0)
(-0.033434 0.045965 0)
(-0.0403493 0.0480451 0)
(-0.0489014 0.050541 0)
(-0.0599951 0.0533164 0)
(-0.0749801 0.056062 0)
(-0.0959147 0.0578981 0)
(-0.125166 0.0552852 0)
(-0.160814 0.0365262 0)
(-0.188577 -0.018064 0)
(-0.188921 -0.114851 0)
(-0.163375 -0.204313 0)
(-0.120461 -0.21549 0)
(-0.029393 -0.109787 0)
(-0.000497559 0.0200946 0)
(-0.00327573 0.0374814 0)
(-0.00773132 0.0438827 0)
(-0.0121452 0.0459837 0)
(-0.0165996 0.0469553 0)
(-0.0210951 0.0480392 0)
(-0.0258085 0.0496863 0)
(-0.0310338 0.0521293 0)
(-0.0372068 0.055582 0)
(-0.0449959 0.0603028 0)
(-0.05545 0.0666329 0)
(-0.0701508 0.0748666 0)
(-0.0913037 0.0841027 0)
(-0.121258 0.088048 0)
(-0.156122 0.0675395 0)
(-0.18085 -0.00261633 0)
(-0.181691 -0.123976 0)
(-0.167009 -0.238598 0)
(-0.138416 -0.288201 0)
(-0.0475611 -0.206474 0)
(-0.000479508 0.0219096 0)
(-0.00325093 0.0411995 0)
(-0.00763231 0.0481867 0)
(-0.0117801 0.0503244 0)
(-0.0157885 0.0512263 0)
(-0.0196369 0.0523529 0)
(-0.0234792 0.054278 0)
(-0.027564 0.0573592 0)
(-0.032248 0.0620033 0)
(-0.0380659 0.0687826 0)
(-0.0458348 0.0785104 0)
(-0.0566702 0.0918953 0)
(-0.0716645 0.107344 0)
(-0.0921752 0.115104 0)
(-0.11423 0.0914798 0)
(-0.12901 0.0101546 0)
(-0.131394 -0.121658 0)
(-0.127228 -0.254269 0)
(-0.120863 -0.344288 0)
(-0.0472134 -0.310953 0)
(-0.000522992 0.0237206 0)
(-0.00340593 0.0448269 0)
(-0.0077925 0.0521687 0)
(-0.0116574 0.0541078 0)
(-0.0151257 0.0547327 0)
(-0.0181433 0.0556835 0)
(-0.0208317 0.0576052 0)
(-0.0233506 0.0609362 0)
(-0.0258835 0.0661945 0)
(-0.0286637 0.074109 0)
(-0.0319835 0.0856646 0)
(-0.0360712 0.101495 0)
(-0.0407659 0.119421 0)
(-0.0466274 0.127725 0)
(-0.0527837 0.102968 0)
(-0.0561542 0.0178685 0)
(-0.0613163 -0.111028 0)
(-0.067737 -0.246143 0)
(-0.088304 -0.364419 0)
(-0.0334605 -0.383609 0)
(-0.000735301 0.0258554 0)
(-0.004035 0.0490016 0)
(-0.00854729 0.0566214 0)
(-0.0120337 0.058145 0)
(-0.0148178 0.0581036 0)
(-0.0168679 0.0584036 0)
(-0.0182509 0.0597781 0)
(-0.0190069 0.0626984 0)
(-0.0191336 0.0676828 0)
(-0.0185357 0.0754129 0)
(-0.0170213 0.0867602 0)
(-0.0139302 0.101956 0)
(-0.00858402 0.118956 0)
(-0.000286785 0.126431 0)
(0.00672087 0.102952 0)
(0.0121902 0.0222594 0)
(0.000615155 -0.0966922 0)
(-0.0168602 -0.222677 0)
(-0.0608364 -0.363877 0)
(-0.0207808 -0.434585 0)
(-0.00107817 0.0284907 0)
(-0.00482566 0.0523835 0)
(-0.00980351 0.0592398 0)
(-0.0131838 0.0596039 0)
(-0.0154803 0.0587859 0)
(-0.0165595 0.0585302 0)
(-0.0165557 0.0593935 0)
(-0.0154759 0.061691 0)
(-0.013202 0.0658186 0)
(-0.00939238 0.072274 0)
(-0.00366155 0.0816132 0)
(0.00527196 0.0938164 0)
(0.0180891 0.107001 0)
(0.0356789 0.112248 0)
(0.0505017 0.0921756 0)
(0.0619154 0.0245215 0)
(0.0453209 -0.0776311 0)
(0.0239921 -0.187429 0)
(-0.0400025 -0.347733 0)
(-0.00967477 -0.468999 0)
(-0.00316171 0.0306327 0)
(-0.00927223 0.0593857 0)
(-0.013551 0.0661136 0)
(-0.0158347 0.0658347 0)
(-0.016694 0.0632149 0)
(-0.0164749 0.0610516 0)
(-0.0151668 0.0600183 0)
(-0.0126025 0.0604203 0)
(-0.00849127 0.0625185 0)
(-0.00235198 0.0665468 0)
(0.00636174 0.072799 0)
(0.0189 0.0810061 0)
(0.0352471 0.0894021 0)
(0.0568105 0.0916227 0)
(0.0745222 0.0765378 0)
(0.0898304 0.0267069 0)
(0.070818 -0.0526313 0)
(0.0497289 -0.144328 0)
(-0.0269011 -0.325235 0)
(0.00261366 -0.491696 0)
(-0.000943605 0.0440042 0)
(-0.00758488 0.060752 0)
(-0.0168969 0.0632071 0)
(-0.0191635 0.0593727 0)
(-0.020331 0.056322 0)
(-0.0193025 0.0543179 0)
(-0.0168125 0.0533257 0)
(-0.0127303 0.053248 0)
(-0.00687589 0.054197 0)
(0.00127646 0.0562017 0)
(0.0121576 0.0596441 0)
(0.0267413 0.0640347 0)
(0.0443083 0.0682334 0)
(0.0670722 0.068157 0)
(0.0842795 0.0574504 0)
(0.101641 0.0247888 0)
(0.0816607 -0.0315741 0)
(0.0654208 -0.104661 0)
(-0.00969679 -0.302309 0)
(0.0213527 -0.501568 0)
(-0.0125658 0.0322132 0)
(-0.0231696 0.0804563 0)
(-0.0209838 0.0805645 0)
(-0.0251297 0.0756162 0)
(-0.0248377 0.0682034 0)
(-0.0227283 0.0620938 0)
(-0.0185201 0.0572358 0)
(-0.0123884 0.0535391 0)
(-0.00441923 0.0510154 0)
(0.00587282 0.0494443 0)
(0.0184258 0.0490465 0)
(0.034027 0.0492493 0)
(0.0510747 0.0503147 0)
(0.0728669 0.0492431 0)
(0.0869501 0.0443138 0)
(0.106414 0.0279565 0)
(0.0918156 -0.00614405 0)
(0.0998267 -0.0646741 0)
(0.0397384 -0.273674 0)
(0.0573314 -0.489413 0)
(-0.0776621 0.0958433 0)
(-0.0632467 0.0587673 0)
(-0.0652054 0.0599934 0)
(-0.0426243 0.0533706 0)
(-0.0247849 0.0463952 0)
(-0.00409856 0.0412276 0)
(0.0154329 0.0374637 0)
(0.0353556 0.0342755 0)
(0.053857 0.0319714 0)
(0.0740086 0.0299133 0)
(0.0915856 0.0287624 0)
(0.114031 0.0276755 0)
(0.129814 0.0270131 0)
(0.158656 0.0258819 0)
(0.168428 0.0205251 0)
(0.202832 0.0116328 0)
(0.191063 -0.0213946 0)
(0.22258 -0.0739887 0)
(0.154056 -0.251731 0)
(0.124859 -0.433224 0)
(0.119371 0.140749 0)
(0.151946 0.0860478 0)
(0.228372 0.0634789 0)
(0.283843 0.0480297 0)
(0.32528 0.037407 0)
(0.363603 0.0296564 0)
(0.392342 0.0242382 0)
(0.423566 0.0201819 0)
(0.443535 0.0172962 0)
(0.472125 0.01499 0)
(0.484996 0.0132927 0)
(0.514366 0.0119605 0)
(0.519908 0.0108367 0)
(0.552125 0.00958884 0)
(0.547108 0.00757687 0)
(0.579122 0.00312593 0)
(0.547554 -0.00583705 0)
(0.553145 -0.0270281 0)
(0.419728 -0.0731251 0)
(0.275099 -0.151824 0)
)
;

boundaryField
{
    movingWall
    {
        type            fixedValue;
        value           uniform (1 0 0);
    }
    fixedWalls
    {
        type            noSlip;
    }
    frontAndBack
    {
        type            empty;
    }
}


// ************************************************************************* //
