/*--------------------------------*- C++ -*----------------------------------*\
  =========                 |
  \\      /  F ield         | OpenFOAM: The Open Source CFD Toolbox
   \\    /   O peration     | Website:  https://openfoam.org
    \\  /    A nd           | Version:  10
     \\/     M anipulation  |
\*---------------------------------------------------------------------------*/
FoamFile
{
    format      ascii;
    class       volScalarField;
    location    "4.925";
    object      p;
}
// * * * * * * * * * * * * * * * * * * * * * * * * * * * * * * * * * * * * * //

dimensions      [0 2 -2 0 0 0 0];

internalField   nonuniform List<scalar> 
8000
(
-2.90137e-06
-1.52993e-05
1.72621e-05
8.0319e-05
0.000179103
0.000314359
0.000486793
0.000696713
0.000943394
0.001225
0.00153766
0.00187504
0.00222773
0.0025836
0.00292624
0.00323741
0.0034976
0.00368819
0.00380498
0.00381265
1.61976e-06
-9.18768e-06
2.51355e-05
8.73122e-05
0.000183936
0.000316111
0.000484855
0.000690767
0.000933535
0.00121152
0.00152119
0.00185639
0.0022081
0.00256441
0.00290933
0.0032241
0.00348854
0.00368331
0.00380498
0.00381166
-4.39421e-05
-5.73854e-05
-2.40979e-05
3.59093e-05
0.000129944
0.000259351
0.000425551
0.000629696
0.000872113
0.00115185
0.00146609
0.00180962
0.00217423
0.00254748
0.00291273
0.00324968
0.00353566
0.00374776
0.00388136
0.00388589
-0.000128134
-0.000143993
-0.000112525
-5.567e-05
3.46513e-05
0.000160136
0.000322834
0.000524713
0.000767109
0.00105027
0.00137258
0.00172978
0.00211416
0.00251585
0.00291569
0.00329104
0.00361489
0.00385809
0.00401334
0.00401856
-0.000257254
-0.000275908
-0.00024714
-0.000194509
-0.000109087
1.12596e-05
0.000169376
0.000368322
0.000610817
0.000898727
0.00123229
0.00160882
0.00201999
0.00246423
0.00291456
0.00334695
0.0037288
0.00402132
0.00421147
0.00422023
-0.000432534
-0.000454582
-0.000429451
-0.000382421
-0.000303638
-0.000190496
-3.9229e-05
0.000154531
0.000395248
0.000687017
0.00103279
0.00143345
0.00188767
0.00237581
0.00289254
0.00340446
0.0038703
0.00423738
0.00448172
0.0044993
-0.000654971
-0.000681171
-0.000660756
-0.000621112
-0.000551419
-0.000448641
-0.000308054
-0.000123844
0.00011048
0.000401724
0.000756214
0.00117835
0.00166826
0.00221786
0.00282183
0.00344025
0.00402391
0.00450188
0.00483029
0.00486858
-0.000925674
-0.000956909
-0.00094241
-0.000912313
-0.00085487
-0.000766781
-0.00064247
-0.00047469
-0.000254775
2.721e-05
0.000381857
0.000818907
0.00134324
0.00194297
0.0026606
0.00341458
0.00415845
0.00480004
0.00526003
0.00534738
-0.00124592
-0.00128311
-0.00127567
-0.00125745
-0.00121594
-0.00114791
-0.00104725
-0.000905539
-0.000712065
-0.000453625
-0.000114588
0.000322646
0.000877125
0.00157305
0.00235587
0.00325997
0.004212
0.00509255
0.00576019
0.00596521
-0.00161743
-0.00166137
-0.00166173
-0.00165746
-0.00163564
-0.00159366
-0.00152548
-0.0014221
-0.00127141
-0.00105752
-0.000760195
-0.000354623
0.000187967
0.00089637
0.00178605
0.00285619
0.00406339
0.00528442
0.00628386
0.0067575
-0.00204297
-0.0020941
-0.00210189
-0.00211263
-0.00211352
-0.00210338
-0.00207709
-0.00202614
-0.0019383
-0.00179656
-0.00157778
-0.00125129
-0.000777658
-0.000108997
0.000801871
0.00200244
0.00348259
0.00515823
0.00668788
0.0077471
-0.00252764
-0.00258538
-0.00259806
-0.00262269
-0.00264732
-0.00267324
-0.00269739
-0.00271306
-0.00270982
-0.00267234
-0.00257858
-0.00239688
-0.0020822
-0.0015715
-0.000782552
0.000388261
0.0020559
0.00423049
0.00653066
0.00882075
-0.00308155
-0.00314295
-0.00315396
-0.00318709
-0.00323255
-0.00329532
-0.00337559
-0.00346974
-0.00357146
-0.00367091
-0.00375302
-0.00379459
-0.00375988
-0.00359174
-0.00319889
-0.00242706
-0.000974383
0.00154846
0.00472585
0.00932689
-0.00372312
-0.00377672
-0.00377045
-0.00379976
-0.00385856
-0.00395537
-0.00409278
-0.00427155
-0.00449179
-0.00475311
-0.00505448
-0.00539301
-0.00576323
-0.00614769
-0.00650904
-0.0067019
-0.00630748
-0.00410889
0.000363085
0.00872982
-0.00449421
-0.004535
-0.00449656
-0.00450812
-0.00455899
-0.00466768
-0.00484395
-0.00509548
-0.00543083
-0.00586236
-0.00640954
-0.00710096
-0.00798686
-0.00912362
-0.0105811
-0.0121906
-0.0134844
-0.0113655
-0.00556887
0.00705633
-0.00554767
-0.00536232
-0.00520571
-0.00512046
-0.0051397
-0.00526694
-0.00549872
-0.00583572
-0.00628863
-0.00687838
-0.00764829
-0.00866166
-0.0100397
-0.0118883
-0.0144569
-0.0173914
-0.0207838
-0.0195556
-0.0142012
0.00380387
-0.00651545
-0.00663371
-0.00635173
-0.00625734
-0.00618176
-0.00621755
-0.00638011
-0.00668643
-0.00715748
-0.00781517
-0.00872112
-0.00994754
-0.0116992
-0.0140308
-0.0176655
-0.0216057
-0.0284871
-0.0296966
-0.0250436
0.00243386
-0.010368
-0.00755608
-0.00696768
-0.00634058
-0.00615843
-0.00622007
-0.00647886
-0.00690009
-0.00748807
-0.00824278
-0.00926831
-0.0105946
-0.0125313
-0.015068
-0.0191412
-0.023769
-0.0320849
-0.0333327
-0.0266246
0.0157138
-0.0101327
-0.0109997
-0.00960971
-0.00918316
-0.00853254
-0.0081439
-0.0079911
-0.00808659
-0.00843989
-0.0090234
-0.00992079
-0.0111335
-0.0129989
-0.0154203
-0.0195102
-0.0239421
-0.0311539
-0.0269638
-0.0107778
0.0584137
-0.034555
-0.00917607
-0.0076623
-0.00629378
-0.00562529
-0.00560163
-0.0059444
-0.00643511
-0.00713291
-0.00795055
-0.00912285
-0.010469
-0.0125135
-0.0146465
-0.0176421
-0.0184086
-0.0168247
0.00412689
0.0495622
0.161131
-2.55625e-06
-2.27065e-05
9.05304e-06
7.15742e-05
0.000170737
0.000306862
0.000480505
0.000692007
0.000940947
0.00122529
0.00154118
0.00188228
0.00223924
0.00259953
0.0029469
0.00326255
0.00352604
0.00371714
0.00383195
0.00382554
1.42895e-05
-5.60616e-06
2.85884e-05
9.01799e-05
0.000186597
0.000318692
0.000487422
0.000693446
0.00093654
0.00121513
0.00152578
0.00186239
0.00221613
0.00257479
0.00292225
0.00323958
0.00350585
0.00370049
0.00382099
0.0038125
-2.72546e-05
-5.17729e-05
-1.87395e-05
4.05115e-05
0.000134222
0.000263414
0.000429457
0.000633547
0.000876115
0.00115632
0.00147145
0.00181644
0.00218317
0.00255897
0.00292713
0.00326717
0.00355549
0.00376762
0.00389997
0.00388621
-0.00010839
-0.000136419
-0.000105197
-4.91841e-05
4.07305e-05
0.000165891
0.000328302
0.000530022
0.0007725
0.00105607
0.00137929
0.00173811
0.00212551
0.00252991
0.00293325
0.00331246
0.00363933
0.00388281
0.00403674
0.00402058
-0.000235342
-0.000267094
-0.000238528
-0.000186745
-0.000101704
1.83523e-05
0.000176232
0.000375099
0.000617805
0.00090638
0.00124128
0.00162032
0.00203743
0.00248311
0.00293794
0.0033757
0.00376199
0.00405532
0.00424395
0.00422763
-0.000408592
-0.000444724
-0.000419709
-0.000373474
-0.000294981
-0.000182013
-3.0829e-05
0.000163055
0.000404252
0.000697049
0.0010446
0.00144772
0.00190294
0.00240085
0.00292501
0.00344498
0.00391787
0.00428706
0.00452967
0.00451752
-0.000628732
-0.000670156
-0.000649732
-0.000610801
-0.000541283
-0.000438531
-0.00029783
-0.000113225
0.000121951
0.000414754
0.000771859
0.00119811
0.00169421
0.00225544
0.00286847
0.00349905
0.00409462
0.0045781
0.00490493
0.00490845
-0.000896702
-0.000944515
-0.000929856
-0.000900388
-0.000843007
-0.000754799
-0.000630166
-0.000461687
-0.000240471
4.37447e-05
0.000402093
0.00084521
0.00138091
0.00200869
0.00272819
0.00350098
0.00426624
0.00492166
0.0053824
0.00543292
-0.00121364
-0.00126902
-0.00126126
-0.00124361
-0.00120209
-0.00113384
-0.00103268
-0.000889974
-0.000694725
-0.000433299
-8.94363e-05
0.000355202
0.000918895
0.00161469
0.00244262
0.00338575
0.0043787
0.00529244
0.00597202
0.00615216
-0.00158108
-0.00164517
-0.00164503
-0.00164134
-0.0016195
-0.0015773
-0.00150855
-0.00140397
-0.00125107
-0.0010334
-0.000729773
-0.000313952
0.000243969
0.000970834
0.00190506
0.0030371
0.0043211
0.0056184
0.00666758
0.00719239
-0.00200143
-0.00207512
-0.00208226
-0.0020937
-0.00209474
-0.00208456
-0.00205781
-0.00200566
-0.0019154
-0.00176925
-0.00154278
-0.00120297
-0.000705914
5.54849e-06
0.000964851
0.00225187
0.00386633
0.00570662
0.00739444
0.00880096
-0.00247909
-0.00256254
-0.00257443
-0.00260008
-0.00262531
-0.00265167
-0.0026758
-0.00269062
-0.00268514
-0.0026431
-0.00254081
-0.00234373
-0.00200136
-0.00144129
-0.000572282
0.000703177
0.0025501
0.00502196
0.00774249
0.0110161
-0.00302285
-0.00311498
-0.00312533
-0.00316029
-0.00320699
-0.00327083
-0.00335171
-0.00344581
-0.00354611
-0.00364173
-0.00371586
-0.00374228
-0.00368018
-0.00346539
-0.00300276
-0.00214268
-0.000566476
0.00219713
0.00580231
0.0122578
-0.00364596
-0.00373599
-0.00372796
-0.00376047
-0.00382313
-0.00392395
-0.00406469
-0.00424549
-0.00446608
-0.00472511
-0.00502004
-0.00534595
-0.0056959
-0.00606143
-0.00645103
-0.00683119
-0.00677075
-0.00497687
-0.00152137
0.00932075
-0.00438865
-0.00448936
-0.00445016
-0.00447009
-0.004526
-0.0046388
-0.00481827
-0.00507225
-0.00540912
-0.00584007
-0.0063844
-0.00707106
-0.00795584
-0.00913654
-0.0108273
-0.0132017
-0.0160788
-0.0158648
-0.012973
0.00219894
-0.00536683
-0.00524732
-0.00509935
-0.00502789
-0.00506506
-0.00520836
-0.00545376
-0.00580118
-0.00626149
-0.00685461
-0.00762383
-0.00863565
-0.0100268
-0.0119774
-0.0149584
-0.0192044
-0.0253419
-0.0275312
-0.026673
-0.00647872
-0.00614098
-0.00648651
-0.00621273
-0.00617616
-0.0061275
-0.00618629
-0.00636607
-0.00668381
-0.00715882
-0.00781424
-0.0087101
-0.00992023
-0.0116624
-0.0141097
-0.0181259
-0.0234479
-0.0332257
-0.0384672
-0.0395765
-0.00774705
-0.00980359
-0.00716108
-0.00660913
-0.00604328
-0.0059603
-0.00610178
-0.00642652
-0.00688239
-0.00748723
-0.00824421
-0.00925024
-0.0105256
-0.0124296
-0.0148883
-0.0192614
-0.0249321
-0.0348566
-0.0395575
-0.0366944
0.013346
-0.0073651
-0.00992294
-0.00894128
-0.00890561
-0.00845892
-0.00820079
-0.00812804
-0.00825404
-0.00861336
-0.00916349
-0.0100115
-0.0111162
-0.0128686
-0.0151867
-0.0194278
-0.0245664
-0.0325455
-0.0301555
-0.0123238
0.0667115
-0.0322151
-0.00724634
-0.00604965
-0.00524771
-0.00494597
-0.00511154
-0.00561051
-0.00618249
-0.00696807
-0.00778879
-0.00897186
-0.0102738
-0.0122493
-0.0144626
-0.0175132
-0.0187482
-0.0165279
0.00654732
0.0637013
0.192703
3.39349e-06
-2.02261e-05
1.09307e-05
7.3014e-05
0.000172322
0.00030901
0.000483604
0.00069648
0.000947159
0.0012338
0.00155262
0.00189734
0.00225868
0.00262362
0.00297572
0.00329572
0.00356239
0.00375448
0.00386835
0.0038548
2.62696e-05
1.96366e-06
3.58687e-05
9.68535e-05
0.000193054
0.000325175
0.000494184
0.000700804
0.000944881
0.00122493
0.00153757
0.00187657
0.002234
0.00259661
0.00294818
0.00326938
0.00353853
0.00373408
0.00385406
0.00383864
-1.20775e-05
-4.18976e-05
-9.2213e-06
4.9275e-05
0.000142617
0.000271666
0.000437809
0.000642344
0.0008858
0.00116745
0.0014847
0.00183269
0.00220317
0.00258345
0.0029565
0.00330132
0.00359337
0.00380691
0.00393887
0.00391691
-9.0184e-05
-0.000124047
-9.31918e-05
-3.80327e-05
5.1416e-05
0.000176333
0.000338757
0.000540858
0.000784213
0.00106932
0.00139482
0.00175648
0.00214927
0.00255928
0.00296888
0.00335438
0.00368642
0.00393224
0.00408616
0.0040605
-0.000214441
-0.000252478
-0.000224256
-0.000173363
-8.88014e-05
3.10189e-05
0.000188964
0.000388335
0.000632156
0.000922673
0.00126058
0.00164427
0.00206759
0.00252042
0.00298371
0.00343041
0.00382447
0.00412195
0.00431137
0.0042838
-0.000384851
-0.000427752
-0.000403024
-0.000357674
-0.000279625
-0.000166824
-1.5443e-05
0.000179182
0.000421897
0.000717312
0.00106903
0.00147842
0.00194067
0.0024492
0.00298553
0.00351876
0.0040039
0.00438064
0.00462575
0.00460012
-0.000601661
-0.00065043
-0.000630211
-0.000592153
-0.00052304
-0.000420382
-0.000279336
-9.37196e-05
0.000143434
0.000439585
0.000801927
0.00123588
0.00174265
0.00231908
0.00294933
0.00359989
0.00421535
0.00471292
0.00504576
0.00503363
-0.000865557
-0.00092142
-0.000906876
-0.000878297
-0.000821326
-0.000733192
-0.000608117
-0.000438393
-0.000214751
7.35946e-05
0.000438469
0.000891439
0.001441
0.00209178
0.00283513
0.00363845
0.00443652
0.00511857
0.00559262
0.00562776
-0.00117739
-0.00124169
-0.00123397
-0.0012173
-0.00117629
-0.00110822
-0.00100666
-0.000862613
-0.000664611
-0.000398365
-4.66913e-05
0.000409732
0.000990421
0.00171169
0.00257841
0.00356964
0.0046168
0.00558031
0.00628918
0.00646426
-0.0015383
-0.00161237
-0.00161223
-0.00160974
-0.00158872
-0.00154703
-0.00147816
-0.00137241
-0.00121673
-0.000993757
-0.000681001
-0.000250011
0.000332619
0.00109646
0.00207507
0.00327495
0.00464524
0.00603367
0.00714997
0.00770232
-0.00195006
-0.00203507
-0.00204225
-0.00205534
-0.00205778
-0.00204878
-0.00202262
-0.00196996
-0.00187744
-0.0017263
-0.00149062
-0.00113501
-0.000612606
0.000134332
0.00116172
0.00253798
0.00427987
0.0062812
0.00811946
0.00961797
-0.00241602
-0.00251246
-0.00252453
-0.00255264
-0.00258034
-0.00260914
-0.00263516
-0.00265082
-0.00264446
-0.00259884
-0.00248875
-0.00227727
-0.00191
-0.00130974
-0.000379804
0.000997123
0.00299253
0.00570793
0.00870318
0.0120733
-0.0029433
-0.0030509
-0.00306197
-0.00310089
-0.00315172
-0.00321981
-0.00330458
-0.00340173
-0.00350365
-0.00359866
-0.00366876
-0.00368605
-0.00360727
-0.00336559
-0.00286953
-0.00199599
-0.000380016
0.00256106
0.00648574
0.0129744
-0.00354094
-0.00364837
-0.00364158
-0.00368034
-0.00375045
-0.00385933
-0.00400784
-0.00419552
-0.00442173
-0.00468467
-0.0049814
-0.00530725
-0.00565833
-0.006038
-0.00649639
-0.00707713
-0.00731589
-0.00569836
-0.00201721
0.00850609
-0.00424708
-0.00437286
-0.00433622
-0.00436762
-0.00443515
-0.0045601
-0.00475138
-0.00501658
-0.00536392
-0.00580464
-0.00635844
-0.00705854
-0.00797159
-0.00922759
-0.0111398
-0.0140634
-0.0180052
-0.0184674
-0.0155235
-0.000910671
-0.0051634
-0.00507114
-0.00492925
-0.00487291
-0.00492947
-0.00509372
-0.00536008
-0.0057276
-0.00620654
-0.0068176
-0.00760258
-0.00863487
-0.0100674
-0.0121307
-0.0154193
-0.020366
-0.0279442
-0.0312735
-0.0300674
-0.0104196
-0.00580609
-0.006207
-0.00594992
-0.00595436
-0.00593799
-0.00602981
-0.006241
-0.00659004
-0.00709487
-0.00777661
-0.00868868
-0.00991161
-0.0116744
-0.0142086
-0.0184763
-0.0242944
-0.0347898
-0.0400689
-0.0397195
-0.00856903
-0.00942166
-0.00681093
-0.00623628
-0.00569103
-0.00565647
-0.00585651
-0.00623611
-0.00674357
-0.0073963
-0.00818873
-0.00920673
-0.01048
-0.0123521
-0.0148655
-0.0192578
-0.0251719
-0.0343981
-0.0379996
-0.0314451
0.0159375
-0.00628031
-0.00909438
-0.00823191
-0.0083154
-0.00796222
-0.00779512
-0.00780429
-0.00800887
-0.00845118
-0.00906278
-0.0099365
-0.0110422
-0.0127574
-0.0151173
-0.019347
-0.0245922
-0.0317564
-0.0271347
-0.00538533
0.0724896
-0.0314963
-0.00643908
-0.00523531
-0.0045482
-0.00437176
-0.0046337
-0.00521681
-0.00586082
-0.00671157
-0.00758995
-0.00878173
-0.010133
-0.0120605
-0.0143387
-0.0172323
-0.0183119
-0.0150429
0.0106829
0.073509
0.204891
1.09556e-05
-1.48266e-05
1.58662e-05
7.75846e-05
0.000177017
0.00031423
0.000489749
0.000703996
0.000956559
0.00124566
0.00156756
0.00191597
0.00228164
0.00265129
0.0030082
0.00333263
0.00360271
0.00379645
0.00391045
0.00389331
3.6931e-05
1.03172e-05
4.39136e-05
0.000104485
0.000200634
0.000332998
0.000502572
0.000710151
0.000955662
0.00123771
0.00155299
0.00189541
0.00225671
0.00262376
0.00298
0.0033056
0.00357823
0.00377556
0.00389596
0.00387696
8.27974e-07
-3.16834e-05
6.36363e-07
5.86246e-05
0.000151831
0.000281038
0.000447672
0.000653117
0.000898007
0.00118173
0.00150176
0.00185334
0.00222842
0.0026139
0.00299251
0.00334277
0.00363928
0.0038553
0.00398809
0.00396192
-7.47812e-05
-0.000111614
-8.11346e-05
-2.65506e-05
6.27053e-05
0.000187728
0.000350614
0.000553642
0.000798528
0.00108591
0.00141452
0.00178037
0.00217885
0.00259548
0.0030123
0.00340506
0.00374334
0.003993
0.00414856
0.00411812
-0.000196575
-0.00023784
-0.000209995
-0.00015971
-7.53448e-05
4.4606e-05
0.000203086
0.00040354
0.000649168
0.000942382
0.00128366
0.00166827
0.00210326
0.00256532
0.00303856
0.00349563
0.00389908
0.00420287
0.00439546
0.00436251
-0.000364307
-0.000410702
-0.000386336
-0.000341605
-0.000263727
-0.000150729
1.32084e-06
0.000197276
0.000442237
0.000741185
0.0010985
0.00151893
0.00198633
0.00250623
0.00305648
0.00360496
0.00410476
0.00449225
0.00474342
0.00471193
-0.000577981
-0.000630546
-0.00061067
-0.000573247
-0.000504287
-0.000401373
-0.000259521
-7.23109e-05
0.000167552
0.000467967
0.000836731
0.00128
0.00179847
0.00239131
0.00304146
0.00371484
0.0043536
0.00486997
0.0052144
0.00519675
-0.000838057
-0.000898076
-0.000883869
-0.000855981
-0.000799195
-0.000710809
-0.000584858
-0.000413337
-0.000186569
0.000106778
0.000479225
0.000943081
0.00150755
0.00218157
0.00295322
0.00379072
0.00462607
0.00534159
0.00583794
0.00587073
-0.00114512
-0.001214
-0.00120665
-0.0011908
-0.00115012
-0.00108193
-0.000979581
-0.000833705
-0.000632339
-0.0003605
-1.37463e-07
0.000468481
0.00106014
0.0018181
0.00272504
0.00376676
0.00487297
0.0058957
0.00664886
0.00683282
-0.0014999
-0.0015791
-0.00157942
-0.00157802
-0.00155765
-0.00151619
-0.00144688
-0.00133959
-0.00118066
-0.000951864
-0.000629269
-0.000181635
0.000433114
0.0012237
0.00224935
0.00351881
0.00497925
0.00647087
0.00767869
0.00826956
-0.00190363
-0.00199442
-0.00200226
-0.00201691
-0.00202058
-0.0020125
-0.00198665
-0.00193323
-0.00183825
-0.00168204
-0.00143724
-0.00106615
-0.000518745
0.000263053
0.00134462
0.00281123
0.00468046
0.00685407
0.00887698
0.0104639
-0.00235869
-0.00246177
-0.00247483
-0.00250527
-0.00253517
-0.00256605
-0.00259368
-0.00261005
-0.00260293
-0.00255427
-0.00243764
-0.00221429
-0.0018273
-0.00119834
-0.000235216
0.00124024
0.00337554
0.00633736
0.00966955
0.0131921
-0.00287079
-0.00298626
-0.00299901
-0.00304157
-0.00309605
-0.00316789
-0.0032562
-0.00335635
-0.0034603
-0.0035559
-0.00362457
-0.00363771
-0.0035511
-0.0032958
-0.00277277
-0.00192282
-0.000300687
0.00282707
0.00725286
0.0139423
-0.00344597
-0.0035626
-0.00355825
-0.00360242
-0.0036786
-0.00379412
-0.00394937
-0.00414349
-0.00437568
-0.00464424
-0.00494678
-0.00528033
-0.00564644
-0.00606106
-0.00661072
-0.0074124
-0.00803619
-0.00662508
-0.00249333
0.00822187
-0.00412049
-0.00425945
-0.00422696
-0.00426777
-0.00434474
-0.00447967
-0.00468106
-0.00495644
-0.00531417
-0.00576629
-0.00633473
-0.00705809
-0.0080158
-0.00936913
-0.011511
-0.0149639
-0.0200295
-0.021247
-0.0181204
-0.00309477
-0.00498664
-0.00490988
-0.00477453
-0.00473028
-0.0048009
-0.00498097
-0.0052639
-0.00564804
-0.00614367
-0.00677219
-0.00757878
-0.00864276
-0.0101371
-0.0123352
-0.0159509
-0.021554
-0.0305948
-0.0348639
-0.0338235
-0.0131527
-0.00554421
-0.00598303
-0.00573311
-0.0057648
-0.00577069
-0.00588587
-0.00612
-0.00649124
-0.00701728
-0.00771909
-0.00865271
-0.00990197
-0.0117133
-0.0143499
-0.0189147
-0.0251778
-0.0366525
-0.0420739
-0.042035
-0.00907079
-0.00908014
-0.00650448
-0.0059307
-0.0054083
-0.00540129
-0.00563569
-0.00605193
-0.00659489
-0.00727786
-0.00809731
-0.00913594
-0.0104256
-0.0123134
-0.0148817
-0.0193911
-0.025517
-0.0348641
-0.0379189
-0.0314333
0.0184298
-0.00568104
-0.00865105
-0.00779807
-0.00794345
-0.00763071
-0.00750941
-0.00756259
-0.00781088
-0.00828809
-0.00893024
-0.00982582
-0.0109416
-0.01267
-0.0150607
-0.0193613
-0.024671
-0.0317738
-0.0262401
-0.00393351
0.0773961
-0.0308991
-0.0058343
-0.00463621
-0.00400442
-0.00389756
-0.00422431
-0.00487073
-0.00557205
-0.00647353
-0.00739836
-0.00861675
-0.0100049
-0.0119431
-0.014249
-0.0171741
-0.0181125
-0.0145598
0.0127531
0.0775249
0.212983
1.91524e-05
-7.36289e-06
2.31717e-05
8.47788e-05
0.000184406
0.00032212
0.000498496
0.000714022
0.000968358
0.00125979
0.00158465
0.00193661
0.00230642
0.00268059
0.00304213
0.00337092
0.00364456
0.00384052
0.00395551
0.00393707
4.64333e-05
1.89499e-05
5.24117e-05
0.000112836
0.00020912
0.0003419
0.000512228
0.000720971
0.000968139
0.00125242
0.00157059
0.0019166
0.00228199
0.00265363
0.00301466
0.00334485
0.0036213
0.00382111
0.00394277
0.00392262
1.17831e-05
-2.17381e-05
1.04218e-05
6.82167e-05
0.000161523
0.000291122
0.000458505
0.000665148
0.000911787
0.00119792
0.00152115
0.00187679
0.00225655
0.0026474
0.00303177
0.0033877
0.0036891
0.00390843
0.00404301
0.00401555
-6.19642e-05
-9.99164e-05
-6.96097e-05
-1.52544e-05
7.40815e-05
0.000199494
0.000363159
0.000567475
0.000814299
0.00110444
0.00143687
0.00180792
0.00221179
0.00263509
0.00305937
0.00345972
0.00380479
0.00405933
0.00421771
0.00418589
-0.000181696
-0.000224186
-0.000196518
-0.00014648
-6.20285e-05
5.83505e-05
0.000217704
0.000419627
0.00066751
0.000964024
0.00131021
0.00170406
0.00214319
0.00261379
0.00309719
0.003565
0.0039785
0.00428989
0.00448715
0.00445279
-0.000347056
-0.000394783
-0.000370596
-0.000326125
-0.000248142
-0.000134658
1.83899e-05
0.000216045
0.000463643
0.000766422
0.00112876
0.0015532
0.00203372
0.00256622
0.00313079
0.00369488
0.00420999
0.00460973
0.00486882
0.00483612
-0.000557908
-0.000611921
-0.000592231
-0.000555097
-0.000486032
-0.000382596
-0.000239637
-5.04946e-05
0.000192438
0.000497448
0.000872766
0.00132495
0.00185649
0.00246569
0.00313573
0.00383189
0.00449426
0.00503086
0.00538906
0.00537103
-0.000814533
-0.000876136
-0.000862145
-0.000834618
-0.000777787
-0.000688913
-0.000561828
-0.00038823
-0.000158045
0.000140593
0.000520903
0.000996138
0.00157702
0.00227203
0.00307091
0.00394146
0.00481321
0.00556266
0.00608343
0.00611844
-0.00111728
-0.00118791
-0.00118085
-0.00116551
-0.00112495
-0.00105644
-0.000953098
-0.000805203
-0.000600307
-0.000322751
4.64794e-05
0.00052873
0.00114357
0.00192425
0.00286703
0.00395555
0.00511718
0.00619686
0.00699478
0.00718775
-0.00146656
-0.0015477
-0.00154845
-0.00154783
-0.0015279
-0.00148651
-0.00141661
-0.00130771
-0.00114559
-0.000911232
-0.000579609
-0.000118225
0.000513817
0.00133995
0.00241063
0.00374305
0.00528501
0.00687151
0.00816508
0.0087803
-0.00186308
-0.00195607
-0.00196459
-0.00198046
-0.00198512
-0.00197778
-0.00195214
-0.00189801
-0.00180087
-0.00164023
-0.0013876
-0.00100361
-0.000436106
0.000377236
0.00150542
0.0030497
0.00502976
0.00735737
0.00954654
0.0111712
-0.00230855
-0.00241413
-0.00242823
-0.00246057
-0.00249232
-0.00252499
-0.00255411
-0.00257132
-0.00256395
-0.00251333
-0.00239211
-0.00216024
-0.00175882
-0.00110832
-0.000131421
0.00143332
0.00368932
0.00687276
0.0105005
0.0140698
-0.0028076
-0.00292603
-0.00294045
-0.0029859
-0.00304343
-0.00311853
-0.00321011
-0.00331337
-0.00342
-0.00351762
-0.00358747
-0.00360094
-0.00351333
-0.00325381
-0.00270612
-0.00189114
-0.000271573
0.00304266
0.00795665
0.0146915
-0.00336453
-0.00348462
-0.0034826
-0.00353092
-0.00361181
-0.0037327
-0.00389377
-0.00409405
-0.00433279
-0.0046086
-0.00492016
-0.00526745
-0.00565481
-0.0061097
-0.00674468
-0.00774601
-0.00875245
-0.0073607
-0.00257952
0.00823779
-0.00401481
-0.00415871
-0.00412957
-0.00417689
-0.00426079
-0.00440348
-0.00461335
-0.00489808
-0.00526648
-0.00573164
-0.0063179
-0.0070691
-0.00807635
-0.00952452
-0.0118651
-0.0157434
-0.0216215
-0.0233548
-0.0195672
-0.00411979
-0.00484544
-0.00477465
-0.00464396
-0.00460773
-0.0046874
-0.00487828
-0.00517349
-0.00557127
-0.00608233
-0.00672927
-0.00755991
-0.00866097
-0.0102238
-0.0125533
-0.0164688
-0.0226165
-0.032821
-0.0376743
-0.0359171
-0.0144612
-0.00535947
-0.00581118
-0.00556203
-0.00560759
-0.00562552
-0.00575468
-0.00600389
-0.00639151
-0.00693569
-0.00765849
-0.00861722
-0.00990059
-0.0117758
-0.0145214
-0.0193767
-0.0260104
-0.0384159
-0.0438492
-0.0426095
-0.0091558
-0.00883061
-0.0062744
-0.00570637
-0.00519667
-0.00520098
-0.00545192
-0.00588799
-0.00645302
-0.00715891
-0.0080021
-0.00906515
-0.0103809
-0.0123123
-0.0149443
-0.0196079
-0.0259323
-0.0355085
-0.0381905
-0.0300829
0.0200408
-0.00541198
-0.00841066
-0.00753355
-0.00769148
-0.00738561
-0.00727984
-0.00735177
-0.00762364
-0.0081264
-0.00879171
-0.00971594
-0.0108515
-0.0126173
-0.015048
-0.0194501
-0.0248214
-0.0318936
-0.0255906
-0.001446
0.0803703
-0.0305857
-0.00551021
-0.00430022
-0.00367342
-0.00358545
-0.00393817
-0.00461462
-0.00534738
-0.00628027
-0.00723719
-0.00848409
-0.00990534
-0.011879
-0.0142273
-0.0172033
-0.0181026
-0.0142595
0.0139349
0.0805737
0.21693
2.70254e-05
2.73943e-07
3.07721e-05
9.24143e-05
0.000192313
0.000330571
0.00050782
0.000724613
0.000980677
0.00127436
0.00160205
0.00195747
0.00233107
0.00270945
0.00307535
0.00340827
0.00368542
0.00388381
0.00400016
0.00398135
5.48803e-05
2.71184e-05
6.05531e-05
0.000121007
0.000217551
0.000350853
0.000522027
0.000732013
0.000980898
0.00126744
0.00158847
0.0019379
0.00230734
0.0026834
0.00304905
0.00338368
0.00366395
0.00386647
0.00398971
0.00396933
2.12333e-05
-1.26076e-05
1.95178e-05
7.73276e-05
0.000170888
0.000301015
0.000469274
0.000677226
0.000925707
0.00121432
0.00154073
0.00190032
0.00228467
0.0026807
0.00307061
0.00343201
0.00373824
0.00396112
0.00409783
0.00407015
-5.11133e-05
-8.94188e-05
-5.91511e-05
-4.7912e-06
8.48022e-05
0.000210767
0.000375369
0.000581116
0.000829997
0.00112297
0.00145918
0.00183506
0.00224442
0.00267418
0.00310561
0.00351323
0.00386495
0.00412455
0.00428611
0.00425415
-0.000169165
-0.000212037
-0.000184412
-0.000134374
-4.96477e-05
7.13318e-05
0.000231722
0.000435258
0.000685507
0.00098536
0.00133617
0.00173643
0.00218208
0.00266106
0.0031541
0.00363209
0.00405524
0.00437427
0.0045765
0.00454218
-0.000332516
-0.000380651
-0.000356512
-0.000312049
-0.000233775
-0.000119639
3.45594e-05
0.000234038
0.000484352
0.000790984
0.0011585
0.00158942
0.00207985
0.00262392
0.00320183
0.00378048
0.00430997
0.00472159
0.00498871
0.00495644
-0.000540939
-0.000595389
-0.000575764
-0.000538665
-0.000469317
-0.000365204
-0.000221007
-2.98449e-05
0.000216174
0.000525693
0.000907365
0.00136824
0.00191174
0.00253598
0.00322427
0.00394124
0.00462523
0.00518074
0.00555221
0.00553549
-0.000794583
-0.000856658
-0.000842777
-0.000815351
-0.000758301
-0.000668797
-0.000540473
-0.000364759
-0.000131218
0.000172493
0.000560219
0.00104603
0.00164173
0.00235593
0.00317931
0.0040793
0.00498347
0.00576344
0.0063067
0.00634493
-0.00109361
-0.00116476
-0.00115789
-0.0011428
-0.00110217
-0.00103321
-0.000928786
-0.000778883
-0.000570616
-0.000287726
8.96385e-05
0.000584045
0.00121692
0.00202058
0.00299521
0.00412423
0.00533374
0.00646276
0.00729997
0.00750032
-0.00143816
-0.00151988
-0.00152098
-0.00152084
-0.00150114
-0.00145965
-0.00138909
-0.00127862
-0.00111356
-0.00087422
-0.00053463
-6.10434e-05
0.000588751
0.00144333
0.00255399
0.00393867
0.00554876
0.00721463
0.00857968
0.00921083
-0.00182858
-0.00192223
-0.00193132
-0.00194804
-0.00195341
-0.00194658
-0.00192102
-0.00186622
-0.00176722
-0.00160289
-0.00134374
-0.000948933
-0.000363861
0.000478428
0.0016537
0.00325388
0.00532248
0.00777515
0.0100988
0.0117412
-0.00226608
-0.00237242
-0.00238742
-0.00242113
-0.00245429
-0.00248837
-0.0025187
-0.0025367
-0.00252936
-0.00247753
-0.00235317
-0.00211499
-0.00170156
-0.00102545
2.45382e-05
0.00159899
0.00394542
0.00730779
0.0111757
0.014761
-0.00275462
-0.00287394
-0.00288975
-0.00293731
-0.00299718
-0.00307486
-0.00316918
-0.00327523
-0.00338463
-0.0034849
-0.00355728
-0.00357325
-0.00348896
-0.00323778
-0.00273354
-0.0018771
-0.000232405
0.00325337
0.00855834
0.0153178
-0.00329754
-0.00341865
-0.00341852
-0.00346979
-0.00355415
-0.00367915
-0.00384491
-0.00405052
-0.00429541
-0.0045787
-0.00490008
-0.00526121
-0.00567165
-0.0061672
-0.00688112
-0.00801592
-0.00926187
-0.00785968
-0.00252257
0.00840543
-0.00393041
-0.00407582
-0.00404913
-0.00410071
-0.00418941
-0.00433777
-0.00455425
-0.00484679
-0.00522479
-0.0057025
-0.00630652
-0.00708518
-0.00813942
-0.00967165
-0.0121782
-0.0163855
-0.0228807
-0.0249113
-0.0205122
-0.00467473
-0.00473639
-0.00466744
-0.00454002
-0.0045089
-0.00459444
-0.00479266
-0.00509677
-0.00550521
-0.00602933
-0.00669304
-0.00754719
-0.00868505
-0.0103138
-0.0127606
-0.0169315
-0.0235244
-0.034654
-0.0399226
-0.0375518
-0.0153495
-0.00522957
-0.00568524
-0.00543513
-0.00548717
-0.00551121
-0.00564855
-0.00590755
-0.00630697
-0.00686558
-0.00760628
-0.0085896
-0.0099089
-0.0118515
-0.0147025
-0.0198203
-0.0267767
-0.0401087
-0.0455703
-0.043554
-0.00938723
-0.00865235
-0.00610687
-0.00554535
-0.00504322
-0.00505244
-0.00531107
-0.00575806
-0.00633676
-0.00705933
-0.00792126
-0.00900856
-0.0103538
-0.0123421
-0.0150418
-0.0198758
-0.0264112
-0.036357
-0.0389142
-0.0299243
0.0209086
-0.00527022
-0.00827081
-0.00736896
-0.00752793
-0.00721875
-0.0071158
-0.00719453
-0.00747759
-0.00799623
-0.00867885
-0.00962661
-0.0107844
-0.012598
-0.0150745
-0.0195914
-0.0250347
-0.0322027
-0.02547
-0.000367176
0.0822182
-0.0303901
-0.00531281
-0.00409292
-0.00346188
-0.00337743
-0.00373885
-0.00442911
-0.00517747
-0.00613098
-0.00710849
-0.00838387
-0.00983358
-0.0118564
-0.0142503
-0.0173056
-0.0182039
-0.014282
0.0144649
0.0821666
0.21922
3.40067e-05
7.23729e-06
3.77852e-05
9.95583e-05
0.000199769
0.000338564
0.000516633
0.000734588
0.000992218
0.00128793
0.00161812
0.00197654
0.00235356
0.00273567
0.00310542
0.00344203
0.00372238
0.00392311
0.00404088
0.00402208
6.21286e-05
3.4314e-05
6.77964e-05
0.000128383
0.000225243
0.000359089
0.000531093
0.000742261
0.000992742
0.00128136
0.00160498
0.00195755
0.00233055
0.00271056
0.00308031
0.00341892
0.00370267
0.00390779
0.00403264
0.00401242
2.918e-05
-4.71927e-06
2.74519e-05
8.53929e-05
0.000179278
0.00030997
0.000479102
0.000688312
0.000938518
0.0012294
0.00155871
0.00192184
0.0023103
0.00271095
0.00310577
0.00347206
0.00378266
0.00400886
0.00414769
0.00412022
-4.21262e-05
-8.04952e-05
-5.01823e-05
4.31034e-06
9.42432e-05
0.000220808
0.000386353
0.000593482
0.000844294
0.00113987
0.00147946
0.00185959
0.00227394
0.00270944
0.00314718
0.00356124
0.00391888
0.00418314
0.00434772
0.00431612
-0.000158852
-0.000201791
-0.000174122
-0.000123949
-3.88626e-05
8.27649e-05
0.000244191
0.000449274
0.00070173
0.00100462
0.0013595
0.0017651
0.00221687
0.00270328
0.00320474
0.0036916
0.0041232
0.00444906
0.00465585
0.00462212
-0.00032057
-0.000368774
-0.000344597
-0.000300001
-0.000221353
-0.000106525
4.88064e-05
0.000250011
0.000502831
0.000812968
0.00118521
0.00162224
0.00212091
0.00267487
0.00326424
0.00385534
0.00439715
0.00481909
0.00509328
0.005062
-0.000526997
-0.000581516
-0.000561873
-0.000524664
-0.000454951
-0.00035013
-0.000204736
-1.1695e-05
0.000237125
0.000550673
0.000937965
0.00140646