/*--------------------------------*- C++ -*----------------------------------*\
  =========                 |
  \\      /  F ield         | OpenFOAM: The Open Source CFD Toolbox
   \\    /   O peration     | Website:  https://openfoam.org
    \\  /    A nd           | Version:  10
     \\/     M anipulation  |
\*---------------------------------------------------------------------------*/
FoamFile
{
    format      ascii;
    class       volScalarField;
    location    "7.1";
    object      p;
}
// * * * * * * * * * * * * * * * * * * * * * * * * * * * * * * * * * * * * * //

dimensions      [0 2 -2 0 0 0 0];

internalField   nonuniform List<scalar> 
400
(
3.34636e-07
-2.06271e-05
3.13279e-05
0.00013106
0.000285457
0.000496625
0.00076753
0.00110162
0.00150171
0.00196892
0.00250146
0.00309281
0.00372982
0.00439066
0.00504308
0.00564513
0.00614779
0.00650309
0.00670237
0.0066665
2.36655e-05
1.91575e-06
5.9286e-05
0.000159918
0.000312211
0.00051907
0.000783959
0.00111064
0.00150224
0.00196031
0.00248372
0.0030668
0.00369676
0.0043542
0.00500707
0.00561325
0.00612191
0.00648315
0.00669108
0.0066461
-3.58882e-05
-6.52843e-05
-9.739e-06
8.69151e-05
0.000233878
0.000434335
0.000692355
0.00101264
0.00139961
0.00185652
0.00238423
0.00297937
0.00363287
0.00432533
0.00502385
0.00568186
0.00623944
0.00663409
0.00685846
0.00678335
-0.000158603
-0.000193427
-0.000141233
-5.07831e-05
8.80285e-05
0.000278845
0.000526654
0.000837559
0.00121797
0.00167389
0.00220954
0.00282543
0.00351546
0.00426477
0.00503977
0.0057876
0.00643321
0.00688911
0.00714514
0.00702325
-0.000351029
-0.000390684
-0.000343816
-0.000262211
-0.000134831
4.25489e-05
0.000276056
0.000573553
0.000944016
0.00139708
0.00194189
0.00258458
0.00332424
0.00415474
0.00504097
0.00592401
0.006708
0.00726512
0.00757463
0.00736882
-0.000612069
-0.000656807
-0.000617323
-0.00054763
-0.000435876
-0.000277272
-6.45231e-05
0.000212122
0.00056453
0.00100667
0.00155403
0.0022218
0.00302088
0.00394429
0.00497615
0.0060513
0.00704628
0.00776866
0.00816838
0.00780718
-0.00093859
-0.000989203
-0.000959333
-0.000905245
-0.000814488
-0.000681964
-0.000499479
-0.000255656
6.41238e-05
0.000478283
0.00100933
0.0016832
0.00252494
0.00354816
0.00475223
0.00608294
0.00739203
0.00839103
0.00894976
0.00831252
-0.00132658
-0.00138416
-0.00136628
-0.001332
-0.00126861
-0.00117126
-0.0010316
-0.000837487
-0.000572496
-0.000214683
0.000264927
0.000903721
0.00174641
0.00283672
0.00419766
0.00582887
0.00758518
0.0090687
0.00990039
0.00885899
-0.00177092
-0.00183667
-0.00183295
-0.00182267
-0.00179343
-0.0017414
-0.0016593
-0.00153594
-0.00135542
-0.00109503
-0.000722769
-0.000194115
0.000551997
0.00158866
0.00298487
0.00486629
0.00716716
0.00950784
0.0108068
0.00943979
-0.00226531
-0.00234036
-0.00235212
-0.00236914
-0.00238005
-0.0023832
-0.00237399
-0.00234451
-0.00228302
-0.00217205
-0.00198547
-0.00168331
-0.0012048
-0.000463164
0.000665542
0.00229866
0.00488372
0.00848084
0.0106445
0.009945
-0.00280266
-0.00288787
-0.00291458
-0.00295997
-0.0030146
-0.00308027
-0.00315705
-0.00324322
-0.00333586
-0.00343043
-0.00352068
-0.00359895
-0.00366041
-0.00372333
-0.0038283
-0.00375856
-0.00229643
0.00233611
0.00669856
0.00930805
-0.00337617
-0.00347158
-0.00350901
-0.00357976
-0.00367696
-0.00380722
-0.0039768
-0.00419285
-0.00446602
-0.00481355
-0.0052659
-0.00588086
-0.00677967
-0.00824821
-0.0108019
-0.0144476
-0.0163599
-0.0116327
-0.00418779
0.00361299
-0.003982
-0.00408736
-0.00412732
-0.00421522
-0.00434641
-0.00453419
-0.00479241
-0.0051382
-0.00559893
-0.00622034
-0.00708374
-0.00834297
-0.0103068
-0.0135826
-0.019371
-0.0277224
-0.0348641
-0.0311396
-0.0211791
-0.00818314
-0.00461581
-0.00472179
-0.00474171
-0.00482789
-0.00497796
-0.00520965
-0.00554062
-0.0059972
-0.00662063
-0.00748037
-0.00870068
-0.0105072
-0.0133794
-0.0180986
-0.0262258
-0.0374491
-0.0482962
-0.0461287
-0.0365696
-0.0210294
-0.00530778
-0.00542405
-0.00540519
-0.00547348
-0.00561037
-0.00584737
-0.0062084
-0.00672526
-0.00744558
-0.00844674
-0.00986966
-0.0119368
-0.0152038
-0.0203553
-0.0289996
-0.0400451
-0.0515487
-0.0491224
-0.0415568
-0.0256122
-0.00613904
-0.00606065
-0.005923
-0.00588811
-0.00598765
-0.0062298
-0.00662235
-0.00718377
-0.00795439
-0.00900235
-0.010465
-0.0125001
-0.0156284
-0.0203323
-0.0277723
-0.036517
-0.044379
-0.0420792
-0.0369484
-0.0186143
-0.00662498
-0.00705022
-0.00675147
-0.00675562
-0.00674322
-0.00686759
-0.00714366
-0.00760431
-0.00828905
-0.00924527
-0.0105939
-0.0124024
-0.015136
-0.0189053
-0.0245125
-0.0302811
-0.0352315
-0.0317548
-0.0257833
0.000845908
-0.0100041
-0.00748449
-0.00684585
-0.00625821
-0.00618399
-0.00636654
-0.00674826
-0.00729283
-0.00802135
-0.00894749
-0.0101949
-0.0118154
-0.0141246
-0.0170792
-0.0211443
-0.024503
-0.0265752
-0.0207297
-0.008603
0.0350543
-0.00669323
-0.0096919
-0.00862051
-0.00863395
-0.00817962
-0.00794654
-0.00789855
-0.00806561
-0.0084941
-0.0091706
-0.010202
-0.0115979
-0.0137536
-0.0164125
-0.0204022
-0.0230917
-0.0237935
-0.0102827
0.0166646
0.0939362
-0.0319049
-0.00686337
-0.00534316
-0.00459879
-0.00440364
-0.00462817
-0.00515597
-0.00578645
-0.00662614
-0.00757879
-0.00890231
-0.0104706
-0.0126181
-0.0147862
-0.0167966
-0.0150252
-0.0060937
0.0275019
0.0955298
0.227454
)
;

boundaryField
{
    movingWall
    {
        type            zeroGradient;
    }
    fixedWalls
    {
        type            zeroGradient;
    }
    frontAndBack
    {
        type            empty;
    }
}


// ************************************************************************* //
