/*--------------------------------*- C++ -*----------------------------------*\
  =========                 |
  \\      /  F ield         | OpenFOAM: The Open Source CFD Toolbox
   \\    /   O peration     | Website:  https://openfoam.org
    \\  /    A nd           | Version:  10
     \\/     M anipulation  |
\*---------------------------------------------------------------------------*/
FoamFile
{
    format      ascii;
    class       surfaceScalarField;
    location    "6.525";
    object      phi;
}
// * * * * * * * * * * * * * * * * * * * * * * * * * * * * * * * * * * * * * //

dimensions      [0 3 -1 0 0 0 0];

internalField   nonuniform List<scalar> 
928
(
0.0963713
0.00362874
0.103591
-0.00721997
0.106884
-0.0032931
-0.00971363
0.116598
0.0950607
0.00856806
0.10618
-0.0183395
0.102826
6.08286e-05
-0.0197091
0.112822
0.0958726
0.0126955
0.107273
-0.0297398
0.103617
0.00371625
-0.0395987
0.123507
0.10282
0.00987549
0.0945464
-0.0214661
0.0992015
-0.000938833
0.146617
-0.0870138
0.111461
0.0051371
-0.0165904
0.128051
0.108699
0.00926017
-0.0419317
0.13404
0.12402
0.00874682
-0.0448098
0.126898
0.155363
0.110554
0.12777
0.000280936
0.128577
-0.000806742
0.12962
-0.0010428
-0.00114943
0.130769
0.133687
0.000634004
0.134246
-0.00136613
0.13508
-0.0018765
-0.00168971
0.13562
0.1311
-0.00356743
0.137843
-0.00810955
0.133029
0.00293799
-0.000711361
0.13205
0.107421
-0.000434919
0.115586
-0.016275
0.111775
0.00674994
0.102461
0.00860263
0.131378
-0.000608841
0.131946
-0.000568232
0.131967
-2.04862e-05
0.132075
-0.000108473
0.131864
0.000211163
0.131535
0.00032873
0.131394
0.000141872
0.13039
0.00100356
0.129082
0.00130756
0.126772
0.00231003
0.124888
0.00188457
0.122813
0.00207485
0.121002
0.00181077
0.119678
0.00132371
0.118446
0.00123287
0.118101
0.000344424
0.117498
0.000603244
0.117585
-8.68903e-05
0.117452
0.000133042
0.117902
-0.000450589
0.118041
-0.00013911
0.11818
-0.000138596
0.118212
-3.20178e-05
0.117629
0.000583039
0.117012
0.000617096
0.11566
0.00135213
0.114083
0.00157729
0.111883
0.00219931
0.109465
0.00241845
0.106895
0.0025698
0.104239
0.0026558
0.102186
0.00205271
0.100478
0.00170822
0.0998438
0.000634412
0.100094
-0.000250387
0.101431
-0.00133697
0.103896
-0.00246487
0.106256
-0.00236016
0.108969
-0.00271301
-0.00100109
0.135748
-0.000736249
0.136054
-0.000874532
0.136425
-0.000391163
0.137088
-0.000772377
0.137702
-0.000401975
0.13811
-7.96432e-05
0.138489
-0.000237573
0.137778
0.00171459
0.136551
0.00253536
0.134686
0.00417487
0.133039
0.00353106
0.131265
0.003849
0.129923
0.00315297
0.12879
0.00245685
0.127947
0.00207555
0.127907
0.00038403
0.127756
0.000754861
0.128427
-0.000758272
0.129149
-0.000588731
0.130007
-0.0013087
0.1307
-0.00083201
0.13133
-0.000768917
0.131944
-0.000645404
0.132136
0.000391019
0.132363
0.000390016
0.131189
0.00252642
0.129988
0.0027783
0.128363
0.00382364
0.126686
0.00409573
0.124673
0.00458238
0.122582
0.00474669
0.120383
0.00425169
0.117891
0.00420084
0.115738
0.00278694
0.114581
0.000907147
0.114572
-0.00132857
0.116124
-0.00401631
0.118091
-0.00432776
0.120851
-0.00547259
-0.00319683
0.131042
0.000272162
0.131743
-0.00157509
0.133394
-0.00204232
0.133516
-0.00089492
0.13393
-0.000816192
0.136162
-0.00231081
0.136611
-0.000687033
0.135793
0.00253248
0.134482
0.00384615
0.134423
0.00423453
0.133709
0.00424515
0.132874
0.00468398
0.13172
0.00430705
0.130801
0.00337511
0.130019
0.00285826
0.129035
0.00136734
0.128945
0.000844855
0.129011
-0.000823546
0.129256
-0.000834495
0.129545
-0.00159699
0.130132
-0.00141916
0.130989
-0.00162629
0.131964
-0.00162016
0.133863
-0.00150783
0.135194
-0.000941439
0.136092
0.00162854
0.137048
0.00182268
0.136945
0.00392687
0.135498
0.00554217
0.1327
0.00738094
0.129157
0.00828887
0.124397
0.00901247
0.119825
0.00877234
0.116354
0.00625842
0.114037
0.00322405
0.113306
-0.000597818
0.113607
-0.00431736
0.114505
-0.0052256
0.11536
-0.00632788
-0.0035941
0.108359
-0.00562671
0.103825
0.002959
0.106276
-0.00449285
0.100755
0.00462618
0.0980313
0.00190724
0.101604
-0.00588366
0.101192
-0.000274412
0.0996854
0.00403869
0.101852
0.00167964
0.1044
0.00168643
0.105159
0.00348658
0.10461
0.00523284
0.103606
0.00531082
0.101084
0.00589691
0.0975122
0.00643022
0.0952521
0.00362743
0.0927116
0.00338532
0.0902802
0.00160787
0.089524
-7.82951e-05
0.0886955
-0.000768473
0.0892721
-0.00199577
0.0905865
-0.00294068
0.0936807
-0.00471439
0.0967356
-0.00456272
0.0999063
-0.00411214
0.105289
-0.00375413
0.110305
-0.00319366
0.114902
-0.000669743
0.119288
0.00115647
0.12486
0.00180872
0.129299
0.00384957
0.133119
0.00519281
0.136302
0.00558945
0.136832
0.00572772
0.133672
0.00638482
0.126479
0.00659449
0.116658
0.00550371
0.10696
0.00447304
0.0982613
0.00237039
0.000499406
0.109156
0.000719225
0.0884038
-0.000713655
0.0859416
0.00152338
-0.0010722
0.111317
-0.0105974
0.0885487
0.0220542
0.0904296
-0.000357541
0.0893574
-0.0102406
0.00980564
0.0213468
-0.0478624
0.00901113
0.0190856
0.0249411
-0.00732732
0.000660699
0.00914494
-0.0202663
-0.0269354
-0.0128749
0.0116942
0.0119878
7.83684e-05
0.00195813
-0.0149122
-0.00822802
0.0131451
0.00488328
-0.0176041
-0.00246465
0.0119741
-0.00602849
0.00547108
0.00528414
-0.0171963
0.0103141
-0.00530436
0.0126813
0.00167149
0.0130451
0.00131582
0.0135859
0.00114564
0.0163779
0.000694575
0.017966
0.00364471
0.0190485
0.00422835
0.0205857
0.00435973
0.0219993
0.00501659
0.0216487
0.00397803
0.0216829
0.0033511
0.0234506
-0.000159852
0.0241508
-0.000778488
0.0242882
-0.000905799
0.0269808
-0.00468839
0.0289236
-0.00488348
0.0281714
-0.00396218
0.0311962
-0.0075876
0.0353784
-0.00829428
0.0371225
-0.00549829
0.0394404
-0.00551153
0.0430403
-0.00426962
0.044758
-0.000561209
0.0447753
0.00179142
0.0450398
0.00358502
0.0445866
0.00564607
0.0421125
0.00806347
0.0391421
0.00869817
0.0374182
0.00810871
0.0354307
0.00858201
0.0339815
0.00695286
0.0345804
0.00387415
0.0349413
0.00200952
3.34073e-05
-4.17487e-05
-0.00288256
0.00651404
0.00658935
-0.00634085
-0.00474926
-0.00213938
0.00777264
0.00441663
-0.00108494
-0.00542315
-0.00735651
-0.00748473
-0.00324277
-0.00153626
-0.00427698
0.00230646
-0.00252691
0.00583285
-0.00238075
0.00751833
-0.000990901
0.0103281
0.000834916
0.0129379
0.00161852
0.0162666
0.00103104
0.0205397
0.000743514
0.0227299
0.00178784
0.025597
0.000483989
0.0273217
-0.0018845
0.0275348
-0.000991663
0.0289426
-0.00231359
0.0283495
-0.00409527
0.0265602
-0.00309413
0.0261675
-0.00356947
0.0247614
-0.00618158
0.0230405
-0.00657333
0.0226753
-0.00513314
0.0223902
-0.00522636
0.0227053
-0.00458475
0.0241075
-0.00196346
0.0251151
0.000783863
0.0262047
0.00249544
0.0283734
0.00347738
0.0308215
0.00561533
0.0334039
0.00611576
0.0360561
0.00545654
0.0393823
0.00525582
0.042787
0.0035481
0.0451464
0.0015148
0.0469342
0.000221751
-0.00115544
0.102691
-0.0132883
0.0914811
0.0332641
0.0964471
-0.00532354
0.0414429
0.144362
0.0956891
-0.00897742
0.11074
0.0182133
0.104591
0.000825825
0.0193526
0.126681
0.0949341
-0.00391148
0.105827
0.00732053
0.10343
0.00322285
0.00967513
0.113107
0.0960885
0.103409
0.106632
0.116307
0.150593
-0.00623178
0.049004
0.101589
0.128879
-0.0084295
0.0416775
0.136205
0.110055
-0.0053775
0.0166639
0.135069
0.11093
0.127593
0.107768
0.00296667
0.0790127
0.00181962
0.084963
0.00574387
0.00260549
0.0824359
0.137778
0.00139338
0.1396
-1.87817e-06
0.143556
0.0017875
0.00433816
0.141824
0.136657
-0.00019508
0.136341
0.000314383
0.136456
0.00167261
0.0015658
0.139228
0.127398
0.127713
0.129385
0.130951
0.0803718
-0.000818438
0.0861761
0.000784968
0.0819278
-0.000500914
0.0889003
0.000800173
0.0887068
-0.000891529
0.0840236
-0.00267324
0.0843437
-0.00356292
0.0834218
-0.00335501
0.0834703
-0.00257541
0.0824017
-0.00131213
0.0827051
-0.00129431
0.084343
-0.000803044
0.0868721
-0.000910588
0.0891086
-0.00120543
0.0918068
-0.00195466
0.0960091
-0.00241443
0.0989945
-0.0025014
0.101314
-0.00420435
0.103959
-0.00363629
0.105359
-0.00371415
0.104537
-0.00327294
0.104149
-0.00270558
0.102835
-0.00225622
0.0979163
-0.00126256
0.0930353
-0.00169232
0.0884801
-0.000577908
0.0834451
-0.000191409
0.0779126
0.000947777
0.0749521
0.000997069
0.0740313
0.00170466
0.0741642
0.00236247
0.0758851
0.00175654
0.0794331
0.00206728
0.0841139
0.00143497
0.0889441
0.000626366
0.0946916
-0.000491707
0.100517
-0.00227739
0.105141
-0.00310916
0.109997
-0.0046341
-0.00405171
0.138119
0.00288658
0.138413
0.000490625
0.138634
-0.000721628
0.141375
-0.0019408
0.142065
-0.00158218
0.140549
-0.00115715
0.138799
-0.00181242
0.136967
-0.00152348
0.13691
-0.00251774
0.136489
-0.000891723
0.136232
-0.00103729
0.136083
-0.000653576
0.136371
-0.00119859
0.137242
-0.00207683
0.137201
-0.00191397
0.138016
-0.00322909
0.138179
-0.00266408
0.137941
-0.00396713
0.137545
-0.00323982
0.137331
-0.00350035
0.136898
-0.00283982
0.136237
-0.0020442
0.136015
-0.00203473
0.13513
-0.000377069
0.134008
-0.000570179
0.132915
0.000515117
0.131818
0.000904709
0.130755
0.00201078
0.129373
0.00237983
0.128842
0.00223553
0.12869
0.00251401
0.128781
0.00166577
0.129449
0.00139892
0.130745
0.000139611
0.132293
-0.000922155
0.133841
-0.00203922
0.134962
-0.00339831
0.135158
-0.00330531
0.134772
-0.00424868
-0.00331739
0.140466
0.00164882
0.140397
0.000559739
0.139977
-0.000301695
0.139393
-0.0013563
0.139415
-0.00160476
0.139231
-0.000973011
0.138259
-0.000840062
0.13697
-0.000235009
0.135678
-0.0012254
0.135552
-0.000766004
0.135248
-0.000733477
0.135043
-0.000448141
0.134614
-0.000769366
0.133882
-0.0013453
0.133218
-0.00124976
0.132033
-0.00204432
0.130976
-0.00160677
0.129208
-0.00219891
0.127776
-0.00180834
0.126177
-0.00190119
0.125018
-0.00168099
0.124172
-0.00119837
0.12325
-0.00111242
0.12329
-0.000417476
0.123104
-0.000383682
0.123307
0.000312182
0.12384
0.00037174
0.124866
0.000984959
0.126068
0.00117747
0.127119
0.00118409
0.128431
0.00120284
0.129371
0.00072587
0.130281
0.000488397
0.130703
-0.000282093
0.130523
-0.000742619
0.130013
-0.00152912
0.12871
-0.00209552
0.127554
-0.00214888
0.125805
-0.00250007
-0.00164283
0.1326
0.13316
0.132858
0.131502
0.129897
0.128924
0.128084
0.127849
0.126623
0.125857
0.125124
0.124676
0.123906
0.122561
0.121311
0.119267
0.11766
0.115461
0.113653
0.111752
0.110071
0.108873
0.10776
0.107343
0.106959
0.107271
0.107643
0.108628
0.109805
0.110989
0.112192
0.112918
0.113407
0.113124
0.112382
0.110853
0.108757
0.106608
0.104108
)
;

boundaryField
{
    inlet
    {
        type            calculated;
        value           nonuniform List<scalar> 10(-0.1 -0.1 -0.1 -0.1 -0.1 -0.1 -0.1 -0.1 -0.1 -0.1);
    }
    outlet
    {
        type            calculated;
        value           nonuniform List<scalar> 10(0.10997 0.123047 0.115757 0.0941678 0.0354073 0.048123 0.112893 0.134038 0.124131 0.102465);
    }
    obstacle
    {
        type            calculated;
        value           uniform 0;
    }
    upperWall
    {
        type            calculated;
        value           uniform 0;
    }
    lowerWall
    {
        type            calculated;
        value           uniform 0;
    }
    frontAndBack
    {
        type            empty;
        value           nonuniform List<scalar> 0();
    }
}


// ************************************************************************* //
