/*--------------------------------*- C++ -*----------------------------------*\
  =========                 |
  \\      /  F ield         | OpenFOAM: The Open Source CFD Toolbox
   \\    /   O peration     | Website:  https://openfoam.org
    \\  /    A nd           | Version:  10
     \\/     M anipulation  |
\*---------------------------------------------------------------------------*/
FoamFile
{
    format      ascii;
    class       surfaceScalarField;
    location    "5.025";
    object      phi;
}
// * * * * * * * * * * * * * * * * * * * * * * * * * * * * * * * * * * * * * //

dimensions      [0 3 -1 0 0 0 0];

internalField   nonuniform List<scalar> 
890
(
0.00984204
0.000157956
0.00971707
0.000124972
0.00947206
0.00024501
0.00940899
6.30729e-05
0.000142662
0.00926633
0.0101187
3.92731e-05
0.0102024
4.1281e-05
0.010409
3.83897e-05
0.010468
4.02725e-06
-6.89897e-05
0.0106797
0.0100741
-3.48752e-05
0.0102163
-0.000100878
0.0103744
-0.000119721
0.0105261
-0.000147667
-0.000184276
0.0106414
0.0100938
-0.000128698
0.0102129
-0.000219949
0.0103283
-0.000235102
0.0104203
-0.000239733
-0.000244924
0.010481
0.0098713
0.00965135
0.00941625
0.00917652
0.00893159
0.00926362
-9.10688e-05
9.37723e-05
0.00928394
-0.000250413
0.000230095
0.00938588
-0.00036326
0.00026132
0.00956698
-0.000452597
0.000271498
0.00979798
-0.000595469
0.000364467
0.0100482
-0.000825714
0.00057551
0.0102981
-0.0011241
0.000874192
0.010519
-0.00146336
0.0012425
0.0107118
-0.00184948
0.00165668
0.0108343
-0.00221845
0.00209593
0.0108723
-0.00255073
0.00251272
0.0108509
-0.00279122
0.00281266
0.0107268
-0.00287815
0.00300225
0.0104841
-0.00284098
0.00308364
0.0101741
-0.00266633
0.00297636
0.00981481
-0.00240083
0.00276008
0.00941612
-0.00206626
0.00246494
0.00897074
-0.00160394
0.00204933
0.0084982
-0.00111162
0.00158416
0.00804652
-0.000691004
0.00114268
0.00761096
-0.000265485
0.000701048
0.0071677
0.000181353
0.000261912
0.00673101
0.000550339
-0.000113654
0.00634744
0.000739368
-0.000355796
0.00606866
0.000778097
-0.000499317
0.00591943
0.000777339
-0.00062811
0.00588821
0.000813532
-0.000782317
0.00593816
0.000873732
-0.000923676
0.00602234
0.000903938
-0.000988118
0.00610341
0.000867806
-0.000948879
0.00616217
0.000767292
-0.000826056
0.00619568
0.000627703
-0.000661206
0.00620995
0.00047822
-0.000492489
0.00621306
0.00034077
-0.000343885
0.00621135
0.000227248
-0.000225541
0.00620851
0.000141084
-0.000138237
0.00620607
8.04138e-05
-7.79709e-05
0.0062044
4.04985e-05
-3.88344e-05
0.00620343
1.62546e-05
-1.5282e-05
0.00620298
2.55141e-06
-2.10197e-06
0.00620261
-3.93418e-06
4.30433e-06
0.00620231
-6.70339e-06
7.00387e-06
0.00620204
-6.55936e-06
6.83141e-06
0.00620176
-6.3318e-06
6.61234e-06
-4.29932e-06
4.48715e-06
0.0107485
-0.000159883
0.010789
-0.00029086
0.0108304
-0.0004047
0.0109154
-0.000537649
0.0110012
-0.00068125
0.011048
-0.000872442
0.0110558
-0.00113199
0.0110004
-0.00140791
0.0108885
-0.00173757
0.0106897
-0.00201963
0.0104291
-0.00229021
0.0101119
-0.00247398
0.00969209
-0.00245835
0.00918169
-0.00233058
0.00863428
-0.00211892
0.0080603
-0.00182685
0.007463
-0.00146896
0.00686853
-0.00100947
0.00629919
-0.000542275
0.00573714
-0.000128953
0.00519431
0.000277348
0.00471398
0.000661685
0.00438235
0.000881967
0.00423013
0.000891581
0.00422641
0.000781826
0.00432762
0.000676128
0.00450668
0.000634467
0.00473912
0.000641295
0.00499546
0.000647599
0.00524575
0.000617511
0.00546819
0.000544861
0.00565242
0.000443469
0.00579711
0.000333531
0.00590592
0.000231954
0.00598465
0.000148518
0.00603951
8.62256e-05
0.00607625
4.36775e-05
0.0060998
1.69496e-05
0.00611411
1.94198e-06
0.0061224
-5.73428e-06
0.00612681
-8.34419e-06
0.00612886
-8.761e-06
0.00612965
-7.34996e-06
0.00612974
-6.42306e-06
-4.09098e-06
0.0107351
-0.000253576
0.0107856
-0.000341339
0.0108087
-0.00042788
0.0108234
-0.000552259
0.0108037
-0.000661603
0.0107539
-0.000822651
0.0106293
-0.00100737
0.010453
-0.00123159
0.0102134
-0.00149802
0.00991557
-0.00172176
0.00959096
-0.0019656
0.00908416
-0.00196718
0.00845176
-0.00182594
0.00781739
-0.00169621
0.00709287
-0.0013944
0.0062837
-0.00101767
0.00549474
-0.000679996
0.00480848
-0.000323213
0.00424564
2.05597e-05
0.00377269
0.000344002
0.00343164
0.000618393
0.00329295
0.000800378
0.00334464
0.000830276
0.00350407
0.000732151
0.00369531
0.000590586
0.0038914
0.000480034
0.00410303
0.000422835
0.00434218
0.000402151
0.00460292
0.000386857
0.00486516
0.000355271
0.00510731
0.000302714
0.00531415
0.000236624
0.0054789
0.000168784
0.00560199
0.000108863
0.00568848
6.20321e-05
0.00574556
2.91443e-05
0.00578071
8.52677e-06
0.00580068
-3.02114e-06
0.0058109
-8.27682e-06
0.00581503
-9.8688e-06
0.00581592
-9.23484e-06
0.0058151
-7.93228e-06
0.00581376
-6.0161e-06
0.00581217
-4.83656e-06
-2.91958e-06
0.0105166
-0.000289189
0.0104957
-0.000320476
0.0104434
-0.000375583
0.0103224
-0.000431174
0.0101521
-0.000491341
0.00991826
-0.000588811
0.00957608
-0.000665191
0.0091655
-0.000821014
0.00860668
-0.000939195
0.00799368
-0.00110876
0.00733086
-0.00130278
0.00647189
-0.00110821
0.00535583
-0.000709884
0.00405059
-0.000390975
0.0028438
-0.000187604
0.00191491
-8.87906e-05
0.00130541
-7.04932e-05
0.00098776
-5.56195e-06
0.000906078
0.000102242
0.00101961
0.000230465
0.00129467
0.000343336
0.00169356
0.000401485
0.00213196
0.000391878
0.00253255
0.00033156
0.00286233
0.000260805
0.00313511
0.000207261
0.00338131
0.000176629
0.00362313
0.000160332
0.0038637
0.000146286
0.00409193
0.000127045
0.00429294
0.000101703
0.00445649
7.3078e-05
0.00457899
4.62835e-05
0.00466324
2.46132e-05
0.00471602
9.25099e-06
0.00474554
-3.76153e-07
0.00475908
-5.01468e-06
0.00476295
-6.88823e-06
0.00476164
-6.97411e-06
0.00475798
-6.20509e-06
0.00475378
-5.0357e-06
0.00474976
-3.91143e-06
0.00474655
-2.80218e-06
0.00474381
-2.10624e-06
-1.20387e-06
0.00864241
0.00832193
0.00794635
0.00751517
0.00702383
0.00643502
0.00576983
0.00494882
0.00400962
0.00290086
0.00159807
0.000489867
-0.000220017
-0.000610992
-0.000798596
-0.000887386
-0.00095788
-0.000963442
-0.0008612
-0.000630734
-0.000287398
0.000114087
0.000505965
0.000837526
0.00109833
0.00130559
0.00148222
0.00164255
0.00178884
0.00191588
0.00201759
0.00209066
0.00213695
0.00216156
0.00217081
0.00217044
0.00216542
0.00215853
0.00215156
0.00214535
0.00214032
0.00213641
0.0021336
0.0021315
3.21138e-05
-3.21138e-05
-8.91109e-05
0.000121225
-0.00053292
0.000443809
-0.00131061
0.000777686
-0.00220366
0.000893056
-0.00300056
0.000796898
-0.00360853
0.000607971
-0.00400074
0.000392214
-0.00415448
0.000153733
-0.00407708
-7.7399e-05
-0.0037907
-0.000286379
-0.00331367
-0.000477027
-0.00267505
-0.000638622
-0.00192623
-0.000748823
-0.00112256
-0.000803669
-0.000298443
-0.000824115
0.000512938
-0.000811381
0.0012752
-0.000762259
0.00196797
-0.000692769
0.00256449
-0.000596527
0.00303362
-0.000469128
0.0033474
-0.000313781
0.00348201
-0.000134606
0.00342907
5.29378e-05
0.0032164
0.00021267
0.0029095
0.000306903
0.00259465
0.000314852
0.00233538
0.000259269
0.00215501
0.000180361
0.00204869
0.000106324
0.0019996
4.90949e-05
0.00198862
1.09775e-05
0.0019986
-9.9859e-06
0.00201788
-1.92725e-05
0.0020394
-2.15262e-05
0.00205946
-2.00551e-05
0.00207653
-1.70705e-05
0.0020903
-1.37702e-05
0.00210097
-1.06697e-05
0.00210901
-8.04378e-06
0.00211489
-5.88069e-06
0.00211916
-4.26638e-06
0.00212209
-2.9311e-06
0.00212423
-2.14036e-06
-1.21069e-06
-0.000312377
0.000280263
-0.000893783
0.00070263
-0.00148774
0.00103776
-0.00197632
0.00126627
-0.00236413
0.00128086
-0.00263758
0.00107035
-0.00276705
0.000737436
-0.00274371
0.000368874
-0.00256086
-2.91134e-05
-0.00223593
-0.000402334
-0.00174424
-0.000778071
-0.00110891
-0.00111235
-0.000353472
-0.00139406
0.000469427
-0.00157172
0.00131269
-0.00164693
0.00215114
-0.00166256
0.00295285
-0.00161309
0.00367781
-0.00148722
0.00430734
-0.0013223
0.00484383
-0.00113302
0.00527399
-0.000899289
0.00559761
-0.000637393
0.00585394
-0.000390943
0.00606228
-0.000155397
0.00617548
9.94626e-05
0.00613528
0.000347106
0.00593476
0.000515372
0.00563642
0.000557614
0.00532725
0.000489527
0.00507018
0.000363396
0.00488804
0.000231234
0.00477507
0.000123943
0.00471434
5.07509e-05
0.00468775
7.31022e-06
0.00468029
-1.4063e-05
0.00468288
-2.26411e-05
0.00468995
-2.41472e-05
0.00469844
-2.22533e-05
0.00470666
-1.88916e-05
0.00471394
-1.53241e-05
0.00471993
-1.18691e-05
0.00472478
-9.12034e-06
0.00472835
-6.50304e-06
0.00473123
-5.01825e-06
-2.97473e-06
-0.000460258
0.000740522
-0.00058475
0.000827121
-0.000534524
0.000987537
-0.000403591
0.00113534
-0.000227325
0.0011046
-1.65863e-05
0.000859616
0.000232337
0.000488512
0.000533602
6.761e-05
0.000921384
-0.000416896
0.00142506
-0.000906012
0.00201252
-0.00136553
0.00265724
-0.00175707
0.00334761
-0.00208443
0.0040591
-0.00228321
0.00473909
-0.00232692
0.0053733
-0.00229677
0.00595262
-0.00219241
0.00643513
-0.00196973
0.00679781
-0.00168498
0.00705904
-0.00139425
0.00722958
-0.00106983
0.007302
-0.000709814
0.00729909
-0.000388034
0.00728962
-0.000145929
0.00731119
7.78883e-05
0.00732159
0.000336715
0.00725405
0.000582905
0.00708268
0.000728987
0.00683646
0.000735744
0.00657041
0.000629451
0.00633133
0.00047031
0.00614263
0.000312641
0.0060072
0.000186185
0.00591644
9.80701e-05
0.00585955
4.2822e-05
0.00582575
1.11647e-05
0.0058072
-5.6017e-06
0.00579822
-1.3274e-05
0.00579478
-1.54451e-05
0.00579445
-1.49997e-05
0.00579562
-1.30345e-05
0.00579747
-1.09736e-05
0.00579927
-8.30749e-06
0.00580106
-6.80436e-06
-4.2042e-06
-0.0001173
0.000857822
0.000177539
0.000532283
0.000628599
0.000536476
0.00119128
0.000572652
0.00179954
0.000496339
0.0023982
0.000260962
0.00298435
-9.76369e-05
0.00357285
-0.000520899
0.00415121
-0.000995253
0.00474621
-0.00150101
0.00535963
-0.00197894
0.00595424
-0.00235168
0.00651781
-0.00264801
0.00706474
-0.00283014
0.00755151
-0.0028137
0.00794564
-0.0026909
0.00825093
-0.0024977
0.00846165
-0.00218046
0.00856861
-0.00179194
0.00857957
-0.0014052
0.00851982
-0.00101008
0.00840295
-0.000592942
0.00823113
-0.000216215
0.00803551
4.96873e-05
0.00786926
0.000244144
0.00775949
0.000446478
0.00767055
0.000671844
0.00754994
0.000849603
0.00737437
0.000911313
0.00715565
0.000848165
0.00692389
0.000702076
0.00670879
0.000527736
0.00652906
0.000365922
0.0063909
0.000236226
0.00629171
0.00014201
0.00622459
7.82844e-05
0.00618131
3.76828e-05
0.00615473
1.33004e-05
0.0061393
-1.26721e-08
0.00613092
-6.61959e-06
0.00612678
-8.89888e-06
0.00612507
-9.2618e-06
0.00612458
-7.81142e-06
0.00612472
-6.9481e-06
-4.53182e-06
0.000951594
0.00171397
0.00251177
0.00335592
0.00421672
0.0050532
0.00582975
0.00655135
0.00721277
0.00780769
0.00834146
0.00880244
0.00915668
0.00941019
0.00957285
0.00964203
0.00960927
0.00947814
0.00927037
0.00900784
0.00869881
0.00836778
0.00803791
0.0077318
0.00747663
0.007295
0.00718452
0.00711045
0.00703365
0.00693293
0.00680895
0.00667548
0.00654892
0.00644126
0.00635773
0.00629777
0.00625749
0.00623195
0.00621666
0.00620794
0.00620334
0.00620108
0.0062001
0.00619977
)
;

boundaryField
{
    inlet
    {
        type            calculated;
        value           nonuniform List<scalar> 5(-0.01 -0.01 -0.01 -0.01 -0.01);
    }
    outlet
    {
        type            calculated;
        value           nonuniform List<scalar> 10(0.00620157 0.00612954 0.005811 0.0047421 0.00213029 0.00212544 0.004733 0.00580229 0.00612505 0.00619972);
    }
    upperWall
    {
        type            calculated;
        value           uniform 0;
    }
    lowerWall
    {
        type            calculated;
        value           uniform 0;
    }
    frontAndBack
    {
        type            empty;
        value           nonuniform List<scalar> 0();
    }
}


// ************************************************************************* //
