/*--------------------------------*- C++ -*----------------------------------*\
  =========                 |
  \\      /  F ield         | OpenFOAM: The Open Source CFD Toolbox
   \\    /   O peration     | Website:  https://openfoam.org
    \\  /    A nd           | Version:  10
     \\/     M anipulation  |
\*---------------------------------------------------------------------------*/
FoamFile
{
    format      ascii;
    class       surfaceScalarField;
    location    "5.125";
    object      phi;
}
// * * * * * * * * * * * * * * * * * * * * * * * * * * * * * * * * * * * * * //

dimensions      [0 3 -1 0 0 0 0];

internalField   nonuniform List<scalar> 
22800
(
-2.16544e-06
2.55974e-06
-3.87572e-07
-7.22425e-06
5.02097e-06
3.78416e-08
-1.31399e-05
5.69212e-06
2.23565e-07
-1.92487e-05
5.79418e-06
3.14574e-07
-2.52923e-05
5.72609e-06
3.17485e-07
-3.11352e-05
5.57968e-06
2.6329e-07
-3.66493e-05
5.34738e-06
1.66656e-07
-4.16718e-05
4.99728e-06
2.52907e-08
-4.60175e-05
4.48944e-06
-1.43787e-07
-4.94466e-05
3.78965e-06
-3.60511e-07
-5.16856e-05
2.86572e-06
-6.2677e-07
-5.24335e-05
1.69559e-06
-9.47677e-07
-5.13926e-05
2.72772e-07
-1.31372e-06
-4.82995e-05
-1.39486e-06
-1.69824e-06
-4.29997e-05
-3.21672e-06
-2.08308e-06
-3.55044e-05
-5.07076e-06
-2.42454e-06
-2.61094e-05
-6.74632e-06
-2.64861e-06
-1.55814e-05
-7.87825e-06
-2.64982e-06
-5.48629e-06
-7.74162e-06
-2.35345e-06
-4.34548e-06
-1.14081e-06
-4.54933e-06
8.3533e-06
-1.24423e-06
-1.32509e-05
1.46152e-05
-8.9261e-07
-2.31256e-05
1.62707e-05
-7.03881e-07
-3.31898e-05
1.64079e-05
-5.49483e-07
-4.30246e-05
1.60351e-05
-4.74225e-07
-5.23853e-05
1.53894e-05
-4.48989e-07
-6.10493e-05
1.44716e-05
-4.60278e-07
-6.87662e-05
1.32235e-05
-5.09352e-07
-7.52454e-05
1.15711e-05
-6.0248e-07
-8.01485e-05
9.43849e-06
-7.45699e-07
-8.30876e-05
6.74874e-06
-9.43939e-07
-8.36713e-05
3.47908e-06
-1.1998e-06
-8.15253e-05
-3.50415e-07
-1.52281e-06
-7.62652e-05
-4.77812e-06
-1.87682e-06
-6.77075e-05
-9.53208e-06
-2.24238e-06
-5.59028e-05
-1.43085e-05
-2.56699e-06
-4.13002e-05
-1.85915e-05
-2.75739e-06
-2.50141e-05
-2.14752e-05
-2.68919e-06
-9.30002e-06
-2.11697e-05
-2.28599e-06
-1.28167e-05
-8.28836e-07
-5.32929e-06
1.53506e-05
-1.66797e-06
-1.53087e-05
2.59711e-05
-1.37648e-06
-2.65418e-05
2.86882e-05
-1.18443e-06
-3.79367e-05
2.8801e-05
-9.98317e-07
-4.90427e-05
2.80243e-05
-8.8318e-07
-5.95984e-05
2.67591e-05
-8.14031e-07
-6.93673e-05
2.50188e-05
-7.7821e-07
-7.80839e-05
2.27215e-05
-7.81387e-07
-8.54378e-05
1.97577e-05
-8.32723e-07
-9.10662e-05
1.6008e-05
-9.41133e-07
-9.45646e-05
1.13622e-05
-1.11511e-06
-9.54723e-05
5.74838e-06
-1.36161e-06
-9.32956e-05
-8.46039e-07
-1.68103e-06
-8.7616e-05
-8.40048e-06
-2.05726e-06
-7.81408e-05
-1.65444e-05
-2.46289e-06
-6.48435e-05
-2.47696e-05
-2.83625e-06
-4.81578e-05
-3.22136e-05
-3.0636e-06
-2.93217e-05
-3.7318e-05
-2.99322e-06
-1.09657e-05
-3.69903e-05
-2.53548e-06
-2.29192e-05
-8.63099e-07
-5.5721e-06
2.29248e-05
-2.0021e-06
-1.60913e-05
3.82626e-05
-1.77229e-06
-2.79224e-05
4.2103e-05
-1.58367e-06
-3.9934e-05
4.21908e-05
-1.37825e-06
-5.16787e-05
4.1008e-05
-1.2389e-06
-6.29083e-05
3.91317e-05
-1.14303e-06
-7.33998e-05
3.65907e-05
-1.08047e-06
-8.28988e-05
3.32777e-05
-1.0572e-06
-9.10977e-05
2.90416e-05
-1.08496e-06
-9.7621e-05
2.37113e-05
-1.17993e-06
-0.00010202
1.7115e-05
-1.35413e-06
-0.000103772
9.12035e-06
-1.61934e-06
-0.000102326
-2.96599e-07
-1.99605e-06
-9.7022e-05
-1.12643e-05
-2.43982e-06
-8.73976e-05
-2.32316e-05
-2.93723e-06
-7.32323e-05
-3.55222e-05
-3.4126e-06
-5.48617e-05
-4.68581e-05
-3.72618e-06
-3.36361e-05
-5.48579e-05
-3.68569e-06
-1.26245e-05
-5.48315e-05
-3.17033e-06
-3.43635e-05
-1.18021e-06
-5.70264e-06
3.09218e-05
-2.29439e-06
-1.66405e-05
5.13188e-05
-2.11828e-06
-2.89733e-05
5.63707e-05
-1.93489e-06
-4.1535e-05
5.64702e-05
-1.7177e-06
-5.38888e-05
5.49278e-05
-1.56601e-06
-6.58125e-05
5.25143e-05
-1.45883e-06
-7.71121e-05
4.92784e-05
-1.38812e-06
-8.75591e-05
4.50878e-05
-1.36314e-06
-9.68625e-05
3.9744e-05
-1.39893e-06
-0.000104643
3.30063e-05
-1.51423e-06
-0.000110414
2.46154e-05
-1.72961e-06
-0.000113563
1.4333e-05
-2.06416e-06
-0.000113368
2.04223e-06
-2.53352e-06
-0.000108985
-1.25192e-05
-3.12833e-06
-9.96e-05
-2.88101e-05
-3.80618e-06
-8.46636e-05
-4.5976e-05
-4.4827e-06
-6.42673e-05
-6.22794e-05
-4.97492e-06
-3.98298e-05
-7.42784e-05
-5.01708e-06
-1.50806e-05
-7.51561e-05
-4.42461e-06
-4.75458e-05
-1.89833e-06
-5.84239e-06
3.93656e-05
-2.60138e-06
-1.72522e-05
6.52069e-05
-2.47833e-06
-3.01612e-05
7.15816e-05
-2.30196e-06
-4.33584e-05
7.17442e-05
-2.07686e-06
-5.64212e-05
6.99096e-05
-1.91893e-06
-6.91641e-05
6.70663e-05
-1.80907e-06
-8.14367e-05
6.32927e-05
-1.7418e-06
-9.30543e-05
5.84355e-05
-1.73002e-06
-0.000103762
5.22457e-05
-1.79364e-06
-0.000113199
4.44e-05
-1.95744e-06
-0.00012085
3.45168e-05
-2.24956e-06
-0.000126017
2.21985e-05
-2.69886e-06
-0.00012777
7.12247e-06
-3.32736e-06
-0.000125007
-1.11024e-05
-4.18005e-06
-0.000116398
-3.22528e-05
-5.1661e-06
-0.00010085
-5.53256e-05
-6.19853e-06
-7.79756e-05
-7.81237e-05
-7.02993e-06
-4.91143e-05
-9.58708e-05
-7.2689e-06
-1.89233e-05
-9.87527e-05
-6.59438e-06
-6.32573e-05
-3.21178e-06
-6.01238e-06
4.83428e-05
-2.96486e-06
-1.79816e-05
8.00804e-05
-2.90425e-06
-3.15634e-05
8.79001e-05
-2.73664e-06
-4.54882e-05
8.81717e-05
-2.50265e-06
-5.93522e-05
8.61111e-05
-2.3376e-06
-7.30186e-05
8.29581e-05
-2.22539e-06
-8.63992e-05
7.88377e-05
-2.16434e-06
-9.93781e-05
7.35867e-05
-2.17233e-06
-0.000111768
6.69115e-05
-2.27576e-06
-0.00012326
5.84007e-05
-2.50875e-06
-0.000133356
4.75254e-05
-2.913e-06
-0.000141285
3.36629e-05
-3.53532e-06
-0.000145927
1.61812e-05
-4.41625e-06
-0.000145829
-5.54116e-06
-5.65911e-06
-0.000138984
-3.1941e-05
-7.15722e-06
-0.000123421
-6.20745e-05
-8.81428e-06
-9.78434e-05
-9.34098e-05
-1.02913e-05
-6.31266e-05
-0.000119597
-1.09903e-05
-2.50875e-05
-0.000126514
-1.02776e-05
-8.27609e-05
-5.5839e-06
-6.21351e-06
5.7971e-05
-3.41469e-06
-1.88333e-05
9.6134e-05
-3.43385e-06
-3.31717e-05
0.000105514
-3.27535e-06
-4.78853e-05
0.000105911
-3.02608e-06
-6.25936e-05
0.000103665
-2.84597e-06
-7.72237e-05
0.000100312
-2.72377e-06
-9.17716e-05
9.60491e-05
-2.66353e-06
-0.000106222
9.07266e-05
-2.69001e-06
-0.000120497
8.40261e-05
-2.83869e-06
-0.000134401
7.54614e-05
-3.1574e-06
-0.000147518
6.4352e-05
-3.70916e-06
-0.000159093
4.98089e-05
-4.57121e-06
-0.000167845
3.07711e-05
-5.83833e-06
-0.000171971
6.2347e-06
-7.64948e-06
-0.000168616
-2.53096e-05
-9.98664e-06
-0.000154481
-6.34794e-05
-1.27294e-05
-0.000126643
-0.000105812
-1.5436e-05
-8.46726e-05
-0.000144383
-1.71851e-05
-3.54521e-05
-0.000159067
-1.66675e-05
-0.000108119
-1.0094e-05
-6.45638e-06
6.84098e-05
-3.98238e-06
-1.9826e-05
0.00011361
-4.10669e-06
-3.49883e-05
0.000124631
-3.95506e-06
-5.0508e-05
0.000125108
-3.67677e-06
-6.60347e-05
0.000122656
-3.46438e-06
-8.15756e-05
0.000119167
-3.31438e-06
-9.72346e-05
0.000114947
-3.23906e-06
-0.000113132
0.000109896
-3.27239e-06
-0.000129356
0.000103712
-3.46207e-06
-0.000145899
9.58795e-05
-3.87502e-06
-0.000162547
8.56051e-05
-4.60532e-06
-0.000178704
7.17467e-05
-5.78034e-06
-0.000193126
5.27581e-05
-7.56576e-06
-0.000203478
2.67515e-05
-1.01644e-05
-0.000206483
-8.41958e-06
-1.38853e-05
-0.000196739
-5.47276e-05
-1.84951e-05
-0.000168637
-0.000110386
-2.35279e-05
-0.000118834
-0.000166567
-2.76184e-05
-5.40457e-05
-0.000195674
-2.81816e-05
-0.000142633
-1.95321e-05
-6.77896e-06
7.98999e-05
-4.71112e-06
-2.10285e-05
0.000132835
-4.975e-06
-3.70725e-05
0.000145498
-4.82307e-06
-5.33663e-05
0.000145892
-4.49063e-06
-6.95999e-05
0.000143105
-4.21502e-06
-8.58776e-05
0.000139449
-4.00452e-06
-0.000102434
0.000135386
-3.88304e-06
-0.000119556
0.000130915
-3.89618e-06
-0.000137553
0.000125816
-4.1069e-06
-0.000156699
0.000119633
-4.60696e-06
-0.000177128
0.000111569
-5.53427e-06
-0.000198625
0.000100338
-7.09474e-06
-0.000220266
8.39742e-05
-9.57506e-06
-0.000239838
5.9655e-05
-1.33313e-05
-0.000253174
2.38684e-05
-1.8952e-05
-0.000253276
-2.79364e-05
-2.66899e-05
-0.000230226
-9.7422e-05
-3.60141e-05
-0.000174944
-0.000176699
-4.51491e-05
-8.96673e-05
-0.000231378
-4.95739e-05
-0.000192251
-4.00493e-05
-7.27193e-06
9.28399e-05
-5.66815e-06
-2.26035e-05
0.000154282
-6.11576e-06
-3.95916e-05
0.000168434
-5.94729e-06
-5.65742e-05
0.000168392
-5.5171e-06
-7.33021e-05
0.000164959
-5.12606e-06
-8.99971e-05
0.000160944
-4.79998e-06
-0.000107038
0.000157006
-4.57871e-06
-0.000124896
0.000153294
-4.52137e-06
-0.000144133
0.000149761
-4.70796e-06
-0.000165388
0.000146146
-5.25843e-06
-0.00018931
0.000141853
-6.36293e-06
-0.000216371
0.000135726
-8.32615e-06
-0.000246482
0.000125703
-1.16179e-05
-0.000278236
0.000108316
-1.69077e-05
-0.000307544
7.82614e-05
-2.50844e-05
-0.000326646
2.86041e-05
-3.7439e-05
-0.000320286
-4.98525e-05
-5.39297e-05
-0.000269245
-0.000155126
-7.26136e-05
-0.000160523
-0.000252813
-8.72859e-05
-0.000267974
-8.48004e-05
-8.12528e-06
0.000107931
-6.96616e-06
-2.48766e-05
0.000178685
-7.65181e-06
-4.28922e-05
0.000193883
-7.43405e-06
-6.04183e-05
0.000192749
-6.83076e-06
-7.73105e-05
0.000188088
-6.23701e-06
-9.39389e-05
0.000183279
-5.70611e-06
-0.000110831
0.000179198
-5.2995e-06
-0.000128625
0.000176177
-5.08928e-06
-0.000148118
0.000174425
-5.17116e-06
-0.000170331
0.000174051
-5.69188e-06
-0.000196549
0.000174968
-6.89581e-06
-0.000228271
0.000176646
-9.19903e-06
-0.00026691
0.000177637
-1.32952e-05
-0.000313007
0.00017465
-2.02363e-05
-0.00036488
0.00016149
-3.13552e-05
-0.000415109
0.000127093
-4.82604e-05
-0.000446432
5.44743e-05
-7.3003e-05
-0.000422049
-7.64408e-05
-0.000103069
-0.000290558
-0.00025178
-0.000132525
-0.00040468
-0.000153851
-9.72499e-06
0.000126457
-8.80019e-06
-2.84595e-05
0.000207178
-9.75828e-06
-4.76127e-05
0.000222445
-9.40814e-06
-6.54496e-05
0.000219085
-8.49923e-06
-8.20289e-05
0.00021224
-7.57198e-06
-9.79277e-05
0.000205889
-6.71144e-06
-0.000113818
0.000201086
-5.99812e-06
-0.000130431
0.000198301
-5.51132e-06
-0.000148692
0.000198045
-5.35937e-06
-0.000169881
0.000200941
-5.70085e-06
-0.000195831
0.000207722
-6.80491e-06
-0.000229127
0.000219084
-9.14113e-06
-0.000273296
0.000235306
-1.35004e-05
-0.000332576
0.000254956
-2.10264e-05
-0.000410958
0.000272766
-3.28935e-05
-0.000507502
0.000273163
-4.9527e-05
-0.000604229
0.000220901
-6.96995e-05
-0.000635479
4.01711e-05
-8.53616e-05
-0.00049292
-0.000297859
-9.64804e-05
-0.000728342
-0.000169258
-1.29353e-05
0.000151015
-1.16228e-05
-3.4547e-05
0.000241867
-1.30773e-05
-5.48283e-05
0.000255274
-1.2548e-05
-7.24803e-05
0.000247838
-1.11014e-05
-8.80787e-05
0.000237343
-9.50459e-06
-0.000102477
0.000228262
-7.97472e-06
-0.000116379
0.000221656
-6.66762e-06
-0.000130487
0.000218098
-5.6881e-06
-0.000145671
0.000218349
-5.11971e-06
-0.000163185
0.00022355
-5.09449e-06
-0.000185051
0.000235429
-5.84172e-06
-0.000214555
0.000256321
-7.73249e-06
-0.000257294
0.000289286
-1.12416e-05
-0.000321904
0.000335889
-1.6323e-05
-0.000421785
0.000392951
-2.03038e-05
-0.000568301
0.000433521
-1.38413e-05
-0.000757048
0.000390844
1.88038e-05
-0.000890401
7.667e-05
9.68541e-05
-0.000736057
-0.000613255
0.000161052
-0.00141556
-4.88389e-05
-1.83583e-05
0.000185178
-1.58054e-05
-4.39961e-05
0.00028435
-1.68453e-05
-6.56399e-05
0.000292585
-1.56668e-05
-8.32092e-05
0.000278605
-1.31977e-05
-9.73167e-05
0.00026224
-1.079e-05
-0.000109188
0.000248685
-8.55205e-06
-0.000119761
0.00023884
-6.61156e-06
-0.000129678
0.000233062
-5.04594e-06
-0.000139474
0.00023207
-3.92509e-06
-0.000149829
0.000237206
-3.3012e-06
-0.000162182
0.000250993
-3.21114e-06
-0.000179234
0.000276932
-3.5597e-06
-0.000207831
0.000321452
-3.56767e-06
-0.000260829
0.000388161
7.25944e-07
-0.000368878
0.000478754
2.22457e-05
-0.000571563
0.000545349
9.08573e-05
-0.000895831
0.000474056
0.000241055
-0.0011507
-0.000112566
0.000444104
-0.000943401
-0.0013127
0.000492151
-0.00236502
6.05815e-06
-3.88711e-05
0.000247927
-2.38776e-05
-6.74379e-05
0.000339806
-2.68889e-05
-8.64206e-05
0.000335989
-2.44211e-05
-9.85582e-05
0.000310993
-2.02497e-05
-0.000107766
0.000287
-1.55527e-05
-0.000115463
0.000267545
-1.11617e-05
-0.000122089
0.000252833
-7.36725e-06
-0.000127409
0.00024269
-4.30828e-06
-0.000131066
0.000237736
-2.00867e-06
-0.00013237
0.0002389
-3.91493e-07
-0.000131343
0.000249269
6.98254e-07
-0.000128778
0.000272226
2.14119e-06
-0.000131599
0.000317457
6.81543e-06
-0.00015422
0.000386216
2.45656e-05
-0.000251443
0.000495327
8.06494e-05
-0.000492301
0.00056281
0.000223396
-0.000936647
0.000440765
0.000477637
-0.00126196
-0.000491183
0.000703927
-0.00102494
-0.0020931
0.000543379
-0.0032291
-0.000160855
-3.2653e-05
0.000319773
-3.91927e-05
-7.85619e-05
0.000422048
-3.63329e-05
-0.000105773
0.000394241
-3.10416e-05
-0.000122384
0.000349563
-2.19595e-05
-0.00012969
0.000309116
-1.48102e-05
-0.000131389
0.00027766
-8.41588e-06
-0.000129614
0.000254167
-3.10903e-06
-0.000125014
0.000236963
1.12643e-06
-0.000117381
0.000225729
4.37479e-06
-0.000104681
0.000219666
6.53394e-06
-8.50203e-05
0.000221626
7.98159e-06
-5.54942e-05
0.000232427
1.0273e-05
-1.83567e-05
0.000262504
1.78162e-05
1.07961e-05
0.000311927
4.51361e-05
-1.03189e-05
0.000398778
0.000117665
-0.000195213
0.000457945
0.000289759
-0.000613963
0.000298533
0.000560982
-0.0010093
-0.000794329
0.000698481
-0.000934692
-0.00251948
0.00035177
-0.00377061
-0.000393181
-0.000178492
0.000548765
-5.05005e-05
-0.000182173
0.000485041
-5.93126e-05
-0.000164584
0.000430052
-5.34002e-05
-0.000146333
0.000371905
-4.05924e-05
-0.000121851
0.000309875
-2.52404e-05
-9.59768e-05
0.000263546
-1.17609e-05
-7.04834e-05
0.00022996
-1.28653e-06
-4.45438e-05
0.000204464
6.55957e-06
-1.73246e-05
0.000186624
1.18856e-05
1.44284e-05
0.000173063
1.48507e-05
5.33107e-05
0.000167005
1.57388e-05
0.000105144
0.000164831
1.57632e-05
0.000172387
0.000175898
1.93622e-05
0.000256648
0.00019239
3.52767e-05
0.000334219
0.000230151
9.10563e-05
0.000339509
0.00023018
0.000222474
0.000171358
6.0952e-05
0.000405732
-0.000282201
-0.000846254
0.000505485
-0.000555858
-0.00241543
0.000169606
-0.00376046
-0.000566011
-0.000370941
0.00108052
-0.000160809
-0.000264096
0.00048829
-0.000110094
-0.000115957
0.000359149
-7.7236e-05
4.29734e-05
0.000258485
-4.55099e-05
0.000190808
0.000186013
-2.39726e-05
0.000322914
0.000138927
-7.48663e-06
0.000437154
0.000109942
5.77789e-06
0.000535479
9.0135e-05
1.60042e-05
0.000620608
7.79673e-05
2.35277e-05
0.000697431
6.86362e-05
2.76033e-05
0.000770405
6.51886e-05
2.88424e-05
0.000847517
6.20196e-05
2.56991e-05
0.000936518
6.5488e-05
2.14095e-05
0.00104829
6.37262e-05
1.68903e-05
0.00119405
5.9524e-05
2.48679e-05
0.00132523
1.62913e-05
8.27097e-05
0.00138904
-0.000132608
0.000129749
0.00100012
-0.000674012
0.000216679
0.000244643
-0.00170573
4.57801e-05
-0.00278445
-0.000731361
0.00122735
-0.000146837
0.00187057
-0.000154931
0.00238008
-0.000150355
0.00277218
-0.000133623
0.00307204
-0.000113841
0.00330778
-9.68183e-05
0.00349802
-8.02914e-05
0.00365421
-6.60565e-05
0.00378511
-5.29357e-05
0.00389487
-4.11216e-05
0.00399238
-3.23259e-05
0.00407787
-2.34668e-05
0.00416112
-1.77616e-05
0.00423924
-1.4392e-05
0.00430393
-5.17303e-06
0.00432564
-5.41193e-06
0.00417528
1.77525e-05
0.0035192
-1.79368e-05
0.00190713
-9.36565e-05
-0.000877325
-3.9976e-06
4.32453e-06
-7.145e-07
-1.27906e-05
9.26071e-06
-4.29868e-07
-2.29361e-05
1.06178e-05
-2.48755e-07
-3.31758e-05
1.06891e-05
-1.34832e-07
-4.30942e-05
1.03505e-05
-1.14652e-07
-5.24847e-05
9.81854e-06
-1.64787e-07
-6.11451e-05
9.09889e-06
-2.71792e-07
-6.88373e-05
8.15228e-06
-4.34774e-07
-7.526e-05
6.93536e-06
-6.56439e-07
-8.0078e-05
5.39916e-06
-9.41759e-07
-8.29149e-05
3.50322e-06
-1.29308e-06
-8.33777e-05
1.22415e-06
-1.70903e-06
-8.10761e-05
-1.43382e-06
-2.18146e-06
-7.56818e-05
-4.40713e-06
-2.68541e-06
-6.70089e-05
-7.57081e-06
-3.18515e-06
-5.50972e-05
-1.07124e-05
-3.62395e-06
-4.03627e-05
-1.34674e-05
-3.91568e-06
-2.39137e-05
-1.51472e-05
-3.95156e-06
-8.36226e-06
-1.42626e-05
-3.64232e-06
-7.23574e-06
-2.26734e-06
-9.18507e-06
1.38973e-05
-1.63194e-06
-2.55291e-05
2.62424e-05
-1.53027e-06
-4.38077e-05
2.95223e-05
-1.32976e-06
-6.20428e-05
2.951e-05
-1.13519e-06
-7.94943e-05
2.8357e-05
-1.02918e-06
-9.57347e-05
2.66047e-05
-9.94687e-07
-0.000110375
2.43003e-05
-1.02129e-06
-0.000122999
2.13793e-05
-1.1121e-06
-0.000133147
1.77552e-05
-1.27478e-06
-0.000140314
1.33386e-05
-1.51808e-06
-0.000143952
8.04466e-06
-1.84788e-06
-0.000143545
1.88141e-06
-2.26329e-06
-0.000138561
-5.17088e-06
-2.7697e-06
-0.000128583
-1.2942e-05
-3.32032e-06
-0.000113419
-2.11005e-05
-3.87672e-06
-9.32149e-05
-2.9117e-05
-4.36638e-06
-6.86652e-05
-3.60989e-05
-4.6756e-06
-4.14831e-05
-4.03507e-05
-4.66783e-06
-1.55394e-05
-3.82633e-05
-4.22892e-06
-2.11806e-05
-2.42342e-06
-1.11062e-05
2.54713e-05
-2.13576e-06
-3.03582e-05
4.62712e-05
-2.15316e-06
-5.1694e-05
5.16241e-05
-1.95051e-06
-7.28696e-05
5.14012e-05
-1.714e-06
-9.30609e-05
4.92242e-05
-1.55906e-06
-0.000111793
4.59958e-05
-1.47286e-06
-0.000128636
4.18127e-05
-1.4477e-06
-0.000143136
3.65885e-05
-1.49063e-06
-0.000154796
3.01961e-05
-1.61365e-06
-0.00016307
2.25013e-05
-1.82994e-06
-0.000167381
1.33908e-05
-2.15056e-06
-0.0001671
2.82165e-06
-2.58231e-06
-0.000161589
-9.2447e-06
-3.11841e-06
-0.000150348
-2.25094e-05
-3.73057e-06
-0.000133068
-3.64721e-05
-4.37165e-06
-0.000109805
-5.026e-05
-4.95606e-06
-8.12552e-05
-6.23685e-05
-5.34383e-06
-4.93449e-05
-6.98897e-05
-5.3645e-06
-1.8621e-05
-6.66462e-05
-4.87657e-06
-3.78869e-05
-2.77774e-06
-1.18603e-05
3.79031e-05
-2.57357e-06
-3.24549e-05
6.78017e-05
-2.7083e-06
-5.52335e-05
7.53312e-05
-2.51213e-06
-7.78364e-05
7.48742e-05
-2.24834e-06
-9.943e-05
7.16388e-05
-2.05996e-06
-0.00011955
6.6911e-05
-1.93825e-06
-0.000137778
6.08394e-05
-1.87887e-06
-0.000153668
5.33144e-05
-1.893e-06
-0.000166719
4.416e-05
-1.99784e-06
-0.000176363
3.31775e-05
-2.21272e-06
-0.000181954
2.0183e-05
-2.55494e-06
-0.000182793
5.07902e-06
-3.03845e-06
-0.000178077
-1.22797e-05
-3.67694e-06
-0.000167042
-3.15594e-05
-4.42471e-06
-0.000149109
-5.21056e-05
-5.23632e-06
-0.000124074
-7.26995e-05
-6.00779e-06
-9.2501e-05
-9.11041e-05
-6.56403e-06
-5.64938e-05
-0.000102902
-6.68011e-06
-2.13664e-05
-9.87871e-05
-6.15672e-06
-5.68198e-05
-3.61375e-06
-1.23983e-05
5.10006e-05
-2.9936e-06
-3.40924e-05
9.06225e-05
-3.2449e-06
-5.81112e-05
0.000100473
-3.05779e-06
-8.19937e-05
9.98134e-05
-2.7744e-06
-0.000104913
9.55568e-05
-2.56443e-06
-0.000126438
8.94005e-05
-2.42327e-06
-0.000146187
8.15503e-05
-2.35041e-06
-0.000163744
7.18703e-05
-2.3621e-06
-0.000178624
6.01231e-05
-2.4819e-06
-0.000190242
4.60183e-05
-2.73729e-06
-0.000197885
2.92527e-05
-3.15585e-06
-0.000200695
9.58821e-06
-3.76355e-06
-0.000197676
-1.32532e-05
-4.57929e-06
-0.000187692
-3.90978e-05
-5.57406e-06
-0.000169702
-6.7206e-05
-6.69506e-06
-0.000143016
-9.60542e-05
-7.8146e-06
-0.000107851
-0.000122547
-8.69743e-06
-6.6459e-05
-0.000140293
-9.0184e-06
-2.52944e-05
-0.000135913
-8.46323e-06
-7.88355e-05
-5.17705e-06
-1.30166e-05
6.48695e-05
-3.45372e-06
-3.59748e-05
0.000114935
-3.83259e-06
-6.14347e-05
0.000127287
-3.65634e-06
-8.68138e-05
0.000126471
-3.35539e-06
-0.000111297
0.000121249
-3.12812e-06
-0.000134503
0.000113772
-2.97482e-06
-0.000156107
0.000104312
-2.8999e-06
-0.000175751
9.27109e-05
-2.92606e-06
-0.000192994
7.86578e-05
-3.08524e-06
-0.00020726
6.17422e-05
-3.41621e-06
-0.000217779
4.14844e-05
-3.96157e-06
-0.000223539
1.74151e-05
-4.76588e-06
-0.000223279
-1.09752e-05
-5.86506e-06
-0.00021535
-4.39466e-05
-7.26074e-06
-0.000198022
-8.08083e-05
-8.89173e-06
-0.000169783
-0.000119884
-1.06068e-05
-0.000130147
-0.00015713
-1.2083e-05
-8.13219e-05
-0.000183564
-1.28223e-05
-3.13967e-05
-0.000180157
-1.22756e-05
-0.000105635
-7.80875e-06
-1.37838e-05
7.96924e-05
-4.00397e-06
-3.82709e-05
0.000141053
-4.53563e-06
-6.5454e-05
0.000156105
-4.37095e-06
-9.25994e-05
0.000155161
-4.04745e-06
-0.000118911
0.000149021
-3.79745e-06
-0.000144074
0.000140338
-3.62793e-06
-0.000167855
0.000129479
-3.55015e-06
-0.000189988
0.000116268
-3.59548e-06
-0.000210124
0.000100324
-3.80732e-06
-0.000227745
8.10953e-05
-4.24041e-06
-0.000242081
5.78672e-05
-4.95995e-06
-0.000251984
2.98225e-05
-6.04001e-06
-0.000255938
-3.88219e-06
-7.55522e-06
-0.00025163
-4.43547e-05
-9.55862e-06
-0.000236368
-9.12253e-05
-1.20025e-05
-0.00020731
-0.000143037
-1.47193e-05
-0.000162594
-0.000194871
-1.72674e-05
-0.000103821
-0.000234462
-1.88656e-05
-4.121e-05
-0.000234575
-1.84706e-05
-0.000140238
-1.2191e-05
-1.47185e-05
9.56842e-05
-4.688e-06
-4.10269e-05
0.000169339
-5.41078e-06
-7.0218e-05
0.000187276
-5.25547e-06
-9.93722e-05
0.000186185
-4.89571e-06
-0.00012772
0.000179129
-4.60635e-06
-0.000155043
0.00016934
-4.40378e-06
-0.000181229
0.00015731
-4.30881e-06
-0.000206163
0.000142876
-4.36433e-06
-0.00022965
0.000125603
-4.62906e-06
-0.000251326
0.000104794
-5.17999e-06
-0.00027052
7.94672e-05
-6.1155e-06
-0.000286063
4.83502e-05
-7.55598e-06
-0.00029619
1.00339e-05
-9.62757e-06
-0.00029798
-3.76763e-05
-1.25375e-05
-0.000287409
-9.55398e-05
-1.6243e-05
-0.000259628
-0.000162927
-2.06194e-05
-0.000210247
-0.000234593
-2.50958e-05
-0.000138971
-0.000294462
-2.846e-05
-5.80316e-05
-0.000303535
-2.86474e-05
-0.000188669
-1.96949e-05
-1.58502e-05
0.000113108
-5.556e-06
-4.4301e-05
0.000200206
-6.5228e-06
-7.57753e-05
0.000221165
-6.36941e-06
-0.000107129
0.00021981
-5.94763e-06
-0.000137633
0.000211756
-5.58717e-06
-0.00016719
0.000200901
-5.31784e-06
-0.000195861
0.000187915
-5.17343e-06
-0.00022374
0.000172694
-5.21151e-06
-0.000250884
0.000154794
-5.51012e-06
-0.000277205
0.000133416
-6.17554e-06
-0.000302312
0.000107321
-7.35247e-06
-0.000325252
7.4738e-05
-9.2277e-06
-0.000344081
3.33343e-05
-1.2037e-05
-0.000355667
-2.00903e-05
-1.61652e-05
-0.000354387
-8.89154e-05
-2.17895e-05
-0.000332625
-0.000174328
-2.88566e-05
-0.000281735
-0.00027225
-3.67603e-05
-0.00019694
-0.00036316
-4.37158e-05
-8.96802e-05
-0.000393209
-4.57668e-05
-0.000264633
-3.32478e-05
-1.72488e-05
0.000132323
-6.67687e-06
-4.82232e-05
0.000234163
-7.95808e-06
-8.22543e-05
0.000258163
-7.79002e-06
-0.000115934
0.000256261
-7.26231e-06
-0.000148591
0.000246975
-6.77711e-06
-0.00018029
0.000234979
-6.38334e-06
-0.000211307
0.000221181
-6.13201e-06
-0.000242016
0.000205605
-6.09825e-06
-0.000272827
0.000187881
-6.38277e-06
-0.000304098
0.000167208
-7.12767e-06
-0.000335967
0.000142196
-8.53943e-06
-0.000368039
0.000110631
-1.09169e-05
-0.000398792
6.91944e-05
-1.46815e-05
-0.000425308
1.34352e-05
-2.03409e-05
-0.00044084
-6.37253e-05
-2.861e-05
-0.000434763
-0.000167276
-3.98194e-05
-0.000392182
-0.000297247
-5.35988e-05
-0.000299048
-0.000433831
-6.76114e-05
-0.000155781
-0.000511057
-7.49929e-05
-0.000401367
-5.90971e-05
-1.90584e-05
0.000153867
-8.15418e-06
-5.3055e-05
0.000271886
-9.84157e-06
-8.99321e-05
0.000298719
-9.62636e-06
-0.000125987
0.00029572
-8.92067e-06
-0.000160645
0.000284731
-8.2245e-06
-0.000194173
0.000271321
-7.61396e-06
-0.000227107
0.000256698
-7.16249e-06
-0.000260155
0.000241096
-6.96441e-06
-0.000294175
0.000224336
-7.14303e-06
-0.000330144
0.000205794
-7.87603e-06
-0.00036905
0.000184173
-9.4346e-06
-0.000411627
0.000157122
-1.22393e-05
-0.000457781
0.000120643
-1.6913e-05
-0.000505334
6.84077e-05
-2.43272e-05
-0.000549497
-8.63365e-06
-3.60136e-05
-0.00057718
-0.000124104
-5.29275e-05
-0.00056627
-0.000286484
-7.5603e-05
-0.000484632
-0.000486607
-0.000101475
-0.000296817
-0.000665874
-0.000120285
-0.000677149
-0.000105835
-2.15562e-05
0.000178609
-1.01518e-05
-5.92804e-05
0.000314322
-1.2364e-05
-9.93265e-05
0.000343374
-1.20432e-05
-0.000137712
0.000338317
-1.10424e-05
-0.000174032
0.000324813
-9.99801e-06
-0.000208813
0.000309423
-9.0271e-06
-0.000242885
0.000293704
-8.23275e-06
-0.000277311
0.00027816
-7.72749e-06
-0.000313436
0.000262942
-7.65141e-06
-0.00035298
0.000247854
-8.2079e-06
-0.000398106
0.000232125
-9.72164e-06
-0.000451368
0.000213915
-1.27298e-05
-0.000515333
0.000189423
-1.81092e-05
-0.000591458
0.000151453
-2.71566e-05
-0.000678258
8.82589e-05
-4.14472e-05
-0.000767712
-1.91483e-05
-6.37629e-05
-0.000828896
-0.000203665
-9.46372e-05
-0.000791391
-0.000496963
-0.000130218
-0.000543725
-0.000887607
-0.000158458
-0.00121442
-0.000160302
-2.52471e-05
0.000207988
-1.29324e-05
-6.7734e-05
0.000362845
-1.57947e-05
-0.00011133
0.000392809
-1.52466e-05
-0.000151884
0.00038413
-1.37582e-05
-0.00018929
0.000366811
-1.21646e-05
-0.000224435
0.000348487
-1.06313e-05
-0.00025847
0.000331034
-9.29277e-06
-0.000292769
0.000315222
-8.27459e-06
-0.000329077
0.000301611
-7.72162e-06
-0.000369796
0.000290705
-7.83269e-06
-0.00041835
0.0002828
-8.92615e-06
-0.000479603
0.00027757
-1.15428e-05
-0.000560253
0.000273151
-1.65788e-05
-0.000668661
0.000264134
-2.53001e-05
-0.000812419
0.000237993
-3.88689e-05
-0.000987514
0.000163263
-5.68424e-05
-0.00114933
-3.62968e-05
-7.52501e-05
-0.00115764
-0.00049313
-8.0887e-05
-0.00081323
-0.00124779
-8.07033e-05
-0.00205557
-0.000141346
-3.14227e-05
0.000244812
-1.70243e-05
-8.02068e-05
0.000419401
-2.08494e-05
-0.000127441
0.000447448
-1.99534e-05
-0.000169459
0.000432715
-1.76682e-05
-0.000207015
0.000409976
-1.51132e-05
-0.000241433
0.000387528
-1.2598e-05
-0.000274032
0.000367306
-1.03404e-05
-0.000306299
0.000350292
-8.4903e-06
-0.000340186
0.000337542
-7.16349e-06
-0.000378486
0.000330408
-6.49736e-06
-0.000425568
0.000330735
-6.69539e-06
-0.000488374
0.000340693
-8.04939e-06
-0.000577913
0.00036233
-1.08815e-05
-0.000709372
0.000394004
-1.4734e-05
-0.000897979
0.000421778
-1.54822e-05
-0.00113577
0.000387154
5.43186e-08
-0.00135799
0.000147828
5.6901e-05
-0.00137296
-0.000548669
0.000167362
-0.00091914
-0.00175269
0.000212134
-0.00298794
-3.56098e-05
-3.92572e-05
0.00029111
-2.28454e-05
-9.6348e-05
0.000486753
-2.71062e-05
-0.000148654
0.000509448
-2.53611e-05
-0.000193077
0.000485632
-2.16911e-05
-0.000230221
0.000454202
-1.78718e-05
-0.000262254
0.00042517
-1.41619e-05
-0.000291125
0.000400348
-1.07823e-05
-0.000318511
0.00038049
-7.85772e-06
-0.000346146
0.000366709
-5.45796e-06
-0.000376335
0.000360897
-3.60027e-06
-0.000413204
0.000366565
-2.1721e-06
-0.000463812
0.000388475
-7.33826e-07
-0.000540967
0.00043369
2.22636e-06
-0.000661986
0.000503455
1.22947e-05
-0.000845523
0.00058127
4.6291e-05
-0.00108095
0.000572674
0.000140763
-0.00132316
0.000292982
0.000338114
-0.00134883
-0.000644056
0.000565163
-0.000859271
-0.00224848
0.000498381
-0.00379002
-5.11276e-05
-7.20734e-05
0.000371887
-3.25813e-05
-0.000135611
0.000562681
-3.92792e-05
-0.000184518
0.000570134
-3.61998e-05
-0.000222109
0.000533528
-3.05559e-05
-0.00025379
0.000494437
-2.41073e-05
-0.000281444
0.000459459
-1.77954e-05
-0.000305973
0.000429559
-1.20499e-05
-0.000327763
0.000405052
-7.08073e-06
-0.00034742
0.000387261
-2.90357e-06
-0.000365644
0.000378125
6.04339e-07
-0.000384629
0.000382275
3.97299e-06
-0.000408191
0.000405431
8.74817e-06
-0.000446494
0.000459457
1.93505e-05
-0.000510822
0.000544188
4.81593e-05
-0.00062661
0.000652737
0.000124971
-0.000787452
0.000654703
0.000302209
-0.00100254
0.000382197
0.000603508
-0.00106827
-0.000691796
0.000817397
-0.000675
-0.00256483
0.000466458
-0.00438896
-0.000236916
-5.22574e-05
0.000434432
-4.94803e-05
-0.000146907
0.000674779
-5.37821e-05
-0.000216841
0.000656214
-4.71867e-05
-0.000265023
0.000596162
-3.64112e-05
-0.000297113
0.000538365
-2.66479e-05
-0.00031809
0.000489417
-1.73969e-05
-0.000331403
0.000448928
-9.16587e-06
-0.000338711
0.000415555
-2.06747e-06
-0.00034057
0.000389817
3.67782e-06
-0.0003359
0.000371473
8.51567e-06
-0.000324152
0.000365194
1.33136e-05
-0.000302253
0.000373429
2.03769e-05
-0.000272447
0.000411565
3.59029e-05
-0.00023258
0.000474049
7.54086e-05
-0.000208776
0.000575682
0.000170915
-0.000229225
0.000597222
0.000367689
-0.000332033
0.000382898
0.000663089
-0.000462494
-0.000623655
0.0007608
-0.000281794
-0.00264048
0.000246714
-0.00465341
-0.000410522
-0.000197195
0.000641263
-6.0137e-05
-0.000244058
0.0007372
-7.48707e-05
-0.000283449
0.000712217
-7.00126e-05
-0.000314661
0.000642642
-5.58602e-05
-0.000322112
0.000559363
-3.87872e-05
-0.000312784
0.000491138
-2.28105e-05
-0.000292572
0.000436509
-9.07898e-06
-0.000263166
0.000390726
1.98178e-06
-0.000227392
0.000355561
1.0368e-05
-0.000183003
0.000325311
1.66233e-05
-0.000130567
0.000307217
2.1281e-05
-6.28929e-05
0.000295115
2.64026e-05
2.65451e-05
0.000304792
3.66974e-05
0.00014182
0.00032855
6.55009e-05
0.000299876
0.000376334
0.000132348
0.000460441
0.00038378
0.00027535
0.000626467
0.000178629
0.000443975
0.000546002
-0.000549727
0.000512023
0.000387223
-0.00240095
8.8859e-05
-0.00432746
-0.000504738
-0.000664854
0.00129242
-0.000147112
-0.000627229
0.000716174
-0.000126693
-0.000492651
0.00059756
-9.71575e-05
-0.000305588
0.000479329
-6.92608e-05
-0.000109867
0.000387279
-4.76094e-05
8.1905e-05
0.000320196
-2.83162e-05
0.000262871
0.000272782
-1.14618e-05
0.000431716
0.000235245
2.64063e-06
0.000588691
0.000208382
1.37312e-05
0.000735312
0.000184278
2.20151e-05
0.000874688
0.000169388
2.72949e-05
0.00101069
0.000155941
2.88711e-05
0.00115616
0.000150656
3.0073e-05
0.00131872
0.000150407
3.24751e-05
0.00154027
0.000137618
4.20307e-05
0.00179274
0.000109198
0.00010483
0.00204438
-7.19814e-05
0.000128715
0.00205517
-0.000505219
0.000161385
0.00139415
-0.00170105
6.90049e-06
-0.00311236
-0.00055232
0.00127104
-0.000125455
0.00197464
-0.00014236
0.00256553
-0.000143678
0.00304663
-0.000135402
0.00344285
-0.000122776
0.00377614
-0.000109917
0.00406508
-9.64497e-05
0.00431706
-8.27925e-05
0.00454271
-7.02021e-05
0.0047429
-5.7034e-05
0.00492588
-4.59153e-05
0.0050944
-3.60496e-05
0.00525229
-2.49921e-05
0.00541062
-2.23097e-05
0.00555073
-7.66943e-06
0.00566766
-1.31406e-05
0.00560198
1.14435e-05
0.00511721
-3.83795e-05
0.00340784
-8.5337e-05
-0.000581845
-4.5139e-06
4.66003e-06
-8.60636e-07
-1.44529e-05
1.03826e-05
-8.73479e-07
-2.58914e-05
1.19615e-05
-7.71733e-07
-3.73606e-05
1.20137e-05
-6.79274e-07
-4.8396e-05
1.15706e-05
-6.49918e-07
-5.8776e-05
1.08945e-05
-6.79237e-07
-6.82827e-05
9.99817e-06
-7.63334e-07
-7.66543e-05
8.84113e-06
-9.04255e-07