/*--------------------------------*- C++ -*----------------------------------*\
  =========                 |
  \\      /  F ield         | OpenFOAM: The Open Source CFD Toolbox
   \\    /   O peration     | Website:  https://openfoam.org
    \\  /    A nd           | Version:  10
     \\/     M anipulation  |
\*---------------------------------------------------------------------------*/
FoamFile
{
    format      ascii;
    class       volScalarField;
    location    "6.375";
    object      p;
}
// * * * * * * * * * * * * * * * * * * * * * * * * * * * * * * * * * * * * * //

dimensions      [0 2 -2 0 0 0 0];

internalField   nonuniform List<scalar> 
400
(
-3.07304e-09
-2.0676e-05
2.59178e-05
0.000116251
0.000256716
0.000448925
0.000695096
0.000997673
0.00135833
0.00177713
0.00225142
0.00277446
0.00333401
0.00391091
0.00447804
0.00500106
0.00544036
0.0057563
0.00593965
0.00592051
2.13472e-05
2.16125e-07
5.14657e-05
0.000142104
0.000280111
0.000467887
0.000708159
0.00100374
0.00135666
0.00176744
0.00223402
0.00275034
0.00330456
0.00387925
0.00444747
0.00497472
0.00542008
0.00574272
0.00593529
0.00591108
-3.20682e-05
-6.00866e-05
-1.04796e-05
7.66327e-05
0.000210063
0.00039251
0.000627283
0.000918071
0.00126806
0.00167917
0.00215096
0.00267921
0.00325487
0.00386016
0.0044674
0.00503872
0.00552681
0.00588147
0.00609283
0.00605109
-0.000141225
-0.000174244
-0.000127542
-4.57514e-05
8.08678e-05
0.000255481
0.000482294
0.000766306
0.0011125
0.00152507
0.00200632
0.002555
0.00316427
0.00381982
0.00449284
0.00514067
0.00570484
0.00611781
0.00636456
0.0063008
-0.000312127
-0.000349794
-0.000307613
-0.000233258
-0.00011602
4.78621e-05
0.000263719
0.000538226
0.000878696
0.0012925
0.00178594
0.00236228
0.00301906
0.00374616
0.00451511
0.00527761
0.00596058
0.00646882
0.00677483
0.0066756
-0.000543974
-0.000586717
-0.000550771
-0.000486402
-0.000381976
-0.000233119
-3.32798e-05
0.000226108
0.000555107
0.000965003
0.00146743
0.00207197
0.00278179
0.00360073
0.00449838
0.00542363
0.00628461
0.00694481
0.00734949
0.0071884
-0.000834579
-0.000883306
-0.0008555
-0.000804286
-0.000717234
-0.000589501
-0.00041344
-0.00017864
0.000127872
0.000521836
0.00102158
0.00164692
0.00241624
0.003327
0.00438028
0.00552383
0.00664517
0.00754891
0.00812502
0.00785767
-0.00118126
-0.00123716
-0.00121959
-0.00118524
-0.00112116
-0.00102243
-0.000880756
-0.000684371
-0.000417821
-6.11389e-05
0.000410809
0.00102843
0.00182433
0.00282399
0.00404866
0.00546514
0.00695608
0.00825682
0.00914636
0.00871598
-0.00158056
-0.00164496
-0.00163962
-0.00162602
-0.00159108
-0.00153047
-0.00143621
-0.00129629
-0.00109407
-0.000806794
-0.000403668
0.000156373
0.000925922
0.00196459
0.00331327
0.00501168
0.0069884
0.00894615
0.0104056
0.00983934
-0.00202819
-0.00210238
-0.00211064
-0.00212112
-0.00212119
-0.0021081
-0.00207545
-0.00201283
-0.00190512
-0.00173032
-0.00145656
-0.00103794
-0.000409388
0.000515665
0.00183645
0.0036594
0.00612295
0.0091109
0.0115964
0.0112191
-0.00251934
-0.00260441
-0.00262609
-0.00266226
-0.00270159
-0.00274401
-0.00278642
-0.00282238
-0.00284179
-0.00282929
-0.00276169
-0.0026038
-0.00230044
-0.00176964
-0.000901899
0.000486705
0.00288705
0.00694485
0.011064
0.0123244
-0.00304967
-0.00314599
-0.00317777
-0.00323794
-0.0033172
-0.00341942
-0.00354647
-0.00369841
-0.00387451
-0.00407316
-0.00429254
-0.00453248
-0.00480019
-0.00513746
-0.0056658
-0.00635402
-0.00607269
-0.00205384
0.00431069
0.00962963
-0.00361747
-0.00372481
-0.00375955
-0.00383733
-0.00395084
-0.00410987
-0.00432299
-0.00459867
-0.00494942
-0.00539506
-0.00596966
-0.006737
-0.00782563
-0.0095173
-0.0124839
-0.0170845
-0.0215942
-0.0188612
-0.0107273
5.066e-05
-0.00422078
-0.00433015
-0.00434742
-0.00442696
-0.00456365
-0.00477143
-0.00506281
-0.00545537
-0.00597564
-0.00666712
-0.00760673
-0.00893843
-0.0109557
-0.0141925
-0.0199262
-0.0286074
-0.0389152
-0.0389597
-0.0304619
-0.0146999
-0.00489172
-0.00501403
-0.00499747
-0.00506576
-0.00519745
-0.00542047
-0.00575539
-0.006228
-0.00687582
-0.00775928
-0.00898476
-0.0107366
-0.0134385
-0.0176988
-0.0251866
-0.0359317
-0.0495594
-0.0511186
-0.043577
-0.0254587
-0.00571062
-0.00563825
-0.00550891
-0.00548295
-0.0055882
-0.00583119
-0.00621782
-0.00676366
-0.0075034
-0.00849799
-0.00986105
-0.0117598
-0.0146838
-0.0190486
-0.0266892
-0.0368107
-0.0487944
-0.0503344
-0.0442182
-0.0230303
-0.0062034
-0.0066364
-0.00635519
-0.00637705
-0.0063841
-0.0065243
-0.00681413
-0.00728615
-0.00797726
-0.00893572
-0.010268
-0.0120611
-0.0147967
-0.0187146
-0.0250975
-0.0327293
-0.0409568
-0.0407539
-0.0336545
-0.00446358
-0.00957719
-0.00706731
-0.00645613
-0.00590229
-0.00585734
-0.00606929
-0.00648147
-0.00706008
-0.0078226
-0.00878891
-0.0100918
-0.0116667
-0.0140837
-0.0172949
-0.0220319
-0.0267938
-0.0312749
-0.0273704
-0.0145284
0.031182
-0.00630196
-0.00930562
-0.0082726
-0.00831916
-0.0079038
-0.00770332
-0.0076872
-0.00789824
-0.00836959
-0.00908426
-0.010151
-0.0115648
-0.0137775
-0.0166117
-0.0211801
-0.0249823
-0.0275043
-0.014957
0.0128137
0.091387
-0.0314737
-0.00646134
-0.00499947
-0.00428277
-0.00411587
-0.00437267
-0.00493149
-0.00561456
-0.00649807
-0.00748919
-0.00887579
-0.0104825
-0.0127685
-0.0152297
-0.0177535
-0.0168918
-0.00918243
0.0235788
0.0929028
0.226575
)
;

boundaryField
{
    movingWall
    {
        type            zeroGradient;
    }
    fixedWalls
    {
        type            zeroGradient;
    }
    frontAndBack
    {
        type            empty;
    }
}


// ************************************************************************* //
