/*--------------------------------*- C++ -*----------------------------------*\
  =========                 |
  \\      /  F ield         | OpenFOAM: The Open Source CFD Toolbox
   \\    /   O peration     | Website:  https://openfoam.org
    \\  /    A nd           | Version:  10
     \\/     M anipulation  |
\*---------------------------------------------------------------------------*/
FoamFile
{
    format      ascii;
    class       volVectorField;
    location    "6.375";
    object      U;
}
// * * * * * * * * * * * * * * * * * * * * * * * * * * * * * * * * * * * * * //

dimensions      [0 1 -1 0 0 0 0];

internalField   nonuniform List<vector> 
400
(
(-0.000110659 0.000101401 0)
(-0.000904165 0.000342698 0)
(-0.00225182 0.000426807 0)
(-0.00360187 0.000447084 0)
(-0.00496611 0.000450379 0)
(-0.00630499 0.000449991 0)
(-0.00759795 0.000445136 0)
(-0.00882078 0.000431104 0)
(-0.00993816 0.000402179 0)
(-0.0109023 0.000352092 0)
(-0.0116521 0.000274446 0)
(-0.0121138 0.00016367 0)
(-0.0122035 1.56347e-05 0)
(-0.0118342 -0.00017145 0)
(-0.01093 -0.000389764 0)
(-0.00944431 -0.000621184 0)
(-0.00739461 -0.000829799 0)
(-0.00494355 -0.000953428 0)
(-0.00218474 -0.000883475 0)
(-0.000358765 -0.000400715 0)
(-0.000378832 0.000915715 0)
(-0.00203207 0.00194714 0)
(-0.00455432 0.00229658 0)
(-0.00706954 0.00236347 0)
(-0.00957558 0.00233329 0)
(-0.0119934 0.00226128 0)
(-0.0142735 0.0021498 0)
(-0.0163658 0.00198546 0)
(-0.0182078 0.00175019 0)
(-0.0197224 0.00142402 0)
(-0.0208161 0.000986632 0)
(-0.021382 0.000419867 0)
(-0.0213044 -0.000287093 0)
(-0.0204644 -0.00112468 0)
(-0.0187612 -0.00205778 0)
(-0.0161417 -0.00301152 0)
(-0.012652 -0.00384731 0)
(-0.00853956 -0.0043237 0)
(-0.00396504 -0.00403084 0)
(-0.000776227 -0.0021253 0)
(-0.000489781 0.00236642 0)
(-0.00251789 0.00452318 0)
(-0.00554872 0.00523103 0)
(-0.00854826 0.00533951 0)
(-0.0115192 0.00522691 0)
(-0.0143703 0.00500696 0)
(-0.017045 0.00468989 0)
(-0.0194879 0.00425458 0)
(-0.0216312 0.00366984 0)
(-0.023392 0.00290006 0)
(-0.0246711 0.00190889 0)
(-0.0253519 0.000664782 0)
(-0.0252972 -0.000848579 0)
(-0.0243615 -0.0026158 0)
(-0.0224168 -0.00456743 0)
(-0.0193767 -0.0065538 0)
(-0.0152652 -0.00829448 0)
(-0.0103558 -0.00929296 0)
(-0.00482708 -0.00871405 0)
(-0.000947191 -0.00483381 0)
(-0.000524394 0.00389262 0)
(-0.00271042 0.0072427 0)
(-0.00597236 0.00831311 0)
(-0.00918937 0.00845266 0)
(-0.0123773 0.00824989 0)
(-0.0154446 0.00787951 0)
(-0.0183392 0.00735938 0)
(-0.0210107 0.00666063 0)
(-0.0233955 0.00573816 0)
(-0.0254131 0.00453816 0)
(-0.0269616 0.00300365 0)
(-0.0279141 0.00108367 0)
(-0.0281142 -0.00125252 0)
(-0.0273732 -0.00400229 0)
(-0.0254947 -0.00707575 0)
(-0.0223122 -0.0102543 0)
(-0.0177752 -0.0130992 0)
(-0.0121622 -0.0147954 0)
(-0.00566542 -0.0139664 0)
(-0.00108683 -0.0078244 0)
(-0.000534327 0.00549455 0)
(-0.00280977 0.0101129 0)
(-0.00622189 0.0115657 0)
(-0.0095872 0.0117421 0)
(-0.0129358 0.0114567 0)
(-0.0161809 0.0109494 0)
(-0.0192809 0.010247 0)
(-0.0221968 0.00931313 0)
(-0.0248758 0.00808765 0)
(-0.0272457 0.00649466 0)
(-0.0292053 0.00444789 0)
(-0.0306158 0.0018618 0)
(-0.0312937 -0.00133024 0)
(-0.0309905 -0.00515947 0)
(-0.0294073 -0.00954 0)
(-0.0262426 -0.0141976 0)
(-0.0212929 -0.0185085 0)
(-0.0147856 -0.021235 0)
(-0.00691176 -0.0202413 0)
(-0.00129483 -0.0113657 0)
(-0.000539905 0.00714311 0)
(-0.00289589 0.0131001 0)
(-0.00645238 0.01496 0)
(-0.00996532 0.0151859 0)
(-0.0134794 0.0148354 0)
(-0.0169156 0.0142194 0)
(-0.0202471 0.0133763 0)
(-0.0234524 0.0122631 0)
(-0.0264972 0.0108039 0)
(-0.0293264 0.00889686 0)
(-0.0318488 0.00641614 0)
(-0.0339203 0.00322094 0)
(-0.035336 -0.000826153 0)
(-0.0357743 -0.00581279 0)
(-0.0347949 -0.0117293 0)
(-0.0318892 -0.0182788 0)
(-0.0265836 -0.024632 0)
(-0.0189175 -0.0289843 0)
(-0.00897699 -0.0280628 0)
(-0.00166085 -0.0157686 0)
(-0.000546139 0.00883685 0)
(-0.00299154 0.016207 0)
(-0.00670768 0.0185013 0)
(-0.010382 0.0187916 0)
(-0.0140751 0.0183975 0)
(-0.017718 0.0177089 0)
(-0.0213035 0.0167798 0)
(-0.0248346 0.0155637 0)
(-0.0283055 0.0139706 0)
(-0.0316924 0.0118702 0)
(-0.0349336 0.00908847 0)
(-0.0379036 0.00540771 0)
(-0.0403724 0.000583186 0)
(-0.0419724 -0.00559587 0)
(-0.0421163 -0.0132788 0)
(-0.0399841 -0.022247 0)
(-0.0346632 -0.0315103 0)
(-0.0257018 -0.0385474 0)
(-0.0127093 -0.0383246 0)
(-0.00239587 -0.0216546 0)
(-0.000553434 0.0105831 0)
(-0.00310095 0.0194497 0)
(-0.006995 0.0222062 0)
(-0.0108411 0.0225724 0)
(-0.0147179 0.0221541 0)
(-0.0185682 0.0214304 0)
(-0.0224093 0.0204773 0)
(-0.0262763 0.0192519 0)
(-0.0302047 0.0176553 0)
(-0.0342211 0.0155328 0)
(-0.0383226 0.0126604 0)
(-0.0424377 0.00872985 0)
(-0.0463662 0.00334932 0)
(-0.0497385 -0.00393082 0)
(-0.0518502 -0.0135038 0)
(-0.0515457 -0.0254468 0)
(-0.047272 -0.0388223 0)
(-0.0374832 -0.0504164 0)
(-0.0202292 -0.0525128 0)
(-0.00409652 -0.0303948 0)
(-0.000562419 0.01239 0)
(-0.00322706 0.0228455 0)
(-0.00731674 0.0260872 0)
(-0.0113368 0.0265318 0)
(-0.0153868 0.0261 0)
(-0.0194223 0.0253729 0)
(-0.0234888 0.0244583 0)
(-0.0276612 0.0233272 0)
(-0.032029 0.0218854 0)
(-0.0366921 0.0199673 0)
(-0.041743 0.0173093 0)
(-0.0472294 0.0135132 0)
(-0.0530867 0.0080074 0)
(-0.0590426 4.31445e-05 0)
(-0.0644527 -0.0111712 0)
(-0.0680163 -0.0263549 0)
(-0.0673928 -0.0452039 0)
(-0.0586989 -0.064565 0)
(-0.0360337 -0.0731177 0)
(-0.00818411 -0.0450378 0)
(-0.000576205 0.0142687 0)
(-0.00337959 0.0264135 0)
(-0.00768439 0.030152 0)
(-0.0118719 0.0306603 0)
(-0.0160671 0.0302086 0)
(-0.020238 0.0294952 0)
(-0.0244601 0.0286715 0)
(-0.0288521 0.027737 0)
(-0.033568 0.0266232 0)
(-0.0388026 0.0251826 0)
(-0.0447883 0.0231497 0)
(-0.0517756 0.0200754 0)
(-0.059972 0.0152427 0)
(-0.0694409 0.00760168 0)
(-0.0800783 -0.00421576 0)
(-0.0909876 -0.0218264 0)
(-0.0988419 -0.047228 0)
(-0.0946058 -0.0798148 0)
(-0.0648182 -0.104508 0)
(-0.0163119 -0.0721729 0)
(-0.000602599 0.016241 0)
(-0.00358163 0.0301809 0)
(-0.0081287 0.0344057 0)
(-0.0124696 0.034935 0)
(-0.0167634 0.0344297 0)
(-0.0209894 0.033721 0)
(-0.0252522 0.0330157 0)
(-0.0297125 0.032359 0)
(-0.0345871 0.031735 0)
(-0.0401723 0.0310585 0)
(-0.0468703 0.0301307 0)
(-0.055216 0.0285592 0)
(-0.0658909 0.0256424 0)
(-0.0797284 0.0202407 0)
(-0.0976892 0.0105575 0)
(-0.120154 -0.00688328 0)
(-0.141321 -0.0395636 0)
(-0.14165 -0.0956555 0)
(-0.10118 -0.15351 0)
(-0.0282785 -0.121152 0)
(-0.000658052 0.0183501 0)
(-0.00387924 0.0341972 0)
(-0.0087118 0.0388651 0)
(-0.0131854 0.0393324 0)
(-0.0175126 0.0386971 0)
(-0.0216837 0.0379409 0)
(-0.0258275 0.0373372 0)
(-0.0301363 0.0369918 0)
(-0.0348733 0.0369717 0)
(-0.0404173 0.0373112 0)
(-0.0473261 0.0379796 0)
(-0.0564342 0.0388197 0)
(-0.0689846 0.0394571 0)
(-0.086823 0.0391244 0)
(-0.112538 0.0356834 0)
(-0.146744 0.0211432 0)
(-0.177726 -0.0237279 0)
(-0.174456 -0.119977 0)
(-0.126986 -0.223684 0)
(-0.0423955 -0.198633 0)
(-0.000772755 0.020658 0)
(-0.00434788 0.0384765 0)
(-0.00953569 0.0434481 0)
(-0.014122 0.0437083 0)
(-0.0184043 0.0428396 0)
(-0.0223824 0.0419597 0)
(-0.0262071 0.0413926 0)
(-0.030082 0.0413125 0)
(-0.0342732 0.0418914 0)
(-0.0391778 0.0433299 0)
(-0.0454193 0.0458709 0)
(-0.0539993 0.0498046 0)
(-0.0664964 0.0554288 0)
(-0.0852682 0.0624771 0)
(-0.113555 0.0673963 0)
(-0.150192 0.0541198 0)
(-0.178344 -0.00907674 0)
(-0.16633 -0.150541 0)
(-0.133054 -0.294869 0)
(-0.0519015 -0.299521 0)
(-0.00103123 0.0234324 0)
(-0.00519825 0.0435082 0)
(-0.0108165 0.0487232 0)
(-0.0154222 0.0486166 0)
(-0.0195254 0.0472496 0)
(-0.0231634 0.0459606 0)
(-0.0264797 0.0451656 0)
(-0.0296421 0.0451158 0)
(-0.0328653 0.0460866 0)
(-0.0364633 0.0484602 0)
(-0.0409356 0.0528012 0)
(-0.047099 0.0599146 0)
(-0.0562635 0.0707942 0)
(-0.0698911 0.0849613 0)
(-0.0902256 0.0959921 0)
(-0.113966 0.0800567 0)
(-0.132549 0.00101193 0)
(-0.120484 -0.167169 0)
(-0.117964 -0.342642 0)
(-0.0439678 -0.400661 0)
(-0.00140196 0.0268304 0)
(-0.00619073 0.0480306 0)
(-0.0125137 0.0526498 0)
(-0.0173056 0.0516226 0)
(-0.021311 0.0497608 0)
(-0.0244869 0.0482733 0)
(-0.0270506 0.0474397 0)
(-0.0291611 0.047445 0)
(-0.0309338 0.0485911 0)
(-0.032483 0.0513733 0)
(-0.033992 0.0565861 0)
(-0.0356874 0.0653301 0)
(-0.0381387 0.0788965 0)
(-0.0411329 0.0959934 0)
(-0.0462339 0.108988 0)
(-0.0495437 0.0906562 0)
(-0.0577437 0.00728096 0)
(-0.0504409 -0.162788 0)
(-0.0805025 -0.361737 0)
(-0.0239285 -0.473392 0)
(-0.00347255 0.0299146 0)
(-0.0105677 0.0564065 0)
(-0.0163035 0.060955 0)
(-0.0202658 0.0594255 0)
(-0.0232317 0.0561426 0)
(-0.025567 0.0532314 0)
(-0.0273255 0.0511211 0)
(-0.0284626 0.0500477 0)
(-0.0288562 0.0502885 0)
(-0.028311 0.0522897 0)
(-0.0265817 0.0568433 0)
(-0.023114 0.0649573 0)
(-0.0179244 0.0779774 0)
(-0.00880341 0.0939752 0)
(0.00121495 0.106628 0)
(0.0181915 0.0895665 0)
(0.0189664 0.0123168 0)
(0.0213934 -0.138953 0)
(-0.0390607 -0.350774 0)
(-0.00456545 -0.509538 0)
(-0.00113517 0.0438333 0)
(-0.00856157 0.0587695 0)
(-0.0192908 0.0596099 0)
(-0.0236134 0.0551824 0)
(-0.0272931 0.051973 0)
(-0.0291387 0.04971 0)
(-0.0298784 0.0481944 0)
(-0.0295273 0.0473229 0)
(-0.0279876 0.047276 0)
(-0.0249148 0.0483626 0)
(-0.0198405 0.0513042 0)
(-0.0114792 0.0566016 0)
(0.000293047 0.0655292 0)
(0.0192078 0.076455 0)
(0.0400535 0.0843824 0)
(0.0704312 0.071149 0)
(0.0756303 0.00909926 0)
(0.0770836 -0.106068 0)
(-0.00138203 -0.320547 0)
(0.0213265 -0.518699 0)
(-0.0124538 0.0327075 0)
(-0.0241881 0.0798873 0)
(-0.0236057 0.0789312 0)
(-0.029724 0.0737861 0)
(-0.0315565 0.0664892 0)
(-0.0316331 0.0603363 0)
(-0.0298131 0.0552748 0)
(-0.0264017 0.0512643 0)
(-0.0214829 0.048291 0)
(-0.0147444 0.0462113 0)
(-0.00629362 0.0454355 0)
(0.00553113 0.0460824 0)
(0.0202519 0.0492163 0)
(0.041828 0.0534938 0)
(0.0628586 0.0578191 0)
(0.0972593 0.0496641 0)
(0.101981 0.0123456 0)
(0.123381 -0.0686069 0)
(0.0529652 -0.285815 0)
(0.0603206 -0.501485 0)
(-0.0773373 0.0965816 0)
(-0.0630707 0.0592797 0)
(-0.0655128 0.0599018 0)
(-0.0440299 0.0532277 0)
(-0.0269347 0.0463225 0)
(-0.00710452 0.0411665 0)
(0.0115936 0.0374225 0)
(0.0304779 0.034232 0)
(0.0478642 0.0318547 0)
(0.0664476 0.0296083 0)
(0.0825197 0.0282918 0)
(0.10275 0.027293 0)
(0.117554 0.0271625 0)
(0.14597 0.027608 0)
(0.157161 0.0243259 0)
(0.203696 0.0176586 0)
(0.197262 -0.0165187 0)
(0.235376 -0.0788183 0)
(0.163043 -0.260324 0)
(0.126444 -0.440126 0)
(0.119679 0.140779 0)
(0.1524 0.0861859 0)
(0.229193 0.0635897 0)
(0.284602 0.0481286 0)
(0.325839 0.037452 0)
(0.364209 0.0296518 0)
(0.392721 0.0242042 0)
(0.424021 0.0201989 0)
(0.443879 0.017267 0)
(0.472391 0.0150763 0)
(0.48513 0.013324 0)
(0.514801 0.0122539 0)
(0.51995 0.0111267 0)
(0.554081 0.0106319 0)
(0.549076 0.00899525 0)
(0.585203 0.00503343 0)
(0.556175 -0.00443776 0)
(0.564293 -0.0276926 0)
(0.427747 -0.0727425 0)
(0.276109 -0.152144 0)
)
;

boundaryField
{
    movingWall
    {
        type            fixedValue;
        value           uniform (1 0 0);
    }
    fixedWalls
    {
        type            noSlip;
    }
    frontAndBack
    {
        type            empty;
    }
}


// ************************************************************************* //
