/*--------------------------------*- C++ -*----------------------------------*\
  =========                 |
  \\      /  F ield         | OpenFOAM: The Open Source CFD Toolbox
   \\    /   O peration     | Website:  https://openfoam.org
    \\  /    A nd           | Version:  10
     \\/     M anipulation  |
\*---------------------------------------------------------------------------*/
FoamFile
{
    format      ascii;
    class       surfaceScalarField;
    location    "6.5";
    object      phi;
}
// * * * * * * * * * * * * * * * * * * * * * * * * * * * * * * * * * * * * * //

dimensions      [0 3 -1 0 0 0 0];

internalField   nonuniform List<scalar> 
760
(
-9.88285e-06
9.88285e-06
-3.23954e-05
2.25125e-05
-5.92331e-05
2.68377e-05
-8.6977e-05
2.77439e-05
-0.000114508
2.75308e-05
-0.000141391
2.68828e-05
-0.000167204
2.58139e-05
-0.000191342
2.41373e-05
-0.000212949
2.16074e-05
-0.0002309
1.79507e-05
-0.000243785
1.28855e-05
-0.000249945
6.15914e-06
-0.000247559
-2.38604e-06
-0.000234858
-1.27001e-05
-0.000210511
-2.43479e-05
-0.000174138
-3.63728e-05
-0.000127174
-4.69639e-05
-7.4176e-05
-5.29979e-05
-2.49478e-05
-4.92281e-05
-2.49478e-05
-2.37799e-05
3.36628e-05
-6.74478e-05
6.61804e-05
-0.000117716
7.7106e-05
-0.000169031
7.90584e-05
-0.000219252
7.77519e-05
-0.000267293
7.49238e-05
-0.000312182
7.0703e-05
-0.000352767
6.47222e-05
-0.000387612
5.6453e-05
-0.000414956
4.52948e-05
-0.000432685
3.06142e-05
-0.00043843
1.19042e-05
-0.000429769
-1.10473e-05
-0.000404221
-3.82475e-05
-0.000360141
-6.84279e-05
-0.000297313
-9.92008e-05
-0.000218173
-0.000126105
-0.000129817
-0.000141353
-4.6986e-05
-0.00013206
-7.19338e-05
-2.9741e-05
6.34037e-05
-8.26958e-05
0.000119135
-0.000142954
0.000137364
-0.000204025
0.00014013
-0.000263458
0.000137184
-0.000320004
0.00013147
-0.000372568
0.000123267
-0.000419891
0.000112045
-0.000460429
9.69906e-05
-0.000492284
7.71506e-05
-0.000513201
5.15307e-05
-0.00052057
1.92737e-05
-0.000511288
-2.03297e-05
-0.000482426
-6.71093e-05
-0.000431633
-0.000119221
-0.000358084
-0.00017275
-0.000264069
-0.00022012
-0.000157759
-0.000247663
-5.71915e-05
-0.000232627
-0.000129125
-3.20003e-05
9.54041e-05
-8.90544e-05
0.000176189
-0.000153787
0.000202097
-0.00021931
0.000205653
-0.000283158
0.000201032
-0.000344159
0.000192471
-0.000401315
0.000180423
-0.00045347
0.000164199
-0.000499165
0.000142686
-0.000536524
0.000114509
-0.000563148
7.81549e-05
-0.000576084
3.22097e-05
-0.000571743
-2.46703e-05
-0.000545843
-9.3009e-05
-0.000494515
-0.000170549
-0.000415207
-0.000252058
-0.000309184
-0.000326143
-0.000185586
-0.000371261
-6.67259e-05
-0.000351487
-0.000195851
-3.30433e-05
0.000128447
-9.25624e-05
0.000235708
-0.000160197
0.000269731
-0.00022882
0.000274276
-0.000296053
0.000268266
-0.000360914
0.000257332
-0.000422632
0.000242141
-0.000480288
0.000221856
-0.000532643
0.00019504
-0.00057795
0.000159816
-0.000613738
0.000113943
-0.0006366
5.50716e-05
-0.00064214
-1.91305e-05
-0.000624306
-0.000110842
-0.000576685
-0.000218171
-0.000493627
-0.000335115
-0.000373735
-0.000446035
-0.000226505
-0.000518491
-8.08583e-05
-0.000497133
-0.00027671
-3.38776e-05
0.000162325
-9.56462e-05
0.000297477
-0.000166063
0.000340148
-0.000237771
0.000345984
-0.000308521
0.000339015
-0.000377598
0.000326409
-0.000444567
0.00030911
-0.00050889
0.000286179
-0.000569714
0.000255865
-0.000625616
0.000215719
-0.000674251
0.000162577
-0.000711836
9.2657e-05
-0.000733463
2.49677e-06
-0.000730278
-0.000114027
-0.000692476
-0.000255974
-0.000609169
-0.000418422
-0.000473435
-0.000581769
-0.000292532
-0.000699394
-0.000104594
-0.000685071
-0.000381304
-3.4786e-05
0.000197111
-9.90108e-05
0.000361702
-0.000172453
0.00041359
-0.00024748
0.000421011
-0.000321996
0.000413532
-0.000395631
0.000400043
-0.000468404
0.000381883
-0.000540338
0.000358113
-0.000611219
0.000326746
-0.000680292
0.000284791
-0.000745785
0.00022807
-0.000804205
0.000151077
-0.000849022
4.73145e-05
-0.000871042
-9.20076e-05
-0.000854533
-0.000272483
-0.000780811
-0.000492144
-0.000632125
-0.000730455
-0.000405943
-0.000925576
-0.000148878
-0.000942136
-0.000530181
-3.58153e-05
0.000232926
-0.000102782
0.000428669
-0.000179488
0.000490296
-0.000257946
0.000499468
-0.000336232
0.000491818
-0.000414388
0.0004782
-0.000493021
0.000460516
-0.000572919
0.000438011
-0.000654838
0.000408664
-0.000739174
0.000369128
-0.0008254
0.000314296
-0.000911085
0.000236762
-0.000990228
0.000126457
-0.00105297
-2.92615e-05
-0.00107875
-0.000246706
-0.00103874
-0.000532154
-0.000895277
-0.00087392
-0.000616686
-0.00120417
-0.000242205
-0.00131662
-0.000772386
-3.69992e-05
0.000269925
-0.000107018
0.000498688
-0.000187136
0.000570413
-0.0002689
0.000581233
-0.000350566
0.000573484
-0.00043264
0.000560274
-0.000516426
0.000544302
-0.000603687
0.000525271
-0.000696508
0.000501486
-0.000797069
0.000469689
-0.000907138
0.000424366
-0.00102708
0.000356701
-0.00115396
0.000253341
-0.00127925
9.60315e-05
-0.0013846
-0.000141358
-0.0014304
-0.000486352
-0.00134392
-0.000960399
-0.00102006
-0.00152803
-0.000445243
-0.00189144
-0.00121763
-3.84633e-05
0.000308389
-0.000111941
0.000572165
-0.000195541
0.000654014
-0.000280226
0.000665918
-0.000364417
0.000657676
-0.000449114
0.00064497
-0.000536368
0.000631556
-0.000629044
0.000617947
-0.000730875
0.000603317
-0.000846498
0.000585312
-0.000981272
0.00055914
-0.00114065
0.000516078
-0.00132887
0.000441558
-0.00154606
0.000313221
-0.00178707
9.96526e-05
-0.00200686
-0.000266558
-0.00206608
-0.00090118
-0.00170575
-0.00188836
-0.000816053
-0.00278113
-0.00203368
-4.05127e-05
0.000348901
-0.00011811
0.000649763
-0.000205263
0.000741166
-0.000292225
0.00075288
-0.000377591
0.000743042
-0.000462844
0.000730223
-0.000550747
0.000719459
-0.000645218
0.000712418
-0.00075166
0.000709759
-0.000877483
0.000711135
-0.00103277
0.000714425
-0.00123101
0.000714317
-0.00148969
0.000700246
-0.0018301
0.000653628
-0.00226229
0.000531845
-0.00273065
0.000201795
-0.00297789
-0.000653933
-0.00253931
-0.00232695
-0.00130312
-0.00401732
-0.0033368
-4.37693e-05
0.000392671
-0.000126658
0.000732652
-0.000217512
0.000832021
-0.000305876
0.000841244
-0.000390581
0.000827747
-0.000473578
0.00081322
-0.000558179
0.00080406
-0.000649043
0.000803282
-0.000752854
0.00081357
-0.00087944
0.000837721
-0.00104354
0.000878521
-0.00126759
0.000938365
-0.00158532
0.00101798
-0.00203951
0.00110782
-0.00264996
0.0011423
-0.00329036
0.000842193
-0.0035924
-0.000351892
-0.00307409
-0.00284526
-0.00175876
-0.00533265
-0.00509556
-4.92702e-05
0.000441941
-0.000139405
0.000822786
-0.000234367
0.000926983
-0.000323195
0.000930071
-0.000405022
0.000909574
-0.000482265
0.000890464
-0.000558624
0.000880418
-0.00063879
0.000883448
-0.000729588
0.000904368
-0.000841637
0.000949771
-0.000991989
0.00102887
-0.00120817
0.00115454
-0.00153176
0.00134157
-0.00200425
0.00158031
-0.00261606
0.00175411
-0.00319225
0.00141837
-0.00340177
-0.000142372
-0.00299118
-0.00325585
-0.0019321
-0.00639172
-0.00702766
-6.00049e-05
0.000501946
-0.000160809
0.000923591
-0.000259522
0.0010257
-0.000346393
0.00101694
-0.000422459
0.000985639
-0.000490703
0.000958708
-0.000554086
0.000943801
-0.000616449
0.000945811
-0.000683163
0.000971082
-0.000762476
0.00102908
-0.000867761
0.00113416
-0.00101933
0.00130611
-0.00124583
0.00156807
-0.00156219
0.00189667
-0.0019422
0.00213413
-0.00226076
0.00173693
-0.00239861
-4.52266e-06
-0.00230144
-0.00335302
-0.00166811
-0.00702505
-0.00869577
-7.30856e-05
0.000575031
-0.000188056
0.00103856
-0.00029422
0.00113186
-0.00038261
0.00110533
-0.000452443
0.00105547
-0.000507856
0.00101412
-0.000552361
0.000988306
-0.000588629
0.00098208
-0.000618849
0.0010013
-0.000645571
0.00105581
-0.000673118
0.00116171
-0.000705241
0.00133823
-0.000748196
0.00161103
-0.000788391
0.00193686
-0.000829795
0.00217553
-0.000846388
0.00175353
-0.000938421
8.75098e-05
-0.00116656
-0.00312488
-0.00107027
-0.00712135
-0.00976604
-0.000140182
0.000715213
-0.000269729
0.00116811
-0.000363365
0.0012255
-0.000429916
0.00117188
-0.000480557
0.00110611
-0.000519141
0.0010527
-0.000545499
0.00101466
-0.000557453
0.000994034
-0.000551815
0.000995664
-0.000523269
0.00102726
-0.000465074
0.00110351
-0.00036474
0.0012379
-0.000207012
0.0014533
2.1244e-05
0.00170861
0.000317051
0.00187972
0.000540972
0.00152961
0.00051129
0.000117192
-8.20359e-05
-0.00253156
-0.000465753
-0.00673763
-0.0102318
-9.1463e-05
0.000806676
-0.000284952
0.0013616
-0.000420812
0.00136136
-0.00050704
0.00125811
-0.00055686
0.00115593
-0.000580128
0.00107597
-0.000580601
0.00101514
-0.000557726
0.000971158
-0.000507419
0.000945358
-0.000419215
0.000939055
-0.000279408
0.000963703
-6.46289e-05
0.00102312
0.000248826
0.00113985
0.000677086
0.00128035
0.00118264
0.00137417
0.00158298
0.00112927
0.00155965
0.000140519
0.000833034
-0.00180494
0.000166024
-0.00607062
-0.0100658
-0.000385775
0.00119245
-0.000462361
0.00143818
-0.000536563
0.00143556
-0.000602302
0.00132385
-0.00062249
0.00117612
-0.000603335
0.00105682
-0.000550464
0.000962266
-0.000464053
0.000884747
-0.000345477
0.000826781
-0.000186502
0.00078008
2.12597e-05
0.000755942
0.000293549
0.000750831
0.00065378
0.000779615
0.00110809
0.000826039
0.00163873
0.000843527
0.00207262
0.000695371
0.00226517
-5.2025e-05
0.00184276
-0.00138253
0.000983404
-0.00521127
-0.00908236
-0.0013588
0.00255125
-0.00132512
0.00140451
-0.00107722
0.00118766
-0.000718654
0.000965283
-0.000338162
0.000795628
4.63968e-05
0.000672259
0.000422668
0.000585995
0.000788656
0.000518759
0.00114571
0.000469729
0.0014975
0.000428293
0.00185262
0.000400818
0.002221
0.000382448
0.00262982
0.000370803
0.00308759
0.000368265
0.00362216
0.000308959
0.00412312
0.000194413
0.00433248
-0.000261391
0.00414886
-0.0011989
0.00259967
-0.00366208
-0.0064827
0.00255125
0.00395575
0.00514341
0.0061087
0.00690433
0.00757658
0.00816258
0.00868134
0.00915107
0.00957936
0.00998018
0.0103626
0.0107334
0.0111017
0.0114107
0.0116051
0.0113437
0.0101448
0.0064827
)
;

boundaryField
{
    movingWall
    {
        type            calculated;
        value           uniform 0;
    }
    fixedWalls
    {
        type            calculated;
        value           uniform 0;
    }
    frontAndBack
    {
        type            empty;
        value           nonuniform List<scalar> 0();
    }
}


// ************************************************************************* //
