/*--------------------------------*- C++ -*----------------------------------*\
  =========                 |
  \\      /  F ield         | OpenFOAM: The Open Source CFD Toolbox
   \\    /   O peration     | Website:  https://openfoam.org
    \\  /    A nd           | Version:  10
     \\/     M anipulation  |
\*---------------------------------------------------------------------------*/
FoamFile
{
    format      ascii;
    class       volScalarField;
    location    "8.625";
    object      p;
}
// * * * * * * * * * * * * * * * * * * * * * * * * * * * * * * * * * * * * * //

dimensions      [0 2 -2 0 0 0 0];

internalField   nonuniform List<scalar> 
475
(
-0.0459003
-0.0712773
-0.100587
-0.12416
-0.146761
-0.0716909
-0.085008
-0.101275
-0.12034
-0.137316
-0.0698316
-0.0791841
-0.0941252
-0.111606
-0.127992
-0.0692154
-0.0799657
-0.0948288
-0.110301
-0.123893
-0.0393551
-0.0662663
-0.0899132
-0.107578
-0.120395
-0.165045
-0.176035
-0.180161
-0.181548
-0.182919
-0.184937
-0.187498
-0.189649
-0.190183
-0.188304
-0.18347
-0.175499
-0.164738
-0.152137
-0.138525
-0.124721
-0.111105
-0.0982446
-0.0884159
-0.0832079
-0.0825883
-0.0846713
-0.0873837
-0.0893532
-0.0901557
-0.0896811
-0.0878148
-0.0843879
-0.0793177
-0.0728977
-0.0655723
-0.0575785
-0.0494479
-0.0415642
-0.0343408
-0.0279294
-0.0222574
-0.0174981
-0.0134283
-0.0101362
-0.00730187
-0.00489907
-0.00305113
-0.0014803
-0.000455323
-0.153966
-0.165564
-0.171358
-0.172908
-0.172722
-0.172069
-0.171125
-0.169629
-0.167239
-0.163711
-0.158978
-0.153115
-0.146293
-0.138872
-0.130785
-0.122124
-0.112434
-0.103026
-0.0962871
-0.0934259
-0.0944426
-0.0979909
-0.101659
-0.103964
-0.104495
-0.103316
-0.100347
-0.0952536
-0.0886472
-0.0806975
-0.0717364
-0.0620218
-0.0522008
-0.0426405
-0.0339038
-0.0261707
-0.0195277
-0.0141632
-0.00976801
-0.00654123
-0.00387491
-0.00202828
-0.000821612
-5.47378e-05
2.7782e-05
-0.141401
-0.15094
-0.156547
-0.158691
-0.158423
-0.156533
-0.153601
-0.149863
-0.145611
-0.141073
-0.136907
-0.133968
-0.132749
-0.132871
-0.130334
-0.122748
-0.112215
-0.105625
-0.103186
-0.102032
-0.101975
-0.103435
-0.105342
-0.106607
-0.10666
-0.105172
-0.101872
-0.0969185
-0.0901879
-0.0819214
-0.0725655
-0.0624499
-0.0521687
-0.0421011
-0.0328577
-0.0246265
-0.017696
-0.0121254
-0.00771123
-0.00450072
-0.00197817
-0.000491024
0.000423062
0.000649463
0.000368345
-0.134739
-0.142578
-0.147441
-0.149334
-0.148612
-0.145607
-0.140991
-0.135038
-0.128529
-0.122053
-0.117457
-0.116285
-0.120895
-0.132265
-0.137423
-0.127246
-0.107157
-0.0950584
-0.0943677
-0.0998252
-0.10507
-0.108402
-0.109727
-0.109517
-0.108119
-0.105551
-0.101503
-0.0958561
-0.088734
-0.0803477
-0.0709959
-0.0609959
-0.0508447
-0.0409418
-0.0317843
-0.0236102
-0.0167173
-0.0110804
-0.00667685
-0.00340396
-0.00102592
0.000329706
0.00109411
0.0010313
0.000611913
-0.130066
-0.137235
-0.141801
-0.143587
-0.142532
-0.13897
-0.133381
-0.126459
-0.118935
-0.11188
-0.107025
-0.106203
-0.113016
-0.126737
-0.135369
-0.131796
-0.120545
-0.109384
-0.103025
-0.102041
-0.103609
-0.105448
-0.106667
-0.106831
-0.10575
-0.10325
-0.0991649
-0.0936268
-0.0866536
-0.0784193
-0.0692201
-0.0594155
-0.0494748
-0.0397956
-0.0308348
-0.0228425
-0.0160519
-0.0104721
-0.0061263
-0.00286916
-0.000618553
0.000738288
0.00137305
0.00124568
0.000814107
-0.189958
-0.190407
-0.190946
-0.191806
-0.193033
-0.19525
-0.198637
-0.202476
-0.205481
-0.205881
-0.20203
-0.192962
-0.178431
-0.158901
-0.135399
-0.109706
-0.08397
-0.0601399
-0.0396573
-0.023382
-0.0118672
-0.00498598
-0.00216255
-0.00252853
-0.0051041
-0.00893803
-0.0133306
-0.017802
-0.0220041
-0.0257317
-0.0288991
-0.0314668
-0.0333865
-0.0346576
-0.0353402
-0.0352378
-0.0340249
-0.0315775
-0.0281211
-0.0239946
-0.0195981
-0.015062
-0.0104562
-0.00598152
-0.00175493
-0.184588
-0.186568
-0.187482
-0.189285
-0.191842
-0.195506
-0.200102
-0.204989
-0.208901
-0.21009
-0.206925
-0.198642
-0.184706
-0.165314
-0.141635
-0.115435
-0.0891695
-0.0649156
-0.0440821
-0.0275719
-0.0157192
-0.00850314
-0.00533815
-0.00533412
-0.00755543
-0.0110625
-0.0151537
-0.0193876
-0.0234498
-0.0268658
-0.0295928
-0.0317378
-0.0333542
-0.0344806
-0.0351698
-0.0351826
-0.0340539
-0.031623
-0.0281174
-0.0240288
-0.0195801
-0.0149266
-0.0103025
-0.00571908
-0.00166194
-0.193549
-0.19226
-0.191726
-0.191849
-0.193696
-0.197424
-0.202571
-0.207997
-0.21249
-0.214097
-0.211105
-0.202709
-0.188817
-0.169656
-0.146445
-0.12097
-0.0955582
-0.0722163
-0.05229
-0.0365247
-0.0253505
-0.0187151
-0.0159363
-0.0160292
-0.0180234
-0.0210371
-0.0243703
-0.0277031
-0.0306573
-0.0328335
-0.0341362
-0.0348884
-0.0352753
-0.0353396
-0.0350807
-0.0343099
-0.032649
-0.0299788
-0.0264741
-0.0224845
-0.0184067
-0.0141359
-0.00989016
-0.00566864
-0.00169178
-0.181021
-0.183685
-0.185008
-0.18699
-0.190026
-0.194357
-0.199804
-0.205366
-0.209765
-0.21145
-0.208737
-0.200877
-0.187703
-0.169756
-0.148348
-0.125251
-0.102445
-0.0817112
-0.0643392
-0.0510584
-0.0421817
-0.0373838
-0.0357944
-0.036349
-0.0380898
-0.0402261
-0.0421017
-0.043283
-0.0441594
-0.0439753
-0.0428306
-0.0411016
-0.0390805
-0.0369007
-0.0346341
-0.0322648
-0.0295906
-0.0264968
-0.0230775
-0.0194416
-0.015809
-0.0119572
-0.0081991
-0.00462165
-0.00136187
-0.217254
-0.197546
-0.193795
-0.191358
-0.191569
-0.194382
-0.198565
-0.202674
-0.205396
-0.205468
-0.20167
-0.193484
-0.180971
-0.164865
-0.146377
-0.127048
-0.108286
-0.0914296
-0.0779791
-0.0689275
-0.0641242
-0.0625215
-0.0628923
-0.0641216
-0.0655014
-0.0665106
-0.0666618
-0.0655883
-0.0629374
-0.0592336
-0.0547218
-0.0496456
-0.0443663
-0.0392095
-0.0344131
-0.0300468
-0.0259597
-0.0220698
-0.0183551
-0.014795
-0.0115033
-0.00837968
-0.00565102
-0.00319693
-0.00105336
)
;

boundaryField
{
    inlet
    {
        type            zeroGradient;
    }
    outlet
    {
        type            fixedValue;
        value           uniform 0;
    }
    upperWall
    {
        type            zeroGradient;
    }
    lowerWall
    {
        type            zeroGradient;
    }
    frontAndBack
    {
        type            empty;
    }
}


// ************************************************************************* //
