/*--------------------------------*- C++ -*----------------------------------*\
  =========                 |
  \\      /  F ield         | OpenFOAM: The Open Source CFD Toolbox
   \\    /   O peration     | Website:  https://openfoam.org
    \\  /    A nd           | Version:  10
     \\/     M anipulation  |
\*---------------------------------------------------------------------------*/
FoamFile
{
    format      ascii;
    class       volVectorField;
    location    "4.85";
    object      U;
}
// * * * * * * * * * * * * * * * * * * * * * * * * * * * * * * * * * * * * * //

dimensions      [0 1 -1 0 0 0 0];

internalField   nonuniform List<vector> 
496
(
(9.95041 0.0417896 0)
(10.067 -0.140379 0)
(10.1609 -0.127636 0)
(10.7301 -0.255175 0)
(10.1524 0.334153 0)
(9.85346 -1.00504 0)
(10.2422 -0.456305 0)
(10.7971 -1.13196 0)
(11.0089 1.17234 0)
(8.92761 -2.49752 0)
(11.2944 -0.322688 0)
(10.5262 -3.62374 0)
(12.6285 1.32491 0)
(7.83479 -2.44555 0)
(13.3096 0.52249 0)
(9.84184 -6.18284 0)
(11.4245 -0.16832 2.56589e-18)
(12.2542 -0.214485 4.8545e-20)
(11.6938 -0.469205 -5.85438e-19)
(12.4456 -0.106818 2.08484e-18)
(13.1051 -2.0798 -1.98346e-18)
(12.8178 -0.491355 -2.13364e-18)
(13.3638 -5.45062 -3.24891e-17)
(15.1491 -4.25067 6.1537e-17)
(12.7308 -0.176064 0)
(13.1106 -0.188579 0)
(13.3844 -0.0627253 0)
(13.5222 -0.0187375 0)
(13.0354 -0.0184618 0)
(13.4398 -0.467491 0)
(13.7943 -0.565521 0)
(13.9924 -0.585894 0)
(12.8845 0.775081 0)
(12.57 0.462461 0)
(13.3146 0.422548 0)
(13.6928 0.397515 0)
(11.741 -3.03159 0)
(9.62546 -1.95234 0)
(9.79358 0.0746718 0)
(10.917 -1.12961 0)
(13.6028 0.171156 0)
(13.5457 0.301999 0)
(13.4528 0.351588 0)
(13.1449 0.463929 0)
(12.9431 0.50507 0)
(12.5313 0.631019 0)
(12.1667 0.567353 0)
(11.8296 0.583831 0)
(11.821 0.433981 0)
(11.9856 0.344745 0)
(12.0467 0.206194 0)
(12.1965 0.100066 0)
(12.2711 0.109465 0)
(12.6659 0.0725702 0)
(12.8194 0.155507 0)
(13.0501 0.112701 0)
(12.8777 0.223478 0)
(12.7499 0.216197 0)
(12.4755 0.315215 0)
(12.2807 0.338064 0)
(12.141 0.368805 0)
(11.8835 0.376565 0)
(11.869 0.342477 0)
(11.6748 0.395269 0)
(11.8161 0.384918 0)
(11.6103 0.471181 0)
(11.5782 0.46758 0)
(11.2138 0.54235 0)
(10.9492 0.555988 0)
(10.6159 0.600233 0)
(10.3427 0.585751 0)
(10.223 0.498079 0)
(10.1172 0.421719 0)
(10.1974 0.276445 0)
(10.3254 0.243732 0)
(10.419 0.171537 0)
(10.6815 0.188244 0)
(10.5271 0.215566 0)
(10.739 0.246211 0)
(10.2736 0.307857 0)
(14.1542 -0.483255 0)
(14.0091 -0.314204 0)
(13.8764 -0.248996 0)
(13.672 -0.0363133 0)
(13.4471 0.00176196 0)
(13.1592 0.036643 0)
(12.6735 -0.174513 0)
(12.4289 -0.154228 0)
(12.2384 -0.219944 0)
(12.4824 -0.270878 0)
(12.4713 -0.499988 0)
(12.741 -0.631587 0)
(12.8779 -0.529113 0)
(13.2902 -0.428469 0)
(13.5147 -0.23575 0)
(13.742 -0.197659 0)
(13.7673 -0.026789 0)
(13.6475 0.00623743 0)
(13.5752 0.107562 0)
(13.3595 0.0419354 0)
(13.3133 -0.0166814 0)
(13.0719 -0.103126 0)
(13.1071 -0.197882 0)
(13.0352 -0.164518 0)
(13.1734 -0.229189 0)
(13.1275 -0.0766295 0)
(13.0653 -0.0560494 0)
(12.8984 0.0664789 0)
(12.6494 0.0194886 0)
(12.4581 -0.0934304 0)
(12.1524 -0.180669 0)
(11.977 -0.362103 0)
(11.8473 -0.367129 0)
(11.8014 -0.486249 0)
(11.9687 -0.44418 0)
(11.9676 -0.453331 0)
(12.2976 -0.28025 0)
(12.2546 -0.182319 0)
(12.4963 0.035644 0)
(12.3344 0.145328 0)
(13.7349 0.386701 0)
(13.912 0.432387 0)
(13.5393 0.613975 0)
(13.6605 0.971074 0)
(13.0342 1.18757 0)
(12.6444 1.4283 0)
(12.0345 1.16197 0)
(11.9586 0.973856 0)
(11.8636 0.450648 0)
(11.7775 0.0549018 0)
(11.8672 -0.449304 0)
(11.8447 -0.737346 0)
(12.3957 -0.650898 0)
(12.2568 -0.654219 0)
(12.8008 -0.244418 0)
(12.597 -0.202482 0)
(13.0473 0.348613 0)
(12.8333 0.398775 0)
(12.9649 0.757128 0)
(12.8685 0.669153 0)
(12.7971 0.573693 0)
(12.9364 0.453136 0)
(12.704 0.177268 0)
(13.037 0.316752 0)
(12.9044 0.12278 0)
(13.35 0.497434 0)
(13.3388 0.516465 0)
(13.4774 0.969155 0)
(13.3337 1.12841 0)
(13.0676 1.26718 0)
(12.9717 1.2963 0)
(12.6125 0.818308 0)
(12.6604 0.608236 0)
(12.2811 -0.0570581 0)
(12.2895 -0.103589 0)
(12.1369 -0.361232 0)
(12.2012 -0.189094 0)
(12.2705 -0.0504031 0)
(12.3843 0.0886466 0)
(12.5608 0.489778 0)
(10.6738 -0.368608 0)
(11.2934 -0.413301 0)
(11.1704 -0.259685 0)
(11.5611 0.391814 0)
(12.1863 0.370963 0)
(12.1519 0.585453 0)
(11.9524 0.756398 0)
(12.2824 0.558868 0)
(11.3942 0.307669 0)
(11.5297 0.0341452 0)
(9.81168 -0.149432 0)
(9.93354 -0.386039 0)
(8.84288 -0.639205 0)
(8.87821 -0.742876 0)
(8.61334 -0.745729 0)
(8.46869 -0.632497 0)
(9.15275 -0.458953 0)
(8.4462 -0.228762 0)
(9.48539 0.0869329 0)
(8.35641 0.194933 0)
(9.03242 0.253627 0)
(8.20536 0.0795724 0)
(8.35918 -0.0651493 0)
(8.59639 -0.227697 0)
(8.38714 -0.391349 0)
(9.57633 -0.392112 0)
(9.23646 -0.383435 0)
(10.7465 -0.160202 0)
(10.3654 -0.0339596 0)
(11.427 0.136162 0)
(11.0413 0.170327 0)
(10.7928 0.167091 0)
(10.4253 0.216501 0)
(9.21557 0.176431 0)
(9.11428 0.123564 0)
(8.22496 -0.0071056 0)
(8.48355 -0.158526 0)
(8.46552 -0.263983 0)
(8.71404 -0.296257 0)
(9.41333 -0.140292 0)
(11.8041 0.678272 -1.0337e-17)
(7.99211 -0.972533 -1.73681e-17)
(11.3201 0.273377 3.04355e-17)
(4.50155 -4.71407 -8.26095e-17)
(13.0806 -0.554375 1.00868e-17)
(7.29169 0.903682 1.69153e-17)
(12.3582 0.0644028 -2.9666e-17)
(4.54241 4.69621 8.12209e-17)
(-3.37907 2.10316 0)
(-1.16963 -2.98191 0)
(6.52573 1.50585 0)
(-5.74797 1.92538 0)
(-3.86339 -1.79255 3.61262e-17)
(4.13638 -4.31375 0)
(-9.28483 2.84628 0)
(7.29048 -2.25641 0)
(4.86994 -1.40743 0)
(0.0488952 0.369291 0)
(-0.783612 -1.43816 0)
(4.29494 1.05154 0)
(0.416894 0.606746 0)
(1.96201 0.214215 0)
(3.27816 1.2449 0)
(2.06839 1.1559 0)
(1.47449 0.857651 0)
(1.77736 0.748135 0)
(1.35507 0.560102 0)
(1.41573 0.587531 0)
(0.729904 0.334453 0)
(0.530272 0.0297332 0)
(0.680616 -0.0495015 0)
(1.06862 0.0647458 0)
(1.04475 0.346837 0)
(1.08547 0.456092 0)
(1.25929 0.673949 0)
(1.61075 0.787352 0)
(1.66972 0.633557 0)
(1.83577 0.402861 0)
(2.02375 -0.0164788 0)
(2.60653 -0.155077 0)
(2.79107 -0.46934 0)
(3.15882 -0.462847 0)
(3.81447 -0.209702 0)
(3.79557 -0.0419024 0)
(4.38285 0.451907 0)
(4.38707 0.898958 0)
(4.21755 1.07319 0)
(4.26981 1.25956 0)
(4.01667 1.22144 0)
(4.0489 0.801568 0)
(3.88756 0.44306 0)
(4.28504 -0.0258643 0)
(4.37034 -0.290132 0)
(4.42754 -0.51977 0)
(4.87157 -0.534994 0)
(5.17875 -0.0331364 0)
(-5.33542 -1.68251 0)
(2.40034 1.97717 0)
(-1.51654 -2.13893 0)
(-0.371667 0.80425 0)
(0.190607 0.207067 0)
(0.0141945 -0.103055 0)
(0.198984 0.897448 0)
(1.48907 1.14925 0)
(1.31122 0.890999 0)
(2.19742 0.437752 0)
(1.55507 0.366229 0)
(1.77579 0.0213211 0)
(1.93122 -0.240898 0)
(1.88566 -0.830738 0)
(2.00272 -1.16365 0)
(1.50677 -1.04303 0)
(1.43384 -0.66797 0)
(1.65715 -0.413052 0)
(1.94239 -0.270694 0)
(2.35452 -0.167156 0)
(2.74981 -0.224581 0)
(2.78314 -0.262281 0)
(3.18284 -0.593045 0)
(3.37068 -0.99101 0)
(3.44526 -1.13735 0)
(3.09213 -1.12621 0)
(3.41158 -1.02724 0)
(3.387 -0.631018 0)
(3.19353 -0.0779146 0)
(4.05005 0.218964 0)
(3.92086 0.665004 0)
(4.16528 0.817193 0)
(5.18524 0.604267 0)
(4.93742 0.45251 0)
(5.52396 0.151068 0)
(6.00911 -0.402611 0)
(5.4199 -0.532168 0)
(5.96738 -0.767669 0)
(5.4966 -0.958757 0)
(5.48377 -0.487303 0)
(10.9173 -1.55701 0)
(8.88838 2.811 0)
(11.4728 -0.78486 0)
(10.9028 6.83494 0)
(10.0094 -1.13176 0)
(10.0046 2.78166 0)
(10.7199 0.480928 0)
(11.6331 3.91287 0)
(9.70133 -0.398129 0)
(10.2931 1.0764 0)
(10.0885 0.47145 0)
(11.1964 1.03023 0)
(9.92879 -0.0575608 0)
(10.0394 0.14616 0)
(10.1711 0.161535 0)
(10.7534 0.183604 0)
(12.0062 5.42955 4.22395e-17)
(16.3577 4.57996 -6.90097e-17)
(12.9853 2.2302 0)
(14.0511 0.318382 0)
(11.6153 0.546109 0)
(12.8584 -0.183867 0)
(11.3867 0.262433 0)
(12.2245 0.150232 0)
(8.54785 2.62034 0)
(10.3494 1.85277 0)
(7.51363 0.540894 0)
(7.0965 -0.135591 0)
(13.1333 -0.489863 0)
(13.4705 -1.03844 0)
(13.7509 -0.547827 0)
(13.857 -0.346822 0)
(13.3413 -0.105541 0)
(13.8154 0.130878 0)
(13.947 0.395028 0)
(14.0437 0.418363 0)
(12.7283 0.221046 0)
(13.0439 0.146513 0)
(13.1204 0.0844483 0)
(13.2218 -0.00332154 0)
(9.11374 0.266251 0)
(6.75665 -0.155582 0)
(8.00844 -0.0926114 0)
(6.54218 -0.250691 0)
(7.00787 0.0194289 0)
(6.19555 0.151704 0)
(7.90778 0.147154 0)
(6.7385 0.427687 0)
(8.72919 0.312917 0)
(8.56313 0.457307 0)
(9.8219 0.374395 0)
(10.1641 0.494925 0)
(10.1732 0.354755 0)
(11.1457 0.269859 0)
(10.2308 0.255087 0)
(11.2766 0.126745 0)
(9.70512 0.264352 0)
(10.4422 0.161649 0)
(9.42719 0.263702 0)
(10.1554 0.133408 0)
(10.0874 0.119361 0)
(10.294 0.000283695 0)
(10.8838 -0.179027 0)
(10.5258 -0.224533 0)
(11.239 -0.350565 0)
(10.1696 -0.192821 0)
(10.4154 -0.211435 0)
(9.41218 -0.0395276 0)
(9.23328 0.0909919 0)
(9.0228 0.283253 0)
(8.7803 0.503972 0)
(9.38945 0.522576 0)
(9.35293 0.506651 0)
(10.4194 0.184705 0)
(10.4691 0.0745008 0)
(11.3177 -0.245184 0)
(11.5968 -0.322972 0)
(11.7115 -0.256394 0)
(11.9718 -0.25109 0)
(11.517 -0.0157291 0)
(14.4609 -0.525736 0)
(13.9741 -0.277699 0)
(14.3894 -0.381102 0)
(13.5925 -0.0312983 0)
(13.9567 -0.147998 0)
(13.2776 0.0924019 0)
(13.9047 -0.22892 0)
(13.6036 -0.104672 0)
(14.0771 -0.273916 0)
(14.201 -0.339306 0)
(14.354 -0.425145 0)
(14.5523 -0.723431 0)
(14.2738 -0.631101 0)
(14.4987 -0.898233 0)
(14.065 -0.585784 0)
(14.2893 -0.705812 0)
(13.9092 -0.349616 0)
(14.0017 -0.365465 0)
(13.808 -0.243555 0)
(13.8283 -0.344216 0)
(13.8508 -0.588285 0)
(13.6046 -0.684022 0)
(13.5871 -1.12406 0)
(13.0479 -1.01045 0)
(13.1026 -1.28817 0)
(12.5695 -0.81976 0)
(12.707 -0.685305 0)
(12.2869 -0.157117 0)
(12.364 0.0975208 0)
(12.3049 0.160025 0)
(12.4279 0.296899 0)
(12.6526 -0.0662785 0)
(12.7264 -0.0715607 0)
(13.0413 -0.622342 0)
(12.9359 -0.743165 0)
(12.9549 -1.08993 0)
(12.6704 -1.19292 0)
(12.4295 -1.04583 0)
(12.2251 -0.981838 0)
(11.9604 -0.376687 0)
(13.9537 0.366682 0)
(14.0221 0.247664 0)
(13.881 0.116065 0)
(13.7969 0.138213 0)
(13.5944 0.04698 0)
(13.6036 0.155182 0)
(13.6063 0.0126808 0)
(13.6965 0.0425244 0)
(13.7648 -0.027856 0)
(13.7657 -0.022809 0)
(13.7058 -0.0503503 0)
(13.5289 -0.0951867 0)
(13.4555 0.0104893 0)
(13.311 0.0756019 0)
(13.2593 0.310683 0)
(13.1648 0.387063 0)
(13.1479 0.525881 0)
(13.1774 0.483854 0)
(13.1951 0.493583 0)
(13.2885 0.373607 0)
(13.1784 0.258074 0)
(13.0947 0.139751 0)
(12.8491 0.075048 0)
(12.6606 0.146558 0)
(12.4613 0.185411 0)
(12.2227 0.356148 0)
(12.1994 0.39503 0)
(12.0882 0.551482 0)
(12.2789 0.577129 0)
(12.3284 0.603728 0)
(12.5841 0.51976 0)
(12.6837 0.317863 0)
(12.7966 0.191957 0)
(12.7577 -0.0739713 0)
(12.5896 -0.0690889 0)
(12.484 -0.135302 0)
(12.1557 0.0496538 0)
(12.0299 0.144699 0)
(11.7067 0.285096 0)
(11.6085 0.387198 0)
(13.0988 -0.0731655 0)
(13.1884 -0.108457 0)
(13.0353 -0.209958 0)
(13.057 -0.159886 0)
(12.803 -0.200052 0)
(12.8203 -0.0958826 0)
(12.7173 -0.157334 0)
(12.8052 -0.0867073 0)
(12.7912 -0.128984 0)
(12.7258 -0.116579 0)
(12.5964 -0.171164 0)
(12.3141 -0.239156 0)
(12.2504 -0.295742 0)
(11.9883 -0.386786 0)
(12.0038 -0.386785 0)
(11.7639 -0.449566 0)
(11.8556 -0.416708 0)
(11.7936 -0.472751 0)
(11.9221 -0.444199 0)
(11.9205 -0.505954 0)
(11.8454 -0.537035 0)
(11.7315 -0.568628 0)
(11.4006 -0.619074 0)
(11.2119 -0.598321 0)
(10.8675 -0.663673 0)
(10.7804 -0.555374 0)
(10.6503 -0.533981 0)
(10.6632 -0.39351 0)
(10.8266 -0.352497 0)
(10.8769 -0.297904 0)
(11.1973 -0.287445 0)
(11.0924 -0.338846 0)
(11.284 -0.376843 0)
(10.9548 -0.483151 0)
(10.8373 -0.509033 0)
(10.4312 -0.592517 0)
(10.0878 -0.581434 0)
(9.88596 -0.549703 0)
(9.57716 -0.500172 0)
(9.65291 -0.33667 0)
)
;

boundaryField
{
    inlet
    {
        type            fixedValue;
        value           uniform (10 0 0);
    }
    outlet
    {
        type            zeroGradient;
    }
    obstacle
    {
        type            noSlip;
    }
    upperWall
    {
        type            noSlip;
    }
    lowerWall
    {
        type            noSlip;
    }
    frontAndBack
    {
        type            empty;
    }
}


// ************************************************************************* //
