/*--------------------------------*- C++ -*----------------------------------*\
  =========                 |
  \\      /  F ield         | OpenFOAM: The Open Source CFD Toolbox
   \\    /   O peration     | Website:  https://openfoam.org
    \\  /    A nd           | Version:  10
     \\/     M anipulation  |
\*---------------------------------------------------------------------------*/
FoamFile
{
    format      ascii;
    class       volScalarField;
    location    "0.15";
    object      p;
}
// * * * * * * * * * * * * * * * * * * * * * * * * * * * * * * * * * * * * * //

dimensions      [0 2 -2 0 0 0 0];

internalField   nonuniform List<scalar> 
400
(
5.16822e-10
9.88307e-05
0.000300373
0.000599285
0.000987786
0.00145591
0.00199178
0.00258199
0.00321191
0.00386607
0.00452847
0.00518295
0.00581347
0.00640451
0.00694137
0.00741052
0.00780001
0.00809976
0.00830191
0.00840106
-9.82933e-05
2.95565e-06
0.000209422
0.000515568
0.00091337
0.00139257
0.00194098
0.00254485
0.00318924
0.00385835
0.00453588
0.00520533
0.00585037
0.00645514
0.00700461
0.00748493
0.0078838
0.00819085
0.00839798
0.00849957
-0.000304472
-0.000198119
1.87163e-05
0.000340097
0.000757466
0.00125993
0.00183464
0.00246714
0.00314182
0.00384221
0.00455136
0.00525214
0.00592757
0.00656111
0.00713704
0.00764081
0.00805942
0.00838186
0.00859947
0.00870622
-0.000623589
-0.000509256
-0.000276242
6.88675e-05
0.000516648
0.0010552
0.0016706
0.00234733
0.00306872
0.00381731
0.00457519
0.00532425
0.00604655
0.00672455
0.00734144
0.00788159
0.00833089
0.00867731
0.00891127
0.0090261
-0.00106409
-0.00093859
-0.000682966
-0.000304784
0.000185249
0.000773773
0.00144533
0.00218292
0.00296845
0.00378314
0.00460779
0.00542307
0.00620974
0.00694892
0.00762237
0.00821292
0.0087049
0.00908475
0.0093416
0.00946774
-0.00163783
-0.00149749
-0.00121189
-0.000790032
-0.00024446
0.000409424
0.0011541
0.0019706
0.00283903
0.00373898
0.00464971
0.00555042
0.00642033
0.00723888
0.007986
0.00864252
0.00919064
0.0096147
0.00990191
0.0100431
-0.00236053
-0.00220097
-0.00187667
-0.00139874
-0.000782324
-4.56426e-05
0.000791056
0.00170632
0.00267807
0.00368398
0.00470163
0.00570853
0.00668219
0.00760012
0.00844004
0.0091802
0.0098
0.0102809
0.0106074
0.0107681
-0.00325256
-0.00306833
-0.00269462
-0.00214567
-0.00144035
-0.000600726
0.000349392
0.00138546
0.00248286
0.00361718
0.00476422
0.00589983
0.00699971
0.00803928
0.00899365
0.00983792
0.0105478
0.0111008
0.0114775
0.0116633
-0.00433998
-0.00412407
-0.00368732
-0.00304877
-0.00223269
-0.00126642
-0.000178403
0.00100308
0.00225058
0.00353756
0.00483818
0.00612681
0.00737753
0.00856361
0.00965725
0.0106297
0.011452
0.0120961
0.0125371
0.0127552
-0.00565626
-0.0053991
-0.00488125
-0.00412929
-0.0031754
-0.00205418
-0.000800021
0.000554378
0.00197856
0.00344412
0.00492402
0.00639171
0.00782004
0.00918041
0.010442
0.0115715
0.0125339
0.0132936
0.0138174
0.0140777
-0.00724479
-0.00693263
-0.00630874
-0.00541188
-0.00428593
-0.00297549
-0.00152248
3.53919e-05
0.00166481
0.00333611
0.00502198
0.00669595
0.00833065
0.0098962
0.0113589
0.0126805
0.0138181
0.0147258
0.0153582
0.0156751
-0.00916301
-0.0087747
-0.00800884
-0.00692418
-0.00558198
-0.00404044
-0.00235071
-0.000555837
0.00130867
0.00321319
0.00513173
0.00703954
0.0089106
0.0107152
0.0124175
0.0139738
0.015332
0.016432
0.0172104
0.0176059
-0.0114895
-0.0109897
-0.0100281
-0.00869563
-0.00707928
-0.00525521
-0.00328544
-0.00121778
0.000911773
0.00307583
0.00525211
0.00742006
0.0095575
0.0116371
0.0136228
0.0154663
0.0171045
0.0184589
0.0194394
0.0199506
-0.0143368
-0.013661
-0.0124203
-0.0107545
-0.00878741
-0.0066184
-0.00432027
-0.00194327
0.000479303
0.00292568
0.00538071
0.0078315
0.0102631
0.0126543
0.014972
0.017166
0.0191627
0.0208602
0.0221297
0.0228247
-0.0178754
-0.0168953
-0.015244
-0.0131209
-0.0107032
-0.0081154
-0.00543739
-0.00271665
2.16172e-05
0.00276618
0.00551351
0.0082627
0.0110107
0.0137472
0.0164481
0.0190671
0.0215243
0.023693
0.025389
0.0264039
-0.0223815
-0.0208238
-0.0185528
-0.0157947
-0.0127999
-0.00971006
-0.0066021
-0.0035105
-0.000444053
0.00260312
0.00564445
0.00869591
0.0117717
0.0148792
0.0180121
0.0211385
0.0241841
0.027007
0.0293482
0.0309721
-0.0283029
-0.0255888
-0.0223681
-0.0187326
-0.0150094
-0.0113336
-0.0077565
-0.00428257
-0.000892351
0.00244505
0.00576533
0.00910579
0.0125031
0.0159905
0.019591
0.0233055
0.0270896
0.0308142
0.0341453
0.0370044
-0.0369164
-0.0313294
-0.0266349
-0.0218119
-0.0171989
-0.0128716
-0.00881431
-0.00497449
-0.0012896
0.00230337
0.00586605
0.00945972
0.013147
0.0169935
0.0210663
0.0254262
0.0301015
0.0350353
0.0398859
0.0457103
-0.0455578
-0.0371161
-0.0309526
-0.0247057
-0.0191231
-0.0141537
-0.00966203
-0.00551461
-0.00159625
0.00219123
0.00593521
0.00971958
0.0136323
0.0177731
0.0222609
0.0272366
0.0328522
0.0392064
0.0454444
0.0546269
-0.0767959
-0.045823
-0.0361964
-0.0272971
-0.0205069
-0.0149541
-0.0101479
-0.00581024
-0.00176079
0.0021304
0.0059693
0.00985475
0.0138932
0.0182164
0.0230111
0.0285735
0.0354155
0.0446139
0.0546775
0.0864527
)
;

boundaryField
{
    movingWall
    {
        type            zeroGradient;
    }
    fixedWalls
    {
        type            zeroGradient;
    }
    frontAndBack
    {
        type            empty;
    }
}


// ************************************************************************* //
