/*--------------------------------*- C++ -*----------------------------------*\
  =========                 |
  \\      /  F ield         | OpenFOAM: The Open Source CFD Toolbox
   \\    /   O peration     | Website:  https://openfoam.org
    \\  /    A nd           | Version:  10
     \\/     M anipulation  |
\*---------------------------------------------------------------------------*/
FoamFile
{
    format      ascii;
    class       surfaceScalarField;
    location    "6.975";
    object      phi;
}
// * * * * * * * * * * * * * * * * * * * * * * * * * * * * * * * * * * * * * //

dimensions      [0 3 -1 0 0 0 0];

internalField   nonuniform List<scalar> 
760
(
-1.05531e-05
1.05531e-05
-3.43407e-05
2.37876e-05
-6.27943e-05
2.84536e-05
-9.23863e-05
2.9592e-05
-0.00012196
2.9574e-05
-0.000151093
2.91324e-05
-0.000179372
2.82794e-05
-0.000206168
2.67957e-05
-0.000230551
2.43834e-05
-0.000251253
2.07018e-05
-0.000266642
1.53891e-05
-0.000274748
8.1061e-06
-0.000273369
-1.37887e-06
-0.000260303
-1.30667e-05
-0.000233848
-2.64541e-05
-0.000193483
-4.03658e-05
-0.000140934
-5.25483e-05
-8.16894e-05
-5.92449e-05
-2.70734e-05
-5.4616e-05
-2.70734e-05
-2.52259e-05
3.5779e-05
-7.14241e-05
6.99858e-05
-0.00012487
8.18993e-05
-0.00017979
8.45118e-05
-0.000233941
8.37249e-05
-0.000286205
8.13966e-05
-0.000335579
7.76539e-05
-0.000380831
7.20477e-05
-0.000420368
6.39198e-05
-0.000452171
5.25047e-05
-0.000473764
3.69827e-05
-0.000482265
1.66065e-05
-0.000474744
-8.89933e-06
-0.00044805
-3.97608e-05
-0.000400038
-7.44664e-05
-0.000330315
-0.000110089
-0.000241792
-0.000141071
-0.000143013
-0.000158024
-5.10762e-05
-0.000146553
-7.81496e-05
-3.16538e-05
6.74328e-05
-8.79032e-05
0.000126235
-0.000152236
0.000146232
-0.000217857
0.000150133
-0.000282176
0.000148044
-0.000343898
0.000143118
-0.000401885
0.000135641
-0.000454789
0.000124952
-0.0005009
0.00011003
-0.000538046
8.96506e-05
-0.000563562
6.24991e-05
-0.000574333
2.73769e-05
-0.000566565
-1.66665e-05
-0.00053653
-6.97961e-05
-0.000481167
-0.00012983
-0.000399276
-0.00019198
-0.000293592
-0.000246754
-0.000174068
-0.000277549
-6.19308e-05
-0.000258689
-0.00014008
-3.40944e-05
0.000101527
-9.47575e-05
0.000186898
-0.000163931
0.000215405
-0.000234389
0.000220591
-0.000303528
0.000217183
-0.000370148
0.000209738
-0.000433234
0.000198728
-0.000491579
0.000183296
-0.000543596
0.000162048
-0.000587174
0.000133229
-0.000619524
9.48491e-05
-0.000637108
4.49605e-05
-0.000635607
-1.81679e-05
-0.000609616
-9.57867e-05
-0.000554139
-0.000185306
-0.000465731
-0.000280388
-0.00034572
-0.000366765
-0.000205438
-0.000417831
-7.17351e-05
-0.000392392
-0.000211815
-3.50789e-05
0.000136606
-9.8161e-05
0.00024998
-0.000170221
0.000287465
-0.000243803
0.000294173
-0.000316414
0.000289795
-0.000387087
0.000280411
-0.000455093
0.000266734
-0.000519533
0.000247736
-0.000579122
0.000221637
-0.000631966
0.000186072
-0.000675265
0.000138148
-0.000704985
7.46808e-05
-0.000715898
-7.25483e-06
-0.000700425
-0.000111259
-0.000650353
-0.000235378
-0.00055815
-0.000372592
-0.000421558
-0.000503357
-0.000252253
-0.000587136
-8.60913e-05
-0.000558554
-0.000297907
-3.56999e-05
0.000172306
-0.000100747
0.000315028
-0.000175332
0.00036205
-0.0002518
0.000370641
-0.000327824
0.000365818
-0.00040276
0.000355347
-0.000476299
0.000340273
-0.000548027
0.000319464
-0.000617178
0.000290788
-0.000682329
0.000251223
-0.000740967
0.000196786
-0.000788859
0.000122573
-0.000819589
2.3475e-05
-0.000823404
-0.000107443
-0.00078712
-0.000271663
-0.000696453
-0.000463259
-0.000541446
-0.000658363
-0.000329926
-0.000798656
-0.000110714
-0.000777767
-0.00040862
-3.6287e-05
0.000208593
-0.000103336
0.000382077
-0.00018051
0.000439225
-0.00025992
0.000450051
-0.000339435
0.000445333
-0.000418819
0.000434731
-0.000498317
0.000419771
-0.000578214
0.00039936
-0.000658572
0.000371146
-0.000738874
0.000331525
-0.000817445
0.000275357
-0.000890548
0.000195676
-0.00095091
8.38373e-05
-0.000987371
-7.09827e-05
-0.000980777
-0.000278256
-0.000906554
-0.000537482
-0.000739039
-0.000825879
-0.000469524
-0.00106817
-0.000159592
-0.0010877
-0.000568212
-3.68993e-05
0.000245492
-0.000106085
0.000451262
-0.000185918
0.000519058
-0.000268196
0.000532328
-0.000350992
0.000528128
-0.000434549
0.000518289
-0.000519805
0.000505027
-0.000607977
0.000487532
-0.000700341
0.00046351
-0.000797884
0.000429069
-0.000900665
0.000378137
-0.00100668
0.000301689
-0.00110989
0.000187053
-0.00120005
1.91748e-05
-0.00125265
-0.000225661
-0.00123101
-0.000559122
-0.00107888
-0.000977999
-0.000738659
-0.0014084
-0.000269238
-0.00155712
-0.000837451
-3.7572e-05
0.000283064
-0.000109054
0.000522744
-0.000191514
0.000601518
-0.000276319
0.000617132
-0.000361734
0.000613544
-0.000448519
0.000605073
-0.000538402
0.00059491
-0.000633746
0.000582876
-0.000737455
0.000567219
-0.000852781
0.000544396
-0.000982882
0.000508237
-0.00112979
0.000448597
-0.00129252
0.000349786
-0.00146305
0.000189706
-0.00162719
-6.15274e-05
-0.00173034
-0.000455966
-0.00165814
-0.00105021
-0.00124067
-0.00182587
-0.000504773
-0.00229301
-0.00134222
-3.84369e-05
0.000321501
-0.000112478
0.000596785
-0.000197453
0.000686494
-0.000284153
0.000703832
-0.000371006
0.000700398
-0.000459281
0.000693348
-0.000551511
0.00068714
-0.000651282
0.000682648
-0.000763388
0.000679324
-0.000894047
0.000675055
-0.00105098
0.000665173
-0.00124318
0.000640792
-0.00148029
0.0005869
-0.00177061
0.000480029
-0.00210922
0.000277075
-0.00243451
-0.000130671
-0.00251166
-0.000973055
-0.0019956
-0.00234194
-0.000906243
-0.00338237
-0.00224847
-3.9819e-05
0.00036132
-0.000116964
0.00067393
-0.000204351
0.000773881
-0.000292059
0.000791539
-0.00037864
0.000786979
-0.000465819
0.000780527
-0.000556829
0.00077815
-0.000656326
0.000782145
-0.000770886
0.000793884
-0.000909819
0.000813988
-0.00108638
0.000841737
-0.00131961
0.00087402
-0.00163637
0.000903659
-0.00206933
0.000912992
-0.00262385
0.000831595
-0.00317262
0.0004181
-0.00336259
-0.000783087
-0.00274752
-0.00295701
-0.00142891
-0.00470098
-0.00367737
-4.23871e-05
0.000403707
-0.000123745
0.000755288
-0.000213563
0.0008637
-0.000301183
0.000879159
-0.000385314
0.00087111
-0.000468069
0.000863282
-0.000553113
0.000863194
-0.000645696
0.000874728
-0.0007535
0.000901688
-0.000888103
0.000948591
-0.00106741
0.00102105
-0.00131954
0.00112614
-0.00168592
0.00127004
-0.00220833
0.00143541
-0.00287414
0.0014974
-0.00347695
0.00102091
-0.00364087
-0.000619166
-0.00308498
-0.0035129
-0.00188025
-0.00590571
-0.00555762
-4.71942e-05
0.000450902
-0.000134718
0.000842811
-0.000227345
0.000956327
-0.000313831
0.000965644
-0.000393067
0.000950347
-0.000467482
0.000937696
-0.000540925
0.000936637
-0.000618307
0.00095211
-0.000706859
0.00099024
-0.000817888
0.00105962
-0.000969481
0.00117264
-0.00118978
0.00134644
-0.0015178
0.00159806
-0.00197697
0.00189459
-0.00251841
0.00203884
-0.00295387
0.00145637
-0.00307976
-0.000493279
-0.00279675
-0.00379591
-0.00190364
-0.00679881
-0.00746126
-5.74381e-05
0.00050834
-0.000154737
0.00094011
-0.000249807
0.0010514
-0.000332586
0.00104842
-0.000403858
0.00102162
-0.000466483
0.00100032
-0.000523239
0.000993392
-0.000577688
0.00100656
-0.000634642
0.00104719
-0.000701233
0.00112621
-0.000788551
0.00125996
-0.00091114
0.00146903
-0.00108644
0.00177336
-0.00130933
0.00211748
-0.00154625
0.00227576
-0.00171606
0.00162618
-0.00182379
-0.000385548
-0.00189218
-0.00372752
-0.00145319
-0.0072378
-0.00891446
-7.0036e-05
0.000578376
-0.000180661
0.00105074
-0.000282146
0.00115288
-0.000365061
0.00113134
-0.00042819
0.00108475
-0.000475425
0.00104756
-0.000509892
0.00102786
-0.000533626
0.00103029
-0.000547734
0.0010613
-0.000552702
0.00113118
-0.00054901
0.00125626
-0.000532556
0.00145258
-0.000497605
0.00173841
-0.000422123
0.00204199
-0.000323499
0.00217713
-0.000266571
0.00156925
-0.000356323
-0.000295796
-0.000764206
-0.00331963
-0.000869052
-0.00713296
-0.00978351
-0.000137352
0.000715728
-0.000262633
0.00117602
-0.000350687
0.00124094
-0.000410175
0.00119083
-0.000452056
0.00112663
-0.000480095
0.00107559
-0.000493632
0.0010414
-0.000489735
0.0010264
-0.000464032
0.0010356
-0.000409296
0.00107644
-0.000315823
0.00116279
-0.000167124
0.00130388
6.026e-05
0.00151102
0.000367561
0.00173469
0.000728939
0.00181575
0.000970094
0.0013281
0.00086183
-0.000187532
0.000142726
-0.00260053
-0.00035744
-0.00663279
-0.0101409
-8.93075e-05
0.000805036
-0.000278858
0.00136557
-0.000408439
0.00137052
-0.000485988
0.00126838
-0.000525625
0.00116627
-0.000537298
0.00108727
-0.000524227
0.00102833
-0.00048505
0.00098722
-0.000414824
0.000965373
-0.000302003
0.000963622
-0.00013182
0.000992607
0.000116598
0.00105546
0.000463771
0.00116385
0.000921732
0.00127673
0.0014267
0.00131079
0.00177118
0.000983618
0.00163134
-4.76881e-05
0.000854674
-0.00182387
0.000175196
-0.00595331
-0.00996575
-0.000384056
0.00118909
-0.000455442
0.00143695
-0.000523035
0.00143811
-0.000581502
0.00132684
-0.000593884
0.00117865
-0.000566269
0.00105965
-0.0005035
0.000965556
-0.000405087
0.000888807
-0.000272131
0.000832417
-9.61297e-05
0.000787621
0.000130555
0.000765923
0.000424616
0.000761397
0.000800734
0.000787732
0.00125475
0.000822713
0.00175379
0.000811753
0.00211099
0.000626409
0.00218986
-0.000126549
0.00174579
-0.0013798
0.000935698
-0.00514322
-0.00903006
-0.00136061
0.0025497
-0.00132676
0.0014031
-0.0010763
0.00118765
-0.00071467
0.000965209
-0.000331436
0.000795413
5.59742e-05
0.000672244
0.000435643
0.000585887
0.000806211
0.000518238
0.00116889
0.000469735
0.00152811
0.000428402
0.00189302
0.000401015
0.00227151
0.000382904
0.00269004
0.000369206
0.0031507
0.000362057
0.00366451
0.000297935
0.00411711
0.000173812
0.00427487
-0.000284313
0.00408256
-0.00118748
0.00257065
-0.00363131
-0.0064594
0.0025497
0.0039528
0.00514046
0.00610567
0.00690108
0.00757332
0.00815921
0.00867745
0.00914718
0.00957559
0.0099766
0.0103595
0.0107287
0.0110908
0.0113887
0.0115625
0.0112782
0.0100907
0.0064594
)
;

boundaryField
{
    movingWall
    {
        type            calculated;
        value           uniform 0;
    }
    fixedWalls
    {
        type            calculated;
        value           uniform 0;
    }
    frontAndBack
    {
        type            empty;
        value           nonuniform List<scalar> 0();
    }
}


// ************************************************************************* //
