/*--------------------------------*- C++ -*----------------------------------*\
  =========                 |
  \\      /  F ield         | OpenFOAM: The Open Source CFD Toolbox
   \\    /   O peration     | Website:  https://openfoam.org
    \\  /    A nd           | Version:  10
     \\/     M anipulation  |
\*---------------------------------------------------------------------------*/
FoamFile
{
    format      ascii;
    class       surfaceScalarField;
    location    "2.675";
    object      phi;
}
// * * * * * * * * * * * * * * * * * * * * * * * * * * * * * * * * * * * * * //

dimensions      [0 3 -1 0 0 0 0];

internalField   nonuniform List<scalar> 
760
(
-1.25242e-05
1.25242e-05
-3.34447e-05
2.09205e-05
-5.51199e-05
2.16752e-05
-7.57629e-05
2.06431e-05
-9.47579e-05
1.8995e-05
-0.000111651
1.68933e-05
-0.000126019
1.43683e-05
-0.000137461
1.14413e-05
-0.0001456
8.13954e-06
-0.0001501
4.49952e-06
-0.000150673
5.72721e-07
-0.000147083
-3.58954e-06
-0.000139207
-7.87642e-06
-0.000127037
-1.21701e-05
-0.000110718
-1.6319e-05
-9.05777e-05
-2.01399e-05
-6.71726e-05
-2.34051e-05
-4.14619e-05
-2.57107e-05
-1.59321e-05
-2.55297e-05
-1.59321e-05
-2.157e-05
3.40942e-05
-5.41179e-05
5.34685e-05
-8.74527e-05
5.50099e-05
-0.000119079
5.22689e-05
-0.000148029
4.79451e-05
-0.000173588
4.24526e-05
-0.000195116
3.58957e-05
-0.000212027
2.83531e-05
-0.0002238
1.99123e-05
-0.000229973
1.06726e-05
-0.000230207
8.06912e-07
-0.000224188
-9.60928e-06
-0.000211793
-2.02707e-05
-0.000193069
-3.08949e-05
-0.000168267
-4.11208e-05
-0.000137898
-5.05087e-05
-0.000102792
-5.85109e-05
-6.43486e-05
-6.41542e-05
-2.59579e-05
-6.39204e-05
-4.189e-05
-2.39654e-05
5.80595e-05
-5.98396e-05
8.93427e-05
-9.64753e-05
9.16457e-05
-0.000131187
8.69801e-05
-0.000162942
7.97005e-05
-0.000190976
7.04869e-05
-0.000214605
5.95242e-05
-0.000233206
4.69545e-05
-0.000246224
3.29299e-05
-0.000253179
1.76281e-05
-0.00025366
1.2881e-06
-0.000247305
-1.5964e-05
-0.000233971
-3.36055e-05
-0.000213653
-5.12125e-05
-0.00018657
-6.82039e-05
-0.000153223
-8.38555e-05
-0.00011448
-9.72538e-05
-7.18595e-05
-0.000106775
-2.91057e-05
-0.000106674
-7.09958e-05
-2.54545e-05
8.35141e-05
-6.36476e-05
0.000127536
-0.000102631
0.000130629
-0.000139577
0.000123927
-0.000173422
0.000113546
-0.00020338
0.000100445
-0.00022875
8.48937e-05
-0.00024889
6.70949e-05
-0.000263219
4.72583e-05
-0.00027121
2.56197e-05
-0.000272424
2.50217e-06
-0.000266397
-2.1991e-05
-0.000252868
-4.71351e-05
-0.000231728
-7.23521e-05
-0.000203093
-9.68385e-05
-0.000167382
-0.000119566
-0.000125449
-0.000139187
-7.8931e-05
-0.000153293
-3.19974e-05
-0.000153608
-0.000102993
-2.73099e-05
0.000110824
-6.83896e-05
0.000168615
-0.000110318
0.000172557
-0.000150084
0.000163692
-0.000186578
0.00015004
-0.000218997
0.000132864
-0.000246626
0.000112523
-0.00026881
8.92787e-05
-0.00028494
6.33884e-05
-0.000294446
3.51251e-05
-0.000296791
4.84794e-06
-0.000291436
-2.73461e-05
-0.000277938
-6.0633e-05
-0.000256
-9.42899e-05
-0.000225546
-0.000127293
-0.000186839
-0.000158274
-0.000140669
-0.000185357
-8.88222e-05
-0.00020514
-3.6088e-05
-0.000206342
-0.000139081
-2.97461e-05
0.00014057
-7.45794e-05
0.000213449
-0.000120328
0.000218305
-0.000163734
0.000207099
-0.000203638
0.000189944
-0.000239219
0.000168445
-0.000269757
0.000143061
-0.000294593
0.000114114
-0.000313099
8.18948e-05
-0.000324659
4.66855e-05
-0.000328651
8.83959e-06
-0.000324394
-3.16031e-05
-0.000311219
-7.38085e-05
-0.000288551
-0.000116958
-0.000255999
-0.000159844
-0.000213542
-0.000200731
-0.0001618
-0.0002371
-0.000102699
-0.000264241
-4.18986e-05
-0.000267142
-0.00018098
-3.28332e-05
0.000173403
-8.23945e-05
0.00026301
-0.000132923
0.000268834
-0.000180854
0.00025503
-0.000224967
0.000234057
-0.000264435
0.000207913
-0.000298553
0.000177179
-0.000326679
0.00014224
-0.000348191
0.000103407
-0.000362441
6.09357e-05
-0.000368718
1.51164e-05
-0.000366191
-3.41302e-05
-0.000353885
-8.61143e-05
-0.000330835
-0.000140008
-0.000296158
-0.000194521
-0.000249323
-0.000247566
-0.000190571
-0.000295852
-0.000121869
-0.000332943
-5.00571e-05
-0.000338953
-0.000231037
-3.66467e-05
0.00021005
-9.20197e-05
0.000318383
-0.000148369
0.000325184
-0.000201752
0.000308412
-0.000250888
0.000283193
-0.000294964
0.00025199
-0.000333323
0.000215538
-0.000365383
0.0001743
-0.000390568
0.000128591
-0.000408237
7.86049e-05
-0.000417614
2.44931e-05
-0.000417721
-3.40232e-05
-0.00040721
-9.66252e-05
-0.000384589
-0.000162628
-0.000348234
-0.000230876
-0.000296733
-0.000299067
-0.000229545
-0.00036304
-0.000148379
-0.000414109
-6.16255e-05
-0.000425707
-0.000292662
-4.12995e-05
0.00025135
-0.000103718
0.000380801
-0.000167029
0.000388495
-0.000226832
0.000368215
-0.000281799
0.00033816
-0.000331168
0.000301359
-0.000374383
0.000258753
-0.000410984
0.000210901
-0.000440514
0.00015812
-0.000462408
0.000100499
-0.000475884
3.7969e-05
-0.00047987
-3.00375e-05
-0.000472599
-0.000103896
-0.00045192
-0.000183307
-0.00041515
-0.000267646
-0.000359432
-0.000354786
-0.000282667
-0.000439805
-0.000185602
-0.000511174
-7.85348e-05
-0.000532773
-0.000371197
-4.69701e-05
0.00029832
-0.000117878
0.000451708
-0.000189418
0.000460035
-0.000256646
0.000435443
-0.000318217
0.000399731
-0.000373478
0.00035662
-0.000422053
0.000307328
-0.0004637
0.000252548
-0.000498185
0.000192605
-0.000525134
0.000127449
-0.000543871
5.67066e-05
-0.000553362
-2.05468e-05
-0.000551446
-0.000105812
-0.000535246
-0.000199507
-0.00050067
-0.000302223
-0.000442635
-0.00041282
-0.000356119
-0.000526321
-0.000239321
-0.000627972
-0.000104535
-0.00066756
-0.000475732
-5.39497e-05
0.000352269
-0.000135094
0.000532852
-0.000216286
0.000541228
-0.000291963
0.00051112
-0.000360822
0.000468589
-0.000422414
0.000418213
-0.000476655
0.000361569
-0.000523647
0.00029954
-0.000563524
0.000232482
-0.000596273
0.000160197
-0.000621506
8.19396e-05
-0.000638481
-3.57106e-06
-0.000644822
-9.94716e-05
-0.000637045
-0.000207283
-0.000609393
-0.000329875
-0.000553635
-0.000468578
-0.000459724
-0.000620233
-0.000319917
-0.000767779
-0.000147469
-0.000840008
-0.000623201
-6.27331e-05
0.000415002
-0.000156292
0.000626411
-0.000248746
0.000633682
-0.000333867
0.000596242
-0.000410531
0.000545253
-0.00047863
0.000486312
-0.000538518
0.000421457
-0.000590802
0.000351824
-0.000636169
0.000277848
-0.000675195
0.000199224
-0.000708105
0.00011485
-0.000734558
2.28818e-05
-0.000752893
-8.1137e-05
-0.000759259
-0.000200917
-0.000746429
-0.000342705
-0.000702304
-0.000512703
-0.000609037
-0.0007135
-0.00044694
-0.000929876
-0.000225093
-0.00106186
-0.000848294
-7.42211e-05
0.000489224
-0.000182954
0.000735144
-0.000288448
0.000739175
-0.000383899
0.000691693
-0.0004686
0.000629953
-0.000542978
0.00056069
-0.00060801
0.000486489
-0.000664992
0.000408806
-0.000715369
0.000328225
-0.000760566
0.000244421
-0.000801795
0.000156079
-0.000839622
6.07092e-05
-0.000874038
-4.6721e-05
-0.000902042
-0.000172913
-0.000916205
-0.000328542
-0.00090096
-0.000527947
-0.000828199
-0.000786261
-0.00065763
-0.00110045
-0.000379777
-0.00133971
-0.00122807
-9.01493e-05
0.000579373
-0.000217681
0.000862676
-0.000337951
0.000859445
-0.000444264
0.000798006
-0.000536758
0.000722447
-0.000616597
0.000640529
-0.000685594
0.000555485
-0.000745918
0.000469131
-0.000799961
0.000382268
-0.000850239
0.000294699
-0.000899361
0.000205201
-0.000949885
0.000111233
-0.00100294
6.33919e-06
-0.00106113
-0.000114727
-0.00111913
-0.000270538
-0.00116142
-0.000485663
-0.00115144
-0.000796239
-0.00101323
-0.00123866
-0.000685951
-0.00166699
-0.00191402
-0.000111121
0.000690494
-0.000262463
0.00101402
-0.000400194
0.000997176
-0.00051794
0.000915752
-0.000617409
0.000821916
-0.000701025
0.000724146
-0.000771873
0.000626333
-0.000833181
0.000530439
-0.000888347
0.000437434
-0.000941028
0.000347379
-0.000995171
0.000259343
-0.00105551
0.000171575
-0.00113021
8.10389e-05
-0.00122489
-2.00489e-05
-0.00134363
-0.000151801
-0.00148242
-0.000346869
-0.00160895
-0.000669714
-0.00157717
-0.00127043
-0.00121121
-0.00203295
-0.00312523
-0.000165537
0.000856031
-0.000336878
0.00118536
-0.00048458
0.00114488
-0.000608109
0.00103928
-0.000711524
0.00092533
-0.000796717
0.00080934
-0.000866763
0.000696379
-0.000925595
0.000589271
-0.000977853
0.000489693
-0.00102866
0.000398187
-0.00108441
0.000315095
-0.00115234
0.000239504
-0.0012424
0.000171099
-0.00136788
0.000105426
-0.0015495
2.98272e-05
-0.00180297
-9.34039e-05
-0.00211391
-0.000358777
-0.00223201
-0.00115233
-0.00176336
-0.00250159
-0.00488859
-0.000147413
0.00100344
-0.000390829
0.00142878
-0.000581223
0.00133527
-0.000726566
0.00118462
-0.000834052
0.00103282
-0.000911271
0.000886559
-0.000967465
0.000752573
-0.00101057
0.000632375
-0.00104684
0.000525965
-0.001081
0.000432341
-0.00111913
0.000353232
-0.00116822
0.000288587
-0.00124313
0.000246012
-0.00136661
0.000228905
-0.00158263
0.000245845
-0.00190743
0.000231403
-0.002348
8.1792e-05
-0.00249412
-0.00100622
-0.00178117
-0.00321454
-0.00666977
-0.000430753
0.0014342
-0.000601297
0.00159932
-0.000736537
0.00147051
-0.000844157
0.00129224
-0.00090319
0.00109185
-0.000928649
0.000912018
-0.000933295
0.000757219
-0.000926269
0.000625349
-0.000915162
0.000514858
-0.000904497
0.000421676
-0.000902917
0.000351652
-0.000912266
0.000297937
-0.000946424
0.000280171
-0.00100456
0.000287043
-0.00111379
0.000355074
-0.00124899
0.000366598
-0.00138116
0.000213969
-0.00141571
-0.000971666
-0.000761678
-0.00386857
-0.00743145
-0.00124947
0.00268366
-0.00115931
0.00150916
-0.00092168
0.00123288
-0.000609523
0.000980088
-0.000294804
0.000777129
-1.6375e-06
0.000618852
0.000258623
0.000496959
0.000484558
0.000399413
0.000675675
0.000323741
0.000837373
0.000259977
0.000973421
0.000215604
0.00109154
0.00017982
0.00121339
0.000158321
0.00134108
0.000159352
0.00155839
0.000137766
0.00179363
0.000131353
0.00212354
-0.000115937
0.00213152
-0.000979651
0.00146067
-0.00319772
-0.00597077
0.00268366
0.00419282
0.00542571
0.0064058
0.00718293
0.00780178
0.00829874
0.00869815
0.00902189
0.00928187
0.00949747
0.00967729
0.00983561
0.00999496
0.0101327
0.0102641
0.0101481
0.0091685
0.00597077
)
;

boundaryField
{
    movingWall
    {
        type            calculated;
        value           uniform 0;
    }
    fixedWalls
    {
        type            calculated;
        value           uniform 0;
    }
    frontAndBack
    {
        type            empty;
        value           nonuniform List<scalar> 0();
    }
}


// ************************************************************************* //
