/*--------------------------------*- C++ -*----------------------------------*\
  =========                 |
  \\      /  F ield         | OpenFOAM: The Open Source CFD Toolbox
   \\    /   O peration     | Website:  https://openfoam.org
    \\  /    A nd           | Version:  10
     \\/     M anipulation  |
\*---------------------------------------------------------------------------*/
FoamFile
{
    format      ascii;
    class       volVectorField;
    location    "2.675";
    object      U;
}
// * * * * * * * * * * * * * * * * * * * * * * * * * * * * * * * * * * * * * //

dimensions      [0 1 -1 0 0 0 0];

internalField   nonuniform List<vector> 
400
(
(-0.000227894 0.00022586 0)
(-0.00107345 0.000412257 0)
(-0.00223072 0.000431307 0)
(-0.00328694 0.000412288 0)
(-0.00428099 0.000381323 0)
(-0.00518224 0.000341575 0)
(-0.00596718 0.00029333 0)
(-0.00661543 0.000236707 0)
(-0.00710755 0.000172009 0)
(-0.00742565 9.98232e-05 0)
(-0.00755408 2.11958e-05 0)
(-0.00747962 -6.3188e-05 0)
(-0.00719301 -0.000151099 0)
(-0.00669087 -0.000239909 0)
(-0.00597643 -0.00032635 0)
(-0.00506092 -0.000406475 0)
(-0.00396718 -0.000475361 0)
(-0.00274038 -0.000524331 0)
(-0.00135291 -0.000519185 0)
(-0.000302098 -0.000305105 0)
(-0.000427738 0.00107577 0)
(-0.00179376 0.00174305 0)
(-0.00356442 0.00180047 0)
(-0.0051889 0.00171319 0)
(-0.006709 0.00157433 0)
(-0.00807836 0.00139742 0)
(-0.009261 0.00118541 0)
(-0.0102266 0.000940443 0)
(-0.0109476 0.000665083 0)
(-0.0113992 0.000362562 0)
(-0.0115616 3.67884e-05 0)
(-0.011418 -0.000306763 0)
(-0.0109572 -0.000659651 0)
(-0.0101772 -0.00101211 0)
(-0.00908517 -0.00135189 0)
(-0.00769931 -0.00166413 0)
(-0.0060544 -0.00193042 0)
(-0.004214 -0.00211803 0)
(-0.00215183 -0.00210579 0)
(-0.0005239 -0.00134556 0)
(-0.000477904 0.00229607 0)
(-0.00198887 0.00355553 0)
(-0.00393644 0.00365149 0)
(-0.0057205 0.0034673 0)
(-0.00738844 0.00317824 0)
(-0.00889041 0.00281164 0)
(-0.0101879 0.00237474 0)
(-0.0112486 0.0018731 0)
(-0.0120432 0.00131278 0)
(-0.0125458 0.000700866 0)
(-0.0127342 4.57898e-05 0)
(-0.0125886 -0.0006414 0)
(-0.0120962 -0.00134546 0)
(-0.0112531 -0.00204718 0)
(-0.0100642 -0.00272266 0)
(-0.00854652 -0.00334307 0)
(-0.00673549 -0.00387238 0)
(-0.00469976 -0.00424654 0)
(-0.00240901 -0.00423652 0)
(-0.000590144 -0.00280463 0)
(-0.00050635 0.00352541 0)
(-0.00211389 0.00539918 0)
(-0.00418802 0.00553359 0)
(-0.00608619 0.00525084 0)
(-0.00786242 0.00481118 0)
(-0.00946494 0.00425534 0)
(-0.0108542 0.00359456 0)
(-0.011997 0.00283743 0)
(-0.012863 0.00199299 0)
(-0.0134246 0.0010715 0)
(-0.0136578 8.54971e-05 0)
(-0.0135395 -0.00094954 0)
(-0.0130512 -0.00201333 0)
(-0.0121835 -0.00307799 0)
(-0.0109361 -0.00410796 0)
(-0.00932089 -0.00505937 0)
(-0.00737052 -0.0058764 0)
(-0.00515792 -0.00645984 0)
(-0.00264878 -0.00646321 0)
(-0.000648816 -0.00432144 0)
(-0.000541944 0.00483842 0)
(-0.00226945 0.0073715 0)
(-0.00450167 0.00754682 0)
(-0.00654352 0.00715984 0)
(-0.00845659 0.00656179 0)
(-0.010187 0.00580787 0)
(-0.0116943 0.00491352 0)
(-0.0129448 0.00389032 0)
(-0.0139072 0.00274988 0)
(-0.014552 0.00150474 0)
(-0.014852 0.000169693 0)
(-0.0147799 -0.00123609 0)
(-0.0143106 -0.00268803 0)
(-0.0134254 -0.00415117 0)
(-0.012114 -0.00557865 0)
(-0.0103793 -0.00690981 0)
(-0.00824779 -0.00806482 0)
(-0.0057964 -0.00890081 0)
(-0.0029866 -0.0089351 0)
(-0.000732856 -0.00601009 0)
(-0.000589083 0.00625927 0)
(-0.00247317 0.00951061 0)
(-0.00491057 0.00973019 0)
(-0.00713843 0.00923148 0)
(-0.00922789 0.00846508 0)
(-0.0111227 0.00750208 0)
(-0.0127816 0.00636263 0)
(-0.0141711 0.00506123 0)
(-0.0152592 0.00361143 0)
(-0.0160153 0.00202695 0)
(-0.0164086 0.000323232 0)
(-0.0164067 -0.00148002 0)
(-0.0159749 -0.00335609 0)
(-0.0150819 -0.00526478 0)
(-0.0137025 -0.00714901 0)
(-0.0118237 -0.00892996 0)
(-0.00945926 -0.0104981 0)
(-0.00668795 -0.011654 0)
(-0.00346445 -0.0117498 0)
(-0.00085376 -0.00794314 0)
(-0.000649046 0.00781731 0)
(-0.002731 0.0118605 0)
(-0.00542623 0.0121276 0)
(-0.007886 0.0115067 0)
(-0.0101938 0.0105586 0)
(-0.012291 0.00937253 0)
(-0.0141362 0.00797406 0)
(-0.0156971 0.00638069 0)
(-0.0169425 0.00460726 0)
(-0.0178412 0.00266703 0)
(-0.0183598 0.000573623 0)
(-0.0184601 -0.00165571 0)
(-0.0180961 -0.00399682 0)
(-0.0172191 -0.00640842 0)
(-0.0157814 -0.00882629 0)
(-0.0137441 -0.0111535 0)
(-0.0110965 -0.0132438 0)
(-0.00791179 -0.0148232 0)
(-0.00413184 -0.0150333 0)
(-0.00102615 -0.0102184 0)
(-0.000723255 0.00954681 0)
(-0.00304927 0.0144726 0)
(-0.00606054 0.0147892 0)
(-0.00880108 0.014031 0)
(-0.0113706 0.0128831 0)
(-0.0137081 0.0114559 0)
(-0.0157737 0.00978161 0)
(-0.0175381 0.00788121 0)
(-0.0189731 0.0057701 0)
(-0.020049 0.00345924 0)
(-0.0207315 0.000957198 0)
(-0.0209772 -0.00172596 0)
(-0.0207277 -0.00457509 0)
(-0.0199117 -0.00755517 0)
(-0.0184499 -0.010602 0)
(-0.0162616 -0.0136044 0)
(-0.0132915 -0.0163743 0)
(-0.00958848 -0.018537 0)
(-0.00507002 -0.0189534 0)
(-0.00127636 -0.0129748 0)
(-0.000814033 0.0114865 0)
(-0.0034373 0.0174043 0)
(-0.00683006 0.0177693 0)
(-0.0099036 0.016852 0)
(-0.0127789 0.0154796 0)
(-0.0153934 0.0137878 0)
(-0.0177112 0.0118178 0)
(-0.0197088 0.00959463 0)
(-0.0213647 0.00713392 0)
(-0.0226542 0.00444225 0)
(-0.0235451 0.00151927 0)
(-0.0239924 -0.00163832 0)
(-0.0239254 -0.00503376 0)
(-0.0232464 -0.00865015 0)
(-0.0218337 -0.0124374 0)
(-0.0195433 -0.0162819 0)
(-0.0162409 -0.0199547 0)
(-0.0119097 -0.0229513 0)
(-0.00642119 -0.0237364 0)
(-0.00165572 -0.0164201 0)
(-0.000925353 0.0136819 0)
(-0.00390937 0.0207218 0)
(-0.00775895 0.0211281 0)
(-0.0112214 0.0200193 0)
(-0.0144462 0.0183881 0)
(-0.0173709 0.0164011 0)
(-0.0199673 0.0141113 0)
(-0.0222223 0.0115496 0)
(-0.0241258 0.00873156 0)
(-0.025664 0.00565762 0)
(-0.0268122 0.0023143 0)
(-0.0275304 -0.00132241 0)
(-0.0277397 -0.00528633 0)
(-0.0273157 -0.00959677 0)
(-0.0260856 -0.0142425 0)
(-0.0238153 -0.0191346 0)
(-0.0202393 -0.0240216 0)
(-0.015188 -0.0282473 0)
(-0.00844869 -0.0296921 0)
(-0.00227134 -0.0208909 0)
(-0.00106429 0.0161898 0)
(-0.0044882 0.024504 0)
(-0.00888313 0.0249326 0)
(-0.0127942 0.0235843 0)
(-0.01641 0.0216461 0)
(-0.0196714 0.0193231 0)
(-0.0225633 0.0166839 0)
(-0.0250892 0.0137675 0)
(-0.0272572 0.0105904 0)
(-0.029072 0.00714589 0)
(-0.0305256 0.00340328 0)
(-0.0315934 -0.000691244 0)
(-0.0322001 -0.00520974 0)
(-0.0322032 -0.010239 0)
(-0.0313771 -0.0158452 0)
(-0.0293726 -0.0220168 0)
(-0.0257268 -0.0285347 0)
(-0.0199464 -0.0346069 0)
(-0.0116712 -0.0372455 0)
(-0.00336204 -0.0269764 0)
(-0.00124406 0.0190861 0)
(-0.00521101 0.0288473 0)
(-0.010257 0.0292588 0)
(-0.0146794 0.0275986 0)
(-0.0187217 0.0252853 0)
(-0.0223347 0.0225707 0)
(-0.0255237 0.0195441 0)
(-0.0283166 0.0162559 0)
(-0.0307482 0.0127255 0)
(-0.0328519 0.0089394 0)
(-0.0346502 0.00484817 0)
(-0.0361441 0.000362684 0)
(-0.0372883 -0.00463958 0)
(-0.0379525 -0.0103428 0)
(-0.0378718 -0.0169473 0)
(-0.0365772 -0.0246114 0)
(-0.0333467 -0.0332767 0)
(-0.0270798 -0.0421192 0)
(-0.0171679 -0.0469369 0)
(-0.0054872 -0.0357989 0)
(-0.00149164 0.0224829 0)
(-0.0061418 0.0338807 0)
(-0.0119635 0.0341948 0)
(-0.0169604 0.0321119 0)
(-0.0214532 0.0293268 0)
(-0.0254145 0.0261449 0)
(-0.0288791 0.0226811 0)
(-0.0319089 0.0190007 0)
(-0.0345748 0.0151292 0)
(-0.0369504 0.0110499 0)
(-0.0391035 0.00669766 0)
(-0.0410824 0.0019503 0)
(-0.0429075 -0.00338571 0)
(-0.0445141 -0.00957934 0)
(-0.0456608 -0.0170593 0)
(-0.0458142 -0.0262928 0)
(-0.0439889 -0.0376342 0)
(-0.0381124 -0.0505251 0)
(-0.0272187 -0.0592381 0)
(-0.0100136 -0.0498194 0)
(-0.00186136 0.0264581 0)
(-0.00740127 0.0397188 0)
(-0.0141389 0.0398232 0)
(-0.0197606 0.0371669 0)
(-0.0247049 0.0337763 0)
(-0.0289828 0.0300228 0)
(-0.0326693 0.0260547 0)
(-0.0358695 0.0219547 0)
(-0.0386999 0.0177574 0)
(-0.0412841 0.0134497 0)
(-0.0437503 0.00896426 0)
(-0.0462283 0.0041698 0)
(-0.0488194 -0.00116834 0)
(-0.05163 -0.00748851 0)
(-0.05461 -0.0154356 0)
(-0.0573327 -0.0259342 0)
(-0.0587234 -0.0401956 0)
(-0.0554042 -0.0586841 0)
(-0.0462876 -0.0741053 0)
(-0.0200694 -0.0735897 0)
(-0.00237939 0.0318518 0)
(-0.00903375 0.0466531 0)
(-0.0169246 0.0461892 0)
(-0.0232376 0.0426609 0)
(-0.0286137 0.0385199 0)
(-0.0331384 0.0341102 0)
(-0.0369472 0.0295805 0)
(-0.0402038 0.02503 0)
(-0.0430742 0.0205156 0)
(-0.0457338 0.0160399 0)
(-0.0483679 0.0115426 0)
(-0.051192 0.00687411 0)
(-0.0545323 0.00177715 0)
(-0.0587368 -0.00421731 0)
(-0.0640744 -0.0118453 0)
(-0.0707498 -0.0225301 0)
(-0.0782016 -0.0386103 0)
(-0.0812419 -0.063505 0)
(-0.0787687 -0.0898289 0)
(-0.0374569 -0.115761 0)
(-0.00410091 0.0364622 0)
(-0.012641 0.0555009 0)
(-0.0209117 0.054207 0)
(-0.0276851 0.0497294 0)
(-0.0332721 0.0443655 0)
(-0.0379169 0.0388041 0)
(-0.0417238 0.0333578 0)
(-0.0448812 0.0281708 0)
(-0.0476023 0.023295 0)
(-0.0501294 0.0187291 0)
(-0.052743 0.0144593 0)
(-0.0557666 0.0104223 0)
(-0.0596136 0.00650689 0)
(-0.0648525 0.00240932 0)
(-0.0723508 -0.00269114 0)
(-0.0832792 -0.0109378 0)
(-0.0988316 -0.0262124 0)
(-0.110441 -0.0605137 0)
(-0.118332 -0.109408 0)
(-0.0490472 -0.193488 0)
(-0.00278363 0.0512439 0)
(-0.0126316 0.0610427 0)
(-0.0255658 0.0585327 0)
(-0.0331988 0.0522693 0)
(-0.0394277 0.0465101 0)
(-0.0439066 0.0408274 0)
(-0.0471196 0.0353397 0)
(-0.0495166 0.0301106 0)
(-0.051435 0.0252174 0)
(-0.0531343 0.0207058 0)
(-0.0548693 0.016659 0)
(-0.0569415 0.0130818 0)
(-0.0598752 0.0101064 0)
(-0.0645437 0.00761702 0)
(-0.0725818 0.00538527 0)
(-0.08557 0.000694332 0)
(-0.108955 -0.0115304 0)
(-0.122079 -0.057668 0)
(-0.137295 -0.145882 0)
(-0.0277383 -0.301453 0)
(-0.0114436 0.044943 0)
(-0.0295174 0.0854586 0)
(-0.0323575 0.0782292 0)
(-0.0408294 0.0697332 0)
(-0.0442411 0.0598562 0)
(-0.0461455 0.0503609 0)
(-0.0466842 0.0418685 0)
(-0.0464964 0.034563 0)
(-0.0459592 0.0284014 0)
(-0.0453361 0.0232479 0)
(-0.0449833 0.0192086 0)
(-0.0450403 0.0162719 0)
(-0.0460692 0.0149957 0)
(-0.048017 0.01587 0)
(-0.0527415 0.0199086 0)
(-0.0568191 0.0230984 0)
(-0.0727148 0.0198093 0)
(-0.062431 -0.0440396 0)
(-0.0892635 -0.181607 0)
(0.0244728 -0.380365 0)
(-0.0728845 0.108669 0)
(-0.0564365 0.0683913 0)
(-0.0560647 0.0632978 0)
(-0.0379468 0.0537507 0)
(-0.0223819 0.0442801 0)
(-0.00701693 0.0365743 0)
(0.00687937 0.0303879 0)
(0.0191329 0.0252046 0)
(0.029461 0.0208969 0)
(0.0384072 0.0171773 0)
(0.0455077 0.014563 0)
(0.0523224 0.0123056 0)
(0.0573382 0.0119232 0)
(0.0650671 0.011505 0)
(0.0686148 0.0137097 0)
(0.0906248 0.0109008 0)
(0.0813529 -0.00176676 0)
(0.132942 -0.0624064 0)
(0.0657765 -0.228733 0)
(0.100356 -0.397474 0)
(0.123749 0.142379 0)
(0.161732 0.0886647 0)
(0.242919 0.0652875 0)
(0.298999 0.0493165 0)
(0.341852 0.0377193 0)
(0.376202 0.0288271 0)
(0.403739 0.0220984 0)
(0.426419 0.0169267 0)
(0.443511 0.0131839 0)
(0.45949 0.0101777 0)
(0.468217 0.00806077 0)
(0.48321 0.00661786 0)
(0.482857 0.00468638 0)
(0.503736 0.00543495 0)
(0.490779 0.00131976 0)
(0.522731 0.00413824 0)
(0.487389 -0.00664976 0)
(0.510622 -0.022932 0)
(0.381343 -0.0586274 0)
(0.265635 -0.144912 0)
)
;

boundaryField
{
    movingWall
    {
        type            fixedValue;
        value           uniform (1 0 0);
    }
    fixedWalls
    {
        type            noSlip;
    }
    frontAndBack
    {
        type            empty;
    }
}


// ************************************************************************* //
