/*--------------------------------*- C++ -*----------------------------------*\
  =========                 |
  \\      /  F ield         | OpenFOAM: The Open Source CFD Toolbox
   \\    /   O peration     | Website:  https://openfoam.org
    \\  /    A nd           | Version:  10
     \\/     M anipulation  |
\*---------------------------------------------------------------------------*/
FoamFile
{
    format      ascii;
    class       volVectorField;
    location    "5.975";
    object      U;
}
// * * * * * * * * * * * * * * * * * * * * * * * * * * * * * * * * * * * * * //

dimensions      [0 1 -1 0 0 0 0];

internalField   nonuniform List<vector> 
496
(
(9.95553 0.0871765 0)
(9.92749 -0.167051 0)
(10.1547 -0.135354 0)
(10.7627 -0.186329 0)
(9.99298 0.533622 0)
(9.86117 -1.25637 0)
(10.181 -0.358924 0)
(10.8689 -1.04922 0)
(10.6981 1.4105 0)
(9.24468 -3.01288 0)
(11.1178 -0.164827 0)
(10.892 -4.1015 0)
(11.9044 1.67923 0)
(8.27097 -2.75589 0)
(12.6116 1.00754 0)
(10.4136 -6.70684 0)
(11.423 -0.246907 3.19728e-18)
(12.1472 -0.180413 -6.3701e-19)
(11.5824 -0.475625 -4.81775e-19)
(12.5336 0.238999 1.75956e-18)
(12.9541 -2.16984 -2.71946e-18)
(13.2639 -0.423059 -1.12196e-18)
(12.9037 -5.20387 -3.55239e-17)
(15.8809 -4.53333 6.41013e-17)
(12.6851 -0.191993 0)
(12.9867 -0.183447 0)
(13.1435 -0.0804651 0)
(13.1738 -0.0247263 0)
(13.0422 0.145551 0)
(13.495 -0.172618 0)
(13.7235 -0.506006 0)
(13.8349 -0.754821 0)
(12.6457 0.668576 0)
(12.7298 1.1922 0)
(13.0301 0.785414 0)
(13.1104 0.387806 0)
(10.4044 -2.54509 0)
(10.288 -1.53336 0)
(7.00636 -2.32101 0)
(8.58345 -0.679964 0)
(13.2061 0.126077 0)
(13.228 0.191008 0)
(13.2587 0.308721 0)
(13.2366 0.325269 0)
(13.2313 0.34941 0)
(13.1386 0.340916 0)
(13.1348 0.300224 0)
(12.974 0.298898 0)
(12.9871 0.25649 0)
(12.8064 0.294853 0)
(12.8602 0.261676 0)
(12.6461 0.299995 0)
(12.645 0.266486 0)
(12.3882 0.293284 0)
(12.3474 0.279232 0)
(12.1503 0.296399 0)
(12.1004 0.293951 0)
(11.9235 0.282624 0)
(11.7748 0.272837 0)
(11.5718 0.256011 0)
(11.4029 0.257815 0)
(11.2366 0.242757 0)
(11.146 0.223847 0)
(11.0721 0.172075 0)
(11.1067 0.134047 0)
(11.1051 0.0977865 0)
(11.1825 0.10451 0)
(11.1364 0.103664 0)
(11.1587 0.162444 0)
(11.0133 0.177227 0)
(10.9614 0.220185 0)
(10.616 0.226292 0)
(10.5103 0.250845 0)
(10.028 0.28117 0)
(10.0452 0.242231 0)
(9.69653 0.243822 0)
(9.90369 0.13827 0)
(9.89928 0.125756 0)
(10.0983 0.0428095 0)
(10.365 0.0601578 0)
(13.9119 -0.655931 0)
(13.927 -0.56357 0)
(13.9659 -0.30585 0)
(13.8622 -0.26956 0)
(13.9098 -0.153266 0)
(13.7591 -0.144117 0)
(13.8408 -0.133457 0)
(13.6927 -0.102711 0)
(13.8044 -0.130838 0)
(13.6678 -0.0384401 0)
(13.7526 -0.0830172 0)
(13.6073 0.00297504 0)
(13.5995 -0.0486302 0)
(13.4612 -0.0123402 0)
(13.3954 -0.00861061 0)
(13.3187 0.000632737 0)
(13.2201 0.0696087 0)
(13.1408 0.044884 0)
(12.9822 0.103826 0)
(12.8758 0.0569153 0)
(12.7239 0.0475064 0)
(12.604 0.00149955 0)
(12.5009 -0.0671227 0)
(12.4335 -0.0691865 0)
(12.4946 -0.151385 0)
(12.5199 -0.146382 0)
(12.6715 -0.154386 0)
(12.6712 -0.113185 0)
(12.825 0.0334154 0)
(12.6967 0.0911206 0)
(12.7682 0.270259 0)
(12.483 0.228649 0)
(12.4715 0.242231 0)
(12.1041 0.125336 0)
(12.0306 -0.0423449 0)
(11.7972 -0.0835336 0)
(11.7814 -0.332279 0)
(11.8668 -0.279767 0)
(11.8874 -0.474023 0)
(12.2011 -0.349749 0)
(13.7361 0.227472 0)
(13.7627 0.236641 0)
(13.9726 0.335205 0)
(13.6804 0.17774 0)
(13.7312 0.180603 0)
(13.648 0.16431 0)
(13.5817 0.223476 0)
(13.6604 0.238735 0)
(13.5308 0.192359 0)
(13.7061 0.347966 0)
(13.5744 0.215214 0)
(13.7084 0.408595 0)
(13.5284 0.241772 0)
(13.5921 0.379538 0)
(13.5193 0.296241 0)
(13.5488 0.378018 0)
(13.5739 0.435006 0)
(13.4956 0.454912 0)
(13.495 0.5855 0)
(13.2979 0.54826 0)
(13.2576 0.607337 0)
(13.0325 0.462516 0)
(13.039 0.374511 0)
(12.8458 0.13249 0)
(12.9034 0.0323842 0)
(12.7299 -0.179031 0)
(12.8965 -0.0992825 0)
(12.7942 -0.204298 0)
(13.0994 0.091286 0)
(13.0878 0.156933 0)
(13.3654 0.458917 0)
(13.3284 0.662418 0)
(13.3004 0.738491 0)
(13.2353 0.939543 0)
(12.9421 0.623692 0)
(13.0286 0.633019 0)
(12.659 0.0143418 0)
(12.7288 -0.0756736 0)
(12.503 -0.463642 0)
(12.502 -0.418708 0)
(7.92164 -0.19957 0)
(9.79267 -0.0326523 0)
(8.85876 -0.381596 0)
(8.60723 -0.139104 0)
(8.44875 0.0582501 0)
(8.72982 -0.0875949 0)
(9.08557 0.00181398 0)
(8.33427 -0.0378325 0)
(8.81231 0.0865466 0)
(8.81277 0.0966012 0)
(8.83493 0.0828401 0)
(9.30072 -0.0099542 0)
(8.57303 -0.00156711 0)
(9.60602 0.000729716 0)
(8.76816 -0.0347965 0)
(9.89146 0.0278373 0)
(9.35294 0.00286506 0)
(10.1611 0.0839979 0)
(10.002 0.0980356 0)
(10.211 0.18604 0)
(10.277 0.248263 0)
(9.91793 0.261836 0)
(9.80479 0.263567 0)
(9.12139 0.23907 0)
(9.17339 0.199122 0)
(8.49409 0.0476065 0)
(8.77484 -0.0611704 0)
(8.47166 -0.173329 0)
(9.20317 -0.234573 0)
(9.15596 -0.238126 0)
(9.98451 -0.136908 0)
(10.3376 -0.0344365 0)
(10.6977 0.0757922 0)
(11.2086 0.154539 0)
(10.7531 0.130986 0)
(11.0964 0.260696 0)
(9.84514 0.138667 0)
(9.92902 0.237117 0)
(8.86289 0.109122 0)
(8.75899 -0.122019 0)
(12.3766 0.5039 -1.07393e-17)
(7.91882 -0.726055 -1.8088e-17)
(11.639 -0.119017 3.1664e-17)
(4.92985 -4.57571 -8.51184e-17)
(11.7621 -0.599656 1.07588e-17)
(8.40893 0.866787 1.8167e-17)
(10.9994 -0.0239637 -3.17677e-17)
(5.28882 4.75703 8.53924e-17)
(-10.6833 2.09555 0)
(13.7057 5.58666 0)
(-10.5726 1.1943 0)
(7.4325 -3.44598 0)
(6.15086 -5.71442 3.75257e-17)
(-4.46852 1.19794 0)
(6.32462 -0.51759 0)
(-2.37392 -2.37506 0)
(-1.63041 0.0380209 0)
(3.17575 1.8077 0)
(-3.39047 -0.355353 0)
(1.57687 -1.14041 0)
(1.68772 -0.187829 0)
(-1.16762 1.80441 0)
(0.554855 -0.47649 0)
(-0.094529 -0.277215 0)
(0.558203 0.225114 0)
(0.91078 0.580578 0)
(0.57329 0.199331 0)
(0.459229 0.130426 0)
(0.876373 0.0832343 0)
(1.2261 0.13605 0)
(1.1224 -0.0222548 0)
(1.69415 0.0194929 0)
(1.74097 0.189711 0)
(2.14898 0.327001 0)
(2.23316 0.310182 0)
(2.09543 0.425377 0)
(2.83557 0.777381 0)
(2.31779 0.6376 0)
(2.30727 0.671082 0)
(2.97013 0.687231 0)
(2.51903 0.31193 0)
(2.75943 -0.0173658 0)
(3.05537 -0.288321 0)
(3.44212 -0.418992 0)
(3.27282 -0.51673 0)
(4.0306 -0.558792 0)
(4.04583 -0.264593 0)
(4.42008 -0.00478649 0)
(4.57473 0.230971 0)
(4.40046 0.562327 0)
(4.62624 0.809286 0)
(4.32939 0.913008 0)
(4.11262 0.742029 0)
(4.35929 0.681939 0)
(4.02148 0.0113548 0)
(4.42634 -0.329227 0)
(-1.55298 1.28363 0)
(0.69737 0.919939 0)
(-0.171951 0.480502 0)
(1.47083 -2.20249 0)
(-3.22885 1.67361 0)
(1.13484 0.0100614 0)
(0.780377 -1.26922 0)
(0.0395976 -0.0225154 0)
(0.0906386 -0.388296 0)
(0.756352 -0.231192 0)
(0.618969 -0.0899855 0)
(1.19612 -0.260765 0)
(1.36801 -0.521085 0)
(1.59107 -0.484358 0)
(1.58304 -0.433958 0)
(1.48372 -0.411074 0)
(1.70033 -0.328745 0)
(2.08146 -0.421432 0)
(2.21991 -0.133367 0)
(1.98594 0.0650732 0)
(2.88708 0.0675845 0)
(2.83149 0.358048 0)
(2.96996 0.349361 0)
(3.96336 -0.0326525 0)
(3.68443 0.00302387 0)
(3.87801 -0.187889 0)
(4.41402 -0.639344 0)
(3.79403 -0.699859 0)
(4.27223 -0.866581 0)
(3.79381 -0.834909 0)
(3.64825 -0.57542 0)
(4.29852 -0.436636 0)
(3.47027 0.0368553 0)
(4.47821 0.368865 0)
(4.17255 0.508145 0)
(4.7129 0.655602 0)
(4.99538 0.51677 0)
(5.08853 0.402275 0)
(5.66729 -0.0724221 0)
(5.41495 -0.455309 0)
(12.7234 -1.58441 0)
(7.56165 2.58301 0)
(13.7519 -0.804153 0)
(9.53126 6.44051 0)
(10.9874 -1.48486 0)
(8.84887 3.05072 0)
(11.2915 -0.0253319 0)
(10.4969 4.19962 0)
(10.1413 -0.540514 0)
(9.69974 1.34297 0)
(10.293 0.294296 0)
(10.7199 1.21006 0)
(9.96321 -0.0854891 0)
(9.92646 0.197396 0)
(10.1998 0.0935874 0)
(10.7479 0.231117 0)
(14.1121 5.38608 3.50821e-17)
(14.9691 4.2898 -6.58015e-17)
(12.9103 1.91616 0)
(12.7952 0.497725 0)
(11.6831 0.38596 0)
(12.3828 -0.142064 0)
(11.4657 0.175268 0)
(12.1434 0.182845 0)
(12.5113 2.70691 0)
(10.5758 2.00417 0)
(8.41646 1.10993 0)
(11.4568 1.22124 0)
(12.1156 -1.24429 0)
(12.3811 -1.08459 0)
(12.4493 -0.523931 0)
(13.1612 -0.413711 0)
(12.9952 -0.142532 0)
(13.3285 0.284913 0)
(13.5654 0.586625 0)
(13.6461 0.699585 0)
(12.6936 0.149842 0)
(12.9238 0.113392 0)
(13.12 0.0632178 0)
(13.1102 -0.0690022 0)
(9.73527 0.466084 0)
(11.3191 0.380013 0)
(9.29101 0.335784 0)
(11.2878 0.112865 0)
(9.87293 0.463362 0)
(9.89576 0.120417 0)
(10.1682 0.0493899 0)
(10.3625 0.106357 0)
(10.3032 0.0109783 0)
(10.2181 -0.031103 0)
(10.536 -0.0812378 0)
(9.96354 -0.120362 0)
(10.6754 -0.175374 0)
(9.93566 -0.138445 0)
(10.5182 -0.175075 0)
(9.82627 -0.109141 0)
(10.1442 -0.0950947 0)
(9.61487 -0.0354917 0)
(9.79415 -0.024962 0)
(9.57137 0.081248 0)
(9.62861 0.101142 0)
(9.93842 0.183503 0)
(9.8336 0.188353 0)
(10.6248 0.0864402 0)
(10.5983 0.00756755 0)
(11.3194 -0.135965 0)
(11.1626 -0.208678 0)
(11.7735 -0.291364 0)
(11.1326 -0.22274 0)
(11.3432 -0.219163 0)
(10.4142 -0.0950159 0)
(10.2873 -0.0946974 0)
(9.77106 0.0546972 0)
(9.37191 0.234017 0)
(9.69079 0.296637 0)
(9.41953 0.409249 0)
(10.2903 0.279362 0)
(10.3081 0.204723 0)
(11.054 -0.0212352 0)
(11.4721 -0.134144 0)
(13.1686 -0.257695 0)
(13.6731 -0.405999 0)
(13.3271 -0.161817 0)
(13.5514 -0.383473 0)
(13.2997 -0.224123 0)
(13.3146 -0.297922 0)
(13.3035 -0.310962 0)
(13.2289 -0.36867 0)
(13.3789 -0.52419 0)
(13.1311 -0.427954 0)
(13.3647 -0.616873 0)
(12.9994 -0.400604 0)
(13.24 -0.562761 0)
(12.8547 -0.367507 0)
(13.092 -0.465396 0)
(12.79 -0.336833 0)
(12.9829 -0.335706 0)
(12.7353 -0.222988 0)
(12.8784 -0.150116 0)
(12.7694 -0.131668 0)
(12.8935 -0.0844122 0)
(12.9212 -0.183219 0)
(13.015 -0.213246 0)
(13.112 -0.444484 0)
(13.0468 -0.562905 0)
(13.0153 -0.825187 0)
(12.7099 -0.799466 0)
(12.6437 -0.936271 0)
(12.327 -0.629469 0)
(12.3324 -0.51066 0)
(12.0922 -0.0519241 0)
(12.0886 0.127675 0)
(12.1144 0.270644 0)
(12.1521 0.387255 0)
(12.3869 0.149417 0)
(12.4399 0.236485 0)
(12.7655 -0.31337 0)
(12.7754 -0.300262 0)
(12.9725 -0.806691 0)
(12.7329 -0.902845 0)
(13.7436 0.702602 0)
(13.8229 0.493869 0)
(13.8354 0.450128 0)
(13.8292 0.289328 0)
(13.7548 0.317938 0)
(13.7317 0.239447 0)
(13.6664 0.26276 0)
(13.6442 0.207439 0)
(13.5951 0.182272 0)
(13.552 0.14289 0)
(13.5046 0.103876 0)
(13.4037 0.11429 0)
(13.3253 0.104966 0)
(13.1724 0.134032 0)
(13.126 0.124004 0)
(13.0128 0.132774 0)
(13.0495 0.104503 0)
(12.9318 0.14413 0)
(12.9937 0.138641 0)
(12.9091 0.166574 0)
(13.0558 0.114635 0)
(12.9661 0.107179 0)
(13.0628 0.0205687 0)
(12.8834 -0.0306728 0)
(12.891 -0.108991 0)
(12.6519 -0.110195 0)
(12.5548 -0.0402425 0)
(12.3055 0.00618578 0)
(12.1514 0.165893 0)
(12.0316 0.16422 0)
(11.9561 0.317081 0)
(12.0555 0.296998 0)
(12.1088 0.368432 0)
(12.3414 0.30707 0)
(12.4417 0.225227 0)
(12.568 0.114357 0)
(12.6443 -0.0887101 0)
(12.477 -0.139367 0)
(12.562 -0.274335 0)
(12.1629 -0.100501 0)
(13.244 -0.0949692 0)
(13.2149 -0.257153 0)
(13.3347 -0.277897 0)
(13.2649 -0.385663 0)
(13.3087 -0.367084 0)
(13.1846 -0.3804 0)
(13.154 -0.379587 0)
(13.0383 -0.353315 0)
(12.956 -0.393702 0)
(12.8691 -0.360664 0)
(12.763 -0.421951 0)
(12.6849 -0.376037 0)
(12.5141 -0.40765 0)
(12.3889 -0.358589 0)
(12.2262 -0.363166 0)
(12.1226 -0.335336 0)
(12.081 -0.334765 0)
(11.9881 -0.309358 0)
(11.9856 -0.272858 0)
(11.8463 -0.255347 0)
(11.9114 -0.254352 0)
(11.7561 -0.279895 0)
(11.8078 -0.294388 0)
(11.5363 -0.323482 0)
(11.5215 -0.337432 0)
(11.1302 -0.372938 0)
(11.0625 -0.38208 0)
(10.6718 -0.401538 0)
(10.6651 -0.341544 0)
(10.4328 -0.312945 0)
(10.5138 -0.217143 0)
(10.5344 -0.192851 0)
(10.682 -0.136534 0)
(10.8628 -0.128057 0)
(10.8828 -0.165006 0)
(10.9471 -0.174699 0)
(10.8058 -0.301883 0)
(10.6324 -0.289956 0)
(10.4761 -0.383713 0)
(9.97092 -0.376632 0)
)
;

boundaryField
{
    inlet
    {
        type            fixedValue;
        value           uniform (10 0 0);
    }
    outlet
    {
        type            zeroGradient;
    }
    obstacle
    {
        type            noSlip;
    }
    upperWall
    {
        type            noSlip;
    }
    lowerWall
    {
        type            noSlip;
    }
    frontAndBack
    {
        type            empty;
    }
}


// ************************************************************************* //
