/*--------------------------------*- C++ -*----------------------------------*\
  =========                 |
  \\      /  F ield         | OpenFOAM: The Open Source CFD Toolbox
   \\    /   O peration     | Website:  https://openfoam.org
    \\  /    A nd           | Version:  10
     \\/     M anipulation  |
\*---------------------------------------------------------------------------*/
FoamFile
{
    format      ascii;
    class       volVectorField;
    location    "0.325";
    object      U;
}
// * * * * * * * * * * * * * * * * * * * * * * * * * * * * * * * * * * * * * //

dimensions      [0 1 -1 0 0 0 0];

internalField   nonuniform List<vector> 
400
(
(-0.000148841 0.000147763 0)
(-0.000453351 0.000153845 0)
(-0.000756675 0.000146184 0)
(-0.0010402 0.000134595 0)
(-0.00129687 0.000119679 0)
(-0.00152048 0.000101903 0)
(-0.00170581 8.17739e-05 0)
(-0.00184864 5.98168e-05 0)
(-0.00194585 3.65546e-05 0)
(-0.00199532 1.25018e-05 0)
(-0.00199598 -1.1835e-05 0)
(-0.00194778 -3.59506e-05 0)
(-0.00185167 -5.93331e-05 0)
(-0.00170963 -8.14578e-05 0)
(-0.00152473 -0.000101787 0)
(-0.00130112 -0.000119777 0)
(-0.00104404 -0.0001349 0)
(-0.000759706 -0.000146666 0)
(-0.000455276 -0.000154454 0)
(-0.000149495 -0.000148406 0)
(-0.000162688 0.000459076 0)
(-0.000495248 0.000477623 0)
(-0.000826142 0.000453767 0)
(-0.00113525 0.000417689 0)
(-0.00141488 0.000371285 0)
(-0.00165832 0.000316036 0)
(-0.00185993 0.000253533 0)
(-0.00201521 0.000185411 0)
(-0.00212084 0.000113286 0)
(-0.00217459 3.87411e-05 0)
(-0.00217533 -3.66734e-05 0)
(-0.00212299 -0.000111413 0)
(-0.00201858 -0.000183911 0)
(-0.00186418 -0.000252555 0)
(-0.00166305 -0.00031568 0)
(-0.00141962 -0.000371596 0)
(-0.00113953 -0.000418645 0)
(-0.000829532 -0.000455278 0)
(-0.000497401 -0.000479529 0)
(-0.00016342 -0.000461088 0)
(-0.000171087 0.00079363 0)
(-0.000520753 0.000825161 0)
(-0.000868413 0.000783677 0)
(-0.00119277 0.000721025 0)
(-0.00148575 0.000640567 0)
(-0.0017404 0.000544938 0)
(-0.00195097 0.000436942 0)
(-0.00211295 0.000319412 0)
(-0.00222304 0.000195123 0)
(-0.00227907 6.6757e-05 0)
(-0.00227994 -6.30769e-05 0)
(-0.00222557 -0.000191787 0)
(-0.0021169 -0.000316737 0)
(-0.00195598 -0.00043519 0)
(-0.00174599 -0.000544294 0)
(-0.00149137 -0.000641112 0)
(-0.00119785 -0.000722724 0)
(-0.000872446 -0.000786374 0)
(-0.000523319 -0.000828569 0)
(-0.00017196 -0.000797231 0)
(-0.000183888 0.00114837 0)
(-0.000559557 0.00119344 0)
(-0.000932604 0.0011328 0)
(-0.00127994 0.00104144 0)
(-0.00159291 0.000924423 0)
(-0.00186422 0.000785729 0)
(-0.002088 0.000629518 0)
(-0.00225978 0.000459916 0)
(-0.00237639 0.000280884 0)
(-0.00243575 9.61871e-05 0)
(-0.00243683 -9.05583e-05 0)
(-0.00237953 -0.000275776 0)
(-0.00226472 -0.000455808 0)
(-0.00209427 -0.000626813 0)
(-0.00187123 -0.000784715 0)
(-0.00159998 -0.000925233 0)
(-0.00128636 -0.00104403 0)
(-0.000937708 -0.00113694 0)
(-0.000562811 -0.00119869 0)
(-0.000184995 -0.00115392 0)
(-0.000201805 0.00153369 0)
(-0.000613803 0.00159306 0)
(-0.00102214 0.00151082 0)
(-0.00140119 0.0013874 0)
(-0.00174149 0.00122992 0)
(-0.00203535 0.00104404 0)
(-0.00227683 0.000835509 0)
(-0.00246163 0.000609879 0)
(-0.00258681 0.000372334 0)
(-0.00265056 0.000127673 0)
(-0.00265195 -0.000119577 0)
(-0.00259086 -0.000364972 0)
(-0.00246799 -0.000603936 0)
(-0.00228493 -0.000831566 0)
(-0.00204445 -0.00104252 0)
(-0.00175072 -0.00123104 0)
(-0.00140961 -0.00139111 0)
(-0.00102886 -0.00151681 0)
(-0.000618096 -0.00160069 0)
(-0.000203266 -0.00154178 0)
(-0.000225607 0.00196058 0)
(-0.00068575 0.00203508 0)
(-0.00114054 0.00192766 0)
(-0.00156088 0.00176731 0)
(-0.00193626 0.00156384 0)
(-0.00225863 0.00132507 0)
(-0.00252216 0.00105868 0)
(-0.00272296 0.00077183 0)
(-0.00285859 0.000470949 0)
(-0.00292766 0.000161765 0)
(-0.00292948 -0.000150469 0)
(-0.00286389 -0.000460653 0)
(-0.00273131 -0.000763473 0)
(-0.00253285 -0.00105307 0)
(-0.0022707 -0.00132283 0)
(-0.00194857 -0.00156531 0)
(-0.00157217 -0.00177246 0)
(-0.0011496 -0.00193608 0)
(-0.000691562 -0.00204587 0)
(-0.000227587 -0.00197206 0)
(-0.000256422 0.00244182 0)
(-0.000778684 0.00253222 0)
(-0.00129282 0.00239441 0)
(-0.00176506 0.00219021 0)
(-0.00218373 0.00193312 0)
(-0.00254051 0.00163382 0)
(-0.00283006 0.00130244 0)
(-0.00304935 0.000947934 0)
(-0.00319688 0.000577947 0)
(-0.00327198 0.000198935 0)
(-0.00327437 -0.000183441 0)
(-0.00320387 -0.000563779 0)
(-0.00306041 -0.000936352 0)
(-0.00284429 -0.00129456 0)
(-0.00255669 -0.00163054 0)
(-0.00220035 -0.00193496 0)
(-0.00178043 -0.00219723 0)
(-0.00130524 -0.00240608 0)
(-0.000786693 -0.00254733 0)
(-0.000259155 -0.00245794 0)
(-0.000295911 0.00299291 0)
(-0.000897404 0.00309965 0)
(-0.00148616 0.00292379 0)
(-0.00202223 0.00266593 0)
(-0.00249265 0.00234474 0)
(-0.00288932 0.00197489 0)
(-0.00320806 0.00156955 0)
(-0.00344745 0.00113971 0)
(-0.00360759 0.000694092 0)
(-0.00368905 0.000239511 0)
(-0.00369219 -0.000218493 0)
(-0.00361681 -0.000674791 0)
(-0.0034621 -0.00112378 0)
(-0.00322704 -0.00155852 0)
(-0.0029111 -0.00197003 0)
(-0.00251525 -0.0023469 0)
(-0.00204335 -0.00267531 0)
(-0.0015034 -0.00293981 0)
(-0.000908602 -0.00312068 0)
(-0.000299745 -0.00301551 0)
(-0.000346579 0.00363342 0)
(-0.00104904 0.00375594 0)
(-0.00173095 0.00353056 0)
(-0.00234418 0.00320497 0)
(-0.00287476 0.00280534 0)
(-0.00331571 0.00235184 0)
(-0.00366525 0.00186151 0)
(-0.00392481 0.00134752 0)
(-0.00409707 0.000819375 0)
(-0.00418457 0.000283565 0)
(-0.00418867 -0.000255304 0)
(-0.00410916 -0.00079328 0)
(-0.00394414 -0.00132574 0)
(-0.00369054 -0.00184607 0)
(-0.00334506 -0.00234457 0)
(-0.00290563 -0.0028076 0)
(-0.00237343 -0.00321732 0)
(-0.00175514 -0.00355244 0)
(-0.00106491 -0.00378521 0)
(-0.000352042 -0.00366515 0)
(-0.000412336 0.00438907 0)
(-0.00124445 0.00452459 0)
(-0.00204247 0.00423209 0)
(-0.00274754 0.00381827 0)
(-0.00334578 0.00332039 0)
(-0.00383315 0.00276625 0)
(-0.00421237 0.00217764 0)
(-0.00448958 0.00156987 0)
(-0.00467155 0.000952529 0)
(-0.00476373 0.000330748 0)
(-0.00476904 -0.000293074 0)
(-0.00468724 -0.000917498 0)
(-0.00451489 -0.00154018 0)
(-0.00424588 -0.00215598 0)
(-0.00387262 -0.00275524 0)
(-0.00338801 -0.00332221 0)
(-0.0027883 -0.00383418 0)
(-0.0020768 -0.00426179 0)
(-0.00126733 -0.0045654 0)
(-0.000420273 -0.00443393 0)
(-0.000499599 0.00529538 0)
(-0.00150086 0.00543605 0)
(-0.00244369 0.00504868 0)
(-0.00325598 0.00451636 0)
(-0.00392679 0.00389277 0)
(-0.00445846 0.00321609 0)
(-0.00486163 0.0025136 0)
(-0.00514992 0.00180225 0)
(-0.0053362 0.00109038 0)
(-0.00543017 0.000380053 0)
(-0.00543692 -0.000330349 0)
(-0.00535626 -0.00104375 0)
(-0.00518263 -0.00176195 0)
(-0.00490561 -0.00248314 0)
(-0.00451128 -0.00319919 0)
(-0.00398457 -0.00389293 0)
(-0.00331313 -0.00453616 0)
(-0.00249304 -0.00508865 0)
(-0.00153452 -0.00549312 0)
(-0.000511446 -0.00535953 0)
(-0.000619661 0.00640425 0)
(-0.00184671 0.00653055 0)
(-0.00296988 0.00600354 0)
(-0.00390357 0.00530742 0)
(-0.00464606 0.00452007 0)
(-0.00521233 0.00369306 0)
(-0.00562621 0.00285941 0)
(-0.00591281 0.00203589 0)
(-0.00609375 0.00122711 0)
(-0.00618445 0.000429571 0)
(-0.00619284 -0.000364806 0)
(-0.00611884 -0.00116569 0)
(-0.00595428 -0.00198152 0)
(-0.00568312 -0.0028165 0)
(-0.00528241 -0.0036668 0)
(-0.00472498 -0.00451607 0)
(-0.00398415 -0.00533067 0)
(-0.00304186 -0.0060566 0)
(-0.00189757 -0.00661054 0)
(-0.000638048 -0.00649757 0)
(-0.000793996 0.0077961 0)
(-0.00233134 0.00786144 0)
(-0.0036761 0.00712144 0)
(-0.00473961 0.00619319 0)
(-0.00554116 0.00518978 0)
(-0.00611913 0.00417893 0)
(-0.0065188 0.00319688 0)
(-0.00678221 0.00225605 0)
(-0.00694252 0.00135331 0)
(-0.00702209 0.000476139 0)
(-0.00703218 -0.000392992 0)
(-0.00697298 -0.00127339 0)
(-0.00683344 -0.00218328 0)
(-0.00659089 -0.00313648 0)
(-0.00621085 -0.00413788 0)
(-0.00564843 -0.00517677 0)
(-0.00485383 -0.00621754 0)
(-0.00378278 -0.00719015 0)
(-0.00241087 -0.00797356 0)
(-0.00082411 -0.00793513 0)
(-0.00106614 0.00960355 0)
(-0.00304415 0.00949798 0)
(-0.00464934 0.00842377 0)
(-0.00583542 0.00716033 0)
(-0.00666033 0.00587214 0)
(-0.00720524 0.00464029 0)
(-0.0075491 0.00349601 0)
(-0.00775638 0.00243981 0)
(-0.00787366 0.00145479 0)
(-0.00793076 0.000514927 0)
(-0.00794237 -0.000410164 0)
(-0.00790912 -0.00135247 0)
(-0.00781737 -0.00234344 0)
(-0.00763773 -0.00341126 0)
(-0.00732269 -0.00457606 0)
(-0.00680462 -0.00584125 0)
(-0.00599775 -0.00717913 0)
(-0.00480999 -0.00850872 0)
(-0.00317383 -0.00965394 0)
(-0.00111893 -0.00981767 0)
(-0.00152937 0.012065 0)
(-0.0041544 0.0115232 0)
(-0.00602738 0.00991421 0)
(-0.00729149 0.00816489 0)
(-0.00806123 0.00650864 0)
(-0.00849527 0.00502079 0)
(-0.00871928 0.00371078 0)
(-0.00882344 0.00255424 0)
(-0.00886741 0.00151192 0)
(-0.00888704 0.000539186 0)
(-0.00889957 -0.000410312 0)
(-0.00890625 -0.00138364 0)
(-0.00889224 -0.00242857 0)
(-0.00882351 -0.00359283 0)
(-0.00864083 -0.00492082 0)
(-0.00825149 -0.00644433 0)
(-0.00752152 -0.00816309 0)
(-0.00627271 -0.0100091 0)
(-0.00437643 -0.011734 0)
(-0.0016297 -0.0124038 0)
(-0.0023971 0.0155236 0)
(-0.00600198 0.0140015 0)
(-0.00802438 0.0115412 0)
(-0.00924136 0.00910565 0)
(-0.00980445 0.00699392 0)
(-0.0100031 0.00523207 0)
(-0.0100156 0.00377575 0)
(-0.00995522 0.00255585 0)
(-0.0098887 0.00150014 0)
(-0.00985297 0.000540462 0)
(-0.00986517 -0.000386739 0)
(-0.00992736 -0.00134375 0)
(-0.0100265 -0.00239564 0)
(-0.01013 -0.0036142 0)
(-0.0101742 -0.00507872 0)
(-0.0100468 -0.00687024 0)
(-0.0095627 -0.00905236 0)
(-0.00840031 -0.0116248 0)
(-0.00639632 -0.0142766 0)
(-0.00259937 -0.016145 0)
(-0.00406193 0.0216315 0)
(-0.00917934 0.0170519 0)
(-0.010943 0.0131684 0)
(-0.0118385 0.00978709 0)
(-0.0119338 0.00715441 0)
(-0.0117122 0.00514574 0)
(-0.0113942 0.00360646 0)
(-0.0110977 0.00239397 0)
(-0.0108814 0.00139243 0)
(-0.0107725 0.0005093 0)
(-0.0107823 -0.000333206 0)
(-0.0109137 -0.00120894 0)
(-0.0111611 -0.00219665 0)
(-0.011505 -0.00339192 0)
(-0.0118952 -0.00491778 0)
(-0.0122233 -0.00693226 0)
(-0.0122742 -0.00962171 0)
(-0.0115211 -0.0131852 0)
(-0.00996592 -0.0173369 0)
(-0.00455521 -0.0224765 0)
(-0.00834224 0.0262734 0)
(-0.0158737 0.0190806 0)
(-0.015255 0.0140298 0)
(-0.0151908 0.00971944 0)
(-0.0143736 0.0066923 0)
(-0.0134744 0.00459432 0)
(-0.0126878 0.00311274 0)
(-0.0120876 0.00202169 0)
(-0.0116901 0.00116632 0)
(-0.0114939 0.000438336 0)
(-0.0114974 -0.000245417 0)
(-0.0117034 -0.000959407 0)
(-0.0121205 -0.00178645 0)
(-0.0127599 -0.00283441 0)
(-0.0136201 -0.00426016 0)
(-0.0146513 -0.0062999 0)
(-0.0157076 -0.00929663 0)
(-0.0160346 -0.0137412 0)
(-0.0169788 -0.0188746 0)
(-0.00898549 -0.0285947 0)
(-0.0125684 0.0564974 0)
(-0.0210367 0.0233984 0)
(-0.0173025 0.0149438 0)
(-0.0157707 0.00871825 0)
(-0.0134631 0.00530759 0)
(-0.0115952 0.0033735 0)
(-0.010211 0.00217751 0)
(-0.00924966 0.00137558 0)
(-0.0086422 0.000786276 0)
(-0.00833853 0.000304556 0)
(-0.00831258 -0.000140088 0)
(-0.0085636 -0.000606775 0)
(-0.00911591 -0.00116532 0)
(-0.0100177 -0.00192149 0)
(-0.0113359 -0.00306639 0)
(-0.0131238 -0.00498135 0)
(-0.0153702 -0.00843082 0)
(-0.016371 -0.0151908 0)
(-0.0210325 -0.0248571 0)
(-0.00934997 -0.0595253 0)
(0.0661549 0.0442119 0)
(0.0581291 0.0151694 0)
(0.0873552 0.00846627 0)
(0.0935825 0.004349 0)
(0.0987337 0.00234327 0)
(0.101935 0.00136782 0)
(0.103905 0.000838234 0)
(0.105145 0.000517197 0)
(0.105896 0.000297836 0)
(0.106278 0.000127167 0)
(0.106347 -2.54788e-05 0)
(0.106108 -0.000183946 0)
(0.10552 -0.000375832 0)
(0.104476 -0.000648153 0)
(0.102746 -0.00109829 0)
(0.0999074 -0.00195017 0)
(0.094685 -0.00369811 0)
(0.0900298 -0.00784157 0)
(0.0588786 -0.014018 0)
(0.0685271 -0.0430936 0)
)
;

boundaryField
{
    movingWall
    {
        type            fixedValue;
        value           uniform (1 0 0);
    }
    fixedWalls
    {
        type            noSlip;
    }
    frontAndBack
    {
        type            empty;
    }
}


// ************************************************************************* //
