/*--------------------------------*- C++ -*----------------------------------*\
  =========                 |
  \\      /  F ield         | OpenFOAM: The Open Source CFD Toolbox
   \\    /   O peration     | Website:  https://openfoam.org
    \\  /    A nd           | Version:  10
     \\/     M anipulation  |
\*---------------------------------------------------------------------------*/
FoamFile
{
    format      ascii;
    class       surfaceScalarField;
    location    "6.625";
    object      phi;
}
// * * * * * * * * * * * * * * * * * * * * * * * * * * * * * * * * * * * * * //

dimensions      [0 3 -1 0 0 0 0];

internalField   nonuniform List<scalar> 
22800
(
-2.49819e-06
3.04999e-06
-5.46166e-07
-8.02742e-06
5.66259e-06
-1.33355e-07
-1.45855e-05
6.48642e-06
7.16586e-08
-2.15136e-05
6.74117e-06
1.86941e-07
-2.85394e-05
6.83549e-06
1.90336e-07
-3.55378e-05
6.88009e-06
1.18303e-07
-4.23829e-05
6.86338e-06
-1.83358e-08
-4.89182e-05
6.73214e-06
-1.96826e-07
-5.48929e-05
6.42792e-06
-4.53234e-07
-5.99794e-05
5.88168e-06
-7.95146e-07
-6.37673e-05
5.02132e-06
-1.23345e-06
-6.57747e-05
3.78248e-06
-1.7751e-06
-6.54847e-05
2.12756e-06
-2.41756e-06
-6.23903e-05
5.26931e-08
-3.14706e-06
-5.61338e-05
-2.34946e-06
-3.90707e-06
-4.66447e-05
-4.89423e-06
-4.59484e-06
-3.43515e-05
-7.22196e-06
-5.07128e-06
-2.04556e-05
-8.75342e-06
-5.1425e-06
-7.19967e-06
-8.60204e-06
-4.65387e-06
-4.60878e-06
-2.5909e-06
-4.97996e-06
9.63761e-06
-1.60766e-06
-1.43763e-05
1.64125e-05
-1.35354e-06
-2.52623e-05
1.85431e-05
-1.17079e-06
-3.66294e-05
1.91208e-05
-1.01246e-06
-4.80343e-05
1.91857e-05
-9.45315e-07
-5.92348e-05
1.90255e-05
-9.44948e-07
-7.00063e-05
1.86365e-05
-1.00155e-06
-8.00672e-05
1.79174e-05
-1.12438e-06
-8.90439e-05
1.6733e-05
-1.32835e-06
-9.64577e-05
1.4927e-05
-1.6315e-06
-0.000101719
1.23342e-05
-2.05171e-06
-0.00010414
8.80526e-06
-2.60182e-06
-0.000103026
4.29473e-06
-3.28094e-06
-9.77202e-05
-1.16607e-06
-4.08706e-06
-8.76694e-05
-7.48271e-06
-4.91761e-06
-7.2825e-05
-1.40564e-05
-5.68224e-06
-5.38277e-05
-2.00287e-05
-6.19057e-06
-3.24263e-05
-2.39574e-05
-6.19737e-06
-1.1918e-05
-2.36133e-05
-5.49709e-06
-1.3772e-05
-2.75476e-06
-5.83053e-06
1.76479e-05
-2.17979e-06
-1.66568e-05
2.92825e-05
-2.04373e-06
-2.91016e-05
3.28661e-05
-1.87821e-06
-4.20307e-05
3.37362e-05
-1.68626e-06
-5.49613e-05
3.36916e-05
-1.57532e-06
-6.76362e-05
3.32256e-05
-1.52524e-06
-7.982e-05
3.23502e-05
-1.52996e-06
-9.12182e-05
3.09191e-05
-1.60352e-06
-0.00010144
2.87217e-05
-1.76742e-06
-0.000109975
2.55097e-05
-2.0474e-06
-0.00011619
2.10184e-05
-2.46949e-06
-0.000119336
1.50066e-05
-3.05529e-06
-0.000118551
7.32888e-06
-3.81858e-06
-0.00011297
-2.00911e-06
-4.73843e-06
-0.00010191
-1.28065e-05
-5.73546e-06
-8.51362e-05
-2.41475e-05
-6.68316e-06
-6.32461e-05
-3.45794e-05
-7.33938e-06
-3.82204e-05
-4.1598e-05
-7.38511e-06
-1.40238e-05
-4.12621e-05
-6.54768e-06
-2.45952e-05
-3.20068e-06
-6.05209e-06
2.63144e-05
-2.61434e-06
-1.73986e-05
4.32232e-05
-2.59419e-06
-3.04311e-05
4.83501e-05
-2.4515e-06
-4.39801e-05
4.95275e-05
-2.24237e-06
-5.75737e-05
4.9391e-05
-2.10578e-06
-7.09829e-05
4.86609e-05
-2.02604e-06
-8.40051e-05
4.73742e-05
-2.00181e-06
-9.63771e-05
4.53448e-05
-2.05363e-06
-0.000107733
4.22878e-05
-2.2099e-06
-0.000117569
3.78515e-05
-2.5057e-06
-0.000125216
3.1644e-05
-2.97895e-06
-0.000129824
2.32798e-05
-3.66571e-06
-0.00013037
1.24728e-05
-4.597e-06
-0.000125783
-8.16113e-07
-5.78014e-06
-0.000114913
-1.65823e-05
-7.09415e-06
-9.71647e-05
-3.35004e-05
-8.39572e-06
-7.29004e-05
-4.94877e-05
-9.35603e-06
-4.42889e-05
-6.06817e-05
-9.52778e-06
-1.61681e-05
-6.08585e-05
-8.52434e-06
-3.65052e-05
-4.25816e-06
-6.05393e-06
3.53348e-05
-2.96647e-06
-1.76317e-05
5.78475e-05
-3.04659e-06
-3.09782e-05
6.46238e-05
-2.92719e-06
-4.4909e-05
6.61711e-05
-2.71272e-06
-5.89793e-05
6.60308e-05
-2.56952e-06
-7.30095e-05
6.51781e-05
-2.48706e-06
-8.68564e-05
6.36893e-05
-2.46828e-06
-0.000100319
6.13479e-05
-2.54026e-06
-0.00011309
5.77994e-05
-2.74094e-06
-0.0001247
5.25799e-05
-3.11821e-06
-0.000134463
4.5135e-05
-3.72829e-06
-0.000141425
3.4871e-05
-4.62914e-06
-0.000144333
2.12528e-05
-5.87228e-06
-0.000141695
4.02637e-06
-7.48007e-06
-0.000131881
-1.70174e-05
-9.37911e-06
-0.000113545
-4.05079e-05
-1.13286e-05
-8.65489e-05
-6.35984e-05
-1.28851e-05
-5.31378e-05
-8.07227e-05
-1.33701e-05
-1.94021e-05
-8.24644e-05
-1.21298e-05
-4.96155e-05
-6.29178e-06
-5.98541e-06
4.4625e-05
-3.30479e-06
-1.77199e-05
7.30653e-05
-3.48325e-06
-3.13227e-05
8.16161e-05
-3.38955e-06
-4.55914e-05
8.36176e-05
-3.1778e-06
-6.0116e-05
8.35949e-05
-3.03943e-06
-7.47818e-05
8.28149e-05
-2.97093e-06
-8.95287e-05
8.14175e-05
-2.98127e-06
-0.000104251
7.91753e-05
-3.10526e-06
-0.000118737
7.56784e-05
-3.393e-06
-0.0001326
7.03538e-05
-3.91038e-06
-0.000145189
6.24632e-05
-4.73994e-06
-0.000155472
5.11302e-05
-5.97581e-06
-0.000161955
3.54444e-05
-7.70916e-06
-0.000162594
1.46795e-05
-1.00141e-05
-0.000155067
-1.16402e-05
-1.29034e-05
-0.000136851
-4.27137e-05
-1.60109e-05
-0.000106768
-7.49665e-05
-1.87141e-05
-6.67779e-05
-0.000100786
-1.99276e-05
-2.46895e-05
-0.000106133
-1.842e-05
-6.43966e-05
-9.90846e-06
-5.88161e-06
5.41868e-05
-3.68021e-06
-1.7751e-05
8.89052e-05
-3.97051e-06
-3.15876e-05
9.93583e-05
-3.90545e-06
-4.61608e-05
0.000101889
-3.69781e-06
-6.10995e-05
0.000102099
-3.56566e-06
-7.63684e-05
0.000101599
-3.51506e-06
-9.20153e-05
0.000100628
-3.56346e-06
-0.000108067
9.89835e-05
-3.75658e-06
-0.000124463
9.62353e-05
-4.16093e-06
-0.000140971
9.17298e-05
-4.86839e-06
-0.00015706
8.45545e-05
-6.00216e-06
-0.000171724
7.3513e-05
-7.71877e-06
-0.000183255
5.71695e-05
-1.01943e-05
-0.00018908
3.40694e-05
-1.35645e-05
-0.00018598
3.3839e-06
-1.8124e-05
-0.000169548
-3.58786e-05
-2.32667e-05
-0.000136761
-7.95352e-05
-2.8219e-05
-8.82839e-05
-0.000118068
-3.11945e-05
-3.38372e-05
-0.000130928
-2.96512e-05
-8.16745e-05
-1.65593e-05
-5.74631e-06
6.40582e-05
-4.12514e-06
-1.77345e-05
0.000105444
-4.55072e-06
-3.17654e-05
0.000117904
-4.51531e-06
-4.65623e-05
0.00012099
-4.30457e-06
-6.17939e-05
0.0001215
-4.16921e-06
-7.75163e-05
0.000121449
-4.12759e-06
-9.39088e-05
0.000121229
-4.20874e-06
-0.00011117
0.000120718
-4.47304e-06
-0.000129457
0.000119531
-5.00894e-06
-0.000148788
0.000117006
-5.9445e-06
-0.0001689
0.00011213
-7.46379e-06
-0.000189002
0.000103439
-9.82415e-06
-0.000207425
8.89492e-05
-1.33559e-05
-0.000221155
6.62422e-05
-1.8443e-05
-0.000225407
3.29412e-05
-2.53061e-05
-0.000214509
-1.25545e-05
-3.42217e-05
-0.000181421
-6.90347e-05
-4.35883e-05
-0.000123441
-0.000125275
-5.07738e-05
-5.09564e-05
-0.000152898
-5.05147e-05
-0.000102523
-3.01076e-05
-5.59375e-06
7.43211e-05
-4.66912e-06
-1.76949e-05
0.000122808
-5.2624e-06
-3.18575e-05
0.000137321
-5.25412e-06
-4.67352e-05
0.000140891
-5.02315e-06
-6.20327e-05
0.00014166
-4.86213e-06
-7.79039e-05
0.000142125
-4.80495e-06
-9.4675e-05
0.000142896
-4.89562e-06
-0.00011275
0.000144006
-5.2132e-06
-0.000132562
0.000145217
-5.87391e-06
-0.000154496
0.000145992
-7.05278e-06
-0.000178736
0.000145389
-9.01834e-06
-0.000204982
0.000141862
-1.21776e-05
-0.000231974
0.000133053
-1.71124e-05
-0.000256791
0.000115602
-2.45433e-05
-0.000273962
8.53164e-05
-3.52041e-05
-0.000274819
3.82745e-05
-4.99717e-05
-0.00024818
-2.79797e-05
-6.76939e-05
-0.000183113
-0.00010638
-8.39613e-05
-8.52765e-05
-0.000162094
-8.86406e-05
-0.000128668
-5.91318e-05
-5.47384e-06
8.51461e-05
-5.35116e-06
-1.77249e-05
0.000141213
-6.15458e-06
-3.19506e-05
0.000157712
-6.16526e-06
-4.67071e-05
0.000161531
-5.88385e-06
-6.17295e-05
0.00016234
-5.65797e-06
-7.72692e-05
0.000163206
-5.5409e-06
-9.37989e-05
0.00016502
-5.59469e-06
-0.000111932
0.000168059
-5.91946e-06
-0.00013241
0.000172359
-6.66412e-06
-0.000156074
0.000177718
-8.06231e-06
-0.000183752
0.000183558
-1.04901e-05
-0.000216008
0.000188664
-1.45461e-05
-0.000252617
0.00019083
-2.11669e-05
-0.000291691
0.000186353
-3.16766e-05
-0.0003283
0.000169569
-4.76437e-05
-0.000352178
0.000132538
-7.03853e-05
-0.00034577
6.62164e-05
-0.000100604
-0.000285136
-3.51506e-05
-0.000131864
-0.000155295
-0.000145068
-0.000146867
-0.000169529
-0.000114434
-5.50182e-06
9.68815e-05
-6.23351e-06
-1.80411e-05
0.000161053
-7.30089e-06
-3.22865e-05
0.000179271
-7.31339e-06
-4.66752e-05
0.000182853
-6.93282e-06
-6.09694e-05
0.000183215
-6.5805e-06
-7.55181e-05
0.000184088
-6.334e-06
-9.09174e-05
0.000186695
-6.27589e-06
-0.000107952
0.00019162
-6.52644e-06
-0.000127627
0.0001993
-7.26518e-06
-0.000151216
0.000210092
-8.78514e-06
-0.000180279
0.000224185
-1.15655e-05
-0.000216584
0.000241372
-1.64033e-05
-0.000261747
0.000260614
-2.46209e-05
-0.000316432
0.000279192
-3.81541e-05
-0.000378836
0.000291229
-5.92564e-05
-0.000440797
0.000283844
-8.93451e-05
-0.000478841
0.000230627
-0.000126367
-0.000444508
9.04288e-05
-0.000159911
-0.000283553
-0.000129223
-0.000176801
-0.000277431
-0.00017565
-5.90839e-06
0.000110216
-7.42598e-06
-1.90616e-05
0.000183036
-8.82926e-06
-3.33479e-05
0.000202376
-8.81891e-06
-4.70927e-05
0.000204861
-8.26374e-06
-6.01102e-05
0.00020392
-7.68792e-06
-7.28528e-05
0.000204037
-7.20636e-06
-8.59973e-05
0.000206765
-6.92556e-06
-0.0001004
0.000213003
-6.98088e-06
-0.00011719
0.000223662
-7.57183e-06
-0.000137896
0.000239832
-9.03343e-06
-0.000164632
0.000262824
-1.19032e-05
-0.000200282
0.00029408
-1.70572e-05
-0.000248698
0.000334903
-2.58729e-05
-0.000314647
0.000384946
-3.98052e-05
-0.00040291
0.000438164
-5.86722e-05
-0.000511646
0.000469279
-7.66981e-05
-0.0006199
0.000418069
-7.91884e-05
-0.000649014
0.000170743
-5.12006e-05
-0.00046472
-0.000273939
-3.95778e-05
-0.000595362
-0.00014679
-7.12787e-06
0.000126452
-9.10797e-06
-2.15248e-05
0.000208311
-1.08782e-05
-3.59674e-05
0.000227568
-1.07491e-05
-4.87654e-05
0.000227547
-9.88758e-06
-5.98846e-05
0.000224005
-8.96593e-06
-6.98975e-05
0.000222185
-8.13455e-06
-7.95197e-05
0.000223896
-7.50845e-06
-8.95088e-05
0.000230208
-7.21652e-06
-0.000100841
0.000242454
-7.45938e-06
-0.000114904
0.000262443
-8.54835e-06
-0.000133828
0.000292724
-1.09754e-05
-0.00016094
0.000336498
-1.53062e-05
-0.000201898
0.000397777
-2.19167e-05
-0.000266023
0.00047756
-2.84892e-05
-0.000370396
0.000566783
-2.42461e-05
-0.000532962
0.00061646
1.53852e-05
-0.000753298
0.000514879
0.000123526
-0.000897521
4.60063e-05
0.000268959
-0.000658769
-0.000789357
0.000276667
-0.00124051
-1.36171e-05
-1.01578e-05
0.00014843
-1.18202e-05
-2.68755e-05
0.000239264
-1.42353e-05
-4.1534e-05
0.000256251
-1.40248e-05
-5.28327e-05
0.000251526
-1.26806e-05
-6.12859e-05
0.000243551
-1.10921e-05
-6.76895e-05
0.000238146
-9.55786e-06
-7.26134e-05
0.000237089
-8.26946e-06
-7.6532e-05
0.000241514
-7.38722e-06
-7.99489e-05
0.000252931
-7.05973e-06
-8.35291e-05
0.000273515
-7.4923e-06
-8.86312e-05
0.00030676
-8.93446e-06
-9.79275e-05
0.000356813
-1.10191e-05
-0.00011867
0.000430068
-1.15483e-05
-0.000166719
0.000526185
-5.75432e-07
-0.00028538
0.000635641
4.98032e-05
-0.000535288
0.000678949
0.000187419
-0.000930214
0.000475669
0.000434136
-0.00115174
-0.000373836
0.000641373
-0.00081807
-0.00162062
0.000497589
-0.00209071
3.21256e-05
-1.54808e-05
0.000179649
-1.57382e-05
-3.58554e-05
0.000277599
-1.79603e-05
-5.11722e-05
0.000288777
-1.72089e-05
-6.12923e-05
0.000276589
-1.49428e-05
-6.6765e-05
0.00026162
-1.25971e-05
-6.8688e-05
0.000250446
-1.03769e-05
-6.77135e-05
0.000244572
-8.45655e-06
-6.39794e-05
0.000244732
-6.95216e-06
-5.72639e-05
0.00025219
-5.97466e-06
-4.69993e-05
0.000268811
-5.55986e-06
-3.30556e-05
0.00029842
-5.60307e-06
-1.66702e-05
0.000344788
-4.36013e-06
-6.21494e-06
0.000416286
3.326e-06
-2.84665e-05
0.000512202
3.62343e-05
-0.000154267
0.000626791
0.00013465
-0.000487535
0.000656372
0.000355846
-0.00100983
0.000328751
0.000669209
-0.00124885
-0.00091474
0.00077993
-0.000928201
-0.00235112
0.000409853
-0.00292648
-9.24306e-05
-3.65842e-05
0.000240096
-2.38632e-05
-6.04278e-05
0.000329439
-2.7997e-05
-7.25691e-05
0.000327158
-2.62398e-05
-7.60544e-05
0.000302584
-2.25096e-05
-7.4929e-05
0.000278641
-1.81462e-05
-7.07065e-05
0.000260199
-1.3976e-05
-6.34988e-05
0.000247715
-1.03506e-05
-5.23722e-05
0.000241052
-7.4468e-06
-3.59546e-05
0.00024114
-5.36774e-06
-1.19459e-05
0.000248783
-3.98104e-06
2.1822e-05
0.000267593
-2.94122e-06
6.59153e-05
0.000300145
5.49718e-07
0.000114887
0.000354282
1.3033e-05
0.000143489
0.000427282
5.6318e-05
6.79777e-05
0.000526003
0.000176299
-0.000228027
0.000537275
0.000415101
-0.000728353
0.00013024
0.000698838
-0.00106824
-0.00123539
0.000660543
-0.00093708
-0.00272405
0.000241765
-0.00359299
-0.000270567
-3.07427e-05
0.000310308
-3.94688e-05
-7.19571e-05
0.000409419
-3.8765e-05
-9.19929e-05
0.000381625
-3.44308e-05
-9.92045e-05
0.000336127
-2.63317e-05
-9.53549e-05
0.000294663
-1.98711e-05
-8.41184e-05
0.000262903
-1.39402e-05
-6.74018e-05
0.000239935
-8.93723e-06
-4.51199e-05
0.000223768
-4.99735e-06
-1.61179e-05
0.000214486
-2.34772e-06
2.26909e-05
0.000210786
-8.11408e-07
7.48124e-05
0.000215519
-4.78502e-08
0.000145213
0.000227603
2.14136e-06
0.000232989
0.000253874
1.26306e-05
0.000327379
0.000286752
4.61412e-05
0.000373367
0.000334939
0.000145075
0.000254075
0.000322436
0.000334131
-0.000135249
-1.28062e-05
0.00053237
-0.000634311
-0.0012218
0.000485472
-0.000768201
-0.00275945
0.00016929
-0.00392577
-0.000435419
-0.000180041
0.000539504
-4.91548e-05
-0.00017901
0.000469217
-6.08295e-05
-0.000153276
0.000414115
-5.82249e-05
-0.00012451
0.000355701
-4.83389e-05
-8.76934e-05
0.000292479
-3.46327e-05
-4.78036e-05
0.000245017
-2.20034e-05
-6.51426e-06
0.000210782
-1.21357e-05
3.74986e-05
0.000184695
-4.93991e-06
8.54514e-05
0.00016707
-5.37305e-07
0.000141533
0.000153313
1.3909e-06
0.000208497
0.000147863
6.92707e-07
0.000293972
0.000143733
-1.60478e-06
0.000397301
0.000150217
3.28736e-07
0.000517966
0.000151012
1.50745e-05
0.000631654
0.000155342
6.59091e-05
0.00067146
0.000100419
0.000182211
0.000517829
-0.000152344
0.000293169
-8.61329e-06
-0.00100866
0.000313297
-0.000398764
-0.00245422
8.49189e-05
-0.00375191
-0.000572631
-0.000370622
0.00107878
-0.000168659
-0.000261745
0.000483182
-0.000122842
-0.000108197
0.000353103
-9.25356e-05
5.95284e-05
0.000251563
-6.35881e-05
0.000218389
0.000178302
-4.46841e-05
0.000363186
0.000129972
-2.97515e-05
0.00049206
0.000100135
-1.8228e-05
0.000607538
7.89136e-05
-9.69674e-06
0.000711918
6.6507e-05
-3.81695e-06
0.000810452
5.56654e-05
-8.86269e-07
0.000906925
5.23041e-05
-9.14206e-07
0.00100849
4.68621e-05
-4.69601e-06
0.00112038
4.80789e-05
-9.74961e-06
0.00124209
4.01752e-05
-1.08709e-05
0.00137786
2.4294e-05
-4.72753e-06
0.00147614
-4.12027e-05
4.33446e-05
0.00144778
-0.000223944
9.99593e-05
0.00104733
-0.000731795
0.000123583
0.000281725
-0.00169844
9.82741e-06
-0.00276139
-0.000708791
0.00122726
-0.000148476
0.00186912
-0.000158682
0.00237899
-0.000156768
0.00277219
-0.00014163
0.00307422
-0.000123731
0.0033123
-0.000108107
0.00350637
-9.39387e-05
0.00366755
-8.22643e-05
0.00380492
-7.08607e-05
0.00392429
-6.37027e-05
0.00403194
-5.5347e-05
0.00413154
-5.27427e-05
0.0042267
-4.7081e-05
0.00431467
-4.77879e-05
0.00437713
-3.81675e-05
0.00437409
-3.81681e-05
0.00416686
-1.67114e-05
0.0034842
-4.91307e-05
0.00189542
-0.000109663
-0.000865971
-4.34068e-06
4.87073e-06
-1.07621e-06
-1.38118e-05
1.02071e-05
-8.69293e-07
-2.50283e-05
1.19585e-05
-6.7031e-07
-3.66375e-05
1.23416e-05
-5.45501e-07
-4.81771e-05
1.22763e-05
-5.46419e-07
-5.94474e-05
1.20387e-05
-6.5e-07
-7.02564e-05
1.16372e-05
-8.46566e-07
-8.03135e-05
1.10051e-05
-1.14484e-06
-8.92515e-05
1.00455e-05
-1.56079e-06
-9.6589e-05
8.65473e-06
-2.11231e-06
-0.000101737
6.72916e-06
-2.81464e-06
-0.000104019
4.18118e-06
-3.67422e-06
-0.000102723
9.67452e-07
-4.68108e-06
-9.71787e-05
-2.8988e-06
-5.79252e-06
-8.69179e-05
-7.23761e-06
-6.93025e-06
-7.186e-05
-1.16913e-05
-7.96147e-06
-5.26297e-05
-1.56069e-05
-8.69463e-06
-3.10256e-05
-1.78538e-05
-8.89281e-06
-1.08029e-05
-1.65606e-05
-8.31595e-06
-7.93469e-06
-5.45915e-06
-9.91476e-06
1.55241e-05
-2.34629e-06
-2.77277e-05
2.91577e-05
-2.49127e-06
-4.82009e-05
3.35806e-05
-2.3197e-06
-6.91644e-05
3.44128e-05
-2.12017e-06
-8.97552e-05
3.39604e-05
-2.03858e-06
-0.000109509
3.2917e-05
-2.06917e-06
-0.000128002
3.13386e-05
-2.21019e-06
-0.000144731
2.90884e-05
-2.47905e-06
-0.000159077
2.59652e-05
-2.90155e-06
-0.00017029
2.17427e-05
-3.50608e-06
-0.000177488
1.61926e-05
-4.31732e-06
-0.000179676
9.11604e-06
-5.34936e-06
-0.000175936
5.45059e-07
-6.59851e-06
-0.00016527
-9.64997e-06
-8.00187e-06
-0.000147101
-2.08752e-05
-9.44898e-06
-0.000121438
-3.22681e-05
-1.07686e-05
-8.93197e-05
-4.22221e-05
-1.16932e-05
-5.35332e-05
-4.79405e-05
-1.18972e-05
-1.9782e-05
-4.48093e-05
-1.09996e-05
-2.36509e-05
-6.82055e-06
-1.21876e-05
2.86177e-05
-3.08579e-06
-3.35302e-05
5.1916e-05
-3.45932e-06
-5.78167e-05
5.93043e-05
-3.31545e-06
-8.25241e-05
6.0505e-05
-3.0711e-06
-0.000106674
5.94652e-05
-2.93054e-06
-0.000129739
5.73567e-05
-2.89971e-06
-0.000151246
5.42994e-05
-2.984e-06
-0.000170646
5.00947e-05
-3.20913e-06
-0.000187273
4.44356e-05
-3.61118e-06
-0.000200312
3.69651e-05
-4.23051e-06
-0.000208801
2.7317e-05
-5.10513e-06
-0.00021166
1.51833e-05
-6.26321e-06
-0.000207682
4.62842e-07
-7.71452e-06
-0.000195699
-1.69845e-05
-9.3868e-06
-0.000174881
-3.62574e-05
-1.11716e-05
-0.000145024
-5.59568e-05
-1.28513e-05
-0.000107148
-7.3358e-05
-1.40794e-05
-6.44526e-05
-8.36079e-05
-1.44135e-05
-2.38647e-05
-7.8607e-05
-1.33379e-05
-4.25624e-05
-8.15389e-06
-1.30307e-05
4.27305e-05
-3.69647e-06
-3.58976e-05
7.647e-05
-4.28142e-06
-6.18567e-05
8.69845e-05
-4.17257e-06
-8.82425e-05
8.85517e-05
-3.90325e-06
-0.000114071
8.69147e-05
-3.72636e-06
-0.000138845
8.3763e-05
-3.65853e-06
-0.000162125
7.92911e-05
-3.71346e-06
-0.0001834
7.32431e-05
-3.9271e-06
-0.000202027
6.52011e-05
-4.34847e-06
-0.000217188
5.46546e-05
-5.03483e-06
-0.000227856
4.1051e-05
-6.04459e-06
-0.000232789
2.38804e-05
-7.42985e-06
-0.000230575
2.87375e-06
-9.2219e-06
-0.000219598
-2.23404e-05
-1.14005e-05
-0.000198448
-5.07061e-05
-1.3796e-05
-0.000166356
-8.02969e-05
-1.61471e-05
-0.000124006
-0.000107091
-1.79728e-05
-7.49486e-05
-0.000123566
-1.86273e-05
-2.76378e-05
-0.000117087
-1.73555e-05
-6.38454e-05
-1.06129e-05
-1.34097e-05
5.74162e-05
-4.24239e-06
-3.71852e-05
0.000102232
-5.03359e-06
-6.42245e-05
0.00011606
-4.96331e-06
-9.17748e-05
0.000118073
-4.68327e-06
-0.000118884
0.000115947
-4.49237e-06
-0.000145125
0.000111936
-4.41836e-06
-0.000170144
0.000106327
-4.48474e-06
-0.000193517
9.88162e-05
-4.74035e-06
-0.000214675
8.88692e-05
-5.25154e-06
-0.000232833
7.57943e-05
-6.09968e-06
-0.000246918
5.87835e-05
-7.3757e-06
-0.000255504
3.70045e-05
-9.16809e-06
-0.000256761
9.79991e-06
-1.15407e-05
-0.000248553
-2.34778e-05
-1.45507e-05
-0.000228509
-6.21341e-05
-1.79953e-05
-0.000194825
-0.00010377
-2.15399e-05
-0.000147394
-0.000142907
-2.45008e-05
-8.9941e-05
-0.000168543
-2.5846e-05
-3.31741e-05
-0.000161678
-2.43051e-05
-8.8432e-05
-1.48794e-05
-1.371e-05
7.26201e-05
-4.79873e-06
-3.83155e-05
0.000129163
-5.8088e-06
-6.6391e-05
0.000146528
-5.78185e-06
-9.50966e-05
0.0001491
-5.49919e-06
-0.000123525
0.000146643
-5.30723e-06
-0.000151352
0.000142038
-5.24668e-06
-0.000178349
0.000135696
-5.35324e-06
-0.000204231
0.000127285
-5.6922e-06
-0.000228562
0.000116161
-6.3532e-06
-0.000250661
0.000101434
-7.4514e-06
-0.000269467
8.19763e-05
-9.12652e-06
-0.000283395
5.64867e-05
-1.15306e-05
-0.000290187
2.36918e-05
-1.48089e-05
-0.000286956
-1.76188e-05
-1.91036e-05
-0.000269957
-6.77673e-05
-2.42694e-05
-0.000235679
-0.000124188
-2.98706e-05
-0.000182369
-0.000180006
-3.49256e-05
-0.000113328
-0.000219787
-3.77236e-05
-4.23289e-05
-0.000215198
-3.59002e-05
-0.000118775
-2.18944e-05
-1.40402e-05
8.84091e-05
-5.42896e-06
-3.95568e-05
0.0001574
-6.69021e-06
-6.87587e-05
0.000178535
-6.71102e-06
-9.86995e-05
0.000181766
-6.42395e-06
-0.000128526
0.000179134
-6.22924e-06
-0.000158043
0.000174223
-6.18356e-06
-0.000187193
0.000167621
-6.33829e-06
-0.000215897
0.000159011
-6.78001e-06
-0.000243942
0.000147676
-7.62958e-06
-0.000270863
0.000132535
-9.04982e-06
-0.000295746
0.000112111
-1.12529e-05
-0.000316982
8.45034e-05
-1.4499e-05
-0.000331908
4.75106e-05
-1.90875e-05
-0.000336974
-8.00837e-07
-2.53165e-05
-0.000326468
-6.3201e-05
-3.31962e-05
-0.000294337
-0.000137292
-4.22933e-05
-0.000235643
-0.000215681
-5.12386e-05
-0.000151525
-0.000277939
-5.71608e-05
-5.88154e-05
-0.000282186
-5.53727e-05
-0.000160622
-3.35275e-05
-1.44237e-05
0.00010489
-6.18253e-06
-4.0969e-05
0.000187139
-7.74441e-06
-7.13886e-05
0.000212253
-7.81376e-06
-0.000102596
0.000216177
-7.50788e-06
-0.000133798
0.000213458
-7.29145e-06
-0.000164955
0.000208493
-7.24105e-06
-0.00019623
0.000202116
-7.42771e-06
-0.000227826
0.000194098
-7.96442e-06
-0.000259873
0.000183725
-9.01188e-06
-0.000292289
0.000169804
-1.07969e-05
-0.000324548
0.000150542
-1.36354e-05
-0.000355325
0.000123409
-1.79537e-05
-0.000381967
8.50736e-05
-2.42766e-05
-0.000399816
3.17192e-05
-3.31139e-05
-0.000402033
-4.10398e-05
-4.52497e-05
-0.000378657
-0.00013462
-6.02703e-05
-0.000319137
-0.000242413
-7.63754e-05
-0.000218263
-0.000340675
-8.89116e-05
-9.20344e-05
-0.000370435
-8.8494e-05
-0.000229107
-5.3657e-05
-1.48876e-05
0.000122219
-7.11087e-06
-4.26026e-05
0.000218632
-9.04066e-06
-7.43038e-05
0.000247854
-9.15309e-06
-0.000106719
0.000252368
-8.79809e-06
-0.000139117
0.000249514
-8.51977e-06
-0.000171637
0.000244627
-8.41927e-06
-0.000204707
0.000238881
-8.59108e-06
-0.000238887
0.000232244
-9.17858e-06
-0.000274782
0.000224136
-1.0389e-05
-0.000312915
0.000213411
-1.25275e-05
-0.000353484
0.000198139
-1.60464e-05
-0.000395937
0.000175291
-2.16065e-05
-0.00043827
0.00014041
-3.01157e-05
-0.000475834
8.74949e-05
-4.27551e-05
-0.000501362
1.01628e-05
-6.08783e-05
-0.000500586
-0.000100387
-8.49809e-05
-0.000454661
-0.000242881
-0.000113151
-0.000342898
-0.000398626
-0.000137773
-0.000165007
-0.000495658
-0.000141309
-0.000364089
-8.91564e-05
-1.55065e-05
0.000140657
-8.28261e-06
-4.45955e-05
0.000252235
-1.06687e-05
-7.76288e-05
0.000285531
-1.08093e-05
-0.000111096
0.000290305
-1.03538e-05
-0.000144327
0.000287033
-9.94635e-06
-0.000177657
0.000282134
-9.71796e-06
-0.000211805
0.000277224
-9.78941e-06
-0.000247743
0.000272597
-1.03352e-05
-0.000286661
0.000268
-1.16105e-05
-0.000329921
0.000262615
-1.4006e-05
-0.000378886
0.000254748
-1.81332e-05
-0.000434533
0.00024134
-2.49489e-05
-0.000496733
0.000217345
-3.59018e-05
-0.000563073
0.000175098
-5.294e-05
-0.00062657
0.000104199
-7.81828e-05
-0.000674792
-8.42944e-06
-0.000114121
-0.000674302
-0.000187366
-0.000156608
-0.000572234
-0.000439964
-0.000192594
-0.000318265
-0.000699092
-0.000197401
-0.000657383
-0.000139405
-1.64451e-05
0.000160671
-9.80198e-06
-4.72538e-05
0.000288502
-1.27586e-05
-8.16933e-05
0.000325554
-1.28975e-05
-0.000115966
0.000329906
-1.22615e-05
-0.000149472
0.000325581
-1.16227e-05
-0.000182753
0.000320229
-1.11484e-05
-0.000216818
0.000316001
-1.0987e-05
-0.000253046
0.000313637
-1.1339e-05
-0.000293244
0.000313429
-1.24968e-05
-0.000339742
0.000315248
-1.49196e-05
-0.000395455
0.000318251
-1.93557e-05
-0.0004638
0.000320317
-2.70353e-05
-0.00054837
0.000317207
-3.9913e-05
-0.000652121
0.000301364
-6.06688e-05
-0.000774723
0.000259192
-9.1648e-05
-0.000902669
0.000160909
-0.000130737
-0.000988913
-6.05654e-05
-0.000166925
-0.000917384
-0.00049654
-0.000174864
-0.000558371
-0.00107348
-0.000161423
-0.00122706
-0.000164344
-1.80276e-05
0.000183111
-1.18388e-05
-5.11618e-05
0.000328328
-1.55218e-05
-8.71493e-05
0.000368339
-1.56158e-05
-0.000121898
0.000371071
-1.46799e-05
-0.000154924
0.000364575
-1.36552e-05
-0.000186997
0.000357857
-1.27616e-05
-0.000219374
0.000353629
-1.21778e-05
-0.000253752
0.000353154
-1.21195e-05
-0.000292441
0.000357437
-1.289e-05
-0.000338675
0.000367415
-1.49663e-05
-0.000397001
0.000383806
-1.91317e-05
-0.000473749
0.000406663
-2.66546e-05
-0.000577623
0.000434559
-3.93519e-05
-0.000719435
0.000461861
-5.84891e-05
-0.000906726
0.000468069
-8.02586e-05
-0.00112313
0.000386558
-8.59392e-05
-0.00129121
6.62398e-05
-3.79148e-05
-0.00123991
-0.000663338
6.42924e-05
-0.000769307
-0.00166375
8.00875e-05
-0.00204529
-9.78664e-05
-2.07895e-05
0.000209445
-1.46525e-05
-5.72612e-05
0.000373119
-1.91969e-05
-9.50911e-05
0.00041453
-1.91099e-05
-0.000129968
0.000413744
-1.76831e-05
-0.000161603
0.000403326
-1.60824e-05
-0.000191025
0.000393719
-1.45739e-05
-0.000219696
0.000388142
-1.33501e-05
-0.000249445
0.0003883
-1.26139e-05
-0.000282722
0.000395893
-1.26386e-05
-0.000323182
0.00041314
-1.38144e-05
-0.000376464
0.000442832
-1.67191e-05
-0.000451129
0.000488047
-2.20255e-05
-0.000559926
0.000551026
-2.95863e-05
-0.000718448
0.000625765
-3.38713e-05
-0.000937083
0.000675648
-1.31893e-05
-0.00119657
0.000580188
8.1237e-05
-0.0014192
0.000120549
0.000291853
-0.00138281
-0.000939173
0.000508402
-0.000841896
-0.0023111
0.00038311
-0.00289624
-4.56799e-06
-2.63025e-05
0.0002428
-1.88722e-05
-6.78164e-05
0.000425144
-2.47462e-05
-0.000107479
0.00046463
-2.44626e-05
-0.000141465
0.000457338
-2.22885e-05
-0.00017041
0.000440876
-1.96971e-05
-0.000195721
0.000426591
-1.71192e-05
-0.000218758
0.000417738
-1.48292e-05
-0.000241057
0.000416255
-1.30428e-05
-0.000264741
0.000424458
-1.19412e-05
-0.000292978
0.000445586
-1.17017e-05
-0.000331045
0.000484344
-1.2379e-05
-0.000387175
0.000546265
-1.31078e-05
-0.000474632
0.000636444
-9.5091e-06
-0.000609375
0.000744597
1.53357e-05
-0.000810296
0.00081899
0.000107382
-0.00107503
0.000698472
0.000333865
-0.00134714
0.000134316
0.000692484
-0.00133188
-0.00117903
0.000865964
-0.000807824
-0.00276045
0.000422875
-0.00363934
-3.25996e-05
-3.32737e-05
0.000285069
-2.47332e-05
-8.1761e-05
0.000487086
-3.14151e-05
-0.000125015
0.000521129
-3.04539e-05
-0.000159546
0.000503925
-2.69984e-05
-0.000185566
0.000477498
-2.31993e-05
-0.000205146
0.000455225
-1.94298e-05
-0.000220025
0.000440127
-1.59664e-05
-0.000231512
0.000433759
-1.29695e-05
-0.000240809
0.000438302
-1.05215e-05
-0.00024943
0.000457162
-8.51395e-06
-0.000260614
0.000496222
-6.29727e-06
-0.000279434
0.00056181
-1.08521e-06
-0.000317582
0.000661786
1.61315e-05
-0.000390583
0.000781088
7.27442e-05
-0.000537048
0.000873276
0.00022683
-0.000772286
0.000748777
0.000540778
-0.00105562
0.000164433
0.000922428
-0.00107041
-0.00127448
0.000890176
-0.000681563
-0.00296213
0.000222685
-0.0042424
-0.000170925
-6.67044e-05
0.000362815
-3.49052e-05
-0.000121933
0.000558639
-4.43213e-05
-0.000160168
0.000575535
-4.24113e-05
-0.000184987
0.000543549
-3.73147e-05
-0.000202152
0.000507681
-3.11644e-05
-0.000213718
0.000477758
-2.49437e-05
-0.000220119
0.000455348
-1.917e-05
-0.000220845
0.000441146
-1.41078e-05
-0.000215228
0.000437128
-9.81071e-06
-0.000202
0.000445884
-5.93197e-06
-0.000180828
0.000473515
-1.40598e-06
-0.00015144
0.000524962
8.00947e-06
-0.000120302
0.000610663
3.30179e-05
-9.85405e-05
0.000712858
0.000102787
-0.000127259
0.000806545
0.000271748
-0.000250836
0.000708621
0.000578834
-0.000447396
0.000183946
0.000875884
-0.000584135
-0.00116648
0.000689282
-0.000435702
-0.00295616
8.73633e-05
-0.0046314
-0.000317277
-4.66851e-05
0.000422857
-5.28258e-05
-0.000132409
0.000667067
-6.14698e-05
-0.000190501
0.000655392
-5.61959e-05
-0.000224289
0.000597223
-4.62174e-05
-0.000240375
0.000540998
-3.71016e-05
-0.000243729
0.000495405
-2.82334e-05
-0.000237151
0.00046003
-2.0198e-05
-0.000221111
0.000433324
-1.32147e-05
-0.000195022
0.000416172
-7.48086e-06
-0.000155412
0.000408092
-2.62818e-06
-9.87888e-05
0.000414655
2.18862e-06
-1.9491e-05
0.000436497
1.13087e-05
8.58849e-05
0.000484218
3.36999e-05
0.000211177
0.000544306
8.94008e-05
0.000340857
0.000602799
0.000219141
0.000393878
0.000540252
0.000449479
0.000311524
0.000165972
0.000632699
2.50963e-05
-0.000875118
0.000480536
-2.25607e-05
-0.00278869
4.94753e-05
-0.00468112
-0.000408258
-0.000193409
0.000628691
-6.15793e-05
-0.000228132
0.000722599
-8.16381e-05
-0.000254741
0.000704786
-8.1009e-05
-0.00027346
0.000637402
-6.97991e-05
-0.000267673
0.000555026
-5.44485e-05
-0.0002435
0.000488562
-3.93327e-05
-0.000205953
0.000436522
-2.61743e-05
-0.000155809
0.000393727
-1.54878e-05
-9.49854e-05
0.00036235
-7.53942e-06
-2.01734e-05
0.000336627
-1.95603e-06
7.03392e-05
0.000323653
1.18258e-06
0.000183554
0.000316909
4.76786e-06
0.000325254
0.000328347
1.45007e-05
0.000497001
0.000343734
4.38998e-05
0.000698868
0.000358119
0.000108723
0.000867986
0.000311061
0.000242284
0.000990429
1.29535e-05
0.000323745
0.000833861
-0.000662647
0.000257394
0.000513608
-0.0023961
1.25819e-05
-0.00427673
-0.000463409
-0.000667252
0.00128792
-0.000160639
-0.000628639
0.000708958
-0.000147814
-0.000489479
0.000592996
-0.000119905
-0.000295512
0.000474979
-9.51326e-05
-9.24552e-05
0.000383379
-7.60934e-05
0.000108711
0.000316475
-5.8831e-05
0.000301314
0.000269917
-4.42264e-05
0.000484405
0.000232895
-3.19566e-05
0.000658418
0.000206735
-2.22137e-05
0.000825467
0.000183891
-1.51992e-05
0.000989756
0.000169849
-1.13995e-05
0.00115449
0.000158289
-1.08082e-05
0.00133261
0.000152416
-1.19391e-05
0.00152171
0.000148545
-4.78826e-06
0.00174891
0.000124144
2.04882e-06
0.00197432
7.71044e-05
5.18966e-05
0.00211894
-0.000124279
9.2569e-05
0.00207972
-0.000557814
5.79669e-05
0.00140821
-0.00168192
-3.28415e-05
-0.00307047
-0.000506841
0.00126996
-0.000130512
0.00197067
-0.000150435
0.0025609
-0.000153998
0.00304113
-0.000146886
0.00343697
-0.000136193
0.00376985
-0.000124513
0.00405882
-0.000112992
0.00431217
-0.00010271
0.00453979
-9.17533e-05
0.00474443
-8.4451e-05
0.00493376
-7.48265e-05
0.00511081
-7.15066e-05
0.00527909
-6.29379e-05
0.00544527
-6.54232e-05
0.00558292
-5.1681e-05
0.00568495
-6.30875e-05
0.00558176
-3.78003e-05
0.00506696
-9.2144e-05
0.00338284
-0.000107465
-0.000553597
-4.92109e-06
5.18602e-06
-1.34115e-06
-1.57762e-05
1.14999e-05
-1.51406e-06
-2.86153e-05
1.36003e-05
-1.43153e-06
-4.18167e-05
1.40078e-05
-1.35189e-06
-5.48374e-05
1.3843e-05
-1.36882e-06
-6.74552e-05
1.34533e-05
-1.48545e-06
-7.94525e-05
1.28557e-05
-1.70502e-06
-9.05298e-05
1.19732e-05
-2.04069e-06
-0.000100283