/*--------------------------------*- C++ -*----------------------------------*\
  =========                 |
  \\      /  F ield         | OpenFOAM: The Open Source CFD Toolbox
   \\    /   O peration     | Website:  https://openfoam.org
    \\  /    A nd           | Version:  10
     \\/     M anipulation  |
\*---------------------------------------------------------------------------*/
FoamFile
{
    format      ascii;
    class       volScalarField;
    location    "3.825";
    object      p;
}
// * * * * * * * * * * * * * * * * * * * * * * * * * * * * * * * * * * * * * //

dimensions      [0 2 -2 0 0 0 0];

internalField   nonuniform List<scalar> 
400
(
-1.50702e-09
-3.1023e-05
-1.0649e-05
3.53975e-05
0.000113134
0.000223116
0.000365654
0.000540791
0.000747725
0.000984381
0.00124699
0.00152966
0.00182408
0.00211925
0.00240174
0.00265626
0.0028663
0.0030162
0.00310376
0.00308371
3.1179e-05
-9.61563e-07
2.0506e-05
6.43517e-05
0.000137995
0.000242591
0.000378854
0.000547197
0.000747186
0.00097713
0.00123365
0.00151096
0.00180155
0.0020945
0.00237637
0.0026317
0.00284352
0.00299602
0.00308807
0.00306672
7.23712e-06
-2.98685e-05
-1.00623e-05
3.10892e-05
0.000101771
0.000203367
0.000336991
0.00050358
0.000703292
0.000935041
0.00119602
0.00148162
0.00178389
0.00209188
0.00239153
0.00266601
0.00289612
0.00306312
0.003165
0.00313927
-4.76439e-05
-8.90341e-05
-7.15205e-05
-3.39256e-05
3.28672e-05
0.000130643
0.000261153
0.000426141
0.000626698
0.000862753
0.0011325
0.00143192
0.00175433
0.00208852
0.00241929
0.00272737
0.00298987
0.00318312
0.00330306
0.00327544
-0.000139245
-0.00018537
-0.000170871
-0.000137704
-7.56493e-05
1.76159e-05
0.000144685
0.00030838
0.000511076
0.000754145
0.00103728
0.00135775
0.00170989
0.00208275
0.00246011
0.00281968
0.00313302
0.00336837
0.00351766
0.00349014
-0.000267787
-0.000319679
-0.000309095
-0.000281645
-0.000225828
-0.000138664
-1.65161e-05
0.000144813
0.000349368
0.000600479
0.000899957
0.00124706
0.00163837
0.00206361
0.00250579
0.00293914
0.00332782
0.00362768
0.00382299
0.00379911
-0.000433448
-0.000492418
-0.000486906
-0.000467042
-0.000419841
-0.000341583
-0.000227407
-7.1444e-05
0.000132469
0.000390252
0.000706723
0.00108411
0.00152241
0.00201373
0.00254159
0.00307683
0.00357444
0.00397209
0.00423942
0.00422774
-0.000636764
-0.000704363
-0.000705374
-0.000695594
-0.000660365
-0.000595213
-0.000493929
-0.000348736
-0.000150939
0.000108681
0.000439115
0.000848254
0.00133685
0.00190663
0.00254298
0.00321495
0.0038675
0.00441409
0.00479533
0.00481727
-0.000878385
-0.000956349
-0.000965555
-0.000968944
-0.000950046
-0.00090372
-0.000822385
-0.000696242
-0.000513802
-0.000262054
7.30358e-05
0.000505089
0.00104553
0.00170214
0.00246911
0.0033189
0.00418836
0.00496295
0.0055278
0.00563681
-0.00115906
-0.00124924
-0.00126831
-0.00128837
-0.00129105
-0.00127077
-0.00121871
-0.00112312
-0.00096972
-0.000741439
-0.000418339
2.17783e-05
0.000601698
0.00134133
0.00225324
0.00332351
0.00448926
0.00561066
0.00648124
0.00680728
-0.00147983
-0.00158405
-0.00161421
-0.00165445
-0.00168453
-0.00169877
-0.00168741
-0.00163714
-0.00153128
-0.00134908
-0.00106473
-0.000646657
-5.70549e-05
0.000738794
0.00178913
0.00310985
0.004662
0.00630153
0.00769851
0.00854013
-0.00184265
-0.00196233
-0.00200349
-0.00206674
-0.00212995
-0.00218787
-0.00223022
-0.00224274
-0.00220739
-0.00210114
-0.00189405
-0.00154654
-0.00100719
-0.000210876
0.000920886
0.00246861
0.00447047
0.00684414
0.00912014
0.0112571
-0.0022518
-0.00238702
-0.0024362
-0.00252335
-0.00262431
-0.00273484
-0.00284447
-0.00293874
-0.00299984
-0.00300523
-0.00292508
-0.00271785
-0.00232421
-0.00165842
-0.000614707
0.00100814
0.00338876
0.00666225
0.0103864
0.0150765
-0.0027162
-0.00286155
-0.00290828
-0.00301666
-0.00315927
-0.00333156
-0.00352184
-0.00371601
-0.0038987
-0.00405157
-0.00415107
-0.00416437
-0.00404017
-0.00369093
-0.00297248
-0.00168326
0.000519827
0.00434961
0.00966393
0.0185265
-0.00325948
-0.00342382
-0.00345741
-0.00358588
-0.00375979
-0.00398496
-0.0042549
-0.00455805
-0.0048816
-0.00521377
-0.00554548
-0.00586925
-0.00617635
-0.00645093
-0.00667733
-0.00683698
-0.00647511
-0.00387336
0.00123842
0.0153012
-0.00396157
-0.0039233
-0.0038868
-0.00397821
-0.00420138
-0.00452794
-0.00493215
-0.00538991
-0.00588674
-0.00641811
-0.00699541
-0.00765082
-0.00845235
-0.00951843
-0.0111305
-0.0136047
-0.0175091
-0.0186591
-0.0154483
0.00454707
-0.00444158
-0.00491483
-0.00477167
-0.00497796
-0.00519458
-0.00551718
-0.00593991
-0.00645071
-0.0070414
-0.00771288
-0.00849074
-0.00944683
-0.010751
-0.0126756
-0.0160416
-0.0210201
-0.0311741
-0.0379248
-0.0347995
-0.00446526
-0.00762276
-0.00512284
-0.00474372
-0.00451945
-0.00481061
-0.00534774
-0.00604736
-0.00682892
-0.00767218
-0.00855949
-0.00953973
-0.0106696
-0.0122594
-0.0144717
-0.0189991
-0.0249444
-0.0370211
-0.0451617
-0.0396698
0.0118196
-0.00446963
-0.00736269
-0.00664799
-0.00708229
-0.00716187
-0.00744681
-0.00790806
-0.00850658
-0.00921335
-0.0100141
-0.0108764
-0.01189
-0.0134183
-0.0153992
-0.0201633
-0.0260702
-0.0363224
-0.0372883
-0.0150698
0.0698253
-0.0288641
-0.00405457
-0.00313889
-0.00288509
-0.00324094
-0.00405934
-0.00517554
-0.00629843
-0.00750941
-0.00862083
-0.00990663
-0.0111359
-0.0129775
-0.0150963
-0.0181121
-0.0199674
-0.01772
0.0055202
0.0691246
0.207007
)
;

boundaryField
{
    movingWall
    {
        type            zeroGradient;
    }
    fixedWalls
    {
        type            zeroGradient;
    }
    frontAndBack
    {
        type            empty;
    }
}


// ************************************************************************* //
