/*--------------------------------*- C++ -*----------------------------------*\
  =========                 |
  \\      /  F ield         | OpenFOAM: The Open Source CFD Toolbox
   \\    /   O peration     | Website:  https://openfoam.org
    \\  /    A nd           | Version:  10
     \\/     M anipulation  |
\*---------------------------------------------------------------------------*/
FoamFile
{
    format      ascii;
    class       volScalarField;
    location    "3.325";
    object      p;
}
// * * * * * * * * * * * * * * * * * * * * * * * * * * * * * * * * * * * * * //

dimensions      [0 2 -2 0 0 0 0];

internalField   nonuniform List<scalar> 
8000
(
9.59933e-07
-1.41817e-05
1.44045e-05
6.94208e-05
0.000155963
0.000274316
0.000424051
0.000604106
0.000812437
0.00104571
0.00129933
0.00156689
0.00184009
0.00210904
0.00236229
0.00258756
0.00277241
0.00290565
0.0029859
0.00298283
1.65712e-05
-4.46461e-07
2.7929e-05
8.10176e-05
0.000164747
0.00027966
0.000425585
0.000601716
0.000806272
0.00103625
0.00128714
0.00155252
0.00182485
0.00209395
0.0023483
0.00257538
0.00276238
0.00289779
0.00298091
0.00297724
-1.83878e-05
-3.86086e-05
-1.14673e-05
4.0018e-05
0.000122336
0.000236195
0.000381719
0.000558475
0.000765079
0.0009989
0.00125579
0.00153
0.00181333
0.00209554
0.00236448
0.00260658
0.00280751
0.00295393
0.00304453
0.00303948
-8.69774e-05
-0.000110016
-8.43223e-05
-3.47375e-05
4.59972e-05
0.00015893
0.000304682
0.000483406
0.00069435
0.000935511
0.00120326
0.00149203
0.00179433
0.00209928
0.00239361
0.00266189
0.00288732
0.00305341
0.00315754
0.00315308
-0.000194924
-0.000221246
-0.000197324
-0.000149924
-7.0827e-05
4.14825e-05
0.000188297
0.000370569
0.000588422
0.000840758
0.00112478
0.00143548
0.00176571
0.00210419
0.00243645
0.00274459
0.00300797
0.00320506
0.00333074
0.00332867
-0.00034405
-0.000374454
-0.000352811
-0.000308228
-0.000231314
-0.000119954
2.79985e-05
0.000214531
0.000440938
0.000707378
0.00101229
0.00135157
0.00171893
0.0021029
0.0024877
0.00285232
0.0031709
0.00341429
0.00357278
0.00357591
-0.000536485
-0.000571983
-0.000553382
-0.000512726
-0.00043921
-0.000330003
-0.000181908
8.35966e-06
0.000243606
0.000525694
0.00085492
0.00122935
0.00164179
0.00208378
0.00253789
0.00297956
0.00337618
0.00368743
0.00389537
0.00390832
-0.000774976
-0.00081679
-0.000802281
-0.000767204
-0.000699086
-0.000594291
-0.000448382
-0.00025651
-1.40009e-05
0.000283187
0.000637776
0.00105004
0.00151636
0.00202924
0.00257148
0.00311545
0.00362061
0.0040312
0.0043141
0.00434793
-0.0010629
-0.00111244
-0.00110333
-0.00107603
-0.00101616
-0.000919226
-0.000779404
-0.000590046
-0.000344267
-3.53431e-05
0.000342656
0.000793753
0.00131824
0.00191317
0.00256325
0.00323958
0.00389353
0.00445007
0.00484792
0.00492612
-0.00140449
-0.0014633
-0.00146101
-0.00144414
-0.00139617
-0.00131178
-0.00118366
-0.00100321
-0.000761106
-0.000447529
-5.26038e-05
0.00043262
0.00101453
0.00169792
0.00247318
0.00331502
0.00416916
0.00494006
0.00551725
0.00569168
-0.00180535
-0.0018749
-0.00188063
-0.00187701
-0.0018452
-0.00177914
-0.00167001
-0.00150725
-0.00127908
-0.000972464
-0.000573084
-6.54675e-05
0.000566878
0.00133067
0.00223942
0.00327729
0.00439254
0.00547508
0.00633721
0.0067192
-0.00227344
-0.0023547
-0.00236874
-0.00238074
-0.00236947
-0.00232823
-0.00224673
-0.00211257
-0.00191183
-0.00162874
-0.00124505
-0.000739119
-8.58505e-05
0.000741468
0.0017715
0.0030181
0.00445409
0.0059791
0.00729398
0.00812334
-0.0028213
-0.00291319
-0.00293369
-0.00296218
-0.00297507
-0.00296509
-0.00292041
-0.00282705
-0.00266966
-0.00243102
-0.00209079
-0.00162326
-0.000994689
-0.000160028
0.000929194
0.00235482
0.00414258
0.00626492
0.00826472
0.0101098
-0.00347271
-0.00356763
-0.00358709
-0.00362942
-0.00366804
-0.00369451
-0.003695
-0.00365412
-0.00355612
-0.00338435
-0.0031198
-0.0027374
-0.0022
-0.00144864
-0.000392969
0.00108262
0.0031329
0.00592384
0.00890981
0.0127817
-0.00425783
-0.00434854
-0.00435283
-0.00440187
-0.00446048
-0.0045212
-0.0045698
-0.0045894
-0.0045641
-0.00448013
-0.00432547
-0.00408603
-0.00373864
-0.00323476
-0.0024769
-0.00129067
0.000628817
0.00410521
0.0082944
0.0157913
-0.00533028
-0.00522299
-0.00515884
-0.00517195
-0.00525655
-0.00537803
-0.00550393
-0.00560591
-0.00566623
-0.00567842
-0.00564633
-0.00557742
-0.00548186
-0.00535022
-0.00513177
-0.0046102
-0.00343217
-3.47738e-06
0.00444484
0.0175748
-0.00642299
-0.00661983
-0.00645722
-0.00650446
-0.00654699
-0.00662382
-0.00672207
-0.00682141
-0.00691055
-0.0069855
-0.00706426
-0.00717991
-0.00740162
-0.00780818
-0.00848627
-0.00929548
-0.0106104
-0.0079433
-0.00375245
0.0181628
-0.0101344
-0.00743671
-0.00709486
-0.00676372
-0.00682513
-0.00703801
-0.00731959
-0.0075927
-0.00783235
-0.0080264
-0.00822092
-0.00846083
-0.00889831
-0.00965101
-0.0111217
-0.012784
-0.0167883
-0.0147943
-0.0106596
0.0232832
-0.0101833
-0.011111
-0.0100453
-0.00996712
-0.00963334
-0.00947309
-0.00940376
-0.00938764
-0.0094128
-0.00944714
-0.00953759
-0.00974388
-0.0102341
-0.0112287
-0.0134121
-0.0160194
-0.0224348
-0.0199302
-0.0129554
0.047938
-0.0339069
-0.00885363
-0.00786436
-0.00704394
-0.00683971
-0.00716069
-0.00767288
-0.00812942
-0.00854823
-0.0088515
-0.00920884
-0.00952633
-0.010187
-0.0109036
-0.0124062
-0.0125787
-0.0119268
0.00428109
0.0400335
0.143116
5.3324e-06
-1.98218e-05
7.41995e-06
6.18387e-05
0.000148719
0.000267903
0.00041879
0.000600332
0.00081043
0.00104589
0.00130186
0.00157194
0.00184789
0.00211971
0.00237578
0.00260357
0.00279015
0.0029234
0.00300234
0.00298766
2.9749e-05
3.53069e-06
3.11745e-05
8.3264e-05
0.000166534
0.000281217
0.00042702
0.000603158
0.000807875
0.00103821
0.00128968
0.00155594
0.00182926
0.00209956
0.00235521
0.0025835
0.00277117
0.00290596
0.00298794
0.00297175
-2.75717e-06
-3.30734e-05
-6.61431e-06
4.37532e-05
0.00012547
0.00023893
0.000384154
0.000560738
0.00076734
0.00100137
0.0012587
0.00153366
0.00181798
0.00210144
0.00237179
0.00261524
0.00281696
0.0029627
0.00305204
0.00303267
-6.88147e-05
-0.000102661
-7.76165e-05
-2.92395e-05
5.07812e-05
0.000163177
0.000308474
0.000486864
0.000697649
0.000938883
0.00120699
0.00149652
0.00179982
0.00210608
0.00240194
0.00267175
0.00289813
0.00306347
0.00316616
0.00314547
-0.00017454
-0.00021246
-0.00018915
-0.000142998
-6.46485e-05
4.70904e-05
0.00019342
0.000375337
0.000593028
0.000845465
0.00112993
0.00144155
0.00177296
0.00211307
0.00244726
0.00275736
0.00302203
0.00321838
0.00334235
0.00332145
-0.000321215
-0.000364182
-0.00034309
-0.000299773
-0.000223599
-0.000112797
3.46979e-05
0.000220926
0.000447251
0.000713907
0.00101942
0.00135993
0.0017289
0.00211508
0.00250251
0.00286989
0.00319044
0.00343327
0.00358976
0.00357045
-0.000510632
-0.000559874
-0.000541733
-0.000502357
-0.000429569
-0.000320898
-0.000173217
1.68229e-05
0.000252111
0.000534595
0.000864609
0.00123995
0.00165548
0.00210069
0.00255863
0.00300445
0.00340438
0.00371573
0.00392153
0.00390849
-0.00074532
-0.000802319
-0.000788149
-0.000754378
-0.000686995
-0.000582731
-0.000437203
-0.000245475
-2.76344e-06
0.000295106
0.000650985
0.00106527
0.00153527
0.00205272
0.00260075
0.00315137
0.00366242
0.00407476
0.00435561
0.00435845
-0.00102841
-0.00109488
-0.00108596
-0.00106004
-0.00100096
-0.000904605
-0.000765176
-0.000575902
-0.000329747
-1.97749e-05
0.000360203
0.00081476
0.00134402
0.00194555
0.00260457
0.00329188
0.00395672
0.00451895
0.00491577
0.00495806
-0.0013638
-0.00144166
-0.00143939
-0.00142403
-0.00137702
-0.00129339
-0.00116578
-0.00098544
-0.00074282
-0.000427801
-3.00385e-05
0.00046007
0.00104892
0.0017418
0.00253116
0.00339142
0.00426589
0.00505182
0.00563108
0.00577013
-0.00175648
-0.00184774
-0.00185332
-0.00185153
-0.00182106
-0.00175616
-0.00164788
-0.00148544
-0.00125676
-0.000948463
-0.000545757
-3.2808e-05
0.000606691
0.00138846
0.00231959
0.00338807
0.00454083
0.00565898
0.00653306
0.00690819
-0.00221342
-0.00231987
-0.00233365
-0.00234813
-0.00233898
-0.00229972
-0.0022198
-0.0020865
-0.00188553
-0.00160068
-0.00121292
-0.00069956
-3.48029e-05
0.000814684
0.00187768
0.00317362
0.00467714
0.006279
0.00763889
0.00857103
-0.00274507
-0.0028672
-0.00288756
-0.00291992
-0.00293646
-0.00293003
-0.00288837
-0.00279702
-0.0026402
-0.00240013
-0.0020554
-0.00157847
-0.00093195
-7.65561e-05
0.00106726
0.00256378
0.00446185
0.00672496
0.00885331
0.0111694
-0.00337099
-0.00350377
-0.00352293
-0.00357198
-0.00361793
-0.0036516
-0.00365813
-0.00362157
-0.00352583
-0.00335377
-0.00308512
-0.00269223
-0.00213318
-0.00134258
-0.000242439
0.00129891
0.00349689
0.00651391
0.00972256
0.0148113
-0.00411179
-0.00426278
-0.00426958
-0.00433343
-0.00440358
-0.00447488
-0.0045327
-0.00455968
-0.00453921
-0.0044573
-0.00430084
-0.00405454
-0.00369422
-0.00317134
-0.0023905
-0.0011974
0.000799281
0.00440858
0.00842209
0.018065
-0.00509583
-0.00504305
-0.00499771
-0.00503738
-0.00515468
-0.00530646
-0.00545844
-0.00558091
-0.00565666
-0.0056771
-0.00564602
-0.00557147
-0.00546748
-0.00533577
-0.00515674
-0.00478647
-0.00403389
-0.00140792
0.000959182
0.016951
-0.00597035
-0.00640625
-0.0062616
-0.00639639
-0.00649003
-0.00661236
-0.00674372
-0.00686685
-0.00697239
-0.00705477
-0.00713239
-0.00724067
-0.00746048
-0.0079094
-0.00879329
-0.010248
-0.0134853
-0.0127251
-0.0125092
0.0125534
-0.00943228
-0.00690524
-0.0066428
-0.00643132
-0.00664114
-0.00697279
-0.00734236
-0.00767849
-0.00796107
-0.00817164
-0.00836492
-0.00858129
-0.00900518
-0.00978776
-0.0115906
-0.0140298
-0.0205432
-0.021921
-0.0224792
0.0185784
-0.00727684
-0.00992258
-0.00934124
-0.00976328
-0.00974892
-0.00977089
-0.00982057
-0.00986552
-0.00991586
-0.00993226
-0.00995818
-0.0100865
-0.0104768
-0.0113825
-0.013957
-0.0170261
-0.0257351
-0.0262868
-0.0166374
0.0521005
-0.031286
-0.00679645
-0.00624654
-0.00606624
-0.0063036
-0.00687306
-0.00757712
-0.00815413
-0.00869228
-0.00900039
-0.00939213
-0.00963149
-0.0103338
-0.011015
-0.012744
-0.0132585
-0.0121225
0.00494131
0.0524695
0.171587
1.06722e-05
-1.77734e-05
8.78291e-06
6.24896e-05
0.000149175
0.000268499
0.000419781
0.000601868
0.000812765
0.00104921
0.00130647
0.00157811
0.00185583
0.00212946
0.0023873
0.0026166
0.00280413
0.00293738
0.00301564
0.00299658
3.87523e-05
8.93982e-06
3.59711e-05
8.72589e-05
0.000170063
0.000284478
0.000430179
0.000606378
0.000811351
0.00104215
0.00129432
0.00156152
0.00183596
0.00210751
0.00236443
0.00259383
0.00278218
0.00291681
0.00299824
0.00297794
7.90072e-06
-2.6366e-05
-5.20089e-07
4.89704e-05
0.000130133
0.000243221
0.000388227
0.000564763
0.000771518
0.00100594
0.00126392
0.0015398
0.00182527
0.00211007
0.00238184
0.00262658
0.00282913
0.00297478
0.00306358
0.00303954
-5.61427e-05
-9.42558e-05
-6.98408e-05
-2.24269e-05
5.69451e-05
0.00016886
0.000313824
0.000492059
0.000702908
0.000944469
0.0012132
0.00150373
0.00180829
0.00211609
0.00241362
0.00268502
0.00291251
0.00307792
0.00318012
0.00315422
-0.000159784
-0.000202333
-0.000179666
-0.000134551
-5.69181e-05
5.42707e-05
0.000200206
0.000381927
0.000599673
0.000852476
0.00113767
0.00145047
0.00178346
0.00212553
0.00246192
0.0027742
0.00304053
0.00323729
0.00336091
0.00333414
-0.000304024
-0.000352056
-0.000331618
-0.000289414
-0.000214023
-0.000103833
4.32216e-05
0.000229238
0.000455649
0.000722767
0.0010292
0.00137121
0.00174227
0.00213112
0.00252164
0.0028922
0.0032154
0.00345931
0.0036158
0.00358979
-0.000490413
-0.000545246
-0.000527774
-0.000489614
-0.000417706
-0.000309737
-0.000162562
2.72435e-05
0.000262662
0.000545743
0.000876925
0.00125416
0.00167261
0.00212157
0.00258398
0.00303466
0.00343896
0.00375272
0.00395922
0.00393802
-0.000721239
-0.000784464
-0.000770997
-0.000738603
-0.00067226
-0.000568856
-0.000423962
-0.000232535
1.03327e-05
0.000308963
0.000666355
0.00108305
0.00155713
0.00207985
0.00263444
0.00319259
0.00371101
0.00412832
0.00441148
0.0044052
-0.000999324
-0.00107279
-0.00106465
-0.00104036
-0.000982599
-0.000887394
-0.000748847
-0.000560043
-0.000313776
-2.89905e-06
0.000378993
0.000836109
0.00137141
0.00198027
0.00264893
0.00334798
0.00402528
0.00459744
0.00499986
0.00503393
-0.0013281
-0.0014139
-0.00141255
-0.00139928
-0.00135408
-0.00127209
-0.00114583
-0.000966333
-0.000723831
-0.000407884
-7.69523e-06
0.000487414
0.00108223
0.00178498
0.00258822
0.00346653
0.00436184
0.00516719
0.00575879
0.00589678
-0.00171188
-0.00181225
-0.00181905
-0.00182007
-0.00179225
-0.00172988
-0.00162379
-0.00146291
-0.00123492
-0.000926036
-0.000520895
-2.92539e-06
0.000644817
0.00143986
0.00239014
0.00348531
0.00467181
0.00582634
0.00672694
0.00712384
-0.00215647
-0.00227355
-0.0022891
-0.00230764
-0.00230258
-0.00226737
-0.00219107
-0.00206067
-0.00186153
-0.00157693
-0.00118716
-0.000668395
7.38258e-06
0.000872111
0.0019589
0.00329156
0.00484702
0.0065132
0.00792881
0.00894683
-0.00267042
-0.00280524
-0.00282839
-0.00286697
-0.00289006
-0.00289024
-0.00285465
-0.00276846
-0.00261548
-0.00237736
-0.00203195
-0.00155062
-0.000894584
-1.72259e-05
0.00115084
0.00269073
0.00466021
0.00702612
0.00926777
0.0118135
-0.00326958
-0.00341775
-0.00344137
-0.00350036
-0.00355735
-0.0036023
-0.00361922
-0.00359166
-0.00350316
-0.00333593
-0.0030691
-0.00267371
-0.00210341
-0.00127561
-0.000178098
0.00139371
0.00366416
0.00682131
0.0102088
0.0157291
-0.00396992
-0.00414362
-0.00415841
-0.00423953
-0.00432691
-0.00441569
-0.00449003
-0.00453172
-0.0045239
-0.00445101
-0.00430099
-0.00405964
-0.00370706
-0.00321199
-0.00241409
-0.00123574
0.000744339
0.00444552
0.00855963
0.0187862
-0.00488708
-0.00485654
-0.00482681
-0.00489171
-0.00503927
-0.0052224
-0.0054048
-0.00555443
-0.0056521
-0.00568903
-0.00566982
-0.0056048
-0.0055138
-0.00540853
-0.0052804
-0.00503977
-0.00456357
-0.00222879
5.26237e-06
0.0163641
-0.00562984
-0.00612478
-0.00600792
-0.00620091
-0.00634651
-0.00652103
-0.00670226
-0.0068686
-0.00700719
-0.00711213
-0.00720457
-0.00732428
-0.00756291
-0.00806263
-0.00909735
-0.0108755
-0.0149705
-0.0151569
-0.0145562
0.0102803
-0.00900903
-0.0065199
-0.00626673
-0.00611737
-0.00640783
-0.00682115
-0.00727733
-0.00768362
-0.0080206
-0.00826669
-0.00848135
-0.00870466
-0.00914502
-0.00997162
-0.0119813
-0.0148196
-0.0222305
-0.0248909
-0.0239711
0.0176682
-0.00619787
-0.00908078
-0.00864785
-0.00923735
-0.00936587
-0.00956204
-0.00977564
-0.00994347
-0.0100822
-0.0101485
-0.0101884
-0.01031
-0.0106886
-0.0115937
-0.0144137
-0.017806
-0.0269449
-0.0272878
-0.01342
0.0571558
-0.0304658
-0.0059471
-0.0054431
-0.00542983
-0.00585518
-0.00658898
-0.00743839
-0.00812389
-0.00875201
-0.00910146
-0.00952695
-0.00975505
-0.0104807
-0.0112219
-0.0130011
-0.0135843
-0.011494
0.00726729
0.0606619
0.18352
1.62334e-05
-1.41471e-05
1.17215e-05
6.48752e-05
0.000151331
0.000270671
0.000422181
0.000604743
0.000816328
0.00105369
0.00131206
0.001585
0.00186416
0.00213932
0.00239864
0.00262921
0.00281757
0.00295093
0.00302884
0.00300753
4.63867e-05
1.47286e-05
4.11738e-05
9.17942e-05
0.000174192
0.000288396
0.000434059
0.00061041
0.000815736
0.00104711
0.00130008
0.0015683
0.00184393
0.00211679
0.00237501
0.00260555
0.00279462
0.0029293
0.0030104
0.00298765
1.68976e-05
-1.93373e-05
5.91704e-06
5.46787e-05
0.000135359
0.000248147
0.000393023
0.00056962
0.000776649
0.00101159
0.00127034
0.00154726
0.00183399
0.00212022
0.00239347
0.00263953
0.00284299
0.0029888
0.00307731
0.00305051
-4.53884e-05
-8.55896e-05
-6.17859e-05
-1.51711e-05
6.36338e-05
0.000175152
0.000319887
0.000498092
0.000709145
0.000951189
0.00122072
0.00151238
0.00181838
0.00212788
0.00242721
0.00270031
0.00292905
0.00309486
0.00319692
0.00316795
-0.000147086
-0.000191866
-0.000169845
-0.000125603
-4.8614e-05
6.21e-05
0.000207738
0.000389381
0.000607323
0.000860654
0.00114677
0.00146093
0.00179571
0.00213996
0.00247876
0.00279342
0.00306169
0.00325933
0.0033831
0.00335294
-0.000289007
-0.000339443
-0.000319698
-0.000278459
-0.000203801
-9.41709e-05
5.25181e-05
0.000238421
0.000465046
0.000732789
0.00104035
0.00138407
0.00175748
0.00214927
0.00254318
0.00291726
0.00324355
0.00348927
0.00364653
0.00361685
-0.000472495
-0.000529949
-0.000513236
-0.000476171
-0.000405124
-0.000297841
-0.000151138
3.84935e-05
0.000274137
0.00055796
0.000890533
0.00126996
0.00169155
0.00214457
0.00261185
0.00306787
0.0034772
0.00379449
0.00400299
0.00397805
-0.000699608
-0.000765722
-0.000753117
-0.000722014
-0.000656738
-0.000554233
-0.000410001
-0.000218883
2.41685e-05
0.000323642
0.000682718
0.00110217
0.00158044
0.00210877
0.00267039
0.00323667
0.00376339
0.00418737
0.00447491
0.00446562
-0.000972855
-0.00104955
-0.00104243
-0.00101974
-0.000963389
-0.000869446
-0.000731904
-0.000543692
-0.000297406
1.43377e-05
0.000398232
0.000858868
0.00139946
0.00201587
0.00269454
0.0034059
0.00409676
0.00468127
0.00509272
0.00512676
-0.00129522
-0.00138467
-0.00138463
-0.00137343
-0.00133021
-0.0012501
-0.00112545
-0.000947072
-0.000704954
-0.000388321
1.40243e-05
0.00051323
0.00111459
0.00182722
0.00264434
0.00354088
0.00445793
0.00528565
0.00589521
0.00604219
-0.00167034
-0.00177492
-0.00178347
-0.00178736
-0.00176243
-0.00170295
-0.00159948
-0.00144067
-0.00121385
-0.00090485
-0.000497806
2.44894e-05
0.000679884
0.00148721
0.00245571
0.00357667
0.00479693
0.00599066
0.00692684
0.00735614
-0.00210298
-0.00222502
-0.00224306
-0.00226575
-0.00226507
-0.00223438
-0.00216236
-0.00203558
-0.001839
-0.00155548
-0.0011647
-0.000642033
4.19753e-05
0.000920722
0.00202873
0.00339496
0.00499991
0.0067318
0.00821685
0.00932335
-0.00260005
-0.0027409
-0.00276776
-0.00281254
-0.00284242
-0.00284973
-0.00282106
-0.00274098
-0.00259283
-0.00235783
-0.00201322
-0.00152968
-0.000866135
2.75498e-05
0.00121227
0.00278823
0.00482242
0.00729002
0.00966518
0.0124249
-0.00317446
-0.00333036
-0.00335956
-0.0034281
-0.00349585
-0.00355223
-0.00358027
-0.00356271
-0.00348254
-0.00332164
-0.00305909
-0.00266479
-0.00208772
-0.00121419
-0.000146221
0.00144477
0.003776
0.00706062
0.0106739
0.0166183
-0.0038395
-0.00402473
-0.0040486
-0.0041454
-0.00424913
-0.00435497
-0.0044461
-0.0045033
-0.00450886
-0.00444744
-0.00430711
-0.00407524
-0.00373788
-0.00329638
-0.00248198
-0.00133639
0.00061478
0.00440171
0.00878589
0.0196582
-0.00470073
-0.00468202
-0.00466625
-0.0047532
-0.00492726
-0.00513897
-0.00534974
-0.00552543
-0.00564565
-0.00570142
-0.00569833
-0.00564982
-0.00558265
-0.00552159
-0.00546683
-0.00536974
-0.00513346
-0.00305586
-0.000694412
0.0164236
-0.00535369
-0.0058875
-0.00579036
-0.00602839
-0.00621579
-0.00643334
-0.00665539
-0.00685668
-0.0070257
-0.00715568
-0.00726932
-0.0074112
-0.00768498
-0.0082559
-0.00945054
-0.0115235
-0.016355
-0.0173311
-0.0165394
0.00925963
-0.00863533
-0.00617642
-0.00594512
-0.00584409
-0.00619531
-0.0066772
-0.00719719
-0.00766056
-0.00804619
-0.00832913
-0.0085722
-0.00881924
-0.00929919
-0.0102015
-0.0124281
-0.0156414
-0.0239265
-0.0275609
-0.0263672
0.0174985
-0.00555614
-0.00859275
-0.00818564
-0.00888422
-0.00911487
-0.00940752
-0.00971033
-0.00995684
-0.0101609
-0.0102729
-0.0103371
-0.0104736
-0.0108697
-0.0118236
-0.0148456
-0.0185334
-0.0282298
-0.028908
-0.0135016
0.0607664
-0.02975
-0.00523493
-0.00478433
-0.0048817
-0.00544234
-0.00630619
-0.00727463
-0.00805738
-0.00876828
-0.0091721
-0.00963548
-0.00988313
-0.0106399
-0.0114418
-0.0132925
-0.0139862
-0.0117995
0.00765207
0.06326
0.190938
2.1785e-05
-9.2729e-06
1.62263e-05
6.89861e-05
0.000155207
0.000274468
0.00042606
0.00060888
0.000820906
0.0010589
0.00131811
0.00159207
0.00187239
0.00214879
0.00240933
0.00264097
0.00283009
0.00296376
0.00304168
0.00301956
5.28549e-05
2.04627e-05
4.65461e-05
9.67336e-05
0.000178839
0.000292886
0.000438541
0.000615047
0.000820708
0.00105261
0.00130632
0.00157548
0.00185221
0.00212627
0.00238569
0.0026173
0.00280716
0.00294219
0.00302336
0.00299985
2.43436e-05
-1.2679e-05
1.21962e-05
6.04832e-05
0.000140823
0.000253401
0.000398214
0.000574918
0.000782252
0.00101771
0.00127722
0.00155514
0.00184308
0.00213067
0.00240531
0.00265267
0.00285713
0.00300345
0.00309215
0.00306454
-3.65501e-05
-7.75959e-05
-5.41997e-05
-8.11741e-06
7.02817e-05
0.000181519
0.000326124
0.000504381
0.000715708
0.000958283
0.00122863
0.00152142
0.00182884
0.00213998
0.00244107
0.00271588
0.00294602
0.00311266
0.00321513
0.00318533
-0.000136564
-0.000182259
-0.000160685
-0.000117045
-4.05347e-05
6.98247e-05
0.000215267
0.00039692
0.000615131
0.000869047
0.00115612
0.00147163
0.00180818
0.00215456
0.00249574
0.0028128
0.00308316
0.00328223
0.00340683
0.00337585
-0.000276401
-0.000327841
-0.000308597
-0.000268051
-0.000193968
-8.47888e-05
6.16214e-05
0.000247483
0.000474377
0.000742782
0.00105148
0.0013969
0.00177259
0.00216724
0.00256445
0.00294204
0.00327159
0.00351975
0.00367859
0.00364823
-0.00045726
-0.000515824
-0.000499694
-0.000463454
-0.000393124
-0.00028644
-0.000140148
4.93473e-05
0.000285233
0.000569791
0.00090372
0.00128526
0.00170983
0.00216672
0.00263868
0.00309988
0.00351436
0.00383583
0.00404726
0.00402206
-0.000681002
-0.00074836
-0.000736461
-0.000706382
-0.00064205
-0.000540382
-0.000396789
-0.000205993
3.71953e-05
0.000337425
0.000698063
0.00112008
0.00160219
0.00213571
0.00270391
0.00327789
0.00381272
0.00424388
0.00453679
0.00452839
-0.00094987
-0.00102797
-0.00102176
-0.00100039
-0.000945345
-0.00085263
-0.000716118
-0.000528574
-0.000282407
2.99881e-05
0.000415571
0.000879247
0.00142454
0.00204772
0.00273547
0.00345808
0.00416163
0.00475841
0.00517963
0.00521745
-0.00126647
-0.00135755
-0.0013587
-0.00134931
-0.00130795
-0.00122969
-0.00110671
-0.000929617
-0.000688139
-0.000371229
3.26546e-05
0.000535084
0.0011419
0.00186296
0.00269222
0.00360481
0.00454132
0.00538976
0.0060171
0.00617476
-0.00163388
-0.00174037
-0.00175058
-0.001757
-0.00173482
-0.00167817
-0.0015774
-0.00142087
-0.00119564
-0.000887194
-0.000479259
4.58913e-05
0.000706826
0.00152373
0.00250761
0.0036505
0.00489967
0.00612761
0.00709649
0.00755198
-0.00205608
-0.00218042
-0.00220081
-0.00222714
-0.00223055
-0.00220422
-0.00213649
-0.00201359
-0.00182016
-0.00153871
-0.00114854
-0.000624424
6.35136e-05
0.000950746
0.00207698
0.00347095
0.0051165
0.00690292
0.00844756
0.00961532
-0.00253881
-0.00268251
-0.00271276
-0.00276286
-0.00279884
-0.0028128
-0.00279083
-0.00271706
-0.0025745
-0.00234405
-0.00200298
-0.00152136
-0.000859682
3.19637e-05
0.00123998
0.00284698
0.00493238
0.00748184
0.00996505
0.0128544
-0.00309317
-0.00325275
-0.0032868
-0.00336314
-0.00344006
-0.00350654
-0.00354489
-0.00353721
-0.00346611
-0.00331338
-0.00305783
-0.00267037
-0.0021061
-0.00129365
-0.000162236
0.00145329
0.00383268
0.00721749
0.0110152
0.0171989
-0.00373129
-0.00392186
-0.00395282
-0.00406143
-0.00417832
-0.0042986
-0.00440469
-0.00447663
-0.00449604
-0.00444739
-0.00431886
-0.00409786
-0.0037658
-0.00328281
-0.00255271
-0.00144642
0.000487018
0.00434983
0.00900341
0.0202451
-0.00455272
-0.00453909
-0.00453298
-0.00463559
-0.00482908
-0.00506278
-0.0052966
-0.0054951
-0.00563664
-0.00571164
-0.00572665
-0.00569697
-0.00565223
-0.00562161
-0.00564347
-0.00567235
-0.00571749
-0.00362274
-0.000947389
0.0166595
-0.00515621
-0.00570394
-0.00561677
-0.00588114
-0.00609575
-0.00634344
-0.00659614
-0.00682905
-0.00702672
-0.00718219
-0.00731964
-0.00748737
-0.00779722
-0.00842905
-0.00974387
-0.0120053
-0.0171534
-0.0187013
-0.0175674
0.00907569
-0.00837397
-0.00592522
-0.00570675
-0.00563192
-0.00601828
-0.00654235
-0.00710702
-0.00761572
-0.00804267
-0.00836082
-0.00863494
-0.00891242
-0.00943568
-0.0104103
-0.0128035
-0.0162807
-0.0251491
-0.0294141
-0.0282228
0.0180807
-0.00524907
-0.00830527
-0.0078837
-0.00861872
-0.0088909
-0.00923624
-0.00960325
-0.00990934
-0.0101664
-0.0103215
-0.0104179
-0.0105843
-0.0110143
-0.0120309
-0.0152077
-0.0191311
-0.0292313
-0.0301969
-0.0136469
0.0625609
-0.02937
-0.0048327
-0.00439162
-0.00452536
-0.00514705
-0.00608467
-0.00713061
-0.00798219
-0.00875356
-0.00920417
-0.00970555
-0.00998514
-0.0107778
-0.0116446
-0.0135786
-0.0143891
-0.0122117
0.00756341
0.0646069
0.194184
2.69403e-05
-4.41441e-06
2.08436e-05
7.3339e-05
0.000159385
0.000278578
0.000430229
0.000613253
0.00082564
0.00106416
0.00132406
0.00159888
0.00188017
0.00215762
0.0024192
0.00265178
0.00284161
0.00297571
0.00305381
0.00303144
5.84708e-05
2.57792e-05
5.16239e-05
0.000101532
0.000183437
0.000297383
0.000443057
0.000619723
0.000825704
0.0010581
0.00131248
0.00158249
0.0018602
0.00213534
0.00239585
0.00262845
0.0028191
0.00295461
0.00303601
0.00301224
3.07049e-05
-6.6342e-06
1.79886e-05
6.59685e-05
0.000146075
0.000258515
0.000403312
0.000580148
0.000787788
0.00102375
0.00128397
0.00156281
0.00185185
0.00214067
0.00241659
0.00266517
0.00287062
0.00301759
0.00310664
0.00307878
-2.90806e-05
-7.04643e-05
-4.73449e-05
-1.61278e-06
7.65032e-05
0.00018755
0.000332089
0.000510443
0.000722064
0.000965162
0.00123629
0.00153013
0.00183886
0.00215152
0.00245424
0.00273065
0.00296218
0.0031298
0.00323285
0.00320285
-0.000127676
-0.000173736
-0.000152475
-0.000109244
-3.30824e-05
7.7019e-05
0.000222337
0.000404048
0.00062255
0.00087704
0.00116501
0.00148179
0.00181997
0.00216832
0.00251168
0.00283099
0.00310341
0.00330402
0.00342963
0.00339856
-0.000265715
-0.000317551
-0.000298676
-0.000258622
-0.000184981
-7.6155e-05
7.00461e-05
0.000255907
0.00048308
0.000752116
0.00106187
0.00140885
0.00178663
0.00218388
0.00258412
0.00296494
0.00329759
0.00354826
0.00370884
0.00367863
-0.000444284
-0.000503287
-0.000487607
-0.000451981
-0.000382234
-0.000276052
-0.00013011
5.92767e-05
0.000295389
0.000580616
0.00091577
0.0012992
0.00172644
0.0021868
0.00266296
0.00312886
0.0035481
0.00387366
0.00408809
0.00406357
-0.000665088
-0.000732941
-0.000721615
-0.000692335
-0.000628803
-0.000527877
-0.000384867
-0.000194384
4.8891e-05
0.000349755
0.000711739
0.001136
0.00162144
0.00215951
0.0027335
0.00331428
0.0038564
0.00429424
0.00459232
0.00458572
-0.000930149
-0.00100883
-0.00100336
-0.000983084
-0.000929172
-0.000837576
-0.000702034
-0.000515166
-0.000269212
4.3632e-05
0.00043055
0.000896693
0.00144599
0.00207495
0.00277048
0.0035028
0.00421738
0.00482507
0.00525521
0.00529721
-0.00124177
-0.00133352
-0.00133571
-0.00132782
-0.00128811
-0.00121156
-0.00109017
-0.000914363
-0.000673657
-0.000356755
4.81827e-05
0.000553109
0.00116428
0.00189227
0.00273161
0.00365764
0.00461055
0.00547664
0.00611941
0.00628627
-0.00160261
-0.00170993
-0.00172158
-0.00173012
-0.00171036
-0.00165631
-0.00155807
-0.00140381
-0.00118029
-0.000872732
-0.000464514
6.25543e-05
0.000727539
0.00155195
0.00254815
0.00370884
0.00498162
0.00623751
0.00723352
0.00770852
-0.00201608
-0.00214143
-0.00216386
-0.00219322
-0.00220018
-0.00217774
-0.00211397
-0.0019948
-0.00180458
-0.0015255
-0.00113652
-0.000611765
7.82648e-05
0.000971949
0.00211181
0.00352755
0.00520535
0.0070348
0.00862659
0.00983589
-0.00248717
-0.00263215
-0.00266524
-0.00271965
-0.00276079
-0.00278051
-0.00276454
-0.00269664
-0.00255948
-0.00233372
-0.00199626
-0.00151732
-0.000856888
3.52845e-05
0.00125598
0.00288603
0.00501157
0.00762411
0.0101894
0.0131619
-0.00302595
-0.00318718
-0.00322513
-0.00330754
-0.00339186
-0.00346674
-0.00351397
-0.00351513
-0.0034525
-0.00330764
-0.0030594
-0.00267909
-0.00212308
-0.00132168
-0.00017984
0.00145178
0.00387029
0.00733078
0.0112668
0.0176013
-0.00364422
-0.00383709
-0.00387334
-0.00399054
-0.00411759
-0.00424947
-0.004368
-0.00445261
-0.00448449
-0.00444792
-0.0043312
-0.004122
-0.00380121
-0.00332689
-0.00262415
-0.00153964
0.00039986
0.00432188
0.00918624
0.0206671
-0.00443763
-0.0044261
-0.0044267
-0.00454017
-0.00474773
-0.00499808
-0.00525008
-0.00546697
-0.00562652
-0.00571895
-0.00575134
-0.00574047
-0.0057185
-0.00571945
-0.00579471
-0.00589695
-0.00605952
-0.0039847
-0.00105283
0.0169152
-0.00501341
-0.00556628
-0.00548454
-0.00576428
-0.00599683
-0.00626603
-0.00654271
-0.0067988
-0.00701959
-0.00719756
-0.00735775
-0.00755101
-0.00789488
-0.00857848
-0.00998323
-0.0123825
-0.0177921
-0.0196157
-0.0181987
0.00913857
-0.00818525
-0.00574037
-0.00553152
-0.0054721
-0.00587981
-0.00643194
-0.00702906
-0.00756992
-0.00802858
-0.00837632
-0.00867911
-0.00898701
-0.00955212
-0.01059
-0.0131103
-0.0167735
-0.0260624
-0.0307608
-0.0293839
0.0183897
-0.0050685
-0.00812273
-0.00768296
-0.0084315
-0.008723
-0.00909914
-0.00950937
-0.00985287
-0.0101482
-0.0103384
-0.0104658
-0.0106636
-0.0111325
-0.012208
-0.0155071
-0.0196037
-0.030025
-0.0311991
-0.0140999
0.0633692
-0.0291251
-0.00457214
-0.00413088
-0.00427879
-0.00493117
-0.00591183
-0.00700699
-0.00790659
-0.00872392
-0.009214
-0.00975046
-0.0100626
-0.0108969
-0.011818
-0.0138416
-0.0147445
-0.0126779
0.00721911
0.0649186
0.195747
3.14347e-05
-3.08818e-08
2.50841e-05
7.74161e-05
0.000163343
0.000282489
0.000434187
0.00061737
0.000830042
0.00106898
0.00132946
0.00160496
0.00188707
0.00216538
0.00242784
0.00266122
0.00285172
0.00298626
0.00306461
0.0030422
6.32187e-05
3.04069e-05
5.61048e-05
0.000105843
0.00018762
0.000301506
0.000447213
0.000624025
0.000830283
0.0010631
0.00131805
0.00158877
0.00186732
0.00214337
0.00240482
0.0026383
0.00282967
0.00296568
0.00304738
0.0030236
3.60098e-05
-1.45358e-06
2.30102e-05
7.07993e-05
0.000150755
0.000263111
0.000407918
0.000584885
0.000792799
0.0010292
0.00129003
0.00156965
0.00185964
0.00214951
0.00242655
0.00267619
0.00288256
0.0030302
0.00311966
0.00309182
-2.29148e-05
-6.44309e-05
-4.14918e-05
4.01653e-06
8.19431e-05
0.000192866
0.00033738
0.000515841
0.000727734
0.000971298
0.00124311
0.00153786
0.00184772
0.00216168
0.00246581
0.00274363
0.00297642
0.00314501
0.00324869
0.00321879
-0.000120361
-0.000166565
-0.000145517
-0.000102559
-2.66419e-05
8.32782e-05
0.000228521
0.000410307
0.000629078
0.000884074
0.00117283
0.0014907
0.00183028
0.0021803
0.00252556
0.00284681
0.00312105
0.00332313
0.00344975
0.00341892
-0.000256916
-0.000308914
-0.000290299
-0.000250588
-0.000177274
-6.87162e-05
7.73306e-05
0.000263208
0.00049063
0.000760212
0.00107087
0.00141917
0.00179871
0.00219817
0.00260098
0.00298457
0.00331993
0.00357287
0.00373508
0.00370536
-0.000433585
-0.000492771
-0.000477423
-0.000442247
-0.000372953
-0.000267175
-0.000121517
6.77776e-05
0.000304075
0.000589856
0.000926029
0.00131104