/*--------------------------------*- C++ -*----------------------------------*\
  =========                 |
  \\      /  F ield         | OpenFOAM: The Open Source CFD Toolbox
   \\    /   O peration     | Website:  https://openfoam.org
    \\  /    A nd           | Version:  10
     \\/     M anipulation  |
\*---------------------------------------------------------------------------*/
FoamFile
{
    format      ascii;
    class       surfaceScalarField;
    location    "4.325";
    object      phi;
}
// * * * * * * * * * * * * * * * * * * * * * * * * * * * * * * * * * * * * * //

dimensions      [0 3 -1 0 0 0 0];

internalField   nonuniform List<scalar> 
760
(
-8.77608e-06
8.77607e-06
-2.82817e-05
1.95056e-05
-5.03625e-05
2.20809e-05
-7.22531e-05
2.18906e-05
-9.31088e-05
2.08556e-05
-0.000112483
1.9374e-05
-0.00012994
1.74576e-05
-0.00014499
1.50493e-05
-0.000157076
1.20868e-05
-0.000165592
8.51528e-06
-0.000169888
4.29668e-06
-0.000169311
-5.77018e-07
-0.000163256
-6.0557e-06
-0.000151261
-1.19945e-05
-0.000133113
-1.8148e-05
-0.000108974
-2.41392e-05
-7.96152e-05
-2.93589e-05
-4.69879e-05
-3.26272e-05
-1.60859e-05
-3.09021e-05
-1.60859e-05
-2.02726e-05
2.90487e-05
-5.62814e-05
5.55144e-05
-9.57486e-05
6.15481e-05
-0.000134467
6.06087e-05
-0.000170932
5.73213e-05
-0.000204254
5.26961e-05
-0.000233627
4.68302e-05
-0.000258228
3.965e-05
-0.0002772
3.10591e-05
-0.000289657
2.09724e-05
-0.000294674
9.31355e-06
-0.000291477
-3.77374e-06
-0.000279222
-1.8311e-05
-0.0002574
-3.38168e-05
-0.000225859
-4.96884e-05
-0.000185009
-6.49895e-05
-0.000136137
-7.82308e-05
-8.22651e-05
-8.64991e-05
-3.0632e-05
-8.25352e-05
-4.67179e-05
-2.42559e-05
5.33046e-05
-6.62069e-05
9.74654e-05
-0.000111807
0.000107148
-0.000156351
0.000105153
-0.000198186
9.91558e-05
-0.000236325
9.08352e-05
-0.000269881
8.03867e-05
-0.00029796
6.77287e-05
-0.000319636
5.27345e-05
-0.000333951
3.52882e-05
-0.000339972
1.53345e-05
-0.000336624
-7.1224e-06
-0.000323023
-3.19119e-05
-0.000298495
-5.83445e-05
-0.000262727
-8.54568e-05
-0.000216007
-0.00011171
-0.000159649
-0.000134589
-9.702e-05
-0.000149128
-3.64786e-05
-0.000143077
-8.31965e-05
-2.58815e-05
7.91861e-05
-7.07334e-05
0.000142317
-0.000119407
0.000155821
-0.000166955
0.000152702
-0.000211702
0.000143902
-0.000252669
0.000131803
-0.000288977
0.000116695
-0.000319729
9.84803e-05
-0.000343977
7.69832e-05
-0.00036071
5.20214e-05
-0.000368856
2.34798e-05
-0.000367281
-8.69682e-06
-0.000354688
-4.45056e-05
-0.000330042
-8.29902e-05
-0.000292604
-0.000122895
-0.000242294
-0.00016202
-0.000180246
-0.000196636
-0.000110108
-0.000219266
-4.15161e-05
-0.000211669
-0.000124713
-2.72756e-05
0.000106462
-7.48386e-05
0.00018988
-0.000126489
0.000207472
-0.000177041
0.000203254
-0.000224813
0.000191674
-0.000268867
0.000175857
-0.000308366
0.000156194
-0.000342442
0.000132556
-0.000370145
0.000104687
-0.000390407
7.2283e-05
-0.000402004
3.50769e-05
-0.000403584
-7.11735e-06
-0.000393412
-5.46772e-05
-0.000369881
-0.000106521
-0.000331522
-0.000161254
-0.000277492
-0.00021605
-0.000208454
-0.000265674
-0.000128353
-0.000299366
-4.86986e-05
-0.000291324
-0.000173411
-2.89894e-05
0.000135451
-7.98434e-05
0.000240734
-0.000135125
0.000262753
-0.000189349
0.000257477
-0.000240833
0.000243159
-0.000288706
0.000223729
-0.000332204
0.000199693
-0.000370529
0.00017088
-0.000402766
0.000136924
-0.000427815
9.73323e-05
-0.000444303
5.15647e-05
-0.000450692
-7.27945e-07
-0.000444582
-6.07873e-05
-0.00042361
-0.000127494
-0.000385188
-0.000199676
-0.000327187
-0.00027405
-0.000249217
-0.000343644
-0.000155319
-0.000393264
-5.96813e-05
-0.000386962
-0.000233092
-3.11355e-05
0.000166587
-8.60331e-05
0.000295632
-0.000145738
0.000322458
-0.000204395
0.000316134
-0.000260332
0.000299096
-0.000312775
0.000276172
-0.000361086
0.000248003
-0.000404593
0.000214387
-0.000442494
0.000174825
-0.000473741
0.000128579
-0.000496901
7.47247e-05
-0.00051002
1.23907e-05
-0.000510415
-6.03924e-05
-0.000494435
-0.000143473
-0.000457911
-0.000236201
-0.000396608
-0.000335353
-0.000308007
-0.000432244
-0.000195488
-0.000505783
-7.68676e-05
-0.000505582
-0.00030996
-3.37461e-05
0.000200333
-9.34947e-05
0.00035538
-0.000158428
0.000387392
-0.000222245
0.000379951
-0.0002833
0.000360152
-0.000340964
0.000333836
-0.000394789
0.000301828
-0.000444324
0.000263922
-0.000488987
0.000219489
-0.000527918
0.00016751
-0.000559759
0.000106566
-0.000582322
3.49541e-05
-0.000592637
-5.00778e-05
-0.000585629
-0.000150481
-0.000554944
-0.000266886
-0.000493046
-0.000397251
-0.00039342
-0.00053187
-0.000256765
-0.000642439
-0.000105143
-0.000657204
-0.000415103
-3.68741e-05
0.000237207
-0.000102341
0.000420848
-0.000173302
0.000458353
-0.00024293
0.000449578
-0.000309636
0.000426857
-0.000372993
0.000397194
-0.000432832
0.000361667
-0.000489034
0.000320123
-0.000541396
0.000271852
-0.000589451
0.000215564
-0.000632178
0.000149293
-0.000667572
7.0348e-05
-0.000692504
-2.51453e-05
-0.00070066
-0.000142326
-0.000683012
-0.000284534
-0.000627215
-0.000453048
-0.000519763
-0.000639322
-0.000354475
-0.000807727
-0.000155518
-0.000856161
-0.000570621
-4.0638e-05
0.000277845
-0.000112802
0.000493012
-0.000190593
0.000536143
-0.000266579
0.000525564
-0.000339273
0.000499552
-0.000408533
0.000466454
-0.000474562
0.000427696
-0.00053771
0.000383271
-0.00059835
0.000332492
-0.000656695
0.000273909
-0.000712487
0.000205084
-0.000764417
0.000122278
-0.000810019
2.04564e-05
-0.000842415
-0.000109929
-0.000850098
-0.000276851
-0.000814643
-0.000488504
-0.000711495
-0.000742469
-0.000520239
-0.000998983
-0.000254476
-0.00112192
-0.000825097
-4.52773e-05
0.000323122
-0.00012532
0.000573054
-0.000210756
0.000621579
-0.000293505
0.000608313
-0.000372265
0.000578312
-0.000447271
0.00054146
-0.000519204
0.000499629
-0.000589015
0.000453083
-0.000657856
0.000401333
-0.000726969
0.000343023
-0.000797452
0.000275567
-0.000869728
0.000194554
-0.000942255
9.29838e-05
-0.0010114
-4.07836e-05
-0.00106415
-0.000224102
-0.00107685
-0.000475799
-0.0010106
-0.000808723
-0.000818123
-0.00119146
-0.000466819
-0.00147323
-0.00129192
-5.12545e-05
0.000374377
-0.000140698
0.000662498
-0.000234619
0.000715501
-0.000324333
0.000698026
-0.000408885
0.000662864
-0.000489012
0.000621587
-0.000565961
0.000576579
-0.000641372
0.000528493
-0.000717318
0.000477279
-0.000796381
0.000422086
-0.000881647
0.000360833
-0.000976434
0.000289341
-0.00108324
0.000199789
-0.0012026
7.85743e-05
-0.00132831
-9.83842e-05
-0.00143829
-0.000365823
-0.00147944
-0.000767577
-0.0013508
-0.00132009
-0.000889414
-0.00193462
-0.00218133
-5.946e-05
0.000433837
-0.000160361
0.000763399
-0.000263586
0.000818726
-0.00036016
0.000794599
-0.000449762
0.000752466
-0.000533812
0.000705637
-0.000614183
0.000656949
-0.000693165
0.000607475
-0.00077371
0.000557824
-0.000859789
0.000508165
-0.000956865
0.000457909
-0.00107237
0.00040485
-0.00121596
0.000343378
-0.00139844
0.000261052
-0.00163054
0.000133714
-0.0019069
-8.94594e-05
-0.00216053
-0.000513947
-0.00216783
-0.0013128
-0.00152296
-0.00257949
-0.00370429
-7.18729e-05
0.00050571
-0.000187146
0.000878672
-0.000299966
0.000931546
-0.000402437
0.00089707
-0.000495736
0.000845766
-0.000582035
0.000791935
-0.000663638
0.000738552
-0.000743262
0.000687099
-0.0008245
0.000639063
-0.000912438
0.000596103
-0.00101476
0.000560232
-0.00114356
0.000533652
-0.00131792
0.000517739
-0.00156572
0.000508848
-0.00192071
0.0004887
-0.00239478
0.000384612
-0.00288545
-2.32703e-05
-0.00296683
-0.00123142
-0.00199796
-0.00354835
-0.00570226
-8.75368e-05
0.000593246
-0.00022092
0.00101206
-0.000345598
0.00105622
-0.000455384
0.00100686
-0.000551127
0.000941508
-0.000636606
0.000877415
-0.000715536
0.000817482
-0.000791192
0.000762755
-0.000866962
0.000714833
-0.000947407
0.000676548
-0.00104046
0.000653284
-0.00116052
0.000653709
-0.00133403
0.000691257
-0.00160327
0.000778084
-0.00202284
0.000908269
-0.00259198
0.000953756
-0.0031521
0.00053685
-0.00313123
-0.00125229
-0.00195018
-0.00472941
-0.00765243
-0.000150487
0.000743733
-0.000296333
0.0011579
-0.000415222
0.00117511
-0.000515026
0.00110666
-0.000604637
0.00103112
-0.000686752
0.00095953
-0.000762718
0.000893449
-0.000833414
0.000833451
-0.000900403
0.000781822
-0.000966039
0.000742184
-0.00103571
0.000722954
-0.00111963
0.000737627
-0.001241
0.000812634
-0.00142984
0.000966915
-0.00173663
0.00121506
-0.00211558
0.0013327
-0.00247711
0.000898382
-0.00242657
-0.00130283
-0.00155693
-0.00559905
-0.00920937
-0.000102381
0.000846114
-0.000313409
0.00136893
-0.000478185
0.00133989
-0.000603462
0.00123194
-0.000698105
0.00112576
-0.000771126
0.00103255
-0.000829018
0.00095134
-0.000875122
0.000879555
-0.000911064
0.000817764
-0.000935714
0.000766834
-0.000947568
0.000734808
-0.00094285
0.000732909
-0.000925157
0.000794941
-0.00088714
0.000928898
-0.000861113
0.00118904
-0.000848669
0.00132026
-0.000906774
0.000956487
-0.00102034
-0.00118926
-0.000770784
-0.0058486
-0.00998015
-0.000389841
0.00123595
-0.00049845
0.00147754
-0.000601948
0.00144339
-0.000697233
0.00132722
-0.00074983
0.00117836
-0.000768778
0.0010515
-0.000763519
0.000946081
-0.000737962
0.000853998
-0.000697881
0.000777683
-0.000639782
0.000708736
-0.000564284
0.000659309
-0.000455501
0.000624127
-0.000299181
0.00063862
-6.28068e-05
0.000692524
0.000298369
0.000827862
0.000728016
0.000890609
0.00122304
0.000461461
0.00117154
-0.00113776
0.000684052
-0.00536111
-0.0092961
-0.00132816
0.00256411
-0.00127784
0.00142723
-0.00103423
0.00119977
-0.000687029
0.000980024
-0.000319658
0.000810988
4.54154e-05
0.000686426
0.000393894
0.000597603
0.000720559
0.000527333
0.0010281
0.000470145
0.00131336
0.000423474
0.00158875
0.000383922
0.00185842
0.000354456
0.00215658
0.000340452
0.0025107
0.000338405
0.00301372
0.000324845
0.00364829
0.000256043
0.0042514
-0.000141648
0.00424514
-0.00113151
0.00268007
-0.00379604
-0.00661603
0.00256411
0.00399134
0.00519111
0.00617113
0.00698212
0.00766855
0.00826615
0.00879348
0.00926363
0.0096871
0.010071
0.0104255
0.0107659
0.0111043
0.0114292
0.0116852
0.0115436
0.0104121
0.00661603
)
;

boundaryField
{
    movingWall
    {
        type            calculated;
        value           uniform 0;
    }
    fixedWalls
    {
        type            calculated;
        value           uniform 0;
    }
    frontAndBack
    {
        type            empty;
        value           nonuniform List<scalar> 0();
    }
}


// ************************************************************************* //
