/*--------------------------------*- C++ -*----------------------------------*\
  =========                 |
  \\      /  F ield         | OpenFOAM: The Open Source CFD Toolbox
   \\    /   O peration     | Website:  https://openfoam.org
    \\  /    A nd           | Version:  10
     \\/     M anipulation  |
\*---------------------------------------------------------------------------*/
FoamFile
{
    format      ascii;
    class       volScalarField;
    location    "6.75";
    object      p;
}
// * * * * * * * * * * * * * * * * * * * * * * * * * * * * * * * * * * * * * //

dimensions      [0 2 -2 0 0 0 0];

internalField   nonuniform List<scalar> 
8000
(
-3.88691e-06
-9.32063e-06
3.82001e-05
0.000125013
0.00025712
0.000436144
0.000663767
0.000941621
0.00127031
0.00164879
0.00207344
0.00253701
0.00302757
0.00352763
0.00401454
0.0044595
0.00483195
0.00510288
0.00526599
0.00527499
-3.51062e-06
-8.00327e-06
4.17287e-05
0.000128354
0.000258773
0.000434981
0.000659079
0.000932899
0.00125731
0.00163162
0.00205265
0.00251367
0.00300288
0.00350305
0.0039922
0.00444131
0.00481882
0.00509438
0.00526276
0.00526694
-6.77916e-05
-7.55498e-05
-2.73915e-05
5.61403e-05
0.000182606
0.000354211
0.000573521
0.000843029
0.00116449
0.00153827
0.00196239
0.00243136
0.00293515
0.00345738
0.00397316
0.00445245
0.00485926
0.00515704
0.00533919
0.00533499
-0.000185576
-0.000195925
-0.000150452
-7.16812e-05
4.86702e-05
0.000213151
0.000425038
0.000687836
0.00100467
0.00137761
0.00180672
0.0022887
0.00281515
0.00337082
0.00393046
0.00446112
0.00491954
0.00525832
0.00546652
0.00545341
-0.00036325
-0.000376377
-0.000335018
-0.000262951
-0.000151176
3.28862e-06
0.000204579
0.000457472
0.000766859
0.00113718
0.00157137
0.0020694
0.00262607
0.00322798
0.00385084
0.00445702
0.00499385
0.00539737
0.00564829
0.00562347
-0.000601453
-0.00061779
-0.000582037
-0.000518953
-0.000418875
-0.000278404
-9.25161e-05
0.000144948
0.00044091
0.000802662
0.00123698
0.00174846
0.002337
0.00299371
0.00369579
0.00440402
0.00505381
0.00555695
0.00587653
0.0058372
-0.000899643
-0.000919802
-0.000891261
-0.000839862
-0.000755391
-0.000634215
-0.000470593
-0.000257102
1.52123e-05
0.000356739
0.000778755
0.00129208
0.0019042
0.00261478
0.0034078
0.00424083
0.00504521
0.00569938
0.00613056
0.00608034
-0.00125663
-0.00128135
-0.00126167
-0.00122493
-0.00116062
-0.00106527
-0.00093286
-0.000755194
-0.000521742
-0.000219323
0.000167893
0.000657778
0.00126811
0.00201118
0.00288508
0.00385394
0.00486121
0.00574126
0.00635819
0.00632887
-0.00167067
-0.00170067
-0.00169127
-0.00167206
-0.00163264
-0.00157032
-0.00147965
-0.00135264
-0.00117836
-0.000942099
-0.000624713
-0.000202052
0.000354885
0.00107696
0.00198721
0.00308603
0.00428562
0.00548908
0.00641451
0.00652738
-0.00213974
-0.00217556
-0.00217706
-0.00217742
-0.00216696
-0.00214465
-0.0021067
-0.00204682
-0.00195571
-0.00182002
-0.00162087
-0.00133206
-0.000918324
-0.000334318
0.000474214
0.00155953
0.00293823
0.00447187
0.00591596
0.00653274
-0.00266228
-0.00270394
-0.00271532
-0.00273542
-0.00275601
-0.00277883
-0.0028032
-0.00282637
-0.00284342
-0.00284639
-0.00282303
-0.00275549
-0.0026165
-0.00236363
-0.00193228
-0.00121977
-4.09828e-05
0.00182821
0.00404481
0.00585587
-0.00323857
-0.00328494
-0.00330226
-0.00333881
-0.00338869
-0.00345788
-0.00355005
-0.00366795
-0.00381414
-0.00399106
-0.00420132
-0.0044486
-0.00473676
-0.00506568
-0.00541383
-0.00566091
-0.00539227
-0.00362227
-9.65488e-05
0.0040027
-0.00387417
-0.00392197
-0.00393655
-0.00398105
-0.00405239
-0.00416253
-0.00432068
-0.0045363
-0.00482202
-0.0051954
-0.00568247
-0.00632307
-0.00717865
-0.00832853
-0.00982423
-0.0114335
-0.0122649
-0.00976141
-0.00362609
0.00218545
-0.00458107
-0.00461815
-0.00461066
-0.00464517
-0.0047231
-0.00486226
-0.00507562
-0.00537971
-0.00579763
-0.00636258
-0.00712738
-0.00817056
-0.00961613
-0.0116013
-0.0142102
-0.0168257
-0.0181671
-0.0141815
-0.00740459
0.000295337
-0.00539508
-0.00541701
-0.0053692
-0.00537473
-0.00543158
-0.00556845
-0.00580534
-0.00616553
-0.00668153
-0.00739778
-0.00838943
-0.00976181
-0.0116808
-0.0142897
-0.0178155
-0.0212136
-0.0241847
-0.0212893
-0.0151628
-0.00291884
-0.00648733
-0.00628257
-0.00610353
-0.00599031
-0.00599107
-0.00611704
-0.00637598
-0.00678207
-0.00736945
-0.0081845
-0.00930244
-0.0108772
-0.0131088
-0.0161222
-0.0202616
-0.0245251
-0.0306983
-0.0296627
-0.0238963
-0.00500877
-0.00741251
-0.007519
-0.00719943
-0.00706179
-0.00694157
-0.00694613
-0.00709807
-0.00742416
-0.007968
-0.00875389
-0.00990402
-0.0115021
-0.0138097
-0.0168679
-0.0212795
-0.0257803
-0.0331445
-0.0313482
-0.0242524
0.00214344
-0.011311
-0.00848224
-0.00783024
-0.007118
-0.00686081
-0.00685317
-0.0070625
-0.00744123
-0.0080352
-0.00884496
-0.0099992
-0.0115379
-0.0137328
-0.0164897
-0.0203628
-0.0237911
-0.0288069
-0.0243816
-0.0146806
0.0248301
-0.0109313
-0.011833
-0.0103513
-0.00983766
-0.00908305
-0.00860045
-0.00837131
-0.00839661
-0.00872161
-0.00932024
-0.0103108
-0.0116744
-0.0137323
-0.0162005
-0.0198298
-0.0222896
-0.0250184
-0.0146064
0.00444874
0.0696507
-0.0355854
-0.0101797
-0.00851465
-0.00703166
-0.00625769
-0.00612622
-0.00637348
-0.00677406
-0.00742683
-0.00823132
-0.0094647
-0.0109075
-0.0130308
-0.0150524
-0.0173613
-0.0162898
-0.0109706
0.0151532
0.0632296
0.171211
-1.09017e-06
-1.62133e-05
2.93125e-05
0.000115268
0.00024755
0.00042727
0.000656169
0.000935769
0.00126682
0.00164847
0.00207727
0.00254618
0.00304334
0.00355114
0.00404583
0.0044985
0.00487681
0.00514908
0.00530936
0.00530042
1.127e-05
-3.32977e-06
4.62553e-05
0.000132448
0.000262855
0.000439129
0.000663326
0.000937325
0.00126213
0.00163719
0.00205954
0.00252269
0.00301494
0.00351962
0.00401373
0.00446803
0.00484942
0.00512535
0.00529195
0.00527663
-4.85547e-05
-6.86697e-05
-2.05707e-05
6.24823e-05
0.000188867
0.000360408
0.000579626
0.000849103
0.00117072
0.00154505
0.00197034
0.00244136
0.00294841
0.00347526
0.00399726
0.00448305
0.00489482
0.0051933
0.00537334
0.00534483
-0.000163082
-0.00018707
-0.000141545
-6.32304e-05
5.704e-05
0.000221427
0.000433162
0.000695854
0.00101277
0.00138623
0.00181661
0.00230095
0.0028312
0.00339258
0.00396056
0.00449989
0.00496517
0.00530502
0.00551045
0.0054674
-0.000338834
-0.00036648
-0.00032501
-0.000253372
-0.000141599
1.28836e-05
0.000214181
0.000467189
0.000776974
0.00114824
0.00158435
0.00208576
0.00264774
0.00325774
0.00389206
0.00451063
0.00505773
0.00546379
0.00571134
0.00564837
-0.000575683
-0.000607337
-0.000571413
-0.000508693
-0.000408468
-0.000267764
-8.15668e-05
0.000156433
0.000453367
0.000816862
0.00125422
0.0017708
0.00236738
0.00303545
0.00375466
0.00448191
0.00514859
0.00565823
0.00597508
0.00588477
-0.000872635
-0.000909015
-0.000880243
-0.000829116
-0.000744324
-0.000622659
-0.000458357
-0.000243802
3.02279e-05
0.000374552
0.000801131
0.00132187
0.00194554
0.00267301
0.00348937
0.00435562
0.00519043
0.00586222
0.00629689
0.00617756
-0.00122835
-0.00127039
-0.00125045
-0.00121392
-0.00114914
-0.00105306
-0.000919606
-0.000740316
-0.00050432
-0.000197877
0.000195759
0.000695934
0.00132248
0.00208907
0.00300024
0.00402663
0.0050871
0.00601443
0.00665829
0.0065436
-0.00164099
-0.00168969
-0.00168004
-0.00166106
-0.00162113
-0.00155796
-0.00146597
-0.00133684
-0.00115921
-0.000917693
-0.000591955
-0.000155751
0.000423569
0.00118218
0.00214471
0.00331412
0.00463914
0.00596377
0.00699982
0.00706948
-0.00210843
-0.00216473
-0.00216607
-0.00216681
-0.00215596
-0.00213284
-0.00209348
-0.00203119
-0.00193617
-0.00179428
-0.00158536
-0.00128077
-0.00084087
-0.000212861
0.000664801
0.00185432
0.00339397
0.00528056
0.00708623
0.00782889
-0.00262885
-0.00269337
-0.0027048
-0.00272561
-0.00274614
-0.00276845
-0.0027916
-0.0028124
-0.00282538
-0.00282182
-0.00278844
-0.00270484
-0.00254048
-0.00224893
-0.00176202
-0.000963358
0.000439013
0.00283615
0.00590445
0.00831127
-0.00320188
-0.00327435
-0.00329187
-0.00332968
-0.00338018
-0.00344953
-0.00354106
-0.00365705
-0.00379946
-0.00397021
-0.00417157
-0.0044063
-0.00468175
-0.00501553
-0.00543008
-0.00584544
-0.00559273
-0.0032386
0.00126958
0.00648356
-0.0038322
-0.00391168
-0.00392732
-0.00397424
-0.00404705
-0.00415788
-0.00431578
-0.00453009
-0.00481274
-0.00518121
-0.00566282
-0.00630104
-0.00717488
-0.00842558
-0.0102306
-0.0125705
-0.0144082
-0.012157
-0.00612026
0.0020381
-0.00452602
-0.00460077
-0.0045932
-0.00463115
-0.00471314
-0.00485581
-0.00507135
-0.0053755
-0.00579116
-0.00635226
-0.00711455
-0.00816758
-0.00967159
-0.0118861
-0.0151248
-0.0191791
-0.0230512
-0.0213472
-0.0153377
-0.00440964
-0.00531962
-0.00540191
-0.00535575
-0.00536993
-0.00543158
-0.00557132
-0.00580888
-0.00616756
-0.00667887
-0.0073886
-0.00837465
-0.00975377
-0.0117562
-0.0146767
-0.0190112
-0.0243756
-0.0309334
-0.0307779
-0.0267727
-0.0117621
-0.00634357
-0.00620638
-0.00603657
-0.00593666
-0.00595376
-0.00609279
-0.00635997
-0.00676916
-0.00735171
-0.00815546
-0.00927182
-0.0108217
-0.0131064
-0.0163157
-0.021416
-0.0272772
-0.0368802
-0.0378801
-0.0357654
-0.0145478
-0.00708866
-0.00742131
-0.00710979
-0.00702899
-0.00692757
-0.0069447
-0.00709979
-0.00742227
-0.0079495
-0.0087191
-0.00983274
-0.0113646
-0.0136569
-0.0168156
-0.0218286
-0.0274408
-0.0364569
-0.0370781
-0.034464
-0.00313626
-0.0108036
-0.00814869
-0.00753283
-0.00686396
-0.00669325
-0.00675006
-0.0069989
-0.0074004
-0.00798627
-0.00876077
-0.00986022
-0.0113052
-0.013436
-0.0162187
-0.0204017
-0.0245751
-0.0302466
-0.0285316
-0.0204745
0.0257521
-0.00825105
-0.010852
-0.00975489
-0.00960953
-0.00903181
-0.00865276
-0.00846627
-0.00849224
-0.00878657
-0.00931822
-0.0102139
-0.0114562
-0.0134262
-0.0158695
-0.0198638
-0.0231301
-0.0267512
-0.0174439
0.00411498
0.0780351
-0.0333422
-0.00830826
-0.00691459
-0.00599302
-0.00557687
-0.00561774
-0.00598629
-0.00645044
-0.00714785
-0.00792953
-0.00913407
-0.0105023
-0.0125813
-0.0146792
-0.0171087
-0.0164844
-0.0108885
0.0169875
0.0770614
0.202213
9.55498e-06
-1.03145e-05
3.44299e-05
0.000119898
0.0002526
0.000433407
0.000663959
0.000945993
0.00128046
0.00166671
0.00210154
0.00257806
0.00308442
0.00360284
0.00410885
0.00457209
0.00495825
0.00523334
0.00539177
0.00537076
2.91475e-05
8.91081e-06
5.8339e-05
0.000144165
0.000274712
0.000451495
0.000676639
0.000952206
0.0012794
0.00165791
0.00208501
0.00255439
0.00305436
0.0035687
0.00407312
0.00453731
0.00492624
0.00520508
0.00537074
0.00534369
-2.62724e-05
-5.32759e-05
-5.28846e-06
7.72844e-05
0.000203667
0.000375536
0.000595519
0.000866405
0.00119035
0.00156821
0.0019986
0.00247657
0.00299281
0.00353078
0.00406541
0.00456371
0.00498533
0.00528788
0.00546691
0.00542312
-0.00013677
-0.000168432
-0.000122942
-4.51747e-05
7.50241e-05
0.000239663
0.00045212
0.000716263
0.00103569
0.00141313
0.00184942
0.00234204
0.00288322
0.00345931
0.00404419
0.00460078
0.00508012
0.00542608
0.00563057
0.00556697
-0.000309226
-0.000345197
-0.000303688
-0.000232584
-0.00012083
3.4008e-05
0.000236226
0.000491042
0.00080394
0.00118018
0.00162379
0.00213586
0.00271162
0.00334231
0.00400012
0.00464374
0.00521237
0.00562888
0.00587595
0.00578297
-0.00054301
-0.000583618
-0.000547561
-0.000485304
-0.000384968
-0.000243696
-5.6227e-05
0.000184149
0.000485101
0.00085499
0.0013021
0.00183302
0.00245025
0.00314428
0.00389749
0.00466276
0.00536402
0.00589265
0.00621092
0.00607256
-0.000836724
-0.000882734
-0.00085372
-0.000802984
-0.000717956
-0.000595508
-0.00042956
-0.000212002
6.70739e-05
0.000419458
0.000858482
0.00139789
0.00204845
0.00281022
0.00367783
0.00460307
0.0054954
0.00620381
0.00664675
0.00644421
-0.00118876
-0.00124121
-0.00122094
-0.00118479
-0.00111974
-0.00102278
-0.000887418
-0.000704621
-0.000462668
-0.000146595
0.000262131
0.000785364
0.00144482
0.00224834
0.00324271
0.00436039
0.00551658
0.00651832
0.00719053
0.00692883
-0.00159703
-0.00165708
-0.00164705
-0.00162857
-0.00158851
-0.00152458
-0.00143072
-0.00129793
-0.00111387
-0.000861656
-0.000518671
-5.49086e-05
0.000568945
0.0014045
0.00243982
0.00373352
0.00521525
0.00669449
0.00780162
0.00763196
-0.00205906
-0.00212781
-0.00212883
-0.00213038
-0.00211983
-0.00209643
-0.0020557
-0.00199019
-0.00188908
-0.00173667
-0.00151033
-0.0011776
-0.000692524
5.77924e-06
0.000981643
0.0022992
0.00405585
0.00623111
0.00815713
0.0085959
-0.00257246
-0.0026508
-0.00266209
-0.00268431
-0.00270592
-0.00272892
-0.00275178
-0.00277062
-0.00277904
-0.00276701
-0.00271936
-0.00261357
-0.00241626
-0.00207999
-0.00154398
-0.000695593
0.000798725
0.00353413
0.00687181
0.00907689
-0.00313578
-0.00322367
-0.00324123
-0.00328139
-0.00333433
-0.00340599
-0.00349906
-0.00361527
-0.003756
-0.00392254
-0.00411697
-0.00434428
-0.00461984
-0.00499086
-0.00554151
-0.00621512
-0.00621766
-0.0035008
0.001475
0.00670086
-0.00375228
-0.0038498
-0.00386632
-0.00391713
-0.00399416
-0.00410927
-0.00427097
-0.00448832
-0.0047732
-0.00514373
-0.00562984
-0.00628498
-0.0072134
-0.00862662
-0.0108529
-0.0138302
-0.0162772
-0.014033
-0.00790456
0.000599012
-0.0044232
-0.00451834
-0.00451194
-0.00455577
-0.0046451
-0.00479558
-0.00501859
-0.00532947
-0.00575151
-0.00632047
-0.007097
-0.00818773
-0.00979335
-0.0122655
-0.0160852
-0.0210693
-0.0261234
-0.0252119
-0.0195247
-0.00796275
-0.00518424
-0.00529399
-0.00524961
-0.00527401
-0.0053464
-0.00549725
-0.00574517
-0.00611333
-0.00663339
-0.00735306
-0.00835421
-0.0097736
-0.0118791
-0.0150706
-0.0199899
-0.026196
-0.0337647
-0.0345047
-0.0303709
-0.0154248
-0.00614811
-0.0060429
-0.00587754
-0.00579104
-0.00582526
-0.00598226
-0.00626619
-0.00668984
-0.00728343
-0.00809624
-0.00922007
-0.010788
-0.0131274
-0.0165167
-0.0219923
-0.0282396
-0.0375644
-0.0382597
-0.0352708
-0.0159029
-0.00676309
-0.00715857
-0.00686246
-0.00681805
-0.00674406
-0.00678774
-0.00696506
-0.00730637
-0.00784549
-0.00862156
-0.00972717
-0.0112458
-0.0135453
-0.0167443
-0.0218821
-0.0274794
-0.0349277
-0.0351129
-0.0302982
-0.00276974
-0.0104468
-0.00782449
-0.00716764
-0.00650912
-0.00637833
-0.00648356
-0.00677443
-0.00721028
-0.00781515
-0.00860096
-0.00969347
-0.0110843
-0.0131744
-0.0159692
-0.0200966
-0.0241332
-0.0284007
-0.0257109
-0.0153034
0.0274405
-0.00717085
-0.0100424
-0.00906598
-0.00904009
-0.00854637
-0.00824601
-0.00811629
-0.00819202
-0.00851535
-0.00905954
-0.00993377
-0.0111464
-0.0130632
-0.0155589
-0.0195747
-0.0229149
-0.0257603
-0.0153599
0.00855108
0.0818786
-0.0326373
-0.00749429
-0.00608789
-0.00529266
-0.0049951
-0.00511407
-0.00553061
-0.00604044
-0.00675683
-0.00755283
-0.00872611
-0.0100897
-0.0121044
-0.0142528
-0.0166132
-0.0158886
-0.0092066
0.0202854
0.0843986
0.21135
2.22902e-05
-4.02136e-07
4.38139e-05
0.000129117
0.000262439
0.000444557
0.000677177
0.000962214
0.00130081
0.00169255
0.00213445
0.00261974
0.00313656
0.00366678
0.00418514
0.00465999
0.0050552
0.00533479
0.00549352
0.00546526
4.58376e-05
2.2515e-05
7.18199e-05
0.000157551
0.000288581
0.000466369
0.000693154
0.000971185
0.00130189
0.00168522
0.00211871
0.00259621
0.00310616
0.00363203
0.00414878
0.00462477
0.00502305
0.00530673
0.00547322
0.00543887
-6.49398e-06
-3.71974e-05
1.07097e-05
9.31355e-05
0.000219941
0.000392748
0.000614319
0.000887667
0.00121523
0.00159821
0.00203555
0.00252264
0.00305041
0.00360198
0.00415159
0.00466461
0.00509827
0.00540715
0.00558735
0.00553356
-0.000113817
-0.000149608
-0.000104142
-2.65382e-05
9.40798e-05
0.000259671
0.000473787
0.000740573
0.00106399
0.00144722
0.00189159
0.00239508
0.00295045
0.00354388
0.00414848
0.00472517
0.00522138
0.00557643
0.00578286
0.00570468
-0.000283417
-0.000323865
-0.000282328
-0.000211367
-9.91203e-05
5.68093e-05
0.000260939
0.000518836
0.000836451
0.00121965
0.00167318
0.00219897
0.00279339
0.00344672
0.00413165
0.00480403
0.005398
0.00582887
0.00607952
0.00596315
-0.000514405
-0.00055982
-0.000523674
-0.000461512
-0.000360567
-0.000217998
-2.82632e-05
0.000215784
0.000522407
0.000900769
0.00136016
0.00190794
0.00254474
0.00327421
0.00406602
0.00487366
0.00561433
0.00616705
0.00649238
0.00631351
-0.00080513
-0.000856306
-0.000827147
-0.000776473
-0.000690741
-0.000566815
-0.000398269
-0.000176457
0.000109276
0.000471785
0.000925909
0.0014876
0.00217214
0.00297316
0.0038926
0.00488003
0.00583457
0.00658511
0.00704291
0.00676746
-0.00115377
-0.00121182
-0.00119137
-0.00115532
-0.00108958
-0.000991082
-0.000852959
-0.000665536
-0.000416205
-8.87009e-05
0.000337407
0.000886786
0.00158573
0.00245283
0.00350768
0.00471371
0.0059674
0.00704557
0.00774815
0.00735948
-0.00155799
-0.00162416
-0.00161401
-0.00159579
-0.00155522
-0.00148996
-0.00139349
-0.00125616
-0.00106464
-0.000800629
-0.000439392
5.22564e-05
0.000717102
0.00160323
0.00273776
0.0041486
0.00577593
0.00739611
0.00855373
0.00819486
-0.00201499
-0.00209051
-0.00209154
-0.00209371
-0.00208309
-0.0020589
-0.0020162
-0.00194689
-0.00183926
-0.00167629
-0.00143336
-0.00107504
-0.000550892
0.000204754
0.00126253
0.00269536
0.00462601
0.00703258
0.00903257
0.00928931
-0.00252179
-0.0026077
-0.0026193
-0.00264273
-0.00266506
-0.00268824
-0.00271034
-0.00272697
-0.00273111
-0.00271192
-0.00265331
-0.00253188
-0.00231403
-0.00195573
-0.00140733
-0.000552716
0.00100487
0.0040282
0.00754767
0.0097993
-0.00307603
-0.00317244
-0.00319068
-0.00323294
-0.0032878
-0.00336112
-0.00345526
-0.00357164
-0.00371154
-0.0038765
-0.00406977
-0.00430011
-0.00459321
-0.00502505
-0.00573183
-0.00667076
-0.00687101
-0.00400099
0.00113575
0.0067967
-0.00367958
-0.00378718
-0.00380517
-0.00385944
-0.00393995
-0.00405852
-0.00422342
-0.00444377
-0.00473196
-0.00510779
-0.00560547
-0.00628931
-0.00728791
-0.00886791
-0.0114624
-0.0150571
-0.018172
-0.0161961
-0.0101552
-0.000805511
-0.00433038
-0.00443721
-0.00443295
-0.00448191
-0.00457697
-0.00473347
-0.00496241
-0.00527916
-0.005708
-0.00628729
-0.00708396
-0.0082202
-0.00992992
-0.0126349
-0.0169617
-0.022732
-0.0288466
-0.0286047
-0.0233457
-0.0109195
-0.00506294
-0.00518824
-0.00514715
-0.00518015
-0.00526098
-0.00542029
-0.00567612
-0.00605171
-0.00657936
-0.00730899
-0.00832726
-0.00978548
-0.0119846
-0.0153846
-0.0207621
-0.0275727
-0.0358958
-0.0369182
-0.0336942
-0.0182915
-0.00597838
-0.00589198
-0.00573228
-0.00565722
-0.00570368
-0.00587328
-0.00616889
-0.00660244
-0.00720343
-0.00802189
-0.00915033
-0.0107336
-0.0131209
-0.0166046
-0.0223671
-0.028895
-0.0373866
-0.0382048
-0.0366261
-0.0168438
-0.00651261
-0.00694977
-0.00665886
-0.00664005
-0.00658443
-0.00664528
-0.00683624
-0.00718747
-0.00773084
-0.0085049
-0.00959797
-0.011109
-0.0134313
-0.0165658
-0.0217569
-0.0272857
-0.0337807
-0.0337633
-0.0303419
-0.00181647
-0.01012
-0.00753666
-0.00687598
-0.00623833
-0.00612976
-0.00626083
-0.00657463
-0.00702832
-0.00764081
-0.00842234
-0.00948244
-0.0108598
-0.0129137
-0.0156768
-0.019747
-0.0236349
-0.0273009
-0.0244604
-0.0149912
0.0296162
-0.00658797
-0.00962581
-0.00866742
-0.00870548
-0.00824377
-0.00797474
-0.00786779
-0.00795958
-0.00828955
-0.00882826
-0.00968082
-0.010864
-0.0127509
-0.0152471
-0.0192919
-0.0226364
-0.0252876
-0.0145725
0.00918453
0.0855068
-0.0320731
-0.00692542
-0.00552129
-0.00478616
-0.00455071
-0.00472211
-0.00517717
-0.00571674
-0.00645007
-0.00724978
-0.00840919
-0.00975637
-0.0117368
-0.0138621
-0.0161748
-0.0152823
-0.0082503
0.0221917
0.0870055
0.217716
3.59596e-05
1.22982e-05
5.65133e-05
0.000142087
0.000276288
0.000459937
0.000694867
0.000983181
0.00132624
0.00172386
0.00217326
0.00266778
0.00319551
0.00373793
0.00426902
0.00475588
0.00516079
0.00544609
0.00560673
0.00557434
6.12162e-05
3.6713e-05
8.61331e-05
0.000172144
0.000304005
0.000483219
0.000712167
0.000993299
0.00132828
0.00171731
0.00215815
0.00264481
0.00316579
0.00370413
0.00423406
0.00472269
0.00513128
0.00542112
0.0055899
0.00555152
1.08654e-05
-2.1267e-05
2.67781e-05
0.000109467
0.0002371
0.000411344
0.000635131
0.000911713
0.00124381
0.00163296
0.00207844
0.00257589
0.00311641
0.0036827
0.00424828
0.00477695
0.00522368
0.0055404
0.00572341
0.00566354
-9.41349e-05
-0.000131531
-8.58904e-05
-8.01404e-06
0.00011347
0.000280577
0.000497067
0.000767381
0.00109585
0.0014861
0.00193994
0.00245579
0.00302687
0.00363889
0.00426431
0.00486209
0.00537632
0.0057422
0.00595249
0.0058642
-0.000261378
-0.00030358
-0.000261829
-0.000190562
-7.73611e-05
8.0246e-05
0.000287037
0.000548948
0.000872409
0.00126389
0.00172888
0.00227005
0.00288461
0.00356216
0.00427528
0.00497736
0.00559779
0.00604475
0.00630113
0.00616634
-0.000489896
-0.000537202
-0.000500805
-0.000438295
-0.000336289
-0.000191847
8.93197e-07
0.000249534
0.000562958
0.00095114
0.00142442
0.00199155
0.0026558
0.00341572
0.00424612
0.00509648
0.00587714
0.00645511
0.00678949
0.00657528
-0.000777908
-0.000831126
-0.000801696
-0.000750658
-0.000663797
-0.000537851
-0.000366013
-0.00013909
0.000154335
0.000528154
0.000998595
0.00158309
0.00229704
0.00314287
0.00411543
0.0051643
0.00617998
0.0069719
0.00744493
0.00710091
-0.00112344
-0.00118371
-0.00116302
-0.00112666
-0.00105983
-0.000959309
-0.000817806
-0.000625021
-0.000367461
-2.76053e-05
0.00041674
0.000992681
0.00172973
0.00265104
0.00377289
0.00506363
0.00640963
0.00755852
0.00828593
0.0077713
-0.00152395
-0.00159256
-0.00158225
-0.00156391
-0.00152247
-0.00145543
-0.00135585
-0.00121341
-0.00101389
-0.000737649
-0.000358058
0.000160836
0.000865387
0.00180691
0.003025
0.00454166
0.00629966
0.00804423
0.00923421
0.00867367
-0.0019763
-0.00205452
-0.00205559
-0.002058
-0.00204696
-0.00202159
-0.00197651
-0.00190308
-0.00178878
-0.00161548
-0.001357
-0.000975598
-0.000417447
0.000386947
0.00151288
0.00303837
0.00511404
0.00771688
0.00975165
0.00978918
-0.00247704
-0.00256599
-0.00257795
-0.00260217
-0.00262483
-0.00264779
-0.00266881
-0.00268311
-0.00268325
-0.00265794
-0.00259076
-0.00245841
-0.00222867
-0.00186341
-0.00132738
-0.000500212
0.00107061
0.00431211
0.00794257
0.0101825
-0.00302305
-0.00312288
-0.00314191
-0.00318574
-0.00324196
-0.00331641
-0.00341125
-0.00352782
-0.00366754
-0.00383266
-0.00402835
-0.00426811
-0.00458925
-0.00509686
-0.00598598
-0.00724577
-0.00772277
-0.00469078
0.000683698
0.00666734
-0.00361516
-0.00372683
-0.00374627
-0.00380318
-0.00388633
-0.00400759
-0.0041752
-0.00439853
-0.00469083
-0.00507404
-0.00558734
-0.00630629
-0.0073838
-0.00913944
-0.0121271
-0.016371
-0.0201677
-0.0181756
-0.0118402
-0.00183825
-0.0042494
-0.00436099
-0.00435885
-0.00441169
-0.00451091
-0.00467188
-0.00490556
-0.00522771
-0.00566387
-0.00625545
-0.00707597
-0.00826269
-0.010082
-0.013019
-0.0178505
-0.0243811
-0.0312846
-0.0311206
-0.0254882
-0.0125946
-0.00495973
-0.00509118
-0.00505292
-0.00509186
-0.00517859
-0.00534401
-0.00560593
-0.00598797
-0.00652343
-0.00726479
-0.00830416
-0.00980522
-0.0120998
-0.0156942
-0.0214936
-0.0288011
-0.037458
-0.0380807
-0.0342357
-0.0193657
-0.00584046
-0.00576204
-0.00560698
-0.00553996
-0.0055941
-0.00577163
-0.00607489
-0.00651551
-0.0071231
-0.00794881
-0.00908811
-0.0106891
-0.0131244
-0.0166988
-0.022659
-0.0292052
-0.0372456
-0.0374965
-0.0353779
-0.0166744
-0.00633598
-0.00678836
-0.00649692
-0.00649169
-0.00644587
-0.00651635
-0.00671504
-0.00707188
-0.0076184
-0.00839293
-0.0094839
-0.0109843
-0.0132803
-0.0164898
-0.0216377
-0.0270383
-0.0328513
-0.0321199
-0.0281663
-0.000774294
-0.00987354
-0.00731694
-0.00666207
-0.00604056
-0.00594148
-0.00608378
-0.00640756
-0.00686864
-0.00748442
-0.00826441
-0.00931957
-0.010674
-0.0127029
-0.0154436
-0.0194531
-0.0231623
-0.0262936
-0.0229022
-0.0128606
0.0311945
-0.00632779
-0.00940358
-0.00842955
-0.00848649
-0.00803106
-0.00777144
-0.00767187
-0.00776752
-0.00809827
-0.00863126
-0.00947385
-0.0106393
-0.0125144
-0.0149985
-0.0190291
-0.0222776
-0.024568
-0.0133026
0.0110225
0.0877544
-0.0317767
-0.00662953
-0.00521705
-0.00449175
-0.00427575
-0.00446731
-0.00493853
-0.00548864
-0.00622798
-0.00702583
-0.00817692
-0.00951111
-0.0114691
-0.0135671
-0.0158092
-0.0147661
-0.00734616
0.0237129
0.0892784
0.220813
4.90593e-05
2.51455e-05
6.95879e-05
0.000155681
0.000290932
0.00047625
0.000713617
0.00100532
0.00135292
0.00175646
0.00221331
0.0027169
0.00325525
0.00380948
0.00435284
0.00485133
0.00526583
0.00555725
0.00572053
0.00568553
7.50437e-05
5.01797e-05
9.98619e-05
0.000186403
0.000319309
0.00050017
0.00073152
0.001016
0.0013555
0.00175044
0.0021988
0.00269466
0.00322658
0.00377715
0.00431995
0.0048209
0.00523973
0.00553612
0.00570783
0.00566693
2.59733e-05
-6.59165e-06
4.17362e-05
0.000124968
0.000253677
0.000429626
0.000655924
0.000936048
0.00127299
0.00166857
0.00212235
0.00263023
0.00318335
0.00376403
0.00434506
0.00488886
0.00534839
0.00567323
0.00585973
0.00579567
-7.73586e-05
-0.000115246
-6.92929e-05
9.15617e-06
0.000131782
0.000300709
0.00051991
0.000794102
0.00112796
0.00152551
0.00198899
0.00251721
0.00310367
0.00373371
0.00437907
0.00499694
0.00552848
0.00590528
0.00612008
0.00602415
-0.000242747
-0.000285486
-0.000243392
-0.000171508
-5.70694e-05
0.000102527
0.000312317
0.000578587
0.000908212
0.00130821
0.00178472
0.00234103
0.00297492
0.00367576
0.00441555
0.00514546
0.00579076
0.0062533
0.0065159
0.00636614
-0.000469213
-0.0005171
-0.000480335
-0.000417166
-0.000313826
-0.000167216
2.88377e-05
0.000282367
0.000602822
0.00100092
0.00148792
0.00207371
0.00276276
0.00355252
0.00441885
0.00530854
0.00612593
0.00672736
0.00707074
0.00682647
-0.000754921
-0.000808769
-0.000778968
-0.000727265
-0.000639019
-0.000510789
-0.000335402
-0.000103159
0.000198048
0.000583039
0.00106925
0.00167548
0.00241825
0.00330367
0.00432464
0.00542902
0.00649976
0.00732871
0.00781525
0.00741124
-0.00109779
-0.00115875
-0.00113773
-0.00110078
-0.00103261
-0.00092984
-0.000784761
-0.000586511
-0.000320811
3.09632e-05
0.00049252
0.00109303
0.00186458
0.00283317
0.00401565
0.00538171
0.00680949
0.00802004
0.00876647
0.00813944
-0.00149511
-0.0015645
-0.00155397
-0.0015352
-0.00149265
-0.00142362
-0.00132078
-0.00117325
-0.000965998
-0.000678285
-0.000281888
0.000261415
0.00100105
0.00199187
0.00328017
0.00488944
0.00676171
0.00861423
0.00982465
0.00907729
-0.0019435
-0.0020226
-0.00202365
-0.00202595
-0.00201423
-0.00198743
-0.00193985
-0.00186237
-0.00174184
-0.00155925
-0.00128722
-0.000886235
-0.000299862
0.000544606
0.00172575
0.00333128
0.0055325
0.00831406
0.0103633
0.0101782
-0.00243911
-0.00252908
-0.00254132
-0.00256592
-0.00258855
-0.00261097
-0.00263073
-0.00264277
-0.00263939
-0.00260912
-0.00253552
-0.00239582
-0.0021595
-0.00179376
-0.00127438
-0.000476813
0.00111498
0.00458662
0.00827211
0.0104752
-0.00297831
-0.00307931
-0.00309901
-0.00314385
-0.00320091
-0.00327598
-0.00337117
-0.00348786
-0.00362778
-0.00379408
-0.00399403
-0.0042459
-0.00459768
-0.00518022
-0.0062423
-0.00779834
-0.00850176
-0.00524254
0.000337534
0.00659797
-0.00356123
-0.00367434
-0.00369498
-0.00375371
-0.0038387
-0.00396188
-0.00413157
-0.00435756
-0.00465406
-0.00504526
-0.00557521
-0.00633021
-0.00748561
-0.00940905
-0.0127677
-0.0176224
-0.0220034
-0.0198194
-0.0130982
-0.0025603
-0.00418288
-0.00429616
-0.00429578
-0.00435134
-0.00445344
-0.00461758
-0.00485486
-0.00518163
-0.00562483
-0.00622894
-0.00707395
-0.00831128
-0.0102384
-0.0133973
-0.0187128
-0.0259775
-0.0335432
-0.0331685
-0.0270864
-0.0137879
-0.00487739
-0.00501105
-0.00497497
-0.00501779
-0.0051084
-0.00527796
-0.00554433
-0.00593159
-0.00647432
-0.00722772
-0.00828969
-0.00983504
-0.0122281
-0.0160114
-0.0222301
-0.0300827
-0.0390693
-0.0392006
-0.0350901
-0.0201108
-0.00573423
-0.00565892
-0.00550744
-0.00544575
-0.00550475
-0.00568725
-0.00599547
-0.00644106
-0.00705422
-0.00788756
-0.00904048
-0.0106645
-0.0131578
-0.0168178
-0.0229544
-0.029859
-0.0376257
-0.0372111
-0.0351153
-0.0164431
-0.00621363
-0.0066712
-0.006378
-0.00637936
-0.00633823
-0.00641366
-0.00661644
-0.00697619
-0.00752463
-0.00830014
-0.00939384
-0.0108964
-0.013209
-0.0164403
-0.0216138
-0.0269941
-0.0324311
-0.03114
-0.0272173
0.000169499
-0.00969775
-0.00715768
-0.00651132
-0.00590105
-0.00580687
-0.00595357
-0.00628093
-0.00674413
-0.00736045
-0.00813784
-0.00919022
-0.0105336
-0.0125576
-0.0152743
-0.0192563
-0.0228557
-0.0257404
-0.0218554
-0.0116897
0.0325184
-0.00619883
-0.00928085
-0.00828719
-0.00834943
-0.00789222
-0.00763243
-0.00753268
-0.00762615
-0.00795484
-0.00848188
-0.00931956
-0.010474
-0.0123502
-0.0148124
-0.0188323
-0.0219688
-0.0239303
-0.012307
0.0123007
0.0894661
-0.0315949
-0.00645589
-0.00503781
-0.00431233
-0.00410282
-0.00430079
-0.00477854
-0.00533014
-0.00607184
-0.00686483
-0.00801437
-0.00933669
-0.0112894
-0.013355
-0.0155451
-0.0143474
-0.0066672
0.0249005
0.0908261
0.222846
6.0671e-05
3.68057e-05
8.15871e-05
0.000168312
0.000304647
0.000491604
0.000731305
0.0010262
0.00137804
0.00178702
0.00225068
0.00276251
0.00331044
0.00387525
0.00442958
0.0049385
0.00536171
0.00565891
0.00582494
0.00578819
8.69617e-05
6.20636e-05
0.000112086
0.000199267
0.000333269
0.00051578
0.000749479
0.00103718
0.00138094
0.00178141
0.0022367
0.00274097
0.00328281
0.0038444
0.00439874
0.00491074
0.00533885
0.00564139
0.00581608
0.00577352
3.87346e-05
6.12076e-06
5.48059e-05
0.000138701
0.000268552
0.000446227
0.000674996
0.000958535
0.00130007
0.00170166
0.00216311
0.00268049
0.00324497
0.00383853
0.00443333
0.00499057
0.00546153
0.00579386
0.00598383
0.0059168
-6.34147e-05
-0.000101361
-5.5027e-05
2.41242e-05
0.000147964
0.000318738
0.000540611
0.000818541
0.0011575
0.00156185
0.00203418
0.00257359
0.0031738
0.00381984
0.00448275
0.00511821
0.00566497
0.00605158
0.00627072
0.00616905
-0.000227388
-0.000270193
-0.000227692
-0.000155059
-3.93162e-05
0.000122283
0.000335008
0.000605444
0.000940849
0.00134871
0.00183566
0.00240555
0.0030565
0.00377777
0.00454069
0.0052946
0.00596127
0.0064374
0.00670571
0.00654432
-0.000452226
-0.000500183
-0.000462993
-0.000399038
-0.00029431
-0.000145545
5.37092e-05
0.000311852
0.000638816
0.00104593
0.00154522
0.00214749
0.002858
0.0036736
0.00457067
0.00549368
0.00634201
0.0069632
0.00731437
0.00704631
-0.00073607
-0.000789996
-0.000759775
-0.000707283
-0.000617614
-0.00048714
-0.000308373
-7.11804e-05
0.000237124
0.000632126
0.00113225
0.00175741
0.00252517
0.00344383
0.00450545
0.00565612
0.00677244
0.00763167
0.00812899