/*--------------------------------*- C++ -*----------------------------------*\
  =========                 |
  \\      /  F ield         | OpenFOAM: The Open Source CFD Toolbox
   \\    /   O peration     | Website:  https://openfoam.org
    \\  /    A nd           | Version:  10
     \\/     M anipulation  |
\*---------------------------------------------------------------------------*/
FoamFile
{
    format      ascii;
    class       volVectorField;
    location    "6.025";
    object      U;
}
// * * * * * * * * * * * * * * * * * * * * * * * * * * * * * * * * * * * * * //

dimensions      [0 1 -1 0 0 0 0];

internalField   nonuniform List<vector> 
475
(
(0.974229 0.0159467 0)
(0.976195 0.006557 0)
(0.949943 0.0312933 0)
(0.955286 0.00103299 0)
(0.919804 0.03018 0)
(0.998509 0.00860982 0)
(1.01422 0.014734 0)
(1.02516 0.0154726 0)
(1.0435 0.00799339 0)
(1.05582 0.00213326 0)
(1.00007 -2.01732e-06 0)
(1.00954 -0.00286004 0)
(1.02455 -0.00444816 0)
(1.04073 -0.00963059 0)
(1.05674 -0.0144256 0)
(0.99978 -0.010171 0)
(1.01014 -0.019352 0)
(1.02259 -0.0221705 0)
(1.03531 -0.0228954 0)
(1.0447 -0.0261359 0)
(0.980476 -0.00951488 0)
(0.969526 -0.0192561 0)
(0.95319 -0.0219332 0)
(0.933875 -0.0220369 0)
(0.90713 -0.0234336 0)
(0.926119 -0.0167773 0)
(0.932419 -0.0344552 0)
(0.937062 -0.0453188 0)
(0.944237 -0.0538973 0)
(0.955797 -0.0619293 0)
(0.974855 -0.0766304 0)
(0.998022 -0.0977232 0)
(1.02349 -0.124736 0)
(1.04703 -0.156142 0)
(1.06799 -0.188849 0)
(1.08326 -0.221431 0)
(1.09028 -0.24979 0)
(1.08981 -0.270399 0)
(1.08047 -0.281442 0)
(1.06302 -0.281051 0)
(1.03743 -0.269126 0)
(1.00434 -0.249124 0)
(0.970595 -0.221267 0)
(0.937006 -0.185358 0)
(0.903302 -0.145927 0)
(0.872875 -0.105489 0)
(0.841203 -0.0654101 0)
(0.80857 -0.0294668 0)
(0.781086 0.000865892 0)
(0.760086 0.0248293 0)
(0.74248 0.0432027 0)
(0.725645 0.0586206 0)
(0.709098 0.0702832 0)
(0.693765 0.0754541 0)
(0.680503 0.0751062 0)
(0.669764 0.0742018 0)
(0.6618 0.0762487 0)
(0.656635 0.0801671 0)
(0.65367 0.0820647 0)
(0.651815 0.0790047 0)
(0.65002 0.0705887 0)
(0.647758 0.05855 0)
(0.645096 0.0451584 0)
(0.64243 0.032506 0)
(0.640126 0.02165 0)
(0.638319 0.0133364 0)
(0.637077 0.00725928 0)
(0.636214 0.00337075 0)
(0.635776 0.00100757 0)
(0.635344 -0.000325392 0)
(1.0686 -0.00907953 0)
(1.07771 -0.0208136 0)
(1.08351 -0.0325521 0)
(1.0861 -0.0435593 0)
(1.08927 -0.0558018 0)
(1.09309 -0.0729741 0)
(1.09679 -0.0948864 0)
(1.09785 -0.123276 0)
(1.09496 -0.153667 0)
(1.08721 -0.186056 0)
(1.07098 -0.216197 0)
(1.04824 -0.24062 0)
(1.01719 -0.255108 0)
(0.980474 -0.255766 0)
(0.936334 -0.247324 0)
(0.883912 -0.232172 0)
(0.828718 -0.208556 0)
(0.77442 -0.17414 0)
(0.723468 -0.135081 0)
(0.676121 -0.0969672 0)
(0.634665 -0.0600205 0)
(0.595986 -0.0252635 0)
(0.559842 0.00249545 0)
(0.530336 0.0227822 0)
(0.506213 0.0418824 0)
(0.486085 0.0621903 0)
(0.472052 0.0793209 0)
(0.466588 0.0881235 0)
(0.469342 0.0877023 0)
(0.477459 0.0821972 0)
(0.488152 0.0770568 0)
(0.500295 0.0750049 0)
(0.514031 0.0750026 0)
(0.529438 0.0740549 0)
(0.545854 0.0697773 0)
(0.562075 0.0615617 0)
(0.576957 0.0505349 0)
(0.589759 0.0384322 0)
(0.600167 0.0270628 0)
(0.608223 0.0173783 0)
(0.614128 0.0101046 0)
(0.618249 0.00488187 0)
(0.620973 0.00178069 0)
(0.622567 -0.000100495 0)
(0.623723 -0.00086866 0)
(1.0679 -0.0224601 0)
(1.07712 -0.0319051 0)
(1.08108 -0.0445274 0)
(1.08219 -0.0555316 0)
(1.08041 -0.0687281 0)
(1.0764 -0.0833604 0)
(1.07007 -0.101864 0)
(1.05861 -0.124056 0)
(1.04333 -0.148041 0)
(1.02046 -0.175493 0)
(0.991785 -0.197453 0)
(0.956297 -0.216631 0)
(0.910596 -0.219505 0)
(0.859913 -0.204942 0)
(0.791905 -0.190097 0)
(0.714256 -0.176648 0)
(0.639412 -0.158454 0)
(0.563824 -0.129746 0)
(0.494228 -0.0934348 0)
(0.433675 -0.0532715 0)
(0.384659 -0.0168509 0)
(0.347153 0.0128994 0)
(0.317143 0.0378426 0)
(0.294852 0.0577376 0)
(0.282748 0.071345 0)
(0.282156 0.0783678 0)
(0.292794 0.0792317 0)
(0.312056 0.0748467 0)
(0.335714 0.0672539 0)
(0.360044 0.0595406 0)
(0.383401 0.0542741 0)
(0.406179 0.0520645 0)
(0.429583 0.0514424 0)
(0.454199 0.0500529 0)
(0.479415 0.0462232 0)
(0.50376 0.0396357 0)
(0.525661 0.0312225 0)
(0.544 0.0223314 0)
(0.558269 0.0143212 0)
(0.56864 0.00783528 0)
(0.575517 0.00334867 0)
(0.579836 0.000383943 0)
(0.582076 -0.00096622 0)
(0.583311 -0.00176607 0)
(0.583482 -0.00153244 0)
(1.04942 -0.0299447 0)
(1.05204 -0.0361794 0)
(1.04718 -0.043554 0)
(1.04121 -0.0503453 0)
(1.0257 -0.0589741 0)
(1.00979 -0.0674934 0)
(0.983447 -0.0801641 0)
(0.952689 -0.0933035 0)
(0.911227 -0.110756 0)
(0.858804 -0.12844 0)
(0.799164 -0.144881 0)
(0.720925 -0.16079 0)
(0.642842 -0.152817 0)
(0.558859 -0.130434 0)
(0.429518 -0.101073 0)
(0.284077 -0.057933 0)
(0.176899 -0.0229281 0)
(0.104394 -0.0081072 0)
(0.0612854 0.000278028 0)
(0.0403354 0.0108197 0)
(0.0339613 0.0239048 0)
(0.0403073 0.036897 0)
(0.0570179 0.046579 0)
(0.0808317 0.0516426 0)
(0.109776 0.0525167 0)
(0.142528 0.0505516 0)
(0.177275 0.046823 0)
(0.211733 0.0419371 0)
(0.243988 0.0367227 0)
(0.273083 0.0321674 0)
(0.299436 0.0289277 0)
(0.324302 0.0268929 0)
(0.348747 0.0252473 0)
(0.372969 0.0230044 0)
(0.396196 0.0196095 0)
(0.417077 0.0151951 0)
(0.434399 0.0104307 0)
(0.447515 0.0060618 0)
(0.456484 0.00265229 0)
(0.461944 0.000322056 0)
(0.464662 -0.000989883 0)
(0.465632 -0.0016158 0)
(0.465317 -0.00161154 0)
(0.464922 -0.00155662 0)
(0.46359 -0.00102856 0)
(0.879944 -0.0236487 0)
(0.84836 -0.027086 0)
(0.814076 -0.0278824 0)
(0.776243 -0.0317766 0)
(0.730425 -0.033417 0)
(0.684019 -0.0378698 0)
(0.622217 -0.0429187 0)
(0.561525 -0.047844 0)
(0.477983 -0.059094 0)
(0.391732 -0.0622819 0)
(0.28431 -0.082747 0)
(0.145574 -0.0737425 0)
(0.0419923 -0.0141942 0)
(-0.0209414 0.0355147 0)
(-0.0498253 0.0559247 0)
(-0.0609421 0.0386523 0)
(-0.0680172 0.00402021 0)
(-0.0797986 -0.0195292 0)
(-0.0949317 -0.0253944 0)
(-0.105027 -0.0207108 0)
(-0.105186 -0.0117308 0)
(-0.094443 -0.00257378 0)
(-0.0744367 0.00414518 0)
(-0.0482702 0.00773562 0)
(-0.0192067 0.00913291 0)
(0.0103605 0.00920357 0)
(0.0386506 0.00857908 0)
(0.0644754 0.00761319 0)
(0.0873362 0.00652999 0)
(0.107275 0.00550255 0)
(0.12487 0.0046478 0)
(0.140858 0.00394413 0)
(0.155715 0.00329028 0)
(0.169377 0.00259614 0)
(0.181318 0.00183839 0)
(0.190919 0.00109228 0)
(0.197844 0.000468747 0)
(0.202167 2.96559e-05 0)
(0.204333 -0.000221462 0)
(0.204917 -0.000332166 0)
(0.20456 -0.000380776 0)
(0.203752 -0.000368212 0)
(0.202786 -0.000305841 0)
(0.201964 -0.000246382 0)
(0.200913 -0.000147525 0)
(0.00500608 -0.0320333 0)
(0.00662881 -0.0306306 0)
(-0.00734913 -0.00938356 0)
(-0.0519987 0.0244183 0)
(-0.127289 0.0425411 0)
(-0.204561 0.0435397 0)
(-0.270033 0.0377966 0)
(-0.320765 0.0302118 0)
(-0.353011 0.0217654 0)
(-0.366968 0.0125913 0)
(-0.363533 0.00268352 0)
(-0.342849 -0.00719023 0)
(-0.306466 -0.0162352 0)
(-0.256521 -0.0235291 0)
(-0.196107 -0.0289696 0)
(-0.129642 -0.0308941 0)
(-0.060988 -0.0311981 0)
(0.00718044 -0.0297489 0)
(0.0719451 -0.0265 0)
(0.130189 -0.0222731 0)
(0.17998 -0.0175027 0)
(0.220302 -0.0125393 0)
(0.251255 -0.00782201 0)
(0.273501 -0.00332603 0)
(0.286973 0.00239504 0)
(0.290921 0.0107993 0)
(0.285027 0.0197494 0)
(0.270378 0.0230619 0)
(0.250054 0.0188856 0)
(0.228 0.0105707 0)
(0.207749 0.00277657 0)
(0.191432 -0.00186709 0)
(0.179967 -0.00337871 0)
(0.173269 -0.00329368 0)
(0.170691 -0.00284736 0)
(0.171281 -0.00256477 0)
(0.174031 -0.00238969 0)
(0.177955 -0.00215668 0)
(0.182228 -0.00184961 0)
(0.186275 -0.00149513 0)
(0.18974 -0.00113239 0)
(0.192515 -0.000817887 0)
(0.194642 -0.000555722 0)
(0.196101 -0.000380061 0)
(0.197552 -0.000202904 0)
(-0.00514936 0.0226071 0)
(-0.0401301 0.0455703 0)
(-0.0964901 0.074127 0)
(-0.144139 0.0974095 0)
(-0.188609 0.102704 0)
(-0.219817 0.0929798 0)
(-0.241736 0.0736886 0)
(-0.250715 0.0510891 0)
(-0.247316 0.025386 0)
(-0.231172 -0.000975527 0)
(-0.201362 -0.0277739 0)
(-0.159058 -0.0529513 0)
(-0.103897 -0.0751085 0)
(-0.0393377 -0.0928338 0)
(0.0334023 -0.104122 0)
(0.110727 -0.109274 0)
(0.186491 -0.109212 0)
(0.259553 -0.104438 0)
(0.327697 -0.0955534 0)
(0.388113 -0.0836899 0)
(0.439648 -0.069822 0)
(0.481295 -0.0553958 0)
(0.512534 -0.0418247 0)
(0.534257 -0.0292551 0)
(0.547991 -0.017921 0)
(0.556429 -0.00820623 0)
(0.560805 0.00125196 0)
(0.562448 0.0115151 0)
(0.563108 0.0222576 0)
(0.560565 0.0311625 0)
(0.55065 0.0346339 0)
(0.531851 0.0309499 0)
(0.507346 0.022371 0)
(0.482783 0.0127086 0)
(0.462819 0.0045201 0)
(0.449522 -0.00137924 0)
(0.4428 -0.00500808 0)
(0.441039 -0.00671112 0)
(0.442285 -0.00692868 0)
(0.444995 -0.00631277 0)
(0.448162 -0.00521664 0)
(0.451036 -0.00411684 0)
(0.453699 -0.00297289 0)
(0.455363 -0.00226673 0)
(0.457591 -0.00130538 0)
(-0.0315485 0.00382329 0)
(-0.0617199 0.0545634 0)
(-0.0638749 0.082217 0)
(-0.0584651 0.103697 0)
(-0.0458502 0.107999 0)
(-0.0271606 0.0934288 0)
(-0.00612858 0.0669367 0)
(0.0170348 0.0363127 0)
(0.0469721 0.00389555 0)
(0.0850513 -0.0308734 0)
(0.133675 -0.0679725 0)
(0.189318 -0.103753 0)
(0.251088 -0.135567 0)
(0.317309 -0.161442 0)
(0.384562 -0.176593 0)
(0.450954 -0.182877 0)
(0.513635 -0.18142 0)
(0.571555 -0.172116 0)
(0.623544 -0.155744 0)
(0.6672 -0.135012 0)
(0.701448 -0.111689 0)
(0.726882 -0.0861075 0)
(0.743892 -0.0612032 0)
(0.752502 -0.0407487 0)
(0.754174 -0.0233874 0)
(0.750982 -0.00521493 0)
(0.743144 0.0112476 0)
(0.731811 0.0213143 0)
(0.720561 0.0250591 0)
(0.712845 0.0277513 0)
(0.707896 0.0337394 0)
(0.701249 0.0413399 0)
(0.6887 0.0448175 0)
(0.669409 0.0406896 0)
(0.646413 0.0301514 0)
(0.624236 0.0173173 0)
(0.606037 0.00608951 0)
(0.592984 -0.0017414 0)
(0.584693 -0.00594055 0)
(0.58002 -0.00745487 0)
(0.577931 -0.00720044 0)
(0.577199 -0.00638737 0)
(0.577522 -0.00496582 0)
(0.577802 -0.00412331 0)
(0.578922 -0.00255415 0)
(-0.0247201 0.138671 0)
(-0.0111387 0.0956017 0)
(0.0164249 0.0886541 0)
(0.0593974 0.0901667 0)
(0.110166 0.0853798 0)
(0.165647 0.0685427 0)
(0.222299 0.0420829 0)
(0.277515 0.00637013 0)
(0.334174 -0.035099 0)
(0.393545 -0.078921 0)
(0.455219 -0.123399 0)
(0.516958 -0.16396 0)
(0.578737 -0.198759 0)
(0.638383 -0.225595 0)
(0.693934 -0.240054 0)
(0.744541 -0.243321 0)
(0.788105 -0.237485 0)
(0.824043 -0.221576 0)
(0.853166 -0.197075 0)
(0.87534 -0.16648 0)
(0.889379 -0.132746 0)
(0.89565 -0.0992946 0)
(0.895912 -0.0671017 0)
(0.890805 -0.0384599 0)
(0.880878 -0.0154697 0)
(0.86759 0.00361234 0)
(0.852035 0.0202179 0)
(0.834892 0.0322478 0)
(0.816863 0.0377264 0)
(0.799981 0.0394217 0)
(0.786445 0.0427483 0)
(0.775669 0.0496771 0)
(0.764711 0.0564403 0)
(0.750888 0.057836 0)
(0.733152 0.0518243 0)
(0.712529 0.0402273 0)
(0.69136 0.0268795 0)
(0.672017 0.0149975 0)
(0.656109 0.0062848 0)
(0.64401 0.000740763 0)
(0.635421 -0.00209582 0)
(0.629739 -0.00346841 0)
(0.626258 -0.00344187 0)
(0.624359 -0.00342283 0)
(0.623182 -0.00241556 0)
(0.0828861 0.00101271 0)
(0.117361 -0.0058688 0)
(0.206577 -0.0057868 0)
(0.279092 -0.00715955 0)
(0.351778 -0.0131779 0)
(0.42939 -0.0292981 0)
(0.505221 -0.052611 0)
(0.5777 -0.0832437 0)
(0.647367 -0.119145 0)
(0.713912 -0.157052 0)
(0.775895 -0.197456 0)
(0.830361 -0.23353 0)
(0.878348 -0.260748 0)
(0.918095 -0.280384 0)
(0.94783 -0.287565 0)
(0.967589 -0.281898 0)
(0.978558 -0.268992 0)
(0.983444 -0.2464 0)
(0.981703 -0.213389 0)
(0.975281 -0.176225 0)
(0.965356 -0.136512 0)
(0.950663 -0.0952746 0)
(0.932748 -0.0576526 0)
(0.913224 -0.0264478 0)
(0.893857 -0.000583534 0)
(0.873812 0.0220568 0)
(0.852423 0.0418521 0)
(0.831422 0.0555876 0)
(0.812345 0.0604822 0)
(0.79528 0.0591092 0)
(0.780163 0.057929 0)
(0.767268 0.0610259 0)
(0.756078 0.0668236 0)
(0.744939 0.0702203 0)
(0.732238 0.0675232 0)
(0.717538 0.0587322 0)
(0.701587 0.0464856 0)
(0.685773 0.0336587 0)
(0.67152 0.0224018 0)
(0.659743 0.0134122 0)
(0.650744 0.00710882 0)
(0.644437 0.00280644 0)
(0.640128 0.000465535 0)
(0.637691 -0.000954866 0)
(0.635689 -0.00130559 0)
)
;

boundaryField
{
    inlet
    {
        type            fixedValue;
        value           uniform (1 0 0);
    }
    outlet
    {
        type            zeroGradient;
    }
    upperWall
    {
        type            noSlip;
    }
    lowerWall
    {
        type            noSlip;
    }
    frontAndBack
    {
        type            empty;
    }
}


// ************************************************************************* //
