/*--------------------------------*- C++ -*----------------------------------*\
  =========                 |
  \\      /  F ield         | OpenFOAM: The Open Source CFD Toolbox
   \\    /   O peration     | Website:  https://openfoam.org
    \\  /    A nd           | Version:  10
     \\/     M anipulation  |
\*---------------------------------------------------------------------------*/
FoamFile
{
    format      ascii;
    class       volScalarField;
    location    "6.7";
    object      p;
}
// * * * * * * * * * * * * * * * * * * * * * * * * * * * * * * * * * * * * * //

dimensions      [0 2 -2 0 0 0 0];

internalField   nonuniform List<scalar> 
496
(
30.4059
30.5533
27.3439
21.1447
31.0563
31.6736
27.7129
21.2717
36.0384
33.8189
25.6837
15.2953
43.5134
40.7977
37.2363
22.3459
12.4285
3.1006
12.3029
3.17281
0.483638
-4.81983
-27.6446
-52.7505
-4.21767
-8.97446
-11.532
-12.7405
-4.54815
-10.3148
-14.1147
-16.0234
0.694397
-1.22349
-7.1111
-11.9274
-22.7786
-7.74517
-11.6483
-15.084
-13.1835
-13.3353
-13.0902
-12.7909
-12.3083
-11.7969
-11.4354
-11.2596
-11.0803
-10.8009
-10.5476
-10.2316
-9.74206
-9.12289
-8.31111
-7.0573
-5.50548
-4.31517
-3.62617
-3.21622
-2.70052
-2.26895
-2.17209
-2.29269
-2.56673
-2.71953
-2.79858
-2.733
-2.45542
-2.13957
-1.74777
-1.42413
-0.748391
0.0015501
0.612071
0.877781
0.870473
0.755458
0.591084
0.297126
-16.4891
-15.854
-14.6938
-13.4438
-12.3098
-11.6116
-11.2245
-10.9488
-10.7336
-10.6307
-10.7779
-10.4402
-9.81632
-9.20701
-8.3541
-7.05164
-5.59918
-4.30736
-3.28383
-2.6597
-2.24701
-1.99033
-2.09614
-2.19992
-2.70706
-2.83632
-2.87397
-2.76633
-2.45297
-2.16096
-1.81922
-1.48658
-0.738463
0.0768089
0.743778
1.17918
1.16701
1.04021
0.768458
0.417726
-15.0641
-15.7656
-15.0079
-13.6828
-12.3782
-12.1326
-11.9623
-11.3682
-11.1863
-11.756
-11.6002
-11.1348
-10.6885
-10.0246
-8.6566
-6.84856
-5.2398
-4.00295
-3.16864
-2.38712
-1.74779
-2.02529
-2.56212
-3.20865
-3.33703
-3.44537
-3.5976
-3.22835
-2.85477
-2.25938
-1.9168
-1.22201
-0.428128
0.238739
0.956521
1.13414
1.29341
1.04814
0.836228
0.291695
-14.728
-16.0492
-13.9688
-12.8066
-12.7831
-10.9492
-9.70644
-9.78109
-10.893
-11.6921
-11.2178
-11.2248
-11.3573
-11.1009
-9.88356
-8.01417
-5.55031
-3.15529
-1.30163
-0.0829021
0.237523
-0.807452
-1.73698
-2.69484
-3.21263
-3.73477
-4.15398
-3.72345
-3.39374
-2.94302
-2.67156
-1.44226
-0.190533
1.09179
2.35124
2.91557
2.80694
2.15352
1.68725
0.623876
48.1088
49.7089
63.9383
76.3582
47.6395
49.2036
63.4038
75.6672
-25.0256
-26.1982
-21.5034
-18.138
-26.2124
-25.2272
-19.9518
-32.7784
-24.4087
-17.9313
-15.0007
-18.5427
-14.4019
-13.1159
-14.094
-11.9458
-11.2025
-10.6092
-10.2247
-10.9804
-11.028
-10.2056
-9.33639
-7.48994
-5.67814
-4.49131
-3.06347
-2.00869
-2.06921
-1.97754
-1.99875
-2.25967
-2.65497
-3.15302
-3.19619
-3.00478
-2.72877
-2.60942
-2.05798
-1.38684
-1.04762
-0.46022
0.19221
0.66676
0.747315
0.631471
0.610616
0.256401
-16.5035
-15.8566
-15.5822
-12.7551
-16.6473
-15.8199
-13.5089
-11.576
-12.6505
-11.8636
-9.6453
-8.74026
-7.73838
-7.45123
-7.1802
-6.15564
-5.83844
-6.10416
-5.62746
-4.7233
-4.06797
-3.56256
-2.60592
-1.59708
-1.41664
-1.33597
-0.793812
-0.424728
-0.981634
-1.27094
-0.998413
-0.798264
-1.16998
-1.55263
-1.44212
-1.84186
-2.36515
-2.09763
-1.46028
-0.485996
42.7996
39.8292
35.9163
20.129
35.1384
32.7647
24.0932
13.4013
30.0968
30.4472
26.1854
19.7402
29.2633
29.3121
25.9368
19.4934
-32.0556
-58.2042
-2.08792
-6.60249
10.7005
1.71046
10.8456
1.57353
-28.6427
-11.7984
-3.47052
-4.24477
0.433895
0.272142
-3.92128
-10.3647
-5.76779
-11.1677
-14.1065
-15.134
-5.29541
-9.45707
-11.3027
-11.9956
-10.5121
-14.752
-16.2911
-15.9625
-14.1845
-14.6331
-15.1889
-14.3826
-12.9635
-11.0695
-8.78225
-6.94922
-6.05027
-5.3052
-5.59476
-6.14585
-6.58155
-7.20747
-7.08502
-6.37338
-5.36016
-3.88908
-2.45359
-0.902919
0.443655
1.16769
0.958993
0.666328
0.604696
-0.100412
-0.513597
-0.941797
-1.20509
-2.13025
-2.55087
-2.87032
-3.03649
-2.6883
-2.26859
-0.684741
-15.5676
-18.2816
-18.4546
-16.642
-14.4822
-13.732
-13.4535
-12.6532
-11.7221
-10.5627
-9.24442
-7.84852
-7.09578
-6.70353
-6.4748
-6.63349
-6.65912
-6.4806
-6.26661
-5.4746
-4.42167
-3.37804
-2.48898
-1.76181
-1.26114
-0.520352
0.000418002
-0.150284
-0.11793
-0.278712
-0.670517
-1.06864
-1.16686
-1.27785
-1.90109
-2.19819
-2.1933
-1.84785
-1.10491
-0.1809
-15.3554
-15.2659
-14.9381
-14.376
-13.7373
-13.1699
-12.6992
-12.104
-11.3856
-10.4911
-9.3223
-8.05252
-7.19902
-6.94411
-6.77351
-6.41199
-6.15984
-5.73168
-5.32984
-4.84104
-4.20205
-3.60464
-2.89753
-2.21866
-1.43498
-0.777938
-0.26879
-0.0111633
-0.102546
-0.198077
-0.41184
-0.424852
-0.618109
-0.689655
-0.899048
-1.0798
-1.2229
-1.19965
-0.99315
-0.609417
-12.5511
-13.1407
-13.7546
-14.114
-13.9873
-13.4928
-12.9948
-12.504
-11.6359
-10.4426
-9.13732
-8.15743
-7.5796
-7.34383
-7.09484
-6.59991
-6.06879
-5.56722
-5.18914
-4.82081
-4.24842
-3.56198
-2.90563
-2.3566
-1.68575
-1.06537
-0.49466
-0.134136
-0.172752
-0.29604
-0.44744
-0.482016
-0.519577
-0.601403
-0.781048
-1.05284
-1.20785
-1.15096
-0.793534
-0.320374
)
;

boundaryField
{
    inlet
    {
        type            zeroGradient;
    }
    outlet
    {
        type            fixedValue;
        value           uniform 0;
    }
    obstacle
    {
        type            zeroGradient;
    }
    upperWall
    {
        type            zeroGradient;
    }
    lowerWall
    {
        type            zeroGradient;
    }
    frontAndBack
    {
        type            empty;
    }
}


// ************************************************************************* //
