/*--------------------------------*- C++ -*----------------------------------*\
  =========                 |
  \\      /  F ield         | OpenFOAM: The Open Source CFD Toolbox
   \\    /   O peration     | Website:  https://openfoam.org
    \\  /    A nd           | Version:  10
     \\/     M anipulation  |
\*---------------------------------------------------------------------------*/
FoamFile
{
    format      ascii;
    class       volScalarField;
    location    "0.025";
    object      p;
}
// * * * * * * * * * * * * * * * * * * * * * * * * * * * * * * * * * * * * * //

dimensions      [0 2 -2 0 0 0 0];

internalField   nonuniform List<scalar> 
400
(
-7.04465e-11
0.000107999
0.000322243
0.000637217
0.00104484
0.00153478
0.00209471
0.00271074
0.00336772
0.00404963
0.00473989
0.0054218
0.0060788
0.00669485
0.0072548
0.00774476
0.00815241
0.0084674
0.00868166
0.00878966
-0.000107941
2.83343e-06
0.000222555
0.00054552
0.000963386
0.00146549
0.00203919
0.00267021
0.00334306
0.00404134
0.00474817
0.00544646
0.00611932
0.00675037
0.00732409
0.00782622
0.00824411
0.00856709
0.00878683
0.00889761
-0.000327674
-0.000211223
1.96975e-05
0.000358983
0.000797743
0.00132466
0.00192637
0.00258788
0.00329296
0.00402452
0.00476497
0.00549654
0.00620164
0.00686318
0.00746491
0.00799186
0.00843065
0.00876996
0.00900089
0.00911735
-0.000664944
-0.000539705
-0.000291466
7.30229e-05
0.000543984
0.00110906
0.00175377
0.002462
0.0032164
0.00399883
0.00479064
0.00557308
0.0063275
0.00703576
0.00768051
0.00824562
0.00871661
0.00908113
0.00932939
0.00945464
-0.00112862
-0.000991139
-0.000718814
-0.000319356
0.000196155
0.000813854
0.00151768
0.00228995
0.00311182
0.00396373
0.0048257
0.00567762
0.00649952
0.00727183
0.0079757
0.00859345
0.009109
0.0095085
0.00978085
0.00991834
-0.00173104
-0.00157736
-0.00127322
-0.00082773
-0.000253821
0.000432548
0.00121318
0.00206831
0.00297722
0.00391858
0.0048708
0.00581218
0.00672112
0.0075763
0.00835699
0.00904342
0.00961739
0.0100629
0.0103671
0.0105208
-0.00248856
-0.00231396
-0.00196889
-0.00146446
-0.000816218
-4.2994e-05
0.00083417
0.00179291
0.00281016
0.00386258
0.00492673
0.00597918
0.00699647
0.00795527
0.00883251
0.00960581
0.0102541
0.0107586
0.0111038
0.0112784
-0.00342226
-0.00322095
-0.00282382
-0.00224494
-0.00150356
-0.000622462
0.000373595
0.00145898
0.00260792
0.00379483
0.00499438
0.00618132
0.00733032
0.00841578
0.00941194
0.0102931
0.0110346
0.0116136
0.0120108
0.0122121
-0.00455907
-0.00432362
-0.00386039
-0.00318784
-0.00233061
-0.00131689
-0.000176322
0.00106148
0.00236769
0.00371444
0.00507463
0.00642142
0.00772771
0.00896562
0.0101063
0.0111202
0.0119776
0.0126502
0.0131136
0.0133491
-0.0059334
-0.0056539
-0.00510613
-0.00431536
-0.00331414
-0.0021382
-0.000823515
0.000595546
0.00208689
0.00362061
0.00516829
0.00670206
0.0081935
0.0096127
0.0109276
0.0121037
0.0131051
0.0138961
0.014444
0.0147235
-0.0075896
-0.00725216
-0.00659469
-0.00565332
-0.00447244
-0.00309835
-0.00157516
5.72611e-05
0.00176368
0.0035128
0.00527586
0.00702504
0.00873159
0.0103642
0.0118876
0.013262
0.0144431
0.0153847
0.0160424
0.0163799
-0.0095859
-0.00917004
-0.00836698
-0.00723085
-0.00582409
-0.00420775
-0.00243617
-0.000555116
0.00139772
0.003391
0.00539735
0.00739071
0.0093437
0.011225
0.0129969
0.0146135
0.0160207
0.0171571
0.0179605
0.0183765
-0.012001
-0.0114745
-0.0104722
-0.00907921
-0.00738561
-0.00547265
-0.00340684
-0.00123944
0.000991212
0.00325611
0.00553184
0.00779683
0.0100277
0.0121953
0.0142615
0.0161749
0.0178691
0.0192626
0.0202652
0.020792
-0.0149453
-0.0142536
-0.0129683
-0.0112287
-0.00916703
-0.00689086
-0.00447948
-0.00198725
0.000550305
0.00311033
0.00567711
0.00823723
0.010775
0.0132676
0.0156794
0.0179562
0.0200186
0.0217589
0.0230448
0.0237369
-0.0185826
-0.0176249
-0.0159198
-0.0137017
-0.011164
-0.00844514
-0.00563358
-0.0027808
8.6715e-05
0.00295772
0.00582908
0.0087002
0.0115679
0.0144211
0.0172332
0.0199528
0.0224914
0.0247106
0.0264167
0.0273751
-0.0231724
-0.0217438
-0.019388
-0.0164972
-0.0133445
-0.0100936
-0.00682987
-0.00358962
-0.000380656
0.00280465
0.00598138
0.0091668
0.012376
0.0156166
0.018881
0.0221327
0.0252865
0.0281788
0.0305363
0.0319662
-0.0291608
-0.0268015
-0.0234011
-0.0195616
-0.0156277
-0.0117574
-0.008004
-0.00436786
-0.000824727
0.00266006
0.00612509
0.00960995
0.0131533
0.0167897
0.0205437
0.0244149
0.0283503
0.0321918
0.0355947
0.0379567
-0.0373859
-0.0329706
-0.0278832
-0.0227367
-0.017855
-0.0133078
-0.00906251
-0.00505385
-0.00121078
0.00253512
0.00624906
0.00999498
0.0138381
0.0178469
0.0220925
0.0266406
0.0315238
0.0366727
0.0417638
0.0461841
-0.0489745
-0.0401517
-0.0324982
-0.025678
-0.0197589
-0.0145602
-0.00988573
-0.00557455
-0.00149969
0.00244215
0.00634103
0.0102828
0.0143575
0.0186686
0.023343
0.028542
0.0344619
0.0412845
0.048942
0.0577811
-0.074952
-0.0488921
-0.0366212
-0.0277881
-0.0209536
-0.0152878
-0.010344
-0.00585766
-0.00165485
0.00239245
0.00639008
0.0104372
0.0146398
0.0191258
0.0240693
0.0297351
0.0365709
0.0454106
0.0576914
0.0837696
)
;

boundaryField
{
    movingWall
    {
        type            zeroGradient;
    }
    fixedWalls
    {
        type            zeroGradient;
    }
    frontAndBack
    {
        type            empty;
    }
}


// ************************************************************************* //
