/*--------------------------------*- C++ -*----------------------------------*\
  =========                 |
  \\      /  F ield         | OpenFOAM: The Open Source CFD Toolbox
   \\    /   O peration     | Website:  https://openfoam.org
    \\  /    A nd           | Version:  10
     \\/     M anipulation  |
\*---------------------------------------------------------------------------*/
FoamFile
{
    format      ascii;
    class       surfaceScalarField;
    location    "8.575";
    object      phi;
}
// * * * * * * * * * * * * * * * * * * * * * * * * * * * * * * * * * * * * * //

dimensions      [0 3 -1 0 0 0 0];

internalField   nonuniform List<scalar> 
760
(
-1.28721e-05
1.28722e-05
-4.14897e-05
2.86176e-05
-7.5941e-05
3.44512e-05
-0.000112311
3.63704e-05
-0.000149393
3.70815e-05
-0.000186855
3.74619e-05
-0.000224364
3.7509e-05
-0.000261242
3.68783e-05
-0.000296304
3.50619e-05
-0.000327723
3.14193e-05
-0.000352935
2.5212e-05
-0.000368613
1.56776e-05
-0.00037082
2.20751e-06
-0.000355372
-1.54487e-05
-0.000319008
-3.63638e-05
-0.000260908
-5.80994e-05
-0.000184939
-7.59698e-05
-0.000101776
-8.31626e-05
-2.99377e-05
-7.18384e-05
-2.99377e-05
-3.08727e-05
4.37449e-05
-8.70716e-05
8.48165e-05
-0.000152764
0.000100144
-0.000221462
0.000105069
-0.000290688
0.000106307
-0.00035929
0.000106064
-0.000426194
0.000104413
-0.000489885
0.000100569
-0.000548147
9.33245e-05
-0.000597888
8.11597e-05
-0.000635025
6.23496e-05
-0.000654411
3.50635e-05
-0.00065076
-1.44362e-06
-0.000617805
-4.84035e-05
-0.000551318
-0.000102851
-0.000450619
-0.000158799
-0.000321906
-0.000204682
-0.000181881
-0.000223188
-5.9198e-05
-0.000194522
-8.91357e-05
-3.9153e-05
8.28979e-05
-0.000108333
0.000153997
-0.000188333
0.000180144
-0.000271387
0.000188123
-0.000354557
0.000189477
-0.000436456
0.000187963
-0.000515833
0.00018379
-0.000591012
0.000175747
-0.000659605
0.000161918
-0.000718288
0.000139843
-0.00076261
0.000106672
-0.000787072
5.95261e-05
-0.000784758
-3.75848e-06
-0.000748185
-8.49764e-05
-0.000671021
-0.000180015
-0.000550721
-0.000279099
-0.000393375
-0.000362028
-0.000219855
-0.000396708
-6.89805e-05
-0.000345396
-0.000158116
-4.23382e-05
0.000125236
-0.000117169
0.000228828
-0.000203446
0.00026642
-0.000292862
0.000277539
-0.000382474
0.000279088
-0.000471056
0.000276545
-0.000557595
0.000270329
-0.000640712
0.000258865
-0.000718345
0.00023955
-0.000787429
0.000208927
-0.000843529
0.000162771
-0.000880462
9.64594e-05
-0.000890431
6.21013e-06
-0.000862776
-0.000112631
-0.000786816
-0.000255974
-0.000654788
-0.000411127
-0.000469313
-0.000547504
-0.000256179
-0.000609842
-7.29227e-05
-0.000528652
-0.000231039
-4.31533e-05
0.000168389
-0.00012027
0.000305945
-0.0002094
0.000355549
-0.00030204
0.00037018
-0.000395454
0.000372503
-0.00048882
0.000369911
-0.000581657
0.000363167
-0.000673238
0.000350446
-0.000762221
0.000328532
-0.000846222
0.000292928
-0.000921212
0.000237762
-0.000980687
0.000155935
-0.00101473
4.02503e-05
-0.00100983
-0.000117524
-0.000947597
-0.000318212
-0.00081013
-0.000548593
-0.00058987
-0.000767764
-0.000313812
-0.0008859
-7.71077e-05
-0.000765356
-0.000308147
-4.29585e-05
0.000211348
-0.000120919
0.000383906
-0.000211515
0.000446145
-0.000306171
0.000464836
-0.000402459
0.00046879
-0.000500117
0.000467569
-0.000599435
0.000462485
-0.000700665
0.000451676
-0.000803642
0.000431509
-0.000907263
0.000396549
-0.00100866
0.000339163
-0.00110192
0.000249192
-0.0011761
0.000114431
-0.00121447
-7.9156e-05
-0.00118917
-0.000343514
-0.00106409
-0.000673672
-0.000805082
-0.00102677
-0.00042586
-0.00126512
-9.07253e-05
-0.00110049
-0.000398872
-4.22637e-05
0.000253612
-0.000120369
0.000462011
-0.000211711
0.000537487
-0.000307652
0.000560777
-0.000406099
0.000567237
-0.000507452
0.000568922
-0.000612975
0.000568007
-0.000724237
0.000562939
-0.000842813
0.000550085
-0.000969778
0.000523514
-0.00110481
0.000474191
-0.00124463
0.000389016
-0.00138034
0.000250145
-0.00149611
3.66129e-05
-0.0015537
-0.000285932
-0.00148636
-0.000741011
-0.00119899
-0.00131414
-0.000662138
-0.00180197
-0.000145326
-0.0016173
-0.000544198
-4.1205e-05
0.000294817
-0.000118962
0.000539768
-0.000210409
0.000628934
-0.000306763
0.000657131
-0.000406236
0.00066671
-0.000509917
0.000672603
-0.000620159
0.00067825
-0.000740172
0.000682952
-0.000873896
0.000683809
-0.00102577
0.00067539
-0.00120017
0.000648594
-0.00140022
0.000589057
-0.0016256
0.000475532
-0.0018648
0.000275806
-0.00208273
-6.79929e-05
-0.00214808
-0.000675665
-0.00185706
-0.00160516
-0.00112471
-0.00253432
-0.000322491
-0.00241952
-0.000866689
-3.98549e-05
0.000334672
-0.000116842
0.000616756
-0.000207658
0.000719749
-0.00030321
0.000752683
-0.00040192
0.00076542
-0.000505499
0.000776181
-0.00061737
0.00079012
-0.000742448
0.00080803
-0.000887421
0.000828783
-0.00106121
0.000849181
-0.00127546
0.000862841
-0.00154495
0.00085855
-0.00188693
0.000817511
-0.00230684
0.000695715
-0.00274229
0.000367459
-0.00299284
-0.000425116
-0.00272276
-0.00187525
-0.00186137
-0.00339571
-0.00074356
-0.00353733
-0.00161025
-3.84012e-05
0.000373073
-0.00011437
0.000692724
-0.000203767
0.000809146
-0.000296982
0.000845898
-0.000392468
0.000860907
-0.000492384
0.000876098
-0.000600991
0.000898727
-0.000724651
0.00093169
-0.000872602
0.000976734
-0.00105839
0.00103497
-0.0013022
0.00110665
-0.00163364
0.00118999
-0.0020888
0.00127268
-0.00268102
0.00128793
-0.00330365
0.000990091
-0.00366054
-6.82225e-05
-0.00347526
-0.00206053
-0.00271167
-0.0041593
-0.00140333
-0.00484567
-0.00301358
-3.72678e-05
0.000410341
-0.000112383
0.000767839
-0.000199703
0.000896467
-0.000288876
0.000935071
-0.000378173
0.000950204
-0.00046991
0.000967834
-0.000568688
0.000997505
-0.000681507
0.00104451
-0.000818957
0.00111418
-0.00099745
0.00121346
-0.00124281
0.00135201
-0.001593
0.00154018
-0.00208663
0.0017663
-0.00271372
0.00191502
-0.00333172
0.00160809
-0.00367785
0.000277909
-0.0036158
-0.00212257
-0.00311598
-0.00465913
-0.00189971
-0.00606193
-0.0049133
-3.7328e-05
0.000447669
-0.000112577
0.000843089
-0.000197491
0.00098138
-0.000280872
0.00101845
-0.00036079
0.00103012
-0.000439398
0.00104644
-0.0005209
0.00107901
-0.00061154
0.00113515
-0.000720711
0.00122335
-0.000862798
0.00135555
-0.00105945
0.00154867
-0.00133866
0.00181938
-0.00171942
0.00214707
-0.00216642
0.00236202
-0.00257417
0.00201583
-0.00281212
0.000515859
-0.00287462
-0.00206007
-0.00268845
-0.0048453
-0.00182348
-0.00692691
-0.00673677
-3.96942e-05
0.000487363
-0.00011716
0.000920554
-0.00020013
0.00106435
-0.000276567
0.00109489
-0.000344237
0.00109779
-0.000404936
0.00110714
-0.000461917
0.00113599
-0.000519113
0.00119234
-0.000581856
0.0012861
-0.000657327
0.00143102
-0.000754486
0.00164583
-0.00087963
0.00194452
-0.00103154
0.00229898
-0.00118019
0.00251068
-0.00131242
0.00214806
-0.00141694
0.000620378
-0.00157478
-0.00190223
-0.00173902
-0.00468106
-0.00137169
-0.00729424
-0.00810846
-4.82264e-05
0.000535589
-0.000132298
0.00100463
-0.000213272
0.00114532
-0.00028016
0.00116178
-0.000332545
0.00115018
-0.00037219
0.00114679
-0.000400404
0.0011642
-0.000418284
0.00121022
-0.000426196
0.00129401
-0.000422816
0.00142764
-0.000403737
0.00162675
-0.000356007
0.00189679
-0.000267173
0.00221014
-0.000141258
0.00238476
-3.868e-05
0.00204549
-6.99386e-05
0.000651637
-0.000333335
-0.00163883
-0.000843867
-0.00417053
-0.0009226
-0.00721551
-0.00903106
-5.9403e-05
0.000594992
-0.000154102
0.00109932
-0.000238074
0.0012293
-0.000300665
0.00122437
-0.000339153
0.00118866
-0.000356183
0.00116382
-0.000353216
0.00116124
-0.000329582
0.00118659
-0.000281888
0.00124632
-0.000202497
0.00134825
-7.75722e-05
0.00150183
0.000111942
0.00170728
0.000383117
0.00193897
0.000716355
0.00205152
0.000991054
0.00177079
0.000990847
0.000651844
0.000595514
-0.0012435
-0.000176573
-0.00339844
-0.000567732
-0.00682435
-0.00959879
-0.000127108
0.0007221
-0.000236163
0.00120838
-0.000304242
0.00129738
-0.000339526
0.00125965
-0.000351503
0.00120064
-0.000343379
0.00115569
-0.000313262
0.00113112
-0.000256309
0.00112964
-0.000165385
0.00115539
-2.94681e-05
0.00121233
0.000165513
0.00130684
0.000438182
0.00143461
0.000802267
0.00157488
0.00122668
0.00162711
0.00157942
0.00141804
0.00161054
0.000620731
0.00116702
-0.000799978
0.00028372
-0.00251514
-0.000278183
-0.00626244
-0.00987698
-8.20222e-05
0.000804122
-0.00025679
0.00138315
-0.000364455
0.00140504
-0.000412369
0.00130757
-0.000417458
0.00120573
-0.00039004
0.00112827
-0.000332466
0.00107354
-0.000241749
0.00103892
-0.000111813
0.00102546
6.8889e-05
0.00103163
0.000311405
0.00106433
0.000630482
0.00111553
0.00102775
0.00117761
0.00147135
0.00118351
0.0018409
0.00104849
0.00189026
0.000571369
0.00146394
-0.000373657
0.000649338
-0.00170054
9.51646e-05
-0.00570827
-0.00978181
-0.00037802
0.00118214
-0.000432619
0.00143775
-0.00047666
0.00144908
-0.000508751
0.00133966
-0.000493221
0.0011902
-0.00043617
0.00107122
-0.000340986
0.000978361
-0.000205628
0.000903562
-3.0376e-05
0.000850204
0.000191412
0.00080984
0.00046415
0.000791591
0.000796722
0.000782962
0.0011815
0.000792834
0.00158157
0.000783443
0.00193115
0.000698913
0.00204943
0.000453094
0.00191245
-0.000236686
0.00152127
-0.00130935
0.000852947
-0.00503995
-0.00892887
-0.00136285
0.00254499
-0.00132467
0.00139958
-0.00106339
0.0011878
-0.00068967
0.000965938
-0.000295782
0.000796312
0.00010223
0.000673212
0.000493532
0.000587059
0.000877607
0.000519487
0.00125647
0.000471343
0.00163581
0.000430501
0.00202277
0.000404624
0.00242275
0.000382985
0.00284964
0.000365945
0.00329115
0.000341936
0.00372484
0.000265219
0.00404606
0.000131872
0.00412943
-0.000320056
0.00396965
-0.00114957
0.00251643
-0.00358673
-0.00641244
0.00254499
0.00394456
0.00513236
0.0060983
0.00689461
0.00756782
0.00815488
0.00867437
0.00914571
0.00957621
0.00998083
0.0103638
0.0107298
0.0110717
0.0113369
0.0114688
0.0111487
0.00999917
0.00641244
)
;

boundaryField
{
    movingWall
    {
        type            calculated;
        value           uniform 0;
    }
    fixedWalls
    {
        type            calculated;
        value           uniform 0;
    }
    frontAndBack
    {
        type            empty;
        value           nonuniform List<scalar> 0();
    }
}


// ************************************************************************* //
