/*--------------------------------*- C++ -*----------------------------------*\
  =========                 |
  \\      /  F ield         | OpenFOAM: The Open Source CFD Toolbox
   \\    /   O peration     | Website:  https://openfoam.org
    \\  /    A nd           | Version:  10
     \\/     M anipulation  |
\*---------------------------------------------------------------------------*/
FoamFile
{
    format      ascii;
    class       surfaceScalarField;
    location    "3.5";
    object      phi;
}
// * * * * * * * * * * * * * * * * * * * * * * * * * * * * * * * * * * * * * //

dimensions      [0 3 -1 0 0 0 0];

internalField   nonuniform List<scalar> 
760
(
-1.02021e-05
1.02021e-05
-3.03137e-05
2.01116e-05
-5.2137e-05
2.18233e-05
-7.33299e-05
2.11929e-05
-9.31665e-05
1.98366e-05
-0.000111192
1.80259e-05
-0.00012697
1.57777e-05
-0.000140046
1.30764e-05
-0.000149956
9.90949e-06
-0.000156232
6.27556e-06
-0.000158421
2.18903e-06
-0.000156107
-2.31318e-06
-0.000148965
-7.14212e-06
-0.000136806
-1.21592e-05
-0.000119638
-1.71679e-05
-9.77346e-05
-2.19036e-05
-7.17467e-05
-2.59879e-05
-4.30576e-05
-2.86891e-05
-1.53492e-05
-2.77083e-05
-1.53492e-05
-2.07885e-05
3.09906e-05
-5.53747e-05
5.46978e-05
-9.20753e-05
5.85239e-05
-0.000127462
5.65797e-05
-0.000160304
5.26784e-05
-0.00018979
4.75115e-05
-0.000215183
4.1171e-05
-0.000235773
3.36667e-05
-0.000250873
2.50092e-05
-0.000259823
1.5226e-05
-0.000262016
4.38142e-06
-0.000256955
-7.37413e-06
-0.000244222
-1.98752e-05
-0.000223651
-3.273e-05
-0.00019536
-4.54588e-05
-0.000159851
-5.74131e-05
-0.000118165
-6.76731e-05
-7.24047e-05
-7.44498e-05
-2.77699e-05
-7.23432e-05
-4.31191e-05
-2.39881e-05
5.49787e-05
-6.32063e-05
9.3916e-05
-0.000104599
9.99162e-05
-0.000144406
9.63872e-05
-0.000181295
8.95677e-05
-0.000214384
8.05999e-05
-0.000242872
6.9659e-05
-0.000265992
5.67871e-05
-0.000283005
4.20217e-05
-0.000293205
2.54267e-05
-0.000295954
7.12998e-06
-0.000290568
-1.276e-05
-0.000276619
-3.38245e-05
-0.000253852
-5.54968e-05
-0.000222301
-7.70094e-05
-0.000182427
-9.72869e-05
-0.000135314
-0.000114787
-8.32729e-05
-0.000126491
-3.21787e-05
-0.000123437
-7.52978e-05
-2.55027e-05
8.04815e-05
-6.73019e-05
0.000135715
-0.000111378
0.000143993
-0.000153785
0.000138794
-0.000193161
0.000128943
-0.000228612
0.000116051
-0.00025933
0.000100376
-0.000284529
8.19861e-05
-0.000303438
6.0931e-05
-0.000315297
3.72861e-05
-0.000319377
1.12092e-05
-0.000314914
-1.72224e-05
-0.000301228
-4.75105e-05
-0.000277851
-7.88746e-05
-0.000244603
-0.000110256
-0.000201769
-0.000140122
-0.000150355
-0.0001662
-9.28668e-05
-0.000183979
-3.59467e-05
-0.000180358
-0.000111244
-2.71118e-05
0.000107593
-7.17401e-05
0.000180343
-0.000118821
0.000191073
-0.000164186
0.00018416
-0.000206448
0.000171205
-0.000244716
0.000154319
-0.000278184
0.000133845
-0.000306064
0.000109866
-0.000327556
8.24232e-05
-0.000341836
5.15666e-05
-0.000348047
1.74199e-05
-0.000345271
-1.99981e-05
-0.000332543
-6.02385e-05
-0.000309044
-0.000102374
-0.000274191
-0.00014511
-0.000227899
-0.000186414
-0.00017099
-0.000223108
-0.000106189
-0.00024878
-4.12622e-05
-0.000245285
-0.000152507
-2.91828e-05
0.000136776
-7.74016e-05
0.000228562
-0.000128294
0.000241965
-0.000177409
0.000233275
-0.000223325
0.000217122
-0.000265168
0.000196162
-0.000302152
0.000170829
-0.0003335
0.000141214
-0.000358404
0.000107327
-0.00037598
6.91429e-05
-0.000385243
2.6683e-05
-0.000385079
-2.0162e-05
-0.000374123
-7.11949e-05
-0.000351065
-0.000125431
-0.0003147
-0.000181475
-0.000264288
-0.000236826
-0.00020021
-0.000287186
-0.000125351
-0.00032364
-4.90751e-05
-0.00032156
-0.000201582
-3.17928e-05
0.000168569
-8.44858e-05
0.000281255
-0.000140096
0.000297575
-0.000193818
0.000286997
-0.000244201
0.000267505
-0.000290404
0.000242364
-0.000331691
0.000212116
-0.000367334
0.000176858
-0.000396549
0.000136541
-0.000418426
9.102e-05
-0.000431864
4.01212e-05
-0.00043556
-1.64664e-05
-0.000427641
-7.91134e-05
-0.000406136
-0.000146936
-0.000368902
-0.00021871
-0.000314088
-0.00029164
-0.000241123
-0.000360151
-0.000152775
-0.000411987
-6.05994e-05
-0.000413736
-0.000262181
-3.49863e-05
0.000203555
-9.31103e-05
0.000339379
-0.000154385
0.00035885
-0.000213579
0.00034619
-0.00026922
0.000323146
-0.00032053
0.000293675
-0.000366873
0.000258458
-0.000407622
0.000217608
-0.000442086
0.000171005
-0.000469395
0.00011833
-0.00048839
5.91164e-05
-0.000497621
-7.23555e-06
-0.000494671
-8.2064e-05
-0.000476715
-0.000164892
-0.00044027
-0.000255155
-0.00038168
-0.00035023
-0.000298441
-0.00044339
-0.000192445
-0.000517983
-7.80732e-05
-0.000528108
-0.000340254
-3.88348e-05
0.00024239
-0.000103441
0.000403986
-0.000171372
0.000426781
-0.000236889
0.000411708
-0.000298522
0.000384779
-0.000355605
0.000350759
-0.00040766
0.000310513
-0.000454251
0.000264198
-0.000494875
0.000211628
-0.000528824
0.000152279
-0.000554997
8.52892e-05
-0.000571944
9.71176e-06
-0.000576758
-7.72502e-05
-0.00056565
-0.000176
-0.000533346
-0.000287459
-0.000473398
-0.000410179
-0.000379711
-0.000537077
-0.000251409
-0.000646285
-0.000106025
-0.000673492
-0.00044628
-4.34686e-05
0.000285858
-0.000115752
0.000476269
-0.000191385
0.000502413
-0.000264047
0.00048437
-0.000332308
0.000453039
-0.000395681
0.000414132
-0.000453934
0.000368765
-0.000506925
0.00031719
-0.000554486
0.00025919
-0.000596261
0.000194054
-0.000631483
0.000120512
-0.000658539
3.67671e-05
-0.000675041
-6.07482e-05
-0.000675912
-0.000175129
-0.000653812
-0.000309559
-0.000598323
-0.000465668
-0.00049718
-0.000638219
-0.000342854
-0.000800611
-0.000154357
-0.000861989
-0.000600637
-4.9124e-05
0.000334983
-0.000130505
0.00055765
-0.000214956
0.000586864
-0.000295521
0.000564935
-0.000370886
0.000528404
-0.000440838
0.000484084
-0.000505491
0.000433419
-0.000565126
0.000376825
-0.000620071
0.000314135
-0.000670546
0.000244528
-0.000716414
0.00016638
-0.000756724
7.70773e-05
-0.000789683
-2.77891e-05
-0.000809887
-0.000154925
-0.000808138
-0.000311308
-0.000769107
-0.000504699
-0.000670887
-0.000736439
-0.000492885
-0.000978613
-0.000246483
-0.00110839
-0.00084712
-5.6235e-05
0.000391218
-0.000148477
0.000649892
-0.000242934
0.000681321
-0.000332039
0.00065404
-0.000414743
0.000611109
-0.000491231
0.000560571
-0.00056208
0.000504268
-0.000628118
0.000442863
-0.000690338
0.000376355
-0.000749809
0.000303999
-0.000807493
0.000224064
-0.000863799
0.000133384
-0.00091842
2.6832e-05
-0.000967673
-0.000105673
-0.00100213
-0.000276846
-0.00100224
-0.000504592
-0.000933491
-0.00080519
-0.000752658
-0.00115945
-0.00043838
-0.00142267
-0.0012855
-6.56375e-05
0.000456855
-0.000170991
0.000755246
-0.000276655
0.000786985
-0.000374716
0.000752102
-0.00046464
0.000701032
-0.000547172
0.000643104
-0.000623471
0.000580566
-0.000695
0.000514393
-0.000763534
0.000444888
-0.000831199
0.000371664
-0.000900515
0.00029338
-0.000974232
0.0002071
-0.0010549
0.000107501
-0.00114466
-1.59084e-05
-0.00123712
-0.000184396
-0.00131499
-0.00042672
-0.00133226
-0.000787919
-0.00120493
-0.00128678
-0.00082303
-0.00180457
-0.00210853
-7.90227e-05
0.000535878
-0.000200545
0.000876768
-0.000318274
0.000904714
-0.000425157
0.000858984
-0.000521667
0.000797542
-0.000609225
0.000730662
-0.000689596
0.000660937
-0.000764907
0.000589704
-0.000837724
0.000517705
-0.000911309
0.000445249
-0.000990101
0.000372172
-0.00108015
0.000297152
-0.00118909
0.000216434
-0.00132568
0.000120685
-0.00149946
-1.06118e-05
-0.00170831
-0.000217874
-0.00190226
-0.000593964
-0.00191616
-0.00127288
-0.00144471
-0.00227602
-0.00355324
-9.6397e-05
0.000632275
-0.000238202
0.00101857
-0.000369991
0.0010365
-0.000486275
0.000975269
-0.000588236
0.000899503
-0.000678714
0.00082114
-0.000760719
0.000742942
-0.000837033
0.000666019
-0.000910605
0.000591277
-0.000985103
0.000519747
-0.00106609
0.000453161
-0.00116269
0.000393754
-0.0012904
0.000344145
-0.00147282
0.000303103
-0.00174139
0.000257954
-0.00211514
0.000155878
-0.0025517
-0.000157401
-0.00269363
-0.00113095
-0.00199001
-0.00297964
-0.00554325
-0.000154728
0.000787002
-0.000310064
0.00117391
-0.000442419
0.00116886
-0.000556613
0.00108946
-0.000658792
0.00100168
-0.000750565
0.000912913
-0.000833413
0.00082579
-0.000908939
0.000741545
-0.000979767
0.000662105
-0.00104949
0.000589473
-0.00112456
0.000528232
-0.00121501
0.000484199
-0.00134022
0.00046936
-0.0015322
0.000495084
-0.00184062
0.000566367
-0.00227865
0.000593907
-0.00279108
0.000355034
-0.00290919
-0.00101284
-0.0019425
-0.00394632
-0.00748576
-0.00011421
0.000901212
-0.000338076
0.00139778
-0.000516497
0.00134728
-0.000656345
0.00122931
-0.000764861
0.0011102
-0.000849735
0.000997787
-0.000917959
0.000894014
-0.000974354
0.00079794
-0.00102289
0.000710642
-0.00106534
0.000631921
-0.0011055
0.000568396
-0.00114842
0.000527116
-0.00120798
0.000528915
-0.0013063
0.000593407
-0.00149487
0.00075494
-0.00176095
0.000859981
-0.00212988
0.00072397
-0.00218192
-0.000960812
-0.00133875
-0.00478949
-0.0088245
-0.000395975
0.00129719
-0.000529659
0.00153146
-0.000648332
0.00146595
-0.000754138
0.00133512
-0.000816462
0.00117252
-0.000846489
0.00102781
-0.000854956
0.000902481
-0.000847583
0.000790567
-0.000831508
0.000694567
-0.000806499
0.000606913
-0.000778057
0.000539954
-0.000740652
0.000489711
-0.00069586
0.000484123
-0.000624508
0.000522056
-0.000521261
0.000651693
-0.00037721
0.00071593
-0.000137669
0.00048443
-0.00015112
-0.000947361
2.98954e-05
-0.00497051
-0.00879461
-0.00129779
0.00259498
-0.00122843
0.0014621
-0.000984584
0.00122211
-0.00064615
0.000996682
-0.000293697
0.000820069
4.7805e-05
0.000686312
0.000364005
0.000586281
0.000652845
0.000501726
0.000912933
0.00043448
0.00114558
0.00037427
0.00136249
0.000323043
0.00156097
0.000291225
0.00178589
0.000259209
0.00204304
0.000264902
0.00244464
0.000250092
0.00296511
0.000195464
0.00352206
-7.25189e-05
0.00361277
-0.00103808
0.00230669
-0.00366442
-0.00648792
0.00259498
0.00405707
0.00527918
0.00627586
0.00709593
0.00778225
0.00836853
0.00887025
0.00930473
0.009679
0.010002
0.0102933
0.0105525
0.0108174
0.0110675
0.0112629
0.0111904
0.0101523
0.00648792
)
;

boundaryField
{
    movingWall
    {
        type            calculated;
        value           uniform 0;
    }
    fixedWalls
    {
        type            calculated;
        value           uniform 0;
    }
    frontAndBack
    {
        type            empty;
        value           nonuniform List<scalar> 0();
    }
}


// ************************************************************************* //
