/*--------------------------------*- C++ -*----------------------------------*\
  =========                 |
  \\      /  F ield         | OpenFOAM: The Open Source CFD Toolbox
   \\    /   O peration     | Website:  https://openfoam.org
    \\  /    A nd           | Version:  10
     \\/     M anipulation  |
\*---------------------------------------------------------------------------*/
FoamFile
{
    format      ascii;
    class       surfaceScalarField;
    location    "2.1";
    object      phi;
}
// * * * * * * * * * * * * * * * * * * * * * * * * * * * * * * * * * * * * * //

dimensions      [0 3 -1 0 0 0 0];

internalField   nonuniform List<scalar> 
760
(
-1.39404e-05
1.39404e-05
-3.46018e-05
2.06615e-05
-5.53892e-05
2.07874e-05
-7.49581e-05
1.95688e-05
-9.27689e-05
1.78108e-05
-0.00010839
1.56214e-05
-0.000121433
1.30422e-05
-0.000131547
1.01143e-05
-0.00013843
6.88332e-06
-0.000141831
3.40118e-06
-0.000141558
-2.7297e-07
-0.000137486
-4.07208e-06
-0.000129583
-7.90298e-06
-0.000117921
-1.16625e-05
-0.000102691
-1.52294e-05
-8.42253e-05
-1.84661e-05
-6.30087e-05
-2.12166e-05
-3.97703e-05
-2.32385e-05
-1.62377e-05
-2.35326e-05
-1.62377e-05
-2.13238e-05
3.52641e-05
-5.1019e-05
5.03567e-05
-8.07193e-05
5.04878e-05
-0.000108618
4.74677e-05
-0.000133929
4.31219e-05
-0.000156031
3.77226e-05
-0.000174375
3.13863e-05
-0.000188485
2.42244e-05
-0.000197957
1.6356e-05
-0.000202462
7.9057e-06
-0.000201786
-9.49266e-07
-0.000195751
-1.01063e-05
-0.000184353
-1.93015e-05
-0.00016771
-2.83049e-05
-0.000146106
-3.68339e-05
-0.000120008
-4.45644e-05
-9.00978e-05
-5.11265e-05
-5.73918e-05
-5.59445e-05
-2.41719e-05
-5.67526e-05
-4.04095e-05
-2.3174e-05
5.84381e-05
-5.53355e-05
8.25181e-05
-8.74445e-05
8.25968e-05
-0.000117578
7.76017e-05
-0.000144906
7.04494e-05
-0.000168769
6.15853e-05
-0.00018859
5.12077e-05
-0.00020387
3.9504e-05
-0.000214184
2.66703e-05
-0.000219197
1.29188e-05
-0.000218633
-1.51382e-06
-0.000212307
-1.64317e-05
-0.000200193
-3.14158e-05
-0.000182381
-4.61166e-05
-0.000159135
-6.00796e-05
-0.000130924
-7.27755e-05
-9.8459e-05
-8.35918e-05
-6.28291e-05
-9.15744e-05
-2.65175e-05
-9.30641e-05
-6.69271e-05
-2.46523e-05
8.30905e-05
-5.89238e-05
0.00011679
-9.31186e-05
0.000116792
-0.000125205
0.000109688
-0.000154317
9.95612e-05
-0.000179774
8.70426e-05
-0.000200985
7.24187e-05
-0.000217436
5.5955e-05
-0.000228688
3.79217e-05
-0.000234373
1.86045e-05
-0.000234212
-1.67499e-06
-0.000227933
-2.27115e-05
-0.000215453
-4.38951e-05
-0.000196806
-6.47633e-05
-0.000172193
-8.46928e-05
-0.000142042
-0.000102927
-0.000107069
-0.000118565
-6.84432e-05
-0.0001302
-2.89054e-05
-0.000132602
-9.58325e-05
-2.66235e-05
0.000109714
-6.36844e-05
0.000153851
-0.000100642
0.000153749
-0.000135313
0.000144359
-0.000166784
0.000131032
-0.00019435
0.000114609
-0.000217407
9.5476e-05
-0.000235432
7.398e-05
-0.000247971
5.04603e-05
-0.000254629
2.52632e-05
-0.000255093
-1.21119e-06
-0.000248998
-2.88065e-05
-0.000236174
-5.67192e-05
-0.000216545
-8.43928e-05
-0.000190204
-0.000111033
-0.000157498
-0.000135633
-0.000119123
-0.00015694
-7.6351e-05
-0.000172971
-3.22988e-05
-0.000176654
-0.000128131
-2.92287e-05
0.000138943
-6.99513e-05
0.000194573
-0.00011052
0.000194318
-0.000148549
0.000182388
-0.000183065
0.000165548
-0.000213343
0.000144886
-0.000238771
0.000120904
-0.000258828
9.40366e-05
-0.000273052
6.46843e-05
-0.00028102
3.32311e-05
-0.000282407
1.75855e-07
-0.000276686
-3.45272e-05
-0.00026359
-6.98152e-05
-0.000242869
-0.000105114
-0.000214438
-0.000139464
-0.000178487
-0.000171584
-0.000135639
-0.000199788
-8.72728e-05
-0.000221338
-3.70248e-05
-0.000226902
-0.000165156
-3.25492e-05
0.000171492
-7.79165e-05
0.00023994
-0.000123032
0.000239434
-0.000165252
0.000224607
-0.000203536
0.000203833
-0.000237144
0.000178494
-0.000265477
0.000149237
-0.000288036
0.000116596
-0.000304379
8.10271e-05
-0.000314081
4.29328e-05
-0.000316693
2.78782e-06
-0.000311699
-3.95207e-05
-0.000298568
-8.29466e-05
-0.000276811
-0.000126871
-0.00024606
-0.000170215
-0.000206224
-0.00021142
-0.000157739
-0.000248274
-0.000102049
-0.000277028
-4.34867e-05
-0.000285464
-0.000208643
-3.66921e-05
0.000208184
-8.78254e-05
0.000291074
-0.000138527
0.000290136
-0.00018583
0.00027191
-0.000228625
0.000246628
-0.000266177
0.000216045
-0.000297932
0.000180993
-0.000323456
0.00014212
-0.000342359
9.99298e-05
-0.000354235
5.48088e-05
-0.00035859
7.14326e-06
-0.000354813
-4.32983e-05
-0.000342113
-9.56466e-05
-0.00031965
-0.000149334
-0.000286605
-0.00020326
-0.0002424
-0.000255624
-0.000187063
-0.000303612
-0.000121962
-0.000342129
-5.23351e-05
-0.000355091
-0.000260978
-4.18154e-05
0.000249999
-0.000100028
0.000349286
-0.000157487
0.000347595
-0.000210829
0.000325252
-0.000258883
0.000294682
-0.000300957
0.000258119
-0.000336602
0.000216637
-0.000365506
0.000171025
-0.000387399
0.000121823
-0.00040195
6.93589e-05
-0.000408667
1.3861e-05
-0.000406837
-4.51288e-05
-0.000395375
-0.000107108
-0.00037297
-0.000171739
-0.000338116
-0.000238113
-0.000289413
-0.000304328
-0.000226076
-0.000366948
-0.000149044
-0.000419161
-6.46775e-05
-0.000439457
-0.000325655
-4.81591e-05
0.000298159
-0.000115032
0.000416159
-0.000180591
0.000413154
-0.000240989
0.00038565
-0.000295023
0.000348717
-0.000342113
0.000305208
-0.000381999
0.000256524
-0.000414597
0.000203622
-0.000439848
0.000147075
-0.000457587
8.70979e-05
-0.000467401
2.36744e-05
-0.00046853
-4.39996e-05
-0.000459576
-0.000116062
-0.000438643
-0.000192673
-0.000403256
-0.0002735
-0.000350657
-0.000356926
-0.000278542
-0.000439064
-0.000186616
-0.000511087
-8.25072e-05
-0.000543566
-0.000408163
-5.61015e-05
0.00035426
-0.000133599
0.000493657
-0.000208814
0.000488368
-0.000277328
0.000454165
-0.00033798
0.000409368
-0.000390409
0.000357638
-0.000434686
0.0003008
-0.000471089
0.000240025
-0.000499915
0.000175901
-0.000521299
0.000108482
-0.000535029
3.74038e-05
-0.000540431
-3.85969e-05
-0.000535845
-0.000120648
-0.000518733
-0.000209784
-0.000485365
-0.000306869
-0.00043092
-0.000411371
-0.000350297
-0.000519687
-0.00024031
-0.000621074
-0.000109652
-0.000674224
-0.000517815
-6.62643e-05
0.000420524
-0.000156893
0.000584286
-0.000243579
0.000575054
-0.00032127
0.000531856
-0.000388992
0.000477091
-0.000446795
0.00041544
-0.000495266
0.000349272
-0.000535246
0.000280005
-0.000567576
0.000208231
-0.000592878
0.000133784
-0.000611335
5.5861e-05
-0.000622585
-2.73468e-05
-0.000624904
-0.000118329
-0.000615228
-0.00021946
-0.000588396
-0.000333701
-0.000536762
-0.000463005
-0.000450512
-0.000605937
-0.000320071
-0.000751514
-0.000154022
-0.000840273
-0.000671837
-7.97277e-05
0.000500252
-0.000186738
0.000691296
-0.000286996
0.000675313
-0.000374819
0.000619678
-0.00044973
0.000552002
-0.000512458
0.000478168
-0.00056439
0.000401204
-0.000607181
0.000322796
-0.000642462
0.000243511
-0.000671576
0.000162899
-0.000695364
7.96486e-05
-0.000714127
-8.58392e-06
-0.000726522
-0.000105934
-0.000729423
-0.000216559
-0.000716493
-0.000346631
-0.000676775
-0.000502722
-0.00059352
-0.000689193
-0.000444206
-0.000900828
-0.000233694
-0.00105078
-0.000905531
-9.85203e-05
0.000598772
-0.000226204
0.000818979
-0.000342279
0.000791388
-0.000440832
0.000718231
-0.000522447
0.000633618
-0.000588902
0.000544623
-0.00064276
0.000455061
-0.000686809
0.000366845
-0.00072374
0.000280442
-0.00075591
0.000195069
-0.000785129
0.000108867
-0.00081262
1.89072e-05
-0.000838579
-7.99743e-05
-0.00086067
-0.000194468
-0.0008727
-0.000334602
-0.00086106
-0.000514363
-0.000800895
-0.000749358
-0.000646272
-0.00105545
-0.000387582
-0.00130947
-0.00129311
-0.000124354
0.000723127
-0.000278707
0.000973331
-0.000413635
0.000926316
-0.000523187
0.000827784
-0.000610129
0.000720559
-0.000677995
0.000612489
-0.000731116
0.000508183
-0.000773778
0.000409508
-0.000809989
0.000316653
-0.00084336
0.00022844
-0.000876934
0.000142441
-0.000913515
5.54884e-05
-0.000955877
-3.76118e-05
-0.00100405
-0.000146292
-0.00105559
-0.000283063
-0.00109689
-0.00047306
-0.00110011
-0.000746144
-0.000976003
-0.00117956
-0.000683288
-0.00160219
-0.0019764
-0.000180661
0.000903788
-0.000360976
0.00115365
-0.000510906
0.00107625
-0.000627773
0.000944651
-0.000716529
0.000809315
-0.000781783
0.000677744
-0.000829836
0.000556236
-0.000866853
0.000446524
-0.000898478
0.000348277
-0.000929743
0.000259706
-0.000965625
0.000178323
-0.00101048
0.00010034
-0.00106759
1.95018e-05
-0.00114566
-6.82194e-05
-0.00125009
-0.000178636
-0.00137279
-0.00035036
-0.00149788
-0.000621054
-0.0014743
-0.00120314
-0.00116952
-0.00190696
-0.00314592
-0.000190984
0.00109477
-0.000441445
0.00140411
-0.000629999
0.0012648
-0.000760653
0.00107531
-0.000846751
0.000895413
-0.000899881
0.000730873
-0.000932797
0.000589152
-0.00095506
0.000468788
-0.000973838
0.000367055
-0.000994497
0.000280365
-0.00102198
0.000205808
-0.00106207
0.000140425
-0.00112632
8.37583e-05
-0.00122578
3.12371e-05
-0.00138568
-1.87325e-05
-0.0016036
-0.000132446
-0.00190046
-0.000324191
-0.00199415
-0.00110945
-0.00160151
-0.00229961
-0.00474743
-0.000488162
0.00158293
-0.000679015
0.00159496
-0.000814276
0.00140006
-0.000903365
0.00116439
-0.000939771
0.000931819
-0.000944208
0.00073531
-0.000932608
0.000577552
-0.000915155
0.000451335
-0.000899352
0.000351251
-0.000891112
0.000272125
-0.000897241
0.000211937
-0.000922684
0.000165869
-0.000979064
0.000140138
-0.00107131
0.000123483
-0.00122713
0.000137084
-0.00142758
6.80106e-05
-0.00166037
-9.1399e-05
-0.00174325
-0.00102657
-0.00119472
-0.00284814
-0.00594215
-0.00119031
0.00277325
-0.00109552
0.00150017
-0.000871924
0.00117647
-0.000598313
0.000890784
-0.000328434
0.00066194
-8.58259e-05
0.000492702
0.000120485
0.000371241
0.000288905
0.000282915
0.000422347
0.000217809
0.000526261
0.00016821
0.000604756
0.000133442
0.000665311
0.000105314
0.000715566
8.98824e-05
0.000758008
8.10421e-05
0.000832861
6.22307e-05
0.000868223
3.26484e-05
0.00100132
-0.000224499
0.000872322
-0.000897569
0.000688472
-0.00266429
-0.00525368
0.00277325
0.00427341
0.00544988
0.00634066
0.0070026
0.0074953
0.00786654
0.00814946
0.00836727
0.00853548
0.00866892
0.00877424
0.00886412
0.00894516
0.00900739
0.00904004
0.00881554
0.00791797
0.00525368
)
;

boundaryField
{
    movingWall
    {
        type            calculated;
        value           uniform 0;
    }
    fixedWalls
    {
        type            calculated;
        value           uniform 0;
    }
    frontAndBack
    {
        type            empty;
        value           nonuniform List<scalar> 0();
    }
}


// ************************************************************************* //
