/*--------------------------------*- C++ -*----------------------------------*\
  =========                 |
  \\      /  F ield         | OpenFOAM: The Open Source CFD Toolbox
   \\    /   O peration     | Website:  https://openfoam.org
    \\  /    A nd           | Version:  10
     \\/     M anipulation  |
\*---------------------------------------------------------------------------*/
FoamFile
{
    format      ascii;
    class       volScalarField;
    location    "4.825";
    object      p;
}
// * * * * * * * * * * * * * * * * * * * * * * * * * * * * * * * * * * * * * //

dimensions      [0 2 -2 0 0 0 0];

internalField   nonuniform List<scalar> 
8000
(
1.05758e-08
-1.48858e-05
1.59009e-05
7.7046e-05
0.000173542
0.000306004
0.000475051
0.000680916
0.000922833
0.0011989
0.00150523
0.00183559
0.00218079
0.00252813
0.00286243
0.00316581
0.00341931
0.00360486
0.0037185
0.00372537
3.19475e-06
-8.80136e-06
2.40545e-05
8.43778e-05
0.000178711
0.000308078
0.000473419
0.000675269
0.000913256
0.00118569
0.00148904
0.0018171
0.00216082
0.00250906
0.00284564
0.0031525
0.0034101
0.0035997
0.00371812
0.00372406
-4.20817e-05
-5.63051e-05
-2.42382e-05
3.40616e-05
0.000125911
0.000252608
0.000415508
0.000615692
0.000853426
0.0011277
0.00143566
0.00177211
0.00212881
0.00249342
0.00284978
0.00317822
0.00345679
0.00366329
0.00379334
0.00379724
-0.000124763
-0.000141289
-0.000110904
-5.56256e-05
3.26463e-05
0.000155573
0.000315142
0.000513244
0.000751134
0.00102898
0.00134516
0.00169543
0.00207215
0.00246434
0.00285437
0.00322021
0.00353562
0.00377239
0.00392358
0.00392825
-0.000251419
-0.000270718
-0.00024293
-0.000191735
-0.000108181
9.83006e-06
0.000165076
0.000360526
0.000598795
0.000881646
0.00120927
0.00157926
0.00198509
0.00241696
0.00285607
0.00327753
0.00364944
0.00393424
0.00411949
0.00412779
-0.000423407
-0.000446115
-0.000421862
-0.000376105
-0.000298954
-0.00018784
-3.907e-05
0.000151617
0.000388545
0.000675623
0.00101555
0.00140875
0.00185201
0.00233372
0.00283881
0.00333801
0.00379181
0.00414925
0.00438734
0.00440448
-0.00064183
-0.000668724
-0.000649074
-0.000610506
-0.000542146
-0.000440985
-0.000302372
-0.000120605
0.000110646
0.000397968
0.000747419
0.00116319
0.00164558
0.00218847
0.00277711
0.00337979
0.00394845
0.00441394
0.00473394
0.00477156
-0.000907916
-0.00093989
-0.000926029
-0.000896777
-0.000840298
-0.000753303
-0.000630267
-0.000464041
-0.000246122
3.31795e-05
0.000384145
0.000816334
0.00133599
0.00194302
0.00263079
0.00336483
0.00409021
0.00471537
0.00516362
0.00524901
-0.00122309
-0.00126107
-0.00125413
-0.00123651
-0.00119553
-0.00112797
-0.0010277
-0.000886355
-0.000693365
-0.000435788
-9.84601e-05
0.000335298
0.000881733
0.0015521
0.00233909
0.00322722
0.00415886
0.00501812
0.00566889
0.00586768
-0.00158923
-0.00163404
-0.00163477
-0.00163084
-0.00160911
-0.0015669
-0.00149806
-0.00139357
-0.00124135
-0.00102567
-0.000726739
-0.000320542
0.000220087
0.000921054
0.00180196
0.00285359
0.00404122
0.00523592
0.00621018
0.00666659
-0.00200933
-0.0020614
-0.00206948
-0.00208037
-0.00208095
-0.00206987
-0.00204181
-0.00198804
-0.00189618
-0.00174915
-0.00152395
-0.00119036
-0.000710015
-3.7137e-05
0.000872876
0.00204812
0.00352046
0.00516996
0.00666333
0.00768269
-0.00248872
-0.0025475
-0.00256047
-0.00258517
-0.00260923
-0.00263364
-0.00265496
-0.00266606
-0.00265606
-0.00260916
-0.00250282
-0.0023049
-0.00196994
-0.00143485
-0.000618006
0.000584741
0.00219818
0.004375
0.00663025
0.00883529
-0.00303774
-0.00310029
-0.00311172
-0.00314507
-0.00318997
-0.00325098
-0.00332766
-0.00341572
-0.00350802
-0.00359371
-0.00365644
-0.00367121
-0.00359979
-0.00338112
-0.00291868
-0.00205288
-0.000492654
0.00196744
0.00515136
0.00957739
-0.00367526
-0.00373031
-0.00372487
-0.0037549
-0.00381357
-0.00390878
-0.00404237
-0.00421411
-0.00442293
-0.00466685
-0.00494266
-0.0052442
-0.00556088
-0.00586745
-0.00611376
-0.00614403
-0.00554506
-0.00321095
0.00105481
0.00919307
-0.00444318
-0.0044855
-0.00444831
-0.0044614
-0.00451307
-0.00462099
-0.00479409
-0.00503879
-0.00536222
-0.00577463
-0.00629251
-0.00694019
-0.00776049
-0.0087998
-0.0101129
-0.0115391
-0.0126212
-0.0104907
-0.00486637
0.00768212
-0.00549321
-0.00530953
-0.00515546
-0.0050735
-0.00509552
-0.00522417
-0.00545491
-0.00578686
-0.00622889
-0.00680002
-0.00754054
-0.00850951
-0.00982059
-0.0115782
-0.014008
-0.0167946
-0.019959
-0.0186438
-0.01336
0.00463784
-0.00646359
-0.00658282
-0.00630428
-0.00621439
-0.00614369
-0.00618313
-0.00634754
-0.00665192
-0.00711475
-0.0077572
-0.0086376
-0.00982705
-0.0115191
-0.0137958
-0.0172842
-0.0211671
-0.0277292
-0.028828
-0.0242591
0.00304974
-0.01031
-0.00749903
-0.00691662
-0.0062978
-0.00612392
-0.00619344
-0.00645852
-0.00688064
-0.00746476
-0.00821085
-0.00921734
-0.0105119
-0.0124052
-0.0148908
-0.0189081
-0.0234909
-0.0317145
-0.0331098
-0.0267064
0.0154785
-0.0100845
-0.0109473
-0.00956591
-0.00914772
-0.00850835
-0.00813058
-0.00798598
-0.00808733
-0.00844042
-0.0090179
-0.00989898
-0.0110899
-0.0129204
-0.01531
-0.0193929
-0.0238716
-0.031221
-0.0274178
-0.0116643
0.0576154
-0.0344834
-0.00910665
-0.00760663
-0.00625053
-0.00559509
-0.00558458
-0.00593814
-0.00643786
-0.00713839
-0.00795278
-0.00911247
-0.010438
-0.0124541
-0.0145663
-0.0175713
-0.0184363
-0.0169808
0.00359784
0.0486837
0.16033
-1.63214e-06
-2.28346e-05
7.52959e-06
6.82623e-05
0.000165185
0.00029854
0.000468812
0.00067627
0.000920411
0.00119917
0.00150868
0.0018426
0.00219172
0.00254361
0.00288256
0.00319029
0.00344697
0.003633
0.00374469
0.00373766
1.51998e-05
-5.54709e-06
2.73305e-05
8.71288e-05
0.000181274
0.000310565
0.000475894
0.000677853
0.000916157
0.00118919
0.00149348
0.00182294
0.00216876
0.00251906
0.00285808
0.00316741
0.00342676
0.0036162
0.00373344
0.00372443
-2.56963e-05
-5.08603e-05
-1.90057e-05
3.85513e-05
0.000130077
0.000256556
0.000419295
0.000619425
0.000857304
0.00113204
0.00144086
0.00177868
0.00213736
0.0025044
0.00286359
0.00319503
0.00347583
0.0036823
0.00381111
0.00379703
-0.00010521
-0.000133804
-0.000103664
-4.92362e-05
3.86185e-05
0.000161211
0.000320482
0.000518413
0.000756372
0.00103462
0.00135166
0.00170342
0.00208258
0.0024776
0.00287113
0.00324072
0.00355903
0.00379601
0.00394588
0.00392958
-0.000229634
-0.000261942
-0.000234369
-0.000184041
-0.000100887
1.68179e-05
0.00017181
0.00036716
0.000605607
0.000889071
0.00121791
0.00158989
0.00199888
0.0024344
0.0028783
0.00330502
0.0036812
0.00396672
0.00415043
0.00413416
-0.000399531
-0.000436248
-0.000412131
-0.000367193
-0.000290357
-0.000179438
-3.07767e-05
0.000160003
0.000397364
0.000685395
0.001027
0.00142272
0.00186914
0.00235748
0.00286968
0.00337675
0.00383733
0.00419668
0.00443304
0.00442106
-0.000615588
-0.000657648
-0.000638009
-0.000600184
-0.000532026
-0.000430919
-0.000292224
-0.000110104
0.00012194
0.00041072
0.000762591
0.00118204
0.00166963
0.00222163
0.00282087
0.00343593
0.00401611
0.00448667
0.00480505
0.00480849
-0.000878855
-0.000927372
-0.000913367
-0.000884776
-0.000828389
-0.000741306
-0.000617985
-0.000451108
-0.000231958
4.94627e-05
0.000403884
0.000841262
0.00136698
0.00198976
0.00269315
0.00344752
0.0041935
0.00483138
0.00527986
0.00532863
-0.00119061
-0.00124678
-0.00123953
-0.0012225
-0.00118154
-0.00111379
-0.00101306
-0.000870777
-0.000676084
-0.000415609
-7.34701e-05
0.000368281
0.000928918
0.00161026
0.00242559
0.00334965
0.00431938
0.0052088
0.00586913
0.00604136
-0.00155254
-0.00161752
-0.00161775
-0.00161443
-0.00159272
-0.00155031
-0.00148093
-0.00137529
-0.00122094
-0.0010016
-0.0006965
-0.000280041
0.000276907
0.00100122
0.00192161
0.00303403
0.00429153
0.00555476
0.00657116
0.00706919
-0.00196727
-0.00204198
-0.00204939
-0.00206099
-0.00206175
-0.00205064
-0.00202215
-0.00196723
-0.00187302
-0.00172171
-0.00148906
-0.00114256
-0.00063976
7.22469e-05
0.00103541
0.00231121
0.00390109
0.00569632
0.00732536
0.00865436
-0.00243942
-0.00252405
-0.00253617
-0.00256191
-0.00258658
-0.00261144
-0.00263276
-0.00264304
-0.00263086
-0.00257951
-0.00246483
-0.00225184
-0.00188979
-0.00130698
-0.000413568
0.000887996
0.00272475
0.0051535
0.0077796
0.0109011
-0.00297796
-0.00307141
-0.00308209
-0.00311727
-0.00316343
-0.00322553
-0.00330287
-0.00339092
-0.00348185
-0.00356379
-0.00361862
-0.00361837
-0.00351952
-0.00325334
-0.00271847
-0.00176428
-8.72703e-05
0.00272882
0.00632198
0.0125317
-0.00359666
-0.00368824
-0.00368095
-0.00371422
-0.0037768
-0.00387612
-0.00401314
-0.00418701
-0.00439623
-0.00463791
-0.00490731
-0.00519606
-0.00549148
-0.00577463
-0.00603184
-0.00620283
-0.00585801
-0.00389105
-0.000476687
0.0101379
-0.00433551
-0.00443782
-0.00439986
-0.0044213
-0.00447809
-0.00459031
-0.00476688
-0.00501444
-0.0053395
-0.00575143
-0.00626647
-0.00690889
-0.0077258
-0.00880077
-0.0103179
-0.0124341
-0.0149484
-0.0145557
-0.0117769
0.00337992
-0.00530964
-0.0051914
-0.00504601
-0.00497801
-0.00501837
-0.00516354
-0.0054084
-0.00575165
-0.00620144
-0.00677659
-0.0075167
-0.00848382
-0.00980573
-0.0116558
-0.0144776
-0.0185121
-0.0243071
-0.0262925
-0.0254916
-0.00532596
-0.00608538
-0.00643182
-0.00616158
-0.00613
-0.00608707
-0.00615051
-0.00633295
-0.0066519
-0.00711799
-0.00775948
-0.00863145
-0.00980515
-0.0114887
-0.0138643
-0.0177657
-0.0229859
-0.032466
-0.0376318
-0.0387884
-0.00732364
-0.0097408
-0.00709882
-0.00655319
-0.00599729
-0.00592365
-0.00607339
-0.00640382
-0.00686493
-0.00746886
-0.00821857
-0.00920732
-0.0104535
-0.0123038
-0.0147169
-0.0190745
-0.0246939
-0.0346074
-0.0395099
-0.037141
0.0127841
-0.00730997
-0.00986261
-0.00889164
-0.0088674
-0.00843571
-0.00819051
-0.00812696
-0.00826233
-0.00862491
-0.00917231
-0.0100097
-0.0110898
-0.012812
-0.0150883
-0.0193295
-0.024518
-0.0326245
-0.0307001
-0.0133178
0.0658629
-0.0321339
-0.00717114
-0.00599221
-0.00520361
-0.00491648
-0.00509741
-0.00560896
-0.00619249
-0.00698472
-0.00780211
-0.00897951
-0.0102572
-0.0122075
-0.0144024
-0.0174354
-0.0187325
-0.0166546
0.0060599
0.0628049
0.191861
3.30776e-06
-2.09805e-05
9.05383e-06
6.94646e-05
0.00016657
0.000300486
0.000471681
0.000680459
0.000926275
0.00120723
0.00151953
0.00185689
0.00221012
0.00256646
0.00290992
0.00322178
0.00348148
0.00366842
0.0037792
0.00376522
2.64627e-05
1.51232e-06
3.42272e-05
9.34825e-05
0.000187435
0.000316753
0.000482341
0.000684858
0.000924088
0.0011985
0.00150469
0.00183651
0.00218573
0.00253971
0.00288259
0.00319558
0.00345763
0.00364791
0.00376463
0.00374888
-1.10631e-05
-4.1408e-05
-9.86237e-06
4.69722e-05
0.000138141
0.000264473
0.000427294
0.00062783
0.00086654
0.00114264
0.00145347
0.00179412
0.00215628
0.00252752
0.00289132
0.00322727
0.00351158
0.00371935
0.00384778
0.00382573
-8.74798e-05
-0.000121816
-9.20337e-05
-3.84501e-05
4.89379e-05
0.000171277
0.000330539
0.00052881
0.000767586
0.00104729
0.00136656
0.00172131
0.002105
0.00250526
0.00290469
0.00328023
0.00360339
0.00384257
0.00399241
0.00396692
-0.000209193
-0.000247693
-0.000220471
-0.000171038
-8.83745e-05
2.90747e-05
0.000184099
0.000379899
0.000619382
0.000904678
0.00123639
0.00161274
0.002027
0.00246939
0.00292135
0.00335654
0.00374003
0.00402943
0.0042139
0.0041868
-0.00037625
-0.000419633
-0.000395816
-0.000351779
-0.000275408
-0.000164687
-1.58761e-05
0.000175569
0.000414327
0.000704769
0.00105015
0.00145134
0.001905
0.00240288
0.00292657
0.0034462
0.00391832
0.00428474
0.00452347
0.0044986
-0.000588979
-0.000638267
-0.000618852
-0.000581922
-0.0005142
-0.000413229
-0.000274251
-9.1215e-05
0.000142657
0.000434546
0.000791274
0.00121787
0.0017158
0.00228091
0.00289673
0.00353091
0.00412985
0.00461355
0.0049376
0.00492625
-0.000848168
-0.0009046
-0.000890735
-0.000863062
-0.000807124
-0.000720167
-0.00059648
-0.000428471
-0.000207066
7.82236e-05
0.000438812
0.000885777
0.00142723
0.00206638
0.00279359
0.00357738
0.00435425
0.00501689
0.00547779
0.00551231
-0.0011548
-0.00121973
-0.00121255
-0.00119653
-0.00115614
-0.00108863
-0.000987583
-0.000844087
-0.000646834
-0.000381824
-3.23022e-05
0.000420546
0.000995764
0.00170462
0.00255537
0.00352476
0.00454514
0.00548057
0.00616784
0.00633623
-0.00151017
-0.00158495
-0.00158522
-0.00158313
-0.00156229
-0.00152045
-0.00145106
-0.00134439
-0.00118746
-0.000963165
-0.000649511
-0.000219053
0.000359768
0.00111849
0.00208435
0.00326287
0.00460108
0.00594825
0.00702574
0.00755182
-0.00191625
-0.00200206
-0.00200955
-0.00202285
-0.00202506
-0.00201522
-0.00198741
-0.00193211
-0.00183584
-0.00167985
-0.00143847
-0.00107699
-0.000550174
0.000198285
0.00122523
0.00259151
0.00430191
0.00624521
0.00801143
0.00944219
-0.0023766
-0.00247397
-0.00248633
-0.00251459
-0.00254178
-0.00256916
-0.00259247
-0.00260372
-0.00259083
-0.00253611
-0.00241388
-0.00218667
-0.00179955
-0.00117593
-0.00022673
0.0011798
0.00316806
0.00582641
0.00871425
0.0119655
-0.00289853
-0.00300714
-0.00301859
-0.00305779
-0.00310815
-0.00317461
-0.00325595
-0.00334719
-0.00343989
-0.00352134
-0.00357219
-0.00356261
-0.00344615
-0.00315024
-0.00257268
-0.00159466
0.000145868
0.00316555
0.00706828
0.0133583
-0.00349163
-0.00360029
-0.00359432
-0.00363393
-0.00370406
-0.00381155
-0.00395647
-0.00413737
-0.00435237
-0.00459803
-0.00486905
-0.00515707
-0.00545172
-0.00574331
-0.00605255
-0.0063834
-0.00629736
-0.00447371
-0.000823278
0.00954286
-0.0041937
-0.00432082
-0.00428552
-0.00431864
-0.00438719
-0.00451169
-0.00470019
-0.00495906
-0.00529495
-0.00571679
-0.00624103
-0.00689586
-0.00773779
-0.00887925
-0.0105984
-0.0132195
-0.0166981
-0.016941
-0.0140838
0.00050188
-0.00510585
-0.00501454
-0.00487538
-0.0048227
-0.00488267
-0.00504899
-0.00531497
-0.00567818
-0.00614779
-0.00674142
-0.0074977
-0.00848471
-0.00984559
-0.0118001
-0.0149212
-0.0196427
-0.0268609
-0.0300224
-0.0288662
-0.00926588
-0.00574981
-0.00615124
-0.00589792
-0.0059078
-0.00589767
-0.00599467
-0.00620886
-0.00655581
-0.00705756
-0.00772699
-0.00861636
-0.00980276
-0.0115055
-0.0139527
-0.0181496
-0.0238768
-0.0341899
-0.0395871
-0.0393549
-0.00837672
-0.00935708
-0.0067467
-0.00617973
-0.00564555
-0.00562127
-0.005831
-0.00621903
-0.00673181
-0.0073852
-0.00817152
-0.00917436
-0.0104177
-0.0122304
-0.0145824
-0.0192265
-0.0250266
-0.0343482
-0.038258
-0.0320869
0.0153165
-0.00622485
-0.00903214
-0.00818028
-0.00827557
-0.00793819
-0.00778586
-0.00780996
-0.0080285
-0.00847666
-0.00908716
-0.009954
-0.0110336
-0.012718
-0.0150224
-0.0192906
-0.0245999
-0.0318944
-0.0277044
-0.00623745
0.0717839
-0.0314122
-0.00636252
-0.00517735
-0.0045037
-0.00434334
-0.00462335
-0.00522273
-0.00588078
-0.00674254
-0.00761787
-0.00880957
-0.010138
-0.0120411
-0.0143112
-0.0172005
-0.0183309
-0.0152212
0.0102341
0.0727126
0.204148
1.02346e-05
-1.60795e-05
1.36044e-05
7.37138e-05
0.000170963
0.000305394
0.000477474
0.000687555
0.000935158
0.00121844
0.00153364
0.00187447
0.00223179
0.00259259
0.00294058
0.00325663
0.00351953
0.00370799
0.00381888
0.00380142
3.65514e-05
9.40309e-06
4.18758e-05
0.000100758
0.00019467
0.000324216
0.000490331
0.000693745
0.000934318
0.0012106
0.00151926
0.00185423
0.00220715
0.00256532
0.00291259
0.00322971
0.00349503
0.00368695
0.00380405
0.00378481
1.33892e-06
-3.16073e-05
-3.88295e-07
5.59571e-05
0.000146989
0.000273458
0.000436727
0.000638107
0.000878155
0.00115619
0.00146966
0.00181375
0.00218012
0.00255622
0.00292525
0.00326631
0.0035548
0.00376488
0.00389405
0.00386793
-7.25396e-05
-0.000109765
-8.03506e-05
-2.73404e-05
5.98411e-05
0.000182257
0.00034193
0.000541055
0.000781256
0.00106311
0.00138537
0.00174413
0.00213299
0.00253937
0.00294558
0.00332792
0.00365693
0.00389969
0.00405106
0.00402096
-0.000191762
-0.000233413
-0.000206575
-0.00015776
-7.53178e-05
4.22221e-05
0.00019772
0.000394515
0.000635686
0.000923566
0.00125893
0.00163966
0.00206121
0.00251174
0.00297298
0.00341791
0.0038102
0.00410551
0.00429295
0.00426071
-0.00035612
-0.00040292
-0.000379483
-0.000336084
-0.000259918
-0.000149053
3.52713e-07
0.000193017
0.000433851
0.000727532
0.0010777
0.00148603
0.00194776
0.00245658
0.00299337
0.00352736
0.00401321
0.00438969
0.0046341
0.00460375
-0.000565692
-0.000618698
-0.000599649
-0.000563383
-0.000495857
-0.000394693
-0.000254998
-7.04969e-05
0.000165891
0.000461745
0.000824393
0.00125944
0.00176879
0.00234899
0.00298355
0.00363925
0.00426004
0.0047613
0.00509622
0.0050799
-0.000821036
-0.000881543
-0.000868042
-0.000841094
-0.000785394
-0.000698255
-0.000573794
-0.000404134
-0.000179818
0.000110161
0.000477881
0.00093522
0.00149135
0.00215127
0.0029052
0.00372127
0.0045331
0.00522692
0.00570866
0.00574164
-0.00112286
-0.00119229
-0.00118551
-0.00117036
-0.00113035
-0.00106279
-0.000961068
-0.000815903
-0.000615517
-0.000345248
1.25291e-05
0.000477558
0.00106827
0.00180675
0.00269499
0.00371201
0.00478767
0.00577817
0.00650655
0.00668493
-0.00147205
-0.00155187
-0.00155263
-0.00155168
-0.00153154
-0.00149002
-0.0014203
-0.00131226
-0.00115234
-0.000922613
-0.000599843
-0.000154648
0.000448443
0.00123606
0.00225093
0.00349626
0.00491914
0.00636213
0.00752413
0.00808993
-0.00187002
-0.00196152
-0.0019697
-0.00198462
-0.00198811
-0.00197928
-0.00195189
-0.001896
-0.0017975
-0.00163676
-0.00138677
-0.00101086
-0.00046178
0.00031317
0.0014055
0.00285759
0.00468824
0.00679179
0.00872914
0.0102574
-0.00231938
-0.00242327
-0.00243667
-0.00246732
-0.00249679
-0.00252633
-0.00255137
-0.00256348
-0.00255001
-0.00249246
-0.00236383
-0.00212453
-0.00171544
-0.00104972
-5.93229e-05
0.00142667
0.00355033
0.00644312
0.00965124
0.013074
-0.00282599
-0.00294234
-0.00295552
-0.00299842
-0.00305252
-0.00312285
-0.00320787
-0.00330226
-0.00339715
-0.00347927
-0.00352861
-0.00351437
-0.00338869
-0.00307792
-0.0024872
-0.00150252
0.000272419
0.00349943
0.00789078
0.0144121
-0.00339647
-0.00351418
-0.00351073
-0.00355585
-0.00363219
-0.00374648
-0.00389832
-0.00408587
-0.00430702
-0.00455837
-0.004835
-0.00512999
-0.00543715
-0.00575827
-0.00614721
-0.00667044
-0.00690222
-0.00523451
-0.00111121
0.00945373
-0.00406671
-0.00420691
-0.00417588
-0.00421856
-0.00429675
-0.00443148
-0.00463039
-0.00489976
-0.00524632
-0.00567977
-0.00621858
-0.0068957
-0.00777916
-0.00900987
-0.0109399
-0.0140456
-0.0185509
-0.0195218
-0.0164206
-0.00147235
-0.00492845
-0.00485243
-0.00471994
-0.00467952
-0.00475388
-0.00493647
-0.00521964
-0.00560025
-0.00608707
-0.00669888
-0.00747736
-0.00849637
-0.00991881
-0.012004
-0.0154332
-0.0208044
-0.0294751
-0.0336457
-0.032576
-0.0119947
-0.00548694
-0.00592602
-0.00568013
-0.00571763
-0.00573037
-0.00585159
-0.00608995
-0.00646199
-0.00698427
-0.00767518
-0.00858808
-0.00980385
-0.0115622
-0.014124
-0.0185883
-0.0248049
-0.0361733
-0.0418794
-0.0418885
-0.00904248
-0.00901421
-0.00643844
-0.00587272
-0.00536192
-0.00536614
-0.00561153
-0.00603745
-0.00658723
-0.00727286
-0.00808847
-0.00911535
-0.0103809
-0.0122313
-0.0147432
-0.0192752
-0.0254264
-0.0349803
-0.0384137
-0.0321881
0.0177093
-0.00562352
-0.00858581
-0.00774311
-0.00790091
-0.00760588
-0.00750211
-0.00757192
-0.00783592
-0.00832193
-0.00896592
-0.00985888
-0.0109522
-0.0126583
-0.0150061
-0.0193173
-0.0247219
-0.0319779
-0.0268868
-0.00476033
0.0767586
-0.0308107
-0.00575304
-0.00457437
-0.00395664
-0.00386755
-0.00421469
-0.00488001
-0.00559785
-0.00651382
-0.00743801
-0.00866028
-0.0100296
-0.0119456
-0.0142518
-0.0171742
-0.0182107
-0.0148096
0.0122434
0.0767704
0.212304
1.79509e-05
-9.04656e-06
2.05253e-05
8.05504e-05
0.000177994
0.000312898
0.000485779
0.000697054
0.00094631
0.00123178
0.00154975
0.00189399
0.00225511
0.00262014
0.00297249
0.00329262
0.00355885
0.00374939
0.0038612
0.0038425
4.55962e-05
1.76226e-05
4.99898e-05
0.000108741
0.000202782
0.000332714
0.000499527
0.00070402
0.00094613
0.00122449
0.00153581
0.00187404
0.00223088
0.00259338
0.00294516
0.0032666
0.00353549
0.00372973
0.00384801
0.00382767
1.18673e-05
-2.20513e-05
9.02088e-06
6.5177e-05
0.000156294
0.00028312
0.000447077
0.00064956
0.000891225
0.00117149
0.00148789
0.00183569
0.00220651
0.00258769
0.00296214
0.00330852
0.00360158
0.00381476
0.00394562
0.00391828
-6.01241e-05
-9.84358e-05
-6.91953e-05
-1.64214e-05
7.08156e-05
0.000193576
0.000353959
0.000554267
0.000796251
0.00108062
0.00140628
0.00176947
0.00216378
0.00257655
0.00298979
0.00337926
0.00371464
0.00396196
0.00411599
0.00408461
-0.000177264
-0.00022011
-0.00019346
-0.00014491
-6.24155e-05
5.54986e-05
0.000211789
0.000409933
0.000653183
0.000944073
0.0012836
0.00166996
0.00209833
0.00255725
0.00302808
0.00348308
0.00388478
0.0041872
0.00437905
0.00434556
-0.000339232
-0.000387337
-0.000364095
-0.000320983
-0.000244756
-0.000133469
1.68416e-05
0.000211074
0.000454368
0.000751681
0.00110696
0.00152207
0.00199299
0.00251313
0.00306327
0.00361188
0.00411207
0.00450001
0.0047519
0.00472061
-0.000545963
-0.000600391
-0.000581551
-0.000545606
-0.000478028
-0.000376416
-0.00023572
-4.9435e-05
0.000189817
0.000489997
0.000858903
0.00130263
0.00182371
0.00241907
0.00307229
0.00374938
0.00439226
0.00491244
0.00526034
0.00524413
-0.000797833
-0.000859898
-0.00084664
-0.00082009
-0.000764404
-0.000676862
-0.000551384
-0.000379815
-0.000152319
0.000142607
0.000517669
0.000985497
0.00155638
0.00223639
0.00301614
0.00386331
0.00470923
0.00543475
0.00593943
0.0059755
-0.00109531
-0.00116646
-0.00116
-0.0011454
-0.00110558
-0.0010378
-0.000935206
-0.000788202
-0.000584546
-0.000308948
5.70587e-05
0.000534303
0.00114269
0.00190647
0.00282924
0.00389045
0.00501805
0.00606167
0.00683187
0.00702092
-0.00143895
-0.00152068
-0.00152191
-0.00152179
-0.00150216
-0.00146081
-0.00139064
-0.00128116
-0.00111831
-0.000883397
-0.000552115
-9.35866e-05
0.000529357
0.00134605
0.00240434
0.00370936
0.00520888
0.00674024
0.00798189
0.00857494
-0.00182966
-0.00192332
-0.00193222
-0.0019484
-0.00195297
-0.00194498
-0.00191794
-0.00186152
-0.00176109
-0.00159623
-0.00133882
-0.000950602
-0.000382347
0.000420545
0.00156247
0.00308737
0.00502324
0.0072704
0.0093615
0.0109396
-0.00226934
-0.0023757
-0.00239019
-0.00242278
-0.00245418
-0.00248564
-0.00251231
-0.00252543
-0.0025119
-0.00245256
-0.00231948
-0.00207151
-0.00164686
-0.000954305
7.08715e-05
0.00162276
0.00386336
0.00696575
0.0104513
0.0139438
-0.0027628
-0.00288206
-0.00289696
-0.00294282
-0.00300008
-0.00307379
-0.00316226
-0.00325993
-0.00335764
-0.00344185
-0.00349224
-0.0034777
-0.0033497
-0.00303403
-0.00243671
-0.00145283
0.000338993
0.00376849
0.00862787
0.0152207
-0.00331491
-0.00343603
-0.00343496
-0.00348432
-0.00356551
-0.00368537
-0.00384326
-0.0040372
-0.00426507
-0.0045237
-0.00480901
-0.0051163
-0.00544251
-0.00579842
-0.0062619
-0.0069509
-0.00750842
-0.00582363
-0.00106056
0.00959322
-0.00396076
-0.00410586
-0.00407827
-0.0041276
-0.00421291
-0.00435566
-0.00456338
-0.00484246
-0.00520001
-0.00564669
-0.0062031
-0.00690701
-0.00783676
-0.0091538
-0.0112613
-0.0147446
-0.0199875
-0.0214558
-0.0176732
-0.00236307
-0.00478681
-0.00471664
-0.00458889
-0.00455661
-0.00464031
-0.00483414
-0.00513016
-0.00552512
-0.00602797
-0.00665879
-0.00746184
-0.00851809
-0.0100077
-0.0122186
-0.0159264
-0.0218249
-0.0316165
-0.0364637
-0.0346616
-0.0133025
-0.00530131
-0.00575316
-0.00550825
-0.00555985
-0.00558509
-0.00572096
-0.00597534
-0.00636508
-0.0069065
-0.00761963
-0.00855936
-0.0098118
-0.0116372
-0.0143115
-0.0190513
-0.025671
-0.0379891
-0.0438736
-0.0427193
-0.00924604
-0.00876415
-0.00620721
-0.00564725
-0.00514916
-0.00516528
-0.00542806
-0.00587495
-0.0064485
-0.00715893
-0.00800023
-0.00905438
-0.0103505
-0.0122531
-0.0148485
-0.0194996
-0.025893
-0.0357491
-0.0389008
-0.0310354
0.0192333
-0.00535288
-0.00834305
-0.00747589
-0.0076462
-0.0073589
-0.00727172
-0.00736163
-0.00765161
-0.00816577
-0.00883666
-0.00976078
-0.0108773
-0.0126267
-0.0150191
-0.0194231
-0.0249075
-0.0321542
-0.0263496
-0.00230607
0.0797606
-0.0304949
-0.00542551
-0.00423501
-0.00362244
-0.003553
-0.00392745
-0.00462465
-0.00537625
-0.00632635
-0.00728553
-0.00853932
-0.00994545
-0.0119002
-0.0142545
-0.0172247
-0.0182373
-0.014567
0.0133741
0.0798149
0.216274
2.54375e-05
-1.78013e-06
2.77698e-05
8.78336e-05
0.000185534
0.000320944
0.000494633
0.000707081
0.000957939
0.00124549
0.00156608
0.00191347
0.00227822
0.00264722
0.00300365
0.00332766
0.00359717
0.00378999
0.00390307
0.00388404
5.36704e-05
2.54343e-05
5.77833e-05
0.000116563
0.000210845
0.000341258
0.000508852
0.000714492
0.000958188
0.00123863
0.00155262
0.00189408
0.00225467
0.00262133
0.00297744
0.00330304
0.00357551
0.00377229
0.00389205
0.00387151
2.0961e-05
-1.3264e-05
1.77749e-05
7.39379e-05
0.000165284
0.000292592
0.000457352
0.00066104
0.000904399
0.00118694
0.00150626
0.00185771
0.00223286
0.00261892
0.00299858
0.0033501
0.00364769
0.00386419
0.00399706
0.00396953
-4.96132e-05
-8.82679e-05
-5.90724e-05
-6.30971e-06
8.11524e-05
0.000204412
0.000365651
0.000567271
0.000811142
0.0010981
0.00142718
0.00179473
0.00219431
0.00261322
0.00303319
0.00342949
0.00377109
0.00402315
0.00418018
0.00414872
-0.000165057
-0.000208278
-0.000181682
-0.000133156
-5.04266e-05
6.80263e-05
0.000225262
0.00042489
0.000670317
0.000964262
0.00130793
0.0016998
0.00213472
0.00260164
0.00308153
0.00354607
0.00395681
0.00426639
0.00446291
0.00442958
-0.000325
-0.000373508
-0.000350332
-0.000307256
-0.000230786
-0.000118917
3.2444e-05
0.000228362
0.000474183
0.000775117
0.00113537
0.00155703
0.00203669
0.00256748
0.00313009
0.0036923
0.00420593
0.00460501
0.00486447
0.00483381
-0.000529285
-0.000584146
-0.000565392
-0.000529516
-0.00046171
-0.000359499
-0.000217675
-2.95221e-05
0.000212613
0.000517039
0.000891967
0.00134393
0.00187597
0.00248533
0.00315562
0.00385218
0.00451528
0.00505318
0.00541359
0.00539907
-0.000778151
-0.000840683
-0.00082756
-0.000801152
-0.000745308
-0.000657222
-0.000530626
-0.000357106
-0.000126481
0.000173199
0.000555203
0.00103283
0.00161734
0.00231544
0.0031182
0.00399301
0.00486928
0.00562336
0.0061492
0.00618928
-0.00107187
-0.00114354
-0.0011373
-0.00112299
-0.00108317
-0.00101503
-0.000911487
-0.000762652
-0.00055587
-0.00027529
9.83059e-05
0.000586742
0.00121117
0.00199718
0.00294988
0.00404931
0.00522189
0.00631165
0.00711869
0.00731671
-0.00141074
-0.00149305
-0.00149465
-0.00149506
-0.00147574
-0.00143439
-0.00136369
-0.00125283
-0.00108728
-0.000847716
-0.000508916
-3.87354e-05
0.000601568
0.00144351
0.00253824
0.00389359
0.00545777
0.00706343
0.00837172
0.00898364
-0.0017953
-0.00188961
-0.00189912
-0.0019162
-0.00192156
-0.00191419
-0.00188736
-0.00183045
-0.00172838
-0.00156012
-0.0012966
-0.000898232
-0.00031421
0.000509912
0.0016936
0.00327896
0.00530183
0.00766663
0.00988194
0.011488
-0.00222694
-0.00233405
-0.00234948
-0.0023835
-0.0024164
-0.00244938
-0.0024774
-0.00249147
-0.00247816
-0.00241782
-0.0022818
-0.00202786
-0.00159215
-0.000878044
0.000170102
0.001779
0.0041177
0.00738964
0.0110957
0.0146236
-0.00270979
-0.00282994
-0.00284627
-0.00289431
-0.002954
-0.00303043
-0.0031218
-0.00322244
-0.00332307
-0.00341001
-0.00346278
-0.0034501
-0.00332302
-0.00300548
-0.00239936
-0.00140926
0.000422017
0.00401503
0.00924393
0.0158789
-0.00324779
-0.00336991
-0.00337077
-0.00342317
-0.00350797
-0.0036321
-0.0037949
-0.00399438
-0.00422858
-0.00449472
-0.00478951
-0.00510967
-0.00545554
-0.00584366
-0.0063665
-0.00717057
-0.00790698
-0.00621177
-0.000909834
0.00984291
-0.0038761
-0.00402269
-0.00399762
-0.00405132
-0.00414162
-0.00429027
-0.00450489
-0.0047921
-0.00515952
-0.00561889
-0.00619283
-0.00692302
-0.00789613
-0.00928835
-0.0115414
-0.0153193
-0.0211279
-0.0228682
-0.0184642
-0.00281225
-0.00467737
-0.00460897
-0.00448452
-0.00445745
-0.00454724
-0.00474877
-0.00505415
-0.00546033
-0.00597678
-0.00662485
-0.00745171
-0.00854438
-0.0100975
-0.0124195
-0.0163636
-0.02269
-0.0333513
-0.0386853
-0.0362477
-0.014157
-0.0051706
-0.00562634
-0.00538061
-0.00543883
-0.0054705
-0.00561504
-0.0058799
-0.0062823
-0.00683908
-0.0075712
-0.00853678
-0.0098265
-0.0117196
-0.0144992
-0.0194916
-0.0264542
-0.0396092
-0.0457655
-0.0437857
-0.0095505
-0.0085854
-0.00603874
-0.00548515
-0.00499455
-0.00501588
-0.00528697
-0.0057457
-0.00633405
-0.0070623
-0.00792445
-0.00900502
-0.0103333
-0.0122955
-0.0149666
-0.0197831
-0.026408
-0.0366631
-0.039789
-0.0310332
0.020014
-0.00520947
-0.00820117
-0.00730907
-0.00748031
-0.00719003
-0.0071064
-0.00720425
-0.00750701
-0.00803866
-0.00872916
-0.00967966
-0.0108209
-0.0126216
-0.0150631
-0.0195824
-0.0251505
-0.0325061
-0.0263283
-0.00129532
0.0815904
-0.0302974
-0.00522538
-0.00402481
-0.00340797
-0.00334235
-0.00372635
-0.00443857
-0.00520758
-0.00618029
-0.0071625
-0.00844734
-0.00988488
-0.0118919
-0.0142973
-0.0173562
-0.0183713
-0.0146333
0.0138306
0.0813508
0.218546
3.21041e-05
4.87235e-06
3.44729e-05
9.46597e-05
0.000192649
0.000328554
0.000502999
0.000716519
0.000968821
0.00125824
0.00158116
0.00193133
0.00229929
0.00267178
0.00303183
0.0033593
0.0036318
0.00382681
0.00394123
0.00392222
6.06139e-05
3.233e-05
6.47256e-05
0.000123628
0.000218201
0.000349114
0.000517471
0.000724198
0.000969364
0.00125172
0.00156811
0.00191248
0.00227641
0.00264677
0.00300674
0.00333608
0.00361181
0.00381104
0.00393232
0.00391194
2.86132e-05
-5.66697e-06
2.54129e-05
8.16927e-05
0.000173334
0.000301158
0.000466719
0.000671561
0.000916502
0.00120113
0.00152311
0.00187783
0.00225685
0.00264727
0.00303155
0.00338765
0.00368934
0.00390897
0.00404383
0.00401654
-4.09091e-05
-7.96258e-05
-5.03943e-05
2.48181e-06
9.02485e-05
0.000214054
0.000376155
0.00057904
0.000824678
0.00111401
0.00144618
0.00181763
0.00222191
0.00264627
0.00307218
0.00347452
0.00382168
0.00407811
0.00423799
0.00420693
-0.000155015
-0.000198303
-0.000171677
-0.000123039
-3.99908e-05
7.90487e-05
0.000237232
0.000438279
0.00068573
0.000982451
0.00132982
0.00172654
0.0021673
0.00264126
0.00312908
0.00360193
0.00402058
0.00433657
0.0045374
0.00450472
-0.000313312
-0.00036189
-0.000338693
-0.000295514
-0.000218716
-0.000106222
4.61762e-05
0.000243687
0.000491833
0.000796026
0.00116068
0.0015881
0.0020754
0.00261546
0.00318878
0.00376263
0.00428777
0.00469653
0.00496267
0.00493314
-0.000515585
-0.000570517
-0.000551765
-0.000515812
-0.000447694
-0.000344849
-0.000201929
-1.2033e-05
0.000232728
0.000540961
0.000921239