/*--------------------------------*- C++ -*----------------------------------*\
  =========                 |
  \\      /  F ield         | OpenFOAM: The Open Source CFD Toolbox
   \\    /   O peration     | Website:  https://openfoam.org
    \\  /    A nd           | Version:  10
     \\/     M anipulation  |
\*---------------------------------------------------------------------------*/
FoamFile
{
    format      ascii;
    class       volVectorField;
    location    "6.25";
    object      U;
}
// * * * * * * * * * * * * * * * * * * * * * * * * * * * * * * * * * * * * * //

dimensions      [0 1 -1 0 0 0 0];

internalField   nonuniform List<vector> 
400
(
(-0.000107791 9.8908e-05 0)
(-0.000890279 0.000337851 0)
(-0.0022197 0.000420528 0)
(-0.00354825 0.000439814 0)
(-0.00488848 0.000442229 0)
(-0.00620092 0.000440791 0)
(-0.00746483 0.000434718 0)
(-0.0086561 0.000419469 0)
(-0.00974004 0.000389586 0)
(-0.0106702 0.000339126 0)
(-0.0113875 0.000262103 0)
(-0.0118216 0.000153423 0)
(-0.0118926 9.19128e-06 0)
(-0.0115183 -0.000171874 0)
(-0.0106277 -0.000382199 0)
(-0.00917772 -0.000604586 0)
(-0.00718583 -0.000805157 0)
(-0.00480742 -0.000924812 0)
(-0.00212847 -0.000858051 0)
(-0.00035133 -0.000390422 0)
(-0.00037262 0.000901369 0)
(-0.0020033 0.00192081 0)
(-0.00448936 0.00226238 0)
(-0.00696243 0.00232394 0)
(-0.009422 0.00228957 0)
(-0.0117898 0.00221339 0)
(-0.0140165 0.00209777 0)
(-0.0160529 0.00192998 0)
(-0.0178379 0.00169301 0)
(-0.0192966 0.00136817 0)
(-0.0203394 0.000936612 0)
(-0.0208646 0.00038168 0)
(-0.0207625 -0.000305965 0)
(-0.0199209 -0.00111622 0)
(-0.0182465 -0.00201527 0)
(-0.0156907 -0.0029322 0)
(-0.0122989 -0.00373627 0)
(-0.00830745 -0.00419775 0)
(-0.00386495 -0.00391859 0)
(-0.000760197 -0.00207303 0)
(-0.000481431 0.00233071 0)
(-0.00247931 0.00445941 0)
(-0.00546265 0.00514924 0)
(-0.00840823 0.00524614 0)
(-0.0113207 0.00512508 0)
(-0.0141099 0.00489745 0)
(-0.0167196 0.00457339 0)
(-0.0190952 0.00413309 0)
(-0.0211705 0.00354737 0)
(-0.0228653 0.00278313 0)
(-0.0240843 0.00180686 0)
(-0.0247163 0.000589907 0)
(-0.0246309 -0.000881456 0)
(-0.0236916 -0.00259074 0)
(-0.0217795 -0.00447095 0)
(-0.0188148 -0.00638019 0)
(-0.014823 -0.00805398 0)
(-0.0100647 -0.00902062 0)
(-0.00470436 -0.0084704 0)
(-0.00092968 -0.0047167 0)
(-0.000515307 0.00383214 0)
(-0.00266806 0.00713585 0)
(-0.0058779 0.00817766 0)
(-0.00903625 0.00829965 0)
(-0.0121608 0.00808452 0)
(-0.0151611 0.00770319 0)
(-0.0179849 0.0071733 0)
(-0.0205823 0.00646778 0)
(-0.022891 0.00554446 0)
(-0.0248325 0.0043533 0)
(-0.0263088 0.00284177 0)
(-0.0271985 0.000963626 0)
(-0.0273527 -0.00130778 0)
(-0.0265936 -0.00396695 0)
(-0.0247379 -0.00692651 0)
(-0.0216314 -0.00997898 0)
(-0.0172304 -0.0127108 0)
(-0.0118007 -0.0143496 0)
(-0.00551899 -0.0135651 0)
(-0.0010711 -0.00763669 0)
(-0.000525702 0.00540901 0)
(-0.00276861 0.00996193 0)
(-0.00612906 0.0113751 0)
(-0.00943569 0.0115275 0)
(-0.0127203 0.0112252 0)
(-0.0158967 0.0107027 0)
(-0.0189226 0.00998632 0)
(-0.0217587 0.00904181 0)
(-0.0243525 0.00781285 0)
(-0.0266329 0.00622866 0)
(-0.028502 0.00420932 0)
(-0.0298262 0.00167644 0)
(-0.0304304 -0.00142966 0)
(-0.0300795 -0.00513246 0)
(-0.0284942 -0.00934824 0)
(-0.0253938 -0.0138154 0)
(-0.0205928 -0.0179464 0)
(-0.0143109 -0.0205708 0)
(-0.00672747 -0.0196356 0)
(-0.00128407 -0.0110969 0)
(-0.000532447 0.00703434 0)
(-0.00285904 0.0129073 0)
(-0.0063674 0.0147159 0)
(-0.00982439 0.0149109 0)
(-0.0132763 0.014538 0)
(-0.016644 0.0139009 0)
(-0.0198994 0.0130369 0)
(-0.0230194 0.0119056 0)
(-0.0259687 0.0104357 0)
(-0.0286917 0.00853152 0)
(-0.031099 0.00607607 0)
(-0.0330512 0.00293979 0)
(-0.0343497 -0.0010017 0)
(-0.0346904 -0.00582984 0)
(-0.0336612 -0.0115227 0)
(-0.0307862 -0.0177958 0)
(-0.0256296 -0.023867 0)
(-0.0182403 -0.028035 0)
(-0.00871751 -0.027172 0)
(-0.00165876 -0.0154016 0)
(-0.000540329 0.00870822 0)
(-0.00296114 0.0159768 0)
(-0.00663491 0.0182081 0)
(-0.0102581 0.0184595 0)
(-0.0138928 0.0180361 0)
(-0.0174695 0.0173185 0)
(-0.0209785 0.0163585 0)
(-0.0244198 0.0151124 0)
(-0.0277847 0.0134948 0)
(-0.0310465 0.0113828 0)
(-0.0341417 0.00861353 0)
(-0.0369456 0.0049844 0)
(-0.0392406 0.000270115 0)
(-0.0406699 -0.00572124 0)
(-0.0406744 -0.0131153 0)
(-0.0384912 -0.0216958 0)
(-0.0332755 -0.0305215 0)
(-0.0246297 -0.0372147 0)
(-0.0122677 -0.0370009 0)
(-0.00240105 -0.0211486 0)
(-0.000549724 0.0104392 0)
(-0.00307892 0.0191886 0)
(-0.00693842 0.0218699 0)
(-0.0107402 0.0221887 0)
(-0.0145649 0.0217331 0)
(-0.0183538 0.0209701 0)
(-0.0221208 0.019973 0)
(-0.0258964 0.0187003 0)
(-0.0297107 0.0170578 0)
(-0.0335842 0.0148984 0)
(-0.0375075 0.0120103 0)
(-0.041405 0.00810421 0)
(-0.0450772 0.00281607 0)
(-0.0481618 -0.00426142 0)
(-0.0499838 -0.0134962 0)
(-0.0494491 -0.0249292 0)
(-0.0451119 -0.037643 0)
(-0.0355946 -0.048577 0)
(-0.0193117 -0.0504855 0)
(-0.00408254 -0.0296323 0)
(-0.000561273 0.0122364 0)
(-0.00321536 0.0225617 0)
(-0.00728039 0.0257161 0)
(-0.0112655 0.0261042 0)
(-0.0152726 0.0256262 0)
(-0.0192552 0.0248482 0)
(-0.0232545 0.0238735 0)
(-0.0273391 0.0226731 0)
(-0.0315907 0.0211557 0)
(-0.0360983 0.0191623 0)
(-0.0409414 0.0164409 0)
(-0.0461518 0.012614 0)
(-0.0516493 0.00714467 0)
(-0.0571607 -0.000666074 0)
(-0.0620344 -0.0115421 0)
(-0.0649937 -0.0261402 0)
(-0.0638662 -0.0440397 0)
(-0.0552449 -0.0621124 0)
(-0.0340983 -0.069867 0)
(-0.00809014 -0.043716 0)
(-0.000578069 0.0141124 0)
(-0.00338009 0.026117 0)
(-0.00767227 0.0297565 0)
(-0.0118368 0.0301994 0)
(-0.0160018 0.0296927 0)
(-0.0201329 0.0289162 0)
(-0.0243008 0.0280144 0)
(-0.0286169 0.0269847 0)
(-0.0332247 0.0257587 0)
(-0.0383039 0.0241915 0)
(-0.0440655 0.0220246 0)
(-0.0507305 0.0188249 0)
(-0.0584668 0.0139052 0)
(-0.0672764 0.00626573 0)
(-0.0769951 -0.00537182 0)
(-0.0866629 -0.0224361 0)
(-0.0932691 -0.0465311 0)
(-0.0890585 -0.0765799 0)
(-0.0618003 -0.0990225 0)
(-0.0161741 -0.0696111 0)
(-0.000607821 0.0160897 0)
(-0.00359581 0.0298834 0)
(-0.00814417 0.0339988 0)
(-0.0124767 0.0344549 0)
(-0.0167567 0.0338867 0)
(-0.0209616 0.0331036 0)
(-0.0251908 0.0323025 0)
(-0.0295977 0.0315236 0)
(-0.0343874 0.0307466 0)
(-0.0398384 0.0298826 0)
(-0.0463249 0.0287297 0)
(-0.0543359 0.0268956 0)
(-0.0644766 0.0236822 0)
(-0.0774555 0.017957 0)
(-0.0940236 0.0079892 0)
(-0.114555 -0.00921292 0)
(-0.134255 -0.0398027 0)
(-0.135861 -0.0907375 0)
(-0.0986967 -0.144418 0)
(-0.0278261 -0.116987 0)
(-0.000666739 0.0182124 0)
(-0.00390768 0.0339115 0)
(-0.00875677 0.0384606 0)
(-0.013239 0.0388487 0)
(-0.0175728 0.0381456 0)
(-0.0217467 0.0373069 0)
(-0.0258858 0.0365931 0)
(-0.0301761 0.0361016 0)
(-0.0348702 0.0358895 0)
(-0.0403299 0.0359778 0)
(-0.0470844 0.0363174 0)
(-0.055918 0.0367226 0)
(-0.0679872 0.0367712 0)
(-0.0849838 0.0356493 0)
(-0.109298 0.0314101 0)
(-0.141873 0.0173231 0)
(-0.172922 -0.0233493 0)
(-0.172959 -0.111321 0)
(-0.12622 -0.211877 0)
(-0.040917 -0.192782 0)
(-0.000784915 0.0205435 0)
(-0.00439071 0.0382189 0)
(-0.00961052 0.0430667 0)
(-0.0142236 0.0432456 0)
(-0.0185351 0.0423078 0)
(-0.0225449 0.041342 0)
(-0.0264015 0.0406569 0)
(-0.030305 0.0404154 0)
(-0.0345159 0.0407747 0)
(-0.0394212 0.0419128 0)
(-0.0456262 0.044036 0)
(-0.0541011 0.0473734 0)
(-0.0663756 0.0521357 0)
(-0.0847725 0.0580779 0)
(-0.112568 0.0622693 0)
(-0.149427 0.0507594 0)
(-0.179691 -0.00637098 0)
(-0.170338 -0.140646 0)
(-0.133075 -0.285443 0)
(-0.0510766 -0.292088 0)
(-0.0010456 0.0233464 0)
(-0.00525117 0.0432841 0)
(-0.0109158 0.04837 0)
(-0.0155684 0.0481826 0)
(-0.0197267 0.0467518 0)
(-0.0234281 0.0453825 0)
(-0.0268171 0.0444742 0)
(-0.0300624 0.0442648 0)
(-0.0333807 0.045013 0)
(-0.0370898 0.0470744 0)
(-0.0416961 0.0509716 0)
(-0.0480354 0.0574491 0)
(-0.0574603 0.0674461 0)
(-0.0716072 0.0807084 0)
(-0.0928629 0.0917343 0)
(-0.118451 0.0785625 0)
(-0.139689 0.00505228 0)
(-0.128191 -0.15962 0)
(-0.120209 -0.336732 0)
(-0.0457135 -0.394057 0)
(-0.00141818 0.0267812 0)
(-0.00625521 0.0478592 0)
(-0.0126367 0.0523577 0)
(-0.0174902 0.0512611 0)
(-0.0215717 0.0493467 0)
(-0.0248409 0.0477903 0)
(-0.0275172 0.046856 0)
(-0.0297649 0.0467184 0)
(-0.0317077 0.0476652 0)
(-0.0334746 0.0501717 0)
(-0.035274 0.0550056 0)
(-0.0373985 0.0632559 0)
(-0.040506 0.076237 0)
(-0.0446601 0.0929907 0)
(-0.0513763 0.106625 0)
(-0.0569783 0.0909081 0)
(-0.067031 0.0117433 0)
(-0.0590352 -0.158238 0)
(-0.0848708 -0.359227 0)
(-0.0257806 -0.471111 0)
(-0.00348732 0.02991 0)
(-0.0106231 0.0562963 0)
(-0.0164231 0.0607215 0)
(-0.0204673 0.0591281 0)
(-0.0235369 0.0558121 0)
(-0.025997 0.052855 0)
(-0.0279045 0.0506736 0)
(-0.0292223 0.0494958 0)
(-0.0298415 0.0495908 0)
(-0.0295873 0.0513961 0)
(-0.028236 0.055698 0)
(-0.0253119 0.0635449 0)
(-0.0208721 0.0763701 0)
(-0.0129242 0.0924914 0)
(-0.00433023 0.106157 0)
(0.0114538 0.0912743 0)
(0.0115583 0.0168175 0)
(0.0150998 -0.136665 0)
(-0.0418487 -0.351471 0)
(-0.00559744 -0.510027 0)
(-0.00114753 0.0438509 0)
(-0.00860666 0.0586954 0)
(-0.0193989 0.0594553 0)
(-0.0238232 0.0550065 0)
(-0.0276267 0.0517876 0)
(-0.0296149 0.0494998 0)
(-0.0305169 0.0479401 0)
(-0.0303597 0.047002 0)
(-0.0290575 0.046865 0)
(-0.0262845 0.0478384 0)
(-0.0215738 0.0506438 0)
(-0.0136889 0.0558584 0)
(-0.00252991 0.0648064 0)
(0.0156833 0.0760732 0)
(0.0360551 0.0850699 0)
(0.0664308 0.0735639 0)
(0.0720634 0.0128786 0)
(0.0747705 -0.104807 0)
(-0.00195387 -0.321924 0)
(0.0203209 -0.519758 0)
(-0.0124383 0.0327617 0)
(-0.0242436 0.0798837 0)
(-0.0237378 0.0788658 0)
(-0.0299445 0.073712 0)
(-0.031873 0.0664214 0)
(-0.0320519 0.06026 0)
(-0.0303527 0.0551818 0)
(-0.0270887 0.0511436 0)
(-0.0223508 0.0481328 0)
(-0.0158431 0.0460066 0)
(-0.00763912 0.0451751 0)
(0.00385699 0.0457797 0)
(0.018197 0.0489492 0)
(0.0394911 0.0535061 0)
(0.0606496 0.0584304 0)
(0.0955165 0.0512254 0)
(0.101273 0.0146342 0)
(0.124391 -0.0679102 0)
(0.0539515 -0.286758 0)
(0.0604525 -0.502778 0)
(-0.0772991 0.0966414 0)
(-0.0630334 0.0593374 0)
(-0.0654682 0.0599104 0)
(-0.0440435 0.0532366 0)
(-0.026969 0.0463346 0)
(-0.00717914 0.0411765 0)
(0.0114785 0.0374374 0)
(0.0303031 0.0342423 0)
(0.0476189 0.0318571 0)
(0.0660975 0.0296044 0)
(0.0820597 0.0282721 0)
(0.102114 0.0272351 0)
(0.116785 0.0271226 0)
(0.144937 0.0276238 0)
(0.15623 0.0245244 0)
(0.203323 0.0181147 0)
(0.197191 -0.0159494 0)
(0.236504 -0.0791263 0)
(0.16399 -0.261282 0)
(0.126777 -0.440727 0)
(0.119707 0.140764 0)
(0.152416 0.0861789 0)
(0.22926 0.063586 0)
(0.284651 0.0481335 0)
(0.325896 0.0374563 0)
(0.364274 0.0296558 0)
(0.392764 0.0242186 0)
(0.424133 0.0202142 0)
(0.443943 0.0172837 0)
(0.472487 0.0151094 0)
(0.485275 0.0133503 0)
(0.51487 0.0122951 0)
(0.520123 0.0111802 0)
(0.554271 0.0107047 0)
(0.54926 0.00914114 0)
(0.585745 0.00522784 0)
(0.556815 -0.00433681 0)
(0.565342 -0.0276141 0)
(0.428519 -0.0727086 0)
(0.276136 -0.152135 0)
)
;

boundaryField
{
    movingWall
    {
        type            fixedValue;
        value           uniform (1 0 0);
    }
    fixedWalls
    {
        type            noSlip;
    }
    frontAndBack
    {
        type            empty;
    }
}


// ************************************************************************* //
