/*--------------------------------*- C++ -*----------------------------------*\
  =========                 |
  \\      /  F ield         | OpenFOAM: The Open Source CFD Toolbox
   \\    /   O peration     | Website:  https://openfoam.org
    \\  /    A nd           | Version:  10
     \\/     M anipulation  |
\*---------------------------------------------------------------------------*/
FoamFile
{
    format      ascii;
    class       surfaceScalarField;
    location    "4.35";
    object      phi;
}
// * * * * * * * * * * * * * * * * * * * * * * * * * * * * * * * * * * * * * //

dimensions      [0 3 -1 0 0 0 0];

internalField   nonuniform List<scalar> 
760
(
-8.75271e-06
8.7527e-06
-2.82543e-05
1.95016e-05
-5.03552e-05
2.21009e-05
-7.22791e-05
2.19239e-05
-9.31775e-05
2.08984e-05
-0.000112604
1.94265e-05
-0.000130124
1.75199e-05
-0.000145244
1.51203e-05
-0.000157408
1.21637e-05
-0.000166001
8.59344e-06
-0.000170371
4.36956e-06
-0.000169853
-5.17797e-07
-0.000163833
-6.02002e-06
-0.000151841
-1.19923e-05
-0.000133653
-1.81875e-05
-0.000109429
-2.42245e-05
-7.99431e-05
-2.94857e-05
-4.71674e-05
-3.27757e-05
-1.61375e-05
-3.10299e-05
-1.61375e-05
-2.02722e-05
2.90249e-05
-5.63306e-05
5.556e-05
-9.58868e-05
6.16571e-05
-0.000134713
6.07496e-05
-0.000171296
5.74822e-05
-0.000204744
5.28747e-05
-0.000234249
4.70247e-05
-0.000258985
3.98559e-05
-0.000278089
3.12681e-05
-0.000290668
2.11724e-05
-0.000295786
9.4875e-06
-0.00029266
-3.64422e-06
-0.000280428
-1.82517e-05
-0.00025857
-3.38503e-05
-0.000226924
-4.98332e-05
-0.000185895
-6.52539e-05
-0.000136779
-7.86022e-05
-8.26288e-05
-8.69255e-05
-3.07502e-05
-8.29084e-05
-4.68878e-05
-2.42787e-05
5.33036e-05
-6.63184e-05
9.75997e-05
-0.000112051
0.00010739
-0.000156747
0.000105445
-0.00019874
9.94757e-05
-0.000237044
9.1178e-05
-0.000270767
8.0748e-05
-0.000299011
6.81e-05
-0.000320845
5.3102e-05
-0.000335304
3.56312e-05
-0.000341442
1.5626e-05
-0.000338173
-6.91372e-06
-0.000324595
-3.18297e-05
-0.000300018
-5.84268e-05
-0.000264115
-8.57357e-05
-0.000217169
-0.0001122
-0.0001605
-0.000135271
-9.75112e-05
-0.000149914
-3.66438e-05
-0.000143776
-8.35315e-05
-2.59091e-05
7.92127e-05
-7.08608e-05
0.000142551
-0.00011968
0.000156209
-0.000167393
0.000153158
-0.000212312
0.000144395
-0.000253459
0.000132325
-0.000289951
0.00011724
-0.000320887
9.90366e-05
-0.000345317
7.75314e-05
-0.000362219
5.2533e-05
-0.000370509
2.39167e-05
-0.000369046
-8.37716e-06
-0.000356503
-4.43729e-05
-0.000331828
-8.31019e-05
-0.000294259
-0.000123304
-0.000243702
-0.000162757
-0.000181296
-0.000197678
-0.000110725
-0.000220485
-4.17273e-05
-0.000212774
-0.000125259
-2.72976e-05
0.00010651
-7.49569e-05
0.000190211
-0.000126752
0.000208004
-0.000177469
0.000203875
-0.000225418
0.000192344
-0.00026966
0.000176566
-0.000309356
0.000156936
-0.000343637
0.000133318
-0.00037155
0.000105444
-0.000392017
7.3e-05
-0.000403805
3.57043e-05
-0.000405551
-6.63024e-06
-0.000395484
-5.44408e-05
-0.00037197
-0.000106615
-0.000333509
-0.000161765
-0.000279227
-0.000217039
-0.000209778
-0.000267127
-0.000129151
-0.000301113
-4.89794e-05
-0.000292945
-0.000174238
-2.90012e-05
0.000135512
-7.99414e-05
0.000241151
-0.000135361
0.000263424
-0.000189746
0.00025826
-0.000241408
0.000244006
-0.000289474
0.000224632
-0.000333183
0.000200646
-0.000371737
0.000171871
-0.00040422
0.000137927
-0.000429524
9.83036e-05
-0.000446255
5.24354e-05
-0.000452915
3.01036e-08
-0.000446983
-6.03733e-05
-0.000426107
-0.000127491
-0.000387643
-0.00020023
-0.000329404
-0.000275277
-0.000250965
-0.000345566
-0.000156406
-0.000395672
-6.00822e-05
-0.000389269
-0.00023432
-3.11338e-05
0.000166645
-8.61031e-05
0.00029612
-0.000145935
0.000323256
-0.000204746
0.000317071
-0.000260857
0.000300117
-0.000313497
0.000277272
-0.000362033
0.000249181
-0.000405796
0.000215635
-0.000443987
0.000176118
-0.000475558
0.000129874
-0.000499074
7.59521e-05
-0.000512495
1.34505e-05
-0.000513222
-5.96464e-05
-0.000497478
-0.000143235
-0.000461025
-0.000236683
-0.000399538
-0.000336763
-0.000310421
-0.000434684
-0.000197058
-0.000509034
-7.74887e-05
-0.000508838
-0.000311809
-3.37274e-05
0.000200373
-9.35285e-05
0.000355921
-0.000158573
0.0003883
-0.00022253
0.000381028
-0.000283752
0.000361338
-0.000341612
0.000335133
-0.000395673
0.000303242
-0.000445489
0.000265451
-0.000490488
0.000221118
-0.000529812
0.000169198
-0.0005621
0.00010824
-0.000585142
3.64932e-05
-0.000595954
-4.88342e-05
-0.000589385
-0.000149804
-0.000558975
-0.000267094
-0.000497037
-0.000398701
-0.000396897
-0.000534824
-0.00025918
-0.000646751
-0.000106201
-0.000661817
-0.00041801
-3.68347e-05
0.000237207
-0.00010233
0.000421416
-0.00017338
0.00045935
-0.000243129
0.000450777
-0.000309984
0.000428194
-0.00037353
0.000398678
-0.000433607
0.000363318
-0.000490109
0.000321954
-0.000542851
0.000273859
-0.000591375
0.000217721
-0.00063467
0.000151535
-0.000670726
7.25492e-05
-0.000696402
-2.31578e-05
-0.000705312
-0.000140894
-0.000688294
-0.000284112
-0.000632783
-0.000454211
-0.000524983
-0.000642624
-0.000358471
-0.000813263
-0.000157526
-0.000862761
-0.000575537
-4.0574e-05
0.000277781
-0.000112735
0.000493577
-0.000190585
0.0005372
-0.000266663
0.000526856
-0.000339482
0.000501013
-0.000408909
0.000468106
-0.000475165
0.000429574
-0.00053862
0.000385409
-0.00059967
0.00033491
-0.000658556
0.000276607
-0.000715048
0.000208026
-0.000767867
0.000125368
-0.000814497
2.34727e-05
-0.000848124
-0.000107268
-0.000857042
-0.000275193
-0.000822565
-0.000488689
-0.000719678
-0.000745511
-0.0005274
-0.00100554
-0.00025872
-0.00113144
-0.000834256
-4.51854e-05
0.000322967
-0.000125187
0.000573579
-0.000210645
0.000622657
-0.000293445
0.000609656
-0.000372289
0.000579857
-0.000447425
0.000543242
-0.000519555
0.000501704
-0.000589656
0.00045551
-0.000658914
0.000404167
-0.000728614
0.000346308
-0.000799909
0.000279321
-0.000873279
0.000198738
-0.000947247
9.74402e-05
-0.00101825
-3.62649e-05
-0.0010732
-0.00022024
-0.00108826
-0.000473632
-0.0010239
-0.000809868
-0.000831615
-0.00119783
-0.000476153
-0.0014869
-0.00131041
-5.11328e-05
0.0003741
-0.000140493
0.000662939
-0.000234387
0.000716552
-0.000324101
0.00069937
-0.00040868
0.000664436
-0.000488878
0.00062344
-0.000565967
0.000578793
-0.000641616
0.000531159
-0.000717942
0.000480493
-0.000797587
0.000425953
-0.000883727
0.00036546
-0.000979803
0.000294815
-0.00108849
0.00020613
-0.00121041
8.56474e-05
-0.00133976
-9.08886e-05
-0.0014545
-0.00035889
-0.00150086
-0.000763508
-0.00137487
-0.00132381
-0.000906557
-0.00195522
-0.00221697
-5.93089e-05
0.000433409
-0.000160081
0.000763711
-0.000263224
0.000819694
-0.000359729
0.000795875
-0.000449282
0.000753989
-0.00053332
0.000707477
-0.00061374
0.000659214
-0.000692865
0.000610285
-0.000773692
0.000561319
-0.00086026
0.000512521
-0.000958148
0.000463348
-0.00107498
0.000411649
-0.00122071
0.000351854
-0.00140659
0.000271535
-0.00164386
0.000146379
-0.00192824
-7.45083e-05
-0.00219075
-0.000501003
-0.00220079
-0.00131377
-0.00154195
-0.00261406
-0.00375891
-7.17041e-05
0.000505113
-0.000186803
0.00087881
-0.00029947
0.000932362
-0.000401784
0.000898189
-0.000494934
0.000847139
-0.000581115
0.000793658
-0.000662648
0.000740747
-0.000742274
0.00068991
-0.000823622
0.000642667
-0.000911842
0.000600741
-0.00101474
0.000566243
-0.00114462
0.000541532
-0.00132098
0.000528212
-0.00157237
0.00052293
-0.00193358
0.000507582
-0.0024161
0.00040802
-0.00291144
-5.66685e-06
-0.00298867
-0.00123654
-0.00200181
-0.00360092
-0.00576072
-8.73292e-05
0.000592442
-0.000220486
0.00101197
-0.000344958
0.00105683
-0.000454526
0.00100776
-0.000550024
0.000942638
-0.000635257
0.000878891
-0.000713953
0.000819444
-0.000789403
0.00076536
-0.000865012
0.000718276
-0.000945371
0.000681099
-0.00103848
0.000659358
-0.0011589
0.000661946
-0.00133338
0.000702694
-0.00160452
0.000794071
-0.00202695
0.000930014
-0.00259748
0.000978546
-0.00315603
0.000552882
-0.00312575
-0.00126682
-0.0019416
-0.00478507
-0.00770232
-0.000150386
0.000742828
-0.000296024
0.0011576
-0.00041457
0.00117538
-0.00051395
0.00110714
-0.000603128
0.00103182
-0.000684831
0.000960594
-0.000760405
0.000895017
-0.000830706
0.000835661
-0.000897268
0.000784838
-0.000962399
0.000746231
-0.00103143
0.000728386
-0.00111448
0.000744998
-0.00123468
0.000822893
-0.00142151
0.000980897
-0.00172473
0.00123324
-0.00209723
0.00135104
-0.00245049
0.000906145
-0.00239885
-0.00131847
-0.00154605
-0.00563788
-0.00924837
-0.000102179
0.000845007
-0.000312929
0.00136835
-0.000477328
0.00133978
-0.000602145
0.00123195
-0.000696298
0.00112597
-0.00076883
0.00103313
-0.000826206
0.000952393
-0.000871739
0.000881194
-0.000906983
0.000820082
-0.000930699
0.000769947
-0.000941226
0.000738913
-0.000934419
0.000738191
-0.000913451
0.000801925
-0.000870122
0.000937569
-0.000835618
0.00119874
-0.000813716
0.00132914
-0.000863945
0.000956374
-0.000982402
-0.00120001
-0.000751065
-0.00586921
-0.00999943
-0.000389804
0.00123481
-0.000497841
0.00147639
-0.00060095
0.00144289
-0.000695905
0.00132691
-0.000748154
0.00117822
-0.000766685
0.00105166
-0.000760896
0.000946604
-0.000734649
0.000854947
-0.000693674
0.000779108
-0.000634367
0.00071064
-0.00055724
0.000661785
-0.000446133
0.000627085
-0.000286268
0.00064206
-4.51668e-05
0.000696467
0.000322358
0.000831216
0.000758827
0.000892672
0.00125695
0.000458255
0.00120156
-0.00114463
0.000700112
-0.00536776
-0.00929932
-0.00132887
0.00256368
-0.00127901
0.00142653
-0.00103542
0.0011993
-0.000688065
0.000979557
-0.000320429
0.000810582
4.50749e-05
0.000686153
0.000394223
0.000597456
0.000721725
0.000527444
0.00103031
0.000470525
0.00131693
0.000424014
0.00159374
0.000384982
0.00186527
0.00035555
0.00216534
0.00034199
0.00252165
0.000340162
0.00302685
0.000326009
0.00366207
0.000257453
0.00426349
-0.000143165
0.00425371
-0.00113484
0.00268238
-0.00379644
-0.00661694
0.00256368
0.00399021
0.00518951
0.00616906
0.00697965
0.0076658
0.00826325
0.0087907
0.00926122
0.00968524
0.0100702
0.0104258
0.0107678
0.0111079
0.0114339
0.0116914
0.0115482
0.0104134
0.00661694
)
;

boundaryField
{
    movingWall
    {
        type            calculated;
        value           uniform 0;
    }
    fixedWalls
    {
        type            calculated;
        value           uniform 0;
    }
    frontAndBack
    {
        type            empty;
        value           nonuniform List<scalar> 0();
    }
}


// ************************************************************************* //
