/*--------------------------------*- C++ -*----------------------------------*\
  =========                 |
  \\      /  F ield         | OpenFOAM: The Open Source CFD Toolbox
   \\    /   O peration     | Website:  https://openfoam.org
    \\  /    A nd           | Version:  10
     \\/     M anipulation  |
\*---------------------------------------------------------------------------*/
FoamFile
{
    format      ascii;
    class       surfaceScalarField;
    location    "2.85";
    object      phi;
}
// * * * * * * * * * * * * * * * * * * * * * * * * * * * * * * * * * * * * * //

dimensions      [0 3 -1 0 0 0 0];

internalField   nonuniform List<scalar> 
928
(
0.0942979
0.00570211
0.103049
-0.00875067
0.106352
-0.00330337
-0.00910795
0.11546
0.0937906
0.0119115
0.105105
-0.0200654
0.102168
-0.000366577
-0.0183908
0.111451
0.0965529
0.0153586
0.110514
-0.0340261
0.104311
0.0058358
-0.0393744
0.125295
0.104731
0.0106276
0.0918118
-0.0211069
0.0973811
0.000266527
0.145564
-0.0875574
0.111183
0.00427723
-0.0167743
0.127957
0.110092
0.00563628
-0.0411332
0.134451
0.129397
0.00153405
-0.0498789
0.138143
0.147098
0.0972192
0.128679
-0.000722276
0.129666
-0.000986575
0.131262
-0.00159659
-0.00118831
0.132451
0.138575
-0.00484629
0.138317
-0.00072828
0.139014
-0.00229401
-0.00154421
0.13937
0.142563
-0.00926636
0.140623
0.00121196
0.146747
-0.00841872
0.0019378
0.143265
0.106896
-0.0189435
0.0809927
0.0271156
0.0962512
-0.0236772
0.09489
0.00329894
0.132467
-1.64749e-05
0.130784
0.00168278
0.128374
0.00241055
0.126479
0.00189479
0.124282
0.00219698
0.122331
0.00195088
0.120824
0.00150758
0.120298
0.000525401
0.120645
-0.000346483
0.121165
-0.000520303
0.122145
-0.000979779
0.122379
-0.000234654
0.121928
0.000450938
0.120943
0.000984994
0.119048
0.0018955
0.117609
0.00143932
0.115668
0.00194043
0.115037
0.000631362
0.114123
0.000913378
0.114407
-0.000283138
0.114915
-0.000508745
0.115543
-0.000628
0.11653
-0.000986701
0.115805
0.000724623
0.115392
0.000413437
0.112281
0.00311068
0.109614
0.0026678
0.105222
0.00439155
0.102233
0.00298906
0.0996428
0.00259016
0.0984764
0.00116636
0.0995584
-0.001082
0.100994
-0.00143577
0.105073
-0.00407875
0.107677
-0.00260427
0.111188
-0.00351082
0.112056
-0.000867724
0.112196
-0.000140598
0.10959
0.00260673
0.00417041
0.138134
0.00121993
0.136799
0.0030178
0.135898
0.00331152
0.134766
0.00302686
0.132737
0.00422581
0.131162
0.00352561
0.130315
0.00235498
0.129882
0.000958673
0.129834
-0.000298881
0.130621
-0.00130689
0.131268
-0.00162706
0.131866
-0.000832563
0.131301
0.00101549
0.130785
0.00150096
0.129286
0.0033945
0.128016
0.00270951
0.125886
0.00407086
0.124977
0.00153988
0.124378
0.00151273
0.124557
-0.000462522
0.125934
-0.00188586
0.1269
-0.00159365
0.128801
-0.00288782
0.12879
0.000735195
0.129225
-2.10021e-05
0.127425
0.00491051
0.125836
0.00425698
0.122859
0.00736806
0.119593
0.00625543
0.11674
0.00544344
0.114153
0.00375324
0.114007
-0.000936658
0.114327
-0.0017549
0.117575
-0.00732711
0.119723
-0.00475244
0.123427
-0.00721421
0.125972
-0.0034137
0.127341
-0.00150934
0.127939
0.00200852
0.00572347
0.13622
0.00826509
0.137382
0.00185569
0.138708
0.00198547
0.136867
0.00486872
0.13653
0.00456213
0.136376
0.00367955
0.135359
0.00337174
0.133982
0.00233648
0.133987
-0.000303892
0.134524
-0.00184402
0.133746
-0.000849556
0.133316
-0.00040226
0.132677
0.00165451
0.131575
0.00260262
0.129881
0.00508895
0.127845
0.00474496
0.126565
0.00535127
0.124826
0.00327897
0.12392
0.00241876
0.123449
8.82013e-06
0.123796
-0.00223352
0.125014
-0.00281145
0.126474
-0.00434788
0.128752
-0.00154245
0.130578
-0.00184762
0.131119
0.00436982
0.12953
0.00584594
0.126088
0.0108102
0.121916
0.0104278
0.117954
0.00940486
0.114999
0.00670866
0.113057
0.00100516
0.111716
-0.000413942
0.112257
-0.00786786
0.112732
-0.0052273
0.11588
-0.0103627
0.118759
-0.00629288
0.121972
-0.0047216
0.126344
-0.00236401
0.00525254
0.0889151
0.01424
0.0995058
-0.00873498
0.103332
-0.00184114
0.0995382
0.00866289
0.10591
-0.00180998
0.109605
-1.50457e-05
0.107879
0.00509788
0.109992
0.000223699
0.112013
-0.00232522
0.11052
-0.000351182
0.109461
0.000209903
0.109004
5.45652e-05
0.109431
0.00122683
0.109191
0.00284264
0.109022
0.00525867
0.107
0.00676631
0.103868
0.00848334
0.0994263
0.00772092
0.0961361
0.00570891
0.0932867
0.00285831
0.0911866
-0.000133438
0.0912354
-0.00286026
0.0930447
-0.0061572
0.0979258
-0.00642354
0.102439
-0.00636046
0.109566
-0.00275726
0.114242
0.0011699
0.120648
0.00440391
0.123802
0.00727395
0.123119
0.0100875
0.118811
0.0110168
0.110187
0.00962882
0.101606
0.00816716
0.0919681
0.00177037
0.0885781
-0.00183725
0.0868641
-0.00864879
0.0902735
-0.00970226
0.095437
-0.00988508
0.101802
-0.00872942
-4.35811e-05
0.11127
-0.000642507
0.0888809
0.00128231
0.089081
6.64505e-05
0.00152353
0.108976
-0.00961825
0.0891531
0.021105
0.0858017
0.0034178
0.0873253
-0.0093376
-0.0096059
-0.0239037
0.0416816
-0.00927668
-0.0383041
-0.0141798
0.00820203
-0.018381
0.0087751
0.0136098
0.0096908
-0.0114129
-0.0132814
-0.0192308
-0.00636193
-0.0117352
0.0341773
-0.00707645
-0.0133937
0.0095983
-0.0185159
0.0063106
0.0119506
0.0102552
-0.00575456
0.0166081
-0.00636793
0.0149601
0.00674581
0.0130222
0.00216168
0.0150173
-0.00432038
0.0178861
-0.00322
0.0180512
4.48612e-05
0.0170212
0.00108452
0.0164977
0.00175037
0.0176002
0.00174013
0.0197234
0.00313548
0.0213483
0.00514143
0.0221826
0.00764901
0.0228937
0.00700986
0.0241594
0.00444322
0.0261111
0.000906567
0.0289249
-0.00294724
0.0325753
-0.00651061
0.0366362
-0.0102181
0.0420315
-0.0118189
0.0466556
-0.0109845
0.0508421
-0.00694373
0.0544805
-0.00246853
0.0551586
0.00372581
0.0537373
0.0086952
0.0514331
0.0123917
0.0486412
0.0138087
0.0468488
0.0114212
0.0469321
0.00808392
0.0484081
0.000294372
0.0506482
-0.00407741
0.0547414
-0.0127419
0.0594537
-0.0144146
0.0647144
-0.0151459
0.0708782
-0.0148932
-0.00297373
0.0130143
0.00193222
0.0143615
-0.014741
0.00415764
-0.00831199
0.0167452
-0.000636966
0.0171326
-0.00614201
0.012075
-0.00131033
0.0162802
0.00254064
0.0171268
0.00131512
0.0111616
0.00164474
0.00685562
0.00108602
0.00522623
0.00167424
0.00601524
0.000295519
0.00805718
-0.000291568
0.0103945
-0.000597171
0.0125649
0.000965051
0.0159309
0.00177539
0.0208469
0.00273307
0.0261073
0.00174942
0.0299858
0.000564744
0.0327572
-0.00186482
0.0343447
-0.00453472
0.0346219
-0.00678786
0.0341198
-0.00971598
0.0328319
-0.010531
0.0321528
-0.0103054
0.0326415
-0.00743241
0.0341809
-0.00400798
0.0358355
0.00207125
0.0382665
0.00626412
0.0430583
0.00759999
0.0469743
0.00989263
0.0519061
0.00648947
0.0562691
0.00372088
0.0591907
-0.00262718
0.0602032
-0.00508997
0.0579676
-0.0105062
0.0554249
-0.0118719
0.0537281
-0.0134491
0.0525918
-0.0137569
-0.00242755
0.103479
-0.0130976
0.0949101
0.0296742
0.102291
-0.00396308
0.0404237
0.149193
0.0960332
-0.00913087
0.104795
0.0209126
0.102858
-0.00202603
0.0210422
0.122239
0.0947153
-0.00384622
0.106783
0.00884534
0.102414
0.00234233
0.0103367
0.11312
0.0961538
0.104999
0.107341
0.117678
0.157186
-0.00799322
0.0436959
0.11349
0.122002
-0.00775585
0.040764
0.124934
0.109774
-0.00441009
0.016339
0.134199
0.113268
0.129607
0.114459
0.00780576
0.122395
0.00175447
0.113024
-0.00390969
-0.00326279
0.109925
0.132207
0.000532471
0.134292
-0.000330662
0.130893
-0.000510083
-0.00152478
0.129155
0.135061
-0.000329341
0.134396
0.000333856
0.134351
-0.000465076
-0.000570561
0.133397
0.129278
0.129612
0.129146
0.128576
0.116142
-0.00428545
0.10629
-0.004889
0.100323
-0.00234509
0.0987268
0.000959645
0.0914582
0.00112659
0.0880871
0.00206078
0.0875033
0.00312447
0.0857325
0.00308589
0.0845932
0.00278402
0.0829993
0.00267993
0.0824521
0.00222152
0.0811984
0.00154922
0.0799531
0.00095367
0.0800485
-0.000692564
0.0815377
-0.00052415
0.0850536
-0.00174047
0.0890762
-0.0012895
0.094424
-0.0035984
0.0999754
-0.00498664
0.104983
-0.00687256
0.108491
-0.00804286
0.109479
-0.00777549
0.106837
-0.00707363
0.100712
-0.00440603
0.0932622
-0.00285601
0.0848952
0.00093457
0.0794839
0.00140326
0.0768745
0.00468069
0.0786981
0.00444048
0.0820554
0.00424271
0.0889801
0.00296793
0.0968647
-0.00139509
0.103685
-0.00309938
0.109788
-0.00873065
0.111877
-0.00717865
0.108566
-0.0071949
0.100381
-0.00368719
0.0882644
-0.00133249
0.0759055
-0.00139792
0.00227437
0.127489
-0.00261932
0.125528
-0.0029287
0.125378
-0.0021944
0.126649
-0.000312214
0.12633
0.0014457
0.126757
0.00163366
0.128687
0.00119486
0.129926
0.00184679
0.130188
0.00252237
0.130322
0.00254568
0.131102
0.00144137
0.132288
0.000363563
0.133436
-0.000194715
0.133648
-0.00090397
0.134177
-0.0010531
0.13514
-0.00270383
0.136439
-0.00258861
0.137451
-0.00461007
0.137194
-0.00473006
0.136499
-0.00617712
0.134199
-0.00574333
0.13208
-0.00565623
0.130106
-0.00509999
0.12785
-0.00214985
0.126069
-0.00107488
0.123838
0.00316592
0.122526
0.00271519
0.122052
0.00515446
0.123027
0.00346509
0.124762
0.00250819
0.127117
0.000612364
0.129528
-0.00380607
0.130015
-0.00358596
0.129195
-0.00791046
0.127249
-0.00523268
0.126832
-0.00677814
0.126389
-0.00324455
0.125158
-0.000101422
0.122424
0.00133617
0.00437624
0.130998
-0.000220014
0.129421
-0.00135219
0.128709
-0.00148241
0.129346
-0.000949222
0.130136
0.000655995
0.131107
0.000662613
0.131896
0.000405658
0.133554
0.000189325
0.135275
0.000800785
0.136463
0.0013577
0.137326
0.000578302
0.137605
8.44989e-05
0.138331
-0.000920383
0.138153
-0.000726029
0.137967
-0.000867258
0.136853
-0.00158944
0.135863
-0.00159864
0.133885
-0.00263204
0.131597
-0.0024419
0.128854
-0.00343482
0.126059
-0.00294788
0.123483
-0.00308028
0.120712
-0.00232896
0.119469
-0.000906619
0.11891
-0.00051598
0.120272
0.00180395
0.121604
0.00138274
0.124018
0.00274056
0.126059
0.00142407
0.127724
0.000843805
0.128677
-0.000341388
0.127592
-0.0027205
0.126791
-0.0027849
0.123736
-0.00485534
0.121212
-0.00270894
0.1178
-0.00336673
0.115472
-0.000916292
0.115027
0.000343594
0.11539
0.000973729
0.0025295
0.128356
0.127004
0.125521
0.124572
0.125228
0.125891
0.126296
0.126486
0.127286
0.128644
0.129222
0.129307
0.128387
0.127661
0.126793
0.125204
0.123605
0.120973
0.118531
0.115096
0.112149
0.109068
0.106739
0.105833
0.105317
0.107121
0.108503
0.111244
0.112668
0.113512
0.11317
0.11045
0.107665
0.10281
0.100101
0.096734
0.0958177
0.0961613
0.0971351
)
;

boundaryField
{
    inlet
    {
        type            calculated;
        value           nonuniform List<scalar> 10(-0.1 -0.1 -0.1 -0.1 -0.1 -0.1 -0.1 -0.1 -0.1 -0.1);
    }
    outlet
    {
        type            calculated;
        value           nonuniform List<scalar> 10(0.105419 0.126386 0.126815 0.107099 0.0738084 0.0520456 0.0712036 0.120322 0.117236 0.0996646);
    }
    obstacle
    {
        type            calculated;
        value           uniform 0;
    }
    upperWall
    {
        type            calculated;
        value           uniform 0;
    }
    lowerWall
    {
        type            calculated;
        value           uniform 0;
    }
    frontAndBack
    {
        type            empty;
        value           nonuniform List<scalar> 0();
    }
}


// ************************************************************************* //
