/*--------------------------------*- C++ -*----------------------------------*\
  =========                 |
  \\      /  F ield         | OpenFOAM: The Open Source CFD Toolbox
   \\    /   O peration     | Website:  https://openfoam.org
    \\  /    A nd           | Version:  10
     \\/     M anipulation  |
\*---------------------------------------------------------------------------*/
FoamFile
{
    format      ascii;
    class       volVectorField;
    location    "0.325";
    object      U;
}
// * * * * * * * * * * * * * * * * * * * * * * * * * * * * * * * * * * * * * //

dimensions      [0 1 -1 0 0 0 0];

internalField   nonuniform List<vector> 
496
(
(9.94729 0.0603569 0)
(9.98747 -0.15511 0)
(10.1957 -0.135169 0)
(10.7849 -0.203298 0)
(10.0203 0.421844 0)
(9.88105 -1.1512 0)
(10.2374 -0.407409 0)
(10.8907 -1.0595 0)
(10.8013 1.27572 0)
(9.14546 -2.81089 0)
(11.2158 -0.23755 0)
(10.81 -3.89051 0)
(11.9195 1.46578 0)
(8.22578 -2.56284 0)
(12.6233 0.63293 0)
(10.2901 -6.47097 0)
(11.3947 -0.217323 2.23914e-19)
(12.1132 -0.156209 2.2268e-18)
(11.6067 -0.481309 -3.44322e-18)
(12.4765 0.232181 4.73959e-18)
(13.0365 -2.08184 3.21987e-18)
(13.2291 -0.238922 -6.96833e-18)
(12.9383 -5.53627 -4.7861e-17)
(15.797 -4.27609 7.62681e-17)
(12.576 -0.152693 0)
(12.8231 -0.103546 0)
(12.8508 0.01227 0)
(12.7724 0.174622 0)
(12.9873 0.208104 0)
(13.3657 -0.116583 0)
(13.5333 -0.438533 0)
(13.5673 -0.644381 0)
(12.62 0.955505 0)
(12.6729 1.48639 0)
(12.8296 1.38577 0)
(13.0782 1.32417 0)
(10.6378 -2.96259 0)
(10.3354 -1.86567 0)
(9.33897 -1.95136 0)
(9.96462 -1.29369 0)
(12.6505 0.358778 0)
(12.5321 0.514556 0)
(12.3764 0.656327 0)
(12.2379 0.744979 0)
(12.0517 0.772186 0)
(11.8642 0.785343 0)
(11.6358 0.805483 0)
(11.4712 0.840149 0)
(11.2538 0.877133 0)
(11.0532 0.912029 0)
(10.7762 0.936281 0)
(10.5419 0.964384 0)
(10.2693 0.993266 0)
(10.1067 1.017 0)
(9.96976 1.03976 0)
(9.84647 1.06601 0)
(9.66814 1.11149 0)
(9.48613 1.15247 0)
(9.35551 1.17485 0)
(9.22454 1.16295 0)
(9.13087 1.11609 0)
(9.03054 1.03856 0)
(8.97703 0.928306 0)
(8.94292 0.800172 0)
(8.92387 0.658735 0)
(8.91874 0.516703 0)
(8.91146 0.384832 0)
(8.91266 0.268346 0)
(8.91811 0.174798 0)
(8.92316 0.103391 0)
(8.93706 0.0517667 0)
(8.95133 0.0178801 0)
(8.96851 -0.00390135 0)
(8.98683 -0.0154412 0)
(9.00197 -0.0206632 0)
(9.01504 -0.0210278 0)
(9.02553 -0.0201917 0)
(9.03335 -0.0161118 0)
(9.03803 -0.0146557 0)
(9.04347 -0.00950202 0)
(13.4736 -0.70948 0)
(13.362 -0.698892 0)
(13.1673 -0.631886 0)
(12.9652 -0.552124 0)
(12.741 -0.508529 0)
(12.5923 -0.489237 0)
(12.4079 -0.481673 0)
(12.2908 -0.481811 0)
(12.1004 -0.506883 0)
(11.9289 -0.546884 0)
(11.6944 -0.598627 0)
(11.5113 -0.64535 0)
(11.3016 -0.680311 0)
(11.1678 -0.716357 0)
(11.0735 -0.764016 0)
(10.9854 -0.81505 0)
(10.8752 -0.836997 0)
(10.7406 -0.844617 0)
(10.6618 -0.853509 0)
(10.5858 -0.869517 0)
(10.5325 -0.880242 0)
(10.457 -0.865417 0)
(10.3862 -0.821003 0)
(10.319 -0.738324 0)
(10.2486 -0.627752 0)
(10.1898 -0.503639 0)
(10.1379 -0.379903 0)
(10.1016 -0.272715 0)
(10.0846 -0.186492 0)
(10.0763 -0.124735 0)
(10.0829 -0.0811005 0)
(10.0963 -0.049368 0)
(10.1148 -0.0277819 0)
(10.1365 -0.0138084 0)
(10.156 -0.00392905 0)
(10.1721 0.00114175 0)
(10.1857 0.00460864 0)
(10.1949 0.00530076 0)
(10.2004 0.00617753 0)
(10.2061 0.00484319 0)
(13.2352 1.22579 0)
(13.3227 1.17326 0)
(13.2898 1.16726 0)
(13.2184 1.22262 0)
(13.0714 1.32882 0)
(12.9779 1.44279 0)
(12.8552 1.54108 0)
(12.7878 1.59379 0)
(12.6328 1.59064 0)
(12.5097 1.56089 0)
(12.3272 1.52399 0)
(12.1886 1.48337 0)
(12.0067 1.45279 0)
(11.8502 1.42939 0)
(11.6964 1.39237 0)
(11.5506 1.33323 0)
(11.408 1.27691 0)
(11.2449 1.23803 0)
(11.1301 1.20692 0)
(11.0063 1.1708 0)
(10.891 1.12136 0)
(10.7379 1.05909 0)
(10.5773 0.975149 0)
(10.4257 0.866543 0)
(10.2871 0.737293 0)
(10.1837 0.594857 0)
(10.1081 0.451736 0)
(10.0618 0.314883 0)
(10.0426 0.193664 0)
(10.0388 0.0961553 0)
(10.0561 0.0221232 0)
(10.0799 -0.0272903 0)
(10.1046 -0.0558637 0)
(10.1317 -0.0674697 0)
(10.1548 -0.0679054 0)
(10.1753 -0.0599608 0)
(10.1917 -0.0512996 0)
(10.2068 -0.0380628 0)
(10.2145 -0.0314154 0)
(10.2266 -0.0183487 0)
(9.82191 -1.34879 0)
(9.92061 -1.19925 0)
(9.9712 -1.10154 0)
(10.0359 -1.00603 0)
(10.0649 -0.856062 0)
(10.1855 -0.688656 0)
(10.285 -0.533977 0)
(10.4623 -0.435254 0)
(10.5698 -0.388881 0)
(10.7229 -0.361378 0)
(10.821 -0.339807 0)
(10.9525 -0.328521 0)
(11.0506 -0.324886 0)
(11.1617 -0.321463 0)
(11.2728 -0.325221 0)
(11.3643 -0.342294 0)
(11.449 -0.360303 0)
(11.4827 -0.3633 0)
(11.526 -0.354683 0)
(11.5451 -0.343799 0)
(11.5763 -0.331775 0)
(11.5976 -0.313355 0)
(11.6176 -0.289721 0)
(11.6417 -0.264993 0)
(11.6523 -0.240262 0)
(11.6509 -0.216036 0)
(11.6222 -0.191117 0)
(11.5611 -0.166645 0)
(11.476 -0.141822 0)
(11.3563 -0.113124 0)
(11.2156 -0.0868107 0)
(11.0632 -0.0645901 0)
(10.9124 -0.0466634 0)
(10.7726 -0.0330978 0)
(10.6527 -0.0231786 0)
(10.5467 -0.0158599 0)
(10.4703 -0.0111668 0)
(10.3994 -0.00734298 0)
(10.3626 -0.00544631 0)
(10.312 -0.00310874 0)
(12.3822 0.626222 -8.36269e-18)
(7.81876 -0.861291 -1.50239e-17)
(11.6537 0.059056 2.55954e-17)
(4.72352 -4.69697 -7.30292e-17)
(12.3846 -0.624603 8.35899e-18)
(7.81674 0.862823 1.50171e-17)
(11.6589 -0.0528975 -2.55839e-17)
(4.72337 4.70026 7.29864e-17)
(-6.92813 2.51266 0)
(6.99889 5.38231 0)
(-3.39848 2.42984 0)
(4.13199 2.81111 0)
(-6.83789 -2.53122 3.62361e-17)
(6.90351 -5.52184 0)
(-3.57893 -2.37018 0)
(4.19899 -2.73484 0)
(-0.0764861 1.32747 0)
(1.71489 1.49745 0)
(1.54201 1.47785 0)
(1.6229 1.45552 0)
(1.87379 1.46119 0)
(2.1967 1.4312 0)
(2.54241 1.36459 0)
(2.99042 1.27904 0)
(3.43656 1.19618 0)
(3.95811 1.12012 0)
(4.36364 1.0582 0)
(4.8217 1.01352 0)
(5.16039 0.987402 0)
(5.58104 0.971647 0)
(5.93318 0.947046 0)
(6.31907 0.918328 0)
(6.66116 0.889223 0)
(6.96985 0.865491 0)
(7.29333 0.840189 0)
(7.58331 0.806351 0)
(7.89736 0.765666 0)
(8.17105 0.717177 0)
(8.43176 0.663779 0)
(8.66939 0.606045 0)
(8.87522 0.547042 0)
(9.06323 0.490125 0)
(9.22277 0.436989 0)
(9.36234 0.388541 0)
(9.4921 0.343682 0)
(9.60497 0.30059 0)
(9.71195 0.260725 0)
(9.8101 0.223231 0)
(9.89642 0.188905 0)
(9.97479 0.155743 0)
(10.0388 0.127107 0)
(10.0925 0.0992118 0)
(10.1326 0.0788361 0)
(10.1682 0.05667 0)
(10.1863 0.0463132 0)
(10.2124 0.0278013 0)
(-0.0810573 -1.32724 0)
(1.72023 -1.498 0)
(1.54292 -1.4764 0)
(1.62246 -1.45375 0)
(1.87365 -1.45994 0)
(2.19695 -1.43081 0)
(2.54318 -1.36499 0)
(2.99138 -1.27962 0)
(3.43757 -1.19662 0)
(3.95867 -1.12022 0)
(4.36363 -1.05804 0)
(4.82129 -1.01316 0)
(5.16026 -0.986973 0)
(5.58151 -0.971003 0)
(5.93438 -0.946163 0)
(6.32083 -0.917173 0)
(6.66326 -0.888031 0)
(6.97233 -0.864752 0)
(7.29606 -0.840053 0)
(7.58628 -0.806989 0)
(7.90031 -0.766854 0)
(8.17389 -0.718768 0)
(8.43436 -0.665502 0)
(8.67161 -0.607633 0)
(8.87692 -0.548296 0)
(9.06427 -0.490917 0)
(9.22314 -0.437454 0)
(9.36204 -0.388709 0)
(9.49124 -0.343781 0)
(9.60388 -0.30078 0)
(9.7109 -0.260855 0)
(9.80919 -0.223062 0)
(9.89557 -0.188298 0)
(9.97399 -0.154852 0)
(10.0381 -0.126132 0)
(10.0919 -0.0983437 0)
(10.1321 -0.0780812 0)
(10.1679 -0.0561006 0)
(10.186 -0.045804 0)
(10.2122 -0.0274736 0)
(11.9202 -1.46705 0)
(8.2264 2.56788 0)
(12.6257 -0.635969 0)
(10.2951 6.48154 0)
(10.8016 -1.27679 0)
(9.14562 2.81504 0)
(11.218 0.237115 0)
(10.8119 3.89627 0)
(10.0204 -0.42265 0)
(9.88096 1.15342 0)
(10.238 0.406812 0)
(10.8913 1.06059 0)
(9.94724 -0.0604258 0)
(9.98731 0.155293 0)
(10.1959 0.135232 0)
(10.7855 0.203058 0)
(12.9425 5.53432 4.80609e-17)
(15.8087 4.28221 -7.65314e-17)
(13.0422 2.08168 0)
(13.2307 0.236157 0)
(11.6082 0.479189 0)
(12.4768 -0.235376 0)
(11.3957 0.217387 0)
(12.1138 0.155635 0)
(10.6395 2.94832 0)
(10.3695 1.88736 0)
(9.30132 1.97049 0)
(9.94289 1.2864 0)
(12.619 -0.963771 0)
(12.6662 -1.50555 0)
(12.8197 -1.39001 0)
(13.0749 -1.32027 0)
(12.9865 -0.21182 0)
(13.3642 0.115825 0)
(13.5296 0.442712 0)
(13.5632 0.649266 0)
(12.5754 0.152822 0)
(12.8205 0.103319 0)
(12.8463 -0.0128496 0)
(12.7681 -0.175169 0)
(9.81636 1.34849 0)
(9.92017 1.20062 0)
(9.96956 1.1032 0)
(10.0331 1.00751 0)
(10.0632 0.857063 0)
(10.185 0.689377 0)
(10.2852 0.534378 0)
(10.4628 0.435306 0)
(10.5706 0.388682 0)
(10.7235 0.361396 0)
(10.8209 0.340194 0)
(10.9515 0.329043 0)
(11.0492 0.325309 0)
(11.1604 0.321735 0)
(11.2718 0.325467 0)
(11.3637 0.342349 0)
(11.4488 0.360069 0)
(11.4829 0.36269 0)
(11.5266 0.353867 0)
(11.5462 0.342801 0)
(11.5778 0.33072 0)
(11.5995 0.312324 0)
(11.6198 0.288864 0)
(11.6439 0.264502 0)
(11.6544 0.240209 0)
(11.6526 0.216506 0)
(11.6232 0.192063 0)
(11.5613 0.167704 0)
(11.4754 0.142513 0)
(11.3551 0.11342 0)
(11.2141 0.0869335 0)
(11.0618 0.0647675 0)
(10.9108 0.0470411 0)
(10.771 0.0336207 0)
(10.651 0.0237307 0)
(10.5452 0.0163278 0)
(10.469 0.0115483 0)
(10.3984 0.00762062 0)
(10.3618 0.00568225 0)
(10.3115 0.00326585 0)
(13.236 -1.22196 0)
(13.3235 -1.17195 0)
(13.2898 -1.16759 0)
(13.2179 -1.22334 0)
(13.0707 -1.32964 0)
(12.9773 -1.44376 0)
(12.8541 -1.5421 0)
(12.7864 -1.59468 0)
(12.6313 -1.59132 0)
(12.5084 -1.56107 0)
(12.3257 -1.52358 0)
(12.187 -1.48258 0)
(12.0052 -1.45178 0)
(11.8496 -1.42832 0)
(11.6964 -1.39138 0)
(11.5509 -1.33266 0)
(11.4081 -1.27694 0)
(11.2446 -1.23866 0)
(11.1294 -1.20797 0)
(11.0048 -1.1722 0)
(10.8887 -1.12299 0)
(10.7347 -1.06093 0)
(10.5737 -0.977039 0)
(10.4219 -0.868156 0)
(10.2834 -0.738275 0)
(10.1805 -0.594987 0)
(10.1048 -0.451069 0)
(10.0583 -0.31383 0)
(10.0391 -0.192745 0)
(10.0361 -0.0954909 0)
(10.0543 -0.0215844 0)
(10.0789 0.0278512 0)
(10.1038 0.0564778 0)
(10.131 0.0680697 0)
(10.1538 0.0684293 0)
(10.1745 0.0603539 0)
(10.1909 0.0515894 0)
(10.2062 0.0382504 0)
(10.2141 0.031558 0)
(10.2263 0.0184399 0)
(13.471 0.712207 0)
(13.3608 0.699959 0)
(13.1667 0.63223 0)
(12.9646 0.552295 0)
(12.7404 0.50877 0)
(12.5918 0.489593 0)
(12.4069 0.482203 0)
(12.2896 0.482384 0)
(12.0992 0.507417 0)
(11.9283 0.547387 0)
(11.6936 0.598991 0)
(11.5104 0.645476 0)
(11.3009 0.680319 0)
(11.1677 0.716341 0)
(11.0738 0.763877 0)
(10.9856 0.814646 0)
(10.8754 0.836432 0)
(10.741 0.844113 0)
(10.6622 0.853354 0)
(10.5858 0.869838 0)
(10.5321 0.881069 0)
(10.4561 0.86645 0)
(10.3851 0.821758 0)
(10.3178 0.738494 0)
(10.2476 0.627637 0)
(10.1888 0.503566 0)
(10.1363 0.379867 0)
(10.0992 0.272616 0)
(10.0817 0.18635 0)
(10.0737 0.124589 0)
(10.0812 0.0810198 0)
(10.0955 0.0494395 0)
(10.1142 0.0279711 0)
(10.1357 0.0140519 0)
(10.1551 0.0041857 0)
(10.1712 -0.000921424 0)
(10.1848 -0.00441686 0)
(10.1943 -0.00516182 0)
(10.1999 -0.0060616 0)
(10.2058 -0.00477191 0)
(12.648 -0.359192 0)
(12.5309 -0.514903 0)
(12.3758 -0.656788 0)
(12.2376 -0.745458 0)
(12.0514 -0.772607 0)
(11.8638 -0.785691 0)
(11.6349 -0.805778 0)
(11.47 -0.84048 0)
(11.2527 -0.877483 0)
(11.0527 -0.912293 0)
(10.7755 -0.936414 0)
(10.5412 -0.964307 0)
(10.269 -0.992943 0)
(10.107 -1.0164 0)
(9.9702 -1.03904 0)
(9.84693 -1.06545 0)
(9.66843 -1.11129 0)
(9.48628 -1.15284 0)
(9.35534 -1.17573 0)
(9.2238 -1.16418 0)
(9.1295 -1.11733 0)
(9.02829 -1.03958 0)
(8.97449 -0.929144 0)
(8.94083 -0.800949 0)
(8.92294 -0.659174 0)
(8.91819 -0.516624 0)
(8.91021 -0.384388 0)
(8.91023 -0.267879 0)
(8.91519 -0.174453 0)
(8.9209 -0.103143 0)
(8.93589 -0.0515818 0)
(8.95106 -0.0177184 0)
(8.96839 0.00401717 0)
(8.9865 0.0155114 0)
(9.00134 0.0206916 0)
(9.01438 0.0210251 0)
(9.02495 0.0201663 0)
(9.03299 0.0160803 0)
(9.03776 0.0146128 0)
(9.04335 0.00946571 0)
)
;

boundaryField
{
    inlet
    {
        type            fixedValue;
        value           uniform (10 0 0);
    }
    outlet
    {
        type            zeroGradient;
    }
    obstacle
    {
        type            noSlip;
    }
    upperWall
    {
        type            noSlip;
    }
    lowerWall
    {
        type            noSlip;
    }
    frontAndBack
    {
        type            empty;
    }
}


// ************************************************************************* //
