/*--------------------------------*- C++ -*----------------------------------*\
  =========                 |
  \\      /  F ield         | OpenFOAM: The Open Source CFD Toolbox
   \\    /   O peration     | Website:  https://openfoam.org
    \\  /    A nd           | Version:  10
     \\/     M anipulation  |
\*---------------------------------------------------------------------------*/
FoamFile
{
    format      ascii;
    class       volVectorField;
    location    "4.025";
    object      U;
}
// * * * * * * * * * * * * * * * * * * * * * * * * * * * * * * * * * * * * * //

dimensions      [0 1 -1 0 0 0 0];

internalField   nonuniform List<vector> 
8000
(
(-6.02164e-05 7.20515e-05 -1.60097e-05)
(-0.00045669 0.000174897 1.78333e-05)
(-0.00109253 0.000197715 2.81345e-05)
(-0.00169667 0.000198813 3.24739e-05)
(-0.00229519 0.000194409 3.18004e-05)
(-0.0028641 0.000187163 2.81425e-05)
(-0.00338905 0.000176495 2.24344e-05)
(-0.00385595 0.000161291 1.49225e-05)
(-0.00424876 0.000140404 5.60572e-06)
(-0.0045502 0.000112721 -5.75785e-06)
(-0.00474147 7.79164e-05 -1.84647e-05)
(-0.0048031 3.60954e-05 -3.24059e-05)
(-0.00471623 -1.33124e-05 -4.7299e-05)
(-0.00446545 -6.89758e-05 -6.28719e-05)
(-0.00404202 -0.000128111 -7.80674e-05)
(-0.00344576 -0.000186896 -9.12469e-05)
(-0.00269151 -0.000239644 -9.9453e-05)
(-0.00182836 -0.000276412 -9.80921e-05)
(-0.000846115 -0.000271349 -8.39849e-05)
(-0.000156631 -0.000139381 -2.67612e-05)
(-0.000161074 0.000505641 -6.48484e-05)
(-0.000864417 0.000914873 -3.44051e-05)
(-0.00189648 0.000997944 -2.25983e-05)
(-0.00287716 0.000986837 -1.42618e-05)
(-0.00383698 0.000945289 -1.02725e-05)
(-0.00473869 0.000885164 -8.78174e-06)
(-0.00555848 0.000806275 -8.83441e-06)
(-0.00627431 0.000706312 -1.03405e-05)
(-0.00686257 0.000582782 -1.34245e-05)
(-0.00729827 0.00043347 -1.82733e-05)
(-0.00755513 0.000257381 -2.49416e-05)
(-0.00760852 5.40346e-05 -3.35284e-05)
(-0.00743446 -0.00017331 -4.36385e-05)
(-0.00701241 -0.000418442 -5.48107e-05)
(-0.00633235 -0.000671119 -6.61566e-05)
(-0.0053967 -0.000916349 -7.5866e-05)
(-0.00422936 -0.00113218 -8.0399e-05)
(-0.00289963 -0.0012798 -7.46564e-05)
(-0.00139959 -0.00126135 -5.60118e-05)
(-0.000296008 -0.000754044 1.05128e-05)
(-0.000188416 0.00121251 -8.60669e-05)
(-0.000987064 0.00202975 -5.70465e-05)
(-0.00214592 0.00218596 -4.45682e-05)
(-0.00324328 0.0021481 -3.4423e-05)
(-0.00431525 0.00204316 -2.83545e-05)
(-0.00532136 0.00189556 -2.45878e-05)
(-0.00623623 0.00170663 -2.22146e-05)
(-0.00703635 0.00147357 -2.12382e-05)
(-0.00769645 0.00119308 -2.18921e-05)
(-0.00818983 0.000862368 -2.44298e-05)
(-0.00848901 0.000480024 -2.89947e-05)
(-0.00856453 4.66163e-05 -3.59168e-05)
(-0.00838715 -0.000432086 -4.47029e-05)
(-0.00793335 -0.000943662 -5.52257e-05)
(-0.00718834 -0.00146773 -6.6429e-05)
(-0.00614983 -0.00197416 -7.6259e-05)
(-0.0048397 -0.00241927 -8.06311e-05)
(-0.00333366 -0.00272531 -7.36715e-05)
(-0.00162013 -0.00269839 -5.26753e-05)
(-0.000346939 -0.00169852 2.11871e-05)
(-0.000195982 0.00193304 -0.000102657)
(-0.00103873 0.00317511 -7.50463e-05)
(-0.00226439 0.00340475 -6.22563e-05)
(-0.00342372 0.00333932 -5.0976e-05)
(-0.00455914 0.00317187 -4.36024e-05)
(-0.00562906 0.00293922 -3.8395e-05)
(-0.0066085 0.0026438 -3.44918e-05)
(-0.00747406 0.00228192 -3.19748e-05)
(-0.0082001 0.00184886 -3.11713e-05)
(-0.00875857 0.00134026 -3.24476e-05)
(-0.00911917 0.000753583 -3.61413e-05)
(-0.00924993 9.02314e-05 -4.2691e-05)
(-0.00911535 -0.000643727 -5.17519e-05)
(-0.00868138 -0.00143265 -6.29176e-05)
(-0.00792281 -0.00224702 -7.5192e-05)
(-0.00682735 -0.00304152 -8.63681e-05)
(-0.00540941 -0.00374801 -9.17064e-05)
(-0.00374947 -0.00424332 -8.41571e-05)
(-0.00183168 -0.00422484 -6.05976e-05)
(-0.00039364 -0.00269903 2.29044e-05)
(-0.000201668 0.00270791 -0.000117445)
(-0.00108778 0.00440798 -9.06109e-05)
(-0.00238329 0.00471687 -7.75595e-05)
(-0.00360923 0.00462412 -6.55088e-05)
(-0.00481479 0.00439375 -5.73918e-05)
(-0.00595764 0.00407592 -5.14666e-05)
(-0.00701389 0.00367433 -4.69007e-05)
(-0.00796101 0.00318416 -4.38427e-05)
(-0.00877353 0.0025987 -4.2703e-05)
(-0.00942241 0.00191103 -4.39544e-05)
(-0.00987445 0.00111563 -4.80344e-05)
(-0.0100918 0.000211093 -5.53143e-05)
(-0.0100312 -0.000796424 -6.64403e-05)
(-0.00964644 -0.00189065 -8.01996e-05)
(-0.00889492 -0.0030352 -9.57223e-05)
(-0.00774621 -0.00416971 -0.0001104)
(-0.00619857 -0.00519712 -0.000118426)
(-0.00433537 -0.00593645 -0.000110994)
(-0.00213599 -0.00595287 -8.38823e-05)
(-0.000463249 -0.0038404 1.46212e-05)
(-0.000209162 0.00353662 -0.000133543)
(-0.00114942 0.00573278 -0.000107107)
(-0.00253193 0.00612888 -9.38006e-05)
(-0.00384104 0.00601057 -8.10929e-05)
(-0.00513399 0.00571902 -7.2452e-05)
(-0.00636778 0.00531909 -6.61297e-05)
(-0.00752042 0.00481589 -6.13308e-05)
(-0.00857106 0.00420321 -5.82775e-05)
(-0.00949523 0.00347163 -5.74767e-05)
(-0.0102636 0.00261024 -5.9529e-05)
(-0.0108404 0.00160845 -6.50079e-05)
(-0.0111821 0.000459109 -7.43524e-05)
(-0.0112356 -0.000837359 -8.94485e-05)
(-0.0109371 -0.0022685 -0.000107955)
(-0.0102195 -0.00379431 -0.000129433)
(-0.00902396 -0.00534039 -0.000150756)
(-0.00731926 -0.00677611 -0.000164425)
(-0.00518403 -0.00784588 -0.000158728)
(-0.00258886 -0.00794439 -0.000127068)
(-0.000571872 -0.00517237 -5.70009e-06)
(-0.000218801 0.00443096 -0.000153184)
(-0.00122614 0.00716905 -0.000127212)
(-0.00271527 0.00766184 -0.000113633)
(-0.00412523 0.00751981 -0.000100144)
(-0.00552318 0.00716913 -9.0873e-05)
(-0.00686571 0.00669126 -8.40999e-05)
(-0.00813373 0.00609322 -7.91087e-05)
(-0.00930941 0.00536735 -7.62357e-05)
(-0.0103708 0.00450079 -7.6127e-05)
(-0.0112899 0.00347708 -7.95834e-05)
(-0.0120299 0.00227776 -8.73924e-05)
(-0.0125417 0.000885727 -0.000100301)
(-0.0127628 -0.000708642 -0.000121634)
(-0.0126076 -0.00250748 -0.000147888)
(-0.0119748 -0.00447359 -0.00017956)
(-0.0107623 -0.00652479 -0.0002129)
(-0.00888753 -0.00849391 -0.000237887)
(-0.0064043 -0.0100296 -0.000237847)
(-0.00326476 -0.0102935 -0.000201265)
(-0.000744248 -0.00677931 -4.61338e-05)
(-0.000230491 0.00540675 -0.000178028)
(-0.00131861 0.00874224 -0.000152939)
(-0.00293463 0.00934184 -0.000139002)
(-0.00446212 0.00917653 -0.000124363)
(-0.00598079 0.0087677 -0.000114045)
(-0.00744712 0.00821598 -0.000106436)
(-0.00884641 0.00753128 -0.000100973)
(-0.0101657 0.00670489 -9.81745e-05)
(-0.0113879 0.00572032 -9.89028e-05)
(-0.0124892 0.00455432 -0.000104277)
(-0.0134345 0.00317763 -0.000115641)
(-0.0141713 0.00155762 -0.000134997)
(-0.0146318 -0.000336573 -0.00016509)
(-0.0147058 -0.00251968 -0.000202879)
(-0.0142462 -0.00498606 -0.000251615)
(-0.0130897 -0.00765665 -0.000306434)
(-0.011068 -0.0103316 -0.000353794)
(-0.00816536 -0.0125422 -0.000368755)
(-0.00429491 -0.0131193 -0.000329006)
(-0.00103016 -0.00878938 -0.000126097)
(-0.000244623 0.00648283 -0.000209944)
(-0.00142877 0.0104817 -0.000186523)
(-0.00319285 0.0111973 -0.000172002)
(-0.00485311 0.0110059 -0.000155484)
(-0.00650517 0.010537 -0.000143269)
(-0.00810602 0.00991404 -0.000133992)
(-0.00964716 0.00915134 -0.000127362)
(-0.0111229 0.00824028 -0.000124169)
(-0.0125242 0.00716139 -0.000125585)
(-0.0138358 0.00588444 -0.000133164)
(-0.01503 0.0043675 -0.000148911)
(-0.0160595 0.00255746 -0.000175453)
(-0.016844 0.000393637 -0.000214693)
(-0.0172623 -0.00217219 -0.000275372)
(-0.0171249 -0.00518468 -0.000352941)
(-0.0161701 -0.00859907 -0.000445788)
(-0.0140998 -0.0122056 -0.000536837)
(-0.0107413 -0.0154069 -0.000588705)
(-0.00592729 -0.0165608 -0.000553892)
(-0.00153618 -0.0114058 -0.000290408)
(-0.000262752 0.00768366 -0.000251594)
(-0.00156182 0.0124229 -0.00023104)
(-0.0034972 0.0132601 -0.000215405)
(-0.00530371 0.0130335 -0.00019566)
(-0.00709766 0.012497 -0.000179985)
(-0.00883746 0.0118015 -0.000167501)
(-0.0105231 0.010968 -0.000158363)
(-0.0121588 0.00999001 -0.00015374)
(-0.0137473 0.00884697 -0.000155212)
(-0.0152871 0.00750336 -0.000164921)
(-0.016766 0.00590521 -0.00018584)
(-0.0181501 0.00397678 -0.000221844)
(-0.0193669 0.00162068 -0.000277217)
(-0.0202916 -0.00127983 -0.000368427)
(-0.0206919 -0.00483408 -0.00049177)
(-0.020198 -0.00909587 -0.000650335)
(-0.0183218 -0.0139039 -0.000824853)
(-0.0145812 -0.0185535 -0.000961747)
(-0.00864879 -0.0207489 -0.000962018)
(-0.00249659 -0.0149644 -0.000650774)
(-0.000288874 0.00904401 -0.000307187)
(-0.00172928 0.0146119 -0.000291135)
(-0.00386311 0.0155681 -0.000273232)
(-0.00582725 0.0152857 -0.000247786)
(-0.00776588 0.0146642 -0.000225867)
(-0.00964047 0.0138871 -0.000207477)
(-0.0114621 0.0129851 -0.000193461)
(-0.0132477 0.0119566 -0.000185485)
(-0.0150151 0.0107836 -0.00018562)
(-0.0167823 0.00942945 -0.000196755)
(-0.0185619 0.00783274 -0.000223229)
(-0.0203503 0.0058972 -0.000271267)
(-0.022108 0.00348132 -0.000350445)
(-0.0237278 0.000391382 -0.000479308)
(-0.0249693 -0.00359352 -0.000674238)
(-0.0253682 -0.00870973 -0.000940773)
(-0.024189 -0.0149715 -0.001268)
(-0.0204176 -0.0216723 -0.00158838)
(-0.0134304 -0.025691 -0.00172593)
(-0.00443582 -0.0200887 -0.00149577)
(-0.000332196 0.0106183 -0.000383885)
(-0.00195468 0.0171119 -0.00037422)
(-0.00432039 0.0181675 -0.000351606)
(-0.00645047 0.0177896 -0.000315896)
(-0.00852851 0.0170491 -0.000282808)
(-0.0105224 0.0161685 -0.000253881)
(-0.0124572 0.0151905 -0.000230991)
(-0.0143641 0.0141213 -0.000216383)
(-0.0162786 0.0129504 -0.00021262)
(-0.0182427 0.0116487 -0.000223398)
(-0.0203038 0.0101586 -0.00025472)
(-0.0225084 0.00837826 -0.00031644)
(-0.0248817 0.00613636 -0.000423712)
(-0.0273814 0.00316025 -0.000595635)
(-0.0298385 -0.000948429 -0.000884939)
(-0.0317786 -0.00667808 -0.00131147)
(-0.032233 -0.0144828 -0.00189636)
(-0.0293881 -0.0238964 -0.00257408)
(-0.0222031 -0.0310076 -0.00311585)
(-0.00858906 -0.0278524 -0.00349527)
(-0.00041401 0.0125011 -0.000494881)
(-0.00228549 0.0200175 -0.000492924)
(-0.00492333 0.0211174 -0.000460162)
(-0.00722158 0.0205724 -0.000405502)
(-0.00942178 0.0196552 -0.000352556)
(-0.0115044 0.0186298 -0.000305277)
(-0.0135119 0.0175511 -0.000266922)
(-0.01549 0.0164354 -0.000240294)
(-0.0174899 0.0152859 -0.000228207)
(-0.0195765 0.0140906 -0.000234787)
(-0.021835 0.0128141 -0.000267152)
(-0.0243761 0.0113756 -0.000337781)
(-0.0273322 0.00960946 -0.000467477)
(-0.0308291 0.00719431 -0.00069024)
(-0.0348784 0.00356448 -0.00106578)
(-0.0392398 -0.00215212 -0.00169336)
(-0.042911 -0.011042 -0.00260497)
(-0.0430685 -0.0235113 -0.00380674)
(-0.0381227 -0.0356001 -0.00517791)
(-0.0172629 -0.0400974 -0.00739655)
(-0.000582964 0.0148343 -0.000666476)
(-0.002822 0.0234785 -0.000673561)
(-0.00577221 0.0245312 -0.000622564)
(-0.00822186 0.0237101 -0.000532309)
(-0.0105063 0.0225095 -0.000440831)
(-0.0126285 0.0212504 -0.000358667)
(-0.0146497 0.0200084 -0.000292204)
(-0.0166263 0.0188112 -0.000244526)
(-0.0186191 0.0176763 -0.000217561)
(-0.0207088 0.0166194 -0.000214635)
(-0.0230119 0.0156528 -0.000242802)
(-0.0257051 0.014766 -0.000316347)
(-0.0290552 0.0138798 -0.000460162)
(-0.0334306 0.0127325 -0.000711599)
(-0.0392726 0.0107106 -0.00110874)
(-0.0468963 0.00650366 -0.00169461)
(-0.0558099 -0.00201981 -0.00262674)
(-0.0623509 -0.0178387 -0.00394225)
(-0.0637596 -0.0383973 -0.00550928)
(-0.0322042 -0.0620937 -0.0110354)
(-0.000899384 0.0180931 -0.000946173)
(-0.00365775 0.0274513 -0.000920365)
(-0.00698326 0.0281041 -0.00081792)
(-0.00957689 0.0267298 -0.000654431)
(-0.0119091 0.0251688 -0.000505206)
(-0.0139963 0.0236911 -0.000376807)
(-0.015935 0.0223178 -0.000273585)
(-0.0178005 0.0210489 -0.000196953)
(-0.019653 0.0199105 -0.000147486)
(-0.0215623 0.0189566 -0.000126881)
(-0.0236383 0.0182759 -0.000136756)
(-0.0260799 0.0179701 -0.000181911)
(-0.0292657 0.0181374 -0.000267165)
(-0.033857 0.0187319 -0.000383193)
(-0.0409687 0.0193353 -0.000457688)
(-0.0521287 0.0182361 -0.000263558)
(-0.0686592 0.0120375 0.000349494)
(-0.0850906 -0.00864774 0.00184987)
(-0.0968351 -0.0465115 0.00415962)
(-0.0490357 -0.109974 -0.00689484)
(-0.00214635 0.0216012 -0.00146876)
(-0.00603502 0.0335173 -0.00153855)
(-0.00915338 0.0337551 -0.00131659)
(-0.0115336 0.0318805 -0.00101555)
(-0.0135655 0.0295288 -0.000705975)
(-0.0154415 0.0272775 -0.000439801)
(-0.0172195 0.0252558 -0.000229518)
(-0.018922 0.0235066 -7.66526e-05)
(-0.0205552 0.0220738 2.48262e-05)
(-0.0221375 0.0210234 7.90967e-05)
(-0.0237363 0.0205066 9.12762e-05)
(-0.02551 0.020751 7.61659e-05)
(-0.0278446 0.0221427 8.72439e-05)
(-0.0315343 0.0250067 0.000280323)
(-0.0384626 0.0294039 0.00109338)
(-0.0512084 0.0328299 0.0036007)
(-0.0752451 0.0297492 0.00913789)
(-0.102403 -0.00433625 0.0178878)
(-0.12735 -0.0814392 0.0238453)
(-0.0556647 -0.200263 -0.00154264)
(-0.00146947 0.0330775 -0.00248783)
(-0.00605151 0.0374397 -0.00199946)
(-0.0113282 0.035843 -0.0015885)
(-0.0140075 0.0321248 -0.000940761)
(-0.0163081 0.0293265 -0.00044682)
(-0.0178744 0.0270582 -5.2046e-05)
(-0.01908 0.0251857 0.000235736)
(-0.0200814 0.0235776 0.000425951)
(-0.0209345 0.022244 0.000543259)
(-0.0216172 0.0212244 0.000599267)
(-0.0220958 0.0207426 0.000614496)
(-0.0223216 0.0210536 0.000636523)
(-0.0225022 0.0228556 0.000816945)
(-0.0231654 0.0265049 0.00155206)
(-0.0269215 0.0333025 0.00394798)
(-0.0361271 0.037847 0.0101164)
(-0.0656452 0.0336181 0.0227224)
(-0.100401 -0.026289 0.0356186)
(-0.138755 -0.15421 0.0323782)
(-0.0463167 -0.305541 -0.0171078)
(-0.0118357 0.0314178 -0.00355599)
(-0.0214747 0.0537937 -0.00386459)
(-0.0173792 0.0493416 -0.00307098)
(-0.0183224 0.044322 -0.00195093)
(-0.0172091 0.0384935 -0.000812266)
(-0.0161362 0.0335918 5.95868e-05)
(-0.0150954 0.0295583 0.000674596)
(-0.0141592 0.0262778 0.00106422)
(-0.0132857 0.0236868 0.00128505)
(-0.0122824 0.0216577 0.00135363)
(-0.01113 0.0203384 0.00132836)
(-0.00939217 0.0198935 0.00125374)
(-0.00742088 0.0210563 0.00138885)
(-0.003991 0.0242615 0.00222995)
(-0.0036552 0.0315787 0.00521856)
(-0.000860327 0.0371065 0.0125623)
(-0.0214218 0.0308104 0.0270848)
(-0.0384968 -0.0508722 0.0379291)
(-0.100995 -0.21213 0.0210371)
(-0.0248154 -0.369121 -0.0470308)
(-0.0462875 0.0901347 -0.0112024)
(-0.0304214 0.0442303 -0.00664232)
(-0.0218879 0.037923 -0.00395479)
(-0.00528317 0.0308933 -0.00135706)
(0.00819003 0.0246995 0.000463387)
(0.0207556 0.0206214 0.00165888)
(0.0310115 0.0179443 0.00245869)
(0.03965 0.0158693 0.0029168)
(0.0465452 0.0143677 0.00314496)
(0.0527251 0.0130379 0.00312506)
(0.0576718 0.0123208 0.00291616)
(0.063346 0.0116745 0.00252523)
(0.0680433 0.012078 0.00217622)
(0.0773286 0.0122777 0.00179218)
(0.0816003 0.0132202 0.00327767)
(0.104256 0.010397 0.00633867)
(0.0932727 -0.00419735 0.0144337)
(0.121453 -0.0754425 0.0265238)
(0.00814156 -0.227276 0.00346921)
(0.0249664 -0.363577 -0.0630879)
(0.11766 0.111595 -0.0111593)
(0.144596 0.0596702 -0.011346)
(0.217214 0.0397174 -0.0106006)
(0.261509 0.0268054 -0.00891518)
(0.294064 0.0182386 -0.00697942)
(0.320235 0.0125311 -0.00529207)
(0.340236 0.00900562 -0.00364582)
(0.357015 0.0066917 -0.00238069)
(0.36864 0.00528597 -0.00110459)
(0.380367 0.00437725 -0.000244405)
(0.385969 0.00372348 0.000500466)
(0.396692 0.00363651 0.00100725)
(0.396321 0.00306692 0.000856197)
(0.41205 0.00361982 0.00163896)
(0.401036 0.00211413 0.00046606)
(0.429028 0.000539872 0.00253514)
(0.388787 -0.0072808 0.00162068)
(0.414753 -0.0279713 0.00170089)
(0.254421 -0.070318 -0.0058318)
(0.167125 -0.138868 -0.0724382)
(-0.000123402 0.000129873 -4.21583e-05)
(-0.000808578 0.000326565 3.23793e-06)
(-0.00186928 0.000369522 2.0069e-05)
(-0.00286377 0.000366303 2.88641e-05)
(-0.00382977 0.000350377 2.95747e-05)
(-0.0047323 0.000327873 2.493e-05)
(-0.00554989 0.000298534 1.64926e-05)
(-0.00626152 0.000261074 4.63686e-06)
(-0.00684405 0.00021426 -1.06834e-05)
(-0.00727246 0.000157213 -2.96433e-05)
(-0.00752113 8.91059e-05 -5.17909e-05)
(-0.00756531 1.04008e-05 -7.68743e-05)
(-0.00738169 -7.87106e-05 -0.000104027)
(-0.00695192 -0.000175394 -0.000132331)
(-0.00626656 -0.000275458 -0.000159677)
(-0.00532774 -0.000372926 -0.000182966)
(-0.00415694 -0.000458546 -0.00019708)
(-0.00282082 -0.000514288 -0.000194729)
(-0.00130407 -0.000489148 -0.000171161)
(-0.000241847 -0.000231031 -7.63713e-05)
(-0.000331431 0.000844666 -0.000123416)
(-0.00161748 0.00161061 -8.46255e-05)
(-0.00343504 0.00176493 -6.42822e-05)
(-0.00514469 0.00172957 -4.79882e-05)
(-0.00678739 0.00163219 -3.92426e-05)
(-0.00830429 0.00149831 -3.5428e-05)
(-0.00965682 0.00132989 -3.508e-05)
(-0.0108098 0.00112502 -3.80415e-05)
(-0.0117272 0.000881641 -4.45334e-05)
(-0.0123724 0.000598508 -5.48599e-05)
(-0.0127094 0.000275132 -6.92007e-05)
(-0.0127054 -8.72122e-05 -8.7579e-05)
(-0.0123306 -0.000481433 -0.000108969)
(-0.0115623 -0.000896659 -0.000132285)
(-0.0103925 -0.00131637 -0.000155444)
(-0.00882992 -0.00171694 -0.000174827)
(-0.0069127 -0.00206277 -0.00018415)
(-0.00473963 -0.0022844 -0.000175146)
(-0.00230085 -0.00219285 -0.000143763)
(-0.000496933 -0.00121984 -3.30983e-05)
(-0.000395543 0.00198902 -0.000161709)
(-0.00188306 0.00350247 -0.000127246)
(-0.00395828 0.00379109 -0.000105616)
(-0.00590404 0.00369715 -8.5875e-05)
(-0.00776897 0.00347127 -7.32931e-05)
(-0.00948791 0.00316476 -6.53537e-05)
(-0.0110187 0.00278398 -6.07028e-05)
(-0.0123232 0.00232786 -5.93743e-05)
(-0.0133622 0.00179461 -6.17956e-05)
(-0.0140966 0.00118343 -6.84408e-05)
(-0.0144885 0.000495608 -7.96043e-05)
(-0.0144986 -0.000264286 -9.56429e-05)
(-0.0140911 -0.0010839 -0.000115558)
(-0.0132399 -0.00194152 -0.0001386)
(-0.011931 -0.00280419 -0.000162424)
(-0.0101681 -0.00362472 -0.000182904)
(-0.00798815 -0.00433255 -0.000192757)
(-0.00549969 -0.00478966 -0.000182373)
(-0.00268802 -0.00462617 -0.000147493)
(-0.000588266 -0.0027252 -2.52165e-05)
(-0.000419662 0.00315014 -0.000194209)
(-0.00200601 0.00543988 -0.000164286)
(-0.00421917 0.00586296 -0.000142036)
(-0.00629139 0.00570764 -0.000119917)
(-0.00828064 0.00535285 -0.000104646)
(-0.0101195 0.00487548 -9.38042e-05)
(-0.0117656 0.00428572 -8.61613e-05)
(-0.0131809 0.00358272 -8.19399e-05)
(-0.0143251 0.00276412 -8.177e-05)
(-0.0151573 0.0018284 -8.63519e-05)
(-0.0156354 0.000776918 -9.63163e-05)
(-0.0157163 -0.000382851 -0.000112345)
(-0.0153548 -0.00163729 -0.000133546)
(-0.0145107 -0.00295641 -0.000158947)
(-0.0131565 -0.00429247 -0.000186135)
(-0.0112823 -0.00557425 -0.000210553)
(-0.00891495 -0.00669175 -0.000223618)
(-0.00616968 -0.00742805 -0.000213585)
(-0.00302648 -0.00721 -0.000175186)
(-0.000662812 -0.00431302 -3.5963e-05)
(-0.000441375 0.00439106 -0.000225159)
(-0.00212575 0.00751338 -0.000199145)
(-0.00448164 0.00807962 -0.000176361)
(-0.00668757 0.00786123 -0.000152368)
(-0.00881144 0.00737425 -0.000135215)
(-0.0107842 0.00672275 -0.000122551)
(-0.0125648 0.00592095 -0.00011326)
(-0.0141158 0.00496784 -0.000107751)
(-0.0153971 0.00385963 -0.00010687)
(-0.0163657 0.00259253 -0.000111581)
(-0.0169751 0.00116533 -0.000122784)
(-0.0171746 -0.000416633 -0.00014124)
(-0.0169065 -0.00213903 -0.000167296)
(-0.0161123 -0.00396757 -0.00019919)
(-0.0147414 -0.00584257 -0.000234524)
(-0.0127585 -0.00766786 -0.000267834)
(-0.0101686 -0.009286 -0.000288407)
(-0.00709068 -0.0103804 -0.000281122)
(-0.00350016 -0.0101336 -0.000238133)
(-0.000770034 -0.00611719 -7.07844e-05)
(-0.000469364 0.00571766 -0.000259735)
(-0.00227623 0.00973899 -0.000237557)
(-0.00480984 0.0104601 -0.000214192)
(-0.00718264 0.010178 -0.000188345)
(-0.0094743 0.00955709 -0.000169496)
(-0.0116143 0.00873098 -0.000155376)
(-0.0135639 0.0077182 -0.00014502)
(-0.0152876 0.00651715 -0.000139056)
(-0.0167466 0.00512143 -0.000138603)
(-0.0178971 0.00352277 -0.000144962)
(-0.018688 0.00171397 -0.000159433)
(-0.0190611 -0.000306551 -0.00018319)
(-0.0189424 -0.00253086 -0.000218075)
(-0.0182475 -0.00492686 -0.000261366)
(-0.0168924 -0.00742747 -0.000311093)
(-0.0148011 -0.00991221 -0.000360638)
(-0.0119379 -0.0121669 -0.00039597)
(-0.00841442 -0.0137455 -0.000396313)
(-0.00419774 -0.01352 -0.000348343)
(-0.000934492 -0.00822457 -0.000137378)
(-0.000505251 0.00715205 -0.000302089)
(-0.0024651 0.012153 -0.000284559)
(-0.00521826 0.0130426 -0.000260443)
(-0.00779539 0.0126948 -0.000232246)
(-0.0102908 0.0119373 -0.00021121)
(-0.0126329 0.0109361 -0.000195236)
(-0.0147866 0.0097148 -0.000183608)
(-0.0167207 0.00827115 -0.000177275)
(-0.0183997 0.00659485 -0.000177734)
(-0.0197813 0.00467051 -0.00018679)
(-0.0208122 0.00248032 -0.000206347)
(-0.0214267 8.64166e-06 -0.000238258)
(-0.0215338 -0.0027476 -0.000287)
(-0.0210167 -0.00577449 -0.00034845)
(-0.0197442 -0.00900806 -0.000422094)
(-0.0175769 -0.01231 -0.000500048)
(-0.0144066 -0.0154012 -0.000563462)
(-0.0103087 -0.0176658 -0.00058197)
(-0.00523102 -0.0175564 -0.000530988)
(-0.00119158 -0.0107813 -0.000255269)
(-0.000549736 0.00872121 -0.00035576)
(-0.00269616 0.0147991 -0.000344484)
(-0.00571379 0.0158711 -0.000319215)
(-0.00853296 0.0154526 -0.000287571)
(-0.0112667 0.0145527 -0.000263116)
(-0.0138427 0.0133744 -0.000244096)
(-0.0162322 0.0119478 -0.000230213)
(-0.0184111 0.0102703 -0.000222887)
(-0.020351 0.00832707 -0.000224161)
(-0.0220155 0.00609314 -0.00023657)
(-0.0233539 0.0035352 -0.000262972)
(-0.0242929 0.000615941 -0.000306897)
(-0.02473 -0.0026936 -0.000375927)
(-0.0245145 -0.00641212 -0.000464621)
(-0.0234491 -0.0105021 -0.000576993)
(-0.0213014 -0.0148262 -0.000703894)
(-0.0178403 -0.0190414 -0.0008201)
(-0.0130393 -0.0223141 -0.000879599)
(-0.00680195 -0.0225009 -0.000833738)
(-0.0016148 -0.0140197 -0.00046609)
(-0.000604363 0.0104555 -0.00042494)
(-0.00297539 0.0177255 -0.000422388)
(-0.00630596 0.0189918 -0.000395134)
(-0.0094044 0.0184914 -0.000358055)
(-0.0124077 0.0174382 -0.000327896)
(-0.0152441 0.0160776 -0.000303542)
(-0.0178943 0.0144488 -0.000285375)
(-0.0203452 0.0125501 -0.000275488)
(-0.0225811 0.0103625 -0.000276676)
(-0.0245777 0.00784995 -0.000292522)
(-0.0262942 0.00495959 -0.000327543)
(-0.0276604 0.00162385 -0.000387769)
(-0.0285676 -0.00223193 -0.000478493)
(-0.0288343 -0.00668182 -0.000612543)
(-0.0281886 -0.0117516 -0.000786895)
(-0.0262674 -0.0173478 -0.000996906)
(-0.0226438 -0.0230888 -0.00121131)
(-0.0170557 -0.0278805 -0.00136108)
(-0.00931354 -0.0287128 -0.00134464)
(-0.00237092 -0.0183472 -0.000859481)
(-0.00067255 0.012392 -0.000515549)
(-0.00331397 0.020988 -0.00052519)
(-0.00701153 0.0224543 -0.000494306)
(-0.0104256 0.0218505 -0.000448338)
(-0.0137247 0.0206239 -0.000408518)
(-0.0168395 0.0190699 -0.000374862)
(-0.0197642 0.0172399 -0.000348803)
(-0.0225021 0.015136 -0.000333343)
(-0.0250564 0.0127366 -0.000332228)
(-0.0274241 0.00999549 -0.000350349)
(-0.0295862 0.00683791 -0.000394316)
(-0.0314912 0.00315766 -0.000473017)
(-0.0330435 -0.00118357 -0.000597485)
(-0.0340474 -0.00634586 -0.000792289)
(-0.0341602 -0.0124809 -0.00106092)
(-0.0328601 -0.0196184 -0.00140832)
(-0.0294331 -0.0274202 -0.0018018)
(-0.0231511 -0.0345222 -0.00214391)
(-0.0136325 -0.0366907 -0.0022302)
(-0.00386315 -0.0245603 -0.00164328)
(-0.000761332 0.01458 -0.000636699)
(-0.00373251 0.0246543 -0.000663105)
(-0.00785968 0.0263133 -0.000625412)
(-0.0116243 0.0255673 -0.00056459)
(-0.015238 0.0241328 -0.000508422)
(-0.0186366 0.0223639 -0.000458843)
(-0.0218334 0.0203284 -0.000418865)
(-0.0248541 0.018036 -0.000392651)
(-0.0277276 0.0154666 -0.000385021)
(-0.030483 0.0125676 -0.000402359)
(-0.0331393 0.00924486 -0.000453889)
(-0.0356903 0.00535044 -0.000552701)
(-0.0380813 0.000668545 -0.000717292)
(-0.0401514 -0.00507617 -0.000990428)
(-0.0415328 -0.0122437 -0.00139691)
(-0.0415519 -0.0211268 -0.00195918)
(-0.0391342 -0.0316194 -0.00266525)
(-0.0327665 -0.0421795 -0.00339741)
(-0.0216904 -0.0470223 -0.00380562)
(-0.00710871 -0.0344182 -0.0033261)
(-0.000884821 0.0170905 -0.00080325)
(-0.00426827 0.0288108 -0.000851859)
(-0.00890028 0.0306306 -0.000801325)
(-0.0130473 0.0296764 -0.000715314)
(-0.0169825 0.0279774 -0.000631556)
(-0.020653 0.0259556 -0.000555203)
(-0.0240975 0.0236998 -0.000491599)
(-0.0273695 0.0212316 -0.000446266)
(-0.0305307 0.0185387 -0.000425017)
(-0.0336522 0.0155712 -0.000435623)
(-0.0368106 0.0122285 -0.000490211)
(-0.0400766 0.00833447 -0.000608368)
(-0.0434829 0.00360391 -0.000821137)
(-0.0469902 -0.0023995 -0.00117012)
(-0.0503356 -0.010308 -0.00174511)
(-0.0528226 -0.0208889 -0.00260548)
(-0.0530483 -0.0346002 -0.00380545)
(-0.0484065 -0.0500705 -0.00524479)
(-0.0375262 -0.0601534 -0.00649432)
(-0.0146115 -0.0516892 -0.00704015)
(-0.00107238 0.0200371 -0.00104078)
(-0.00498862 0.0335734 -0.00111667)
(-0.0102155 0.035468 -0.0010412)
(-0.0147698 0.0341964 -0.000911744)
(-0.0190162 0.032149 -0.000781758)
(-0.0229225 0.0298173 -0.000661253)
(-0.0265615 0.0273109 -0.000558752)
(-0.0300186 0.0246675 -0.000481233)
(-0.0333909 0.0218911 -0.000434942)
(-0.0367958 0.0189483 -0.000427888)
(-0.0403785 0.015753 -0.000473313)
(-0.0443181 0.0121317 -0.000594331)
(-0.0488243 0.00776141 -0.00083013)
(-0.0541054 0.0020647 -0.00124501)
(-0.0602452 -0.00587248 -0.00196237)
(-0.0668912 -0.0174198 -0.00313366)
(-0.0725869 -0.0341344 -0.00487806)
(-0.0734492 -0.055912 -0.00720027)
(-0.0666255 -0.0758963 -0.00989158)
(-0.029593 -0.0842945 -0.0134869)
(-0.00139049 0.0235678 -0.00139688)
(-0.00604139 0.0391562 -0.00150815)
(-0.0119552 0.0410126 -0.00139027)
(-0.0169067 0.0392742 -0.00118491)
(-0.0214186 0.0367167 -0.000971631)
(-0.0254952 0.0339421 -0.000773132)
(-0.0292457 0.0311005 -0.000604514)
(-0.0327853 0.0282483 -0.000473985)
(-0.0362434 0.0254072 -0.000386203)
(-0.039781 0.0225744 -0.000346606)
(-0.0436148 0.0197178 -0.000366287)
(-0.0480524 0.0167376 -0.000467634)
(-0.0535358 0.0133855 -0.000690295)
(-0.0606564 0.00909349 -0.00109487)
(-0.0701399 0.00274468 -0.00173966)
(-0.0826344 -0.00772367 -0.00269226)
(-0.0971706 -0.0258021 -0.00413567)
(-0.107351 -0.0557911 -0.00589683)
(-0.107048 -0.0954281 -0.00824582)
(-0.0459334 -0.147426 -0.0174519)
(-0.00184497 0.0282184 -0.00194521)
(-0.00738845 0.0451736 -0.00202313)
(-0.0142234 0.046517 -0.001808)
(-0.0196283 0.0439539 -0.00146193)
(-0.0243901 0.0408733 -0.00113068)
(-0.0285264 0.037761 -0.000830138)
(-0.0322342 0.0346951 -0.00057446)
(-0.0356821 0.0317053 -0.00037072)
(-0.039022 0.0288355 -0.000221892)
(-0.0424231 0.0261377 -0.000128442)
(-0.0461238 0.0236774 -8.84024e-05)
(-0.0505133 0.0215015 -9.88177e-05)
(-0.0562608 0.0195979 -0.000150345)
(-0.0644495 0.0176747 -0.000197207)
(-0.0767184 0.0147693 -5.22432e-05)
(-0.0950505 0.00798744 0.000806648)
(-0.118736 -0.00920095 0.00322481)
(-0.134744 -0.0525062 0.0081419)
(-0.137867 -0.129185 0.0119301)
(-0.0425171 -0.247237 -0.00966353)
(-0.00382355 0.0327401 -0.00288819)
(-0.0113438 0.0546182 -0.00316389)
(-0.0179341 0.0554244 -0.00274704)
(-0.0232062 0.0521314 -0.00216357)
(-0.0276727 0.0477691 -0.00154221)
(-0.0316526 0.0434467 -0.000982744)
(-0.0352313 0.0394006 -0.000515648)
(-0.0385116 0.0357151 -0.000151495)
(-0.0415947 0.0324594 0.000113982)
(-0.0446186 0.0297047 0.000292365)
(-0.0477984 0.027614 0.00040692)
(-0.0514948 0.0264407 0.000508963)
(-0.0563988 0.0266139 0.000736331)
(-0.063716 0.028388 0.00144934)
(-0.075542 0.0312742 0.00361077)
(-0.0936343 0.0304055 0.00936481)
(-0.118526 0.0146673 0.0213912)
(-0.130713 -0.0503978 0.0388042)
(-0.13936 -0.174176 0.0445601)
(-0.0187828 -0.346589 -0.00527806)
(-0.00203918 0.0474224 -0.00463749)
(-0.0102458 0.0585285 -0.00412631)
(-0.0215333 0.057149 -0.00336737)
(-0.0275071 0.0517902 -0.0022188)
(-0.03278 0.0474873 -0.00128377)
(-0.0364763 0.0435821 -0.000475811)
(-0.0392946 0.0400038 0.000169695)
(-0.0415307 0.0366728 0.000658888)
(-0.0433799 0.0336712 0.00100419)
(-0.0449573 0.0310781 0.00123262)
(-0.0463584 0.0292144 0.00140494)
(-0.0476688 0.0284266 0.00165171)
(-0.0492683 0.0296623 0.00232019)
(-0.0516488 0.0333245 0.00425592)
(-0.0568401 0.0400513 0.00956134)
(-0.064023 0.0413242 0.0217127)
(-0.0836556 0.0267822 0.0445499)
(-0.0864301 -0.0546911 0.0675818)
(-0.108345 -0.215596 0.0584251)
(0.00835777 -0.419033 -0.023901)
(-0.0116915 0.039585 -0.00619346)
(-0.0265553 0.0822018 -0.00696149)
(-0.0274285 0.0780168 -0.00583428)
(-0.0344577 0.071199 -0.00401423)
(-0.0367399 0.0627238 -0.00208051)
(-0.0375845 0.0550077 -0.000497949)
(-0.0371402 0.0483146 0.000718928)
(-0.0359826 0.0426022 0.00158106)
(-0.0344175 0.0378283 0.0021494)
(-0.0324723 0.0338557 0.00245547)
(-0.0304395 0.0309108 0.00261047)
(-0.0278523 0.0292798 0.00274478)
(-0.0253409 0.0300918 0.0033749)
(-0.0208203 0.0337159 0.00545018)
(-0.0183984 0.0428565 0.011383)
(-0.00560763 0.0475773 0.0242409)
(-0.00948513 0.0402932 0.0468829)
(0.0197794 -0.0412093 0.0683043)
(-0.0231683 -0.236273 0.0448069)
(0.0522527 -0.451615 -0.0504571)
(-0.0749569 0.103032 -0.0164096)
(-0.0604491 0.0647221 -0.0106751)
(-0.0596297 0.0617555 -0.00681284)
(-0.0390797 0.0532368 -0.00308176)
(-0.0213936 0.044883 -0.000436784)
(-0.00265809 0.0385487 0.00156855)
(0.0144654 0.0337684 0.0031298)
(0.0304991 0.0296561 0.00418611)
(0.0444308 0.0264348 0.00486557)
(0.0577427 0.0233449 0.00513553)
(0.0686475 0.0213444 0.00505616)
(0.0804554 0.0192984 0.0046879)
(0.0888297 0.0191743 0.00436053)
(0.104687 0.0187954 0.00394197)
(0.109088 0.0201793 0.00648477)
(0.147609 0.0179504 0.0113919)
(0.141501 -0.0021956 0.0194363)
(0.202672 -0.0520562 0.038625)
(0.138405 -0.231483 0.0176766)
(0.14239 -0.417506 -0.0680818)
(0.119614 0.13995 -0.0160564)
(0.152473 0.0862362 -0.0168173)
(0.231542 0.0641055 -0.0160846)
(0.285976 0.0488017 -0.0140953)
(0.328339 0.037842 -0.0116559)
(0.365459 0.0296867 -0.00944557)
(0.394975 0.0239509 -0.00709194)
(0.423829 0.019568 -0.00516014)
(0.443525 0.0161927 -0.00317721)
(0.468243 0.0138149 -0.00149953)
(0.479099 0.011378 -0.00027973)
(0.503692 0.010295 0.00109107)
(0.504636 0.00847554 0.00129104)
(0.534646 0.00810883 0.00223495)
(0.522686 0.00671012 0.00241051)
(0.56115 0.00414461 0.00247121)
(0.52807 -0.00300147 0.00507964)
(0.552246 -0.0242107 -0.00102258)
(0.428242 -0.0711371 -0.00542879)
(0.300632 -0.146431 -0.0804502)
(-0.000135662 0.000135488 -5.55912e-05)
(-0.000892415 0.000357412 -4.22526e-05)
(-0.00206219 0.000406152 -3.12186e-05)
(-0.00315366 0.000401905 -2.26457e-05)
(-0.00420959 0.000382899 -1.92457e-05)
(-0.00519161 0.000356483 -2.00346e-05)
(-0.00607687 0.000322368 -2.42212e-05)
(-0.00684335 0.000279223 -3.1628e-05)