/*--------------------------------*- C++ -*----------------------------------*\
  =========                 |
  \\      /  F ield         | OpenFOAM: The Open Source CFD Toolbox
   \\    /   O peration     | Website:  https://openfoam.org
    \\  /    A nd           | Version:  10
     \\/     M anipulation  |
\*---------------------------------------------------------------------------*/
FoamFile
{
    format      ascii;
    class       surfaceScalarField;
    location    "5.5";
    object      phi;
}
// * * * * * * * * * * * * * * * * * * * * * * * * * * * * * * * * * * * * * //

dimensions      [0 3 -1 0 0 0 0];

internalField   nonuniform List<scalar> 
22800
(
-2.20854e-06
2.63496e-06
-4.23105e-07
-7.31516e-06
5.11012e-06
-3.49511e-09
-1.33319e-05
5.82039e-06
1.9633e-07
-1.95893e-05
5.9638e-06
2.93644e-07
-2.58253e-05
5.93882e-06
2.97145e-07
-3.19073e-05
5.84271e-06
2.39275e-07
-3.77087e-05
5.66693e-06
1.34505e-07
-4.30636e-05
5.37439e-06
-1.94868e-08
-4.77781e-05
4.91888e-06
-2.04455e-07
-5.15884e-05
4.25901e-06
-4.4864e-07
-5.41898e-05
3.35302e-06
-7.51655e-07
-5.52423e-05
2.16856e-06
-1.11601e-06
-5.43986e-05
7.02713e-07
-1.54646e-06
-5.13348e-05
-1.06389e-06
-1.99992e-06
-4.58565e-05
-3.01975e-06
-2.45851e-06
-3.79523e-05
-5.03514e-06
-2.86906e-06
-2.7942e-05
-6.8665e-06
-3.14379e-06
-1.66843e-05
-8.09874e-06
-3.15894e-06
-5.89254e-06
-7.96809e-06
-2.82371e-06
-4.45418e-06
-1.43836e-06
-4.58664e-06
8.55159e-06
-1.32999e-06
-1.33684e-05
1.48881e-05
-9.96182e-07
-2.34116e-05
1.66687e-05
-8.05101e-07
-3.37221e-05
1.6922e-05
-6.47671e-07
-4.38728e-05
1.66618e-05
-5.72176e-07
-5.36195e-05
1.614e-05
-5.5063e-07
-6.27389e-05
1.53563e-05
-5.70003e-07
-7.09731e-05
1.42417e-05
-6.33098e-07
-7.80126e-05
1.27064e-05
-7.47991e-07
-8.34869e-05
1.06561e-05
-9.22837e-07
-8.69622e-05
7.99326e-06
-1.16488e-06
-8.79802e-05
4.66566e-06
-1.47914e-06
-8.60968e-05
6.89318e-07
-1.86997e-06
-8.08657e-05
-3.98526e-06
-2.30977e-06
-7.2023e-05
-9.09685e-06
-2.76556e-06
-5.95904e-05
-1.42902e-05
-3.17753e-06
-4.40539e-05
-1.89726e-05
-3.43038e-06
-2.6665e-05
-2.21145e-05
-3.37317e-06
-9.90508e-06
-2.18178e-05
-2.91022e-06
-1.31505e-05
-1.20874e-06
-5.38223e-06
1.57245e-05
-1.79071e-06
-1.54801e-05
2.65183e-05
-1.53228e-06
-2.69322e-05
2.94623e-05
-1.34163e-06
-3.86311e-05
2.97705e-05
-1.14963e-06
-5.01155e-05
2.91781e-05
-1.03186e-06
-6.11247e-05
2.81125e-05
-9.63396e-07
-7.14222e-05
2.65873e-05
-9.33472e-07
-8.07353e-05
2.45039e-05
-9.49091e-07
-8.8735e-05
2.17273e-05
-1.02116e-06
-9.50248e-05
1.81078e-05
-1.16196e-06
-9.91476e-05
1.34994e-05
-1.3833e-06
-0.000100579
7.79108e-06
-1.69413e-06
-9.87472e-05
9.57898e-07
-2.1003e-06
-9.31256e-05
-7.03179e-06
-2.57503e-06
-8.33442e-05
-1.57874e-05
-3.09081e-06
-6.93224e-05
-2.47376e-05
-3.57444e-06
-5.15235e-05
-3.28864e-05
-3.88504e-06
-3.13425e-05
-3.84626e-05
-3.83289e-06
-1.16948e-05
-3.8161e-05
-3.30447e-06
-2.35255e-05
-1.31979e-06
-5.61745e-06
2.3492e-05
-2.14998e-06
-1.62485e-05
3.91152e-05
-1.9659e-06
-2.82947e-05
4.32911e-05
-1.78255e-06
-4.06101e-05
4.36577e-05
-1.57182e-06
-5.27384e-05
4.27357e-05
-1.42935e-06
-6.44353e-05
4.11431e-05
-1.33364e-06
-7.54829e-05
3.89102e-05
-1.27543e-06
-8.56252e-05
3.5909e-05
-1.26271e-06
-9.454e-05
3.19556e-05
-1.3136e-06
-0.000101821
2.68349e-05
-1.44601e-06
-0.000106969
2.03238e-05
-1.67603e-06
-0.000109391
1.22326e-05
-2.0198e-06
-0.000108421
2.48256e-06
-2.49443e-06
-0.000103322
-9.05279e-06
-3.07803e-06
-9.34734e-05
-2.19101e-05
-3.7262e-06
-7.85665e-05
-3.52884e-05
-4.3561e-06
-5.8934e-05
-4.77288e-05
-4.79015e-06
-3.61018e-05
-5.65095e-05
-4.78535e-06
-1.35058e-05
-5.65692e-05
-4.18783e-06
-3.52469e-05
-1.78435e-06
-5.71287e-06
3.1663e-05
-2.45819e-06
-1.67132e-05
5.24552e-05
-2.33963e-06
-2.92128e-05
5.79562e-05
-2.16546e-06
-4.20357e-05
5.84247e-05
-1.94411e-06
-5.47404e-05
5.72305e-05
-1.79018e-06
-6.71144e-05
5.52017e-05
-1.68455e-06
-7.89757e-05
5.23925e-05
-1.62087e-06
-9.01028e-05
4.86472e-05
-1.61113e-06
-0.0001002
4.37275e-05
-1.67487e-06
-0.000108864
3.7338e-05
-1.83844e-06
-0.000115562
2.91487e-05
-2.12715e-06
-0.000119604
1.88393e-05
-2.56506e-06
-0.000120138
6.18705e-06
-3.17011e-06
-0.000116207
-9.0254e-06
-3.95861e-06
-0.000106782
-2.64783e-05
-4.85727e-06
-9.11531e-05
-4.51503e-05
-5.76668e-06
-6.93532e-05
-6.30767e-05
-6.45192e-06
-4.29636e-05
-7.63289e-05
-6.57016e-06
-1.62055e-05
-7.7456e-05
-5.87132e-06
-4.86848e-05
-2.76765e-06
-5.79795e-06
4.02365e-05
-2.77551e-06
-1.71896e-05
6.65691e-05
-2.72223e-06
-3.01855e-05
7.35115e-05
-2.55955e-06
-4.35709e-05
7.41425e-05
-2.33242e-06
-5.69235e-05
7.27577e-05
-2.17454e-06
-7.00751e-05
7.04227e-05
-2.06943e-06
-8.28968e-05
6.72283e-05
-2.01414e-06
-9.52224e-05
6.29983e-05
-2.02561e-06
-0.000106806
5.74399e-05
-2.12892e-06
-0.000117276
5.01652e-05
-2.35674e-06
-0.000126084
4.0704e-05
-2.74793e-06
-0.000132447
2.85447e-05
-3.34191e-06
-0.000135316
1.32251e-05
-4.16927e-06
-0.000133392
-5.64763e-06
-5.30133e-06
-0.000125079
-2.81695e-05
-6.6223e-06
-0.000109003
-5.3205e-05
-8.02124e-06
-8.46023e-05
-7.82963e-05
-9.18094e-06
-5.33251e-05
-9.80158e-05
-9.59037e-06
-2.04778e-05
-0.000101527
-8.77655e-06
-6.46199e-05
-4.54276e-06
-5.89681e-06
4.92796e-05
-3.14633e-06
-1.77407e-05
8.15819e-05
-3.16897e-06
-3.13005e-05
9.00916e-05
-3.02024e-06
-4.53106e-05
9.09397e-05
-2.78704e-06
-5.93725e-05
8.94447e-05
-2.62507e-06
-7.33751e-05
8.69471e-05
-2.52178e-06
-8.72636e-05
8.35959e-05
-2.47903e-06
-0.000100956
7.92105e-05
-2.52015e-06
-0.000114292
7.3455e-05
-2.67897e-06
-0.000126976
6.58496e-05
-3.00007e-06
-0.000138495
5.57633e-05
-3.54007e-06
-0.000148014
4.24279e-05
-4.36427e-06
-0.000154266
2.50168e-05
-5.53966e-06
-0.000155627
2.91098e-06
-7.19789e-06
-0.000149645
-2.49432e-05
-9.20849e-06
-0.000133942
-5.74411e-05
-1.14667e-05
-0.000106831
-9.18762e-05
-1.35313e-05
-6.91329e-05
-0.000121102
-1.4612e-05
-2.74522e-05
-0.000129437
-1.37707e-05
-8.43171e-05
-7.75488e-06
-6.0104e-06
5.88913e-05
-3.60129e-06
-1.83708e-05
9.76612e-05
-3.71883e-06
-3.25477e-05
0.000107854
-3.58516e-06
-4.72088e-05
0.00010894
-3.33966e-06
-6.19838e-05
0.000107385
-3.16566e-06
-7.68339e-05
0.000104854
-3.05654e-06
-9.18016e-05
0.000101585
-3.02114e-06
-0.000106923
9.74237e-05
-3.09137e-06
-0.000122177
9.20211e-05
-3.31287e-06
-0.000137409
8.48304e-05
-3.74832e-06
-0.000152233
7.50699e-05
-4.48232e-06
-0.000165874
6.16913e-05
-5.62303e-06
-0.000176952
4.33966e-05
-7.30145e-06
-0.000183212
1.88107e-05
-9.63979e-06
-0.000181709
-1.35904e-05
-1.28554e-05
-0.000168284
-5.4232e-05
-1.66348e-05
-0.000139259
-0.000100465
-2.04363e-05
-9.37744e-05
-0.000143538
-2.30486e-05
-3.94725e-05
-0.000161165
-2.25732e-05
-0.000109841
-1.3949e-05
-6.14966e-06
6.92126e-05
-4.1716e-06
-1.90988e-05
0.000115021
-4.41104e-06
-3.39266e-05
0.000126972
-4.29102e-06
-4.92154e-05
0.000128249
-4.01922e-06
-6.46282e-05
0.000126613
-3.81531e-06
-8.0213e-05
0.00012412
-3.68152e-06
-9.61336e-05
0.000121142
-3.63645e-06
-0.000112582
0.000117595
-3.72324e-06
-0.00012973
0.000113172
-4.00303e-06
-0.000147658
0.000107322
-4.56334e-06
-0.000166233
9.9175e-05
-5.53039e-06
-0.000184899
8.74385e-05
-7.08168e-06
-0.000202361
7.03049e-05
-9.44635e-06
-0.00021614
4.54585e-05
-1.28688e-05
-0.000222401
1.05785e-05
-1.7908e-05
-0.000214953
-3.74104e-05
-2.42693e-05
-0.000186859
-9.72021e-05
-3.13559e-05
-0.000133507
-0.000159501
-3.739e-05
-6.16363e-05
-0.000194331
-3.87044e-05
-0.00014437
-2.71073e-05
-6.35512e-06
8.04672e-05
-4.8995e-06
-1.99976e-05
0.000133961
-5.29722e-06
-3.55003e-05
0.000147659
-5.18392e-06
-5.13401e-05
0.000148949
-4.86029e-06
-6.72203e-05
0.000147088
-4.59427e-06
-8.32905e-05
0.000144591
-4.40117e-06
-9.98538e-05
0.000142018
-4.31265e-06
-0.000117287
0.000139415
-4.38574e-06
-0.000136012
0.000136598
-4.70055e-06
-0.000156442
0.000133128
-5.37612e-06
-0.000178868
0.000128197
-6.5953e-06
-0.000203235
0.000120443
-8.63778e-06
-0.000228732
0.000107711
-1.19093e-05
-0.000253093
8.67845e-05
-1.69645e-05
-0.000271455
5.33384e-05
-2.43986e-05
-0.000277024
3.26904e-06
-3.51098e-05
-0.000256928
-6.92031e-05
-4.80955e-05
-0.000199752
-0.000155276
-6.14006e-05
-0.000105037
-0.000220362
-6.86831e-05
-0.000193474
-5.59332e-05
-6.72352e-06
9.30416e-05
-5.85093e-06
-2.12417e-05
0.000154934
-6.45518e-06
-3.7451e-05
0.0001702
-6.33151e-06
-5.37108e-05
0.00017112
-5.91197e-06
-6.97816e-05
0.000168688
-5.5294e-06
-8.59298e-05
0.000165959
-5.21911e-06
-0.000102605
0.000163723
-5.02953e-06
-0.000120375
0.000162217
-5.03251e-06
-0.000139933
0.000161483
-5.32884e-06
-0.000162094
0.000161363
-6.07316e-06
-0.000187749
0.000161366
-7.51445e-06
-0.000217665
0.000160417
-1.0058e-05
-0.000252087
0.00015648
-1.43469e-05
-0.000289927
0.000145941
-2.13163e-05
-0.000327453
0.000122984
-3.21193e-05
-0.000355082
7.92082e-05
-4.83109e-05
-0.000358896
5.81462e-06
-7.12029e-05
-0.000311104
-0.000106241
-9.68271e-05
-0.000190747
-0.000223438
-0.000117281
-0.000270782
-0.000113439
-7.45523e-06
0.000107634
-7.13757e-06
-2.31783e-05
0.000178667
-8.00978e-06
-4.01552e-05
0.000195021
-7.84381e-06
-5.66489e-05
0.000194867
-7.25295e-06
-7.25147e-05
0.000191218
-6.66374e-06
-8.81642e-05
0.000187751
-6.14246e-06
-0.000104187
0.000185507
-5.76095e-06
-0.000121308
0.000184942
-5.60396e-06
-0.000140447
0.000186411
-5.78925e-06
-0.000162805
0.000190224
-6.50304e-06
-0.000189939
0.000196558
-8.05815e-06
-0.000223761
0.000205229
-1.09896e-05
-0.000266312
0.000215224
-1.61928e-05
-0.000319057
0.000223714
-2.50285e-05
-0.000381473
0.000224584
-3.91839e-05
-0.000447542
0.000205523
-6.02465e-05
-0.000496183
0.000143751
-8.92951e-05
-0.000483497
3.83776e-06
-0.000122765
-0.000340251
-0.000215146
-0.000151538
-0.000433713
-0.00017732
-8.94985e-06
0.000125535
-8.95077e-06
-2.64541e-05
0.000206299
-1.01272e-05
-4.43014e-05
0.000222702
-9.83392e-06
-6.07644e-05
0.000220269
-8.93914e-06
-7.58927e-05
0.00021436
-8.01391e-06
-9.02921e-05
0.000209308
-7.15796e-06
-0.000104682
0.000206357
-6.46084e-06
-0.000119843
0.000206116
-6.01288e-06
-0.000136777
0.000209289
-5.94348e-06
-0.000156886
0.00021678
-6.44643e-06
-0.000182219
0.000229747
-7.85609e-06
-0.000215739
0.000249491
-1.0742e-05
-0.000261682
0.000277185
-1.60189e-05
-0.000325604
0.000312438
-2.48017e-05
-0.000413975
0.000350463
-3.75065e-05
-0.000528249
0.000371766
-5.19688e-05
-0.00065178
0.000328231
-6.09494e-05
-0.00070687
0.000107787
-4.88597e-05
-0.000552739
-0.000336994
-3.22836e-05
-0.00084832
-0.000138132
-1.211e-05
0.000149412
-1.1767e-05
-3.23305e-05
0.000240008
-1.34885e-05
-5.10371e-05
0.000254461
-1.30529e-05
-6.69376e-05
0.000247803
-1.16338e-05
-8.06126e-05
0.000238072
-1.00375e-05
-9.29378e-05
0.000230132
-8.49911e-06
-0.000104622
0.000225224
-7.18278e-06
-0.000116363
0.000224069
-6.21091e-06
-0.000129018
0.000227633
-5.68904e-06
-0.000143818
0.000237348
-5.76804e-06
-0.000162817
0.00025546
-6.71406e-06
-0.00018939
0.000284967
-8.90275e-06
-0.000229629
0.000330028
-1.26043e-05
-0.000293424
0.000392818
-1.6585e-05
-0.000398372
0.0004696
-1.41891e-05
-0.000563263
0.000524424
1.22327e-05
-0.000793563
0.000467573
9.0958e-05
-0.000967673
5.25105e-05
0.000229387
-0.000783714
-0.000822961
0.000302008
-0.00163102
-1.01523e-06
-1.74923e-05
0.000182795
-1.58906e-05
-4.16093e-05
0.000281391
-1.72664e-05
-6.14633e-05
0.000290518
-1.62031e-05
-7.69594e-05
0.000277099
-1.37993e-05
-8.87125e-05
0.000261235
-1.14091e-05
-9.7947e-05
0.000248534
-9.16746e-06
-0.000105561
0.000240048
-7.21103e-06
-0.000112124
0.000236258
-5.62546e-06
-0.000118057
0.000238056
-4.49108e-06
-0.000123801
0.000246997
-3.90467e-06
-0.000130577
0.000266091
-3.85605e-06
-0.000140731
0.00029917
-4.04757e-06
-0.000161387
0.00035365
-2.96672e-06
-0.000206982
0.000432459
5.95363e-06
-0.000317213
0.000536784
4.30466e-05
-0.000547585
0.000605357
0.000149441
-0.000932974
0.000491187
0.000361774
-0.00121284
-0.000263875
0.000596252
-0.000955394
-0.00163623
0.000555827
-0.00256918
-1.72371e-05
-3.82134e-05
0.000245015
-2.40067e-05
-6.54018e-05
0.000335962
-2.7382e-05
-8.23791e-05
0.000332629
-2.51334e-05
-9.2008e-05
0.00030781
-2.10823e-05
-9.82887e-05
0.000283968
-1.64523e-05
-0.00010272
0.000265036
-1.20703e-05
-0.000105668
0.000251269
-8.27276e-06
-0.000106741
0.000242536
-5.20515e-06
-0.000105377
0.000239576
-2.88394e-06
-0.000100417
0.000243292
-1.25448e-06
-9.14377e-05
0.000257167
-5.58423e-08
-7.85772e-05
0.000284467
1.84213e-06
-6.85331e-05
0.00033527
8.33633e-06
-7.93275e-05
0.000410554
3.26996e-05
-0.000173552
0.000524537
0.000106471
-0.000436937
0.000585964
0.000282778
-0.000921854
0.000403681
0.000572423
-0.00124795
-0.000696724
0.000758944
-0.00100462
-0.00235254
0.000472983
-0.00336334
-0.000210457
-3.20261e-05
0.00031649
-3.94491e-05
-7.64722e-05
0.000417706
-3.72982e-05
-0.000101538
0.000389952
-3.2257e-05
-0.000115425
0.000345118
-2.34213e-05
-0.000119546
0.000304514
-1.64248e-05
-0.000117614
0.000273189
-1.0085e-05
-0.000111711
0.000250114
-4.74762e-06
-0.00010227
0.000233636
-5.40488e-07
-8.89514e-05
0.000223505
2.75264e-06
-6.92348e-05
0.000218651
4.92406e-06
-4.05896e-05
0.000222301
6.22143e-06
2.1232e-07
0.000234885
8.78045e-06
5.18677e-05
0.000266288
1.73259e-05
9.98195e-05
0.000315078
4.75234e-05
9.53186e-05
0.000398221
0.000130817
-7.91783e-05
0.000447465
0.000312996
-0.000492438
0.000232194
0.000584747
-0.000908841
-0.000941793
0.000661471
-0.000896968
-0.00263495
0.000270535
-0.00384494
-0.000415366
-0.000179027
0.000545713
-5.01956e-05
-0.000181217
0.000479815
-5.99191e-05
-0.000161126
0.000424872
-5.50103e-05
-0.00013969
0.00036669
-4.30077e-05
-0.000111478
0.000304342
-2.80399e-05
-8.14099e-05
0.000257762
-1.46418e-05
-5.13002e-05
0.000224143
-4.13922e-06
-2.00209e-05
0.000198728
3.62847e-06
1.3238e-05
0.00018127
8.97615e-06
5.16903e-05
0.000168158
1.20411e-05
9.86621e-05
0.000162782
1.25464e-05
0.00016081
0.000160611
1.21262e-05
0.000240325
0.000171423
1.53502e-05
0.000339643
0.000184733
3.10274e-05
0.000435835
0.000215603
8.64258e-05
0.000462902
0.000204021
0.000216377
0.000307171
4.33596e-06
0.000383588
-0.00017782
-0.000909991
0.000453189
-0.000504839
-0.00244456
0.00013663
-0.00377462
-0.000575162
-0.000370712
0.00108001
-0.000163587
-0.000263137
0.000486545
-0.000114305
-0.00011321
0.000357073
-8.21283e-05
4.85862e-05
0.000256076
-5.11818e-05
0.000200022
0.000183267
-3.03609e-05
0.00033617
0.000135751
-1.4136e-05
0.000455345
0.000106521
-1.55352e-06
0.000559137
8.63323e-05
8.60403e-06
0.000650102
7.41294e-05
1.61748e-05
0.000733363
6.4471e-05
2.04259e-05
0.000813206
6.13908e-05
2.1549e-05
0.000897842
5.74833e-05
1.8491e-05
0.000994028
6.11477e-05
1.40898e-05
0.00111052
5.74459e-05
1.07913e-05
0.00125963
5.05318e-05
1.59646e-05
0.00138781
3.61285e-06
7.22309e-05
0.00143142
-0.000160116
0.000120838
0.00103784
-0.000697246
0.000180835
0.000265504
-0.00171041
3.81936e-05
-0.00278045
-0.000728671
0.00122737
-0.000147355
0.00187006
-0.00015615
0.00237954
-0.000152409
0.00277185
-0.000136226
0.00307225
-0.000117141
0.00330869
-0.00010069
0.00350026
-8.50458e-05
0.00365806
-7.14715e-05
0.00379159
-5.93964e-05
0.00390462
-4.85587e-05
0.00400601
-3.99965e-05
0.00409689
-3.33961e-05
0.00418457
-2.65368e-05
0.00426734
-2.53201e-05
0.00433319
-1.5326e-05
0.00435187
-1.50644e-05
0.00418552
6.23343e-06
0.00351517
-2.68944e-05
0.00190175
-9.6995e-05
-0.000878696
-4.01275e-06
4.38528e-06
-7.95631e-07
-1.28855e-05
9.39334e-06
-5.24091e-07
-2.3215e-05
1.08603e-05
-3.34416e-07
-3.37196e-05
1.10136e-05
-2.15432e-07
-4.39681e-05
1.07439e-05
-1.98281e-07
-5.37551e-05
1.02851e-05
-2.58829e-07
-6.288e-05
9.64355e-06
-3.84165e-07
-7.10973e-05
8.77267e-06
-5.7479e-07
-7.80833e-05
7.61806e-06
-8.36545e-07
-8.34727e-05
6.11677e-06
-1.17604e-06
-8.68407e-05
4.21437e-06
-1.59802e-06
-8.77276e-05
1.8731e-06
-2.10214e-06
-8.56793e-05
-9.13677e-07
-2.68108e-06
-8.02876e-05
-4.08826e-06
-3.30342e-06
-7.13031e-05
-7.51584e-06
-3.9271e-06
-5.87372e-05
-1.09538e-05
-4.48125e-06
-4.30447e-05
-1.39769e-05
-4.85943e-06
-2.54801e-05
-1.5796e-05
-4.92745e-06
-8.91212e-06
-1.48235e-05
-4.56818e-06
-7.44173e-06
-2.90875e-06
-9.26826e-06
1.41227e-05
-1.79914e-06
-2.58679e-05
2.67428e-05
-1.74601e-06
-4.45976e-05
3.03303e-05
-1.54543e-06
-6.34197e-05
3.05323e-05
-1.34428e-06
-8.15574e-05
2.95485e-05
-1.23908e-06
-9.8573e-05
2.79647e-05
-1.2145e-06
-0.000114069
2.58307e-05
-1.26129e-06
-0.000127608
2.30641e-05
-1.38498e-06
-0.000138694
1.95527e-05
-1.59661e-06
-0.000146768
1.51756e-05
-1.90831e-06
-0.000151207
9.81738e-06
-2.32912e-06
-0.000151386
3.43464e-06
-2.86134e-06
-0.000146693
-3.96927e-06
-3.50716e-06
-0.000136587
-1.22877e-05
-4.21654e-06
-0.00012079
-2.11397e-05
-4.93896e-06
-9.94152e-05
-2.99221e-05
-5.58355e-06
-7.32245e-05
-3.75903e-05
-6.00775e-06
-4.41571e-05
-4.21966e-05
-6.03997e-06
-1.64945e-05
-3.98756e-05
-5.52076e-06
-2.18635e-05
-3.28143e-06
-1.12802e-05
2.59724e-05
-2.36032e-06
-3.09518e-05
4.73327e-05
-2.45057e-06
-5.2936e-05
5.32262e-05
-2.2533e-06
-7.49034e-05
5.3358e-05
-2.00791e-06
-9.59856e-05
5.14489e-05
-1.85002e-06
-0.000115694
4.84791e-05
-1.7699e-06
-0.000133586
4.45515e-05
-1.76193e-06
-0.000149187
3.95525e-05
-1.8364e-06
-0.00016196
3.33144e-05
-2.00968e-06
-0.0001713
2.56528e-05
-2.29986e-06
-0.000176542
1.63988e-05
-2.72268e-06
-0.000176964
5.45085e-06
-3.28834e-06
-0.000171794
-7.24685e-06
-3.99221e-06
-0.000160399
-2.14607e-05
-4.7975e-06
-0.000142352
-3.66305e-05
-5.64648e-06
-0.000117656
-5.17619e-05
-6.43077e-06
-8.70647e-05
-6.50937e-05
-6.97296e-06
-5.2768e-05
-7.32725e-05
-7.05376e-06
-1.98401e-05
-6.96379e-05
-6.47009e-06
-3.92015e-05
-3.82194e-06
-1.20541e-05
3.87174e-05
-2.84082e-06
-3.31125e-05
6.94954e-05
-3.07023e-06
-5.65959e-05
7.78124e-05
-2.88528e-06
-8.00518e-05
7.78544e-05
-2.6124e-06
-0.000102603
7.49905e-05
-2.41965e-06
-0.000123776
7.06212e-05
-2.30267e-06
-0.000143147
6.4907e-05
-2.26004e-06
-0.000160252
5.77026e-05
-2.30746e-06
-0.000174558
4.8775e-05
-2.46828e-06
-0.000185439
3.78561e-05
-2.76834e-06
-0.000192165
2.46808e-05
-3.23186e-06
-0.000193915
9.06023e-06
-3.87948e-06
-0.000189759
-9.16836e-06
-4.72852e-06
-0.000178742
-2.98246e-05
-5.73112e-06
-0.000160112
-5.21616e-05
-6.82535e-06
-0.000133543
-7.48091e-05
-7.87857e-06
-9.96138e-05
-9.51498e-05
-8.66283e-06
-6.07261e-05
-0.000108062
-8.88314e-06
-2.28695e-05
-0.000103433
-8.2496e-06
-5.88745e-05
-4.98086e-06
-1.25493e-05
5.21021e-05
-3.29355e-06
-3.46591e-05
9.2927e-05
-3.66136e-06
-5.93443e-05
0.000103824
-3.49185e-06
-8.40533e-05
0.00010382
-3.20088e-06
-0.000107922
0.000100057
-2.98766e-06
-0.000130518
9.43863e-05
-2.85334e-06
-0.000151466
8.70348e-05
-2.80146e-06
-0.000170344
7.78241e-05
-2.85422e-06
-0.000186646
6.64458e-05
-3.04316e-06
-0.00019974
5.25168e-05
-3.40557e-06
-0.000208829
3.5622e-05
-3.9798e-06
-0.000212924
1.53927e-05
-4.80217e-06
-0.000210867
-8.49778e-06
-5.89787e-06
-0.000201272
-3.61305e-05
-7.24772e-06
-0.000182835
-6.66795e-05
-8.77618e-06
-0.000154629
-9.8462e-05
-1.03201e-05
-0.000116794
-0.000127867
-1.15687e-05
-7.18802e-05
-0.000147464
-1.20829e-05
-2.72365e-05
-0.000142548
-1.13995e-05
-8.17876e-05
-7.09106e-06
-1.30878e-05
6.61957e-05
-3.78137e-06
-3.63578e-05
0.000117775
-4.29996e-06
-6.23909e-05
0.000131446
-4.14864e-06
-8.85204e-05
0.00013146
-3.84313e-06
-0.000113902
0.000126879
-3.61576e-06
-0.000138165
0.000120054
-3.47415e-06
-0.000161007
0.000111291
-3.42818e-06
-0.000182082
0.000100383
-3.50834e-06
-0.000200947
8.69387e-05
-3.75707e-06
-0.000216994
7.0434e-05
-4.22667e-06
-0.000229384
5.02395e-05
-4.97631e-06
-0.000236964
2.5699e-05
-6.06808e-06
-0.000238291
-3.78134e-06
-7.55815e-06
-0.000231379
-3.88804e-05
-9.46353e-06
-0.000214104
-7.88724e-05
-1.17041e-05
-0.000184533
-0.00012197
-1.40852e-05
-0.000141914
-0.000163492
-1.61753e-05
-8.86845e-05
-0.000192995
-1.72888e-05
-3.41236e-05
-0.000189285
-1.66008e-05
-0.000109835
-1.06191e-05
-1.37478e-05
8.11553e-05
-4.35803e-06
-3.84008e-05
0.000144314
-5.05537e-06
-6.60213e-05
0.000160971
-4.92415e-06
-9.37994e-05
0.000161052
-4.59998e-06
-0.000120918
0.000155727
-4.354e-06
-0.000147091
0.000147907
-4.20232e-06
-0.000172121
0.000138005
-4.16339e-06
-0.000195784
0.000125804
-4.27881e-06
-0.000217753
0.000110835
-4.60598e-06
-0.000237514
9.2414e-05
-5.21863e-06
-0.000254253
6.96446e-05
-6.20684e-06
-0.0002667
4.14564e-05
-7.67466e-06
-0.000273112
6.81487e-06
-9.72403e-06
-0.000270825
-3.58833e-05
-1.24818e-05
-0.000256527
-8.65262e-05
-1.58521e-05
-0.00022669
-0.000143632
-1.9642e-05
-0.000178834
-0.000201622
-2.32568e-05
-0.000114537
-0.000246297
-2.56072e-05
-4.54811e-05
-0.000247006
-2.51058e-05
-0.000146577
-1.64935e-05
-1.4548e-05
9.71709e-05
-5.06887e-06
-4.08351e-05
0.00017287
-5.98723e-06
-7.02829e-05
0.000192708
-5.87505e-06
-9.99042e-05
0.000192852
-5.51863e-06
-0.000128918
0.000186813
-5.23712e-06
-0.000157147
0.000178138
-5.05819e-06
-0.000184544
0.000167393
-5.01187e-06
-0.000211062
0.000154385
-5.15419e-06
-0.000236575
0.000138597
-5.56244e-06
-0.000260768
0.000119199
-6.34007e-06
-0.000282986
9.50027e-05
-7.62232e-06
-0.000302013
6.44328e-05
-9.573e-06
-0.000315738
2.56128e-05
-1.23745e-05
-0.000321066
-2.38435e-05
-1.63517e-05
-0.000313074
-8.58743e-05
-2.14988e-05
-0.000285856
-0.000159851
-2.76335e-05
-0.000233798
-0.000240111
-3.40061e-05
-0.000155921
-0.000308308
-3.89148e-05
-6.56771e-05
-0.000320591
-3.92315e-05
-0.000199599
-2.66041e-05
-1.55169e-05
0.000114481
-5.96468e-06
-4.37148e-05
0.000203818
-7.16203e-06
-7.52143e-05
0.000226979
-7.0625e-06
-0.000106811
0.000227077
-6.6474e-06
-0.00013777
0.000220254
-6.29712e-06
-0.000168055
0.000210796
-6.0551e-06
-0.000197812
0.00019948
-5.96659e-06
-0.000227243
0.000186198
-6.10551e-06
-0.000256522
0.000170447
-6.57408e-06
-0.000285686
0.000151315
-7.5149e-06
-0.000314448
0.000127362
-9.12769e-06
-0.000341886
9.64742e-05
-1.16855e-05
-0.000365908
5.57479e-05
-1.55596e-05
-0.000383332
1.90014e-06
-2.11879e-05
-0.000387322
-7.08851e-05
-2.8907e-05
-0.000369053
-0.000163581
-3.88079e-05
-0.00031776
-0.000272676
-5.00842e-05
-0.000226425
-0.000376813
-6.02197e-05
-0.000105399
-0.000417049
-6.32728e-05
-0.000287071
-4.50352e-05
-1.67247e-05
0.000133421
-7.11472e-06
-4.71697e-05
0.000237634
-8.66794e-06
-8.09387e-05
0.00026413
-8.56544e-06
-0.000114568
0.000263892
-8.04645e-06
-0.000147385
0.000256048
-7.57107e-06
-0.000179527
0.000245741
-7.20429e-06
-0.000211379
0.00023403
-7.01066e-06
-0.000243459
0.000220977
-7.08481e-06
-0.000276355
0.000206201
-7.5571e-06
-0.000310644
0.000188843
-8.61591e-06
-0.00034671
0.000167373
-1.05406e-05
-0.000384411
0.000139281
-1.3743e-05
-0.000422484
0.000100701
-1.87884e-05
-0.000457373
4.61675e-05
-2.63434e-05
-0.000482802
-3.20399e-05
-3.78142e-05
-0.000486322
-0.00014163
-5.35408e-05
-0.000450018
-0.000283999
-7.3077e-05
-0.000354304
-0.00044073
-9.31979e-05
-0.000191268
-0.000545165
-0.000103603
-0.000454558
-7.97145e-05
-1.83196e-05
0.000154513
-8.62323e-06
-5.14699e-05
0.000274962
-1.06326e-05
-8.77411e-05
0.000304565
-1.04959e-05
-0.000123377
0.000303415
-9.79946e-06
-0.0001578
0.000294051
-9.10917e-06
-0.000191355
0.000282597
-8.51958e-06
-0.000224705
0.00027047
-8.11929e-06
-0.000258729
0.000257992
-8.02414e-06
-0.000294516
0.00024505
-8.39127e-06
-0.000333362
0.00023107
-9.45377e-06
-0.000376679
0.000214751
-1.15752e-05
-0.000425736
0.00019361
-1.53304e-05
-0.000481065
0.000163287
-2.16045e-05
-0.000541164
0.000116638
-3.16879e-05
-0.000601678
4.34802e-05
-4.71253e-05
-0.000649798
-7.15781e-05
-7.02426e-05
-0.00065942
-0.000244412
-0.000101168
-0.000584825
-0.000476831
-0.00013532
-0.000366735
-0.000723352
-0.000157183
-0.000800448
-0.000134284
-2.05891e-05
0.00017862
-1.06559e-05
-5.712e-05
0.000316735
-1.32523e-05
-9.61649e-05
0.000348793
-1.30269e-05
-0.000133686
0.000345718
-1.20353e-05
-0.000169267
0.000333957
-1.09886e-05
-0.000203514
0.000320726
-1.00252e-05
-0.000237382
0.000307842
-9.26469e-06
-0.000272114
0.000295961
-8.84117e-06
-0.000309314
0.00028539
-8.92945e-06
-0.000351089
0.000276133
-9.79135e-06
-0.00040019
0.000267645
-1.18516e-05
-0.000460061
0.000258312
-1.58202e-05
-0.000534608
0.000244504
-2.28635e-05
-0.000627344
0.000219048
-3.47029e-05
-0.000738915
0.000169248
-5.3381e-05
-0.000862204
7.19878e-05
-8.0523e-05
-0.000959692
-0.000120967
-0.000115252
-0.000932078
-0.000480314
-0.000146896
-0.000633809
-0.00101063
-0.000162525
-0.00144284
-0.000168735
-2.40464e-05
0.000207191
-1.34757e-05
-6.49831e-05
0.000364337
-1.6792e-05
-0.000107151
0.000397482
-1.63545e-05
-0.000146335
0.000390839
-1.48755e-05
-0.000182398
0.00037528
-1.32738e-05
-0.000216292
0.000359197
-1.17353e-05
-0.000249282
0.000344779
-1.04071e-05
-0.000282896
0.000332995
-9.43269e-06
-0.000319108
0.000324646
-8.988e-06
-0.000360705
0.000320605
-9.32166e-06
-0.000411765
0.000321684
-1.08348e-05
-0.000478257
0.000328259
-1.41967e-05
-0.000568733
0.000339414
-2.04529e-05
-0.000694366
0.000350631
-3.07514e-05
-0.000865759
0.000347894
-4.47601e-05
-0.00107582
0.000287068
-5.69853e-05
-0.00126329
5.63292e-05
-5.07825e-05
-0.0012625
-0.000521671
-8.29025e-06
-0.000854337
-0.00147445
2.33733e-05
-0.00233652
-9.87949e-05
-3.006e-05
0.000243123
-1.76385e-05
-7.69637e-05
0.000419788
-2.20358e-05
-0.000122294
0.000451053
-2.12937e-05
-0.000162331
0.000438272
-1.90302e-05
-0.000197824
0.000417192
-1.64561e-05
-0.000230162
0.000396943
-1.39074e-05
-0.000260713
0.000379762
-1.16158e-05
-0.00029103
0.000366851
-9.74889e-06
-0.000323199
0.00035957
-8.44322e-06
-0.000360262
0.000359764
-7.86445e-06
-0.000407078
0.000370031
-8.24455e-06
-0.000471471
0.000393593
-9.84405e-06
-0.000565898
0.000433826
-1.25884e-05
-0.000706709
0.000489076
-1.42191e-05
-0.000908385
0.000539895
-4.51301e-06
-0.00115755
0.000504893
4.35729e-05
-0.00138713
0.000207152
0.000169715
-0.00139144
-0.000646065
0.000358088
-0.000897472
-0.00203944
0.000373036
-0.00322408
-1.09287e-05
-3.76408e-05
0.000288378
-2.35048e-05
-9.24882e-05
0.000485819
-2.84505e-05
-0.000142505
0.000511771
-2.69047e-05
-0.000184475
0.000489724
-2.32814e-05
-0.00021891
0.000459673
-1.9454e-05
-0.000247999
0.000432569
-1.57044e-05
-0.000273683
0.000410502
-1.22667e-05
-0.00029761
0.000394425
-9.27332e-06
-0.00032146
0.000385727
-6.79882e-06
-0.000347517
0.000386771
-4.85444e-06
-0.000379947
0.000401865
-3.26036e-06
-0.000425791
0.000436637
-1.24782e-06
-0.00049796
0.000499172
3.85653e-06
-0.000613147
0.000588584
2.16316e-05
-0.000789882
0.000680766
7.89098e-05
-0.00101964
0.000655901
0.000228186
-0.0012715
0.000311953
0.000508838
-0.00130377
-0.000774015
0.000756471
-0.000816396
-0.00250117
0.000530174
-0.00396171
-9.59961e-05
-7.07028e-05
0.000368484
-3.34102e-05
-0.000132099
0.000560732
-4.08985e-05
-0.000178196
0.000570869
-3.81347e-05
-0.000212442
0.000535511
-3.26236e-05
-0.000240428
0.000497433
-2.62269e-05
-0.000264119
0.00046408
-1.98903e-05
-0.000284337
0.000436517
-1.40689e-05
-0.000301268
0.000415136
-8.98486e-06
-0.000315221
0.000401452
-4.65589e-06
-0.000326467
0.000397658
-8.954e-07
-0.000336596
0.000409068
2.87077e-06
-0.000348577
0.000441658
8.80264e-06
-0.000371706
0.00050782
2.28164e-05
-0.000416312
0.000604166
6.17234e-05
-0.000512298
0.000719278
0.000163946
-0.000660423
0.000699562
0.000387243
-0.000880969
0.000374793
0.000730129
-0.000954677
-0.000815573
0.000874211
-0.000606147
-0.00273139
0.000354673
-0.0044982
-0.000280114
-5.067e-05
0.000430386
-5.06805e-05
-0.000142896
0.000671929
-5.62691e-05
-0.000209684
0.000655403
-5.00031e-05
-0.000254129
0.000595949
-3.94136e-05
-0.00028214
0.00053878
-2.97607e-05
-0.000298705
0.000491074
-2.05133e-05
-0.000307116
0.00045238
-1.21993e-05
-0.000308748
0.000421192
-4.96512e-06
-0.000303852
0.000398215
1.09196e-06
-0.000290572
0.000383192
6.11006e-06
-0.000267727
0.000381247
1.11984e-05
-0.000230887
0.000394451
1.91468e-05
-0.000180364
0.000437752
3.6871e-05
-0.000115764
0.000504674
8.24161e-05
-5.62309e-05
0.000600217
0.000190345
-5.95064e-05
0.000609831
0.000406002
-0.000147109
0.000351006
0.000696137
-0.000308003
-0.000706365
0.000713157
-0.00020022
-0.0027175
0.000148863
-0.00468839
-0.000425398
-0.000196171
0.000637078
-6.07175e-05
-0.000239523
0.000732407
-7.70453e-05
-0.000275559
0.000709827
-7.33983e-05
-0.000303608
0.000640998
-6.00078e-05
-0.000307676
0.000558098
-4.32893e-05
-0.000294454
0.000490582
-2.73715e-05
-0.000269668
0.000437024
-1.35698e-05
-0.000234811
0.00039223
-2.26569e-06
-0.000192353
0.000358473
6.26043e-06
-0.000139624
0.000329795
1.27093e-05
-7.65413e-05
0.000313416
1.72942e-05
3.89189e-06
0.000303569
2.25753e-05
0.000109128
0.000314438
3.34278e-05
0.000245989
0.000337092
6.17489e-05
0.000424224
0.000378262
0.000130145
0.000601884
0.000374997
0.000273552
0.000767026
0.000147608
0.000421845
0.000660431
-0.000590546
0.000443964
0.000436326
-0.00241455
5.77892e-05
-0.00432353
-0.000503701
-0.000666054
0.00129103
-0.000151481
-0.000628531
0.000713799
-0.00013322
-0.000492842
0.000596057
-0.000104047
-0.000303876
0.000477879
-7.70288e-05
-0.000105958
0.000385903
-5.60841e-05
8.8869e-05
0.000318887
-3.72689e-05
0.000273229
0.000271973
-2.0862e-05
0.000446554
0.00023441
-6.90063e-06
0.000608678
0.000207996
4.52736e-06
0.000761574
0.000184462
1.28628e-05
0.000908512
0.000169864
1.81627e-05
0.001053
0.000157573
1.99953e-05
0.00120842
0.000152143
2.0972e-05
0.00137973
0.000151651
2.49205e-05
0.0016065
0.000135851
3.16033e-05
0.0018576
0.00010307
9.30616e-05
0.00208769
-8.35387e-05
0.000121893
0.00208316
-0.000526675
0.00012149
0.00140878
-0.00170058
-1.39223e-06
-0.00310464
-0.000538774
0.0012706
-0.000126933
0.00197298
-0.000144727
0.00256334
-0.000146709
0.00304384
-0.000138854
0.00343959
-0.000126986
0.00377237
-0.000114583
0.00406129
-0.000101993
0.00431358
-8.93482e-05
0.00453983
-7.76542e-05
0.00474191
-6.61738e-05
0.00492703
-5.52493e-05
0.0050989
-4.7695e-05
0.00526108
-3.65715e-05
0.00542288
-3.5474e-05
0.00556486
-2.14559e-05
0.00568138
-2.851e-05
0.00560655
-2.47911e-06
0.00511022
-5.72392e-05
0.00340475
-9.2101e-05
-0.000578594
-4.54435e-06
4.71638e-06
-9.67664e-07
-1.46214e-05
1.05657e-05
-1.01282e-06
-2.63303e-05
1.2286e-05
-9.11529e-07
-3.81562e-05
1.24293e-05
-8.18812e-07
-4.96115e-05
1.2054e-05
-7.97e-07
-6.04745e-05
1.14468e-05
-8.42636e-07
-7.05271e-05
1.06215e-05