/*--------------------------------*- C++ -*----------------------------------*\
  =========                 |
  \\      /  F ield         | OpenFOAM: The Open Source CFD Toolbox
   \\    /   O peration     | Website:  https://openfoam.org
    \\  /    A nd           | Version:  10
     \\/     M anipulation  |
\*---------------------------------------------------------------------------*/
FoamFile
{
    format      ascii;
    class       volScalarField;
    location    "4.125";
    object      p;
}
// * * * * * * * * * * * * * * * * * * * * * * * * * * * * * * * * * * * * * //

dimensions      [0 2 -2 0 0 0 0];

internalField   nonuniform List<scalar> 
400
(
3.03645e-09
-2.96593e-05
-7.79249e-06
4.06877e-05
0.000121952
0.000236629
0.000385273
0.000568232
0.000785035
0.0010339
0.00131128
0.0016113
0.00192541
0.00224199
0.00254656
0.00282236
0.00305104
0.00321494
0.00331111
0.00329271
3.00115e-05
-6.76485e-07
2.27391e-05
6.9311e-05
0.000146667
0.000256054
0.000398449
0.000574574
0.000784331
0.00102634
0.00129746
0.00159195
0.00190218
0.00221662
0.00252082
0.00279785
0.00302886
0.00319599
0.0032974
0.0032777
4.41981e-06
-3.14658e-05
-9.71396e-06
3.4051e-05
0.000108237
0.00021433
0.000353717
0.000527681
0.000736775
0.00098031
0.00125581
0.00155885
0.00188148
0.00221223
0.00253599
0.00283438
0.00308596
0.0032695
0.00338204
0.00335755
-5.36063e-05
-9.38131e-05
-7.44006e-05
-3.43949e-05
3.55465e-05
0.000137311
0.000272946
0.000444598
0.000653843
0.000901144
0.0011852
0.00150231
0.00184611
0.00220502
0.0025629
0.00289864
0.00318663
0.00339983
0.00353287
0.00350638
-0.000149847
-0.000194713
-0.000178428
-0.00014316
-7.84844e-05
1.80132e-05
0.000149248
0.00031852
0.000528806
0.000782204
0.00107917
0.00141758
0.00179242
0.00219265
0.00260127
0.00299406
0.00333919
0.00360005
0.00376645
0.00374038
-0.000284344
-0.000334813
-0.000322599
-0.000293452
-0.000235722
-0.000146369
-2.14251e-05
0.000143854
0.000354264
0.000614105
0.000926348
0.00129132
0.00170627
0.00216198
0.00264097
0.00311538
0.00354524
0.00387944
0.00409843
0.00407715
-0.000457033
-0.000514333
-0.000507366
-0.000486284
-0.000438058
-0.000358982
-0.000243889
-8.63335e-05
0.000120729
0.00038447
0.00071136
0.00110623
0.0015675
0.00209251
0.00266398
0.00325083
0.00380324
0.00424938
0.00455123
0.00454561
-0.000668162
-0.000733745
-0.000733452
-0.000722963
-0.000687752
-0.000623492
-0.00052376
-0.000380241
-0.000183299
7.77018e-05
0.000413711
0.000834442
0.0013468
0.00195301
0.00264039
0.00337736
0.00410397
0.00472167
0.00515583
0.00519345
-0.000918039
-0.000993509
-0.00100146
-0.00100458
-0.00098681
-0.000943371
-0.000866678
-0.000746538
-0.000570567
-0.000324186
9.03254e-06
0.000446187
0.00100365
0.0016964
0.00252051
0.00345058
0.00442017
0.00530123
0.00595167
0.00610232
-0.00120703
-0.00129405
-0.00131169
-0.00133166
-0.00133645
-0.00132118
-0.00127738
-0.00119324
-0.00105379
-0.000840398
-0.00053044
-9.81083e-05
0.000481628
0.00125439
0.00222368
0.003387
0.00468526
0.00596661
0.00698452
0.00741731
-0.0015358
-0.00163591
-0.001664
-0.00170381
-0.00173648
-0.00175762
-0.00175842
-0.00172606
-0.00164369
-0.00148928
-0.00123417
-0.000840962
-0.000260842
0.000534032
0.00162155
0.0030336
0.00475044
0.00662764
0.00828423
0.00938879
-0.00190597
-0.00202021
-0.00205789
-0.00211932
-0.00218458
-0.00225048
-0.00230858
-0.00234606
-0.00234565
-0.00228415
-0.00212995
-0.00183923
-0.00135215
-0.000592904
0.000530104
0.00212666
0.00429394
0.00699255
0.00972853
0.0124371
-0.00232164
-0.00244966
-0.00249274
-0.00257494
-0.00267545
-0.00279323
-0.00292093
-0.00304678
-0.00315515
-0.00322518
-0.0032279
-0.0031213
-0.00284291
-0.0023018
-0.00137036
0.000129035
0.0025552
0.00615255
0.0106074
0.0162137
-0.00279118
-0.00292614
-0.00296203
-0.00305964
-0.00319672
-0.00337307
-0.00358148
-0.00381204
-0.00405343
-0.00429145
-0.00450685
-0.00467209
-0.00474469
-0.00465269
-0.00428491
-0.00344914
-0.00172517
0.00187914
0.00760468
0.0174654
-0.00334258
-0.00349503
-0.00351251
-0.00362223
-0.00378138
-0.00400153
-0.00428277
-0.00462066
-0.00500939
-0.00544441
-0.00592503
-0.00645543
-0.00704853
-0.00773258
-0.00859788
-0.0097589
-0.0110498
-0.00982722
-0.00465724
0.0101927
-0.00405362
-0.00400156
-0.00393547
-0.00399125
-0.00418032
-0.00448521
-0.0048884
-0.00537462
-0.00593816
-0.00658325
-0.00733142
-0.0082313
-0.0093867
-0.0109774
-0.013506
-0.0176231
-0.0242817
-0.0276164
-0.0242641
-0.00328753
-0.00452526
-0.00497683
-0.0047947
-0.00494605
-0.00510863
-0.00539014
-0.00579368
-0.0063196
-0.00696883
-0.00775156
-0.00870378
-0.00990714
-0.0115723
-0.0139707
-0.0182154
-0.0246789
-0.0368019
-0.0458075
-0.0426601
-0.00964197
-0.00775851
-0.00524106
-0.00479071
-0.00446944
-0.00466564
-0.00512449
-0.00577243
-0.00654161
-0.00742196
-0.00840547
-0.00955136
-0.010905
-0.0128285
-0.0153778
-0.020384
-0.0276699
-0.0403375
-0.0482461
-0.0414173
0.0118492
-0.00457752
-0.00746196
-0.00664778
-0.00695245
-0.00689307
-0.0070556
-0.00741536
-0.00797267
-0.00869799
-0.00957787
-0.0106223
-0.0118281
-0.0136818
-0.0159872
-0.0210048
-0.0275205
-0.0371392
-0.0364532
-0.0119966
0.0740802
-0.0291825
-0.00428258
-0.00321079
-0.00278997
-0.00297574
-0.00363991
-0.00463782
-0.00569827
-0.00690821
-0.00809137
-0.00954082
-0.0110121
-0.0131291
-0.0156604
-0.0189438
-0.0210226
-0.0185497
0.00673416
0.0727855
0.211864
)
;

boundaryField
{
    movingWall
    {
        type            zeroGradient;
    }
    fixedWalls
    {
        type            zeroGradient;
    }
    frontAndBack
    {
        type            empty;
    }
}


// ************************************************************************* //
