/*--------------------------------*- C++ -*----------------------------------*\
  =========                 |
  \\      /  F ield         | OpenFOAM: The Open Source CFD Toolbox
   \\    /   O peration     | Website:  https://openfoam.org
    \\  /    A nd           | Version:  10
     \\/     M anipulation  |
\*---------------------------------------------------------------------------*/
FoamFile
{
    format      ascii;
    class       volScalarField;
    location    "10";
    object      p;
}
// * * * * * * * * * * * * * * * * * * * * * * * * * * * * * * * * * * * * * //

dimensions      [0 2 -2 0 0 0 0];

internalField   nonuniform List<scalar> 
496
(
25.4052
26.1474
23.1914
16.5423
25.6397
27.0585
23.7649
17.2564
30.4528
28.8176
20.8344
11.2704
39.5856
36.3742
32.0369
17.242
8.00922
-1.48414
8.37529
-1.08061
-2.87879
-10.0753
-33.1848
-54.7098
-9.51555
-14.9213
-18.0659
-19.647
-8.73916
-14.7714
-19.5066
-22.7085
-5.55795
-8.41177
-14.5488
-20.234
-27.457
-19.9446
-19.0555
-28.8244
-19.9567
-19.1842
-17.9506
-16.2381
-14.1261
-13.0586
-13.5414
-14.5121
-14.6439
-14.0803
-13.4261
-13.0615
-12.7147
-12.2686
-11.44
-10.2993
-9.19358
-8.48632
-8.27176
-8.00194
-7.68644
-7.15253
-6.67623
-5.98742
-5.02188
-4.13958
-3.12715
-2.22158
-1.22092
-0.770236
-0.682551
-1.00283
-1.45735
-1.43854
-1.65466
-1.5825
-1.51404
-1.31452
-0.821564
-0.402072
-23.7374
-22.2383
-19.289
-16.3021
-14.1095
-13.5321
-14.0241
-14.5858
-14.3836
-13.8611
-13.4764
-13.4138
-13.2255
-12.564
-11.4374
-10.0171
-8.84917
-8.08382
-8.05953
-7.76533
-7.74747
-7.23215
-6.71073
-6.00329
-5.15405
-4.25923
-3.16315
-1.99883
-0.974924
-0.477798
-0.432511
-0.858479
-1.36599
-1.73761
-1.89045
-1.7078
-1.6262
-1.37275
-1.03015
-0.450203
-22.5702
-21.8006
-19.2716
-15.6597
-13.3631
-13.29
-13.9232
-13.914
-13.7366
-13.9764
-14.1139
-14.0687
-13.5052
-12.5332
-11.1372
-9.76625
-8.97804
-8.75916
-8.54658
-8.7233
-8.66972
-8.42381
-7.89059
-6.53181
-5.27224
-3.69153
-2.38883
-1.42163
-0.378344
-0.0800402
-0.581438
-1.60375
-2.34943
-3.01019
-3.07427
-2.83341
-2.2086
-1.37354
-0.893137
-0.356556
-26.3541
-22.2607
-19.2167
-14.2844
-12.8379
-13.5236
-13.3523
-12.0782
-12.3658
-14.1174
-15.3698
-15.4127
-14.7903
-13.1538
-10.5089
-8.70642
-7.19803
-6.99062
-6.91511
-7.87389
-8.60221
-9.07443
-8.96021
-7.98433
-6.73262
-4.15586
-1.79245
0.961024
2.31337
2.28066
0.858175
-0.798888
-2.07064
-3.62425
-3.44719
-3.83211
-3.03551
-1.93942
-1.64589
-0.232723
44.3999
45.4831
59.6672
71.2782
43.378
45.8953
60.0982
70.9975
-25.2878
-33.6821
-35.5535
-31.8712
-32.5063
-42.6041
-31.4603
-29.1852
-20.977
-22.4276
-20.0424
-17.4876
-15.452
-13.3045
-10.5545
-11.9595
-13.095
-13.4573
-13.7124
-14.2566
-14.4807
-14.0362
-13.0601
-11.6537
-9.82895
-8.71977
-8.07714
-8.1067
-7.90997
-7.86404
-7.73758
-7.12956
-5.8874
-4.31834
-3.10121
-1.51863
-0.446527
-0.931881
-0.635053
-0.982339
-2.11465
-2.88695
-3.73433
-3.97656
-2.72908
-1.83417
-0.880949
0.366505
-25.382
-20.5353
-23.0155
-16.7007
-11.9454
-13.0565
-11.6549
-10.2613
-10.0665
-11.4471
-12.4793
-13.335
-14.1969
-14.6388
-14.5969
-14.3574
-13.4161
-11.4409
-9.89214
-8.44549
-6.67921
-5.29966
-4.85125
-4.56134
-4.08935
-4.41025
-4.72313
-4.58641
-4.57953
-3.93147
-2.7897
-1.77738
-1.13972
-0.585786
-0.794609
-1.25374
-0.832677
-0.487503
-0.392507
-0.264246
38.4929
35.9888
32.3529
16.9489
31.3959
28.7576
19.5276
8.8506
26.2606
26.4003
21.0012
13.905
25.1259
25.3188
21.2528
13.7638
-35.176
-59.5212
-6.14521
-12.099
5.36569
-4.30833
5.36779
-3.78495
-31.0499
-21.2703
-22.309
-22.8784
-7.37324
-11.0881
-16.8929
-19.9598
-12.6984
-19.3134
-23.4358
-23.8519
-11.5894
-16.9897
-19.6471
-20.1642
-23.122
-22.011
-18.9671
-15.0556
-10.6876
-7.27433
-7.52967
-10.371
-11.491
-11.55
-11.6395
-12.5061
-14.0537
-15.6647
-16.4079
-15.6946
-14.8056
-12.8598
-10.732
-7.70793
-5.4081
-3.11928
-1.73726
-1.91807
-3.04084
-4.63515
-5.59396
-6.47393
-5.57308
-4.98131
-3.22533
-0.749273
1.21874
3.13111
2.69011
2.62822
1.12073
0.608558
0.243761
-0.748909
-21.3747
-21.5253
-19.4865
-15.7546
-12.4948
-11.2363
-10.9002
-11.3485
-11.9042
-11.8783
-11.998
-12.6025
-13.7354
-14.7666
-15.1095
-14.5026
-13.3742
-11.5683
-9.64357
-7.71081
-6.17604
-5.01891
-4.40225
-4.19681
-4.20503
-5.00331
-5.18652
-5.34515
-4.55462
-3.3605
-2.28524
-1.06521
-0.450511
0.0916451
0.744159
1.0547
0.92536
0.66879
0.319678
-0.177354
-22.1554
-20.5391
-18.9853
-16.3096
-12.9256
-10.6243
-10.172
-11.0582
-12.0214
-12.2452
-12.2245
-12.4713
-13.2525
-13.9647
-14.1931
-13.452
-12.0957
-10.8802
-9.69065
-8.48517
-6.96917
-5.71139
-4.71791
-4.13897
-4.17927
-4.22066
-4.38424
-4.06694
-3.68973
-3.12373
-2.55292
-1.89427
-1.12841
-0.277693
0.480192
0.857637
1.06268
0.875701
0.691397
0.262223
-19.3574
-18.1939
-17.3978
-16.2051
-13.6868
-11.0655
-10.4086
-11.5986
-12.9942
-13.1089
-12.3808
-11.9348
-12.4955
-13.5509
-13.8328
-13.0543
-11.6927
-10.6041
-9.66528
-8.63283
-7.14062
-5.89178
-4.91956
-4.4279
-4.30974
-4.3358
-4.40454
-3.93765
-3.51329
-2.9173
-2.37564
-1.81633
-1.01297
-0.436188
0.187116
0.610622
0.902104
0.890996
0.518105
0.220716
)
;

boundaryField
{
    inlet
    {
        type            zeroGradient;
    }
    outlet
    {
        type            fixedValue;
        value           uniform 0;
    }
    obstacle
    {
        type            zeroGradient;
    }
    upperWall
    {
        type            zeroGradient;
    }
    lowerWall
    {
        type            zeroGradient;
    }
    frontAndBack
    {
        type            empty;
    }
}


// ************************************************************************* //
