/*--------------------------------*- C++ -*----------------------------------*\
  =========                 |
  \\      /  F ield         | OpenFOAM: The Open Source CFD Toolbox
   \\    /   O peration     | Website:  https://openfoam.org
    \\  /    A nd           | Version:  10
     \\/     M anipulation  |
\*---------------------------------------------------------------------------*/
FoamFile
{
    format      ascii;
    class       surfaceScalarField;
    location    "10";
    object      phi;
}
// * * * * * * * * * * * * * * * * * * * * * * * * * * * * * * * * * * * * * //

dimensions      [0 3 -1 0 0 0 0];

internalField   nonuniform List<scalar> 
928
(
0.0952195
0.00478053
0.102819
-0.00759992
0.106617
-0.00379747
-0.00882972
0.115447
0.0943247
0.0104558
0.105291
-0.0185664
0.102847
-0.00135368
-0.0183005
0.112318
0.0965471
0.0139087
0.111269
-0.0332887
0.104624
0.00529169
-0.0392292
0.125553
0.103747
0.0101615
0.0912761
-0.0208176
0.0961798
0.000388003
0.143994
-0.0870435
0.110825
0.0046218
-0.0173172
0.128142
0.110598
0.00634248
-0.0416373
0.134918
0.129929
0.00196586
-0.0498206
0.138113
0.14596
0.0961394
0.128662
-0.000519919
0.130022
-0.00135994
0.13178
-0.00175837
-0.00160414
0.133384
0.138235
-0.00383684
0.138824
-0.00194921
0.140316
-0.0032503
-0.00266364
0.141375
0.142533
-0.0082573
0.144093
-0.00350906
0.147383
-0.00654045
0.00251495
0.142205
0.103066
-0.0151842
0.0841244
0.0154329
0.0960343
-0.0184503
0.084043
0.0145062
0.13355
-0.000165722
0.133005
0.000545419
0.13085
0.00215415
0.129209
0.00164102
0.127437
0.0017726
0.125688
0.00174911
0.123431
0.00225623
0.121573
0.0018587
0.120383
0.00118947
0.119764
0.000618856
0.11955
0.000214019
0.11905
0.000500203
0.118978
7.21017e-05
0.118298
0.000679945
0.118636
-0.000337672
0.118485
0.000151175
0.119548
-0.00106319
0.119732
-0.000184518
0.120016
-0.00028315
0.119722
0.000293318
0.118661
0.00106079
0.117051
0.00161074
0.11406
0.00299112
0.111472
0.00258783
0.108079
0.00339315
0.106458
0.00162031
0.104916
0.00154215
0.105456
-0.000540326
0.10692
-0.00146386
0.108823
-0.00190278
0.111667
-0.00284393
0.1126
-0.00093276
0.11342
-0.000819891
0.111602
0.00181806
0.10897
0.00263144
0.104847
0.00412341
0.100467
0.00437955
0.0971267
0.00334051
0.0940786
0.00304816
0.0004069
0.14027
0.000939058
0.139795
0.00102116
0.138896
0.00305331
0.137854
0.00268249
0.136684
0.00294263
0.135503
0.00293034
0.133433
0.00432583
0.131668
0.00362406
0.131083
0.00177484
0.130357
0.00134436
0.130057
0.000514443
0.129173
0.00138415
0.129015
0.000229519
0.128328
0.00136695
0.12853
-0.000538997
0.128776
-9.54516e-05
0.129254
-0.00154063
0.129912
-0.000842818
0.130621
-0.000992347
0.131366
-0.000452102
0.130663
0.00176422
0.130113
0.00216129
0.12779
0.00531317
0.126199
0.00417921
0.123173
0.00641938
0.120982
0.00381084
0.119454
0.00307024
0.118896
1.7769e-05
0.120223
-0.00279037
0.121566
-0.003246
0.124357
-0.00563533
0.125825
-0.00240038
0.127899
-0.00289367
0.127442
0.00227472
0.126742
0.00333169
0.12521
0.0056553
0.122347
0.00724199
0.120125
0.00556324
0.11593
0.00724323
0.00220027
0.138891
0.00425246
0.138297
0.00161545
0.139095
0.00225517
0.141
0.00077742
0.141396
0.00254639
0.139756
0.00457087
0.138772
0.00530943
0.139534
0.00286233
0.139359
0.00195002
0.137755
0.00294804
0.135788
0.00248163
0.133882
0.00328967
0.132218
0.00189366
0.131209
0.00237628
0.130095
0.000575237
0.128862
0.00113678
0.128096
-0.000774583
0.127528
-0.000274199
0.128484
-0.00194834
0.129502
-0.00147029
0.130574
0.000692441
0.131005
0.00173026
0.12997
0.0063474
0.127663
0.00648655
0.124884
0.0091987
0.122356
0.00633823
0.120545
0.00488204
0.118703
0.00185926
0.118686
-0.00277327
0.119429
-0.00398935
0.120868
-0.00707417
0.122942
-0.00447428
0.125435
-0.00538696
0.127376
0.000333956
0.128246
0.00246141
0.127148
0.00675408
0.123656
0.0107332
0.119822
0.00939792
0.1153
0.011765
0.00513543
0.0870106
0.00128487
0.0916319
-0.00300591
0.0909654
0.0029217
0.0974397
-0.00569689
0.101933
-0.00194661
0.101592
0.0049116
0.106684
0.000217114
0.112043
-0.00249627
0.113622
0.000370517
0.114719
0.00185109
0.115677
0.00152368
0.116236
0.00273064
0.114033
0.00409696
0.111059
0.00535055
0.106148
0.00548609
0.100912
0.00637296
0.0958584
0.00427872
0.0949007
0.000683509
0.0947823
-0.00182997
0.0961336
-0.00282159
0.0995149
-0.00268881
0.104108
-0.00286274
0.109482
0.000973775
0.112389
0.00357933
0.115273
0.00631488
0.114061
0.00754976
0.110779
0.00816409
0.105675
0.00696278
0.100959
0.00194288
0.0970021
-3.21802e-05
0.0945489
-0.00462098
0.0970985
-0.00702386
0.0993207
-0.00760915
0.105086
-0.00543163
0.110295
-0.00274742
0.115137
0.00191181
0.120787
0.00508325
0.123949
0.00623642
0.126479
0.009235
0.00562204
0.110678
-0.000515974
0.0888894
0.000970466
0.0892346
4.28513e-05
0.00219107
0.108441
-0.00895676
0.0885621
0.0208491
0.0852548
0.00335018
0.0874459
-0.0152275
4.32644e-05
-0.0300125
0.0302178
-0.0138489
-0.0346139
0.0119294
-0.0112721
-0.0127715
0.0128148
0.0109181
0.00652817
-0.0154622
-0.00823357
-0.004115
0.000582185
-0.011527
0.00153977
-0.0069101
-0.00762276
-0.0100797
0.0060913
0.00454272
-0.0203193
0.0129596
-0.0103635
0.0086035
0.00926773
0.00738178
0.00143884
0.0142983
-0.00941282
0.0195318
-0.004863
0.0206263
0.000756647
0.0182021
0.00394786
0.0147079
0.0062248
0.012195
0.00660993
0.0121064
0.00543917
0.0130934
0.00449905
0.0139839
0.00548249
0.0165856
0.00167701
0.0195291
-0.00226001
0.0225084
-0.0048093
0.0264567
-0.00676988
0.031157
-0.00738915
0.0345074
-0.00621312
0.0365675
-0.00108633
0.0383001
0.00184671
0.0383787
0.0062363
0.0371938
0.00873468
0.0369965
0.00836141
0.0377513
0.00620798
0.0384005
0.00129364
0.0417959
-0.00342753
0.0453013
-0.00812639
0.0496721
-0.0113947
0.0553696
-0.0133066
0.0599077
-0.00996973
0.0644389
-0.00727866
0.0668563
-0.000505561
0.067468
0.00447155
0.0669155
0.00678896
0.0625312
0.0136192
0.00813365
0.007461
-0.0100362
0.00181948
-0.00198124
0.0131499
-0.00523915
0.00578824
-0.0129576
0.000435009
-0.00501029
0.0100859
-0.00038317
0.0142663
-0.00274154
0.00854569
-0.00369221
0.00411537
-0.000432687
0.00262015
0.00225187
0.00403024
0.00253776
0.00645516
0.00379989
0.00881509
0.00425
0.0102531
0.00400113
0.0114463
0.00330591
0.0150856
0.00184312
0.01869
-0.0019273
0.020124
-0.00369408
0.0208572
-0.00554244
0.0221914
-0.00810414
0.0227911
-0.00798885
0.0228225
-0.00624446
0.024684
-0.00294788
0.0274573
-0.000926548
0.0301846
0.00350897
0.0341072
0.00481213
0.0382423
0.00422631
0.041986
0.00246423
0.0441188
-0.000839124
0.0454018
-0.00471053
0.0453913
-0.0081159
0.0437855
-0.00978888
0.0423534
-0.0118746
0.0423274
-0.00994373
0.0421814
-0.00713265
0.0440158
-0.0023399
0.0457883
0.002699
0.0474697
0.00510755
0.0510674
0.0100216
0.00592701
0.103908
-0.0128652
0.0953526
0.0294049
0.101519
-0.00281572
0.0391418
0.149823
0.0966257
-0.00949086
0.106149
0.0198813
0.103295
3.88065e-05
0.0196
0.122837
0.0947008
-0.00419164
0.106317
0.00826538
0.102908
0.00344795
0.00972234
0.112785
0.0958084
0.104074
0.107522
0.117244
0.1556
-0.00577696
0.0440281
0.111571
0.123529
-0.00646952
0.0410418
0.126516
0.110446
-0.00413017
0.0165809
0.134907
0.113114
0.129695
0.116049
0.00833702
0.12051
0.00206709
0.113494
-0.00121724
-0.0021439
0.11622
0.133485
0.00136768
0.1351
0.000452175
0.133763
0.000119643
-0.000638979
0.132258
0.136114
0.000160622
0.136171
0.000394593
0.135993
0.000297873
-0.000256396
0.135611
0.129855
0.13025
0.130548
0.130291
0.111526
-0.00534194
0.113811
-0.00426673
0.112788
-0.00421625
0.103363
-0.00353252
0.0999906
-0.00163767
0.0991516
0.000455795
0.0950887
0.00132137
0.090523
0.000873528
0.0879767
0.00211357
0.0865389
0.00368972
0.0846775
0.00439914
0.0837271
0.00475024
0.0849052
0.00307194
0.0865487
0.00235762
0.0904275
-0.00057282
0.0941001
-0.00182948
0.0977147
-0.00554194
0.100598
-0.00657767
0.102137
-0.00708124
0.100021
-0.00598854
0.0961315
-0.00409892
0.0927077
-0.00282065
0.0892881
0.000471788
0.087885
0.000476529
0.0882224
0.00317157
0.0919462
0.00108829
0.095368
0.00080454
0.101172
-0.00334018
0.105853
-0.00551989
0.107652
-0.00650935
0.106871
-0.00733463
0.101068
-0.00398572
0.0931095
-0.00391649
0.0835145
-0.000348718
0.0768797
-0.000497862
0.0721382
0.00240154
0.0717887
0.00304857
0.0743253
0.00257092
0.0795863
0.00476053
0.000581688
0.128256
-0.0013404
0.127826
-0.00383611
0.127494
-0.00388462
0.126924
-0.00296244
0.126357
-0.00107037
0.127283
-0.000470276
0.127723
0.000881448
0.127211
0.00138564
0.127205
0.00211946
0.127733
0.00316189
0.129215
0.00291699
0.130592
0.00337344
0.132195
0.0014685
0.133473
0.00107966
0.134915
-0.00201482
0.135698
-0.00261238
0.135361
-0.00520469
0.134045
-0.00526181
0.132712
-0.00574862
0.131548
-0.00482388
0.129885
-0.00243643
0.129159
-0.00209509
0.12833
0.00130125
0.12832
0.000486289
0.12889
0.00260133
0.130177
-0.000197839
0.13142
-0.000438377
0.131087
-0.00300738
0.130489
-0.00492184
0.128268
-0.00428843
0.127247
-0.00631431
0.125674
-0.00241211
0.124606
-0.00284862
0.122856
0.00140082
0.120631
0.00172711
0.119309
0.00372392
0.118586
0.00377193
0.118834
0.00232259
0.120958
0.00263666
-0.00141381
0.134459
-0.000189195
0.131911
-0.00128816
0.130272
-0.00224496
0.129252
-0.00194229
0.128696
-0.000514741
0.128334
-0.000107907
0.129239
-2.36269e-05
0.13042
0.000204181
0.131669
0.000870528
0.133196
0.00163531
0.134792
0.0013209
0.137068
0.00109716
0.138276
0.000260063
0.13937
-1.37018e-05
0.138526
-0.00117105
0.137622
-0.00170782
0.135326
-0.00290926
0.133121
-0.00305675
0.130451
-0.00307857
0.128004
-0.00237655
0.126703
-0.00113582
0.125566
-0.000957876
0.126089
0.000778106
0.126634
-5.88588e-05
0.128079
0.00115616
0.128257
-0.000375456
0.128419
-0.00060078
0.127417
-0.00200478
0.125491
-0.00299562
0.123821
-0.00261844
0.120573
-0.00306661
0.119196
-0.00103538
0.117571
-0.0012235
0.118021
0.000950912
0.11881
0.000937628
0.120419
0.00211481
0.122447
0.00174461
0.123662
0.00110727
0.125768
0.00053056
-0.00154839
0.130102
0.128814
0.126569
0.124627
0.124112
0.124004
0.123981
0.124185
0.125055
0.126691
0.128011
0.129109
0.129369
0.129355
0.128184
0.126476
0.123567
0.12051
0.117432
0.115055
0.113919
0.112961
0.113739
0.113681
0.114837
0.114461
0.11386
0.111856
0.10886
0.106242
0.103175
0.10214
0.100916
0.101867
0.102805
0.104919
0.106664
0.107771
0.108302
)
;

boundaryField
{
    inlet
    {
        type            calculated;
        value           nonuniform List<scalar> 10(-0.1 -0.1 -0.1 -0.1 -0.1 -0.1 -0.1 -0.1 -0.1 -0.1);
    }
    outlet
    {
        type            calculated;
        value           nonuniform List<scalar> 10(0.0936717 0.114136 0.112365 0.125992 0.0600196 0.053274 0.0849317 0.122953 0.125903 0.106754);
    }
    obstacle
    {
        type            calculated;
        value           uniform 0;
    }
    upperWall
    {
        type            calculated;
        value           uniform 0;
    }
    lowerWall
    {
        type            calculated;
        value           uniform 0;
    }
    frontAndBack
    {
        type            empty;
        value           nonuniform List<scalar> 0();
    }
}


// ************************************************************************* //
