/*--------------------------------*- C++ -*----------------------------------*\
  =========                 |
  \\      /  F ield         | OpenFOAM: The Open Source CFD Toolbox
   \\    /   O peration     | Website:  https://openfoam.org
    \\  /    A nd           | Version:  10
     \\/     M anipulation  |
\*---------------------------------------------------------------------------*/
FoamFile
{
    format      ascii;
    class       volVectorField;
    location    "10";
    object      U;
}
// * * * * * * * * * * * * * * * * * * * * * * * * * * * * * * * * * * * * * //

dimensions      [0 1 -1 0 0 0 0];

internalField   nonuniform List<vector> 
496
(
(9.96867 0.0788984 0)
(9.88248 -0.118694 0)
(10.0615 -0.146174 0)
(10.7614 -0.171738 0)
(9.83693 0.652806 0)
(10.0279 -1.33086 0)
(9.95207 -0.346058 0)
(11.032 -1.01205 0)
(10.2079 1.45439 0)
(9.9806 -3.07744 0)
(10.6203 -0.363844 0)
(11.6739 -3.9713 0)
(10.928 1.83019 0)
(9.34304 -2.81936 0)
(11.0437 1.16918 0)
(11.6503 -6.56637 0)
(11.3797 -0.262769 2.33584e-18)
(12.1834 -0.222186 3.63502e-19)
(11.4921 -0.564432 -7.69411e-19)
(12.7165 0.109863 2.80134e-18)
(12.669 -2.4107 -1.56923e-18)
(14.0873 -0.572472 -3.16478e-18)
(11.1169 -5.12499 -3.78582e-17)
(17.0474 -4.2166 6.20551e-17)
(12.7883 -0.218518 0)
(13.2093 -0.297463 0)
(13.4293 -0.246714 0)
(13.569 -0.189399 0)
(13.3022 0.0458077 0)
(13.7194 -0.178256 0)
(14.1333 -0.363675 0)
(14.3801 -0.389105 0)
(13.2842 -0.0611275 0)
(13.5104 0.38857 0)
(13.8886 0.21328 0)
(13.9908 0.312751 0)
(6.94986 -3.03406 0)
(10.8366 -1.60052 0)
(7.50052 -1.26475 0)
(8.44603 -0.282265 0)
(13.5621 0.010975 0)
(13.4495 0.125279 0)
(13.2895 0.270724 0)
(13.0538 0.26382 0)
(12.7646 0.286831 0)
(12.4645 0.32616 0)
(12.4343 0.431094 0)
(12.2872 0.501927 0)
(12.2826 0.534859 0)
(11.9878 0.541335 0)
(12.0167 0.516837 0)
(11.8117 0.544185 0)
(11.9594 0.517114 0)
(11.8179 0.567507 0)
(11.9549 0.495881 0)
(11.8424 0.522411 0)
(11.9169 0.41614 0)
(11.9193 0.445853 0)
(11.9766 0.395914 0)
(12.0421 0.451017 0)
(11.8912 0.483879 0)
(11.8594 0.503827 0)
(11.5073 0.580028 0)
(11.3466 0.536769 0)
(10.9114 0.643281 0)
(10.7184 0.542337 0)
(10.5643 0.551114 0)
(10.4428 0.390623 0)
(10.6653 0.308121 0)
(10.6527 0.257152 0)
(11.1354 0.172964 0)
(11.1365 0.247279 0)
(11.4152 0.217694 0)
(11.27 0.391216 0)
(11.0469 0.430064 0)
(10.8038 0.572529 0)
(10.1434 0.644187 0)
(9.98905 0.603353 0)
(9.41786 0.614768 0)
(9.37493 0.329204 0)
(14.5042 -0.261373 0)
(14.3349 -0.179115 0)
(14.1343 -0.0133295 0)
(13.7922 -0.0202465 0)
(13.6178 -0.0277639 0)
(13.4198 -0.0844149 0)
(13.437 -0.0716349 0)
(13.2879 -0.174831 0)
(13.2258 -0.285165 0)
(13.0295 -0.388924 0)
(13.0054 -0.460667 0)
(12.9512 -0.45056 0)
(12.9646 -0.52116 0)
(12.9387 -0.46388 0)
(12.8741 -0.558488 0)
(12.8743 -0.481192 0)
(12.8172 -0.567358 0)
(12.9516 -0.445905 0)
(12.9966 -0.429852 0)
(13.159 -0.321716 0)
(13.1083 -0.199004 0)
(13.0594 -0.105544 0)
(12.905 0.0570534 0)
(12.677 -0.0452397 0)
(12.5103 -0.0268603 0)
(12.1526 -0.268001 0)
(12.0638 -0.282153 0)
(11.8408 -0.472502 0)
(11.9479 -0.566589 0)
(12.0465 -0.582157 0)
(12.2516 -0.667512 0)
(12.561 -0.38766 0)
(12.6534 -0.352636 0)
(12.8992 0.0469026 0)
(12.6381 0.134114 0)
(12.724 0.271823 0)
(12.301 0.216353 0)
(12.2165 0.0272053 0)
(11.8137 -0.043321 0)
(11.4198 -0.239228 0)
(14.5995 0.695674 0)
(14.249 0.545232 0)
(14.4638 0.772297 0)
(13.9146 0.649008 0)
(13.9557 0.750668 0)
(13.8604 0.772222 0)
(14.0089 0.863548 0)
(13.9825 0.81926 0)
(13.8319 0.627208 0)
(13.887 0.655825 0)
(13.5916 0.574546 0)
(13.7024 0.763736 0)
(13.2583 0.597859 0)
(13.3839 0.762756 0)
(12.902 0.409742 0)
(13.0023 0.437118 0)
(12.688 0.118378 0)
(12.8302 0.179506 0)
(12.8022 0.119139 0)
(12.8429 0.156546 0)
(13.0952 0.433792 0)
(12.9891 0.495424 0)
(13.2402 1.05937 0)
(12.7374 1.01595 0)
(12.7932 1.45776 0)
(12.2068 1.10739 0)
(12.2438 0.930644 0)
(11.9015 0.378959 0)
(11.8147 -0.165358 0)
(11.9176 -0.252239 0)
(11.844 -0.664115 0)
(12.3422 -0.224842 0)
(12.2739 -0.346983 0)
(12.8215 0.282404 0)
(12.7234 0.491548 0)
(12.9011 0.894251 0)
(12.5611 1.30736 0)
(12.1566 1.1752 0)
(11.7697 1.54448 0)
(11.2399 0.665919 0)
(9.99564 -0.404192 0)
(8.66803 -0.336096 0)
(10.0844 -0.258387 0)
(8.92946 -0.333386 0)
(9.63652 -0.0185257 0)
(9.87071 0.175302 0)
(10.9758 0.170462 0)
(10.735 -0.0524687 0)
(10.9639 -0.0806663 0)
(11.6372 -0.175408 0)
(11.4658 -0.274306 0)
(12.0458 -0.29717 0)
(11.296 -0.319349 0)
(11.7723 -0.229005 0)
(10.3236 -0.207352 0)
(10.6718 -0.0614198 0)
(9.45464 -0.087476 0)
(9.8355 -0.0863987 0)
(9.21801 -0.291301 0)
(9.41688 -0.364514 0)
(9.96203 -0.3586 0)
(9.90579 -0.329857 0)
(11.0252 -0.0642794 0)
(10.7856 0.0248616 0)
(11.8225 0.283012 0)
(11.2877 0.231519 0)
(11.4245 0.232207 0)
(10.8601 0.158924 0)
(10.1285 -0.0121354 0)
(10.0439 -0.126477 0)
(9.169 -0.465232 0)
(9.88615 -0.528884 0)
(9.43942 -0.659953 0)
(10.4689 -0.346956 0)
(10.688 -0.062289 0)
(11.2103 0.244481 0)
(12.0807 0.659961 0)
(11.9542 0.612138 0)
(13.0239 0.740162 0)
(12.5812 0.394593 0)
(12.9157 0.317571 -1.01255e-17)
(7.29566 -0.496342 -1.71294e-17)
(12.4027 -0.197937 2.99295e-17)
(4.11344 -4.49507 -8.08648e-17)
(11.0242 -0.495221 1.00566e-17)
(9.09651 0.818805 1.7456e-17)
(10.2648 0.22715 -3.01667e-17)
(5.59124 4.87581 8.05456e-17)
(-2.06945 1.51144 0)
(-0.639569 3.78305 0)
(-6.36953 -4.13153 0)
(3.00117 2.86197 0)
(-7.69927 -1.94755 3.69448e-17)
(3.89565 0.888694 0)
(-0.345383 -2.02535 0)
(-3.61736 -0.371756 0)
(-4.4223 1.13302 0)
(1.20006 -0.337662 0)
(-2.27519 0.968649 0)
(0.135378 -1.28154 0)
(0.877724 -0.601375 0)
(1.84064 0.943489 0)
(0.254137 0.025478 0)
(0.818789 -0.640441 0)
(2.08424 4.73157e-05 0)
(2.10024 0.556033 0)
(1.9845 0.751701 0)
(1.5707 1.00268 0)
(1.32803 1.10938 0)
(1.19842 1.10548 0)
(1.21988 0.983615 0)
(1.3696 1.01852 0)
(1.54346 0.738746 0)
(1.9357 0.142205 0)
(1.7809 -0.20461 0)
(2.5555 -0.228959 0)
(2.95694 -0.185116 0)
(3.21897 -0.196754 0)
(3.59971 0.264609 0)
(3.77362 0.645634 0)
(3.97843 0.915306 0)
(3.66606 1.08543 0)
(3.70016 1.13496 0)
(3.90639 0.942515 0)
(3.46095 0.299155 0)
(4.09915 -0.0771591 0)
(4.46401 -0.621657 0)
(4.46134 -0.958789 0)
(5.42986 -1.02086 0)
(5.75915 -0.787704 0)
(6.05632 -0.569075 0)
(6.97331 0.0345752 0)
(6.49943 0.360934 0)
(6.85377 0.540334 0)
(6.64316 1.1335 0)
(5.95885 0.747026 0)
(3.25517 -1.23483 0)
(-1.25507 -0.768146 0)
(1.21753 -0.244685 0)
(2.22295 -2.12247 0)
(-0.753776 -0.875488 0)
(0.632134 0.348065 0)
(1.77296 -0.0138664 0)
(1.38971 -0.821957 0)
(0.224649 -0.585441 0)
(0.411032 -0.248691 0)
(0.164163 -0.0583715 0)
(0.584555 0.102695 0)
(0.718161 0.108372 0)
(1.17738 0.0373773 0)
(0.910294 0.00526635 0)
(1.16832 -0.0368822 0)
(2.03045 -0.481878 0)
(1.94716 -0.693723 0)
(1.84326 -0.781633 0)
(2.33983 -1.09797 0)
(2.36821 -1.13085 0)
(2.05342 -0.886015 0)
(2.3166 -0.40918 0)
(2.8221 -0.197677 0)
(2.59494 0.297879 0)
(3.34278 0.512838 0)
(3.57345 0.355782 0)
(4.13519 0.153842 0)
(4.14803 -0.152791 0)
(4.67378 -0.728773 0)
(4.58281 -1.12813 0)
(4.38384 -1.31194 0)
(4.34608 -1.46646 0)
(4.15902 -1.06934 0)
(4.20197 -0.677582 0)
(4.26184 -0.0539023 0)
(4.63581 0.492077 0)
(4.45479 0.747183 0)
(4.86395 1.3449 0)
(5.33619 0.760826 0)
(13.4684 -1.35873 0)
(6.97058 2.36838 0)
(14.4277 -0.435973 0)
(9.33678 6.32679 0)
(11.6638 -1.48906 0)
(8.30897 3.07903 0)
(11.5692 -0.0392316 0)
(10.365 4.07595 0)
(10.3592 -0.562069 0)
(9.41883 1.45706 0)
(10.5047 0.433474 0)
(10.7789 1.20307 0)
(10.0293 -0.123973 0)
(9.81988 0.279754 0)
(10.3103 0.153007 0)
(10.9676 0.223368 0)
(14.4747 5.77355 4.0135e-17)
(14.9949 4.20065 -6.74862e-17)
(12.8216 2.29552 0)
(12.8683 0.334349 0)
(11.7813 0.757656 0)
(12.5152 0.0185017 0)
(11.6885 0.271316 0)
(12.2993 0.207367 0)
(12.6076 3.75563 0)
(10.0675 1.58462 0)
(11.4287 0.929659 0)
(11.1105 0.666776 0)
(12.2649 -0.638435 0)
(12.633 -0.931965 0)
(12.9214 -0.95441 0)
(13.1302 -0.959637 0)
(13.1912 0.0321743 0)
(13.6181 0.301374 0)
(13.9699 0.423294 0)
(13.9004 0.473509 0)
(12.9604 0.187171 0)
(13.2439 0.09802 0)
(13.4691 -0.0122129 0)
(13.314 -0.244312 0)
(11.3216 -0.158391 0)
(11.8852 0.135784 0)
(10.8745 -0.241893 0)
(11.2487 -0.134638 0)
(10.1863 -0.0496422 0)
(10.0638 -0.0442588 0)
(8.7172 -0.141294 0)
(9.82248 -0.0583882 0)
(8.95358 0.362838 0)
(8.96986 0.529495 0)
(8.3892 0.634499 0)
(8.16782 0.656617 0)
(8.50763 0.631818 0)
(8.35901 0.564777 0)
(9.29943 0.474504 0)
(8.78677 0.367827 0)
(10.0424 0.088596 0)
(9.64625 -0.0390097 0)
(10.5139 -0.194078 0)
(9.88159 -0.202205 0)
(9.9388 -0.193523 0)
(9.54269 -0.0851951 0)
(8.72288 0.0366126 0)
(9.23211 0.136796 0)
(8.17702 0.375451 0)
(9.55126 0.428399 0)
(8.74787 0.465387 0)
(10.4109 0.270292 0)
(10.0137 0.120001 0)
(10.9162 -0.0444249 0)
(10.9382 -0.171095 0)
(10.225 -0.178548 0)
(10.1776 -0.356978 0)
(8.28563 -0.391853 0)
(8.35636 -0.429437 0)
(7.07112 -0.249372 0)
(7.19407 0.0419984 0)
(7.44741 0.255552 0)
(7.25057 0.598743 0)
(8.54407 0.356659 0)
(13.1759 -0.92983 0)
(13.248 -1.04277 0)
(13.1192 -0.921237 0)
(12.834 -0.758336 0)
(12.5859 -0.44173 0)
(12.5485 -0.221112 0)
(12.5733 0.0918766 0)
(12.5931 0.172765 0)
(12.9109 0.181465 0)
(12.6723 0.291494 0)
(13.052 0.190254 0)
(12.767 0.301587 0)
(13.2958 0.054365 0)
(13.1417 0.027978 0)
(13.6302 -0.420296 0)
(13.5074 -0.527735 0)
(13.619 -0.93759 0)
(13.527 -1.08036 0)
(13.2459 -1.20977 0)
(13.3237 -1.15733 0)
(12.856 -0.820003 0)
(13.184 -0.710643 0)
(12.6048 -0.160131 0)
(12.9888 -0.231557 0)
(12.6742 0.0863624 0)
(13.0403 -0.229692 0)
(13.0931 -0.282482 0)
(13.1422 -0.657652 0)
(13.2254 -1.01535 0)
(12.7773 -1.06684 0)
(12.9379 -1.35282 0)
(12.4325 -0.772581 0)
(12.7216 -0.707544 0)
(12.2395 0.0873868 0)
(12.2534 0.152757 0)
(11.9378 0.404371 0)
(11.832 0.453741 0)
(11.9015 0.174336 0)
(11.826 0.343066 0)
(12.3115 -0.197193 0)
(13.6987 0.454202 0)
(13.5121 0.343048 0)
(13.3474 0.221151 0)
(13.1244 0.160149 0)
(12.7836 0.291571 0)
(12.6737 0.267178 0)
(12.7001 0.252919 0)
(12.9472 0.21891 0)
(13.1402 0.263353 0)
(13.3078 0.319577 0)
(13.4329 0.366569 0)
(13.5891 0.342977 0)
(13.7836 0.244664 0)
(13.9026 0.185604 0)
(14.0056 0.0429458 0)
(13.8311 0.00680163 0)
(13.6961 -0.118118 0)
(13.3624 -0.068183 0)
(13.2415 -0.00731975 0)
(12.8887 0.15264 0)
(12.7543 0.3487 0)
(12.5172 0.348511 0)
(12.5593 0.559411 0)
(12.5828 0.42133 0)
(12.7215 0.547926 0)
(12.8807 0.299859 0)
(12.8337 0.220238 0)
(12.888 0.0502321 0)
(12.5857 -0.0698686 0)
(12.5279 0.0630133 0)
(12.1743 0.028441 0)
(11.9751 0.263402 0)
(11.8521 0.193825 0)
(11.6745 0.36672 0)
(11.936 0.31968 0)
(11.8355 0.473949 0)
(12.2359 0.377142 0)
(12.222 0.346811 0)
(12.5298 0.237122 0)
(12.5885 -0.0728544 0)
(13.219 -0.333325 0)
(12.9469 -0.447556 0)
(12.8889 -0.503458 0)
(12.6929 -0.530343 0)
(12.4788 -0.426247 0)
(12.2008 -0.325962 0)
(12.2076 -0.287553 0)
(12.3932 -0.22183 0)
(12.617 -0.185366 0)
(12.7353 -0.0808962 0)
(12.7267 -0.0687363 0)
(12.7816 -0.0623171 0)
(12.8718 -0.166995 0)
(13.0075 -0.203212 0)
(12.9782 -0.307824 0)
(12.7848 -0.356703 0)
(12.5047 -0.454368 0)
(12.1452 -0.503715 0)
(11.9643 -0.577645 0)
(11.5869 -0.598121 0)
(11.5095 -0.570385 0)
(11.2061 -0.544001 0)
(11.3538 -0.432658 0)
(11.2544 -0.448923 0)
(11.4867 -0.346681 0)
(11.4765 -0.442151 0)
(11.4889 -0.389352 0)
(11.3517 -0.474624 0)
(10.9735 -0.491904 0)
(10.8125 -0.51918 0)
(10.3603 -0.574929 0)
(10.3234 -0.431824 0)
(10.0748 -0.416113 0)
(10.1261 -0.21192 0)
(10.2834 -0.17206 0)
(10.2819 -0.0858468 0)
(10.7222 -0.0659285 0)
(10.5454 -0.138887 0)
(10.9845 -0.148892 0)
(10.6725 -0.265364 0)
)
;

boundaryField
{
    inlet
    {
        type            fixedValue;
        value           uniform (10 0 0);
    }
    outlet
    {
        type            zeroGradient;
    }
    obstacle
    {
        type            noSlip;
    }
    upperWall
    {
        type            noSlip;
    }
    lowerWall
    {
        type            noSlip;
    }
    frontAndBack
    {
        type            empty;
    }
}


// ************************************************************************* //
