/*--------------------------------*- C++ -*----------------------------------*\
  =========                 |
  \\      /  F ield         | OpenFOAM: The Open Source CFD Toolbox
   \\    /   O peration     | Website:  https://openfoam.org
    \\  /    A nd           | Version:  10
     \\/     M anipulation  |
\*---------------------------------------------------------------------------*/
FoamFile
{
    format      ascii;
    class       volScalarField;
    location    "1.425";
    object      p;
}
// * * * * * * * * * * * * * * * * * * * * * * * * * * * * * * * * * * * * * //

dimensions      [0 2 -2 0 0 0 0];

internalField   nonuniform List<scalar> 
400
(
-3.48302e-09
1.33586e-05
0.000107718
0.000262896
0.000477535
0.000747131
0.00106571
0.00142606
0.00181977
0.00223728
0.00266804
0.00310063
0.003523
0.00392272
0.00428741
0.00460512
0.00486482
0.00505718
0.00517713
0.00520074
-1.44721e-05
-1.87645e-06
9.28535e-05
0.000248106
0.000462962
0.000733072
0.00105255
0.00141427
0.00180985
0.00222976
0.0026634
0.00309941
0.00352557
0.00392931
0.00429806
0.00461962
0.0048827
0.00507777
0.00519992
0.00522339
-0.000110614
-9.88809e-05
-1.56422e-06
0.000158143
0.000379459
0.000658008
0.000987853
0.00136177
0.00177128
0.00220667
0.00265723
0.00311108
0.00355561
0.00397774
0.00436421
0.00470204
0.00497907
0.00518488
0.00531399
0.00533826
-0.000275513
-0.000264163
-0.000162225
5.34535e-06
0.000237924
0.000531067
0.000878719
0.0012735
0.00170668
0.00216829
0.00264715
0.00313101
0.00360647
0.00405956
0.00447592
0.00484127
0.00514196
0.00536608
0.00550713
0.0055339
-0.000513452
-0.00050235
-0.000393708
-0.000214767
3.40367e-05
0.000348151
0.000721333
0.00114596
0.00161299
0.00211204
0.00263142
0.00315824
0.00367812
0.00417589
0.00463563
0.00504116
0.00537667
0.00562793
0.00578681
0.00581777
-0.000830197
-0.00081941
-0.000701939
-0.000508038
-0.000237892
0.000103788
0.000510513
0.000974338
0.00148584
0.00203415
0.00260696
0.00319069
0.00376976
0.00432748
0.00484595
0.00530644
0.00569009
0.00597932
0.0061634
0.00620064
-0.001233
-0.00122278
-0.00109433
-0.000881789
-0.000585021
-0.000208938
0.000239655
0.000752429
0.00131952
0.00192952
0.00256948
0.00322513
0.00387964
0.00451453
0.00510953
0.00564265
0.00609087
0.00643179
0.00665068
0.00669715
-0.00173113
-0.00172197
-0.00158034
-0.00134537
-0.00101648
-0.000598839
-9.96584e-05
0.000472275
0.0011066
0.00179138
0.00251306
0.00325684
0.00400467
0.00473633
0.00542878
0.00605607
0.0065897
0.00700041
0.00726724
0.00732737
-0.00233605
-0.0023288
-0.00217175
-0.0019104
-0.00154357
-0.0010768
-0.000517817
0.000124015
0.000837785
0.00161107
0.0024298
0.00327901
0.0041397
0.00499029
0.00580492
0.00655304
0.00719915
0.00770433
0.00803772
0.00811868
-0.0030618
-0.0030578
-0.00288304
-0.00259112
-0.00218009
-0.00165601
-0.00102735
-0.000304257
0.000501731
0.00137779
0.00230955
0.00328212
0.00427653
0.00527067
0.00623655
0.00713864
0.00793292
0.00856725
0.0089946
0.00910892
-0.00392557
-0.0039268
-0.00373198
-0.00340491
-0.0029427
-0.00235223
-0.00164308
-0.000826563
8.49411e-05
0.00107836
0.00214019
0.00325314
0.00440266
0.00556689
0.0067172
0.00781426
0.00880417
0.00961762
0.0101805
0.0103518
-0.00494863
-0.00495786
-0.00474059
-0.0043731
-0.00385156
-0.0031841
-0.00238216
-0.00145889
-0.000428069
0.000696642
0.00190191
0.00317412
0.00449982
0.00586105
0.00723201
0.00857295
0.00982147
0.0108876
0.0116507
0.0119267
-0.00615812
-0.0061787
-0.00593663
-0.00552218
-0.00493116
-0.00417353
-0.00326388
-0.0022185
-0.00105354
0.000216452
0.00157903
0.00302412
0.00454297
0.00612502
0.00775266
0.00939242
0.0109798
0.0124089
0.0134746
0.0139563
-0.00759268
-0.00762621
-0.00735645
-0.00688597
-0.00621171
-0.00534596
-0.00430899
-0.00312261
-0.00180704
-0.000378384
0.00115221
0.00277852
0.00449942
0.00631707
0.00823011
0.0102235
0.0122439
0.0142031
0.0157371
0.016634
-0.00928004
-0.00933939
-0.00904571
-0.00850846
-0.00773118
-0.00673054
-0.00553845
-0.00418634
-0.00270077
-0.00110062
0.000604018
0.00241189
0.00433011
0.00638016
0.00858693
0.0109738
0.0135209
0.016249
0.018491
0.0203167
-0.0114877
-0.0114279
-0.0110917
-0.0104561
-0.00954004
-0.0083605
-0.00697202
-0.00542028
-0.00374049
-0.0019553
-7.49102e-05
0.00190581
0.00399343
0.00624239
0.00870765
0.0114789
0.0145777
0.0183786
0.0215862
0.0254927
-0.0135291
-0.0138702
-0.01354
-0.0128112
-0.0117012
-0.0102703
-0.00862276
-0.00682424
-0.00491956
-0.00293559
-0.000885894
0.00122939
0.00343964
0.00580735
0.00837176
0.0113772
0.0146159
0.0200602
0.0242775
0.0328582
-0.0185548
-0.0166731
-0.0165148
-0.0154638
-0.0141089
-0.0123935
-0.0104474
-0.00835694
-0.00619266
-0.00399066
-0.00176507
0.000502063
0.00285226
0.00538414
0.00809894
0.0113558
0.0148419
0.0220131
0.0278327
0.0424943
-0.0202816
-0.0225917
-0.0216469
-0.0203527
-0.0181997
-0.0155642
-0.0128598
-0.0102005
-0.00764805
-0.00516496
-0.00277208
-0.000461505
0.00174589
0.003932
0.00554017
0.00925055
0.0061887
0.0194255
0.0173942
0.0529547
-0.0435534
-0.0213988
-0.0216605
-0.0202607
-0.0180074
-0.0155792
-0.0130889
-0.010533
-0.00798677
-0.00549933
-0.00309771
-0.000753453
0.00146196
0.00377914
0.00586764
0.00945874
0.0131594
0.0282245
0.0515254
0.115828
)
;

boundaryField
{
    movingWall
    {
        type            zeroGradient;
    }
    fixedWalls
    {
        type            zeroGradient;
    }
    frontAndBack
    {
        type            empty;
    }
}


// ************************************************************************* //
