/*--------------------------------*- C++ -*----------------------------------*\
  =========                 |
  \\      /  F ield         | OpenFOAM: The Open Source CFD Toolbox
   \\    /   O peration     | Website:  https://openfoam.org
    \\  /    A nd           | Version:  10
     \\/     M anipulation  |
\*---------------------------------------------------------------------------*/
FoamFile
{
    format      ascii;
    class       surfaceScalarField;
    location    "8.4";
    object      phi;
}
// * * * * * * * * * * * * * * * * * * * * * * * * * * * * * * * * * * * * * //

dimensions      [0 3 -1 0 0 0 0];

internalField   nonuniform List<scalar> 
760
(
-1.26325e-05
1.26319e-05
-4.07087e-05
2.80761e-05
-7.44884e-05
3.37797e-05
-0.000110102
3.5614e-05
-0.000146343
3.62407e-05
-0.000182865
3.65218e-05
-0.000219322
3.6457e-05
-0.000255039
3.57166e-05
-0.000288857
3.38186e-05
-0.000319019
3.01615e-05
-0.000343077
2.40581e-05
-0.000357881
1.48043e-05
-0.000359725
1.84354e-06
-0.000344681
-1.50432e-05
-0.000309684
-3.49975e-05
-0.000253908
-5.57758e-05
-0.000180854
-7.30544e-05
-0.000100414
-8.04395e-05
-3.01265e-05
-7.02876e-05
-3.01265e-05
-3.02212e-05
4.28531e-05
-8.52451e-05
8.31e-05
-0.000149509
9.80436e-05
-0.000216605
0.00010271
-0.000284071
0.000103707
-0.000350754
0.000103205
-0.000415585
0.000101288
-0.00047708
9.72113e-05
-0.000533099
8.98383e-05
-0.000580686
7.77484e-05
-0.000615969
5.93408e-05
-0.000634094
3.29298e-05
-0.000630095
-2.1559e-06
-0.000598108
-4.70298e-05
-0.000534162
-9.8944e-05
-0.000437553
-0.000152385
-0.000313926
-0.000196681
-0.00017874
-0.000215626
-5.90234e-05
-0.000190004
-8.91499e-05
-3.82727e-05
8.11258e-05
-0.000105923
0.00015075
-0.000184081
0.000176202
-0.000265089
0.000183717
-0.000346036
0.000184654
-0.00042554
0.000182709
-0.00050236
0.000178108
-0.000574858
0.000169709
-0.000640732
0.000155712
-0.000696804
0.00013382
-0.000738856
0.000101393
-0.000761714
5.57877e-05
-0.000758858
-5.0122e-06
-0.000723332
-8.25554e-05
-0.000649214
-0.000173062
-0.000534093
-0.000267507
-0.000383473
-0.000347301
-0.00021648
-0.000382618
-6.92568e-05
-0.000337227
-0.000158407
-4.13634e-05
0.000122489
-0.000114511
0.000223898
-0.00019877
0.000260461
-0.000285951
0.000270899
-0.000373138
0.000271841
-0.000459103
0.000268674
-0.000542828
0.000261833
-0.000622952
0.000249834
-0.00069747
0.00023023
-0.000763437
0.000199787
-0.000816622
0.000154579
-0.000851179
9.03444e-05
-0.00085989
3.69852e-06
-0.00083263
-0.000109815
-0.00075961
-0.000246082
-0.000633646
-0.000393471
-0.000457062
-0.000523885
-0.000253215
-0.000586465
-7.44793e-05
-0.000515963
-0.000232886
-4.21938e-05
0.000164683
-0.000117638
0.000299342
-0.000204749
0.000347572
-0.000295139
0.000361288
-0.000386088
0.000362789
-0.000476747
0.000359333
-0.000566603
0.000351688
-0.000654899
0.00033813
-0.000740292
0.000315624
-0.000820453
0.000279947
-0.000891501
0.000225627
-0.00094725
0.000146093
-0.00097832
3.47681e-05
-0.000972161
-0.000115974
-0.000911715
-0.000306528
-0.000780712
-0.000524473
-0.000572422
-0.000732175
-0.000310911
-0.000847975
-8.06707e-05
-0.000746204
-0.000313557
-4.20952e-05
0.000206778
-0.000118517
0.000375764
-0.000207223
0.000436277
-0.000299737
0.000453803
-0.00039363
0.000456682
-0.000488588
0.000454291
-0.000584819
0.000447919
-0.000682481
0.000435793
-0.000781317
0.000414459
-0.000880159
0.000378789
-0.000976152
0.000321621
-0.00106355
0.000233491
-0.00113192
0.000103134
-0.0011654
-8.24921e-05
-0.00113834
-0.000333588
-0.00101827
-0.000644536
-0.000775256
-0.000975194
-0.000420162
-0.00120307
-9.63215e-05
-0.00107004
-0.000409878
-4.15559e-05
0.000248334
-0.000118349
0.000452557
-0.00020803
0.000525958
-0.000302039
0.000547811
-0.000398267
0.00055291
-0.000497031
0.000553056
-0.000599461
0.00055035
-0.000706953
0.000543284
-0.000820861
0.000528368
-0.000942007
0.000499935
-0.0010698
0.000449414
-0.00120074
0.000364435
-0.00132588
0.000228264
-0.00143026
2.18926e-05
-0.00147788
-0.000285965
-0.00141058
-0.000711839
-0.0011447
-0.00124108
-0.000645972
-0.0017018
-0.00014968
-0.00156634
-0.000559558
-4.07007e-05
0.000289035
-0.000117451
0.000529308
-0.000207555
0.000616062
-0.000302287
0.000642543
-0.000399835
0.000650458
-0.000501181
0.000654402
-0.000608502
0.00065767
-0.000724743
0.000659525
-0.000853473
0.000657097
-0.00099862
0.000645083
-0.00116387
0.000614665
-0.00135139
0.000551955
-0.00155966
0.000436537
-0.00177667
0.000238898
-0.00197165
-9.09796e-05
-0.00203215
-0.000651343
-0.0017724
-0.00150083
-0.00108714
-0.00238706
-0.000313045
-0.00234043
-0.000872603
-3.95949e-05
0.00032863
-0.00011595
0.000605663
-0.000205825
0.000705937
-0.000300173
0.000736892
-0.000397393
0.000747678
-0.000499083
0.000756093
-0.000608462
0.000767049
-0.000730123
0.000781186
-0.00087025
0.000797225
-0.00103696
0.000811793
-0.00124056
0.000818262
-0.0014937
0.000805101
-0.00181091
0.000753747
-0.00219782
0.000625809
-0.00260631
0.000317507
-0.00285966
-0.000397993
-0.00262827
-0.00173222
-0.00179176
-0.00322356
-0.000699918
-0.00343227
-0.00157252
-3.84171e-05
0.000367047
-0.000114185
0.000681431
-0.000203121
0.000794873
-0.000295653
0.000829424
-0.000390236
0.000842261
-0.000488935
0.000854791
-0.000595816
0.000873931
-0.000716918
0.000902287
-0.000860926
0.000941233
-0.00104042
0.000991286
-0.00127388
0.00105172
-0.0015883
0.00111953
-0.00201809
0.00118354
-0.00258212
0.00118983
-0.00319558
0.000930968
-0.00357675
-1.68225e-05
-0.00341324
-0.00189573
-0.00262754
-0.00400926
-0.00133612
-0.00472369
-0.00290865
-3.75773e-05
0.000404624
-0.000112962
0.000756816
-0.00020036
0.00088227
-0.00028946
0.000918524
-0.000378578
0.000931378
-0.000469988
0.000946201
-0.000568168
0.000972111
-0.000679889
0.00101401
-0.000815336
0.00107668
-0.000990185
0.00116614
-0.00122908
0.00129061
-0.00156893
0.00145938
-0.00205105
0.00166566
-0.00267751
0.00181629
-0.00331949
0.00157295
-0.00370493
0.000368624
-0.00364072
-0.00195995
-0.00310862
-0.00454136
-0.00188152
-0.00595079
-0.00479016
-3.79226e-05
0.000442547
-0.000113918
0.000832811
-0.000199475
0.000967828
-0.000283456
0.0010025
-0.000364021
0.00101194
-0.000443363
0.00102554
-0.000525697
0.00105444
-0.000617268
0.00110558
-0.000727495
0.00118691
-0.000870893
0.00130953
-0.0010697
0.00148941
-0.00135407
0.00174375
-0.00174902
0.00206061
-0.00222807
0.00229534
-0.00268074
0.00202561
-0.00294888
0.000636764
-0.00300107
-0.00190775
-0.00277853
-0.00476391
-0.00186339
-0.00686593
-0.00665355
-4.05571e-05
0.000483104
-0.000119217
0.000911471
-0.000203373
0.00105198
-0.000281067
0.0010802
-0.000350215
0.00108109
-0.000412735
0.00108806
-0.00047203
0.00111374
-0.000532276
0.00116583
-0.000599259
0.00125389
-0.000681083
0.00139136
-0.000788593
0.00159692
-0.000931526
0.00188668
-0.00111215
0.00224123
-0.00130099
0.00248419
-0.00147115
0.00219577
-0.00158827
0.000753883
-0.00172709
-0.00176893
-0.00184966
-0.00464134
-0.00142777
-0.00728781
-0.00808133
-4.92724e-05
0.000532376
-0.000134889
0.000997088
-0.00021753
0.00113462
-0.0002863
0.00114897
-0.000340935
0.00113573
-0.00038336
0.00113049
-0.000415096
0.00114548
-0.000437598
0.00118833
-0.000451853
0.00126814
-0.000457665
0.00139717
-0.000452637
0.00159189
-0.000426768
0.00186081
-0.000367156
0.00218162
-0.0002693
0.00238633
-0.000182984
0.00210945
-0.000203801
0.000774701
-0.000435786
-0.00153695
-0.000909235
-0.00416789
-0.000956531
-0.00724052
-0.00903786
-6.05861e-05
0.000592962
-0.00015711
0.00109361
-0.000243109
0.00122062
-0.000308038
0.0012139
-0.000349339
0.00117703
-0.000369815
0.00115096
-0.000371125
0.00114679
-0.000352916
0.00117012
-0.000312305
0.00122753
-0.000242436
0.0013273
-0.000130902
0.00148036
4.26095e-05
0.0016873
0.000293292
0.00193094
0.000609417
0.00207021
0.000885809
0.00183306
0.000909747
0.000750763
0.0005507
-0.0011779
-0.000203694
-0.00341349
-0.000583988
-0.00686022
-0.00962185
-0.000128261
0.000721224
-0.000239193
0.00120454
-0.000309527
0.00129096
-0.000347479
0.00125185
-0.000362727
0.00119228
-0.000358545
0.00114678
-0.000333145
0.00112139
-0.000281835
0.00111881
-0.000197691
0.00114339
-7.01613e-05
0.00119977
0.000115966
0.00129423
0.000377374
0.00142589
0.0007322
0.00157611
0.00115441
0.00164799
0.00152045
0.00146703
0.001582
0.000689209
0.00117007
-0.000765968
0.000294367
-0.00253779
-0.000274308
-0.00629155
-0.00989615
-8.28141e-05
0.000804038
-0.000259287
0.00138102
-0.000369387
0.00140106
-0.000420547
0.00130301
-0.000429395
0.00120112
-0.000406194
0.00112358
-0.000353339
0.00106853
-0.000267923
0.00103339
-0.000143823
0.00101929
3.08303e-05
0.00102512
0.000266875
0.00105819
0.000580727
0.00111204
0.000976834
0.00118001
0.00142758
0.00119724
0.00181715
0.00107747
0.00189773
0.000608628
0.00149113
-0.00035937
0.000671361
-0.00171802
0.000102321
-0.00572251
-0.00979383
-0.00037867
0.00118271
-0.000435084
0.00143743
-0.000481768
0.00144774
-0.000516843
0.00133808
-0.000504465
0.00118874
-0.000450674
0.00106979
-0.000358982
0.00097684
-0.000227461
0.000901871
-5.64338e-05
0.000848261
0.000161174
0.000807511
0.000430163
0.0007892
0.000760659
0.000781547
0.00114701
0.00079366
0.00155533
0.000788921
0.00192199
0.000710808
0.00206223
0.000468383
0.00193482
-0.000231963
0.00153443
-0.00131763
0.000858062
-0.00504614
-0.00893577
-0.00136276
0.00254547
-0.00132525
0.00139992
-0.00106527
0.00118776
-0.000692991
0.000965806
-0.000300414
0.000796168
9.6363e-05
0.000673014
0.000486366
0.000586838
0.000868924
0.000519313
0.00124618
0.000471009
0.00162354
0.000430146
0.00200852
0.00040422
0.00240713
0.000382933
0.00283438
0.000366412
0.00327936
0.000343945
0.00372195
0.000268218
0.00405491
0.000135425
0.00414144
-0.0003185
0.00397696
-0.00115314
0.00251997
-0.00358915
-0.0064158
0.00254547
0.00394539
0.00513315
0.00609895
0.00689512
0.00756814
0.00815497
0.00867429
0.0091453
0.00957544
0.00997966
0.0103626
0.010729
0.011073
0.0113412
0.0114766
0.0111581
0.010005
0.0064158
)
;

boundaryField
{
    movingWall
    {
        type            calculated;
        value           uniform 0;
    }
    fixedWalls
    {
        type            calculated;
        value           uniform 0;
    }
    frontAndBack
    {
        type            empty;
        value           nonuniform List<scalar> 0();
    }
}


// ************************************************************************* //
