/*--------------------------------*- C++ -*----------------------------------*\
  =========                 |
  \\      /  F ield         | OpenFOAM: The Open Source CFD Toolbox
   \\    /   O peration     | Website:  https://openfoam.org
    \\  /    A nd           | Version:  10
     \\/     M anipulation  |
\*---------------------------------------------------------------------------*/
FoamFile
{
    format      ascii;
    class       volVectorField;
    location    "9.4";
    object      U;
}
// * * * * * * * * * * * * * * * * * * * * * * * * * * * * * * * * * * * * * //

dimensions      [0 1 -1 0 0 0 0];

internalField   nonuniform List<vector> 
475
(
(0.974557 0.0160714 0)
(0.97552 0.00648135 0)
(0.950544 0.0314374 0)
(0.953945 0.00139584 0)
(0.920148 0.030307 0)
(0.998476 0.00870464 0)
(1.01408 0.0148324 0)
(1.02538 0.0152831 0)
(1.04375 0.00876199 0)
(1.05578 0.0023784 0)
(0.9998 0.000274186 0)
(1.0098 -0.00294637 0)
(1.02425 -0.0045859 0)
(1.04123 -0.00929126 0)
(1.05656 -0.0141562 0)
(0.999761 -0.0100389 0)
(1.01034 -0.0194744 0)
(1.02264 -0.0220131 0)
(1.03561 -0.0229948 0)
(1.04455 -0.0255166 0)
(0.980732 -0.00967717 0)
(0.96918 -0.0190884 0)
(0.953676 -0.0218575 0)
(0.933489 -0.0222483 0)
(0.907727 -0.0229108 0)
(0.92431 -0.0156503 0)
(0.93172 -0.0355022 0)
(0.936906 -0.0485325 0)
(0.943361 -0.0581162 0)
(0.952013 -0.0670383 0)
(0.964201 -0.0765505 0)
(0.97942 -0.088512 0)
(0.997092 -0.10251 0)
(1.01583 -0.119887 0)
(1.0346 -0.138988 0)
(1.05189 -0.160126 0)
(1.06629 -0.180686 0)
(1.07635 -0.200051 0)
(1.08091 -0.215542 0)
(1.07925 -0.226202 0)
(1.07091 -0.230501 0)
(1.05568 -0.228622 0)
(1.03371 -0.221981 0)
(1.00628 -0.211556 0)
(0.976456 -0.197369 0)
(0.946941 -0.179442 0)
(0.91877 -0.158422 0)
(0.891765 -0.134899 0)
(0.867064 -0.10968 0)
(0.843718 -0.0843492 0)
(0.825626 -0.0593858 0)
(0.810176 -0.035822 0)
(0.80296 -0.012582 0)
(0.795862 0.00848892 0)
(0.797893 0.028845 0)
(0.796767 0.0460713 0)
(0.804946 0.0622618 0)
(0.806545 0.0740119 0)
(0.816461 0.08363 0)
(0.818147 0.0888456 0)
(0.826764 0.0904261 0)
(0.826332 0.0894789 0)
(0.831983 0.0840666 0)
(0.827577 0.077683 0)
(0.830804 0.0685847 0)
(0.821949 0.0591398 0)
(0.823874 0.051348 0)
(0.811519 0.0419516 0)
(0.812563 0.0373573 0)
(0.797916 0.0316799 0)
(1.06849 -0.00819733 0)
(1.07813 -0.0203908 0)
(1.08247 -0.0323163 0)
(1.08458 -0.043104 0)
(1.08432 -0.0543325 0)
(1.08529 -0.065999 0)
(1.08469 -0.0800964 0)
(1.08499 -0.0958386 0)
(1.08254 -0.11473 0)
(1.07936 -0.134457 0)
(1.07203 -0.155807 0)
(1.06179 -0.175247 0)
(1.04621 -0.192593 0)
(1.02572 -0.203476 0)
(0.999209 -0.207652 0)
(0.966836 -0.203468 0)
(0.928027 -0.195682 0)
(0.882697 -0.186176 0)
(0.832963 -0.173691 0)
(0.783046 -0.156498 0)
(0.735366 -0.136737 0)
(0.690536 -0.115835 0)
(0.650507 -0.0955928 0)
(0.614985 -0.0764759 0)
(0.583725 -0.0583935 0)
(0.558663 -0.040844 0)
(0.540692 -0.0239344 0)
(0.532382 -0.00725451 0)
(0.52748 0.00836407 0)
(0.532327 0.0243776 0)
(0.537714 0.0384189 0)
(0.552769 0.0522535 0)
(0.563692 0.0621191 0)
(0.583301 0.0714914 0)
(0.596371 0.0759334 0)
(0.615444 0.0793053 0)
(0.627903 0.0784906 0)
(0.642928 0.0754414 0)
(0.652229 0.0705673 0)
(0.662523 0.0634774 0)
(0.667188 0.0564908 0)
(0.67315 0.0497172 0)
(0.673029 0.0429958 0)
(0.675033 0.0399693 0)
(0.672619 0.0358703 0)
(1.0685 -0.0221327 0)
(1.07706 -0.0322597 0)
(1.08066 -0.0435229 0)
(1.08199 -0.0541499 0)
(1.07873 -0.0647484 0)
(1.07534 -0.0752795 0)
(1.06725 -0.0873677 0)
(1.05975 -0.100391 0)
(1.04629 -0.11575 0)
(1.03278 -0.131688 0)
(1.01207 -0.149016 0)
(0.989886 -0.164438 0)
(0.96085 -0.176975 0)
(0.927813 -0.181883 0)
(0.887111 -0.175282 0)
(0.837867 -0.158911 0)
(0.777335 -0.14436 0)
(0.708653 -0.135701 0)
(0.640007 -0.128286 0)
(0.571685 -0.115497 0)
(0.50219 -0.0954282 0)
(0.437692 -0.0718696 0)
(0.382159 -0.0496767 0)
(0.336915 -0.0325757 0)
(0.301091 -0.0206454 0)
(0.274733 -0.0120709 0)
(0.257605 -0.00506344 0)
(0.24978 0.00255054 0)
(0.248314 0.0113333 0)
(0.254105 0.0209461 0)
(0.263175 0.029917 0)
(0.279286 0.0390858 0)
(0.295481 0.046533 0)
(0.318138 0.0536766 0)
(0.337987 0.0575833 0)
(0.362406 0.0610215 0)
(0.383524 0.0601763 0)
(0.40476 0.0597286 0)
(0.425545 0.0556667 0)
(0.441012 0.052508 0)
(0.459864 0.0475506 0)
(0.469255 0.0434474 0)
(0.485907 0.0391913 0)
(0.490433 0.0367805 0)
(0.508196 0.033019 0)
(1.05056 -0.029844 0)
(1.05169 -0.0357726 0)
(1.04881 -0.0420868 0)
(1.04138 -0.0486498 0)
(1.0289 -0.0548757 0)
(1.01298 -0.0616309 0)
(0.990651 -0.0688922 0)
(0.965968 -0.077389 0)
(0.931905 -0.0870879 0)
(0.896134 -0.0977245 0)
(0.847445 -0.109459 0)
(0.797862 -0.119675 0)
(0.734661 -0.128567 0)
(0.668392 -0.129722 0)
(0.600802 -0.116004 0)
(0.521772 -0.0937393 0)
(0.419413 -0.0679817 0)
(0.298662 -0.0403776 0)
(0.192804 -0.0126614 0)
(0.116992 0.000874829 0)
(0.0681906 0.00032628 0)
(0.0414954 -0.00261094 0)
(0.02694 -0.00312249 0)
(0.0187138 -0.00285179 0)
(0.0141996 -0.00253282 0)
(0.0121322 -0.0020343 0)
(0.0119981 -0.000955662 0)
(0.0142865 0.00121318 0)
(0.0194521 0.00431937 0)
(0.0284357 0.00863611 0)
(0.0407173 0.0134375 0)
(0.0572881 0.0187592 0)
(0.076312 0.0234527 0)
(0.099475 0.0279237 0)
(0.123339 0.0309059 0)
(0.1505 0.0330924 0)
(0.176867 0.033594 0)
(0.203927 0.0337101 0)
(0.230606 0.0317716 0)
(0.253252 0.0301672 0)
(0.27952 0.0266725 0)
(0.295164 0.0245571 0)
(0.321467 0.021292 0)
(0.329586 0.0196237 0)
(0.358344 0.0172339 0)
(0.880367 -0.0240935 0)
(0.849067 -0.0261494 0)
(0.816175 -0.027936 0)
(0.777903 -0.0303676 0)
(0.736814 -0.0320126 0)
(0.689572 -0.0348818 0)
(0.638591 -0.0369407 0)
(0.581542 -0.0411162 0)
(0.518105 -0.0443373 0)
(0.449121 -0.0499026 0)
(0.367994 -0.0543889 0)
(0.285383 -0.058605 0)
(0.181471 -0.0659839 0)
(0.0803876 -0.0392826 0)
(0.0100284 0.00804558 0)
(-0.0285739 0.0439074 0)
(-0.0386998 0.0658712 0)
(-0.0303953 0.0608339 0)
(-0.0151865 0.0349678 0)
(-0.00593625 0.00250695 0)
(-0.0108307 -0.018629 0)
(-0.0250539 -0.0240723 0)
(-0.0396688 -0.0208522 0)
(-0.0513356 -0.0155724 0)
(-0.0601003 -0.0112483 0)
(-0.0666713 -0.00826647 0)
(-0.0714913 -0.00628815 0)
(-0.0744352 -0.0045956 0)
(-0.0751256 -0.00289134 0)
(-0.0730545 -0.00101844 0)
(-0.0679568 0.000790519 0)
(-0.0593765 0.00265588 0)
(-0.0476282 0.00426981 0)
(-0.0326178 0.00578744 0)
(-0.0154575 0.00684217 0)
(0.00396524 0.00754239 0)
(0.0241756 0.00779018 0)
(0.0447119 0.00763559 0)
(0.0645056 0.00703372 0)
(0.0829924 0.00620083 0)
(0.100537 0.00528498 0)
(0.114766 0.0044658 0)
(0.130147 0.00357909 0)
(0.138526 0.00335799 0)
(0.15633 0.00296562 0)
(0.00225936 -0.0228407 0)
(0.00163585 -0.0223387 0)
(-0.00640317 -0.0156182 0)
(-0.0211959 -0.00229759 0)
(-0.0488549 0.011772 0)
(-0.0862522 0.0206196 0)
(-0.127522 0.0244026 0)
(-0.168864 0.0251936 0)
(-0.206688 0.0237052 0)
(-0.237834 0.0204815 0)
(-0.25944 0.0159113 0)
(-0.269937 0.0104355 0)
(-0.269149 0.00409407 0)
(-0.256955 -0.00256504 0)
(-0.23377 -0.00889807 0)
(-0.200774 -0.0143069 0)
(-0.159756 -0.0183855 0)
(-0.11305 -0.0209508 0)
(-0.0630276 -0.0220988 0)
(-0.0113811 -0.0219658 0)
(0.0398104 -0.021046 0)
(0.0885904 -0.0191958 0)
(0.133057 -0.0164385 0)
(0.171727 -0.0130114 0)
(0.203205 -0.0092241 0)
(0.226999 -0.00522665 0)
(0.242544 -0.00118915 0)
(0.249593 0.00247299 0)
(0.248973 0.00605195 0)
(0.241216 0.00913179 0)
(0.227489 0.01077 0)
(0.209625 0.010797 0)
(0.18948 0.00997003 0)
(0.16896 0.0089046 0)
(0.149223 0.00759545 0)
(0.131394 0.0059072 0)
(0.115787 0.00396734 0)
(0.103162 0.00216303 0)
(0.0933968 0.000639883 0)
(0.0870825 -0.000561232 0)
(0.0835452 -0.0013573 0)
(0.0826506 -0.00204443 0)
(0.0835447 -0.00219539 0)
(0.0849082 -0.00233292 0)
(0.0891971 -0.00185094 0)
(-0.000516277 0.0201448 0)
(-0.0166255 0.0330644 0)
(-0.0558021 0.04065 0)
(-0.0895092 0.0483643 0)
(-0.121837 0.055665 0)
(-0.148136 0.0585154 0)
(-0.168974 0.0571394 0)
(-0.18394 0.0518483 0)
(-0.192534 0.0429808 0)
(-0.193428 0.0309023 0)
(-0.185239 0.0161562 0)
(-0.168015 -0.000283724 0)
(-0.141438 -0.0173688 0)
(-0.106081 -0.03435 0)
(-0.0620515 -0.0500442 0)
(-0.0110204 -0.0631702 0)
(0.0461516 -0.0729619 0)
(0.106809 -0.0791392 0)
(0.168617 -0.0818285 0)
(0.229977 -0.0813859 0)
(0.288873 -0.0783043 0)
(0.344519 -0.0726839 0)
(0.395157 -0.0646622 0)
(0.440026 -0.0547878 0)
(0.47757 -0.0434472 0)
(0.507721 -0.0315628 0)
(0.53016 -0.0193627 0)
(0.544561 -0.00740164 0)
(0.551469 0.00361456 0)
(0.551426 0.0138395 0)
(0.544149 0.022561 0)
(0.530894 0.0288443 0)
(0.512191 0.032246 0)
(0.490274 0.0327223 0)
(0.465988 0.0311149 0)
(0.441571 0.0280439 0)
(0.41798 0.02443 0)
(0.396761 0.0198612 0)
(0.377628 0.0151314 0)
(0.362405 0.00991177 0)
(0.350066 0.00536899 0)
(0.342301 0.00174014 0)
(0.336413 -0.000744625 0)
(0.333876 -0.00270702 0)
(0.33288 -0.00354575 0)
(-0.034652 -0.0114095 0)
(-0.0676708 0.0279477 0)
(-0.0778663 0.0461659 0)
(-0.0816081 0.056511 0)
(-0.0772922 0.061414 0)
(-0.0664046 0.0606144 0)
(-0.050611 0.0555093 0)
(-0.0298013 0.0459405 0)
(-0.00486015 0.0318469 0)
(0.0247481 0.0137213 0)
(0.0603948 -0.00780039 0)
(0.102008 -0.0317957 0)
(0.149763 -0.0571346 0)
(0.201748 -0.0814249 0)
(0.25758 -0.103371 0)
(0.315708 -0.121386 0)
(0.374367 -0.134129 0)
(0.432488 -0.141849 0)
(0.488526 -0.144441 0)
(0.54171 -0.142564 0)
(0.590829 -0.136385 0)
(0.635884 -0.126174 0)
(0.675477 -0.112275 0)
(0.709795 -0.0957387 0)
(0.737519 -0.0771948 0)
(0.759366 -0.0577218 0)
(0.774809 -0.0380112 0)
(0.784792 -0.0187348 0)
(0.788701 -0.000659381 0)
(0.787923 0.0157241 0)
(0.781156 0.030123 0)
(0.770051 0.0413176 0)
(0.753765 0.0492325 0)
(0.735674 0.0536974 0)
(0.71407 0.0550139 0)
(0.692967 0.0530577 0)
(0.669218 0.0484044 0)
(0.64927 0.0425189 0)
(0.627216 0.0350515 0)
(0.611338 0.0267416 0)
(0.592787 0.0186166 0)
(0.581672 0.0106941 0)
(0.567536 0.00618136 0)
(0.562069 0.00164725 0)
(0.55007 -0.00137031 0)
(-0.0299416 0.141611 0)
(-0.0264095 0.0898721 0)
(-0.0161325 0.0711863 0)
(0.00932417 0.0590952 0)
(0.0426722 0.0492651 0)
(0.0835117 0.0396634 0)
(0.129476 0.0275821 0)
(0.179045 0.012353 0)
(0.231392 -0.00712655 0)
(0.286308 -0.0309571 0)
(0.343952 -0.0580257 0)
(0.402979 -0.0861491 0)
(0.46258 -0.114166 0)
(0.521962 -0.14044 0)
(0.579702 -0.16294 0)
(0.634741 -0.180258 0)
(0.685661 -0.191491 0)
(0.731974 -0.196688 0)
(0.772974 -0.196248 0)
(0.809229 -0.190622 0)
(0.840438 -0.179808 0)
(0.8676 -0.164098 0)
(0.889515 -0.144264 0)
(0.907691 -0.121652 0)
(0.920697 -0.0971377 0)
(0.930783 -0.0721471 0)
(0.936249 -0.0470448 0)
(0.939964 -0.0227325 0)
(0.939072 0.000269315 0)
(0.9372 0.0211211 0)
(0.930132 0.0388994 0)
(0.922608 0.0537251 0)
(0.909096 0.0644771 0)
(0.896998 0.0718607 0)
(0.879125 0.0749937 0)
(0.864539 0.0745492 0)
(0.843879 0.0708295 0)
(0.828917 0.0635897 0)
(0.808066 0.0557572 0)
(0.795331 0.0453075 0)
(0.774798 0.0361326 0)
(0.765572 0.0271264 0)
(0.745198 0.0187375 0)
(0.741338 0.014315 0)
(0.720231 0.00889356 0)
(0.0810531 0.00501711 0)
(0.119985 -0.00384955 0)
(0.20275 -0.00727359 0)
(0.267662 -0.0137221 0)
(0.32801 -0.0223191 0)
(0.388773 -0.0330922 0)
(0.449701 -0.0463734 0)
(0.510206 -0.0622279 0)
(0.571079 -0.0816133 0)
(0.630748 -0.103737 0)
(0.689559 -0.128543 0)
(0.745623 -0.153817 0)
(0.797813 -0.17824 0)
(0.844783 -0.199934 0)
(0.88546 -0.217043 0)
(0.919156 -0.228332 0)
(0.945094 -0.233083 0)
(0.963554 -0.231914 0)
(0.975239 -0.22591 0)
(0.981913 -0.215458 0)
(0.984572 -0.200251 0)
(0.984831 -0.180416 0)
(0.981864 -0.156688 0)
(0.978007 -0.130315 0)
(0.971748 -0.102886 0)
(0.967109 -0.0755452 0)
(0.960713 -0.0487923 0)
(0.958022 -0.0228795 0)
(0.952316 0.00125134 0)
(0.950902 0.0238955 0)
(0.945012 0.0430275 0)
(0.943978 0.0597664 0)
(0.936534 0.0720413 0)
(0.934025 0.0812798 0)
(0.924161 0.0860861 0)
(0.919731 0.086709 0)
(0.906914 0.084538 0)
(0.901132 0.0779736 0)
(0.88572 0.0705113 0)
(0.880448 0.0602195 0)
(0.862425 0.0498507 0)
(0.858638 0.0410503 0)
(0.838283 0.0315485 0)
(0.83629 0.0265455 0)
(0.814128 0.0208066 0)
)
;

boundaryField
{
    inlet
    {
        type            fixedValue;
        value           uniform (1 0 0);
    }
    outlet
    {
        type            zeroGradient;
    }
    upperWall
    {
        type            noSlip;
    }
    lowerWall
    {
        type            noSlip;
    }
    frontAndBack
    {
        type            empty;
    }
}


// ************************************************************************* //
