/*--------------------------------*- C++ -*----------------------------------*\
  =========                 |
  \\      /  F ield         | OpenFOAM: The Open Source CFD Toolbox
   \\    /   O peration     | Website:  https://openfoam.org
    \\  /    A nd           | Version:  10
     \\/     M anipulation  |
\*---------------------------------------------------------------------------*/
FoamFile
{
    format      ascii;
    class       surfaceScalarField;
    location    "9.5";
    object      phi;
}
// * * * * * * * * * * * * * * * * * * * * * * * * * * * * * * * * * * * * * //

dimensions      [0 3 -1 0 0 0 0];

internalField   nonuniform List<scalar> 
928
(
0.0969036
0.00309641
0.103274
-0.00637035
0.107067
-0.00379265
-0.0090153
0.116082
0.0960789
0.0070175
0.10617
-0.0164618
0.104554
-0.00217661
-0.0179494
0.113488
0.0968038
0.0102137
0.107598
-0.0272558
0.105008
0.000413684
-0.0362403
0.123298
0.100838
0.00937549
0.0937704
-0.020188
0.0959563
-0.00177223
0.144931
-0.0852149
0.111551
0.00453129
-0.0167998
0.12835
0.110717
0.00730242
-0.0414811
0.135399
0.126507
0.00409353
-0.0440046
0.129031
0.149024
0.10502
0.128967
-0.000616832
0.129811
-0.000843716
0.131841
-0.00202975
-0.00142072
0.133261
0.135762
-0.000979862
0.136627
-0.0017089
0.138449
-0.00385199
-0.00240071
0.139429
0.135422
-0.00737084
0.140542
-0.00682858
0.13827
-0.0015804
-0.00262337
0.138493
0.105781
-0.0081322
0.105102
-0.00614898
0.0955175
0.00800365
0.095403
-0.00250885
0.134557
-0.00129579
0.134472
8.54731e-05
0.133351
0.00112024
0.131737
0.00161471
0.129869
0.00186777
0.128584
0.00128499
0.126686
0.00189794
0.125995
0.000691268
0.125029
0.000966112
0.124603
0.00042575
0.123622
0.000980613
0.123213
0.00040981
0.123298
-8.50296e-05
0.122332
0.000965525
0.121823
0.000509131
0.119784
0.00203889
0.118305
0.0014789
0.115979
0.00232639
0.113937
0.00204199
0.11224
0.00169688
0.110159
0.00208065
0.10947
0.000688758
0.108163
0.00130729
0.108755
-0.000591997
0.109138
-0.000383038
0.110036
-0.000897441
0.110947
-0.000911321
0.110839
0.000108071
0.111099
-0.000260307
0.110402
0.000697173
0.110451
-4.87046e-05
0.110124
0.000327134
0.110051
7.28679e-05
0.110029
2.21477e-05
0.109369
0.000659511
0.108622
0.00074672
0.106361
0.00226138
0.10377
0.00259097
0.0997082
0.00406177
0.00330441
0.139941
-0.00180747
0.139588
0.000438595
0.139108
0.00160025
0.138608
0.00211455
0.136998
0.00347766
0.135793
0.00249012
0.134657
0.00303346
0.134378
0.000970115
0.133033
0.00231114
0.132549
0.000909669
0.132541
0.000989188
0.133062
-0.000111444
0.133393
-0.000416011
0.132728
0.00163032
0.13242
0.000816969
0.130961
0.0034978
0.130001
0.00243982
0.128076
0.00425054
0.126129
0.00398935
0.124358
0.00346801
0.122013
0.00442596
0.120847
0.00185459
0.119162
0.00299225
0.119356
-0.000785809
0.119686
-0.000712993
0.120696
-0.00190832
0.121885
-0.00209964
0.122209
-0.000216222
0.123419
-0.00147042
0.122917
0.00119908
0.123715
-0.000846284
0.12396
8.18896e-05
0.12448
-0.00044669
0.125812
-0.00131039
0.125755
0.000716714
0.12673
-0.000228325
0.125344
0.00364786
0.124451
0.00348369
0.122444
0.0060688
0.00599696
0.137622
-0.000936444
0.13792
0.000140641
0.137643
0.00187627
0.136189
0.00356907
0.136586
0.0030808
0.136487
0.00258928
0.136282
0.00323772
0.133829
0.00342355
0.132939
0.00320161
0.132791
0.00105754
0.133775
4.96373e-06
0.134596
-0.00093229
0.134654
-0.000474036
0.135789
0.000495377
0.135664
0.000941692
0.136209
0.00295286
0.134748
0.00390089
0.132372
0.00662639
0.129043
0.00731848
0.124857
0.00765385
0.121766
0.00751713
0.118548
0.00507248
0.117417
0.00412339
0.116829
-0.000197727
0.116487
-0.000371412
0.11698
-0.0024008
0.116943
-0.00206276
0.117364
-0.000637816
0.117341
-0.00144658
0.117743
0.000796705
0.11763
-0.000733592
0.117233
0.000478673
0.118037
-0.0012505
0.118736
-0.00200966
0.120475
-0.001022
0.122823
-0.00257588
0.125065
0.00140575
0.1272
0.00134893
0.127882
0.00538606
0.00624808
0.102313
-0.00784624
0.100706
0.00174739
0.0972356
0.0053467
0.0958119
0.00499277
0.0963911
0.00250159
0.0976127
0.00136767
0.0939001
0.00695033
0.0905031
0.00682057
0.0901825
0.00352217
0.0906963
0.000543722
0.0918651
-0.00116382
0.0932426
-0.0023098
0.097112
-0.00434344
0.1019
-0.00429283
0.106694
-0.00385193
0.11247
-0.00282313
0.116658
-0.00028749
0.121898
0.00138634
0.1264
0.0028166
0.12991
0.00414412
0.131685
0.00574236
0.130841
0.00591611
0.129371
0.00559383
0.124174
0.00499889
0.118372
0.00543022
0.111379
0.00459281
0.105004
0.00431219
0.0988139
0.00555207
0.0924332
0.0049341
0.0870202
0.00620977
0.081193
0.00509354
0.0787111
0.00296063
0.0769891
0.000471464
0.0775135
-0.00253401
0.0808545
-0.004363
0.0846975
-0.00641889
0.0912207
-0.00511748
0.0968867
-0.00431711
0.102883
-0.000609809
0.00262331
0.108778
0.000597743
0.0888377
-0.000247958
0.0854328
0.00163272
0.000217866
0.110455
-0.00985766
0.0885956
0.0216119
0.0894401
0.000788196
0.089658
-0.0130717
0.00493954
0.0166095
-0.0358303
-0.0122455
0.0368587
0.00515769
-0.0199121
-0.00231547
0.00725501
-0.0136538
-0.0244919
0.00427829
0.0189266
0.0129911
-0.00355514
-0.00711075
-0.0206476
0.00302639
-0.00838975
0.00883653
-0.000463434
-0.00716521
0.0209945
-0.00751572
0.0028521
0.00457481
-0.0107229
0.0106547
0.00087043
0.0088348
0.00864048
0.00831979
0.00403719
0.0120922
-0.00322868
0.0187509
-0.00782253
0.0245151
-0.00807404
0.027666
-0.00749426
0.0303786
-0.00700547
0.0324808
-0.00595412
0.0334984
-0.00384079
0.0345329
-0.00132191
0.034871
0.00104817
0.0336915
0.00399613
0.0321239
0.00571171
0.0306782
0.00718806
0.0291616
0.00743269
0.0279602
0.00679524
0.028359
0.00460008
0.028968
0.00482123
0.0293056
0.00425526
0.0302067
0.00341109
0.0305783
0.00518047
0.0308616
0.00465081
0.0321514
0.00491992
0.0330495
0.00419548
0.0347949
0.00121516
0.0373637
-0.00209733
0.0389099
-0.0040802
0.0423661
-0.0078192
0.0465406
-0.0105933
0.0495483
-0.00812517
0.054155
-0.00892387
0.0575099
-0.00396465
0.00201915
-0.00688402
-0.000772412
-0.0113117
-0.00396204
-0.0128082
0.00103301
0.000565895
0.00762043
0.00490002
-0.00148202
-0.00106905
-0.0047538
-3.9703e-05
-0.000158911
0.00776228
0.000838503
0.0147511
-0.00295166
0.0182475
-0.00672504
0.0182636
-0.00783865
0.0173596
-0.00716998
0.0173042
-0.00743895
0.0176174
-0.00731861
0.0176883
-0.00602503
0.0167824
-0.00293486
0.0166342
-0.00117379
0.0160257
0.00165677
0.0157394
0.00428238
0.0174545
0.00399666
0.019387
0.00525553
0.0226358
0.00418389
0.0251214
0.0043096
0.0270866
0.00263495
0.0308142
0.00109357
0.0342659
0.000803622
0.0374873
0.000189674
0.0412807
0.00138705
0.044938
0.000993544
0.048681
0.00117683
0.0528353
4.11843e-05
0.0557754
-0.00172487
0.0566932
-0.00301519
0.0580117
-0.00539863
0.0569594
-0.00676699
0.0546414
-0.00827531
0.0537372
-0.00722094
0.0526901
-0.00787674
0.0530212
-0.00429578
7.32743e-06
0.102594
-0.0124521
0.0915979
0.0326084
0.0963847
-0.00399859
0.0400828
0.14596
0.0961184
-0.00857051
0.111033
0.0176937
0.105251
0.00178323
0.0187799
0.126554
0.0949176
-0.00348811
0.106188
0.00642318
0.103745
0.00422637
0.00896282
0.113562
0.0965119
0.102935
0.107161
0.116124
0.149338
-0.00337845
0.0484529
0.100885
0.130587
-0.00741131
0.041982
0.137058
0.111111
-0.0049599
0.0170365
0.136056
0.111164
0.128201
0.105073
0.00306738
0.0800001
0.000581088
0.0894829
0.00944382
0.00226316
0.0836646
0.13873
0.0013947
0.139711
-0.000399631
0.146309
0.00284575
0.00579764
0.142775
0.137864
-0.00041311
0.136598
0.000866258
0.138014
0.00142964
0.00247356
0.141338
0.127788
0.128654
0.130084
0.132557
0.0858695
-0.0029773
0.0834488
-0.00154137
0.084951
-0.000469119
0.0900604
0.00251098
0.0894918
-0.000913416
0.089592
-0.00485397
0.0934371
-0.00400407
0.0987669
-0.00449124
0.101594
-0.00577861
0.102729
-0.0078598
0.102246
-0.00735622
0.100551
-0.00547494
0.0970323
-0.00392012
0.0907969
-0.00108325
0.085813
-0.00104116
0.0803052
0.00257295
0.0771662
0.00196522
0.0753917
0.0034313
0.0762105
0.00346357
0.0776971
0.00251008
0.0801149
0.0028377
0.0846081
-0.00030933
0.0884738
0.000443886
0.0937192
-0.00261045
0.0970249
-0.00221212
0.100434
-0.00260496
0.103944
-0.00332094
0.106302
-0.000971022
0.110396
-0.00310018
0.112582
-0.00100894
0.116801
-0.00417857
0.11968
-0.00460358
0.123018
-0.00635326
0.125767
-0.00814744
0.12555
-0.00655012
0.124788
-0.00751305
0.120484
-0.00291725
0.114713
-0.00210576
0.108507
0.00191086
0.00306794
0.138156
0.00164136
0.136891
-0.000276566
0.138268
-0.00184617
0.142262
-0.00148271
0.14158
-0.00023157
0.139979
-0.00325242
0.139355
-0.00338049
0.140105
-0.00524069
0.138669
-0.00434273
0.136919
-0.00610979
0.134946
-0.00538337
0.133391
-0.00392023
0.133191
-0.00372014
0.131956
0.000151587
0.130864
5.07577e-05
0.130118
0.00331889
0.12939
0.0026938
0.129696
0.0031248
0.129954
0.00320603
0.131033
0.00143132
0.131697
0.00217302
0.132564
-0.00117629
0.133797
-0.000788401
0.134418
-0.00323184
0.135173
-0.00296694
0.13528
-0.00271194
0.13546
-0.00350099
0.135987
-0.00149784
0.136117
-0.00323055
0.136445
-0.00133662
0.135737
-0.00347064
0.134316
-0.00318259
0.132056
-0.00409372
0.128747
-0.00483859
0.125494
-0.00329725
0.122437
-0.00445598
0.120224
-0.000704046
0.118424
-0.00030519
0.117818
0.0025168
0.00326158
0.141478
0.00150136
0.140623
0.000579282
0.14007
-0.00129399
0.14013
-0.00154247
0.140593
-0.000694455
0.13905
-0.00170915
0.137198
-0.0015286
0.13494
-0.00298259
0.132955
-0.00235774
0.13001
-0.00316489
0.127502
-0.00287548
0.125322
-0.00174006
0.123284
-0.00168243
0.123573
-0.00013787
0.123929
-0.000304561
0.125683
0.00156447
0.127103
0.00127439
0.128572
0.00165569
0.130477
0.00130054
0.131375
0.000533965
0.132993
0.000554467
0.132567
-0.000750177
0.13252
-0.000741567
0.131334
-0.00204534
0.130147
-0.00178021
0.129417
-0.00198223
0.127665
-0.001749
0.127295
-0.00112713
0.125584
-0.00151965
0.125058
-0.000810788
0.123397
-0.00181005
0.121865
-0.00165024
0.120299
-0.00252813
0.117891
-0.00243006
0.116564
-0.00197092
0.11394
-0.0018315
0.113141
9.48367e-05
0.112827
9.17748e-06
0.113504
0.0018393
0.00136332
0.134059
0.134638
0.133344
0.131801
0.131107
0.129398
0.127869
0.124887
0.122529
0.119364
0.116488
0.114748
0.113066
0.112928
0.112624
0.114188
0.115462
0.117118
0.118419
0.118953
0.119507
0.118757
0.118015
0.11597
0.11419
0.112208
0.110459
0.109331
0.107812
0.107001
0.105191
0.103541
0.101013
0.0985825
0.0966116
0.0947801
0.0948749
0.0948841
0.0967234
)
;

boundaryField
{
    inlet
    {
        type            calculated;
        value           nonuniform List<scalar> 10(-0.1 -0.1 -0.1 -0.1 -0.1 -0.1 -0.1 -0.1 -0.1 -0.1);
    }
    outlet
    {
        type            calculated;
        value           nonuniform List<scalar> 10(0.0964038 0.119751 0.127631 0.106507 0.058114 0.055033 0.105446 0.117624 0.115402 0.0980867);
    }
    obstacle
    {
        type            calculated;
        value           uniform 0;
    }
    upperWall
    {
        type            calculated;
        value           uniform 0;
    }
    lowerWall
    {
        type            calculated;
        value           uniform 0;
    }
    frontAndBack
    {
        type            empty;
        value           nonuniform List<scalar> 0();
    }
}


// ************************************************************************* //
