/*--------------------------------*- C++ -*----------------------------------*\
  =========                 |
  \\      /  F ield         | OpenFOAM: The Open Source CFD Toolbox
   \\    /   O peration     | Website:  https://openfoam.org
    \\  /    A nd           | Version:  10
     \\/     M anipulation  |
\*---------------------------------------------------------------------------*/
FoamFile
{
    format      ascii;
    class       volVectorField;
    location    "0.025";
    object      U;
}
// * * * * * * * * * * * * * * * * * * * * * * * * * * * * * * * * * * * * * //

dimensions      [0 1 -1 0 0 0 0];

internalField   nonuniform List<vector> 
475
(
(0.664196 -0.00364266 0)
(1.05444 -0.00795492 0)
(1.05064 -0.0162087 0)
(1.08162 -0.0404724 0)
(1.1858 -0.0299974 0)
(0.666408 -0.0114196 0)
(1.0526 -0.0203869 0)
(1.03222 -0.037391 0)
(1.02547 -0.0740196 0)
(1.03449 -0.14732 0)
(0.664252 -0.0158574 0)
(1.04156 -0.0241525 0)
(1.00743 -0.0387141 0)
(0.984618 -0.0655585 0)
(0.959284 -0.105079 0)
(0.662923 -0.0144628 0)
(1.0339 -0.0192068 0)
(0.990974 -0.027823 0)
(0.959126 -0.0431402 0)
(0.92512 -0.0647308 0)
(0.658401 -0.00638237 0)
(1.02216 -0.00749958 0)
(0.973933 -0.0100678 0)
(0.938215 -0.0149259 0)
(0.902348 -0.0215531 0)
(1.09879 -0.626556 0)
(0.728106 -0.45753 0)
(0.60914 -0.307535 0)
(0.560582 -0.214342 0)
(0.536732 -0.152952 0)
(0.524018 -0.110503 0)
(0.51653 -0.0803561 0)
(0.511777 -0.0586361 0)
(0.50861 -0.0428659 0)
(0.506433 -0.031367 0)
(0.504906 -0.022964 0)
(0.503822 -0.0168164 0)
(0.503047 -0.0123162 0)
(0.50249 -0.00902063 0)
(0.502085 -0.00660666 0)
(0.501789 -0.00483839 0)
(0.501573 -0.00354339 0)
(0.501418 -0.00259517 0)
(0.501305 -0.00190085 0)
(0.501223 -0.00139227 0)
(0.501162 -0.00101959 0)
(0.501116 -0.00074653 0)
(0.501083 -0.000546574 0)
(0.501059 -0.00040026 0)
(0.501043 -0.00029322 0)
(0.501031 -0.000214854 0)
(0.501022 -0.000157402 0)
(0.501015 -0.000115242 0)
(0.501009 -8.43259e-05 0)
(0.501005 -6.17104e-05 0)
(0.501002 -4.52099e-05 0)
(0.501 -3.31747e-05 0)
(0.500999 -2.43647e-05 0)
(0.500999 -1.787e-05 0)
(0.500998 -1.30513e-05 0)
(0.500997 -9.48088e-06 0)
(0.500996 -6.87389e-06 0)
(0.500996 -5.02048e-06 0)
(0.500995 -3.74278e-06 0)
(0.500995 -2.88946e-06 0)
(0.500996 -2.33118e-06 0)
(0.500992 -1.95529e-06 0)
(0.501009 -1.71118e-06 0)
(0.500988 -1.57307e-06 0)
(0.500996 -1.34653e-06 0)
(0.940647 -0.30192 0)
(0.78174 -0.279706 0)
(0.679331 -0.225104 0)
(0.619372 -0.17248 0)
(0.581801 -0.129165 0)
(0.557385 -0.0957588 0)
(0.541 -0.070661 0)
(0.529696 -0.0520113 0)
(0.521736 -0.0382273 0)
(0.516051 -0.0280705 0)
(0.511956 -0.0205988 0)
(0.508991 -0.0151075 0)
(0.506838 -0.0110752 0)
(0.505267 -0.00811724 0)
(0.504118 -0.00594889 0)
(0.503278 -0.00435935 0)
(0.502666 -0.0031936 0)
(0.502219 -0.0023387 0)
(0.501893 -0.00171243 0)
(0.501652 -0.00125431 0)
(0.501475 -0.000919285 0)
(0.501346 -0.000673875 0)
(0.501252 -0.000493622 0)
(0.501184 -0.000361065 0)
(0.501134 -0.000263816 0)
(0.501098 -0.000192869 0)
(0.50107 -0.000141385 0)
(0.501049 -0.000104026 0)
(0.501034 -7.66941e-05 0)
(0.501023 -5.64192e-05 0)
(0.501016 -4.12133e-05 0)
(0.501011 -2.98176e-05 0)
(0.501008 -2.14126e-05 0)
(0.501005 -1.53866e-05 0)
(0.501002 -1.12038e-05 0)
(0.501 -8.35869e-06 0)
(0.500998 -6.39413e-06 0)
(0.500997 -4.95443e-06 0)
(0.500996 -3.82092e-06 0)
(0.500996 -2.88844e-06 0)
(0.500997 -2.1459e-06 0)
(0.500992 -1.64288e-06 0)
(0.501009 -1.41306e-06 0)
(0.500988 -1.43506e-06 0)
(0.500996 -1.60026e-06 0)
(0.893625 -0.17305 0)
(0.798527 -0.178236 0)
(0.71679 -0.154005 0)
(0.656664 -0.123933 0)
(0.613468 -0.0960438 0)
(0.582519 -0.0728348 0)
(0.560275 -0.0545314 0)
(0.544209 -0.040512 0)
(0.532551 -0.0299534 0)
(0.524062 -0.0220796 0)
(0.517869 -0.0162423 0)
(0.513345 -0.0119315 0)
(0.510037 -0.00875703 0)
(0.507616 -0.00642374 0)
(0.505842 -0.00471017 0)
(0.504544 -0.00345206 0)
(0.503594 -0.00252893 0)
(0.502899 -0.00185245 0)
(0.50239 -0.00135731 0)
(0.502016 -0.000994863 0)
(0.501742 -0.000729121 0)
(0.501542 -0.000533918 0)
(0.501396 -0.000390535 0)
(0.501289 -0.000285528 0)
(0.501211 -0.000208976 0)
(0.501153 -0.000153321 0)
(0.501111 -0.000112758 0)
(0.501079 -8.29511e-05 0)
(0.501056 -6.08385e-05 0)
(0.50104 -4.43669e-05 0)
(0.501028 -3.21742e-05 0)
(0.50102 -2.3288e-05 0)
(0.501014 -1.69259e-05 0)
(0.501009 -1.24207e-05 0)
(0.501005 -9.22576e-06 0)
(0.501002 -6.8997e-06 0)
(0.501 -5.13765e-06 0)
(0.500998 -3.77611e-06 0)
(0.500997 -2.75044e-06 0)
(0.500997 -2.03342e-06 0)
(0.500997 -1.59799e-06 0)
(0.500992 -1.4247e-06 0)
(0.501009 -1.47138e-06 0)
(0.500987 -1.70626e-06 0)
(0.500996 -1.6823e-06 0)
(0.870593 -0.0908002 0)
(0.800978 -0.0972116 0)
(0.733719 -0.0883302 0)
(0.677341 -0.0736785 0)
(0.632878 -0.0585217 0)
(0.598869 -0.0451268 0)
(0.573296 -0.0341647 0)
(0.554251 -0.0255694 0)
(0.540147 -0.0189973 0)
(0.529742 -0.0140477 0)
(0.522085 -0.0103548 0)
(0.516459 -0.00761675 0)
(0.512329 -0.00559521 0)
(0.509298 -0.00410675 0)
(0.507074 -0.00301244 0)
(0.505444 -0.00220858 0)
(0.50425 -0.00161859 0)
(0.503376 -0.00118599 0)
(0.502735 -0.000869 0)
(0.502266 -0.000636717 0)
(0.501921 -0.000466393 0)
(0.501669 -0.000341455 0)
(0.501485 -0.00024989 0)
(0.50135 -0.000182926 0)
(0.501252 -0.000134046 0)
(0.501179 -9.8351e-05 0)
(0.501126 -7.21811e-05 0)
(0.501086 -5.28843e-05 0)
(0.501058 -3.86107e-05 0)
(0.501037 -2.80905e-05 0)
(0.501022 -2.04211e-05 0)
(0.501012 -1.49127e-05 0)
(0.501004 -1.10089e-05 0)
(0.500997 -8.24772e-06 0)
(0.500993 -6.23948e-06 0)
(0.500989 -4.71817e-06 0)
(0.500986 -3.5333e-06 0)
(0.500984 -2.60378e-06 0)
(0.500983 -1.87839e-06 0)
(0.500982 -1.35462e-06 0)
(0.500982 -1.0417e-06 0)
(0.500978 -9.37024e-07 0)
(0.500994 -1.01013e-06 0)
(0.500972 -1.92182e-06 0)
(0.500981 -2.01297e-06 0)
(0.852685 -0.0286138 0)
(0.792925 -0.0308953 0)
(0.732894 -0.0286679 0)
(0.679604 -0.0243301 0)
(0.635606 -0.0195672 0)
(0.600822 -0.0152193 0)
(0.574058 -0.0115908 0)
(0.553814 -0.00870991 0)
(0.538668 -0.00648886 0)
(0.527417 -0.00480671 0)
(0.519099 -0.00354701 0)
(0.512968 -0.00261087 0)
(0.508457 -0.00191885 0)
(0.505143 -0.00140897 0)
(0.50271 -0.0010339 0)
(0.500926 -0.000758205 0)
(0.499618 -0.000555726 0)
(0.49866 -0.000407185 0)
(0.497958 -0.000298319 0)
(0.497443 -0.00021854 0)
(0.497066 -0.000160044 0)
(0.49679 -0.000117143 0)
(0.496587 -8.5722e-05 0)
(0.496439 -6.27733e-05 0)
(0.496331 -4.60436e-05 0)
(0.496252 -3.38198e-05 0)
(0.496193 -2.48203e-05 0)
(0.49615 -1.81348e-05 0)
(0.496119 -1.31574e-05 0)
(0.496096 -9.49338e-06 0)
(0.49608 -6.8644e-06 0)
(0.496068 -5.04332e-06 0)
(0.496059 -3.82432e-06 0)
(0.496052 -3.00704e-06 0)
(0.496047 -2.39058e-06 0)
(0.496043 -1.87197e-06 0)
(0.49604 -1.42059e-06 0)
(0.496039 -1.02259e-06 0)
(0.496037 -6.72535e-07 0)
(0.496036 -4.05791e-07 0)
(0.496036 -2.68488e-07 0)
(0.496031 -2.6058e-07 0)
(0.496047 -3.28424e-07 0)
(0.496026 -1.10542e-06 0)
(0.49603 -1.26571e-06 0)
(0.0495737 -0.0492393 0)
(0.144003 -0.0447352 0)
(0.226221 -0.0373347 0)
(0.293153 -0.0295811 0)
(0.345352 -0.0226625 0)
(0.384943 -0.0170044 0)
(0.414475 -0.0126041 0)
(0.436288 -0.00927922 0)
(0.45231 -0.00680565 0)
(0.464049 -0.00498097 0)
(0.472638 -0.00364256 0)
(0.478919 -0.00266432 0)
(0.48351 -0.00194931 0)
(0.48687 -0.00142558 0)
(0.489328 -0.001042 0)
(0.491126 -0.000762027 0)
(0.49244 -0.000558167 0)
(0.493402 -0.000409243 0)
(0.494107 -0.000299701 0)
(0.494624 -0.000218914 0)
(0.495003 -0.000159733 0)
(0.495279 -0.00011688 0)
(0.49548 -8.6e-05 0)
(0.495627 -6.34993e-05 0)
(0.495736 -4.67138e-05 0)
(0.495816 -3.39718e-05 0)
(0.495876 -2.4381e-05 0)
(0.495918 -1.74213e-05 0)
(0.495949 -1.26051e-05 0)
(0.495971 -9.38381e-06 0)
(0.495988 -7.2182e-06 0)
(0.496 -5.64841e-06 0)
(0.496009 -4.36004e-06 0)
(0.496016 -3.26399e-06 0)
(0.496021 -2.36293e-06 0)
(0.496025 -1.66541e-06 0)
(0.496027 -1.16804e-06 0)
(0.496029 -8.41446e-07 0)
(0.49603 -6.18031e-07 0)
(0.496031 -4.36752e-07 0)
(0.496032 -2.62141e-07 0)
(0.496029 -7.01784e-08 0)
(0.496045 1.12969e-07 0)
(0.496029 9.01335e-07 0)
(0.49603 8.75722e-07 0)
(0.055085 -0.152818 0)
(0.157839 -0.137062 0)
(0.2436 -0.112767 0)
(0.310716 -0.088247 0)
(0.361348 -0.0669886 0)
(0.398821 -0.0499542 0)
(0.42632 -0.0368816 0)
(0.446427 -0.027086 0)
(0.46111 -0.0198372 0)
(0.471833 -0.0145092 0)
(0.479664 -0.0106085 0)
(0.485384 -0.00775774 0)
(0.489568 -0.00567357 0)
(0.49263 -0.00414886 0)
(0.49487 -0.00303418 0)
(0.496507 -0.00222034 0)
(0.497703 -0.001626 0)
(0.49858 -0.00119086 0)
(0.499224 -0.000871477 0)
(0.499696 -0.000637233 0)
(0.50004 -0.000466108 0)
(0.500291 -0.000341528 0)
(0.500474 -0.000250708 0)
(0.500609 -0.000184041 0)
(0.500709 -0.000134726 0)
(0.500783 -9.8197e-05 0)
(0.500837 -7.1384e-05 0)
(0.500876 -5.20135e-05 0)
(0.500903 -3.81924e-05 0)
(0.500923 -2.83156e-05 0)
(0.500937 -2.11249e-05 0)
(0.500949 -1.57264e-05 0)
(0.500957 -1.15599e-05 0)
(0.500964 -8.35781e-06 0)
(0.500969 -5.97362e-06 0)
(0.500972 -4.27101e-06 0)
(0.500974 -3.10079e-06 0)
(0.500976 -2.30842e-06 0)
(0.500977 -1.74711e-06 0)
(0.500978 -1.31439e-06 0)
(0.500979 -9.45905e-07 0)
(0.500975 -5.88635e-07 0)
(0.500993 -2.40003e-07 0)
(0.500974 7.25135e-07 0)
(0.500982 6.78416e-07 0)
(0.0675043 -0.271229 0)
(0.187029 -0.237101 0)
(0.277219 -0.189076 0)
(0.341791 -0.144146 0)
(0.387053 -0.107421 0)
(0.418869 -0.079159 0)
(0.441467 -0.0580244 0)
(0.45768 -0.0424362 0)
(0.469398 -0.03101 0)
(0.477909 -0.0226582 0)
(0.48411 -0.0165602 0)
(0.488638 -0.0121071 0)
(0.491951 -0.00885308 0)
(0.494376 -0.00647484 0)
(0.496149 -0.00473733 0)
(0.497445 -0.00346776 0)
(0.498394 -0.00253893 0)
(0.49909 -0.00185842 0)
(0.499602 -0.00135986 0)
(0.499976 -0.000995181 0)
(0.500249 -0.000728852 0)
(0.500447 -0.000534209 0)
(0.500593 -0.000391512 0)
(0.5007 -0.000286574 0)
(0.50078 -0.00020943 0)
(0.500839 -0.000152994 0)
(0.500881 -0.000111986 0)
(0.500912 -8.2286e-05 0)
(0.500933 -6.06803e-05 0)
(0.500949 -4.4764e-05 0)
(0.500961 -3.28617e-05 0)
(0.50097 -2.39008e-05 0)
(0.500977 -1.72174e-05 0)
(0.500983 -1.23307e-05 0)
(0.500986 -8.84536e-06 0)
(0.500989 -6.41246e-06 0)
(0.50099 -4.72696e-06 0)
(0.500991 -3.5468e-06 0)
(0.500992 -2.7048e-06 0)
(0.500993 -2.088e-06 0)
(0.500994 -1.62306e-06 0)
(0.50099 -1.24871e-06 0)
(0.501008 -9.22579e-07 0)
(0.500989 -6.2786e-07 0)
(0.500996 -6.97187e-07 0)
(0.0950602 -0.426024 0)
(0.242635 -0.351266 0)
(0.336362 -0.263474 0)
(0.39229 -0.192347 0)
(0.426318 -0.139565 0)
(0.448219 -0.101281 0)
(0.463049 -0.0736227 0)
(0.47345 -0.0536126 0)
(0.480899 -0.0390977 0)
(0.486294 -0.0285447 0)
(0.490227 -0.0208581 0)
(0.493104 -0.0152498 0)
(0.495213 -0.011153 0)
(0.49676 -0.00815912 0)
(0.497891 -0.00597149 0)
(0.498719 -0.00437213 0)
(0.499326 -0.00320128 0)
(0.499773 -0.00234318 0)
(0.500102 -0.00171458 0)
(0.500342 -0.00125498 0)
(0.500516 -0.000919405 0)
(0.500643 -0.00067411 0)
(0.500736 -0.000494128 0)
(0.500806 -0.000361601 0)
(0.500857 -0.000264076 0)
(0.500895 -0.000192753 0)
(0.500923 -0.000141055 0)
(0.500942 -0.000103763 0)
(0.500955 -7.66959e-05 0)
(0.500965 -5.6691e-05 0)
(0.500973 -4.1589e-05 0)
(0.500979 -3.00855e-05 0)
(0.500984 -2.14425e-05 0)
(0.500987 -1.51735e-05 0)
(0.50099 -1.08387e-05 0)
(0.500991 -7.97129e-06 0)
(0.500992 -6.10396e-06 0)
(0.500993 -4.83479e-06 0)
(0.500993 -3.8713e-06 0)
(0.500994 -3.03264e-06 0)
(0.500995 -2.26191e-06 0)
(0.500991 -1.60002e-06 0)
(0.501008 -1.12732e-06 0)
(0.500989 -8.72769e-07 0)
(0.500996 -1.06627e-06 0)
(0.214943 -0.747875 0)
(0.355045 -0.489214 0)
(0.43573 -0.324774 0)
(0.465655 -0.223033 0)
(0.478134 -0.157308 0)
(0.484822 -0.112739 0)
(0.48914 -0.0815283 0)
(0.492207 -0.0592609 0)
(0.494467 -0.0432027 0)
(0.496149 -0.03155 0)
(0.497405 -0.0230636 0)
(0.498343 -0.0168706 0)
(0.499042 -0.0123457 0)
(0.499557 -0.0090369 0)
(0.499936 -0.00661572 0)
(0.500215 -0.00484342 0)
(0.500423 -0.00354604 0)
(0.500577 -0.00259649 0)
(0.50069 -0.00190155 0)
(0.500771 -0.00139276 0)
(0.50083 -0.00102001 0)
(0.500873 -0.000746808 0)
(0.500905 -0.000546636 0)
(0.50093 -0.00040013 0)
(0.500949 -0.000293032 0)
(0.500962 -0.000214765 0)
(0.50097 -0.000157498 0)
(0.500976 -0.000115496 0)
(0.50098 -8.46224e-05 0)
(0.500984 -6.19159e-05 0)
(0.500988 -4.52416e-05 0)
(0.50099 -3.30337e-05 0)
(0.500992 -2.41181e-05 0)
(0.500993 -1.76045e-05 0)
(0.500993 -1.28345e-05 0)
(0.500993 -9.34451e-06 0)
(0.500993 -6.81483e-06 0)
(0.500994 -5.01232e-06 0)
(0.500994 -3.75624e-06 0)
(0.500995 -2.90249e-06 0)
(0.500996 -2.3301e-06 0)
(0.500992 -1.93181e-06 0)
(0.501009 -1.6493e-06 0)
(0.500988 -1.45218e-06 0)
(0.500995 -1.24917e-06 0)
)
;

boundaryField
{
    inlet
    {
        type            fixedValue;
        value           uniform (1 0 0);
    }
    outlet
    {
        type            zeroGradient;
    }
    upperWall
    {
        type            noSlip;
    }
    lowerWall
    {
        type            noSlip;
    }
    frontAndBack
    {
        type            empty;
    }
}


// ************************************************************************* //
