/*--------------------------------*- C++ -*----------------------------------*\
  =========                 |
  \\      /  F ield         | OpenFOAM: The Open Source CFD Toolbox
   \\    /   O peration     | Website:  https://openfoam.org
    \\  /    A nd           | Version:  10
     \\/     M anipulation  |
\*---------------------------------------------------------------------------*/
FoamFile
{
    format      ascii;
    class       surfaceScalarField;
    location    "1.85";
    object      phi;
}
// * * * * * * * * * * * * * * * * * * * * * * * * * * * * * * * * * * * * * //

dimensions      [0 3 -1 0 0 0 0];

internalField   nonuniform List<scalar> 
22800
(
-5.22475e-06
5.29662e-06
-7.4377e-08
-1.25496e-05
7.22218e-06
1.02627e-07
-1.98514e-05
7.16016e-06
1.41651e-07
-2.67288e-05
6.72091e-06
1.5654e-07
-3.29866e-05
6.10651e-06
1.51278e-07
-3.84656e-05
5.34545e-06
1.33539e-07
-4.30257e-05
4.4528e-06
1.073e-07
-4.65443e-05
3.44422e-06
7.43816e-08
-4.8917e-05
2.33677e-06
3.58914e-08
-5.00595e-05
1.14939e-06
-6.84724e-09
-4.99095e-05
-9.64355e-08
-5.35531e-08
-4.84297e-05
-1.37722e-06
-1.02567e-07
-4.56153e-05
-2.66201e-06
-1.52385e-07
-4.14977e-05
-3.91665e-06
-2.01022e-07
-3.61503e-05
-5.10173e-06
-2.45651e-07
-2.96948e-05
-6.17329e-06
-2.8218e-07
-2.23076e-05
-7.08346e-06
-3.03742e-07
-1.42409e-05
-7.76751e-06
-2.99194e-07
-6.00324e-06
-7.97696e-06
-2.60703e-07
-5.95356e-06
-4.96734e-08
-7.35571e-06
1.29393e-05
-2.86989e-07
-1.72395e-05
1.72107e-05
-1.04704e-07
-2.70558e-05
1.70296e-05
-5.32072e-08
-3.62841e-05
1.59686e-05
-1.92749e-08
-4.46603e-05
1.44867e-05
-3.98947e-09
-5.19712e-05
1.2655e-05
1.32734e-09
-5.80321e-05
1.05133e-05
3.73706e-10
-6.26842e-05
8.10153e-06
-5.17411e-09
-6.57946e-05
5.46248e-06
-1.52948e-08
-6.72554e-05
2.64056e-06
-3.04407e-08
-6.69993e-05
-3.02838e-07
-4.96291e-08
-6.49722e-05
-3.33319e-06
-7.11417e-08
-6.11765e-05
-6.36258e-06
-9.51204e-08
-5.56565e-05
-9.31681e-06
-1.19849e-07
-4.85104e-05
-1.21051e-05
-1.42746e-07
-3.98988e-05
-1.46251e-05
-1.59772e-07
-3.00538e-05
-1.67648e-05
-1.63608e-07
-1.93075e-05
-1.83714e-05
-1.42431e-07
-8.31235e-06
-1.88815e-05
-9.05878e-08
-1.44003e-05
1.34346e-07
-7.88582e-06
2.11907e-05
-3.65548e-07
-1.84718e-05
2.79762e-05
-1.79474e-07
-2.89712e-05
2.76519e-05
-1.22925e-07
-3.88346e-05
2.59146e-05
-8.26821e-08
-4.7785e-05
2.34969e-05
-5.97853e-08
-5.5599e-05
2.05154e-05
-4.6425e-08
-6.20837e-05
1.70369e-05
-3.88943e-08
-6.70736e-05
1.31276e-05
-3.61053e-08
-7.04303e-05
8.8569e-06
-3.77549e-08
-7.20447e-05
4.29874e-06
-4.37557e-08
-7.18285e-05
-4.65203e-07
-5.38561e-08
-6.97284e-05
-5.36593e-06
-6.73746e-08
-6.57377e-05
-1.02692e-05
-8.40722e-08
-5.9891e-05
-1.50612e-05
-1.02292e-07
-5.22804e-05
-1.95962e-05
-1.19469e-07
-4.30659e-05
-2.37082e-05
-1.31449e-07
-3.24884e-05
-2.72119e-05
-1.30462e-07
-2.09014e-05
-2.98546e-05
-1.0382e-07
-9.00905e-06
-3.07276e-05
-4.6152e-08
-2.36002e-05
1.90864e-07
-8.38566e-06
3.001e-05
-4.33618e-07
-1.96613e-05
3.94925e-05
-2.40587e-07
-3.08384e-05
3.90084e-05
-1.79394e-07
-4.13358e-05
3.65456e-05
-1.33613e-07
-5.08637e-05
3.31301e-05
-1.05336e-07
-5.91908e-05
2.89289e-05
-8.64331e-08
-6.61191e-05
2.40384e-05
-7.31337e-08
-7.14793e-05
1.85522e-05
-6.44377e-08
-7.5128e-05
1.25658e-05
-6.02207e-08
-7.69471e-05
6.17851e-06
-6.06371e-08
-7.68474e-05
-4.98983e-07
-6.59442e-08
-7.47482e-05
-7.39062e-06
-7.45448e-08
-7.06283e-05
-1.4302e-05
-8.70887e-08
-6.4504e-05
-2.10834e-05
-1.02027e-07
-5.64493e-05
-2.75343e-05
-1.16665e-07
-4.66135e-05
-3.34174e-05
-1.2654e-07
-3.52408e-05
-3.84615e-05
-1.23125e-07
-2.27105e-05
-4.22926e-05
-9.23471e-08
-9.79677e-06
-4.36127e-05
-2.86064e-08
-3.36242e-05
2.2721e-07
-9.06971e-06
3.95834e-05
-5.03749e-07
-2.12808e-05
5.20024e-05
-2.98777e-07
-3.33771e-05
5.13369e-05
-2.32198e-07
-4.47319e-05
4.80812e-05
-1.80858e-07
-5.50379e-05
4.3584e-05
-1.47831e-07
-6.40549e-05
3.80705e-05
-1.24502e-07
-7.15804e-05
3.16708e-05
-1.06951e-07
-7.74421e-05
2.45081e-05
-9.42188e-08
-8.14927e-05
1.67026e-05
-8.62944e-08
-8.36063e-05
8.37565e-06
-8.3528e-08
-8.36839e-05
-3.34874e-07
-8.65055e-08
-8.16167e-05
-9.3651e-06
-9.27432e-08
-7.73575e-05
-1.84572e-05
-1.03918e-07
-7.08913e-05
-2.74312e-05
-1.18424e-07
-6.22606e-05
-3.60316e-05
-1.33381e-07
-5.15922e-05
-4.3942e-05
-1.43803e-07
-3.91277e-05
-5.0786e-05
-1.39977e-07
-2.52793e-05
-5.60354e-05
-1.05642e-07
-1.09242e-05
-5.79336e-05
-3.42223e-08
-4.47996e-05
2.51223e-07
-9.97582e-06
5.01463e-05
-5.87038e-07
-2.3419e-05
6.58107e-05
-3.6516e-07
-3.67201e-05
6.49297e-05
-2.91831e-07
-4.91911e-05
6.07861e-05
-2.33816e-07
-6.05032e-05
5.50915e-05
-1.95408e-07
-7.04071e-05
4.81418e-05
-1.67382e-07
-7.86985e-05
4.01078e-05
-1.4563e-07
-8.52056e-05
3.11444e-05
-1.29212e-07
-8.97801e-05
2.13954e-05
-1.18188e-07
-9.22885e-05
1.09971e-05
-1.13144e-07
-9.26278e-05
1.20434e-07
-1.16e-07
-9.06417e-05
-1.12307e-05
-1.20513e-07
-8.62531e-05
-2.27135e-05
-1.32304e-07
-7.93963e-05
-3.41392e-05
-1.48708e-07
-7.00618e-05
-4.51995e-05
-1.66617e-07
-5.83326e-05
-5.54909e-05
-1.80331e-07
-4.44334e-05
-6.45069e-05
-1.78416e-07
-2.88115e-05
-7.15159e-05
-1.41319e-07
-1.2486e-05
-7.41986e-05
-6.05662e-08
-5.75529e-05
2.67311e-07
-1.11333e-05
6.19729e-05
-6.93255e-07
-2.61438e-05
8.12708e-05
-4.49612e-07
-4.09654e-05
8.01187e-05
-3.67452e-07
-5.48315e-05
7.49527e-05
-3.00476e-07
-6.73884e-05
6.79032e-05
-2.54746e-07
-7.83804e-05
5.93542e-05
-2.204e-07
-8.76074e-05
4.95279e-05
-1.93177e-07
-9.49062e-05
3.86155e-05
-1.72164e-07
-0.000100136
2.67821e-05
-1.57377e-07
-0.000103163
1.41731e-05
-1.48865e-07
-0.000103853
9.56552e-07
-1.4543e-07
-0.000102044
-1.28843e-05
-1.5591e-07
-9.75831e-05
-2.70031e-05
-1.71137e-07
-9.03345e-05
-4.11958e-05
-1.92019e-07
-8.02056e-05
-5.51123e-05
-2.16058e-07
-6.71996e-05
-6.82601e-05
-2.36843e-07
-5.14929e-05
-7.9973e-05
-2.40527e-07
-3.35591e-05
-8.92471e-05
-2.02664e-07
-1.4605e-05
-9.30414e-05
-1.11281e-07
-7.24326e-05
2.74722e-07
-1.25834e-05
7.5389e-05
-8.3267e-07
-2.95474e-05
9.87969e-05
-5.62021e-07
-4.62432e-05
9.72823e-05
-4.67859e-07
-6.18051e-05
9.09026e-05
-3.8807e-07
-7.58528e-05
8.22823e-05
-3.31462e-07
-8.81314e-05
7.19204e-05
-2.87642e-07
-9.84569e-05
6.01057e-05
-2.52342e-07
-0.000106688
4.70718e-05
-2.24771e-07
-0.000112704
3.30029e-05
-2.05015e-07
-0.000116379
1.80411e-05
-1.9284e-07
-0.000117567
2.32994e-06
-1.85726e-07
-0.000116072
-1.41791e-05
-2.00584e-07
-0.000111664
-3.11902e-05
-2.2059e-07
-0.000104101
-4.85098e-05
-2.48927e-07
-9.31584e-05
-6.57715e-05
-2.83593e-07
-7.87001e-05
-8.24009e-05
-3.17474e-07
-6.07933e-05
-9.75463e-05
-3.33406e-07
-3.99025e-05
-0.000109838
-2.99689e-07
-1.74753e-05
-0.000115271
-1.97719e-07
-9.01741e-05
2.66153e-07
-1.43877e-05
9.07959e-05
-1.01924e-06
-3.37634e-05
0.000118888
-7.15421e-07
-5.27364e-05
0.000116859
-6.04121e-07
-7.03179e-05
0.000108989
-5.05082e-07
-8.61038e-05
9.84997e-05
-4.3149e-07
-9.98539e-05
8.60433e-05
-3.72789e-07
-0.000111421
7.19974e-05
-3.24973e-07
-0.000120708
5.66466e-05
-2.87531e-07
-0.000127635
4.01907e-05
-2.6088e-07
-0.000132102
2.27543e-05
-2.45757e-07
-0.000133961
4.43239e-06
-2.43682e-07
-0.000132989
-1.48967e-05
-2.54782e-07
-0.00012886
-3.50394e-05
-2.79846e-07
-0.000121185
-5.5865e-05
-3.19548e-07
-0.000109536
-7.70481e-05
-3.71688e-07
-9.35441e-05
-9.79648e-05
-4.28512e-07
-7.30545e-05
-0.000117567
-4.68847e-07
-4.84309e-05
-0.000134011
-4.50427e-07
-2.14163e-05
-0.000141944
-3.41327e-07
-0.000111815
2.24285e-07
-1.66417e-05
0.000108712
-1.2743e-06
-3.89894e-05
0.000142165
-9.29233e-07
-6.07069e-05
0.000139369
-7.91841e-07
-8.06543e-05
0.000129599
-6.62497e-07
-9.84146e-05
0.000116822
-5.61488e-07
-0.000113788
0.000101896
-4.78888e-07
-0.000126696
8.53166e-05
-4.11332e-07
-0.000137122
6.7431e-05
-3.58577e-07
-0.000145059
4.84487e-05
-3.21093e-07
-0.000150462
2.84574e-05
-2.9974e-07
-0.000153204
7.47097e-06
-2.96072e-07
-0.000153047
-1.4744e-05
-3.10068e-07
-0.000149559
-3.81834e-05
-3.44121e-07
-0.000142164
-6.28589e-05
-4.01346e-07
-0.000130138
-8.8592e-05
-4.8142e-07
-0.000112724
-0.000114802
-5.77168e-07
-8.93543e-05
-0.000140273
-6.63732e-07
-6.00803e-05
-0.000162601
-6.84726e-07
-2.69781e-05
-0.000174466
-5.79916e-07
-0.000138903
1.10361e-07
-1.95003e-05
0.000129845
-1.63268e-06
-4.55267e-05
0.000169425
-1.2341e-06
-7.05378e-05
0.000165434
-1.05395e-06
-9.32122e-05
0.000153148
-8.74725e-07
-0.000113149
0.000137487
-7.28336e-07
-0.000130233
0.000119586
-6.06988e-07
-0.000144504
0.000100097
-5.08316e-07
-0.000156078
7.94365e-05
-4.32042e-07
-0.000165068
5.78171e-05
-3.78053e-07
-0.000171529
3.52651e-05
-3.46635e-07
-0.000175393
1.16742e-05
-3.39116e-07
-0.000176437
-1.33435e-05
-3.57152e-07
-0.00017413
-4.00863e-05
-4.037e-07
-0.00016768
-6.88231e-05
-4.86005e-07
-0.000155966
-9.96973e-05
-6.08555e-07
-0.000137622
-0.000132378
-7.68326e-07
-0.000111328
-0.000165628
-9.389e-07
-7.63818e-05
-0.000196497
-1.04961e-06
-3.51604e-05
-0.00021471
-9.77504e-07
-0.00017392
-1.44041e-07
-2.32267e-05
0.000155226
-2.1543e-06
-5.38489e-05
0.000201728
-1.68004e-06
-8.28023e-05
0.000195812
-1.42445e-06
-0.000108559
0.000180064
-1.15972e-06
-0.000130799
0.000160663
-9.36752e-07
-0.000149565
0.000139105
-7.52453e-07
-0.000165093
0.00011623
-6.05387e-07
-0.000177698
9.25361e-05
-4.94104e-07
-0.000187684
6.82194e-05
-4.16334e-07
-0.000195263
4.32146e-05
-3.70361e-07
-0.000200486
1.72535e-05
-3.56516e-07
-0.000203202
-1.02496e-05
-3.77438e-07
-0.00020283
-4.00201e-05
-4.38228e-07
-0.000198366
-7.27344e-05
-5.52644e-07
-0.000188209
-0.00010912
-7.34735e-07
-0.000170122
-0.000149472
-9.93711e-07
-0.000141485
-0.000192954
-1.31084e-06
-9.99222e-05
-0.000236448
-1.61201e-06
-4.79107e-05
-0.000265086
-1.63621e-06
-0.000221084
-7.46643e-07
-2.82954e-05
0.00018647
-2.949e-06
-6.47227e-05
0.000240507
-2.35245e-06
-9.83741e-05
0.000231417
-1.95341e-06
-0.000127513
0.000210739
-1.53621e-06
-0.000152037
0.00018637
-1.18195e-06
-0.000172263
0.000160226
-8.96092e-07
-0.000188732
0.000133375
-6.75942e-07
-0.000202057
0.000106377
-5.15319e-07
-0.000212814
7.9382e-05
-4.05937e-07
-0.00022145
5.21924e-05
-3.40885e-07
-0.000228213
2.43327e-05
-3.16952e-07
-0.000233122
-5.00444e-06
-3.36354e-07
-0.000235653
-3.70804e-05
-4.08036e-07
-0.000234688
-7.31445e-05
-5.54731e-07
-0.000228148
-0.000114853
-8.07316e-07
-0.000212683
-0.000163733
-1.20314e-06
-0.000183686
-0.000220195
-1.75655e-06
-0.00013521
-0.000282481
-2.44271e-06
-6.93279e-05
-0.000328255
-2.71246e-06
-0.000288301
-2.11055e-06
-3.56423e-05
0.000226314
-4.20093e-06
-7.94659e-05
0.000287706
-3.37485e-06
-0.00011862
0.000273272
-2.70122e-06
-0.000151269
0.000245398
-2.00907e-06
-0.000177789
0.000214318
-1.4292e-06
-0.000198935
0.000182356
-9.83232e-07
-0.000215714
0.000150813
-6.58489e-07
-0.000229155
0.000120253
-4.34656e-07
-0.0002402
9.07161e-05
-2.88985e-07
-0.000249627
6.18219e-05
-2.02397e-07
-0.000257969
3.2837e-05
-1.62996e-07
-0.000265529
2.72272e-06
-1.67037e-07
-0.00027208
-3.02951e-05
-2.34256e-07
-0.000276629
-6.82031e-05
-3.92076e-07
-0.000276865
-0.000113923
-6.95186e-07
-0.00026827
-0.000171096
-1.23223e-06
-0.000243741
-0.00024261
-2.11382e-06
-0.000190239
-0.000332448
-3.5345e-06
-0.000108454
-0.000405611
-4.42891e-06
-0.000391574
-5.18145e-06
-4.65483e-05
0.000279447
-6.58485e-06
-9.99148e-05
0.000346162
-5.09024e-06
-0.000145503
0.000322642
-3.78191e-06
-0.000181525
0.000283962
-2.54182e-06
-0.0002093
0.000243657
-1.56381e-06
-0.000230331
0.00020426
-8.73887e-07
-0.000246327
0.000167222
-4.13543e-07
-0.000258878
0.000132927
-1.23549e-07
-0.000269377
0.000101168
4.70806e-08
-0.000278993
7.13017e-05
1.36376e-07
-0.000288667
4.23229e-05
1.87771e-07
-0.000299115
1.29387e-05
2.32161e-07
-0.000310721
-1.88877e-05
1.98456e-07
-0.000323114
-5.59311e-05
1.2117e-07
-0.000334559
-0.000102389
-8.94107e-08
-0.000339606
-0.000165409
-6.39668e-07
-0.000329599
-0.000250814
-1.80313e-06
-0.000277934
-0.000379742
-4.37094e-06
-0.000181552
-0.000495515
-6.47785e-06
-0.000561248
-1.1878e-05
-6.94716e-05
0.000358491
-9.57225e-06
-0.000132029
0.000416267
-7.5472e-06
-0.000183131
0.000378803
-5.05888e-06
-0.000220969
0.000324689
-2.88833e-06
-0.000248228
0.00027216
-1.24382e-06
-0.000267247
0.000223493
-2.14115e-07
-0.000280671
0.000180286
3.5977e-07
-0.000290775
0.000142378
6.54021e-07
-0.000299439
0.000109046
7.8581e-07
-0.000308241
7.92612e-05
8.42168e-07
-0.000318618
5.18223e-05
8.78054e-07
-0.000331745
2.51442e-05
9.21236e-07
-0.00034865
-3.14894e-06
1.16674e-06
-0.000370974
-3.49545e-05
1.34737e-06
-0.000398667
-7.62766e-05
1.58079e-06
-0.000426358
-0.000139404
1.68561e-06
-0.000448227
-0.000230171
1.22698e-06
-0.000415697
-0.000409983
-2.28978e-06
-0.000317431
-0.000588416
-5.36458e-06
-0.000855577
-2.31018e-05
-8.47067e-05
0.000461954
-1.87571e-05
-0.000169971
0.000512488
-1.0957e-05
-0.000232157
0.000447258
-6.26874e-06
-0.000271639
0.000366077
-1.90622e-06
-0.00029548
0.000295318
6.81939e-07
-0.000308929
0.000235026
1.91606e-06
-0.000316583
0.000185555
2.3864e-06
-0.000321595
0.000144935
2.45404e-06
-0.000326217
0.000111296
2.37174e-06
-0.000332158
8.29146e-05
2.28781e-06
-0.000340906
5.82568e-05
2.31408e-06
-0.000354314
3.60143e-05
2.53755e-06
-0.0003757
1.52198e-05
3.01723e-06
-0.000406947
-7.63663e-06
3.9288e-06
-0.000455418
-3.3546e-05
5.74109e-06
-0.000512885
-9.05452e-05
8.6079e-06
-0.000596301
-0.000158922
1.2167e-05
-0.000608071
-0.000408823
1.06099e-05
-0.00052081
-0.000684815
9.13784e-06
-0.00134409
-3.22936e-05
-0.000217183
0.000708893
-2.97552e-05
-0.000273534
0.000592671
-2.38323e-05
-0.000308274
0.000492269
-1.02709e-05
-0.000327032
0.000386883
-2.04834e-06
-0.000331169
0.000296153
3.30191e-06
-0.000327956
0.00022628
5.53346e-06
-0.000321949
0.000173409
6.13884e-06
-0.000315703
0.000132793
5.89625e-06
-0.00031125
0.000101475
5.36826e-06
-0.000310335
7.71317e-05
4.86763e-06
-0.000314941
5.82676e-05
4.59545e-06
-0.000327104
4.34714e-05
4.70509e-06
-0.000350322
3.28566e-05
5.58216e-06
-0.000388047
2.22579e-05
7.82952e-06
-0.000450071
1.58321e-05
1.2646e-05
-0.000535855
-2.61087e-05
2.13478e-05
-0.000648912
-8.35411e-05
3.76761e-05
-0.00070633
-0.000397686
4.62808e-05
-0.000589075
-0.000856594
5.45235e-05
-0.00189859
-3.45823e-05
-0.000397396
0.00116604
-5.9753e-05
-0.000345778
0.000550005
-8.95179e-06
-0.000260276
0.000399885
6.88191e-06
-0.000173716
0.000280089
2.02341e-05
-9.45865e-05
0.000193233
2.37906e-05
-2.7884e-05
0.000137539
2.20386e-05
2.54276e-05
0.000101422
1.86755e-05
6.65299e-05
7.65401e-05
1.51504e-05
9.72402e-05
5.84953e-05
1.22694e-05
0.00011923
4.49797e-05
1.0162e-05
0.000133563
3.49563e-05
8.97865e-06
0.000141426
2.6857e-05
8.7512e-06
0.000142793
2.12268e-05
1.02627e-05
0.000135301
1.56254e-05
1.41243e-05
0.000123763
4.12891e-06
2.32418e-05
7.81905e-05
-2.03863e-05
3.98498e-05
4.61157e-05
-0.000122113
7.06465e-05
-9.40141e-05
-0.000355346
9.77904e-05
-0.000120174
-0.000932811
0.000102376
-0.00193461
-8.41449e-05
0.00125288
-8.68365e-05
0.00187047
-6.75835e-05
0.00231326
-4.29118e-05
0.00260887
-1.55209e-05
0.00280055
1.55358e-06
0.00292817
9.92481e-06
0.00301665
1.29415e-05
0.00308014
1.30463e-05
0.00312685
1.17916e-05
0.00316181
1.00191e-05
0.00318782
8.94229e-06
0.00320732
7.35589e-06
0.00321948
9.06994e-06
0.00322739
7.71193e-06
0.00321425
1.72698e-05
0.00317226
2.16067e-05
0.00300973
4.04105e-05
0.00259028
6.41039e-05
0.00167178
-1.43064e-05
-0.000262835
-7.07354e-06
7.104e-06
-1.04833e-07
-1.68989e-05
9.91535e-06
1.26811e-08
-2.66522e-05
9.84679e-06
4.80883e-08
-3.57873e-05
9.2238e-06
6.7866e-08
-4.40619e-05
8.35407e-06
7.18132e-08
-5.12749e-05
7.28187e-06
6.47074e-08
-5.72473e-05
6.03017e-06
4.95136e-08
-6.18231e-05
4.62236e-06
2.78458e-08
-6.48725e-05
3.0839e-06
1.33802e-09
-6.62895e-05
1.44284e-06
-3.26606e-08
-6.60035e-05
-2.71907e-07
-6.76995e-08
-6.39738e-05
-2.02679e-06
-1.05395e-07
-6.02019e-05
-3.7801e-06
-1.44248e-07
-5.47348e-05
-5.48614e-06
-1.8195e-07
-4.76722e-05
-7.0926e-06
-2.15655e-07
-3.91713e-05
-8.54156e-06
-2.41506e-07
-2.94515e-05
-9.76977e-06
-2.53806e-07
-1.88194e-05
-1.06867e-05
-2.44644e-07
-7.95085e-06
-1.09191e-05
-2.10067e-07
-7.93579e-06
-6.47371e-08
-1.02194e-05
1.72951e-05
-2.58667e-07
-2.37795e-05
2.35174e-05
-1.46618e-07
-3.71938e-05
2.33062e-05
-9.83792e-08
-4.97386e-05
2.18118e-05
-6.24384e-08
-6.10747e-05
1.9728e-05
-4.17554e-08
-7.09242e-05
1.71642e-05
-3.15243e-08
-7.90448e-05
1.41799e-05
-2.87143e-08
-8.523e-05
1.08344e-05
-3.19683e-08
-8.93102e-05
7.18949e-06
-4.0636e-08
-9.11531e-05
3.30935e-06
-5.40549e-08
-9.06759e-05
-7.2706e-07
-7.1667e-08
-8.78249e-05
-4.85692e-06
-9.20728e-08
-8.2612e-05
-8.97341e-06
-1.14713e-07
-7.5106e-05
-1.29745e-05
-1.37443e-07
-6.54442e-05
-1.67398e-05
-1.57394e-07
-5.38401e-05
-2.01349e-05
-1.70486e-07
-4.05911e-05
-2.3012e-05
-1.70445e-07
-2.6113e-05
-2.51584e-05
-1.48725e-07
-1.12869e-05
-2.5733e-05
-1.02762e-07
-1.91441e-05
5.57145e-08
-1.10102e-05
2.82707e-05
-3.3093e-07
-2.55943e-05
3.81411e-05
-2.19094e-07
-4.00004e-05
3.77553e-05
-1.65922e-07
-5.34608e-05
3.5314e-05
-1.24527e-07
-6.56179e-05
3.19223e-05
-9.70074e-08
-7.61795e-05
2.77585e-05
-7.91129e-08
-8.48924e-05
2.2922e-05
-6.81142e-08
-9.15415e-05
1.75103e-05
-6.29065e-08
-9.59504e-05
1.16237e-05
-6.3034e-08
-9.79838e-05
5.36714e-06
-6.81635e-08
-9.75377e-05
-1.14925e-06
-7.77774e-08
-9.45569e-05
-7.814e-06
-9.10085e-08
-8.9044e-05
-1.44633e-05
-1.07117e-07
-8.10572e-05
-2.09396e-05
-1.24088e-07
-7.07273e-05
-2.70501e-05
-1.39027e-07
-5.82692e-05
-3.25768e-05
-1.47691e-07
-4.39921e-05
-3.72761e-05
-1.43391e-07
-2.83399e-05
-4.07975e-05
-1.16925e-07
-1.2265e-05
-4.17879e-05
-6.62242e-08
-3.13165e-05
9.82455e-08
-1.17321e-05
3.997e-05
-4.0084e-07
-2.7289e-05
5.37457e-05
-2.88242e-07
-4.26447e-05
5.31615e-05
-2.29958e-07
-5.69855e-05
4.97031e-05
-1.81765e-07
-6.99367e-05
4.4916e-05
-1.47911e-07
-8.1196e-05
3.90548e-05
-1.23468e-07
-9.05039e-05
3.22625e-05
-1.05769e-07
-9.76412e-05
2.46769e-05
-9.38686e-08
-0.000102426
1.6436e-05
-8.74488e-08
-0.000104714
7.68087e-06
-8.63992e-08
-0.000104397
-1.44191e-06
-9.06239e-08
-0.00010139
-1.07962e-05
-9.90517e-08
-9.56773e-05
-2.01521e-05
-1.11116e-07
-8.72938e-05
-2.93001e-05
-1.24932e-07
-7.63487e-05
-3.79744e-05
-1.37492e-07
-6.30438e-05
-4.5864e-05
-1.44207e-07
-4.76927e-05
-5.26127e-05
-1.37684e-07
-3.07712e-05
-5.77038e-05
-1.07621e-07
-1.33255e-05
-5.92098e-05
-5.22798e-08
-4.45389e-05
1.24104e-07
-1.27136e-05
5.26568e-05
-4.76943e-07
-2.95832e-05
7.06774e-05
-3.60941e-07
-4.62194e-05
6.9862e-05
-2.96444e-07
-6.17435e-05
6.52874e-05
-2.41123e-07
-7.57579e-05
5.8983e-05
-2.00432e-07
-8.79491e-05
5.12909e-05
-1.69401e-07
-9.80528e-05
4.24046e-05
-1.45386e-07
-0.000105847
3.25049e-05
-1.27582e-07
-0.000111148
2.17661e-05
-1.15862e-07
-0.000113801
1.0361e-05
-1.10327e-07
-0.000113685
-1.53315e-06
-1.11074e-07
-0.000110686
-1.37721e-05
-1.16729e-07
-0.000104751
-2.60631e-05
-1.27222e-07
-9.58789e-05
-3.81503e-05
-1.40612e-07
-8.41386e-05
-4.96945e-05
-1.53639e-07
-6.97042e-05
-6.02811e-05
-1.6114e-07
-5.28862e-05
-6.94161e-05
-1.54589e-07
-3.42007e-05
-7.63731e-05
-1.21893e-07
-1.4832e-05
-7.85519e-05
-6.07889e-08
-5.92551e-05
1.35401e-07
-1.40141e-05
6.66526e-05
-5.68731e-07
-3.26125e-05
8.93575e-05
-4.46904e-07
-5.09264e-05
8.82584e-05
-3.74283e-07
-6.79896e-05
8.24267e-05
-3.09929e-07
-8.33766e-05
7.44355e-05
-2.6085e-07
-9.67632e-05
6.47321e-05
-2.2203e-07
-0.000107884
5.35711e-05
-1.90892e-07
-0.000116522
4.118e-05
-1.66784e-07
-0.000122492
2.7768e-05
-1.49732e-07
-0.000125636
1.35316e-05
-1.40031e-07
-0.000125819
-1.3283e-06
-1.38258e-07
-0.00012288
-1.66884e-05
-1.42483e-07
-0.000116725
-3.21974e-05
-1.53427e-07
-0.000107287
-4.7568e-05
-1.68892e-07
-9.45715e-05
-6.23913e-05
-1.85325e-07
-7.86977e-05
-7.61384e-05
-1.96776e-07
-5.99542e-05
-8.81449e-05
-1.93056e-07
-3.89001e-05
-9.74091e-05
-1.59326e-07
-1.69101e-05
-0.000100511
-9.19068e-08
-7.60314e-05
1.33488e-07
-1.56788e-05
8.23243e-05
-6.86076e-07
-3.64788e-05
0.000110264
-5.56361e-07
-5.69115e-05
0.000108796
-4.72683e-07
-7.58982e-05
0.000101509
-3.95874e-07
-9.29817e-05
9.15994e-05
-3.35202e-07
-0.000107832
7.96477e-05
-2.85756e-07
-0.000120192
6.59835e-05
-2.45158e-07
-0.00012986
5.08881e-05
-2.12968e-07
-0.000136662
3.46023e-05
-1.89329e-07
-0.00014044
1.73357e-05
-1.74474e-07
-0.000141049
-6.96556e-07
-1.6884e-07
-0.000138275
-1.94442e-05
-1.74058e-07
-0.000131956
-3.84994e-05
-1.87673e-07
-0.000121935
-5.75732e-05
-2.08001e-07
-0.00010811
-7.62007e-05
-2.31529e-07
-9.05003e-05
-9.37339e-05
-2.51392e-07
-6.9332e-05
-0.000109299
-2.55082e-07
-4.51953e-05
-0.000121525
-2.23595e-07
-1.97174e-05
-0.000125949
-1.50233e-07
-9.55896e-05
1.15534e-07
-1.77706e-05
0.000100103
-8.4054e-07
-4.13197e-05
0.000133952
-7.00981e-07
-6.43668e-05
0.000131977
-6.01677e-07
-8.56917e-05
0.000122952
-5.06827e-07
-0.000104805
0.00011081
-4.2913e-07
-0.000121382
9.63008e-05
-3.64152e-07
-0.000135192
7.98512e-05
-3.09965e-07
-0.000146066
6.18045e-05
-2.66481e-07
-0.000153864
4.24287e-05
-2.34006e-07
-0.000158437
2.19282e-05
-2.12519e-07
-0.000159646
5.26989e-07
-2.00257e-07
-0.000157203
-2.18785e-05
-2.0941e-07
-0.000150868
-4.48268e-05
-2.27588e-07
-0.000140346
-6.80881e-05
-2.5606e-07
-0.000125367
-9.11712e-05
-2.91789e-07
-0.000105774
-0.000113318
-3.26973e-07
-8.16517e-05
-0.000133408
-3.4597e-07
-5.35772e-05
-0.000149576
-3.23515e-07
-2.35025e-05
-0.000155975
-2.4716e-07
-0.000118899
7.31404e-08
-2.03827e-05
0.000120514
-1.04808e-06
-4.73329e-05
0.000161084
-8.96428e-07
-7.35609e-05
0.000158375
-7.74092e-07
-9.7671e-05
0.00014721
-6.52082e-07
-0.000119147
0.000132404
-5.4846e-07
-0.000137692
0.000114933
-4.59987e-07
-0.000153132
9.53514e-05
-3.8561e-07
-0.000165365
7.40761e-05
-3.25762e-07
-0.000174312
5.13959e-05
-2.81084e-07
-0.000179869
2.74915e-05
-2.52175e-07
-0.000181861
2.51631e-06
-2.40613e-07
-0.00018002
-2.37283e-05
-2.45568e-07
-0.00017395
-5.09085e-05
-2.68577e-07
-0.000163171
-7.88777e-05
-3.0909e-07
-0.000147156
-0.000107194
-3.64236e-07
-0.000125448
-0.000135029
-4.2555e-07
-9.78513e-05
-0.000161
-4.7355e-07
-6.48092e-05
-0.000182594
-4.73795e-07
-2.86758e-05
-0.000192047
-4.02092e-07
-0.000147344
-7.1338e-09
-2.36577e-05
0.00014423
-1.33263e-06
-5.48085e-05
0.000192471
-1.16548e-06
-8.48746e-05
0.000188657
-1.00753e-06
-0.000112247
0.000174762
-8.43202e-07
-0.000136401
0.000156696
-6.99106e-07
-0.000157106
0.000135733
-5.74496e-07
-0.000174293
0.000112597
-4.69764e-07
-0.000187979
8.77895e-05
-3.85877e-07
-0.000198191
6.16097e-05
-3.23456e-07
-0.0002049
3.41843e-05
-2.82991e-07
-0.000207963
5.54816e-06
-2.65577e-07
-0.000207086
-2.46442e-05
-2.70344e-07
-0.000201737
-5.63017e-05
-3.00515e-07
-0.000191189
-8.94684e-05
-3.58152e-07
-0.000174539
-0.000123883
-4.42599e-07
-0.000150832
-0.000158767
-5.46471e-07
-0.000119342
-0.000192506
-6.46769e-07
-8.01113e-05
-0.000221814
-6.96632e-07
-3.59538e-05
-0.000236138
-6.46744e-07
-0.000183001
-1.86009e-07
-2.78211e-05
0.000172151
-1.73191e-06
-6.41821e-05
0.00022914
-1.54265e-06
-9.8858e-05
0.000223606
-1.32682e-06
-0.000129986
0.00020611
-1.09444e-06
-0.00015708
0.000183948
-8.85986e-07
-0.000180043
0.000158794
-7.05417e-07
-0.000198986
0.000131588
-5.55167e-07
-0.000214117
0.000102925
-4.36331e-07
-0.000225636
7.30986e-05
-3.48526e-07
-0.000233649
4.21417e-05
-2.90966e-07
-0.000238091
9.91492e-06
-2.63628e-07
-0.00023868
-2.4145e-05
-2.67311e-07
-0.00023475
-6.03296e-05
-3.05689e-07
-0.000225287
-9.90326e-05
-3.85193e-07
-0.000208868
-0.000140399
-5.10788e-07
-0.000183765
-0.000183958
-6.80464e-07
-0.000148285
-0.000228053
-8.71272e-07
-0.000101497
-0.000268628
-1.02333e-06
-4.6645e-05
-0.000290933
-1.03435e-06
-0.000229276
-5.14102e-07
-3.32454e-05
0.00020555
-2.30783e-06
-7.61253e-05
0.000272421
-2.08153e-06
-0.00011632
0.000264143
-1.76696e-06
-0.000151684
0.000241736
-1.42203e-06
-0.000181868
0.000214305
-1.10987e-06
-0.00020702
0.000184036
-8.42674e-07
-0.000227546
0.000152133
-6.25126e-07
-0.000243945
0.000119287
-4.56949e-07
-0.000256681
8.57528e-05
-3.34556e-07
-0.000266077
5.14204e-05
-2.53751e-07
-0.000272219
1.59127e-05
-2.11981e-07
-0.000274906
-2.16258e-05
-2.09656e-07
-0.000273392
-6.20288e-05
-2.53236e-07
-0.000266371
-0.00010625
-3.55515e-07
-0.00025179
-0.000155183
-5.32486e-07
-0.000226797
-0.000209148
-7.96431e-07
-0.000188032
-0.000266995
-1.13553e-06
-0.000132417
-0.000324365
-1.48919e-06
-6.33385e-05
-0.000360005
-1.64254e-06
-0.000292214
-1.14723e-06
-4.05759e-05
0.000246343
-3.16642e-06
-9.16976e-05
0.000324058
-2.86747e-06
-0.000138468
0.000311336
-2.37637e-06
-0.000178464
0.000282037
-1.84044e-06
-0.000211677
0.000247695
-1.35959e-06
-0.000238674
0.000211097
-9.59357e-07
-0.000260321
0.00017375
-6.44976e-07
-0.000277548
0.000136409
-4.10619e-07
-0.000291197
9.92409e-05
-2.44575e-07
-0.000301909
6.19268e-05
-1.35193e-07
-0.000310021
2.37812e-05
-7.36728e-08
-0.000315533
-1.63928e-05
-5.75872e-08
-0.000317751
-6.01243e-05
-9.47796e-08
-0.000315185
-0.000109163
-2.07354e-07
-0.000305142
-0.000165602
-4.31345e-07
-0.000283336
-0.000231345
-8.11976e-07
-0.00024383
-0.000306884
-1.37375e-06
-0.000179024
-0.000389507
-2.10718e-06
-9.16119e-05
-0.000447557
-2.57274e-06
-0.000383572
-2.36438e-06
-5.10388e-05
0.000297661
-4.48025e-06
-0.000112679
0.000386347
-4.02282e-06
-0.000167148
0.000366315
-3.2122e-06
-0.000211928
0.000327156
-2.34903e-06
-0.000247722
0.000283654
-1.59375e-06
-0.000275778
0.000239163
-9.93251e-07
-0.000297654
0.000195513
-5.46228e-07
-0.000314883
0.000153435
-2.31571e-07
-0.000328812
0.000112904
-2.23685e-08
-0.000340525
7.33076e-05
1.29487e-07
-0.000350721
3.35884e-05
2.25703e-07
-0.000359765
-7.79408e-06
2.78599e-07
-0.000367285
-5.31133e-05
2.74446e-07
-0.000371911
-0.000105111
1.82166e-07
-0.000370611
-0.000167532
-6.60851e-08
-0.000357623
-0.000245032
-5.33147e-07
-0.000323762
-0.000341482
-1.37633e-06
-0.000252566
-0.000461459
-2.77834e-06
-0.000144304
-0.000556335
-3.91305e-06
-0.000528198
-4.85927e-06
-6.5953e-05
0.000363773
-6.74345e-06
-0.000141289
0.00046241
-5.81797e-06
-0.000204871
0.00043048
-4.36432e-06
-0.000254262
0.000376914
-2.90871e-06
-0.000291585
0.000321116
-1.70243e-06
-0.000319239
0.000266753
-8.09942e-07
-0.000339836
0.000215896
-1.98737e-07
-0.000355712
0.000168978
2.08822e-07
-0.000368842
0.000125606
4.74845e-07
-0.000380829
8.47839e-05
6.47791e-07
-0.000392859
4.50294e-05
7.75926e-07
-0.000405971
4.64979e-06
9.01082e-07
-0.000420307
-3.95634e-05
9.84336e-07
-0.00043538
-9.09468e-05
1.0292e-06
-0.000448792
-0.000155142
9.33965e-07
-0.000453733
-0.000241225
4.94364e-07
-0.000438925
-0.000357502
-5.90622e-07
-0.000371262
-0.000530506
-2.98644e-06
-0.000244577
-0.000684164
-5.33524e-06
-0.000774753
-9.89988e-06
-9.68147e-05
0.000460723
-9.70813e-06
-0.000185854
0.000552241
-8.33816e-06
-0.000257031
0.000502356
-5.75875e-06
-0.000308857
0.000429183
-3.33118e-06
-0.000345296
0.000357726
-1.41513e-06
-0.00036998
0.000291347
-1.23797e-07
-0.000386889
0.000232481
6.82833e-07
-0.000399329
0.000180936
1.13723e-06
-0.000409973
0.000135647
1.38841e-06
-0.00042097
9.50755e-05
1.54759e-06
-0.000434194
5.74382e-05
1.69306e-06
-0.000450841
2.0343e-05
1.87503e-06
-0.000472803
-1.86457e-05
2.2115e-06
-0.000501215
-6.37969e-05
2.609e-06
-0.000536106
-0.000121709
3.03799e-06
-0.000570881
-0.000207995
3.23155e-06
-0.00059799
-0.000331845
2.67833e-06
-0.000557845
-0.000572154
-7.87727e-07
-0.000426578
-0.00081632
-4.47496e-06
-0.00120627
-1.8158e-05
-0.000112271
0.000571138
-1.69006e-05
-0.000234873
0.000675689
-1.18032e-05
-0.000323324
0.000591781
-7.24121e-06
-0.000378274
0.000485121
-2.89526e-06
-0.000410249
0.000390264
1.19023e-07
-0.000427113
0.000308408
1.71901e-06
-0.000435847
0.000241072
2.53024e-06
-0.000441119
0.000185804
2.85793e-06
-0.000446161
0.000140093
2.96761e-06
-0.000453314
0.000101478
3.03804e-06
-0.000464563
6.77938e-05
3.20788e-06
-0.000482324
3.70418e-05
3.59982e-06
-0.00051033
8.04515e-06
4.33192e-06
-0.000550431
-2.53247e-05
5.5573e-06
-0.000611313
-6.25187e-05
7.43391e-06
-0.00068371
-0.000136803
9.81195e-06
-0.000782795
-0.000232778
1.21854e-05
-0.000794066
-0.000559759
9.48579e-06
-0.000653518
-0.000953055
5.32479e-06
-0.001866
-2.60839e-05
-0.000268145
0.000835211
-2.56832e-05
-0.000364608
0.000769807
-2.14872e-05
-0.000425024
0.000652664
-1.07371e-05
-0.000456142
0.000517426
-3.23491e-06
-0.000461577
0.000397017
1.98345e-06
-0.000454488
0.000302305
4.54736e-06
-0.000442846
0.000229989
5.57994e-06
-0.000431117
0.000174242
5.72868e-06
-0.000422417
0.000131238
5.52321e-06
-0.000419097
9.7733e-05
5.29302e-06
-0.000423587
7.16037e-05
5.27524e-06
-0.000438087
5.05806e-05
5.66625e-06
-0.000466388
3.51221e-05
6.80595e-06
-0.000512053
1.91138e-05
9.056e-06
-0.000584048
8.82692e-06
1.32952e-05
-0.000676897
-4.21267e-05
1.95216e-05
-0.000784063
-0.000118054
3.01187e-05
-0.000817104
-0.000514235
3.37978e-05
-0.000600866
-0.00114854
3.37726e-05
-0.00246809
-3.3357e-05
-0.000580258
0.00139942
-4.36997e-05
-0.000534557
0.000728889
-1.37347e-05
-0.000427466
0.000553032
-5.77033e-07
-0.000299339
0.00039884
1.06922e-05
-0.000175148
0.000281339
1.52781e-05
-6.75073e-05
0.000201033
1.56699e-05
2.01071e-05
0.000146714
1.43356e-05
8.83075e-05
0.000108827
1.23651e-05
0.00013966
8.15505e-05
1.06046e-05
0.000176964
6.13238e-05
9.26706e-06
0.000202276
4.66647e-05
8.60634e-06
0.000218183
3.46507e-05
8.77409e-06
0.000226307
2.6848e-05
1.04126e-05
0.000226748
1.88732e-05
1.3924e-05
0.000231345
5.83889e-06
2.16329e-05
0.000215574
-2.09959e-05
3.44902e-05
0.000248478
-0.00013676
5.64483e-05
0.000172722
-0.000411793
7.11047e-05
0.000176151
-0.00111687
6.727e-05
-0.0023066
-6.94838e-05
0.00137545
-6.28703e-05
0.00208994
-5.31867e-05
0.00263726
-3.71957e-05
0.00303835
-1.77744e-05
0.00332417
-2.92768e-06
0.00352977
5.35313e-06
0.00368021
9.22468e-06
0.00379171
1.03735e-05
0.00387498
1.00635e-05
0.00393728
9.05067e-06
0.0039845
8.38786e-06
0.00401916
7.33759e-06
0.0040463
8.77739e-06
0.00406477
8.12027e-06
0.00407271
1.51727e-05
0.00405496
1.8358e-05
0.00392838
3.02268e-05
0.00353527
4.54277e-05
0.00240414
-4.98922e-08
-0.000165296
-7.26856e-06
7.27876e-06
-1.15027e-07
-1.73921e-05
1.02088e-05
-7.25868e-08
-2.74404e-05
1.01423e-05
-4.58677e-08
-3.68457e-05
9.49867e-06