/*--------------------------------*- C++ -*----------------------------------*\
  =========                 |
  \\      /  F ield         | OpenFOAM: The Open Source CFD Toolbox
   \\    /   O peration     | Website:  https://openfoam.org
    \\  /    A nd           | Version:  10
     \\/     M anipulation  |
\*---------------------------------------------------------------------------*/
FoamFile
{
    format      ascii;
    class       surfaceScalarField;
    location    "0.125";
    object      phi;
}
// * * * * * * * * * * * * * * * * * * * * * * * * * * * * * * * * * * * * * //

dimensions      [0 3 -1 0 0 0 0];

internalField   nonuniform List<scalar> 
890
(
0.009958
4.20008e-05
0.0100731
-0.000115061
0.0103564
-0.00028329
0.0114227
-0.00106634
-0.00083031
0.012253
0.0100983
-5.6344e-05
0.0102317
-0.000248439
0.0103657
-0.000417227
0.0100246
-0.000725289
-0.00112907
0.0103234
0.0100574
-0.000113713
0.0100819
-0.000273003
0.0100473
-0.00038258
0.0099122
-0.000590199
-0.000785134
0.00956826
0.0100448
-0.000158534
0.00999997
-0.00022815
0.00987038
-0.000252992
0.00959603
-0.000315852
-0.000399504
0.0092104
0.00984147
0.00961332
0.00936032
0.00904447
0.00864497
0.0101698
-0.00379293
0.00587608
0.00817924
-0.00347467
0.00546527
0.00664254
-0.00264316
0.00417986
0.00585393
-0.00201938
0.00280798
0.00549003
-0.00153494
0.00189885
0.00531188
-0.00114628
0.00132444
0.00521652
-0.000847513
0.00094287
0.00516092
-0.000623655
0.000679253
0.00512611
-0.000457884
0.0004927
0.00510316
-0.000335816
0.000358757
0.00508752
-0.000246148
0.00026179
0.00507662
-0.000180354
0.000191259
0.00506891
-0.000132112
0.000139821
0.00506341
-9.67592e-05
0.000102255
0.00505947
-7.08567e-05
7.48031e-05
0.00505661
-5.18783e-05
5.47329e-05
0.00505454
-3.79751e-05
4.00503e-05
0.00505303
-2.77951e-05
2.93036e-05
0.00505194
-2.03455e-05
2.14382e-05
0.00505114
-1.48947e-05
1.56854e-05
0.00505057
-1.0904e-05
1.14801e-05
0.00505014
-7.98022e-06
8.40459e-06
0.00504983
-5.83759e-06
6.15218e-06
0.0050496
-4.26897e-06
4.50055e-06
0.00504943
-3.12256e-06
3.28981e-06
0.00504931
-2.28584e-06
2.40429e-06
0.00504923
-1.67501e-06
1.75893e-06
0.00504917
-1.22809e-06
1.28955e-06
0.00504912
-8.99857e-07
9.47065e-07
0.00504908
-6.58161e-07
6.95373e-07
0.00504905
-4.80425e-07
5.09339e-07
0.00504903
-3.50355e-07
3.71525e-07
0.00504902
-2.55586e-07
2.69502e-07
0.00504901
-1.86742e-07
1.94573e-07
0.00504901
-1.36978e-07
1.41372e-07
0.005049
-1.00965e-07
1.04397e-07
0.005049
-7.45994e-08
7.79352e-08
0.005049
-5.49397e-08
5.83799e-08
0.00504899
-4.0435e-08
4.39836e-08
0.00504899
-3.03702e-08
3.34686e-08
0.00504899
-2.34444e-08
2.53057e-08
0.00504899
-1.91989e-08
1.92149e-08
0.00504899
-1.69182e-08
1.61104e-08
0.00504899
-1.64898e-08
1.51e-08
-1.5312e-08
1.30603e-08
0.00863197
-0.00210152
0.00741823
-0.00226094
0.00667193
-0.00189685
0.00617584
-0.00152329
0.0058352
-0.0011943
0.00560167
-0.00091275
0.00544075
-0.000686591
0.00532889
-0.000511799
0.00525031
-0.000379301
0.00519452
-0.000280031
0.00515458
-0.000206208
0.0051258
-0.000151572
0.00510496
-0.000111274
0.00508983
-8.16217e-05
0.00507881
-5.98368e-05
0.00507077
-4.38459e-05
0.00506491
-3.21153e-05
0.00506063
-2.3516e-05
0.00505751
-1.72171e-05
0.00505522
-1.26056e-05
0.00505354
-9.22934e-06
0.00505232
-6.75611e-06
0.00505142
-4.94374e-06
0.00505077
-3.61618e-06
0.00505029
-2.64499e-06
0.00504994
-1.93563e-06
0.00504969
-1.4178e-06
0.0050495
-1.03921e-06
0.00504936
-7.61583e-07
0.00504926
-5.57546e-07
0.00504919
-4.07545e-07
0.00504913
-2.97325e-07
0.00504909
-2.16588e-07
0.00504906
-1.57884e-07
0.00504904
-1.15646e-07
0.00504903
-8.52573e-08
0.00504902
-6.29853e-08
0.00504901
-4.65942e-08
0.005049
-3.48256e-08
0.005049
-2.65661e-08
0.005049
-2.05639e-08
0.00504899
-1.65982e-08
0.00504899
-1.4792e-08
0.00504899
-1.59428e-08
-1.54859e-08
0.00863865
-0.00117191
0.00772536
-0.00134765
0.00703959
-0.00121108
0.00651482
-0.000998523
0.00611889
-0.000798372
0.00582807
-0.000621932
0.00561648
-0.000474999
0.00546272
-0.000358033
0.0053509
-0.000267483
0.00526948
-0.000198612
0.00521011
-0.000146842
0.00516678
-0.00010824
0.00513513
-7.96202e-05
0.00511199
-5.84867e-05
0.00509508
-4.29206e-05
0.0050827
-3.14722e-05
0.00507365
-2.30618e-05
0.00506702
-1.68914e-05
0.00506218
-1.23703e-05
0.00505863
-9.05999e-06
0.00505604
-6.63533e-06
0.00505414
-4.85771e-06
0.00505275
-3.55395e-06
0.00505173
-2.59875e-06
0.00505099
-1.90058e-06
0.00505044
-1.39134e-06
0.00505005
-1.01988e-06
0.00504975
-7.48159e-07
0.00504954
-5.48464e-07
0.00504938
-4.01144e-07
0.00504927
-2.92523e-07
0.00504919
-2.12944e-07
0.00504912
-1.55169e-07
0.00504908
-1.13501e-07
0.00504905
-8.3466e-08
0.00504902
-6.16759e-08
0.00504901
-4.56875e-08
0.00504899
-3.38187e-08
0.00504898
-2.51934e-08
0.00504898
-1.88188e-08
0.00504897
-1.44406e-08
0.00504897
-1.25183e-08
0.00504896
-1.12352e-08
0.00504896
-1.50871e-08
-1.65406e-08
0.00857919
-0.0005407
0.00784534
-0.000613796
0.00720592
-0.000571665
0.00668905
-0.000481649
0.00628054
-0.000389867
0.0059656
-0.000306986
0.00572715
-0.000236553
0.00554864
-0.000179524
0.00541597
-0.000134808
0.00531783
-0.000100477
0.00524548
-7.4491e-05
0.00519226
-5.50174e-05
0.00515317
-4.05278e-05
0.00512448
-2.98004e-05
0.00510344
-2.1884e-05
0.00508803
-1.60541e-05
0.00507673
-1.17678e-05
0.00506846
-8.62149e-06
0.00506241
-6.3154e-06
0.00505797
-4.62628e-06
0.00505473
-3.38857e-06
0.00505235
-2.48082e-06
0.00505061
-1.8149e-06
0.00504934
-1.32701e-06
0.00504841
-9.70408e-07
0.00504773
-7.10307e-07
0.00504723
-5.20695e-07
0.00504686
-3.82171e-07
0.00504659
-2.80375e-07
0.0050464
-2.05143e-07
0.00504626
-1.49649e-07
0.00504615
-1.0906e-07
0.00504608
-7.93374e-08
0.00504602
-5.73442e-08
0.00504598
-4.23128e-08
0.00504595
-3.1377e-08
0.00504593
-2.32301e-08
0.00504591
-1.71476e-08
0.0050459
-1.27214e-08
0.00504589
-9.95498e-09
0.00504588
-7.50484e-09
0.00504588
-7.66989e-09
0.00504587
-6.7107e-09
0.00504587
-1.34276e-08
-1.69504e-08
0.00810427
0.00749047
0.00691881
0.00643716
0.00604729
0.00574031
0.00550375
0.00532423
0.00518942
0.00508894
0.00501445
0.00495944
0.00491891
0.00488911
0.00486722
0.00485117
0.0048394
0.00483078
0.00482446
0.00481984
0.00481645
0.00481397
0.00481215
0.00481083
0.00480986
0.00480915
0.00480863
0.00480824
0.00480796
0.00480776
0.00480761
0.0048075
0.00480742
0.00480736
0.00480732
0.00480729
0.00480727
0.00480725
0.00480724
0.00480723
0.00480722
0.00480721
0.0048072
0.00480719
0.00079647
-0.00079647
0.00162968
-0.000833208
0.00236288
-0.000733199
0.00296478
-0.000601901
0.0034369
-0.000472125
0.00379643
-0.000359525
0.00406522
-0.000268793
0.00426399
-0.000198769
0.00441005
-0.000146058
0.004517
-0.00010695
0.00459518
-7.81826e-05
0.0046523
-5.71144e-05
0.00469401
-4.17108e-05
0.00472446
-3.04579e-05
0.00474671
-2.22469e-05
0.00476297
-1.62593e-05
0.00477486
-1.18885e-05
0.00478355
-8.69128e-06
0.0047899
-6.3512e-06
0.00479454
-4.64178e-06
0.00479794
-3.39559e-06
0.00480043
-2.48667e-06
0.00480225
-1.82132e-06
0.00480358
-1.33182e-06
0.00480455
-9.71878e-07
0.00480526
-7.09465e-07
0.00480578
-5.19151e-07
0.00480616
-3.80721e-07
0.00480644
-2.80169e-07
0.00480665
-2.06775e-07
0.0048068
-1.51608e-07
0.00480691
-1.09582e-07
0.00480699
-7.95281e-08
0.00480705
-5.72094e-08
0.00480709
-4.1086e-08
0.00480712
-2.99365e-08
0.00480714
-2.25951e-08
0.00480716
-1.7197e-08
0.00480717
-1.31476e-08
0.00480718
-9.85865e-09
0.00480719
-7.51443e-09
0.00480719
-3.84747e-09
0.00480719
-2.64959e-09
0.00480719
4.4134e-09
7.35086e-09
0.000849175
-0.00164564
0.00179766
-0.0017817
0.00259885
-0.00153439
0.00323188
-0.00123492
0.00371271
-0.00095296
0.00407018
-0.000716998
0.00433309
-0.000531696
0.00452546
-0.000391145
0.00466593
-0.000286521
0.00476841
-0.000209436
0.00484319
-0.00015296
0.00489777
-0.000111693
0.00493762
-8.15624e-05
0.00496673
-5.95666e-05
0.004988
-4.35152e-05
0.00500354
-3.18045e-05
0.00501491
-2.32549e-05
0.00502322
-1.70045e-05
0.0050293
-1.24313e-05
0.00503375
-9.0877e-06
0.005037
-6.64659e-06
0.00503938
-4.86507e-06
0.00504112
-3.56253e-06
0.00504239
-2.6073e-06
0.00504333
-1.90582e-06
0.00504401
-1.39182e-06
0.00504451
-1.01689e-06
0.00504487
-7.44496e-07
0.00504514
-5.46718e-07
0.00504533
-4.02185e-07
0.00504548
-2.95264e-07
0.00504558
-2.15549e-07
0.00504566
-1.56524e-07
0.00504571
-1.1309e-07
0.00504576
-8.17596e-08
0.00504579
-5.96997e-08
0.00504581
-4.43334e-08
0.00504582
-3.3441e-08
0.00504584
-2.54116e-08
0.00504584
-1.92332e-08
0.00504585
-1.43498e-08
0.00504586
-9.56021e-09
0.00504586
-7.34357e-09
0.00504587
-2.80029e-09
-1.2547e-09
0.000869053
-0.0025147
0.00201261
-0.00292525
0.00287806
-0.00239984
0.0035042
-0.00186106
0.00394566
-0.00139442
0.00425606
-0.0010274
0.00447593
-0.000751568
0.00463307
-0.000548279
0.00474621
-0.000399666
0.00482814
-0.000291367
0.0048877
-0.000212518
0.0049311
-0.000155094
0.00496277
-0.000113238
0.00498592
-8.27089e-05
0.00500284
-6.04365e-05
0.00501522
-4.41822e-05
0.00502427
-3.23092e-05
0.00503089
-2.36271e-05
0.00503574
-1.7276e-05
0.00503928
-1.26332e-05
0.00504188
-9.24227e-06
0.00504378
-6.76529e-06
0.00504517
-4.95283e-06
0.00504619
-3.62386e-06
0.00504693
-2.64885e-06
0.00504747
-1.93511e-06
0.00504787
-1.41478e-06
0.00504816
-1.03652e-06
0.00504838
-7.61018e-07
0.00504853
-5.59015e-07
0.00504865
-4.0996e-07
0.00504873
-2.99535e-07
0.00504879
-2.17573e-07
0.00504884
-1.57205e-07
0.00504887
-1.13765e-07
0.00504889
-8.32744e-08
0.00504891
-6.2017e-08
0.00504892
-4.67888e-08
0.00504893
-3.50947e-08
0.00504894
-2.6593e-08
0.00504895
-2.00621e-08
0.00504895
-1.46486e-08
0.00504895
-1.11932e-08
0.00504896
-8.77083e-09
-8.56281e-09
0.00108182
-0.00359652
0.00243052
-0.00427395
0.00337286
-0.00334218
0.00395694
-0.00244514
0.00431114
-0.00174862
0.00453443
-0.00125069
0.00468246
-0.000899596
0.0047845
-0.000650316
0.00485671
-0.000471878
0.00490865
-0.000343303
0.00494634
-0.000250212
0.00497383
-0.000182585
0.00499394
-0.000133344
0.00500867
-9.7437e-05
0.00501946
-7.12288e-05
0.00502736
-5.20864e-05
0.00503315
-3.80956e-05
0.00503739
-2.78649e-05
0.00504049
-2.03826e-05
0.00504277
-1.49114e-05
0.00504444
-1.0911e-05
0.00504566
-7.98501e-06
0.00504655
-5.8432e-06
0.0050472
-4.27454e-06
0.00504768
-3.12596e-06
0.00504803
-2.28605e-06
0.00504829
-1.67293e-06
0.00504848
-1.2256e-06
0.00504861
-8.98524e-07
0.00504871
-6.58522e-07
0.00504879
-4.82117e-07
0.00504884
-3.52362e-07
0.00504888
-2.5677e-07
0.00504891
-1.86637e-07
0.00504893
-1.35912e-07
0.00504895
-9.96554e-08
0.00504896
-7.37082e-08
0.00504896
-5.47287e-08
0.00504897
-4.04883e-08
0.00504897
-3.06673e-08
0.00504898
-2.34773e-08
0.00504898
-1.80914e-08
0.00504899
-1.50922e-08
0.00504899
-1.32522e-08
-1.21449e-08
0.00227956
0.00347088
0.00430856
0.0046714
0.00482163
0.00489537
0.00493865
0.00496759
0.00498841
0.00500386
0.00501544
0.00502411
0.00503059
0.00503541
0.00503898
0.00504163
0.00504358
0.00504502
0.00504608
0.00504685
0.00504742
0.00504784
0.00504815
0.00504837
0.00504854
0.00504866
0.00504874
0.00504881
0.00504886
0.00504889
0.00504892
0.00504894
0.00504895
0.00504896
0.00504896
0.00504897
0.00504897
0.00504898
0.00504898
0.00504898
0.00504899
0.00504899
0.00504899
0.00504899
)
;

boundaryField
{
    inlet
    {
        type            calculated;
        value           nonuniform List<scalar> 5(-0.01 -0.01 -0.01 -0.01 -0.01);
    }
    outlet
    {
        type            calculated;
        value           nonuniform List<scalar> 10(0.00504899 0.00504899 0.00504896 0.00504587 0.00480717 0.00480718 0.00504588 0.00504897 0.00504899 0.00504899);
    }
    upperWall
    {
        type            calculated;
        value           uniform 0;
    }
    lowerWall
    {
        type            calculated;
        value           uniform 0;
    }
    frontAndBack
    {
        type            empty;
        value           nonuniform List<scalar> 0();
    }
}


// ************************************************************************* //
