/*--------------------------------*- C++ -*----------------------------------*\
  =========                 |
  \\      /  F ield         | OpenFOAM: The Open Source CFD Toolbox
   \\    /   O peration     | Website:  https://openfoam.org
    \\  /    A nd           | Version:  10
     \\/     M anipulation  |
\*---------------------------------------------------------------------------*/
FoamFile
{
    format      ascii;
    class       volScalarField;
    location    "7.625";
    object      p;
}
// * * * * * * * * * * * * * * * * * * * * * * * * * * * * * * * * * * * * * //

dimensions      [0 2 -2 0 0 0 0];

internalField   nonuniform List<scalar> 
496
(
27.4883
27.4149
24.3257
18.5765
28.0647
28.5876
25.1025
19.0446
32.3868
30.817
23.7139
14.5807
39.2166
37.2789
33.622
21.3131
10.655
1.36405
10.7567
1.46952
1.76346
-5.50596
-24.748
-45.3733
-6.37902
-12.0324
-15.5249
-17.1419
-6.13781
-12.399
-17.7953
-20.0989
-2.61256
-8.39951
-15.5842
-15.8058
-19.2636
-19.4873
-24.6423
-14.9625
-16.7098
-15.6325
-15.7228
-17.3678
-19.4111
-20.5423
-20.6212
-19.9318
-19.1669
-18.3247
-17.2101
-15.8493
-14.4256
-13.3439
-12.2017
-11.4346
-10.844
-10.4465
-10.0036
-9.28777
-8.6456
-7.64278
-6.75874
-5.59106
-4.70573
-3.70409
-2.70183
-2.00745
-1.59686
-1.73225
-1.91552
-2.15788
-2.21887
-2.27212
-2.29957
-2.31959
-2.24972
-1.65648
-0.979841
-0.177687
-18.8522
-17.1213
-17.7113
-19.6496
-20.863
-21.0015
-20.6527
-20.0402
-19.4821
-18.5716
-17.2575
-15.8514
-14.4618
-13.2154
-11.7843
-10.8848
-10.4866
-10.3514
-10.0458
-9.39404
-8.74721
-7.83973
-6.91354
-5.83417
-4.76078
-3.57845
-2.47166
-1.77612
-1.56509
-1.84143
-2.09733
-2.41624
-2.37658
-2.40517
-2.44468
-2.58319
-2.56931
-1.70962
-0.950189
0.0316419
-13.2152
-14.3568
-18.0112
-20.2428
-21.4327
-21.8166
-21.3744
-20.9043
-20.4415
-19.3186
-17.7086
-15.9984
-14.4453
-12.8213
-11.5942
-10.7989
-10.6071
-10.8798
-10.9546
-10.909
-9.91349
-8.52089
-6.53879
-4.97762
-3.55672
-2.62446
-2.10973
-1.42845
-1.8469
-2.26891
-3.14996
-3.68087
-3.8783
-3.61938
-2.87292
-2.37034
-1.39596
-0.840502
-0.539157
0.301804
-11.9666
-15.0641
-17.9669
-19.0029
-21.1601
-22.925
-21.7749
-21.4448
-21.1562
-20.082
-18.4016
-16.3249
-13.925
-11.2455
-9.7695
-9.33648
-9.94341
-10.6192
-11.4034
-11.9038
-11.4702
-10.3945
-7.95596
-5.38595
-1.88976
0.451497
1.11287
0.383594
-0.964406
-1.71515
-3.38703
-4.05881
-4.71466
-4.68182
-4.01697
-3.49972
-1.14829
0.846959
3.01137
2.64822
43.111
44.8578
59.0221
71.888
41.3727
42.7429
56.9547
67.3087
-29.1875
-46.9443
-35.1156
-16.5757
-40.5995
-41.5219
-34.772
-5.7815
-21.0661
-17.3008
-17.5515
-22.1975
-23.3288
-23.0028
-22.3436
-22.18
-21.5138
-19.696
-18.0056
-16.5093
-14.8666
-13.2443
-12.1736
-11.2562
-10.3882
-10.0226
-10.2864
-10.4436
-10.0402
-8.66227
-7.30594
-5.6269
-4.06274
-3.19531
-2.51123
-2.4061
-2.46679
-2.56895
-3.01858
-2.98784
-3.5775
-3.84797
-3.31079
-2.52206
-1.32983
-0.420363
0.525787
0.140639
-18.7997
-14.6444
-20.5713
-22.0415
-22.2367
-27.3507
-23.6131
-20.2299
-19.5593
-18.6074
-17.6505
-17.1258
-16.2265
-15.5655
-14.8042
-13.8488
-11.9897
-9.96575
-8.29885
-6.73974
-5.4638
-5.10133
-5.09
-5.1273
-5.67605
-6.29101
-6.53221
-5.77564
-4.76886
-3.61948
-2.3859
-1.27083
-0.292494
-1.00622
-0.739671
-0.615067
-1.13022
-0.726461
-1.02406
-1.25913
35.4399
32.3551
27.2358
10.094
27.2464
24.3311
14.6909
3.25766
21.54
21.958
17.0941
10.3943
20.6999
20.8302
17.1609
10.3619
-49.1027
-75.6504
-13.2297
-17.5245
0.878068
-8.51508
1.3677
-8.02803
-46.8922
-21.7565
0.0152185
-4.30707
-8.43416
-6.27084
-9.23667
-10.8155
-15.4738
-20.1062
-20.7981
-18.2886
-14.1807
-16.6507
-16.5659
-15.2585
-10.448
-14.482
-18.3163
-21.435
-21.429
-21.3113
-21.9381
-20.9045
-19.1452
-17.1558
-15.891
-16.5554
-16.9235
-16.7744
-15.7235
-14.5962
-12.7227
-9.69134
-6.70124
-3.48483
-2.5983
-2.5324
-3.88184
-5.15774
-6.35579
-7.436
-7.28733
-6.92445
-5.50652
-4.16154
-1.49321
0.941014
3.43929
3.26603
1.86058
1.18955
-0.479828
-0.82518
-1.13452
-1.17344
-13.2294
-16.3279
-19.2626
-21.1666
-21.6691
-21.3054
-20.624
-19.8335
-19.0712
-18.3829
-17.4798
-17.035
-16.8547
-16.1848
-14.7866
-13.0588
-11.3238
-9.28874
-7.71244
-6.47114
-5.50437
-4.85108
-5.22192
-6.05948
-6.44419
-6.77783
-6.17441
-5.47611
-4.07854
-3.01923
-1.62727
-0.897629
-0.299742
0.738811
0.358536
0.256688
-0.518113
-0.917788
-0.790272
-0.571415
-16.0918
-16.3402
-18.392
-20.2549
-21.0017
-20.6763
-19.8327
-19.0653
-18.3701
-17.9659
-17.365
-16.7004
-16.0925
-15.144
-13.9859
-12.4883
-11.1984
-9.78109
-8.29949
-6.8115
-5.56177
-5.07688
-4.79825
-4.85364
-5.21315
-5.24334
-5.00137
-4.52354
-4.05911
-3.26898
-2.35157
-1.13588
-0.247763
0.524005
0.891456
0.998914
1.24474
0.873338
0.41281
0.155151
-14.4596
-14.8326
-16.4689
-18.5166
-20.0393
-20.4949
-19.8834
-19.111
-18.2917
-17.7088
-17.1944
-16.6293
-16.0195
-15.0899
-13.9611
-12.3911
-11.0408
-9.73599
-8.46414
-7.20906
-6.06484
-5.45015
-4.99346
-5.12836
-5.05949
-5.09747
-4.86779
-4.28578
-3.77044
-2.97309
-2.37518
-1.27741
-0.536444
0.23666
0.842561
1.08682
1.19065
0.941811
0.511842
0.127484
)
;

boundaryField
{
    inlet
    {
        type            zeroGradient;
    }
    outlet
    {
        type            fixedValue;
        value           uniform 0;
    }
    obstacle
    {
        type            zeroGradient;
    }
    upperWall
    {
        type            zeroGradient;
    }
    lowerWall
    {
        type            zeroGradient;
    }
    frontAndBack
    {
        type            empty;
    }
}


// ************************************************************************* //
