/*--------------------------------*- C++ -*----------------------------------*\
  =========                 |
  \\      /  F ield         | OpenFOAM: The Open Source CFD Toolbox
   \\    /   O peration     | Website:  https://openfoam.org
    \\  /    A nd           | Version:  10
     \\/     M anipulation  |
\*---------------------------------------------------------------------------*/
FoamFile
{
    format      ascii;
    class       volScalarField;
    location    "3.125";
    object      p;
}
// * * * * * * * * * * * * * * * * * * * * * * * * * * * * * * * * * * * * * //

dimensions      [0 2 -2 0 0 0 0];

internalField   nonuniform List<scalar> 
475
(
-0.0442269
-0.0685044
-0.0995414
-0.124387
-0.148342
-0.0686242
-0.0824582
-0.0984295
-0.116906
-0.132691
-0.066385
-0.0758749
-0.0906651
-0.107678
-0.123078
-0.0653915
-0.0759934
-0.0904603
-0.105745
-0.117781
-0.0354541
-0.0619967
-0.0853172
-0.102516
-0.113771
-0.164968
-0.162676
-0.163342
-0.180479
-0.213867
-0.247071
-0.268224
-0.268345
-0.240532
-0.193371
-0.139578
-0.0863737
-0.0435904
-0.0165108
0.00257307
0.0155463
0.0224464
0.0271339
0.0329153
0.038678
0.0425871
0.0443281
0.0444143
0.0434662
0.0419438
0.0401246
0.038159
0.0361242
0.0340588
0.031982
0.0299026
0.0278247
0.0257499
0.0236788
0.0216111
0.0195463
0.0174841
0.0154237
0.0133649
0.0113073
0.0092504
0.00719402
0.00513823
0.00308273
0.00102754
-0.148156
-0.158263
-0.164373
-0.172677
-0.185922
-0.199375
-0.206758
-0.202146
-0.180003
-0.150633
-0.120499
-0.0878615
-0.0581154
-0.0358073
-0.0145619
0.00121744
0.0121614
0.020557
0.0285832
0.0353561
0.039948
0.042443
0.0432795
0.0429249
0.0417954
0.040202
0.0383467
0.0363506
0.0342836
0.0321849
0.0300757
0.0279669
0.0258636
0.0237677
0.0216794
0.0195979
0.0175224
0.0154517
0.013385
0.0113217
0.00926035
0.00720071
0.00514239
0.00308496
0.00102819
-0.135794
-0.144941
-0.149219
-0.151742
-0.154657
-0.156738
-0.15673
-0.149775
-0.137669
-0.127946
-0.117788
-0.101352
-0.0829895
-0.0656316
-0.0459091
-0.0210958
-0.00114549
0.0142617
0.026075
0.0342985
0.039298
0.0420095
0.043098
0.0429923
0.042046
0.0405504
0.0387219
0.0367066
0.0345964
0.0324461
0.0302858
0.0281313
0.0259894
0.0238624
0.0217496
0.0196493
0.0175597
0.0154784
0.013404
0.0113343
0.0092688
0.0072062
0.00514571
0.00308667
0.00102865
-0.127393
-0.134763
-0.136724
-0.13644
-0.134254
-0.128682
-0.122617
-0.11168
-0.104588
-0.111758
-0.117062
-0.108968
-0.0948332
-0.0805457
-0.0600121
-0.0321216
-0.00662867
0.0120964
0.0244059
0.0325675
0.0379871
0.0412593
0.0427806
0.0429529
0.0421643
0.0407427
0.0389348
0.0369099
0.0347754
0.0325958
0.0304066
0.0282263
0.0260625
0.0239176
0.0217916
0.0196803
0.017582
0.0154945
0.0134152
0.0113422
0.00927414
0.00720962
0.00514772
0.00308765
0.00102884
-0.121917
-0.127623
-0.129558
-0.127885
-0.122377
-0.11422
-0.102531
-0.0891554
-0.0863635
-0.097827
-0.110447
-0.112191
-0.100471
-0.0816941
-0.0576786
-0.0306248
-0.00648799
0.0124073
0.0255545
0.0341788
0.0395053
0.0424457
0.0436443
0.0435791
0.0426299
0.0410981
0.0392099
0.037123
0.0349395
0.0327207
0.0305007
0.0282965
0.0261145
0.0239557
0.0218172
0.019698
0.0175943
0.0155029
0.0134209
0.0113461
0.00927674
0.00721126
0.00514869
0.00308812
0.00102892
-0.185185
-0.18762
-0.195339
-0.214405
-0.247461
-0.284427
-0.303171
-0.289383
-0.240315
-0.16046
-0.0649893
0.0262901
0.0946353
0.131894
0.140746
0.132045
0.116058
0.0990031
0.0837109
0.0710913
0.0612433
0.0538288
0.0483614
0.044321
0.0412405
0.0387577
0.0366187
0.0346586
0.0327767
0.0309158
0.029046
0.0271537
0.0252347
0.0232901
0.0213214
0.019333
0.0173287
0.015312
0.0132855
0.0112518
0.0092126
0.00716933
0.00512316
0.00307502
0.00102546
-0.175179
-0.17904
-0.191706
-0.219474
-0.262194
-0.307471
-0.334148
-0.327707
-0.28285
-0.203235
-0.104361
-0.0049456
0.0713413
0.115838
0.130506
0.125193
0.110471
0.0940653
0.0796582
0.0683646
0.0597251
0.0531819
0.0482586
0.0445021
0.0415302
0.0390581
0.0368853
0.034877
0.0329472
0.031045
0.0291419
0.0272239
0.0252855
0.0233253
0.0213462
0.0193504
0.0173408
0.0153204
0.0132913
0.0112557
0.00921519
0.00717097
0.0051241
0.00307544
0.00102553
-0.186076
-0.181189
-0.19569
-0.22974
-0.281581
-0.3338
-0.36956
-0.369517
-0.325697
-0.247
-0.149458
-0.0484719
0.0339847
0.0847452
0.104439
0.103885
0.0935967
0.0818274
0.0707773
0.0628126
0.0566667
0.0517412
0.0477901
0.0445551
0.041817
0.039416
0.037233
0.0351802
0.0331966
0.0312428
0.0292949
0.02734
0.0253722
0.0233897
0.0213933
0.0193845
0.0173653
0.0153374
0.0133031
0.0112639
0.00922061
0.00717444
0.00512614
0.00307638
0.00102569
-0.175266
-0.17256
-0.185378
-0.216615
-0.264949
-0.315237
-0.351795
-0.358275
-0.324642
-0.25436
-0.166539
-0.0770984
-0.00140593
0.0472121
0.0678409
0.070452
0.0650439
0.0590662
0.0562237
0.0543089
0.0521178
0.0495698
0.046953
0.0444288
0.0420405
0.0397835
0.0376318
0.0355532
0.0335191
0.0315082
0.029506
0.0275037
0.0254967
0.0234831
0.0214624
0.019435
0.0174018
0.0153638
0.0133217
0.0112765
0.00922901
0.00717989
0.00512946
0.00307806
0.00102612
-0.208315
-0.167354
-0.177414
-0.200506
-0.241285
-0.286422
-0.318991
-0.324415
-0.294801
-0.234983
-0.1612
-0.0876648
-0.0267859
0.0119095
0.0319092
0.0387303
0.0383056
0.0377033
0.0411694
0.0446776
0.0465112
0.0466302
0.0455936
0.0439328
0.0419912
0.0399494
0.0378852
0.0358252
0.0337746
0.0317317
0.0296927
0.0276549
0.0256162
0.0235756
0.0215329
0.0194878
0.0174409
0.0153922
0.0133422
0.0112911
0.00923904
0.0071866
0.00513364
0.00308028
0.00102676
)
;

boundaryField
{
    inlet
    {
        type            zeroGradient;
    }
    outlet
    {
        type            fixedValue;
        value           uniform 0;
    }
    upperWall
    {
        type            zeroGradient;
    }
    lowerWall
    {
        type            zeroGradient;
    }
    frontAndBack
    {
        type            empty;
    }
}


// ************************************************************************* //
