/*--------------------------------*- C++ -*----------------------------------*\
  =========                 |
  \\      /  F ield         | OpenFOAM: The Open Source CFD Toolbox
   \\    /   O peration     | Website:  https://openfoam.org
    \\  /    A nd           | Version:  10
     \\/     M anipulation  |
\*---------------------------------------------------------------------------*/
FoamFile
{
    format      ascii;
    class       volScalarField;
    location    "0.375";
    object      p;
}
// * * * * * * * * * * * * * * * * * * * * * * * * * * * * * * * * * * * * * //

dimensions      [0 2 -2 0 0 0 0];

internalField   nonuniform List<scalar> 
400
(
-1.01239e-10
8.20348e-05
0.000261067
0.000531212
0.000885349
0.00131437
0.00180736
0.00235192
0.00293445
0.00354051
0.00415509
0.00476295
0.00534893
0.00589824
0.00639684
0.00683176
0.00719151
0.00746642
0.00764886
0.00773263
-8.05933e-05
3.17189e-06
0.000186067
0.000461965
0.00082357
0.00126155
0.00176475
0.00232049
0.00291493
0.00353335
0.0041605
0.00478088
0.00537903
0.00593989
0.00644914
0.0068935
0.00726118
0.00754223
0.00772882
0.00781446
-0.000263371
-0.000175618
1.6048e-05
0.000305076
0.000683709
0.00114208
0.00166845
0.00224954
0.00287091
0.00351729
0.00417283
0.00482145
0.00544711
0.00603412
0.00656748
0.00703324
0.00741893
0.00771396
0.00790994
0.00799988
-0.000550625
-0.000456485
-0.00025093
5.88461e-05
0.000464334
0.000954795
0.00151755
0.00213838
0.00280195
0.00349205
0.004192
0.00488483
0.00555358
0.00618161
0.00675289
0.0072524
0.00766654
0.0079837
0.00819458
0.00829143
-0.000949963
-0.000846804
-0.000621718
-0.000282847
0.000160181
0.000695351
0.00130864
0.00198454
0.00270642
0.00345692
0.00421818
0.00497209
0.00570049
0.00638545
0.00700952
0.00755617
0.00801025
0.00835858
0.00859051
0.00869716
-0.00147213
-0.00135694
-0.00110589
-0.000728502
-0.000235998
0.000357818
0.00103712
0.00178464
0.00258219
0.0034109
0.00425154
0.00508461
0.00589052
0.00664971
0.00734296
0.00795172
0.00845869
0.00884855
0.00910866
0.00922848
-0.0021314
-0.00200059
-0.00171602
-0.00128914
-0.000733489
-6.53012e-05
0.000697188
0.00153453
0.00242656
0.00335272
0.00429222
0.00522402
0.00612689
0.00697943
0.00776022
0.00844816
0.0090231
0.00946672
0.00976355
0.00990065
-0.00294626
-0.00279542
-0.00246806
-0.00197857
-0.00134369
-0.000583043
0.000282016
0.0012293
0.00223639
0.00328084
0.00434023
0.00539198
0.00641318
0.00738037
0.00826959
0.00905659
0.00971747
0.0102298
0.010574
0.0107336
-0.00394037
-0.00376378
-0.00338194
-0.0028136
-0.00208016
-0.00120585
-0.000216108
0.000863571
0.00200821
0.00319345
0.00439538
0.00559006
0.006753
0.00785873
0.00888043
0.00979004
0.0105588
0.0111586
0.011564
0.0117529
-0.00514398
-0.00493393
-0.0044822
-0.00381431
-0.00295847
-0.00194526
-0.000805362
0.000431769
0.00173844
0.00308856
0.00445711
0.0058193
0.00714954
0.00842055
0.00960261
0.0106632
0.0115673
0.012279
0.0127642
0.0129918
-0.00659611
-0.00634168
-0.00579889
-0.00500424
-0.00399592
-0.00281327
-0.0014937
-7.12029e-05
0.00142383
0.00296411
0.00452432
0.00607977
0.00760473
0.00907082
0.0104456
0.0116916
0.0127661
0.0136224
0.0142135
0.0144939
-0.00834816
-0.00803278
-0.00736862
-0.00641026
-0.00521067
-0.00382121
-0.00228761
-0.000648956
0.00106214
0.00281825
0.00459521
0.00636995
0.00811818
0.00981189
0.0114169
0.0128906
0.014181
0.0152269
0.0159622
0.0163173
-0.0104702
-0.0100661
-0.00923566
-0.008062
-0.0066202
-0.00497762
-0.00319033
-0.00130231
0.00065293
0.00264967
0.004667
0.00668585
0.00868574
0.0106415
0.0125192
0.0142725
0.0158386
0.0171376
0.0180747
0.0185432
-0.0130634
-0.012517
-0.0114528
-0.00998997
-0.0082379
-0.0062853
-0.00419935
-0.0020273
0.000198908
0.00245812
0.00473576
0.00701993
0.00929748
0.0115496
0.0137466
0.0158417
0.0177628
0.0194062
0.0206329
0.0212911
-0.0162801
-0.0154826
-0.0140813
-0.0122209
-0.0100682
-0.00773661
-0.00530239
-0.00281226
-0.000292233
0.00224533
0.00479627
0.00735998
0.00993508
0.0125145
0.0150788
0.0175876
0.0199657
0.0220874
0.0237393
0.0247455
-0.0203956
-0.019088
-0.0171875
-0.0147688
-0.0120975
-0.00930574
-0.00647188
-0.00363417
-0.000805585
0.00201611
0.00484212
0.00768789
0.0105691
0.0134971
0.0164721
0.0194722
0.0224338
0.0252258
0.02751
0.0292139
-0.0255418
-0.0234321
-0.0208234
-0.0176182
-0.0142789
-0.0109377
-0.00765788
-0.00445454
-0.00131705
0.00177934
0.00486633
0.0079796
0.0111569
0.0144356
0.0178478
0.0214092
0.0250992
0.0288285
0.0320335
0.0350898
-0.0343614
-0.0290079
-0.0251363
-0.020727
-0.0165157
-0.0125336
-0.00877994
-0.00521641
-0.00179163
0.00154942
0.00486246
0.00820641
0.011644
0.0152441
0.0190846
0.0232507
0.0278392
0.0330026
0.0377435
0.044451
-0.0411755
-0.0343991
-0.0294206
-0.0236986
-0.018563
-0.0139361
-0.00973509
-0.00585331
-0.00219109
0.00134063
0.00482386
0.00833574
0.0119628
0.0158018
0.0199707
0.0246151
0.0298726
0.0362852
0.041335
0.0524555
-0.0723876
-0.0415894
-0.0344318
-0.0262945
-0.0199506
-0.0147719
-0.0102627
-0.00619126
-0.00240125
0.00122643
0.00479093
0.00838712
0.012115
0.0161082
0.0205662
0.0258409
0.032439
0.0422863
0.0520034
0.0874242
)
;

boundaryField
{
    movingWall
    {
        type            zeroGradient;
    }
    fixedWalls
    {
        type            zeroGradient;
    }
    frontAndBack
    {
        type            empty;
    }
}


// ************************************************************************* //
