/*--------------------------------*- C++ -*----------------------------------*\
  =========                 |
  \\      /  F ield         | OpenFOAM: The Open Source CFD Toolbox
   \\    /   O peration     | Website:  https://openfoam.org
    \\  /    A nd           | Version:  10
     \\/     M anipulation  |
\*---------------------------------------------------------------------------*/
FoamFile
{
    format      ascii;
    class       surfaceScalarField;
    location    "8.85";
    object      phi;
}
// * * * * * * * * * * * * * * * * * * * * * * * * * * * * * * * * * * * * * //

dimensions      [0 3 -1 0 0 0 0];

internalField   nonuniform List<scalar> 
928
(
0.096201
0.00379902
0.103735
-0.00753396
0.106809
-0.00307453
-0.00982222
0.116632
0.0947711
0.00902793
0.105934
-0.0186969
0.102836
2.38559e-05
-0.0199863
0.113
0.0954199
0.013608
0.109143
-0.0324199
0.103856
0.00531083
-0.0414782
0.125348
0.103163
0.0104447
0.0928401
-0.0220967
0.098424
-0.00027304
0.146342
-0.0893966
0.111258
0.00537391
-0.016591
0.127849
0.109296
0.00907722
-0.0416506
0.134356
0.127074
0.00735138
-0.0478307
0.133254
0.153694
0.105863
0.12736
0.000488815
0.128022
-0.000661696
0.129201
-0.00117958
-0.00190121
0.131102
0.135375
-0.000530325
0.135356
-0.000642657
0.135709
-0.00153245
-0.0033021
0.13711
0.135697
-0.00297385
0.137591
-0.00253644
0.141341
-0.00528203
-0.000196175
0.138235
0.112747
-0.0098574
0.0923058
0.0179043
0.0903272
-0.00330343
0.0917034
-0.00157244
0.132147
-0.00104477
0.13276
-0.000613053
0.133103
-0.00034263
0.13197
0.00113251
0.130409
0.00156106
0.128261
0.00214821
0.126893
0.00136798
0.125233
0.00166063
0.124626
0.000606239
0.12387
0.000756178
0.123436
0.000434014
0.123451
-1.48432e-05
0.123412
3.92719e-05
0.123386
2.60493e-05
0.121732
0.00165351
0.119724
0.00200826
0.116394
0.00332985
0.113367
0.0030271
0.110375
0.0029921
0.108084
0.00229067
0.107171
0.000912668
0.10671
0.000461593
0.107903
-0.00119316
0.109275
-0.00137233
0.111659
-0.00238327
0.114167
-0.00250863
0.116643
-0.00247582
0.11912
-0.00247697
0.120401
-0.00128064
0.120906
-0.00050555
0.119507
0.00139918
0.116982
0.00252534
0.113004
0.0039777
0.108786
0.00421794
0.104814
0.00397205
0.101439
0.00337519
0.0998954
0.00154344
0.0988204
0.00107497
0.099596
-0.000775562
-0.000738553
0.137841
-0.00177618
0.139054
-0.0018256
0.139576
-0.00086481
0.13909
0.00161846
0.138227
0.00242419
0.13667
0.00370531
0.135639
0.00239889
0.134313
0.00298626
0.133341
0.00157852
0.132067
0.0020302
0.132283
0.000217994
0.133393
-0.00112485
0.134272
-0.00084007
0.134847
-0.000548649
0.133859
0.00264186
0.132725
0.00314202
0.130059
0.00599623
0.127706
0.00537944
0.125089
0.00560917
0.122679
0.0047007
0.121654
0.00193787
0.121465
0.000650861
0.122531
-0.00225974
0.12369
-0.00253101
0.125767
-0.00445997
0.127922
-0.00466382
0.130143
-0.0046969
0.132732
-0.00506658
0.13434
-0.00288785
0.136163
-0.00232917
0.136081
0.00148173
0.135149
0.00345714
0.133021
0.00610539
0.129773
0.00746642
0.126856
0.00688914
0.123251
0.00697993
0.121115
0.00367927
0.119553
0.00263714
0.119145
-0.000367098
-0.00148923
0.137138
-0.000679808
0.138398
-0.00308536
0.137664
-0.000130854
0.138136
0.00114708
0.138112
0.00244746
0.138927
0.00289103
0.13758
0.00374514
0.135707
0.0048592
0.133152
0.00413377
0.132394
0.00278868
0.132072
0.000539485
0.13261
-0.00166287
0.133837
-0.0020673
0.135152
-0.00186284
0.137157
0.000636682
0.137749
0.00254976
0.138258
0.00548716
0.137219
0.00641816
0.135784
0.00704421
0.135035
0.00544968
0.133938
0.00303564
0.133138
0.00145039
0.131275
-0.000396612
0.12883
-8.6121e-05
0.126162
-0.00179192
0.123843
-0.00234479
0.122572
-0.003426
0.122259
-0.0047536
0.123693
-0.00432137
0.126732
-0.00536827
0.1303
-0.00208657
0.133735
2.22632e-05
0.135947
0.00389305
0.136454
0.00695922
0.135922
0.00742186
0.134855
0.00804673
0.133783
0.00475094
0.13278
0.00364058
0.132107
0.000305999
-0.000989487
0.09194
-0.000916318
0.0924744
-0.00361982
0.0929386
-0.000595008
0.0930978
0.000987796
0.09129
0.00425532
0.0964712
-0.00229015
0.0957266
0.00448976
0.0885681
0.0120176
0.0853948
0.00730707
0.0825906
0.00559284
0.0808257
0.0023044
0.0802124
-0.00104951
0.0823239
-0.0041788
0.0871979
-0.00673691
0.0932461
-0.00541146
0.0990871
-0.00329129
0.10503
-0.000455511
0.10856
0.00288793
0.108714
0.00689044
0.104632
0.00953192
0.0965226
0.0111445
0.0850809
0.0128921
0.0727576
0.0119267
0.0629923
0.00967921
0.0570272
0.00417313
0.0555261
-0.000843672
0.0565246
-0.00442453
0.0605354
-0.00876435
0.0673749
-0.0111609
0.074641
-0.0126344
0.0832981
-0.0107436
0.092027
-0.00870669
0.101089
-0.00516929
0.108449
-0.000400265
0.113547
0.00232416
0.11719
0.00440302
0.116833
0.00510779
0.115372
0.00510246
0.113693
0.00198432
0.000253533
0.110942
-0.000497222
0.0886285
0.000216726
0.0892631
-0.000907596
-0.000133495
0.109695
-0.0101921
0.0884504
0.0214612
0.0870612
0.000481607
0.0869277
-0.00486473
-0.00499267
-0.0277073
0.0407469
-0.021913
-0.00909768
-0.0402298
0.0167443
-0.00644638
0.00145372
0.017556
0.0167445
0.0169862
-0.0085279
-0.0101744
-0.0130691
-0.00579482
0.0216228
0.000544421
-0.00995906
0.0102706
-0.0103212
-0.000570537
0.011829
-0.00434795
0.00803274
0.000795704
-0.00743381
0.00498767
0.00029779
0.00516466
0.0118407
0.00200824
0.0104635
0.00512636
0.00247471
0.00966477
-0.00223401
0.0144444
-0.00582909
0.019274
-0.00900844
0.023873
-0.0113359
0.0282041
-0.00974256
0.0314506
-0.00653778
0.0332612
-0.00226617
0.033844
0.00230513
0.0321292
0.00860525
0.0295097
0.0121515
0.025731
0.0149232
0.0225886
0.0160344
0.0209529
0.0135624
0.02032
0.0103121
0.0212175
0.00327556
0.0223045
-0.00193066
0.0243287
-0.00644874
0.0263692
-0.0108048
0.0290459
-0.0138376
0.0316707
-0.0152591
0.0352874
-0.0143604
0.0401984
-0.0136176
0.044171
-0.0091419
0.0467687
-0.00299804
0.0480974
0.000995475
0.0480503
0.00445009
0.0467525
0.00640559
0.0465869
0.00526808
0.0477954
0.000775849
-0.000923636
-0.00227491
0.0137233
-0.00507781
-0.00715617
-0.0109967
-0.0044023
-0.00487254
0.00570478
0.00499569
-0.00183549
0.000707619
-0.00314574
-0.00111511
0.00212052
0.00833525
0.0023903
0.0164453
0.00235338
0.0212021
-0.00228206
0.0229825
-0.00401435
0.0236405
-0.00648717
0.0240331
-0.00940098
0.0235782
-0.010881
0.0234628
-0.00962717
0.0242555
-0.0073305
0.024731
-0.00274165
0.0253814
0.00165473
0.0285917
0.00539491
0.0310588
0.00968441
0.0343728
0.0116092
0.0394425
0.0109648
0.0443344
0.00867046
0.049579
0.00506754
0.053145
-0.000290365
0.0546947
-0.00348036
0.054862
-0.00661608
0.0531205
-0.00906329
0.0477703
-0.0084874
0.0413185
-0.00880735
0.0367907
-0.0098326
0.0333039
-0.0101308
0.0317366
-0.00757459
0.0325846
-0.00384601
0.0335662
1.38957e-05
0.0339175
0.00409872
0.0363109
0.00401225
0.0387692
0.00280974
0.0392546
0.000290451
-0.00155463
0.10278
-0.0129726
0.0940917
0.03015
0.0991182
-0.00454492
0.0401037
0.145942
0.0960937
-0.00906629
0.107305
0.0189383
0.103421
-0.000660513
0.0200264
0.123498
0.0950364
-0.0041027
0.106036
0.00793831
0.102726
0.00265025
0.0101322
0.11262
0.0958973
0.103836
0.106486
0.116618
0.15474
-0.00879769
0.0458936
0.108846
0.123777
-0.00907634
0.0420187
0.127652
0.10864
-0.00509675
0.0165563
0.134103
0.111521
0.128078
0.106583
0.0037166
0.115308
0.00802027
0.107653
-0.000873103
-0.00251474
0.0970985
0.131279
8.91827e-05
0.138218
0.00108184
0.133988
0.00335662
0.00069243
0.130781
0.134059
0.000132557
0.134638
0.000502935
0.13641
0.00158519
0.00093082
0.136171
0.12821
0.128713
0.130298
0.131229
0.10852
0.00230159
0.0997206
0.00164335
0.0953447
-2.63409e-05
0.0987584
0.00229104
0.0955081
0.00141487
0.0927459
-0.000383594
0.0956465
-0.000780065
0.0978196
0.000217169
0.102071
-0.00189795
0.104576
-0.00478756
0.108652
-0.00808943
0.111297
-0.00913268
0.110454
-0.00855836
0.106061
-0.00648795
0.099898
-0.00346372
0.0933999
-0.000832396
0.0876574
0.00300084
0.0838134
0.00549866
0.0819696
0.00723876
0.0846757
0.00697827
0.0898373
0.00644762
0.0954793
0.00532284
0.10243
0.00172004
0.10931
-0.00181311
0.116533
-0.00751339
0.123404
-0.010351
0.130147
-0.0133595
0.13623
-0.0151455
0.142542
-0.0148
0.145868
-0.0121331
0.141081
-0.00504535
0.130015
0.000934967
0.114319
0.00812155
0.100371
0.0101014
0.0909181
0.00946719
0.0871564
0.00786041
0.087259
0.00390974
0.0880908
0.00197794
0.0904844
-0.00210315
-0.00282677
0.132267
0.00081521
0.133594
0.000316022
0.132999
0.000569637
0.134998
0.000291311
0.135933
0.0004798
0.134824
0.000725975
0.135342
-0.00129805
0.136989
-0.00142981
0.138059
-0.00296861
0.136736
-0.00346402
0.134248
-0.00560171
0.131055
-0.00593995
0.128456
-0.00595943
0.126957
-0.00498899
0.125069
-0.00157515
0.12381
0.000426786
0.122808
0.00400265
0.123705
0.00460185
0.125407
0.00553613
0.12747
0.00491566
0.130665
0.00325227
0.133661
0.00232728
0.136908
-0.00152707
0.138336
-0.00324147
0.137855
-0.00703179
0.134822
-0.00731852
0.129196
-0.00773299
0.121767
-0.0077167
0.114034
-0.00706694
0.109239
-0.00733829
0.106469
-0.00227545
0.106335
0.00106915
0.108168
0.00628817
0.110105
0.00816521
0.112274
0.00729798
0.114402
0.00573188
0.116562
0.00175043
0.118418
0.000122011
0.119648
-0.0033332
-0.00378435
0.136106
0.000880415
0.13651
-8.78956e-05
0.136997
8.31093e-05
0.137469
-0.000181501
0.138255
-0.000306125
0.138815
0.000165982
0.138069
-0.000552058
0.137551
-0.000911312
0.136564
-0.0019814
0.135054
-0.00195489
0.132495
-0.00304194
0.129714
-0.00315929
0.126582
-0.00282774
0.124031
-0.00243738
0.123237
-0.000781243
0.123641
2.23587e-05
0.125495
0.00214909
0.127889
0.0022079
0.130711
0.00271371
0.133341
0.00228601
0.13546
0.00113322
0.137226
0.000561492
0.136895
-0.00119619
0.135638
-0.00198436
0.132734
-0.00412789
0.129816
-0.00440056
0.126781
-0.00469841
0.123208
-0.00414366
0.119039
-0.00289821
0.114241
-0.00254013
0.111933
3.29158e-05
0.111495
0.00150751
0.113984
0.00379863
0.11783
0.00431947
0.121618
0.00350969
0.125036
0.0023135
0.126914
-0.000127588
0.128124
-0.00108755
0.127612
-0.00282075
-0.00271485
0.13211
0.132022
0.132105
0.131923
0.131617
0.131783
0.131231
0.13032
0.128338
0.126383
0.123342
0.120182
0.117354
0.114917
0.114136
0.114158
0.116307
0.118515
0.121229
0.123515
0.124648
0.12521
0.124013
0.122029
0.117901
0.113501
0.108802
0.104659
0.10176
0.0992202
0.0992531
0.100761
0.104559
0.108879
0.112388
0.114702
0.114574
0.113487
0.110666
)
;

boundaryField
{
    inlet
    {
        type            calculated;
        value           nonuniform List<scalar> 10(-0.1 -0.1 -0.1 -0.1 -0.1 -0.1 -0.1 -0.1 -0.1 -0.1);
    }
    outlet
    {
        type            calculated;
        value           nonuniform List<scalar> 10(0.100335 0.119895 0.131607 0.11245 0.0489726 0.0398856 0.0917565 0.120605 0.126542 0.107951);
    }
    obstacle
    {
        type            calculated;
        value           uniform 0;
    }
    upperWall
    {
        type            calculated;
        value           uniform 0;
    }
    lowerWall
    {
        type            calculated;
        value           uniform 0;
    }
    frontAndBack
    {
        type            empty;
        value           nonuniform List<scalar> 0();
    }
}


// ************************************************************************* //
