/*--------------------------------*- C++ -*----------------------------------*\
  =========                 |
  \\      /  F ield         | OpenFOAM: The Open Source CFD Toolbox
   \\    /   O peration     | Website:  https://openfoam.org
    \\  /    A nd           | Version:  10
     \\/     M anipulation  |
\*---------------------------------------------------------------------------*/
FoamFile
{
    format      ascii;
    class       volVectorField;
    location    "1.5";
    object      U;
}
// * * * * * * * * * * * * * * * * * * * * * * * * * * * * * * * * * * * * * //

dimensions      [0 1 -1 0 0 0 0];

internalField   nonuniform List<vector> 
400
(
(-0.000319499 0.000315426 0)
(-0.00114505 0.000420519 0)
(-0.00210897 0.000412816 0)
(-0.00299402 0.000384993 0)
(-0.00380648 0.000347254 0)
(-0.00452514 0.000301094 0)
(-0.00513218 0.00024755 0)
(-0.00561266 0.000187721 0)
(-0.00595425 0.000122784 0)
(-0.0061473 5.39878e-05 0)
(-0.00618503 -1.72703e-05 0)
(-0.00606373 -8.96619e-05 0)
(-0.00578307 -0.000161438 0)
(-0.00534656 -0.000230757 0)
(-0.00476189 -0.00029558 0)
(-0.00404134 -0.000353712 0)
(-0.00320253 -0.000402866 0)
(-0.0022694 -0.000440174 0)
(-0.00124039 -0.000453575 0)
(-0.00034901 -0.000344478 0)
(-0.000440832 0.00114897 0)
(-0.00154432 0.00149558 0)
(-0.00280947 0.00146564 0)
(-0.00397321 0.00136564 0)
(-0.00503984 0.00122996 0)
(-0.00598143 0.00106433 0)
(-0.00677477 0.000872741 0)
(-0.00740071 0.000659341 0)
(-0.00784362 0.000428439 0)
(-0.00809144 0.000184507 0)
(-0.00813607 -6.78626e-05 0)
(-0.0079731 -0.000323285 0)
(-0.00760234 -0.000576081 0)
(-0.00702866 -0.000819928 0)
(-0.00626212 -0.00104778 0)
(-0.00531864 -0.001252 0)
(-0.00422106 -0.00142457 0)
(-0.00300035 -0.00155525 0)
(-0.00165797 -0.00160341 0)
(-0.000476088 -0.00124373 0)
(-0.000470923 0.00218298 0)
(-0.0016494 0.00280544 0)
(-0.00299909 0.00274604 0)
(-0.00423897 0.00255712 0)
(-0.00537459 0.00230119 0)
(-0.00637655 0.00198935 0)
(-0.00722068 0.00162945 0)
(-0.00788719 0.00122943 0)
(-0.00836002 0.000797425 0)
(-0.00862691 0.000341738 0)
(-0.00867885 -0.000129078 0)
(-0.00851078 -0.000605492 0)
(-0.00812223 -0.00107711 0)
(-0.00751721 -0.00153236 0)
(-0.00670518 -0.00195825 0)
(-0.00570188 -0.00234057 0)
(-0.00453066 -0.00266415 0)
(-0.0032242 -0.00290953 0)
(-0.00178349 -0.00300259 0)
(-0.000512459 -0.00235647 0)
(-0.000502329 0.00324709 0)
(-0.00176072 0.00415791 0)
(-0.003202 0.00406691 0)
(-0.00452428 0.00378533 0)
(-0.0057344 0.003405 0)
(-0.00680159 0.00294266 0)
(-0.007701 0.0024102 0)
(-0.00841255 0.00181945 0)
(-0.00891999 0.00118228 0)
(-0.00921069 0.000510591 0)
(-0.00927528 -0.000183251 0)
(-0.00910759 -0.0008864 0)
(-0.00870556 -0.0015839 0)
(-0.00807171 -0.00225904 0)
(-0.00721387 -0.00289281 0)
(-0.00614657 -0.00346397 0)
(-0.004893 -0.00394939 0)
(-0.00348752 -0.00431919 0)
(-0.00193115 -0.00446313 0)
(-0.000555037 -0.00351605 0)
(-0.000546006 0.00439167 0)
(-0.00191448 0.00561364 0)
(-0.0034812 0.00548721 0)
(-0.00491608 0.00510455 0)
(-0.00622743 0.00458955 0)
(-0.00738274 0.00396547 0)
(-0.00835655 0.0032488 0)
(-0.0091287 0.00245557 0)
(-0.00968302 0.00160135 0)
(-0.0100068 0.00070138 0)
(-0.01009 -0.000228965 0)
(-0.00992506 -0.00117353 0)
(-0.00950766 -0.00211351 0)
(-0.00883778 -0.00302737 0)
(-0.00792041 -0.00388986 0)
(-0.0067677 -0.00467191 0)
(-0.00540187 -0.00534086 0)
(-0.00385913 -0.00585392 0)
(-0.0021408 -0.00605937 0)
(-0.00061594 -0.00478516 0)
(-0.000604119 0.00564786 0)
(-0.00211834 0.0072112 0)
(-0.00385021 0.00704348 0)
(-0.0054322 0.00654746 0)
(-0.00687464 0.00588307 0)
(-0.00814308 0.00508149 0)
(-0.00921169 0.00416468 0)
(-0.0100608 0.00315327 0)
(-0.010675 0.00206649 0)
(-0.0110419 0.000922435 0)
(-0.011151 -0.000261182 0)
(-0.0109929 -0.00146607 0)
(-0.0105601 -0.0026704 0)
(-0.00984873 -0.00384835 0)
(-0.00885905 -0.00496844 0)
(-0.00759888 -0.00599279 0)
(-0.00608778 -0.006877 0)
(-0.00436339 -0.00756158 0)
(-0.00242713 -0.00784524 0)
(-0.000699612 -0.00620922 0)
(-0.000678889 0.00704861 0)
(-0.00237989 0.00899165 0)
(-0.00432185 0.00877373 0)
(-0.00608886 0.00814709 0)
(-0.00769411 0.0073132 0)
(-0.00910122 0.00631322 0)
(-0.0102848 0.00517588 0)
(-0.011227 0.00392696 0)
(-0.0119139 0.00258924 0)
(-0.0123345 0.00118294 0)
(-0.0124785 -0.000273132 0)
(-0.0123343 -0.00176022 0)
(-0.01189 -0.00325505 0)
(-0.0111359 -0.00472877 0)
(-0.010065 -0.0061441 0)
(-0.00867737 -0.00745342 0)
(-0.0069868 -0.00859774 0)
(-0.00503057 -0.00949529 0)
(-0.00280928 -0.00988315 0)
(-0.000812073 -0.00784153 0)
(-0.00077356 0.00863307 0)
(-0.00270985 0.0110031 0)
(-0.00491385 0.0107214 0)
(-0.00690787 0.0099399 0)
(-0.00870935 0.00890916 0)
(-0.0102805 0.00768342 0)
(-0.011598 0.00630001 0)
(-0.0126475 0.00479062 0)
(-0.0134191 0.00318131 0)
(-0.0139043 0.00149325 0)
(-0.0140942 -0.000255461 0)
(-0.0139749 -0.00204824 0)
(-0.0135287 -0.00386294 0)
(-0.0127378 -0.00567021 0)
(-0.0115838 -0.00742832 0)
(-0.0100539 -0.00907953 0)
(-0.0081502 -0.0105469 0)
(-0.00590533 -0.0117184 0)
(-0.00331659 -0.0122514 0)
(-0.000962916 -0.00975108 0)
(-0.000893063 0.0104485 0)
(-0.00312397 0.0133028 0)
(-0.00565146 0.0129363 0)
(-0.00791934 0.0119654 0)
(-0.00995159 0.0107006 0)
(-0.0117105 0.00921341 0)
(-0.0131777 0.00755245 0)
(-0.0143457 0.0057562 0)
(-0.0152113 0.00385343 0)
(-0.0157713 0.00186455 0)
(-0.0160201 -0.000195548 0)
(-0.0159418 -0.00231674 0)
(-0.015512 -0.00448156 0)
(-0.0147013 -0.00666485 0)
(-0.0134744 -0.00882394 0)
(-0.0117977 -0.0108918 0)
(-0.00965157 -0.0127702 0)
(-0.00705479 -0.0143065 0)
(-0.00399545 -0.0150504 0)
(-0.00116809 -0.0120307 0)
(-0.00104516 0.0125545 0)
(-0.00364592 0.0159605 0)
(-0.0065711 0.015476 0)
(-0.00916517 0.0142662 0)
(-0.0114625 0.012716 0)
(-0.0134287 0.010921 0)
(-0.0150553 0.008944 0)
(-0.0163466 0.00683145 0)
(-0.0173108 0.0046138 0)
(-0.0179533 0.00230787 0)
(-0.0182755 -7.95234e-05 0)
(-0.0182609 -0.00254498 0)
(-0.0178769 -0.00508675 0)
(-0.0170802 -0.00769004 0)
(-0.0158109 -0.0103182 0)
(-0.0140024 -0.0128991 0)
(-0.0115975 -0.0153117 0)
(-0.0085818 -0.0173498 0)
(-0.00492203 -0.0184124 0)
(-0.00145562 -0.0148125 0)
(-0.00124268 0.0150294 0)
(-0.00431244 0.0190636 0)
(-0.00772643 0.0184086 0)
(-0.0107046 0.0168873 0)
(-0.0132982 0.0149807 0)
(-0.0154827 0.0128167 0)
(-0.0172674 0.0104769 0)
(-0.018676 0.0080164 0)
(-0.019735 0.0054656 0)
(-0.0204647 0.00283407 0)
(-0.0208729 0.000115608 0)
(-0.0209491 -0.00270135 0)
(-0.0206571 -0.00563789 0)
(-0.0199327 -0.00870067 0)
(-0.0186837 -0.0118716 0)
(-0.0167941 -0.0150861 0)
(-0.0141434 -0.0182039 0)
(-0.0106473 -0.020954 0)
(-0.00622694 -0.022515 0)
(-0.00187799 -0.0182959 0)
(-0.00150805 0.0179821 0)
(-0.00518255 0.0227255 0)
(-0.00919808 0.0218148 0)
(-0.0126224 0.0198736 0)
(-0.0155347 0.0175111 0)
(-0.0179327 0.0148978 0)
(-0.0198558 0.0121388 0)
(-0.0213581 0.00929782 0)
(-0.0224933 0.00640233 0)
(-0.0233035 0.00344953 0)
(-0.023811 0.000414254 0)
(-0.0240146 -0.00274319 0)
(-0.0238763 -0.00607288 0)
(-0.023314 -0.00961908 0)
(-0.0221965 -0.0134026 0)
(-0.0203385 -0.0173905 0)
(-0.017518 -0.0214458 0)
(-0.0135083 -0.025234 0)
(-0.00814572 -0.0275989 0)
(-0.00254056 -0.0228022 0)
(-0.00188294 0.0215755 0)
(-0.006355 0.0270966 0)
(-0.0111093 0.02579 0)
(-0.0150418 0.0232654 0)
(-0.0182759 0.0203069 0)
(-0.0208554 0.0171389 0)
(-0.0228676 0.0138941 0)
(-0.0244127 0.0106422 0)
(-0.0255835 0.00740171 0)
(-0.026453 0.00415064 0)
(-0.0270658 0.000835807 0)
(-0.0274364 -0.0026175 0)
(-0.0275331 -0.00630299 0)
(-0.0272625 -0.010322 0)
(-0.0264553 -0.0147637 0)
(-0.0248423 -0.0196693 0)
(-0.0220551 -0.0249573 0)
(-0.0175842 -0.0302929 0)
(-0.0111233 -0.0339824 0)
(-0.00366709 -0.0288859 0)
(-0.00245044 0.0260162 0)
(-0.00800477 0.032357 0)
(-0.013653 0.0304383 0)
(-0.0181438 0.0270855 0)
(-0.0216634 0.0233364 0)
(-0.0243461 0.0194789 0)
(-0.0263528 0.0156734 0)
(-0.0278508 0.0119869 0)
(-0.0289851 0.00841875 0)
(-0.0298695 0.00491878 0)
(-0.0305794 0.00139839 0)
(-0.0311536 -0.00226203 0)
(-0.031581 -0.00621013 0)
(-0.0317749 -0.0106273 0)
(-0.0315441 -0.0157101 0)
(-0.0305386 -0.021643 0)
(-0.0282308 -0.0284947 0)
(-0.0235637 -0.0361279 0)
(-0.0160356 -0.0419747 0)
(-0.00576366 -0.037653 0)
(-0.00334343 0.0320831 0)
(-0.0103924 0.0388933 0)
(-0.0171092 0.0359142 0)
(-0.0221875 0.0313257 0)
(-0.0258851 0.0265164 0)
(-0.0285191 0.0218019 0)
(-0.0303597 0.0173584 0)
(-0.0316673 0.0132292 0)
(-0.0326512 0.00937719 0)
(-0.0334726 0.00571232 0)
(-0.0342458 0.00210474 0)
(-0.0350439 -0.00161643 0)
(-0.0358971 -0.00565107 0)
(-0.036761 -0.010285 0)
(-0.0374691 -0.015856 0)
(-0.0376331 -0.0227919 0)
(-0.0366506 -0.0314391 0)
(-0.0324835 -0.0423695 0)
(-0.0247346 -0.051579 0)
(-0.0101504 -0.0511829 0)
(-0.00525059 0.038053 0)
(-0.014557 0.0462894 0)
(-0.0220655 0.0420739 0)
(-0.0275908 0.0358506 0)
(-0.0311873 0.0296602 0)
(-0.0335001 0.0239004 0)
(-0.0349176 0.0187562 0)
(-0.0358203 0.0142096 0)
(-0.0364867 0.010159 0)
(-0.0371232 0.00645928 0)
(-0.0378856 0.00293682 0)
(-0.0388827 -0.000613251 0)
(-0.0402178 -0.00447091 0)
(-0.0419411 -0.00898145 0)
(-0.0440003 -0.0146142 0)
(-0.0460652 -0.0222379 0)
(-0.0478282 -0.0324467 0)
(-0.0455941 -0.0482601 0)
(-0.0404203 -0.0625353 0)
(-0.0193181 -0.0738952 0)
(-0.00646559 0.055037 0)
(-0.0185618 0.0565632 0)
(-0.0284801 0.0495234 0)
(-0.034648 0.0402937 0)
(-0.0377685 0.0322625 0)
(-0.0392952 0.0253408 0)
(-0.0398634 0.0195306 0)
(-0.0400234 0.0146711 0)
(-0.0401115 0.0105688 0)
(-0.0403593 0.00701005 0)
(-0.0409379 0.00376911 0)
(-0.042023 0.00059228 0)
(-0.0437783 -0.00282556 0)
(-0.0463345 -0.00691264 0)
(-0.0500187 -0.0122924 0)
(-0.0545211 -0.0204742 0)
(-0.0612968 -0.0322672 0)
(-0.0628995 -0.0542434 0)
(-0.0654474 -0.0767525 0)
(-0.032915 -0.113343 0)
(-0.0168435 0.0559431 0)
(-0.0369027 0.0711776 0)
(-0.0390471 0.0591711 0)
(-0.0441869 0.0467078 0)
(-0.0444104 0.0357674 0)
(-0.0436118 0.0268217 0)
(-0.042229 0.0199409 0)
(-0.040833 0.0146798 0)
(-0.0397208 0.0106111 0)
(-0.0390934 0.00736911 0)
(-0.0391114 0.00468043 0)
(-0.0399258 0.00232395 0)
(-0.0417718 0.000161971 0)
(-0.0449209 -0.00222526 0)
(-0.0502514 -0.00440078 0)
(-0.0569478 -0.010862 0)
(-0.068984 -0.0151672 0)
(-0.0713167 -0.0462725 0)
(-0.0837213 -0.0739815 0)
(-0.0276472 -0.173944 0)
(-0.0590352 0.124797 0)
(-0.0507144 0.0663897 0)
(-0.0453589 0.053964 0)
(-0.0345166 0.0391382 0)
(-0.0233944 0.02766 0)
(-0.0140835 0.0200375 0)
(-0.00639218 0.0147501 0)
(-0.000445344 0.0108693 0)
(0.00396157 0.00797032 0)
(0.0070549 0.00577772 0)
(0.00903158 0.00409471 0)
(0.0100853 0.0027469 0)
(0.010008 0.00166942 0)
(0.01003 0.000307064 0)
(0.00616884 -0.00137397 0)
(0.00955676 -0.00735417 0)
(-0.00439539 -0.0190329 0)
(0.0128326 -0.0585005 0)
(-0.0303354 -0.130323 0)
(0.0298651 -0.257689 0)
(0.132699 0.135398 0)
(0.161097 0.0741655 0)
(0.236828 0.0482369 0)
(0.277571 0.0319748 0)
(0.303415 0.0204582 0)
(0.321899 0.0130894 0)
(0.335165 0.00870121 0)
(0.344578 0.00603143 0)
(0.351376 0.00429995 0)
(0.35637 0.00312684 0)
(0.359916 0.00231735 0)
(0.36265 0.00169536 0)
(0.363671 0.00122726 0)
(0.366088 0.000830851 0)
(0.36129 -0.000464283 0)
(0.368508 -0.000203916 0)
(0.340031 -0.00782565 0)
(0.354154 -0.0134303 0)
(0.236165 -0.047529 0)
(0.209058 -0.121719 0)
)
;

boundaryField
{
    movingWall
    {
        type            fixedValue;
        value           uniform (1 0 0);
    }
    fixedWalls
    {
        type            noSlip;
    }
    frontAndBack
    {
        type            empty;
    }
}


// ************************************************************************* //
