/*--------------------------------*- C++ -*----------------------------------*\
  =========                 |
  \\      /  F ield         | OpenFOAM: The Open Source CFD Toolbox
   \\    /   O peration     | Website:  https://openfoam.org
    \\  /    A nd           | Version:  10
     \\/     M anipulation  |
\*---------------------------------------------------------------------------*/
FoamFile
{
    format      ascii;
    class       volScalarField;
    location    "6.175";
    object      p;
}
// * * * * * * * * * * * * * * * * * * * * * * * * * * * * * * * * * * * * * //

dimensions      [0 2 -2 0 0 0 0];

internalField   nonuniform List<scalar> 
400
(
5.07463e-07
-1.91079e-05
2.68391e-05
0.000115311
0.000252685
0.000440485
0.000680758
0.000975703
0.00132672
0.00173358
0.0021934
0.00269937
0.00323943
0.00379504
0.00434035
0.00484285
0.00526519
0.00556996
0.00574809
0.00573236
2.23453e-05
1.75981e-06
5.19433e-05
0.000140471
0.00027525
0.000458563
0.000692958
0.000981014
0.00132449
0.00172363
0.00217612
0.00267577
0.00321096
0.00376469
0.00431125
0.00481796
0.00524631
0.00555779
0.00574512
0.00572516
-2.90457e-05
-5.6529e-05
-8.09494e-06
7.6929e-05
0.000207268
0.00038549
0.000614715
0.000898376
0.00123935
0.00163922
0.00209719
0.00260883
0.00316501
0.00374827
0.0043322
0.00488097
0.00535025
0.00569289
0.00589906
0.00586418
-0.00013452
-0.000166982
-0.000121439
-4.15939e-05
8.22103e-05
0.000253008
0.000474805
0.000752324
0.00109018
0.00149215
0.00196004
0.00249216
0.0030814
0.00371326
0.00436026
0.00498208
0.00552405
0.00592332
0.00616473
0.00611278
-0.000299896
-0.000337009
-0.000295851
-0.000223159
-0.000108287
5.24004e-05
0.000264028
0.000532977
0.000866153
0.00127039
0.00175128
0.00231139
0.00294758
0.00364889
0.00438797
0.0051192
0.00577455
0.00626605
0.00656607
0.00648836
-0.000524405
-0.000566633
-0.00053148
-0.000468358
-0.000365667
-0.000219142
-2.24228e-05
0.000232762
0.000556043
0.000958078
0.00144965
0.00203946
0.0027304
0.0035202
0.00438306
0.00526949
0.00609409
0.00673193
0.00712857
0.0070081
-0.000806072
-0.00085435
-0.000827024
-0.000776519
-0.000690376
-0.00056383
-0.000389377
-0.000156852
0.0001463
0.000535142
0.00102691
0.00163954
0.00238831
0.0032737
0.00428941
0.00538471
0.0064558
0.0073265
0.00788836
0.00769861
-0.00114251
-0.00119806
-0.00118059
-0.0011463
-0.00108212
-0.000983136
-0.000841096
-0.000644347
-0.000377702
-2.17335e-05
0.000447734
0.00105949
0.00184376
0.00282326
0.00400957
0.00536673
0.00678646
0.00803184
0.0088923
0.00860478
-0.00153067
-0.00159483
-0.00158917
-0.00157491
-0.00153872
-0.00147619
-0.00137917
-0.00123551
-0.00102851
-0.000735543
-0.000326344
0.000238911
0.00101024
0.00204326
0.00337472
0.00501119
0.00689499
0.00875183
0.01016
0.0098216
-0.00196672
-0.00204084
-0.00204837
-0.00205745
-0.00205511
-0.00203831
-0.00200025
-0.00192998
-0.0018117
-0.00162259
-0.00132995
-0.000887577
-0.000230639
0.00072523
0.00208208
0.00390487
0.00628694
0.00909474
0.011497
0.0113914
-0.0024464
-0.00253161
-0.00255223
-0.00258643
-0.00262231
-0.00265938
-0.0026938
-0.00271803
-0.00272048
-0.00268352
-0.00258078
-0.00237225
-0.00199648
-0.00136338
-0.000356112
0.00122627
0.00372376
0.00762596
0.011676
0.0129041
-0.00296596
-0.00306271
-0.00309334
-0.00315127
-0.00322649
-0.00332225
-0.00343934
-0.00357615
-0.00372936
-0.00389323
-0.00405914
-0.00421552
-0.00434897
-0.0044559
-0.00457366
-0.00461601
-0.00372405
0.000275844
0.00650104
0.01125
-0.00352423
-0.00363229
-0.00366601
-0.00374173
-0.00385137
-0.00400383
-0.00420638
-0.00446536
-0.00478973
-0.0051933
-0.00569938
-0.00635143
-0.00723818
-0.00856283
-0.0108174
-0.0143202
-0.0176603
-0.0151222
-0.00744022
0.00253932
-0.00411994
-0.00423038
-0.00424735
-0.00432583
-0.00445987
-0.00466242
-0.00494464
-0.00532181
-0.00581656
-0.00646551
-0.00733298
-0.0085396
-0.0103287
-0.0131553
-0.0181156
-0.0258231
-0.0356518
-0.035642
-0.0275283
-0.0121004
-0.00478569
-0.00490974
-0.00489421
-0.00496325
-0.00509453
-0.00531503
-0.00564432
-0.00610649
-0.00673611
-0.00758854
-0.0087605
-0.0104224
-0.0129554
-0.0169377
-0.0238962
-0.0341248
-0.0477456
-0.050245
-0.0430395
-0.0244876
-0.00560153
-0.00553068
-0.005404
-0.00538125
-0.00548919
-0.00573396
-0.0061208
-0.00666432
-0.00739749
-0.00837864
-0.00971552
-0.011577
-0.0144279
-0.0187108
-0.0262145
-0.0362971
-0.0494694
-0.0519738
-0.0459119
-0.0239668
-0.00609662
-0.00653124
-0.00625529
-0.00628276
-0.00629664
-0.00644334
-0.00673989
-0.00721822
-0.00791454
-0.00887685
-0.0102066
-0.0120027
-0.014745
-0.0186895
-0.0252218
-0.0333325
-0.042717
-0.0434409
-0.036309
-0.00614034
-0.00946883
-0.00696078
-0.00635781
-0.00581459
-0.00577949
-0.00600218
-0.0064269
-0.00701935
-0.00779581
-0.00877782
-0.0100857
-0.0117172
-0.0141563
-0.0174448
-0.02236
-0.0275026
-0.0325596
-0.0296414
-0.0168207
0.0297394
-0.00620466
-0.0092069
-0.00818432
-0.00824117
-0.0078387
-0.00765014
-0.00765015
-0.00787995
-0.00836992
-0.00910852
-0.0101982
-0.0116403
-0.0138835
-0.0167753
-0.0215221
-0.0257506
-0.0292089
-0.0168862
0.0111761
0.0903203
-0.0313608
-0.00635587
-0.00491193
-0.00420422
-0.00404761
-0.00431496
-0.00489097
-0.00559667
-0.00649638
-0.00751766
-0.00893424
-0.0105727
-0.0129231
-0.0154762
-0.0181868
-0.0176418
-0.0103791
0.0220804
0.0918025
0.2261
)
;

boundaryField
{
    movingWall
    {
        type            zeroGradient;
    }
    fixedWalls
    {
        type            zeroGradient;
    }
    frontAndBack
    {
        type            empty;
    }
}


// ************************************************************************* //
