/*--------------------------------*- C++ -*----------------------------------*\
  =========                 |
  \\      /  F ield         | OpenFOAM: The Open Source CFD Toolbox
   \\    /   O peration     | Website:  https://openfoam.org
    \\  /    A nd           | Version:  10
     \\/     M anipulation  |
\*---------------------------------------------------------------------------*/
FoamFile
{
    format      ascii;
    class       volScalarField;
    location    "7.45";
    object      p;
}
// * * * * * * * * * * * * * * * * * * * * * * * * * * * * * * * * * * * * * //

dimensions      [0 2 -2 0 0 0 0];

internalField   nonuniform List<scalar> 
475
(
-0.0573067
-0.0826973
-0.112089
-0.135729
-0.158481
-0.0830658
-0.096394
-0.112654
-0.131709
-0.148608
-0.0811789
-0.090513
-0.105473
-0.122918
-0.13927
-0.0804858
-0.0912764
-0.106157
-0.121543
-0.135075
-0.0506364
-0.0775781
-0.101167
-0.118785
-0.131511
-0.176762
-0.187278
-0.190975
-0.192902
-0.195754
-0.199943
-0.204844
-0.208535
-0.209481
-0.206732
-0.199826
-0.189096
-0.17551
-0.160413
-0.145201
-0.130498
-0.116814
-0.106065
-0.100309
-0.0998319
-0.102042
-0.104385
-0.105087
-0.102955
-0.0981708
-0.091657
-0.0839253
-0.0749609
-0.0654381
-0.0560529
-0.0472458
-0.0392472
-0.0320117
-0.0253617
-0.0193313
-0.0141691
-0.0102289
-0.00747263
-0.00561518
-0.00413572
-0.00281071
-0.00152894
-0.00045576
0.000181401
0.000291066
-0.165173
-0.176682
-0.182445
-0.184289
-0.184814
-0.18511
-0.185159
-0.184363
-0.182089
-0.178035
-0.172181
-0.164867
-0.156549
-0.147958
-0.139383
-0.130264
-0.121439
-0.115117
-0.112841
-0.114877
-0.118844
-0.122137
-0.122785
-0.119707
-0.113272
-0.104476
-0.0943813
-0.0833673
-0.0719351
-0.0606998
-0.0500966
-0.0403349
-0.0315245
-0.023685
-0.0168932
-0.0113649
-0.0073747
-0.00477723
-0.00319061
-0.00199959
-0.000928547
8.8475e-05
0.000890804
0.00107822
0.000756541
-0.152602
-0.162077
-0.167591
-0.169727
-0.169523
-0.167805
-0.165011
-0.161319
-0.156944
-0.152116
-0.14782
-0.145164
-0.144372
-0.143751
-0.138839
-0.129257
-0.123437
-0.122562
-0.122949
-0.124406
-0.127145
-0.128605
-0.127486
-0.123144
-0.115843
-0.10663
-0.0959538
-0.0843507
-0.072437
-0.0607822
-0.0497436
-0.0395716
-0.0303506
-0.0221761
-0.0152183
-0.00968479
-0.00571103
-0.00308151
-0.00140714
-0.00017787
0.000821774
0.00163336
0.00211542
0.00191721
0.00114949
-0.145779
-0.15352
-0.158183
-0.159891
-0.158845
-0.15557
-0.150462
-0.143967
-0.136789
-0.129948
-0.125915
-0.126698
-0.135588
-0.14738
-0.143967
-0.12507
-0.111402
-0.110915
-0.118566
-0.12633
-0.131133
-0.132331
-0.129992
-0.124631
-0.116282
-0.106166
-0.0948968
-0.08301
-0.0710188
-0.0593388
-0.0481798
-0.0380033
-0.0288441
-0.0208058
-0.014044
-0.00870515
-0.00479581
-0.00210567
-0.000310221
0.000967952
0.00188648
0.00251673
0.0027044
0.00226986
0.00122493
-0.141076
-0.148061
-0.152391
-0.153839
-0.152337
-0.148225
-0.141882
-0.134144
-0.125643
-0.118244
-0.113607
-0.11592
-0.128106
-0.142774
-0.145791
-0.137905
-0.127857
-0.121968
-0.121569
-0.124307
-0.126823
-0.127356
-0.125159
-0.119987
-0.11242
-0.102973
-0.0922593
-0.0808585
-0.0692992
-0.0580458
-0.0467361
-0.0368498
-0.0278862
-0.0200345
-0.0134522
-0.00824294
-0.00437071
-0.00164601
0.000216273
0.00150359
0.00236899
0.00286438
0.0028698
0.0023236
0.00114327
-0.202112
-0.202745
-0.203746
-0.205042
-0.207412
-0.211984
-0.218288
-0.224565
-0.228515
-0.227704
-0.220685
-0.20694
-0.186739
-0.16116
-0.132247
-0.102529
-0.0746892
-0.0506111
-0.0314192
-0.0178719
-0.00984793
-0.00656915
-0.0068786
-0.00952016
-0.0133809
-0.0175723
-0.0214045
-0.0244829
-0.0268521
-0.028713
-0.030196
-0.031183
-0.0314301
-0.0306472
-0.0288983
-0.0263686
-0.0232493
-0.0197591
-0.0163108
-0.013136
-0.0104013
-0.00792012
-0.00554853
-0.00321015
-0.00087401
-0.196229
-0.198317
-0.199848
-0.202659
-0.207091
-0.213589
-0.221373
-0.228747
-0.233567
-0.233596
-0.227482
-0.214553
-0.194611
-0.16887
-0.139468
-0.108856
-0.0804306
-0.055829
-0.0362685
-0.0222371
-0.0137492
-0.0100431
-0.00994357
-0.0121805
-0.0156687
-0.0195957
-0.0232494
-0.0258642
-0.0276545
-0.0290368
-0.030315
-0.0313633
-0.0316686
-0.0309677
-0.0291379
-0.0262658
-0.0226379
-0.0187464
-0.0151613
-0.0122698
-0.0100026
-0.00799262
-0.00586092
-0.00359502
-0.00114256
-0.205199
-0.203677
-0.203407
-0.204639
-0.208964
-0.216303
-0.224996
-0.233001
-0.238571
-0.238769
-0.232598
-0.219624
-0.199897
-0.174633
-0.145939
-0.116417
-0.0889222
-0.065315
-0.0465544
-0.0332257
-0.0253008
-0.0218631
-0.0216502
-0.0234023
-0.0260142
-0.0286472
-0.030788
-0.0323621
-0.0329301
-0.0329304
-0.032843
-0.0325103
-0.0314249
-0.029457
-0.0268769
-0.0239405
-0.0207647
-0.017427
-0.0142491
-0.0114269
-0.00910659
-0.00713245
-0.00522387
-0.00322901
-0.00115861
-0.192474
-0.194776
-0.196103
-0.199085
-0.20442
-0.212178
-0.220984
-0.229029
-0.234465
-0.235228
-0.229803
-0.217798
-0.199369
-0.176056
-0.150112
-0.123809
-0.0994657
-0.0789173
-0.0631025
-0.0524184
-0.0464997
-0.0441746
-0.0440344
-0.0448748
-0.0457721
-0.0461211
-0.0456776
-0.044411
-0.0422643
-0.03957
-0.0367457
-0.0338593
-0.0308473
-0.0277231
-0.0246817
-0.0215382
-0.0181656
-0.0146856
-0.0114997
-0.008901
-0.00694841
-0.00534975
-0.00389397
-0.00236124
-0.00092435
-0.228617
-0.20758
-0.203812
-0.202253
-0.204644
-0.210847
-0.218423
-0.224692
-0.228202
-0.227313
-0.221083
-0.209333
-0.192588
-0.172294
-0.150594
-0.129276
-0.109919
-0.0942566
-0.0835742
-0.0778219
-0.0756173
-0.0752873
-0.0753564
-0.0748047
-0.0730788
-0.0701148
-0.0659283
-0.0605956
-0.0545534
-0.0483075
-0.0422508
-0.0366154
-0.031399
-0.0264663
-0.0217874
-0.0175525
-0.0139376
-0.0109582
-0.00858277
-0.00663589
-0.00500006
-0.00348946
-0.00218851
-0.00107069
-0.00035401
)
;

boundaryField
{
    inlet
    {
        type            zeroGradient;
    }
    outlet
    {
        type            fixedValue;
        value           uniform 0;
    }
    upperWall
    {
        type            zeroGradient;
    }
    lowerWall
    {
        type            zeroGradient;
    }
    frontAndBack
    {
        type            empty;
    }
}


// ************************************************************************* //
