/*--------------------------------*- C++ -*----------------------------------*\
  =========                 |
  \\      /  F ield         | OpenFOAM: The Open Source CFD Toolbox
   \\    /   O peration     | Website:  https://openfoam.org
    \\  /    A nd           | Version:  10
     \\/     M anipulation  |
\*---------------------------------------------------------------------------*/
FoamFile
{
    format      ascii;
    class       surfaceScalarField;
    location    "7.45";
    object      phi;
}
// * * * * * * * * * * * * * * * * * * * * * * * * * * * * * * * * * * * * * //

dimensions      [0 3 -1 0 0 0 0];

internalField   nonuniform List<scalar> 
890
(
0.00984648
0.000153522
0.00971799
0.000128486
0.00946932
0.000248674
0.00941974
4.95804e-05
0.000145792
0.00927395
0.0101197
3.37794e-05
0.0102016
4.66257e-05
0.0104074
4.28495e-05
0.0104645
-7.51385e-06
-7.1089e-05
0.0106814
0.0100713
-3.75282e-05
0.0102156
-9.76338e-05
0.0103778
-0.000119373
0.0105212
-0.000150911
-0.000191986
0.0106421
0.0100902
-0.000127693
0.0102137
-0.000221123
0.0103301
-0.000235802
0.0104187
-0.000239561
-0.000251463
0.0104782
0.00987231
0.00965118
0.00941538
0.00917582
0.00892436
0.00926767
-0.000106471
0.000112745
0.00929243
-0.00026867
0.000243915
0.00936898
-0.000386923
0.000310369
0.0094861
-0.000487182
0.000370061
0.00963572
-0.000595354
0.000445739
0.00981659
-0.000741077
0.000560205
0.01001
-0.000916806
0.000723425
0.0102101
-0.00112924
0.000929103
0.0104044
-0.00137225
0.00117792
0.0105747
-0.00163568
0.00146538
0.0107096
-0.00189851
0.00176359
0.0107961
-0.00214211
0.00205569
0.0108232
-0.00233737
0.00231019
0.0107848
-0.00246395
0.00250244
0.0106535
-0.00247422
0.0026055
0.0104322
-0.00239977
0.00262105
0.0101786
-0.00230923
0.00256279
0.00991185
-0.00216657
0.00243336
0.00962639
-0.00195086
0.00223632
0.0093321
-0.00168345
0.00197774
0.00904436
-0.00137996
0.00166769
0.00876903
-0.00105167
0.00132701
0.00852142
-0.000725511
0.000973125
0.00831351
-0.000421088
0.000628997
0.00814668
-0.000148886
0.000315709
0.00801266
9.29174e-05
4.11094e-05
0.00791941
0.000302374
-0.000209128
0.0078542
0.000470978
-0.000405769
0.00781019
0.000595682
-0.000551671
0.00778515
0.000680028
-0.000654988
0.00777367
0.000731269
-0.000719785
0.00776268
0.000755402
-0.000744419
0.00773978
0.000759496
-0.000736596
0.00769836
0.000748455
-0.000707036
0.00764
0.000719106
-0.000660738
0.00756805
0.000665175
-0.000593227
0.00748425
0.00058964
-0.000505842
0.00738798
0.00052006
-0.000423791
0.00728511
0.000464171
-0.000361294
0.00717929
0.000452808
-0.000346994
0.00708165
0.000432078
-0.000334437
0.00698479
0.000452368
-0.000355506
0.00690218
0.000396693
-0.000314084
0.00681603
0.000404561
-0.000318409
0.000298474
-0.000235894
0.0107443
-0.000169384
0.0107683
-0.000292693
0.0107928
-0.000411362
0.0108298
-0.000524225
0.0108714
-0.000636921
0.010899
-0.000768726
0.0109062
-0.00092398
0.0108899
-0.00111294
0.0108425
-0.00132482
0.0107577
-0.00155086
0.0106239
-0.00176475
0.0104366
-0.00195477
0.0101967
-0.00209753
0.00988653
-0.00215375
0.00947027
-0.00205795
0.00900261
-0.00193211
0.00850883
-0.00181545
0.00801043
-0.00166816
0.00752206
-0.00146249
0.00705851
-0.00121991
0.00663708
-0.000958524
0.00626171
-0.000676311
0.00594386
-0.000407659
0.00569092
-0.00016815
0.00550157
4.04712e-05
0.00538448
0.000210004
0.00533081
0.000356043
0.00532954
0.00047225
0.00536677
0.000558451
0.00542738
0.000619421
0.00549689
0.000661756
0.00556342
0.000688874
0.00562157
0.000701344
0.0056746
0.000695425
0.00572681
0.000666898
0.00577683
0.000615152
0.00581629
0.00055018
0.00584494
0.000491413
0.00586315
0.000445957
0.00588752
0.000428445
0.00591632
0.000403271
0.00596572
0.000402973
0.00601889
0.000343523
0.00608684
0.000336609
0.000232798
0.010727
-0.00025428
0.0107703
-0.000335995
0.0107856
-0.000426692
0.0107812
-0.000519792
0.0107566
-0.000612355
0.010705
-0.000717142
0.0106209
-0.000839835
0.0104979
-0.00099
0.0103291
-0.00115594
0.0101237
-0.00134548
0.00988296
-0.00152404
0.00960534
-0.00167714
0.00922306
-0.00171525
0.00867092
-0.00160162
0.00803463
-0.00142166
0.00740968
-0.00130716
0.00668967
-0.00109543
0.00590425
-0.000882749
0.00516424
-0.000722478
0.00450649
-0.000562151
0.00393197
-0.000384012
0.00347241
-0.000216752
0.00312682
-6.20643e-05
0.00288146
7.72108e-05
0.00272705
0.000194883
0.00265252
0.000284533
0.0026537
0.000354863
0.00271722
0.000408733
0.0028281
0.000447568
0.00297323
0.000474286
0.00314318
0.000491813
0.0033313
0.000500745
0.00353277
0.000499882
0.00374193
0.000486259
0.00395086
0.000457974
0.00414927
0.000416742
0.00432834
0.000371108
0.00449025
0.000329501
0.00463888
0.000297327
0.00479176
0.000275571
0.00494277
0.000252251
0.00511156
0.000234192
0.00526353
0.000191551
0.00542776
0.000172373
0.00010613
0.0105078
-0.000283842
0.0104916
-0.000319845
0.0104332
-0.000368277
0.0103232
-0.000409803
0.0101737
-0.000462853
0.0099682
-0.000511623
0.00970866
-0.000580297
0.00937299
-0.000654333
0.00896423
-0.000747171
0.00847499
-0.000856249
0.00790583
-0.000954876
0.00733379
-0.0011051
0.00664647
-0.00102794
0.00572066
-0.000675806
0.00461078
-0.000311781
0.0033555
-5.18768e-05
0.00220179
5.82729e-05
0.001307
1.20358e-05
0.000692724
-0.000108197
0.000330546
-0.000199973
0.000140135
-0.000193601
5.17629e-05
-0.00012838
3.60652e-05
-4.63666e-05
8.47901e-05
2.84859e-05
0.000193223
8.64501e-05
0.000347243
0.000130513
0.000539986
0.00016212
0.000764619
0.000184099
0.00101322
0.00019897
0.00127909
0.000208413
0.00155773
0.000213171
0.00184374
0.000214738
0.00213231
0.000211307
0.00241661
0.000201959
0.00268798
0.000186605
0.00293861
0.000166114
0.00316563
0.000144086
0.00337173
0.000123406
0.00356256
0.000106497
0.0037454
9.27221e-05
0.00391735
8.0301e-05
0.00408331
6.82317e-05
0.00422142
5.34466e-05
0.00435092
4.28723e-05
2.32059e-05
0.00864052
0.00832067
0.00795239
0.00754259
0.00707974
0.00656811
0.00598782
0.00533348
0.00458631
0.00373006
0.00277519
0.00167008
0.000642149
-3.36569e-05
-0.000345438
-0.000397315
-0.000339042
-0.000327006
-0.000435204
-0.000635177
-0.000828778
-0.000957159
-0.00100353
-0.000975039
-0.000888589
-0.000758076
-0.000595955
-0.000411856
-0.000212886
-4.47246e-06
0.000208699
0.000423437
0.000634744
0.000836703
0.00102331
0.00118942
0.00133351
0.00145691
0.00156341
0.00165613
0.00173644
0.00180467
0.00185811
0.00190099
4.86954e-05
-4.86954e-05
1.11708e-05
3.75246e-05
-0.00016851
0.00017968
-0.000547554
0.000379044
-0.00106652
0.000518969
-0.00162224
0.000555715
-0.00213587
0.000513631
-0.00256871
0.000432842
-0.00289413
0.000325415
-0.00309088
0.000196755
-0.00314392
5.30366e-05
-0.00305479
-8.9129e-05
-0.00282828
-0.000226514
-0.00247379
-0.000354489
-0.00201242
-0.000461365
-0.00147175
-0.000540668
-0.000887139
-0.000584614
-0.000285047
-0.000602092
0.000311654
-0.0005967
0.000871695
-0.000560041
0.00136976
-0.000498067
0.00178634
-0.000416577
0.00210913
-0.000322793
0.00233406
-0.000224924
0.0024632
-0.000129142
0.00250665
-4.34565e-05
0.00248392
2.27346e-05
0.00241045
7.34706e-05
0.00229241
0.000118043
0.00213878
0.000153627
0.00196452
0.000174255
0.00178884
0.000175685
0.00163356
0.00015528
0.0015127
0.000120859
0.00142889
8.38074e-05
0.00138029
4.86004e-05
0.00136223
1.80658e-05
0.00136716
-4.9386e-06
0.0013862
-1.90356e-05
0.00141439
-2.81857e-05
0.00144538
-3.09917e-05
0.00148428
-3.89064e-05
0.0015244
-4.01109e-05
0.00157315
-4.87573e-05
-4.09775e-05
-0.000136187
8.74917e-05
-0.000503217
0.000404555
-0.000932513
0.000608977
-0.00132463
0.000771162
-0.00164455
0.00083889
-0.00189135
0.000802516
-0.00206373
0.000686007
-0.00215207
0.00052118
-0.00214582
0.000319165
-0.00203167
8.26063e-05
-0.00181613
-0.000162503
-0.00148652
-0.000418741
-0.00104303
-0.000669998
-0.000500458
-0.000897064
0.000120779
-0.0010826
0.000788025
-0.00120791
0.00148057
-0.00127716
0.00217528
-0.00129681
0.00284207
-0.00126348
0.0034604
-0.00117837
0.00401021
-0.00104788
0.00447609
-0.000882453
0.00484862
-0.000695325
0.00512545
-0.000501754
0.0053096
-0.000313294
0.00540913
-0.000142984
0.00543144
4.26038e-07
0.00538946
0.000115447
0.00529798
0.000209518
0.00517755
0.000274058
0.00504813
0.000303681
0.00492492
0.000298888
0.0048063
0.000273908
0.00468844
0.000238717
0.00457529
0.000196958
0.0044745
0.000149387
0.00438337
0.000109196
0.00430134
7.70888e-05
0.00421971
6.25925e-05
0.00414534
4.61876e-05
0.00408323
3.11162e-05
0.0040516
-7.27542e-06
0.00404447
-3.29806e-05
0.00406742
-7.17059e-05
-7.80654e-05
-0.000509365
0.000596857
-0.000686133
0.000581323
-0.000716236
0.000639079
-0.00065034
0.000705266
-0.000520053
0.000708603
-0.000349912
0.000632375
-0.000144839
0.000480933
9.95604e-05
0.000276781
0.000395601
2.31248e-05
0.000761742
-0.000283535
0.00120087
-0.000601631
0.00170662
-0.000924494
0.00226665
-0.00123002
0.0028705
-0.00150092
0.00350012
-0.00171222
0.00414034
-0.00184813
0.00476859
-0.00190541
0.00536458
-0.0018928
0.00591638
-0.00181528
0.00640845
-0.00167044
0.00682878
-0.00146821
0.00716922
-0.00122289
0.0074257
-0.000951807
0.00760094
-0.000676995
0.00770152
-0.000413874
0.00773539
-0.000176853
0.00771191
2.39084e-05
0.00763644
0.000190913
0.00752652
0.000319439
0.007393
0.000407579
0.00724513
0.000451544
0.00708953
0.000454488
0.00692887
0.000434577
0.0067676
0.000399984
0.00661525
0.000349306
0.00648648
0.000278164
0.00639177
0.000203905
0.00632215
0.000146708
0.00625585
0.000128893
0.00617485
0.000127187
0.00607311
0.000132857
0.00595739
0.000108446
0.00585265
7.17513e-05
0.00575827
2.26742e-05
-2.53829e-05
-0.000233327
0.000830184
-0.00012383
0.000471826
0.000132486
0.000382763
0.00051497
0.000322782
0.000980111
0.000243463
0.00148946
0.000123021
0.00202222
-5.1824e-05
0.00256408
-0.000265075
0.00312588
-0.000538675
0.00369919
-0.000856845
0.00428628
-0.00118873
0.00488459
-0.0015228
0.00548844
-0.00183388
0.00608044
-0.00209291
0.00664553
-0.00227732
0.00717282
-0.00237542
0.00765053
-0.00238312
0.00807181
-0.00231408
0.00843303
-0.0021765
0.00873033
-0.00196774
0.00896158
-0.00169946
0.00912826
-0.00138956
0.00923282
-0.00105637
0.00927974
-0.000723917
0.00928112
-0.00041526
0.00924628
-0.000142012
0.00917026
9.99298e-05
0.00906158
0.000299592
0.00893463
0.000446394
0.00879373
0.00054848
0.00863731
0.000607963
0.00846852
0.000623277
0.00829909
0.000603999
0.00813437
0.000564711
0.00797032
0.000513351
0.00780623
0.000442255
0.00765126
0.000358874
0.00751586
0.000282104
0.00740907
0.000235691
0.00731195
0.000224299
0.00721958
0.000225229
0.00709962
0.000228411
0.00697802
0.00019335
0.00682969
0.000170998
0.000101672
0.000942929
0.00165867
0.0023518
0.00304465
0.00373385
0.00441707
0.00508868
0.0057527
0.00639195
0.00700049
0.00757535
0.00810825
0.00858456
0.00899409
0.00932227
0.00956789
0.00974756
0.00986684
0.00992666
0.00993666
0.00990489
0.00984234
0.0097591
0.00966418
0.00956463
0.00946373
0.00935453
0.00924835
0.00914308
0.00903657
0.00892475
0.0088036
0.00867101
0.00852868
0.0083813
0.00823032
0.00808336
0.00794167
0.00781607
0.00769337
0.00758416
0.00745707
0.00733633
0.00718892
)
;

boundaryField
{
    inlet
    {
        type            calculated;
        value           nonuniform List<scalar> 5(-0.01 -0.01 -0.01 -0.01 -0.01);
    }
    outlet
    {
        type            calculated;
        value           nonuniform List<scalar> 10(0.00675345 0.00615252 0.00555443 0.00443384 0.00192419 0.00161413 0.00410451 0.00570559 0.00670264 0.0070547);
    }
    upperWall
    {
        type            calculated;
        value           uniform 0;
    }
    lowerWall
    {
        type            calculated;
        value           uniform 0;
    }
    frontAndBack
    {
        type            empty;
        value           nonuniform List<scalar> 0();
    }
}


// ************************************************************************* //
