/*--------------------------------*- C++ -*----------------------------------*\
  =========                 |
  \\      /  F ield         | OpenFOAM: The Open Source CFD Toolbox
   \\    /   O peration     | Website:  https://openfoam.org
    \\  /    A nd           | Version:  10
     \\/     M anipulation  |
\*---------------------------------------------------------------------------*/
FoamFile
{
    format      ascii;
    class       volScalarField;
    location    "3.3";
    object      p;
}
// * * * * * * * * * * * * * * * * * * * * * * * * * * * * * * * * * * * * * //

dimensions      [0 2 -2 0 0 0 0];

internalField   nonuniform List<scalar> 
8000
(
-6.60595e-07
-1.79093e-05
1.00336e-05
6.49938e-05
0.000151773
0.000270544
0.000420805
0.000601434
0.000810332
0.00104412
0.00129817
0.00156602
0.0018394
0.00210837
0.00236154
0.00258666
0.00277134
0.00290446
0.00298465
0.00298161
1.27684e-05
-4.85509e-06
2.32702e-05
7.64251e-05
0.000160439
0.000275799
0.000422271
0.000598997
0.000804145
0.00103467
0.001286
0.00155172
0.00182424
0.00209339
0.00234767
0.0025746
0.00276142
0.00289671
0.00297974
0.0029761
-2.32809e-05
-4.36906e-05
-1.65503e-05
3.51431e-05
0.00011784
0.000232224
0.000378368
0.000555792
0.000763057
0.000997484
0.00125488
0.00152948
0.00181303
0.0020953
0.00236417
0.00260608
0.0028068
0.00295303
0.00304351
0.00303851
-9.2631e-05
-0.000115729
-8.98987e-05
-3.99851e-05
4.12391e-05
0.000154806
0.000301292
0.000480801
0.000692521
0.000934396
0.00120275
0.00149199
0.00179459
0.00209963
0.00239387
0.0026619
0.00288703
0.00305285
0.00315679
0.00315238
-0.000201255
-0.000227589
-0.000203442
-0.000155605
-7.58953e-05
3.71874e-05
0.000184892
0.000368112
0.000586902
0.000840098
0.00112486
0.00143615
0.00176678
0.00210543
0.00243759
0.00274539
0.00300831
0.00320499
0.00333034
0.00332831
-0.000351091
-0.000381491
-0.000359553
-0.000314426
-0.000236758
-0.00012445
2.45974e-05
0.0002123
0.000439864
0.000707354
0.00101316
0.00135324
0.00172115
0.00210543
0.00249014
0.0028543
0.00317218
0.00341491
0.00357287
0.00357597
-0.000544338
-0.000579831
-0.000560871
-0.000519557
-0.000445124
-0.00033475
-0.000185292
6.44846e-06
0.000243156
0.00052654
0.000856764
0.00123193
0.00164555
0.00208821
0.00254231
0.00298334
0.00337891
0.00368907
0.00389613
0.003909
-0.000783798
-0.00082562
-0.000810692
-0.000774837
-0.000705612
-0.00059938
-0.000451758
-0.000257991
-1.35638e-05
0.00028532
0.000641072
0.00105399
0.00152245
0.00203658
0.00257893
0.00312201
0.00362557
0.00403438
0.00431579
0.00434927
-0.00107291
-0.00112248
-0.0011129
-0.0010847
-0.00102351
-0.000924817
-0.000782832
-0.000590993
-0.000342575
-3.11534e-05
0.000348591
0.000799806
0.00132837
0.00192515
0.00257536
0.00325046
0.00390205
0.0044557
0.00485101
0.00492811
-0.00141596
-0.00147485
-0.00147205
-0.00145417
-0.00140466
-0.00131814
-0.00118731
-0.00100362
-0.000757809
-0.000440094
-4.04284e-05
0.000450517
0.00103325
0.00171716
0.00249232
0.00333259
0.00418345
0.00494983
0.00552267
0.00569417
-0.00181859
-0.00188832
-0.00189355
-0.00188884
-0.00185528
-0.00178671
-0.00167426
-0.0015074
-0.00127439
-0.00096229
-0.000556902
-4.33564e-05
0.000592121
0.00135867
0.00226853
0.0033052
0.0044164
0.0054922
0.00634694
0.00672174
-0.00228884
-0.0023704
-0.00238403
-0.00239495
-0.00238177
-0.00233764
-0.00225218
-0.00211296
-0.00190612
-0.00161605
-0.00122477
-0.00071126
-5.14822e-05
0.000781457
0.0018149
0.00306211
0.00449415
0.00600982
0.00731277
0.00812523
-0.00283925
-0.00293167
-0.00295195
-0.0029795
-0.00299045
-0.00297726
-0.00292796
-0.00282849
-0.00266352
-0.00241598
-0.00206584
-0.00158795
-0.000949313
-0.000105198
0.000993509
0.00242462
0.00421098
0.00632171
0.00830291
0.0101107
-0.00349367
-0.00358942
-0.00360908
-0.00365082
-0.00368764
-0.00371071
-0.00370594
-0.00365782
-0.00355055
-0.00336755
-0.00308998
-0.00269309
-0.00214014
-0.00137266
-0.000299962
0.00119006
0.00324751
0.00603038
0.00899289
0.0127981
-0.00428185
-0.00437384
-0.00437894
-0.00442796
-0.00448531
-0.00454284
-0.00458584
-0.00459716
-0.00456078
-0.00446289
-0.00429151
-0.0040325
-0.00366246
-0.00313253
-0.00234662
-0.00112887
0.000823631
0.00430669
0.00848123
0.0158707
-0.00535811
-0.00525354
-0.00519151
-0.00520611
-0.00529044
-0.00540893
-0.00552862
-0.0056209
-0.00566802
-0.0056635
-0.00561105
-0.00551773
-0.00539284
-0.00522563
-0.00496363
-0.00438962
-0.00315212
0.000325409
0.00478862
0.01778
-0.00645585
-0.00665567
-0.00649602
-0.00654571
-0.00658898
-0.00666337
-0.00675536
-0.00684439
-0.00691903
-0.0069753
-0.00703113
-0.0071191
-0.00730707
-0.0076713
-0.00829315
-0.00903154
-0.0102384
-0.00749106
-0.00327519
0.0184859
-0.0101661
-0.00747363
-0.00713931
-0.00681549
-0.00688086
-0.00709306
-0.00736897
-0.00763119
-0.00785462
-0.00802747
-0.00819607
-0.00840527
-0.00880577
-0.00951514
-0.0109211
-0.0125206
-0.016398
-0.0143034
-0.010148
0.0235907
-0.0102249
-0.0111585
-0.0101019
-0.0100313
-0.00970466
-0.00954381
-0.00946811
-0.00943957
-0.00944678
-0.00945842
-0.0095227
-0.0096983
-0.0101534
-0.0111104
-0.0132346
-0.0157861
-0.0221184
-0.019531
-0.0126839
0.0479102
-0.0339315
-0.00889369
-0.00792055
-0.00711578
-0.00692144
-0.00724532
-0.00775298
-0.00819804
-0.00859852
-0.00887773
-0.00920677
-0.00949077
-0.0101132
-0.0107906
-0.0122436
-0.0123788
-0.0116938
0.00447737
0.0400319
0.142757
1.56613e-06
-2.41611e-05
2.85827e-06
5.73487e-05
0.000144513
0.000264135
0.000415558
0.000597674
0.000808339
0.00104431
0.00130069
0.00157105
0.00184716
0.00211898
0.00237494
0.00260255
0.00278894
0.00292208
0.00300096
0.00298637
2.52907e-05
-1.19524e-06
2.63613e-05
7.85882e-05
0.000162176
0.000277321
0.000423681
0.00060042
0.000805733
0.0010366
0.00128852
0.00155511
0.00182861
0.00209896
0.00235452
0.00258263
0.00277012
0.00290477
0.00298668
0.00297059
-7.91157e-06
-3.83129e-05
-1.17982e-05
3.8812e-05
0.000120928
0.000234924
0.000380777
0.000558034
0.000765301
0.000999943
0.00125778
0.00153311
0.00181764
0.00210115
0.00237141
0.00261465
0.00281613
0.00296168
0.00305091
0.00303168
-7.46096e-05
-0.000108463
-8.32639e-05
-3.45424e-05
4.59788e-05
0.000159017
0.000305056
0.000484237
0.000695804
0.000937754
0.00120646
0.00149646
0.00180003
0.00210638
0.00240211
0.00267165
0.00289768
0.00306275
0.00316526
0.00314473
-0.000180966
-0.000218859
-0.000195319
-0.000148724
-6.97571e-05
4.27606e-05
0.000189986
0.000372857
0.000591492
0.000844791
0.00112998
0.00144217
0.00177397
0.00211423
0.00244827
0.00275799
0.00302216
0.00321808
0.00334175
0.00332105
-0.000328327
-0.000371254
-0.000349869
-0.000306007
-0.000229079
-0.000117326
3.12672e-05
0.000218671
0.000446158
0.000713864
0.00102024
0.00136144
0.00173102
0.00211748
0.00250477
0.00287161
0.00319141
0.00343355
0.00358954
0.00357046
-0.000518537
-0.000567741
-0.000549247
-0.000509218
-0.000435516
-0.000325679
-0.000176635
1.48808e-05
0.000251632
0.000535397
0.000866336
0.00124229
0.00165903
0.0021049
0.00256276
0.00300784
0.00340662
0.00371685
0.00392177
0.00390885
-0.00075418
-0.000811151
-0.000796574
-0.000762034
-0.000693551
-0.000587857
-0.000440619
-0.000247002
-2.38868e-06
0.000297085
0.000653677
0.00106707
0.00154062
0.00205965
0.00260773
0.00315731
0.00366662
0.0040771
0.00435645
0.00435912
-0.00103844
-0.00110491
-0.00109553
-0.00106872
-0.00100833
-0.000910235
-0.000768656
-0.000576918
-0.000328164
-1.59079e-05
0.000364299
0.00080746
0.00135208
0.00195678
0.00261595
0.00330181
0.00396402
0.00452318
0.00491741
0.00495873
-0.00137525
-0.00145316
-0.00145041
-0.00143406
-0.00138553
-0.00129979
-0.0011695
-0.000985937
-0.00073962
-0.000420327
-1.64269e-05
0.000490708
0.00106852
0.00176041
0.00254924
0.00340754
0.00427825
0.0050592
0.00563397
0.00576982
-0.00176968
-0.00186108
-0.00186619
-0.00186334
-0.00183115
-0.00176376
-0.0016522
-0.00148569
-0.00125221
-0.000938419
-0.000529381
-9.11446e-06
0.000632068
0.00141541
0.0023471
0.00341379
0.00456165
0.0056721
0.00653826
0.0069044
-0.00222872
-0.00233544
-0.00234884
-0.00236228
-0.00235127
-0.00230917
-0.00222533
-0.00208701
-0.00188001
-0.00158824
-0.00119296
-0.000672064
-1.013e-06
0.000852655
0.00191883
0.00321458
0.00471266
0.00630331
0.00764956
0.00855829
-0.00276284
-0.00288544
-0.00290565
-0.00293713
-0.00295181
-0.00294224
-0.00289601
-0.00279859
-0.00263425
-0.00238538
-0.00203093
-0.00154404
-0.000888538
-2.38214e-05
0.00112893
0.00262974
0.00452404
0.00677274
0.00887739
0.0111376
-0.00339165
-0.00352523
-0.00354471
-0.0035933
-0.00363754
-0.00366787
-0.00366921
-0.00362546
-0.00352049
-0.00333726
-0.00305575
-0.00264871
-0.00207488
-0.00126956
-0.000151898
0.00140318
0.00360615
0.0066121
0.00979317
0.014782
-0.00413518
-0.00428733
-0.00429509
-0.00435913
-0.00442825
-0.00449654
-0.00454893
-0.00456773
-0.00453625
-0.00444041
-0.00426722
-0.00400127
-0.00361804
-0.00306826
-0.00225907
-0.00103256
0.000998903
0.00462812
0.00866087
0.0181648
-0.00512295
-0.00507238
-0.00502968
-0.00507132
-0.00518873
-0.00533783
-0.00548386
-0.00559679
-0.00565927
-0.00566281
-0.00561118
-0.00551196
-0.00537817
-0.00520976
-0.00498495
-0.0045543
-0.00372998
-0.00100564
0.00145306
0.0172828
-0.00600182
-0.00644134
-0.00630001
-0.00643805
-0.00653293
-0.00665304
-0.00677841
-0.00689123
-0.00698213
-0.00704554
-0.00710002
-0.00718045
-0.00736636
-0.00777244
-0.00859541
-0.00996753
-0.0130395
-0.0121646
-0.0118699
0.0130718
-0.00946032
-0.00693898
-0.00668588
-0.00648328
-0.00669824
-0.00702964
-0.00739433
-0.00771975
-0.00798591
-0.00817479
-0.00834184
-0.00852745
-0.00891463
-0.00965507
-0.0113923
-0.0137632
-0.0201366
-0.0213744
-0.0218364
0.0189287
-0.00731689
-0.00997089
-0.0094008
-0.00983441
-0.00982672
-0.00984984
-0.00989322
-0.00992496
-0.00995626
-0.00994771
-0.0099464
-0.010044
-0.0103986
-0.0112735
-0.0137863
-0.0167999
-0.0254481
-0.0259344
-0.0163837
0.0519573
-0.0313036
-0.00683485
-0.00630461
-0.00614246
-0.00639146
-0.00696507
-0.00766436
-0.00823011
-0.0087499
-0.0090323
-0.0093949
-0.00960037
-0.0102644
-0.0109073
-0.0125926
-0.0130715
-0.0119301
0.00507294
0.052419
0.171103
5.9877e-06
-2.26019e-05
3.96396e-06
5.78662e-05
0.000144893
0.000264681
0.000416507
0.000599174
0.000810635
0.00104758
0.00130524
0.00157715
0.00185499
0.00212859
0.00238629
0.00261537
0.0028027
0.00293582
0.00301403
0.0029951
3.37535e-05
3.86448e-06
3.09385e-05
8.24443e-05
0.00016561
0.000280512
0.000426783
0.000603591
0.000809161
0.0010405
0.00129311
0.00156062
0.00183522
0.00210678
0.00236358
0.00259279
0.00278093
0.00291542
0.00299676
0.0029766
2.42504e-06
-3.18348e-05
-5.87289e-06
4.39072e-05
0.000125499
0.000239142
0.000384789
0.000562006
0.00076943
0.00100446
0.00126293
0.00153917
0.00182483
0.00210965
0.00238128
0.00262578
0.00282806
0.00297351
0.00306219
0.00303834
-6.21594e-05
-0.000100221
-7.56247e-05
-2.78404e-05
5.20512e-05
0.000164623
0.00031034
0.000489375
0.00070101
0.000943288
0.00121262
0.00150358
0.0018084
0.00211623
0.00241359
0.00268466
0.00291177
0.00307689
0.00317889
0.00315321
-0.000166387
-0.000208861
-0.000185954
-0.000140381
-6.21186e-05
4.98598e-05
0.000196701
0.000379385
0.000598083
0.000851754
0.00113768
0.00145102
0.00178435
0.0021265
0.00246267
0.00277449
0.00304026
0.00323656
0.00335986
0.00333333
-0.000311295
-0.000359242
-0.000338509
-0.000295751
-0.0002196
-0.000108451
3.97108e-05
0.000226913
0.000454502
0.000722694
0.00103002
0.00137272
0.00174429
0.0021333
0.00252355
0.00289346
0.00321582
0.00345898
0.00361492
0.00358917
-0.000498473
-0.000553223
-0.0005354
-0.000496584
-0.000423758
-0.000314619
-0.000166075
2.52192e-05
0.000262129
0.00054656
0.000878818
0.00125687
0.0016762
0.00212553
0.00258765
0.00303741
0.00344041
0.00375294
0.00395851
0.0039375
-0.000730256
-0.00079341
-0.00077954
-0.000746378
-0.000678936
-0.000574102
-0.000427496
-0.000234169
1.0643e-05
0.000311037
0.000669716
0.00108716
0.00156296
0.00208649
0.00264078
0.00319763
0.00371407
0.00412933
0.00441088
0.00440451
-0.00100951
-0.00108294
-0.00107435
-0.00104918
-0.000990117
-0.000893171
-0.000752479
-0.000561214
-0.000312322
1.06731e-06
0.00038481
0.000842294
0.00138091
0.00199106
0.00265935
0.0033566
0.00403092
0.00459969
0.00499933
0.0050324
-0.00133973
-0.00142554
-0.00142372
-0.00140946
-0.00136275
-0.00127868
-0.00114975
-0.000967064
-0.000720957
-0.000401065
3.47421e-06
0.000503581
0.00109894
0.00180213
0.00260481
0.00348078
0.00437181
0.00517163
0.0057584
0.0058928
-0.00172526
-0.00182573
-0.00183208
-0.00183206
-0.00180254
-0.00173771
-0.00162835
-0.00146346
-0.00123078
-0.000916668
-0.000505959
1.73652e-05
0.000668062
0.00146484
0.00241556
0.00350849
0.00468934
0.00583521
0.00672716
0.00711383
-0.00217195
-0.00228928
-0.00230448
-0.00232202
-0.00231513
-0.00227709
-0.0021969
-0.00206154
-0.00185646
-0.00156514
-0.00116824
-0.000642686
3.85495e-05
0.000906984
0.00199717
0.00332936
0.00487837
0.00653173
0.00793227
0.00892327
-0.00268836
-0.00282365
-0.00284672
-0.00288447
-0.00290573
-0.0029028
-0.00286267
-0.00277047
-0.00261004
-0.00236326
-0.00200843
-0.00151779
-0.00085392
2.96835e-05
0.00120862
0.00275333
0.00471804
0.00706701
0.00928207
0.011766
-0.00329041
-0.00343945
-0.00346347
-0.00352209
-0.00357744
-0.00361909
-0.00363083
-0.0035961
-0.00349839
-0.00332005
-0.00304056
-0.00263173
-0.00204968
-0.0012195
-9.2366e-05
0.00149617
0.0037722
0.00691539
0.0102715
0.0156871
-0.00399341
-0.00416833
-0.00418421
-0.00426568
-0.00435218
-0.00443804
-0.00450698
-0.0045405
-0.00452157
-0.00443471
-0.00426774
-0.00400605
-0.00362753
-0.00309296
-0.0022781
-0.00106569
0.000957014
0.00467815
0.00881796
0.0189162
-0.00491421
-0.00488583
-0.00485905
-0.00492626
-0.00507427
-0.00525498
-0.00543148
-0.00557152
-0.00565578
-0.00567558
-0.00563543
-0.00554502
-0.00542261
-0.00527752
-0.00510374
-0.00479413
-0.00422456
-0.00178736
0.000529451
0.0167798
-0.00566167
-0.00616049
-0.00604727
-0.00624403
-0.0063914
-0.00656414
-0.00673925
-0.00689501
-0.00701855
-0.00710407
-0.0071729
-0.00726426
-0.00746839
-0.00792471
-0.00889812
-0.0105939
-0.0145188
-0.0145472
-0.0139243
0.0108915
-0.0090363
-0.00655327
-0.0063104
-0.00617095
-0.00646773
-0.0068822
-0.00733272
-0.0077279
-0.0080479
-0.00827168
-0.00845953
-0.00865182
-0.00905553
-0.0098411
-0.0117867
-0.0145581
-0.0218427
-0.0243624
-0.0234944
0.0180963
-0.00623886
-0.00913041
-0.00870983
-0.00931254
-0.00945113
-0.00964939
-0.00985605
-0.0100098
-0.0101283
-0.0101677
-0.010179
-0.0102693
-0.0106118
-0.0114899
-0.0142507
-0.0175898
-0.0267188
-0.0270146
-0.0133016
0.0569584
-0.0304809
-0.00598515
-0.00550275
-0.00550982
-0.00594864
-0.00668769
-0.00753252
-0.00820626
-0.00881456
-0.00913728
-0.00953243
-0.00972591
-0.0104141
-0.0111166
-0.0128592
-0.0134112
-0.011344
0.00729925
0.0604797
0.182999
1.10724e-05
-1.93144e-05
6.68402e-06
6.01084e-05
0.00014695
0.00026678
0.000418849
0.000601995
0.000814143
0.00105199
0.00131076
0.00158394
0.00186319
0.0021383
0.00239744
0.00262777
0.00281589
0.00294911
0.00302697
0.0030058
4.10251e-05
9.37417e-06
3.59395e-05
8.68362e-05
0.000169633
0.000284347
0.000430595
0.000607561
0.000813485
0.00104539
0.00129879
0.0015673
0.00184307
0.00211591
0.00237398
0.00260429
0.00279312
0.00292765
0.00300866
0.00298606
1.1163e-05
-2.50172e-05
3.96881e-07
4.94866e-05
0.000130623
0.000243985
0.000389515
0.0005668
0.000774501
0.00101004
0.00126928
0.00154654
0.00183343
0.00211964
0.00239271
0.00263849
0.00284163
0.00298722
0.00307561
0.00304901
-5.15996e-05
-9.17194e-05
-6.7712e-05
-2.07027e-05
5.86405e-05
0.000170829
0.00031633
0.000495341
0.000707186
0.000949945
0.00122006
0.00151214
0.00181835
0.00212783
0.00242693
0.00269964
0.00292795
0.00309343
0.00319527
0.00316655
-0.000153848
-0.000198531
-0.000176258
-0.000131544
-5.39132e-05
5.76011e-05
0.000204154
0.000386769
0.000605671
0.000859878
0.00114672
0.00146141
0.00179647
0.0021407
0.0024792
0.00279331
0.00306094
0.00325807
0.00338148
0.00335159
-0.000296418
-0.000346752
-0.000326706
-0.000284906
-0.000209479
-9.88834e-05
4.89205e-05
0.00023602
0.00046384
0.000732682
0.00104116
0.00138558
0.00175939
0.00215119
0.00254469
0.00291799
0.00324331
0.0034882
0.00364485
0.00361545
-0.000480689
-0.000538042
-0.000520979
-0.000483253
-0.000411286
-0.000302831
-0.000154753
3.63799e-05
0.000273546
0.000558786
0.000892553
0.0012729
0.00169511
0.00214824
0.00261499
0.00306988
0.00347773
0.00379365
0.00400112
0.00397638
-0.000708759
-0.000774785
-0.000761782
-0.000729911
-0.000663539
-0.000559607
-0.000413662
-0.000220634
2.44021e-05
0.000325764
0.000686451
0.00110715
0.00158644
0.00211505
0.00267601
0.0032407
0.00376515
0.00418685
0.00447262
0.00446319
-0.000983183
-0.00105982
-0.00105226
-0.0010287
-0.000971054
-0.00087538
-0.000735704
-0.000545036
-0.000296109
1.82617e-05
0.000404512
0.000867059
0.00140916
0.00202607
0.00270396
0.00341312
0.0041006
0.00468132
0.00508969
0.00512256
-0.00130699
-0.00139644
-0.00139594
-0.00138378
-0.00133906
-0.00125688
-0.00112958
-0.000948063
-0.000702417
-0.000382051
2.39845e-05
0.000526408
0.00112973
0.00184309
0.00265947
0.00355325
0.00446544
0.00528696
0.00589113
0.00603403
-0.00168387
-0.00178853
-0.00179667
-0.00179954
-0.00177294
-0.00171102
-0.00160432
-0.00144155
-0.00121014
-0.00089613
-0.000484002
4.28632e-05
0.000701476
0.00151048
0.00247924
0.00359748
0.00481125
0.00599523
0.00692168
0.00733947
-0.00211863
-0.00224089
-0.00225863
-0.00228034
-0.00227788
-0.00224441
-0.00216854
-0.00203684
-0.0018344
-0.00154431
-0.00114672
-0.000617748
7.11769e-05
0.000952769
0.00206454
0.00343
0.00502744
0.0067448
0.00821281
0.00928897
-0.00261816
-0.00275947
-0.0027863
-0.00283031
-0.00285843
-0.00286269
-0.00282952
-0.00274346
-0.00258792
-0.00234435
-0.00199057
-0.00149829
-0.000828785
6.61222e-05
0.00126629
0.00284814
0.00487671
0.0073249
0.00966973
0.0123615
-0.00319545
-0.00335223
-0.00338193
-0.0034502
-0.00351641
-0.00356957
-0.00359248
-0.00356776
-0.0034784
-0.00330642
-0.00303133
-0.00262435
-0.00204062
-0.001201
-6.73528e-05
0.001546
0.00388417
0.00715199
0.0107281
0.0165597
-0.00386311
-0.00404954
-0.00407464
-0.00417196
-0.00427497
-0.00437805
-0.00446387
-0.00451292
-0.00450736
-0.00443185
-0.00427435
-0.00402128
-0.00365289
-0.00313589
-0.0023385
-0.00115862
0.000847682
0.00464863
0.0090568
0.0198036
-0.00472784
-0.00471137
-0.00469878
-0.00478834
-0.00496315
-0.00517268
-0.00537771
-0.00554383
-0.00565055
-0.00568896
-0.00566459
-0.00558998
-0.00548937
-0.00538274
-0.00528388
-0.00510582
-0.00470011
-0.00257283
-0.000137446
0.0169085
-0.00538555
-0.00592347
-0.00583033
-0.00607267
-0.00626224
-0.00647827
-0.00669431
-0.00688506
-0.00703883
-0.00714902
-0.00723864
-0.00735162
-0.00759005
-0.00811622
-0.00924869
-0.0112457
-0.0159563
-0.0167041
-0.0159252
0.0100458
-0.00866204
-0.00620935
-0.0059891
-0.00589889
-0.00625709
-0.00674035
-0.00725538
-0.00770778
-0.00807618
-0.00833628
-0.00855201
-0.00876755
-0.0092105
-0.010072
-0.0122344
-0.0153847
-0.0235543
-0.0271164
-0.0263187
0.0184732
-0.00559674
-0.00864247
-0.00824866
-0.00896212
-0.00920324
-0.00949886
-0.00979584
-0.0100284
-0.0102115
-0.0102955
-0.0103303
-0.0104348
-0.0107946
-0.0117233
-0.0146876
-0.0183261
-0.0280334
-0.0286898
-0.0134858
0.0606097
-0.0297627
-0.00527145
-0.00484418
-0.00496388
-0.00553956
-0.00640988
-0.00737442
-0.00814548
-0.00883592
-0.00921158
-0.00964384
-0.0098561
-0.0105755
-0.011339
-0.0131557
-0.0138213
-0.0116643
0.0076453
0.0630495
0.190395
1.63297e-05
-1.46838e-05
1.10019e-05
6.40786e-05
0.000150718
0.000270489
0.000422653
0.000606063
0.00081865
0.00105713
0.00131671
0.00159089
0.00187128
0.0021476
0.00240793
0.0026393
0.00282815
0.00296166
0.00303952
0.00301755
4.72407e-05
1.48925e-05
4.11386e-05
9.16404e-05
0.000174172
0.000288748
0.000435
0.000612127
0.000818387
0.00105082
0.00130494
0.00157438
0.00185121
0.00212522
0.00238446
0.0026158
0.00280539
0.00294025
0.00302132
0.00299796
1.84056e-05
-1.85382e-05
6.52433e-06
5.51666e-05
0.000135984
0.000249151
0.000394629
0.000572027
0.000780032
0.00101609
0.00127608
0.00155431
0.00184238
0.0021299
0.00240432
0.00265135
0.00285546
0.00300153
0.00309009
0.00306268
-4.29272e-05
-8.38757e-05
-6.02594e-05
-1.37646e-05
6.5188e-05
0.000177109
0.000322487
0.000501557
0.000713677
0.000956964
0.00122789
0.00152107
0.00182866
0.00213972
0.00244052
0.00271487
0.00294453
0.00311081
0.00321303
0.00318348
-0.000143466
-0.000189054
-0.000167219
-0.000123096
-4.59332e-05
6.52354e-05
0.0002116
0.000394231
0.000613407
0.000868201
0.00115599
0.00147201
0.00180878
0.00215506
0.00249584
0.00281226
0.00308191
0.00328039
0.0034046
0.00337389
-0.000283939
-0.000335267
-0.000315719
-0.000274605
-0.000199748
-8.95977e-05
5.79329e-05
0.000244998
0.000473098
0.000742618
0.00105224
0.00139833
0.00177434
0.00216888
0.00256555
0.00294222
0.00327068
0.0035179
0.00367607
0.00364597
-0.000465575
-0.000524031
-0.00050755
-0.000470646
-0.000399396
-0.000291537
-0.000143867
4.71371e-05
0.000284563
0.000570575
0.000905746
0.00128821
0.00171325
0.00217006
0.00264128
0.00310117
0.00351398
0.00383392
0.00404421
0.00401918
-0.000690274
-0.000757538
-0.000745244
-0.000714398
-0.000648974
-0.000545882
-0.000400579
-0.000207867
3.73265e-05
0.000339501
0.000701855
0.00112521
0.00160808
0.00214158
0.00270884
0.00328094
0.00381324
0.00424187
0.00453282
0.00452421
-0.000960324
-0.00103836
-0.00103171
-0.00100949
-0.000953155
-0.000858719
-0.000720082
-0.00053009
-0.000281282
3.37707e-05
0.000421812
0.000887567
0.001434
0.00205735
0.00274397
0.00346403
0.00416379
0.00475638
0.00517421
0.00521068
-0.00127837
-0.00136944
-0.00137015
-0.00135981
-0.00131697
-0.00123666
-0.00111106
-0.000930848
-0.00068589
-0.000365342
4.20317e-05
0.000547369
0.00115628
0.00187803
0.00270623
0.00361559
0.00454665
0.00538825
0.00600963
0.00616279
-0.00164756
-0.00175413
-0.00176394
-0.00176937
-0.00174553
-0.00168648
-0.00158251
-0.00142206
-0.0011923
-0.000878945
-0.000466098
6.34432e-05
0.000727767
0.0015464
0.00253005
0.0036695
0.00491129
0.00612844
0.00708655
0.00752963
-0.00207187
-0.00219644
-0.00221656
-0.00224196
-0.00224361
-0.00221454
-0.002143
-0.00201522
-0.00181598
-0.00152801
-0.00113106
-0.000600581
9.28387e-05
0.000983592
0.0021123
0.00350425
0.00514096
0.00691126
0.00843705
0.0095723
-0.00255707
-0.00270125
-0.0027315
-0.00278089
-0.00281517
-0.00282614
-0.00279972
-0.00272
-0.00257005
-0.00233102
-0.00198057
-0.00148964
-0.000819711
7.83298e-05
0.00129577
0.0029058
0.00498361
0.00751161
0.00996138
0.0127789
-0.0031143
-0.00327481
-0.00330943
-0.00338559
-0.00346105
-0.00352439
-0.00355766
-0.00354284
-0.00346253
-0.00329866
-0.00303033
-0.0026291
-0.00205162
-0.0012295
-7.63986e-05
0.00155392
0.00393665
0.00730472
0.0110614
0.0171259
-0.00375502
-0.00394682
-0.00397912
-0.00408838
-0.0042047
-0.00432235
-0.00442323
-0.00448705
-0.00449532
-0.00443253
-0.00428686
-0.00404538
-0.00368815
-0.0031724
-0.0024172
-0.00127401
0.000702416
0.00459864
0.00927898
0.0203888
-0.00457989
-0.00456854
-0.00456578
-0.00467124
-0.00486573
-0.00509748
-0.00532573
-0.0055147
-0.00564268
-0.00570019
-0.00569382
-0.00563825
-0.00556153
-0.00549008
-0.00546148
-0.00541247
-0.00533806
-0.003121
-0.000360307
0.0171632
-0.00518813
-0.00574011
-0.00565722
-0.00592627
-0.00614339
-0.00638987
-0.00663691
-0.00685922
-0.00704147
-0.0071769
-0.00729004
-0.00742865
-0.0077031
-0.00828996
-0.0095374
-0.0117057
-0.0166625
-0.0180311
-0.0169004
0.00989668
-0.00840062
-0.00595807
-0.005751
-0.00568753
-0.0060815
-0.00660744
-0.00716769
-0.00766551
-0.00807502
-0.00836993
-0.00861629
-0.00886182
-0.00934756
-0.0102806
-0.0126057
-0.0160116
-0.0247475
-0.0289776
-0.0280049
0.0189585
-0.00528917
-0.00835462
-0.00794695
-0.00869783
-0.00898138
-0.00933079
-0.00969264
-0.00998492
-0.0102206
-0.010347
-0.0104133
-0.0105472
-0.0109405
-0.0119321
-0.0150501
-0.0189234
-0.0290384
-0.0299903
-0.0136524
0.0623317
-0.0293814
-0.00486813
-0.00445132
-0.00460863
-0.00524657
-0.00619176
-0.00723447
-0.00807446
-0.00882501
-0.00924685
-0.00971629
-0.00995969
-0.0107147
-0.0115425
-0.0134426
-0.0142253
-0.0120804
0.00754099
0.0643752
0.193579
2.12823e-05
-1.00069e-05
1.54663e-05
6.83063e-05
0.000154792
0.000274512
0.000426745
0.000610362
0.000823309
0.00106231
0.00132257
0.00159759
0.00187893
0.00215626
0.0024176
0.00264988
0.00283942
0.00297334
0.00305136
0.00302914
5.26724e-05
2.00419e-05
4.60728e-05
9.63191e-05
0.00017867
0.000293159
0.000439439
0.000616731
0.000823309
0.00105623
0.00131101
0.00158127
0.00185906
0.00213412
0.00239441
0.00262672
0.00281707
0.00295238
0.00303366
0.00301004
2.46071e-05
-1.26412e-05
1.21857e-05
6.05388e-05
0.000141138
0.000254179
0.000399649
0.000577183
0.000785493
0.00102205
0.00128273
0.00156186
0.00185099
0.00213972
0.00241538
0.00266358
0.00286865
0.00301534
0.00310422
0.00307656
-3.5596e-05
-7.68743e-05
-5.3524e-05
-7.36685e-06
7.13138e-05
0.000183053
0.000328373
0.000507542
0.000719955
0.000963761
0.00123545
0.00152966
0.00183852
0.00215105
0.00245342
0.00272932
0.00296032
0.00312753
0.00323031
0.00320054
-0.0001347
-0.000180647
-0.00015912
-0.000115397
-3.8576e-05
7.23408e-05
0.000218586
0.000401279
0.000620746
0.000876111
0.00116479
0.00148205
0.0018204
0.00216858
0.00251146
0.00283005
0.00310167
0.00330164
0.00342681
0.003396
-0.000273365
-0.000325086
-0.000305903
-0.000265277
-0.000190858
-8.10581e-05
6.62662e-05
0.000253335
0.000481717
0.000751871
0.00106255
0.00141016
0.00178818
0.00218523
0.00258481
0.00296459
0.00329604
0.00354568
0.00370552
0.00367556
-0.000452707
-0.0005116
-0.000495568
-0.000459278
-0.00038861
-0.000281254
-0.000133932
5.69662e-05
0.000294626
0.000581317
0.000917718
0.00130205
0.00172966
0.00218979
0.00266506
0.00312947
0.00354687
0.00387076
0.00408394
0.00405954
-0.000674468
-0.000742226
-0.000730506
-0.000700464
-0.000635844
-0.000533497
-0.000388781
-0.000196382
4.89051e-05
0.000351729
0.000715447
0.00114102
0.0016271
0.00216497
0.0027378
0.00331647
0.0038558
0.00429088
0.00458682
0.00457993
-0.000940714
-0.00101933
-0.00101344
-0.0009923
-0.000937116
-0.000843808
-0.00070615
-0.000516843
-0.000268251
4.72508e-05
0.000436635
0.000904844
0.00145515
0.00208408
0.00277823
0.00350767
0.00421809
0.00482123
0.00524767
0.00528816
-0.00125379
-0.00134554
-0.0013473
-0.00133847
-0.0012973
-0.00121871
-0.00109471
-0.000915803
-0.00067164
-0.000351136
5.72358e-05
0.000564996
0.00117825
0.00190681
0.0027448
0.00366715
0.00461406
0.00547272
0.00610901
0.00627105
-0.00161641
-0.00172382
-0.00173508
-0.00174265
-0.00172126
-0.00166482
-0.00156342
-0.00140525
-0.00117723
-0.000864794
-0.000451695
7.97502e-05
0.000748245
0.00157437
0.0025699
0.0037265
0.00499108
0.00623526
0.00721957
0.00768149
-0.002032
-0.0021576
-0.00217978
-0.00220823
-0.00221347
-0.00218832
-0.00212077
-0.00199674
-0.00180071
-0.00151511
-0.00111932
-0.000588273
0.000107906
0.00100546
0.00214699
0.00355968
0.00522745
0.0070394
0.00861074
0.00978602
-0.00250558
-0.00265104
-0.00268417
-0.00273793
-0.00277741
-0.00279419
-0.0027738
-0.00269996
-0.0025554
-0.002321
-0.00197402
-0.00148534
-0.000815697
8.45976e-05
0.00131285
0.00294429
0.00506061
0.00764991
0.0101789
0.0130768
-0.00304721
-0.0032094
-0.00324798
-0.00333029
-0.00341323
-0.00348504
-0.00352723
-0.00352127
-0.00344941
-0.00329332
-0.00303209
-0.0026374
-0.00206618
-0.00124982
-9.17719e-05
0.00155244
0.00397256
0.00741523
0.011306
0.0175158
-0.00366805
-0.00386219
-0.00389986
-0.00401782
-0.00414442
-0.00427379
-0.00438718
-0.00446371
-0.00448444
-0.00443367
-0.00429981
-0.00407043
-0.00372607
-0.00322408
-0.0024906
-0.00136631
0.000615222
0.00457459
0.00946184
0.0208005
-0.00446487
-0.00445566
-0.00445974
-0.00457624
-0.004785
-0.00503358
-0.00528013
-0.00548754
-0.00563351
-0.00570836
-0.00571932
-0.00568269
-0.00562939
-0.00559063
-0.00561263
-0.00563542
-0.00566561
-0.00345862
-0.000444585
0.0174003
-0.00504533
-0.00560253
-0.00552528
-0.00580998
-0.00604532
-0.00631356
-0.00658469
-0.00683031
-0.00703564
-0.00719342
-0.00732911
-0.00749304
-0.00780121
-0.00843889
-0.00977193
-0.0120692
-0.0172693
-0.0188823
-0.0174375
0.00985912
-0.00821188
-0.00577316
-0.00557593
-0.00552824
-0.00594401
-0.00649841
-0.00709143
-0.00762167
-0.00806276
-0.00838705
-0.00866173
-0.00893721
-0.00946401
-0.0104589
-0.0129066
-0.01649
-0.0256252
-0.0302056
-0.028693
0.018706
-0.00510801
-0.00817158
-0.00774612
-0.00851108
-0.00881465
-0.00919549
-0.00960121
-0.00993189
-0.010205
-0.0103662
-0.0104632
-0.0106278
-0.0110591
-0.0121089
-0.0153464
-0.0193886
-0.0298154
-0.0309554
-0.0140426
0.0630012
-0.0291356
-0.00460664
-0.00419021
-0.00436247
-0.00503197
-0.00602098
-0.00711352
-0.00800189
-0.00879825
-0.00925922
-0.00976336
-0.0100384
-0.0108341
-0.0117153
-0.0137032
-0.0145765
-0.0125393
0.00720478
0.0646824
0.195083
2.56276e-05
-5.76275e-06
1.95831e-05
7.22763e-05
0.000158658
0.000278341
0.000430627
0.000614407
0.000827638
0.00106705
0.00132787
0.00160357
0.00188569
0.00216387
0.00242606
0.00265911
0.00284929
0.00298364
0.0030619
0.00303964
5.72806e-05
2.45385e-05
5.04361e-05
0.000100526
0.000182763
0.000297202
0.000443522
0.000620962
0.000827815
0.00106115
0.00131648
0.00158744
0.00186605
0.00214199
0.00240319
0.00263635
0.00282739
0.00296319
0.00304475
0.00302112
2.97852e-05
-7.5808e-06
1.70972e-05
6.52709e-05
0.00014573
0.000258695
0.000404181
0.000581848
0.00079043
0.00102741
0.0012887
0.00156859
0.00185864
0.00214839
0.00242512
0.00267435
0.0028803
0.00302764
0.00311692
0.00308928
-2.95441e-05
-7.09504e-05
-4.77737e-05
-1.83231e-06
7.66666e-05
0.000188288
0.000333587
0.000512866
0.000725549
0.000969813
0.00124217
0.00153727
0.00184722
0.00216101
0.00246475
0.002742
0.00297421
0.00314235
0.00324574
0.00321606
-0.00012749
-0.000173578
-0.00015226
-0.000108804
-3.22225e-05
7.85173e-05
0.000224691
0.000407459
0.000627193
0.000883059
0.00117251
0.00149083
0.00183053
0.00218034
0.00252504
0.00284551
0.00311888
0.00332026
0.0034464
0.00341581
-0.000264663
-0.000316544
-0.00029762
-0.000257335
-0.00018324
-7.37068e-05
7.34645e-05
0.00026055
0.000489182
0.000759877
0.00107145
0.00142035
0.00180008
0.00219925
0.00260131
0.00298376
0.00331782
0.00356965
0.00373106
0.00370156
-0.000442102
-0.000501178
-0.000485479
-0.000449638
-0.000379424
-0.000272472
-0.000125436
6.53709e-05
0.000303217