/*--------------------------------*- C++ -*----------------------------------*\
  =========                 |
  \\      /  F ield         | OpenFOAM: The Open Source CFD Toolbox
   \\    /   O peration     | Website:  https://openfoam.org
    \\  /    A nd           | Version:  10
     \\/     M anipulation  |
\*---------------------------------------------------------------------------*/
FoamFile
{
    format      ascii;
    class       volScalarField;
    location    "4.225";
    object      p;
}
// * * * * * * * * * * * * * * * * * * * * * * * * * * * * * * * * * * * * * //

dimensions      [0 2 -2 0 0 0 0];

internalField   nonuniform List<scalar> 
400
(
8.75844e-09
-2.90251e-05
-6.23322e-06
4.37305e-05
0.000127064
0.000244415
0.000396407
0.00058347
0.000805221
0.00105995
0.00134414
0.0016519
0.00197453
0.00230017
0.0026139
0.00289841
0.00313466
0.00330426
0.00340395
0.00338631
2.9444e-05
-5.86321e-07
2.39071e-05
7.20668e-05
0.000151562
0.00026367
0.000409441
0.000589681
0.00080438
0.00105224
0.00133015
0.00163234
0.00195112
0.00227468
0.00258817
0.00287409
0.00311287
0.00328592
0.00339112
0.00337217
2.86844e-06
-3.24351e-05
-9.60013e-06
3.57267e-05
0.000112001
0.000220741
0.000363414
0.000541401
0.000755363
0.00100471
0.00128705
0.00159798
0.0019295
0.0022699
0.00260365
0.00291175
0.00317198
0.00336214
0.00347894
0.00345505
-5.69032e-05
-9.65403e-05
-7.60534e-05
-3.45371e-05
3.73991e-05
0.000141679
0.00028044
0.000455946
0.000669915
0.000922954
0.00121389
0.00153911
0.00189232
0.00226171
0.00263073
0.00297762
0.00327575
0.00349683
0.003635
0.00360908
-0.000155643
-0.000199916
-0.000182588
-0.000145895
-7.9372e-05
1.94341e-05
0.000153541
0.000326397
0.000541159
0.000800129
0.00110397
0.00145073
0.00183568
0.00224753
0.00266892
0.00307493
0.00343251
0.00370329
0.00387627
0.00385084
-0.000293341
-0.000343165
-0.00032996
-0.00029951
-0.000240138
-0.000148775
-2.13377e-05
0.000147095
0.000361556
0.000626624
0.000945531
0.00131869
0.00174482
0.00221354
0.0027074
0.00319791
0.00364366
0.00399099
0.0042189
0.00419863
-0.000469857
-0.000526438
-0.000518543
-0.000496312
-0.00044672
-0.000366044
-0.000249003
-8.8952e-05
0.000121457
0.000389812
0.000723141
0.00112697
0.00159914
0.00213821
0.00272697
0.00333375
0.003907
0.00437142
0.00468606
0.00468259
-0.000685338
-0.000750104
-0.000748954
-0.000737493
-0.000701258
-0.000635937
-0.000535014
-0.000389974
-0.000190838
7.35607e-05
0.000414904
0.000843755
0.00136742
0.00198846
0.00269565
0.00345742
0.00421188
0.00485608
0.0053096
0.0053527
-0.000939972
-0.0010145
-0.00102165
-0.00102397
-0.00100556
-0.000961722
-0.000884829
-0.000764536
-0.000588114
-0.00034036
-3.81504e-06
0.000440158
0.0010089
0.00171477
0.00256033
0.00352077
0.00452777
0.00544804
0.00612972
0.00629493
-0.00123398
-0.00131988
-0.00133672
-0.00135603
-0.00136055
-0.00134561
-0.00130281
-0.00122032
-0.00108291
-0.000871372
-0.000561934
-0.000126334
0.000467271
0.001244
0.00223441
0.00343329
0.00478099
0.00612085
0.00719249
0.00766281
-0.00156787
-0.00166662
-0.00169381
-0.00173293
-0.0017656
-0.00178776
-0.00179088
-0.00176232
-0.00168523
-0.00153735
-0.00128951
-0.000904002
-0.000334502
0.000472384
0.0015799
0.00302894
0.00480696
0.00676998
0.00852118
0.00972233
-0.00194311
-0.00205566
-0.00209214
-0.0021526
-0.00221781
-0.00228517
-0.0023468
-0.00239038
-0.002399
-0.00234961
-0.00221043
-0.00193695
-0.00146693
-0.000715626
0.000406033
0.00202599
0.00425141
0.0070611
0.00996151
0.0128442
-0.00236369
-0.00248961
-0.00253086
-0.00261131
-0.00271116
-0.00283027
-0.00296227
-0.00309628
-0.00321751
-0.00330586
-0.00333292
-0.00325689
-0.00301436
-0.00251182
-0.00162113
-0.000160976
0.00226761
0.00595371
0.010643
0.0165036
-0.00283762
-0.00296972
-0.00300258
-0.00309693
-0.00323199
-0.00340878
-0.00362149
-0.00386163
-0.00411932
-0.00438189
-0.00463185
-0.00484375
-0.0049784
-0.00496989
-0.00472139
-0.00405798
-0.0025526
0.000820866
0.00662226
0.0167249
-0.00339405
-0.00354333
-0.00355644
-0.00366075
-0.00381548
-0.00403365
-0.00431724
-0.00466402
-0.0050706
-0.00553509
-0.00606012
-0.00665434
-0.00733898
-0.00815948
-0.00925205
-0.010816
-0.0127993
-0.0119942
-0.00677472
0.00829253
-0.00411053
-0.00405524
-0.00398137
-0.00402739
-0.00420656
-0.00450444
-0.00490587
-0.00539833
-0.00597908
-0.0066556
-0.00745371
-0.00842897
-0.00969957
-0.0114658
-0.014299
-0.0189514
-0.0265362
-0.0305956
-0.0271001
-0.00574143
-0.00458196
-0.00502889
-0.00483633
-0.00497266
-0.00511949
-0.00538803
-0.0057837
-0.00631067
-0.00697306
-0.00778421
-0.00878466
-0.0100598
-0.0118367
-0.0143882
-0.0188931
-0.0257508
-0.0384598
-0.0477347
-0.0446871
-0.0108742
-0.00783059
-0.00531053
-0.00484211
-0.00449489
-0.00466459
-0.00509994
-0.00573004
-0.00649094
-0.00737603
-0.00838011
-0.00956744
-0.0109807
-0.0129988
-0.0156763
-0.020815
-0.0283231
-0.0410584
-0.048697
-0.041281
0.0122679
-0.00464423
-0.00753155
-0.00669179
-0.00696262
-0.00686407
-0.00699043
-0.00731675
-0.00785418
-0.00857675
-0.00946703
-0.0105544
-0.0118096
-0.0137444
-0.0161657
-0.0212271
-0.027817
-0.0371784
-0.0358138
-0.0107093
0.0754482
-0.029308
-0.00438868
-0.0032762
-0.00281307
-0.00295262
-0.00357214
-0.00453177
-0.00556642
-0.00676742
-0.00795901
-0.00944128
-0.0109771
-0.0131572
-0.0157964
-0.019144
-0.0212159
-0.0186441
0.00726144
0.0740504
0.213289
)
;

boundaryField
{
    movingWall
    {
        type            zeroGradient;
    }
    fixedWalls
    {
        type            zeroGradient;
    }
    frontAndBack
    {
        type            empty;
    }
}


// ************************************************************************* //
