/*--------------------------------*- C++ -*----------------------------------*\
  =========                 |
  \\      /  F ield         | OpenFOAM: The Open Source CFD Toolbox
   \\    /   O peration     | Website:  https://openfoam.org
    \\  /    A nd           | Version:  10
     \\/     M anipulation  |
\*---------------------------------------------------------------------------*/
FoamFile
{
    format      ascii;
    class       surfaceScalarField;
    location    "3.4";
    object      phi;
}
// * * * * * * * * * * * * * * * * * * * * * * * * * * * * * * * * * * * * * //

dimensions      [0 3 -1 0 0 0 0];

internalField   nonuniform List<scalar> 
22800
(
-3.03271e-06
3.26799e-06
-2.33965e-07
-8.97087e-06
5.79554e-06
1.42623e-07
-1.54106e-05
6.18295e-06
2.56777e-07
-2.1747e-05
6.02623e-06
3.1015e-07
-2.77474e-05
5.69313e-06
3.07299e-07
-3.32572e-05
5.2405e-06
2.69286e-07
-3.8132e-05
4.66774e-06
2.07071e-07
-4.22228e-05
3.9671e-06
1.23729e-07
-4.53739e-05
3.13192e-06
1.91878e-08
-4.74358e-05
2.15758e-06
-9.57294e-08
-4.82502e-05
1.04959e-06
-2.35222e-07
-4.76751e-05
-1.86419e-07
-3.88613e-07
-4.56005e-05
-1.52349e-06
-5.51151e-07
-4.19591e-05
-2.92495e-06
-7.16474e-07
-3.67524e-05
-4.33276e-06
-8.73862e-07
-3.00745e-05
-5.67119e-06
-1.00671e-06
-2.21504e-05
-6.83798e-06
-1.08614e-06
-1.3427e-05
-7.65552e-06
-1.06792e-06
-4.90369e-06
-7.59717e-06
-9.26121e-07
-4.60099e-06
-3.02692e-07
-5.59492e-06
9.66841e-06
-8.05498e-07
-1.5076e-05
1.57214e-05
-4.44789e-07
-2.51705e-05
1.65851e-05
-3.07597e-07
-3.50236e-05
1.60826e-05
-2.03266e-07
-4.4279e-05
1.50976e-05
-1.49186e-07
-5.26906e-05
1.37772e-05
-1.25084e-07
-6.00357e-05
1.2134e-05
-1.21083e-07
-6.60962e-05
1.01622e-05
-1.34706e-07
-7.06554e-05
7.85757e-06
-1.66443e-07
-7.34993e-05
5.22016e-06
-2.1866e-07
-7.44238e-05
2.26454e-06
-2.90459e-07
-7.32684e-05
-9.59e-07
-3.82799e-07
-6.98707e-05
-4.43406e-06
-4.871e-07
-6.41649e-05
-8.03016e-06
-6.00674e-07
-5.6173e-05
-1.16122e-05
-7.1241e-07
-4.60453e-05
-1.49951e-05
-8.03807e-07
-3.41121e-05
-1.79303e-05
-8.40832e-07
-2.10094e-05
-1.99835e-05
-7.74644e-07
-8.1168e-06
-1.99014e-05
-5.88419e-07
-1.28159e-05
9.80816e-08
-6.28864e-06
1.70022e-05
-1.04518e-06
-1.68223e-05
2.69506e-05
-6.95612e-07
-2.79912e-05
2.83021e-05
-5.48056e-07
-3.88723e-05
2.73863e-05
-4.22625e-07
-4.90866e-05
2.56576e-05
-3.4562e-07
-5.83724e-05
2.33599e-05
-2.96899e-07
-6.64922e-05
2.05199e-05
-2.66134e-07
-7.32132e-05
1.71357e-05
-2.52528e-07
-7.83033e-05
1.32054e-05
-2.57811e-07
-8.15349e-05
8.73594e-06
-2.84126e-07
-8.2692e-05
3.75373e-06
-3.3206e-07
-8.15453e-05
-1.70256e-06
-4.03176e-07
-7.79349e-05
-7.5517e-06
-4.92818e-07
-7.17584e-05
-1.361e-05
-5.96637e-07
-6.30075e-05
-1.96601e-05
-7.02964e-07
-5.1815e-05
-2.53964e-05
-7.91268e-07
-3.85208e-05
-3.04015e-05
-8.23116e-07
-2.38186e-05
-3.39424e-05
-7.43323e-07
-9.25392e-06
-3.39299e-05
-5.36116e-07
-2.22813e-05
2.11492e-07
-6.62165e-06
2.48725e-05
-1.24862e-06
-1.77701e-05
3.901e-05
-9.10959e-07
-2.95891e-05
4.08778e-05
-7.56669e-07
-4.1117e-05
3.95302e-05
-6.16018e-07
-5.1968e-05
3.70309e-05
-5.22332e-07
-6.1878e-05
3.37256e-05
-4.55716e-07
-7.06071e-05
2.96554e-05
-4.06315e-07
-7.79169e-05
2.48197e-05
-3.74162e-07
-8.35649e-05
1.92152e-05
-3.61818e-07
-8.7304e-05
1.28474e-05
-3.72242e-07
-8.88878e-05
5.74545e-06
-4.0795e-07
-8.80719e-05
-2.04535e-06
-4.73147e-07
-8.46057e-05
-1.04589e-05
-5.59005e-07
-7.83254e-05
-1.92264e-05
-6.6383e-07
-6.91578e-05
-2.80521e-05
-7.75681e-07
-5.7183e-05
-3.64988e-05
-8.72355e-07
-4.27221e-05
-4.39531e-05
-9.09249e-07
-2.65255e-05
-4.93179e-05
-8.21212e-07
-1.03329e-05
-4.95319e-05
-5.90566e-07
-3.28553e-05
2.41161e-07
-6.99123e-06
3.33072e-05
-1.44343e-06
-1.88458e-05
5.19749e-05
-1.1103e-06
-3.14278e-05
5.44091e-05
-9.4935e-07
-4.37262e-05
5.26246e-05
-7.96045e-07
-5.53477e-05
4.93427e-05
-6.90248e-07
-6.60291e-05
4.5019e-05
-6.11992e-07
-7.55315e-05
3.97094e-05
-5.51666e-07
-8.36138e-05
3.3412e-05
-5.10044e-07
-9.00239e-05
2.61159e-05
-4.90575e-07
-9.44935e-05
1.78143e-05
-4.9732e-07
-9.67371e-05
8.52313e-06
-5.34152e-07
-9.64622e-05
-1.71469e-06
-6.05492e-07
-9.33303e-05
-1.2888e-05
-7.02769e-07
-8.70744e-05
-2.46559e-05
-8.2636e-07
-7.75019e-05
-3.66616e-05
-9.62959e-07
-6.45865e-05
-4.83277e-05
-1.08653e-06
-4.85999e-05
-5.87958e-05
-1.14388e-06
-3.03586e-05
-6.65053e-05
-1.05398e-06
-1.18882e-05
-6.72109e-05
-7.91446e-07
-4.4921e-05
1.77551e-07
-7.47096e-06
4.24423e-05
-1.66422e-06
-2.0229e-05
6.60638e-05
-1.33079e-06
-3.37868e-05
6.91291e-05
-1.16221e-06
-4.7068e-05
6.69015e-05
-9.9573e-07
-5.96707e-05
6.28238e-05
-8.7842e-07
-7.13354e-05
5.74738e-05
-7.90146e-07
-8.18285e-05
5.09243e-05
-7.21676e-07
-9.09113e-05
4.31694e-05
-6.74623e-07
-9.83257e-05
3.41837e-05
-6.53415e-07
-0.000103783
2.39354e-05
-6.63311e-07
-0.000106956
1.24057e-05
-7.10005e-07
-0.000107501
-3.68549e-07
-8.01389e-07
-0.000104945
-1.45195e-05
-9.24616e-07
-9.88825e-05
-2.96318e-05
-1.08628e-06
-8.89386e-05
-4.53342e-05
-1.27122e-06
-7.49009e-05
-6.09172e-05
-1.44816e-06
-5.69212e-05
-7.52251e-05
-1.55045e-06
-3.5868e-05
-8.60859e-05
-1.47253e-06
-1.41717e-05
-8.77361e-05
-1.17109e-06
-5.90851e-05
-7.68971e-09
-8.07317e-06
5.24536e-05
-1.93814e-06
-2.19555e-05
8.15501e-05
-1.60405e-06
-3.67196e-05
8.53191e-05
-1.42592e-06
-5.12066e-05
8.26311e-05
-1.24257e-06
-6.50064e-05
7.77339e-05
-1.11027e-06
-7.78689e-05
7.13454e-05
-1.00908e-06
-8.95737e-05
6.35596e-05
-9.30615e-07
-9.98932e-05
5.43667e-05
-8.77768e-07
-0.000108574
4.37205e-05
-8.56342e-07
-0.000115316
3.15508e-05
-8.732e-07
-0.000119755
1.77803e-05
-9.35824e-07
-0.000121466
2.39344e-06
-1.05084e-06
-0.000119865
-1.48932e-05
-1.22684e-06
-0.000114323
-3.372e-05
-1.45382e-06
-0.000104197
-5.3738e-05
-1.72236e-06
-8.89641e-05
-7.41543e-05
-1.99595e-06
-6.85172e-05
-9.3484e-05
-2.18798e-06
-4.3705e-05
-0.000108743
-2.15494e-06
-1.75017e-05
-0.000112123
-1.81589e-06
-7.62699e-05
-3.16971e-07
-8.80485e-06
6.35472e-05
-2.28876e-06
-2.40476e-05
9.87502e-05
-1.9573e-06
-4.02554e-05
0.000103293
-1.76607e-06
-5.61692e-05
0.000100103
-1.55845e-06
-7.1373e-05
9.4341e-05
-1.40326e-06
-8.56346e-05
8.68887e-05
-1.28167e-06
-9.87589e-05
7.7871e-05
-1.18706e-06
-0.000110545
6.72772e-05
-1.12425e-06
-0.000120761
5.50378e-05
-1.10108e-06
-0.000129116
4.10323e-05
-1.12681e-06
-0.000135227
2.51018e-05
-1.21108e-06
-0.000138568
7.09621e-06
-1.36152e-06
-0.000138482
-1.33619e-05
-1.61739e-06
-0.000134027
-3.62272e-05
-1.94787e-06
-0.00012418
-6.1229e-05
-2.35514e-06
-0.000107919
-8.76167e-05
-2.79922e-06
-8.46222e-05
-0.000113615
-3.16577e-06
-5.49102e-05
-0.000135205
-3.24975e-06
-2.24658e-05
-0.000141678
-2.89021e-06
-9.78024e-05
-9.33234e-07
-9.68189e-06
7.5974e-05
-2.74483e-06
-2.65444e-05
0.000118036
-2.42304e-06
-4.4442e-05
0.000123403
-2.21218e-06
-6.19967e-05
0.000119625
-1.96722e-06
-7.87924e-05
0.000112911
-1.77473e-06
-9.46276e-05
0.000104343
-1.61879e-06
-0.00010935
9.40889e-05
-1.496e-06
-0.000122806
8.21476e-05
-1.41416e-06
-0.000134813
6.8429e-05
-1.38403e-06
-0.000145118
5.27563e-05
-1.41865e-06
-0.00015335
3.48656e-05
-1.53205e-06
-0.00015895
1.44344e-05
-1.738e-06
-0.000161153
-9.05561e-06
-2.10302e-06
-0.000158688
-3.61042e-05
-2.58801e-06
-0.000150024
-6.66748e-05
-3.21881e-06
-0.000133358
-0.000100324
-3.95798e-06
-0.00010713
-0.000135186
-4.65786e-06
-7.1226e-05
-0.000166093
-5.01621e-06
-3.0158e-05
-0.000178045
-4.70113e-06
-0.000125814
-2.14611e-06
-1.07399e-05
9.00617e-05
-3.34781e-06
-2.95209e-05
0.000139863
-3.04669e-06
-4.93681e-05
0.000146054
-2.80389e-06
-6.87659e-05
0.000141522
-2.4987e-06
-8.73102e-05
0.0001337
-2.24381e-06
-0.000104848
0.00012391
-2.02934e-06
-0.000121292
0.00011239
-1.85734e-06
-0.000136565
9.91602e-05
-1.7399e-06
-0.000150569
8.41247e-05
-1.69171e-06
-0.00016314
6.7058e-05
-1.73103e-06
-0.000173979
4.75855e-05
-1.8807e-06
-0.000182542
2.51735e-05
-2.17592e-06
-0.000188081
-8.41979e-07
-2.67458e-06
-0.000188964
-3.18424e-05
-3.3791e-06
-0.000183063
-6.82156e-05
-4.36031e-06
-0.000167451
-0.000110337
-5.59857e-06
-0.00013894
-0.000156775
-6.92184e-06
-9.5672e-05
-0.000201464
-7.89621e-06
-4.27651e-05
-0.00022314
-7.81183e-06
-0.000163864
-4.71513e-06
-1.20539e-05
0.000106278
-4.16254e-06
-3.31198e-05
0.000164826
-3.89657e-06
-5.51962e-05
0.000171728
-3.59806e-06
-7.66187e-05
0.000166136
-3.19226e-06
-9.70192e-05
0.000156932
-2.83168e-06
-0.00011632
0.000145729
-2.51781e-06
-0.000134523
0.000132855
-2.26145e-06
-0.000151661
0.000118378
-2.08034e-06
-0.000167763
0.000102221
-1.99352e-06
-0.000182818
8.41378e-05
-2.02474e-06
-0.000196698
6.36724e-05
-2.20704e-06
-0.000209029
4.00949e-05
-2.59022e-06
-0.000219053
1.24067e-05
-3.22429e-06
-0.000225237
-2.13773e-05
-4.28137e-06
-0.000224667
-6.29968e-05
-5.78922e-06
-0.000213006
-0.000114161
-7.83691e-06
-0.000184453
-0.000175041
-1.02876e-05
-0.000133639
-0.000239698
-1.25802e-05
-6.48632e-05
-0.000278641
-1.32743e-05
-0.000218524
-1.02035e-05
-1.37777e-05
0.000125353
-5.29681e-06
-3.76056e-05
0.000193733
-5.07958e-06
-6.22148e-05
0.000201017
-4.67913e-06
-8.58065e-05
0.000193829
-4.10049e-06
-0.000108096
0.000182781
-3.55948e-06
-0.000129117
0.000169828
-3.078e-06
-0.000148992
0.00015541
-2.68014e-06
-0.000167891
0.000139667
-2.39019e-06
-0.000186016
0.000122575
-2.23035e-06
-0.000203576
0.000103926
-2.22818e-06
-0.000220735
8.32573e-05
-2.42611e-06
-0.000237478
5.97259e-05
-2.88794e-06
-0.000253318
3.19399e-05
-3.69251e-06
-0.000267162
-2.38463e-06
-5.14954e-06
-0.000275769
-4.70178e-05
-7.37149e-06
-0.000273303
-0.000105991
-1.06367e-05
-0.000250225
-0.000183117
-1.50016e-05
-0.000194832
-0.000275197
-1.98942e-05
-0.000107138
-0.000343386
-2.29491e-05
-0.000303088
-2.25742e-05
-1.62363e-05
0.000148532
-6.94289e-06
-4.34679e-05
0.000227742
-6.77714e-06
-7.09227e-05
0.000234651
-6.17925e-06
-9.67555e-05
0.000224955
-5.29324e-06
-0.000120853
0.000211319
-4.4411e-06
-0.000143411
0.000196064
-3.67847e-06
-0.000164702
0.000179749
-3.04785e-06
-0.00018505
0.000162595
-2.57926e-06
-0.000204853
0.000144672
-2.2935e-06
-0.000224594
0.000125882
-2.21555e-06
-0.000244835
0.00010589
-2.39095e-06
-0.000266148
8.39402e-05
-2.90152e-06
-0.000288916
5.86125e-05
-3.90406e-06
-0.00031292
2.73116e-05
-5.69208e-06
-0.000335999
-1.5179e-05
-8.76007e-06
-0.000351303
-7.72057e-05
-1.34813e-05
-0.000345313
-0.000168544
-2.05634e-05
-0.000295642
-0.000295129
-2.9738e-05
-0.000188604
-0.000411757
-3.86679e-05
-0.000441396
-5.02957e-05
-2.01462e-05
0.000178127
-9.44866e-06
-5.16694e-05
0.000268555
-9.28974e-06
-8.21928e-05
0.000273509
-8.33438e-06
-0.00011017
0.000259826
-6.89455e-06
-0.000135815
0.000242448
-5.48406e-06
-0.000159536
0.00022402
-4.23415e-06
-0.000181773
0.000205204
-3.21885e-06
-0.000203005
0.000186293
-2.46616e-06
-0.000223814
0.000167462
-1.9807e-06
-0.000244967
0.000148804
-1.76905e-06
-0.000267526
0.000130316
-1.86737e-06
-0.000292916
0.000111702
-2.37212e-06
-0.000322836
9.19777e-05
-3.44518e-06
-0.000358765
6.85066e-05
-5.26561e-06
-0.000401127
3.54147e-05
-8.23149e-06
-0.000446379
-1.83477e-05
-1.36062e-05
-0.00047899
-0.000113036
-2.28965e-05
-0.0004583
-0.000279193
-3.66257e-05
-0.000341085
-0.000474781
-5.41921e-05
-0.000686477
-9.60036e-05
-2.62334e-05
0.000217952
-1.35917e-05
-6.33292e-05
0.000318584
-1.29334e-05
-9.72169e-05
0.000318572
-1.11756e-05
-0.000127194
0.000298448
-8.64483e-06
-0.000153898
0.000275496
-6.34333e-06
-0.000178089
0.00025259
-4.37887e-06
-0.00020049
0.000230416
-2.81149e-06
-0.000221713
0.000209166
-1.6495e-06
-0.000242415
0.000189032
-8.68613e-07
-0.000263459
0.000170283
-4.34897e-07
-0.000286219
0.000153391
-3.14517e-07
-0.000312893
0.000138864
-4.88225e-07
-0.00034721
0.000127251
-9.55571e-07
-0.000394479
0.000117564
-1.78871e-06
-0.000461198
0.000105395
-3.26153e-06
-0.000550157
7.57928e-05
-5.18245e-06
-0.000655047
9.76145e-07
-9.12103e-06
-0.000698338
-0.000221052
-1.48509e-05
-0.000580563
-0.000567829
-2.47264e-05
-0.00114786
-0.000119184
-4.52203e-05
0.000283659
-2.04869e-05
-8.57686e-05
0.000380076
-2.09431e-05
-0.000119936
0.00037
-1.72614e-05
-0.000148741
0.000340014
-1.27609e-05
-0.000174679
0.000309722
-8.2883e-06
-0.000198415
0.000280855
-4.52926e-06
-0.000220365
0.000254005
-1.63732e-06
-0.000240783
0.000229197
3.86003e-07
-0.000260175
0.000206785
1.6395e-06
-0.000279391
0.00018718
2.31871e-06
-0.000300129
0.000171548
2.58016e-06
-0.000325042
0.000161127
2.64955e-06
-0.000359386
0.000158607
2.98787e-06
-0.000411934
0.000165624
4.48784e-06
-0.000497808
0.000181904
9.36571e-06
-0.000631397
0.00018615
2.3232e-05
-0.000818469
0.00013533
5.27178e-05
-0.00095046
-0.000187932
9.8872e-05
-0.00083308
-0.000820614
0.000135406
-0.00191453
-6.64051e-05
-4.14787e-05
0.000359281
-3.41434e-05
-0.000101844
0.000466648
-2.62073e-05
-0.000145671
0.000434087
-2.02592e-05
-0.000179856
0.000385339
-1.11397e-05
-0.000205643
0.000339841
-4.33111e-06
-0.000225714
0.000300171
7.54403e-07
-0.000242368
0.000266196
4.46261e-06
-0.000256779
0.000236788
6.82089e-06
-0.000269793
0.000211622
8.17657e-06
-0.000281636
0.000190222
8.80101e-06
-0.000293362
0.000174142
9.13287e-06
-0.000306418
0.000164415
9.7675e-06
-0.000326242
0.000166246
1.21855e-05
-0.000363561
0.000183168
1.97748e-05
-0.000445509
0.00022314
4.07114e-05
-0.00060146
0.000250953
9.11487e-05
-0.000875966
0.00021704
0.000192796
-0.00109259
-0.000279804
0.000308492
-0.000950429
-0.00130704
0.000344267
-0.00278514
-7.98191e-05
-0.000177092
0.000586298
-4.99242e-05
-0.000196536
0.000537958
-5.1866e-05
-0.000200749
0.000477209
-3.89095e-05
-0.000206088
0.000413753
-2.30755e-05
-0.000206185
0.0003479
-7.96151e-06
-0.000204887
0.000295766
3.10759e-06
-0.000203793
0.000254475
1.06267e-05
-0.000202517
0.000220371
1.51409e-05
-0.000201246
0.000192892
1.74584e-05
-0.000198839
0.000169803
1.80124e-05
-0.000196296
0.000153758
1.78413e-05
-0.00019242
0.000142865
1.76729e-05
-0.00019123
0.000144503
2.05537e-05
-0.000196306
0.000156755
3.14889e-05
-0.000231358
0.000192311
6.58811e-05
-0.000325023
0.00020443
0.000140187
-0.000528654
0.000128591
0.000292081
-0.000783071
-0.000469423
0.000444035
-0.000736013
-0.0017304
0.000376303
-0.00323241
-0.000288742
-0.000376943
0.00109521
-0.000131974
-0.000281386
0.000513953
-7.15518e-05
-0.000151969
0.000385577
-3.77852e-05
-1.95261e-05
0.00028555
-4.23981e-06
9.81378e-05
0.000213391
1.68445e-05
0.000197306
0.000165697
3.09005e-05
0.000277859
0.00013466
3.92618e-05
0.000343297
0.000112063
4.28701e-05
0.000396114
9.6546e-05
4.35295e-05
0.000441122
8.36884e-05
4.11062e-05
0.000481584
7.58736e-05
3.74222e-05
0.000521629
6.98777e-05
3.29425e-05
0.0005695
6.69954e-05
2.96364e-05
0.000626801
6.9018e-05
3.04365e-05
0.000705671
6.17511e-05
5.16904e-05
0.000773411
4.694e-05
8.97498e-05
0.000772943
-7.16445e-05
0.000200704
0.000450095
-0.000512747
0.000366172
4.58472e-05
-0.0014957
0.00016955
-0.00263411
-0.000552457
0.00123517
-0.00013996
0.00188736
-0.000138229
0.00239873
-0.000125797
0.00278583
-0.000101551
0.00307418
-7.49581e-05
0.00329116
-5.12794e-05
0.00345488
-2.90623e-05
0.00357962
-1.26734e-05
0.00367319
2.97376e-06
0.00374586
1.10143e-05
0.00380291
1.88275e-05
0.00385222
2.05649e-05
0.00390015
1.90636e-05
0.00394536
2.38067e-05
0.00399208
1.50312e-05
0.00400114
3.78813e-05
0.00390044
2.90547e-05
0.00334717
4.05278e-05
0.00187049
-1.9022e-05
-0.00076362
-5.15938e-06
5.30292e-06
-3.77505e-07
-1.47052e-05
9.80041e-06
-1.11931e-07
-2.49406e-05
1.04868e-05
5.34688e-09
-3.48442e-05
1.01441e-05
6.97188e-08
-4.40909e-05
9.46743e-06
8.65642e-08
-5.24645e-05
8.57442e-06
6.83786e-08
-5.9757e-05
7.47517e-06
2.44186e-08
-6.57543e-05
6.16757e-06
-4.65115e-08
-7.02442e-05
4.65065e-06
-1.41532e-07
-7.30124e-05
2.92921e-06
-2.56773e-07
-7.38681e-05
1.01184e-06
-3.91384e-07
-7.26373e-05
-1.07889e-06
-5.40516e-07
-6.91885e-05
-3.2988e-06
-7.01188e-07
-6.34559e-05
-5.5834e-06
-8.65636e-07
-5.54643e-05
-7.84496e-06
-1.02047e-06
-4.53548e-05
-9.96896e-06
-1.14725e-06
-3.34263e-05
-1.17969e-05
-1.21784e-06
-2.0275e-05
-1.30241e-05
-1.19514e-06
-7.46316e-06
-1.26781e-05
-1.05986e-06
-7.24266e-06
-5.23192e-07
-9.94346e-06
1.53292e-05
-8.88325e-07
-2.58922e-05
2.59829e-05
-6.78574e-07
-4.26856e-05
2.75084e-05
-5.35724e-07
-5.88389e-05
2.65066e-05
-4.12592e-07
-7.38083e-05
2.4627e-05
-3.39317e-07
-8.72204e-05
2.21629e-05
-3.01495e-07
-9.87347e-05
1.91587e-05
-2.90306e-07
-0.000108025
1.56266e-05
-3.03598e-07
-0.00011478
1.15807e-05
-3.41625e-07
-0.000118707
7.04343e-06
-4.05076e-07
-0.000119545
2.05327e-06
-4.94067e-07
-0.000117085
-3.31485e-06
-6.07576e-07
-0.000111159
-8.97511e-06
-7.36826e-07
-0.000101716
-1.47527e-05
-8.74308e-07
-8.88317e-05
-2.04356e-05
-1.00558e-06
-7.2751e-05
-2.57447e-05
-1.10884e-06
-5.39428e-05
-3.02957e-05
-1.15014e-06
-3.33016e-05
-3.33516e-05
-1.08832e-06
-1.30324e-05
-3.26284e-05
-9.07228e-07
-1.99039e-05
-2.73076e-07
-1.13456e-05
2.67701e-05
-1.14048e-06
-2.92985e-05
4.42028e-05
-9.62618e-07
-4.81171e-05
4.65878e-05
-8.08848e-07
-6.61782e-05
4.48076e-05
-6.6249e-07
-8.28953e-05
4.15618e-05
-5.6339e-07
-9.78638e-05
3.73325e-05
-4.9798e-07
-0.000110715
3.22019e-05
-4.58125e-07
-0.000121098
2.62002e-05
-4.4295e-07
-0.000128679
1.93577e-05
-4.53898e-07
-0.000133145
1.17177e-05
-4.92783e-07
-0.000134215
3.35174e-06
-5.60175e-07
-0.000131608
-5.66977e-06
-6.55707e-07
-0.00012515
-1.51526e-05
-7.73198e-07
-0.000114752
-2.48426e-05
-9.04806e-07
-0.000100456
-3.43991e-05
-1.03496e-06
-8.24935e-05
-4.33595e-05
-1.13935e-06
-6.13526e-05
-5.10804e-05
-1.17939e-06
-3.80153e-05
-5.63243e-05
-1.10787e-06
-1.49639e-05
-5.53073e-05
-9.08557e-07
-3.44342e-05
-2.22145e-07
-1.20587e-05
3.89579e-05
-1.37764e-06
-3.11807e-05
6.36468e-05
-1.23302e-06
-5.12096e-05
6.69311e-05
-1.07099e-06
-7.04421e-05
6.43298e-05
-9.05811e-07
-8.82766e-05
5.96596e-05
-7.85697e-07
-0.000104302
5.36005e-05
-6.97896e-07
-0.000118144
4.62729e-05
-6.35177e-07
-0.000129443
3.77224e-05
-5.97863e-07
-0.000137849
2.79905e-05
-5.88638e-07
-0.000143024
1.71306e-05
-6.1052e-07
-0.000144648
5.23392e-06
-6.65746e-07
-0.000142403
-7.6315e-06
-7.56723e-07
-0.000136011
-2.12283e-05
-8.75147e-07
-0.000125298
-3.5205e-05
-1.01434e-06
-0.000110221
-4.90934e-05
-1.15815e-06
-9.09402e-05
-6.22334e-05
-1.2794e-06
-6.79198e-05
-7.36772e-05
-1.33277e-06
-4.2223e-05
-8.15813e-05
-1.26102e-06
-1.66437e-05
-8.04326e-05
-1.04468e-06
-5.05577e-05
-2.78952e-07
-1.28483e-05
5.19853e-05
-1.62263e-06
-3.32951e-05
8.44937e-05
-1.51036e-06
-5.47193e-05
8.87451e-05
-1.33917e-06
-7.53198e-05
8.52894e-05
-1.15517e-06
-9.44795e-05
7.91452e-05
-1.01606e-06
-0.000111786
7.12049e-05
-9.0963e-07
-0.000126864
6.16287e-05
-8.29494e-07
-0.000139349
5.04747e-05
-7.77218e-07
-0.000148879
3.77861e-05
-7.56879e-07
-0.000155084
2.36119e-05
-7.73091e-07
-0.000157591
8.03613e-06
-8.29868e-07
-0.00015601
-8.88734e-06
-9.30285e-07
-0.000149947
-2.69263e-05
-1.06755e-06
-0.000139084
-4.56582e-05
-1.23615e-06
-0.000123219
-6.45039e-05
-1.41822e-06
-0.000102367
-8.25893e-05
-1.58175e-06
-7.69271e-05
-9.85902e-05
-1.67133e-06
-4.80554e-05
-0.000109893
-1.61342e-06
-1.90023e-05
-0.000108899
-1.37804e-06
-6.89044e-05
-4.78088e-07
-1.38707e-05
6.60998e-05
-1.90805e-06
-3.60115e-05
0.000107134
-1.83036e-06
-5.9218e-05
0.000112437
-1.6477e-06
-8.15611e-05
0.000108079
-1.44183e-06
-0.000102406
0.000100393
-1.2815e-06
-0.000121343
9.0507e-05
-1.15532e-06
-0.000138002
7.86246e-05
-1.05803e-06
-0.000152023
6.48138e-05
-9.92795e-07
-0.000163035
4.91097e-05
-9.65419e-07
-0.000170641
3.15374e-05
-9.82473e-07
-0.000174409
1.21443e-05
-1.05045e-06
-0.000173862
-9.06049e-06
-1.17537e-06
-0.000168438
-3.19238e-05
-1.35105e-06
-0.000157617
-5.59907e-05
-1.57477e-06
-0.000140947
-8.06175e-05
-1.82725e-06
-0.000118195
-0.00010472
-2.07002e-06
-8.95903e-05
-0.000126513
-2.23234e-06
-5.63678e-05
-0.000142374
-2.21468e-06
-2.24242e-05
-0.00014205
-1.96375e-06
-9.04787e-05
-8.57644e-07
-1.51637e-05
8.15896e-05
-2.26425e-06
-3.94245e-05
0.00013202
-2.22883e-06
-6.48452e-05
0.000138462
-2.03054e-06
-8.93369e-05
0.000133123
-1.79546e-06
-0.000112247
0.000123799
-1.60643e-06
-0.000133175
0.00011188
-1.45358e-06
-0.000151773
9.76247e-05
-1.33361e-06
-0.000167694
8.11099e-05
-1.25193e-06
-0.000180578
6.23536e-05
-1.21677e-06
-0.000190011
4.13346e-05
-1.23746e-06
-0.000195505
1.80266e-05
-1.32392e-06
-0.00019649
-7.63998e-06
-1.4863e-06
-0.000192197
-3.57196e-05
-1.72434e-06
-0.000181824
-6.57799e-05
-2.03727e-06
-0.000164544
-9.72134e-05
-2.40669e-06
-0.000139693
-0.000128779
-2.78713e-06
-0.000107147
-0.000158161
-3.08577e-06
-6.81152e-05
-0.000180398
-3.16173e-06
-2.73889e-05
-0.000181679
-2.91325e-06
-0.000116681
-1.50354e-06
-1.67555e-05
9.87785e-05
-2.72216e-06
-4.3604e-05
0.000159653
-2.74244e-06
-7.16976e-05
0.000167311
-2.52125e-06
-9.87525e-05
0.000160864
-2.24382e-06
-0.000124101
0.000149756
-2.01184e-06
-0.000147369
0.000135685
-1.81843e-06
-0.000168245
0.000118977
-1.66354e-06
-0.000186429
9.97249e-05
-1.55592e-06
-0.000201591
7.79216e-05
-1.50713e-06
-0.00021333
5.34777e-05
-1.53031e-06
-0.000221124
2.62495e-05
-1.63998e-06
-0.000224321
-3.95159e-06
-1.85279e-06
-0.000221917
-3.75585e-05
-2.18308e-06
-0.000212745
-7.42682e-05
-2.63109e-06
-0.000195433
-0.000113695
-3.18598e-06
-0.000168611
-0.000154602
-3.79797e-06
-0.000131439
-0.000194153
-4.34552e-06
-8.48228e-05
-0.000225642
-4.62265e-06
-3.47214e-05
-0.000230241
-4.42983e-06
-0.000149734
-2.60206e-06
-1.86917e-05
0.000118047
-3.32139e-06
-4.86522e-05
0.000190608
-3.41719e-06
-7.99079e-05
0.000199515
-3.16052e-06
-0.000109943
0.00019175
-2.8186e-06
-0.000138084
0.000178642
-2.51935e-06
-0.000164004
0.000162248
-2.26137e-06
-0.000187461
0.000142988
-2.05001e-06
-0.000208233
0.000120982
-1.89877e-06
-0.000226071
9.61991e-05
-1.82368e-06
-0.000240632
6.84631e-05
-1.84308e-06
-0.000251399
3.74636e-05
-1.97868e-06
-0.000257713
2.8823e-06
-2.25855e-06
-0.000258304
-3.63606e-05
-2.71015e-06
-0.000251599
-8.02096e-05
-3.35091e-06
-0.000235477
-0.000128847
-4.18918e-06
-0.000207461
-0.000181395
-5.18044e-06
-0.000165367
-0.000234733
-6.17292e-06
-0.00010911
-0.00028005
-6.86473e-06
-4.6041e-05
-0.000291153
-6.85861e-06
-0.000193415
-4.50561e-06
-2.10517e-05
0.000139869
-4.11878e-06
-5.47341e-05
0.000225561
-4.31724e-06
-8.96814e-05
0.000235661
-4.00289e-06
-0.000123108
0.000226237
-3.55954e-06
-0.000154354
0.000210797
-3.15265e-06
-0.000183174
0.000191829
-2.79064e-06
-0.000209436
0.00016988
-2.48737e-06
-0.00023305
0.000145119
-2.26289e-06
-0.000253906
0.000117502
-2.13871e-06
-0.0002718
8.67653e-05
-2.13897e-06
-0.000286338
5.24115e-05
-2.29052e-06
-0.000296766
1.37587e-05
-2.62495e-06
-0.000301937
-3.0614e-05
-3.25001e-06
-0.000299695
-8.16743e-05
-4.15616e-06
-0.000287022
-0.00014047
-5.40975e-06
-0.000259827
-0.000207188
-7.0023e-06
-0.000213557
-0.000279153
-8.77088e-06
-0.000145716
-0.000345494
-1.02926e-05
-6.47458e-05
-0.00036916
-1.07755e-05
-0.000254938
-7.93831e-06
-2.39761e-05
0.000164884
-5.20107e-06
-6.21213e-05
0.000265347
-5.53709e-06
-0.000101342
0.000276409
-5.1254e-06
-0.000138552
0.000264774
-4.5186e-06
-0.000173148
0.000246498
-3.93762e-06
-0.00020501
0.000224582
-3.40791e-06
-0.000234174
0.000199739
-2.95648e-06
-0.000260742
0.000172219
-2.61209e-06
-0.000284824
0.000141992
-2.40187e-06
-0.000306453
0.000108726
-2.35594e-06
-0.000325476
7.17413e-05
-2.5142e-06
-0.000341339
2.99709e-05
-2.9394e-06
-0.000353055
-1.84158e-05
-3.70667e-06
-0.000358194
-7.58804e-05
-4.93597e-06
-0.000352818
-0.000144881
-6.75436e-06
-0.000330714
-0.000227878
-9.25011e-06
-0.000283504
-0.000324328
-1.2323e-05
-0.000203732
-0.000422389
-1.54575e-05
-9.86074e-05
-0.000470404
-1.71539e-05
-0.000349329
-1.44191e-05
-2.77176e-05
0.000194011
-6.70649e-06
-7.12657e-05
0.000311035
-7.22026e-06
-0.000115401
0.000322506
-6.63994e-06
-0.000156743
0.00030778
-5.76458e-06
-0.000194815
0.000285911
-4.90013e-06
-0.000229701
0.000260491
-4.10103e-06
-0.000261669
0.000232441
-3.4142e-06
-0.000291085
0.000202124
-2.87877e-06
-0.000318362
0.000169563
-2.52484e-06
-0.000343896
0.000134416
-2.38418e-06
-0.000367967
9.58881e-05
-2.50273e-06
-0.000390506
5.25782e-05
-2.95593e-06
-0.000411077
2.33056e-06
-3.86783e-06
-0.000427544
-5.91394e-05
-5.42373e-06
-0.000435579
-0.000136299
-7.91892e-06
-0.000426769
-0.000235679
-1.16453e-05
-0.000387348
-0.000361992
-1.67593e-05
-0.000301003
-0.000505799
-2.2829e-05
-0.00016681
-0.000600007
-2.75388e-05
-0.00051149
-2.72239e-05
-3.27503e-05
0.000228683
-8.86449e-06
-8.292e-05
0.000364023
-9.59505e-06
-0.000132658
0.000374778
-8.7139e-06
-0.000178382
0.000355598
-7.38795e-06
-0.000219881
0.000329029
-6.0591e-06
-0.000257541
0.000299302
-4.82917e-06
-0.000291945
0.00026757
-3.7739e-06
-0.000323786
0.000234329
-2.94278e-06
-0.000353856
0.000199701
-2.36184e-06
-0.000383027
0.000163425
-2.0533e-06
-0.000412226
0.00012475
-2.05368e-06
-0.000442315
8.21988e-05
-2.43286e-06
-0.000473884
3.33158e-05
-3.32004e-06
-0.00050655
-2.7007e-05
-5.15909e-06
-0.000536781
-0.000106603
-8.22493e-06
-0.000555541
-0.000217171
-1.32296e-05
-0.000543308
-0.000373801
-2.09873e-05
-0.000468486
-0.000578736
-3.16231e-05
-0.000305263
-0.000758909
-4.29889e-05
-0.000813898
-5.31508e-05
-4.00799e-05
0.000271383
-1.20689e-05
-9.8524e-05
0.000426207
-1.30294e-05
-0.000154423
0.000433967
-1.16247e-05
-0.000204507
0.000408323
-9.53556e-06
-0.000249095
0.000375562
-7.42901e-06
-0.000288975
0.000340447
-5.49952e-06
-0.000325103
0.000304346
-3.86789e-06
-0.000358548
0.000267899
-2.59091e-06
-0.000390521
0.000231368
-1.67364e-06
-0.000422455
0.000194696
-1.10679e-06
-0.00045613
0.00015745
-8.92135e-07
-0.000493753
0.000118531
-1.08193e-06
-0.000537644
7.55603e-05
-1.79825e-06
-0.000590059
2.33902e-05
-3.24783e-06
-0.000652866
-4.61589e-05
-5.8689e-06
-0.000720406
-0.000152207
-1.10301e-05
-0.000770043
-0.000326656
-2.04036e-05
-0.000742607
-0.00060737
-3.54286e-05
-0.000553672
-0.000945713
-5.63233e-05
-0.0013716
-9.19686e-05
-4.97546e-05
0.000324547
-1.70011e-05
-0.000118855
0.000500274
-1.79007e-05
-0.000182087
0.000501516
-1.54926e-05
-0.000236762
0.000466398
-1.20449e-05
-0.000283811
0.000425004
-8.73628e-06
-0.000324807
0.000382853
-5.78776e-06
-0.000361383
0.000341439
-3.3281e-06
-0.000395038
0.000301324
-1.41925e-06
-0.000427289
0.000262799
-4.99515e-08
-0.000459928
0.000225974
9.26626e-07
-0.000495395
0.000191046
1.55665e-06
-0.000537303
0.000157986
1.96493e-06
-0.00059139
0.000126439
2.25292e-06
-0.00066582
9.35931e-05
2.43748e-06
-0.000769118
5.16639e-05
2.21419e-06
-0.000904215
-2.3714e-05
1.42108e-06
-0.00105132
-0.000187097
-1.57648e-06
-0.00109038
-0.000574355
-8.80429e-06
-0.000842231
-0.00119149
-2.70957e-05
-0.00222442
-0.000108602
-7.97722e-05
0.000408533
-2.47006e-05
-0.000156399
0.000582748
-2.67899e-05
-0.000221294
0.000571599
-2.24496e-05
-0.00027555
0.000524698
-1.68041e-05
-0.000322518
0.000474765
-1.10813e-05
-0.000363439
0.000425304
-6.05946e-06
-0.000399543
0.000377903
-1.99813e-06
-0.000432103
0.000333226
1.04387e-06
-0.00046279
0.000291947
3.17961e-06
-0.000493614
0.000254498
4.61934e-06
-0.000527764
0.000222112
5.66476e-06
-0.000569673
0.000195828
6.71647e-06
-0.000627245
0.000178541
8.45807e-06
-0.000712443
0.000171285
1.19935e-05
-0.000842425
0.000171513
1.94989e-05
-0.00102142
0.0001433
3.52153e-05
-0.00122539
5.82168e-06
6.37701e-05
-0.00128744
-0.000516
0.000102564
-0.000928854
-0.00152387
0.000109196
-0.00314379
-7.58842e-05
-6.61868e-05
0.000478716
-3.81393e-05
-0.000177223
0.000702552
-3.49755e-05
-0.000263971
0.000665842
-2.77534e-05
-0.000329385
0.000596321
-1.73487e-05
-0.00037779
0.000527582
-8.74358e-06
-0.000413965
0.00046381
-1.57713e-06
-0.000441935
0.00040664
3.69541e-06
-0.000464827
0.000355499
7.44005e-06
-0.000485101
0.000310418
9.97947e-06
-0.000504187
0.00027071
1.16747e-05
-0.000524687
0.000238621
1.31232e-05
-0.000549598
0.000215321
1.51858e-05
-0.000586412
0.000207828
1.97127e-05
-0.000646041
0.000220495
3.01929e-05
-0.000750261
0.000262337
5.41069e-05
-0.000894597
0.000274417
0.000104368
-0.00108593
0.000192913
0.00019704
-0.00112587
-0.000465262
0.000297686
-0.000709999
-0.00187433
0.000278864
-0.00382294
-0.000110675
-0.000208016
0.00068949
-5.26817e-05
-0.000280133
0.000780163
-5.73608e-05
-0.000337852
0.000729913
-4.52612e-05
-0.000383231
0.000647768
-2.91431e-05
-0.000404753
0.000554384
-1.32411e-05
-0.000411357
0.000473896
-3.7558e-07
-0.000409207
0.000406392
8.72565e-06
-0.000401838
0.000348379
1.48915e-05
-0.000392818
0.000300174
1.86822e-05
-0.000382628
0.000257907
2.06251e-05
-0.00037477
0.00022672
2.18844e-05
-0.000367967
0.000202603
2.35882e-05
-0.000366273
0.0001976
2.90873e-05
-0.0003644
0.000206761
4.33498e-05
-0.000367688
0.000251479
8.00272e-05
-0.000365438
0.000260092
0.000152263
-0.000334421
0.000168658
0.000285319
-0.000343515
-0.000431025
0.000418892
-0.000102246
-0.00205111
0.000311808
-0.00393329
-0.000280631
-0.000648386
0.00131673
-0.000110828
-0.000604902
0.000742491
-7.7363e-05
-0.000476764
0.000613163
-4.91738e-05
-0.000303978
0.000489801
-1.90586e-05
-0.000127465
0.000392267
2.44843e-06
4.0026e-05
0.000319309
1.79976e-05
0.000191072
0.000265369
2.9239e-05
0.000325161
0.000221234
3.59266e-05
0.000441804
0.000187614
3.94464e-05
0.00054323
0.000157938
3.96488e-05
0.000633275
0.000135784
3.83123e-05
0.000712807
0.000119982
3.60317e-05
0.000797962
0.0001068
3.5282e-05
0.000889183
0.000106787
3.91896e-05
0.00103327
9.81171e-05
6.09617e-05
0.00120763
7.69918e-05
9.84958e-05
0.00142358
-3.01793e-05
0.000183589
0.00148562
-0.000446693
0.000319801
0.00104168
-0.00159487
0.000157251
-0.00299749
-0.000446578
0.00129
-0.000113235
0.00201486
-0.000120588
0.00261751
-0.000115286
0.00310582
-0.00010006
0.0035035
-8.0371e-05
0.00383172
-6.01915e-05
0.00410731
-3.92822e-05
0.00433797
-2.21039e-05
0.00453331
-4.74726e-06
0.00469637
5.89234e-06
0.00483556
1.54142e-05
0.00495505
2.10559e-05
0.00506076
2.01538e-05
0.00516333
2.80316e-05
0.00525523
2.12484e-05
0.00533587
3.42257e-05
0.0052961
3.86527e-05
0.00487225
1.76843e-05
0.00326013
-1.76754e-06
-0.000500984
-5.57412e-06
5.62724e-06
-4.30627e-07
-1.59021e-05
1.05787e-05
-3.62688e-07
-2.69518e-05
1.13416e-05
-2.86499e-07
-3.76157e-05
1.09562e-05
-2.22628e-07
-4.75406e-05
1.02009e-05
-1.89398e-07
-5.64991e-05