/*--------------------------------*- C++ -*----------------------------------*\
  =========                 |
  \\      /  F ield         | OpenFOAM: The Open Source CFD Toolbox
   \\    /   O peration     | Website:  https://openfoam.org
    \\  /    A nd           | Version:  10
     \\/     M anipulation  |
\*---------------------------------------------------------------------------*/
FoamFile
{
    format      ascii;
    class       surfaceScalarField;
    location    "9.5";
    object      phi;
}
// * * * * * * * * * * * * * * * * * * * * * * * * * * * * * * * * * * * * * //

dimensions      [0 3 -1 0 0 0 0];

internalField   nonuniform List<scalar> 
760
(
-1.40578e-05
1.40577e-05
-4.55162e-05
3.14584e-05
-8.35041e-05
3.79879e-05
-0.000123856
4.03521e-05
-0.000165382
4.15254e-05
-0.000207851
4.24696e-05
-0.000251017
4.31662e-05
-0.000294204
4.31869e-05
-0.000336077
4.18726e-05
-0.000374421
3.83444e-05
-0.000405959
3.15374e-05
-0.000426274
2.0315e-05
-0.000430008
3.73461e-06
-0.00041138
-1.86288e-05
-0.000366068
-4.53115e-05
-0.000293606
-7.24623e-05
-0.000200702
-9.29034e-05
-0.000103483
-9.72195e-05
-2.63088e-05
-7.71741e-05
-2.63088e-05
-3.43928e-05
4.84505e-05
-9.70284e-05
9.4094e-05
-0.000170535
0.000111494
-0.000247996
0.000117813
-0.000326874
0.000120403
-0.00040606
0.000121656
-0.000484472
0.000121578
-0.000560419
0.000119133
-0.000631242
0.000112696
-0.00069303
0.000100133
-0.000740418
7.89257e-05
-0.000766443
4.63398e-05
-0.000763747
1.03791e-06
-0.000723765
-5.86105e-05
-0.000640781
-0.000128296
-0.000514721
-0.000198522
-0.000356093
-0.000251531
-0.000190368
-0.000262944
-5.6122e-05
-0.00021142
-8.24308e-05
-4.40102e-05
9.24607e-05
-0.000121684
0.000171768
-0.000211878
0.000201688
-0.000306262
0.000212198
-0.000401784
0.000215925
-0.000497062
0.000216935
-0.0005908
0.000215316
-0.000681099
0.000209433
-0.000765069
0.000196665
-0.000838483
0.000173547
-0.000895463
0.000135905
-0.000928495
7.9372e-05
-0.000928238
7.81316e-07
-0.000883839
-0.000103009
-0.000786545
-0.00022559
-0.000633405
-0.000351663
-0.000435271
-0.000449665
-0.000226197
-0.000472019
-6.19333e-05
-0.000375684
-0.000144364
-4.77633e-05
0.000140224
-0.000131994
0.000255998
-0.000229506
0.0002992
-0.000331369
0.000314062
-0.00043453
0.000319086
-0.000537815
0.000320219
-0.000640244
0.000317745
-0.000740344
0.000309532
-0.000835713
0.000292034
-0.000922579
0.000260413
-0.000995236
0.000208562
-0.00104541
0.000129547
-0.00106197
1.73383e-05
-0.00103035
-0.000134626
-0.000934389
-0.000321552
-0.000762579
-0.000523473
-0.000520648
-0.000691595
-0.000254779
-0.000737887
-5.68227e-05
-0.00057364
-0.000201187
-4.85175e-05
0.000188742
-0.000135007
0.000342488
-0.000235407
0.000399599
-0.00034061
0.000419265
-0.000447836
0.000426312
-0.000556432
0.000428815
-0.000666145
0.000427458
-0.000776433
0.00041982
-0.000885993
0.000401594
-0.000992176
0.000366597
-0.00109013
0.000306511
-0.00117152
0.000210946
-0.00122296
6.87725e-05
-0.00122519
-0.00013239
-0.00115037
-0.000396379
-0.0009687
-0.000705141
-0.000668013
-0.000992282
-0.000306311
-0.00109959
-4.85062e-05
-0.000831445
-0.000249693
-4.77854e-05
0.000236527
-0.000134374
0.000429076
-0.00023552
0.000500746
-0.000342128
0.000525873
-0.000451809
0.000535993
-0.000564645
0.00054165
-0.000681427
0.000544241
-0.000803006
0.000541398
-0.000929845
0.000528433
-0.00106137
0.000498123
-0.00119487
0.000440015
-0.00132376
0.000339835
-0.00143466
0.000179664
-0.00150551
-6.15319e-05
-0.00149108
-0.000410813
-0.0013262
-0.000870025
-0.000952813
-0.00136566
-0.000434563
-0.00161784
-5.51853e-05
-0.00121082
-0.000304878
-4.6199e-05
0.000282726
-0.000131632
0.000514508
-0.000232208
0.000601322
-0.000338875
0.00063254
-0.000449668
0.000646786
-0.000565489
0.000657472
-0.000688414
0.000667166
-0.000821133
0.000674116
-0.000966656
0.000673957
-0.00112788
0.00065935
-0.00130665
0.00061878
-0.00150205
0.00053524
-0.00170675
0.000384358
-0.00189856
0.000130285
-0.00201359
-0.000295791
-0.00191878
-0.00096483
-0.00147461
-0.00180984
-0.000749347
-0.0023431
-0.000140427
-0.00181974
-0.000445305
-4.39689e-05
0.000326695
-0.000127295
0.000597835
-0.000226135
0.000700162
-0.000331391
0.000737795
-0.000441447
0.000756842
-0.00055801
0.000774035
-0.000684497
0.000793653
-0.000825716
0.000815335
-0.000987996
0.000836237
-0.00117931
0.000850663
-0.0014092
0.000848672
-0.0016885
0.000814541
-0.00202521
0.000721071
-0.0023994
0.000504467
-0.00271962
2.44326e-05
-0.00274671
-0.000937742
-0.00227341
-0.00228314
-0.00138857
-0.00322794
-0.000435792
-0.00277252
-0.000881097
-4.12207e-05
0.000367916
-0.000121629
0.000678243
-0.000217511
0.000796043
-0.00031953
0.000839815
-0.000426236
0.000863548
-0.000539963
0.000887762
-0.000665307
0.000918997
-0.000809096
0.000959125
-0.000981135
0.00100828
-0.00119556
0.00106509
-0.00147285
0.00112596
-0.0018404
0.00118209
-0.00232361
0.00120428
-0.00289913
0.00107998
-0.00340357
0.000528874
-0.00356299
-0.000778326
-0.00318057
-0.00266556
-0.00231497
-0.00409353
-0.00101963
-0.00406786
-0.00190073
-3.82089e-05
0.000406125
-0.000115143
0.000755177
-0.000206859
0.000887759
-0.000303531
0.000936488
-0.000403572
0.000963589
-0.000509604
0.000993793
-0.000626905
0.0010363
-0.000763629
0.00109585
-0.000932159
0.00117681
-0.00115163
0.00128456
-0.00145149
0.00142582
-0.00187073
0.00160133
-0.00243528
0.00176883
-0.00309764
0.00174235
-0.0036616
0.00109284
-0.00387769
-0.000562241
-0.00368773
-0.00285552
-0.00304005
-0.00474121
-0.00167292
-0.005435
-0.00357364
-3.54449e-05
0.000441569
-0.000108885
0.000828617
-0.000195481
0.000974356
-0.000284631
0.00102564
-0.000374294
0.00105325
-0.000466874
0.00108637
-0.000567435
0.00113686
-0.000683889
0.0012123
-0.000828452
0.00132137
-0.00102011
0.00147622
-0.00128702
0.00169274
-0.0016619
0.0019762
-0.00215158
0.00225851
-0.00268416
0.00227493
-0.00311473
0.0015234
-0.00331137
-0.000365605
-0.00329969
-0.00286719
-0.00294534
-0.00509556
-0.00188154
-0.0064988
-0.00545518
-3.39594e-05
0.000475529
-0.000104912
0.00089957
-0.000185959
0.0010554
-0.000265575
0.00110525
-0.000341222
0.0011289
-0.000414631
0.00115978
-0.000489601
0.00121183
-0.000571751
0.00129445
-0.000669208
0.00141883
-0.000793351
0.00160036
-0.000958287
0.00185767
-0.00117468
0.00219259
-0.00143442
0.00251825
-0.00168932
0.00252983
-0.00189893
0.00173302
-0.00204212
-0.000222418
-0.0021779
-0.00273141
-0.00218499
-0.00508847
-0.00158493
-0.00709886
-0.00704011
-3.49197e-05
0.000510449
-0.00010567
0.00097032
-0.000181852
0.00113158
-0.000251002
0.0011744
-0.000309991
0.00118789
-0.000359756
0.00120955
-0.000402434
0.00125451
-0.000440197
0.00133222
-0.00047512
0.00145375
-0.000508078
0.00163332
-0.000536695
0.00188629
-0.000551868
0.00220777
-0.000546221
0.00251261
-0.000523016
0.00250663
-0.000538814
0.00174882
-0.000672212
-8.90203e-05
-0.000970839
-0.00243279
-0.00130748
-0.00475183
-0.00114025
-0.00726609
-0.00818036
-4.25297e-05
0.000552978
-0.000118047
0.00104584
-0.000189725
0.00120326
-0.000246121
0.0012308
-0.000285934
0.0012277
-0.000309938
0.00123355
-0.000318158
0.00126273
-0.000309531
0.00132359
-0.000280789
0.00142501
-0.000224169
0.0015767
-0.000124772
0.00178689
3.54208e-05
0.00204757
0.000258453
0.00228957
0.000492673
0.00227241
0.000616994
0.00162449
0.000471276
5.66976e-05
3.77395e-05
-0.00199925
-0.000608729
-0.00410537
-0.000797946
-0.00707687
-0.0089783
-5.30687e-05
0.000606047
-0.000137817
0.00113059
-0.000210675
0.00127612
-0.000260501
0.00128063
-0.000283735
0.00125094
-0.000282133
0.00123195
-0.000256076
0.00123667
-0.000203247
0.00127076
-0.000117954
0.00133971
1.24725e-05
0.00144627
0.000200467
0.0015989
0.000468505
0.00177954
0.000821263
0.00193682
0.00119024
0.00190343
0.00140485
0.00140988
0.00126091
0.000200636
0.00071616
-0.0014545
-0.000106916
-0.00328229
-0.000518347
-0.00666544
-0.00949665
-0.000120927
0.000726974
-0.000219759
0.00122942
-0.000275669
0.00133203
-0.000296785
0.00130174
-0.000291517
0.00124567
-0.000262731
0.00120316
-0.000208093
0.00118203
-0.000122119
0.00118479
3.32949e-06
0.00121427
0.000177322
0.00127228
0.000416856
0.00135937
0.000735519
0.00146087
0.00112869
0.00154365
0.00153447
0.00149765
0.00178678
0.00115757
0.0016677
0.000319724
0.00110294
-0.00088974
0.000212469
-0.00239182
-0.000304346
-0.00614863
-0.009801
-7.7856e-05
0.00080483
-0.000243366
0.00139493
-0.000338035
0.0014267
-0.000368859
0.00133256
-0.000354272
0.00123108
-0.000304909
0.0011538
-0.000223145
0.00110027
-0.000105817
0.00106746
5.27872e-05
0.00105566
0.000262449
0.00106262
0.00053186
0.00108995
0.000868643
0.00112409
0.00125928
0.00115301
0.00165232
0.00110462
0.00190849
0.000901399
0.00182034
0.00040787
0.00133795
-0.000407352
0.000569005
-0.00162287
7.0342e-05
-0.00564996
-0.00973065
-0.000374663
0.00117949
-0.000419674
0.00143994
-0.000449526
0.00145655
-0.000465612
0.00134865
-0.000433185
0.00119866
-0.000358827
0.00107944
-0.00024556
0.000987001
-9.1105e-05
0.000913004
0.000103876
0.000860679
0.000345446
0.000821048
0.000633395
0.000802006
0.000970511
0.000786972
0.0013397
0.000783815
0.00169197
0.000752346
0.00195311
0.00064026
0.00197515
0.000385825
0.00181462
-0.000246822
0.00146427
-0.00127252
0.000830841
-0.00501653
-0.00889981
-0.00136299
0.00254249
-0.00132087
0.00139781
-0.00105235
0.00118803
-0.000670578
0.000966879
-0.000269288
0.000797365
0.00013581
0.000674343
0.000534238
0.000588572
0.000926285
0.000520957
0.00131373
0.000473236
0.00170238
0.000432394
0.00209767
0.00040672
0.00250211
0.000382526
0.00292299
0.000362938
0.00334337
0.000331966
0.00373241
0.000251219
0.00400163
0.000116603
0.00407858
-0.000323763
0.00394102
-0.00113496
0.00250268
-0.0035782
-0.00639713
0.00254249
0.0039403
0.00512833
0.00609521
0.00689258
0.00756692
0.00815549
0.00867645
0.00914969
0.00958208
0.0099888
0.0103713
0.0107343
0.0110662
0.0113174
0.0114341
0.0111103
0.00997533
0.00639713
)
;

boundaryField
{
    movingWall
    {
        type            calculated;
        value           uniform 0;
    }
    fixedWalls
    {
        type            calculated;
        value           uniform 0;
    }
    frontAndBack
    {
        type            empty;
        value           nonuniform List<scalar> 0();
    }
}


// ************************************************************************* //
