/*--------------------------------*- C++ -*----------------------------------*\
  =========                 |
  \\      /  F ield         | OpenFOAM: The Open Source CFD Toolbox
   \\    /   O peration     | Website:  https://openfoam.org
    \\  /    A nd           | Version:  10
     \\/     M anipulation  |
\*---------------------------------------------------------------------------*/
FoamFile
{
    format      ascii;
    class       volScalarField;
    location    "9.875";
    object      p;
}
// * * * * * * * * * * * * * * * * * * * * * * * * * * * * * * * * * * * * * //

dimensions      [0 2 -2 0 0 0 0];

internalField   nonuniform List<scalar> 
400
(
2.97682e-07
-3.35066e-05
2.44906e-05
0.000137793
0.000315522
0.000561153
0.000880561
0.00128162
0.00177281
0.00236144
0.00305091
0.00383718
0.00470294
0.00561139
0.00649857
0.00727626
0.00784347
0.00813917
0.00819738
0.00802747
3.87413e-05
4.36836e-06
7.19866e-05
0.000189392
0.000367242
0.000609823
0.000923289
0.00131533
0.00179411
0.00236704
0.00303853
0.00380627
0.00465387
0.00555049
0.0064328
0.00720984
0.00777156
0.00804938
0.00808733
0.00789941
-3.58348e-05
-8.05683e-05
-1.46568e-05
9.7471e-05
0.000267112
0.000498616
0.000798582
0.00117561
0.00163952
0.00220064
0.00286766
0.00364375
0.00452159
0.00547341
0.00643174
0.00728777
0.00789537
0.00815005
0.00811185
0.00784794
-0.000200658
-0.000252471
-0.000191367
-8.90157e-05
6.65794e-05
0.00027993
0.000558294
0.000911587
0.00135206
0.00189427
0.00255396
0.00334376
0.00426591
0.00530035
0.00638215
0.00737515
0.00807082
0.00828601
0.0080948
0.00771004
-0.000467304
-0.000524711
-0.000472412
-0.000385261
-0.000250663
-6.3925e-05
0.00018287
0.000501023
0.000905483
0.00141569
0.00205576
0.00285224
0.00382407
0.0049648
0.0062204
0.00742581
0.00827157
0.00842505
0.00797546
0.00740226
-0.000833898
-0.000896449
-0.000856924
-0.000790745
-0.000685126
-0.000535594
-0.000334229
-6.90629e-05
0.000276573
0.000725916
0.00131064
0.00207177
0.00305204
0.00427223
0.00572589
0.00723082
0.00832852
0.00838866
0.00760594
0.00671156
-0.00129286
-0.00136076
-0.00133786
-0.00129889
-0.00123152
-0.00113228
-0.000994647
-0.000808313
-0.000557814
-0.00022016
0.000238126
0.0008643
0.00172172
0.00288505
0.00439837
0.0062114
0.00769807
0.00774499
0.00677778
0.00549428
-0.00183337
-0.00190709
-0.00190437
-0.0018988
-0.00187947
-0.0018452
-0.00179304
-0.00171788
-0.00161184
-0.00146219
-0.00124866
-0.000944347
-0.000513108
0.000133954
0.00120316
0.00294799
0.00492166
0.00563971
0.00526324
0.00398631
-0.0024417
-0.00252167
-0.0025416
-0.00257435
-0.00261155
-0.00265603
-0.00271132
-0.00278229
-0.00287682
-0.0030081
-0.00320083
-0.00351573
-0.0040843
-0.00497863
-0.00577478
-0.00521411
-0.00284425
0.000344262
0.00263858
0.00333437
-0.00310173
-0.00318792
-0.00323068
-0.00330356
-0.00340164
-0.00353365
-0.00371258
-0.00395835
-0.00430418
-0.00480799
-0.00557552
-0.00681934
-0.00900842
-0.0125644
-0.0170496
-0.0190965
-0.0165302
-0.00977298
-0.00277052
0.00240245
-0.00379609
-0.003888
-0.00395015
-0.00405989
-0.00421594
-0.00443461
-0.00474007
-0.00517038
-0.00579013
-0.00671445
-0.00815879
-0.0105307
-0.0146603
-0.0212811
-0.0298582
-0.0351483
-0.0329466
-0.0235466
-0.0125241
-0.00314048
-0.00450774
-0.00460342
-0.0046752
-0.00481055
-0.00501138
-0.0053019
-0.00571597
-0.00630704
-0.0071655
-0.00845002
-0.0104544
-0.0136958
-0.0191853
-0.027568
-0.0382913
-0.0449294
-0.043364
-0.034067
-0.0232735
-0.0120586
-0.00522546
-0.00532342
-0.00539008
-0.00553212
-0.00575331
-0.00608522
-0.00656739
-0.00726038
-0.00826459
-0.00974915
-0.0120289
-0.0155609
-0.0213883
-0.0298045
-0.040455
-0.0465743
-0.045538
-0.0374828
-0.0289273
-0.0183901
-0.00593843
-0.00602786
-0.00605833
-0.00617524
-0.00638471
-0.00672143
-0.00722276
-0.00794691
-0.00898895
-0.0104953
-0.0127855
-0.0160275
-0.0213251
-0.0284895
-0.0370646
-0.0417891
-0.0412722
-0.0345501
-0.0293265
-0.0197425
-0.00667205
-0.00675851
-0.00672493
-0.00678891
-0.0069426
-0.00723142
-0.00769035
-0.00836896
-0.00934673
-0.0107193
-0.0127269
-0.0155537
-0.0196968
-0.024974
-0.0310504
-0.0342495
-0.0337064
-0.027899
-0.025713
-0.0160131
-0.00751449
-0.00740031
-0.00722078
-0.00714178
-0.00721095
-0.00744452
-0.00785642
-0.00847128
-0.0093405
-0.0105449
-0.0122217
-0.0144862
-0.0175573
-0.0211769
-0.0251348
-0.0267236
-0.0261334
-0.0209493
-0.0205119
-0.00684803
-0.00794668
-0.0083218
-0.00794062
-0.00786167
-0.0077723
-0.0078436
-0.00808686
-0.00853424
-0.00922767
-0.0102215
-0.0115996
-0.0134063
-0.0157501
-0.0182986
-0.0209479
-0.0217665
-0.0208763
-0.0158292
-0.0137887
0.0108578
-0.0113119
-0.00872777
-0.00798144
-0.00726097
-0.00708156
-0.00717224
-0.00747982
-0.00796534
-0.00865405
-0.0095684
-0.010796
-0.0123343
-0.0142808
-0.016241
-0.0181215
-0.0182085
-0.0166471
-0.00989875
-0.00107858
0.0421468
-0.00788359
-0.0107975
-0.00954981
-0.00941608
-0.00883883
-0.00851628
-0.00840001
-0.00851235
-0.00890947
-0.00957281
-0.0106147
-0.0119683
-0.0138414
-0.0157768
-0.017903
-0.0178244
-0.0154545
-0.00190564
0.0223032
0.0987901
-0.0331276
-0.00794552
-0.0062459
-0.00537615
-0.00508865
-0.00522862
-0.00567713
-0.0062484
-0.00703556
-0.00795696
-0.00923189
-0.010675
-0.012444
-0.013754
-0.0142679
-0.0103458
0.000706153
0.0345852
0.0997304
0.229803
)
;

boundaryField
{
    movingWall
    {
        type            zeroGradient;
    }
    fixedWalls
    {
        type            zeroGradient;
    }
    frontAndBack
    {
        type            empty;
    }
}


// ************************************************************************* //
