/*--------------------------------*- C++ -*----------------------------------*\
  =========                 |
  \\      /  F ield         | OpenFOAM: The Open Source CFD Toolbox
   \\    /   O peration     | Website:  https://openfoam.org
    \\  /    A nd           | Version:  10
     \\/     M anipulation  |
\*---------------------------------------------------------------------------*/
FoamFile
{
    format      ascii;
    class       volVectorField;
    location    "9.875";
    object      U;
}
// * * * * * * * * * * * * * * * * * * * * * * * * * * * * * * * * * * * * * //

dimensions      [0 1 -1 0 0 0 0];

internalField   nonuniform List<vector> 
400
(
(-0.000174942 0.000147372 0)
(-0.00133814 0.000488682 0)
(-0.00331636 0.000612657 0)
(-0.00535847 0.000656841 0)
(-0.0074968 0.000685964 0)
(-0.00969671 0.000720828 0)
(-0.0119526 0.000760774 0)
(-0.0142465 0.000796621 0)
(-0.0165278 0.000814076 0)
(-0.0187031 0.000792711 0)
(-0.0206248 0.000705629 0)
(-0.0220795 0.000522598 0)
(-0.0227899 0.000217643 0)
(-0.0224291 -0.000233377 0)
(-0.0206911 -0.00080099 0)
(-0.0174181 -0.00139039 0)
(-0.0128103 -0.00181942 0)
(-0.00758091 -0.00186219 0)
(-0.00247887 -0.00135368 0)
(-1.4186e-05 -0.000253661 0)
(-0.000594154 0.00137205 0)
(-0.00309234 0.00287645 0)
(-0.00693114 0.00345146 0)
(-0.0109035 0.00367002 0)
(-0.0150241 0.00378258 0)
(-0.0192039 0.00387014 0)
(-0.0233961 0.00393078 0)
(-0.027536 0.00392597 0)
(-0.0315103 0.00379524 0)
(-0.0351414 0.0034573 0)
(-0.0381718 0.00281353 0)
(-0.0402548 0.00175899 0)
(-0.0409804 0.000203656 0)
(-0.0398792 -0.00186875 0)
(-0.0365177 -0.00431132 0)
(-0.0307011 -0.00673772 0)
(-0.0227568 -0.00846034 0)
(-0.0137833 -0.00862087 0)
(-0.00504908 -0.0065978 0)
(-0.000448273 -0.00219624 0)
(-0.000789983 0.00362021 0)
(-0.00393975 0.00684037 0)
(-0.00868006 0.00807548 0)
(-0.0135537 0.00853839 0)
(-0.0185781 0.00873937 0)
(-0.0236429 0.00884237 0)
(-0.0286892 0.00884635 0)
(-0.0336418 0.00867579 0)
(-0.0383756 0.00821064 0)
(-0.0426967 0.00729192 0)
(-0.0463252 0.00572934 0)
(-0.0488854 0.00332461 0)
(-0.0498948 -8.12709e-05 0)
(-0.0487657 -0.00449869 0)
(-0.0449046 -0.00966988 0)
(-0.0379202 -0.0148276 0)
(-0.0280311 -0.0185531 0)
(-0.0165991 -0.0189154 0)
(-0.00560065 -0.0145162 0)
(-0.000275832 -0.00526532 0)
(-0.000857456 0.00605235 0)
(-0.00428338 0.0111257 0)
(-0.00942483 0.0130442 0)
(-0.0146926 0.0137414 0)
(-0.0201213 0.0140201 0)
(-0.0256043 0.0141355 0)
(-0.0310979 0.0140912 0)
(-0.0365484 0.0137795 0)
(-0.0418585 0.0130246 0)
(-0.0468646 0.0115893 0)
(-0.0513072 0.00917934 0)
(-0.0548004 0.00547204 0)
(-0.0567999 0.000192876 0)
(-0.056573 -0.00676029 0)
(-0.0531996 -0.0151257 0)
(-0.0457754 -0.0237938 0)
(-0.0340025 -0.0303908 0)
(-0.0193757 -0.0311811 0)
(-0.0053112 -0.0232994 0)
(0.00038034 -0.0078452 0)
(-0.000857748 0.00859055 0)
(-0.00435929 0.0156188 0)
(-0.00964539 0.018256 0)
(-0.0150681 0.0192056 0)
(-0.0206824 0.0195888 0)
(-0.0264021 0.0197642 0)
(-0.0322187 0.0197492 0)
(-0.038126 0.0194121 0)
(-0.0440872 0.0185286 0)
(-0.0500092 0.016783 0)
(-0.0557005 0.013761 0)
(-0.0608054 0.00896458 0)
(-0.0647326 0.00188885 0)
(-0.0665921 -0.00782417 0)
(-0.0650105 -0.0201388 0)
(-0.0581465 -0.0337967 0)
(-0.0443856 -0.0452242 0)
(-0.0247636 -0.0474008 0)
(-0.00510244 -0.0341101 0)
(0.00147954 -0.00981092 0)
(-0.000823896 0.0111182 0)
(-0.00429475 0.0201559 0)
(-0.00959134 0.0235456 0)
(-0.0150492 0.0247794 0)
(-0.0207418 0.0253172 0)
(-0.0266125 0.0256374 0)
(-0.0327024 0.0257872 0)
(-0.0390746 0.025628 0)
(-0.0457839 0.0249024 0)
(-0.0528549 0.0232261 0)
(-0.0602333 0.0200585 0)
(-0.067698 0.0146847 0)
(-0.0747504 0.00624218 0)
(-0.0804946 -0.00615575 0)
(-0.0830446 -0.0230769 0)
(-0.0789223 -0.0439465 0)
(-0.0637038 -0.064018 0)
(-0.0370108 -0.070383 0)
(-0.00743038 -0.0491022 0)
(0.00283178 -0.0112286 0)
(-0.000769518 0.0135683 0)
(-0.00414616 0.0246382 0)
(-0.00937053 0.0288121 0)
(-0.0147828 0.0303662 0)
(-0.0204704 0.0311179 0)
(-0.026409 0.0316854 0)
(-0.0326967 0.0321672 0)
(-0.0394827 0.0324459 0)
(-0.0469458 0.0322656 0)
(-0.0552859 0.0312096 0)
(-0.0646933 0.0286447 0)
(-0.0752854 0.0236606 0)
(-0.0869846 0.0149929 0)
(-0.0991519 0.000886678 0)
(-0.109464 -0.0209209 0)
(-0.111563 -0.052145 0)
(-0.0962482 -0.0873336 0)
(-0.0623391 -0.103632 0)
(-0.0194314 -0.0732837 0)
(0.00311232 -0.0145157 0)
(-0.000699057 0.0158984 0)
(-0.00393451 0.029003 0)
(-0.00902074 0.0339849 0)
(-0.0143089 0.0358867 0)
(-0.019893 0.0369015 0)
(-0.025777 0.0378102 0)
(-0.032114 0.0387909 0)
(-0.0391435 0.0397852 0)
(-0.0471901 0.0405951 0)
(-0.0566851 0.0408576 0)
(-0.0681843 0.0399733 0)
(-0.0823975 0.0370113 0)
(-0.100157 0.0304269 0)
(-0.121602 0.0170238 0)
(-0.143182 -0.0094573 0)
(-0.153686 -0.0555961 0)
(-0.140056 -0.113986 0)
(-0.104058 -0.146888 0)
(-0.0511221 -0.113944 0)
(-0.00121345 -0.0276139 0)
(-0.000615643 0.0180741 0)
(-0.0036728 0.0331977 0)
(-0.00856128 0.0389947 0)
(-0.0136377 0.0412469 0)
(-0.0189921 0.0425412 0)
(-0.0246448 0.0438464 0)
(-0.0307903 0.0454511 0)
(-0.0377443 0.0474018 0)
(-0.0459649 0.0496345 0)
(-0.0561218 0.0519733 0)
(-0.0691913 0.0540748 0)
(-0.0866143 0.0552675 0)
(-0.110391 0.0537543 0)
(-0.141317 0.0436226 0)
(-0.173115 0.0119254 0)
(-0.189651 -0.0545055 0)
(-0.18058 -0.140218 0)
(-0.151693 -0.193532 0)
(-0.0982785 -0.174922 0)
(-0.0157184 -0.063385 0)
(-0.000526078 0.0200703 0)
(-0.00338429 0.0371797 0)
(-0.00802687 0.0437714 0)
(-0.0127989 0.0463371 0)
(-0.0177743 0.0478724 0)
(-0.0229705 0.0495582 0)
(-0.0285959 0.0518211 0)
(-0.0350013 0.0548569 0)
(-0.0427165 0.0588181 0)
(-0.0525604 0.063868 0)
(-0.06579 0.0701595 0)
(-0.0842433 0.0774185 0)
(-0.110447 0.0829922 0)
(-0.144666 0.0765571 0)
(-0.178498 0.0378299 0)
(-0.194748 -0.0482792 0)
(-0.190984 -0.157461 0)
(-0.173286 -0.236049 0)
(-0.130972 -0.25049 0)
(-0.0389265 -0.136876 0)
(-0.000443681 0.0218813 0)
(-0.00311289 0.0409218 0)
(-0.00748729 0.0482404 0)
(-0.0118708 0.0510224 0)
(-0.0163131 0.0526842 0)
(-0.0208034 0.054633 0)
(-0.0255256 0.0574416 0)
(-0.0307956 0.0614704 0)
(-0.0370891 0.0671232 0)
(-0.0451428 0.074963 0)
(-0.0560752 0.0856744 0)
(-0.0712898 0.0991207 0)
(-0.0924247 0.110889 0)
(-0.118925 0.106065 0)
(-0.143441 0.0603869 0)
(-0.154364 -0.038728 0)
(-0.155475 -0.161401 0)
(-0.148804 -0.262848 0)
(-0.128363 -0.317727 0)
(-0.0503131 -0.241299 0)
(-0.000395498 0.0235488 0)
(-0.00294475 0.0444725 0)
(-0.00707578 0.0524171 0)
(-0.0110071 0.0552576 0)
(-0.0147777 0.0568415 0)
(-0.0183324 0.0588094 0)
(-0.0217978 0.0618664 0)
(-0.0253826 0.0665002 0)
(-0.0293721 0.073298 0)
(-0.0341551 0.0830759 0)
(-0.0402431 0.0967503 0)
(-0.0480157 0.113921 0)
(-0.05801 0.128711 0)
(-0.0698303 0.123632 0)
(-0.0805735 0.0742469 0)
(-0.0850289 -0.0296485 0)
(-0.0912439 -0.152696 0)
(-0.0966462 -0.263608 0)
(-0.101767 -0.352142 0)
(-0.0409004 -0.328575 0)
(-0.000413219 0.0251288 0)
(-0.00297152 0.04778 0)
(-0.00695323 0.056079 0)
(-0.0104321 0.0587017 0)
(-0.0134564 0.059949 0)
(-0.0159172 0.0616418 0)
(-0.0178852 0.0645442 0)
(-0.0194382 0.0691858 0)
(-0.0206217 0.076184 0)
(-0.0214034 0.0863368 0)
(-0.021644 0.100463 0)
(-0.020735 0.117797 0)
(-0.018599 0.132541 0)
(-0.0153162 0.127372 0)
(-0.0141311 0.079213 0)
(-0.0153359 -0.0217558 0)
(-0.0301203 -0.137111 0)
(-0.0470483 -0.248425 0)
(-0.0738848 -0.363108 0)
(-0.0285351 -0.387951 0)
(-0.000611454 0.0269705 0)
(-0.00351688 0.0515292 0)
(-0.00750125 0.0600929 0)
(-0.0104519 0.062263 0)
(-0.0126083 0.0627445 0)
(-0.0138841 0.0636243 0)
(-0.0142923 0.0657377 0)
(-0.013781 0.0695988 0)
(-0.0122057 0.0757317 0)
(-0.00918842 0.0847111 0)
(-0.00424501 0.0970395 0)
(0.00393701 0.111893 0)
(0.0154459 0.12429 0)
(0.0298785 0.119603 0)
(0.0386618 0.0774152 0)
(0.0411001 -0.0122742 0)
(0.0188111 -0.115498 0)
(-0.00525255 -0.220137 0)
(-0.0524356 -0.357393 0)
(-0.0190759 -0.432716 0)
(-0.000950559 0.0292829 0)
(-0.00424715 0.0544005 0)
(-0.0086123 0.0621282 0)
(-0.0113509 0.0630383 0)
(-0.0128935 0.0626094 0)
(-0.013057 0.0627452 0)
(-0.0119357 0.0640857 0)
(-0.00946447 0.0669483 0)
(-0.00545064 0.0716685 0)
(0.000609178 0.078537 0)
(0.00938851 0.0877649 0)
(0.0221311 0.0984872 0)
(0.0385719 0.1068 0)
(0.0589888 0.102351 0)
(0.0721873 0.069193 0)
(0.0780933 -0.0021443 0)
(0.0511933 -0.0883493 0)
(0.0257418 -0.181021 0)
(-0.0375199 -0.339411 0)
(-0.00880433 -0.464164 0)
(-0.00304062 0.0310335 0)
(-0.00870481 0.0607968 0)
(-0.0123307 0.0683347 0)
(-0.0139201 0.0685439 0)
(-0.0139351 0.0661798 0)
(-0.0127036 0.0642307 0)
(-0.0102002 0.0634499 0)
(-0.00622964 0.0641271 0)
(-0.000509806 0.0664414 0)
(0.00756223 0.0704457 0)
(0.0185109 0.076113 0)
(0.0332469 0.0824442 0)
(0.0510409 0.0868031 0)
(0.0730258 0.0824201 0)
(0.0869202 0.0589978 0)
(0.0956545 0.00789165 0)
(0.0676465 -0.058134 0)
(0.0441979 -0.138463 0)
(-0.0283702 -0.320195 0)
(0.00154031 -0.488423 0)
(-0.000890929 0.0441605 0)
(-0.00717394 0.061685 0)
(-0.0158597 0.0648084 0)
(-0.0173047 0.0612689 0)
(-0.017478 0.0582844 0)
(-0.0153293 0.056307 0)
(-0.0116171 0.0553862 0)
(-0.00619696 0.055408 0)
(0.00108898 0.0564093 0)
(0.0107556 0.0583447 0)
(0.0230943 0.0612004 0)
(0.0386855 0.0641742 0)
(0.0561735 0.0657832 0)
(0.0776252 0.0617952 0)
(0.090511 0.0464268 0)
(0.101042 0.0135495 0)
(0.0744224 -0.0332848 0)
(0.0596825 -0.0998071 0)
(-0.011075 -0.298167 0)
(0.0201019 -0.498226 0)
(-0.0125875 0.0321313 0)
(-0.0227963 0.0808057 0)
(-0.0199391 0.0813151 0)
(-0.0232348 0.076486 0)
(-0.022029 0.0690552 0)
(-0.0189953 0.0629269 0)
(-0.0138429 0.0581035 0)
(-0.00672813 0.0544653 0)
(0.00230149 0.052007 0)
(0.0136085 0.0504381 0)
(0.0270131 0.0498494 0)
(0.043099 0.0494249 0)
(0.059571 0.0493158 0)
(0.0797622 0.0465802 0)
(0.0904628 0.0396709 0)
(0.104692 0.0231423 0)
(0.0859042 -0.00635064 0)
(0.0956959 -0.0619606 0)
(0.0383052 -0.272197 0)
(0.0564624 -0.487843 0)
(-0.0777176 0.0956533 0)
(-0.0631913 0.0587049 0)
(-0.0647995 0.0601106 0)
(-0.0417657 0.0535381 0)
(-0.0234971 0.0465387 0)
(-0.0023957 0.0413587 0)
(0.0175221 0.037597 0)
(0.0378774 0.03443 0)
(0.0568 0.0321619 0)
(0.0774618 0.0300878 0)
(0.0953879 0.0289411 0)
(0.118239 0.0276892 0)
(0.133914 0.0267239 0)
(0.161851 0.0250818 0)
(0.170455 0.019305 0)
(0.202117 0.0102669 0)
(0.187906 -0.021649 0)
(0.220458 -0.0730773 0)
(0.153448 -0.25117 0)
(0.124222 -0.432149 0)
(0.119304 0.140672 0)
(0.151743 0.0859149 0)
(0.228135 0.0633737 0)
(0.283634 0.0479607 0)
(0.325153 0.0373803 0)
(0.363545 0.0296456 0)
(0.39238 0.0242684 0)
(0.423673 0.020208 0)
(0.443776 0.0173485 0)
(0.47243 0.0150121 0)
(0.485411 0.0133523 0)
(0.514774 0.0119181 0)
(0.520274 0.0107967 0)
(0.552173 0.00938696 0)
(0.5467 0.00735606 0)
(0.578037 0.00287392 0)
(0.54573 -0.00580113 0)
(0.551436 -0.0267279 0)
(0.41882 -0.0728962 0)
(0.274531 -0.151553 0)
)
;

boundaryField
{
    movingWall
    {
        type            fixedValue;
        value           uniform (1 0 0);
    }
    fixedWalls
    {
        type            noSlip;
    }
    frontAndBack
    {
        type            empty;
    }
}


// ************************************************************************* //
