/*--------------------------------*- C++ -*----------------------------------*\
  =========                 |
  \\      /  F ield         | OpenFOAM: The Open Source CFD Toolbox
   \\    /   O peration     | Website:  https://openfoam.org
    \\  /    A nd           | Version:  10
     \\/     M anipulation  |
\*---------------------------------------------------------------------------*/
FoamFile
{
    format      ascii;
    class       surfaceScalarField;
    location    "4.4";
    object      phi;
}
// * * * * * * * * * * * * * * * * * * * * * * * * * * * * * * * * * * * * * //

dimensions      [0 3 -1 0 0 0 0];

internalField   nonuniform List<scalar> 
22800
(
-2.27317e-06
2.59602e-06
-3.28591e-07
-7.45254e-06
5.08233e-06
9.70425e-08
-1.33709e-05
5.66169e-06
2.56647e-07
-1.9376e-05
5.67124e-06
3.33855e-07
-2.52193e-05
5.50827e-06
3.3503e-07
-3.0758e-05
5.25159e-06
2.87125e-07
-3.58584e-05
4.8957e-06
2.04705e-07
-4.03663e-05
4.4183e-06
8.96428e-08
-4.41062e-05
3.79415e-06
-5.42827e-08
-4.68828e-05
3.00033e-06
-2.23754e-07
-4.8475e-05
2.02207e-06
-4.29786e-07
-4.86556e-05
8.56509e-07
-6.75986e-07
-4.7208e-05
-5.08657e-07
-9.38894e-07
-4.39716e-05
-2.02113e-06
-1.21527e-06
-3.88631e-05
-3.62257e-06
-1.48592e-06
-3.19328e-05
-5.20938e-06
-1.72092e-06
-2.34405e-05
-6.62371e-06
-1.86862e-06
-1.39997e-05
-7.58747e-06
-1.85329e-06
-4.92257e-06
-7.45219e-06
-1.62495e-06
-4.23196e-06
-6.90609e-07
-4.71531e-06
8.38799e-06
-1.07666e-06
-1.35159e-05
1.45841e-05
-7.01173e-07
-2.32906e-05
1.59622e-05
-5.25902e-07
-3.30879e-05
1.5855e-05
-3.86396e-07
-4.25122e-05
1.52475e-05
-3.14909e-07
-5.13168e-05
1.43431e-05
-2.86893e-07
-5.9279e-05
1.31457e-05
-2.87803e-07
-6.61624e-05
1.16186e-05
-3.16914e-07
-7.17088e-05
9.71773e-06
-3.7723e-07
-7.56367e-05
7.40071e-06
-4.72458e-07
-7.76399e-05
4.63053e-06
-6.05231e-07
-7.74417e-05
1.43284e-06
-7.74588e-07
-7.47577e-05
-2.20613e-06
-9.86442e-07
-6.93659e-05
-6.19873e-06
-1.21426e-06
-6.11836e-05
-1.03604e-05
-1.4445e-06
-5.03112e-05
-1.44388e-05
-1.64295e-06
-3.71412e-05
-1.80477e-05
-1.74597e-06
-2.2562e-05
-2.04994e-05
-1.66727e-06
-8.43499e-06
-2.02143e-05
-1.3649e-06
-1.23798e-05
-2.87158e-07
-5.46375e-06
1.5277e-05
-1.42521e-06
-1.54611e-05
2.56675e-05
-1.08602e-06
-2.64884e-05
2.78918e-05
-9.02302e-07
-3.75003e-05
2.76015e-05
-7.34714e-07
-4.80726e-05
2.64502e-05
-6.30449e-07
-5.79426e-05
2.47785e-05
-5.65375e-07
-6.68723e-05
2.26024e-05
-5.27022e-07
-7.46095e-05
1.98721e-05
-5.16323e-07
-8.08776e-05
1.65247e-05
-5.38794e-07
-8.5374e-05
1.24979e-05
-6.00803e-07
-8.77826e-05
7.74518e-06
-7.06054e-07
-8.77484e-05
2.25963e-06
-8.60964e-07
-8.49311e-05
-3.96815e-06
-1.05533e-06
-7.90721e-05
-1.07734e-05
-1.2843e-06
-7.0022e-05
-1.78841e-05
-1.52629e-06
-5.78338e-05
-2.48854e-05
-1.74161e-06
-4.28986e-05
-3.11279e-05
-1.85499e-06
-2.61973e-05
-3.54359e-05
-1.76481e-06
-9.86558e-06
-3.51203e-05
-1.4258e-06
-2.20207e-05
-2.24716e-07
-5.72995e-06
2.27148e-05
-1.70791e-06
-1.62878e-05
3.7633e-05
-1.40769e-06
-2.79267e-05
4.07524e-05
-1.22161e-06
-3.95617e-05
4.02718e-05
-1.03531e-06
-5.07675e-05
3.8565e-05
-9.09048e-07
-6.1288e-05
3.61189e-05
-8.19796e-07
-7.08911e-05
3.2962e-05
-7.56438e-07
-7.93265e-05
2.90294e-05
-7.21913e-07
-8.63125e-05
2.42336e-05
-7.22997e-07
-9.15294e-05
1.84823e-05
-7.67414e-07
-9.46194e-05
1.16974e-05
-8.62264e-07
-9.51978e-05
3.85144e-06
-1.01338e-06
-9.28294e-05
-5.10368e-06
-1.23281e-06
-8.71154e-05
-1.49964e-05
-1.49109e-06
-7.77787e-05
-2.54481e-05
-1.77271e-06
-6.4755e-05
-3.5876e-05
-2.03307e-06
-4.83842e-05
-4.53151e-05
-2.1836e-06
-2.9729e-05
-5.19921e-05
-2.09897e-06
-1.12403e-05
-5.1888e-05
-1.72099e-06
-3.29265e-05
-3.34409e-07
-5.94111e-06
3.06209e-05
-1.96493e-06
-1.70244e-05
5.04125e-05
-1.69622e-06
-2.92662e-05
5.45031e-05
-1.50897e-06
-4.15389e-05
5.38542e-05
-1.30955e-06
-5.34203e-05
5.16165e-05
-1.1701e-06
-6.46692e-05
4.84359e-05
-1.06818e-06
-7.50692e-05
4.43557e-05
-9.93803e-07
-8.43815e-05
3.92934e-05
-9.51655e-07
-9.23261e-05
3.3129e-05
-9.50764e-07
-9.85681e-05
2.57259e-05
-1.00156e-06
-0.000102708
1.69503e-05
-1.1134e-06
-0.000104279
6.71211e-06
-1.28966e-06
-0.000102744
-5.07241e-06
-1.56595e-06
-9.75159e-05
-1.83299e-05
-1.89469e-06
-8.81023e-05
-3.25965e-05
-2.26514e-06
-7.42166e-05
-4.71382e-05
-2.62347e-06
-5.60532e-05
-6.06218e-05
-2.85675e-06
-3.47576e-05
-7.04856e-05
-2.80207e-06
-1.3247e-05
-7.10265e-05
-2.37209e-06
-4.55029e-05
-6.70625e-07
-6.20035e-06
3.90658e-05
-2.2446e-06
-1.79221e-05
6.41395e-05
-2.00514e-06
-3.09008e-05
6.92991e-05
-1.81733e-06
-4.3953e-05
6.85131e-05
-1.60662e-06
-5.66611e-05
6.5782e-05
-1.45748e-06
-6.88061e-05
6.19292e-05
-1.34817e-06
-8.01976e-05
5.70173e-05
-1.2701e-06
-9.06199e-05
5.09458e-05
-1.23005e-06
-9.98071e-05
4.35558e-05
-1.23968e-06
-0.000107418
3.46502e-05
-1.31316e-06
-0.000113015
2.40128e-05
-1.46551e-06
-0.000116038
1.14507e-05
-1.71583e-06
-0.000115831
-3.20681e-06
-2.07218e-06
-0.000111529
-2.01107e-05
-2.52115e-06
-0.000102321
-3.8758e-05
-3.04671e-06
-8.75526e-05
-5.83249e-05
-3.58202e-06
-6.71198e-05
-7.70774e-05
-3.97725e-06
-4.21776e-05
-9.14237e-05
-4.00399e-06
-1.63104e-05
-9.33792e-05
-3.51452e-06
-6.04922e-05
-1.32118e-06
-6.52333e-06
4.81724e-05
-2.58323e-06
-1.90239e-05
7.90187e-05
-2.37873e-06
-3.28913e-05
8.5357e-05
-2.19044e-06
-4.68718e-05
8.44597e-05
-1.96611e-06
-6.05551e-05
8.12703e-05
-1.80502e-06
-7.37547e-05
7.68157e-05
-1.68693e-06
-8.63196e-05
7.11878e-05
-1.60553e-06
-9.80751e-05
6.42718e-05
-1.5706e-06
-0.00010879
5.5868e-05
-1.59749e-06
-0.00011814
4.57058e-05
-1.70544e-06
-0.000125666
3.34548e-05
-1.91629e-06
-0.000130716
1.87579e-05
-2.2566e-06
-0.000132532
1.37371e-06
-2.76469e-06
-0.000129855
-1.93822e-05
-3.40563e-06
-0.00012144
-4.29824e-05
-4.19077e-06
-0.000106031
-6.86953e-05
-5.03791e-06
-8.29483e-05
-9.44168e-05
-5.74379e-06
-5.31258e-05
-0.000115278
-5.9687e-06
-2.10488e-05
-0.00012002
-5.43593e-06
-7.9035e-05
-2.50599e-06
-6.9116e-06
5.80927e-05
-3.00877e-06
-2.03369e-05
9.52955e-05
-2.85143e-06
-3.52383e-05
0.00010292
-2.66137e-06
-5.02753e-05
0.000101913
-2.41646e-06
-6.50505e-05
9.82808e-05
-2.23531e-06
-7.94226e-05
9.32885e-05
-2.10066e-06
-9.32986e-05
8.70738e-05
-2.00994e-06
-0.000106569
7.95194e-05
-1.97729e-06
-0.000119068
7.0391e-05
-2.02335e-06
-0.000130531
5.93428e-05
-2.17475e-06
-0.000140524
4.59122e-05
-2.4641e-06
-0.00014837
2.95345e-05
-2.93055e-06
-0.000153021
9.62872e-06
-3.60441e-06
-0.000153116
-1.46953e-05
-4.59131e-06
-0.000146604
-4.36856e-05
-5.80941e-06
-0.000131333
-7.67644e-05
-7.20121e-06
-0.000105565
-0.000111685
-8.49961e-06
-6.9493e-05
-0.000142161
-9.18832e-06
-2.86383e-05
-0.00015218
-8.69475e-06
-0.000102952
-4.72119e-06
-7.3758e-06
6.90212e-05
-3.55262e-06
-2.18826e-05
0.000113264
-3.46155e-06
-3.7954e-05
0.000122257
-3.26573e-06
-5.41458e-05
0.000121092
-2.98666e-06
-7.00814e-05
0.000116986
-2.76928e-06
-8.56811e-05
0.00011149
-2.60173e-06
-0.000100932
0.000104812
-2.48736e-06
-0.00011582
9.68537e-05
-2.44639e-06
-0.000130288
8.73659e-05
-2.50672e-06
-0.000144184
7.59438e-05
-2.70553e-06
-0.000157174
6.19942e-05
-3.09193e-06
-0.000168621
4.47087e-05
-3.72745e-06
-0.000177391
2.30785e-05
-4.67897e-06
-0.000181852
-4.09012e-06
-6.14451e-06
-0.000179119
-3.83734e-05
-8.04569e-06
-0.000165725
-7.97859e-05
-1.03719e-05
-0.000138081
-0.000126541
-1.27886e-05
-9.4607e-05
-0.000171112
-1.45232e-05
-4.1488e-05
-0.000190936
-1.43636e-05
-0.00013523
-9.2101e-06
-7.95006e-06
8.12299e-05
-4.2587e-06
-2.37245e-05
0.000133299
-4.26085e-06
-4.10973e-05
0.00014368
-4.05001e-06
-5.85049e-05
0.000142212
-3.71238e-06
-7.56048e-05
0.000137516
-3.42996e-06
-9.23995e-05
0.000131485
-3.20019e-06
-0.000108981
0.000124429
-3.0353e-06
-0.000125462
0.000116298
-2.96365e-06
-0.000141943
0.00010687
-3.02252e-06
-0.00015846
9.5724e-05
-3.26329e-06
-0.000174891
8.21843e-05
-3.75918e-06
-0.0001908
6.52283e-05
-4.61058e-06
-0.000205166
4.34025e-05
-5.95778e-06
-0.000216099
1.48609e-05
-8.01791e-06
-0.000220182
-2.32775e-05
-1.10123e-05
-0.00021208
-7.29773e-05
-1.49111e-05
-0.000185239
-0.000133983
-1.93996e-05
-0.00013446
-0.000198487
-2.34034e-05
-6.47226e-05
-0.000236085
-2.45882e-05
-0.000181211
-1.87416e-05
-8.71478e-06
9.51399e-05
-5.19524e-06
-2.60065e-05
0.000155917
-5.3261e-06
-4.48155e-05
0.000167569
-5.08079e-06
-6.34538e-05
0.000165492
-4.64169e-06
-8.16386e-05
0.000159945
-4.24481e-06
-9.94803e-05
0.00015323
-3.903e-06
-0.000117198
0.000145788
-3.64155e-06
-0.000135061
0.00013766
-3.4989e-06
-0.00015337
0.000128702
-3.52318e-06
-0.00017243
0.000118566
-3.78253e-06
-0.000192472
0.000106607
-4.38058e-06
-0.000213489
9.17198e-05
-5.4753e-06
-0.000234898
7.21143e-05
-7.30235e-06
-0.000254911
4.50468e-05
-1.01729e-05
-0.000270373
6.95467e-06
-1.47702e-05
-0.000273615
-4.86169e-05
-2.11185e-05
-0.000254069
-0.000124296
-2.92332e-05
-0.000199962
-0.000214741
-3.78526e-05
-0.000110195
-0.000282551
-4.3301e-05
-0.000251368
-4.00381e-05
-9.8405e-06
0.000111456
-6.4756e-06
-2.90156e-05
0.000181869
-6.77739e-06
-4.94073e-05
0.00019442
-6.45892e-06
-6.92303e-05
0.000191157
-5.84272e-06
-8.83131e-05
0.000184275
-5.24732e-06
-0.000106911
0.000176538
-4.71102e-06
-0.000125389
0.000168544
-4.27777e-06
-0.000144178
0.000160447
-3.99722e-06
-0.000163802
0.000152254
-3.92803e-06
-0.000184894
0.000143813
-4.15475e-06
-0.000208186
0.000134713
-4.81386e-06
-0.000234395
0.000124061
-6.13175e-06
-0.000263912
0.000110098
-8.46684e-06
-0.000296115
8.95926e-05
-1.23419e-05
-0.000327694
5.70945e-05
-1.85613e-05
-0.000352472
4.59497e-06
-2.84335e-05
-0.000353646
-8.10865e-05
-4.20356e-05
-0.000309072
-0.000200632
-5.86834e-05
-0.000198057
-0.000318904
-7.46623e-05
-0.000363453
-8.59717e-05
-1.16837e-05
0.000131439
-8.29943e-06
-3.32975e-05
0.000212288
-8.80512e-06
-5.54218e-05
0.000224874
-8.32945e-06
-7.62874e-05
0.000219424
-7.40128e-06
-9.59369e-05
0.000210395
-6.47006e-06
-0.000114829
0.00020104
-5.60923e-06
-0.000133483
0.000192084
-4.88622e-06
-0.000152466
0.000183791
-4.36151e-06
-0.000172478
0.000176367
-4.10082e-06
-0.000194452
0.000169983
-4.19618e-06
-0.000219663
0.000164726
-4.80255e-06
-0.000249794
0.000160383
-6.19187e-06
-0.000286855
0.000155986
-8.82657e-06
-0.000332658
0.000148829
-1.34334e-05
-0.000387497
0.000132958
-2.10249e-05
-0.000445694
9.60437e-05
-3.32515e-05
-0.000492445
1.80073e-05
-5.2343e-05
-0.000482845
-0.000133792
-7.64394e-05
-0.000357017
-0.000340413
-0.000104319
-0.000570672
-0.000149799
-1.50277e-05
0.00015754
-1.10734e-05
-3.99218e-05
0.000249075
-1.18922e-05
-6.38134e-05
0.000259924
-1.11588e-05
-8.53496e-05
0.000250631
-9.67078e-06
-0.000105038
0.000238178
-8.09523e-06
-0.0001236
0.00022622
-6.61897e-06
-0.000141661
0.000215515
-5.37018e-06
-0.000159845
0.000206399
-4.42367e-06
-0.000178933
0.000199284
-3.83014e-06
-0.000200021
0.000194734
-3.6624e-06
-0.000224802
0.000193568
-4.06134e-06
-0.000255913
0.000196782
-5.28776e-06
-0.000297464
0.000205321
-7.7837e-06
-0.000355113
0.000218638
-1.21605e-05
-0.000435717
0.000232364
-1.88016e-05
-0.000541882
0.000229038
-2.68292e-05
-0.000660725
0.00017159
-3.47397e-05
-0.000722106
-3.43984e-05
-3.8013e-05
-0.000593763
-0.000428593
-4.01619e-05
-0.00101873
-0.000145702
-2.05946e-05
0.000193464
-1.53296e-05
-4.98933e-05
0.000294082
-1.57089e-05
-7.5704e-05
0.000300006
-1.42712e-05
-9.78768e-05
0.000284504
-1.16997e-05
-0.000117036
0.000266606
-9.26842e-06
-0.000134306
0.000250556
-7.06518e-06
-0.000150598
0.000236999
-5.1919e-06
-0.000166587
0.000226091
-3.70194e-06
-0.000182915
0.00021824
-2.62866e-06
-0.000200433
0.00021426
-2.00695e-06
-0.000220718
0.000215719
-1.86642e-06
-0.000246707
0.000224994
-2.22262e-06
-0.000284374
0.000245951
-2.96351e-06
-0.000343962
0.000281397
-3.17154e-06
-0.000443806
0.000331422
7.86471e-07
-0.000602027
0.000368459
1.87992e-05
-0.00082456
0.0003294
6.47231e-05
-0.000990988
-1.80649e-05
0.000150094
-0.000849233
-0.000790268
0.000219921
-0.0018359
-3.20669e-05
-4.05207e-05
0.000257169
-2.31841e-05
-7.25558e-05
0.00035142
-2.53027e-05
-9.64122e-05
0.000346194
-2.2331e-05
-0.000114432
0.000320443
-1.79197e-05
-0.000130159
0.000295465
-1.31327e-05
-0.000144766
0.000273957
-8.79391e-06
-0.000158714
0.000256098
-5.15049e-06
-0.00017199
0.000241665
-2.29811e-06
-0.000184606
0.000231049
-1.92053e-07
-0.000196544
0.000225038
1.15898e-06
-0.000208701
0.000225911
1.96537e-06
-0.000223109
0.000236753
2.64995e-06
-0.000246422
0.000264604
4.66031e-06
-0.000290441
0.000312976
1.24397e-05
-0.00039089
0.000392917
3.89544e-05
-0.000585267
0.000451041
0.000111796
-0.000920129
0.000404859
0.000259403
-0.00119059
-0.000200868
0.000453268
-0.00101479
-0.00145769
0.000491613
-0.00280363
-4.70536e-05
-3.45189e-05
0.000329749
-3.80606e-05
-8.44212e-05
0.00043469
-3.33674e-05
-0.000116961
0.000406361
-2.76279e-05
-0.000139907
0.000361634
-1.82444e-05
-0.000154355
0.000320795
-1.08823e-05
-0.000163899
0.000288126
-4.62573e-06
-0.00017065
0.000262516
3.32638e-07
-0.000175586
0.000242299
4.30158e-06
-0.000178749
0.000227146
7.06635e-06
-0.000179144
0.000216576
8.85689e-06
-0.000176066
0.000212762
1.0071e-05
-0.000168423
0.000217368
1.17413e-05
-0.000160866
0.000239954
1.70933e-05
-0.000162556
0.000279295
3.53698e-05
-0.000222957
0.000365218
8.80992e-05
-0.000401757
0.000416675
0.000213166
-0.00078881
0.000349024
0.000442888
-0.00113997
-0.000495818
0.000646106
-0.000993318
-0.00209455
0.000490209
-0.00351711
-0.000279841
-0.000177121
0.000557776
-5.09061e-05
-0.000184926
0.000499934
-5.74395e-05
-0.000173815
0.000444332
-4.90825e-05
-0.000163437
0.000385923
-3.46663e-05
-0.000147897
0.000324043
-1.8788e-05
-0.000131652
0.000277479
-5.59779e-06
-0.000116584
0.000242966
4.48195e-06
-0.000101907
0.000215987
1.16351e-05
-8.70865e-05
0.000195968
1.63571e-05
-6.93876e-05
0.000180078
1.87992e-05
-4.73965e-05
0.000171069
1.97013e-05
-1.68744e-05
0.000166911
1.99354e-05
2.38018e-05
0.000175901
2.33767e-05
6.69525e-05
0.000195729
4.0416e-05
0.000101055
0.000239028
9.20879e-05
4.83066e-05
0.000257661
0.000211761
-0.000146388
0.000133778
0.000409942
-0.000532268
-0.000681782
0.000571844
-0.000662608
-0.00225986
0.000295656
-0.00365516
-0.000524562
-0.000371981
0.00108256
-0.000152804
-0.000267531
0.000494145
-9.86609e-05
-0.000124497
0.000365859
-6.45601e-05
2.66737e-05
0.000266036
-3.12845e-05
0.000164996
0.000194469
-8.74833e-06
0.000286215
0.000148096
8.16352e-06
0.000388195
0.000119512
2.14754e-05
0.000473647
9.98653e-05
3.06698e-05
0.000545584
8.72423e-05
3.67884e-05
0.000608287
7.786e-05
3.9515e-05
0.000667047
7.29599e-05
3.93497e-05
0.000728215
7.03089e-05
3.54343e-05
0.000800695
7.14489e-05
3.1972e-05
0.000897042
7.40331e-05
2.53488e-05
0.00102267
6.99542e-05
4.34466e-05
0.00114783
4.00433e-05
9.24577e-05
0.00121195
-8.75459e-05
0.000157203
0.000841082
-0.000615604
0.000304691
0.000173463
-0.00167508
8.28385e-05
-0.00277236
-0.000709335
0.00122796
-0.000145399
0.00187332
-0.000151213
0.00238358
-0.0001444
0.00277538
-0.000125771
0.00307375
-0.000103899
0.00330694
-8.50876e-05
0.00349237
-6.59271e-05
0.00364232
-5.00776e-05
0.00376395
-3.43889e-05
0.00386322
-2.14158e-05
0.0039476
-1.14204e-05
0.00401862
-7.06766e-07
0.00408852
1.54618e-06
0.0041529
9.65121e-06
0.00421183
1.10331e-05
0.00423552
1.63514e-05
0.00411461
3.33602e-05
0.00350456
-5.55433e-06
0.00191497
-8.54857e-05
-0.000857391
-4.20778e-06
4.45007e-06
-5.70878e-07
-1.30978e-05
9.26251e-06
-2.75471e-07
-2.31011e-05
1.03766e-05
-1.16629e-07
-3.30322e-05
1.028e-05
-1.504e-08
-4.25077e-05
9.8037e-06
6.79145e-09
-5.13184e-05
9.12543e-06
-2.758e-08
-5.92584e-05
8.25078e-06
-1.06091e-07
-6.60998e-05
7.15524e-06
-2.24161e-07
-7.1585e-05
5.81358e-06
-3.82625e-07
-7.54294e-05
4.20341e-06
-5.8278e-07
-7.73423e-05
2.30748e-06
-8.24376e-07
-7.70376e-05
1.248e-07
-1.1055e-06
-7.42429e-05
-2.31858e-06
-1.41496e-06
-6.87619e-05
-4.95722e-06
-1.73907e-06
-6.05126e-05
-7.68163e-06
-2.05361e-06
-4.95844e-05
-1.03266e-05
-2.32246e-06
-3.63341e-05
-1.26288e-05
-2.49015e-06
-2.16248e-05
-1.40773e-05
-2.48531e-06
-7.61127e-06
-1.3381e-05
-2.25752e-06
-6.987e-06
-1.31488e-06
-9.28246e-06
1.39761e-05
-1.32021e-06
-2.53578e-05
2.57842e-05
-1.1476e-06
-4.29478e-05
2.8401e-05
-9.60308e-07
-6.02338e-05
2.79679e-05
-7.88291e-07
-7.65515e-05
2.6496e-05
-6.89444e-07
-9.14954e-05
2.44283e-05
-6.45796e-07
-0.000104694
2.18084e-05
-6.4653e-07
-0.000115769
1.86048e-05
-6.91572e-07
-0.000124326
1.4777e-05
-7.84308e-07
-0.000129956
1.02901e-05
-9.28827e-07
-0.00013224
5.11402e-06
-1.12793e-06
-0.000130829
-6.79198e-07
-1.3815e-06
-0.000125345
-7.11059e-06
-1.67799e-06
-0.000115568
-1.39488e-05
-2.00038e-06
-0.000101441
-2.09324e-05
-2.32044e-06
-8.31655e-05
-2.76526e-05
-2.59239e-06
-6.13287e-05
-3.34671e-05
-2.74442e-06
-3.72572e-05
-3.71257e-05
-2.69037e-06
-1.40928e-05
-3.55346e-05
-2.37566e-06
-2.01728e-05
-1.19416e-06
-1.10093e-05
2.52752e-05
-1.71501e-06
-2.9646e-05
4.49548e-05
-1.61989e-06
-4.98867e-05
4.91631e-05
-1.42364e-06
-6.96983e-05
4.82607e-05
-1.21605e-06
-8.83511e-05
4.55955e-05
-1.07713e-06
-0.000105399
4.19015e-05
-9.91172e-07
-0.000120433
3.72649e-05
-9.48733e-07
-0.000133043
3.16507e-05
-9.52114e-07
-0.000142802
2.50046e-05
-1.00746e-06
-0.00014927
1.7278e-05
-1.12146e-06
-0.000152012
8.44989e-06
-1.29905e-06
-0.000150557
-1.452e-06
-1.54337e-06
-0.000144503
-1.23778e-05
-1.84276e-06
-0.000133553
-2.39988e-05
-2.18368e-06
-0.000117583
-3.58943e-05
-2.5347e-06
-9.67424e-05
-4.73917e-05
-2.84288e-06
-7.16337e-05
-5.74078e-05
-3.02292e-06
-4.3735e-05
-6.38178e-05
-2.97139e-06
-1.66732e-05
-6.13968e-05
-2.62546e-06
-3.57737e-05
-1.29702e-06
-1.17338e-05
3.73699e-05
-2.06875e-06
-3.16326e-05
6.54987e-05
-2.05281e-06
-5.32124e-05
7.13755e-05
-1.85426e-06
-7.43386e-05
6.9973e-05
-1.62137e-06
-9.42704e-05
6.60713e-05
-1.45307e-06
-0.000112563
6.07105e-05
-1.33583e-06
-0.000128813
5.40199e-05
-1.26218e-06
-0.000142604
4.59574e-05
-1.23707e-06
-0.000153501
3.64477e-05
-1.26953e-06
-0.000161034
2.54138e-05
-1.36954e-06
-0.000164709
1.28088e-05
-1.54624e-06
-0.000164025
-1.34126e-06
-1.80802e-06
-0.000158398
-1.7093e-05
-2.14545e-06
-0.000147378
-3.39656e-05
-2.54342e-06
-0.000130661
-5.14158e-05
-2.96824e-06
-0.000108239
-6.8488e-05
-3.35893e-06
-8.06416e-05
-8.35768e-05
-3.61223e-06
-4.94749e-05
-9.34871e-05
-3.59644e-06
-1.89061e-05
-9.04597e-05
-3.22681e-06
-5.33388e-05
-1.67541e-06
-1.23656e-05
5.01898e-05
-2.41927e-06
-3.34592e-05
8.7378e-05
-2.48189e-06
-5.63511e-05
9.50406e-05
-2.28216e-06
-7.8804e-05
9.31447e-05
-2.02825e-06
-0.000100073
8.80084e-05
-1.83776e-06
-0.000119731
8.09994e-05
-1.69926e-06
-0.00013739
7.22927e-05
-1.60746e-06
-0.000152648
6.18339e-05
-1.57027e-06
-0.000165065
4.95137e-05
-1.60028e-06
-0.000174144
3.52034e-05
-1.71177e-06
-0.000179318
1.87886e-05
-1.91896e-06
-0.000179998
2.86238e-07
-2.23758e-06
-0.000175389
-2.06109e-05
-2.6573e-06
-0.000164809
-4.32684e-05
-3.17192e-06
-0.00014764
-6.71068e-05
-3.74339e-06
-0.000123562
-9.08922e-05
-4.29703e-06
-9.29084e-05
-0.000112388
-4.69907e-06
-5.74212e-05
-0.000127006
-4.77044e-06
-2.20613e-05
-0.000123813
-4.37844e-06
-7.36191e-05
-2.45165e-06
-1.31449e-05
6.39049e-05
-2.8148e-06
-3.56952e-05
0.000110886
-2.96321e-06
-6.01928e-05
0.000120483
-2.76218e-06
-8.42708e-05
0.000118103
-2.4866e-06
-0.000107183
0.000111738
-2.27476e-06
-0.000128528
0.000103114
-2.11778e-06
-0.000147951
9.24592e-05
-2.01324e-06
-0.000165079
7.97039e-05
-1.97277e-06
-0.000179483
6.46924e-05
-2.01352e-06
-0.000190655
4.72174e-05
-2.15536e-06
-0.00019797
2.70554e-05
-2.41774e-06
-0.000200654
4.06562e-06
-2.81094e-06
-0.000197776
-2.21672e-05
-3.39389e-06
-0.000188229
-5.12314e-05
-4.10491e-06
-0.000170938
-8.25214e-05
-4.92358e-06
-0.000145056
-0.000114595
-5.76112e-06
-0.000110497
-0.000144486
-6.43853e-06
-6.9051e-05
-0.000165761
-6.69516e-06
-2.68225e-05
-0.000163255
-6.3016e-06
-9.79746e-05
-3.78817e-06
-1.41239e-05
7.87435e-05
-3.29791e-06
-3.84696e-05
0.000136403
-3.54992e-06
-6.49277e-05
0.000148097
-3.34601e-06
-9.09698e-05
0.000145221
-3.04224e-06
-0.000115852
0.000137617
-2.80209e-06
-0.000139214
0.000127411
-2.62054e-06
-0.000160757
0.000114895
-2.49943e-06
-0.000180159
9.99913e-05
-2.45557e-06
-0.000197039
8.24877e-05
-2.51245e-06
-0.000210902
6.20732e-05
-2.69847e-06
-0.00022108
3.83613e-05
-3.04392e-06
-0.000226662
1.09716e-05
-3.58138e-06
-0.000226493
-2.0729e-05
-4.37131e-06
-0.000218963
-5.6787e-05
-5.3798e-06
-0.000202316
-9.67647e-05
-6.59483e-06
-0.000174837
-0.0001392
-7.91192e-06
-0.0001356
-0.000180378
-9.08892e-06
-8.61438e-05
-0.000211457
-9.72917e-06
-3.41349e-05
-0.000211293
-9.40637e-06
-0.000128596
-6.01903e-06
-1.53224e-05
9.49653e-05
-3.90817e-06
-4.18324e-05
0.000164354
-4.29179e-06
-7.06154e-05
0.000178299
-4.08043e-06
-9.89474e-05
0.000174871
-3.73453e-06
-0.000126094
0.000165977
-3.44989e-06
-0.000151758
0.000154202
-3.22759e-06
-0.000175724
0.000139926
-3.07583e-06
-0.000197764
0.000123073
-3.01864e-06
-0.000217589
0.000103378
-3.08837e-06
-0.000234777
8.04114e-05
-3.32565e-06
-0.000248676
5.35758e-05
-3.77942e-06
-0.000258284
2.21599e-05
-4.51071e-06
-0.000262227
-1.48143e-05
-5.57556e-06
-0.000258328
-5.82467e-05
-7.031e-06
-0.000243879
-0.000108157
-8.86596e-06
-0.000215799
-0.000163502
-1.09792e-05
-0.000171578
-0.000220045
-1.30537e-05
-0.000111747
-0.000265994
-1.44818e-05
-4.58621e-05
-0.000271448
-1.44252e-05
-0.000169376
-9.80344e-06
-1.67739e-05
0.00011288
-4.69313e-06
-4.58537e-05
0.00019522
-5.24807e-06
-7.73311e-05
0.00021153
-5.01939e-06
-0.000108249
0.000207409
-4.60659e-06
-0.000137895
0.000197103
-4.24829e-06
-0.000166066
0.000183726
-3.95511e-06
-0.000192665
0.000167782
-3.74459e-06
-0.000217612
0.000149224
-3.65046e-06
-0.000240779
0.000127755
-3.71649e-06
-0.000261901
0.000102827
-3.99913e-06
-0.000280456
7.36097e-05
-4.57096e-06
-0.000295468
3.89695e-05
-5.52558e-06
-0.000305488
-2.49306e-06
-6.97982e-06
-0.000307708
-5.31072e-05
-9.06375e-06
-0.000298289
-0.000113787
-1.18353e-05
-0.000272128
-0.000184793
-1.52415e-05
-0.00022391
-0.000262144
-1.89072e-05
-0.000151601
-0.000330891
-2.19355e-05
-6.60957e-05
-0.000348658
-2.26583e-05
-0.000228187
-1.64948e-05
-1.85487e-05
0.000132889
-5.71923e-06
-5.06694e-05
0.000229579
-6.49924e-06
-8.52219e-05
0.000248266
-6.2339e-06
-0.00011898
0.000243167
-5.7124e-06
-0.000151277
0.000231201
-5.23147e-06
-0.000182037
0.000216102
-4.8166e-06
-0.000211333
0.000198542
-4.49881e-06
-0.000239294
0.000178545
-4.32414e-06
-0.000266036
0.000155825
-4.35011e-06
-0.00029158
0.000129761
-4.65251e-06
-0.00031571
9.93148e-05
-5.33469e-06
-0.00033773
6.29122e-05
-6.53322e-06
-0.000356201
1.84186e-05
-8.39816e-06
-0.000368236
-3.772e-05
-1.13706e-05
-0.00036868
-0.000108852
-1.55029e-05
-0.000349815
-0.000197633
-2.09358e-05
-0.000301803
-0.000302205
-2.73511e-05
-0.000217239
-0.000405315
-3.35433e-05
-0.000104587
-0.000449446
-3.64514e-05
-0.00032251
-2.90067e-05
-2.0784e-05
0.000155564
-7.08656e-06
-5.65322e-05
0.000268163
-8.16233e-06
-9.45641e-05
0.000289042
-7.82414e-06
-0.00013136
0.000282446
-7.12441e-06
-0.000166339
0.000268376
-6.44098e-06
-0.000199604
0.000251286
-5.82244e-06
-0.00023145
0.000232066
-5.31883e-06
-0.000262276
0.000210863
-4.99099e-06
-0.000292537
0.000187474
-4.911e-06
-0.000322688
0.000161304
-5.17532e-06
-0.000353056
0.000131227
-5.92414e-06
-0.000383597
9.53414e-05
-7.36433e-06
-0.000413339
5.06717e-05
-9.81326e-06
-0.000440192
-7.33269e-06
-1.37075e-05
-0.000458212
-8.59877e-05
-1.96143e-05
-0.000457096
-0.000191889
-2.79793e-05
-0.000420829
-0.000328848
-3.88562e-05
-0.00033205
-0.000481001
-5.09455e-05
-0.000185728
-0.000579508
-5.95608e-05
-0.000494745
-5.35311e-05
-2.37395e-05
0.000181781
-8.95297e-06
-6.38945e-05
0.000311955
-1.04143e-05
-0.000105843
0.000334469
-9.93769e-06
-0.000145789
0.000325493
-8.94429e-06
-0.000183321
0.00030859
-7.92921e-06
-0.000218787
0.000289018
-6.97742e-06
-0.000252756
0.000267923
-6.16569e-06
-0.000285947
0.000245628
-5.57126e-06
-0.000319228
0.000222106
-5.27848e-06
-0.000353626
0.000196948
-5.39956e-06
-0.000390297
0.00016919
-6.10586e-06
-0.000430358
0.000136943
-7.67236e-06
-0.0004744
9.67717e-05
-1.05256e-05
-0.000521655
4.28181e-05
-1.52371e-05
-0.000568318
-3.48276e-05
-2.3059e-05
-0.000603509
-0.000150082
-3.50491e-05
-0.00060459
-0.000317664
-5.21382e-05
-0.000535495
-0.000535197
-7.35832e-05
-0.000351666
-0.000743832
-9.41676e-05
-0.000833409
-9.89736e-05
-2.79019e-05
0.000212959
-1.15754e-05
-7.35363e-05
0.000362307
-1.35222e-05
-0.000119872
0.000385258
-1.27825e-05
-0.000162953
0.000372476
-1.1303e-05
-0.000202683
0.000351604
-9.75411e-06
-0.000239762
0.00032876
-8.272e-06
-0.000275086
0.000305328
-6.96837e-06
-0.000309699
0.000281818
-5.93727e-06
-0.000344883
0.000258456
-5.26773e-06
-0.000382284
0.000235222
-5.06992e-06
-0.000424075
0.000211694
-5.51497e-06
-0.000473082
0.000186656
-6.89777e-06
-0.000532697
0.000157281
-9.72042e-06
-0.000606123
0.000117607
-1.47969e-05
-0.000695201
5.65406e-05
-2.33144e-05
-0.000793479
-4.74882e-05
-3.75677e-05
-0.000873285
-0.00023118
-5.90214e-05
-0.000859576
-0.000538411
-8.69343e-05
-0.000626656
-0.000962928
-0.000118141
-0.00146041
-0.000149452
-3.44155e-05
0.000251728
-1.54267e-05
-8.70508e-05
0.0004211
-1.80507e-05
-0.000138007
0.00044193
-1.68754e-05
-0.000183777
0.000423161
-1.4585e-05
-0.000225022
0.00039687
-1.21157e-05
-0.000262867
0.000369719
-9.73261e-06
-0.000298478
0.000343189
-7.62006e-06
-0.000333145
0.000317953
-5.89122e-06
-0.000368487
0.000294587
-4.61817e-06
-0.000406692
0.000273636
-3.87201e-06
-0.000450948
0.00025566
-3.77119e-06
-0.000506065
0.000241017
-4.53187e-06
-0.000579284
0.000229249
-6.53123e-06
-0.000680406
0.000216883
-1.03144e-05
-0.000819648
0.000193197
-1.62169e-05
-0.000997154
0.000126339
-2.31502e-05
-0.00117712
-5.69137e-05
-2.90346e-05
-0.00121564
-0.000508611
-2.92953e-05
-0.000888285
-0.00129405
-3.64023e-05
-0.00236793
-0.000126468
-4.28306e-05
0.000300281
-2.10526e-05
-0.00010458
0.000491032
-2.38912e-05
-0.000161406
0.000506269
-2.17843e-05
-0.000210496
0.000478625
-1.8073e-05
-0.000252593
0.000444027
-1.43289e-05
-0.000289705
0.000410546
-1.07809e-05
-0.000323703
0.000379617
-7.6217e-06
-0.000356207
0.000351708
-4.95295e-06
-0.000388888
0.000327461
-2.82161e-06
-0.000423898
0.000307867
-1.22818e-06
-0.000464756
0.000294777
-1.25462e-07
-0.000517531
0.000290858
7.10814e-07
-0.000592891
0.000299982
1.66382e-06
-0.000706971
0.000323699
4.09115e-06
-0.000879256
0.000353923
1.23454e-05
-0.00110863
0.000337468
3.70468e-05
-0.00134444
0.00014935
9.42711e-05
-0.00137882
-0.000513829
0.000189684
-0.000935223
-0.00173799
0.000220268
-0.00329192
-4.32991e-05
-7.48637e-05
0.000382212
-3.02506e-05
-0.000142929
0.000569005
-3.52107e-05
-0.000197799
0.000570305
-3.14967e-05
-0.000242271
0.000530825
-2.5648e-05
-0.000281092
0.00048893
-1.92159e-05
-0.000315872
0.000449654
-1.31217e-05
-0.000347642
0.000413981
-7.74432e-06
-0.000377104
0.000382124
-3.25192e-06
-0.000405301
0.000355123
3.42384e-07
-0.000433671
0.000334214
3.18208e-06
-0.000465092
0.000322547
5.61568e-06
-0.00050448
0.000324424
8.47185e-06
-0.000562544
0.000348806
1.39006e-05
-0.000653098
0.000399312
2.73809e-05
-0.000799554
0.000476399
6.29351e-05
-0.000988257
0.000488992
0.000148975
-0.00120158
0.000307419
0.000314661
-0.00123926
-0.000533469
0.00051059
-0.00079214
-0.00214435
0.000450857
-0.00402708
-0.000104039
-5.61364e-05
0.000446355
-4.60674e-05
-0.000156277
0.000683261
-4.74827e-05
-0.000232805
0.000659552
-4.03461e-05
-0.000288506
0.000597625
-2.93432e-05
-0.000328402
0.000537543
-1.95995e-05
-0.000357417
0.000484722
-1.06789e-05
-0.000379403
0.000439309
-3.00968e-06
-0.000396254
0.000400133
3.14416e-06
-0.0004095
0.000367448
7.98734e-06
-0.00041934
0.000341
1.19102e-05
-0.000426471
0.000324211
1.55384e-05
-0.000430885
0.000320089
2.04913e-05
-0.000437864
0.000341787
3.10907e-05
-0.000448942
0.000388417
5.73425e-05
-0.00049137
0.000484694
0.000122232
-0.000561974
0.00051123
0.000261533
-0.000691088
0.000377561
0.00050186
-0.000774965
-0.000497952
0.000694466
-0.000471077
-0.00237861
0.000420577
-0.00446214
-0.000315855
-0.000199627
0.00065337
-5.82941e-05
-0.000254826
0.000750379
-6.9359e-05
-0.000301241
0.0007186
-6.1716e-05
-0.000338665
0.000646617
-4.62338e-05
-0.000352716
0.000561641
-2.88347e-05
-0.000350983
0.000490694
-1.33028e-05
-0.000339697
0.000432771
-2.65684e-07
-0.000320964
0.000383671
9.36284e-06
-0.000298168
0.00034428
1.67298e-05
-0.000270236
0.000309998
2.18699e-05
-0.000238852
0.000286772
2.57565e-05
-0.000198295
0.000269662
2.98049e-05
-0.000147712
0.00027555
3.903e-05
-7.79679e-05
0.000295011
6.40784e-05
2.59986e-05
0.000349276
0.000123539
0.000124181
0.00037189
0.000252918
0.000265895
0.000209329
0.000436459
0.000214521
-0.000463435
0.0005887
0.000226538
-0.00231977
0.000224796
-0.00428759
-0.000472573
-0.000660612
0.00129697
-0.000135791
-0.000621732
0.000723306
-0.000110468
-0.000489346
0.000602199
-8.05448e-05
-0.000306662
0.000483614
-5.09651e-05
-0.00011666
0.000391045
-2.81547e-05
6.77116e-05
0.000322885
-8.39864e-06
0.000239666
0.00027438
7.91223e-06
0.000397437
0.00023606
2.05098e-05
0.000541577
0.000206589
3.03397e-05
0.000672295
0.000181892
3.69017e-05
0.000794266
0.000163837
4.03143e-05
0.000910204
0.000148587
4.05713e-05
0.0010336
0.000142807
4.13217e-05
0.00117327
0.000139706
4.09856e-05
0.00137257
0.000133508
5.99112e-05
0.0016153
0.000108434
0.000113185
0.00188511
-5.02396e-05
0.00014696
0.00192737
-0.000457624
0.000256618
0.0013326
-0.00169359
5.14365e-05
-0.00310891
-0.000555413
0.0012735
-0.000121928
0.00198196
-0.000136368
0.00257565
-0.000135894
0.00305942
-0.00012593
0.00345772
-0.000111154
0.00379213
-9.66096e-05
0.00408055
-7.9961e-05
0.00433073
-6.42036e-05
0.00455178
-4.88464e-05
0.00474519
-3.29405e-05
0.00491903
-2.14158e-05
0.00507476
-7.85233e-06
0.00521925
-1.39566e-07
0.00536176
6.84948e-06
0.00548874
1.75662e-05
0.00559992
1.35991e-05
0.00554647
3.65675e-05
0.00509342
-1.01254e-05
0.00339139
-7.70415e-05
-0.00057492
-4.69158e-06
4.79235e-06
-6.71643e-07
-1.45989e-05
1.02681e-05
-6.36255e-07
-2.57162e-05
1.15406e-05
-5.39908e-07
-3.66898e-05
1.14116e-05
-4.5311e-07
-4.71047e-05
1.08376e-05
-4.15951e-07
-5.67378e-05
1.00286e-05
-4.23034e-07
-6.53708e-05