/*--------------------------------*- C++ -*----------------------------------*\
  =========                 |
  \\      /  F ield         | OpenFOAM: The Open Source CFD Toolbox
   \\    /   O peration     | Website:  https://openfoam.org
    \\  /    A nd           | Version:  10
     \\/     M anipulation  |
\*---------------------------------------------------------------------------*/
FoamFile
{
    format      ascii;
    class       volVectorField;
    location    "4.4";
    object      U;
}
// * * * * * * * * * * * * * * * * * * * * * * * * * * * * * * * * * * * * * //

dimensions      [0 1 -1 0 0 0 0];

internalField   nonuniform List<vector> 
8000
(
(-5.0874e-05 6.35929e-05 -1.75865e-05)
(-0.000426753 0.000163605 1.74873e-05)
(-0.00104517 0.000188457 2.88405e-05)
(-0.00164035 0.000191854 3.37871e-05)
(-0.00223594 0.00019003 3.32553e-05)
(-0.00280774 0.000185951 2.93815e-05)
(-0.00334215 0.000178955 2.32561e-05)
(-0.00382522 0.00016767 1.51375e-05)
(-0.00424052 0.0001506 4.8317e-06)
(-0.00456949 0.000126385 -7.7723e-06)
(-0.00479119 9.42509e-05 -2.21287e-05)
(-0.00488305 5.40722e-05 -3.79435e-05)
(-0.00482247 5.12332e-06 -5.5179e-05)
(-0.00458999 -5.19436e-05 -7.34035e-05)
(-0.00417292 -0.000114053 -9.13461e-05)
(-0.00356815 -0.000176931 -0.000107049)
(-0.00278989 -0.00023393 -0.000116971)
(-0.00189206 -0.000273454 -0.000115687)
(-0.000870189 -0.00026807 -9.93812e-05)
(-0.00015829 -0.000134302 -3.54207e-05)
(-0.000147922 0.000481549 -6.97738e-05)
(-0.000828391 0.000888961 -3.928e-05)
(-0.0018474 0.000982681 -2.66832e-05)
(-0.00282638 0.000980979 -1.77342e-05)
(-0.00379315 0.000948802 -1.34519e-05)
(-0.00470955 0.000899307 -1.18984e-05)
(-0.00555225 0.000832097 -1.20817e-05)
(-0.00629902 0.000744042 -1.39351e-05)
(-0.00692518 0.000631552 -1.7663e-05)
(-0.00740367 0.000491337 -2.35067e-05)
(-0.00770493 0.000321144 -3.15491e-05)
(-0.00779969 0.000119379 -4.17424e-05)
(-0.00765928 -0.000112073 -5.44316e-05)
(-0.00725745 -0.000367112 -6.83269e-05)
(-0.00657824 -0.000634874 -8.25489e-05)
(-0.0056204 -0.000898552 -9.49225e-05)
(-0.00440739 -0.00113245 -0.000101143)
(-0.00301582 -0.00129115 -9.51476e-05)
(-0.00144529 -0.00126976 -7.3597e-05)
(-0.000300273 -0.000748336 1.78097e-06)
(-0.000175443 0.00117736 -9.34198e-05)
(-0.000954519 0.00200115 -6.49498e-05)
(-0.00210648 0.00218074 -5.17707e-05)
(-0.00320849 0.00216122 -4.08534e-05)
(-0.0042941 0.00207343 -3.4288e-05)
(-0.00532175 0.00194453 -3.02207e-05)
(-0.00626654 0.0017756 -2.7717e-05)
(-0.0071048 0.00156239 -2.68356e-05)
(-0.00781014 0.0012997 -2.78896e-05)
(-0.00835361 0.000982572 -3.12154e-05)
(-0.00870429 0.000607307 -3.70646e-05)
(-0.00882835 0.000172255 -4.58334e-05)
(-0.00869026 -0.000318761 -5.70421e-05)
(-0.0082593 -0.000854028 -7.05093e-05)
(-0.00751417 -0.00141201 -8.49982e-05)
(-0.00644736 -0.00195886 -9.80044e-05)
(-0.00507913 -0.0024432 -0.000104464)
(-0.00349324 -0.00277359 -9.72969e-05)
(-0.00168591 -0.00274038 -7.29712e-05)
(-0.000354623 -0.00170415 1.15045e-05)
(-0.000181895 0.00189054 -0.00011162)
(-0.00100328 0.00314899 -8.518e-05)
(-0.00222068 0.00341474 -7.18237e-05)
(-0.00338364 0.00337616 -5.97186e-05)
(-0.00453233 0.00323335 -5.17494e-05)
(-0.00562424 0.00302745 -4.61128e-05)
(-0.00663526 0.00276061 -4.1933e-05)
(-0.00754218 0.00242711 -3.93712e-05)
(-0.00831855 0.00201946 -3.88686e-05)
(-0.00893433 0.00153004 -4.09127e-05)
(-0.00935577 0.000952761 -4.59191e-05)
(-0.00954577 0.000285671 -5.42771e-05)
(-0.00946258 -0.000467918 -6.66369e-05)
(-0.00906346 -0.0012945 -8.15074e-05)
(-0.00831343 -0.00216327 -9.79701e-05)
(-0.00719215 -0.00302373 -0.00011326)
(-0.00570967 -0.00379603 -0.000121485)
(-0.00395489 -0.00433461 -0.000114051)
(-0.00191979 -0.00430947 -8.66871e-05)
(-0.000405357 -0.00272144 1.00674e-05)
(-0.000185144 0.00265677 -0.00012749)
(-0.0010441 0.00438374 -0.000102443)
(-0.00232499 0.00474227 -8.89798e-05)
(-0.00354914 0.00468559 -7.61314e-05)
(-0.00476368 0.00448829 -6.74272e-05)
(-0.00592571 0.00420663 -6.10814e-05)
(-0.00701289 0.00384408 -5.62643e-05)
(-0.00800348 0.00339321 -5.32233e-05)
(-0.00887179 0.00284366 -5.25142e-05)
(-0.00958726 0.00218403 -5.47757e-05)
(-0.0101133 0.0014038 -6.05638e-05)
(-0.010407 0.000496375 -7.01476e-05)
(-0.0104177 -0.000536461 -8.57456e-05)
(-0.010088 -0.00168227 -0.000104504)
(-0.00936243 -0.00290429 -0.000125852)
(-0.00819776 -0.00413604 -0.000146486)
(-0.00658246 -0.00526455 -0.000158982)
(-0.00460679 -0.00607557 -0.000152372)
(-0.00225814 -0.00609004 -0.000120732)
(-0.000481948 -0.00388522 -4.58357e-06)
(-0.000189316 0.00347232 -0.000144456)
(-0.00109394 0.00570533 -0.000120477)
(-0.00245213 0.00616553 -0.000106948)
(-0.00375115 0.00609362 -9.3535e-05)
(-0.00504613 0.00584511 -8.43949e-05)
(-0.00629411 0.00549297 -7.77597e-05)
(-0.00747543 0.00504227 -7.28597e-05)
(-0.00857097 0.00448375 -7.00435e-05)
(-0.00955697 0.00380341 -6.9999e-05)
(-0.0104034 0.00298458 -7.35705e-05)
(-0.0110718 0.00200982 -8.1623e-05)
(-0.0115128 0.000864439 -9.52677e-05)
(-0.011666 -0.000457605 -0.000115586)
(-0.011454 -0.00195209 -0.000141095)
(-0.0107912 -0.0035804 -0.000171141)
(-0.0095993 -0.00526254 -0.000201634)
(-0.0078283 -0.00684741 -0.000222792)
(-0.00555853 -0.00803285 -0.000219509)
(-0.00276782 -0.00814401 -0.00018244)
(-0.00060405 -0.00524702 -3.65477e-05)
(-0.000194831 0.00434708 -0.000164951)
(-0.00115562 0.00713069 -0.000142229)
(-0.00260764 0.00770307 -0.000128668)
(-0.00399629 0.00761903 -0.000114611)
(-0.00538651 0.00732324 -0.00010497)
(-0.00673556 0.00690749 -9.80427e-05)
(-0.00802781 0.00637921 -9.31704e-05)
(-0.0092483 0.00572738 -9.08554e-05)
(-0.0103772 0.00493389 -9.19806e-05)
(-0.0113872 0.00397519 -9.76774e-05)
(-0.0122398 0.00282382 -0.000109262)
(-0.0128805 0.00145176 -0.000128471)
(-0.0132402 -0.00016389 -0.000157293)
(-0.0132173 -0.00202766 -0.000193657)
(-0.012685 -0.0041197 -0.000238518)
(-0.0115124 -0.00635302 -0.000286725)
(-0.00958389 -0.00853647 -0.000325016)
(-0.00694174 -0.0102562 -0.000331195)
(-0.00354172 -0.0105664 -0.000288578)
(-0.000803576 -0.00689763 -9.8593e-05)
(-0.000201559 0.00529506 -0.000190694)
(-0.00122961 0.00868278 -0.000169835)
(-0.00279228 0.00937845 -0.000156212)
(-0.00428382 0.00928405 -0.000141165)
(-0.00578139 0.00894382 -0.00013062)
(-0.00724297 0.00847148 -0.000123027)
(-0.00865851 0.00787806 -0.00011793)
(-0.0100194 0.00715156 -0.000116064)
(-0.0113127 0.00626986 -0.000118599)
(-0.0125174 0.00520171 -0.000127078)
(-0.0135994 0.00390693 -0.000143413)
(-0.0145049 0.00233861 -0.000169931)
(-0.01515 0.000448921 -0.00020839)
(-0.0154159 -0.00179335 -0.000265367)
(-0.0151312 -0.00440263 -0.000335599)
(-0.0140799 -0.00730551 -0.000415466)
(-0.0120419 -0.0102802 -0.000487446)
(-0.00896263 -0.0127796 -0.000517936)
(-0.00474802 -0.0134721 -0.000473012)
(-0.00114676 -0.00897772 -0.000220968)
(-0.000209895 0.00633325 -0.000223546)
(-0.00131772 0.0103883 -0.000205587)
(-0.0030083 0.0112172 -0.000191739)
(-0.00461382 0.0111106 -0.000174983)
(-0.00622687 0.0107257 -0.000162666)
(-0.00780674 0.0102021 -0.000153549)
(-0.00935101 0.00955657 -0.000147507)
(-0.0108601 0.00877768 -0.000145618)
(-0.0123311 0.00784062 -0.000149456)
(-0.0137547 0.00670697 -0.000161158)
(-0.015108 0.00532279 -0.000183577)
(-0.0163442 0.00361788 -0.000220238)
(-0.0173785 0.00150981 -0.000274937)
(-0.0180775 -0.00108755 -0.000361419)
(-0.0182181 -0.00423537 -0.000472807)
(-0.0174791 -0.0079235 -0.000608358)
(-0.01548 -0.0119327 -0.000745802)
(-0.0119579 -0.0155765 -0.000834683)
(-0.00671238 -0.016978 -0.000802681)
(-0.00177911 -0.0117106 -0.000474854)
(-0.000221497 0.00748425 -0.000266115)
(-0.00142525 0.0122799 -0.000252599)
(-0.00326273 0.013248 -0.000238078)
(-0.00499089 0.0131205 -0.00021826)
(-0.00672232 0.0126843 -0.000202558)
(-0.00841857 0.0121103 -0.000190302)
(-0.010087 0.0114236 -0.000181887)
(-0.0117399 0.0106161 -0.000178855)
(-0.0133885 0.00966342 -0.000183323)
(-0.015041 0.00852278 -0.000198271)
(-0.0166952 0.00712863 -0.000228013)
(-0.0183256 0.0053865 -0.000278432)
(-0.0198645 0.00316901 -0.000358043)
(-0.0211738 0.000320112 -0.00048142)
(-0.0219984 -0.00331034 -0.000660297)
(-0.021906 -0.00785132 -0.00089196)
(-0.0202839 -0.0131629 -0.00115413)
(-0.0164804 -0.0184625 -0.00137562)
(-0.0100816 -0.0211483 -0.00141528)
(-0.00302333 -0.0154707 -0.00104645)
(-0.000240631 0.00878128 -0.000322538)
(-0.00156435 0.0144012 -0.000315564)
(-0.00357153 0.0155052 -0.000299337)
(-0.0054283 0.0153356 -0.000273975)
(-0.00727432 0.0148303 -0.000252025)
(-0.00907498 0.0141976 -0.000233792)
(-0.0108499 0.0134744 -0.000220452)
(-0.0126254 0.0126596 -0.00021414)
(-0.0144304 0.0117336 -0.000217625)
(-0.0162964 0.0106563 -0.000234934)
(-0.0182524 0.00935798 -0.000272326)
(-0.0203136 0.00772673 -0.00033947)
(-0.0224571 0.0055915 -0.000450748)
(-0.0245755 0.00270954 -0.000624149)
(-0.0264385 -0.0012275 -0.000907427)
(-0.0275288 -0.00651167 -0.00129323)
(-0.0269536 -0.0133092 -0.00178019)
(-0.023432 -0.0208729 -0.00228218)
(-0.0161481 -0.0257839 -0.00257415)
(-0.00560707 -0.0209618 -0.00239476)
(-0.000277008 0.0102778 -0.000399907)
(-0.00175994 0.0168133 -0.000401996)
(-0.00396616 0.0180316 -0.000381834)
(-0.00595403 0.0177779 -0.000346374)
(-0.00790206 0.0171677 -0.000313142)
(-0.00978254 0.0164532 -0.000284088)
(-0.01163 0.0156859 -0.000261523)
(-0.0134859 0.014875 -0.000248241)
(-0.0153977 0.0140125 -0.000247672)
(-0.0174235 0.0130714 -0.000264943)
(-0.019633 0.0119945 -0.000308529)
(-0.0221028 0.0106751 -0.000392657)
(-0.024897 0.00892385 -0.000539767)
(-0.0280205 0.00642239 -0.000782297)
(-0.031301 0.00267664 -0.00117053)
(-0.0343143 -0.00295099 -0.00179027)
(-0.035995 -0.011063 -0.00263579)
(-0.0341317 -0.0214245 -0.00365808)
(-0.0273591 -0.0300853 -0.00463385)
(-0.0111864 -0.0292285 -0.00547502)
(-0.000352658 0.012067 -0.000511295)
(-0.00206193 0.0196073 -0.000524399)
(-0.00450441 0.0208806 -0.000495185)
(-0.0066196 0.0204671 -0.00044111)
(-0.00864434 0.0196914 -0.000387964)
(-0.0105642 0.0188514 -0.000340119)
(-0.0124317 0.0180125 -0.000301331)
(-0.014302 0.0171968 -0.000275006)
(-0.0162374 0.0164144 -0.000265024)
(-0.018318 0.015664 -0.000277168)
(-0.0206529 0.0149235 -0.000321518)
(-0.0233901 0.0141275 -0.000415887)
(-0.0267208 0.0131219 -0.000590426)
(-0.0308552 0.0115768 -0.000891934)
(-0.0359418 0.00887248 -0.00138534)
(-0.0418213 0.00392457 -0.00218677)
(-0.0475941 -0.00467102 -0.00346263)
(-0.0501411 -0.017819 -0.00511222)
(-0.0468776 -0.0324708 -0.00708854)
(-0.0220655 -0.0426479 -0.0103609)
(-0.000518136 0.0143063 -0.000684235)
(-0.00257558 0.0229552 -0.000713318)
(-0.00529212 0.0241933 -0.000668605)
(-0.00750987 0.0235097 -0.000579622)
(-0.00956409 0.0224521 -0.000486858)
(-0.0114651 0.0213837 -0.000401983)
(-0.013283 0.0203955 -0.000332539)
(-0.0150806 0.0195248 -0.000282742)
(-0.0169254 0.0188018 -0.000255517)
(-0.0189076 0.0182608 -0.000255753)
(-0.0211609 0.0179433 -0.000293514)
(-0.0238938 0.0178805 -0.000387503)
(-0.0274375 0.0180515 -0.000569613)
(-0.0322829 0.0182542 -0.00088556)
(-0.0391074 0.0179086 -0.00137323)
(-0.0486182 0.0155493 -0.00200956)
(-0.0605626 0.00844098 -0.00283329)
(-0.0709736 -0.00816752 -0.0037296)
(-0.0754871 -0.0345354 -0.00454284)
(-0.0383226 -0.0703236 -0.0115173)
(-0.000833601 0.0174404 -0.000959261)
(-0.00338819 0.0267384 -0.00095766)
(-0.00643902 0.027555 -0.00086444)
(-0.00875551 0.0262997 -0.000704211)
(-0.0108076 0.0248778 -0.00055527)
(-0.0126109 0.0236055 -0.000424644)
(-0.0142718 0.0225119 -0.000317822)
(-0.0158701 0.0216013 -0.000237332)
(-0.017467 0.0209102 -0.000184785)
(-0.0191309 0.0205136 -0.000162999)
(-0.0209717 0.0205444 -0.00017618)
(-0.0231949 0.0211773 -0.000229655)
(-0.0262153 0.0226253 -0.000325164)
(-0.0307934 0.0249693 -0.00042125)
(-0.0383751 0.0279378 -0.000327909)
(-0.0510661 0.0294394 0.000489867)
(-0.0712475 0.02502 0.00262112)
(-0.0932174 0.000741723 0.00697814)
(-0.108859 -0.0510598 0.0120081)
(-0.052824 -0.132849 -0.00302936)
(-0.00210912 0.0208266 -0.00149461)
(-0.0058177 0.0326804 -0.00159768)
(-0.008614 0.0331093 -0.00139595)
(-0.0106347 0.03137 -0.00110283)
(-0.0122914 0.0291557 -0.000793187)
(-0.0137915 0.0271031 -0.000520805)
(-0.0152075 0.0253445 -0.000300356)
(-0.0165578 0.0239295 -0.000135911)
(-0.0178372 0.0229091 -2.37665e-05)
(-0.0190405 0.0223718 4.07093e-05)
(-0.0201994 0.0225144 5.98011e-05)
(-0.021428 0.0236412 5.2624e-05)
(-0.0231013 0.0262947 9.92442e-05)
(-0.026011 0.0308907 0.000456211)
(-0.0325212 0.0377714 0.00184247)
(-0.0458964 0.0434002 0.00601958)
(-0.0741543 0.0403667 0.014817)
(-0.108462 -0.00409154 0.0272494)
(-0.136373 -0.106702 0.0319715)
(-0.0549577 -0.236309 -0.00273258)
(-0.00141292 0.0323365 -0.00252482)
(-0.00576419 0.0365649 -0.00211485)
(-0.0106786 0.0349995 -0.00172008)
(-0.0129682 0.0313082 -0.00108369)
(-0.0148655 0.0286065 -0.00058489)
(-0.0160053 0.0265171 -0.000172216)
(-0.0167838 0.0248953 0.000141868)
(-0.0173498 0.0235982 0.000357263)
(-0.0177479 0.0226396 0.000495923)
(-0.0179197 0.0220682 0.00056915)
(-0.0177834 0.022144 0.000595343)
(-0.0171806 0.0231406 0.000630022)
(-0.0163007 0.0259577 0.00085882)
(-0.0153663 0.0307194 0.00181654)
(-0.0177282 0.0395418 0.00491975)
(-0.0256978 0.0450474 0.0128988)
(-0.0580926 0.0382986 0.0282638)
(-0.0985314 -0.0383136 0.0418013)
(-0.138672 -0.191068 0.0309926)
(-0.0452083 -0.334208 -0.0271816)
(-0.0120273 0.0305126 -0.00351843)
(-0.0214092 0.0526501 -0.00393244)
(-0.0169057 0.0483437 -0.00325496)
(-0.0173315 0.0434338 -0.00218992)
(-0.0156767 0.0377204 -0.00105512)
(-0.0140341 0.0329673 -0.000149867)
(-0.0124279 0.0291415 0.000514847)
(-0.0109219 0.0261053 0.000949289)
(-0.00946933 0.0237855 0.00121129)
(-0.00782763 0.0220459 0.00131124)
(-0.00597205 0.0210355 0.00129786)
(-0.0032418 0.0208842 0.00121759)
(-0.000242951 0.0224341 0.00132207)
(0.00529248 0.0258884 0.00226133)
(0.0075565 0.033747 0.00552202)
(0.0137884 0.0394728 0.0137258)
(-0.00551943 0.0302855 0.0285305)
(-0.0232092 -0.0638321 0.0383674)
(-0.0918076 -0.236934 0.015243)
(-0.025224 -0.384687 -0.0538476)
(-0.0462962 0.0895157 -0.0115966)
(-0.0302066 0.0431918 -0.00722202)
(-0.0214275 0.0369236 -0.00458077)
(-0.0042488 0.0299232 -0.00203891)
(0.00980634 0.0237411 -0.000239032)
(0.0230912 0.0197032 0.00102861)
(0.0340961 0.0171198 0.00191702)
(0.0435179 0.0151679 0.00247871)
(0.0511385 0.013818 0.00281571)
(0.0580972 0.0126419 0.00290204)
(0.0636894 0.0121009 0.00279128)
(0.0702865 0.0115909 0.00241173)
(0.0754552 0.0120791 0.00206068)
(0.0863868 0.0124362 0.00154725)
(0.0912177 0.0128717 0.00276308)
(0.11651 0.00965133 0.00610541)
(0.105151 -0.00621493 0.0127593)
(0.136739 -0.080254 0.0239962)
(0.0184443 -0.233131 0.00163399)
(0.0264767 -0.368968 -0.0655459)
(0.117638 0.111652 -0.0112067)
(0.144339 0.0595501 -0.011545)
(0.216818 0.0395008 -0.010939)
(0.261147 0.026509 -0.00939153)
(0.293723 0.0178585 -0.00757981)
(0.320224 0.0121057 -0.0060199)
(0.340519 0.00854447 -0.00447698)
(0.358037 0.00624537 -0.00325606)
(0.370204 0.00482711 -0.00204626)
(0.383097 0.00395076 -0.00112181)
(0.389175 0.00334953 -0.000386343)
(0.401546 0.00323939 0.000346245)
(0.40096 0.00288428 0.000209579)
(0.418838 0.00317995 0.00116023)
(0.406841 0.0022934 0.000328671)
(0.436409 -0.000147781 0.00170813)
(0.395248 -0.0078221 0.00189705)
(0.419385 -0.0299321 0.000760769)
(0.256379 -0.0728169 -0.00732505)
(0.166483 -0.139747 -0.0745795)
(-0.000108269 0.000115986 -4.77472e-05)
(-0.000769391 0.00031293 -7.29184e-07)
(-0.00181947 0.00036132 1.79902e-05)
(-0.00281526 0.000361889 2.77654e-05)
(-0.00379067 0.00034951 2.85857e-05)
(-0.00470972 0.000331234 2.34838e-05)
(-0.00555147 0.00030662 1.40361e-05)
(-0.00629498 0.000273943 5.292e-07)
(-0.00691597 0.000231592 -1.71993e-05)
(-0.0073872 0.000178096 -3.93124e-05)
(-0.0076797 0.000112167 -6.54879e-05)
(-0.00776444 3.38931e-05 -9.53687e-05)
(-0.00761291 -5.72283e-05 -0.000128213)
(-0.00720092 -0.0001584 -0.000162833)
(-0.00651391 -0.000265188 -0.000196675)
(-0.00555028 -0.000370801 -0.000225875)
(-0.00433092 -0.000464158 -0.000244066)
(-0.00292986 -0.000523813 -0.000242327)
(-0.00134154 -0.000494289 -0.000214524)
(-0.000242232 -0.000224951 -0.000103753)
(-0.000316474 0.00081233 -0.000137262)
(-0.00159337 0.00159505 -9.94593e-05)
(-0.00343198 0.00177408 -7.75161e-05)
(-0.00517862 0.00175361 -5.96815e-05)
(-0.00686877 0.00166798 -5.01899e-05)
(-0.00844086 0.00154635 -4.62736e-05)
(-0.00985579 0.00139055 -4.64124e-05)
(-0.0110772 0.00119736 -5.05384e-05)
(-0.0120664 0.000963283 -5.90172e-05)
(-0.012783 0.000685298 -7.22941e-05)
(-0.0131855 0.000361293 -9.06436e-05)
(-0.0132351 -9.14108e-06 -0.000114016)
(-0.0128946 -0.000420115 -0.000141992)
(-0.0121329 -0.000860605 -0.000172467)
(-0.0109353 -0.00131272 -0.00020303)
(-0.00930606 -0.00174939 -0.000229131)
(-0.00728377 -0.00212784 -0.000242865)
(-0.00497916 -0.00236514 -0.000234009)
(-0.00239631 -0.00225406 -0.000196763)
(-0.000507532 -0.00122538 -6.4345e-05)
(-0.000384352 0.00195319 -0.000180982)
(-0.00187827 0.0035175 -0.000149094)
(-0.00399765 0.00385785 -0.000126035)
(-0.00600312 0.00379208 -0.00010435)
(-0.00793777 0.00358604 -9.05203e-05)
(-0.00973298 0.00329844 -8.19411e-05)
(-0.0113458 0.00293589 -7.72255e-05)
(-0.0127366 0.00249519 -7.65489e-05)
(-0.0138633 0.0019718 -8.0533e-05)
(-0.0146827 0.00136185 -8.98608e-05)
(-0.015151 0.000663581 -0.000105048)
(-0.0152224 -0.000121236 -0.000126609)
(-0.0148521 -0.000982478 -0.000153422)
(-0.0140043 -0.00189818 -0.000184542)
(-0.0126568 -0.0028326 -0.000217054)
(-0.0108069 -0.00373142 -0.000245703)
(-0.00849087 -0.0045096 -0.000261152)
(-0.00583068 -0.00500151 -0.000251317)
(-0.0028266 -0.00479829 -0.000209809)
(-0.00060721 -0.00277111 -6.14879e-05)
(-0.000408182 0.00311736 -0.000217474)
(-0.00200329 0.00549539 -0.000191732)
(-0.00426559 0.00599734 -0.000168341)
(-0.00640271 0.0058825 -0.000144114)
(-0.00846747 0.0055549 -0.000127337)
(-0.0103891 0.00510283 -0.000115561)
(-0.0121251 0.00453698 -0.000107563)
(-0.0136358 0.00385353 -0.000103764)
(-0.0148789 0.0030461 -0.000105061)
(-0.0158092 0.00210858 -0.00011245)
(-0.0163785 0.00103767 -0.000126824)
(-0.0165371 -0.000163115 -0.000148995)
(-0.0162294 -0.00148459 -0.000178936)
(-0.0154025 -0.0028966 -0.000214484)
(-0.0140173 -0.00434818 -0.00025287)
(-0.0120532 -0.00575775 -0.000288135)
(-0.00953271 -0.00699288 -0.000309174)
(-0.00658483 -0.00779182 -0.000300974)
(-0.00320535 -0.00751621 -0.000255273)
(-0.000689105 -0.0044112 -8.36033e-05)
(-0.000426895 0.00436011 -0.000251588)
(-0.00211468 0.00761041 -0.000231408)
(-0.0045154 0.00828425 -0.000207834)
(-0.00678332 0.00811971 -0.000181733)
(-0.00898155 0.0076686 -0.000163038)
(-0.0110382 0.00705067 -0.000149422)
(-0.0129128 0.00628095 -0.00013983)
(-0.0145674 0.0053546 -0.000134927)
(-0.0159602 0.00426243 -0.000135915)
(-0.0170446 0.00299432 -0.000144166)
(-0.0177678 0.00154209 -0.00016098)
(-0.0180722 -9.6117e-05 -0.000187468)
(-0.0178877 -0.00190913 -0.000224941)
(-0.0171389 -0.003868 -0.000270528)
(-0.015759 -0.00590946 -0.000321525)
(-0.0136945 -0.00792425 -0.000370686)
(-0.0109385 -0.00972327 -0.000403783)
(-0.00762173 -0.010923 -0.000400993)
(-0.00373694 -0.010605 -0.000349867)
(-0.000807738 -0.00628333 -0.000139456)
(-0.000450474 0.00568281 -0.000289122)
(-0.00225143 0.00987244 -0.000274613)
(-0.00482098 0.0107318 -0.000250895)
(-0.00724918 0.0105187 -0.000223067)
(-0.00961097 0.0099447 -0.000202793)
(-0.0118338 0.00916368 -0.0001879)
(-0.0138806 0.00819542 -0.000177546)
(-0.0157167 0.00703369 -0.000172696)
(-0.0173025 0.00566522 -0.000174929)
(-0.0185918 0.00407333 -0.000186116)
(-0.0195285 0.00224102 -0.000208139)
(-0.0200435 0.000155812 -0.000242662)
(-0.0200514 -0.00217946 -0.000293493)
(-0.0194485 -0.00474457 -0.000356243)
(-0.0181237 -0.00747114 -0.000429016)
(-0.0159726 -0.0102242 -0.000503004)
(-0.0129342 -0.0127475 -0.000559251)
(-0.00912482 -0.0144994 -0.000569557)
(-0.00452999 -0.014199 -0.000512875)
(-0.000993746 -0.00848315 -0.000242024)
(-0.000480805 0.00710524 -0.00033466)
(-0.00242233 0.0123146 -0.000326987)
(-0.00519896 0.0133753 -0.000303067)
(-0.00782177 0.0131139 -0.000273091)
(-0.0103803 0.0124173 -0.000250816)
(-0.0128019 0.0114768 -0.00023433)
(-0.0150546 0.010318 -0.000223131)
(-0.0171098 0.00893327 -0.000218615)
(-0.0189329 0.00730409 -0.000222891)
(-0.020481 0.00540446 -0.000238564)
(-0.0216971 0.00320362 -0.000268492)
(-0.0225037 0.000671617 -0.000316045)
(-0.0227987 -0.0022111 -0.00038661)
(-0.0224428 -0.00544389 -0.000476134)
(-0.0212659 -0.00897067 -0.000584807)
(-0.0190847 -0.0126415 -0.000701941)
(-0.0157435 -0.016125 -0.00080177)
(-0.0113031 -0.0186732 -0.000841883)
(-0.00572813 -0.0185069 -0.000783191)
(-0.0012942 -0.0111784 -0.000421852)
(-0.000518489 0.00865226 -0.000391957)
(-0.00263087 0.0149778 -0.000393238)
(-0.00565548 0.0162563 -0.00036883)
(-0.00850682 0.0159439 -0.000335629)
(-0.0112929 0.015122 -0.000310108)
(-0.0139416 0.0140246 -0.000290819)
(-0.0164291 0.0126849 -0.000277798)
(-0.0187358 0.0110945 -0.000273061)
(-0.020837 0.00922915 -0.000279477)
(-0.0226983 0.00705148 -0.00030072)
(-0.0242676 0.00451172 -0.000341266)
(-0.0254647 0.00155246 -0.000406676)
(-0.0261741 -0.00188173 -0.000501713)
(-0.0262191 -0.00583444 -0.000635542)
(-0.0253553 -0.0102885 -0.000802693)
(-0.0232837 -0.0151066 -0.000993999)
(-0.0196915 -0.0198881 -0.0011754)
(-0.0144934 -0.023624 -0.00128188)
(-0.00760112 -0.0238191 -0.00123448)
(-0.00181102 -0.0146479 -0.00074408)
(-0.000564963 0.0103519 -0.000465354)
(-0.0028825 0.0179073 -0.000478725)
(-0.00619877 0.0194176 -0.00045312)
(-0.00931103 0.0190452 -0.000414676)
(-0.0123509 0.0180901 -0.000383524)
(-0.015248 0.0168355 -0.000359009)
(-0.0179899 0.0153248 -0.000341994)
(-0.020571 0.0135509 -0.000335352)
(-0.022982 0.0114851 -0.000342973)
(-0.0252052 0.00907747 -0.000369982)
(-0.0272034 0.00625545 -0.000423085)
(-0.0289052 0.00292407 -0.000510853)
(-0.0301949 -0.00102868 -0.000643414)
(-0.0308653 -0.00571407 -0.000840397)
(-0.030588 -0.0112083 -0.00109911)
(-0.0289108 -0.0174428 -0.0014158)
(-0.0252763 -0.0239891 -0.0017485)
(-0.0192807 -0.029531 -0.00199959)
(-0.0107119 -0.0305426 -0.00200574)
(-0.00278474 -0.01941 -0.00135228)
(-0.000623645 0.0122388 -0.000560917)
(-0.00318809 0.021155 -0.0005907)
(-0.00684448 0.0229049 -0.000562394)
(-0.010248 0.0224524 -0.00051517)
(-0.0135613 0.0213467 -0.000474231)
(-0.0167174 0.019928 -0.000440237)
(-0.01972 0.0182541 -0.000415283)
(-0.0225822 0.0163227 -0.000403369)
(-0.025318 0.0141035 -0.00040967)
(-0.0279364 0.0115364 -0.000441209)
(-0.0304305 0.00852561 -0.000507822)
(-0.0327596 0.00493165 -0.000622773)
(-0.0348252 0.000567324 -0.000802975)
(-0.0364222 -0.00478164 -0.00108547)
(-0.0371616 -0.0113621 -0.00148587)
(-0.0364082 -0.0192783 -0.00200945)
(-0.0332628 -0.0281895 -0.00261753)
(-0.0267287 -0.0364802 -0.00317431)
(-0.0163179 -0.0392289 -0.00336928)
(-0.00481779 -0.0265328 -0.00259193)
(-0.000701737 0.01436 -0.000687955)
(-0.00356845 0.0247854 -0.000739831)
(-0.00762142 0.0267684 -0.000705831)
(-0.0113441 0.0261978 -0.000643738)
(-0.0149411 0.0249083 -0.000586018)
(-0.0183525 0.0233071 -0.000535458)
(-0.0216026 0.0214712 -0.000495938)
(-0.0247294 0.0194079 -0.000472851)
(-0.027777 0.0170912 -0.000472831)
(-0.0307929 0.0144578 -0.000505089)
(-0.0338195 0.0113948 -0.000583439)
(-0.0368769 0.00772113 -0.00072874)
(-0.039926 0.00316555 -0.000972963)
(-0.0428313 -0.00264531 -0.00135814)
(-0.0452148 -0.0101831 -0.00196169)
(-0.0463018 -0.0199054 -0.00280295)
(-0.0448024 -0.0318129 -0.00388506)
(-0.0387969 -0.0441504 -0.00505091)
(-0.0272053 -0.0504599 -0.00581582)
(-0.00943303 -0.0385053 -0.00529311)
(-0.000813763 0.0167852 -0.000861623)
(-0.00406179 0.0288823 -0.000942552)
(-0.00858015 0.0310661 -0.000897155)
(-0.0126457 0.0303099 -0.000809722)
(-0.0165241 0.0287794 -0.000723552)
(-0.0201673 0.0269586 -0.000644884)
(-0.0236268 0.0249488 -0.000580145)
(-0.02697 0.0227723 -0.000536304)
(-0.0302766 0.0204156 -0.000521365)
(-0.0336422 0.0178252 -0.000546577)
(-0.0371782 0.0148906 -0.000629795)
(-0.0410034 0.0114125 -0.000800346)
(-0.0452153 0.0070531 -0.00110424)
(-0.0498317 0.00126684 -0.00160737)
(-0.0546605 -0.00672637 -0.00242685)
(-0.059049 -0.0179595 -0.00370679)
(-0.0614284 -0.0331966 -0.00548952)
(-0.0587014 -0.0511101 -0.0076776)
(-0.048605 -0.064542 -0.00977145)
(-0.0198972 -0.0604711 -0.0108812)
(-0.000989484 0.0196244 -0.00110779)
(-0.00473703 0.0335518 -0.00122438)
(-0.0098054 0.0358457 -0.00115588)
(-0.0142302 0.0347917 -0.00102496)
(-0.0183689 0.0329364 -0.000891603)
(-0.0221949 0.0308407 -0.000766855)
(-0.0257946 0.0286279 -0.000660422)
(-0.0292676 0.0263397 -0.00058088)
(-0.0327286 0.023986 -0.000537085)
(-0.0363218 0.0215414 -0.000540997)
(-0.0402358 0.0189269 -0.000612276)
(-0.0447198 0.0159697 -0.000785262)
(-0.0500903 0.0123254 -0.00111839)
(-0.056701 0.00734338 -0.00170451)
(-0.0648752 -7.46023e-05 -0.00267443)
(-0.0745819 -0.0115848 -0.00425137)
(-0.0843355 -0.0292923 -0.00663381)
(-0.0893648 -0.0541349 -0.00960041)
(-0.0842501 -0.0815208 -0.012955)
(-0.0369596 -0.103715 -0.0179574)
(-0.00129941 0.0230537 -0.00147697)
(-0.00575125 0.0390598 -0.00164493)
(-0.0114539 0.0413578 -0.0015386)
(-0.0162133 0.0398554 -0.00133201)
(-0.0205518 0.0374981 -0.00111205)
(-0.0244827 0.0349732 -0.000903821)
(-0.0281265 0.0324518 -0.000724678)
(-0.0316074 0.0300009 -0.000585157)
(-0.035067 0.0276565 -0.000492578)
(-0.0386894 0.0254376 -0.000456165)
(-0.042733 0.0233432 -0.000492538)
(-0.0475831 0.0213145 -0.000632657)
(-0.0538284 0.0191456 -0.000929322)
(-0.0623165 0.0162875 -0.00145424)
(-0.0741617 0.0115587 -0.00224403)
(-0.0904867 0.00251034 -0.00315186)
(-0.110068 -0.0157348 -0.00385888)
(-0.12418 -0.0515612 -0.0036117)
(-0.123382 -0.108069 -0.00344012)
(-0.0467815 -0.184646 -0.0159633)
(-0.0017406 0.0275351 -0.00203191)
(-0.00703432 0.0448477 -0.00217386)
(-0.0136097 0.0466182 -0.0019746)
(-0.0187732 0.0442803 -0.00162928)
(-0.0233082 0.0414198 -0.00129278)
(-0.0272269 0.0386029 -0.000981465)
(-0.0307415 0.0359156 -0.000711554)
(-0.034027 0.0333913 -0.000492013)
(-0.0372399 0.0310885 -0.000328416)
(-0.0405588 0.0290934 -0.000224336)
(-0.0442447 0.0275317 -0.000179879)
(-0.0487413 0.0265473 -0.000191048)
(-0.0548367 0.0262699 -0.000232914)
(-0.0638319 0.026546 -0.000171558)
(-0.0777698 0.026432 0.000494731)
(-0.0988574 0.0220358 0.00310877)
(-0.125442 0.00364738 0.00973113)
(-0.141379 -0.0514092 0.021755)
(-0.14208 -0.152288 0.02932)
(-0.0344846 -0.288933 -0.0039138)
(-0.00375728 0.0319317 -0.00300995)
(-0.0110751 0.0542397 -0.00337018)
(-0.0173182 0.0555698 -0.00298907)
(-0.022213 0.0525366 -0.00241527)
(-0.0263172 0.0483864 -0.00178709)
(-0.0299699 0.0443468 -0.00120783)
(-0.0332643 0.0406599 -0.00071176)
(-0.0362899 0.0374148 -0.000313424)
(-0.039127 0.0346969 -1.21359e-05)
(-0.0418899 0.0326192 0.000201164)
(-0.0447693 0.0314221 0.000349936)
(-0.0481038 0.0314888 0.00050268)
(-0.0526047 0.0334678 0.000872099)
(-0.0594763 0.0377227 0.00207163)
(-0.070963 0.0436476 0.00576005)
(-0.0885256 0.0442221 0.0155169)
(-0.113208 0.0252053 0.0349209)
(-0.124188 -0.052934 0.0594597)
(-0.133477 -0.199482 0.0602245)
(-0.0129989 -0.377671 -0.00833234)
(-0.0019041 0.0466508 -0.00482028)
(-0.00980761 0.0580441 -0.00447574)
(-0.0207174 0.0568948 -0.00372988)
(-0.026281 0.0516597 -0.00258694)
(-0.0311798 0.0475764 -0.00163714)
(-0.03451 0.0439982 -0.000790565)
(-0.036989 0.0408228 -8.86066e-05)
(-0.038881 0.0379442 0.000463263)
(-0.0403476 0.0354667 0.000873655)
(-0.0414588 0.0334964 0.00116232)
(-0.0422531 0.0324265 0.00139065)
(-0.0426974 0.0326855 0.00172045)
(-0.0430947 0.035458 0.00260045)
(-0.043521 0.0409427 0.00519379)
(-0.0463377 0.0500694 0.0122729)
(-0.0497402 0.0515347 0.0283375)
(-0.0669524 0.0336925 0.0567682)
(-0.0698008 -0.0582527 0.0812682)
(-0.0950805 -0.238772 0.0594823)
(0.0125193 -0.443135 -0.0336901)
(-0.0118471 0.0384791 -0.00624819)
(-0.0260221 0.0813252 -0.00721279)
(-0.0264455 0.0776826 -0.00627842)
(-0.0331277 0.0711363 -0.0045442)
(-0.0351103 0.0628948 -0.00260938)
(-0.0356074 0.0555026 -0.000963444)
(-0.034779 0.0491515 0.000339209)
(-0.0331668 0.0438007 0.00130469)
(-0.0310483 0.0394031 0.00197369)
(-0.0284112 0.0358191 0.00236582)
(-0.0255394 0.0333154 0.00257898)
(-0.0217484 0.0321111 0.00276034)
(-0.0178663 0.0335873 0.00344308)
(-0.010655 0.037706 0.00588141)
(-0.00560727 0.0475347 0.0124819)
(0.0113549 0.052335 0.0273323)
(0.0113177 0.0425092 0.0502193)
(0.0415282 -0.0437214 0.0700355)
(-0.00512542 -0.248322 0.0376852)
(0.060697 -0.464983 -0.055824)
(-0.0752928 0.102147 -0.0172171)
(-0.0608575 0.0637926 -0.0117413)
(-0.0601528 0.06131 -0.007905)
(-0.0392628 0.052968 -0.00424949)
(-0.0213106 0.0447675 -0.00162637)
(-0.00205475 0.0386094 0.000450879)
(0.015603 0.0340298 0.00212323)
(0.0323474 0.0301108 0.00336031)
(0.0470627 0.0271024 0.00423684)
(0.061384 0.0241983 0.00471454)
(0.0731585 0.0224133 0.00482744)
(0.0864834 0.0204825 0.00452118)
(0.0954137 0.0204859 0.00426649)
(0.113715 0.0204101 0.00371109)
(0.118884 0.0210146 0.00580107)
(0.159217 0.01924 0.0116973)
(0.154957 -0.00395891 0.0170612)
(0.215416 -0.055646 0.0331388)
(0.149533 -0.233777 0.0127722)
(0.146949 -0.419356 -0.0711461)
(0.119489 0.139875 -0.0162731)
(0.151903 0.0859177 -0.0172733)
(0.230558 0.063749 -0.0167226)
(0.284889 0.0484465 -0.0149178)
(0.326835 0.0375467 -0.0126446)
(0.364178 0.029453 -0.0106164)
(0.393471 0.0237454 -0.00847981)
(0.422944 0.019533 -0.00662137)
(0.442689 0.0162476 -0.00483409)
(0.468594 0.0139253 -0.00311763)
(0.47956 0.0118024 -0.00189343)
(0.506156 0.0104881 -0.000470677)
(0.507157 0.00913144 0.00015061)
(0.539148 0.00855203 0.000872729)
(0.528173 0.00729315 0.00190506)
(0.566679 0.00490912 0.00131572)
(0.535598 -0.00333076 0.00458366)
(0.557299 -0.0237128 -0.00172782)
(0.432597 -0.0725395 -0.0070727)
(0.301806 -0.148739 -0.0829721)
(-0.000120246 0.000120292 -6.4349e-05)
(-0.000857897 0.000345252 -5.15934e-05)
(-0.00202768 0.000400754 -3.94348e-05)
(-0.00313094 0.000400711 -3.01004e-05)
(-0.00420601 0.000385199 -2.67143e-05)
(-0.00521362 0.000362699 -2.81335e-05)
(-0.00613153 0.000332919 -3.36366e-05)
(-0.00693733 0.000294141 -4.31631e-05)
(-0.00760516 0.000244648 -5.67462e-05)
(-0.00810661 0.000182935 -7.44981e-05)