/*--------------------------------*- C++ -*----------------------------------*\
  =========                 |
  \\      /  F ield         | OpenFOAM: The Open Source CFD Toolbox
   \\    /   O peration     | Website:  https://openfoam.org
    \\  /    A nd           | Version:  10
     \\/     M anipulation  |
\*---------------------------------------------------------------------------*/
FoamFile
{
    format      ascii;
    class       volScalarField;
    location    "8.65";
    object      p;
}
// * * * * * * * * * * * * * * * * * * * * * * * * * * * * * * * * * * * * * //

dimensions      [0 2 -2 0 0 0 0];

internalField   nonuniform List<scalar> 
496
(
25.5512
24.8826
21.6628
15.9738
26.3778
26.4386
22.404
16.0617
31.5801
29.6015
21.9049
10.8766
40.0797
36.842
32.0984
15.877
7.08902
-2.82889
6.63977
-2.82162
-5.29462
-11.3939
-37.7873
-61.4733
-10.4132
-14.9873
-17.1739
-18.0529
-10.9473
-16.6032
-19.9458
-20.8981
-6.10877
-7.35899
-13.2298
-18.5535
-30.8935
-16.6729
-11.2722
-20.0584
-18.1801
-17.9275
-17.4718
-15.96
-13.4808
-11.1323
-9.72397
-9.8299
-10.7756
-11.8068
-11.9795
-11.7394
-11.7717
-12.2108
-12.8195
-12.7013
-11.9112
-10.522
-9.47237
-8.82901
-8.49368
-8.02949
-7.48291
-7.15756
-6.67647
-6.16665
-5.45831
-4.84395
-4.15808
-3.2989
-2.55969
-1.78811
-1.37498
-0.980883
-0.864258
-0.828266
-0.582977
-0.57511
-0.407395
-0.171563
-20.83
-20.5694
-19.2038
-16.6215
-13.458
-10.543
-9.24082
-9.56171
-10.584
-11.5277
-11.8548
-11.915
-12.1459
-12.6407
-13.0759
-12.8225
-11.9729
-10.6448
-9.54766
-8.80414
-8.19172
-7.8831
-7.36256
-7.13221
-6.62451
-6.12787
-5.39585
-4.78721
-4.08249
-3.23442
-2.29204
-1.50908
-1.12099
-0.761933
-0.623633
-0.553249
-0.708015
-0.644686
-0.43022
-0.321372
-21.3627
-21.9361
-19.6466
-16.4001
-13.3261
-10.3494
-9.11715
-9.50064
-9.97286
-10.5236
-11.513
-12.6831
-13.2756
-13.7443
-13.3179
-12.5056
-11.1417
-9.9575
-9.41635
-9.07819
-8.72285
-8.08596
-8.18274
-7.94865
-7.5423
-6.83506
-5.94346
-5.04641
-3.91185
-3.11704
-2.30303
-1.47839
-0.994686
-0.811319
-1.0367
-1.36703
-1.64396
-1.5228
-1.07816
-0.338343
-23.5615
-21.5746
-20.0891
-15.9651
-9.92103
-7.89305
-8.6337
-8.31949
-8.43794
-9.29941
-11.5694
-14.1412
-15.2816
-15.8662
-15.0296
-14.3311
-12.3345
-10.4792
-8.73081
-7.25633
-6.90347
-6.94216
-7.79191
-7.60697
-7.78867
-7.31927
-6.66371
-5.69412
-4.14563
-2.75197
-0.781157
-0.0902997
0.716769
0.296237
-0.199286
-1.06915
-1.89974
-1.83773
-2.30061
-1.24393
44.5279
45.4383
59.1359
71.8633
45.1452
46.8732
60.5778
73.5509
-29.1452
-35.3934
-32.8623
-25.3807
-24.8927
-44.2128
-27.2748
-14.3667
-21.6748
-25.3885
-21.1717
-19.2991
-17.9057
-12.7337
-8.09597
-8.98193
-8.59379
-8.77965
-10.0007
-11.4645
-12.4688
-12.9096
-13.5973
-13.7146
-13.1314
-12.047
-10.3849
-9.20732
-8.92416
-8.36273
-7.72391
-7.31529
-7.03666
-6.84245
-6.01728
-4.91827
-4.10631
-3.13091
-2.21824
-1.82437
-1.14715
-0.845958
-1.14241
-1.21137
-1.12018
-1.52762
-1.77248
-0.653963
-28.1255
-23.5884
-21.1625
-26.0284
-21.0413
-13.606
-11.8447
-11.0818
-7.98664
-6.92127
-7.86851
-8.70721
-9.53043
-10.236
-11.2801
-12.2677
-13.0851
-13.061
-12.4264
-11.6178
-10.6891
-9.33053
-7.72673
-6.38603
-5.52293
-4.82539
-4.27786
-3.95342
-3.84877
-3.69631
-3.84968
-3.78681
-3.29774
-2.72311
-2.3046
-1.18123
-0.301785
-0.0149465
0.199498
0.272425
40.9948
38.8925
35.2392
21.3958
34.2155
32.207
24.5862
14.0788
29.3347
29.1267
25.0325
18.6446
28.2171
27.6309
24.374
18.8053
-27.5143
-52.7319
-1.14786
-6.96645
9.19388
0.122827
9.86707
0.0198611
-23.1758
-13.2867
-18.8599
-19.8754
-3.07541
-5.85152
-13.8028
-18.6317
-7.91103
-13.8539
-18.0194
-20.7733
-7.33535
-12.4246
-15.763
-17.8665
-19.6089
-20.4844
-21.0813
-21.4816
-20.2758
-16.7896
-12.341
-8.9653
-7.62463
-8.06631
-7.51278
-7.01775
-6.73678
-8.06059
-10.2405
-11.8437
-13.2836
-13.7853
-14.0629
-12.766
-11.4409
-9.71888
-7.5067
-5.93797
-4.10424
-3.6233
-3.09563
-3.30655
-3.86738
-4.32577
-4.8165
-4.68788
-4.6982
-3.49159
-2.55644
-0.986489
1.22341
1.95847
2.6612
1.26919
-20.2604
-21.1979
-20.7698
-20.2105
-18.9493
-15.7298
-11.6349
-9.38471
-8.98755
-9.72255
-9.8287
-8.71713
-8.32454
-8.93839
-10.6095
-11.9712
-12.9182
-13.2241
-12.8104
-12.0029
-10.5341
-9.07819
-7.51069
-6.43089
-5.3432
-4.70269
-4.23765
-4.03584
-4.22699
-4.27772
-4.44697
-4.11365
-3.64379
-2.78501
-1.928
-1.25388
-0.627656
0.155448
0.537299
0.207262
-21.6238
-21.2455
-19.7278
-18.422
-17.171
-15.1037
-12.4046
-10.1874
-9.16365
-9.1858
-9.7232
-9.44103
-8.69007
-8.66689
-9.71407
-11.1496
-12.0721
-12.2942
-11.8441
-11.1715
-10.1221
-8.95338
-7.72155
-6.51128
-5.60793
-4.66393
-4.17926
-3.81893
-3.8597
-3.74243
-3.50908
-3.21141
-2.83052
-2.66898
-2.29703
-1.88121
-1.17642
-0.395659
0.0473374
0.255161
-18.722
-18.8863
-18.4471
-17.3679
-16.2406
-14.8019
-12.4829
-10.1052
-9.40634
-10.0459
-10.6425
-10.0069
-8.93013
-8.63238
-9.55684
-11.1051
-11.9147
-11.9223
-11.3148
-10.7089
-9.89253
-8.79125
-7.70057
-6.61744
-5.86907
-5.10895
-4.63551
-4.33308
-4.09648
-3.89118
-3.50573
-3.23474
-2.88736
-2.68844
-2.32059
-1.82844
-1.20485
-0.533309
-0.138037
0.0655691
)
;

boundaryField
{
    inlet
    {
        type            zeroGradient;
    }
    outlet
    {
        type            fixedValue;
        value           uniform 0;
    }
    obstacle
    {
        type            zeroGradient;
    }
    upperWall
    {
        type            zeroGradient;
    }
    lowerWall
    {
        type            zeroGradient;
    }
    frontAndBack
    {
        type            empty;
    }
}


// ************************************************************************* //
