/*--------------------------------*- C++ -*----------------------------------*\
  =========                 |
  \\      /  F ield         | OpenFOAM: The Open Source CFD Toolbox
   \\    /   O peration     | Website:  https://openfoam.org
    \\  /    A nd           | Version:  10
     \\/     M anipulation  |
\*---------------------------------------------------------------------------*/
FoamFile
{
    format      ascii;
    class       surfaceScalarField;
    location    "0.15";
    object      phi;
}
// * * * * * * * * * * * * * * * * * * * * * * * * * * * * * * * * * * * * * //

dimensions      [0 3 -1 0 0 0 0];

internalField   nonuniform List<scalar> 
22800
(
-1.46973e-06
1.46952e-06
2.12357e-10
-2.94705e-06
1.47672e-06
6.02231e-10
-4.34805e-06
1.40048e-06
5.2063e-10
-5.63701e-06
1.28843e-06
5.20053e-10
-6.78214e-06
1.14466e-06
4.74394e-10
-7.75623e-06
9.73682e-07
4.07388e-10
-8.53695e-06
7.80396e-07
3.26692e-10
-9.10704e-06
5.69847e-07
2.37056e-10
-9.45424e-06
3.47061e-07
1.41858e-10
-9.57125e-06
1.16969e-07
4.34658e-11
-9.45561e-06
-1.15592e-07
-5.6303e-11
-9.10964e-06
-3.45814e-07
-1.55846e-10
-8.54053e-06
-5.68848e-07
-2.53234e-10
-7.76045e-06
-7.79743e-07
-3.4603e-10
-6.78657e-06
-9.73442e-07
-4.30873e-10
-5.64121e-06
-1.14486e-06
-5.02677e-10
-4.35159e-06
-1.28906e-06
-5.53113e-10
-2.94952e-06
-1.4015e-06
-5.67076e-10
-1.4711e-06
-1.47791e-06
-5.10241e-10
-1.47088e-06
-2.155e-10
-1.55316e-06
3.02267e-06
1.36781e-11
-3.11319e-06
3.03649e-06
2.61723e-10
-4.5922e-06
2.8792e-06
2.85753e-10
-5.95197e-06
2.64791e-06
2.83646e-10
-7.15909e-06
2.35152e-06
2.57989e-10
-8.18509e-06
1.99946e-06
2.19804e-10
-9.00682e-06
1.60195e-06
1.74425e-10
-9.60648e-06
1.16938e-06
1.25022e-10
-9.97155e-06
7.12058e-07
7.34863e-11
-1.00946e-05
2.39978e-07
2.07925e-11
-9.97306e-06
-2.3708e-07
-3.25758e-11
-9.60936e-06
-7.0943e-07
-8.62707e-11
-9.01079e-06
-1.16727e-06
-1.39591e-10
-8.18978e-06
-1.60056e-06
-1.9127e-10
-7.16404e-06
-1.99894e-06
-2.38944e-10
-5.95669e-06
-2.35193e-06
-2.78272e-10
-4.59623e-06
-2.64922e-06
-3.01413e-10
-3.11614e-06
-2.8813e-06
-2.933e-10
-1.55472e-06
-3.03911e-06
-2.18943e-10
-3.02569e-06
8.62465e-11
-1.63284e-06
4.65574e-06
-2.36033e-10
-3.27195e-06
4.67548e-06
1.24037e-10
-4.82428e-06
4.43134e-06
1.9357e-10
-6.24945e-06
4.07287e-06
2.05164e-10
-7.51255e-06
3.61443e-06
1.89445e-10
-8.58433e-06
3.07109e-06
1.60545e-10
-9.44139e-06
2.45888e-06
1.25683e-10
-1.0066e-05
1.79394e-06
8.8541e-11
-1.0446e-05
1.09197e-06
5.07965e-11
-1.05741e-05
3.68022e-07
1.287e-11
-1.04478e-05
-3.63336e-07
-2.54532e-11
-1.00694e-05
-1.08772e-06
-6.45474e-11
-9.44607e-06
-1.79052e-06
-1.04481e-10
-8.58987e-06
-2.45662e-06
-1.44599e-10
-7.51841e-06
-3.07022e-06
-1.82856e-10
-6.25505e-06
-3.61507e-06
-2.14945e-10
-4.82906e-06
-4.07498e-06
-2.32515e-10
-3.27542e-06
-4.43473e-06
-2.19312e-10
-1.63461e-06
-4.67977e-06
-1.38182e-10
-4.66049e-06
1.85506e-10
-1.75578e-06
6.4118e-06
-2.85162e-10
-3.51682e-06
6.43644e-06
7.76785e-11
-5.18174e-06
6.09611e-06
1.58951e-10
-6.70673e-06
5.59769e-06
1.73253e-10
-8.0547e-06
4.96225e-06
1.58416e-10
-9.19539e-06
4.21164e-06
1.31053e-10
-1.01052e-05
3.36864e-06
9.95279e-11
-1.0767e-05
2.45564e-06
6.77868e-11
-1.1169e-05
1.49393e-06
3.71973e-11
-1.13045e-05
5.03502e-07
7.54062e-12
-1.11712e-05
-4.96596e-07
-2.21834e-11
-1.07712e-05
-1.48765e-06
-5.31669e-11
-1.01111e-05
-2.45057e-06
-8.63716e-11
-9.20232e-06
-3.36527e-06
-1.21767e-10
-8.06206e-06
-4.21032e-06
-1.57576e-10
-6.71379e-06
-4.96316e-06
-1.89361e-10
-5.18778e-06
-5.60077e-06
-2.07832e-10
-3.52122e-06
-6.1011e-06
-1.94666e-10
-1.75807e-06
-6.44281e-06
-1.09108e-10
-6.4188e-06
2.38332e-10
-1.92742e-06
8.33955e-06
-3.28328e-10
-3.85804e-06
8.367e-06
5.97629e-11
-5.67862e-06
7.91654e-06
1.47582e-10
-7.34044e-06
7.25935e-06
1.59479e-10
-8.80358e-06
6.42525e-06
1.40237e-10
-1.00368e-05
5.4447e-06
1.09863e-10
-1.10168e-05
4.34856e-06
7.81536e-11
-1.17274e-05
3.16623e-06
4.92782e-11
-1.21582e-05
1.92473e-06
2.41143e-11
-1.23034e-05
6.48694e-07
1.51184e-12
-1.2161e-05
-6.38938e-07
-2.05781e-11
-1.17328e-05
-1.91584e-06
-4.45973e-11
-1.10243e-05
-3.15902e-06
-7.26258e-11
-1.00457e-05
-4.34373e-06
-1.05542e-10
-8.81314e-06
-5.44276e-06
-1.42102e-10
-7.34966e-06
-6.42647e-06
-1.77695e-10
-5.68655e-06
-7.26368e-06
-2.01685e-10
-3.86384e-06
-7.92361e-06
-1.92759e-10
-1.93046e-06
-8.37609e-06
-1.0457e-10
-8.34953e-06
2.73961e-10
-2.15503e-06
1.04949e-05
-3.67461e-10
-4.30944e-06
1.05214e-05
5.68165e-11
-6.33356e-06
9.94052e-06
1.46778e-10
-8.17207e-06
9.09771e-06
1.50932e-10
-9.78175e-06
8.03481e-06
1.22302e-10
-1.11308e-05
6.79362e-06
8.53491e-11
-1.21972e-05
5.41499e-06
5.15844e-11
-1.29673e-05
3.93626e-06
2.53701e-11
-1.34328e-05
2.39024e-06
6.68335e-12
-1.35897e-05
8.05555e-07
-6.89085e-12
-1.34365e-05
-7.92076e-07
-1.91408e-11
-1.29744e-05
-2.37793e-06
-3.41858e-11
-1.22071e-05
-3.92622e-06
-5.59004e-11
-1.11426e-05
-5.40818e-06
-8.64922e-11
-9.79445e-06
-6.79078e-06
-1.25475e-10
-8.18439e-06
-8.03636e-06
-1.68316e-10
-6.34422e-06
-9.10365e-06
-2.02896e-10
-4.31727e-06
-9.95036e-06
-2.03524e-10
-2.15913e-06
-1.05341e-05
-1.15474e-10
-1.0509e-05
3.01985e-10
-2.44927e-06
1.29446e-05
-4.06682e-10
-4.89101e-06
1.2963e-05
6.27533e-11
-7.17307e-06
1.22224e-05
1.5048e-10
-9.23153e-06
1.1156e-05
1.39446e-10
-1.10198e-05
9.82295e-06
9.50777e-11
-1.25067e-05
8.28046e-06
4.7952e-11
-1.36737e-05
6.58205e-06
1.0971e-11
-1.45115e-05
4.77404e-06
-9.70692e-12
-1.5016e-05
2.89473e-06
-1.85099e-11
-1.51859e-05
9.75466e-07
-1.87134e-11
-1.50208e-05
-9.57091e-07
-1.62536e-11
-1.45208e-05
-2.87789e-06
-1.76861e-11
-1.36868e-05
-4.76019e-06
-2.95362e-11
-1.25224e-05
-6.57252e-06
-5.6376e-11
-1.10368e-05
-8.2763e-06
-9.88531e-11
-9.24821e-06
-9.82482e-06
-1.52928e-10
-7.18762e-06
-1.1164e-05
-2.04817e-10
-4.90176e-06
-1.2236e-05
-2.22902e-10
-2.45493e-06
-1.29808e-05
-1.40605e-10
-1.29642e-05
3.23837e-10
-2.82585e-06
1.57709e-05
-4.44925e-10
-5.63171e-06
1.57688e-05
7.86937e-11
-8.23461e-06
1.48252e-05
1.53782e-10
-1.05598e-05
1.34811e-05
1.15526e-10
-1.2558e-05
1.18211e-05
4.58228e-11
-1.42017e-05
9.92414e-06
-1.3888e-11
-1.54792e-05
7.8596e-06
-4.96355e-11
-1.63889e-05
5.68381e-06
-6.31442e-11
-1.69337e-05
3.43963e-06
-5.52051e-11
-1.71171e-05
1.15882e-06
-3.45629e-11
-1.69401e-05
-1.13402e-06
-9.92812e-12
-1.64012e-05
-3.41678e-06
8.43931e-12
-1.54966e-05
-5.66484e-06
1.19506e-11
-1.42228e-05
-7.84629e-06
-3.5073e-12
-1.25811e-05
-9.918e-06
-5.12664e-11
-1.05826e-05
-1.18232e-05
-1.21628e-10
-8.25466e-06
-1.34917e-05
-2.00473e-10
-5.64666e-06
-1.48437e-05
-2.48865e-10
-2.83378e-06
-1.57935e-05
-1.83604e-10
-1.57983e-05
3.35461e-10
-3.30829e-06
1.90797e-05
-4.76555e-10
-6.57392e-06
1.90343e-05
1.06155e-10
-9.57136e-06
1.78225e-05
1.4647e-10
-1.22129e-05
1.61226e-05
6.20321e-11
-1.44495e-05
1.40577e-05
-3.67953e-11
-1.62622e-05
1.17369e-05
-1.12244e-10
-1.76522e-05
9.24982e-06
-1.47371e-10
-1.86313e-05
6.66303e-06
-1.42402e-10
-1.92134e-05
4.02178e-06
-1.07543e-10
-1.94089e-05
1.35443e-06
-5.51952e-11
-1.92217e-05
-1.32122e-06
1.6686e-12
-1.86475e-05
-3.99101e-06
5.14202e-11
-1.76753e-05
-6.63715e-06
8.0988e-11
-1.62905e-05
-9.23121e-06
7.63035e-11
-1.44807e-05
-1.17278e-05
2.76439e-11
-1.22442e-05
-1.40597e-05
-5.76641e-11
-9.59927e-06
-1.61365e-05
-1.78357e-10
-6.59499e-06
-1.78477e-05
-2.77967e-10
-3.31956e-06
-1.90687e-05
-2.51117e-10
-1.91182e-05
3.26385e-10
-3.93295e-06
2.30131e-05
-4.89508e-10
-7.78117e-06
2.28824e-05
1.46449e-10
-1.12599e-05
2.13011e-05
1.14991e-10
-1.4268e-05
1.91307e-05
-4.03235e-11
-1.67631e-05
1.6553e-05
-1.82999e-10
-1.87446e-05
1.37187e-05
-2.74434e-10
-2.02363e-05
1.07418e-05
-2.94857e-10
-2.12712e-05
7.69817e-06
-2.57924e-10
-2.18801e-05
4.63086e-06
-1.80985e-10
-2.20842e-05
1.55863e-06
-8.20507e-11
-2.18909e-05
-1.51457e-06
2.08923e-11
-2.12923e-05
-4.58973e-06
1.1517e-10
-2.02666e-05
-7.66301e-06
1.84144e-10
-1.87823e-05
-1.07157e-05
2.07827e-10
-1.68054e-05
-1.37048e-05
1.67967e-10
-1.43111e-05
-1.6554e-05
5.20073e-11
-1.12991e-05
-1.91484e-05
-1.14521e-10
-7.81124e-06
-2.13353e-05
-2.99675e-10
-3.94924e-06
-2.29303e-05
-3.52143e-10
-2.30677e-05
2.74874e-10
-4.75838e-06
2.7772e-05
-4.59318e-10
-9.35128e-06
2.74751e-05
1.95215e-10
-1.34126e-05
2.53624e-05
2.10834e-11
-1.6832e-05
2.25503e-05
-2.22661e-10
-1.95883e-05
1.93097e-05
-4.36705e-10
-2.17164e-05
1.58473e-05
-5.26089e-10
-2.32777e-05
1.23036e-05
-5.10061e-10
-2.4338e-05
8.75887e-06
-4.17899e-10
-2.49527e-05
5.24585e-06
-2.78676e-10
-2.5158e-05
1.76409e-06
-1.157e-10
-2.49664e-05
-1.70624e-06
4.99011e-11
-2.4365e-05
-5.19133e-06
2.04603e-10
-2.33171e-05
-8.71129e-06
3.32099e-10
-2.17662e-05
-1.2267e-05
4.05827e-10
-1.96454e-05
-1.5826e-05
3.93683e-10
-1.68916e-05
-1.93081e-05
2.66688e-10
-1.34681e-05
-2.25719e-05
2.9186e-11
-9.39489e-06
-2.54083e-05
-2.86579e-10
-4.7825e-06
-2.75422e-05
-4.95918e-10
-2.78504e-05
1.35015e-10
-5.88389e-06
3.36562e-05
-3.3575e-10
-1.14395e-05
3.30305e-05
2.24739e-10
-1.61966e-05
3.01197e-05
-1.77005e-10
-2.00534e-05
2.64077e-05
-6.01687e-10
-2.304e-05
2.22971e-05
-8.50676e-10
-2.52554e-05
1.80636e-05
-9.02824e-10
-2.68211e-05
1.38702e-05
-8.06442e-10
-2.78516e-05
9.78997e-06
-6.22909e-10
-2.84362e-05
5.83078e-06
-3.97337e-10
-2.86304e-05
1.95851e-06
-1.53655e-10
-2.84532e-05
-1.88354e-06
8.91871e-11
-2.78856e-05
-5.75929e-06
3.21586e-10
-2.68714e-05
-9.72596e-06
5.31527e-10
-2.53205e-05
-1.38186e-05
6.89284e-10
-2.31167e-05
-1.80306e-05
7.44602e-10
-2.01359e-05
-2.22895e-05
6.36766e-10
-1.6276e-05
-2.64321e-05
3.10229e-10
-1.1504e-05
-3.01801e-05
-1.74708e-10
-5.92073e-06
-3.31248e-05
-6.79208e-10
-3.3771e-05
-1.55436e-10
-7.48773e-06
4.11439e-05
-1.42844e-11
-1.42997e-05
3.98423e-05
1.30674e-10
-1.98643e-05
3.56851e-05
-6.62907e-10
-2.41387e-05
3.06834e-05
-1.27755e-09
-2.72622e-05
2.54222e-05
-1.5098e-09
-2.94447e-05
2.02475e-05
-1.43767e-09
-3.09013e-05
1.5328e-05
-1.18787e-09
-3.18134e-05
1.07029e-05
-8.63941e-10
-3.23124e-05
6.33031e-06
-5.25716e-10
-3.24769e-05
2.12317e-06
-1.89236e-10
-3.2333e-05
-2.02761e-06
1.39139e-10
-3.18548e-05
-6.23786e-06
4.62547e-10
-3.0964e-05
-1.06176e-05
7.80871e-10
-2.95282e-05
-1.52555e-05
1.06867e-09
-2.73642e-05
-2.01959e-05
1.26026e-09
-2.42529e-05
-2.54021e-05
1.24773e-09
-1.99791e-05
-3.07068e-05
8.97584e-10
-1.43973e-05
-3.5762e-05
1.43491e-10
-7.54638e-06
-3.99749e-05
-8.33232e-10
-4.13165e-05
-8.00674e-10
-9.90908e-06
5.10523e-05
7.34968e-10
-1.83572e-05
4.82908e-05
-3.9468e-10
-2.4799e-05
4.21287e-05
-1.76175e-09
-2.93699e-05
3.52567e-05
-2.46279e-09
-3.24244e-05
2.84792e-05
-2.49672e-09
-3.43613e-05
2.21866e-05
-2.13595e-09
-3.55294e-05
1.64977e-05
-1.6268e-09
-3.6192e-05
1.13667e-05
-1.10758e-09
-3.6527e-05
6.66592e-06
-6.36999e-10
-3.66355e-05
2.23188e-06
-2.09045e-10
-3.65507e-05
-2.11266e-06
1.98032e-10
-3.62406e-05
-6.54854e-06
6.13097e-10
-3.56049e-05
-1.12543e-05
1.06073e-09
-3.44658e-05
-1.63961e-05
1.53427e-09
-3.25577e-05
-2.21059e-05
1.96661e-09
-2.95272e-05
-2.84348e-05
2.20203e-09
-2.49664e-05
-3.52695e-05
1.97536e-09
-1.85087e-05
-4.22208e-05
9.95324e-10
-1.00075e-05
-4.84754e-05
-6.79074e-10
-5.13219e-05
-2.13971e-09
-1.38279e-05
6.48778e-05
2.36931e-09
-2.434e-05
5.88052e-05
-2.3179e-09
-3.15798e-05
4.93725e-05
-3.97976e-09
-3.61118e-05
3.97931e-05
-4.40596e-09
-3.87056e-05
3.10768e-05
-3.84055e-09
-4.00527e-05
2.35367e-05
-2.92847e-09
-4.06693e-05
1.71163e-05
-2.03071e-09
-4.09041e-05
1.16028e-05
-1.2754e-09
-4.09732e-05
6.73564e-06
-6.79086e-10
-4.09924e-05
2.25125e-06
-1.88839e-10
-4.09987e-05
-2.10653e-06
2.6215e-10
-4.09578e-05
-6.59024e-06
7.43716e-10
-4.07558e-05
-1.14576e-05
1.32137e-09
-4.01781e-05
-1.69758e-05
2.03216e-09
-3.88752e-05
-2.34118e-05
2.84285e-09
-3.63256e-05
-3.09879e-05
3.58336e-09
-3.18253e-05
-3.97737e-05
3.84393e-09
-2.45815e-05
-4.94675e-05
2.92485e-09
-1.40032e-05
-5.90543e-05
5.98681e-10
-6.53201e-05
-4.94058e-09
-2.06716e-05
8.55435e-05
5.9449e-09
-3.35107e-05
7.16522e-05
-8.0737e-09
-4.10467e-05
5.69166e-05
-8.07187e-09
-4.47909e-05
4.35445e-05
-7.22601e-09
-4.62466e-05
3.2538e-05
-5.37114e-09
-4.64889e-05
2.37825e-05
-3.58022e-09
-4.62021e-05
1.68317e-05
-2.19629e-09
-4.57906e-05
1.11925e-05
-1.22544e-09
-4.54769e-05
6.42253e-06
-5.68407e-10
-4.53695e-05
2.14396e-06
-9.01287e-11
-4.55019e-05
-1.97448e-06
3.29919e-10
-4.58447e-05
-6.24828e-06
8.12505e-10
-4.62936e-05
-1.10101e-05
1.4761e-09
-4.66302e-05
-1.66416e-05
2.43666e-09
-4.64527e-05
-2.35931e-05
3.76386e-09
-4.5074e-05
-3.2372e-05
5.37239e-09
-4.1405e-05
-4.34494e-05
6.79774e-09
-3.39047e-05
-5.69746e-05
6.77304e-09
-2.10016e-05
-7.19629e-05
5.52124e-09
-8.63109e-05
-1.07882e-08
-3.34703e-05
0.000119007
6.45573e-09
-4.80319e-05
8.62375e-05
-2.36146e-08
-5.42911e-05
6.31901e-05
-1.43093e-08
-5.57949e-05
4.50587e-05
-1.042e-08
-5.50394e-05
3.17889e-05
-6.41127e-09
-5.34806e-05
2.22273e-05
-3.5379e-09
-5.18787e-05
1.52316e-05
-1.7614e-09
-5.05944e-05
9.90888e-06
-7.51274e-10
-4.97859e-05
5.6142e-06
-1.97602e-10
-4.9517e-05
1.87498e-06
1.3372e-10
-4.98063e-05
-1.68566e-06
4.18595e-10
-5.06408e-05
-5.41453e-06
7.93633e-10
-5.19633e-05
-9.68906e-06
1.42984e-09
-5.36235e-05
-1.4984e-05
2.55228e-09
-5.52702e-05
-2.19509e-05
4.43933e-09
-5.61503e-05
-3.14992e-05
7.29965e-09
-5.4803e-05
-4.48076e-05
1.08842e-08
-4.86892e-05
-6.31016e-05
1.32945e-08
-3.41679e-05
-8.65044e-05
2.00497e-08
-0.000120461
-1.80494e-08
-6.05964e-05
0.000179532
7.1943e-08
-7.10984e-05
9.6783e-05
-4.35059e-08
-7.23699e-05
6.44784e-05
-1.68125e-08
-6.91125e-05
4.18123e-05
-1.09213e-08
-6.46361e-05
2.73175e-05
-5.10546e-09
-6.04894e-05
1.80824e-05
-1.76954e-09
-5.71897e-05
1.1932e-05
-2.08828e-10
-5.48564e-05
7.57521e-06
3.63091e-10
-5.34797e-05
4.23699e-06
5.40669e-10
-5.30279e-05
1.42258e-06
5.67382e-10
-5.34888e-05
-1.22533e-06
5.96487e-10
-5.48807e-05
-4.02333e-06
7.45018e-10
-5.72437e-05
-7.32732e-06
1.18964e-09
-6.05996e-05
-1.16302e-05
2.23567e-09
-6.48475e-05
-1.77075e-05
4.41991e-09
-6.9495e-05
-2.68602e-05
8.49535e-09
-7.30209e-05
-4.12964e-05
1.4692e-08
-7.20502e-05
-6.40912e-05
1.88747e-08
-6.17304e-05
-9.68665e-05
4.22821e-08
-0.000182108
-8.32328e-08
-9.27276e-05
0.000272481
-2.21946e-07
-9.52725e-05
9.95164e-05
-1.88555e-07
-8.7186e-05
5.64291e-05
-3.72305e-08
-7.57497e-05
3.03875e-05
-1.14837e-08
-6.59545e-05
1.75225e-05
-1.82921e-10
-5.85702e-05
1.06952e-05
2.86682e-09
-5.33539e-05
6.71275e-06
3.00209e-09
-4.99235e-05
4.14233e-06
2.43122e-09
-4.79757e-05
2.28743e-06
1.84225e-09
-4.73299e-05
7.75359e-07
1.39824e-09
-4.79263e-05
-6.30044e-07
1.11495e-09
-4.98232e-05
-2.12742e-06
1.00833e-09
-5.32005e-05
-3.95123e-06
1.18099e-09
-5.83606e-05
-6.47214e-06
1.98856e-09
-6.56835e-05
-1.0389e-05
4.43741e-09
-7.54007e-05
-1.71541e-05
1.11401e-08
-8.67664e-05
-2.99585e-05
2.78303e-08
-9.44364e-05
-5.64774e-05
5.62132e-08
-9.13641e-05
-0.000100158
2.18766e-07
-0.000273662
1.89574e-07
0.000272122
3.59876e-07
0.000371843
-2.0513e-07
0.000428199
7.32508e-08
0.000458554
3.21893e-08
0.000476059
1.7937e-08
0.000486744
1.03912e-08
0.00049345
6.06118e-09
0.000497589
3.73335e-09
0.000499874
2.50462e-09
0.000500647
1.8684e-09
0.000500016
1.55289e-09
0.000497887
1.39839e-09
0.000493934
1.25433e-09
0.000487461
8.51033e-10
0.000477073
-4.08697e-10
0.000459923
-4.15882e-09
0.000429976
-1.17972e-08
0.000373569
-7.05182e-08
0.000273225
1.86869e-07
-4.36696e-07
-1.51453e-06
1.51468e-06
6.32547e-11
-3.03681e-06
1.52257e-06
3.12187e-10
-4.48061e-06
1.44402e-06
2.98206e-10
-5.80884e-06
1.32844e-06
3.09402e-10
-6.98885e-06
1.18019e-06
2.89712e-10
-7.99258e-06
1.00389e-06
2.52705e-10
-8.79706e-06
8.046e-07
2.04204e-10
-9.38448e-06
5.87513e-07
1.48214e-10
-9.74224e-06
3.57812e-07
8.75905e-11
-9.8628e-06
1.2058e-07
2.43451e-11
-9.74362e-06
-1.19195e-07
-4.01732e-11
-9.38712e-06
-3.56558e-07
-1.04406e-10
-8.80069e-06
-5.8651e-07
-1.66898e-10
-7.99687e-06
-8.03946e-07
-2.25587e-10
-6.99337e-06
-1.00365e-06
-2.77536e-10
-5.81316e-06
-1.18039e-06
-3.18477e-10
-4.4843e-06
-1.32907e-06
-3.4227e-10
-3.03953e-06
-1.445e-06
-3.39943e-10
-1.51596e-06
-1.52378e-06
-2.97735e-10
-1.516e-06
-1.71885e-10
-1.60106e-06
3.11569e-06
6.86943e-11
-3.20927e-06
3.13082e-06
2.14561e-10
-4.73384e-06
2.96866e-06
2.25863e-10
-6.13549e-06
2.73014e-06
2.25588e-10
-7.37977e-06
2.42452e-06
2.08221e-10
-8.43735e-06
2.06151e-06
1.79466e-10
-9.28436e-06
1.65164e-06
1.4337e-10
-9.90247e-06
1.20564e-06
1.02829e-10
-1.02788e-05
7.3412e-07
5.97508e-11
-1.04056e-05
2.4739e-07
1.53113e-11
-1.02803e-05
-2.44471e-07
-2.97878e-11
-9.90539e-06
-7.31476e-07
-7.48576e-11
-9.28839e-06
-1.20352e-06
-1.18968e-10
-8.44212e-06
-1.65026e-06
-1.60599e-10
-7.38481e-06
-2.061e-06
-1.97159e-10
-6.14032e-06
-2.42494e-06
-2.2452e-10
-4.73798e-06
-2.73147e-06
-2.3653e-10
-3.21231e-06
-2.97075e-06
-2.24142e-10
-1.60268e-06
-3.13345e-06
-1.74178e-10
-3.11856e-06
-3.95552e-11
-1.68316e-06
4.79869e-06
-7.85834e-11
-3.37295e-06
4.82062e-06
1.09443e-10
-4.97314e-06
4.56889e-06
1.49603e-10
-6.4422e-06
4.19925e-06
1.61444e-10
-7.7442e-06
3.72655e-06
1.53102e-10
-8.84898e-06
3.16632e-06
1.32488e-10
-9.73241e-06
2.5351e-06
1.05055e-10
-1.03763e-05
1.84953e-06
7.42285e-11
-1.07679e-05
1.12578e-06
4.18832e-11
-1.08999e-05
3.79378e-07
8.85724e-12
-1.07697e-05
-3.74657e-07
-2.46717e-11
-1.03797e-05
-1.12149e-06
-5.85011e-11
-9.73716e-06
-1.84609e-06
-9.2296e-11
-8.8546e-06
-2.53284e-06
-1.24973e-10
-7.75016e-06
-3.16547e-06
-1.54191e-10
-6.44791e-06
-3.72722e-06
-1.75887e-10
-4.97803e-06
-4.2014e-06
-1.83529e-10
-3.37651e-06
-4.57232e-06
-1.67354e-10
-1.68504e-06
-4.82495e-06
-1.13346e-10
-4.80345e-06
3.64944e-11
-1.80996e-06
6.60849e-06
-1.23836e-10
-3.6254e-06
6.6361e-06
5.09721e-11
-5.34165e-06
6.2852e-06
1.04083e-10
-6.91361e-06
5.77127e-06
1.20845e-10
-8.3031e-06
5.11608e-06
1.15956e-10
-9.4789e-06
4.34215e-06
9.90794e-11
-1.04168e-05
3.47299e-06
7.66166e-11
-1.10989e-05
2.53168e-06
5.2263e-11
-1.15133e-05
1.54015e-06
2.77065e-11
-1.16529e-05
5.19023e-07
3.37582e-12
-1.15155e-05
-5.12065e-07
-2.13944e-11
-1.11032e-05
-1.53383e-06
-4.68259e-11
-1.04227e-05
-2.52658e-06
-7.33768e-11
-9.48593e-06
-3.46962e-06
-1.00482e-10
-8.31056e-06
-4.34087e-06
-1.26092e-10
-6.92079e-06
-5.11704e-06
-1.45935e-10
-5.34781e-06
-5.77444e-06
-1.5276e-10
-3.6299e-06
-6.29029e-06
-1.35551e-10
-1.8123e-06
-6.64258e-06
-7.77306e-11
-6.61559e-06
7.76505e-11
-1.98691e-06
8.59523e-06
-1.64475e-10
-3.97717e-06
8.62641e-06
1.44795e-11
-5.85388e-06
8.16197e-06
7.36772e-11
-7.56688e-06
7.48434e-06
9.14967e-11
-9.07508e-06
6.62433e-06
8.63035e-11
-1.03462e-05
5.61334e-06
7.0094e-11
-1.13564e-05
4.4832e-06
5.04039e-11
-1.20889e-05
3.26421e-06
3.11149e-11
-1.2533e-05
1.98423e-06
1.35515e-11
-1.26826e-05
6.68672e-07
-2.53619e-12
-1.25359e-05
-6.58841e-07
-1.88931e-11
-1.20944e-05
-1.97528e-06
-3.64509e-11
-1.13641e-05
-3.25697e-06
-5.67177e-11
-1.03553e-05
-4.47837e-06
-7.97102e-11
-9.08479e-06
-5.61145e-06
-1.03758e-10
-7.57624e-06
-6.62564e-06
-1.24453e-10
-5.86194e-06
-7.48881e-06
-1.3357e-10
-3.98307e-06
-8.16922e-06
-1.18038e-10
-1.98999e-06
-8.6357e-06
-5.7778e-11
-8.60541e-06
1.08486e-10
-2.22153e-06
1.08166e-05
-2.03255e-10
-4.4425e-06
1.08474e-05
-9.55014e-12
-6.52901e-06
1.02486e-05
4.89066e-11
-8.42416e-06
9.37958e-06
6.3901e-11
-1.00834e-05
8.28366e-06
5.51554e-11
-1.1474e-05
7.00395e-06
3.74081e-11
-1.25733e-05
5.58256e-06
1.97069e-11
-1.33671e-05
4.058e-06
5.84536e-12
-1.38469e-05
2.46409e-06
-3.62162e-12
-1.40086e-05
8.30336e-07
-1.07352e-11
-1.38507e-05
-8.16754e-07
-1.61147e-11
-1.33743e-05
-2.4517e-06
-2.40648e-11
-1.25833e-05
-4.04791e-06
-3.69469e-11
-1.1486e-05
-5.57576e-06
-5.57509e-11
-1.00963e-05
-7.00118e-06
-7.93699e-11
-8.43667e-06
-8.28535e-06
-1.03323e-10
-6.53984e-06
-9.38573e-06
-1.18092e-10
-4.45045e-06
-1.02587e-05
-1.07727e-10
-2.2257e-06
-1.08605e-05
-4.75394e-11
-1.08309e-05
1.33121e-10
-2.52483e-06
1.33413e-05
-2.44054e-10
-5.04199e-06
1.33647e-05
-3.70869e-11
-7.3944e-06
1.26011e-05
2.45317e-11
-9.51627e-06
1.15016e-05
3.13242e-11
-1.13596e-05
1.01271e-05
1.60005e-11
-1.28923e-05
8.53671e-06
-3.41326e-12
-1.40953e-05
6.78563e-06
-2.33728e-11
-1.49589e-05
4.9216e-06
-3.09988e-11
-1.54789e-05
2.9841e-06
-2.90925e-11
-1.5654e-05
1.00543e-06
-2.10049e-11
-1.54839e-05
-9.86921e-07
-1.18108e-11
-1.49684e-05
-2.96715e-06
-6.46117e-12
-1.41087e-05
-4.90769e-06
-9.15043e-12
-1.29083e-05
-6.77611e-06
-2.21932e-11
-1.13769e-05
-8.53265e-06
-4.5489e-11
-9.5332e-06
-1.01291e-05
-7.50342e-11
-7.40916e-06
-1.15099e-05
-9.98055e-11
-5.05291e-06
-1.26151e-05
-9.993e-11
-2.53058e-06
-1.33829e-05
-4.4002e-11
-1.33613e-05
1.53819e-10
-2.91299e-06
1.62541e-05
-2.89698e-10
-5.80548e-06
1.62573e-05
-6.64902e-11
-8.48861e-06
1.52844e-05
-2.95397e-12
-1.08854e-05
1.38985e-05
-1.07375e-11
-1.29453e-05
1.2187e-05
-4.65242e-11
-1.46396e-05
1.02311e-05
-7.54868e-11
-1.59565e-05
8.10257e-06
-8.75298e-11
-1.68943e-05
5.85938e-06
-8.17447e-11
-1.74559e-05
3.54573e-06
-6.22259e-11
-1.76448e-05
1.19437e-06
-3.44259e-11
-1.74624e-05
-1.16938e-06
-4.54489e-12
-1.69068e-05
-3.52274e-06
2.1298e-11
-1.59742e-05
-5.84032e-06
3.54323e-11
-1.46611e-05
-8.08926e-06
3.20024e-11
-1.29687e-05
-1.02251e-05
4.08967e-12
-1.09086e-05
-1.21893e-05
-3.19482e-11
-8.50898e-06
-1.39096e-05
-7.18038e-11
-5.82067e-06
-1.53036e-05
-9.03275e-11
-2.92104e-06
-1.62827e-05
-4.6154e-11
-1.62822e-05
1.70441e-10
-3.41024e-06
1.96642e-05
-3.41648e-10
-6.77666e-06
1.9624e-05
-1.01226e-10
-9.86647e-06
1.83744e-05
-5.9613e-11
-1.25894e-05
1.66216e-05
-9.83104e-11
-1.4895e-05
1.44926e-05
-1.47461e-10
-1.67636e-05
1.20998e-05
-1.77337e-10
-1.81965e-05
9.53557e-06
-1.77508e-10
-1.92058e-05
6.86868e-06
-1.52606e-10
-1.98058e-05
4.14572e-06
-1.07597e-10
-2.00074e-05
1.39591e-06
-5.08351e-11
-1.98143e-05
-1.36245e-06
8.69993e-12
-1.92223e-05
-4.11475e-06
6.23292e-11
-1.822e-05
-6.84268e-06
1.00227e-10
-1.67923e-05
-9.51696e-06
1.13684e-10
-1.49267e-05
-1.20908e-05
9.65505e-11
-1.26212e-05
-1.44949e-05
4.41083e-11
-9.89482e-06
-1.66361e-05
-2.60715e-11
-6.79806e-06
-1.84005e-05
-7.33644e-11
-3.42168e-06
-1.96593e-05
-5.3909e-11
-1.97038e-05
1.79597e-10
-4.05404e-06
2.37182e-05
-4.01187e-10
-8.02096e-06
2.35912e-05
-1.50194e-10
-1.16069e-05
2.19607e-05
-1.55933e-10
-1.47078e-05
1.97226e-05
-2.34776e-10
-1.72798e-05
1.70648e-05
-3.03142e-10
-1.93225e-05
1.41425e-05
-3.27108e-10
-2.08603e-05
1.10734e-05
-3.08824e-10
-2.19272e-05
7.93555e-06
-2.5278e-10
-2.25549e-05
4.7734e-06
-1.69068e-10
-2.27652e-05
1.60626e-06
-7.06275e-11
-2.25659e-05
-1.56185e-06
2.991e-11
-2.19486e-05
-4.73199e-06
1.22886e-10
-2.08911e-05
-7.9002e-06
1.96119e-10
-1.93608e-05
-1.10473e-05
2.35348e-10
-1.73228e-05
-1.41289e-05
2.30702e-10
-1.47516e-05
-1.70663e-05
1.76455e-10
-1.16468e-05
-1.97411e-05
6.93898e-11
-8.05152e-06
-2.1996e-05
-4.00448e-11
-4.0706e-06
-2.36405e-05
-6.69653e-11
-2.37743e-05
1.73359e-10
-4.9047e-06
2.86229e-05
-4.70305e-10
-9.63917e-06
2.83261e-05
-2.30505e-10
-1.38257e-05
2.61475e-05
-3.22923e-10
-1.73505e-05
2.32477e-05
-4.58235e-10
-2.0192e-05
1.99063e-05
-5.40156e-10
-2.23859e-05
1.63365e-05
-5.49068e-10
-2.39955e-05
1.2683e-05
-4.93524e-10
-2.50886e-05
9.02863e-06
-3.86896e-10
-2.57223e-05
5.40709e-06
-2.48037e-10
-2.5934e-05
1.81786e-06
-9.35264e-11
-2.57363e-05
-1.75954e-06
6.16576e-11
-2.51161e-05
-5.35217e-06
2.074e-10
-2.40355e-05
-8.98077e-06
3.31622e-10
-2.24366e-05
-1.26463e-05
4.14771e-10
-2.02501e-05
-1.63154e-05
4.36311e-10
-1.74111e-05
-1.99053e-05
3.84996e-10
-1.38821e-05
-2.32703e-05
2.48834e-10
-9.68353e-06
-2.61949e-05
3.5592e-11
-4.92924e-06
-2.83952e-05
-8.21797e-11
-2.87035e-05
1.34796e-10
-6.06451e-06
3.46876e-05
-5.42694e-10
-1.17912e-05
3.40534e-05
-3.81369e-10
-1.6695e-05
3.10517e-05
-6.18117e-10
-2.06709e-05
2.72239e-05
-8.25005e-10
-2.37498e-05
2.29854e-05
-9.00802e-10
-2.60339e-05
1.86205e-05
-8.66095e-10
-2.76483e-05
1.42973e-05
-7.38284e-10
-2.87108e-05
1.00911e-05
-5.53459e-10
-2.93135e-05
6.00971e-06
-3.40269e-10
-2.95137e-05
2.01804e-06
-1.16061e-10
-2.93308e-05
-1.94243e-06
1.06214e-10
-2.87453e-05
-5.93765e-06
3.18717e-10
-2.76995e-05
-1.00266e-05
5.12941e-10
-2.61002e-05
-1.42456e-05
6.66182e-10
-2.38279e-05
-1.85877e-05
7.45243e-10
-2.07548e-05
-2.29785e-05
7.13924e-10
-1.67758e-05
-2.72496e-05
5.54956e-10
-1.18569e-05
-3.11142e-05
2.43293e-10
-6.10203e-06
-3.41507e-05
-8.50475e-11
-3.48057e-05
2.80152e-11
-7.71702e-06
4.24052e-05
-5.86358e-10
-1.47386e-05
4.10758e-05
-7.01322e-10
-2.04749e-05
3.67885e-05
-1.16107e-09
-2.48815e-05
3.16306e-05
-1.40945e-09
-2.81019e-05
2.62057e-05
-1.44186e-09
-3.03523e-05
2.08708e-05
-1.29658e-09
-3.18544e-05
1.57993e-05
-1.0422e-09
-3.2795e-05
1.10315e-05
-7.42525e-10
-3.33096e-05
6.5242e-06
-4.35016e-10
-3.34791e-05
2.1875e-06
-1.31259e-10
-3.33305e-05
-2.09107e-06
1.65727e-10
-3.28372e-05
-6.43095e-06
4.56118e-10
-3.19183e-05
-1.09455e-05
7.40953e-10
-3.04374e-05
-1.57264e-05
9.99658e-10
-2.82057e-05
-2.08193e-05
1.18709e-09
-2.49977e-05
-2.61864e-05
1.234e-09
-2.05918e-05
-3.16558e-05
1.07056e-09
-1.4838e-05
-3.68685e-05
6.48357e-10
-7.77681e-06
-4.12127e-05
-3.21323e-11
-4.25831e-05
-2.03755e-10
-1.02115e-05
5.26179e-05
-5.15912e-10
-1.89194e-05
4.97847e-05
-1.42264e-09
-2.55603e-05
4.34298e-05
-2.13268e-09
-3.0273e-05
3.63432e-05
-2.34445e-09
-3.34229e-05
2.93552e-05
-2.20373e-09
-3.54206e-05
2.28682e-05
-1.83294e-09
-3.66255e-05
1.70039e-05
-1.37835e-09
-3.73091e-05
1.1715e-05
-9.24957e-10
-3.76547e-05
6.86964e-06
-5.09248e-10
-3.77665e-05
2.29926e-06
-1.26732e-10
-3.76788e-05
-2.17886e-06
2.41911e-10
-3.73586e-05
-6.75115e-06
6.1219e-10
-3.67025e-05
-1.16016e-05
1.005e-09
-3.5527e-05
-1.69017e-05
1.41139e-09
-3.35587e-05
-2.27874e-05
1.78195e-09
-3.04334e-05
-2.93116e-05
2.01266e-09
-2.5731e-05
-3.63581e-05
1.94248e-09
-1.9074e-05
-4.35259e-05
1.44346e-09
-1.0312e-05
-4.99758e-05
3.36702e-10
-5.28965e-05
-7.28405e-10
-1.42478e-05
6.68682e-05
-1.13013e-10
-2.50835e-05
6.06212e-05
-3.07373e-09
-3.25479e-05
5.08941e-05
-3.7937e-09
-3.72215e-05
4.10162e-05
-3.76079e-09
-3.98974e-05
3.20304e-05
-3.1802e-09
-4.12877e-05
2.42581e-05
-2.41141e-09
-4.19244e-05
1.76403e-05
-1.67193e-09
-4.21673e-05
1.19575e-05
-1.03943e-09
-4.22388e-05
6.941e-06
-5.21648e-10
-4.22586e-05
2.31894e-06
-8.29711e-11
-4.22648e-05
-2.17265e-06
3.36258e-10
-4.2222e-05
-6.79405e-06
7.70239e-10
-4.20127e-05
-1.18109e-05
1.27493e-09
-4.14156e-05
-1.74986e-05
1.86826e-09
-4.00704e-05
-2.41323e-05
2.51847e-09
-3.74398e-05
-3.19417e-05
3.10476e-09
-3.27987e-05
-4.09987e-05
3.36574e-09
-2.53304e-05
-5.09941e-05
2.9065e-09
-1.44273e-05
-6.08798e-05
1.51808e-09
-6.73269e-05
-1.85872e-09
-2.1295e-05
8.81683e-05
8.2321e-10
-3.4531e-05
7.38556e-05
-6.57408e-09
-4.23033e-05
5.86649e-05
-6.60941e-09
-4.61669e-05
4.48783e-05
-5.67808e-09
-4.76709e-05
3.35333e-05
-4.22813e-09
-4.7923e-05
2.45094e-05
-2.85812e-09
-4.76288e-05
1.73458e-05
-1.77688e-09
-4.72054e-05
1.15339e-05
-9.8458e-10
-4.68824e-05
6.61786e-06
-4.11909e-10
-4.67718e-05
2.20816e-06
2.0624e-11
-4.6908e-05
-2.03656e-06
4.51635e-10
-4.72607e-05
-6.44143e-06
9.07279e-10
-4.77223e-05
-1.13493e-05
1.49875e-09
-4.80673e-05
-1.71534e-05
2.29357e-09
-4.78814e-05
-2.43178e-05
3.32032e-09
-4.64563e-05
-3.33659e-05
4.49767e-09
-4.26698e-05
-4.47839e-05
5.50717e-09
-3.49347e-05
-5.87281e-05
5.62578e-09
-2.16341e-05
-7.41793e-05
4.44669e-09
-8.89675e-05
-4.29222e-09
-3.44654e-05
0.000122639
1.19291e-09
-4.94877e-05
8.8869e-05
-1.46799e-08
-5.5952e-05
6.51256e-05
-1.07323e-08
-5.75097e-05
4.64334e-05
-7.75289e-09
-5.67358e-05
3.27578e-05
-4.90822e-09
-5.51318e-05
2.29047e-05
-2.8196e-09
-5.3482e-05
1.56956e-05
-1.46197e-09
-5.21587e-05
1.02105e-05
-6.28795e-10
-5.13255e-05
5.78455e-06
-1.14341e-10
-5.10484e-05
1.93094e-06
2.54209e-10
-5.13464e-05
-1.73874e-06
5.94466e-10
-5.22063e-05
-5.5818e-06
1.01253e-09
-5.35686e-05
-9.98717e-06
1.62383e-09
-5.5278e-05
-1.5444e-05
2.57088e-09
-5.69719e-05
-2.26236e-05
4.00884e-09
-5.78735e-05
-3.2463e-05
6.01236e-09
-5.64769e-05
-4.6178e-05
8.36392e-09
-5.01635e-05
-6.50383e-05
1.00745e-08
-3.51866e-05
-8.91482e-05
1.1976e-08
-0.000124164
-7.99184e-09
-6.24061e-05
0.000185092
2.48109e-08
-7.32677e-05
9.97137e-05
-2.66361e-08
-7.45903e-05
6.64458e-05
-1.44437e-08
-7.124e-05
4.30808e-05
-8.59453e-09
-6.66305e-05
2.81475e-05
-4.25932e-09
-6.23582e-05
1.86324e-05
-1.74803e-09
-5.89574e-05
1.2295e-05
-4.80628e-10
-5.65522e-05
7.80554e-06
1.48201e-10
-5.5133e-05
4.36549e-06
4.27884e-10
-5.46672e-05
1.46509e-06
6.03534e-10
-5.51424e-05
-1.2638e-06
7.92144e-10
-5.65771e-05
-4.14735e-06
1.08898e-09
-5.90125e-05
-7.55222e-06
1.63279e-09
-6.24708e-05
-1.19862e-05
2.61798e-09
-6.68464e-05
-1.82478e-05
4.30563e-09
-7.16309e-05
-2.76771e-05
7.1333e-09
-7.52581e-05
-4.25474e-05
1.12658e-08
-7.42462e-05
-6.60467e-05
1.54585e-08
-6.35751e-05
-9.98018e-05
2.47601e-08
-0.00018779
-3.25276e-08
-9.53337e-05
0.0002803
-9.55505e-08
-9.80829e-05
0.000102366
-9.15961e-08
-8.97777e-05
5.81276e-05
-2.42478e-08
-7.80031e-05
3.13032e-05
-8.55356e-09
-6.79078e-05
1.80538e-05
-1.68042e-09
-6.02942e-05
1.10207e-05
8.96552e-10
-5.4915e-05
6.9174e-06
1.411e-09
-5.13771e-05
4.26867e-06
1.365e-09
-4.93681e-05
2.35714e-06
1.20726e-09
-4.87015e-05
7.9886e-07
1.0938e-09
-4.93158e-05
-6.49502e-07
1.09023e-09
-5.12708e-05
-2.19258e-06
1.23102e-09
-5.47516e-05
-4.07189e-06
1.59864e-09
-6.00691e-05
-6.66911e-06
2.42721e-09
-6.76129e-05
-1.07037e-05
4.19976e-09
-7.76164e-05
-1.76704e-05
7.99574e-09
-8.93014e-05
-3.08509e-05
1.64137e-08
-9.7157e-05
-5.81664e-05
3.1419e-08
-9.38252e-05
-0.000103015
9.98357e-08
-0.000281503
7.73115e-08
0.000280506
1.5377e-07
0.000382754
-8.71576e-08
0.00044093
2.48972e-08
0.000472252
1.28661e-08
0.000490316
7.91604e-09
0.000501342
5.03955e-09
0.000508262
3.26304e-09
0.000512532
2.23814e-09
0.00051489
1.67434e-09
0.00051569
1.39481e-09
0.00051504
1.3041e-09
0.000512848
1.35025e-09
0.000508776
1.47761e-09
0.000502106
1.57121e-09
0.000491401
1.28843e-09
0.000473726
-1.74829e-10
0.000442867
-3.50098e-09
0.000384655
-2.46982e-08
0.000281749
7.74414e-08
-1.90073e-07
-1.51498e-06
1.51501e-06
3.38523e-11
-3.03776e-06
1.52294e-06
1.48412e-10
-4.48202e-06
1.44439e-06
1.65126e-10
-5.81068e-06
1.32879e-06
1.75174e-10
-6.99106e-06
1.1805e-06
1.69345e-10
-7.99512e-06
1.00416e-06
1.50889e-10