/*--------------------------------*- C++ -*----------------------------------*\
  =========                 |
  \\      /  F ield         | OpenFOAM: The Open Source CFD Toolbox
   \\    /   O peration     | Website:  https://openfoam.org
    \\  /    A nd           | Version:  10
     \\/     M anipulation  |
\*---------------------------------------------------------------------------*/
FoamFile
{
    format      ascii;
    class       surfaceScalarField;
    location    "6.7";
    object      phi;
}
// * * * * * * * * * * * * * * * * * * * * * * * * * * * * * * * * * * * * * //

dimensions      [0 3 -1 0 0 0 0];

internalField   nonuniform List<scalar> 
890
(
0.00984548
0.000154518
0.00971849
0.000126994
0.00946939
0.000249093
0.00942094
4.84518e-05
0.000143916
0.00927703
0.0101198
3.47525e-05
0.0102021
4.4642e-05
0.010406
4.51777e-05
0.0104652
-1.07461e-05
-7.11925e-05
0.0106803
0.0100726
-3.7806e-05
0.0102152
-9.8007e-05
0.0103783
-0.000117919
0.0105206
-0.00015307
-0.000191525
0.010641
0.0100912
-0.000129011
0.0102118
-0.000218616
0.0103319
-0.000237983
0.0104164
-0.000237558
-0.000253496
0.0104783
0.00987099
0.00965237
0.00941439
0.00917683
0.00892334
0.00926303
-0.000106748
0.000120745
0.00928875
-0.000267885
0.00024216
0.00936903
-0.00037939
0.000299117
0.00949785
-0.000479954
0.000351129
0.00966386
-0.000585372
0.000419366
0.00986119
-0.000748376
0.000551041
0.0100672
-0.000948866
0.000742881
0.010279
-0.00119498
0.000983169
0.0104763
-0.00147411
0.00127676
0.0106443
-0.0017692
0.00160127
0.0107682
-0.00206258
0.00193866
0.0108338
-0.00231639
0.00225076
0.0108379
-0.00251347
0.00250943
0.010759
-0.0026102
0.00268907
0.0105801
-0.00257585
0.00275477
0.0103313
-0.00247335
0.00272212
0.0100645
-0.00234466
0.00261151
0.00977676
-0.00211993
0.00240762
0.00947024
-0.00183048
0.002137
0.00916012
-0.0014983
0.00180843
0.00885149
-0.00112683
0.00143546
0.00855736
-0.000756177
0.00105031
0.00830301
-0.000425312
0.000679665
0.00808462
-0.000129361
0.000347756
0.00789283
0.0001262
6.55825e-05
0.00774546
0.000329068
-0.000181698
0.00764193
0.000478091
-0.000374557
0.00756929
0.000588504
-0.000515864
0.00750692
0.00068114
-0.000618768
0.00744204
0.000757421
-0.000692549
0.00736936
0.000801554
-0.000728868
0.00728768
0.000794663
-0.000712986
0.00719834
0.000743108
-0.000653768
0.00710286
0.000678646
-0.000583169
0.00700743
0.000635551
-0.000540116
0.00692
0.000622312
-0.000534883
0.00684435
0.000622784
-0.000547134
0.00677798
0.000608908
-0.000542539
0.0067164
0.000565692
-0.000504111
0.00665735
0.000491186
-0.000432133
0.00660304
0.00039625
-0.000341947
0.00655553
0.000300298
-0.000252787
0.00651897
0.000203899
-0.000167336
0.00649007
0.000142364
-0.000113466
6.69303e-05
-5.09033e-05
0.0107425
-0.000168894
0.0107664
-0.000291793
0.0107971
-0.000410145
0.0108429
-0.000525675
0.0108972
-0.000639676
0.0109348
-0.000786027
0.0109442
-0.000958259
0.0109268
-0.00117757
0.0108674
-0.00141475
0.0107647
-0.00166646
0.0106019
-0.00189981
0.0103885
-0.00210296
0.0101152
-0.0022402
0.00974339
-0.00223836
0.00928814
-0.0021206
0.00879706
-0.00198228
0.00828753
-0.00183513
0.00778414
-0.00161654
0.00729392
-0.00134026
0.0068395
-0.00104388
0.00642325
-0.000710573
0.00605865
-0.00039158
0.00575069
-0.000117351
0.00550627
0.000115055
0.0053302
0.000302275
0.00521772
0.000441543
0.00515167
0.000544139
0.00511327
0.000626906
0.00509834
0.00069607
0.00511264
0.000743125
0.00515975
0.000754439
0.00522999
0.000724427
0.00530634
0.000666755
0.00537789
0.000607094
0.00544685
0.000566596
0.00552242
0.000546743
0.00561088
0.000534319
0.00571133
0.000508458
0.00581702
0.000460003
0.00592106
0.000387148
0.00601502
0.000302288
0.00609829
0.000217029
0.00616275
0.000139438
0.0062182
8.69185e-05
3.33538e-05
0.0107269
-0.000254859
0.0107694
-0.000334241
0.0107888
-0.000429557
0.0107856
-0.000522481
0.0107673
-0.000621415
0.0107155
-0.000734189
0.0106299
-0.000872625
0.0104946
-0.00104231
0.0103113
-0.00123146
0.0100903
-0.00144543
0.00982295
-0.00163248
0.00951617
-0.00179618
0.00904617
-0.0017702
0.00842635
-0.00161854
0.00779321
-0.00148747
0.00711516
-0.00130423
0.00633826
-0.00105823
0.00556592
-0.0008442
0.00487556
-0.000649896
0.004262
-0.000430322
0.00375886
-0.000207434
0.00337515
-7.87365e-06
0.00308398
0.000173819
0.00288399
0.000315049
0.00276986
0.000416399
0.00273469
0.000476717
0.00276611
0.000512717
0.00286029
0.000532731
0.00301338
0.000542972
0.00321507
0.000541442
0.00344626
0.000523242
0.00368368
0.000487014
0.00390898
0.000441454
0.00411667
0.000399403
0.00431422
0.000369042
0.00451293
0.000348034
0.00471932
0.000327928
0.00493012
0.000297661
0.00513554
0.000254584
0.00532339
0.000199296
0.00548313
0.00014255
0.00561146
8.86991e-05
0.0057033
4.75935e-05
0.00577187
1.83535e-05
-1.42027e-06
0.0105053
-0.000281858
0.0104924
-0.000321349
0.0104323
-0.000369384
0.0103221
-0.000412311
0.0101704
-0.000469693
0.00995753
-0.000521339
0.00968886
-0.000603959
0.00932794
-0.000681388
0.00889901
-0.000802536
0.00836202
-0.000908429
0.00777937
-0.00104984
0.00716215
-0.00117895
0.00635911
-0.000967155
0.00530793
-0.000567355
0.00405031
-0.000229857
0.00279476
-4.86698e-05
0.00174603
-9.50099e-06
0.000989667
-8.78391e-05
0.000515564
-0.000175793
0.000263929
-0.000178688
0.000159685
-0.00010319
0.000148369
3.44235e-06
0.000234088
8.80997e-05
0.00038986
0.000159277
0.000600204
0.000206056
0.000847114
0.000229806
0.00112109
0.000238741
0.00141394
0.000239879
0.00171968
0.000237234
0.00203127
0.000229854
0.00233792
0.000216589
0.00262736
0.000197572
0.00289288
0.000175936
0.00313642
0.000155865
0.00336587
0.000139595
0.00358802
0.000125884
0.00380398
0.000111959
0.00400693
9.47118e-05
0.00418725
7.42662e-05
0.00433473
5.18191e-05
0.00444574
3.15395e-05
0.00452018
1.42628e-05
0.00456432
3.45351e-06
0.00458666
-3.98901e-06
-6.08015e-06
0.00864148
0.00832013
0.00795075
0.00753844
0.00706874
0.0065474
0.00594344
0.00526206
0.00445952
0.00355109
0.00250125
0.0013223
0.000355145
-0.000212211
-0.000442067
-0.000490737
-0.000500238
-0.000588077
-0.00076387
-0.000942558
-0.00104575
-0.0010423
-0.000954205
-0.000794928
-0.000588872
-0.000359066
-0.000120326
0.000119554
0.000356788
0.000586642
0.000803231
0.0010008
0.00117674
0.0013326
0.0014722
0.00159808
0.00171004
0.00180475
0.00187902
0.00193084
0.00196238
0.00197664
0.0019801
0.00197611
5.84252e-05
-5.84252e-05
1.35845e-05
4.48407e-05
-0.000220299
0.000233884
-0.000702545
0.000482246
-0.00133121
0.000628666
-0.00196445
0.000633234
-0.00251513
0.000550689
-0.00295073
0.000435593
-0.00324552
0.000294794
-0.00338643
0.000140913
-0.00336178
-2.46542e-05
-0.00318499
-0.000176792
-0.00286176
-0.000323231
-0.00240837
-0.000453383
-0.00185531
-0.000553066
-0.00124168
-0.000613628
-0.000601706
-0.000639974
4.00106e-05
-0.000641717
0.000652336
-0.000612326
0.00120442
-0.000552085
0.0016739
-0.00046948
0.00204775
-0.000373847
0.00232285
-0.000275101
0.0025044
-0.000181552
0.00260265
-9.82479e-05
0.00262886
-2.62098e-05
0.00259236
3.65021e-05
0.00249674
9.56124e-05
0.00235245
0.000144294
0.00217823
0.00017422
0.0020001
0.000178135
0.0018412
0.0001589
0.00171466
0.000126535
0.00162791
8.67527e-05
0.00157619
5.17164e-05
0.00155315
2.30459e-05
0.00155239
7.56909e-07
0.00157061
-1.82221e-05
0.001604
-3.33901e-05
0.00164884
-4.48348e-05
0.00169831
-4.94724e-05
0.00174785
-4.95376e-05
0.0017901
-4.22525e-05
0.00182705
-3.6947e-05
-2.31618e-05
-0.000173568
0.000115143
-0.000590876
0.000462149
-0.00106375
0.000706756
-0.00148391
0.00090241
-0.00181869
0.000963444
-0.00207518
0.000889726
-0.00224211
0.000717614
-0.00231008
0.000503562
-0.00226743
0.000252149
-0.00210278
-2.37359e-05
-0.00183071
-0.000296727
-0.00142804
-0.000579467
-0.000908093
-0.000843173
-0.000289348
-0.00107213
0.000395378
-0.00123779
0.00111756
-0.00133581
0.00184757
-0.00136998
0.00255825
-0.0013524
0.00322184
-0.00127592
0.00381756
-0.0011478
0.00432657
-0.000978495
0.00473728
-0.000784552
0.0050485
-0.000586321
0.00526378
-0.000396831
0.00538791
-0.000222377
0.00543652
-7.48254e-05
0.00543158
4.1446e-05
0.00539749
0.000129697
0.00534768
0.000194105
0.00528723
0.000234669
0.00521189
0.00025348
0.00512296
0.00024783
0.00501953
0.000229962
0.00489109
0.000215194
0.00473558
0.000207228
0.00456948
0.000189143
0.00441849
0.000151749
0.00430722
9.30449e-05
0.00424633
2.75011e-05
0.00423302
-3.15212e-05
0.0042523
-6.87514e-05
0.00429245
-8.9696e-05
0.0043352
-8.49992e-05
0.00438022
-8.19657e-05
-5.51262e-05
-0.000496407
0.00061155
-0.000662648
0.00062839
-0.00066995
0.000714058
-0.000578464
0.000810924
-0.000432074
0.000817054
-0.00025011
0.000707761
-3.97514e-05
0.000507256
0.000216076
0.000247734
0.000528028
-5.98028e-05
0.000916156
-0.000411864
0.00138928
-0.000769853
0.00192906
-0.00111924
0.00252504
-0.00143915
0.00316222
-0.00170931
0.00381921
-0.00189478
0.00447535
-0.00199196
0.00510797
-0.0020026
0.00569233
-0.00193676
0.00621605
-0.00179964
0.00666458
-0.00159633
0.00702881
-0.00134272
0.00730465
-0.0010604
0.00749142
-0.000773092
0.00759664
-0.000502052
0.00763637
-0.000262104
0.00761969
-5.81454e-05
0.00755389
0.000107247
0.00745821
0.000225374
0.00734296
0.000309351
0.00720613
0.000371505
0.00705905
0.000400556
0.00692453
0.00038235
0.00681968
0.000334818
0.00674061
0.000294258
0.00665971
0.000288127
0.00654536
0.000303495
0.00639177
0.00030534
0.00621832
0.000266497
0.00605334
0.00019248
0.00592079
0.000101031
0.00582756
2.44739e-05
0.00577309
-3.52282e-05
0.00574607
-5.79807e-05
0.00573757
-7.3465e-05
-5.7597e-05
-0.000205015
0.000816565
-5.69914e-05
0.000480367
0.000243803
0.000413264
0.000678219
0.000376507
0.00118533
0.000309947
0.00172155
0.000171533
0.00227023
-4.14188e-05
0.00281804
-0.000300074
0.00338267
-0.000624436
0.00395804
-0.000987237
0.00455189
-0.0013637
0.00515684
-0.0017242
0.00576306
-0.00204537
0.00635557
-0.00230183
0.00691649
-0.0024557
0.00742941
-0.00250488
0.00788606
-0.00245925
0.00827617
-0.00232687
0.00859604
-0.00211951
0.0088414
-0.0018417
0.00901135
-0.00151267
0.00911217
-0.00116121
0.00914836
-0.000809285
0.00912963
-0.000483317
0.00907097
-0.000203448
0.00898218
3.06502e-05
0.00885903
0.000230399
0.00871395
0.000370446
0.00855632
0.000466988
0.00839365
0.00053417
0.008226
0.000568209
0.00805359
0.000554759
0.00788808
0.000500332
0.00774367
0.000438664
0.00762315
0.00040865
0.0075123
0.000414344
0.00738988
0.000427756
0.00724313
0.000413255
0.00707501
0.000360599
0.0068995
0.000276536
0.00673614
0.000187836
0.00659361
0.000107301
0.00648583
4.97948e-05
0.00639982
1.25468e-05
-9.72153e-06
0.00093731
0.00165984
0.00237222
0.00309986
0.00382917
0.00455174
0.00525321
0.0059363
0.00658862
0.00720266
0.00777762
0.00830418
0.00876824
0.00915548
0.00945456
0.00967181
0.00982407
0.00990482
0.00992231
0.00988904
0.00981183
0.00970093
0.00957131
0.00943575
0.00929788
0.00914683
0.00900267
0.00885725
0.00870547
0.0085471
0.00838644
0.00822821
0.00807477
0.00793027
0.0077988
0.00767826
0.00755889
0.0074296
0.00728609
0.00713049
0.00697638
0.0068309
0.00671336
0.00661244
)
;

boundaryField
{
    inlet
    {
        type            calculated;
        value           nonuniform List<scalar> 5(-0.01 -0.01 -0.01 -0.01 -0.01);
    }
    outlet
    {
        type            calculated;
        value           nonuniform List<scalar> 10(0.00647405 0.00625177 0.00580664 0.00459132 0.00197003 0.00185021 0.00441218 0.00574004 0.00635195 0.00655181);
    }
    upperWall
    {
        type            calculated;
        value           uniform 0;
    }
    lowerWall
    {
        type            calculated;
        value           uniform 0;
    }
    frontAndBack
    {
        type            empty;
        value           nonuniform List<scalar> 0();
    }
}


// ************************************************************************* //
