/*--------------------------------*- C++ -*----------------------------------*\
  =========                 |
  \\      /  F ield         | OpenFOAM: The Open Source CFD Toolbox
   \\    /   O peration     | Website:  https://openfoam.org
    \\  /    A nd           | Version:  10
     \\/     M anipulation  |
\*---------------------------------------------------------------------------*/
FoamFile
{
    format      ascii;
    class       volScalarField;
    location    "2.275";
    object      p;
}
// * * * * * * * * * * * * * * * * * * * * * * * * * * * * * * * * * * * * * //

dimensions      [0 2 -2 0 0 0 0];

internalField   nonuniform List<scalar> 
400
(
1.37708e-09
-1.8842e-05
2.79837e-05
0.000113678
0.000241182
0.000409094
0.000614828
0.00085495
0.00112492
0.00141899
0.00173009
0.00204975
0.00236833
0.00267505
0.00295843
0.00320677
0.00340866
0.00355409
0.00364101
0.00363366
1.75984e-05
-2.66806e-06
4.37302e-05
0.000127203
0.000251588
0.000415893
0.000617806
0.00085415
0.00112062
0.00141162
0.0017201
0.0020383
0.00235615
0.00266289
0.00294696
0.00319645
0.00339969
0.0035465
0.00363544
0.00362705
-3.16697e-05
-5.5062e-05
-8.93334e-06
7.45824e-05
0.000199772
0.000365866
0.000570779
0.000811575
0.00108416
0.00138309
0.00170161
0.00203148
0.00236256
0.00268367
0.00298256
0.0032464
0.00346233
0.00361892
0.00371422
0.00370419
-0.00012509
-0.000151625
-0.000105425
-2.10359e-05
0.000106435
0.000276584
0.000487679
0.000737142
0.00102119
0.00133461
0.00167059
0.00202098
0.00237529
0.00272153
0.0030463
0.00333524
0.00357353
0.00374752
0.00385424
0.003844
-0.000267419
-0.000297759
-0.000251201
-0.000165112
-3.38128e-05
0.000142793
0.000363458
0.000626082
0.000927316
0.00126232
0.0016246
0.00200497
0.00239348
0.00277705
0.00314056
0.0034674
0.00373982
0.00394071
0.00406524
0.00405586
-0.00046137
-0.000496621
-0.000449645
-0.000361388
-0.000225136
-4.01199e-05
0.000193062
0.000472955
0.000796785
0.00116015
0.00155672
0.00197793
0.00241287
0.0028475
0.00326477
0.00364502
0.00396637
0.00420653
0.0043575
0.00435043
-0.000710088
-0.000751699
-0.000704602
-0.000614241
-0.000472543
-0.000277846
-2.988e-05
0.000270765
0.000622103
0.00102041
0.00145983
0.00193241
0.0024268
0.00292797
0.00341676
0.00386964
0.00425915
0.00455539
0.00474498
0.00474286
-0.0010176
-0.00106747
-0.00102103
-0.00092933
-0.000782519
-0.000577754
-0.000313618
1.0428e-05
0.000393465
0.000832759
0.00132338
0.00185788
0.00242547
0.00301051
0.00359184
0.00414159
0.00462489
0.00500095
0.00524708
0.00525509
-0.00138869
-0.00144929
-0.00140493
-0.00131358
-0.00116306
-0.000948967
-0.00066841
-0.000319421
9.8435e-05
0.000583751
0.00113292
0.00173964
0.00239458
0.0030824
0.00378086
0.00445799
0.00506973
0.00556015
0.00589011
0.0059191
-0.00182884
-0.00190343
-0.00186339
-0.00177527
-0.00162379
-0.00140253
-0.0011067
-0.00073261
-0.000278239
0.000256631
0.000870186
0.00155807
0.0023137
0.00312383
0.00396712
0.00480914
0.0055964
0.00625257
0.00670919
0.00678279
-0.00234422
-0.0024371
-0.00240472
-0.00232422
-0.00217624
-0.00195164
-0.00164328
-0.00124552
-0.000754658
-0.000168724
0.000512619
0.00128779
0.00215464
0.00310485
0.00412187
0.00517294
0.00619788
0.00709761
0.00774955
0.00792125
-0.00294189
-0.00305868
-0.00303862
-0.00297208
-0.00283413
-0.00261194
-0.00229548
-0.00187705
-0.0013515
-0.000715414
3.3731e-05
0.00089781
0.00187991
0.00298175
0.00419766
0.00550501
0.00684546
0.00810565
0.00906554
0.00945776
-0.00363043
-0.00377787
-0.00377658
-0.00373285
-0.00361402
-0.00340209
-0.00308339
-0.00264839
-0.00209129
-0.00140838
-0.000595872
0.000352511
0.0014423
0.00269403
0.00412018
0.00572315
0.00746648
0.00925126
0.0107126
0.0115963
-0.00442352
-0.00460847
-0.00463327
-0.00462402
-0.00453646
-0.00434462
-0.00403024
-0.00358255
-0.00299692
-0.0022718
-0.00140499
-0.000390241
0.000787855
0.00216229
0.00377634
0.00567818
0.00789592
0.0104157
0.0126713
0.0147395
-0.00531224
-0.00555835
-0.00562415
-0.00566813
-0.00562803
-0.00546733
-0.00516289
-0.00470383
-0.0040895
-0.00332451
-0.00241346
-0.00135793
-0.000153156
0.0012842
0.00299237
0.00510189
0.00778785
0.0112804
0.0147571
0.0193466
-0.00648376
-0.00664381
-0.00675631
-0.00686464
-0.00690249
-0.00679851
-0.00651344
-0.0060389
-0.00538615
-0.00457342
-0.00361625
-0.00251534
-0.0012456
0.000204602
0.00186924
0.003957
0.00674187
0.0110483
0.015663
0.0247796
-0.00742209
-0.00818302
-0.00828071
-0.00855815
-0.00864949
-0.00852862
-0.00818729
-0.00763957
-0.00691057
-0.00603195
-0.00504383
-0.00398294
-0.00289469
-0.00182334
-0.000684559
0.000587004
0.00231206
0.00718053
0.0120897
0.0291747
-0.0105796
-0.00864047
-0.0090347
-0.00933825
-0.00971227
-0.00985105
-0.00968698
-0.00921251
-0.00847072
-0.00752399
-0.00645767
-0.00533356
-0.00426418
-0.00331243
-0.00266421
-0.0020866
-0.00236677
0.0011249
0.00550588
0.0344499
-0.00892058
-0.012648
-0.0127348
-0.0137773
-0.0139958
-0.0137113
-0.0129864
-0.0119812
-0.0107937
-0.00949289
-0.0082041
-0.006987
-0.00604921
-0.0055854
-0.00613697
-0.00758231
-0.0130132
-0.00909519
-0.00307708
0.0502467
-0.0314602
-0.00876117
-0.00955267
-0.0105828
-0.0113326
-0.0117282
-0.0117122
-0.0112482
-0.0104308
-0.00932189
-0.00821227
-0.00696685
-0.00620627
-0.0053653
-0.00566961
-0.0049596
-0.00317882
0.0134872
0.055506
0.155071
)
;

boundaryField
{
    movingWall
    {
        type            zeroGradient;
    }
    fixedWalls
    {
        type            zeroGradient;
    }
    frontAndBack
    {
        type            empty;
    }
}


// ************************************************************************* //
