/*--------------------------------*- C++ -*----------------------------------*\
  =========                 |
  \\      /  F ield         | OpenFOAM: The Open Source CFD Toolbox
   \\    /   O peration     | Website:  https://openfoam.org
    \\  /    A nd           | Version:  10
     \\/     M anipulation  |
\*---------------------------------------------------------------------------*/
FoamFile
{
    format      ascii;
    class       volScalarField;
    location    "8.675";
    object      p;
}
// * * * * * * * * * * * * * * * * * * * * * * * * * * * * * * * * * * * * * //

dimensions      [0 2 -2 0 0 0 0];

internalField   nonuniform List<scalar> 
8000
(
-3.57101e-06
-1.03627e-05
4.30233e-05
0.000140944
0.000290242
0.00049347
0.000753733
0.00107426
0.00145751
0.0019041
0.00241152
0.00297227
0.00357198
0.00418758
0.00478662
0.00532886
0.0057708
0.00607602
0.00624404
0.00622622
-2.37245e-06
-7.6982e-06
4.8953e-05
0.000147295
0.000295307
0.000495884
0.000752408
0.00106832
0.00144629
0.00188732
0.00238938
0.00294574
0.00354265
0.00415712
0.00475696
0.005303
0.00574855
0.00605472
0.00622346
0.00618986
-8.15029e-05
-9.05242e-05
-3.59254e-05
5.8138e-05
0.000200252
0.000393466
0.000641612
0.000948858
0.00131896
0.00175436
0.00225488
0.00281581
0.00342563
0.00406346
0.00469583
0.00527772
0.00575552
0.00607985
0.0062534
0.00619378
-0.000228034
-0.000239914
-0.000189155
-0.000102111
3.03899e-05
0.000211654
0.000446162
0.000739127
0.00109589
0.00152118
0.00201782
0.0025847
0.00321385
0.0038865
0.00456863
0.00520953
0.00574488
0.00610444
0.00629033
0.0061888
-0.000449734
-0.00046454
-0.000419882
-0.000343097
-0.000224504
-6.05217e-05
0.000154024
0.000425524
0.0007612
0.00116865
0.00165476
0.00222355
0.00287289
0.00358917
0.00434042
0.00506867
0.00569339
0.00611218
0.00632269
0.00615499
-0.000746625
-0.00076467
-0.000728365
-0.000665333
-0.00056559
-0.000425453
-0.000239256
3.70375e-07
0.000302396
0.000677342
0.00113669
0.00169121
0.00234708
0.00310013
0.00392623
0.00476721
0.00552328
0.00603942
0.00630231
0.00603414
-0.00111616
-0.00113793
-0.00111222
-0.0010667
-0.000991419
-0.000883006
-0.000735907
-0.000542496
-0.000292838
2.5704e-05
0.000428667
0.000933917
0.00155916
0.00231516
0.00319438
0.0041506
0.00507027
0.00575072
0.0061289
0.00574041
-0.00155404
-0.00158011
-0.00156704
-0.00154277
-0.00149787
-0.00142994
-0.00133455
-0.00120519
-0.00103291
-0.000805232
-0.000505245
-0.00011098
0.000404595
0.00107045
0.00190654
0.00290616
0.00399432
0.00493671
0.00558609
0.00516664
-0.00205455
-0.00208535
-0.00208635
-0.00208637
-0.00207714
-0.00205823
-0.00202769
-0.00198212
-0.00191637
-0.0018226
-0.00168903
-0.00149785
-0.00122297
-0.000827171
-0.000261753
0.000530856
0.00160955
0.00290465
0.00415359
0.0041671
-0.00261099
-0.0026466
-0.00266175
-0.00268734
-0.00271704
-0.00275358
-0.00279912
-0.00285579
-0.00292597
-0.00301224
-0.00311723
-0.00324333
-0.00339188
-0.00355239
-0.00367486
-0.00360609
-0.00290288
-0.00117419
0.00131047
0.00256993
-0.00321673
-0.00325656
-0.00328355
-0.00333298
-0.00340094
-0.00349482
-0.00362239
-0.00379353
-0.00402194
-0.00432692
-0.00473611
-0.0052892
-0.00604502
-0.00705392
-0.00827243
-0.00938373
-0.00933204
-0.00672318
-0.00233201
0.000259532
-0.00386676
-0.003909
-0.00394152
-0.00400817
-0.00410778
-0.00425383
-0.00446042
-0.00474634
-0.00513876
-0.00567761
-0.00642222
-0.00745736
-0.00891326
-0.0108906
-0.0132495
-0.0152684
-0.0151016
-0.0107319
-0.00509155
-0.00150286
-0.0045623
-0.00460297
-0.00462965
-0.00470057
-0.00481742
-0.0050011
-0.00527179
-0.00565625
-0.00619378
-0.00694384
-0.00799234
-0.0094465
-0.0114692
-0.0142487
-0.0172598
-0.0194864
-0.0190084
-0.0135039
-0.00816766
-0.00267976
-0.00531174
-0.00533787
-0.00533579
-0.00538702
-0.0054983
-0.00569697
-0.00600606
-0.00645745
-0.00709491
-0.00799717
-0.00926146
-0.0110252
-0.0134665
-0.0165898
-0.0199979
-0.0226319
-0.0233477
-0.0188009
-0.0133598
-0.00444885
-0.00614498
-0.00615146
-0.00609803
-0.00610542
-0.00617729
-0.00635128
-0.0066554
-0.00711989
-0.00780458
-0.00877475
-0.0101414
-0.0120345
-0.0146424
-0.017934
-0.0217046
-0.0250848
-0.0282371
-0.0246505
-0.0186531
-0.00599182
-0.0072442
-0.00702038
-0.00682318
-0.00669066
-0.00668257
-0.00681572
-0.00710598
-0.00756529
-0.00825632
-0.00922715
-0.0105906
-0.0124538
-0.0149885
-0.0181601
-0.0219242
-0.0253072
-0.0289483
-0.0251163
-0.0194984
-0.00307328
-0.0081267
-0.00821274
-0.00785937
-0.00768608
-0.00753407
-0.00752028
-0.00767109
-0.00801167
-0.00860095
-0.00947347
-0.0107327
-0.0124465
-0.0147572
-0.0175277
-0.0208496
-0.0233808
-0.0260289
-0.0207067
-0.0151359
0.00810149
-0.0120219
-0.0091677
-0.00846623
-0.00768663
-0.00737438
-0.00731733
-0.0074959
-0.00786382
-0.00846121
-0.00929882
-0.0104861
-0.0120327
-0.0140879
-0.0163605
-0.0189873
-0.0203185
-0.0215369
-0.0137172
-0.00534756
0.0316505
-0.0115526
-0.0124324
-0.0108773
-0.0102879
-0.00946371
-0.0089274
-0.00865935
-0.00866115
-0.00898085
-0.00959314
-0.0106132
-0.0119794
-0.0139368
-0.0160318
-0.0185773
-0.0192145
-0.0187276
-0.00612313
0.011529
0.0750668
-0.0363041
-0.0108532
-0.00908746
-0.00751797
-0.00667532
-0.00648653
-0.00669238
-0.00706678
-0.00770437
-0.00851181
-0.00973556
-0.0111299
-0.0130291
-0.0145391
-0.0157933
-0.0130341
-0.00536359
0.0221573
0.0692407
0.175417
1.16273e-06
-1.7243e-05
3.38365e-05
0.000130382
0.000279598
0.000483347
0.000744554
0.00106657
0.0014521
0.00190211
0.00241449
0.00298216
0.00359103
0.00421796
0.00482982
0.00538429
0.00583456
0.00614027
0.00630226
0.00626075
1.60711e-05
-1.23305e-06
5.54524e-05
0.00015356
0.000301782
0.00050256
0.000759197
0.0010752
0.00145337
0.00189491
0.00239814
0.00295678
0.00355746
0.00417704
0.00478539
0.005339
0.00578956
0.00609485
0.00625944
0.00620226
-5.76368e-05
-8.13669e-05
-2.65731e-05
6.73071e-05
0.00020966
0.000403029
0.00065115
0.000958244
0.00132818
0.00176366
0.00226494
0.0028279
0.00344162
0.00408592
0.00472742
0.00531898
0.00580339
0.00612654
0.00629437
0.00620469
-0.000200304
-0.000228393
-0.000177268
-9.03248e-05
4.2506e-05
0.000223992
0.000458514
0.000751329
0.00110789
0.00153319
0.0020306
0.00259982
0.00323376
0.00391454
0.004608
0.00526332
0.00580846
0.00616693
0.00634449
0.00620272
-0.000420113
-0.000452063
-0.000406998
-0.000330252
-0.000211172
-4.67281e-05
0.000168157
0.000439931
0.000775941
0.00118409
0.00167191
0.0022445
0.00290115
0.0036292
0.0043959
0.00514578
0.0057872
0.00620689
0.00640542
0.00617862
-0.00071627
-0.00075214
-0.000715446
-0.000652383
-0.000551935
-0.000410969
-0.000223897
1.67339e-05
0.000320056
0.000696952
0.00115964
0.00172026
0.00238715
0.00315775
0.00400543
0.00488144
0.00566921
0.00619829
0.00644801
0.00607902
-0.00108564
-0.00112588
-0.00109984
-0.00105424
-0.000978058
-0.00086843
-0.000719842
-0.000524536
-0.000272379
4.96854e-05
0.000458033
0.000972158
0.00161271
0.00239451
0.003314
0.00431853
0.00530444
0.00603528
0.0064179
0.00583932
-0.00152372
-0.00156899
-0.00155575
-0.00153145
-0.00148553
-0.00141609
-0.00131865
-0.00118655
-0.00101055
-0.000777748
-0.00047047
-6.5234e-05
0.00046803
0.00116397
0.00205003
0.00312545
0.00433757
0.00545776
0.00619418
0.00543569
-0.00202465
-0.00207563
-0.00207675
-0.00207694
-0.00206676
-0.00204622
-0.00201328
-0.00196432
-0.00189393
-0.001794
-0.00165239
-0.00145092
-0.00116332
-0.000752463
-0.000160686
0.000720426
0.0020686
0.00392412
0.00547442
0.00496558
-0.0025816
-0.00263878
-0.00265446
-0.00268063
-0.0027097
-0.00274475
-0.00278785
-0.00284085
-0.00290603
-0.00298622
-0.00308526
-0.00320941
-0.00337107
-0.00358364
-0.00381123
-0.00378714
-0.00260582
0.000350157
0.0033329
0.00439716
-0.00318763
-0.00325119
-0.0032793
-0.00332992
-0.00339782
-0.00349066
-0.00361604
-0.0037837
-0.0040075
-0.00430809
-0.00471743
-0.00528743
-0.00610957
-0.0073106
-0.00889434
-0.0104136
-0.00997353
-0.0059901
-0.00115962
0.00257562
-0.00383743
-0.00390616
-0.00394021
-0.00400868
-0.00410907
-0.0042548
-0.00445975
-0.00474265
-0.00513126
-0.00566837
-0.00642276
-0.00750467
-0.0091007
-0.0114517
-0.0145223
-0.0175854
-0.0182254
-0.013334
-0.00706649
-0.000654299
-0.00453143
-0.0046037
-0.00463307
-0.00470698
-0.00482549
-0.00500909
-0.00527805
-0.00565941
-0.00619328
-0.00694193
-0.00800515
-0.00953232
-0.0117817
-0.0150174
-0.019162
-0.0232674
-0.0252233
-0.0201414
-0.0138006
-0.00503761
-0.00527185
-0.00533565
-0.00533483
-0.00538968
-0.00550463
-0.00570523
-0.00601386
-0.00646214
-0.00709812
-0.00799464
-0.00926959
-0.0110774
-0.0137289
-0.0174336
-0.0222512
-0.0271448
-0.0310591
-0.0269756
-0.0215281
-0.0102713
-0.00608941
-0.00615498
-0.00610453
-0.00611983
-0.00619524
-0.00636961
-0.00667016
-0.00713149
-0.00780532
-0.00876123
-0.0101316
-0.0120151
-0.0148074
-0.0186087
-0.023714
-0.0289401
-0.0346654
-0.0313772
-0.0271214
-0.0133578
-0.00712695
-0.00696807
-0.006781
-0.00666013
-0.00666594
-0.00680852
-0.00710006
-0.00756047
-0.00823602
-0.0091789
-0.0105195
-0.0123624
-0.0149943
-0.0184846
-0.0231351
-0.0277521
-0.0328302
-0.0293871
-0.0275995
-0.00950713
-0.00783552
-0.00814476
-0.00779643
-0.00767605
-0.00753702
-0.0075301
-0.00767578
-0.0080067
-0.00857153
-0.00939692
-0.010613
-0.0122796
-0.0146053
-0.0175177
-0.021337
-0.0245968
-0.0281053
-0.0240174
-0.0226821
0.00481086
-0.0115485
-0.00886447
-0.00819873
-0.00745283
-0.00721955
-0.00722401
-0.00743419
-0.00780953
-0.00838938
-0.00918052
-0.0103159
-0.0118038
-0.0138532
-0.0162374
-0.0192327
-0.021189
-0.0228566
-0.0170441
-0.0102636
0.0326478
-0.00892422
-0.0114955
-0.0103025
-0.0100704
-0.00941282
-0.00897357
-0.00874019
-0.00873007
-0.00900827
-0.00954498
-0.0104825
-0.0117571
-0.0137036
-0.0158974
-0.0189042
-0.0203859
-0.020571
-0.00888935
0.0116632
0.0833151
-0.0340921
-0.00899336
-0.00747769
-0.00646798
-0.00598492
-0.00596524
-0.00628303
-0.00670726
-0.00737426
-0.00815205
-0.00934842
-0.0107073
-0.0126165
-0.0142865
-0.0157354
-0.0134906
-0.00559282
0.0242154
0.0830305
0.20589
1.84251e-05
-5.84489e-06
4.43595e-05
0.000140681
0.000290787
0.000496301
0.000760247
0.00108629
0.00147756
0.00193554
0.00245866
0.00304031
0.00366652
0.00431366
0.00494671
0.00552035
0.00598313
0.00629035
0.00644424
0.00638154
4.25675e-05
1.83109e-05
7.52507e-05
0.000173476
0.000322475
0.000524551
0.000783178
0.00110217
0.00148476
0.00193265
0.00244479
0.00301545
0.00363147
0.00427009
0.00489843
0.00547075
0.00593367
0.00624027
0.00639706
0.00631826
-2.49524e-05
-5.73299e-05
-2.06194e-06
9.19209e-05
0.000234959
0.00042945
0.000679349
0.000989252
0.00136354
0.00180558
0.00231646
0.0028929
0.00352473
0.00419203
0.00485929
0.00547579
0.00597719
0.00630196
0.00645791
0.00633744
-0.00016212
-0.000199948
-0.000148153
-6.10854e-05
7.24349e-05
0.000255042
0.000491388
0.000787186
0.00114852
0.00158128
0.00209
0.00267566
0.00333233
0.00404276
0.00477301
0.00546502
0.00603691
0.0063986
0.0065556
0.0063655
-0.000377826
-0.000420282
-0.000374416
-0.000297484
-0.000177578
-1.17753e-05
0.000205346
0.000480791
0.00082271
0.00124017
0.00174234
0.00233645
0.00302392
0.00379326
0.00461332
0.00541973
0.00610639
0.00653464
0.00669663
0.00638571
-0.000670766
-0.000717763
-0.000680159
-0.000616803
-0.000515305
-0.00037259
-0.00018264
6.26782e-05
0.000373501
0.000762214
0.00124328
0.00183209
0.00254063
0.00336945
0.00429762
0.00526363
0.00613223
0.0066865
0.00686904
0.00634193
-0.00103732
-0.00108928
-0.00106225
-0.00101628
-0.000938848
-0.000827108
-0.000675015
-0.000474001
-0.000212733
0.000123713
0.000554634
0.00110402
0.00179892
0.00266052
0.00368746
0.00484193
0.00597828
0.00678062
0.00703504
0.00616638
-0.00147268
-0.00153032
-0.00151609
-0.00149145
-0.00144426
-0.00137256
-0.00127129
-0.00113287
-0.000946753
-0.000697962
-0.000365522
7.93824e-05
0.000675185
0.00146668
0.00249467
0.00378117
0.00526366
0.00655829
0.00703074
0.00584906
-0.00197074
-0.00203482
-0.00203506
-0.00203517
-0.00202401
-0.00200149
-0.00196495
-0.00190989
-0.00182972
-0.00171453
-0.00154934
-0.00131171
-0.000969796
-0.000478424
0.000239057
0.00132856
0.00301596
0.00516271
0.00630212
0.00551459
-0.00252433
-0.00259544
-0.00261051
-0.00263713
-0.00266591
-0.00269982
-0.00274033
-0.00278864
-0.00284635
-0.00291568
-0.00300041
-0.00310915
-0.00326615
-0.00351318
-0.00382029
-0.00379244
-0.00243988
0.000954144
0.00385244
0.00505824
-0.00312599
-0.00320443
-0.00323241
-0.00328433
-0.00335311
-0.00344623
-0.00357087
-0.00373649
-0.0039573
-0.00425577
-0.00466962
-0.00526713
-0.00618568
-0.00764716
-0.00969732
-0.0116129
-0.0111473
-0.00633591
-0.00121289
0.00286519
-0.00376898
-0.00385372
-0.0038881
-0.00395897
-0.00406191
-0.00420995
-0.00441665
-0.00470099
-0.00509232
-0.00563844
-0.00642144
-0.00758576
-0.00939677
-0.0122404
-0.0161151
-0.019996
-0.0207851
-0.0153203
-0.00878724
-0.00172331
-0.00445236
-0.00454303
-0.00457372
-0.00465161
-0.00477456
-0.00496251
-0.00523547
-0.00562116
-0.00616207
-0.0069273
-0.00803439
-0.00968473
-0.0122177
-0.016057
-0.021189
-0.0262599
-0.0288334
-0.0239696
-0.0172999
-0.00793155
-0.00517312
-0.00525718
-0.00525775
-0.0053182
-0.00544041
-0.00564836
-0.00596377
-0.00641855
-0.00706289
-0.00797613
-0.00929357
-0.0112352
-0.0141542
-0.0184131
-0.0241787
-0.0298524
-0.0342327
-0.0304954
-0.0244078
-0.0135008
-0.00596205
-0.00605423
-0.00600506
-0.00602951
-0.00611463
-0.00629846
-0.00660679
-0.00707444
-0.00775274
-0.00871812
-0.0101076
-0.0121036
-0.0150892
-0.0192111
-0.02503
-0.0304393
-0.0356496
-0.0320431
-0.0274265
-0.015159
-0.00694102
-0.00681429
-0.00662886
-0.00651936
-0.00654009
-0.00669733
-0.00700042
-0.00746861
-0.00814499
-0.00909096
-0.0104399
-0.0122958
-0.0150414
-0.0187102
-0.0236247
-0.02799
-0.031911
-0.0280843
-0.0257352
-0.00990179
-0.00751902
-0.0078901
-0.00755443
-0.00746673
-0.00735142
-0.00736566
-0.00752568
-0.0078648
-0.00842506
-0.0092458
-0.0104359
-0.0120911
-0.0144513
-0.0174422
-0.0213406
-0.0243535
-0.0268619
-0.0224927
-0.0193094
0.00501311
-0.0112108
-0.0085521
-0.00783395
-0.00709089
-0.00689332
-0.0069379
-0.00717842
-0.00757373
-0.00815478
-0.0089297
-0.0100287
-0.0114912
-0.0135237
-0.0159607
-0.0189598
-0.0207911
-0.0215825
-0.0155684
-0.00649569
0.033796
-0.00785102
-0.0106871
-0.00960325
-0.00948579
-0.00890965
-0.00854322
-0.00835582
-0.00837837
-0.00866113
-0.00918615
-0.0100789
-0.0113276
-0.0132455
-0.0155317
-0.0186083
-0.0201264
-0.0200121
-0.00782268
0.0149916
0.0864368
-0.033369
-0.00814056
-0.00660937
-0.00573426
-0.00537227
-0.00542177
-0.00577413
-0.00622448
-0.00688647
-0.00765451
-0.0088032
-0.0101515
-0.0120375
-0.0138008
-0.0153049
-0.0130623
-0.00436851
0.0266597
0.0891195
0.213602
3.929e-05
1.14846e-05
6.13161e-05
0.000157888
0.000309393
0.000517383
0.000785053
0.00111641
0.00151508
0.00198309
0.00251943
0.0031179
0.00376456
0.00443508
0.00509234
0.00568757
0.00616455
0.00647469
0.00662184
0.00654223
6.86943e-05
4.04458e-05
9.76762e-05
0.000196384
0.000346715
0.000550944
0.000812765
0.00113636
0.00152542
0.00198225
0.0025064
0.0030927
0.00372784
0.00438949
0.00504194
0.00563614
0.00611351
0.00642263
0.00657211
0.00647641
5.63849e-06
-3.16376e-05
2.40716e-05
0.000118543
0.000262883
0.000459459
0.000712489
0.00102699
0.00140791
0.00185937
0.00238326
0.00297708
0.00363149
0.00432609
0.00502317
0.00566755
0.00618756
0.00651459
0.00665831
0.00651341
-0.000127167
-0.000170525
-0.000118145
-3.05496e-05
0.000104323
0.000289086
0.000528715
0.000829431
0.00119802
0.00164134
0.0021651
0.00277151
0.00345557
0.00420115
0.00497133
0.00570218
0.00630088
0.00666423
0.00679858
0.00656972
-0.000339307
-0.000387769
-0.000341215
-0.000263685
-0.00014228
2.59319e-05
0.000246767
0.000527855
0.000878225
0.00130819
0.00182858
0.0024486
0.00317142
0.0039868
0.00486226
0.00572513
0.00645266
0.00688247
0.00700141
0.00662587
-0.000629255
-0.000682664
-0.00064429
-0.00058025
-0.000477059
-0.000331596
-0.000137367
0.000114503
0.000435232
0.000838773
0.0013418
0.00196262
0.00271655
0.00360564
0.00461171
0.00566076
0.00659359
0.00714957
0.00724986
0.00661527
-0.000993106
-0.00105189
-0.00102404
-0.00097735
-0.000898097
-0.000783355
-0.000626537
-0.000418229
-0.000145866
0.000207317
0.000663331
0.00125018
0.00199938
0.0029353
0.00406399
0.00533748
0.00657557
0.00737914
0.00748211
0.00645703
-0.00142581
-0.00149074
-0.00147573
-0.00145046
-0.00140152
-0.00132684
-0.00122079
-0.00107495
-0.000877499
-0.000611577
-0.000253385
0.000230088
0.000882921
0.00175553
0.00288686
0.00432409
0.00594526
0.00724882
0.00748165
0.00615392
-0.00192099
-0.00199292
-0.00199256
-0.00199234
-0.00197981
-0.00195477
-0.00191404
-0.00185243
-0.00176237
-0.00163263
-0.00144643
-0.00117926
-0.000798153
-0.000258376
0.000520384
0.00170092
0.00355059
0.00582382
0.00671515
0.00589221
-0.00247109
-0.00255071
-0.0025655
-0.00259236
-0.00262053
-0.00265293
-0.00269065
-0.00273452
-0.00278589
-0.00284718
-0.00292343
-0.00302823
-0.00320199
-0.00351294
-0.00391854
-0.00391937
-0.00235722
0.00124183
0.00410154
0.00554118
-0.00306806
-0.00315584
-0.00318404
-0.00323705
-0.00330636
-0.00339946
-0.00352338
-0.00368776
-0.00390771
-0.00420837
-0.00463417
-0.0052697
-0.00629242
-0.00798677
-0.0103534
-0.0124184
-0.0119059
-0.00717569
-0.00181664
0.00300766
-0.00370399
-0.00379901
-0.00383415
-0.00390715
-0.00401208
-0.00416196
-0.00437036
-0.00465695
-0.00505319
-0.00561213
-0.006428
-0.00767164
-0.00965981
-0.0128448
-0.0171957
-0.0214195
-0.0227202
-0.0177546
-0.0108465
-0.00278601
-0.00437666
-0.00447918
-0.00451147
-0.00459284
-0.00471936
-0.00491085
-0.00518742
-0.00557768
-0.00612662
-0.00690942
-0.00805741
-0.00979964
-0.0125256
-0.0167267
-0.0223927
-0.0279422
-0.031143
-0.0270481
-0.0202563
-0.0102016
-0.00507922
-0.00517669
-0.00517933
-0.00524468
-0.00537241
-0.00558582
-0.00590636
-0.00636636
-0.00701779
-0.00794491
-0.00929362
-0.0113032
-0.0143829
-0.0189132
-0.0251089
-0.0309805
-0.0355293
-0.0323059
-0.0266662
-0.015731
-0.00584187
-0.00595107
-0.00590449
-0.00593665
-0.00602918
-0.00621976
-0.0065333
-0.00700461
-0.00768497
-0.00865391
-0.0100534
-0.012083
-0.015158
-0.0193976
-0.0253912
-0.030623
-0.0353709
-0.0320019
-0.0284788
-0.01643
-0.00677256
-0.00666663
-0.00648511
-0.00638605
-0.00641734
-0.00658431
-0.00689436
-0.00736564
-0.00803895
-0.00897709
-0.0103109
-0.0121684
-0.0149246
-0.0185939
-0.0234427
-0.0274671
-0.0308233
-0.0273088
-0.0260807
-0.0101516
-0.00727055
-0.00768396
-0.00735126
-0.00728701
-0.00718744
-0.00721485
-0.00738232
-0.00772253
-0.00827409
-0.00907682
-0.0102423
-0.0118673
-0.014206
-0.0171767
-0.0210081
-0.0238004
-0.0259643
-0.0219068
-0.0197566
0.00566388
-0.0108887
-0.00826771
-0.00753908
-0.00681546
-0.00663765
-0.00670387
-0.00695985
-0.00736223
-0.00793677
-0.00869604
-0.00975612
-0.0111849
-0.0131832
-0.0156024
-0.018566
-0.0203105
-0.0209685
-0.0153874
-0.00702968
0.0353272
-0.0072641
-0.010266
-0.00920155
-0.00914828
-0.0086035
-0.00826485
-0.00809327
-0.00811936
-0.00839271
-0.00889485
-0.00975078
-0.0109653
-0.0128591
-0.0151617
-0.0183012
-0.0198972
-0.019914
-0.0077936
0.0149563
0.089455
-0.0328
-0.00755888
-0.00602939
-0.00521947
-0.00492075
-0.00501803
-0.00540039
-0.00586729
-0.00652901
-0.00728289
-0.0084042
-0.00972217
-0.0115929
-0.0133543
-0.0148841
-0.0125689
-0.00375222
0.0277899
0.0909611
0.21928
6.19023e-05
3.28244e-05
8.30029e-05
0.000180492
0.000333931
0.000544972
0.000817082
0.00115467
0.00156183
0.00204116
0.00259214
0.00320894
0.00387751
0.00457263
0.00525502
0.00587241
0.00636413
0.00667814
0.00681988
0.00672687
9.37508e-05
6.38617e-05
0.000121659
0.000221347
0.000373572
0.000580708
0.000846731
0.00117622
0.00157336
0.00204103
0.00257935
0.00318353
0.00384013
0.00452678
0.00520493
0.00582203
0.00631447
0.00662684
0.00676971
0.00666083
3.36043e-05
-5.71717e-06
5.0644e-05
0.000146115
0.000292372
0.000491885
0.000749197
0.00106978
0.00145918
0.00192222
0.00246155
0.00307534
0.0037549
0.00447882
0.00520707
0.00587981
0.00641835
0.00674765
0.00687932
0.00671506
-9.60117e-05
-0.000141714
-8.85876e-05
6.07098e-08
0.000136938
0.000324781
0.000568946
0.000876203
0.00125407
0.00171033
0.0022518
0.00288171
0.00359559
0.00437837
0.00518908
0.0059578
0.00658118
0.00694454
0.00705541
0.00679536
-0.000305232
-0.000356262
-0.000308882
-0.000230223
-0.000106659
6.4896e-05
0.000290716
0.000579094
0.000939971
0.00138488
0.0019262
0.00257476
0.00333491
0.00419745
0.00512693
0.00604193
0.00680359
0.0072289
0.00730243
0.00687626
-0.000592504
-0.000648673
-0.000609415
-0.000544173
-0.000438659
-0.000289564
-8.98585e-05
0.000170114
0.000502666
0.000923266
0.00145059
0.0021054
0.00290541
0.00385373
0.00493065
0.00605097
0.00703093
0.00757243
0.00758886
0.00687506
-0.000953809
-0.00101555
-0.000986808
-0.000938901
-0.000857255
-0.000738726
-0.000576138
-0.000359216
-7.41809e-05
0.000297447
0.000780009
0.00140455
0.00220555
0.00320629
0.00442348
0.00578849
0.00708815
0.00785707
0.00781966
0.00668558
-0.00138393
-0.00145205
-0.00143622
-0.00140986
-0.00135866
-0.00128035
-0.0011687
-0.00101448
-0.000804697
-0.000520882
-0.000137061
0.000382684
0.00108526
0.00202301
0.00323012
0.00475359
0.0064362
0.00768054
0.00773137
0.00631027
-0.00187625
-0.00195165
-0.00195066
-0.00194969
-0.00193533
-0.00190726
-0.0018618
-0.00179312
-0.00169291
-0.00154911
-0.00134422
-0.00105406
-0.000649318
-9.42911e-05
0.000681954
0.00186879
0.00373935
0.00592781
0.00675798
0.00598374
-0.00242286
-0.00250628
-0.00252075
-0.00254741
-0.00257455
-0.00260502
-0.00263962
-0.002679
-0.00272456
-0.00277952
-0.00285156
-0.002962
-0.00317134
-0.00357808
-0.0041405
-0.00431092
-0.00284241
0.000731286
0.00383177
0.00559023
-0.00301512
-0.0031071
-0.00313545
-0.00318902
-0.00325837
-0.00335105
-0.00347407
-0.00363745
-0.00385756
-0.00416276
-0.00460528
-0.00528724
-0.00642359
-0.00835406
-0.0110954
-0.0135094
-0.0132066
-0.0085657
-0.00271045
0.0027121
-0.00364421
-0.00374384
-0.00377964
-0.00385411
-0.00396034
-0.00411146
-0.00432125
-0.0046103
-0.00501231
-0.00558559
-0.006436
-0.00775819
-0.00991242
-0.013413
-0.0182229
-0.0228495
-0.024509
-0.0199248
-0.0125501
-0.00382628
-0.00430683
-0.00441463
-0.00444822
-0.00453208
-0.00466113
-0.00485526
-0.00513484
-0.00552948
-0.00608657
-0.00688669
-0.00807245
-0.00989513
-0.0127828
-0.0172593
-0.0233143
-0.0291127
-0.0324653
-0.0288014
-0.0218822
-0.0115919
-0.00499388
-0.00509728
-0.00510175
-0.00517066
-0.00530212
-0.00551927
-0.00584354
-0.00630779
-0.00696557
-0.00790496
-0.00927965
-0.0113446
-0.0145359
-0.0192213
-0.0255868
-0.0313194
-0.0355333
-0.0324777
-0.0270668
-0.0165388
-0.0057353
-0.0058517
-0.00580718
-0.00584448
-0.00594183
-0.00613679
-0.00645371
-0.00692729
-0.00760914
-0.00858064
-0.00998772
-0.0120368
-0.0151585
-0.0194529
-0.0252945
-0.0301641
-0.0340569
-0.0308749
-0.0276874
-0.0164766
-0.00663069
-0.00653435
-0.00635636
-0.00626471
-0.00630222
-0.00647456
-0.006788
-0.00725977
-0.00792955
-0.00886029
-0.010184
-0.0120291
-0.0147696
-0.0183875
-0.023053
-0.0266627
-0.0293654
-0.0258962
-0.0246914
-0.00976897
-0.00709021
-0.00752006
-0.00718532
-0.00713347
-0.00704204
-0.00707628
-0.00724676
-0.0075852
-0.00812875
-0.00891659
-0.0100617
-0.0116583
-0.0139648
-0.0168779
-0.0205799
-0.0231111
-0.0247974
-0.0207692
-0.0184521
0.00633637
-0.0106374
-0.00804529
-0.00731939
-0.00661291
-0.00644384
-0.00651914
-0.00678027
-0.00718233
-0.00774878
-0.00849114
-0.00952771
-0.0109244
-0.0128886
-0.015262
-0.0181401
-0.0197357
-0.0201109
-0.0145881
-0.00600579
0.0363599
-0.00699174
-0.0100352
-0.00896008
-0.00892837
-0.00839054
-0.00806008
-0.0078917
-0.00791478
-0.00817816
-0.00866139
-0.00949162
-0.0106769
-0.0125446
-0.0148221
-0.0179203
-0.0194174
-0.0192559
-0.00713302
0.0159172
0.0911507
-0.0324979
-0.00725805
-0.0057222
-0.00492504
-0.00464705
-0.00476373
-0.0051583
-0.00562879
-0.00628465
-0.00702463
-0.00812329
-0.00941522
-0.0112582
-0.012988
-0.0144668
-0.0120623
-0.00301105
0.0288174
0.0925803
0.221953
8.36881e-05
5.42872e-05
0.000105126
0.000203887
0.000359547
0.000573931
0.000850793
0.00119492
0.00161088
0.00210174
0.00266742
0.00330236
0.00399237
0.00471111
0.00541743
0.00605579
0.00656147
0.00687952
0.0070168
0.00691274
0.000116647
8.62007e-05
0.000144726
0.000245712
0.000400153
0.000610582
0.000881264
0.00121716
0.00162291
0.0021019
0.00265473
0.00327689
0.00395489
0.00466563
0.00536835
0.00600706
0.00651362
0.00682919
0.00696611
0.00684645
5.83516e-05
1.8328e-05
7.5477e-05
0.000172287
0.000320825
0.000523725
0.000785854
0.00111312
0.0015116
0.00198676
0.00254188
0.00317566
0.0038798
0.00463176
0.00538928
0.00608811
0.00664327
0.00697423
0.00709446
0.00691448
-6.90435e-05
-0.000115561
-6.15784e-05
2.84778e-05
0.000167751
0.000359164
0.000608449
0.00092289
0.00131067
0.00178038
0.00233976
0.00299288
0.00373606
0.00455316
0.00540081
0.00620308
0.0068472
0.00720882
0.0072967
0.00701181
-0.000276028
-0.000327962
-0.000279661
-0.000199513
-7.33986e-05
0.000101985
0.000333356
0.000629623
0.00100154
0.0014617
0.00202376
0.00269973
0.00349393
0.00440059
0.00537775
0.00633695
0.00712511
0.00754177
0.00757055
0.00710578
-0.000561111
-0.00061826
-0.000578039
-0.000511242
-0.000403041
-0.000249877
-4.42102e-05
0.000224325
0.000569005
0.00100658
0.00155741
0.00224402
0.0030859
0.00408585
0.00522252
0.00640032
0.00741364
0.00793245
0.00786734
0.00709664
-0.000920251
-0.000983055
-0.000953359
-0.000903903
-0.00081954
-0.000696857
-0.000528135
-0.00030234
-4.65438e-06
0.000384791
0.00089212
0.00155055
0.00239663
0.00345423
0.00473795
0.00617031
0.00750782
0.00822843
0.00805868
0.00685105
-0.00134813
-0.00141742
-0.00140072
-0.00137296
-0.00131921
-0.00123696
-0.00111949
-0.000956849
-0.000735143
-0.000434743
-2.83028e-05
0.000521648
0.00126257
0.00224358
0.0035018
0.00507474
0.00678014
0.00795012
0.00783887
0.00636569
-0.00183796
-0.00191466
-0.00191298
-0.00191092
-0.00189446
-0.00186309
-0.00181275
-0.00173717
-0.00162755
-0.00147155
-0.00125201
-0.000946844
-0.000533437
1.06294e-05
0.000745836
0.00187971
0.00369661
0.0058703
0.0066426
0.00594841
-0.0023815
-0.00246637
-0.00248047
-0.00250654
-0.00253231
-0.00256055
-0.00259191
-0.002627
-0.00266761
-0.00271829
-0.00279044
-0.00291471
-0.00317408
-0.00370478
-0.00447301
-0.00486522
-0.00351898
6.90901e-05
0.00343662
0.00551973
-0.00296969
-0.00306329
-0.00309167
-0.00314531
-0.00321425
-0.00330608
-0.00342795
-0.00359041
-0.00381132
-0.00412266
-0.00458514
-0.0053194
-0.00658038
-0.00878407
-0.0119147
-0.0147365
-0.0146497
-0.00996653
-0.00360123
0.00237911
-0.00359299
-0.00369442
-0.00373071
-0.00380598
-0.00391283
-0.00406451
-0.00427517
-0.00456638
-0.00497422
-0.00556227
-0.00644783
-0.00784915
-0.0101701
-0.0139875
-0.0192584
-0.0242709
-0.0261825
-0.0216806
-0.0139395
-0.00470726
-0.00424739
-0.00435725
-0.00439182
-0.00447726
-0.00460786
-0.00480363
-0.00508533
-0.0054836
-0.00604822
-0.00686487
-0.00808657
-0.0099855
-0.0130252
-0.0177569
-0.0241674
-0.0301761
-0.0333938
-0.0297901
-0.0229164
-0.0125179
-0.00492252
-0.00502823
-0.00503416
-0.0051054
-0.00523914
-0.00545854
-0.00578516
-0.00625248
-0.00691562
-0.00786612
-0.00926476
-0.0113784
-0.0146681
-0.0194849
-0.025992
-0.0315013
-0.0353479
-0.0322298
-0.0272112
-0.0169185
-0.00564859
-0.00576782
-0.00572491
-0.00576538
-0.0058655
-0.00606282
-0.00638137
-0.00685587
-0.00753843
-0.00851188
-0.00992594
-0.0119888
-0.0151419
-0.0194479
-0.0252132
-0.0297218
-0.0329737
-0.0297891
-0.0271082
-0.0162504
-0.0065194
-0.0064273
-0.00625235
-0.0061656
-0.00620664
-0.00638155
-0.00669595
-0.00716643
-0.0078322
-0.00875591
-0.0100711
-0.0119019
-0.0146236
-0.0181913
-0.0227196
-0.026011
-0.0282267
-0.0247535
-0.0238557
-0.0091945
-0.00696361
-0.0073993
-0.00706187
-0.00701598
-0.00692791
-0.00696472
-0.00713517
-0.00747003
-0.00800581
-0.00878082
-0.00990821
-0.0114791
-0.0137527
-0.0166055
-0.0201895
-0.0225228
-0.0238861
-0.0199116
-0.0177986
0.00707238
-0.0104549
-0.00788212
-0.00716409
-0.00647009
-0.00630547
-0.0063837
-0.00664481
-0.00704296
-0.00760108
-0.00832916
-0.0093461
-0.0107148
-0.0126475
-0.014966
-0.0177553
-0.0192258
-0.0194152
-0.0139463
-0.00550369
0.0372764
-0.00685546
-0.00990802
-0.00881657
-0.00879185
-0.00825234
-0.0079212
-0.00774979
-0.00776591
-0.00801977
-0.00848704
-0.00929957
-0.0104587
-0.0123016
-0.0145349
-0.017569
-0.0189668
-0.0186765
-0.00647935
0.0165841
0.0924911
-0.0323135
-0.00708437
-0.00554383
-0.00474817
-0.00447772
-0.00460092
-0.00499984
-0.00546786
-0.00611829
-0.00684507
-0.00792908
-0.00919622
-0.0110131
-0.0126904
-0.0140982
-0.0115611
-0.00235302
0.0297271
0.0936604
0.223741
0.00010306
7.37428e-05
0.000125364
0.000225511
0.000383407
0.00060106
0.000882496
0.00123284
0.00165704
0.00215859
0.00273776
0.00338913
0.00409833
0.00483815
0.00556558
0.0062223
0.0067402
0.0070619
0.0071955
0.00708242
0.000136516
0.000105982
0.000165297
0.000267678
0.000424366
0.000638059
0.000913289
0.00125535
0.00166927
0.00215887
0.00272511
0.00336367
0.00406107
0.00479318
0.00551754
0.0061751
0.00669389
0.00701222
0.00714397
0.00701555
7.94027e-05
3.92449e-05
9.72249e-05
0.000195481
0.000346342
0.000552623
0.000819482
0.0011532
0.00156032
0.00204681
0.00261648
0.00326844
0.00399453
0.00477116
0.00555411
0.00627529
0.00684438
0.00717636
0.00728634
0.00709376
-4.64725e-05
-9.31577e-05
-3.8293e-05
5.32804e-05
0.000194996
0.000389975
0.000644285
0.00096565
0.00136281
0.00184503
0.00242075
0.00309467
0.00386361
0.00471057
0.00558973
0.00642007
0.00708085
0.0074397
0.00750655
0.00720228
-0.000251809
-0.000303932
-0.000254699
-0.000172955
-4.42591e-05
0.000134921
0.00037169
0.00067548
0.00105773
0.00153188
0.00211261
0.00281298
0.00363813
0.00458097
0.00559778
0.00659318
0.00740184
0.00780823
0.00779573
0.0073017
-0.000535192
-0.000592549
-0.000551366
-0.000482919
-0.000372027
-0.000214877
-3.49312e-06
0.000273083
0.000628913
0.00108177
0.00165327
0.00236715
0.00324304
0.00428726
0.0054733
0.00669784
0.00773679
0.0082306
0.00808962
0.00727727
-0.000892599
-0.000955638
-0.000924993
-0.000873904
-0.000786846
-0.000660146
-0.000485628
-0.000251639
5.7455e-05
0.000462586
0.000991195
0.0016781
0.00256141
0.00366508
0.00500235
0.00648948
0.00785753
0.00852581
0.00823129
0.00697191
-0.00131866
-0.00138822
-0.00137066
-0.00134139
-0.00128513
-0.00119912
-0.0010762