/*--------------------------------*- C++ -*----------------------------------*\
  =========                 |
  \\      /  F ield         | OpenFOAM: The Open Source CFD Toolbox
   \\    /   O peration     | Website:  https://openfoam.org
    \\  /    A nd           | Version:  10
     \\/     M anipulation  |
\*---------------------------------------------------------------------------*/
FoamFile
{
    format      ascii;
    class       surfaceScalarField;
    location    "8.675";
    object      phi;
}
// * * * * * * * * * * * * * * * * * * * * * * * * * * * * * * * * * * * * * //

dimensions      [0 3 -1 0 0 0 0];

internalField   nonuniform List<scalar> 
22800
(
-3.03417e-06
3.91635e-06
-8.76864e-07
-9.57037e-06
7.04638e-06
-5.1018e-07
-1.736e-05
8.08698e-06
-2.97374e-07
-2.57088e-05
8.53361e-06
-1.84769e-07
-3.43598e-05
8.84794e-06
-1.96954e-07
-4.32195e-05
9.16264e-06
-3.02953e-07
-5.21897e-05
9.46668e-06
-4.96428e-07
-6.10867e-05
9.69171e-06
-7.94738e-07
-6.95985e-05
9.73963e-06
-1.22788e-06
-7.72556e-05
9.48929e-06
-1.83218e-06
-8.34121e-05
8.80166e-06
-2.64514e-06
-8.72516e-05
7.53544e-06
-3.69596e-06
-8.7842e-05
5.58002e-06
-4.98957e-06
-8.42647e-05
2.90891e-06
-6.48626e-06
-7.58397e-05
-3.59843e-07
-8.06511e-06
-6.2456e-05
-3.8856e-06
-9.49808e-06
-4.50197e-05
-6.98263e-06
-1.04537e-05
-2.57908e-05
-8.69057e-06
-1.05384e-05
-8.35088e-06
-8.00549e-06
-9.43439e-06
-2.93012e-06
-5.42076e-06
-5.97695e-06
1.21985e-05
-2.3052e-06
-1.70584e-05
2.04015e-05
-2.27371e-06
-3.00116e-05
2.32063e-05
-2.1661e-06
-4.37967e-05
2.43671e-05
-2.04842e-06
-5.79725e-05
2.50649e-05
-2.04117e-06
-7.23211e-05
2.56429e-05
-2.13164e-06
-8.66279e-05
2.60954e-05
-2.32192e-06
-0.000100568
2.62716e-05
-2.63973e-06
-0.000113644
2.5943e-05
-3.12734e-06
-0.000125142
2.48232e-05
-3.83635e-06
-0.000134103
2.25848e-05
-4.82148e-06
-0.00013933
1.88895e-05
-6.12742e-06
-0.000139478
1.34942e-05
-7.76595e-06
-0.000133273
6.40131e-06
-9.69745e-06
-0.000119772
-2.07837e-06
-1.17828e-05
-9.87437e-05
-1.12635e-05
-1.36501e-05
-7.1541e-05
-1.93337e-05
-1.48516e-05
-4.14896e-05
-2.39093e-05
-1.48327e-05
-1.40315e-05
-2.24263e-05
-1.30373e-05
-1.01109e-05
-6.85069e-06
-6.98317e-06
2.229e-05
-3.10835e-06
-1.97497e-05
3.64689e-05
-3.30086e-06
-3.45708e-05
4.12893e-05
-3.26194e-06
-5.02724e-05
4.32028e-05
-3.13412e-06
-6.63735e-05
4.42617e-05
-3.09568e-06
-8.26437e-05
4.50611e-05
-3.1479e-06
-9.88627e-05
4.56164e-05
-3.30199e-06
-0.0001147
4.57053e-05
-3.59626e-06
-0.000129645
4.49747e-05
-4.08681e-06
-0.000142945
4.29682e-05
-4.84484e-06
-0.000153566
3.91546e-05
-5.94948e-06
-0.000160185
3.29836e-05
-7.47463e-06
-0.000161232
2.40077e-05
-9.46645e-06
-0.000155021
1.20909e-05
-1.19005e-05
-0.000140166
-2.35528e-06
-1.45783e-05
-0.000116169
-1.81788e-05
-1.70818e-05
-8.43275e-05
-3.24259e-05
-1.87491e-05
-4.86378e-05
-4.08378e-05
-1.87612e-05
-1.59937e-05
-3.87427e-05
-1.63277e-05
-1.78725e-05
-8.23215e-06
-7.19269e-06
3.31832e-05
-3.70046e-06
-2.04644e-05
5.38299e-05
-4.08932e-06
-3.58606e-05
6.07972e-05
-4.11167e-06
-5.21813e-05
6.3507e-05
-3.98342e-06
-6.89689e-05
6.49798e-05
-3.93051e-06
-8.60396e-05
6.60988e-05
-3.96693e-06
-0.000103234
6.69242e-05
-4.11384e-06
-0.000120291
6.71849e-05
-4.42222e-06
-0.000136773
6.64225e-05
-4.9661e-06
-0.00015198
6.40193e-05
-5.84355e-06
-0.000164868
5.92157e-05
-7.17298e-06
-0.000173983
5.11761e-05
-9.0779e-06
-0.000177448
3.91295e-05
-1.16563e-05
-0.000173079
2.26486e-05
-1.49273e-05
-0.000158859
2.18306e-06
-1.87577e-05
-0.000133317
-2.12324e-05
-2.24889e-05
-9.73644e-05
-4.3218e-05
-2.51604e-05
-5.56919e-05
-5.70826e-05
-2.54277e-05
-1.7307e-05
-5.51154e-05
-2.20122e-05
-2.44048e-05
-1.07747e-05
-7.0311e-06
4.43482e-05
-4.13398e-06
-2.02763e-05
7.17701e-05
-4.69497e-06
-3.57104e-05
8.10025e-05
-4.77127e-06
-5.21456e-05
8.45952e-05
-4.65307e-06
-6.91725e-05
8.66158e-05
-4.6091e-06
-8.66864e-05
8.82804e-05
-4.66772e-06
-0.000104632
8.97318e-05
-4.86217e-06
-0.000122875
9.06881e-05
-5.26001e-06
-0.000141116
9.06234e-05
-5.96031e-06
-0.000158782
8.87858e-05
-7.10002e-06
-0.000174895
8.41867e-05
-8.85768e-06
-0.00018791
7.56333e-05
-1.14427e-05
-0.000195602
6.18764e-05
-1.50549e-05
-0.000195067
4.19145e-05
-1.98008e-05
-0.000182973
1.56167e-05
-2.55281e-05
-0.000156798
-1.57721e-05
-3.16348e-05
-0.000116143
-4.74609e-05
-3.64125e-05
-6.61576e-05
-6.95708e-05
-3.74968e-05
-1.92006e-05
-6.96413e-05
-3.24311e-05
-2.82898e-05
-1.53157e-05
-6.67822e-06
5.55131e-05
-4.48663e-06
-1.96227e-05
8.99253e-05
-5.21071e-06
-3.48217e-05
0.000101541
-5.3393e-06
-5.11086e-05
0.000106122
-5.24006e-06
-6.813e-05
0.00010886
-5.22298e-06
-8.58789e-05
0.000111363
-5.3333e-06
-0.000104436
0.000113909
-5.61987e-06
-0.000123843
0.000116267
-6.17214e-06
-0.000144009
0.000117913
-7.12339e-06
-0.000164585
0.000118028
-8.66591e-06
-0.000184779
0.000115448
-1.10674e-05
-0.000203089
0.00010862
-1.46767e-05
-0.000216993
9.56631e-05
-1.98826e-05
-0.000222775
7.46901e-05
-2.69932e-05
-0.000215555
4.45046e-05
-3.61079e-05
-0.000190782
6.06765e-06
-4.66128e-05
-0.000145273
-3.72786e-05
-5.56919e-05
-8.36653e-05
-7.20948e-05
-5.90834e-05
-2.30531e-05
-7.88217e-05
-5.14318e-05
-2.81515e-05
-2.31914e-05
-6.1929e-06
6.65283e-05
-4.82232e-06
-1.86476e-05
0.000108096
-5.71634e-06
-3.34014e-05
0.000122192
-5.89712e-06
-4.93009e-05
0.000127839
-5.81716e-06
-6.60442e-05
0.000131433
-5.82988e-06
-8.37273e-05
0.000135047
-6.00097e-06
-0.00010259
0.000139171
-6.3995e-06
-0.000122891
0.000143712
-7.14316e-06
-0.000144824
0.000148256
-8.41003e-06
-0.000168388
0.000152061
-1.04689e-05
-0.000193165
0.000153943
-1.37186e-05
-0.000217967
0.000152151
-1.87289e-05
-0.000240329
0.000144266
-2.624e-05
-0.000255917
0.000127319
-3.70422e-05
-0.00025818
9.83866e-05
-5.16185e-05
-0.000238547
5.58493e-05
-6.94148e-05
-0.000191372
2.79948e-06
-8.72532e-05
-0.000115185
-5.22121e-05
-9.60697e-05
-3.27964e-05
-7.59073e-05
-8.5303e-05
-2.35401e-05
-3.74078e-05
-5.59376e-06
7.7301e-05
-5.17895e-06
-1.73954e-05
0.000126158
-6.26022e-06
-3.14882e-05
0.000142774
-6.48917e-06
-4.67083e-05
0.000149475
-6.41592e-06
-6.27888e-05
0.000153957
-6.4427e-06
-7.9919e-05
0.000158836
-6.65928e-06
-9.84943e-05
0.000164905
-7.15884e-06
-0.000119012
0.000172323
-8.09326e-06
-0.000142011
0.000180951
-9.69624e-06
-0.000167963
0.000190345
-1.23328e-05
-0.000197055
0.000199612
-1.65768e-05
-0.0002288
0.000207209
-2.33143e-05
-0.000261373
0.000210662
-3.38227e-05
-0.000290674
0.000206295
-4.96749e-05
-0.000309229
0.000189111
-7.21689e-05
-0.000305456
0.000152959
-0.000100883
-0.00026346
9.15427e-05
-0.000130739
-0.000175339
9.5274e-06
-0.000149861
-5.94098e-05
-5.44962e-05
-0.00013734
-1.81407e-05
-6.48091e-05
-4.91249e-06
8.77989e-05
-5.58535e-06
-1.59299e-05
0.000144056
-6.88012e-06
-2.91373e-05
0.000163128
-7.14703e-06
-4.33235e-05
0.000170714
-7.05293e-06
-5.82258e-05
0.000175916
-7.05717e-06
-7.40992e-05
0.000181986
-7.27693e-06
-9.14642e-05
0.000190101
-7.8316e-06
-0.000111023
0.00020079
-8.90887e-06
-0.000133643
0.000214372
-1.08007e-05
-0.000160321
0.000231001
-1.39777e-05
-0.00019206
0.000250565
-1.92143e-05
-0.000229534
0.00027245
-2.77664e-05
-0.000272484
0.000295149
-4.15375e-05
-0.000318647
0.000315397
-6.29382e-05
-0.000361885
0.00032609
-9.37416e-05
-0.0003889
0.000311929
-0.000131955
-0.000374492
0.00024524
-0.000168104
-0.000285724
0.000110767
-0.000190008
-0.000124688
-3.38524e-05
-0.000181679
-3.22331e-05
-0.000110596
-4.22832e-06
9.8103e-05
-6.07581e-06
-1.44114e-05
0.00016186
-7.62085e-06
-2.6537e-05
0.000183162
-7.90889e-06
-3.93028e-05
0.00019123
-7.75056e-06
-5.24043e-05
0.000196691
-7.67379e-06
-6.61215e-05
0.000203529
-7.82577e-06
-8.10314e-05
0.000213363
-8.35166e-06
-9.79433e-05
0.000227172
-9.46982e-06
-0.00011793
0.000245877
-1.15188e-05
-0.000142376
0.000270496
-1.50489e-05
-0.000172998
0.000302161
-2.09733e-05
-0.000211784
0.000341984
-3.07482e-05
-0.000260914
0.000390624
-4.63436e-05
-0.000322177
0.000445913
-6.92527e-05
-0.000395096
0.000496565
-9.75562e-05
-0.000471233
0.000510056
-0.000121991
-0.000516486
0.000422566
-0.000132072
-0.000460818
0.000185024
-0.000129926
-0.000251436
-9.61315e-05
-0.000147103
-0.000128464
-0.000155205
-3.7017e-06
0.000108506
-6.70127e-06
-1.31634e-05
0.00017987
-8.54869e-06
-2.40987e-05
0.000202929
-8.83091e-06
-3.50708e-05
0.00021075
-8.54769e-06
-4.57046e-05
0.000215634
-8.30863e-06
-5.62512e-05
0.000222371
-8.29536e-06
-6.72423e-05
0.000233027
-8.67284e-06
-7.94226e-05
0.000249026
-9.67411e-06
-9.3813e-05
0.000271916
-1.16487e-05
-0.000111829
0.000303656
-1.51438e-05
-0.000135486
0.000346823
-2.10054e-05
-0.000167665
0.000404438
-3.02756e-05
-0.000213235
0.000479231
-4.30366e-05
-0.00028048
0.000568151
-5.49929e-05
-0.000380474
0.000649755
-5.3197e-05
-0.000517113
0.000664095
-1.73998e-05
-0.000656809
0.0005101
5.21619e-05
-0.000664459
0.000102032
9.06416e-05
-0.000406041
-0.000369932
1.53819e-05
-0.00041252
-0.000121985
-3.63078e-06
0.000119719
-7.58204e-06
-1.27676e-05
0.000198814
-9.8071e-06
-2.25594e-05
0.000222788
-1.00672e-05
-3.14192e-05
0.000229198
-9.58824e-06
-3.89348e-05
0.000232228
-9.07901e-06
-4.52999e-05
0.00023751
-8.77326e-06
-5.08886e-05
0.00024747
-8.85419e-06
-5.61548e-05
0.000263841
-9.54883e-06
-6.16951e-05
0.00028862
-1.11636e-05
-6.83714e-05
0.000324425
-1.40929e-05
-7.77086e-05
0.000374896
-1.87363e-05
-9.27742e-05
0.000444001
-2.44976e-05
-0.000121193
0.000534584
-2.69348e-05
-0.000181631
0.000640078
-1.14889e-05
-0.000308006
0.00072614
4.99904e-05
-0.000533341
0.000703891
0.000185539
-0.000813117
0.00043269
0.000357188
-0.00086911
-0.0002488
0.000406824
-0.000537313
-0.000944275
0.000242546
-0.00095109
1.2582e-06
-4.49908e-06
0.000133114
-8.89652e-06
-1.4108e-05
0.000219908
-1.1485e-05
-2.30278e-05
0.000243317
-1.16098e-05
-2.95878e-05
0.000246565
-1.08071e-05
-3.34452e-05
0.000246006
-9.9205e-06
-3.47641e-05
0.000248057
-9.22867e-06
-3.37119e-05
0.000255323
-8.90579e-06
-3.02576e-05
0.000269521
-9.13412e-06
-2.42231e-05
0.000292716
-1.01298e-05
-1.54776e-05
0.000327675
-1.19957e-05
-4.60152e-06
0.000378379
-1.43583e-05
4.81965e-06
0.000448813
-1.42329e-05
-2.23451e-07
0.000541397
-1.77009e-06
-5.31746e-05
0.000643691
4.93384e-05
-0.000223253
0.000716959
0.00017926
-0.000577799
0.000649085
0.000409352
-0.000997354
0.000204518
0.000647727
-0.00104836
-0.00083977
0.000641976
-0.000673366
-0.00167587
0.000356598
-0.00168328
5.88215e-05
-7.43097e-06
0.000151769
-1.12241e-05
-1.8921e-05
0.000245893
-1.44951e-05
-2.73104e-05
0.000266314
-1.46078e-05
-3.12381e-05
0.000263873
-1.338e-05
-3.09147e-05
0.000257535
-1.18517e-05
-2.66429e-05
0.000254251
-1.04656e-05
-1.83242e-05
0.000256471
-9.46639e-06
-5.37019e-06
0.000265611
-9.04324e-06
1.31005e-05
0.000283507
-9.26194e-06
3.81626e-05
0.000312544
-9.93011e-06
7.05922e-05
0.000355941
-9.99241e-06
0.000107395
0.000416684
-4.67336e-06
0.000132081
0.000496436
2.02749e-05
9.21876e-05
0.00058442
9.91644e-05
-0.000117492
0.00064798
0.000278658
-0.000562132
0.000536089
0.000557637
-0.00103913
-0.00010382
0.000785336
-0.00113201
-0.00137582
0.000628934
-0.000810463
-0.0022829
0.000285482
-0.00246934
-2.43965e-05
-1.28997e-05
0.000179352
-1.46831e-05
-2.79784e-05
0.00027885
-1.78785e-05
-3.6623e-05
0.00029251
-1.75514e-05
-3.8601e-05
0.000281375
-1.55241e-05
-3.42477e-05
0.000266533
-1.33517e-05
-2.42049e-05
0.000255592
-1.13836e-05
-8.48036e-06
0.000250613
-9.86625e-06
1.37781e-05
0.000252263
-8.9112e-06
4.40382e-05
0.000261833
-8.58642e-06
8.48328e-05
0.000280364
-8.61545e-06
0.000137976
0.000310262
-7.46393e-06
0.000202235
0.000352387
3.84863e-08
0.000262216
0.000407572
2.88816e-05
0.000268498
0.000465774
0.000112365
0.000107417
0.000508754
0.000300307
-0.000288968
0.000370739
0.000561734
-0.000772402
-0.000331844
0.000711458
-0.00102352
-0.00159564
0.000470933
-0.00084684
-0.00265421
0.000194627
-0.00315834
-0.000157845
-3.45174e-05
0.000236497
-2.26269e-05
-5.38011e-05
0.000325544
-2.741e-05
-5.9359e-05
0.000324494
-2.64257e-05
-5.43392e-05
0.000299664
-2.33089e-05
-4.26514e-05
0.000274319
-1.94736e-05
-2.56309e-05
0.000254445
-1.58738e-05
-2.93096e-06
0.000240911
-1.29978e-05
2.69629e-05
0.000233337
-1.09677e-05
6.65345e-05
0.000232301
-1.00396e-05
0.000119272
0.000237553
-9.92615e-06
0.000187914
0.000250769
-9.14948e-06
0.000273519
0.000270175
-3.3921e-06
0.000365246
0.000295868
1.99772e-05
0.000431904
0.000314176
8.49391e-05
0.00038543
0.000319877
0.000235351
0.000127338
0.000186711
0.000442121
-0.000328476
-0.000409312
0.000533282
-0.000758217
-0.00152638
0.000360482
-0.000776772
-0.00277991
0.000144256
-0.00364125
-0.00029386
-2.98159e-05
0.000304528
-3.82153e-05
-6.71697e-05
0.000401864
-3.89664e-05
-8.07322e-05
0.000373796
-3.57391e-05
-7.90423e-05
0.000326662
-2.86878e-05
-6.43415e-05
0.000282978
-2.33601e-05
-4.03071e-05
0.000249014
-1.86034e-05
-8.59405e-06
0.000224147
-1.49495e-05
3.12729e-05
0.000205984
-1.25142e-05
8.09509e-05
0.00019432
-1.16972e-05
0.000144137
0.000186919
-1.25515e-05
0.000223343
0.000185341
-1.37789e-05
0.000321227
0.000184922
-1.26305e-05
0.000428391
0.000187934
7.7027e-07
0.000528411
0.000176431
3.77257e-05
0.000563584
0.000153296
0.000131409
0.000436039
4.09722e-05
0.000273283
5.77881e-05
-0.000369673
0.000338611
-0.000462808
-0.00129335
0.000287566
-0.000653348
-0.00268065
9.12879e-05
-0.00387259
-0.000422005
-0.000181495
0.000533138
-4.71154e-05
-0.000177072
0.000458071
-6.0629e-05
-0.000144716
0.000402177
-6.07378e-05
-0.000107025
0.000342832
-5.3861e-05
-5.97712e-05
0.000278128
-4.24029e-05
-7.97413e-06
0.0002292
-3.19828e-05
4.69064e-05
0.000193569
-2.43022e-05
0.000106482
0.000165806
-1.93976e-05
0.000171946
0.000146408
-1.75518e-05
0.00024769
0.000130164
-1.89896e-05
0.000334248
0.000121228
-2.24449e-05
0.000435037
0.000110367
-2.62339e-05
0.000541276
0.000105742
-2.40479e-05
0.000639493
8.54241e-05
-7.21013e-06
0.000701703
5.37407e-05
3.73446e-05
0.000660344
-4.82762e-05
0.000130608
0.000438644
-0.000314897
0.000166924
-4.47985e-05
-0.00101554
0.000205635
-0.000378736
-0.00238719
4.04725e-05
-0.00369687
-0.000554463
-0.000371674
0.00107678
-0.000171965
-0.000261764
0.000479077
-0.000130916
-0.000104244
0.00034832
-0.000103664
6.96692e-05
0.000246316
-7.73968e-05
0.000236069
0.000172731
-6.10032e-05
0.000389416
0.000123919
-4.80671e-05
0.000528191
9.36181e-05
-3.88243e-05
0.000655221
7.17324e-05
-3.29561e-05
0.000773109
5.84296e-05
-2.99095e-05
0.000886933
4.66322e-05
-3.02919e-05
0.0009998
4.15407e-05
-3.31799e-05
0.00111577
3.36401e-05
-3.924e-05
0.0012354
3.01596e-05
-4.40489e-05
0.00134716
1.54856e-05
-4.18225e-05
0.00144057
-9.8382e-06
-2.98292e-05
0.00146791
-8.82419e-05
1.26221e-05
0.00137469
-0.000276155
5.4484e-05
0.000982812
-0.000720964
9.72976e-05
0.000274628
-0.00167312
-5.89007e-06
-0.0027356
-0.000686639
0.00122627
-0.000149496
0.00186707
-0.000161717
0.00237735
-0.000161963
0.00277203
-0.000148359
0.003076
-0.000131244
0.00331675
-0.000116834
0.00351358
-0.000103203
0.00367856
-9.32514e-05
0.00382015
-8.31555e-05
0.00394467
-7.7894e-05
0.00405763
-7.14133e-05
0.0041617
-7.04357e-05
0.00425755
-6.56935e-05
0.00433915
-6.61109e-05
0.00438429
-5.49778e-05
0.00434945
-5.34013e-05
0.00410357
-3.02749e-05
0.00344385
-6.12429e-05
0.00189491
-0.000124174
-0.000840693
-5.17938e-06
6.11485e-06
-1.81233e-06
-1.63262e-05
1.24602e-05
-1.82355e-06
-2.96744e-05
1.47148e-05
-1.66403e-06
-4.37786e-05
1.54902e-05
-1.57077e-06
-5.81515e-05
1.58246e-05
-1.64857e-06
-7.26193e-05
1.60516e-05
-1.88677e-06
-8.70017e-05
1.61783e-05
-2.29234e-06
-0.000100987
1.60912e-05
-2.90065e-06
-0.000114076
1.56248e-05
-3.76357e-06
-0.000125546
1.45776e-05
-4.93991e-06
-0.000134429
1.27236e-05
-6.4856e-06
-0.000139529
9.84056e-06
-8.43622e-06
-0.000139504
5.76578e-06
-1.07803e-05
-0.000133047
4.85801e-07
-1.34293e-05
-0.000119186
-5.77574e-06
-1.61506e-05
-9.78072e-05
-1.22968e-05
-1.858e-05
-7.02705e-05
-1.77807e-05
-2.02097e-05
-4.00182e-05
-2.03086e-05
-2.04821e-05
-1.29921e-05
-1.7664e-05
-1.87965e-05
-6.3894e-06
-1.20235e-05
-1.17867e-05
1.92898e-05
-3.6935e-06
-3.28756e-05
3.56851e-05
-4.40969e-06
-5.75001e-05
4.15857e-05
-4.41252e-06
-8.33137e-05
4.35668e-05
-4.31145e-06
-0.000109376
4.42197e-05
-4.37413e-06
-0.000135206
4.43818e-05
-4.63142e-06
-0.000160343
4.41071e-05
-5.11364e-06
-0.000184157
4.31467e-05
-5.88112e-06
-0.000205761
4.11149e-05
-7.01405e-06
-0.000223954
3.75374e-05
-8.60277e-06
-0.000237208
3.18899e-05
-1.07336e-05
-0.00024369
2.36566e-05
-1.34621e-05
-0.000241421
1.25048e-05
-1.67741e-05
-0.000228646
-1.40531e-06
-2.05811e-05
-0.000203933
-1.77648e-05
-2.45071e-05
-0.000167298
-3.45646e-05
-2.80167e-05
-0.000120925
-4.86651e-05
-3.03401e-05
-7.01825e-05
-5.53031e-05
-3.05809e-05
-2.43573e-05
-4.89213e-05
-2.76053e-05
-2.1095e-05
-1.65023e-05
-1.45977e-05
3.5593e-05
-4.81379e-06
-4.00841e-05
6.38419e-05
-5.97118e-06
-6.9575e-05
7.38992e-05
-6.08459e-06
-0.000100298
7.71223e-05
-5.96688e-06
-0.000131161
7.79744e-05
-5.98735e-06
-0.000161604
7.78835e-05
-6.20596e-06
-0.000191104
7.69769e-05
-6.67223e-06
-0.000218967
7.4882e-05
-7.46821e-06
-0.000244231
7.0994e-05
-8.70193e-06
-0.00026559
6.45517e-05
-1.05003e-05
-0.000281355
5.46984e-05
-1.29926e-05
-0.000289481
4.05917e-05
-1.62844e-05
-0.000287652
2.16274e-05
-2.04179e-05
-0.000273455
-2.21897e-06
-2.52839e-05
-0.000245004
-3.0324e-05
-3.04696e-05
-0.000201843
-5.95456e-05
-3.52621e-05
-0.000146189
-8.45294e-05
-3.85386e-05
-8.45599e-05
-9.67825e-05
-3.89111e-05
-2.88386e-05
-8.62269e-05
-3.47433e-05
-3.81646e-05
-2.00011e-05
-1.55956e-05
5.31871e-05
-5.69899e-06
-4.28709e-05
9.4256e-05
-7.22813e-06
-7.43617e-05
0.000108719
-7.44039e-06
-0.00010713
0.000113227
-7.31993e-06
-0.000140085
0.000114318
-7.31886e-06
-0.000172722
0.000114077
-7.52343e-06
-0.000204593
0.000112738
-8.00427e-06
-0.000235094
0.000109832
-8.87032e-06
-0.000263349
0.00010455
-1.02674e-05
-0.000288101
9.5837e-05
-1.23769e-05
-0.000307614
8.24414e-05
-1.54032e-05
-0.000319606
6.30483e-05
-1.95422e-05
-0.000321253
3.65518e-05
-2.49334e-05
-0.000309516
2.68416e-06
-3.15682e-05
-0.000281133
-3.84671e-05
-3.89977e-05
-0.000234408
-8.25456e-05
-4.62132e-05
-0.000170879
-0.000121734
-5.14852e-05
-9.81813e-05
-0.000142517
-5.23913e-05
-3.20194e-05
-0.000128114
-4.62874e-05
-5.53581e-05
-2.56005e-05
-1.57705e-05
7.1245e-05
-6.42147e-06
-4.36799e-05
0.000125762
-8.2912e-06
-7.59914e-05
0.000144857
-8.59753e-06
-0.000109709
0.000150783
-8.49121e-06
-0.00014381
0.000152311
-8.50203e-06
-0.00017792
0.000152263
-8.74441e-06
-0.000211761
0.000151032
-9.31478e-06
-0.000244927
0.000148096
-1.03577e-05
-0.000276746
0.000142481
-1.20724e-05
-0.000306127
0.000132839
-1.47207e-05
-0.000331385
0.000117468
-1.86259e-05
-0.000350035
9.44014e-05
-2.41456e-05
-0.000358646
6.17067e-05
-3.15988e-05
-0.000352796
1.81462e-05
-4.11126e-05
-0.000327743
-3.66026e-05
-5.24452e-05
-0.000279178
-9.85717e-05
-6.41736e-05
-0.000206712
-0.000157156
-7.3457e-05
-0.00011857
-0.000192337
-7.58191e-05
-3.66049e-05
-0.000176262
-6.62471e-05
-7.25916e-05
-3.46871e-05
-1.55956e-05
8.94236e-05
-7.06959e-06
-4.3646e-05
0.000157876
-9.275e-06
-7.62955e-05
0.000181844
-9.67704e-06
-0.000110526
0.000189371
-9.59793e-06
-0.000145409
0.000191617
-9.64555e-06
-0.00018075
0.000192237
-9.96607e-06
-0.000216511
0.000191862
-1.06877e-05
-0.000252584
0.000189997
-1.20009e-05
-0.000288628
0.000185577
-1.41764e-05
-0.000323882
0.000177016
-1.75899e-05
-0.000356893
0.000162155
-2.27435e-05
-0.00038515
0.000138246
-3.02646e-05
-0.000404655
0.000102149
-4.08193e-05
-0.000409636
5.10413e-05
-5.49082e-05
-0.000393017
-1.65246e-05
-7.28044e-05
-0.00034646
-9.91439e-05
-9.2598e-05
-0.000264998
-0.000184739
-0.000109571
-0.000154601
-0.000246541
-0.000115276
-4.59705e-05
-0.000236698
-9.96259e-05
-9.30195e-05
-4.87341e-05
-1.52451e-05
0.000107569
-7.72258e-06
-4.31921e-05
0.00019039
-1.02834e-05
-7.59164e-05
0.000219454
-1.0783e-05
-0.000110374
0.000228741
-1.073e-05
-0.000145736
0.000231965
-1.08155e-05
-0.000182016
0.000233738
-1.12223e-05
-0.000219478
0.000235041
-1.21167e-05
-0.000258408
0.000235529
-1.37448e-05
-0.000298956
0.000234184
-1.64686e-05
-0.000340927
0.000229335
-2.08173e-05
-0.000383431
0.000218493
-2.75526e-05
-0.000424376
0.000198187
-3.77251e-05
-0.000459762
0.000163942
-5.26467e-05
-0.000482794
0.000110716
-7.36848e-05
-0.000483786
3.4376e-05
-0.000101527
-0.000449392
-6.86077e-05
-0.000134346
-0.000365088
-0.000192415
-0.00016388
-0.000225599
-0.000307514
-0.000174586
-6.9921e-05
-0.00032816
-0.00014952
-0.000130552
-6.97966e-05
-1.47713e-05
0.000125599
-8.43789e-06
-4.24482e-05
0.0002232
-1.13932e-05
-7.50122e-05
0.000257515
-1.1986e-05
-0.000109358
0.000268608
-1.19372e-05
-0.000144744
0.00027294
-1.20311e-05
-0.000181401
0.000276227
-1.24914e-05
-0.000219928
0.000279936
-1.35263e-05
-0.000261093
0.000284044
-1.54442e-05
-0.000305703
0.000287811
-1.87127e-05
-0.00035442
0.000289768
-2.40491e-05
-0.000407409
0.000287461
-3.25551e-05
-0.000463761
0.000277107
-4.58825e-05
-0.000520615
0.000253291
-6.63173e-05
-0.000571991
0.000208811
-9.63937e-05
-0.0006067
0.000134233
-0.000137318
-0.000607788
1.69923e-05
-0.000185395
-0.000540887
-0.000166355
-0.0002237
-0.000372043
-0.000394383
-0.000231835
-0.000133897
-0.000505502
-0.000198144
-0.000230202
-9.90552e-05
-1.42188e-05
0.000143501
-9.26844e-06
-4.15069e-05
0.000256284
-1.2676e-05
-7.36569e-05
0.000295865
-1.33478e-05
-0.000107441
0.000308597
-1.32573e-05
-0.000142173
0.00031391
-1.32956e-05
-0.000178279
0.000318787
-1.37306e-05
-0.000216696
0.000325333
-1.48117e-05
-0.000258698
0.000334043
-1.69063e-05
-0.000305851
0.000344748
-2.05838e-05
-0.000359946
0.000356642
-2.67566e-05
-0.000422789
0.000367993
-3.69037e-05
-0.000495786
0.000375695
-5.33579e-05
-0.00057932
0.000374672
-7.93841e-05
-0.000671598
0.000356196
-0.000118045
-0.000765104
0.000301425
-0.000167427
-0.000835781
0.000166823
-0.000211109
-0.000826763
-0.000122239
-0.000221239
-0.000640513
-0.000571746
-0.000198895
-0.00027589
-0.000867368
-0.000184437
-0.000487804
-0.000128884
-1.36906e-05
0.000161398
-1.02817e-05
-4.05733e-05
0.000289768
-1.42216e-05
-7.20675e-05
0.000334398
-1.49476e-05
-0.000104745
0.000348268
-1.47443e-05
-0.000137919
0.000354038
-1.46271e-05
-0.000172172
0.000360124
-1.49099e-05
-0.000208714
0.0003694
-1.58767e-05
-0.000249264
0.000383059
-1.79363e-05
-0.00029611
0.000401801
-2.17256e-05
-0.000352228
0.000425996
-2.82856e-05
-0.000421376
0.000455501
-3.93325e-05
-0.000508211
0.000489252
-5.7469e-05
-0.000618579
0.000524093
-8.53966e-05
-0.000758903
0.000548708
-0.000121442
-0.00092971
0.000523256
-0.00014858
-0.001104
0.000346888
-0.000127766
-0.0011834
-0.000134811
-4.01017e-05
-0.000990955
-0.000908649
1.45338e-05
-0.000493354
-0.00144373
-6.83443e-05
-0.00100676
-0.000129605
-1.33982e-05
0.000179676
-1.15818e-05
-4.00709e-05
0.000324051
-1.61593e-05
-7.07561e-05
0.000373151
-1.6898e-05
-0.000101743
0.00038719
-1.64827e-05
-0.000132295
0.000392356
-1.60752e-05
-0.000163078
0.000398648
-1.60363e-05
-0.000195452
0.00040977
-1.66694e-05
-0.000231383
0.000427703
-1.83876e-05
-0.00027362
0.000454206
-2.18161e-05
-0.000326022
0.0004912
-2.79459e-05
-0.000394071
0.00054082
-3.82751e-05
-0.000485584
0.000604781
-5.42916e-05
-0.000612005
0.000681275
-7.3798e-05
-0.000788676
0.00075036
-7.99741e-05
-0.00102412
0.000735523
-3.00241e-05
-0.00128453
0.000467221
0.00012268
-0.00143677
-0.000253927
0.000323516
-0.00124615
-0.00135311
0.00034449
-0.000689966
-0.00208544
0.000100906
-0.00176567
-5.30416e-05
-1.37654e-05
0.000199216
-1.33563e-05
-4.08051e-05
0.000360023
-1.87392e-05
-7.06994e-05
0.000412438
-1.94601e-05
-9.94167e-05
0.000425033
-1.87139e-05
-0.000126199
0.0004279
-1.78406e-05
-0.000151743
0.000432684
-1.72649e-05
-0.000177377
0.000443851
-1.73013e-05
-0.000204981
0.000464082
-1.83239e-05
-0.000237216
0.000496108
-2.08319e-05
-0.000277936
0.000543296
-2.54682e-05
-0.000332964
0.000609813
-3.27028e-05
-0.000411115
0.000699134
-4.06985e-05
-0.000526889
0.000807982
-3.78684e-05
-0.000701752
0.000902675
1.10595e-05
-0.000958225
0.000871648
0.000170337
-0.00126769
0.000499712
0.000462509
-0.00148425
-0.000405781
0.000725606
-0.0013206
-0.00172696
0.000617014
-0.000771719
-0.00261319
0.000221421
-0.0025796
4.34752e-05
-1.53691e-05
0.000221545
-1.58568e-05
-4.38653e-05
0.000399178
-2.21439e-05
-7.33312e-05
0.000452989
-2.26948e-05
-9.94273e-05
0.000461755
-2.14332e-05
-0.0001214
0.000459876
-1.9924e-05
-0.000139968
0.000460663
-1.86401e-05
-0.000156304
0.000469154
-1.78728e-05
-0.000171843
0.000488391
-1.79035e-05
-0.000188481
0.000521629
-1.9012e-05
-0.000209025
0.000573086
-2.12417e-05
-0.000238182
0.000648058
-2.34465e-05
-0.000283664
0.000750146
-1.97626e-05
-0.00036164
0.000874189
9.99902e-06
-0.000502992
0.000974466
0.0001189
-0.000752313
0.000927737
0.000372492
-0.00109573
0.000498413
0.000754065
-0.00135731
-0.000486055
0.000989588
-0.0012323
-0.00190344
0.000693454
-0.000758028
-0.00294293
0.000212059
-0.00329657
1.7758e-05
-2.00483e-05
0.000250175
-1.98055e-05
-5.21043e-05
0.000444305
-2.75657e-05
-8.13552e-05
0.000495667
-2.80355e-05
-0.000103841
0.000496952
-2.60905e-05
-0.000119731
0.000487509
-2.35951e-05
-0.00012996
0.000481633
-2.12061e-05
-0.000135277
0.000484281
-1.92766e-05
-0.0001363
0.000498422
-1.805e-05
-0.000133755
0.00052739
-1.75688e-05
-0.000128688
0.000575345
-1.72561e-05
-0.000123701
0.000647723
-1.46439e-05
-0.000123768
0.000746839
-1.29988e-06
-0.000146777
0.000867933
4.95406e-05
-0.000230066
0.000962952
0.000193967
-0.000440497
0.000922575
0.000494251
-0.000768196
0.000502625
0.000881124
-0.00102052
-0.000470796
0.0010224
-0.000990549
-0.00187896
0.000574477
-0.000670474
-0.00310183
0.00012431
-0.00389091
-0.000100532
-2.63396e-05
0.000287183
-2.53514e-05
-6.40681e-05
0.000498278
-3.41235e-05
-9.52786e-05
0.000543431
-3.41044e-05
-0.000116229
0.000533415
-3.10365e-05
-0.000126511
0.000511915
-2.74747e-05
-0.000127609
0.000495366
-2.40187e-05
-0.000120514
0.000488356
-2.1037e-05
-0.000105362
0.000493067
-1.87086e-05
-8.16996e-05
0.000512103
-1.69622e-05
-4.85192e-05
0.000548487
-1.49375e-05
-5.22214e-06
0.000606626
-9.66483e-06
4.52459e-05
0.000688267
8.14271e-06
9.11426e-05
0.000787649
6.32682e-05
9.75126e-05
0.000864541
0.000204407
-3.19342e-06
0.000835133
0.000488455
-0.000237308
0.000484018
0.000814457
-0.000462629
-0.000395834
0.000861816
-0.000606945
-0.0016784
0.000414689
-0.000490053
-0.00307856
5.44676e-05
-0.00432822
-0.000210585
-5.9941e-05
0.000360029
-3.55322e-05
-0.000104472
0.000562558
-4.71596e-05
-0.000129669
0.000588772
-4.657e-05
-0.000139054
0.000561756
-4.22654e-05
-0.000137895
0.00052805
-3.67667e-05
-0.000128046
0.000500903
-3.12596e-05
-0.000109307
0.000483014
-2.6395e-05
-8.00148e-05
0.000475274
-2.24666e-05
-3.80643e-05
0.000479645
-1.95321e-05
1.97045e-05
0.000497464
-1.66723e-05
9.50986e-05
0.000533122
-1.10392e-05
0.00019098
0.000585159
3.83428e-06
0.000300766
0.000649529
4.83114e-05
0.000402765
0.000692921
0.000154559
0.000438784
0.00066674
0.000367724
0.000337608
0.000411394
0.000615921
0.000132519
-0.000281571
0.000624108
-0.000181674
-0.00132011
0.000316383
-0.000247802
-0.00289127
2.30929e-05
-0.00457244
-0.000297439
-4.10464e-05
0.000416783
-5.39221e-05
-0.000116441
0.000664918
-6.5931e-05
-0.000160781
0.000659704
-6.23314e-05
-0.000177147
0.000603051
-5.36166e-05
-0.000173311
0.000546723
-4.58698e-05
-0.000154294
0.00050177
-3.84873e-05
-0.000122346
0.000468283
-3.2167e-05
-7.68397e-05
0.000444454
-2.72006e-05
-1.61257e-05
0.000431167
-2.39329e-05
6.32981e-05
0.000427109
-2.16198e-05
0.000165026
0.000436193
-1.85773e-05
0.000293319
0.000454208
-9.97236e-06
0.00044367
0.000482695
1.72534e-05
0.000601502
0.000492408
8.04075e-05
0.000727238
0.000463769
0.000208643
0.00073266
0.000300491
0.000378765
0.000565874
-0.000166366
0.000390191
0.000221133
-0.000926563
0.000238763
5.45187e-05
-0.00264237
8.9971e-06
-0.00457659
-0.000363334
-0.000189696
0.000620805
-6.1442e-05
-0.000212881
0.000712955
-8.54819e-05
-0.000224335
0.000699421
-8.90006e-05
-0.000227091
0.000633309
-8.13625e-05
-0.00020447
0.00055072
-6.90209e-05
-0.000162542
0.00048445
-5.65905e-05
-0.000105327
0.000433072
-4.63065e-05
-3.26542e-05
0.000391165
-3.87813e-05
5.43003e-05
0.000361217
-3.45563e-05
0.000158555
0.000337007
-3.31423e-05
0.00028072
0.000325325
-3.37416e-05
0.000425224
0.000316328
-3.28585e-05
0.000587727
0.000319458
-2.33134e-05
0.000753599
0.000312556
6.76992e-06
0.000909202
0.000281064
6.44464e-05
0.000984454
0.000184548
0.000171299
0.000959883
-0.000145261
0.000170391
0.000782417
-0.000678419
0.000134957
0.000500884
-0.00231649
-3.87557e-06
-0.00421406
-0.00041611
-0.000665946
0.001284
-0.000169217
-0.000623158
0.000703291
-0.000164039
-0.000477293
0.000588826
-0.000138935
-0.000275344
0.000471326
-0.000117362
-6.45678e-05
0.000380031
-0.000101091
0.000144822
0.000313411
-8.64178e-05
0.000346908
0.000267134
-7.49719e-05
0.000541321
0.000230252
-6.64564e-05
0.000729211
0.000204475
-6.10577e-05
0.000913087
0.000181804
-5.89653e-05
0.00109722
0.000168059
-6.00452e-05
0.00128234
0.000154712
-6.27456e-05
0.00147805
0.000145928
-6.62324e-05
0.00167431
0.000133437
-5.89608e-05
0.00187327
9.8508e-05
-4.62292e-05
0.00203253
4.0976e-05
-3.06583e-06
0.00208886
-0.00017309
2.59789e-05
0.00203182
-0.000550127
2.60489e-05
0.00138712
-0.00164672
-3.0964e-05
-0.00304506
-0.000468517
0.00126928
-0.000134774
0.00196899
-0.000158132
0.00255981
-0.000163956
0.00304119
-0.000158418
0.00343848
-0.000148501
0.00377297
-0.00013791
0.00406384
-0.000126944
0.00431936
-0.000118515
0.00454977
-0.000109097
0.00475804
-0.000104361
0.00495188
-9.71869e-05
0.00513326
-9.7104e-05
0.0053041
-9.06102e-05
0.00546574
-9.43139e-05
0.0055912
-8.19238e-05
0.00566709
-8.83249e-05
0.00553
-6.62692e-05
0.00502221
-0.000103577
0.00336593
-0.000114615
-0.000519825
-5.90052e-06
6.41622e-06
-2.32804e-06
-1.88012e-05
1.39587e-05
-2.8815e-06
-3.42638e-05
1.67043e-05
-2.90574e-06
-5.05001e-05
1.7577e-05
-2.91141e-06
-6.69222e-05
1.78454e-05
-3.07191e-06
-8.3332e-05
1.79389e-05
-3.41584e-06
-9.95285e-05
1.78755e-05
-3.97143e-06
-0.000115166
1.75236e-05
-4.78669e-06
-0.000129696
1.669e-05
-5.92335e-06
-0.000142327
1.51384e-05
-7.44746e-06