/*--------------------------------*- C++ -*----------------------------------*\
  =========                 |
  \\      /  F ield         | OpenFOAM: The Open Source CFD Toolbox
   \\    /   O peration     | Website:  https://openfoam.org
    \\  /    A nd           | Version:  10
     \\/     M anipulation  |
\*---------------------------------------------------------------------------*/
FoamFile
{
    format      ascii;
    class       surfaceScalarField;
    location    "1.2";
    object      phi;
}
// * * * * * * * * * * * * * * * * * * * * * * * * * * * * * * * * * * * * * //

dimensions      [0 3 -1 0 0 0 0];

internalField   nonuniform List<scalar> 
760
(
-1.34924e-05
1.34924e-05
-3.02024e-05
1.671e-05
-4.64124e-05
1.621e-05
-6.14562e-05
1.50438e-05
-7.495e-05
1.34939e-05
-8.65665e-05
1.16165e-05
-9.60262e-05
9.45969e-06
-0.0001031
7.07368e-06
-0.00010761
4.50986e-06
-0.00010943
1.8206e-06
-0.00010849
-9.40042e-07
-0.000104775
-3.71513e-06
-9.8332e-05
-6.44316e-06
-8.92743e-05
-9.05766e-06
-7.77877e-05
-1.14866e-05
-6.41338e-05
-1.36539e-05
-4.86521e-05
-1.54817e-05
-3.17707e-05
-1.68814e-05
-1.4243e-05
-1.75277e-05
-1.4243e-05
-1.73598e-05
3.08522e-05
-3.84061e-05
3.77563e-05
-5.87982e-05
3.66021e-05
-7.7709e-05
3.39546e-05
-9.46515e-05
3.04363e-05
-0.000109215
2.618e-05
-0.000121054
2.12982e-05
-0.000129886
1.59064e-05
-0.000135498
1.01211e-05
-0.000137737
4.0596e-06
-0.000136521
-2.15505e-06
-0.000131835
-8.40192e-06
-0.000123737
-1.45406e-05
-0.00011237
-2.04251e-05
-9.79615e-05
-2.5895e-05
-8.08362e-05
-3.07792e-05
-6.1417e-05
-3.49009e-05
-4.02418e-05
-3.80566e-05
-1.82401e-05
-3.95294e-05
-3.24832e-05
-1.84282e-05
4.92804e-05
-4.07636e-05
6.00917e-05
-6.2379e-05
5.82175e-05
-8.24046e-05
5.39802e-05
-0.00010033
4.83616e-05
-0.000115728
4.15784e-05
-0.000128244
3.38137e-05
-0.00013759
2.52522e-05
-0.000143547
1.60783e-05
-0.000145963
6.47555e-06
-0.00014474
-3.37768e-06
-0.000139863
-1.32786e-05
-0.000131381
-2.30229e-05
-0.000119425
-3.23816e-05
-0.000104218
-4.11018e-05
-8.60873e-05
-4.89098e-05
-6.54702e-05
-5.5518e-05
-4.29341e-05
-6.05926e-05
-1.94694e-05
-6.29941e-05
-5.19525e-05
-1.97056e-05
6.8986e-05
-4.3594e-05
8.39801e-05
-6.6686e-05
8.13095e-05
-8.8051e-05
7.53453e-05
-0.000107151
6.74613e-05
-0.000123543
5.7971e-05
-0.000136867
4.71372e-05
-0.000146834
3.52192e-05
-0.000153225
2.24695e-05
-0.000155884
9.13445e-06
-0.000154709
-4.55272e-06
-0.000149664
-1.83233e-05
-0.000140781
-3.19059e-05
-0.000128169
-4.49934e-05
-0.000112034
-5.72372e-05
-9.26937e-05
-6.825e-05
-7.05966e-05
-7.76152e-05
-4.63474e-05
-8.48417e-05
-2.10285e-05
-8.8313e-05
-7.2981e-05
-2.14892e-05
9.04752e-05
-4.75309e-05
0.000110022
-7.26626e-05
0.000106441
-9.58665e-05
9.85491e-05
-0.000116567
8.81616e-05
-0.000134305
7.57096e-05
-0.000148718
6.15495e-05
-0.000159521
4.60226e-05
-0.000166501
2.94499e-05
-0.000169502
1.21351e-05
-0.000168412
-5.64257e-06
-0.000163172
-2.35639e-05
-0.000153782
-4.12959e-05
-0.000140314
-5.84608e-05
-0.00012294
-7.46115e-05
-0.000101956
-8.92341e-05
-7.78158e-05
-0.000101755
-5.11734e-05
-0.000111484
-2.32435e-05
-0.000116243
-9.62246e-05
-2.38594e-05
0.000114335
-5.27483e-05
0.000138911
-8.05573e-05
0.00013425
-0.000106152
0.000124144
-0.000128912
0.000110921
-0.000148364
9.51622e-05
-0.000164153
7.73377e-05
-0.000176011
5.78805e-05
-0.00018374
3.71795e-05
-0.000187191
1.55862e-05
-0.000186244
-6.58946e-06
-0.000180805
-2.90035e-05
-0.000170829
-5.12716e-05
-0.000156328
-7.29617e-05
-0.00013741
-9.35297e-05
-0.000114325
-0.000112319
-8.75168e-05
-0.000128563
-5.76932e-05
-0.000141308
-2.62496e-05
-0.000147686
-0.000122474
-2.69124e-05
0.000141247
-5.94474e-05
0.000171446
-9.06496e-05
0.000165452
-0.000119234
0.000152728
-0.000144529
0.000136216
-0.000166061
0.000116694
-0.000183499
9.47758e-05
-0.000196616
7.09981e-05
-0.000205251
4.5814e-05
-0.000209272
1.96072e-05
-0.000208555
-7.30596e-06
-0.00020296
-3.45983e-05
-0.000192377
-6.1855e-05
-0.000176721
-8.86174e-05
-0.000155995
-0.000114257
-0.000130354
-0.00013796
-0.000100198
-0.000158719
-6.628e-05
-0.000175225
-3.02323e-05
-0.000183734
-0.000152707
-3.07882e-05
0.000172035
-6.79147e-05
0.000208572
-0.000103327
0.000200865
-0.00013555
0.000184951
-0.000163864
0.000164531
-0.00018782
0.000140649
-0.000207148
0.000114104
-0.000221699
8.55487e-05
-0.000231377
5.54925e-05
-0.000236095
2.4325e-05
-0.000235735
-7.66596e-06
-0.000230098
-4.02357e-05
-0.000218976
-7.29765e-05
-0.000202144
-0.00010545
-0.000179427
-0.000136974
-0.00015081
-0.000166576
-0.000116575
-0.000192954
-7.74881e-05
-0.000214313
-3.54756e-05
-0.000225747
-0.000188182
-3.56948e-05
0.00020773
-7.85646e-05
0.000251442
-0.000119136
0.000241436
-0.000155697
0.000221512
-0.000187502
0.000196337
-0.000214172
0.000167319
-0.000235561
0.000135493
-0.000251656
0.000101643
-0.000262479
6.63159e-05
-0.00026802
2.98664e-05
-0.000268191
-7.49589e-06
-0.000262722
-4.57042e-05
-0.000251274
-8.4425e-05
-0.000233408
-0.000123316
-0.000208675
-0.000161706
-0.000176761
-0.000198491
-0.000137693
-0.000232022
-9.21553e-05
-0.00025985
-4.24273e-05
-0.000275475
-0.000230609
-4.19509e-05
0.000249681
-9.20078e-05
0.000301499
-0.000138852
0.00028828
-0.000180491
0.000263151
-0.000216203
0.000232049
-0.000245768
0.000196884
-0.000269262
0.000158988
-0.000286899
0.00011928
-0.000298895
7.83118e-05
-0.00030537
3.63412e-05
-0.000306298
-6.56835e-06
-0.000301343
-5.06593e-05
-0.000289991
-9.57763e-05
-0.000271502
-0.000141805
-0.000245008
-0.000188199
-0.000209691
-0.000233808
-0.000165086
-0.000276628
-0.00011158
-0.000313356
-5.18225e-05
-0.000335232
-0.000282432
-5.00622e-05
0.000299743
-0.000109166
0.000360603
-0.0001636
0.000342714
-0.000211059
0.00031061
-0.000250961
0.00027195
-0.0002834
0.000229323
-0.000308829
0.000184416
-0.00032782
0.000138271
-0.000340888
9.138e-05
-0.00034836
4.38129e-05
-0.000350326
-4.60204e-06
-0.000346399
-5.45864e-05
-0.000335868
-0.000106308
-0.000317584
-0.000160089
-0.00029006
-0.000215724
-0.000251675
-0.000272192
-0.000201056
-0.000327247
-0.00013783
-0.000376582
-6.49321e-05
-0.00040813
-0.000347364
-6.08686e-05
0.000360612
-0.000131468
0.000431202
-0.00019504
0.000406286
-0.000248975
0.000364545
-0.00029308
0.000316056
-0.000328025
0.000264268
-0.000354867
0.000211258
-0.000374724
0.000158129
-0.000388558
0.000105213
-0.000396998
5.22536e-05
-0.000400325
-1.2755e-06
-0.000398143
-5.67683e-05
-0.000389549
-0.000114902
-0.000372913
-0.000176724
-0.000345895
-0.000242743
-0.000305604
-0.000312483
-0.000249103
-0.000383748
-0.000174309
-0.000451377
-8.4094e-05
-0.000498345
-0.000431458
-7.58356e-05
0.000436447
-0.000161189
0.000516556
-0.00023566
0.000480756
-0.000296452
0.000425337
-0.000344271
0.000363875
-0.000380774
0.000300771
-0.000407957
0.000238441
-0.000427748
0.00017792
-0.000441727
0.000119193
-0.000450954
6.14796e-05
-0.000455959
3.73033e-06
-0.000456459
-5.62688e-05
-0.000451407
-0.000119954
-0.000438685
-0.000189445
-0.000414938
-0.000266489
-0.000375469
-0.000351952
-0.000314624
-0.000444593
-0.000226802
-0.000539199
-0.000113956
-0.000611191
-0.000545414
-9.76902e-05
0.000534137
-0.000202074
0.00062094
-0.000289249
0.000567931
-0.000356618
0.000492706
-0.000406743
0.000414
-0.000442903
0.000336931
-0.000468557
0.000264094
-0.000486736
0.000196099
-0.000499803
0.00013226
-0.000509391
7.10677e-05
-0.000516269
1.0608e-05
-0.000520584
-5.19538e-05
-0.000521215
-0.000119323
-0.000515724
-0.000194936
-0.000499761
-0.000282452
-0.000466457
-0.000385256
-0.000405993
-0.000505057
-0.00030549
-0.000639703
-0.000165128
-0.000751553
-0.000710541
-0.000131183
0.00066532
-0.000260059
0.000749816
-0.000361515
0.000669387
-0.000433822
0.000565013
-0.000483198
0.000463376
-0.000515688
0.000369421
-0.000536843
0.00028525
-0.000551057
0.000210313
-0.000561573
0.000142776
-0.000570637
8.01308e-05
-0.000579505
1.94768e-05
-0.000588744
-4.27148e-05
-0.000597617
-0.00011045
-0.000603812
-0.000188741
-0.000602462
-0.000283802
-0.000584619
-0.0004031
-0.000535484
-0.000554191
-0.000428083
-0.000747104
-0.000256811
-0.000922825
-0.000967352
-0.000194088
0.000859408
-0.000348356
0.000904084
-0.000462098
0.000783128
-0.000533959
0.000636874
-0.000576718
0.000506135
-0.000600123
0.000392826
-0.000612342
0.00029747
-0.000619254
0.000217224
-0.000624936
0.000148458
-0.000632147
8.73418e-05
-0.000642624
2.99533e-05
-0.000657579
-2.77593e-05
-0.000677161
-9.0868e-05
-0.000700172
-0.000165731
-0.00072258
-0.000261393
-0.000734329
-0.000391351
-0.000718235
-0.000570285
-0.000620038
-0.000845301
-0.000431754
-0.00111111
-0.00139911
-0.000257768
0.00111718
-0.000462133
0.00110845
-0.000596654
0.000917649
-0.000662526
0.000702746
-0.000689002
0.000532611
-0.000694722
0.000398546
-0.000691527
0.000294275
-0.000686593
0.000212291
-0.000684323
0.000146188
-0.000687553
9.05715e-05
-0.000698328
4.07287e-05
-0.000718688
-7.4e-06
-0.000750027
-5.9529e-05
-0.000793558
-0.000122199
-0.000849641
-0.000205311
-0.000908024
-0.000332968
-0.000965771
-0.000512539
-0.000915234
-0.000895838
-0.000743773
-0.00128257
-0.00214288
-0.000569751
0.00168693
-0.000723951
0.00126265
-0.000797908
0.000991605
-0.00081487
0.000719708
-0.000794833
0.000512574
-0.000762894
0.000366607
-0.000731188
0.000262569
-0.000705516
0.000186619
-0.000688905
0.000129577
-0.000683233
8.48997e-05
-0.00069027
4.77654e-05
-0.00071161
1.39402e-05
-0.000752649
-1.84906e-05
-0.000818023
-5.68246e-05
-0.000916578
-0.000106756
-0.00103901
-0.000210534
-0.00118887
-0.000362684
-0.00122658
-0.000858127
-0.00102227
-0.00148688
-0.00316515
-0.00094938
0.00263631
-0.000887328
0.0012006
-0.000739122
0.0008434
-0.000564172
0.000544758
-0.000398083
0.000346486
-0.000262468
0.000230991
-0.000159777
0.000159878
-8.53287e-05
0.000112171
-3.43499e-05
7.85984e-05
-3.44526e-06
5.3995e-05
9.40079e-06
3.49193e-05
4.94451e-06
1.83965e-05
-1.63707e-05
2.82456e-06
-5.47505e-05
-1.84448e-05
-0.000110481
-5.10251e-05
-0.000192242
-0.000128773
-0.00025721
-0.000297716
-0.000390596
-0.000724741
-0.000312205
-0.00156527
-0.00347735
0.00263631
0.0038369
0.0046803
0.00522506
0.00557155
0.00580254
0.00596242
0.00607459
0.00615319
0.00620718
0.0062421
0.0062605
0.00626332
0.00624488
0.00619385
0.00606508
0.00576736
0.00504262
0.00347735
)
;

boundaryField
{
    movingWall
    {
        type            calculated;
        value           uniform 0;
    }
    fixedWalls
    {
        type            calculated;
        value           uniform 0;
    }
    frontAndBack
    {
        type            empty;
        value           nonuniform List<scalar> 0();
    }
}


// ************************************************************************* //
