/*--------------------------------*- C++ -*----------------------------------*\
  =========                 |
  \\      /  F ield         | OpenFOAM: The Open Source CFD Toolbox
   \\    /   O peration     | Website:  https://openfoam.org
    \\  /    A nd           | Version:  10
     \\/     M anipulation  |
\*---------------------------------------------------------------------------*/
FoamFile
{
    format      ascii;
    class       volScalarField;
    location    "0.425";
    object      p;
}
// * * * * * * * * * * * * * * * * * * * * * * * * * * * * * * * * * * * * * //

dimensions      [0 2 -2 0 0 0 0];

internalField   nonuniform List<scalar> 
400
(
-5.13957e-11
7.82481e-05
0.000252536
0.000516573
0.000863404
0.00128413
0.00176805
0.002303
0.00287562
0.00347169
0.00407641
0.00467474
0.00525168
0.00579258
0.00628351
0.00671162
0.00706547
0.00733544
0.00751398
0.00759438
-7.67538e-05
3.06983e-06
0.000180991
0.000450453
0.000804344
0.00123356
0.00172717
0.00227276
0.00285673
0.0034646
0.00408134
0.00469165
0.00528027
0.00583227
0.00633344
0.00677063
0.0071321
0.00740799
0.00759052
0.00767266
-0.000254658
-0.000171105
1.524e-05
0.00029737
0.000667734
0.00111671
0.00163282
0.00220306
0.00281327
0.0034484
0.00409288
0.00473082
0.00534638
0.00592402
0.00644887
0.00690709
0.00728627
0.00757588
0.00776759
0.00785386
-0.000535221
-0.000445648
-0.000245921
5.62933e-05
0.000452722
0.000932905
0.00148446
0.00209348
0.00274491
0.00342285
0.00411086
0.00479219
0.00545011
0.00606813
0.00663034
0.00712182
0.00752906
0.00784049
0.00804684
0.00813976
-0.000925868
-0.000827779
-0.000609208
-0.000278796
0.000154113
0.000677833
0.00127869
0.00194151
0.00265002
0.00338716
0.00413536
0.00487676
0.00559342
0.00626757
0.00688189
0.00741996
0.00786665
0.00820887
0.00843595
0.00853836
-0.00143709
-0.00132764
-0.00108401
-0.000716255
-0.000235249
0.000345606
0.00101089
0.00174375
0.00252637
0.00334025
0.00416646
0.00498579
0.00577885
0.00652629
0.007209
0.00780852
0.00830759
0.00869089
0.00894579
0.00906098
-0.00208285
-0.00195863
-0.00168265
-0.00126693
-0.000724541
-7.12292e-05
0.000675266
0.00149597
0.00237117
0.00328071
0.00420413
0.00512071
0.00600945
0.00684915
0.0076185
0.00829648
0.00886295
0.00929955
0.00959078
0.00972279
-0.00288118
-0.00273802
-0.0024208
-0.00194442
-0.00132506
-0.000581685
0.00026493
0.00119318
0.00218113
0.00320682
0.00424819
0.005283
0.00628858
0.00724169
0.00811849
0.00889477
0.00954658
0.0100514
0.0103896
0.0105436
-0.00385518
-0.00368768
-0.00331799
-0.0027653
-0.00205024
-0.00119621
-0.000227922
0.000829805
0.00195257
0.00311653
0.00429817
0.00547391
0.00661955
0.00770982
0.00871804
0.00961615
0.0103753
0.0109672
0.0113663
0.011549
-0.00503435
-0.00483524
-0.00439834
-0.00374942
-0.0029156
-0.00192642
-0.000811642
0.000400059
0.00168164
0.00300754
0.00435319
0.00569417
0.0070052
0.00825923
0.00942667
0.010475
0.0113691
0.0120727
0.0125512
0.0127722
-0.00645674
-0.00621565
-0.00569137
-0.00492007
-0.00393845
-0.00278449
-0.00149447
-0.000101516
0.0013647
0.00287741
0.00441174
0.00594341
0.00744701
0.00889444
0.0102534
0.0114865
0.0125507
0.013399
0.0139834
0.0142568
-0.00817231
-0.00787363
-0.00723315
-0.00630402
-0.00513715
-0.00378212
-0.00228338
-0.000679012
0.000999028
0.00272381
0.00447156
0.00621962
0.00794405
0.00961721
0.0112052
0.0126655
0.0139457
0.0149841
0.0157132
0.0160613
-0.0102488
-0.00986694
-0.0090675
-0.00793101
-0.00652964
-0.00492853
-0.00318225
-0.00133389
0.000583617
0.0025449
0.00452936
0.00651827
0.00849158
0.0104245
0.0122838
0.0140233
0.01558
0.016873
0.0178054
0.0182671
-0.0127842
-0.0122695
-0.011247
-0.00983213
-0.00813034
-0.00622758
-0.00418961
-0.00206302
0.000120499
0.00233989
0.0045807
0.00683129
0.00907896
0.0113056
0.0134824
0.0155633
0.0174763
0.0191168
0.0203417
0.0209955
-0.0159258
-0.0151765
-0.0138336
-0.0120357
-0.00994548
-0.00767336
-0.00529457
-0.00285578
-0.000383347
0.00211002
0.00461996
0.00714597
0.00968723
0.0122376
0.0147792
0.0172729
0.0196448
0.0217695
0.0234241
0.0244347
-0.0199517
-0.0187137
-0.016896
-0.0145589
-0.0119649
-0.00924268
-0.00647137
-0.00369029
-0.000913631
0.00185981
0.0046406
0.00744401
0.0102864
0.0131804
0.0161283
0.0191111
0.0220681
0.0248721
0.0271656
0.0289013
-0.0249068
-0.0229644
-0.0204906
-0.0173922
-0.0141465
-0.0108841
-0.00767224
-0.00452909
-0.00144657
0.00159827
0.00463602
0.00770161
0.0108337
0.014071
0.0174486
0.0209869
0.0246714
0.0284267
0.0316378
0.0347783
-0.0336727
-0.0284845
-0.0248064
-0.020514
-0.0164036
-0.0125032
-0.00881834
-0.00531547
-0.00194668
0.00134077
0.00460131
0.00789115
0.0112756
0.0148239
0.0186175
0.0227508
0.0273436
0.0325921
0.0373568
0.044246
-0.0402086
-0.033931
-0.0291326
-0.0235399
-0.018505
-0.0139513
-0.00981165
-0.00598541
-0.00237673
0.00110112
0.00452881
0.00798217
0.0115461
0.0153177
0.0194146
0.0239847
0.029145
0.0356448
0.0404983
0.0522226
-0.071101
-0.0406801
-0.0339964
-0.0260904
-0.0198733
-0.0147901
-0.0103501
-0.00633628
-0.00260103
0.000970796
0.00447591
0.0080095
0.0116678
0.0155846
0.019962
0.0251724
0.0317025
0.0417561
0.0516677
0.0878914
)
;

boundaryField
{
    movingWall
    {
        type            zeroGradient;
    }
    fixedWalls
    {
        type            zeroGradient;
    }
    frontAndBack
    {
        type            empty;
    }
}


// ************************************************************************* //
