/*--------------------------------*- C++ -*----------------------------------*\
  =========                 |
  \\      /  F ield         | OpenFOAM: The Open Source CFD Toolbox
   \\    /   O peration     | Website:  https://openfoam.org
    \\  /    A nd           | Version:  10
     \\/     M anipulation  |
\*---------------------------------------------------------------------------*/
FoamFile
{
    format      ascii;
    class       volVectorField;
    location    "4.475";
    object      U;
}
// * * * * * * * * * * * * * * * * * * * * * * * * * * * * * * * * * * * * * //

dimensions      [0 1 -1 0 0 0 0];

internalField   nonuniform List<vector> 
496
(
(9.92757 0.0750132 0)
(9.95934 -0.184496 0)
(10.2119 -0.100456 0)
(10.8028 -0.232183 0)
(10.0296 0.543768 0)
(9.7883 -1.30388 0)
(10.2499 -0.210042 0)
(10.7695 -1.16155 0)
(10.8358 1.31402 0)
(8.99896 -2.95944 0)
(11.3589 -0.234589 0)
(10.6034 -4.16483 0)
(11.6557 1.84738 0)
(8.36728 -2.8879 0)
(12.673 1.15 0)
(10.1168 -6.77556 0)
(11.4493 -0.233955 3.06057e-18)
(12.1531 -0.211786 -4.93503e-19)
(11.6311 -0.331677 -7.24687e-19)
(12.4028 0.217287 1.92425e-18)
(13.1184 -2.20361 -2.33953e-18)
(13.0358 -0.584733 -1.43026e-18)
(13.2951 -5.10338 -3.47624e-17)
(15.3094 -4.61733 6.42107e-17)
(12.7302 -0.221176 0)
(13.0191 -0.20998 0)
(13.2333 -0.191865 0)
(13.2257 -0.0612739 0)
(13.0401 0.19253 0)
(13.4102 -0.1358 0)
(13.7493 -0.501538 0)
(13.8655 -0.571061 0)
(12.6502 0.586711 0)
(12.7973 0.828465 0)
(12.9702 0.5751 0)
(13.6374 0.255732 0)
(11.2904 -2.44264 0)
(9.04216 -1.78918 0)
(9.20061 -1.62039 0)
(6.83649 0.337497 0)
(13.3651 -0.00871833 0)
(13.3097 0.10203 0)
(13.4338 0.110047 0)
(13.4139 0.243076 0)
(13.5516 0.274274 0)
(13.4419 0.363923 0)
(13.3482 0.351134 0)
(13.0496 0.38142 0)
(12.8173 0.387762 0)
(12.5742 0.403647 0)
(12.4288 0.434971 0)
(12.3224 0.413713 0)
(12.1967 0.447066 0)
(12.1038 0.414056 0)
(11.986 0.465855 0)
(11.8931 0.427279 0)
(11.7392 0.481498 0)
(11.515 0.451429 0)
(11.2968 0.512562 0)
(11.0047 0.49644 0)
(10.8116 0.5425 0)
(10.4347 0.501343 0)
(10.3506 0.519569 0)
(10.0615 0.435712 0)
(10.2476 0.384335 0)
(10.0623 0.297745 0)
(10.3773 0.20673 0)
(10.2492 0.1921 0)
(10.599 0.0921837 0)
(10.6279 0.150724 0)
(10.9145 0.0556961 0)
(11.1352 0.145257 0)
(11.1624 0.102531 0)
(11.4792 0.185569 0)
(11.1412 0.256013 0)
(11.4011 0.279919 0)
(10.792 0.44109 0)
(10.7158 0.393081 0)
(10.138 0.605346 0)
(9.61532 0.534831 0)
(13.9975 -0.588549 0)
(13.9877 -0.503624 0)
(14.1441 -0.418083 0)
(14.224 -0.215794 0)
(14.3256 -0.125499 0)
(14.2691 -0.0431035 0)
(14.1433 -0.0470599 0)
(13.9708 -0.0421579 0)
(13.7514 -0.0636153 0)
(13.6171 -0.0871752 0)
(13.456 -0.122037 0)
(13.3975 -0.17727 0)
(13.2906 -0.20974 0)
(13.2346 -0.241832 0)
(13.1725 -0.221911 0)
(13.0944 -0.177617 0)
(13.0377 -0.0830781 0)
(12.8337 -0.00217541 0)
(12.7269 0.0677653 0)
(12.442 0.0148472 0)
(12.325 -0.0204229 0)
(12.0068 -0.164091 0)
(11.922 -0.186635 0)
(11.7042 -0.290752 0)
(11.7703 -0.326374 0)
(11.7303 -0.359378 0)
(11.8607 -0.479057 0)
(11.9357 -0.361223 0)
(12.0458 -0.520021 0)
(12.2694 -0.334527 0)
(12.3315 -0.511471 0)
(12.6995 -0.331901 0)
(12.6634 -0.418971 0)
(13.087 -0.245283 0)
(12.9422 -0.113692 0)
(13.179 0.0799137 0)
(12.9135 0.358575 0)
(12.7175 0.33314 0)
(12.5875 0.4354 0)
(11.9605 -0.0218043 0)
(13.6192 -0.116645 0)
(13.9579 -0.114018 0)
(13.8675 -0.0824913 0)
(14.2355 0.188702 0)
(13.9789 0.199265 0)
(14.1439 0.538897 0)
(13.9536 0.573899 0)
(13.9506 0.773718 0)
(13.8333 0.80151 0)
(13.6944 0.809875 0)
(13.7015 0.806842 0)
(13.4727 0.614404 0)
(13.5888 0.593108 0)
(13.278 0.363646 0)
(13.58 0.465814 0)
(13.3108 0.356747 0)
(13.7337 0.59377 0)
(13.4704 0.630998 0)
(13.8082 0.918298 0)
(13.4707 0.929439 0)
(13.6507 1.0475 0)
(13.3253 0.979696 0)
(13.3649 0.870136 0)
(13.2003 0.700427 0)
(13.0981 0.337217 0)
(13.0906 0.130163 0)
(12.7614 -0.2925 0)
(12.8979 -0.212656 0)
(12.3666 -0.526532 0)
(12.5295 -0.229133 0)
(12.1041 -0.442963 0)
(12.3029 -0.176427 0)
(12.212 -0.265642 0)
(12.3901 -0.213099 0)
(12.7277 0.132338 0)
(12.9657 -0.0111297 0)
(13.5631 0.835908 0)
(13.6347 0.608711 0)
(13.9763 1.46371 0)
(13.3394 1.39001 0)
(8.83076 -0.432751 0)
(7.37826 -0.205898 0)
(8.62879 -0.291236 0)
(8.25676 -0.555057 0)
(7.82075 -0.477433 0)
(8.88091 -0.516716 0)
(7.70653 -0.2338 0)
(8.86098 0.0682365 0)
(7.90267 0.124676 0)
(8.76538 0.283802 0)
(8.16356 0.252588 0)
(8.36742 0.195956 0)
(8.14152 0.077814 0)
(8.03621 0.0487636 0)
(8.64402 -0.0681716 0)
(8.31393 -0.187915 0)
(9.44344 -0.123818 0)
(9.34403 -0.109294 0)
(10.474 0.0441316 0)
(10.2861 0.0623711 0)
(11.208 0.118573 0)
(10.9644 0.0459952 0)
(11.2593 0.0383473 0)
(10.8703 -0.0235287 0)
(10.2971 0.0341597 0)
(9.68628 0.105315 0)
(8.49159 0.230459 0)
(8.13281 0.325708 0)
(6.76899 0.226193 0)
(7.17297 0.195582 0)
(6.31973 -0.085691 0)
(7.10868 -0.207445 0)
(6.97643 -0.567216 0)
(7.53985 -0.642125 0)
(8.53646 -0.663541 0)
(8.66669 -0.737646 0)
(10.3796 -0.315392 0)
(10.6104 -0.233028 0)
(11.8547 0.338619 0)
(12.6712 0.37843 0)
(12.5022 0.400791 -1.06409e-17)
(7.88752 -0.619861 -1.79411e-17)
(11.6193 -0.192969 3.13932e-17)
(5.13679 -4.47996 -8.49634e-17)
(11.5891 -0.548161 1.06771e-17)
(8.57132 0.802636 1.81924e-17)
(10.8158 0.0855491 -3.16893e-17)
(5.31032 4.68635 8.48804e-17)
(-8.93363 1.73296 0)
(10.582 5.01578 0)
(-11.9057 0.0476227 0)
(7.09194 -0.966337 0)
(2.42569 -4.4798 3.64907e-17)
(-2.27765 2.57728 0)
(5.72782 -0.481724 0)
(-1.54744 -4.12719 0)
(-1.47452 0.0222866 0)
(-0.482513 -1.34706 0)
(1.21469 1.31782 0)
(-2.02727 -0.430097 0)
(0.883324 0.932731 0)
(-1.90173 1.02474 0)
(-1.00324 0.0962175 0)
(0.322286 0.643055 0)
(-0.173927 0.671583 0)
(0.43082 1.00351 0)
(0.401811 0.819864 0)
(0.85066 0.344018 0)
(0.725423 0.221084 0)
(1.66383 0.127204 0)
(1.93253 -0.283198 0)
(2.08837 -0.553819 0)
(2.95576 -0.249523 0)
(3.29142 -0.1886 0)
(3.55339 -0.183808 0)
(3.81795 0.15755 0)
(4.11949 0.425652 0)
(3.98461 0.609656 0)
(4.00958 0.881002 0)
(3.70231 1.08094 0)
(3.50794 1.06236 0)
(3.4845 1.18149 0)
(3.21769 0.975096 0)
(3.27963 0.68543 0)
(3.36203 0.205305 0)
(3.3785 -0.194455 0)
(4.03935 -0.468266 0)
(3.85906 -0.900119 0)
(4.09335 -1.19855 0)
(4.8811 -1.31219 0)
(4.49273 -1.50306 0)
(5.56476 -1.5408 0)
(5.99278 -1.23135 0)
(6.33484 -0.947025 0)
(7.35915 -0.0462832 0)
(6.65836 0.549911 0)
(0.490102 2.86187 0)
(0.140605 -0.789822 0)
(-1.19471 -0.268703 0)
(1.25446 -0.764607 0)
(-1.75815 -0.164621 0)
(1.47088 -0.187982 0)
(0.18578 -1.24401 0)
(0.838902 -0.791755 0)
(0.0906267 -0.112739 0)
(1.07001 -0.188243 0)
(1.91379 -0.390879 0)
(2.31214 -0.50693 0)
(1.94525 -0.444933 0)
(2.88847 -0.790068 0)
(2.95925 -0.895493 0)
(2.55704 -0.872817 0)
(2.96718 -0.910232 0)
(3.28163 -0.846722 0)
(2.85106 -0.457117 0)
(3.22383 -0.084176 0)
(3.37983 0.180267 0)
(3.53942 0.408106 0)
(3.55545 0.637778 0)
(4.05414 0.789112 0)
(4.12948 0.773514 0)
(4.58833 0.756125 0)
(5.17794 0.571617 0)
(5.52923 0.294259 0)
(5.85666 0.0604646 0)
(6.28069 -0.2443 0)
(6.54659 -0.604616 0)
(6.56478 -0.705057 0)
(6.12461 -0.768523 0)
(6.02238 -0.93805 0)
(5.2506 -1.14472 0)
(4.7058 -1.44798 0)
(4.3764 -1.22964 0)
(4.04769 -0.841961 0)
(4.23109 0.296131 0)
(4.17794 0.660458 0)
(12.9707 -1.55101 0)
(7.37795 2.57172 0)
(13.9185 -0.821419 0)
(9.5273 6.52993 0)
(11.1358 -1.49192 0)
(8.73346 3.07699 0)
(11.3332 -0.078438 0)
(10.4459 4.26353 0)
(10.1655 -0.540154 0)
(9.66963 1.35776 0)
(10.3162 0.332392 0)
(10.7635 1.19724 0)
(9.99941 -0.0914956 0)
(9.8895 0.193194 0)
(10.2103 0.138637 0)
(10.8057 0.188259 0)
(14.1029 5.29388 3.53173e-17)
(15.0749 4.44157 -6.57251e-17)
(12.9057 1.95173 0)
(12.7372 0.566047 0)
(11.669 0.482111 0)
(12.4611 -0.108582 0)
(11.4919 0.240975 0)
(12.2251 0.160544 0)
(12.3409 2.63797 0)
(11.2348 2.05484 0)
(8.35044 0.868666 0)
(12.2397 0.834698 0)
(12.235 -1.11701 0)
(12.2976 -1.00665 0)
(12.6962 -0.484791 0)
(13.0728 -0.575582 0)
(12.9944 -0.05534 0)
(13.4757 0.311555 0)
(13.6677 0.604336 0)
(13.8147 0.704158 0)
(12.736 0.187675 0)
(13.0833 0.118135 0)
(13.206 0.0384564 0)
(13.3091 -0.0500426 0)
(9.95213 1.02152 0)
(10.931 0.695131 0)
(10.4038 0.643979 0)
(10.7608 0.400415 0)
(10.5756 0.521683 0)
(10.0984 0.275598 0)
(10.3828 0.186993 0)
(10.1399 0.115064 0)
(10.369 0.18386 0)
(9.79821 0.130568 0)
(10.5108 -0.00955478 0)
(10.42 -0.0857086 0)
(10.7508 -0.202928 0)
(10.9494 -0.300561 0)
(10.8223 -0.425026 0)
(11.0519 -0.418268 0)
(10.1886 -0.355654 0)
(10.3095 -0.283267 0)
(9.33474 -0.172949 0)
(9.54809 -0.0732975 0)
(8.7699 0.0785672 0)
(9.20394 0.203633 0)
(8.81234 0.385451 0)
(9.31248 0.45473 0)
(9.564 0.459643 0)
(9.97332 0.42955 0)
(10.6737 0.223717 0)
(11.0594 0.0630358 0)
(11.827 -0.182433 0)
(12.0012 -0.390287 0)
(12.7679 -0.596043 0)
(12.9313 -0.820247 0)
(13.7315 -0.784585 0)
(14.2925 -0.77026 0)
(14.7944 -0.444562 0)
(14.296 -0.446331 0)
(12.2276 -0.395734 0)
(10.47 -0.414907 0)
(8.31314 0.185154 0)
(7.78464 0.714287 0)
(13.425 -0.424525 0)
(13.3685 -0.354982 0)
(13.5709 -0.416606 0)
(13.4344 -0.386736 0)
(13.6009 -0.475977 0)
(13.4312 -0.355593 0)
(13.4913 -0.452606 0)
(13.4368 -0.394928 0)
(13.4543 -0.529167 0)
(13.4414 -0.482309 0)
(13.3663 -0.622111 0)
(13.4555 -0.749392 0)
(13.2051 -0.840352 0)
(13.24 -1.0041 0)
(12.8503 -0.923269 0)
(12.8807 -0.925642 0)
(12.5451 -0.59417 0)
(12.6317 -0.410684 0)
(12.4008 -0.0588992 0)
(12.492 0.0452611 0)
(12.4147 0.241188 0)
(12.5831 0.199926 0)
(12.6944 0.245949 0)
(12.8292 0.139773 0)
(13.045 -0.0152894 0)
(13.1514 -0.188734 0)
(13.4052 -0.470794 0)
(13.4015 -0.644913 0)
(13.3512 -0.989576 0)
(12.9659 -1.02975 0)
(12.4938 -1.34526 0)
(11.7273 -1.32899 0)
(10.962 -1.60603 0)
(10.3052 -1.4206 0)
(9.80646 -0.831159 0)
(9.8443 0.0157233 0)
(9.50031 1.30776 0)
(10.0373 1.38156 0)
(9.736 1.91459 0)
(10.2711 1.26058 0)
(13.8802 0.640139 0)
(13.8906 0.582903 0)
(13.9044 0.452522 0)
(13.8923 0.423073 0)
(13.9502 0.297737 0)
(13.8643 0.31525 0)
(13.8874 0.236486 0)
(13.7433 0.24917 0)
(13.7896 0.141811 0)
(13.5911 0.0999731 0)
(13.5688 0.0286723 0)
(13.3114 -0.0644864 0)
(13.2163 -0.0732005 0)
(12.9363 -0.12585 0)
(12.7865 -0.0351473 0)
(12.5346 -0.0260471 0)
(12.3682 0.0924162 0)
(12.1946 0.143335 0)
(12.1491 0.243827 0)
(12.2125 0.259925 0)
(12.334 0.301011 0)
(12.5362 0.319981 0)
(12.6576 0.299512 0)
(12.7905 0.269847 0)
(12.8454 0.152639 0)
(12.8879 0.0867323 0)
(12.8385 -0.0186798 0)
(12.6907 -0.0679548 0)
(12.5569 -0.0821072 0)
(12.2848 0.0101678 0)
(12.2546 0.116026 0)
(11.9594 0.268282 0)
(11.8611 0.203172 0)
(11.2207 0.117595 0)
(10.8042 0.0788039 0)
(10.5361 0.170126 0)
(10.4124 0.690748 0)
(11.0074 0.684977 0)
(11.0978 1.0256 0)
(12.0702 0.694302 0)
(13.3131 -0.189419 0)
(13.3907 -0.248878 0)
(13.3635 -0.349946 0)
(13.3959 -0.339962 0)
(13.3838 -0.43044 0)
(13.3641 -0.386663 0)
(13.3024 -0.430083 0)
(13.1493 -0.382521 0)
(13.0846 -0.428723 0)
(12.8667 -0.434842 0)
(12.7931 -0.446465 0)
(12.4771 -0.468669 0)
(12.3727 -0.435215 0)
(11.9648 -0.4606 0)
(11.82 -0.415916 0)
(11.4004 -0.459391 0)
(11.3832 -0.410694 0)
(11.1051 -0.360615 0)
(11.1182 -0.248827 0)
(10.9958 -0.232656 0)
(11.2068 -0.182446 0)
(11.2954 -0.180616 0)
(11.4534 -0.158204 0)
(11.4468 -0.184899 0)
(11.4633 -0.231238 0)
(11.4198 -0.296696 0)
(11.3398 -0.373987 0)
(11.1588 -0.412082 0)
(10.8899 -0.51998 0)
(10.512 -0.561824 0)
(10.2565 -0.719133 0)
(9.83429 -0.685385 0)
(9.75959 -0.714257 0)
(9.29621 -0.502861 0)
(9.39992 -0.250862 0)
(9.17614 -0.100966 0)
(9.65006 0.17239 0)
(10.1113 0.122445 0)
(10.6132 0.270234 0)
(11.5017 0.132666 0)
)
;

boundaryField
{
    inlet
    {
        type            fixedValue;
        value           uniform (10 0 0);
    }
    outlet
    {
        type            zeroGradient;
    }
    obstacle
    {
        type            noSlip;
    }
    upperWall
    {
        type            noSlip;
    }
    lowerWall
    {
        type            noSlip;
    }
    frontAndBack
    {
        type            empty;
    }
}


// ************************************************************************* //
