/*--------------------------------*- C++ -*----------------------------------*\
  =========                 |
  \\      /  F ield         | OpenFOAM: The Open Source CFD Toolbox
   \\    /   O peration     | Website:  https://openfoam.org
    \\  /    A nd           | Version:  10
     \\/     M anipulation  |
\*---------------------------------------------------------------------------*/
FoamFile
{
    format      ascii;
    class       volVectorField;
    location    "5.925";
    object      U;
}
// * * * * * * * * * * * * * * * * * * * * * * * * * * * * * * * * * * * * * //

dimensions      [0 1 -1 0 0 0 0];

internalField   nonuniform List<vector> 
496
(
(9.91351 0.0838196 0)
(9.97038 -0.191084 0)
(10.1847 -0.0988959 0)
(10.8085 -0.219917 0)
(9.96537 0.531457 0)
(9.89198 -1.3211 0)
(10.1936 -0.288337 0)
(10.8856 -1.14805 0)
(10.7307 1.38519 0)
(9.2135 -3.02916 0)
(11.1794 -0.145802 0)
(10.9004 -4.1787 0)
(11.7618 1.65399 0)
(8.33551 -2.76811 0)
(12.5667 0.956387 0)
(10.3472 -6.76075 0)
(11.4361 -0.220042 2.8511e-18)
(12.1855 -0.172856 -2.58417e-19)
(11.6263 -0.437333 -9.81705e-19)
(12.5426 0.242105 2.18209e-18)
(13.0121 -2.12021 -1.87274e-18)
(13.3484 -0.473622 -1.92342e-18)
(12.9504 -5.25959 -3.75509e-17)
(15.7789 -4.57892 6.65323e-17)
(12.7234 -0.190938 0)
(13.0115 -0.156723 0)
(13.1723 -0.106685 0)
(13.1769 0.0145602 0)
(13.1017 0.132361 0)
(13.5195 -0.122545 0)
(13.756 -0.583961 0)
(13.8809 -0.630665 0)
(12.6279 0.751498 0)
(12.8927 1.1488 0)
(13.0054 0.696403 0)
(13.4222 0.343847 0)
(10.4655 -2.51305 0)
(10.1607 -1.677 0)
(7.55915 -1.69736 0)
(8.36006 -0.120033 0)
(13.2387 0.103899 0)
(13.2289 0.190979 0)
(13.272 0.272316 0)
(13.242 0.287814 0)
(13.2344 0.342822 0)
(13.1788 0.288346 0)
(13.0899 0.311225 0)
(13.0095 0.269793 0)
(12.9269 0.301666 0)
(12.836 0.288102 0)
(12.7446 0.299183 0)
(12.5552 0.294688 0)
(12.4526 0.280689 0)
(12.2 0.29631 0)
(12.1845 0.26092 0)
(11.9172 0.272556 0)
(11.9204 0.216456 0)
(11.6402 0.232161 0)
(11.683 0.187858 0)
(11.4954 0.187376 0)
(11.5505 0.146679 0)
(11.4623 0.146835 0)
(11.5066 0.151338 0)
(11.4701 0.174992 0)
(11.4145 0.197791 0)
(11.2418 0.211438 0)
(11.0171 0.236189 0)
(10.7389 0.258811 0)
(10.5331 0.275504 0)
(10.3125 0.271041 0)
(10.2382 0.247023 0)
(10.1466 0.180194 0)
(10.2065 0.154046 0)
(10.2531 0.0817044 0)
(10.4765 0.104446 0)
(10.5553 0.0752541 0)
(10.8328 0.11743 0)
(10.6359 0.171943 0)
(10.8152 0.197494 0)
(10.2758 0.276996 0)
(13.9013 -0.656407 0)
(13.968 -0.43058 0)
(13.9288 -0.326629 0)
(13.9562 -0.222889 0)
(13.8801 -0.12807 0)
(13.8644 -0.1606 0)
(13.8119 -0.0600661 0)
(13.7824 -0.125609 0)
(13.7775 -0.00258255 0)
(13.6813 -0.055756 0)
(13.6754 0.0256094 0)
(13.4664 0.0116776 0)
(13.4655 0.0136469 0)
(13.2078 0.0796988 0)
(13.2431 0.0276774 0)
(13.004 0.102233 0)
(13.0279 -0.0187083 0)
(12.8449 0.0181782 0)
(12.8474 -0.0600822 0)
(12.7657 -0.0706618 0)
(12.7738 -0.0721174 0)
(12.8246 -0.115054 0)
(12.862 -0.031576 0)
(12.9495 -0.0336603 0)
(12.9068 0.106667 0)
(12.8494 0.162401 0)
(12.6838 0.210672 0)
(12.5095 0.227778 0)
(12.3282 0.111427 0)
(12.1484 0.051166 0)
(12.0419 -0.113635 0)
(11.9254 -0.202357 0)
(11.9903 -0.293697 0)
(11.9551 -0.39158 0)
(12.2317 -0.327323 0)
(12.2145 -0.345625 0)
(12.6007 -0.135796 0)
(12.4816 -0.0841121 0)
(12.7114 0.161901 0)
(12.417 0.264144 0)
(13.8201 0.0666362 0)
(13.8778 0.237403 0)
(14.0659 0.174118 0)
(13.6946 0.150687 0)
(13.9657 0.1167 0)
(13.5766 0.116359 0)
(13.8961 0.302134 0)
(13.5842 0.172728 0)
(13.8293 0.385086 0)
(13.6585 0.273305 0)
(13.7482 0.420852 0)
(13.655 0.381445 0)
(13.5376 0.371259 0)
(13.5969 0.489715 0)
(13.356 0.381206 0)
(13.4565 0.577794 0)
(13.1529 0.345749 0)
(13.2667 0.470095 0)
(13.0376 0.193262 0)
(13.0859 0.164248 0)
(12.9795 0.0108608 0)
(12.9729 -0.042812 0)
(13.0551 0.0112176 0)
(13.1108 0.0267159 0)
(13.3326 0.254096 0)
(13.3432 0.368145 0)
(13.4281 0.596823 0)
(13.3235 0.728066 0)
(13.2488 0.825147 0)
(13.0797 0.719143 0)
(13.0393 0.597343 0)
(12.8131 0.163937 0)
(12.8039 0.0171807 0)
(12.4947 -0.389469 0)
(12.6647 -0.280686 0)
(12.4977 -0.404676 0)
(12.7519 -0.232837 0)
(12.7656 -0.0146289 0)
(13.0217 0.118973 0)
(13.1744 0.591426 0)
(8.17982 -0.00435587 0)
(9.85937 0.0743498 0)
(8.68594 -0.341284 0)
(8.68234 -0.0892266 0)
(8.3347 0.00282449 0)
(9.10791 -0.0907326 0)
(8.90876 0.0496714 0)
(8.76945 0.0229721 0)
(9.23235 0.109969 0)
(8.9469 0.159358 0)
(9.86537 0.0903625 0)
(9.10657 0.0199033 0)
(9.82978 0.0966578 0)
(9.58409 0.0763607 0)
(9.72997 0.172979 0)
(9.97324 0.183554 0)
(9.34544 0.255582 0)
(10.0134 0.2859 0)
(8.7145 0.213695 0)
(9.447 0.195922 0)
(8.3628 0.0790361 0)
(8.94808 0.0177372 0)
(8.48078 -0.11882 0)
(9.05048 -0.121333 0)
(9.34535 -0.18694 0)
(9.57156 -0.154915 0)
(10.2782 0.00836077 0)
(10.4038 0.081148 0)
(10.9031 0.186452 0)
(10.628 0.2253 0)
(10.7656 0.219138 0)
(9.93155 0.22126 0)
(9.81456 0.184573 0)
(8.83556 0.105102 0)
(8.9109 0.0538989 0)
(8.4879 -0.170767 0)
(8.68598 -0.255764 0)
(9.21886 -0.275587 0)
(9.28915 -0.321023 0)
(10.2697 -0.0316516 0)
(12.5841 0.52604 -1.0578e-17)
(7.72067 -0.754079 -1.78404e-17)
(11.8045 -0.135181 3.12125e-17)
(4.83401 -4.61009 -8.43406e-17)
(11.6388 -0.615109 1.06486e-17)
(8.53536 0.838784 1.80873e-17)
(10.882 -0.0270017 -3.15488e-17)
(5.34054 4.64148 8.49564e-17)
(-8.72758 2.15974 0)
(11.1365 4.94654 0)
(-11.6899 -0.00989418 0)
(6.49283 -3.43351 0)
(4.63481 -4.42352 3.50495e-17)
(-4.65387 2.57712 0)
(7.74672 -1.12618 0)
(-2.07687 -2.28885 0)
(-2.15669 0.100285 0)
(2.75447 1.95526 0)
(-3.72511 -1.06972 0)
(1.37264 -0.789967 0)
(1.58617 0.0223249 0)
(-1.89008 0.972542 0)
(0.923742 -0.320225 0)
(0.140151 -0.35173 0)
(0.632777 0.133819 0)
(1.14134 0.631569 0)
(0.709049 0.284132 0)
(0.597244 0.168322 0)
(1.15165 0.249574 0)
(1.2837 0.372996 0)
(1.30713 0.310898 0)
(1.63439 0.555231 0)
(1.61267 0.622783 0)
(1.88021 0.657731 0)
(1.81258 0.444254 0)
(1.84045 0.390505 0)
(2.50224 0.2336 0)
(1.9232 -0.240816 0)
(2.65102 -0.26766 0)
(3.22686 -0.327115 0)
(2.88029 -0.422923 0)
(3.59315 -0.279914 0)
(3.8685 0.0303814 0)
(3.92345 0.317411 0)
(3.8834 0.457968 0)
(4.22544 0.75682 0)
(3.66314 0.875153 0)
(4.07328 0.738225 0)
(3.51224 0.614295 0)
(3.8586 0.206935 0)
(3.95858 -0.0846077 0)
(3.82123 -0.490926 0)
(4.30539 -0.618069 0)
(4.45982 -0.692571 0)
(4.74355 -0.732372 0)
(5.17153 -0.104646 0)
(-1.45151 1.30942 0)
(0.733738 0.668799 0)
(0.538776 0.19892 0)
(0.761711 -2.31844 0)
(-2.33197 1.84098 0)
(1.05601 -0.215979 0)
(0.387214 -1.5678 0)
(0.103148 -0.103075 0)
(-0.366908 -0.237775 0)
(0.792551 -0.279087 0)
(0.607102 -0.145594 0)
(1.15918 -0.25816 0)
(1.18947 -0.378429 0)
(1.63822 -0.220292 0)
(1.46666 -0.11145 0)
(1.63199 0.0605704 0)
(2.14359 0.0751998 0)
(2.56602 -0.00854952 0)
(2.67144 0.0933478 0)
(2.81323 -0.100854 0)
(3.49714 -0.338149 0)
(3.08138 -0.346851 0)
(3.46856 -0.76392 0)
(3.65269 -0.923644 0)
(3.06654 -0.63673 0)
(3.47795 -0.70204 0)
(3.42624 -0.425184 0)
(3.35584 -1.27576e-05 0)
(3.91553 0.162099 0)
(3.52154 0.537754 0)
(4.51109 0.530124 0)
(4.46933 0.449573 0)
(4.54851 0.451004 0)
(5.43126 -0.0126097 0)
(4.71344 -0.261622 0)
(5.47722 -0.623072 0)
(4.74962 -0.830358 0)
(4.97184 -1.00943 0)
(4.5449 -0.998863 0)
(4.56983 -0.405413 0)
(12.768 -1.56054 0)
(7.54831 2.57065 0)
(13.7049 -0.840889 0)
(9.58427 6.45699 0)
(11.0505 -1.48436 0)
(8.8287 3.03639 0)
(11.2877 -0.070054 0)
(10.4765 4.19642 0)
(10.1543 -0.548995 0)
(9.68396 1.33285 0)
(10.296 0.329473 0)
(10.7437 1.16693 0)
(9.97622 -0.0957748 0)
(9.90871 0.188757 0)
(10.1613 0.140204 0)
(10.7753 0.193067 0)
(14.0109 5.27033 3.3691e-17)
(14.9724 4.37108 -6.39918e-17)
(12.8817 1.92971 0)
(12.7178 0.568304 0)
(11.6392 0.45816 0)
(12.4067 -0.10547 0)
(11.442 0.226141 0)
(12.1752 0.189838 0)
(12.4078 2.68067 0)
(10.7287 1.95749 0)
(8.63469 0.844175 0)
(11.644 0.871194 0)
(12.2516 -1.07046 0)
(12.3248 -0.862454 0)
(12.7181 -0.501218 0)
(13.1431 -0.430927 0)
(12.9787 -0.0822148 0)
(13.3871 0.337178 0)
(13.654 0.539616 0)
(13.7152 0.714993 0)
(12.6982 0.16031 0)
(13.0166 0.163506 0)
(13.193 0.0185157 0)
(13.2464 -0.00765779 0)
(9.84639 0.509359 0)
(10.9145 0.353181 0)
(9.63143 0.282623 0)
(10.8974 0.142958 0)
(10.1231 0.470661 0)
(9.6578 0.115967 0)
(10.1215 -0.014621 0)
(10.4367 0.0134958 0)
(9.74452 -0.0821688 0)
(10.3959 -0.142801 0)
(9.54956 -0.0777906 0)
(10.0974 -0.0939937 0)
(9.68128 -0.069447 0)
(9.85824 -0.061728 0)
(9.96473 -0.0146784 0)
(9.55894 0.0722935 0)
(10.1714 0.0709945 0)
(9.73733 0.0967435 0)
(10.7122 0.0481678 0)
(10.2735 0.0347705 0)
(11.2061 -0.105852 0)
(10.9086 -0.171418 0)
(11.3527 -0.268687 0)
(11.1541 -0.25574 0)
(10.8836 -0.214873 0)
(10.5326 -0.109613 0)
(10.0378 -0.0746209 0)
(9.94947 0.0414708 0)
(9.39591 0.173601 0)
(9.77582 0.295287 0)
(9.44604 0.363762 0)
(10.3566 0.250175 0)
(10.2059 0.247975 0)
(11.157 0.0140318 0)
(11.1847 -0.0412476 0)
(11.7953 -0.153172 0)
(11.677 -0.175318 0)
(11.5065 -0.124066 0)
(11.1691 -0.143878 0)
(10.1706 -0.054729 0)
(13.417 -0.403059 0)
(13.5315 -0.313237 0)
(13.4457 -0.265035 0)
(13.5315 -0.33147 0)
(13.27 -0.280927 0)
(13.4173 -0.341574 0)
(13.1468 -0.275221 0)
(13.424 -0.512764 0)
(13.1598 -0.352994 0)
(13.3399 -0.528263 0)
(13.1223 -0.327202 0)
(13.1439 -0.341994 0)
(13.0928 -0.293394 0)
(13.0224 -0.206303 0)
(13.1899 -0.343846 0)
(12.9674 -0.139365 0)
(13.2193 -0.342444 0)
(12.985 -0.180791 0)
(13.3099 -0.474059 0)
(13.0091 -0.454698 0)
(13.18 -0.710449 0)
(12.7545 -0.749621 0)
(12.8173 -0.797319 0)
(12.4494 -0.716202 0)
(12.5167 -0.516205 0)
(12.28 -0.273432 0)
(12.2852 0.0162914 0)
(12.2481 0.134174 0)
(12.3356 0.246958 0)
(12.4798 0.125481 0)
(12.5741 0.0853295 0)
(12.8374 -0.233254 0)
(12.8936 -0.333162 0)
(13.0373 -0.722587 0)
(12.8487 -0.766355 0)
(12.7715 -1.03364 0)
(12.5262 -0.832678 0)
(12.4111 -0.64874 0)
(12.306 -0.23781 0)
(12.1302 0.192483 0)
(13.8604 0.559137 0)
(13.8266 0.51716 0)
(13.8654 0.346457 0)
(13.7489 0.29579 0)
(13.7568 0.253819 0)
(13.6575 0.206176 0)
(13.6139 0.240335 0)
(13.5509 0.145281 0)
(13.522 0.179603 0)
(13.4967 0.0718783 0)
(13.4271 0.138543 0)
(13.3836 0.102294 0)
(13.2886 0.163675 0)
(13.2723 0.152509 0)
(13.2535 0.13052 0)
(13.264 0.113616 0)
(13.2371 0.0962731 0)
(13.1848 0.0785131 0)
(13.1471 0.0166069 0)
(13.0127 -0.0316103 0)
(12.9365 -0.0679704 0)
(12.7214 -0.0255719 0)
(12.6378 0.0108644 0)
(12.3721 0.113517 0)
(12.3301 0.150592 0)
(12.1508 0.233715 0)
(12.2998 0.256602 0)
(12.247 0.335152 0)
(12.49 0.27757 0)
(12.4751 0.242326 0)
(12.7138 0.104499 0)
(12.6554 -0.00759078 0)
(12.7105 -0.0807924 0)
(12.5381 -0.186019 0)
(12.3725 -0.0797473 0)
(12.1956 -0.103431 0)
(11.9129 0.11425 0)
(11.8786 0.148371 0)
(11.6545 0.305523 0)
(11.796 0.35229 0)
(13.3131 -0.164291 0)
(13.3022 -0.231591 0)
(13.3579 -0.330236 0)
(13.2818 -0.372271 0)
(13.2974 -0.352412 0)
(13.1333 -0.406176 0)
(13.1251 -0.334782 0)
(12.9166 -0.391314 0)
(12.9332 -0.333151 0)
(12.762 -0.388808 0)
(12.7754 -0.347952 0)
(12.604 -0.347973 0)
(12.5437 -0.327368 0)
(12.4106 -0.28606 0)
(12.3462 -0.318221 0)
(12.3172 -0.285653 0)
(12.2107 -0.337173 0)
(12.1548 -0.303089 0)
(11.9923 -0.359201 0)
(11.8801 -0.340462 0)
(11.6757 -0.379758 0)
(11.4485 -0.374435 0)
(11.2743 -0.405941 0)
(11.0428 -0.389251 0)
(11.0076 -0.34913 0)
(10.8521 -0.285755 0)
(10.9955 -0.223427 0)
(10.9186 -0.190263 0)
(11.1501 -0.167384 0)
(11.0241 -0.187441 0)
(11.2318 -0.223118 0)
(10.9997 -0.291448 0)
(11.0726 -0.314957 0)
(10.6477 -0.382155 0)
(10.507 -0.371232 0)
(10.1139 -0.421667 0)
(9.96008 -0.348003 0)
(9.88874 -0.311204 0)
(9.78496 -0.216723 0)
(10.0004 -0.121513 0)
)
;

boundaryField
{
    inlet
    {
        type            fixedValue;
        value           uniform (10 0 0);
    }
    outlet
    {
        type            zeroGradient;
    }
    obstacle
    {
        type            noSlip;
    }
    upperWall
    {
        type            noSlip;
    }
    lowerWall
    {
        type            noSlip;
    }
    frontAndBack
    {
        type            empty;
    }
}


// ************************************************************************* //
