/*--------------------------------*- C++ -*----------------------------------*\
  =========                 |
  \\      /  F ield         | OpenFOAM: The Open Source CFD Toolbox
   \\    /   O peration     | Website:  https://openfoam.org
    \\  /    A nd           | Version:  10
     \\/     M anipulation  |
\*---------------------------------------------------------------------------*/
FoamFile
{
    format      ascii;
    class       volVectorField;
    location    "6.575";
    object      U;
}
// * * * * * * * * * * * * * * * * * * * * * * * * * * * * * * * * * * * * * //

dimensions      [0 1 -1 0 0 0 0];

internalField   nonuniform List<vector> 
400
(
(-0.000115362 0.000105462 0)
(-0.000927329 0.000350812 0)
(-0.00230535 0.000437199 0)
(-0.00369081 0.000459043 0)
(-0.00509453 0.000463754 0)
(-0.00647685 0.000465071 0)
(-0.00781756 0.000462204 0)
(-0.00909233 0.000450176 0)
(-0.0102648 0.000422849 0)
(-0.0112851 0.000373412 0)
(-0.0120884 0.000294777 0)
(-0.0125958 0.00018058 0)
(-0.0127165 2.62542e-05 0)
(-0.0123554 -0.000170838 0)
(-0.0114282 -0.000402461 0)
(-0.00988276 -0.000648904 0)
(-0.00773659 -0.000870771 0)
(-0.00516493 -0.00100068 0)
(-0.00227414 -0.00092492 0)
(-0.000369305 -0.000416432 0)
(-0.000389254 0.00093963 0)
(-0.00208023 0.00199114 0)
(-0.00466244 0.00235312 0)
(-0.00724697 0.00242854 0)
(-0.00982944 0.0024052 0)
(-0.0123296 0.00234006 0)
(-0.0146976 0.00223545 0)
(-0.0168822 0.00207687 0)
(-0.0188187 0.00184454 0)
(-0.0204257 0.00151632 0)
(-0.0216038 0.00106941 0)
(-0.0222374 0.00048309 0)
(-0.0222008 -0.000255951 0)
(-0.0213632 -0.0011391 0)
(-0.0196118 -0.00212904 0)
(-0.0168859 -0.00314409 0)
(-0.0132327 -0.00403221 0)
(-0.00891899 -0.00453223 0)
(-0.00412577 -0.00421487 0)
(-0.000800324 -0.00220755 0)
(-0.000503705 0.00242601 0)
(-0.00258195 0.00462927 0)
(-0.00569102 0.00536587 0)
(-0.00877902 0.00549304 0)
(-0.0118459 0.00539437 0)
(-0.0147988 0.00518723 0)
(-0.0175805 0.00488188 0)
(-0.0201344 0.0044551 0)
(-0.0223902 0.00387234 0)
(-0.0242605 0.00309376 0)
(-0.0256395 0.00207818 0)
(-0.0264017 0.000789149 0)
(-0.0263981 -0.000794074 0)
(-0.0254686 -0.00265795 0)
(-0.0234698 -0.00472888 0)
(-0.0203034 -0.00684389 0)
(-0.015992 -0.00869521 0)
(-0.0108309 -0.0097443 0)
(-0.00502262 -0.00911421 0)
(-0.000972259 -0.00501889 0)
(-0.000539541 0.0039933 0)
(-0.0027807 0.00741987 0)
(-0.00612836 0.00853599 0)
(-0.0094415 0.00870398 0)
(-0.0127334 0.00852168 0)
(-0.015911 0.00816966 0)
(-0.018922 0.00766607 0)
(-0.0217156 0.00697904 0)
(-0.0242265 0.00605863 0)
(-0.0263702 0.00484466 0)
(-0.028039 0.0032726 0)
(-0.0290962 0.00128338 0)
(-0.0293731 -0.00116076 0)
(-0.0286629 -0.00406139 0)
(-0.0267466 -0.00732525 0)
(-0.0234368 -0.0107146 0)
(-0.0186718 -0.013747 0)
(-0.0127522 -0.0155353 0)
(-0.00589569 -0.014626 0)
(-0.00110584 -0.00811881 0)
(-0.000548752 0.00563687 0)
(-0.00287815 0.0103629 0)
(-0.00637532 0.0118792 0)
(-0.00983679 0.0120944 0)
(-0.0132903 0.011837 0)
(-0.0166484 0.0113552 0)
(-0.0198703 0.0106766 0)
(-0.0229176 0.00976111 0)
(-0.0257376 0.00854237 0)
(-0.0282557 0.00693595 0)
(-0.0303661 0.00484482 0)
(-0.031921 0.00217118 0)
(-0.0327223 -0.00116451 0)
(-0.0324992 -0.00520359 0)
(-0.0309213 -0.00986012 0)
(-0.0276492 -0.0148372 0)
(-0.0224491 -0.0194485 0)
(-0.0155627 -0.0223404 0)
(-0.00719732 -0.0212394 0)
(-0.00129941 -0.0117817 0)
(-0.000552438 0.00732408 0)
(-0.00295724 0.0134193 0)
(-0.0065929 0.0153611 0)
(-0.0101974 0.0156373 0)
(-0.0138133 0.0153239 0)
(-0.0173618 0.0147434 0)
(-0.0208184 0.0139354 0)
(-0.024164 0.0128531 0)
(-0.0273666 0.0114132 0)
(-0.0303716 0.00950308 0)
(-0.0330856 0.00698244 0)
(-0.0353577 0.00369149 0)
(-0.0369695 -0.000528472 0)
(-0.0375723 -0.00578075 0)
(-0.0366809 -0.0120725 0)
(-0.0337267 -0.0190875 0)
(-0.0281709 -0.0259152 0)
(-0.0200368 -0.0305721 0)
(-0.00937705 -0.0295376 0)
(-0.00163904 -0.0163257 0)
(-0.000555979 0.00905098 0)
(-0.00304229 0.0165879 0)
(-0.00682801 0.018983 0)
(-0.0105859 0.0193363 0)
(-0.0143742 0.0189907 0)
(-0.0181256 0.0183509 0)
(-0.0218366 0.0174734 0)
(-0.025515 0.0163084 0)
(-0.0291605 0.0147577 0)
(-0.0327541 0.0126787 0)
(-0.0362378 0.00987957 0)
(-0.0394842 0.00611686 0)
(-0.0422474 0.00111387 0)
(-0.0441399 -0.00537687 0)
(-0.0445253 -0.013544 0)
(-0.0424894 -0.0231665 0)
(-0.0369998 -0.0331723 0)
(-0.0275053 -0.0407924 0)
(-0.0134045 -0.0405334 0)
(-0.00233986 -0.0224074 0)
(-0.000559843 0.010823 0)
(-0.0031379 0.0198817 0)
(-0.00708858 0.0227583 0)
(-0.0110067 0.0232015 0)
(-0.0149683 0.0228449 0)
(-0.0189187 0.0221864 0)
(-0.0228808 0.021307 0)
(-0.0268972 0.0201612 0)
(-0.0310128 0.0186428 0)
(-0.0352647 0.0165849 0)
(-0.0396612 0.0137429 0)
(-0.0441391 0.00977733 0)
(-0.0484996 0.00424836 0)
(-0.0523653 -0.00336127 0)
(-0.0549845 -0.0134923 0)
(-0.0550992 -0.0262933 0)
(-0.050966 -0.0407988 0)
(-0.0407135 -0.0535444 0)
(-0.0217122 -0.0559325 0)
(-0.00403259 -0.0315206 0)
(-0.000564639 0.0126462 0)
(-0.00324703 0.023315 0)
(-0.00737691 0.026696 0)
(-0.0114535 0.0272321 0)
(-0.015573 0.0268765 0)
(-0.0196942 0.0262336 0)
(-0.0238697 0.0254192 0)
(-0.0281845 0.0244042 0)
(-0.0327421 0.0230899 0)
(-0.0376599 0.0213007 0)
(-0.0430537 0.0187542 0)
(-0.0489994 0.0150183 0)
(-0.0554616 0.00946513 0)
(-0.0621768 0.00126373 0)
(-0.0685316 -0.0104861 0)
(-0.0731871 -0.0266344 0)
(-0.073472 -0.0471282 0)
(-0.0645602 -0.0688084 0)
(-0.0391031 -0.0786849 0)
(-0.00817995 -0.0470234 0)
(-0.000573521 0.0145301 0)
(-0.00337957 0.0269038 0)
(-0.00770469 0.0308001 0)
(-0.011929 0.0314141 0)
(-0.0161725 0.0310531 0)
(-0.0204071 0.0304438 0)
(-0.0247159 0.0297493 0)
(-0.0292299 0.0289733 0)
(-0.0341202 0.0280473 0)
(-0.0396067 0.0268212 0)
(-0.0459586 0.0250187 0)
(-0.0534778 0.0221676 0)
(-0.0624448 0.0175059 0)
(-0.0730345 0.00990788 0)
(-0.0852746 -0.00214574 0)
(-0.0983672 -0.0206334 0)
(-0.108264 -0.0484023 0)
(-0.103494 -0.0856597 0)
(-0.0692476 -0.113973 0)
(-0.0163969 -0.0760196 0)
(-0.000594459 0.0164945 0)
(-0.00355923 0.0306727 0)
(-0.00810372 0.0350718 0)
(-0.0124573 0.0357193 0)
(-0.0167721 0.0353171 0)
(-0.021031 0.0347305 0)
(-0.0253458 0.0341828 0)
(-0.0298898 0.0337282 0)
(-0.0348982 0.0333584 0)
(-0.0406966 0.0329966 0)
(-0.0477339 0.0324514 0)
(-0.0566231 0.0313361 0)
(-0.0681774 0.0289542 0)
(-0.0834566 0.0241709 0)
(-0.103765 0.0150378 0)
(-0.129356 -0.00293837 0)
(-0.152358 -0.0397568 0)
(-0.14964 -0.105069 0)
(-0.104584 -0.168585 0)
(-0.0293086 -0.127276 0)
(-0.000644304 0.0185821 0)
(-0.0038336 0.03467 0)
(-0.00863864 0.0395263 0)
(-0.0130969 0.0401214 0)
(-0.017412 0.0395968 0)
(-0.0215763 0.0389752 0)
(-0.0257242 0.0385513 0)
(-0.0300581 0.0384454 0)
(-0.0348572 0.0387417 0)
(-0.0405269 0.039498 0)
(-0.0476712 0.0407187 0)
(-0.0572057 0.0423027 0)
(-0.0705101 0.0439675 0)
(-0.0896712 0.0450078 0)
(-0.117527 0.0428156 0)
(-0.153854 0.0269293 0)
(-0.183666 -0.025774 0)
(-0.174939 -0.135024 0)
(-0.128572 -0.241218 0)
(-0.0449159 -0.207742 0)
(-0.00075338 0.0208527 0)
(-0.0042788 0.0389036 0)
(-0.00941388 0.044071 0)
(-0.0139557 0.0444622 0)
(-0.0181889 0.0437055 0)
(-0.0221133 0.0429648 0)
(-0.0258822 0.0425886 0)
(-0.0297041 0.0427702 0)
(-0.0338526 0.0437064 0)
(-0.0387385 0.0456364 0)
(-0.0450095 0.0488666 0)
(-0.0537085 0.0537917 0)
(-0.0664709 0.0608447 0)
(-0.0856388 0.0696304 0)
(-0.114277 0.0753476 0)
(-0.149805 0.0584247 0)
(-0.174179 -0.0147985 0)
(-0.159131 -0.165791 0)
(-0.133293 -0.307953 0)
(-0.0523 -0.311439 0)
(-0.0010082 0.0235809 0)
(-0.00511264 0.0438796 0)
(-0.0106548 0.0492982 0)
(-0.0151837 0.0493212 0)
(-0.0191967 0.0480572 0)
(-0.0227298 0.046897 0)
(-0.0259246 0.0462836 0)
(-0.0289458 0.0464888 0)
(-0.032003 0.0478154 0)
(-0.0354006 0.0506874 0)
(-0.03962 0.0557361 0)
(-0.0454319 0.0638547 0)
(-0.0540507 0.0760888 0)
(-0.0665985 0.0914831 0)
(-0.0851257 0.10205 0)
(-0.105669 0.0812055 0)
(-0.120116 -0.00597519 0)
(-0.108196 -0.178094 0)
(-0.113559 -0.350835 0)
(-0.0407972 -0.409972 0)
(-0.00137604 0.02692 0)
(-0.00608689 0.0483173 0)
(-0.0123143 0.0531267 0)
(-0.0170058 0.052211 0)
(-0.0208872 0.0504334 0)
(-0.023911 0.049055 0)
(-0.0262903 0.0483799 0)
(-0.0281749 0.0486094 0)
(-0.0296654 0.0500663 0)
(-0.0308498 0.0532752 0)
(-0.0318684 0.0590676 0)
(-0.0328325 0.0685455 0)
(-0.0341724 0.0829259 0)
(-0.035201 0.100305 0)
(-0.0376783 0.111964 0)
(-0.0372305 0.0891264 0)
(-0.0431998 -0.000519306 0)
(-0.0378971 -0.169256 0)
(-0.0737005 -0.364362 0)
(-0.021459 -0.475768 0)
(-0.00344855 0.0299322 0)
(-0.0104765 0.0565936 0)
(-0.0161079 0.061335 0)
(-0.0199388 0.0599074 0)
(-0.0227385 0.0566777 0)
(-0.024873 0.0538377 0)
(-0.0263912 0.0518373 0)
(-0.0272359 0.0509245 0)
(-0.027264 0.0513875 0)
(-0.0262471 0.0536822 0)
(-0.0239076 0.058604 0)
(-0.0195703 0.0670917 0)
(-0.0132303 0.0802969 0)
(-0.00225901 0.0959084 0)
(0.00979241 0.106711 0)
(0.0281358 0.0860663 0)
(0.0296323 0.00455359 0)
(0.0303242 -0.14215 0)
(-0.0353262 -0.349125 0)
(-0.00297421 -0.508518 0)
(-0.00111595 0.0438137 0)
(-0.00848856 0.058895 0)
(-0.0191155 0.0598641 0)
(-0.0232751 0.0554729 0)
(-0.0267562 0.052278 0)
(-0.028373 0.0500514 0)
(-0.0288527 0.0486014 0)
(-0.0281916 0.047829 0)
(-0.026274 0.0479157 0)
(-0.0227251 0.049164 0)
(-0.0170695 0.052286 0)
(-0.00798639 0.0577028 0)
(0.00466518 0.06651 0)
(0.0245746 0.0768248 0)
(0.04594 0.0829479 0)
(0.0760287 0.067076 0)
(0.0803228 0.00333217 0)
(0.0796855 -0.107636 0)
(-0.000913519 -0.318464 0)
(0.0225641 -0.516771 0)
(-0.0124747 0.0326306 0)
(-0.0241006 0.0799011 0)
(-0.0233949 0.079041 0)
(-0.0293694 0.0739096 0)
(-0.0310457 0.066602 0)
(-0.0309577 0.0604613 0)
(-0.0289455 0.0554241 0)
(-0.0253016 0.051453 0)
(-0.0201024 0.0485359 0)
(-0.013013 0.0465233 0)
(-0.00414723 0.0458244 0)
(0.0081649 0.046519 0)
(0.02339 0.0495805 0)
(0.0453615 0.0534166 0)
(0.0660949 0.0567915 0)
(0.099588 0.0472831 0)
(0.102652 0.00906091 0)
(0.121404 -0.0694228 0)
(0.0512826 -0.284337 0)
(0.0598387 -0.499632 0)
(-0.0773906 0.0964926 0)
(-0.0631208 0.0591978 0)
(-0.0655654 0.0598923 0)
(-0.043991 0.0532184 0)
(-0.0268586 0.0463075 0)
(-0.00696589 0.0411549 0)
(0.011797 0.0374038 0)
(0.030772 0.0342161 0)
(0.0482635 0.0318539 0)
(0.0670083 0.0296179 0)
(0.0832525 0.0283264 0)
(0.10374 0.0273584 0)
(0.118719 0.0271999 0)
(0.147494 0.0275628 0)
(0.158526 0.0240075 0)
(0.20407 0.0169795 0)
(0.197219 -0.0173298 0)
(0.233675 -0.0783453 0)
(0.161612 -0.258811 0)
(0.126127 -0.439293 0)
(0.119637 0.140797 0)
(0.152374 0.0861932 0)
(0.229095 0.0635942 0)
(0.284527 0.0481229 0)
(0.325764 0.0374455 0)
(0.36411 0.0296505 0)
(0.39267 0.0241912 0)
(0.423881 0.0201772 0)
(0.443775 0.0172523 0)
(0.472296 0.0150378 0)
(0.484935 0.0132877 0)
(0.5147 0.0122035 0)
(0.51976 0.0110412 0)
(0.55375 0.0105181 0)
(0.548835 0.00880734 0)
(0.584392 0.00470146 0)
(0.555162 -0.00458878 0)
(0.56273 -0.0277025 0)
(0.42655 -0.0728171 0)
(0.276135 -0.15209 0)
)
;

boundaryField
{
    movingWall
    {
        type            fixedValue;
        value           uniform (1 0 0);
    }
    fixedWalls
    {
        type            noSlip;
    }
    frontAndBack
    {
        type            empty;
    }
}


// ************************************************************************* //
