/*--------------------------------*- C++ -*----------------------------------*\
  =========                 |
  \\      /  F ield         | OpenFOAM: The Open Source CFD Toolbox
   \\    /   O peration     | Website:  https://openfoam.org
    \\  /    A nd           | Version:  10
     \\/     M anipulation  |
\*---------------------------------------------------------------------------*/
FoamFile
{
    format      ascii;
    class       surfaceScalarField;
    location    "5.975";
    object      phi;
}
// * * * * * * * * * * * * * * * * * * * * * * * * * * * * * * * * * * * * * //

dimensions      [0 3 -1 0 0 0 0];

internalField   nonuniform List<scalar> 
760
(
-9.21694e-06
9.21648e-06
-3.04874e-05
2.12705e-05
-5.57014e-05
2.52139e-05
-8.15642e-05
2.58628e-05
-0.000107009
2.54448e-05
-0.000131595
2.45861e-05
-0.000154896
2.33006e-05
-0.000176332
2.14362e-05
-0.000195131
1.87994e-05
-0.000210313
1.51817e-05
-0.00022069
1.03773e-05
-0.000224904
4.21334e-06
-0.000221501
-3.40245e-06
-0.000209126
-1.23753e-05
-0.000186794
-2.23323e-05
-0.000154284
-3.25098e-05
-0.000112792
-4.1492e-05
-6.60401e-05
-4.67516e-05
-2.23894e-05
-4.36507e-05
-2.23894e-05
-2.23789e-05
3.15954e-05
-6.35578e-05
6.24493e-05
-0.000110618
7.22743e-05
-0.000158266
7.35105e-05
-0.000204493
7.16722e-05
-0.000248255
6.83483e-05
-0.000288619
6.36645e-05
-0.000324519
5.73358e-05
-0.000354681
4.89614e-05
-0.000377598
3.80986e-05
-0.000391505
2.42843e-05
-0.000394542
7.25037e-06
-0.000384751
-1.31936e-05
-0.000360292
-3.68343e-05
-0.000319994
-6.26299e-05
-0.000263832
-8.86722e-05
-0.000193845
-0.000111478
-0.000115838
-0.000124759
-4.23076e-05
-0.000117182
-6.46969e-05
-2.7851e-05
5.94465e-05
-7.75023e-05
0.000112101
-0.000133598
0.00012837
-0.000190008
0.00012992
-0.000244451
0.000126116
-0.00029574
0.000119637
-0.000342829
0.000110753
-0.000384552
9.90586e-05
-0.000419537
8.39463e-05
-0.000446159
6.4721e-05
-0.000462561
4.06862e-05
-0.000466611
1.13002e-05
-0.000455867
-2.39371e-05
-0.000428153
-6.45484e-05
-0.000381775
-0.000109008
-0.000316269
-0.000154179
-0.000233574
-0.000194173
-0.000140305
-0.000218027
-5.15374e-05
-0.000205949
-0.000116234
-2.99261e-05
8.93726e-05
-8.33498e-05
0.000165524
-0.000143539
0.000188559
-0.000204003
0.000190384
-0.000262446
0.000184559
-0.000317737
0.000174929
-0.000368901
0.000161917
-0.000414843
0.000145
-0.000454237
0.000123341
-0.000485449
9.59327e-05
-0.000506467
6.17038e-05
-0.000514901
1.97343e-05
-0.000507845
-3.09933e-05
-0.000482082
-9.03107e-05
-0.000434764
-0.000156327
-0.000364157
-0.000224785
-0.000271502
-0.000286828
-0.000164089
-0.000325441
-6.01908e-05
-0.000309847
-0.000176425
-3.10379e-05
0.00012041
-8.69786e-05
0.000221465
-0.000150085
0.000251666
-0.000213622
0.000253921
-0.000275356
0.000246293
-0.000334302
0.000233875
-0.000389655
0.000217269
-0.00044049
0.000195836
-0.000485629
0.000168479
-0.000523493
0.000133797
-0.000551952
9.01633e-05
-0.000568189
3.59712e-05
-0.000568649
-3.05333e-05
-0.000548684
-0.000110275
-0.000503526
-0.000201485
-0.000429163
-0.000299148
-0.000324937
-0.000391054
-0.000198514
-0.000451864
-7.30169e-05
-0.000435345
-0.000249442
-3.20944e-05
0.000152505
-9.05724e-05
0.000279943
-0.000156714
0.000317808
-0.000223525
0.000320731
-0.000288861
0.000311629
-0.000351948
0.000296962
-0.000412238
0.000277559
-0.000469087
0.000252685
-0.000521585
0.000220977
-0.000568352
0.000180564
-0.000607278
0.000129089
-0.00063519
6.38831e-05
-0.000647764
-1.79597e-05
-0.000638491
-0.000119548
-0.000599737
-0.000240239
-0.00052368
-0.000375205
-0.000405821
-0.000508913
-0.000252661
-0.000605024
-9.41486e-05
-0.000593857
-0.000343591
-3.33305e-05
0.000185835
-9.47178e-05
0.00034133
-0.000164309
0.000387399
-0.000234793
0.000391216
-0.000304142
0.000380978
-0.000371856
0.000364675
-0.000437743
0.000343447
-0.000501587
0.000316529
-0.000562938
0.000282328
-0.00062086
0.000238486
-0.000673546
0.000181775
-0.00071774
0.000108077
-0.000748676
1.29765e-05
-0.000757594
-0.000110631
-0.00073311
-0.000264722
-0.000661441
-0.000446874
-0.000530642
-0.000639711
-0.000341669
-0.000793997
-0.000131667
-0.000803858
-0.000475258
-3.47838e-05
0.000220619
-9.95167e-05
0.000406063
-0.000172962
0.000460844
-0.000247417
0.00046567
-0.000320986
0.000454548
-0.000393513
0.000437202
-0.000465282
0.000415216
-0.000536677
0.000387924
-0.000607983
0.000353635
-0.000679098
0.0003096
-0.000749061
0.000251738
-0.000815299
0.000174314
-0.00087221
6.98874e-05
-0.000911096
-7.17444e-05
-0.00091544
-0.000260378
-0.00086323
-0.000499085
-0.000729246
-0.000773695
-0.000498401
-0.00102484
-0.000205779
-0.00109648
-0.000681036
-3.64899e-05
0.000257109
-0.000105032
0.000474605
-0.000182661
0.000538474
-0.000261183
0.000544191
-0.000338854
0.00053222
-0.000415924
0.000514272
-0.000493266
0.000492557
-0.000572059
0.000466717
-0.000653634
0.000435209
-0.000739221
0.000395187
-0.000829453
0.000341971
-0.000923449
0.000268311
-0.00101713
0.000163567
-0.00110324
1.43655e-05
-0.00116157
-0.000202049
-0.00116205
-0.000498604
-0.00105787
-0.000877873
-0.000793469
-0.00128924
-0.00036486
-0.00152509
-0.0010459
-3.85707e-05
0.00029568
-0.000111479
0.000547514
-0.000193559
0.000620554
-0.000276013
0.000626645
-0.000357267
0.000613473
-0.000438026
0.000595031
-0.000519834
0.000574365
-0.000604822
0.000551706
-0.000695682
0.000526069
-0.00079557
0.000495076
-0.00090781
0.00045421
-0.00103515
0.000395646
-0.00117813
0.000306556
-0.00133143
0.000167661
-0.00148568
-4.77996e-05
-0.00160342
-0.000380865
-0.00160447
-0.000876823
-0.00133866
-0.00155505
-0.000686681
-0.00217707
-0.00173258
-4.13127e-05
0.000336992
-0.000119379
0.00062558
-0.000206164
0.000707339
-0.000292177
0.000712658
-0.000376044
0.00069734
-0.000458961
0.000677948
-0.000543163
0.000658568
-0.000631766
0.000640308
-0.000728951
0.000623254
-0.00084024
0.000606365
-0.000972714
0.000586685
-0.00113492
0.000557852
-0.0013363
0.000507939
-0.00158565
0.000417006
-0.00188618
0.000252734
-0.00221486
-5.21867e-05
-0.00242085
-0.00067083
-0.00216587
-0.00181004
-0.00117787
-0.00316507
-0.00291044
-4.52922e-05
0.000382285
-0.000129762
0.000710049
-0.000221559
0.000799136
-0.000310507
0.000801607
-0.00039554
0.000782373
-0.000478372
0.00076078
-0.000561863
0.000742059
-0.000649949
0.000728395
-0.000748137
0.000721441
-0.000864285
0.000722513
-0.00100973
0.000732132
-0.00120088
0.000748997
-0.00146116
0.000768219
-0.00182203
0.000777874
-0.00231031
0.000741015
-0.00287823
0.000515735
-0.00327557
-0.000273493
-0.0029501
-0.00213551
-0.00165442
-0.00446074
-0.00456487
-5.15238e-05
0.000433808
-0.000144367
0.000802892
-0.000241636
0.000896405
-0.00033273
0.0008927
-0.000417007
0.00086665
-0.000496786
0.00084056
-0.00057546
0.000820732
-0.000657289
0.000810224
-0.000748334
0.000812486
-0.000857823
0.000832002
-0.00100029
0.000874602
-0.00119911
0.000947814
-0.00149101
0.00106012
-0.00192339
0.00121025
-0.0025245
0.00134212
-0.00318804
0.00117928
-0.00355727
9.57386e-05
-0.00315546
-0.00253731
-0.00189101
-0.00572519
-0.00645588
-6.27626e-05
0.000496571
-0.00016722
0.00090735
-0.000269668
0.000998853
-0.000360726
0.000983758
-0.000441644
0.000947569
-0.000515414
0.00091433
-0.000585045
0.000890364
-0.000654405
0.000879584
-0.000728963
0.000887043
-0.000817204
0.000920243
-0.000933188
0.000990586
-0.00109993
0.00111456
-0.00135316
0.00131335
-0.00172869
0.00158579
-0.00222725
0.00184068
-0.00271602
0.00166804
-0.00296446
0.000344184
-0.0026991
-0.00280268
-0.0018201
-0.00660419
-0.00827598
-7.6404e-05
0.000572975
-0.000195961
0.00102691
-0.000306983
0.00110987
-0.000401078
0.00107785
-0.000477908
0.0010244
-0.000541791
0.000978213
-0.000596548
0.00094512
-0.000645376
0.000928413
-0.000691373
0.00093304
-0.000738775
0.000967646
-0.000795209
0.00104702
-0.000871956
0.0011913
-0.000988282
0.00142968
-0.00115083
0.00174833
-0.00136169
0.00205154
-0.00153025
0.0018366
-0.00165631
0.000470245
-0.00170498
-0.00275401
-0.00134702
-0.00696215
-0.009623
-0.000143126
0.000716101
-0.000277
0.00116078
-0.00037662
0.00120949
-0.00045093
0.00115216
-0.000511137
0.00108461
-0.000561102
0.00102818
-0.000601202
0.00098522
-0.000630108
0.000957319
-0.000646029
0.000948961
-0.000645843
0.00096746
-0.000626215
0.00102739
-0.000581456
0.00114655
-0.000508148
0.00135637
-0.000386214
0.0016264
-0.000225144
0.00189047
-9.31055e-05
0.00170457
-7.95299e-05
0.00045667
-0.000471223
-0.00236232
-0.000655454
-0.00677792
-0.0102785
-9.38303e-05
0.000809931
-0.000291406
0.00135836
-0.000434089
0.00135218
-0.000529804
0.00124788
-0.000590734
0.00114554
-0.000626695
0.00106414
-0.000642123
0.00100065
-0.000637399
0.000952594
-0.000609732
0.000921294
-0.000550344
0.000908071
-0.000447242
0.000924292
-0.000278479
0.000977782
-1.71107e-05
0.001095
0.000347686
0.0012616
0.000816565
0.00142159
0.00124104
0.00128009
0.00131192
0.000385789
0.000681915
-0.00173232
9.90088e-05
-0.00619502
-0.0101794
-0.000387482
0.00119741
-0.00047012
0.001441
-0.000551383
0.00143344
-0.000624797
0.00132129
-0.000653263
0.001174
-0.000643363
0.00105424
-0.000601825
0.000959111
-0.00052932
0.000880089
-0.000428214
0.000820188
-0.000291047
0.000770905
-0.000110081
0.000743325
0.000133609
0.000734092
0.000465109
0.000763499
0.000906814
0.000819897
0.00145681
0.000871594
0.00196055
0.000776359
0.00227839
6.79522e-05
0.0019146
-0.00136853
0.00101455
-0.00529497
-0.00916489
-0.00135557
0.00255299
-0.00132108
0.0014065
-0.00107549
0.00118785
-0.000720072
0.000965876
-0.000342341
0.000796271
3.90099e-05
0.000672887
0.00041094
0.000587181
0.000771339
0.00051969
0.00112104
0.000470489
0.00146276
0.000429187
0.00180548
0.000400596
0.00215775
0.000381823
0.00254975
0.000371499
0.00299672
0.000372927
0.00354488
0.000323433
0.00410141
0.000219829
0.00439907
-0.000229699
0.00424035
-0.00120981
0.00264991
-0.00370453
-0.00651498
0.00255299
0.00395949
0.00514734
0.00611321
0.00690948
0.00758237
0.00816955
0.00868924
0.00915973
0.00958892
0.00998951
0.0103713
0.0107428
0.0111158
0.0114392
0.011659
0.0114293
0.0102195
0.00651498
)
;

boundaryField
{
    movingWall
    {
        type            calculated;
        value           uniform 0;
    }
    fixedWalls
    {
        type            calculated;
        value           uniform 0;
    }
    frontAndBack
    {
        type            empty;
        value           nonuniform List<scalar> 0();
    }
}


// ************************************************************************* //
