/*--------------------------------*- C++ -*----------------------------------*\
  =========                 |
  \\      /  F ield         | OpenFOAM: The Open Source CFD Toolbox
   \\    /   O peration     | Website:  https://openfoam.org
    \\  /    A nd           | Version:  10
     \\/     M anipulation  |
\*---------------------------------------------------------------------------*/
FoamFile
{
    format      ascii;
    class       volVectorField;
    location    "0.775";
    object      U;
}
// * * * * * * * * * * * * * * * * * * * * * * * * * * * * * * * * * * * * * //

dimensions      [0 1 -1 0 0 0 0];

internalField   nonuniform List<vector> 
496
(
(9.96392 0.0907074 0)
(9.93875 -0.225312 0)
(10.2107 -0.121776 0)
(10.8296 -0.242964 0)
(10.1311 0.490961 0)
(9.73999 -1.27951 0)
(10.3356 -0.356124 0)
(10.8303 -1.1977 0)
(11.0951 1.3139 0)
(8.85143 -2.79654 0)
(11.3982 -0.0986946 0)
(10.5042 -3.92341 0)
(12.2903 1.3802 0)
(7.92758 -2.39307 0)
(13.0607 0.542003 0)
(9.87234 -6.26397 0)
(11.4834 -0.224139 1.69854e-18)
(12.2229 -0.213506 9.43839e-19)
(11.6739 -0.576718 -1.45622e-18)
(12.4768 -0.0793432 3.0962e-18)
(12.9951 -2.05818 -2.44073e-19)
(12.883 -0.600775 -4.04136e-18)
(13.2881 -5.45072 -3.60168e-17)
(15.1448 -4.29269 6.36594e-17)
(12.8028 -0.191584 0)
(13.2041 -0.159144 0)
(13.4317 -0.063644 0)
(13.4939 0.0422474 0)
(13.1181 -0.0668926 0)
(13.5961 -0.3744 0)
(13.9229 -0.504261 0)
(14.0598 -0.421543 0)
(12.8343 0.605096 0)
(12.7402 0.344948 0)
(13.4304 0.381166 0)
(13.7562 0.614645 0)
(11.2405 -3.19571 0)
(9.8017 -1.97553 0)
(9.287 -0.0229681 0)
(11.3433 -0.716805 0)
(13.4713 0.184196 0)
(13.4011 0.260094 0)
(13.2813 0.329258 0)
(13.108 0.345793 0)
(12.915 0.366679 0)
(12.6933 0.32843 0)
(12.4911 0.339896 0)
(12.3576 0.342225 0)
(12.2426 0.38008 0)
(12.0866 0.360165 0)
(11.8786 0.390286 0)
(11.6839 0.395398 0)
(11.3898 0.48614 0)
(11.054 0.513518 0)
(10.7238 0.589985 0)
(10.5998 0.522638 0)
(10.5641 0.513283 0)
(10.6069 0.375045 0)
(10.6336 0.362194 0)
(10.7356 0.23813 0)
(10.9055 0.249792 0)
(11.0822 0.165092 0)
(11.253 0.203993 0)
(11.2917 0.186309 0)
(11.3649 0.262128 0)
(11.2972 0.294828 0)
(11.3114 0.364572 0)
(11.1365 0.42941 0)
(11.0859 0.505404 0)
(10.8391 0.582959 0)
(10.7469 0.651992 0)
(10.4414 0.719997 0)
(10.3213 0.778986 0)
(10.0054 0.824201 0)
(9.92145 0.860532 0)
(9.63098 0.878711 0)
(9.58097 0.89647 0)
(9.28734 0.902382 0)
(9.25867 0.90716 0)
(8.96832 0.902971 0)
(14.0612 -0.338429 0)
(13.9554 -0.180246 0)
(13.839 -0.161828 0)
(13.6588 -0.0831662 0)
(13.4837 -0.149364 0)
(13.2918 -0.138236 0)
(13.1878 -0.195947 0)
(13.1026 -0.0876446 0)
(13.0167 -0.0572439 0)
(12.8832 0.076952 0)
(12.7382 0.0884337 0)
(12.6167 0.101323 0)
(12.4002 -0.0324293 0)
(12.1371 -0.143373 0)
(11.8016 -0.254774 0)
(11.6662 -0.3247 0)
(11.5768 -0.37884 0)
(11.6541 -0.472616 0)
(11.6602 -0.509222 0)
(11.8069 -0.542154 0)
(11.9425 -0.481604 0)
(12.1685 -0.456185 0)
(12.3444 -0.389654 0)
(12.4849 -0.363159 0)
(12.5872 -0.308033 0)
(12.6101 -0.27462 0)
(12.6625 -0.234345 0)
(12.6087 -0.200871 0)
(12.6033 -0.190184 0)
(12.4761 -0.193627 0)
(12.4231 -0.226343 0)
(12.2408 -0.259338 0)
(12.1489 -0.306226 0)
(11.9392 -0.346301 0)
(11.8576 -0.395892 0)
(11.6598 -0.436433 0)
(11.5983 -0.476612 0)
(11.3928 -0.502464 0)
(11.3337 -0.522855 0)
(11.1338 -0.539683 0)
(13.9055 0.681905 0)
(13.8022 0.651875 0)
(13.7353 0.730602 0)
(13.4918 0.688237 0)
(13.3896 0.666875 0)
(13.1388 0.537459 0)
(13.2127 0.543404 0)
(13.1136 0.489181 0)
(13.2726 0.622148 0)
(13.1598 0.716638 0)
(13.2626 0.962484 0)
(13.0662 1.07574 0)
(13.0293 1.18345 0)
(12.6663 1.10409 0)
(12.5347 1.01693 0)
(12.2509 0.801286 0)
(12.2377 0.566151 0)
(12.05 0.271861 0)
(12.1072 0.0464501 0)
(12.0313 -0.113173 0)
(12.1632 -0.179289 0)
(12.1293 -0.161798 0)
(12.2631 -0.0983261 0)
(12.2173 0.00406674 0)
(12.3446 0.111716 0)
(12.3169 0.253612 0)
(12.4794 0.394423 0)
(12.4554 0.521926 0)
(12.5835 0.631666 0)
(12.5322 0.721043 0)
(12.6368 0.800299 0)
(12.5667 0.849809 0)
(12.6373 0.895208 0)
(12.5488 0.919103 0)
(12.6064 0.943401 0)
(12.5246 0.948083 0)
(12.5762 0.952711 0)
(12.4866 0.944856 0)
(12.5149 0.942715 0)
(12.4201 0.936908 0)
(9.97638 -0.321257 0)
(10.124 -0.287401 0)
(10.2063 -0.247228 0)
(9.97379 -0.0655563 0)
(9.72728 -0.103166 0)
(9.40372 -0.0240709 0)
(9.47434 0.00690259 0)
(9.31928 -0.0484828 0)
(9.64091 -0.0673977 0)
(9.75538 -0.061334 0)
(10.2911 0.070352 0)
(10.5949 0.198867 0)
(11.1114 0.314905 0)
(11.2891 0.302145 0)
(11.5443 0.239273 0)
(11.5255 0.099673 0)
(11.5391 -0.0431291 0)
(11.2765 -0.185464 0)
(10.9557 -0.29085 0)
(10.4643 -0.406371 0)
(10.0687 -0.506274 0)
(9.73494 -0.564625 0)
(9.50604 -0.575507 0)
(9.36302 -0.551987 0)
(9.26546 -0.525721 0)
(9.29251 -0.483618 0)
(9.31894 -0.443354 0)
(9.48177 -0.385481 0)
(9.60213 -0.314285 0)
(9.83892 -0.243775 0)
(9.96321 -0.184961 0)
(10.1797 -0.151164 0)
(10.2586 -0.129002 0)
(10.4527 -0.123936 0)
(10.5009 -0.123831 0)
(10.6886 -0.138285 0)
(10.7084 -0.156168 0)
(10.8827 -0.182906 0)
(10.8702 -0.200248 0)
(11.0436 -0.219031 0)
(11.9442 0.640793 -9.61343e-18)
(8.20652 -0.848418 -1.67029e-17)
(11.1314 0.160674 2.88551e-17)
(4.97533 -4.58522 -7.93899e-17)
(12.7335 -0.534479 9.4273e-18)
(7.4978 0.851312 1.62668e-17)
(12.1105 0.138581 -2.81841e-17)
(4.51953 4.82721 7.79583e-17)
(-1.9552 1.53521 0)
(-3.05016 -2.91641 0)
(7.64549 2.07746 0)
(-3.16742 2.76921 0)
(-4.02565 -1.8406 3.90918e-17)
(2.88452 -4.07069 0)
(-8.32131 2.31831 0)
(1.22152 1.65938 0)
(-0.895762 -1.61789 0)
(0.888367 1.03404 0)
(-1.65382 0.912926 0)
(0.927722 0.846134 0)
(-0.40608 0.838573 0)
(0.6917 0.858973 0)
(0.871857 0.591598 0)
(1.2747 0.334638 0)
(1.87359 0.174712 0)
(2.42424 0.0789736 0)
(3.03814 0.0689927 0)
(3.56661 0.163861 0)
(3.99927 0.318858 0)
(4.1612 0.449282 0)
(4.26509 0.551237 0)
(4.14784 0.611819 0)
(4.01126 0.648021 0)
(3.75948 0.674181 0)
(3.59342 0.675639 0)
(3.41182 0.612034 0)
(3.34321 0.542182 0)
(3.32329 0.462088 0)
(3.31886 0.424782 0)
(3.41662 0.36278 0)
(3.46822 0.339157 0)
(3.70534 0.302146 0)
(3.79415 0.317268 0)
(4.15069 0.337181 0)
(4.25577 0.374807 0)
(4.66412 0.409672 0)
(4.76184 0.439753 0)
(5.16498 0.471224 0)
(5.2447 0.498062 0)
(5.62671 0.522943 0)
(5.69604 0.541436 0)
(6.0676 0.550903 0)
(6.1234 0.556935 0)
(6.47434 0.559965 0)
(6.50209 0.565247 0)
(6.839 0.574471 0)
(-0.272012 -1.39118 0)
(-0.570664 0.279552 0)
(-0.624703 0.296522 0)
(0.766411 -0.945347 0)
(-0.195931 -0.276142 0)
(0.908984 -0.706596 0)
(1.22692 -0.918976 0)
(1.58094 -1.08518 0)
(1.99466 -1.16425 0)
(2.27673 -1.06604 0)
(2.59611 -0.821551 0)
(2.90605 -0.490028 0)
(3.25378 -0.124395 0)
(3.49661 0.190007 0)
(3.80369 0.365745 0)
(3.94874 0.441205 0)
(4.08713 0.445522 0)
(4.13206 0.362446 0)
(4.23425 0.160901 0)
(4.25001 -0.0971972 0)
(4.27021 -0.381849 0)
(4.25986 -0.597626 0)
(4.20545 -0.773856 0)
(4.21115 -0.864353 0)
(4.14873 -0.950534 0)
(4.24146 -0.974153 0)
(4.17553 -0.978432 0)
(4.37223 -0.929511 0)
(4.32684 -0.860326 0)
(4.62114 -0.775935 0)
(4.61188 -0.683074 0)
(4.96211 -0.612333 0)
(4.98217 -0.550868 0)
(5.36073 -0.520716 0)
(5.40261 -0.492534 0)
(5.80104 -0.485118 0)
(5.84541 -0.471114 0)
(6.23663 -0.47651 0)
(6.25819 -0.473952 0)
(6.63773 -0.489083 0)
(11.5742 -1.6086 0)
(8.55967 2.74374 0)
(12.223 -0.843915 0)
(10.7246 6.71927 0)
(10.5569 -1.39309 0)
(9.44997 3.00145 0)
(11.0786 0.278501 0)
(11.1339 4.0878 0)
(9.93704 -0.531138 0)
(9.96293 1.27512 0)
(10.137 0.399496 0)
(10.9826 1.11812 0)
(9.93931 -0.0762443 0)
(9.96977 0.167817 0)
(10.1334 0.130023 0)
(10.7846 0.213343 0)
(12.5332 5.48929 4.6154e-17)
(16.2603 4.4781 -7.37756e-17)
(13.1021 2.22592 0)
(13.6124 0.45161 0)
(11.6595 0.515108 0)
(12.6697 -0.139166 0)
(11.457 0.215154 0)
(12.243 0.189354 0)
(9.5794 2.82799 0)
(10.3409 1.84187 0)
(8.56308 0.893042 0)
(8.08442 0.111147 0)
(13.0293 -0.62524 0)
(13.1088 -0.914397 0)
(13.4777 -0.589659 0)
(13.7536 -0.216189 0)
(13.248 -0.0928014 0)
(13.6533 0.198589 0)
(13.9246 0.51299 0)
(14.0277 0.549669 0)
(12.7848 0.181426 0)
(13.12 0.173334 0)
(13.2881 0.0974189 0)
(13.3404 0.0172637 0)
(9.50935 -0.266835 0)
(9.86049 0.0691189 0)
(9.54848 0.0728745 0)
(9.88174 0.0763006 0)
(9.99791 0.132969 0)
(10.0255 0.0111879 0)
(10.4517 -0.153484 0)
(10.4697 -0.314291 0)
(10.6164 -0.489259 0)
(10.2878 -0.54954 0)
(10.1308 -0.506929 0)
(9.64673 -0.315394 0)
(9.5459 -0.130035 0)
(9.35229 0.0625406 0)
(9.46793 0.172347 0)
(9.52916 0.278428 0)
(9.84983 0.342739 0)
(10.1463 0.3929 0)
(10.5909 0.390615 0)
(10.964 0.394057 0)
(11.3103 0.411788 0)
(11.5571 0.42132 0)
(11.7384 0.420872 0)
(11.8662 0.406806 0)
(11.8252 0.405787 0)
(11.722 0.388526 0)
(11.4368 0.368861 0)
(11.192 0.327914 0)
(10.8199 0.283338 0)
(10.6066 0.238868 0)
(10.3018 0.204466 0)
(10.2203 0.183216 0)
(10.0329 0.168504 0)
(10.0974 0.160565 0)
(10.0139 0.158732 0)
(10.1879 0.166819 0)
(10.1544 0.183075 0)
(10.3742 0.206006 0)
(10.3459 0.2229 0)
(10.5866 0.240886 0)
(14.1186 -0.272146 0)
(14.1819 -0.284262 0)
(14.1984 -0.407809 0)
(14.0125 -0.491584 0)
(13.9608 -0.6852 0)
(13.7107 -0.790324 0)
(13.6236 -1.01316 0)
(13.2443 -1.09662 0)
(13.1005 -1.174 0)
(12.7745 -0.977976 0)
(12.8027 -0.773636 0)
(12.6399 -0.420423 0)
(12.7334 -0.19254 0)
(12.5607 0.000658308 0)
(12.6994 0.000902931 0)
(12.6967 -0.00265541 0)
(12.9235 -0.0830268 0)
(12.9525 -0.168658 0)
(13.1311 -0.334302 0)
(13.0865 -0.500812 0)
(13.1432 -0.638821 0)
(12.991 -0.718967 0)
(12.9721 -0.736361 0)
(12.7607 -0.726683 0)
(12.7047 -0.672573 0)
(12.4875 -0.605953 0)
(12.4536 -0.526881 0)
(12.2745 -0.468238 0)
(12.2823 -0.437627 0)
(12.157 -0.437733 0)
(12.206 -0.474812 0)
(12.1218 -0.527679 0)
(12.1881 -0.601711 0)
(12.1321 -0.673063 0)
(12.2143 -0.742918 0)
(12.1869 -0.79576 0)
(12.2655 -0.834275 0)
(12.2352 -0.861525 0)
(12.2796 -0.876066 0)
(12.2441 -0.895347 0)
(14.0927 0.487645 0)
(14.0831 0.258774 0)
(14.0157 0.126025 0)
(13.8478 -0.0526728 0)
(13.6443 -0.0886207 0)
(13.3629 -0.194515 0)
(13.0756 -0.170461 0)
(12.7578 -0.208466 0)
(12.4982 -0.0826132 0)
(12.2749 -0.0301107 0)
(12.1271 0.112739 0)
(12.0554 0.154682 0)
(11.9943 0.228558 0)
(12.0179 0.231102 0)
(12.0183 0.236983 0)
(12.1468 0.216923 0)
(12.1665 0.185468 0)
(12.249 0.171664 0)
(12.1887 0.127929 0)
(12.2236 0.154631 0)
(12.1583 0.172101 0)
(12.1411 0.269543 0)
(12.0618 0.327356 0)
(11.9892 0.41122 0)
(11.9321 0.450347 0)
(11.8572 0.489898 0)
(11.8708 0.49782 0)
(11.8391 0.486204 0)
(11.917 0.462005 0)
(11.8999 0.422798 0)
(11.9676 0.392912 0)
(11.8979 0.361083 0)
(11.9092 0.345974 0)
(11.7823 0.340175 0)
(11.7674 0.353636 0)
(11.6137 0.378742 0)
(11.5842 0.407884 0)
(11.3948 0.44151 0)
(11.347 0.462174 0)
(11.1505 0.496992 0)
(13.3472 -0.0913481 0)
(13.3171 -0.191358 0)
(13.2615 -0.300723 0)
(13.1209 -0.345492 0)
(12.9059 -0.396445 0)
(12.616 -0.391201 0)
(12.2784 -0.412074 0)
(11.9277 -0.391905 0)
(11.6007 -0.410315 0)
(11.3501 -0.394714 0)
(11.1921 -0.408394 0)
(11.1401 -0.349747 0)
(11.0645 -0.321737 0)
(11.0144 -0.241928 0)
(10.9726 -0.261934 0)
(11.0307 -0.207656 0)
(11.0283 -0.264396 0)
(11.0171 -0.226352 0)
(10.9306 -0.317857 0)
(10.8606 -0.298937 0)
(10.7732 -0.406636 0)
(10.6735 -0.392278 0)
(10.6013 -0.47069 0)
(10.4858 -0.446765 0)
(10.482 -0.482054 0)
(10.4033 -0.454481 0)
(10.4735 -0.459464 0)
(10.4081 -0.457547 0)
(10.5019 -0.477791 0)
(10.4053 -0.518496 0)
(10.4524 -0.56517 0)
(10.2617 -0.624664 0)
(10.2264 -0.682482 0)
(9.96694 -0.735584 0)
(9.91384 -0.78018 0)
(9.63743 -0.811728 0)
(9.58936 -0.83661 0)
(9.29217 -0.854837 0)
(9.25949 -0.862497 0)
(8.96167 -0.870052 0)
)
;

boundaryField
{
    inlet
    {
        type            fixedValue;
        value           uniform (10 0 0);
    }
    outlet
    {
        type            zeroGradient;
    }
    obstacle
    {
        type            noSlip;
    }
    upperWall
    {
        type            noSlip;
    }
    lowerWall
    {
        type            noSlip;
    }
    frontAndBack
    {
        type            empty;
    }
}


// ************************************************************************* //
