/*--------------------------------*- C++ -*----------------------------------*\
  =========                 |
  \\      /  F ield         | OpenFOAM: The Open Source CFD Toolbox
   \\    /   O peration     | Website:  https://openfoam.org
    \\  /    A nd           | Version:  10
     \\/     M anipulation  |
\*---------------------------------------------------------------------------*/
FoamFile
{
    format      ascii;
    class       volScalarField;
    location    "0.225";
    object      p;
}
// * * * * * * * * * * * * * * * * * * * * * * * * * * * * * * * * * * * * * //

dimensions      [0 2 -2 0 0 0 0];

internalField   nonuniform List<scalar> 
496
(
17.8153
17.8415
14.576
8.47305
18.4998
18.9863
14.895
8.57934
23.5028
21.241
13.0331
2.56898
31.156
28.2798
24.505
9.25606
0.229971
-8.50213
-0.048052
-8.58253
-12.662
-17.6336
-42.2255
-67.618
-14.9954
-18.7569
-19.4972
-18.3021
-15.7463
-20.8882
-23.3988
-23.2101
-10.8862
-10.9794
-13.6436
-16.224
-39.6489
-28.5961
-23.4883
-21.4156
-16.4334
-14.2343
-11.8546
-9.68392
-7.91831
-6.50757
-5.54836
-4.84945
-3.78471
-2.31093
-1.14843
-0.631814
-0.360498
0.0319001
0.45524
0.737682
0.878323
0.964972
1.04844
1.10016
1.13737
1.1469
1.15535
1.13305
1.08858
1.03682
0.96252
0.910998
0.838234
0.776908
0.708831
0.626477
0.559455
0.477333
0.40121
0.331395
0.251509
0.178174
0.108378
0.0357317
-20.8537
-17.2653
-13.4301
-10.3083
-8.35519
-7.17024
-6.29542
-5.39565
-4.13173
-2.59872
-1.42766
-0.827336
-0.451118
0.0148682
0.490832
0.802949
0.961386
1.0522
1.13334
1.18427
1.20784
1.1922
1.18831
1.16199
1.11191
1.05992
0.978415
0.925361
0.84866
0.782603
0.715849
0.628916
0.562621
0.479936
0.400991
0.333327
0.252469
0.177796
0.10917
0.0362819
-16.9987
-15.5892
-12.9461
-10.0207
-7.65808
-6.07235
-5.01407
-4.15535
-3.12227
-1.90249
-0.941671
-0.481178
-0.234006
0.0788245
0.404624
0.628547
0.761432
0.861322
0.972532
1.03437
1.12953
1.1677
1.17159
1.14466
1.09469
1.04659
0.967837
0.91711
0.841847
0.775574
0.710677
0.62367
0.558767
0.478235
0.399124
0.332724
0.252318
0.177246
0.109219
0.036503
-18.9498
-16.633
-14.337
-11.7264
-8.93829
-6.54368
-4.90942
-3.76132
-2.65025
-1.49824
-0.467694
0.305676
0.811126
1.13243
1.31313
1.37775
1.3825
1.37299
1.39039
1.4017
1.39392
1.35608
1.31899
1.25725
1.17658
1.10663
1.0108
0.946306
0.861433
0.787136
0.718117
0.628518
0.561463
0.48068
0.400397
0.33349
0.253381
0.177674
0.109477
0.0367828
35.8144
37.3575
51.4122
63.6481
35.8131
37.356
51.4107
63.6451
-31.0894
-33.2217
-21.0613
-23.4447
-31.09
-33.2086
-21.0578
-23.4544
-19.0002
-16.9616
-14.9052
-12.5127
-9.7172
-7.05784
-5.11187
-3.85785
-2.92767
-2.01111
-1.04363
-0.172609
0.445794
0.832029
1.05806
1.17927
1.23159
1.2463
1.26857
1.27401
1.28735
1.26836
1.24613
1.19801
1.13215
1.07571
0.990487
0.93304
0.852437
0.780327
0.713153
0.625112
0.559022
0.479455
0.399618
0.333001
0.253448
0.177666
0.109421
0.0368103
-19.0025
-16.9603
-14.9029
-12.511
-9.71655
-7.05808
-5.11313
-3.85997
-2.92996
-2.01248
-1.04351
-0.172067
0.445493
0.830325
1.05572
1.17762
1.23119
1.24683
1.26939
1.27506
1.28811
1.26833
1.24517
1.19665
1.13121
1.07581
0.991585
0.934404
0.853223
0.780298
0.712607
0.624555
0.558681
0.479357
0.399713
0.333164
0.25367
0.177904
0.10957
0.036842
31.1535
28.276
24.5009
9.24885
23.5002
21.2366
13.0266
2.55976
18.4966
18.9819
14.8886
8.57083
17.8119
17.8371
14.5695
8.46481
-42.2396
-67.6408
-12.6757
-17.6447
-0.059607
-8.59241
0.219786
-8.51069
-39.6698
-28.5884
-23.4627
-21.4104
-10.8907
-10.9756
-13.6377
-16.2206
-15.7522
-20.8915
-23.3981
-23.2042
-15.0005
-18.7594
-19.4964
-18.2983
-18.9548
-16.6361
-14.3354
-11.7225
-8.93567
-6.54312
-4.91099
-3.76619
-2.6569
-1.50302
-0.468759
0.306615
0.810778
1.12925
1.30856
1.37449
1.38212
1.37547
1.39489
1.40648
1.3969
1.35633
1.31615
1.25295
1.17362
1.10691
1.01388
0.949868
0.863236
0.786731
0.716382
0.626833
0.560451
0.480396
0.40066
0.333961
0.253999
0.178293
0.109873
0.0368537
-16.9994
-15.5932
-12.9489
-10.0198
-7.6561
-6.07232
-5.0167
-4.15877
-3.12475
-1.90315
-0.941111
-0.480327
-0.234217
0.0768494
0.401001
0.6242
0.757923
0.860627
0.975886
1.04012
1.13468
1.16792
1.16662
1.13732
1.0899
1.04748
0.973177
0.922823
0.844539
0.774838
0.707988
0.621212
0.557258
0.477932
0.39957
0.333462
0.253259
0.178135
0.109781
0.0365946
-20.8489
-17.2668
-13.434
-10.3076
-8.35153
-7.16961
-6.29826
-5.39697
-4.12977
-2.59685
-1.42903
-0.831475
-0.454955
0.013266
0.490865
0.802429
0.959272
1.05047
1.13532
1.1915
1.21598
1.19602
1.18408
1.15225
1.10452
1.06028
0.985293
0.933071
0.85244
0.781732
0.712368
0.625404
0.56061
0.479433
0.401606
0.334309
0.25363
0.178847
0.109868
0.036409
-16.4297
-14.2339
-11.8574
-9.68501
-7.91736
-6.50909
-5.55115
-4.84836
-3.78024
-2.30842
-1.15071
-0.63685
-0.364727
0.0301403
0.455596
0.738576
0.876957
0.960515
1.04519
1.10403
1.14756
1.15305
1.15065
1.12165
1.08042
1.03764
0.970196
0.919162
0.842084
0.775842
0.705129
0.622888
0.557313
0.476915
0.401909
0.332549
0.252812
0.179249
0.109002
0.035816
)
;

boundaryField
{
    inlet
    {
        type            zeroGradient;
    }
    outlet
    {
        type            fixedValue;
        value           uniform 0;
    }
    obstacle
    {
        type            zeroGradient;
    }
    upperWall
    {
        type            zeroGradient;
    }
    lowerWall
    {
        type            zeroGradient;
    }
    frontAndBack
    {
        type            empty;
    }
}


// ************************************************************************* //
