/*--------------------------------*- C++ -*----------------------------------*\
  =========                 |
  \\      /  F ield         | OpenFOAM: The Open Source CFD Toolbox
   \\    /   O peration     | Website:  https://openfoam.org
    \\  /    A nd           | Version:  10
     \\/     M anipulation  |
\*---------------------------------------------------------------------------*/
FoamFile
{
    format      ascii;
    class       volScalarField;
    location    "9.65";
    object      p;
}
// * * * * * * * * * * * * * * * * * * * * * * * * * * * * * * * * * * * * * //

dimensions      [0 2 -2 0 0 0 0];

internalField   nonuniform List<scalar> 
400
(
8.59741e-09
-3.3071e-05
2.46668e-05
0.000137673
0.000314847
0.000559566
0.000877462
0.00127602
0.00176319
0.00234564
0.00302626
0.00380079
0.0046524
0.00554606
0.00642165
0.0071963
0.00777431
0.0080931
0.00817741
0.00801956
3.62143e-05
2.93793e-06
7.00368e-05
0.000186887
0.000363967
0.000605486
0.000917392
0.00130705
0.00178218
0.00234963
0.00301323
0.00377034
0.00460503
0.0054876
0.00635874
0.00713332
0.00770757
0.0080119
0.00807954
0.00790257
-3.80166e-05
-8.12712e-05
-1.58305e-05
9.58759e-05
0.000265004
0.000495866
0.000794899
0.0011704
0.00163175
0.00218859
0.00284879
0.0036148
0.00447911
0.00541478
0.00635898
0.00721067
0.00783368
0.00812465
0.00812778
0.00787577
-0.000200123
-0.000250249
-0.000189454
-8.71823e-05
6.84446e-05
0.000281953
0.000560491
0.000913726
0.00135344
0.00189344
0.00254825
0.00332911
0.0042372
0.00525339
0.00631676
0.00730239
0.0080188
0.00828613
0.00816118
0.00778522
-0.00046116
-0.000516777
-0.000464442
-0.000376764
-0.000241231
-5.30716e-05
0.000195605
0.000515939
0.000922479
0.00143384
0.00207272
0.00286347
0.00382295
0.00494406
0.00617607
0.00736927
0.00824535
0.00847707
0.00812484
0.00755369
-0.000819314
-0.000880042
-0.00083995
-0.000772372
-0.000664538
-0.000511801
-0.000306089
-3.53872e-05
0.000316822
0.000773208
0.00136417
0.00212831
0.0031048
0.00431204
0.0057414
0.00723052
0.00837656
0.00855945
0.00787961
0.00698955
-0.00126743
-0.00133353
-0.00130938
-0.00126789
-0.00119664
-0.00109183
-0.000946504
-0.000749821
-0.000485792
-0.000131075
0.000348041
0.000998697
0.0018822
0.00306544
0.00458642
0.00639461
0.00795563
0.00814328
0.00720296
0.00591009
-0.00179538
-0.0018674
-0.00186262
-0.00185322
-0.00182803
-0.00178529
-0.00172116
-0.00162927
-0.00149991
-0.00131769
-0.00105826
-0.000687476
-0.000158043
0.000617969
0.00180513
0.00361244
0.00566193
0.00636759
0.00580353
0.00444022
-0.0023903
-0.00246873
-0.00248581
-0.00251339
-0.00254262
-0.00257542
-0.00261383
-0.00266034
-0.00271898
-0.00279658
-0.00290615
-0.00308327
-0.0034159
-0.00396296
-0.00438985
-0.00365931
-0.00131029
0.00152648
0.0033062
0.00367286
-0.00303705
-0.00312201
-0.00316126
-0.0032278
-0.00331606
-0.00343347
-0.00359077
-0.00380424
-0.00410066
-0.00452639
-0.00516542
-0.00618602
-0.0079672
-0.0109305
-0.0147803
-0.0166994
-0.0144011
-0.00825229
-0.00180643
0.00296831
-0.00371924
-0.00381034
-0.00386866
-0.0039714
-0.00411656
-0.00431875
-0.00459938
-0.00499178
-0.0055521
-0.0063798
-0.00766069
-0.00974907
-0.0133661
-0.0193686
-0.0274088
-0.0330029
-0.031293
-0.0222534
-0.0114599
-0.00234924
-0.0044207
-0.00451619
-0.00458441
-0.004713
-0.00490318
-0.0051773
-0.00556642
-0.00611924
-0.00691803
-0.00810706
-0.00995363
-0.0129481
-0.0180009
-0.0260022
-0.0365714
-0.0439997
-0.0431446
-0.0339818
-0.0229281
-0.0115159
-0.00513079
-0.00522934
-0.00529335
-0.00542995
-0.00564228
-0.00596014
-0.00642078
-0.00708079
-0.00803435
-0.00944116
-0.0115905
-0.014975
-0.0205119
-0.0287944
-0.0395722
-0.0466982
-0.0463767
-0.0382621
-0.0293074
-0.018415
-0.00583911
-0.00592999
-0.00595944
-0.00607334
-0.0062771
-0.00660384
-0.00708923
-0.00778885
-0.008793
-0.0102462
-0.0124175
-0.0156665
-0.0208256
-0.0280341
-0.0369961
-0.0425356
-0.0425769
-0.0357114
-0.0301487
-0.0202152
-0.00657121
-0.00666032
-0.00662808
-0.00669231
-0.00684424
-0.00712796
-0.00757748
-0.00824108
-0.00919552
-0.0105456
-0.0125103
-0.0153296
-0.019478
-0.02489
-0.0313422
-0.0351247
-0.0350395
-0.0290799
-0.0266377
-0.0166625
-0.00741452
-0.00730366
-0.00712785
-0.00705264
-0.00712412
-0.00735765
-0.00776642
-0.00837441
-0.00923705
-0.0104307
-0.0120978
-0.0143713
-0.0174815
-0.0212437
-0.0255095
-0.0275545
-0.0271995
-0.0218831
-0.0212669
-0.00744828
-0.00785249
-0.00823221
-0.00785841
-0.00778662
-0.00770328
-0.00777778
-0.00802156
-0.00846662
-0.00915964
-0.0101494
-0.0115284
-0.0133509
-0.0157352
-0.0183964
-0.0212536
-0.0222997
-0.0215902
-0.0164532
-0.0143025
0.0103605
-0.0112205
-0.00864234
-0.00790506
-0.00719555
-0.00702421
-0.00712096
-0.00743202
-0.00791883
-0.00860851
-0.00952093
-0.0107501
-0.0123001
-0.0142798
-0.0163237
-0.0183498
-0.0186095
-0.0171765
-0.0103564
-0.00143464
0.0417874
-0.00780161
-0.0107241
-0.00949212
-0.00937107
-0.00880307
-0.00848597
-0.00837248
-0.00848548
-0.00888017
-0.00953965
-0.0105789
-0.0119364
-0.0138362
-0.015837
-0.0180794
-0.0181489
-0.0158994
-0.00228083
0.0220643
0.0985377
-0.0330465
-0.00787691
-0.00619156
-0.00533254
-0.00505229
-0.00519723
-0.00564919
-0.00622225
-0.00700832
-0.00792716
-0.00920309
-0.0106549
-0.0124524
-0.013825
-0.0144377
-0.0106332
0.000322248
0.0342353
0.0995065
0.229633
)
;

boundaryField
{
    movingWall
    {
        type            zeroGradient;
    }
    fixedWalls
    {
        type            zeroGradient;
    }
    frontAndBack
    {
        type            empty;
    }
}


// ************************************************************************* //
