/*--------------------------------*- C++ -*----------------------------------*\
  =========                 |
  \\      /  F ield         | OpenFOAM: The Open Source CFD Toolbox
   \\    /   O peration     | Website:  https://openfoam.org
    \\  /    A nd           | Version:  10
     \\/     M anipulation  |
\*---------------------------------------------------------------------------*/
FoamFile
{
    format      ascii;
    class       volVectorField;
    location    "9.875";
    object      U;
}
// * * * * * * * * * * * * * * * * * * * * * * * * * * * * * * * * * * * * * //

dimensions      [0 1 -1 0 0 0 0];

internalField   nonuniform List<vector> 
8000
(
(-8.30089e-05 0.000120398 -5.33234e-05)
(-0.000590783 0.000250649 -1.6801e-05)
(-0.00143478 0.000291642 1.47214e-06)
(-0.00230976 0.000311051 1.11774e-05)
(-0.00324127 0.000329665 1.15418e-05)
(-0.00421005 0.000353352 5.63667e-06)
(-0.00521119 0.000381308 -5.6333e-06)
(-0.00623321 0.000410098 -2.35102e-05)
(-0.00725011 0.000434717 -5.04526e-05)
(-0.0082172 0.000448483 -8.97178e-05)
(-0.00906632 0.000443113 -0.000144902)
(-0.0097029 0.000409376 -0.000219234)
(-0.0100089 0.000339605 -0.000314035)
(-0.00985563 0.000232065 -0.000426426)
(-0.00913218 9.21413e-05 -0.000546653)
(-0.0077848 -6.17455e-05 -0.00065317)
(-0.00588743 -0.000188843 -0.000716875)
(-0.00370719 -0.000234593 -0.000706913)
(-0.00144117 -0.000163004 -0.000603952)
(-0.000144785 7.30207e-05 -0.000310416)
(-0.00021078 0.000795424 -0.000154677)
(-0.00112917 0.00137945 -0.000147874)
(-0.00254319 0.00158156 -0.000140992)
(-0.00401197 0.00167773 -0.000134849)
(-0.00556561 0.00175301 -0.000135937)
(-0.00716796 0.00183201 -0.000142648)
(-0.00880296 0.00191352 -0.000154795)
(-0.0104461 0.00198503 -0.000174241)
(-0.0120525 0.00202712 -0.000204171)
(-0.0135508 0.00201418 -0.000248969)
(-0.0148361 0.0019158 -0.00031384)
(-0.0157664 0.00169983 -0.000403923)
(-0.0161661 0.00133957 -0.00052201)
(-0.0158491 0.000826099 -0.000665179)
(-0.0146584 0.00019017 -0.000824076)
(-0.0125128 -0.000479163 -0.000965646)
(-0.0095126 -0.00102807 -0.00104547)
(-0.00605014 -0.00125449 -0.0010179)
(-0.00243145 -0.00101282 -0.000846587)
(-0.000295514 -0.000143886 -0.000382056)
(-0.000251448 0.00192702 -0.000211981)
(-0.00132013 0.00317619 -0.00022217)
(-0.00294682 0.00361778 -0.000221825)
(-0.00462728 0.00382308 -0.000216879)
(-0.00639951 0.00396961 -0.00021743)
(-0.00822345 0.00410905 -0.000222857)
(-0.0100828 0.00424194 -0.000233538)
(-0.0119533 0.00434592 -0.000251919)
(-0.0137899 0.00438446 -0.000282046)
(-0.0155187 0.00430869 -0.00032976)
(-0.0170281 0.00406015 -0.000402501)
(-0.0181631 0.003577 -0.00050825)
(-0.0187256 0.00280748 -0.000653051)
(-0.0184849 0.00173401 -0.000837145)
(-0.0172176 0.000413193 -0.0010466)
(-0.0147839 -0.000983138 -0.00124227)
(-0.0112577 -0.00215873 -0.00135753)
(-0.00710589 -0.00269208 -0.0013207)
(-0.00273256 -0.0022585 -0.00107726)
(-0.000253898 -0.000549997 -0.000457074)
(-0.000254857 0.0031272 -0.000251845)
(-0.00136004 0.00508701 -0.000276015)
(-0.00304635 0.00577548 -0.000280887)
(-0.00478408 0.00608822 -0.000277145)
(-0.0066206 0.00630602 -0.000277899)
(-0.00851868 0.00651104 -0.000283447)
(-0.0104691 0.00670803 -0.000294779)
(-0.0124566 0.00686793 -0.000315085)
(-0.0144472 0.00694048 -0.00034956)
(-0.0163779 0.00685601 -0.000406018)
(-0.0181437 0.0065272 -0.000495257)
(-0.0195851 0.00585692 -0.000630067)
(-0.0204776 0.00475695 -0.000822179)
(-0.0205346 0.00318378 -0.00107595)
(-0.0194395 0.00119131 -0.001378)
(-0.0169368 -0.000994418 -0.00168508)
(-0.0129908 -0.00291658 -0.00188365)
(-0.00812014 -0.00387613 -0.00185081)
(-0.00286207 -0.00328141 -0.00148813)
(-8.51352e-05 -0.000637754 -0.000606695)
(-0.000238977 0.00438334 -0.000277428)
(-0.00132183 0.00709511 -0.000313074)
(-0.00299246 0.00804489 -0.000322041)
(-0.00471691 0.00847384 -0.000319748)
(-0.00655035 0.0087753 -0.000322098)
(-0.00846175 0.00906714 -0.000330415)
(-0.0104534 0.00936302 -0.000346511)
(-0.0125256 0.0096323 -0.000374682)
(-0.0146637 0.0098166 -0.000421887)
(-0.0168263 0.0098305 -0.000498868)
(-0.0189277 0.00955983 -0.000621343)
(-0.0208146 0.00886602 -0.000810098)
(-0.0222415 0.00760513 -0.00108724)
(-0.0228543 0.00566901 -0.00146603)
(-0.0222032 0.00306158 -0.00193465)
(-0.0198321 1.60133e-05 -0.00245227)
(-0.0154903 -0.00284232 -0.00283871)
(-0.00968742 -0.00449257 -0.00285197)
(-0.00308421 -0.00388816 -0.00227755)
(0.000180075 -0.000264229 -0.000893378)
(-0.000212079 0.00563888 -0.000294155)
(-0.00123795 0.00912288 -0.000339667)
(-0.00284844 0.0103453 -0.000352121)
(-0.00451762 0.010901 -0.00035161)
(-0.00630579 0.0113038 -0.000356722)
(-0.00818921 0.0117136 -0.000370025)
(-0.0101841 0.0121602 -0.000394439)
(-0.0123103 0.0126197 -0.000435792)
(-0.0145793 0.0130356 -0.000503487)
(-0.016983 0.0133171 -0.000612415)
(-0.0194717 0.0133328 -0.000785443)
(-0.0219208 0.0129057 -0.00105554)
(-0.0240867 0.0118232 -0.00146398)
(-0.0255617 0.00987748 -0.00204829)
(-0.0257476 0.00694952 -0.00281766)
(-0.023893 0.0031605 -0.00370039)
(-0.0193835 -0.000877974 -0.00448814)
(-0.0125009 -0.00371951 -0.00467887)
(-0.00382257 -0.00357582 -0.00376703)
(0.000459101 0.000887 -0.0014036)
(-0.000177182 0.00686112 -0.000306662)
(-0.00112133 0.0111246 -0.000361395)
(-0.00263819 0.0126279 -0.000376905)
(-0.0042162 0.0133193 -0.000378001)
(-0.00591754 0.0138397 -0.000386006)
(-0.00772466 0.0143993 -0.000405008)
(-0.00966707 0.0150526 -0.000439367)
(-0.0117857 0.0157944 -0.000496918)
(-0.0141232 0.0165855 -0.000590187)
(-0.0167142 0.0173503 -0.000739373)
(-0.0195647 0.0179639 -0.000976974)
(-0.022614 0.018236 -0.0013532)
(-0.02567 0.0179008 -0.00193873)
(-0.0283316 0.0166288 -0.00281508)
(-0.0299129 0.0140855 -0.00403062)
(-0.0293989 0.0100567 -0.00551613)
(-0.0255126 0.00475386 -0.00699762)
(-0.0178133 -0.000354808 -0.00769756)
(-0.0062027 -0.00185447 -0.00640082)
(0.000397956 0.00280236 -0.00240135)
(-0.000135576 0.0080285 -0.000317575)
(-0.000978112 0.0130698 -0.000381347)
(-0.002372 0.0148564 -0.000399188)
(-0.00382136 0.015684 -0.000400785)
(-0.00538641 0.016328 -0.000410432)
(-0.00705233 0.0170572 -0.000433993)
(-0.00885828 0.017961 -0.000477501)
(-0.0108626 0.0190666 -0.00055101)
(-0.0131367 0.0203724 -0.000670503)
(-0.0157618 0.0218485 -0.000862119)
(-0.0188146 0.0234219 -0.00116897)
(-0.0223351 0.0249523 -0.00166039)
(-0.0262671 0.0261963 -0.00243958)
(-0.0303569 0.0267442 -0.00363692)
(-0.0340174 0.0259349 -0.00536872)
(-0.0361247 0.0227262 -0.00762118)
(-0.03477 0.0160183 -0.0100127)
(-0.0277329 0.00668914 -0.0116572)
(-0.0128271 0.0010693 -0.010249)
(-0.00113498 0.00468842 -0.00439758)
(-8.95228e-05 0.00912643 -0.000328745)
(-0.000816842 0.0149364 -0.000401522)
(-0.00206324 0.0169977 -0.000420503)
(-0.00334506 0.0179465 -0.000420446)
(-0.00471633 0.0186986 -0.00042899)
(-0.00615924 0.0195907 -0.000453961)
(-0.00771524 0.020757 -0.000503109)
(-0.00945063 0.02227 -0.000588491)
(-0.0114535 0.0241869 -0.000728781)
(-0.0138372 0.0265579 -0.000954013)
(-0.0167381 0.0294181 -0.00131291)
(-0.0203076 0.0327636 -0.00188008)
(-0.0246989 0.0364825 -0.00275454)
(-0.0300238 0.040128 -0.00404132)
(-0.0362647 0.0424805 -0.00583829)
(-0.0427965 0.0408986 -0.00832254)
(-0.0470033 0.0317168 -0.0116157)
(-0.0436603 0.0149891 -0.0148844)
(-0.0269941 0.00183231 -0.0139695)
(-0.00607385 0.00421918 -0.0081976)
(-4.39023e-05 0.0101503 -0.000342214)
(-0.000654617 0.0167145 -0.000424073)
(-0.00173955 0.019026 -0.000442643)
(-0.00281859 0.0200572 -0.000437906)
(-0.00393618 0.0208704 -0.000441191)
(-0.00506402 0.0218788 -0.000462543)
(-0.00623615 0.023267 -0.000511199)
(-0.00751085 0.0251613 -0.000600348)
(-0.00896925 0.0276923 -0.000749031)
(-0.0107243 0.0310167 -0.000985141)
(-0.0129327 0.0353224 -0.00134733)
(-0.0158238 0.040803 -0.00187209)
(-0.0198121 0.0475374 -0.00254213)
(-0.0256136 0.0549157 -0.00325086)
(-0.0342717 0.0606906 -0.00394596)
(-0.0463851 0.0597879 -0.00533033)
(-0.0589575 0.045361 -0.00874596)
(-0.0630187 0.0168345 -0.0127121)
(-0.0469596 -0.00723404 -0.0126843)
(-0.0143152 -0.00459398 -0.0120073)
(-7.34203e-06 0.0111151 -0.000360184)
(-0.000521594 0.0184149 -0.000451979)
(-0.00145097 0.0209282 -0.000468172)
(-0.00230321 0.0219704 -0.000455028)
(-0.00311389 0.0227577 -0.000447743)
(-0.00383698 0.0237853 -0.000459153)
(-0.00449016 0.0252863 -0.000499349)
(-0.00510422 0.0274366 -0.000581046)
(-0.00572148 0.0304362 -0.000719682)
(-0.00640611 0.0345434 -0.000930225)
(-0.00727132 0.0400906 -0.00121349)
(-0.00854468 0.0474191 -0.00149906)
(-0.010915 0.056655 -0.00150932)
(-0.0158739 0.066755 -0.000725841)
(-0.0259998 0.073861 0.00110289)
(-0.0443235 0.0704947 0.00250725)
(-0.0688106 0.0478035 0.00157878)
(-0.0827104 0.002782 0.00161728)
(-0.0645413 -0.03405 0.000681729)
(-0.0215363 -0.0301875 -0.009181)
(2.89233e-06 0.0120734 -0.000389225)
(-0.000471339 0.0200935 -0.000493579)
(-0.00128124 0.022733 -0.000506772)
(-0.00190011 0.0236771 -0.000481674)
(-0.00236535 0.0243077 -0.000457731)
(-0.00261184 0.0252036 -0.000452015)
(-0.00263847 0.0266362 -0.000475173)
(-0.00243339 0.0288112 -0.000538092)
(-0.00197456 0.0319678 -0.000649517)
(-0.00123899 0.0364186 -0.000802803)
(-0.000262655 0.0425564 -0.000938972)
(0.000755093 0.0507503 -0.000838689)
(0.000883035 0.0608822 0.00011644)
(-0.00247468 0.0712001 0.00287256)
(-0.0142214 0.0767759 0.00798476)
(-0.040978 0.0687325 0.0138172)
(-0.0813297 0.0343453 0.0202013)
(-0.100842 -0.0354692 0.0278661)
(-0.0784462 -0.0871387 0.0199544)
(-0.0279131 -0.0763279 0.000854288)
(-4.16111e-05 0.0131148 -0.000439589)
(-0.000581134 0.0218202 -0.000553572)
(-0.00134545 0.0244475 -0.000557355)
(-0.001749 0.0251269 -0.00051283)
(-0.0018533 0.0254324 -0.000466602)
(-0.00158216 0.026014 -0.000439814)
(-0.000925981 0.0271532 -0.000441979)
(0.000170908 0.0290615 -0.000479498)
(0.00180392 0.0319746 -0.000554246)
(0.00409114 0.0361774 -0.00064257)
(0.00710183 0.0420312 -0.000629995)
(0.0106086 0.0498062 -0.000200659)
(0.0133023 0.0591458 0.00162089)
(0.0116844 0.0679036 0.00626753)
(-0.00214232 0.0709858 0.0148213)
(-0.0394933 0.0569375 0.0265573)
(-0.0921679 0.00149053 0.0410348)
(-0.111799 -0.101937 0.0428162)
(-0.0962385 -0.159795 0.024592)
(-0.0359521 -0.145225 0.00526564)
(-0.000209949 0.0144631 -0.000549472)
(-0.00101695 0.023905 -0.000690677)
(-0.00184452 0.026394 -0.000696189)
(-0.00204286 0.0266347 -0.000628934)
(-0.00176237 0.0263942 -0.000547295)
(-0.000957709 0.0264086 -0.000483046)
(0.000382329 0.0269702 -0.000447154)
(0.00235861 0.0282786 -0.00045257)
(0.00510806 0.0305234 -0.000499442)
(0.00883693 0.0339025 -0.000549231)
(0.0137047 0.0386818 -0.000458839)
(0.0195306 0.0449502 0.000130551)
(0.0249013 0.0523336 0.00235394)
(0.0260398 0.05894 0.00796803)
(0.0134174 0.0600059 0.0190251)
(-0.0257841 0.0384363 0.0338347)
(-0.0803479 -0.0381231 0.0454535)
(-0.104102 -0.154646 0.0334013)
(-0.109004 -0.219896 0.0170918)
(-0.0413975 -0.224415 -0.00313177)
(-0.000549057 0.0166738 -0.000731946)
(-0.00183324 0.0262671 -0.00085167)
(-0.00287636 0.0280543 -0.000829366)
(-0.00295738 0.0273676 -0.000715501)
(-0.00235875 0.0263696 -0.000599557)
(-0.00104759 0.0257381 -0.000508375)
(0.000949231 0.0256829 -0.000449811)
(0.0037334 0.0262831 -0.000443423)
(0.00745007 0.0276414 -0.000488645)
(0.0123714 0.0298479 -0.00056057)
(0.0187128 0.0330332 -0.0004978)
(0.0264326 0.0370911 2.77666e-05)
(0.0343406 0.0416549 0.00204516)
(0.0397264 0.0452194 0.00719101)
(0.0343079 0.0446795 0.017802)
(0.0072444 0.0206288 0.0309903)
(-0.042271 -0.0578942 0.0371405)
(-0.0778939 -0.167647 0.0235059)
(-0.106815 -0.257043 0.0112503)
(-0.0420424 -0.293263 -0.0171559)
(-0.00193557 0.018769 -0.00121544)
(-0.00460834 0.0303755 -0.00144905)
(-0.00547033 0.0316312 -0.00138421)
(-0.00504666 0.0302785 -0.00119842)
(-0.00369381 0.0281596 -0.000978826)
(-0.00167081 0.0263387 -0.000788588)
(0.000982631 0.0250847 -0.000658023)
(0.00441253 0.0244454 -0.00060622)
(0.00881658 0.0244839 -0.000652307)
(0.0145117 0.025159 -0.000759276)
(0.0217129 0.0264736 -0.000801108)
(0.0305025 0.0281196 -0.000536851)
(0.0398735 0.0297034 0.000837886)
(0.0485117 0.0296036 0.00440851)
(0.0494373 0.026648 0.0123453)
(0.0379232 0.0055327 0.0225319)
(-0.00507939 -0.0586042 0.0265754)
(-0.0470076 -0.159981 0.0196209)
(-0.0985924 -0.273824 0.00674913)
(-0.0396142 -0.34697 -0.0307473)
(-0.00135239 0.0300588 -0.00221634)
(-0.00485018 0.033861 -0.00213616)
(-0.00783519 0.0323572 -0.00196203)
(-0.00757549 0.0282763 -0.00152854)
(-0.00629361 0.0251455 -0.00122384)
(-0.00370598 0.0228169 -0.000972633)
(-0.00027753 0.0212134 -0.000815296)
(0.00402782 0.0200947 -0.000760991)
(0.00927614 0.0194365 -0.000846444)
(0.0157426 0.0190701 -0.00104854)
(0.0235377 0.0190199 -0.00126045)
(0.03286 0.0187988 -0.00133514)
(0.0424564 0.0182247 -0.000708668)
(0.0525007 0.0154235 0.00123814)
(0.0552304 0.0100953 0.00618879)
(0.0542269 -0.00651316 0.0136033)
(0.0170582 -0.0508617 0.0175228)
(-0.0158972 -0.140422 0.0177498)
(-0.0860618 -0.274356 0.00285613)
(-0.0318544 -0.383918 -0.0440895)
(-0.0129602 0.02726 -0.00297146)
(-0.0215311 0.0479131 -0.00383191)
(-0.0151248 0.0435542 -0.00378856)
(-0.0126753 0.0384148 -0.00335508)
(-0.00758275 0.0322665 -0.00265132)
(-0.00203748 0.0271948 -0.00201203)
(0.0038729 0.0232092 -0.00157017)
(0.0102482 0.0200691 -0.00134682)
(0.0170651 0.017728 -0.00134632)
(0.0248779 0.0158098 -0.00157204)
(0.0332787 0.0144366 -0.0018966)
(0.0432604 0.0128612 -0.00223857)
(0.052268 0.0115529 -0.00218155)
(0.0632439 0.00849989 -0.00124956)
(0.0654285 0.00436539 0.00141386)
(0.0720217 -0.00703719 0.00662522)
(0.04256 -0.0351751 0.00997439)
(0.0361814 -0.111936 0.0152115)
(-0.0528561 -0.25959 -0.00145788)
(-0.0122691 -0.395934 -0.055169)
(-0.0467417 0.0873147 -0.0124925)
(-0.0300085 0.0390755 -0.00912137)
(-0.0205283 0.0326781 -0.00718803)
(-0.000788719 0.025554 -0.00533724)
(0.0159272 0.0190914 -0.00412627)
(0.0327085 0.0147342 -0.00319743)
(0.0473896 0.0119137 -0.00256102)
(0.06141 0.00970815 -0.00221872)
(0.0734709 0.00823875 -0.00208932)
(0.0863772 0.00680746 -0.00222844)
(0.0967158 0.00609496 -0.00250039)
(0.110531 0.00484928 -0.00292798)
(0.118572 0.00412798 -0.00320817)
(0.135182 0.0016116 -0.0029791)
(0.134766 -0.00209169 -0.00198889)
(0.154669 -0.0127716 0.00168016)
(0.126416 -0.0377106 0.00439863)
(0.149287 -0.0980187 0.00995885)
(0.0313466 -0.233194 -0.00456991)
(0.0356992 -0.36368 -0.0655035)
(0.117469 0.112313 -0.0111613)
(0.143985 0.0598829 -0.0119189)
(0.215804 0.0394629 -0.0119133)
(0.260706 0.026152 -0.0108396)
(0.293418 0.0173126 -0.00946574)
(0.321212 0.0113453 -0.00829164)
(0.341908 0.00762768 -0.00721201)
(0.361769 0.00507785 -0.00639661)
(0.374683 0.00358095 -0.00566261)
(0.391398 0.00235741 -0.00517658)
(0.398553 0.00178438 -0.00479009)
(0.41583 0.00105825 -0.00454177)
(0.416357 0.000734018 -0.00437985)
(0.437108 -0.000247033 -0.00407387)
(0.425024 -0.00170095 -0.00370867)
(0.448586 -0.00523194 -0.0028566)
(0.403511 -0.0138432 -0.00173381)
(0.413626 -0.0320949 -0.00193162)
(0.248839 -0.0724262 -0.0103088)
(0.167605 -0.137861 -0.0752492)
(-0.000142449 0.000181062 -0.000183395)
(-0.00101773 0.000450863 -0.000161676)
(-0.00248027 0.000545184 -0.000138955)
(-0.00398992 0.000581231 -0.000127081)
(-0.00557232 0.000606273 -0.000134781)
(-0.00719243 0.000635464 -0.000159289)
(-0.00883922 0.0006686 -0.000201098)
(-0.0104911 0.000699817 -0.000264793)
(-0.012104 0.000720437 -0.00035753)
(-0.0136056 0.000718985 -0.000488016)
(-0.0148895 0.000681312 -0.000665098)
(-0.0158124 0.000591839 -0.000895484)
(-0.0161991 0.000437774 -0.00117958)
(-0.0158617 0.000216037 -0.00150608)
(-0.0146375 -6.56796e-05 -0.0018424)
(-0.0124495 -0.000366813 -0.00213314)
(-0.00941061 -0.000606157 -0.00230345)
(-0.00592077 -0.000677125 -0.00227932)
(-0.00232357 -0.000492806 -0.0020014)
(-0.000257281 2.23214e-05 -0.00117644)
(-0.000435699 0.00124414 -0.000409619)
(-0.00222405 0.00241725 -0.000469714)
(-0.0049451 0.00284986 -0.00047247)
(-0.00776438 0.00302162 -0.000466832)
(-0.010697 0.00311902 -0.0004788)
(-0.0136667 0.00320226 -0.000510279)
(-0.0166333 0.00327313 -0.000564586)
(-0.0195421 0.00330947 -0.000649319)
(-0.0223054 0.00327663 -0.000775202)
(-0.0247936 0.00313 -0.000955297)
(-0.0268281 0.00281786 -0.00120321)
(-0.0281793 0.00228768 -0.00152962)
(-0.0285771 0.0014992 -0.00193584)
(-0.0277509 0.000446134 -0.00240716)
(-0.0254736 -0.000805484 -0.00290169)
(-0.0216416 -0.00208192 -0.00332828)
(-0.0164422 -0.00307799 -0.00356957)
(-0.0104942 -0.00339385 -0.00350274)
(-0.0043572 -0.00269202 -0.00300769)
(-0.000639403 -0.000686838 -0.00162514)
(-0.000558083 0.00305979 -0.000542953)
(-0.00275514 0.00554359 -0.000653341)
(-0.00604154 0.00646631 -0.000672431)
(-0.00942748 0.00682622 -0.000668807)
(-0.0129317 0.00700609 -0.000679343)
(-0.0164638 0.00712877 -0.000709286)
(-0.0199761 0.00720199 -0.000764244)
(-0.0234071 0.00718494 -0.000854455)
(-0.0266605 0.00701103 -0.000994247)
(-0.0295944 0.00659435 -0.00120188)
(-0.0320117 0.00583598 -0.00149785)
(-0.0336562 0.00463693 -0.00190102)
(-0.0342203 0.00292343 -0.0024215)
(-0.0333645 0.000690128 -0.00304824)
(-0.0307737 -0.00192964 -0.00372543)
(-0.0262638 -0.00460501 -0.00433566)
(-0.0199879 -0.00672715 -0.00469575)
(-0.0126838 -0.00745897 -0.00459909)
(-0.00510113 -0.00606053 -0.00386384)
(-0.000655947 -0.00195855 -0.00198077)
(-0.000594242 0.00500004 -0.000642457)
(-0.00294681 0.00889053 -0.000793954)
(-0.00646132 0.0103201 -0.000826475)
(-0.0100717 0.0108619 -0.000825114)
(-0.0138086 0.0111183 -0.00083563)
(-0.0175834 0.0112814 -0.000866334)
(-0.0213578 0.0113681 -0.000925308)
(-0.0250825 0.0113229 -0.00102603)
(-0.028675 0.0110512 -0.00118774)
(-0.0320061 0.0104272 -0.00143636)
(-0.0348841 0.00930107 -0.00180404)
(-0.0370395 0.00751512 -0.00232497)
(-0.0381185 0.00494073 -0.00302607)
(-0.0376924 0.00154453 -0.00390942)
(-0.0353075 -0.00251874 -0.00492407)
(-0.0305777 -0.00679631 -0.0059045)
(-0.0234691 -0.0103344 -0.00653883)
(-0.0147824 -0.011701 -0.00643785)
(-0.00553173 -0.00952999 -0.00527661)
(-0.000454851 -0.00292722 -0.00255288)
(-0.000586595 0.00703066 -0.000714869)
(-0.00296532 0.0124097 -0.000901627)
(-0.00654329 0.0143737 -0.000945643)
(-0.0102231 0.0151106 -0.000947658)
(-0.0140479 0.0154614 -0.000961668)
(-0.0179404 0.0156964 -0.000999332)
(-0.0218827 0.0158488 -0.00107183)
(-0.0258514 0.0158549 -0.00119707)
(-0.0297951 0.0155977 -0.00140138)
(-0.0336172 0.0149152 -0.00172222)
(-0.0371504 0.013602 -0.00221006)
(-0.0401273 0.0114236 -0.00292638)
(-0.0421482 0.00815603 -0.00393076)
(-0.0426649 0.00366651 -0.00525532)
(-0.0410256 -0.0019477 -0.00687614)
(-0.0365109 -0.00813823 -0.00855831)
(-0.028671 -0.0136559 -0.00977208)
(-0.0181591 -0.0162405 -0.00973286)
(-0.00624512 -0.0133197 -0.00777511)
(-0.000103681 -0.00353102 -0.00349382)
(-0.000557088 0.00906917 -0.000770368)
(-0.00289479 0.0159839 -0.000989061)
(-0.00645121 0.0185066 -0.00104366)
(-0.0101225 0.0194583 -0.00105018)
(-0.013962 0.0199341 -0.00107065)
(-0.0179083 0.0202939 -0.00112057)
(-0.0219711 0.0205976 -0.00121499)
(-0.0261641 0.0207845 -0.00137758)
(-0.0304819 0.0207269 -0.0016442)
(-0.0348818 0.0202354 -0.00206863)
(-0.0392509 0.019053 -0.00272889)
(-0.0433584 0.0168567 -0.00373112)
(-0.0467964 0.0132879 -0.00520116)
(-0.0489262 0.00803555 -0.00724742)
(-0.0488415 0.00100191 -0.00986468)
(-0.0454122 -0.00740784 -0.0127666)
(-0.0374532 -0.0159112 -0.0150477)
(-0.0247404 -0.0211904 -0.0151892)
(-0.00828256 -0.0179477 -0.0119014)
(0.000284826 -0.0037831 -0.00491657)
(-0.000514444 0.0110731 -0.00081827)
(-0.00277114 0.0195507 -0.00106805)
(-0.00625322 0.0226538 -0.00113255)
(-0.00986159 0.0238403 -0.00114331)
(-0.0136566 0.0244741 -0.00117055)
(-0.0175937 0.0250185 -0.00123419)
(-0.0217133 0.0255738 -0.00135388)
(-0.0260735 0.0260988 -0.00156023)
(-0.03073 0.0264755 -0.00190097)
(-0.035718 0.0265098 -0.00245095)
(-0.0410188 0.0259143 -0.00332643)
(-0.0465032 0.0242931 -0.0046995)
(-0.0518485 0.0211447 -0.00679798)
(-0.0564424 0.0159016 -0.00984833)
(-0.0592911 0.00800663 -0.0138903)
(-0.0588928 -0.00293664 -0.0184755)
(-0.0527832 -0.0163217 -0.0219621)
(-0.0383052 -0.0279778 -0.0221699)
(-0.0145718 -0.0258593 -0.0173784)
(8.31211e-05 -0.00488931 -0.00701384)
(-0.00046166 0.0130172 -0.000864709)
(-0.0026087 0.0230734 -0.00114641)
(-0.00597512 0.0267714 -0.0012194)
(-0.00946787 0.0282035 -0.00123178)
(-0.0131495 0.029017 -0.0012625)
(-0.0169895 0.0297944 -0.00133632)
(-0.0210578 0.0306932 -0.00147779)
(-0.0254586 0.0317134 -0.00172477)
(-0.0303165 0.0327761 -0.00213764)
(-0.0357664 0.0337242 -0.00281529)
(-0.0419289 0.0342964 -0.00391908)
(-0.0488646 0.0340962 -0.00569988)
(-0.0565133 0.0325502 -0.00849811)
(-0.0646163 0.0287831 -0.0126272)
(-0.0725201 0.0212528 -0.0179687)
(-0.0784333 0.0072206 -0.0232358)
(-0.0781078 -0.0157091 -0.0261512)
(-0.0638382 -0.0417496 -0.0252906)
(-0.0306903 -0.0441833 -0.0208731)
(-0.00258491 -0.011103 -0.0100513)
(-0.000401697 0.0148844 -0.000914628)
(-0.00241955 0.0265255 -0.00123035)
(-0.00563586 0.0308188 -0.00130933)
(-0.0089562 0.0324862 -0.00131804)
(-0.0124395 0.0334738 -0.00134504)
(-0.0160624 0.0345004 -0.00142006)
(-0.0199174 0.0357989 -0.00157207)
(-0.0241481 0.0374345 -0.00184487)
(-0.0289424 0.0394039 -0.00230869)
(-0.034536 0.0416436 -0.00308053)
(-0.041209 0.0440065 -0.00435341)
(-0.049283 0.0462199 -0.00641305)
(-0.0591605 0.0477466 -0.0095589)
(-0.0713966 0.0471773 -0.0137619)
(-0.0864773 0.040776 -0.0179662)
(-0.102875 0.0208335 -0.019786)
(-0.112833 -0.0203909 -0.0174006)
(-0.100318 -0.0717624 -0.0144472)
(-0.0592132 -0.0837195 -0.0165068)
(-0.0108615 -0.0313658 -0.014102)
(-0.000340903 0.0166704 -0.000973898)
(-0.00222588 0.0298951 -0.00132725)
(-0.00527018 0.034762 -0.0014088)
(-0.00836125 0.0366215 -0.00140626)
(-0.0115491 0.0377346 -0.00141867)
(-0.0148076 0.0389731 -0.00148079)
(-0.0182388 0.0406607 -0.00162465)
(-0.0220074 0.0429492 -0.00189635)
(-0.0263397 0.0459461 -0.00236755)
(-0.0315434 0.0497415 -0.00315302)
(-0.0380295 0.0543969 -0.00442291)
(-0.0463767 0.0598691 -0.00633555)
(-0.0575946 0.0656162 -0.00870366)
(-0.0734074 0.0689639 -0.0103319)
(-0.0957735 0.0621763 -0.0085247)
(-0.123176 0.0307114 -0.00066407)
(-0.142606 -0.0372711 0.0117113)
(-0.131781 -0.11985 0.0143808)
(-0.0895578 -0.14491 -0.0014744)
(-0.0245076 -0.0795751 -0.0141649)
(-0.000291871 0.0183934 -0.00105085)
(-0.00206842 0.0331923 -0.00144716)
(-0.00494288 0.0385734 -0.00152633)
(-0.00775759 0.0405333 -0.0015028)
(-0.0105524 0.0416653 -0.00148691)
(-0.0132863 0.043007 -0.00151863)
(-0.0160554 0.0449776 -0.00163053)
(-0.019016 0.0478222 -0.00186498)
(-0.0223865 0.0517743 -0.00228044)
(-0.0264752 0.057104 -0.00295114)
(-0.0317265 0.0641128 -0.00392336)
(-0.0388381 0.0729296 -0.0049762)
(-0.049309 0.0826656 -0.0049356)
(-0.065815 0.0885546 -0.000950126)
(-0.0914609 0.0781512 0.0108802)
(-0.124976 0.0315458 0.0322411)
(-0.151355 -0.0617445 0.0539272)
(-0.143934 -0.167739 0.0481211)
(-0.106894 -0.209102 0.0193549)
(-0.0343463 -0.157696 -0.00344603)
(-0.000279685 0.02012 -0.00116301)
(-0.00202346 0.0364986 -0.00161389)
(-0.00477002 0.0423028 -0.00168893)
(-0.0072782 0.0442187 -0.00163489)
(-0.00959193 0.0451932 -0.00157477)
(-0.0116502 0.0464404 -0.0015561)
(-0.0135315 0.0484705 -0.00161076)
(-0.0153528 0.0516085 -0.00177235)
(-0.0172718 0.0561893 -0.0020731)
(-0.0195128 0.0626202 -0.00251277)
(-0.0224391 0.0713506 -0.00293589)
(-0.026671 0.0824763 -0.0026017)
(-0.0339179 0.0944682 0.000698415)
(-0.0475802 0.100602 0.0110732)
(-0.0721571 0.085448 0.0332433)
(-0.1086 0.0273082 0.0658932)
(-0.142585 -0.0791515 0.0880067)
(-0.136576 -0.196899 0.0668852)
(-0.109882 -0.259881 0.0322467)
(-0.0342567 -0.239278 0.00611768)
(-0.00033746 0.0219388 -0.00133307)
(-0.00218142 0.0398356 -0.00183815)
(-0.00489778 0.0458401 -0.00189302)
(-0.00711252 0.0474671 -0.00179158)
(-0.00889509 0.0480579 -0.00167429)
(-0.0101629 0.0489751 -0.00159445)
(-0.0109802 0.0507775 -0.00157941)
(-0.0114122 0.0538262 -0.00164913)
(-0.0115257 0.0585027 -0.00180628)
(-0.0114078 0.0652514 -0.00197744)
(-0.0112689 0.0745402 -0.00181726)
(-0.0115323 0.0863176 -0.000209254)
(-0.0139539 0.0985955 0.0057565)
(-0.0224531 0.103881 0.0210699)
(-0.0436005 0.0862926 0.0502956)
(-0.0812161 0.0238265 0.0869448)
(-0.118768 -0.0865904 0.100526)
(-0.113168 -0.212576 0.0643148)
(-0.105747 -0.296108 0.0300454)
(-0.0294356 -0.311051 0.00193224)
(-0.000573767 0.0241702 -0.00163985)
(-0.00282685 0.0437908 -0.00225215)
(-0.00565868 0.0498949 -0.00230693)
(-0.00753893 0.0510139 -0.00214953)
(-0.00869234 0.0508639 -0.00194598)
(-0.00907663 0.0510224 -0.00177029)
(-0.00874506 0.0521161 -0.00165315)
(-0.00769067 0.0545198 -0.00161738)
(-0.00588602 0.058601 -0.00164798)
(-0.00326287 0.0647353 -0.00161604)
(0.000147163 0.0733418 -0.0010837)
(0.00418584 0.0842416 0.00117306)
(0.00732457 0.0954401 0.00824207)
(0.00599257 0.100053 0.0252242)
(-0.00798073 0.0835129 0.0561711)
(-0.0390025 0.0236012 0.0892148)
(-0.073428 -0.0833298 0.0918619)
(-0.0743038 -0.208238 0.0514126)
(-0.091626 -0.312299 0.0229321)
(-0.0209544 -0.372483 -0.00884956)
(-0.00094924 0.0273049 -0.00209453)
(-0.00370931 0.0475716 -0.00273391)
(-0.00698149 0.0528277 -0.0027408)
(-0.00877377 0.0526803 -0.00248791)
(-0.00948064 0.0515861 -0.002205)
(-0.00901116 0.0509846 -0.00195557)
(-0.00749708 0.0513603 -0.00176747)
(-0.00492948 0.0529556 -0.00166797)
(-0.00124749 0.0560343 -0.00163768)
(0.00377356 0.0608835 -0.00154166)
(0.0102739 0.067789 -0.000957301)
(0.0183486 0.0764544 0.00115483)
(0.0269304 0.085233 0.00746898)
(0.0338277 0.088752 0.0220999)
(0.0310494 0.0760852 0.0488899)
(0.0159702 0.0260437 0.0749484)
(-0.0162678 -0.0685348 0.0732952)
(-0.0276155 -0.182485 0.0411782)
(-0.0689688 -0.309167 0.0178256)
(-0.00793114 -0.417708 -0.0203654)
(-0.00305133 0.0299544 -0.00307361)
(-0.00804802 0.0545592 -0.00396582)
(-0.010792 0.0595287 -0.00392328)
(-0.0116873 0.0586011 -0.00356758)
(-0.011116 0.0557287 -0.00310319)
(-0.00947624 0.0532455 -0.00266801)
(-0.00680465 0.0517551 -0.00232848)
(-0.00297946 0.0514933 -0.0021194)
(0.00220458 0.0526404 -0.00204139)
(0.00910028 0.0553215 -0.00198874)
(0.0178999 0.0596552 -0.00162931)
(0.0289089 0.0651879 -0.000176264)
(0.0412357 0.0706414 0.0042335)
(0.0542349 0.0717496 0.0141773)
(0.0601296 0.0624392 0.0332742)
(0.0606281 0.0260214 0.052841)
(0.030328 -0.0492556 0.0517946)
(0.0174954 -0.147461 0.03374)
(-0.0466835 -0.295281 0.0145008)
(0.00866092 -0.44918 -0.0315356)
(-0.00121839 0.04424 -0.0050403)
(-0.00686227 0.0576208 -0.00569195)
(-0.0141664 0.0586771 -0.00534466)
(-0.0152738 0.0541281 -0.00452857)
(-0.0150094 0.0504908 -0.0039104)
(-0.0126258 0.0478025 -0.00336423)
(-0.00884302 0.046088 -0.00296098)
(-0.00362781 0.0451973 -0.0027254)
(0.00309671 0.0452386 -0.0026981)
(0.0116786 0.0461509 -0.00282648)
(0.0222516 0.0481352 -0.00284502)
(0.0351899 0.0506158 -0.00226733)
(0.0492865 0.0529287 0.00013367)
(0.0657149 0.0515912 0.00564153)
(0.0745813 0.0436294 0.0169906)
(0.0857125 0.0189738 0.0312081)
(0.0583342 -0.0331657 0.0315699)
(0.0544366 -0.109483 0.027135)
(-0.0201159 -0.275546 0.0114867)
(0.0338324 -0.46412 -0.0424452)
(-0.0125114 0.0345907 -0.00587566)
(-0.0231399 0.077873 -0.00792208)
(-0.0194168 0.0763596 -0.00830362)
(-0.0218318 0.0705078 -0.00773103)
(-0.0193706 0.0624736 -0.00659899)
(-0.0151488 0.0556615 -0.00549982)
(-0.00911464 0.0501981 -0.00468794)
(-0.00150259 0.0459126 -0.00421338)
(0.00750868 0.0428661 -0.00411548)
(0.0183401 0.0406632 -0.00437978)
(0.0305393 0.0395841 -0.00476204)
(0.0451163 0.0387557 -0.00496479)
(0.0594467 0.0387509 -0.00425181)
(0.0777223 0.0365007 -0.00164075)
(0.0861101 0.0317693 0.00360103)
(0.104596 0.0184214 0.0133728)
(0.0844895 -0.0140592 0.0135837)
(0.104288 -0.0703286 0.0178447)
(0.0360052 -0.249545 0.00714035)
(0.0771211 -0.457876 -0.0531951)
(-0.0763065 0.0988564 -0.0202532)
(-0.0608485 0.0594699 -0.0169097)
(-0.0595404 0.0587887 -0.0140851)
(-0.0359166 0.050922 -0.011593)
(-0.0159046 0.0429253 -0.00988722)
(0.00631429 0.0370229 -0.00844433)
(0.0269776 0.0327888 -0.00743014)
(0.0478526 0.0291964 -0.00681334)
(0.0666573 0.0266687 -0.00655566)
(0.0871857 0.0242348 -0.00670231)
(0.104138 0.0229433 -0.00711131)
(0.126354 0.0213094 -0.00766119)
(0.140329 0.0203503 -0.0080564)
(0.167708 0.0185666 -0.00738894)
(0.173737 0.0132249 -0.00590415)
(0.207959 0.00536285 -0.000882392)
(0.190401 -0.0253467 0.00250433)
(0.230219 -0.0713301 0.00574895)
(0.155486 -0.229786 0.0020052)
(0.150284 -0.41068 -0.0641479)
(0.11907 0.140098 -0.0172606)
(0.151372 0.0854067 -0.0193143)
(0.228543 0.062962 -0.0197124)
(0.28344 0.0474894 -0.0185812)
(0.32472 0.0366234 -0.0169238)
(0.362914 0.0285837 -0.0154592)
(0.391563 0.0229936 -0.0140187)
(0.422534 0.0187242 -0.0129836)
(0.442098 0.0157328 -0.0118847)
(0.470343 0.0132672 -0.0113614)
(0.482369 0.0115041 -0.0105713)
(0.51144 0.0100391 -0.0106028)
(0.515489 0.00875167 -0.00977368)
(0.547808 0.00751921 -0.0102017)
(0.540335 0.00533858 -0.00838184)
(0.573871 0.00155715 -0.00912422)
(0.54039 -0.00694618 -0.00530921)
(0.552275 -0.0251518 -0.0101177)
(0.423438 -0.0672705 -0.011395)
(0.302356 -0.144806 -0.0774397)
(-0.000158367 0.000168868 -0.00029181)
(-0.00117501 0.000490136 -0.000354552)
(-0.00288602 0.000606092 -0.000357805)
(-0.00464454 0.000647437 -0.000360628)
(-0.00647565 0.00067183 -0.00038363)
(-0.00833699 0.000698965 -0.000429979)
(-0.0102162 0.000728986 -0.000503806)
(-0.0120894 0.000754887 -0.00061263)
(-0.0139074 0.000766211 -0.000766523)
(-0.0155901 0.000749015 -0.000976883)
(-0.0170198 0.000685957 -0.00125429)
(-0.0180369 0.000557896 -0.00160511)
(-0.0184455 0.000349033 -0.00202585)
(-0.0180302 5.37271e-05 -0.00249676)
(-0.016601 -0.000318519 -0.00296977)
(-0.0140656 -0.00070845 -0.00337154)
(-0.0105508 -0.00100831 -0.00360721)
(-0.00652972 -0.00107423 -0.00358731)
(-0.00244202 -0.000788952 -0.00321755)
(-0.000204824 -7.26521e-05 -0.00203738)
(-0.000528085 0.00131952 -0.000534545)
(-0.00270305 0.00271165 -0.000715027)
(-0.00601092 0.00323723 -0.000750485)
(-0.00942016 0.00343155 -0.000761493)
(-0.0129387 0.00352189 -0.000794534)
(-0.0164696 0.00358528 -0.000860531)
(-0.019962 0.00362479 -0.000968552)
(-0.0233499 0.00361338 -0.00113151)