/*--------------------------------*- C++ -*----------------------------------*\
  =========                 |
  \\      /  F ield         | OpenFOAM: The Open Source CFD Toolbox
   \\    /   O peration     | Website:  https://openfoam.org
    \\  /    A nd           | Version:  10
     \\/     M anipulation  |
\*---------------------------------------------------------------------------*/
FoamFile
{
    format      ascii;
    class       volScalarField;
    location    "6.95";
    object      p;
}
// * * * * * * * * * * * * * * * * * * * * * * * * * * * * * * * * * * * * * //

dimensions      [0 2 -2 0 0 0 0];

internalField   nonuniform List<scalar> 
8000
(
3.2147e-09
-2.72579e-06
4.69886e-05
0.000136154
0.000271308
0.00045427
0.000686843
0.000970913
0.00130725
0.00169494
0.00213045
0.00260646
0.00311076
0.00362532
0.00412669
0.00458489
0.00496794
0.00524577
0.0054122
0.00541986
2.79184e-06
-7.81848e-07
5.06782e-05
0.0001396
0.000273051
0.000453176
0.000682229
0.00096222
0.0012942
0.00167761
0.00210935
0.00258264
0.00308541
0.00359971
0.00410357
0.00456596
0.00495405
0.00523636
0.00540788
0.00540992
-6.2274e-05
-6.96383e-05
-2.0079e-05
6.55056e-05
0.000194757
0.000369992
0.000593922
0.000869219
0.00119784
0.00158033
0.00201486
0.00249593
0.00301325
0.00354967
0.00408109
0.00457449
0.00499251
0.00529716
0.00548216
0.00547451
-0.000182885
-0.000193026
-0.000146397
-6.58674e-05
5.68963e-05
0.000224541
0.000440482
0.000708414
0.00103169
0.00141264
0.00185158
0.00234537
0.00288564
0.00345694
0.00403195
0.0045777
0.00504837
0.00539435
0.00560513
0.0055862
-0.000365218
-0.000378201
-0.00033594
-0.000262499
-0.000148843
8.09932e-06
0.000212598
0.000469621
0.000784322
0.00116146
0.00160436
0.00211333
0.00268339
0.00330105
0.0039406
0.00456377
0.00511468
0.00552607
0.00577922
0.00574451
-0.000609737
-0.000625944
-0.000589582
-0.000525609
-0.000424345
-0.00028232
-9.43978e-05
0.000145759
0.000445337
0.000812004
0.00125304
0.0017736
0.00237411
0.00304586
0.00376487
0.0044932
0.00515996
0.00567238
0.00599421
0.0059381
-0.000915664
-0.000935685
-0.000906877
-0.000855167
-0.000770369
-0.000648816
-0.000484705
-0.000270493
2.98654e-06
0.000346481
0.000771831
0.00129069
0.00191165
0.00263558
0.0034474
0.0043013
0.00512466
0.0057902
0.00622475
0.00614716
-0.00128149
-0.00130605
-0.00128649
-0.0012501
-0.00118646
-0.00109214
-0.000961171
-0.000785358
-0.000554108
-0.000254051
0.000131073
0.000619928
0.00123165
0.00198055
0.00286751
0.00386507
0.00489202
0.00578413
0.00640822
0.0063394
-0.00170508
-0.00173488
-0.00172599
-0.00170782
-0.00167017
-0.00161048
-0.00152348
-0.00140143
-0.00123366
-0.00100569
-0.000698389
-0.000287368
0.000257203
0.000968142
0.00187171
0.00296913
0.00421005
0.00542779
0.0063719
0.00644477
-0.00218396
-0.00221948
-0.00222186
-0.00222394
-0.00221633
-0.00219825
-0.00216636
-0.0021149
-0.00203532
-0.00191519
-0.00173678
-0.00147495
-0.00109511
-0.000551438
0.000213257
0.00125816
0.00261389
0.00420816
0.00567691
0.00629994
-0.00271603
-0.00275725
-0.00276979
-0.00279211
-0.00281644
-0.00284493
-0.00287758
-0.00291259
-0.00294641
-0.00297299
-0.00298272
-0.00296135
-0.00288688
-0.00272307
-0.00241051
-0.00184391
-0.000800613
0.00101531
0.00339738
0.00535205
-0.00330104
-0.00334676
-0.0033653
-0.0034043
-0.0034584
-0.00353419
-0.00363626
-0.00376869
-0.00393609
-0.00414397
-0.00439947
-0.00471304
-0.00509941
-0.00557221
-0.00612316
-0.0066316
-0.00659329
-0.00469884
-0.000726413
0.00334772
-0.00394406
-0.00399092
-0.00400652
-0.00405331
-0.00412875
-0.00424562
-0.00441416
-0.00464551
-0.00495486
-0.00536375
-0.00590448
-0.00662554
-0.00760546
-0.00893756
-0.0106636
-0.0125113
-0.0133472
-0.0103699
-0.00399553
0.00157377
-0.00465653
-0.00469232
-0.00468528
-0.00472131
-0.0048024
-0.00494731
-0.00517008
-0.00548895
-0.00592972
-0.00652961
-0.00734872
-0.00846909
-0.0100404
-0.0121893
-0.0149736
-0.0176969
-0.0190039
-0.014837
-0.00811326
-0.000403038
-0.00547351
-0.00549379
-0.00544538
-0.00545107
-0.00550945
-0.00565012
-0.00589396
-0.00626561
-0.0068
-0.00754436
-0.00858668
-0.0100033
-0.0120461
-0.0147945
-0.0183712
-0.0218617
-0.0249644
-0.0220583
-0.0161026
-0.00359848
-0.00656768
-0.00636104
-0.00617998
-0.00606471
-0.00606456
-0.00619129
-0.00645339
-0.0068657
-0.00746413
-0.00829248
-0.00945881
-0.0110661
-0.0133597
-0.0164342
-0.0206434
-0.0248811
-0.0311799
-0.0298088
-0.0239244
-0.00515785
-0.00748834
-0.00759286
-0.00726984
-0.00712863
-0.00700497
-0.00700731
-0.00715861
-0.00748642
-0.00803332
-0.00883554
-0.0100037
-0.0116164
-0.0139474
-0.0170128
-0.0213838
-0.0257489
-0.0326511
-0.0303574
-0.0231349
0.00272876
-0.0113879
-0.00855654
-0.00789905
-0.00717949
-0.00691618
-0.00690268
-0.0071072
-0.00748757
-0.00807958
-0.00889468
-0.0100555
-0.011598
-0.013789
-0.016509
-0.0202689
-0.0234226
-0.0279412
-0.0229599
-0.0131804
0.0258221
-0.0109965
-0.0118974
-0.0104077
-0.00988616
-0.00912362
-0.00863466
-0.00840095
-0.00842377
-0.00874714
-0.00934698
-0.0103428
-0.0117107
-0.0137696
-0.0162115
-0.0197498
-0.0219961
-0.0242559
-0.0133977
0.00557373
0.0704084
-0.0356644
-0.0102545
-0.0085773
-0.00708506
-0.00630355
-0.00616519
-0.00640828
-0.00680484
-0.0074548
-0.00826004
-0.00949371
-0.0109348
-0.0130439
-0.0150194
-0.0172199
-0.0159479
-0.0102988
0.0161177
0.0641673
0.171817
5.50876e-06
-8.88425e-06
3.8143e-05
0.000126322
0.000261577
0.000445172
0.000679058
0.000964879
0.00130359
0.00169448
0.00213424
0.00261576
0.00312695
0.00364968
0.00415931
0.00462556
0.00501472
0.00529393
0.00545737
0.00544651
1.85988e-05
4.38672e-06
5.55061e-05
0.000143935
0.000277359
0.000457543
0.000686695
0.000966862
0.00129922
0.00168338
0.00211646
0.00259197
0.00309795
0.00361718
0.00412602
0.0045938
0.00498592
0.00526858
0.00543822
0.0054202
-4.24001e-05
-6.24098e-05
-1.29627e-05
7.21298e-05
0.000201306
0.000376482
0.000600322
0.000875579
0.00120434
0.00158736
0.00202307
0.00250626
0.00302704
0.00356878
0.00410622
0.00460634
0.00502953
0.00533483
0.00551758
0.00548484
-0.000159854
-0.000183862
-0.00013718
-5.71019e-05
6.55985e-05
0.000233161
0.000448957
0.00071678
0.00104013
0.00142158
0.00186179
0.002358
0.00290215
0.00347888
0.00406311
0.00461805
0.00509594
0.00544298
0.00565073
0.0056007
-0.000340334
-0.000368056
-0.000325667
-0.000252636
-0.000138952
1.80347e-05
0.000222559
0.000479712
0.000794815
0.00117292
0.00161778
0.00213031
0.00270609
0.00333172
0.0039835
0.0046197
0.00518145
0.00559543
0.00584498
0.00577003
-0.000583594
-0.000615336
-0.000578788
-0.000515148
-0.000413694
-0.000271393
-8.31207e-05
0.00015761
0.000458198
0.000826653
0.00127079
0.0017966
0.00240533
0.00308861
0.00382695
0.00457473
0.00525935
0.00577866
0.00609784
0.0059868
-0.00088841
-0.000924855
-0.000895811
-0.00084434
-0.000759172
-0.000637072
-0.000472216
-0.000256873
1.84002e-05
0.000364789
0.000794852
0.00132141
0.00195461
0.0026969
0.00353089
0.00441976
0.00527685
0.00596224
0.00640181
0.00624748
-0.00125312
-0.00129518
-0.00127537
-0.00123916
-0.00117502
-0.00107991
-0.000947805
-0.000770267
-0.000536352
-0.000232116
0.000159654
0.000659242
0.00128834
0.00206368
0.00298491
0.00403497
0.00512365
0.00607344
0.00673214
0.00656357
-0.00167552
-0.00172416
-0.00171506
-0.00169711
-0.00165892
-0.00159831
-0.0015099
-0.00138562
-0.00121435
-0.000980914
-0.000665011
-0.000240177
0.000326976
0.00107433
0.00203476
0.00320751
0.00456545
0.00593258
0.00701423
0.00702018
-0.00215301
-0.00220912
-0.00221142
-0.00221389
-0.00220587
-0.00218694
-0.00215356
-0.00209957
-0.0020159
-0.00188935
-0.00170092
-0.00142328
-0.00101761
-0.000430757
0.000404607
0.0015586
0.00309088
0.00504331
0.00695711
0.00767154
-0.00268325
-0.00274741
-0.00276012
-0.00278321
-0.00280749
-0.00283544
-0.0028668
-0.00289933
-0.0029289
-0.00294877
-0.0029485
-0.00291189
-0.00281495
-0.00262073
-0.00227163
-0.00164654
-0.000379308
0.0020196
0.00532087
0.00781589
-0.00326532
-0.00333721
-0.0033561
-0.00339644
-0.0034512
-0.00352716
-0.00362852
-0.00375892
-0.00392241
-0.00412403
-0.00437105
-0.00467426
-0.00505497
-0.00555424
-0.00622398
-0.00698273
-0.00706041
-0.00458809
0.000274987
0.00559037
-0.00390345
-0.00398207
-0.00399896
-0.00404828
-0.00412526
-0.0042428
-0.00441101
-0.00464088
-0.00494695
-0.00535087
-0.0058869
-0.00660998
-0.00762041
-0.00909146
-0.0112321
-0.0139166
-0.015955
-0.013429
-0.00711645
0.000979935
-0.00460334
-0.00467691
-0.00467002
-0.00470957
-0.00479475
-0.0049431
-0.00516788
-0.00548651
-0.00592462
-0.0065204
-0.00733681
-0.00847297
-0.0101105
-0.0125295
-0.0160383
-0.0203325
-0.024334
-0.0223952
-0.01639
-0.00542013
-0.00540057
-0.00548109
-0.00543464
-0.00544902
-0.00551215
-0.00565554
-0.00589975
-0.00626945
-0.00679839
-0.00753567
-0.00856591
-0.0100069
-0.0121175
-0.015175
-0.0197196
-0.0252134
-0.032021
-0.0315349
-0.0275977
-0.0124476
-0.00642706
-0.00628765
-0.00611632
-0.00601441
-0.00603046
-0.00616999
-0.00643985
-0.00685477
-0.00744777
-0.00826889
-0.009417
-0.011002
-0.0133606
-0.0165791
-0.021935
-0.0275708
-0.0371848
-0.0375521
-0.0352572
-0.0143746
-0.00716862
-0.00749926
-0.00718421
-0.00709952
-0.00699407
-0.00700845
-0.0071622
-0.0074853
-0.00801614
-0.00879536
-0.00992604
-0.0114709
-0.0137949
-0.0169516
-0.0219418
-0.0273516
-0.0357779
-0.0357511
-0.0327741
-0.00229434
-0.0108848
-0.00822729
-0.00760598
-0.00692867
-0.0067511
-0.00680186
-0.00704593
-0.00744442
-0.00802905
-0.00880456
-0.00990906
-0.0113607
-0.0134923
-0.0162408
-0.0203232
-0.0242098
-0.0293047
-0.0270034
-0.0187852
0.0267871
-0.00832299
-0.0109226
-0.00981541
-0.00966095
-0.00907365
-0.00868734
-0.00849518
-0.00851545
-0.00880618
-0.0093374
-0.0102375
-0.0114846
-0.0134621
-0.0158891
-0.0197977
-0.0228598
-0.0259899
-0.0162542
0.00534063
0.0787505
-0.0334266
-0.00838587
-0.00697696
-0.00604615
-0.00562222
-0.00565559
-0.00601887
-0.00647613
-0.00716881
-0.00794917
-0.00915206
-0.0105208
-0.0125888
-0.0146496
-0.0169798
-0.0161659
-0.0102574
0.0179319
0.07797
0.202732
1.77588e-05
-1.98351e-06
4.40496e-05
0.00013159
0.000267234
0.000451951
0.00068753
0.000975906
0.00131822
0.00171403
0.00216022
0.0026499
0.00317098
0.00370513
0.00422693
0.00470457
0.00510215
0.00538429
0.00554561
0.00552191
3.77733e-05
1.76018e-05
6.84529e-05
0.000156463
0.000290028
0.000470757
0.000700926
0.000982774
0.00131769
0.00170555
0.00214375
0.00262598
0.00314027
0.00367005
0.00419
0.00466844
0.00506864
0.00535432
0.00552276
0.00549221
-1.89319e-05
-4.60777e-05
3.2354e-06
8.78436e-05
0.000217039
0.000392588
0.000617264
0.000894043
0.0012253
0.00161212
0.00205332
0.00254404
0.00307481
0.00362871
0.00417975
0.00469334
0.00512708
0.00543659
0.00561796
0.00556868
-0.000132359
-0.000164284
-0.000117613
-3.80528e-05
8.46176e-05
0.00025249
0.000469092
0.000738491
0.00106454
0.00145028
0.00189689
0.00240212
0.00295819
0.00355083
0.00415334
0.00472697
0.00522003
0.00557337
0.00577957
0.00570684
-0.000309535
-0.000345822
-0.000303348
-0.000230807
-0.000117086
4.03293e-05
0.00024588
0.000504997
0.000823457
0.00120691
0.00165991
0.00218422
0.00277645
0.00342305
0.00410015
0.00476352
0.00534856
0.00577338
0.00602156
0.00591256
-0.000549745
-0.000590672
-0.000553935
-0.000490706
-0.000389074
-0.000246115
-5.64394e-05
0.000186865
0.000491775
0.000867102
0.00132175
0.00186306
0.0024936
0.00320653
0.00398128
0.00477012
0.00549233
0.00603165
0.00635108
0.00618391
-0.000851369
-0.000897664
-0.000868319
-0.000817183
-0.000731703
-0.000608716
-0.000442061
-0.000223479
5.72005e-05
0.000412205
0.000855558
0.00140204
0.00206399
0.00284483
0.00373357
0.00468611
0.00560634
0.00633142
0.00677839
0.00652424
-0.00121249
-0.00126517
-0.00124496
-0.00120908
-0.00114459
-0.00104848
-0.000914319
-0.000733018
-0.000492751
-0.000178267
0.000229587
0.000753989
0.00142024
0.00224949
0.00324706
0.00439253
0.00558632
0.00661942
0.00730616
0.00695916
-0.00163064
-0.00169082
-0.0016813
-0.00166381
-0.00162542
-0.00156395
-0.00147352
-0.00134534
-0.00116726
-0.000922545
-0.000588533
-0.00013503
0.000476986
0.00129143
0.00234097
0.00365705
0.00518199
0.00672369
0.00787251
0.00758908
-0.0021029
-0.00217164
-0.00217358
-0.00217684
-0.00216907
-0.0021498
-0.00211493
-0.00205754
-0.00196751
-0.00183005
-0.00162368
-0.00131724
-0.000865824
-0.000208189
0.000730968
0.00201205
0.00377392
0.00602864
0.00804385
0.00842602
-0.00262634
-0.00270449
-0.00271705
-0.00274155
-0.00276691
-0.00279552
-0.00282654
-0.00285702
-0.00288195
-0.00289334
-0.00287903
-0.00282125
-0.00269481
-0.0024661
-0.00209097
-0.00144991
-0.000140031
0.00263579
0.00622315
0.00855933
-0.00319899
-0.00328642
-0.00330537
-0.00334808
-0.00340531
-0.0034836
-0.00358653
-0.00371718
-0.0038791
-0.00407697
-0.00431839
-0.00461788
-0.00500903
-0.0055733
-0.00643515
-0.00753891
-0.0078319
-0.00498474
0.000341932
0.00570344
-0.00382362
-0.0039204
-0.00393821
-0.00399145
-0.0040727
-0.00419459
-0.00436666
-0.00459967
-0.00490822
-0.00531498
-0.00585779
-0.00660429
-0.00768513
-0.00935606
-0.011958
-0.0153822
-0.018085
-0.0156174
-0.00928112
-0.000659636
-0.00450093
-0.004595
-0.0045893
-0.00463473
-0.00472732
-0.00488354
-0.00511583
-0.00544123
-0.00588585
-0.00648997
-0.00732214
-0.00850205
-0.0102558
-0.0129662
-0.0171022
-0.0223759
-0.0276172
-0.0264652
-0.0207492
-0.0090453
-0.00526601
-0.00537409
-0.00532937
-0.00535391
-0.00542778
-0.00558226
-0.00583677
-0.00621578
-0.00675313
-0.0074999
-0.00854398
-0.01003
-0.0122457
-0.0155967
-0.0207383
-0.0270514
-0.0348548
-0.0350365
-0.0307893
-0.0158856
-0.00623261
-0.00612552
-0.00595828
-0.00586962
-0.00590271
-0.00606007
-0.00634644
-0.00677542
-0.00737871
-0.00820759
-0.00935882
-0.0109641
-0.0133688
-0.0168094
-0.0224132
-0.0284655
-0.0374994
-0.0375802
-0.034428
-0.0154717
-0.00684401
-0.00723766
-0.00693787
-0.00688938
-0.00681116
-0.00685179
-0.00702725
-0.0073683
-0.00790977
-0.00869126
-0.00980986
-0.0113426
-0.0136631
-0.016873
-0.021954
-0.0273138
-0.0341371
-0.03369
-0.0287715
-0.00182923
-0.0105303
-0.00790486
-0.00724124
-0.00657363
-0.00643561
-0.00653419
-0.00681936
-0.00725006
-0.00785145
-0.00863514
-0.00973007
-0.0111154
-0.013213
-0.0159808
-0.0200042
-0.0237566
-0.0274638
-0.0242797
-0.0138595
0.0283665
-0.00724339
-0.0101138
-0.00912663
-0.00909174
-0.00858814
-0.00828002
-0.00814383
-0.00821126
-0.00852798
-0.00906816
-0.00994065
-0.0111561
-0.0130801
-0.0155646
-0.0195107
-0.0226636
-0.0251451
-0.0142988
0.00956162
0.0824873
-0.0327206
-0.00756887
-0.00614686
-0.00534388
-0.00503871
-0.00514908
-0.00555904
-0.00605888
-0.00676782
-0.00755975
-0.008726
-0.0100877
-0.0120922
-0.0142046
-0.0164797
-0.0155769
-0.00861563
0.0211365
0.0851081
0.211645
3.16856e-05
8.89443e-06
5.42738e-05
0.000141596
0.000277875
0.000463974
0.000701752
0.000993325
0.00134006
0.00174174
0.00219554
0.00269469
0.00322709
0.00377404
0.00430921
0.00479941
0.0052067
0.00549352
0.00565494
0.00562327
5.56189e-05
3.21898e-05
8.2862e-05
0.000170759
0.000304836
0.000486645
0.000718574
0.00100306
0.00134175
0.0017348
0.00217988
0.00267089
0.00319602
0.00373828
0.00427157
0.00476276
0.00517298
0.00546368
0.00563274
0.00559413
1.99039e-06
-2.90103e-05
2.02145e-05
0.000104685
0.000234347
0.000410912
0.000637297
0.00091672
0.00125186
0.00164418
0.00209287
0.00259343
0.0031367
0.00370536
0.00427263
0.00480216
0.00524878
0.00556481
0.00574698
0.00568649
-0.000108249
-0.000144455
-9.7785e-05
-1.8357e-05
0.000104791
0.000273706
0.000492099
0.000764339
0.00109467
0.00148662
0.00194191
0.00245883
0.00303019
0.00364167
0.00426563
0.00486105
0.00537221
0.00573482
0.00594233
0.00585285
-0.000282563
-0.000323481
-0.000280938
-0.000208494
-9.42078e-05
6.44031e-05
0.000272019
0.000534444
0.000857958
0.00124887
0.00171253
0.00225151
0.00286269
0.00353497
0.00424161
0.00493617
0.0055484
0.0059878
0.0062384
0.00610195
-0.000519994
-0.000565883
-0.000529008
-0.000465817
-0.000363492
-0.000219115
-2.6997e-05
0.000220241
0.000531215
0.000915606
0.00138347
0.00194346
0.00259962
0.00334608
0.0041622
0.0049969
0.00576141
0.00632518
0.00664951
0.00643407
-0.000818671
-0.000870294
-0.000840752
-0.000789616
-0.000703339
-0.000578743
-0.000409295
-0.00018617
0.000101599
0.000467368
0.000926715
0.00149646
0.00219123
0.00301596
0.00396228
0.00498257
0.00596979
0.00673786
0.00719543
0.00685422
-0.00117647
-0.00123491
-0.00121449
-0.00117865
-0.00111337
-0.0010156
-0.000878474
-0.000692257
-0.00044418
-0.000117626
0.00030851
0.000860126
0.00156574
0.00244799
0.00352552
0.00476789
0.00606611
0.00717798
0.00788406
0.00738974
-0.00159069
-0.00165717
-0.00164748
-0.0016302
-0.00159123
-0.00152831
-0.00143511
-0.00130213
-0.00111623
-0.000859174
-0.000506079
-2.32883e-05
0.000633235
0.00151424
0.00265319
0.0040913
0.00576778
0.00745461
0.00862653
0.00813784
-0.00205805
-0.00213375
-0.00213568
-0.00213952
-0.00213164
-0.00211151
-0.00207456
-0.00201322
-0.00191647
-0.00176821
-0.00154503
-0.0012128
-0.000722005
-6.59567e-06
0.00100775
0.00239792
0.00432608
0.0068134
0.0088609
0.0090868
-0.00257508
-0.00266101
-0.00267387
-0.00269958
-0.00272564
-0.00275442
-0.00278465
-0.0028129
-0.00283361
-0.00283811
-0.00281364
-0.00274225
-0.00260026
-0.00236201
-0.00200073
-0.00139444
-5.34585e-05
0.00304071
0.00676934
0.00921075
-0.00313886
-0.00323501
-0.00325466
-0.00329949
-0.00335867
-0.00343866
-0.0035427
-0.00367365
-0.00383506
-0.00403214
-0.00427438
-0.00458172
-0.00500211
-0.00565475
-0.00672647
-0.00816147
-0.00868293
-0.00568425
-0.000272099
0.00563448
-0.00375078
-0.00385786
-0.00387717
-0.0039339
-0.00401869
-0.00414409
-0.00431945
-0.00455563
-0.00486792
-0.00528104
-0.00583805
-0.00661959
-0.00778483
-0.00965319
-0.0126778
-0.0167581
-0.0201622
-0.0180292
-0.0118405
-0.00229576
-0.00440819
-0.00451418
-0.00451065
-0.00456124
-0.0046596
-0.00482188
-0.00506013
-0.00539147
-0.00584303
-0.00645801
-0.00731171
-0.00854074
-0.0104055
-0.0133661
-0.0180253
-0.0240727
-0.0303237
-0.0298634
-0.0245733
-0.0120795
-0.00514505
-0.00526892
-0.00522746
-0.00526058
-0.00534289
-0.00550579
-0.00576807
-0.00615426
-0.00669875
-0.00745482
-0.00851494
-0.0100385
-0.0123455
-0.0159023
-0.0214735
-0.028312
-0.0366231
-0.0370964
-0.0336433
-0.0185557
-0.00606325
-0.00597527
-0.00581358
-0.00573638
-0.00578167
-0.00595148
-0.0062492
-0.00668746
-0.0072971
-0.00812997
-0.00928228
-0.0108983
-0.0133405
-0.0168751
-0.0226723
-0.0289004
-0.0371343
-0.0373462
-0.0354959
-0.0162135
-0.00659409
-0.00702967
-0.00673494
-0.00671201
-0.00665202
-0.00670954
-0.00689809
-0.00724806
-0.00779225
-0.00856986
-0.00967192
-0.0111876
-0.0134951
-0.0167037
-0.0217609
-0.0270017
-0.0329652
-0.0323326
-0.0287796
-0.000841318
-0.0102044
-0.00761802
-0.00694996
-0.00630329
-0.00618731
-0.00631138
-0.0066187
-0.00706588
-0.00767319
-0.00845156
-0.00951717
-0.0108843
-0.0129332
-0.0156757
-0.0196316
-0.0232443
-0.0263914
-0.0231726
-0.0136628
0.0304393
-0.00666069
-0.00969777
-0.00872919
-0.00875872
-0.00828709
-0.00800988
-0.00789566
-0.00797732
-0.00829855
-0.00883108
-0.00967917
-0.0108632
-0.0127542
-0.0152379
-0.0192103
-0.0223641
-0.0246655
-0.0136262
0.0100859
0.0860311
-0.032157
-0.00700018
-0.00558039
-0.00483852
-0.00459559
-0.00475778
-0.00520556
-0.00573314
-0.00645659
-0.00725008
-0.00839808
-0.00974083
-0.0117096
-0.0137958
-0.0160272
-0.014959
-0.00766696
0.0229573
0.0875979
0.217899
4.63922e-05
2.2547e-05
6.78891e-05
0.000155483
0.000292695
0.000480433
0.000720691
0.00101579
0.00136733
0.00177537
0.00223728
0.00274644
0.0032907
0.00385093
0.00439994
0.00490316
0.00532086
0.00561366
0.00577683
0.00574038
7.20394e-05
4.73507e-05
9.81265e-05
0.00018632
0.000321288
0.000504628
0.000738885
0.00102671
0.00137001
0.0017692
0.00222223
0.00272316
0.00326026
0.00381606
0.00436368
0.00486854
0.00528981
0.0055869
0.00575806
0.00571473
2.04059e-05
-1.21025e-05
3.72705e-05
0.000122036
0.000252595
0.000430709
0.000659482
0.000942384
0.00128241
0.00168137
0.00213882
0.00265057
0.00320766
0.00379233
0.00437696
0.00492344
0.00538405
0.00570812
0.00589276
0.00582504
-8.74937e-05
-0.000125384
-7.85123e-05
1.234e-06
0.000125329
0.000295884
0.000516837
0.000792869
0.00112863
0.00152812
0.00199357
0.00252378
0.00311201
0.00374378
0.00439043
0.00500872
0.00553913
0.0059127
0.00612339
0.00602172
-0.000259445
-0.000302196
-0.000259402
-0.000186595
-7.12604e-05
8.91675e-05
0.000299649
0.000566383
0.000896166
0.00129596
0.00177186
0.00232721
0.00295964
0.00365861
0.00439607
0.00512282
0.00576328
0.00621879
0.00647371
0.0063149
-0.000494416
-0.00054228
-0.000505108
-0.000441504
-0.000338014
-0.00019161
3.73769e-06
0.000255898
0.000574145
0.000969027
0.00145168
0.00203188
0.00271372
0.00349674
0.00435525
0.00523622
0.00604334
0.00663219
0.00696265
0.00670442
-0.000790417
-0.000844167
-0.000814305
-0.000762737
-0.000675223
-0.000548445
-0.00037547
-0.000146887
0.000149082
0.00052691
0.00100371
0.00159827
0.00232805
0.00319653
0.00419984
0.00528635
0.00633856
0.00714758
0.00761404
0.00719112
-0.00114517
-0.00120592
-0.00118521
-0.001149
-0.00108252
-0.000982578
-0.000841847
-0.000649936
-0.000393145
-5.35313e-05
0.000391864
0.000971478
0.001717
0.00265436
0.00380473
0.00513793
0.00653346
0.00771549
0.00843078
0.00779296
-0.00155576
-0.00162477
-0.0016149
-0.00159744
-0.00155751
-0.00149269
-0.00139619
-0.00125785
-0.00106356
-0.000793732
-0.000421495
8.97404e-05
0.000787902
0.0017269
0.00294886
0.00449596
0.00630557
0.00811528
0.00928527
0.00858544
-0.0020186
-0.0020971
-0.00209905
-0.00210309
-0.00209474
-0.00207334
-0.0020339
-0.00196829
-0.00186471
-0.00170598
-0.00146718
-0.00111204
-0.000587964
0.000173813
0.00124674
0.00271855
0.00477546
0.00744353
0.00947722
0.00952384
-0.0025297
-0.00261879
-0.00263199
-0.00265848
-0.00268485
-0.00271339
-0.00274252
-0.00276847
-0.00278531
-0.00278412
-0.00275218
-0.00267243
-0.00252448
-0.00229322
-0.00197302
-0.00144451
-0.000148626
0.00309726
0.0069518
0.00947948
-0.0030854
-0.0031851
-0.00320553
-0.00325194
-0.0033125
-0.00339364
-0.00349845
-0.00362976
-0.00379141
-0.00398966
-0.00423665
-0.00455881
-0.00501931
-0.0057751
-0.00708463
-0.00891667
-0.00977466
-0.00662693
-0.00097628
0.00535963
-0.00368603
-0.00379732
-0.00381808
-0.00387747
-0.00396494
-0.00409309
-0.00427126
-0.00451064
-0.00482757
-0.00524933
-0.00582483
-0.00664789
-0.00790578
-0.00997941
-0.0134467
-0.0182228
-0.0223107
-0.0201914
-0.0137222
-0.0034755
-0.00432701
-0.00443791
-0.0044365
-0.004491
-0.00459355
-0.00476033
-0.00500335
-0.00534017
-0.00579932
-0.00642726
-0.00730639
-0.00858936
-0.0105702
-0.0137749
-0.0189473
-0.0257204
-0.0326287
-0.0322315
-0.026596
-0.0137564
-0.00504179
-0.00517195
-0.00513329
-0.00517235
-0.00526054
-0.0054295
-0.00569775
-0.00609016
-0.00664212
-0.00740944
-0.00848996
-0.0100559
-0.0124561
-0.0161954
-0.0221602
-0.0294127
-0.037786
-0.0378807
-0.034078
-0.0194869
-0.00592525
-0.00584543
-0.00568838
-0.00561925
-0.00567219
-0.0058498
-0.00615488
-0.00659966
-0.00721497
-0.00805366
-0.0092148
-0.0108463
-0.0133305
-0.0169233
-0.0228284
-0.0292411
-0.0366173
-0.0362818
-0.0341382
-0.0159403
-0.00641756
-0.00686855
-0.00657322
-0.00656389
-0.00651366
-0.00658063
-0.00677652
-0.00713134
-0.0076774
-0.00845352
-0.0095509
-0.0110591
-0.0133628
-0.0165596
-0.0215702
-0.0266585
-0.0318612
-0.0305992
-0.0266845
0.000199103
-0.00995772
-0.00739855
-0.00673613
-0.00610592
-0.00599951
-0.00613468
-0.00645153
-0.00690522
-0.00751435
-0.00828862
-0.00934205
-0.010691
-0.0127143
-0.0154174
-0.0193061
-0.022752
-0.0254731
-0.0216735
-0.0116738
0.0319522
-0.00639994
-0.00947551
-0.00849205
-0.00854106
-0.00807598
-0.00780816
-0.00770103
-0.00778574
-0.00810622
-0.00863101
-0.00946588
-0.01063
-0.0125052
-0.01497
-0.0189121
-0.0219432
-0.0237921
-0.0123814
0.0118049
0.0882108
-0.0318606
-0.00670479
-0.00527705
-0.00454559
-0.00432249
-0.00450484
-0.00496855
-0.00550563
-0.00623336
-0.00702347
-0.00815965
-0.0094871
-0.0114298
-0.013483
-0.0156396
-0.0144196
-0.00674946
0.024447
0.0897801
0.220926
6.03985e-05
3.6272e-05
8.1845e-05
0.000169991
0.000308328
0.000497863
0.000740748
0.0010395
0.00139596
0.00181039
0.00228038
0.00279941
0.00335523
0.00392831
0.00449068
0.00500651
0.00543451
0.00573369
0.00589941
0.00585977
8.67786e-05
6.16949e-05
0.000112745
0.000201507
0.000337599
0.000522713
0.000759559
0.001051
0.00139917
0.00180475
0.00226591
0.00277681
0.00332579
0.00389489
0.00445649
0.00497469
0.0054069
0.00571079
0.00588472
0.00583825
3.64356e-05
3.46131e-06
5.31395e-05
0.000138495
0.000270217
0.000450172
0.00068165
0.000968368
0.00131361
0.00171951
0.00218592
0.00270894
0.00327969
0.00388001
0.00448143
0.00504427
0.00551853
0.00585093
0.00603872
0.00596579
-6.97854e-05
-0.0001082
-6.09842e-05
1.9392e-05
0.000144726
0.000317246
0.000541118
0.000821324
0.00116288
0.00157023
0.00204605
0.00258957
0.00319442
0.00384577
0.0045141
0.00515412
0.00570295
0.00608752
0.00630202
0.00619084
-0.00023988
-0.000283203
-0.000240026
-0.000166536
-4.98573e-05
0.000112718
0.000326428
0.000597844
0.000934241
0.00134317
0.00183141
0.00240298
0.00305614
0.00378045
0.00454689
0.00530372
0.00597057
0.00644154
0.0067012
0.0065239
-0.000472813
-0.000521293
-0.000483709
-0.000419375
-0.000314434
-0.000165694
3.32134e-05
0.000290612
0.000616386
0.00102187
0.00151918
0.00211922
0.00282735
0.0036429
0.0045404
0.00546376
0.0063098
0.00692165
0.00725792
0.00696302
-0.00076654
-0.000820959
-0.00079068
-0.000738373
-0.000649357
-0.000520122
-0.000343348
-0.000109085
0.000195183
0.000584923
0.00107856
0.00169643
0.00245719
0.00336761
0.00442283
0.0055689
0.00667934
0.00752451
0.00799737
0.00750296
-0.00111868
-0.00118017
-0.00115908
-0.0011222
-0.00105428
-0.000951931
-0.00080739
-0.000609681
-0.000344271
7.94053e-06
0.000471507
0.00107701
0.00185879
0.00284563
0.00406042
0.00547359
0.00695504
0.00819786
0.00891509
0.00814951
-0.00152616
-0.001596
-0.00158587
-0.00156793
-0.00152679
-0.00145986
-0.00135991
-0.00121621
-0.00101384
-0.000732063
-0.000342375
0.000194151
0.000928541
0.00191759
0.00321019
0.00485164
0.00677801
0.00869559
0.00984878
0.00895364
-0.00198513
-0.00206457
-0.00206647
-0.00207036
-0.00206127
-0.00203836
-0.00199631
-0.00192652
-0.00181658
-0.00164849
-0.00139623
-0.001022
-0.000471022
0.000327443
0.00144709
0.00298554
0.00515695
0.00799917
0.00998356
0.00984536
-0.00249122
-0.00258138
-0.00259486
-0.00262171
-0.00264803
-0.002676
-0.00270385
-0.00272757
-0.00274109
-0.00273544
-0.00269829
-0.00261393
-0.00246546
-0.00224787
-0.0019744
-0.00152424
-0.000246036
0.00323167
0.00706064
0.00965297
-0.00304022
-0.00314116
-0.00316226
-0.00320969
-0.00327109
-0.00335287
-0.0034581
-0.00358971
-0.00375203
-0.00395252
-0.00420619
-0.00454587
-0.00504873
-0.00590558
-0.0074423
-0.00964522
-0.010789
-0.00741486
-0.00155011
0.00515564
-0.00363179
-0.00374459
-0.00376655
-0.00382778
-0.00391711
-0.00404722
-0.00422757
-0.00446984
-0.00479155
-0.00522265
-0.00581777
-0.00668334
-0.00803288
-0.0103026
-0.0141942
-0.0196372
-0.0243084
-0.0219952
-0.015122
-0.00433159
-0.00426028
-0.00437295
-0.0043733
-0.00443053
-0.00453599
-0.00470595
-0.00495262
-0.00529418
-0.0057607
-0.00640203
-0.00730757
-0.00864514
-0.010742
-0.0141825
-0.0198511
-0.0273274
-0.0347546
-0.0340996
-0.0280643
-0.0149397
-0.00495933
-0.00509179
-0.0050553
-0.00509824
-0.0051903
-0.00536335
-0.00563594
-0.00603341
-0.00659245
-0.00737169
-0.00847505
-0.0100857
-0.0125855
-0.016505
-0.0228699
-0.0305597
-0.0390316
-0.0386116
-0.0345511
-0.0200633
-0.00581887
-0.00574229
-0.00558883
-0.00552509
-0.00558286
-0.00576534
-0.00607511
-0.00652443
-0.00714462
-0.00798995
-0.00916352
-0.0108165
-0.0133578
-0.0170126
-0.0231133
-0.029647
-0.0365054
-0.0357747
-0.0335027
-0.0155723
-0.00629528
-0.00675157
-0.00645443
-0.00645173
-0.00640617
-0.00647796
-0.00667762
-0.00703476
-0.00758179
-0.00835749
-0.00945572
-0.0109645
-0.0132793
-0.0164812
-0.0214962
-0.026509
-0.0314255
-0.0295028
-0.0256486
0.00117498
-0.00978164
-0.00723938
-0.00658554
-0.00596688
-0.00586548
-0.00600502
-0.00632515
-0.00678031
-0.00738891
-0.0081589
-0.0092068
-0.0105435
-0.0125579
-0.0152286
-0.0190766
-0.022392
-0.024801
-0.0206173
-0.0105374
0.0332379
-0.00627096
-0.00935305
-0.00835043
-0.00840509
-0.00793844
-0.00767057
-0.00756309
-0.00764517
-0.00796254
-0.00847999
-0.0093079
-0.0104585
-0.0123313
-0.014768
-0.0186857
-0.0215997
-0.0231943
-0.0114262
0.013015
0.089877
-0.0316791
-0.00653188
-0.00509882
-0.00436754
-0.0041513
-0.00434025
-0.00481044
-0.00534853
-0.00607757
-0.00686173
-0.00799403
-0.00930708
-0.0112401
-0.0132553
-0.0153527
-0.0139774
-0.00605635
0.025626
0.0912735
0.222918
7.27803e-05
4.86956e-05
9.46278e-05
0.000183453
0.000322957
0.000514259
0.000759665
0.00106187
0.00142291
0.00184325
0.00232064
0.00284862
0.00341487
0.00399948
0.00457379
0.00510093
0.00553825
0.00584347
0.00601187
0.00596998
9.94669e-05
7.43372e-05
0.00012575
0.000215201
0.000352474
0.000539368
0.000778747
0.00107366
0.00142644
0.001838
0.00230666
0.00282669
0.00338644
0.00396753
0.00454166
0.00507181
0.00551393
0.00582418
0.00600098
0.00595231
4.99732e-05
1.69383e-05
6.70018e-05
0.000153075
0.00028603
0.000467846
0.000701989
0.000992391
0.00134258
0.00175497
0.00222967
0.00276298
0.00334605
0.00396037
0.00457674
0.0051541
0.00564052
0.00598057
0.00617155
0.00609478
-5.50613e-05
-9.35469e-05
-4.59159e-05
3.5223e-05
0.00016187
0.000336383
0.000563134
0.000847367
0.00119442
0.00160909
0.00209445
0.00265005
0.00326979
0.00393849
0.00462586
0.00528486
0.00584983
0.00624425
0.00646246
0.00634397
-0.000223744
-0.000267144
-0.000223521
-0.000149216
-3.11258e-05
0.00013361
0.000350478
0.000626373
0.00096898
0.00138635
0.00188581
0.00247195
0.00314349
0.00388997
0.0046815
0.00546417
0.00615364
0.00663802
0.00690203
0.00671016
-0.000455063
-0.000503623
-0.000465573
-0.000400382
-0.000293941
-0.000142879
5.94648e-05
0.00032181
0.000654558
0.0010697
0.00158017
0.00219782
0.0029289
0.00377247
0.0047032
0.00566239
0.00654114
0.00717225
0.00751336
0.0071892
-0.000746954
-0.000801463
-0.000770722
-0.000717554
-0.000627002
-0.000495358
-0.000314966
-7.54181e-05
0.00023642
0.000636838
0.00114533
0.00178342
0.00257084
0.00351681
0.00461565
0.00581134
0.00697002
0.00784474
0.0083218
0.00776994
-0.00109698
-0.00115857
-0.00113707