/*--------------------------------*- C++ -*----------------------------------*\
  =========                 |
  \\      /  F ield         | OpenFOAM: The Open Source CFD Toolbox
   \\    /   O peration     | Website:  https://openfoam.org
    \\  /    A nd           | Version:  10
     \\/     M anipulation  |
\*---------------------------------------------------------------------------*/
FoamFile
{
    format      ascii;
    class       volScalarField;
    location    "1.7";
    object      p;
}
// * * * * * * * * * * * * * * * * * * * * * * * * * * * * * * * * * * * * * //

dimensions      [0 2 -2 0 0 0 0];

internalField   nonuniform List<scalar> 
400
(
5.00855e-09
8.61654e-07
7.80103e-05
0.000208285
0.000392007
0.000625762
0.000904774
0.00122314
0.00157377
0.00194837
0.00233755
0.00273089
0.00311706
0.00348421
0.00382025
0.00411334
0.0043524
0.00452794
0.00463597
0.00464805
-2.2247e-06
-2.46009e-06
7.46284e-05
0.000204014
0.000386629
0.000619303
0.000897421
0.00121523
0.00156574
0.00194076
0.00233087
0.00272582
0.00311415
0.00348387
0.00382274
0.00411869
0.00436036
0.00453808
0.00464815
0.00465974
-8.12618e-05
-8.32306e-05
-4.67062e-06
0.000127487
0.000314447
0.00055311
0.000838921
0.00116616
0.00152782
0.00191566
0.00232028
0.00273098
0.00313589
0.00352256
0.00387807
0.00418951
0.00444458
0.0046326
0.00474934
0.00476093
-0.000220444
-0.000223933
-0.000142508
-5.12515e-06
0.000189778
0.00043921
0.000738676
0.00108248
0.00146359
0.00187362
0.00230284
0.00274036
0.00317361
0.00358922
0.00397317
0.00431117
0.00458929
0.00479516
0.00492355
0.00493669
-0.000424037
-0.000429279
-0.000343605
-0.000198511
8.03106e-06
0.000273167
0.00059248
0.00096029
0.00136951
0.00181156
0.00227641
0.0027527
0.00322701
0.0036848
0.00411045
0.00448766
0.00480011
0.00503281
0.00517882
0.00519498
-0.000696712
-0.000704249
-0.000613026
-0.000457842
-0.000236045
4.96982e-05
0.000395077
0.000794455
0.00124068
0.00172501
0.002237
0.0027649
0.00329422
0.003809
0.00429159
0.00472298
0.00508345
0.00535418
0.00552549
0.00554649
-0.0010442
-0.00105485
-0.00095693
-0.000789464
-0.000548964
-0.000237829
0.000139793
0.000578344
0.00107066
0.00160784
0.00217909
0.00277232
0.00337195
0.00396049
0.00451782
0.00502149
0.00544718
0.00577045
0.00597732
0.00600593
-0.00147377
-0.00148874
-0.0013832
-0.00120152
-0.000939088
-0.000597931
-0.000181967
0.000303386
0.000851015
0.00145199
0.00209525
0.00276833
0.00345501
0.00413636
0.00478952
0.00538782
0.00590088
0.0062963
0.00655308
0.00659374
-0.00199432
-0.00201535
-0.00190158
-0.00170412
-0.00141681
-0.0010412
-0.000580898
-4.11498e-05
0.00057105
0.00124695
0.00197605
0.00274357
0.00353537
0.00433098
0.00510499
0.00582583
0.00645547
0.0069503
0.00727784
0.00733835
-0.00261651
-0.0026461
-0.00252397
-0.00230962
-0.00199486
-0.00158057
-0.00107002
-0.000468346
0.000217532
0.000978995
0.0018056
0.00268456
0.00360094
0.00453454
0.00545851
0.00633678
0.00712195
0.00775527
0.00818485
0.00827992
-0.00335303
-0.00339479
-0.00326483
-0.00303311
-0.00268871
-0.00223162
-0.0016649
-0.00099372
-0.000225106
0.000632501
0.00156937
0.00257453
0.00363452
0.0047309
0.00583757
0.00691591
0.00790872
0.00873788
0.00931779
0.0094771
-0.00421913
-0.00427821
-0.00414194
-0.00389314
-0.00351721
-0.0030131
-0.00238386
-0.00163523
-0.000774796
0.000188995
0.00124744
0.00239158
0.00361202
0.00489483
0.0062186
0.00754667
0.00881563
0.00992615
0.0107324
0.0110194
-0.00523355
-0.00531707
-0.00517758
-0.0049129
-0.00450365
-0.00394746
-0.00324811
-0.00241297
-0.00145124
-0.00037211
0.000816561
0.00210878
0.00350136
0.00498871
0.00656075
0.00819169
0.00982093
0.0113415
0.0124961
0.0130497
-0.00642332
-0.00653949
-0.0064011
-0.00612237
-0.00567736
-0.00506176
-0.00428168
-0.0033482
-0.00227426
-0.00107127
0.000253002
0.00169582
0.00326264
0.0049595
0.00679752
0.008777
0.0108597
0.0129787
0.0146833
0.0158018
-0.00779195
-0.0079706
-0.00784733
-0.00756058
-0.00707615
-0.00638873
-0.00551095
-0.00446154
-0.00326075
-0.00192494
-0.00046351
0.00112081
0.00285245
0.00473985
0.0068307
0.00917295
0.0117878
0.0147571
0.017299
0.0197007
-0.00959317
-0.00969999
-0.0095876
-0.00928846
-0.00875298
-0.00796974
-0.00696465
-0.00577102
-0.00442157
-0.00294025
-0.00133884
0.000389967
0.00225167
0.00426883
0.00654826
0.00919664
0.0123281
0.0163902
0.0200243
0.0251973
-0.0111365
-0.0117723
-0.0116931
-0.0114113
-0.0107997
-0.00986288
-0.00867292
-0.00728755
-0.00575683
-0.00411518
-0.00238735
-0.00058801
0.00128694
0.00327051
0.00549037
0.00815278
0.0112258
0.0168156
0.0215791
0.0323853
-0.0152566
-0.0135256
-0.0138095
-0.01345
-0.0128463
-0.0118421
-0.0105149
-0.00893964
-0.00720602
-0.00537655
-0.00349274
-0.0015626
0.000413527
0.00255621
0.00492736
0.00744721
0.0102207
0.0164633
0.0230109
0.0407392
-0.0156418
-0.0190964
-0.0187475
-0.0184966
-0.0173148
-0.015467
-0.0133686
-0.0111654
-0.00898509
-0.00684469
-0.00478439
-0.00282988
-0.00106735
0.000527127
0.0013068
0.00292647
0.00212401
0.00943086
0.0121769
0.0510455
-0.0381907
-0.0163882
-0.0172219
-0.0171713
-0.0162188
-0.0148293
-0.0131568
-0.0112342
-0.00917894
-0.00708924
-0.00506016
-0.00306082
-0.00131117
0.000557226
0.00174627
0.00455701
0.00783638
0.0230874
0.0529167
0.127764
)
;

boundaryField
{
    movingWall
    {
        type            zeroGradient;
    }
    fixedWalls
    {
        type            zeroGradient;
    }
    frontAndBack
    {
        type            empty;
    }
}


// ************************************************************************* //
