/*--------------------------------*- C++ -*----------------------------------*\
  =========                 |
  \\      /  F ield         | OpenFOAM: The Open Source CFD Toolbox
   \\    /   O peration     | Website:  https://openfoam.org
    \\  /    A nd           | Version:  10
     \\/     M anipulation  |
\*---------------------------------------------------------------------------*/
FoamFile
{
    format      ascii;
    class       surfaceScalarField;
    location    "1.7";
    object      phi;
}
// * * * * * * * * * * * * * * * * * * * * * * * * * * * * * * * * * * * * * //

dimensions      [0 3 -1 0 0 0 0];

internalField   nonuniform List<scalar> 
760
(
-1.43142e-05
1.43141e-05
-3.38854e-05
1.95712e-05
-5.32288e-05
1.93434e-05
-7.13119e-05
1.80831e-05
-8.76565e-05
1.63446e-05
-0.000101865
1.42087e-05
-0.000113588
1.17228e-05
-0.000122524
8.93602e-06
-0.000128425
5.90059e-06
-0.000131097
2.67235e-06
-0.000130409
-6.8794e-07
-0.000126295
-4.11401e-06
-0.00011877
-7.52541e-06
-0.000107935
-1.08342e-05
-9.39945e-05
-1.39409e-05
-7.72583e-05
-1.67362e-05
-5.81556e-05
-1.91028e-05
-3.72748e-05
-2.08808e-05
-1.58707e-05
-2.14041e-05
-1.58707e-05
-2.02428e-05
3.45569e-05
-4.68027e-05
4.61312e-05
-7.29689e-05
4.55097e-05
-9.73972e-05
4.25114e-05
-0.00011943
3.83775e-05
-0.000138529
3.33075e-05
-0.000154228
2.7422e-05
-0.000166135
2.08426e-05
-0.00017393
1.36959e-05
-0.000177369
6.11109e-06
-0.000176303
-1.75332e-06
-0.000170645
-9.77261e-06
-0.000160429
-1.77408e-05
-0.000145801
-2.54625e-05
-0.000127033
-3.27094e-05
-0.00010454
-3.92291e-05
-7.88944e-05
-4.47481e-05
-5.08847e-05
-4.88904e-05
-2.21242e-05
-5.01647e-05
-3.79948e-05
-2.17329e-05
5.62898e-05
-5.02061e-05
7.46043e-05
-7.8218e-05
7.35216e-05
-0.000104347
6.86407e-05
-0.000127902
6.19323e-05
-0.000148317
5.37224e-05
-0.000165107
4.42115e-05
-0.000177863
3.3599e-05
-0.000186256
2.20888e-05
-0.000190038
9.89276e-06
-0.000189017
-2.77367e-06
-0.000183109
-1.56808e-05
-0.000172331
-2.85185e-05
-0.000156809
-4.09853e-05
-0.000136802
-5.27156e-05
-0.000112731
-6.33005e-05
-8.51892e-05
-7.229e-05
-5.50154e-05
-7.90642e-05
-2.39478e-05
-8.12322e-05
-6.19427e-05
-2.3166e-05
7.94558e-05
-5.35491e-05
0.000104987
-8.34162e-05
0.000103389
-0.000111258
9.64829e-05
-0.00013635
8.70241e-05
-0.000158106
7.54787e-05
-0.00017603
6.21354e-05
-0.000189707
4.72755e-05
-0.000198797
3.11795e-05
-0.000203037
1.41324e-05
-0.000202229
-3.5816e-06
-0.000196236
-2.16738e-05
-0.000185044
-3.97112e-05
-0.000168734
-5.72945e-05
-0.000147532
-7.39181e-05
-0.000121833
-8.89996e-05
-9.22412e-05
-0.000101881
-5.96549e-05
-0.00011165
-2.59823e-05
-0.000114905
-8.7925e-05
-2.51312e-05
0.000104587
-5.81099e-05
0.000137966
-9.04955e-05
0.000135774
-0.000120654
0.000126642
-0.000147816
0.000114186
-0.000171372
9.90352e-05
-0.000190818
8.15813e-05
-0.000205736
6.21928e-05
-0.000215782
4.12255e-05
-0.000220678
1.90288e-05
-0.000220205
-4.05438e-06
-0.00021417
-2.77094e-05
-0.000202497
-5.13834e-05
-0.000185203
-7.45889e-05
-0.00016244
-9.66807e-05
-0.000134558
-0.000116882
-0.000102157
-0.000134282
-6.62115e-05
-0.000147596
-2.88778e-05
-0.000152238
-0.000116803
-2.77363e-05
0.000132323
-6.41364e-05
0.000174366
-9.98232e-05
0.000171461
-0.000132997
0.000159815
-0.00016283
0.000144019
-0.000188694
0.0001249
-0.000210084
0.000102971
-0.000226589
7.86983e-05
-0.000237873
5.25097e-05
-0.000243651
2.4806e-05
-0.000243678
-4.02691e-06
-0.000237684
-3.37036e-05
-0.00022551
-6.35571e-05
-0.000207063
-9.30364e-05
-0.000182379
-0.000121365
-0.000151711
-0.00014755
-0.000115625
-0.000170368
-7.51756e-05
-0.000188045
-3.28618e-05
-0.000194552
-0.000149665
-3.10726e-05
0.000163396
-7.18327e-05
0.000215126
-0.000111691
0.000211319
-0.000148632
0.000196757
-0.000181767
0.000177153
-0.000210454
0.000153587
-0.000234207
0.000126723
-0.000252647
9.71384e-05
-0.000265464
6.53266e-05
-0.000272377
3.17195e-05
-0.00027313
-3.27405e-06
-0.000267348
-3.9486e-05
-0.000254755
-7.61494e-05
-0.000235093
-0.000112698
-0.000208208
-0.00014825
-0.000174173
-0.000181586
-0.000133448
-0.000211093
-8.7149e-05
-0.000234344
-3.82264e-05
-0.000243475
-0.000187891
-3.52684e-05
0.000198664
-8.1478e-05
0.000261336
-0.000126487
0.000256328
-0.000168011
0.000238281
-0.000205095
0.000214237
-0.000237109
0.000185601
-0.000263619
0.000153234
-0.00028432
0.000117839
-0.000298963
7.99693e-05
-0.0003073
4.00566e-05
-0.000309077
-1.49675e-06
-0.000303799
-4.47638e-05
-0.000291035
-8.89136e-05
-0.000270278
-0.000133456
-0.000241072
-0.000177456
-0.000203172
-0.000219485
-0.000156794
-0.000257471
-0.000103038
-0.0002881
-4.5431e-05
-0.000301082
-0.000233322
-4.05131e-05
0.000239178
-9.34724e-05
0.000314295
-0.000144754
0.00030761
-0.00019174
0.000285266
-0.000233421
0.000255918
-0.000269221
0.000221401
-0.000298823
0.000182836
-0.000322055
0.000141071
-0.000338791
9.67055e-05
-0.000348857
5.01221e-05
-0.00035205
1.69679e-06
-0.00034773
-4.90842e-05
-0.000335281
-0.000101362
-0.000313842
-0.000154895
-0.000282487
-0.00020881
-0.000240433
-0.000261539
-0.000187394
-0.000310511
-0.000124248
-0.000351245
-5.52287e-05
-0.000370102
-0.000288551
-4.70942e-05
0.000286272
-0.0001084
0.000375601
-0.000167259
0.000366469
-0.000220645
0.000338652
-0.000267533
0.000302806
-0.000307482
0.00026135
-0.000340385
0.00021574
-0.000366309
0.000166995
-0.000385342
0.000115739
-0.000397475
6.22553e-05
-0.000402474
6.69509e-06
-0.000399809
-5.1749e-05
-0.000388508
-0.000112663
-0.000367261
-0.000176142
-0.000334443
-0.000241629
-0.000288382
-0.0003076
-0.000227841
-0.000371052
-0.000153012
-0.000426074
-6.89145e-05
-0.000454199
-0.000357465
-5.54648e-05
0.000341737
-0.000127135
0.000447271
-0.000195104
0.000434438
-0.000255863
0.000399411
-0.000308464
0.000355406
-0.000352733
0.00030562
-0.000388931
0.000251937
-0.000417501
0.000195566
-0.000438878
0.000137115
-0.000453312
7.66899e-05
-0.000460718
1.41002e-05
-0.000460599
-5.18679e-05
-0.00045172
-0.000121542
-0.000432211
-0.000195651
-0.000399479
-0.000274361
-0.000350423
-0.000356656
-0.000282095
-0.00043938
-0.000193
-0.000515169
-8.88519e-05
-0.000558347
-0.000446317
-6.6369e-05
0.000408106
-0.000151017
0.000531918
-0.000229903
0.000513324
-0.000298982
0.000468491
-0.000357577
0.000414001
-0.000406011
0.000354054
-0.000445131
0.000291057
-0.000475969
0.000226404
-0.00049948
0.000160626
-0.000516331
9.35411e-05
-0.000526729
2.44974e-05
-0.00053032
-4.82765e-05
-0.000525698
-0.000126164
-0.000510419
-0.00021093
-0.000480684
-0.000304097
-0.000431299
-0.00040604
-0.000356285
-0.000514395
-0.000250458
-0.000620997
-0.000119661
-0.000689143
-0.000565978
-8.10933e-05
0.000489199
-0.000182156
0.000632981
-0.000274059
0.000605227
-0.00035224
0.000546672
-0.000416691
0.000478452
-0.000468584
0.000405948
-0.000509683
0.000332156
-0.000541887
0.000258608
-0.000566908
0.000185646
-0.000586022
0.000112655
-0.000599901
3.83771e-05
-0.000608564
-3.9614e-05
-0.000610655
-0.000124074
-0.000603322
-0.000218263
-0.000581516
-0.000325902
-0.000537342
-0.000450214
-0.000460008
-0.000591728
-0.000336415
-0.00074459
-0.00017113
-0.000854429
-0.000737108
-0.000102031
0.000591229
-0.000224036
0.000754987
-0.000331215
0.000712406
-0.000418813
0.000634269
-0.000488228
0.000547867
-0.000541989
0.000459709
-0.000583265
0.000373432
-0.000615174
0.000290517
-0.000640442
0.000210914
-0.000661195
0.000133407
-0.000678766
5.59481e-05
-0.000693858
-2.45217e-05
-0.000705635
-0.000112297
-0.000711358
-0.00021254
-0.000705217
-0.000332042
-0.000676445
-0.000478987
-0.000608065
-0.000660108
-0.0004709
-0.000881755
-0.000266063
-0.00105927
-0.00100317
-0.000132276
0.000723505
-0.000281407
0.000904117
-0.000406515
0.000837515
-0.000503106
0.00073086
-0.00057534
0.000620101
-0.000628021
0.00051239
-0.000666444
0.000411855
-0.00069536
0.000319433
-0.000718735
0.00023429
-0.000739721
0.000154393
-0.000760575
7.68019e-05
-0.000783099
-1.99777e-06
-0.000807559
-8.78365e-05
-0.000832554
-0.000187544
-0.000853146
-0.000311451
-0.000856457
-0.000475677
-0.000820805
-0.00069576
-0.000686873
-0.00101569
-0.000445641
-0.0013005
-0.00144881
-0.000192594
0.000916099
-0.00036916
0.00108068
-0.000510102
0.000978457
-0.000611699
0.000832457
-0.000682057
0.000690458
-0.000728511
0.000558844
-0.000759248
0.000442592
-0.000781057
0.000341243
-0.000799275
0.000252507
-0.000818088
0.000173207
-0.000840967
9.96808e-05
-0.000870092
2.7127e-05
-0.00090922
-4.87085e-05
-0.000959135
-0.00013763
-0.00101943
-0.000251156
-0.00107684
-0.000418269
-0.00111718
-0.000655421
-0.00102751
-0.00110536
-0.000780782
-0.00154722
-0.00222959
-0.000226852
0.00114295
-0.000468902
0.00132273
-0.000642994
0.00115255
-0.000750187
0.000939651
-0.000811041
0.000751313
-0.000841774
0.000589576
-0.000856326
0.000457144
-0.000864117
0.000349034
-0.000871583
0.000259972
-0.000883331
0.000184955
-0.000903077
0.000119427
-0.000935388
5.94382e-05
-0.000987093
2.99598e-06
-0.00105991
-6.48149e-05
-0.00117018
-0.000140881
-0.00129841
-0.000290041
-0.00148015
-0.000473681
-0.00148821
-0.0010973
-0.00124343
-0.001792
-0.00347302
-0.00053791
0.00168086
-0.000727342
0.00151217
-0.000846309
0.00127152
-0.000907538
0.00100088
-0.000917968
0.000761742
-0.000903028
0.000574637
-0.000878974
0.00043309
-0.000854865
0.000324926
-0.000836929
0.000242036
-0.00082974
0.000177766
-0.000837856
0.000127543
-0.000865743
8.73246e-05
-0.000919446
5.66989e-05
-0.00100852
2.42572e-05
-0.00114754
-1.85483e-06
-0.00133348
-0.000104105
-0.00155666
-0.000250501
-0.00163326
-0.00102069
-0.00124808
-0.00217718
-0.00472111
-0.00111674
0.0027976
-0.00103036
0.00142579
-0.000827653
0.00106881
-0.00059181
0.000765037
-0.000363004
0.000532936
-0.000164322
0.000375955
-3.04051e-06
0.000271809
0.000121709
0.000200176
0.000214952
0.000148792
0.000281714
0.000111004
0.000325804
8.34536e-05
0.000351662
6.14668e-05
0.000361939
4.64219e-05
0.00035526
3.09356e-05
0.000349207
4.19882e-06
0.000296851
-5.17495e-05
0.000333397
-0.000287047
0.00013385
-0.000821146
0.000174596
-0.00221793
-0.00454651
0.0027976
0.00422339
0.0052922
0.00605723
0.00659017
0.00696612
0.00723793
0.00743811
0.0075869
0.0076979
0.00778136
0.00784283
0.00788925
0.00792018
0.00792438
0.00787263
0.00758558
0.00676444
0.00454651
)
;

boundaryField
{
    movingWall
    {
        type            calculated;
        value           uniform 0;
    }
    fixedWalls
    {
        type            calculated;
        value           uniform 0;
    }
    frontAndBack
    {
        type            empty;
        value           nonuniform List<scalar> 0();
    }
}


// ************************************************************************* //
