/*--------------------------------*- C++ -*----------------------------------*\
  =========                 |
  \\      /  F ield         | OpenFOAM: The Open Source CFD Toolbox
   \\    /   O peration     | Website:  https://openfoam.org
    \\  /    A nd           | Version:  10
     \\/     M anipulation  |
\*---------------------------------------------------------------------------*/
FoamFile
{
    format      ascii;
    class       surfaceScalarField;
    location    "8.4";
    object      phi;
}
// * * * * * * * * * * * * * * * * * * * * * * * * * * * * * * * * * * * * * //

dimensions      [0 3 -1 0 0 0 0];

internalField   nonuniform List<scalar> 
22800
(
-2.98301e-06
3.80245e-06
-8.2706e-07
-9.39015e-06
6.8556e-06
-4.48471e-07
-1.70222e-05
7.86638e-06
-2.34343e-07
-2.51885e-05
8.28811e-06
-1.21789e-07
-3.363e-05
8.57183e-06
-1.30352e-07
-4.22482e-05
8.84707e-06
-2.28829e-07
-5.09407e-05
9.1029e-06
-4.10459e-07
-5.95238e-05
9.27344e-06
-6.90331e-07
-6.76942e-05
9.26541e-06
-1.095e-06
-7.50028e-05
8.96522e-06
-1.65658e-06
-8.08388e-05
8.24401e-06
-2.40802e-06
-8.44368e-05
6.97259e-06
-3.37458e-06
-8.49286e-05
5.05182e-06
-4.55998e-06
-8.14592e-05
2.45961e-06
-5.92907e-06
-7.33921e-05
-6.94966e-07
-7.37217e-06
-6.06057e-05
-4.09599e-06
-8.69041e-06
-4.39056e-05
-7.11387e-06
-9.58618e-06
-2.53671e-05
-8.84822e-06
-9.69025e-06
-8.36562e-06
-8.2927e-06
-8.70882e-06
-3.3505e-06
-5.01512e-06
-5.85051e-06
1.18473e-05
-2.19437e-06
-1.66994e-05
1.98297e-05
-2.12516e-06
-2.93693e-05
2.25385e-05
-2.0022e-06
-4.28254e-05
2.36193e-05
-1.87505e-06
-5.66245e-05
2.42266e-05
-1.85571e-06
-7.05438e-05
2.46956e-05
-1.92932e-06
-8.43655e-05
2.50204e-05
-2.09575e-06
-9.77698e-05
2.5057e-05
-2.37933e-06
-0.000110276
2.45893e-05
-2.81761e-06
-0.000121205
2.33499e-05
-3.45619e-06
-0.000129654
2.10367e-05
-4.34315e-06
-0.000134504
1.73392e-05
-5.51718e-06
-0.000134512
1.20482e-05
-6.98788e-06
-0.0001285
5.17248e-06
-8.72483e-06
-0.000115571
-3.03141e-06
-1.05923e-05
-9.55121e-05
-1.18765e-05
-1.22786e-05
-6.95246e-05
-1.97202e-05
-1.33812e-05
-4.06504e-05
-2.43221e-05
-1.34003e-05
-1.39878e-05
-2.31196e-05
-1.18356e-05
-1.11026e-05
-6.23574e-06
-6.83041e-06
2.16397e-05
-2.96199e-06
-1.93258e-05
3.54253e-05
-3.10019e-06
-3.38183e-05
4.00685e-05
-3.03756e-06
-4.91393e-05
4.18363e-05
-2.89592e-06
-6.48056e-05
4.2735e-05
-2.84213e-06
-8.0581e-05
4.33452e-05
-2.87407e-06
-9.62419e-05
4.36812e-05
-2.99986e-06
-0.000111462
4.35302e-05
-3.25351e-06
-0.000125745
4.2558e-05
-3.68506e-06
-0.000138376
4.03381e-05
-4.35747e-06
-0.000148379
3.63798e-05
-5.34e-06
-0.000154524
3.01805e-05
-6.69661e-06
-0.000155349
2.13412e-05
-8.46764e-06
-0.000149302
9.75604e-06
-1.06305e-05
-0.000135101
-4.22237e-06
-1.30099e-05
-0.000112257
-1.94791e-05
-1.52418e-05
-8.19248e-05
-3.32995e-05
-1.67528e-05
-4.7723e-05
-4.17046e-05
-1.68193e-05
-1.60526e-05
-4.00529e-05
-1.47371e-05
-1.96847e-05
-7.47053e-06
-7.04022e-06
3.22101e-05
-3.53019e-06
-2.00425e-05
5.22796e-05
-3.85212e-06
-3.51123e-05
5.8983e-05
-3.84462e-06
-5.10537e-05
6.14772e-05
-3.69944e-06
-6.7405e-05
6.2715e-05
-3.62867e-06
-8.39746e-05
6.35564e-05
-3.64167e-06
-0.000100595
6.40571e-05
-3.7556e-06
-0.000117004
6.39552e-05
-4.01598e-06
-0.000132772
6.28144e-05
-4.48876e-06
-0.000147226
6.00533e-05
-5.26051e-06
-0.000159378
5.49661e-05
-6.4342e-06
-0.000167868
4.67858e-05
-8.11574e-06
-0.000170955
3.48168e-05
-1.03886e-05
-0.000166624
1.8691e-05
-1.32662e-05
-0.000153019
-1.18253e-06
-1.66445e-05
-0.000128754
-2.38175e-05
-1.99263e-05
-9.46322e-05
-4.51109e-05
-2.23109e-05
-5.48385e-05
-5.88655e-05
-2.26327e-05
-1.76287e-05
-5.74854e-05
-1.97773e-05
-2.75166e-05
-9.79682e-06
-6.90107e-06
4.3063e-05
-3.95178e-06
-1.99131e-05
6.97271e-05
-4.43543e-06
-3.50609e-05
7.86079e-05
-4.47723e-06
-5.11571e-05
8.19129e-05
-4.33954e-06
-6.77858e-05
8.36184e-05
-4.27476e-06
-8.48307e-05
8.49064e-05
-4.30519e-06
-0.000102222
8.59077e-05
-4.45887e-06
-0.000119815
8.63444e-05
-4.79606e-06
-0.000137305
8.5709e-05
-5.40477e-06
-0.000154132
8.32852e-05
-6.40533e-06
-0.000169356
7.81424e-05
-7.95258e-06
-0.000181518
6.91738e-05
-1.02254e-05
-0.000188549
5.52384e-05
-1.33911e-05
-0.000187766
3.54488e-05
-1.75407e-05
-0.000176167
9.76844e-06
-2.255e-05
-0.00015134
-2.07915e-05
-2.7853e-05
-0.000112868
-5.15516e-05
-3.20313e-05
-6.5352e-05
-7.32715e-05
-3.31098e-05
-1.99278e-05
-7.39101e-05
-2.89995e-05
-3.34632e-05
-1.39812e-05
-6.58838e-06
5.39547e-05
-4.30336e-06
-1.93648e-05
8.74453e-05
-4.94176e-06
-3.4349e-05
9.86243e-05
-5.03217e-06
-5.03701e-05
0.000102845
-4.91096e-06
-6.70659e-05
0.000105184
-4.86935e-06
-8.44141e-05
0.000107199
-4.94486e-06
-0.000102475
0.000109148
-5.17951e-06
-0.000121267
0.000110789
-5.65307e-06
-0.000140677
0.000111603
-6.4836e-06
-0.000160346
0.000110793
-7.83952e-06
-0.000179494
0.000107243
-9.95222e-06
-0.000196687
9.94851e-05
-1.31191e-05
-0.000209557
8.57757e-05
-1.76673e-05
-0.000214649
6.4393e-05
-2.38515e-05
-0.000207451
3.42953e-05
-3.1725e-05
-0.000183859
-3.61081e-06
-4.07724e-05
-0.000140866
-4.59308e-05
-4.86141e-05
-8.2596e-05
-7.97581e-05
-5.17835e-05
-2.4241e-05
-8.64627e-05
-4.58024e-05
-3.64109e-05
-2.12933e-05
-6.15722e-06
6.4759e-05
-4.64706e-06
-1.8533e-05
0.00010527
-5.44879e-06
-3.31708e-05
0.000118851
-5.58858e-06
-4.89079e-05
0.000124067
-5.48451e-06
-6.54335e-05
0.000127178
-5.46898e-06
-8.28271e-05
0.000130191
-5.59807e-06
-0.000101302
0.000133555
-5.93205e-06
-0.000121084
0.000137147
-6.57587e-06
-0.000142327
0.000140533
-7.68747e-06
-0.000164987
0.000142956
-9.5023e-06
-0.000188617
0.000143238
-1.23651e-05
-0.000212037
0.000139667
-1.67611e-05
-0.000232875
0.000129921
-2.33072e-05
-0.000247066
0.000111224
-3.26406e-05
-0.000248572
8.09691e-05
-4.51671e-05
-0.000229666
3.80399e-05
-6.05565e-05
-0.000184515
-1.5115e-05
-7.59671e-05
-0.000112775
-6.71622e-05
-8.43366e-05
-3.40401e-05
-8.88925e-05
-7.63047e-05
-3.5765e-05
-3.46859e-05
-5.62316e-06
7.5402e-05
-5.01982e-06
-1.74551e-05
0.000123106
-6.0038e-06
-3.1555e-05
0.000139141
-6.19013e-06
-4.67461e-05
0.000145349
-6.09169e-06
-6.27554e-05
0.000149275
-6.0877e-06
-7.97585e-05
0.000153451
-6.25636e-06
-9.81258e-05
0.000158603
-6.68004e-06
-0.000118317
0.000164833
-7.49496e-06
-0.000140816
0.000171941
-8.909e-06
-0.000166024
0.000179407
-1.12436e-05
-0.000194052
0.000186264
-1.49987e-05
-0.000224341
0.000190894
-2.09378e-05
-0.000255048
0.000190779
-3.01513e-05
-0.000282151
0.000182309
-4.39821e-05
-0.000298464
0.000160875
-6.35934e-05
-0.000293139
0.000121588
-8.88728e-05
-0.000252675
6.08584e-05
-0.000116438
-0.00016891
-1.57785e-05
-0.000135148
-5.88884e-05
-7.25532e-05
-0.000126361
-3.35867e-05
-6.10667e-05
-5.01433e-06
8.58666e-05
-5.45028e-06
-1.61868e-05
0.000140923
-6.64439e-06
-2.95451e-05
0.000159368
-6.86857e-06
-4.38635e-05
0.000166418
-6.75005e-06
-5.88807e-05
0.000171016
-6.72343e-06
-7.48469e-05
0.000176309
-6.89251e-06
-9.22671e-05
0.000183387
-7.3643e-06
-0.000111814
0.000192689
-8.30856e-06
-0.000134307
0.000204422
-9.98771e-06
-0.000160668
0.000218589
-1.28217e-05
-0.000191778
0.000234869
-1.7495e-05
-0.00022814
0.00025237
-2.51139e-05
-0.000269268
0.000269278
-3.73714e-05
-0.000312667
0.000282229
-5.65212e-05
-0.00035206
0.0002849
-8.46311e-05
-0.000374475
0.000265117
-0.000121114
-0.000356866
0.000201817
-0.000158568
-0.000270816
8.23678e-05
-0.000184196
-0.00011852
-4.64093e-05
-0.00017844
-4.50936e-05
-0.000107013
-4.40472e-06
9.62446e-05
-5.9733e-06
-1.48762e-05
0.00015881
-7.41557e-06
-2.73102e-05
0.000179464
-7.66234e-06
-4.039e-05
0.00018698
-7.48246e-06
-5.38266e-05
0.00019183
-7.37784e-06
-6.79108e-05
0.000197874
-7.48085e-06
-8.32254e-05
0.000206625
-7.92363e-06
-0.000100578
0.000218948
-8.90637e-06
-0.000121027
0.00023561
-1.07388e-05
-0.00014592
0.000257407
-1.39246e-05
-0.000176892
0.000285143
-1.93025e-05
-0.000215761
0.000319484
-2.82438e-05
-0.000264277
0.000360557
-4.27633e-05
-0.000323332
0.000406272
-6.49887e-05
-0.000391141
0.000447693
-9.49837e-05
-0.000458478
0.000459194
-0.000126741
-0.000494154
0.000386271
-0.000148778
-0.000436883
0.000179419
-0.000154322
-0.000237887
-8.20037e-05
-0.000163402
-0.00012639
-0.000156591
-3.94793e-06
0.000106836
-6.64368e-06
-1.383e-05
0.000177076
-8.38457e-06
-2.5234e-05
0.000199497
-8.62864e-06
-3.67129e-05
0.000206787
-8.32827e-06
-4.79212e-05
0.000211106
-8.06737e-06
-5.91444e-05
0.000217109
-8.0112e-06
-7.09532e-05
0.000226747
-8.31271e-06
-8.41382e-05
0.000241323
-9.18997e-06
-9.97742e-05
0.000262219
-1.09723e-05
-0.000119332
0.000291149
-1.41844e-05
-0.000144856
0.000330342
-1.96746e-05
-0.000179159
0.000382436
-2.86494e-05
-0.00022657
0.000449951
-4.19826e-05
-0.000293606
0.000531033
-5.77254e-05
-0.000388138
0.00060885
-6.66248e-05
-0.000511351
0.000632208
-4.98004e-05
-0.000631959
0.000506202
6.76906e-07
-0.000638162
0.000142687
4.29349e-05
-0.000396154
-0.000313295
-1.07164e-05
-0.000387395
-0.000135149
-3.9337e-06
0.00011834
-7.56997e-06
-1.36059e-05
0.000196441
-9.69238e-06
-2.40145e-05
0.000219821
-9.91612e-06
-3.35683e-05
0.000225764
-9.42318e-06
-4.18981e-05
0.000228335
-8.89878e-06
-4.92573e-05
0.000233026
-8.55841e-06
-5.60981e-05
0.000242163
-8.57553e-06
-6.29844e-05
0.000257378
-9.16858e-06
-7.06633e-05
0.000280538
-1.06407e-05
-8.01746e-05
0.000314074
-1.34133e-05
-9.32271e-05
0.000361435
-1.80406e-05
-0.000112824
0.000426535
-2.45023e-05
-0.00014566
0.000512863
-3.00758e-05
-0.000206583
0.000615271
-2.33148e-05
-0.000323408
0.000706288
1.93864e-05
-0.000525657
0.000703415
0.000131042
-0.000781102
0.000470194
0.000291453
-0.000851897
-0.000150065
0.000363547
-0.000535689
-0.000856004
0.000226501
-0.000909095
-1.39886e-05
-4.83796e-06
0.000132113
-8.93517e-06
-1.50683e-05
0.000218104
-1.14332e-05
-2.47213e-05
0.000240999
-1.15244e-05
-3.21327e-05
0.000243885
-1.07098e-05
-3.70095e-05
0.000243023
-9.81206e-06
-3.95946e-05
0.000244702
-9.09017e-06
-4.01624e-05
0.000251443
-8.71211e-06
-3.88411e-05
0.000264917
-8.86026e-06
-3.57061e-05
0.000287168
-9.76457e-06
-3.07678e-05
0.000320715
-1.15802e-05
-2.49064e-05
0.000369814
-1.42401e-05
-2.12333e-05
0.000438503
-1.56411e-05
-3.03529e-05
0.000529999
-8.01622e-06
-8.19452e-05
0.000635079
3.17848e-05
-0.000236729
0.000718568
0.000142503
-0.000561678
0.000672811
0.000355553
-0.00097279
0.000280923
0.000600383
-0.00104618
-0.000714815
0.000638139
-0.000670824
-0.00160186
0.000370501
-0.00164025
6.03324e-05
-7.76951e-06
0.000151205
-1.13227e-05
-1.99184e-05
0.00024476
-1.45066e-05
-2.9114e-05
0.000264773
-1.45787e-05
-3.40034e-05
0.000262106
-1.33314e-05
-3.48488e-05
0.000255655
-1.17857e-05
-3.20336e-05
0.000252251
-1.03645e-05
-2.55603e-05
0.000254278
-9.30835e-06
-1.50242e-05
0.0002632
-8.81895e-06
5.42605e-07
0.000280624
-9.02248e-06
2.14284e-05
0.000309444
-9.61414e-06
4.85602e-05
0.000352784
-1.01013e-05
7.92665e-05
0.000414172
-6.37559e-06
9.90957e-05
0.000496353
1.38171e-05
6.09422e-05
0.000590404
8.28276e-05
-0.000133172
0.000665116
0.000247567
-0.000562937
0.000580222
0.000522354
-0.00104826
-1.1137e-05
0.000777384
-0.00114789
-0.00128405
0.000668861
-0.000812776
-0.00224601
0.000309042
-0.00243642
-1.66096e-05
-1.31989e-05
0.000179256
-1.48523e-05
-2.89213e-05
0.00027843
-1.79478e-05
-3.83913e-05
0.00029181
-1.75671e-05
-4.13918e-05
0.000280608
-1.55011e-05
-3.82855e-05
0.000265841
-1.3293e-05
-2.9781e-05
0.000255018
-1.12715e-05
-1.59625e-05
0.000250134
-9.67497e-06
3.98397e-06
0.000251918
-8.66439e-06
3.10986e-05
0.000261703
-8.19459e-06
6.79818e-05
0.000280725
-8.16465e-06
0.000116348
0.000311734
-7.31578e-06
0.000175172
0.000356208
-8.60364e-07
0.000230529
0.000416211
2.47847e-05
0.000235461
0.000483104
0.000102369
7.66399e-05
0.000540044
0.000283892
-0.000321916
0.000425309
0.000553469
-0.000817334
-0.00025098
0.000735262
-0.00105659
-0.00155951
0.000514715
-0.000863263
-0.00264663
0.000207298
-0.00314683
-0.000152855
-3.47419e-05
0.00023683
-2.28314e-05
-5.45679e-05
0.000325802
-2.75459e-05
-6.09081e-05
0.000324622
-2.64712e-05
-5.69029e-05
0.000299874
-2.32718e-05
-4.64906e-05
0.000274783
-1.93543e-05
-3.10347e-05
0.000255217
-1.5655e-05
-1.02516e-05
0.000241992
-1.26402e-05
1.7422e-05
0.000234748
-1.05037e-05
5.42518e-05
0.00023422
-9.34656e-06
0.000103708
0.00024029
-9.02146e-06
0.000168739
0.000254977
-8.27506e-06
0.000250734
0.000277144
-2.93082e-06
0.000340021
0.000307893
1.90312e-05
0.000406414
0.000334747
8.19642e-05
0.000360319
0.000353633
0.000232506
9.7728e-05
0.000237999
0.000449901
-0.000360239
-0.000357365
0.000564351
-0.000785013
-0.00152152
0.000386786
-0.000792063
-0.00279224
0.000152655
-0.00364566
-0.000293233
-2.987e-05
0.000305127
-3.84271e-05
-6.76433e-05
0.000402618
-3.90426e-05
-8.19465e-05
0.000374594
-3.56693e-05
-8.12987e-05
0.000327698
-2.84714e-05
-6.78781e-05
0.000284342
-2.29793e-05
-4.53539e-05
0.000250735
-1.8042e-05
-1.54036e-05
0.000226213
-1.41718e-05
2.24747e-05
0.000208399
-1.15289e-05
6.98675e-05
0.000197244
-1.04161e-05
0.00013052
0.000190531
-1.08934e-05
0.000207387
0.000190069
-1.19597e-05
0.000303812
0.000191633
-1.09132e-05
0.000411814
0.000197848
2.04304e-06
0.00051623
0.000191613
3.87176e-05
0.000559581
0.000176125
0.000134157
0.000440965
7.31622e-05
0.000283453
6.41268e-05
-0.000342243
0.000361716
-0.000463631
-0.00129798
0.000304211
-0.000658144
-0.00269328
9.55572e-05
-0.00387975
-0.000424049
-0.000181283
0.000533801
-4.73915e-05
-0.000177197
0.000459264
-6.07325e-05
-0.000145559
0.000403497
-6.05398e-05
-0.000108875
0.000344305
-5.32917e-05
-6.28027e-05
0.000279807
-4.15378e-05
-1.23432e-05
0.00023107
-3.07947e-05
4.10131e-05
0.000195646
-2.27895e-05
9.88623e-05
0.000168092
-1.75429e-05
0.000162456
0.000148974
-1.53241e-05
0.000236298
0.000133112
-1.6422e-05
0.000321248
0.000124705
-1.95865e-05
0.000421522
0.000114772
-2.34132e-05
0.000529277
0.00011159
-2.14965e-05
0.000632444
9.35051e-05
-5.0583e-06
0.00070336
6.49333e-05
4.02748e-05
0.000674496
-3.47749e-05
0.000136802
0.000457354
-0.000303777
0.000178675
-3.55871e-05
-0.00101913
0.000214091
-0.000377982
-0.00239186
4.09717e-05
-0.00370106
-0.000556676
-0.000371479
0.00107702
-0.000171742
-0.000261661
0.000479564
-0.000130117
-0.000104591
0.000348886
-0.00010246
6.8637e-05
0.000246939
-7.58618e-05
0.00023422
0.000173405
-5.918e-05
0.000386674
0.000124622
-4.60059e-05
0.000524427
9.43806e-05
-3.6488e-05
0.000650265
7.25516e-05
-3.02969e-05
0.000766804
5.93371e-05
-2.6902e-05
0.000879147
4.76533e-05
-2.6885e-05
0.000990597
4.27588e-05
-2.95031e-05
0.00110567
3.51988e-05
-3.54951e-05
0.00122563
3.21774e-05
-4.05525e-05
0.00134004
1.82274e-05
-3.91286e-05
0.00143845
-5.97481e-06
-2.7506e-05
0.00147279
-8.39658e-05
1.48479e-05
0.00138252
-0.000272681
5.91783e-05
0.000986846
-0.000723378
9.99239e-05
0.000274854
-0.00167561
-4.25949e-06
-0.00273809
-0.000688119
0.00122643
-0.000149408
0.00186735
-0.000161356
0.0023776
-0.000161369
0.00277211
-0.000147564
0.00307584
-0.000130328
0.00331631
-0.000115844
0.0035128
-0.000102118
0.00367736
-9.20034e-05
0.00381848
-8.17868e-05
0.00394253
-7.63902e-05
0.00405498
-6.96908e-05
0.00415889
-6.87156e-05
0.00425496
-6.38903e-05
0.00433779
-6.45997e-05
0.00438541
-5.35947e-05
0.00435364
-5.21957e-05
0.00411059
-2.96337e-05
0.00344762
-6.04112e-05
0.00189503
-0.000123016
-0.000843055
-5.07749e-06
5.94488e-06
-1.69445e-06
-1.5992e-05
1.21329e-05
-1.66681e-06
-2.90473e-05
1.43176e-05
-1.4967e-06
-4.2814e-05
1.50403e-05
-1.39541e-06
-5.68037e-05
1.53182e-05
-1.45888e-06
-7.08361e-05
1.54775e-05
-1.67396e-06
-8.47271e-05
1.55252e-05
-2.04465e-06
-9.8169e-05
1.53531e-05
-2.60154e-06
-0.00011068
1.48061e-05
-3.39009e-06
-0.000121572
1.36974e-05
-4.46162e-06
-0.000129936
1.18202e-05
-5.86462e-06
-0.000134656
8.97438e-06
-7.62924e-06
-0.000134488
5.01606e-06
-9.74427e-06
-0.000128218
-6.71987e-08
-1.2131e-05
-0.000114951
-6.05238e-06
-1.45871e-05
-9.45549e-05
-1.22935e-05
-1.67931e-05
-6.82413e-05
-1.75986e-05
-1.83012e-05
-3.91579e-05
-2.01664e-05
-1.86072e-05
-1.29061e-05
-1.77969e-05
-1.71638e-05
-6.86535e-06
-1.10559e-05
-1.15202e-05
1.87496e-05
-3.4789e-06
-3.21301e-05
3.47169e-05
-4.09937e-06
-5.6159e-05
4.04126e-05
-4.06827e-06
-8.12847e-05
4.22366e-05
-3.94565e-06
-0.000106572
4.27294e-05
-3.97982e-06
-0.000131539
4.27102e-05
-4.19516e-06
-0.000155727
4.2234e-05
-4.61615e-06
-0.000178525
4.10672e-05
-5.29528e-06
-0.000199085
3.8851e-05
-6.3028e-06
-0.000216276
3.51493e-05
-7.71741e-06
-0.000228669
2.94847e-05
-9.61378e-06
-0.000234564
2.13909e-05
-1.20392e-05
-0.000232147
1.05909e-05
-1.49792e-05
-0.000219779
-2.79817e-06
-1.8362e-05
-0.000196153
-1.84156e-05
-2.18553e-05
-0.00016125
-3.44761e-05
-2.49987e-05
-0.000117023
-4.80861e-05
-2.71208e-05
-6.83794e-05
-5.47806e-05
-2.74298e-05
-2.40365e-05
-4.90608e-05
-2.49145e-05
-2.21098e-05
-1.50278e-05
-1.42498e-05
3.45785e-05
-4.54112e-06
-3.91307e-05
6.2067e-05
-5.56929e-06
-6.78747e-05
7.17536e-05
-5.63455e-06
-9.77411e-05
7.4696e-05
-5.48888e-06
-0.000127647
7.52691e-05
-5.47575e-06
-0.000157034
7.48691e-05
-5.64583e-06
-0.000185383
7.36238e-05
-6.04063e-06
-0.000212023
7.1185e-05
-6.73195e-06
-0.000236033
6.69913e-05
-7.81455e-06
-0.000256186
6.0343e-05
-9.39893e-06
-0.000270905
5.04605e-05
-1.1597e-05
-0.000278298
3.65872e-05
-1.44993e-05
-0.000276228
1.81961e-05
-1.81433e-05
-0.000262478
-4.7524e-06
-2.24261e-05
-0.00023531
-3.16003e-05
-2.69929e-05
-0.00019428
-5.95102e-05
-3.12382e-05
-0.000141354
-8.35639e-05
-3.42003e-05
-8.24394e-05
-9.58365e-05
-3.46785e-05
-2.85862e-05
-8.64253e-05
-3.12259e-05
-3.99708e-05
-1.81957e-05
-1.5224e-05
5.16572e-05
-5.38486e-06
-4.18556e-05
9.16069e-05
-6.76039e-06
-7.25533e-05
0.000105521
-6.91402e-06
-0.000104413
0.000109617
-6.76106e-06
-0.000136352
0.000110302
-6.72264e-06
-0.000167864
0.000109612
-6.87323e-06
-0.000198499
0.000107777
-7.27318e-06
-0.000227667
0.000104355
-8.0181e-06
-0.000254526
9.85967e-05
-9.23581e-06
-0.000277884
8.95252e-05
-1.10839e-05
-0.000296118
7.59976e-05
-1.3738e-05
-0.000307109
5.68261e-05
-1.73639e-05
-0.000308257
3.10332e-05
-2.20771e-05
-0.000296756
-1.63804e-06
-2.78822e-05
-0.000269624
-4.10183e-05
-3.43582e-05
-0.000225296
-8.30872e-05
-4.06773e-05
-0.000165107
-0.000120687
-4.53762e-05
-9.59037e-05
-0.000141261
-4.64109e-05
-3.20803e-05
-0.000128537
-4.14889e-05
-5.84929e-05
-2.3355e-05
-1.54265e-05
6.92138e-05
-6.0818e-06
-4.27307e-05
0.000122254
-7.77869e-06
-7.42869e-05
0.000140618
-8.01788e-06
-0.000107129
0.000145995
-7.87466e-06
-0.000140238
0.00014698
-7.84324e-06
-0.000173229
0.000146321
-8.02342e-06
-0.00020581
0.000144398
-8.49849e-06
-0.000237572
0.000140717
-9.39552e-06
-0.000267854
0.000134362
-1.08887e-05
-0.000295608
0.00012408
-1.32051e-05
-0.000319241
0.000108299
-1.66214e-05
-0.000336428
8.52266e-05
-2.14392e-05
-0.000343983
5.3124e-05
-2.79261e-05
-0.000337934
1.09566e-05
-3.61848e-05
-0.000313785
-4.17325e-05
-4.59843e-05
-0.000267692
-0.000100913
-5.61205e-05
-0.000199271
-0.000156868
-6.42716e-05
-0.000115876
-0.000191023
-6.67432e-05
-3.71435e-05
-0.000177009
-5.92599e-05
-7.78124e-05
-3.18052e-05
-1.53195e-05
8.69489e-05
-6.71901e-06
-4.28644e-05
0.000153594
-8.73635e-06
-7.48623e-05
0.000176647
-9.06385e-06
-0.000108317
0.000183481
-8.94316e-06
-0.000142296
0.000185031
-8.94215e-06
-0.000176583
0.000184853
-9.18924e-06
-0.000211113
0.000183544
-9.7961e-06
-0.000245746
0.000180627
-1.09303e-05
-0.000280123
0.000175084
-1.28283e-05
-0.000313488
0.00016542
-1.58151e-05
-0.000344441
0.000149618
-2.03188e-05
-0.000370603
0.000125137
-2.68671e-05
-0.000388247
8.91121e-05
-3.6012e-05
-0.000392014
3.90216e-05
-4.81497e-05
-0.000375352
-2.66378e-05
-6.34809e-05
-0.000330784
-0.000105775
-8.04791e-05
-0.000253911
-0.000187019
-9.53352e-05
-0.000150275
-0.000245278
-0.000101165
-4.68857e-05
-0.00023691
-8.92912e-05
-0.000100926
-4.5065e-05
-1.50675e-05
0.000104743
-7.37363e-06
-4.26577e-05
0.00018547
-9.7345e-06
-7.4888e-05
0.000213442
-1.01532e-05
-0.000108725
0.000221888
-1.00542e-05
-0.000143331
0.000224254
-1.00846e-05
-0.00017869
0.000225019
-1.04061e-05
-0.000215017
0.000225104
-1.11645e-05
-0.000252542
0.000224154
-1.2577e-05
-0.000291356
0.000221171
-1.49602e-05
-0.000331208
0.000214542
-1.87719e-05
-0.000371187
0.000201893
-2.46616e-05
-0.000409239
0.000179942
-3.35135e-05
-0.000441518
0.000144492
-4.64088e-05
-0.000461582
9.09154e-05
-6.44706e-05
-0.000460755
1.5791e-05
-8.84223e-05
-0.000426294
-8.39594e-05
-0.000116833
-0.000345853
-0.000200018
-0.00014341
-0.000215917
-0.000304191
-0.00015536
-6.99681e-05
-0.000322671
-0.000136492
-0.000140008
-6.55719e-05
-1.47172e-05
0.000122542
-8.10185e-06
-4.22272e-05
0.000217824
-1.08485e-05
-7.45027e-05
0.000250883
-1.13555e-05
-0.000108438
0.000260989
-1.12579e-05
-0.000143284
0.000264304
-1.12922e-05
-0.000179231
0.000266368
-1.16579e-05
-0.000216823
0.000268555
-1.25391e-05
-0.000256742
0.000270788
-1.42097e-05
-0.000299693
0.000272292
-1.70802e-05
-0.00034621
0.00027159
-2.17736e-05
-0.00039633
0.00026625
-2.92349e-05
-0.000449022
0.00025256
-4.08641e-05
-0.000501338
0.000225247
-5.85906e-05
-0.000547252
0.000177463
-8.46149e-05
-0.000575971
0.000101155
-0.00012024
-0.000571847
-1.25303e-05
-0.000164426
-0.000505449
-0.000179004
-0.00020385
-0.000349051
-0.000376944
-0.000218793
-0.00012917
-0.000477783
-0.000191131
-0.000234522
-9.57227e-05
-1.4309e-05
0.000140357
-8.95607e-06
-4.16551e-05
0.000250676
-1.21494e-05
-7.3766e-05
0.000288858
-1.27325e-05
-0.000107406
0.000300473
-1.25931e-05
-0.000141884
0.000304629
-1.25716e-05
-0.000177593
0.000308094
-1.29087e-05
-0.000215406
0.000312831
-1.38276e-05
-0.000256502
0.000319233
-1.56571e-05
-0.000302315
0.00032702
-1.89023e-05
-0.000354445
0.000335261
-2.43638e-05
-0.000414427
0.000342063
-3.33265e-05
-0.000483272
0.000344107
-4.78155e-05
-0.000560781
0.000336145
-7.07608e-05
-0.000644388
0.000309971
-0.000105423
-0.000725984
0.000250555
-0.000152434
-0.00078399
0.000125798
-0.000201436
-0.000769212
-0.000123006
-0.000229344
-0.00059873
-0.000510558
-0.000221064
-0.00026204
-0.000795097
-0.000197817
-0.000473858
-0.000129716
-1.39401e-05
0.000158327
-1.00036e-05
-4.11324e-05
0.000284179
-1.37266e-05
-7.28739e-05
0.0003273
-1.43632e-05
-0.000105724
0.000339954
-1.41141e-05
-0.000139004
0.000344474
-1.39422e-05
-0.000173277
0.000349018
-1.41322e-05
-0.000209703
0.000356276
-1.49418e-05
-0.000249918
0.000367283
-1.67418e-05
-0.000296082
0.000382552
-2.01066e-05
-0.000350963
0.000402188
-2.597e-05
-0.000417996
0.00042567
-3.58758e-05
-0.000501282
0.000451409
-5.22605e-05
-0.000605583
0.000475886
-7.82026e-05
-0.000735552
0.000489634
-0.000114683
-0.000890425
0.000462574
-0.000152129
-0.00104639
0.000314667
-0.000159646
-0.00111902
-9.35827e-05
-0.000105572
-0.000948054
-0.000789928
-4.59165e-05
-0.000474672
-0.00134114
-9.07437e-05
-0.000966501
-0.00013862
-1.38141e-05
0.000176846
-1.13482e-05
-4.10625e-05
0.000318752
-1.57095e-05
-7.23053e-05
0.000366275
-1.63603e-05
-0.000103819
0.000379045
-1.59053e-05
-0.000134896
0.000382937
-1.54533e-05
-0.000166211
0.000387656
-1.53349e-05
-0.000199106
0.000396689
-1.58301e-05
-0.000235512
0.000411821
-1.73218e-05
-0.000278107
0.000434564
-2.039e-05
-0.000330622
0.000466485
-2.59658e-05
-0.000398305
0.000509203
-3.55254e-05
-0.000488524
0.000563921
-5.0943e-05
-0.00061175
0.000629355
-7.22258e-05
-0.000781446
0.00069084
-8.92351e-05
-0.00100436
0.000687032
-6.8169e-05
-0.00125025
0.000469365
4.13909e-05
-0.0014009
-0.0001673
0.000225044
-0.00122985
-0.00120897
0.000290926
-0.000679001
-0.00199348
9.07791e-05
-0.0017092
-7.14478e-05
-1.43374e-05
0.000196787
-1.31732e-05
-4.22154e-05
0.00035528
-1.83417e-05
-7.29837e-05
0.000406102
-1.89751e-05
-0.000102603
0.000417435
-1.81946e-05
-0.000130366
0.000419091
-1.7289e-05
-0.000157013
0.000422397
-1.6652e-05
-0.00018391
0.00043159
-1.658e-05
-0.000212983
0.000449156
-1.74302e-05
-0.000246958
0.00047759
-1.96919e-05
-0.00028978
0.000519941
-2.40466e-05
-0.000347382
0.000580003
-3.12388e-05
-0.000428537
0.000661257
-4.06828e-05
-0.000546811
0.000762132
-4.45783e-05
-0.000721061
0.000856574
-1.47989e-05
-0.000969419
0.00084786
0.000106917
-0.00126683
0.000533245
0.000364577
-0.00148308
-0.000302134
0.000642539
-0.00133186
-0.00160692
0.000610264
-0.000773606
-0.00255421
0.000228982
-0.00253015
3.33477e-05
-1.60819e-05
0.000219666
-1.57322e-05
-4.56581e-05
0.000395235
-2.18123e-05
-7.62919e-05
0.000447489
-2.22771e-05
-0.000103645
0.000455064
-2.09851e-05
-0.000127042
0.000452128
-1.94522e-05
-0.000147277
0.000451661
-1.812e-05
-0.000165615
0.000458483
-1.72682e-05
-0.000183623
0.000475481
-1.71764e-05
-0.000203396
0.000505747
-1.81493e-05
-0.000228001
0.000553328
-2.03628e-05
-0.000262493
0.000623475
-2.32191e-05
-0.000314906
0.000720403
-2.23739e-05
-0.000399974
0.000841204
-2.01972e-06
-0.000544035
0.00094738
8.50395e-05
-0.000786069
0.000925935
0.000306462
-0.00111756
0.000546191
0.000674098
-0.00138583
-0.000391
0.000957515
-0.00126666
-0.00182591
0.000737963
-0.000768796
-0.00291006
0.000228489
-0.00326499
2.63831e-05
-2.0858e-05
0.000248937
-1.97361e-05
-5.41731e-05
0.000441331
-2.72875e-05
-8.48365e-05
0.000491234
-2.76604e-05
-0.000108904
0.000491476
-2.56763e-05
-0.00012662
0.000481211
-2.31531e-05
-0.000139013
0.000474406
-2.07152e-05
-0.000146949
0.000475818
-1.87079e-05
-0.00015123
0.000488327
-1.73829e-05
-0.000152868
0.000515189
-1.6826e-05
-0.000153183
0.000560657
-1.66293e-05
-0.00015527
0.00063034
-1.48793e-05
-0.00016452
0.000727756
-4.47848e-06
-0.000196866
0.000849774
3.75919e-05
-0.000284784
0.000953296
0.00016483
-0.000491555
0.000936051
0.000444222
-0.000816445
0.000554681
0.000838754
-0.00108227
-0.000388724
0.00104093
-0.00103888
-0.00183904
0.000638607
-0.000688746
-0.00309036
0.000139208
-0.00387629
-9.4063e-05
-2.72143e-05
0.000286639
-2.53396e-05
-6.63387e-05
0.000496399
-3.38918e-05
-9.91432e-05
0.000540224
-3.37531e-05
-0.000121907
0.000529361
-3.06218e-05
-0.000134304
0.000507323
-2.70083e-05
-0.000137911
0.000490221
-2.34788e-05
-0.000133833
0.000482457
-2.03923e-05
-0.00012241
0.000486182
-1.79425e-05
-0.000103381
0.000504033
-1.60675e-05
-7.6068e-05
0.00053926
-1.40808e-05
-4.04375e-05
0.000596827
-9.43371e-06
1.7282e-06
0.000678724
6.00576e-06
3.76545e-05
0.000782928
5.57045e-05
3.41452e-05
0.000871101
0.000188074
-7.04313e-05
0.000862179
0.000462341
-0.000305883
0.000536022
0.00080758
-0.000534855
-0.000328908
0.000904418
-0.000656973
-0.00166471
0.000462499
-0.000512994
-0.00309105
6.40072e-05
-0.0043306
-0.000211529
-6.08023e-05
0.000360153
-3.55435e-05
-0.000106716
0.000561713
-4.69461e-05
-0.000133586
0.000586813
-4.61907e-05
-0.000144934
0.000559207
-4.1769e-05
-0.000146124
0.000525317
-3.61592e-05
-0.000139041
0.000497999
-3.05163e-05
-0.000123555
0.000479803
-2.54729e-05
-9.8148e-05
0.000471617
-2.13454e-05
-6.07808e-05
0.000475476
-1.81565e-05
-8.42906e-06
0.000493032
-1.51447e-05
6.09859e-05
0.000528916
-9.77877e-06
0.000149443
0.000582985
4.35028e-06
0.000252228
0.000652874
4.63007e-05
0.000348916
0.000707061
0.000149316
0.000384277
0.000697038
0.000362286
0.000284886
0.000458367
0.000626948
9.11488e-05
-0.00023472
0.0006639
-0.000209149
-0.00132141
0.000343783
-0.000261302
-0.00291209
2.58476e-05
-0.00458454
-0.000300598
-4.17114e-05
0.000417332
-5.38948e-05
-0.000118409
0.000664931
-6.55625e-05
-0.00016447
0.000658946
-6.17411e-05
-0.000183025
0.000602126
-5.28353e-05
-0.000181703
0.000545892
-4.4876e-05
-0.000165514
0.000501015
-3.72462e-05
-0.000136747
0.000467495
-3.06304e-05
-9.48801e-05
0.000443555
-2.53336e-05
-3.83135e-05
0.000430145
-2.16517e-05
3.68252e-05
0.000425994
-1.8994e-05
0.000133916
0.000435503
-1.56373e-05
0.000258007
0.000455226
-7.2447e-06
0.000406288
0.000487335
1.93012e-05
0.000565923
0.000504255
8.18886e-05
0.000699474
0.00048586
0.000211785
0.000717861
0.000331985
0.000391448
0.000563828
-0.00013762
0.000418649
0.000222253
-0.000930768
0.000255144
5.45407e-05
-0.00265712
8.30375e-06
-0.00458593
-0.000368118
-0.000190098
0.000621574
-6.15351e-05
-0.000214623
0.0007139
-8.51766e-05
-0.000227959
0.00069995
-8.82084e-05
-0.000232755
0.000633728
-8.00979e-05
-0.000212298
0.00055122
-6.73224e-05
-0.000172615
0.00048501
-5.44731e-05
-0.00011783
0.000433651
-4.37301e-05
-4.78324e-05
0.000391723
-3.5709e-05
3.62034e-05
0.000361726
-3.09411e-05
0.000137143
0.000337532
-2.88996e-05
0.000256185
0.000325967
-2.90936e-05
0.000398395
0.00031772
-2.81171e-05
0.00056056
0.000322428
-1.87541e-05
0.000730027
0.000318581
1.1148e-05
0.000894365
0.000291975
6.98219e-05
0.00098344
0.000199062
0.00018065
0.000971386
-0.000132859
0.000185967
0.000792734
-0.000681214
0.00014319
0.000504036
-0.00232265
-4.79733e-06
-0.0042187
-0.00041987
-0.000666193
0.00128444
-0.000168412
-0.000624023
0.000703927
-0.000162314
-0.000479063
0.000589318
-0.000136789
-0.000278162
0.000471763
-0.000114797
-6.83935e-05
0.000380447
-9.8176e-05
0.00013997
0.000313803
-8.31626e-05
0.000340914
0.000267522
-7.13032e-05
0.000533997
0.000230642
-6.22997e-05
0.000720348
0.000204819
-5.63456e-05
0.000902413
0.000182221
-5.3639e-05
0.00108459
0.000168451
-5.4165e-05
0.00126794
0.000155456
-5.65791e-05
0.00146281
0.000147091
-6.00863e-05
0.00165958
0.000135625
-5.29403e-05
0.0018629
0.000101817
-4.06677e-05
0.00202989
4.45203e-05
2.40006e-06
0.00209157
-0.000168555
3.31943e-05
0.0020336
-0.000552388
2.9069e-05
0.00138717
-0.00165016
-3.03233e-05
-0.00304758
-0.000472072
0.00126935
-0.000134325
0.00196915
-0.000157226
0.00255988
-0.000162774
0.00304108
-0.000157006
0.00343814
-0.000146944
0.00377237
-0.000136265
0.00406298
-0.00012521
0.00431817
-0.000116546
0.00454816
-0.000106967
0.00475603
-0.000102033
0.00494926
-9.44772e-05
0.00513035
-9.43475e-05
0.00530107
-8.75146e-05
0.00546366
-9.15657e-05
0.00559089
-7.90058e-05
0.00566931
-8.6101e-05
0.00553534
-6.42144e-05
0.00502562
-0.000103081
0.0033674
-0.000114962
-0.000523231
-5.7751e-06
6.24854e-06
-2.16788e-06
-1.8389e-05
1.36036e-05
-2.6565e-06
-3.3488e-05
1.62622e-05
-2.6599e-06
-4.93077e-05
1.70731e-05
-2.64884e-06
-6.52621e-05
1.72794e-05
-2.78378e-06
-8.11475e-05
1.73003e-05
-3.08885e-06
-9.67586e-05
1.71542e-05
-3.58774e-06
-0.000111755
1.67172e-05
-4.32231e-06
-0.000125608
1.58095e-05
-5.34648e-06
-0.000137567
1.42144e-05
-6.71761e-06