/*--------------------------------*- C++ -*----------------------------------*\
  =========                 |
  \\      /  F ield         | OpenFOAM: The Open Source CFD Toolbox
   \\    /   O peration     | Website:  https://openfoam.org
    \\  /    A nd           | Version:  10
     \\/     M anipulation  |
\*---------------------------------------------------------------------------*/
FoamFile
{
    format      ascii;
    class       volScalarField;
    location    "10";
    object      p;
}
// * * * * * * * * * * * * * * * * * * * * * * * * * * * * * * * * * * * * * //

dimensions      [0 2 -2 0 0 0 0];

internalField   nonuniform List<scalar> 
8000
(
-2.06955e-09
-9.47354e-07
4.60215e-05
0.000140117
0.000283452
0.000478769
0.000729009
0.0010371
0.00140508
0.00183292
0.00231681
0.00284726
0.00340703
0.0039698
0.00450108
0.00496059
0.00531151
0.00553266
0.0056269
0.00560795
-4.65698e-06
-4.74842e-06
4.47023e-05
0.000139473
0.000281622
0.000474466
0.000721269
0.00102519
0.00138858
0.00181178
0.00229163
0.00281936
0.00337846
0.00394279
0.00447664
0.00494004
0.00529238
0.00551122
0.00559934
0.00556536
-8.09204e-05
-8.37484e-05
-3.60775e-05
5.52485e-05
0.000191955
0.000377702
0.000616255
0.000911543
0.00126702
0.0016846
0.00216308
0.00269593
0.00326845
0.00385485
0.00441651
0.00490713
0.00527789
0.0054993
0.00557482
0.0055164
-0.000232898
-0.000238713
-0.000195277
-0.000110838
1.62387e-05
0.000189999
0.000414894
0.000695978
0.00103842
0.00144659
0.00192249
0.00246329
0.00305764
0.00368106
0.00429208
0.00483218
0.0052405
0.00547184
0.0055295
0.00543261
-0.000465159
-0.000473903
-0.000436828
-0.000362756
-0.00024994
-9.39414e-05
0.000110401
0.000369374
0.000690151
0.00108015
0.00154566
0.00208928
0.00270545
0.00337382
0.00405128
0.00466639
0.00513844
0.00539423
0.00543105
0.00527347
-0.000778702
-0.000790755
-0.000762357
-0.000702534
-0.000609464
-0.000478537
-0.000304173
-7.91706e-05
0.000205381
0.000559905
0.000995521
0.00152185
0.00214248
0.00284671
0.0035966
0.00431511
0.00487956
0.00519271
0.00522012
0.00497503
-0.00117121
-0.00118718
-0.00116992
-0.00112861
-0.00106168
-0.000964875
-0.000832942
-0.000658748
-0.000432842
-0.000143094
0.000225333
0.000688994
0.001263
0.00195348
0.00274189
0.00355803
0.0042713
0.00470789
0.00478743
0.00444531
-0.00163797
-0.00165852
-0.00165474
-0.00163626
-0.0016023
-0.00154989
-0.0014754
-0.00137359
-0.00123702
-0.0010553
-0.000814284
-0.000495598
-7.67752e-05
0.00046735
0.00115722
0.00198621
0.00288691
0.00364797
0.00396139
0.00360232
-0.00217236
-0.00219793
-0.00220935
-0.00221722
-0.0022224
-0.00222447
-0.00222322
-0.002218
-0.00220742
-0.00218901
-0.00215854
-0.00210905
-0.00202725
-0.00188036
-0.00158401
-0.000974538
8.34389e-05
0.00144078
0.00246613
0.00245011
-0.00276633
-0.00279689
-0.00282375
-0.00285939
-0.00290746
-0.00297153
-0.00305689
-0.00317063
-0.00332251
-0.00352628
-0.00380111
-0.00417233
-0.0046626
-0.00524819
-0.00574941
-0.00571978
-0.00457706
-0.00227497
6.47491e-05
0.00107973
-0.00341148
-0.00344613
-0.00348604
-0.00354707
-0.00363704
-0.00376498
-0.0039435
-0.00419016
-0.00453037
-0.00500213
-0.00566065
-0.00658152
-0.00783703
-0.00939513
-0.0109147
-0.0116793
-0.0103854
-0.00683674
-0.00290771
-0.000488794
-0.00410102
-0.00413744
-0.00418378
-0.00426192
-0.00438567
-0.0045706
-0.00483751
-0.00521549
-0.00574676
-0.0064975
-0.00756131
-0.00906241
-0.0110995
-0.0135847
-0.0160182
-0.0171486
-0.0153469
-0.0105763
-0.005565
-0.00196172
-0.00483324
-0.00486686
-0.00490669
-0.00498545
-0.00512556
-0.0053496
-0.00568604
-0.00617422
-0.00686586
-0.00785741
-0.00926678
-0.0112422
-0.0138631
-0.0168968
-0.0197362
-0.0209315
-0.018935
-0.0139296
-0.00828735
-0.00295454
-0.00561674
-0.00563806
-0.00564805
-0.00570023
-0.00582916
-0.00606356
-0.00643595
-0.00699187
-0.00779614
-0.00894551
-0.0105757
-0.0128345
-0.015768
-0.0190691
-0.0220381
-0.0238432
-0.0229456
-0.0186642
-0.0119249
-0.00369959
-0.00648465
-0.00647623
-0.0064171
-0.00640031
-0.00647868
-0.00668528
-0.00705133
-0.00762525
-0.00846996
-0.00967786
-0.0113864
-0.0137261
-0.0167336
-0.020135
-0.0233544
-0.0260955
-0.0268061
-0.0230559
-0.0153227
-0.00397444
-0.00750516
-0.00741961
-0.00721259
-0.00706805
-0.00705238
-0.0071919
-0.00751167
-0.00805221
-0.00886965
-0.010051
-0.0117135
-0.0139667
-0.0168436
-0.0201505
-0.0234202
-0.0262214
-0.0275859
-0.0238446
-0.0161719
-0.0021342
-0.00882768
-0.00862075
-0.00814446
-0.00777033
-0.00758829
-0.00760674
-0.0078345
-0.0082955
-0.00903456
-0.010125
-0.0116645
-0.0137299
-0.0163386
-0.0193084
-0.0222118
-0.0244144
-0.0249776
-0.0209416
-0.0130642
0.00584671
-0.0112658
-0.0101903
-0.00900033
-0.00831441
-0.00797016
-0.0078718
-0.00800074
-0.00836566
-0.00901165
-0.0099893
-0.0113901
-0.0132523
-0.0155829
-0.0181385
-0.0205063
-0.0217977
-0.0209993
-0.0145763
-0.00219645
0.0308198
-0.0131044
-0.0131978
-0.0110253
-0.00959543
-0.00880301
-0.008415
-0.0083369
-0.00853138
-0.00904264
-0.00988521
-0.0111602
-0.0128461
-0.0149767
-0.0171669
-0.0189718
-0.0188133
-0.0150014
-0.00116922
0.0265976
0.0857901
-0.0314716
-0.0145554
-0.00917302
-0.00783378
-0.00728536
-0.00699602
-0.00703332
-0.00736044
-0.00803194
-0.00899157
-0.0104047
-0.0121458
-0.0143458
-0.0163402
-0.0175959
-0.0152582
-0.00548204
0.0222187
0.0756878
0.16273
7.41437e-06
-4.32703e-06
3.89502e-05
0.000131969
0.000275284
0.000471171
0.000722465
0.00103224
0.00140283
0.00183456
0.00232408
0.00286227
0.00343193
0.004006
0.00455005
0.0050197
0.00537535
0.0055937
0.00567808
0.00564121
1.4244e-05
3.64694e-06
5.17533e-05
0.000146762
0.000289223
0.000482361
0.000729427
0.00103367
0.00139759
0.00182183
0.00230362
0.00283468
0.00339885
0.00397022
0.00451255
0.00498232
0.00533711
0.00555275
0.00563284
0.00558221
-5.56645e-05
-7.1246e-05
-2.47e-05
6.71484e-05
0.000204263
0.000390256
0.00062887
0.000924094
0.00127953
0.00169739
0.00217698
0.0027125
0.00328996
0.00388402
0.00445543
0.00495421
0.00532809
0.00554488
0.00560929
0.00552988
-0.000203754
-0.00022391
-0.00018165
-9.65845e-05
3.10011e-05
0.000205114
0.000430169
0.000711277
0.00105377
0.00146237
0.00193975
0.00248408
0.00308493
0.00371836
0.00434262
0.00489647
0.00530965
0.00553348
0.00557332
0.00544947
-0.000433824
-0.000457766
-0.000421908
-0.0003471
-0.000233577
-7.69174e-05
0.000128013
0.000387576
0.000709138
0.00110054
0.0015689
0.00211812
0.00274416
0.00342763
0.00412446
0.00476346
0.00524457
0.00548857
0.00549449
0.00529749
-0.000746337
-0.000774141
-0.000747026
-0.000686348
-0.000592294
-0.000460232
-0.000284575
-5.80084e-05
0.000228626
0.000586259
0.00102699
0.00156216
0.00219774
0.0029242
0.00370061
0.0044584
0.00505209
0.00535242
0.00532608
0.0050066
-0.00113853
-0.00117072
-0.00115485
-0.00111261
-0.00104442
-0.000945947
-0.00081189
-0.000634931
-0.000405313
-0.000110336
0.000265909
0.000741969
0.00133643
0.00206011
0.00289742
0.0037651
0.00454284
0.00500209
0.00499665
0.00448676
-0.00160549
-0.00164272
-0.00164055
-0.00162117
-0.00158578
-0.00153128
-0.00145389
-0.00134816
-0.0012063
-0.00101745
-0.000766766
-0.000435002
2.19472e-06
0.00057622
0.00131828
0.0022281
0.00332189
0.00421178
0.00441131
0.003694
-0.00214046
-0.00218331
-0.00219671
-0.0022039
-0.00220772
-0.00220752
-0.00220289
-0.00219294
-0.00217609
-0.00214992
-0.00211116
-0.00205642
-0.00198057
-0.00185428
-0.00154421
-0.000725885
0.000764345
0.00254446
0.00337387
0.00281375
-0.00273528
-0.00278393
-0.00281336
-0.00284879
-0.00289588
-0.00295788
-0.00303985
-0.00314873
-0.00329456
-0.0034926
-0.00376709
-0.00415818
-0.00472168
-0.00546318
-0.00610848
-0.00583182
-0.00392225
-0.000870564
0.0013913
0.00218116
-0.00338131
-0.00343526
-0.00347855
-0.00354009
-0.0036298
-0.00375628
-0.00393192
-0.00417436
-0.00451023
-0.0049815
-0.00565573
-0.00664116
-0.00807935
-0.0100069
-0.0120224
-0.0126794
-0.0107892
-0.00646987
-0.00198715
0.00134005
-0.00407128
-0.00412878
-0.00417947
-0.00425902
-0.00438349
-0.00456788
-0.00483269
-0.00520739
-0.00573696
-0.00649351
-0.00759154
-0.00920444
-0.011536
-0.0145989
-0.0178346
-0.0196665
-0.018051
-0.012756
-0.00659373
-0.000594779
-0.0048026
-0.00486016
-0.00490558
-0.00498663
-0.00512838
-0.00535269
-0.00568739
-0.006172
-0.00686601
-0.00786562
-0.00931693
-0.011418
-0.0144136
-0.0182038
-0.0222283
-0.0250159
-0.0241051
-0.0188902
-0.0120215
-0.00382554
-0.00558104
-0.00563004
-0.00564654
-0.00570203
-0.00583394
-0.00606962
-0.00644119
-0.00699427
-0.00779617
-0.00894943
-0.0106166
-0.0129992
-0.0162926
-0.020392
-0.0248294
-0.0286222
-0.0291314
-0.0249107
-0.0176785
-0.00730831
-0.00643638
-0.00646397
-0.00641519
-0.00640191
-0.00648313
-0.00669053
-0.00705574
-0.00762419
-0.00846366
-0.00965213
-0.0113809
-0.0138144
-0.017115
-0.0212032
-0.0256927
-0.0302391
-0.0319946
-0.0284916
-0.0215308
-0.00883071
-0.00742275
-0.00737585
-0.00717659
-0.0070413
-0.00703613
-0.00718175
-0.00750193
-0.00803527
-0.00883227
-0.00999063
-0.011644
-0.0139377
-0.0169994
-0.0207715
-0.0249352
-0.0288853
-0.0309013
-0.0274406
-0.0223647
-0.00610158
-0.00859446
-0.00852563
-0.00809862
-0.00773503
-0.00756221
-0.00758668
-0.00781258
-0.00826511
-0.00896766
-0.0100208
-0.011529
-0.0135882
-0.016277
-0.0194937
-0.0228858
-0.0256701
-0.026774
-0.0236269
-0.0192625
0.00442718
-0.0109867
-0.00989785
-0.00868923
-0.00807733
-0.00781101
-0.00776461
-0.00791768
-0.0082801
-0.00889914
-0.00983281
-0.0111865
-0.0130191
-0.0153868
-0.0181101
-0.0208331
-0.0225517
-0.0222628
-0.01708
-0.00596674
0.0323537
-0.0109057
-0.0124157
-0.0105163
-0.00928182
-0.00861974
-0.0083246
-0.00828154
-0.00846702
-0.0089434
-0.00972539
-0.0109425
-0.0125863
-0.0147526
-0.0171033
-0.0192915
-0.019721
-0.0162989
-0.00258094
0.0284327
0.0931586
-0.0292023
-0.0131532
-0.00805543
-0.00699051
-0.00668412
-0.00653722
-0.00664613
-0.00699106
-0.00765467
-0.00857956
-0.00994894
-0.0116808
-0.0139209
-0.0161409
-0.0176534
-0.0156365
-0.00550326
0.0238621
0.0852452
0.183589
2.70288e-05
9.05069e-06
5.04035e-05
0.000143258
0.00028746
0.000485129
0.00073922
0.00105315
0.00142977
0.00187
0.00237112
0.00292444
0.00351276
0.00410841
0.00467251
0.00515806
0.00552012
0.00573267
0.0058016
0.00574333
4.36154e-05
2.59716e-05
7.32646e-05
0.000168735
0.000312109
0.000506667
0.000755836
0.0010632
0.00143174
0.00186268
0.00235397
0.00289788
0.00347835
0.00406909
0.00463122
0.00511632
0.00547683
0.00568573
0.00575003
0.00567835
-1.86649e-05
-4.2892e-05
3.05369e-06
9.55739e-05
0.000233608
0.000420886
0.000661372
0.000959453
0.0013193
0.00174392
0.00223358
0.00278342
0.00338004
0.00399795
0.00459499
0.0051147
0.00549651
0.00570304
0.00574374
0.0056351
-0.000160642
-0.000190614
-0.000148888
-6.30193e-05
6.558e-05
0.000241089
0.000468201
0.000752519
0.00110011
0.00151676
0.00200657
0.00256925
0.0031956
0.00386233
0.00452423
0.00511048
0.00553672
0.00574351
0.00574314
0.00557453
-0.000386173
-0.000420655
-0.000385253
-0.000309463
-0.000194662
-3.61797e-05
0.000171478
0.000435294
0.000763586
0.00116563
0.00165064
0.0022251
0.00288729
0.00361864
0.00437584
0.0050686
0.00557405
0.00578956
0.00572309
0.00544937
-0.000695367
-0.00073424
-0.000707503
-0.000645613
-0.00054988
-0.000415327
-0.000235895
-3.48412e-06
0.000292282
0.000664236
0.00112739
0.00169726
0.00238414
0.00317869
0.00405711
0.00490724
0.00555181
0.00580549
0.00564708
0.00518244
-0.00108502
-0.00112875
-0.00111322
-0.00106957
-0.000999294
-0.000897627
-0.000758649
-0.000574094
-0.000332705
-1.94025e-05
0.000385535
0.00090661
0.00157065
0.00239798
0.00336945
0.00441606
0.00529984
0.00568208
0.0054435
0.00466357
-0.0015499
-0.00159917
-0.00159742
-0.00157657
-0.0015389
-0.00148072
-0.00139756
-0.00128288
-0.00112728
-0.000917282
-0.000634046
-0.00025208
0.000263398
0.00095993
0.00188016
0.00307857
0.00433905
0.00511102
0.00495922
0.00384722
-0.002083
-0.00213849
-0.00215256
-0.00215852
-0.00216025
-0.00215641
-0.00214586
-0.0021267
-0.00209599
-0.00204945
-0.00198175
-0.00188889
-0.00176636
-0.00156876
-0.00110617
-8.5058e-05
0.00164613
0.003387
0.00390937
0.00304867
-0.00267585
-0.00273787
-0.00276847
-0.00280329
-0.00284901
-0.00290814
-0.00298511
-0.00308622
-0.00322122
-0.00340613
-0.00366978
-0.00406925
-0.00469769
-0.00557502
-0.00631274
-0.00602014
-0.00384545
-0.0005125
0.0018032
0.00270165
-0.00331928
-0.00338751
-0.00343273
-0.00349469
-0.00358431
-0.00370949
-0.00388217
-0.00412015
-0.00445182
-0.00492496
-0.00562435
-0.00670488
-0.00839691
-0.0107924
-0.0132708
-0.0141023
-0.0117782
-0.00690318
-0.0020456
0.00187712
-0.00400497
-0.00407784
-0.00413146
-0.00421281
-0.004339
-0.00452425
-0.00478888
-0.00516345
-0.00569724
-0.00647401
-0.00764007
-0.00944509
-0.0122109
-0.0160007
-0.0200214
-0.0221357
-0.0202981
-0.0147454
-0.00797948
-0.0010892
-0.00472863
-0.0048032
-0.00485286
-0.00493728
-0.0050827
-0.00531013
-0.00564722
-0.00613509
-0.00683967
-0.00787202
-0.00942162
-0.0117961
-0.0152893
-0.0199216
-0.0248728
-0.02822
-0.0275799
-0.0224335
-0.014939
-0.00580758
-0.00549207
-0.00555985
-0.00558166
-0.00564248
-0.00578058
-0.00602182
-0.00639776
-0.00695485
-0.00776654
-0.00895343
-0.0107163
-0.0133459
-0.0171391
-0.0220343
-0.0273596
-0.0317429
-0.0325397
-0.0282533
-0.0207121
-0.00997023
-0.00631988
-0.00637071
-0.00633086
-0.00632473
-0.00641393
-0.00662834
-0.00699816
-0.0075679
-0.00840785
-0.00962917
-0.0114253
-0.0140311
-0.0177283
-0.0224316
-0.0275148
-0.032331
-0.0339089
-0.0301079
-0.0232796
-0.0111892
-0.0072536
-0.00723207
-0.00704001
-0.006916
-0.00692543
-0.00708335
-0.00741013
-0.00794269
-0.00874125
-0.00989098
-0.0115699
-0.0139737
-0.0172808
-0.0214238
-0.025887
-0.029698
-0.0311703
-0.0276022
-0.0227045
-0.00767302
-0.00828582
-0.00828789
-0.00789193
-0.0075486
-0.00739572
-0.00743663
-0.00767009
-0.00811735
-0.00883563
-0.00981643
-0.0113307
-0.0134299
-0.0162361
-0.019637
-0.023155
-0.025744
-0.026367
-0.0230081
-0.0181212
0.00359892
-0.0105952
-0.00952033
-0.00829022
-0.00770542
-0.00748836
-0.0074837
-0.00766174
-0.00802902
-0.0086355
-0.00952759
-0.010849
-0.0126768
-0.0150985
-0.0179394
-0.0207722
-0.0223952
-0.0216869
-0.0161665
-0.00462166
0.0328871
-0.009697
-0.0116403
-0.0098507
-0.00871928
-0.00814593
-0.00791487
-0.0079126
-0.00810691
-0.00856419
-0.0093065
-0.0104775
-0.012105
-0.0143173
-0.0168048
-0.0191647
-0.0196423
-0.0160722
-0.00174517
0.0307598
0.0969591
-0.0280508
-0.0121988
-0.00721806
-0.0062755
-0.00607964
-0.00600618
-0.0061464
-0.00649359
-0.0071264
-0.00801173
-0.00932505
-0.0110548
-0.0133377
-0.0157492
-0.0174459
-0.0155083
-0.00468515
0.0260601
0.0909783
0.192931
5.28195e-05
3.17218e-05
7.22342e-05
0.00016557
0.000311373
0.000511792
0.000770001
0.00108984
0.0014747
0.00192617
0.00244212
0.00301418
0.00362483
0.00424515
0.00483255
0.00533556
0.00570428
0.00591062
0.00596461
0.00588839
7.50457e-05
5.37113e-05
0.000100714
0.000196982
0.000341909
0.000538901
0.000791654
0.00110418
0.00148002
0.00192109
0.00242601
0.00298752
0.00358948
0.00420475
0.00479063
0.00529366
0.00566057
0.00586199
0.00591018
0.00582143
1.84822e-05
-1.02899e-05
3.55189e-05
0.00012898
0.000268579
0.000458219
0.000702184
0.00100536
0.00137262
0.00180783
0.00231224
0.00288187
0.00350371
0.00415118
0.00477829
0.00532127
0.00571084
0.00590525
0.00592161
0.00578917
-0.000118151
-0.000153347
-0.000111688
-2.4755e-05
0.000105524
0.000283553
0.000514414
0.000804332
0.00116025
0.00158913
0.00209656
0.00268362
0.00334164
0.00404845
0.00475204
0.00537144
0.0058079
0.00599344
0.00595269
0.00574729
-0.000339215
-0.000379384
-0.00034397
-0.000266941
-0.000150197
1.1226e-05
0.000223307
0.000493796
0.000832125
0.00124917
0.0017563
0.00236224
0.00306681
0.00385381
0.00467101
0.00541317
0.00593238
0.00610944
0.00597505
0.00564029
-0.000644758
-0.00068968
-0.00066285
-0.000599508
-0.000501471
-0.000363385
-0.0001786
6.1916e-05
0.00036992
0.000760289
0.00125094
0.00186105
0.00260487
0.00347716
0.00444112
0.00536589
0.0060273
0.00620935
0.00594289
0.00537438
-0.00103133
-0.00108145
-0.00106579
-0.00102052
-0.000947623
-0.000841878
-0.000696678
-0.000502688
-0.000247059
8.76779e-05
0.000524753
0.00109378
0.0018267
0.00273972
0.00384034
0.00499813
0.00590058
0.0061608
0.00576343
0.00481735
-0.00149344
-0.00154951
-0.00154768
-0.00152521
-0.00148484
-0.00142236
-0.00133259
-0.00120789
-0.00103728
-0.000804991
-0.000488822
-5.87306e-05
0.000525733
0.00132076
0.00237834
0.00371465
0.00501425
0.00563956
0.00526987
0.00393264
-0.00202383
-0.00208658
-0.00210083
-0.00210545
-0.0021048
-0.00209703
-0.00208036
-0.00205201
-0.00200799
-0.00194278
-0.00185044
-0.00172957
-0.00157985
-0.0013406
-0.00078404
0.000399414
0.00222562
0.00384469
0.00415355
0.00314083
-0.00261364
-0.00268349
-0.00271472
-0.00274885
-0.00279304
-0.00284938
-0.00292184
-0.00301648
-0.00314327
-0.00331978
-0.00358055
-0.00400056
-0.00470046
-0.0056583
-0.00628316
-0.0059469
-0.00377162
-0.000556449
0.00183054
0.00291603
-0.00325304
-0.00332977
-0.00337633
-0.00343858
-0.00352804
-0.00365226
-0.0038231
-0.00405902
-0.00439069
-0.00487194
-0.00560311
-0.00677498
-0.00865835
-0.0112935
-0.0139539
-0.0147578
-0.0126326
-0.00789158
-0.0026034
0.00196571
-0.00393261
-0.00401473
-0.00407054
-0.00415346
-0.00428122
-0.00446774
-0.00473361
-0.00511092
-0.00565329
-0.00645479
-0.00768539
-0.00964082
-0.0126855
-0.016823
-0.0211262
-0.0234477
-0.0220212
-0.0167651
-0.0095392
-0.00173694
-0.00464634
-0.00473111
-0.00478401
-0.0048714
-0.00502016
-0.00525093
-0.00559169
-0.00608544
-0.00680341
-0.0078688
-0.0094964
-0.0120322
-0.015843
-0.020856
-0.0261199
-0.0296941
-0.0294656
-0.0247588
-0.017093
-0.00727944
-0.00539295
-0.00547183
-0.00549781
-0.00556312
-0.00570643
-0.00595277
-0.00633356
-0.00689662
-0.00772023
-0.00893687
-0.0107693
-0.0135514
-0.0176122
-0.0228317
-0.028361
-0.032645
-0.0335262
-0.0295902
-0.0223272
-0.0114742
-0.00619307
-0.00625692
-0.00622308
-0.006223
-0.00631897
-0.0065395
-0.00691377
-0.00748644
-0.00833108
-0.00957025
-0.0114052
-0.0141224
-0.0179927
-0.0229024
-0.0280461
-0.0322132
-0.0336426
-0.0299881
-0.0239549
-0.0120605
-0.0070807
-0.00707437
-0.00688856
-0.00677269
-0.00679199
-0.00695825
-0.00728935
-0.00782072
-0.00861447
-0.00977174
-0.0114492
-0.0139025
-0.0172968
-0.0214944
-0.0257965
-0.0289503
-0.0299817
-0.0266637
-0.022773
-0.00791318
-0.00803291
-0.00806298
-0.00767833
-0.00734815
-0.0072092
-0.00726103
-0.00749887
-0.00793909
-0.00862894
-0.0096318
-0.0111092
-0.0132076
-0.0160401
-0.0194336
-0.022802
-0.0249557
-0.0251858
-0.0219782
-0.0179126
0.00388651
-0.0102512
-0.00920366
-0.0079762
-0.00740687
-0.00721159
-0.00722511
-0.00741357
-0.00777771
-0.00836788
-0.00923216
-0.0105217
-0.0123296
-0.0147555
-0.0175872
-0.0203495
-0.0217368
-0.02081
-0.0154348
-0.00426493
0.0339126
-0.00913374
-0.0111858
-0.00942002
-0.00832564
-0.0077836
-0.00757688
-0.00759252
-0.00778342
-0.00822291
-0.00893241
-0.0100702
-0.0116755
-0.0139006
-0.016412
-0.018791
-0.0192155
-0.0156609
-0.00131701
0.0316997
0.099501
-0.0274564
-0.0116347
-0.00668039
-0.00578673
-0.00563839
-0.00559821
-0.00575501
-0.00609796
-0.00671065
-0.00756245
-0.00884485
-0.0105591
-0.0128719
-0.0153394
-0.0170861
-0.0150432
-0.00392695
0.0272892
0.0932272
0.197199
8.06046e-05
5.83232e-05
9.89074e-05
0.000193326
0.000341277
0.000545068
0.000808167
0.00113484
0.00152905
0.00199295
0.00252493
0.00311683
0.00375082
0.00439567
0.00500608
0.00552591
0.00590082
0.00610146
0.00614242
0.00605173
0.000105682
8.27434e-05
0.00012999
0.000227464
0.000374506
0.000574704
0.000832062
0.00115103
0.00153571
0.00198864
0.002509
0.00308985
0.00371485
0.00435516
0.00496471
0.00548501
0.00585766
0.00605183
0.00608561
0.00598361
5.2852e-05
2.20807e-05
6.8217e-05
0.000162984
0.000304749
0.000497625
0.000746245
0.00105601
0.00143243
0.00188017
0.00240132
0.00299248
0.00364077
0.00431781
0.00497362
0.00553758
0.00593288
0.00611509
0.0061099
0.00595943
-7.97945e-05
-0.00011731
-7.5258e-05
1.3101e-05
0.000145694
0.000327174
0.000563037
0.000860117
0.00122618
0.00166925
0.00219606
0.00280875
0.00349951
0.00424357
0.00498437
0.00563083
0.00607231
0.00623621
0.00616097
0.00592849
-0.00029718
-0.000339898
-0.000304015
-0.000225394
-0.000106082
5.91939e-05
0.000276907
0.000555545
0.000905563
0.0013392
0.00186949
0.00250671
0.00325102
0.00408718
0.0049537
0.00573108
0.00625206
0.0063906
0.00620246
0.00582493
-0.000599466
-0.000647125
-0.000619753
-0.000554641
-0.000453732
-0.000311309
-0.000120141
0.000129664
0.000451069
0.000860624
0.00137848
0.00202558
0.00281562
0.00375166
0.00477884
0.005748
0.00640218
0.00651707
0.00617382
0.00553774
-0.000983123
-0.00103617
-0.00101994
-0.000972785
-0.000896803
-0.000786355
-0.000634206
-0.000430095
-0.000159877
0.000195672
0.000662057
0.00127173
0.00205983
0.00303923
0.00420929
0.00541859
0.00630029
0.0064591
0.00596162
0.00491719
-0.00144251
-0.00150174
-0.00149942
-0.00147512
-0.00143168
-0.0013645
-0.00126778
-0.00113304
-0.00094821
-0.000696227
-0.000353609
0.000110708
0.000735627
0.00156879
0.00268946
0.00407197
0.00534001
0.00585985
0.00538906
0.00393696
-0.00197015
-0.00203635
-0.00205033
-0.00205343
-0.00205013
-0.00203824
-0.0020155
-0.00197863
-0.00192325
-0.00184394
-0.0017368
-0.0016074
-0.00146447
-0.00124183
-0.000703104
0.000481354
0.00225483
0.00381559
0.00413949
0.00311108
-0.00255679
-0.00263043
-0.00266181
-0.00269502
-0.00273743
-0.00279087
-0.00285918
-0.00294852
-0.00306976
-0.00324328
-0.00351128
-0.00396725
-0.00475352
-0.0058366
-0.00663861
-0.00634023
-0.00429162
-0.00106482
0.00158099
0.00293443
-0.003192
-0.00327291
-0.00332019
-0.00338241
-0.00347134
-0.00359442
-0.00376377
-0.00399874
-0.00433264
-0.00482547
-0.00559135
-0.00684751
-0.0088899
-0.0117264
-0.0145024
-0.0156111
-0.0138175
-0.00915227
-0.00338671
0.00178437
-0.0038654
-0.00395213
-0.00400934
-0.00409327
-0.00422191
-0.0044092
-0.00467623
-0.00505666
-0.00560796
-0.00643264
-0.00771741
-0.00978598
-0.0130238
-0.0173919
-0.0218955
-0.0244998
-0.0235722
-0.0185839
-0.0109429
-0.00247224
-0.00456963
-0.00465948
-0.00471453
-0.00480398
-0.00495493
-0.00518798
-0.00553161
-0.00603042
-0.0067596
-0.00785059
-0.00953315
-0.0121756
-0.0161584
-0.021347
-0.0267048
-0.0303832
-0.0305491
-0.0262184
-0.0184911
-0.00835244
-0.00530139
-0.00538586
-0.00541472
-0.00548308
-0.00562967
-0.00587915
-0.00626304
-0.00683022
-0.0076619
-0.00889684
-0.0107682
-0.0136275
-0.0177964
-0.0230913
-0.0285451
-0.0325891
-0.0334908
-0.0298921
-0.0229353
-0.0122582
-0.0060791
-0.00614944
-0.0061193
-0.00612324
-0.00622335
-0.00644727
-0.00682356
-0.00739698
-0.00824269
-0.00948744
-0.0113373
-0.0140914
-0.018001
-0.0228781
-0.0278158
-0.0315337
-0.032516
-0.029222
-0.023749
-0.0123088
-0.00693252
-0.00693479
-0.00675411
-0.00664359
-0.00666813
-0.00683802
-0.00716972
-0.00769764
-0.00848422
-0.00963405
-0.011306
-0.0137575
-0.0171392
-0.0212474
-0.0252844
-0.0279355
-0.0286085
-0.0255299
-0.0221407
-0.00775906
-0.00784338
-0.0078835
-0.00750321
-0.00718038
-0.00704869
-0.007105
-0.00734275
-0.00777568
-0.00845019
-0.00944147
-0.0108938
-0.0129705
-0.0157727
-0.0190872
-0.0222741
-0.0241049
-0.0240844
-0.0209738
-0.0172954
0.00437241
-0.00998992
-0.00896989
-0.00775442
-0.00719612
-0.00700919
-0.00702729
-0.00721708
-0.00757255
-0.00814494
-0.0089877
-0.0102475
-0.0120262
-0.0144209
-0.0172075
-0.0198738
-0.0210853
-0.020043
-0.0147848
-0.00378902
0.0349942
-0.00884996
-0.0109261
-0.00916587
-0.00808322
-0.00754754
-0.00734102
-0.00736774
-0.00754517
-0.00796709
-0.00865032
-0.00976122
-0.0113395
-0.0135487
-0.0160343
-0.0183758
-0.0187292
-0.0151371
-0.000806195
0.0324949
0.101337
-0.0271451
-0.0113234
-0.00636498
-0.00548812
-0.00535808
-0.00532939
-0.00549257
-0.0058288
-0.00642723
-0.00725531
-0.00851578
-0.0102094
-0.0125151
-0.0149654
-0.0166698
-0.0145227
-0.00327542
0.0281294
0.0946142
0.199629
0.000107522
8.50143e-05
0.00012619
0.000222053
0.000372449
0.000579898
0.000848172
0.00118194
0.00158565
0.00206194
0.00260958
0.00322048
0.00387625
0.00454396
0.00517526
0.00571003
0.00609026
0.00628589
0.00631588
0.00621346
0.000133989
0.000110525
0.000158383
0.000257344
0.000406825
0.000610618
0.000873027
0.00119891
0.00159283
0.00205787
0.00259361
0.00319324
0.00384021
0.00450364
0.00513455
0.00566997
0.00604726
0.00623482
0.00625625
0.00614376
8.35134e-05
5.20599e-05
9.88603e-05
0.000195197
0.000339485
0.000536052
0.000789862
0.00110676
0.00149284
0.00195338
0.00249107
0.00310286
0.00377577
0.00447944
0.00516021
0.00574152
0.00614051
0.00631134
0.00628781
0.00612357
-4.63152e-05
-8.4629e-05
-4.18471e-05
4.8201e-05
0.00018348
0.00036889
0.000610308
0.000915097
0.00129171
0.00174899
0.00229449
0.00293096
0.00365089
0.00442716
0.00519852
0.00586546
0.00630817
0.00645181
0.00634786
0.00609561
-0.000260871
-0.00030447
-0.00026778
-0.000187319
-6.50852e-05
0.000104479
0.000328292
0.000615463
0.000977265
0.00142695
0.00197868
0.00264362
0.00342223
0.00429755
0.00520161
0.00600267
0.00651903
0.00662212
0.00639053
0.00598371
-0.00056048
-0.00060909
-0.000580845
-0.000513748
-0.000409678
-0.00026259
-6.47607e-05
0.000194396
0.000528753
0.000956011
0.00149769
0.00217547
0.00300075
0.00398446
0.0050553
0.00604963
0.00668756
0.00674332
0.00633982
0.00566195
-0.000941631
-0.000995715
-0.000978595
-0.000929381
-0.000850106
-0.000734783
-0.000575671
-0.00036182
-7.82191e-05
0.000295407
0.000785706
0.00142596
0.0022518
0.00327105
0.00447935
0.00570863
0.00655896
0.00663644
0.00606409
0.00496866
-0.00139861
-0.00145898
-0.00145585
-0.00142958
-0.00138296
-0.00131106
-0.00120764
-0.00106372
-0.000866679
-0.000599146
-0.000237983
0.000246316
0.000888082
0.00172558
0.00285466
0.00423235
0.00546083
0.00591823
0.00538573
0.00388929
-0.00192376
-0.00199124
-0.00200462
-0.00200606
-0.00200003
-0.00198409
-0.00195575
-0.0019116
-0.00184749
-0.00175926
-0.00164676
-0.00152486
-0.00141579
-0.00125711
-0.000804841
0.00030304
0.00203073
0.00362557
0.00399506
0.00302218
-0.00250751
-0.00258261
-0.00261373
-0.00264584
-0.00268633
-0.00273695
-0.00280158
-0.00288687
-0.00300525
-0.00318087
-0.0034648
-0.00396973
-0.00486568
-0.00612604
-0.00714325
-0.00703124
-0.00508161
-0.00172631
0.00122436
0.00287136
-0.00313892
-0.0032215
-0.00326899
-0.00333084
-0.00341892
-0.00354075
-0.00370882
-0.00394372
-0.00428167
-0.00478928
-0.00559436
-0.00694
-0.00915572
-0.0122555
-0.015344
-0.0167454
-0.0151485
-0.0103659
-0.00413046
0.00155212
-0.0038069
-0.00389549
-0.00395344
-0.00403783
-0.00416674
-0.00435428
-0.00462219
-0.00500573
-0.00556615
-0.00641381
-0.00775041
-0.00992496
-0.0133494
-0.0179725
-0.0227405
-0.0256088
-0.024941
-0.0199829
-0.0120225
-0.00308084
-0.00450312
-0.00459504
-0.00465137
-0.00474204
-0.00489419
-0.00512851
-0.00547406
-0.00597698
-0.00671582
-0.00782882
-0.00955781
-0.0122885
-0.0164102
-0.0217518
-0.027197
-0.0308897
-0.0311854
-0.0270021
-0.0193137
-0.00904773
-0.00522318
-0.00530997
-0.00534065
-0.00541086
-0.00555921
-0.00581024
-0.0061957
-0.00676538
-0.00760264
-0.00885067
-0.0107498
-0.0136582
-0.0178893
-0.0232099
-0.0285606
-0.0323268
-0.0331188
-0.0296741
-0.0230426
-0.0125866
-0.00598443
-0.00605753
-0.00602961
-0.00603596
-0.00613821
-0.00636342
-0.00673987
-0.00731244
-0.00815714
-0.00940278
-0.0112577
-0.014021
-0.0179278
-0.0227391
-0.0274598
-0.0307557
-0.031419
-0.0283094
-0.0232686
-0.0122015
-0.0068147
-0.00682127
-0.00664437
-0.00653717
-0.00656406
-0.00673465
-0.00706466
-0.00758796
-0.00836699
-0.00950716
-0.0111653
-0.0135999
-0.0169426
-0.020949
-0.0247655
-0.0270397
-0.0274297
-0.0244756
-0.0213486
-0.00736603
-0.0077045
-0.00774754
-0.00736943
-0.00705061
-0.00692217
-0.00697919
-0.00721383
-0.00763937
-0.00830159
-0.00927671
-0.0107062
-0.0127541
-0.0155117
-0.01874
-0.0217776
-0.0233749
-0.023146
-0.0200527
-0.0165762
0.00498538
-0.00980568
-0.00880392
-0.00759963
-0.00704905
-0.00686548
-0.0068837
-0.00706775
-0.00741449
-0.00797251
-0.00879537
-0.0100303
-0.011779
-0.014138
-0.016859
-0.01943
-0.0205015
-0.0193445
-0.0141049
-0.00317598
0.0359474
-0.008693
-0.0107683
-0.00901015
-0.00793103
-0.00739583
-0.00719131
-0.0072015
-0.00737385
-0.00778215
-0.00844509
-0.00953395
-0.0110843
-0.0132632
-0.0156996
-0.0179735
-0.0182351
-0.0145433
-0.000177473
0.0332849
0.102689
-0.0269739
-0.011149
-0.00618162
-0.00530839
-0.00518403
-0.00515742
-0.00531781
-0.00564776
-0.00623569
-0.00704668
-0.00828917
-0.00995907
-0.0122366
-0.0146383
-0.0162692
-0.0140207
-0.00266198
0.0289076
0.0956915
0.20121
0.00013146
0.0001091
0.000151066
0.000248462
0.000401295
0.000612289
0.000885487
0.0012259
0.00163836
0.0021259
0.00268753
0.00331513
0.00398982
0.00467706
0.00532597
0.0058731
0.00625755
0.00644893
0.00646999
0.00635822
0.000158626
0.000135097
0.000183719
0.000284231
0.000436157
0.000643479
0.000910762
0.00124319
0.00164574
0.00212185
0.00267139
0.00328754
0.00395357
0.00463673
0.00528551
0.00583326
0.00621403
0.00639583
0.00640714
0.00628638
0.000109644
7.80634e-05
0.000125668
0.000223627
0.000370449
0.00057066
0.000829503
0.00115319
0.00154824
0.00202043
0.00257284
0.00320255
0.00389645
0.00462232
0.00532336
0.00591821
0.0063193
0.00648008
0.00644154
0.00626684
-1.82344e-05
-5.67057e-05
-1.30597e-05
7.87179e-05
0.000216686
0.00040596
0.000652732
0.000964783
0.00135109
0.00182108
0.00238287
0.00303954
0.00378354
0.0045857
0.00538088
0.00606284
0.0065046
0.00663025
0.00650292
0.00623639
-0.000230696
-0.00027447
-0.000236847
-0.000154529
-2.94104e-05
0.000144309
0.0003739
0.000668948
0.00104132
0.00150498
0.00207476
0.00276244
0.00356849
0.00447366
0.00540556
0.00622268
0.00673192
0.00680349
0.00653662
0.00610998
-0.000528222
-0.000577022
-0.00054779
-0.000478725
-0.000371594
-0.000220088
-1.61043e-05
0.000251445
0.00059705
0.00103913
0.00159997
0.00230196
0.00315732
0.00417126
0.00527254
0.00628264
0.00690257
0.00690576
0.0064529
0.00575023
-0.000907355
-0.000961656
-0.00094354
-0.000892325
-0.000809928
-0.000690099
-0.00052474
-0.000302453
-7.73565e-06
0.000380196
0.000888423
0.00154955
0.00239508
0.00343978
0.00467535
0.0059156
0.00673461
0.00673891
0.00610552
0.00498872
-0.00136236
-0.00142298
-0.00141893
-0.00139077
-0.00134118
-0.00126502
-0.00115579
-0.00100424
-0.000797674
-0.000518964
-0.000146105
0.000347615
0.000990798
0.00180669