/*--------------------------------*- C++ -*----------------------------------*\
  =========                 |
  \\      /  F ield         | OpenFOAM: The Open Source CFD Toolbox
   \\    /   O peration     | Website:  https://openfoam.org
    \\  /    A nd           | Version:  10
     \\/     M anipulation  |
\*---------------------------------------------------------------------------*/
FoamFile
{
    format      ascii;
    class       surfaceScalarField;
    location    "10";
    object      phi;
}
// * * * * * * * * * * * * * * * * * * * * * * * * * * * * * * * * * * * * * //

dimensions      [0 3 -1 0 0 0 0];

internalField   nonuniform List<scalar> 
22800
(
-2.92222e-06
3.97242e-06
-1.05014e-06
-9.39912e-06
7.24698e-06
-7.70078e-07
-1.72793e-05
8.38344e-06
-5.03298e-07
-2.57167e-05
8.84496e-06
-4.07557e-07
-3.44649e-05
9.18148e-06
-4.33252e-07
-4.3435e-05
9.52487e-06
-5.54681e-07
-5.25208e-05
9.85982e-06
-7.7406e-07
-6.15144e-05
1.01102e-05
-1.11661e-06
-7.00575e-05
1.01655e-05
-1.62234e-06
-7.76059e-05
9.88758e-06
-2.33916e-06
-8.34132e-05
9.12125e-06
-3.31398e-06
-8.65558e-05
7.71963e-06
-4.57698e-06
-8.60319e-05
5.59388e-06
-6.11777e-06
-8.09647e-05
2.78594e-06
-7.8532e-06
-7.08862e-05
-4.82603e-07
-9.59586e-06
-5.61856e-05
-3.68442e-06
-1.10162e-05
-3.84114e-05
-6.0458e-06
-1.17285e-05
-2.0319e-05
-6.71375e-06
-1.13786e-05
-5.80046e-06
-4.91912e-06
-9.59941e-06
-5.62489e-07
-5.23794e-06
-5.96503e-06
1.26172e-05
-2.6798e-06
-1.71236e-05
2.12613e-05
-2.85578e-06
-3.03926e-05
2.435e-05
-2.69748e-06
-4.4562e-05
2.56503e-05
-2.6359e-06
-5.91807e-05
2.64759e-05
-2.67556e-06
-7.40237e-05
2.71887e-05
-2.82079e-06
-8.88545e-05
2.77783e-05
-3.08767e-06
-0.000103301
2.80715e-05
-3.51519e-06
-0.000116777
2.78021e-05
-4.16005e-06
-0.000128436
2.66367e-05
-5.09038e-06
-0.000137143
2.42032e-05
-6.37477e-06
-0.000141519
2.0155e-05
-8.05956e-06
-0.000140079
1.42912e-05
-1.01369e-05
-0.000131538
6.74912e-06
-1.25049e-05
-0.000115252
-1.86714e-06
-1.49007e-05
-9.1702e-05
-1.04445e-05
-1.67904e-05
-6.32923e-05
-1.68099e-05
-1.76456e-05
-3.42457e-05
-1.88423e-05
-1.6918e-05
-1.04687e-05
-1.47464e-05
-1.39496e-05
-4.10126e-06
-6.92975e-06
-7.11979e-06
2.343e-05
-3.69291e-06
-2.01388e-05
3.85053e-05
-4.22502e-06
-3.54513e-05
4.38357e-05
-4.17311e-06
-5.17274e-05
4.60672e-05
-4.14084e-06
-6.84868e-05
4.74041e-05
-4.16877e-06
-8.54882e-05
4.84777e-05
-4.2877e-06
-0.000102483
4.93024e-05
-4.52896e-06
-0.000119085
4.962e-05
-4.94708e-06
-0.000134679
4.9015e-05
-5.61854e-06
-0.000148356
4.69523e-05
-6.63824e-06
-0.000158862
4.28189e-05
-8.1103e-06
-0.000164601
3.60174e-05
-1.01235e-05
-0.000163757
2.61528e-05
-1.27052e-05
-0.000154606
1.33514e-05
-1.57536e-05
-0.000136085
-1.44078e-06
-1.89471e-05
-0.000108454
-1.65383e-05
-2.15374e-05
-7.44817e-05
-2.80746e-05
-2.27074e-05
-3.95719e-05
-3.21506e-05
-2.16015e-05
-1.1457e-05
-2.54847e-05
-1.73767e-05
-7.4065e-06
-8.15172e-06
-7.37782e-06
3.51938e-05
-4.38599e-06
-2.09973e-05
5.72989e-05
-5.1741e-06
-3.69969e-05
6.50302e-05
-5.19486e-06
-5.40034e-05
6.82543e-05
-5.18056e-06
-7.15711e-05
7.01802e-05
-5.20838e-06
-8.95141e-05
7.17511e-05
-5.33035e-06
-0.000107653
7.30341e-05
-5.59278e-06
-0.000125679
7.37149e-05
-6.06928e-06
-0.000143052
7.32528e-05
-6.86463e-06
-0.000158903
7.09198e-05
-8.11609e-06
-0.00017193
6.58335e-05
-9.98734e-06
-0.000180329
5.70562e-05
-1.26406e-05
-0.000181828
4.38199e-05
-1.61675e-05
-0.000173972
2.59527e-05
-2.04575e-05
-0.000154971
4.89127e-06
-2.53327e-05
-0.000124148
-1.79663e-05
-2.93949e-05
-8.45694e-05
-3.63037e-05
-3.13498e-05
-4.33072e-05
-4.3722e-05
-2.96907e-05
-1.10449e-05
-3.44649e-05
-2.32821e-05
-7.96617e-06
-1.04852e-05
-7.22015e-06
4.73022e-05
-4.88829e-06
-2.08074e-05
7.67914e-05
-5.90519e-06
-3.68516e-05
8.70694e-05
-5.99502e-06
-5.39829e-05
9.13943e-05
-6.00868e-06
-7.18156e-05
9.40785e-05
-6.06567e-06
-9.02569e-05
9.64333e-05
-6.24088e-06
-0.00010925
9.86273e-05
-6.59997e-06
-0.000128634
0.000100342
-7.24308e-06
-0.000148027
0.000100962
-8.31592e-06
-0.000166693
9.9605e-05
-1.00197e-05
-0.000183362
9.51177e-05
-1.26144e-05
-0.000196053
8.61403e-05
-1.63934e-05
-0.000201952
7.13261e-05
-2.1607e-05
-0.000197537
4.98577e-05
-2.83206e-05
-0.000179256
2.24936e-05
-3.58827e-05
-0.000145772
-8.37071e-06
-4.30804e-05
-9.90821e-05
-3.61737e-05
-4.68195e-05
-4.8614e-05
-4.98555e-05
-4.43346e-05
-1.00956e-05
-3.91521e-05
-3.38311e-05
-3.60033e-06
-1.44615e-05
-6.82657e-06
5.94096e-05
-5.28076e-06
-2.00188e-05
9.64972e-05
-6.51346e-06
-3.57367e-05
0.000109461
-6.67341e-06
-5.26355e-05
0.00011502
-6.72655e-06
-7.03972e-05
0.000118679
-6.83914e-06
-8.90435e-05
0.000122192
-7.11264e-06
-0.000108678
0.000125901
-7.6388e-06
-0.000129349
0.000129567
-8.55484e-06
-0.000150923
0.000132601
-1.00652e-05
-0.000172919
0.000134068
-1.24669e-05
-0.000194259
0.000132631
-1.61735e-05
-0.000212927
0.00012652
-2.17111e-05
-0.000225618
0.000113642
-2.96249e-05
-0.000227569
9.20115e-05
-4.02025e-05
-0.000213046
6.07907e-05
-5.282e-05
-0.000178337
2.26139e-05
-6.56936e-05
-0.000123359
-1.7955e-05
-7.31962e-05
-5.92119e-05
-4.42647e-05
-6.9738e-05
-9.67103e-06
-3.6603e-05
-5.20901e-05
7.35481e-06
-2.06261e-05
-6.25729e-06
7.1292e-05
-5.62512e-06
-1.8788e-05
0.000116102
-7.07398e-06
-3.38809e-05
0.000131857
-7.30319e-06
-5.02135e-05
0.00013875
-7.3977e-06
-6.7529e-05
0.00014357
-7.5754e-06
-8.59674e-05
0.0001486
-7.96947e-06
-0.000105815
0.000154454
-8.70567e-06
-0.000127373
0.000161096
-9.97067e-06
-0.000150849
0.000168126
-1.20494e-05
-0.000176175
0.000174771
-1.53759e-05
-0.000202714
0.000179766
-2.05966e-05
-0.000228782
0.000181198
-2.861e-05
-0.000251024
0.000176361
-4.04773e-05
-0.000263753
0.000161723
-5.69817e-05
-0.000258933
0.000133418
-7.74485e-05
-0.000227284
8.92837e-05
-9.83184e-05
-0.000166363
3.35885e-05
-0.000112464
-8.37544e-05
-1.79788e-05
-0.000108894
-1.36141e-05
-2.51847e-05
-8.15586e-05
2.31345e-05
-2.93938e-05
-5.53561e-06
8.27888e-05
-5.96123e-06
-1.71698e-05
0.000135374
-7.6374e-06
-3.13344e-05
0.00015395
-7.92847e-06
-4.67036e-05
0.000162169
-8.04971e-06
-6.30567e-05
0.0001682
-8.2771e-06
-8.06338e-05
0.000174958
-8.78123e-06
-9.98932e-05
0.000183442
-9.7291e-06
-0.000121404
0.000193974
-1.13679e-05
-0.000145765
0.00020657
-1.4083e-05
-0.000173467
0.000220957
-1.84841e-05
-0.000204611
0.000236432
-2.55213e-05
-0.000238421
0.00025158
-3.6573e-05
-0.000272446
0.00026371
-5.33237e-05
-0.000301374
0.000267649
-7.69986e-05
-0.000315611
0.000253946
-0.00010629
-0.000301704
0.000209387
-0.000134011
-0.000243029
0.000128309
-0.000153396
-0.000140775
3.34427e-05
-0.000153676
-3.2469e-05
-1.20752e-05
-0.000121415
3.45206e-05
-4.38551e-05
-4.69922e-06
9.38057e-05
-6.31766e-06
-1.52405e-05
0.000154155
-8.24034e-06
-2.81672e-05
0.000175453
-8.57622e-06
-4.21001e-05
0.000184791
-8.68963e-06
-5.68119e-05
0.000191834
-8.9221e-06
-7.25968e-05
0.00020023
-9.48661e-06
-9.00305e-05
0.000211471
-1.05952e-05
-0.000109888
0.000226391
-1.25591e-05
-0.000133117
0.000245667
-1.58681e-05
-0.000160784
0.000269934
-2.13098e-05
-0.000193938
0.000299699
-3.01138e-05
-0.00023334
0.000334953
-4.39707e-05
-0.000278972
0.000373872
-6.45292e-05
-0.000328851
0.000409327
-9.17992e-05
-0.000375872
0.000422831
-0.000121864
-0.000401408
0.000382633
-0.00014771
-0.000372796
0.000262927
-0.000163229
-0.000259146
8.94121e-05
-0.00016962
-9.0803e-05
-2.77073e-05
-0.000152711
1.67042e-05
-7.29867e-05
-3.83903e-06
0.000104372
-6.72699e-06
-1.31897e-05
0.000172429
-8.92357e-06
-2.46098e-05
0.000196149
-9.2765e-06
-3.65964e-05
0.000206105
-9.32712e-06
-4.88625e-05
0.00021359
-9.49e-06
-6.16861e-05
0.000223077
-1.00234e-05
-7.56518e-05
0.000236619
-1.11819e-05
-9.15824e-05
0.000255649
-1.3328e-05
-0.000110567
0.000281673
-1.70215e-05
-0.000134023
0.000316521
-2.31301e-05
-0.000163846
0.000362386
-3.28641e-05
-0.000202788
0.000421193
-4.72983e-05
-0.00025517
0.000491911
-6.56564e-05
-0.000326577
0.000563477
-8.27427e-05
-0.00041803
0.000604114
-8.98298e-05
-0.00051008
0.000560457
-8.57742e-05
-0.000547555
0.000380581
-8.01791e-05
-0.000451668
8.91597e-05
-9.56339e-05
-0.000213752
-0.000130586
-0.000135038
-7.42167e-05
-0.000122831
-3.1357e-06
0.00011475
-7.24245e-06
-1.14007e-05
0.000190446
-9.75161e-06
-2.11683e-05
0.000216
-1.00829e-05
-3.07327e-05
0.000225667
-9.99747e-06
-3.97081e-05
0.000232556
-9.98991e-06
-4.82841e-05
0.000242017
-1.03642e-05
-5.69083e-05
0.00025665
-1.14063e-05
-6.62007e-05
0.000278437
-1.34955e-05
-7.70173e-05
0.000309659
-1.71703e-05
-9.06215e-05
0.000353252
-2.31265e-05
-0.000109282
0.000412907
-3.18611e-05
-0.000137851
0.000491809
-4.20466e-05
-0.000186835
0.000587854
-4.69588e-05
-0.000273995
0.000683371
-3.27347e-05
-0.00041227
0.000733968
8.4206e-06
-0.000591626
0.00066143
7.83833e-05
-0.000729754
0.000391974
0.000126735
-0.00067058
-6.04108e-05
9.03967e-05
-0.000371373
-0.000407228
-2.25656e-05
-0.000303865
-0.000141724
-2.90773e-06
0.000125621
-7.96355e-06
-1.05417e-05
0.000208926
-1.08457e-05
-1.87296e-05
0.000235298
-1.11099e-05
-2.55074e-05
0.000243245
-1.08001e-05
-3.0417e-05
0.000247967
-1.05012e-05
-3.3531e-05
0.000255697
-1.05657e-05
-3.50281e-05
0.000269443
-1.12965e-05
-3.50463e-05
0.000291494
-1.30389e-05
-3.37898e-05
0.000324588
-1.61846e-05
-3.17141e-05
0.000372088
-2.09118e-05
-3.09394e-05
0.000438362
-2.62294e-05
-3.84045e-05
0.000526157
-2.68824e-05
-7.20765e-05
0.000630198
-8.67275e-06
-0.000165052
0.000725543
5.0804e-05
-0.000357079
0.000759653
0.000166342
-0.000649821
0.000641024
0.000313147
-0.00090426
0.000241329
0.000405083
-0.000858743
-0.000444219
0.000338292
-0.000496976
-0.000919537
0.000150542
-0.00073494
-6.59018e-05
-3.68232e-06
0.000138372
-9.06883e-06
-1.1684e-05
0.000229317
-1.23893e-05
-1.86702e-05
0.000254799
-1.25151e-05
-2.24522e-05
0.000258913
-1.18865e-05
-2.26753e-05
0.000259371
-1.11814e-05
-1.93762e-05
0.000263197
-1.07992e-05
-1.24221e-05
0.000273545
-1.1056e-05
-1.11874e-06
0.000292403
-1.22122e-05
1.51939e-05
0.000322723
-1.44483e-05
3.66519e-05
0.000367774
-1.71447e-05
6.18589e-05
0.000430926
-1.77709e-05
8.15774e-05
0.000513786
-7.34764e-06
6.76622e-05
0.000608728
3.53859e-05
-3.40686e-05
0.000687843
0.000139431
-0.000290141
0.000698954
0.000316772
-0.000710473
0.000535397
0.000525959
-0.0010547
-4.7712e-05
0.000633265
-0.00101162
-0.00100379
0.000516493
-0.00062244
-0.00157994
0.000271231
-0.00136856
1.11807e-05
-6.40852e-06
0.00015574
-1.09589e-05
-1.65553e-05
0.000254377
-1.4914e-05
-2.2968e-05
0.000276078
-1.48661e-05
-2.35916e-05
0.000273311
-1.37742e-05
-1.86533e-05
0.00026691
-1.24772e-05
-8.37629e-06
0.000264402
-1.14818e-05
7.75636e-06
0.000268559
-1.11463e-05
3.0319e-05
0.000281275
-1.14339e-05
6.12898e-05
0.000304356
-1.26036e-05
0.000102438
0.000340174
-1.35476e-05
0.000152806
0.000391067
-1.05097e-05
0.000202143
0.000456909
7.54092e-06
0.000215108
0.00053057
6.51924e-05
0.000116092
0.000591081
0.000195777
-0.000187768
0.000591517
0.000411297
-0.000678573
0.000383942
0.00064226
-0.00106246
-0.000378533
0.000714706
-0.0011029
-0.00147326
0.000509912
-0.00074644
-0.00218557
0.00024916
-0.0020928
-2.22016e-05
-1.26166e-05
0.000182487
-1.41305e-05
-2.78152e-05
0.00028821
-1.86341e-05
-3.45214e-05
0.000300818
-1.80343e-05
-3.16266e-05
0.000286842
-1.64255e-05
-2.096e-05
0.000270792
-1.45481e-05
-3.48489e-06
0.000259842
-1.29155e-05
2.11429e-05
0.00025583
-1.18987e-05
5.44844e-05
0.000259523
-1.15898e-05
9.89571e-05
0.000271868
-1.19845e-05
0.000157248
0.00029402
-1.21375e-05
0.000229343
0.000326911
-7.93856e-06
0.00030595
0.00036888
1.14219e-05
0.000353636
0.000413787
6.90969e-05
0.000297513
0.000448341
0.000198863
3.71947e-05
0.000439765
0.00041207
-0.000393746
0.000194416
0.000620467
-0.000823718
-0.000582015
0.000633454
-0.00102449
-0.001681
0.000408512
-0.000782642
-0.00260979
0.000182369
-0.00275647
-0.000118969
-2.60267e-05
0.000228917
-2.0404e-05
-5.04904e-05
0.000339289
-2.66148e-05
-5.67676e-05
0.000333139
-2.60436e-05
-4.86495e-05
0.000301923
-2.31992e-05
-3.12229e-05
0.000273115
-1.97501e-05
-6.37324e-06
0.000251744
-1.67519e-05
2.63065e-05
0.000237877
-1.47276e-05
6.86932e-05
0.000230913
-1.37763e-05
0.000123728
0.00023082
-1.39874e-05
0.00019472
0.000237545
-1.45172e-05
0.000282277
0.000250898
-1.15442e-05
0.000379826
0.000267878
3.45203e-06
0.000463216
0.00028305
4.73482e-05
0.000478581
0.000283694
0.000149282
0.000344866
0.000251188
0.000322292
1.29871e-06
4.59635e-05
0.000492019
-0.000440831
-0.000628223
0.000488338
-0.000783993
-0.00166
0.000322165
-0.000726256
-0.00279989
0.000132366
-0.0032466
-0.000236133
-4.92214e-05
0.000314399
-3.62606e-05
-9.18201e-05
0.000420777
-3.88892e-05
-9.70755e-05
0.000371912
-3.35174e-05
-7.9127e-05
0.000313675
-2.97005e-05
-5.08423e-05
0.000270394
-2.55633e-05
-1.59526e-05
0.000238515
-2.1661e-05
2.6088e-05
0.000214764
-1.89277e-05
7.75121e-05
0.000197188
-1.76994e-05
0.000141334
0.0001855
-1.85021e-05
0.00022109
0.000178272
-2.04823e-05
0.000317249
0.000175606
-2.08667e-05
0.000425829
0.000173118
-1.38205e-05
0.00052906
0.000167913
1.19056e-05
0.000592819
0.000145557
7.43784e-05
0.0005588
9.71276e-05
0.000188079
0.000351242
-5.72205e-05
0.000310742
-6.93228e-05
-0.000537116
0.000329458
-0.000503839
-0.00147777
0.000252281
-0.000635159
-0.00274039
7.1826e-05
-0.00351582
-0.000365932
-0.000108982
0.000466918
-4.35363e-05
-0.000164592
0.000538113
-6.17255e-05
-0.000147511
0.000420472
-6.5641e-05
-0.000104288
0.000328093
-5.76409e-05
-5.13944e-05
0.000263887
-4.63869e-05
7.41239e-06
0.000216682
-3.69735e-05
7.17342e-05
0.000181361
-3.0918e-05
0.00014333
0.000153878
-2.8286e-05
0.000223507
0.000134326
-2.90034e-05
0.000315935
0.00011848
-3.2635e-05
0.000420131
0.000108267
-3.68569e-05
0.000534747
9.65382e-05
-3.80364e-05
0.000645011
8.59293e-05
-2.82804e-05
0.000728251
6.03832e-05
1.9339e-06
0.000742374
1.80065e-05
6.49982e-05
0.00063073
-9.57503e-05
0.000150174
0.000314598
-0.000408626
0.000187642
-0.000164636
-0.00117939
0.000180854
-0.00044844
-0.00244114
-1.54467e-05
-0.00345328
-0.000510979
-0.000454366
0.0010929
-0.000171618
-0.000338716
0.000549791
-0.000127328
-0.000113077
0.00030516
-0.000110327
9.00386e-05
0.000216311
-9.13343e-05
0.000265794
0.000162567
-7.44358e-05
0.000421878
0.000121834
-6.1235e-05
0.000563047
9.27657e-05
-5.25743e-05
0.000694315
7.09682e-05
-4.83579e-05
0.000818634
5.71915e-05
-4.71837e-05
0.000941751
4.54932e-05
-5.01308e-05
0.0010648
3.98537e-05
-5.46367e-05
0.00119005
3.23958e-05
-6.11078e-05
0.00130768
2.97463e-05
-6.14442e-05
0.0014038
1.80402e-05
-5.37813e-05
0.00144948
8.67707e-07
-2.85415e-05
0.00141815
-7.56322e-05
1.12118e-05
0.00123744
-0.00028618
5.82647e-05
0.000803123
-0.000816473
7.14036e-05
0.0002238
-0.00176814
-9.36798e-05
-0.00257988
-0.0006496
0.00126527
-0.000172371
0.00198046
-0.000165401
0.00244195
-0.000156327
0.00280195
-0.000143685
0.00309257
-0.000128054
0.00332919
-0.000114786
0.00352431
-0.000102359
0.00368976
-9.44803e-05
0.00383324
-8.62833e-05
0.00396246
-8.37291e-05
0.0040811
-7.87863e-05
0.00419418
-8.06835e-05
0.00429884
-7.49201e-05
0.00439229
-7.54103e-05
0.00445005
-5.68906e-05
0.00442788
-5.34616e-05
0.00417123
-2.95244e-05
0.00342719
-7.24401e-05
0.00181187
-0.000152811
-0.000768018
-5.10766e-06
6.30747e-06
-2.24995e-06
-1.63604e-05
1.30112e-05
-2.52853e-06
-3.00219e-05
1.55011e-05
-2.34294e-06
-4.45051e-05
1.63581e-05
-2.2824e-06
-5.93146e-05
1.67771e-05
-2.40077e-06
-7.42668e-05
1.70956e-05
-2.69812e-06
-8.91599e-05
1.7313e-05
-3.19392e-06
-0.000103635
1.72952e-05
-3.93659e-06
-0.000117107
1.68437e-05
-4.99429e-06
-0.000128719
1.57162e-05
-6.443e-06
-0.00013733
1.36463e-05
-8.34916e-06
-0.000141559
1.03926e-05
-1.07413e-05
-0.00013993
5.82503e-06
-1.35718e-05
-0.000131176
6.67758e-08
-1.66737e-05
-0.000114615
-6.49906e-06
-1.96574e-05
-9.08691e-05
-1.27426e-05
-2.20197e-05
-6.2288e-05
-1.71531e-05
-2.31565e-05
-3.31855e-05
-1.7928e-05
-2.25531e-05
-9.79927e-06
-1.33352e-05
-1.96504e-05
-3.02665e-06
-1.20106e-05
-1.20437e-05
2.01316e-05
-4.46018e-06
-3.37321e-05
3.75546e-05
-5.71079e-06
-5.93424e-05
4.41477e-05
-5.7337e-06
-8.64068e-05
4.65071e-05
-5.72034e-06
-0.000113899
4.74687e-05
-5.87523e-06
-0.000141284
4.79204e-05
-6.26008e-06
-0.000168037
4.79088e-05
-6.93074e-06
-0.000193414
4.71293e-05
-7.97254e-06
-0.000216341
4.51065e-05
-9.49539e-06
-0.000235354
4.12584e-05
-1.16194e-05
-0.000248593
3.49599e-05
-1.44499e-05
-0.000253894
2.56674e-05
-1.80327e-05
-0.000249048
1.31398e-05
-2.22976e-05
-0.000232226
-2.24979e-06
-2.70104e-05
-0.000202511
-1.95671e-05
-3.15481e-05
-0.000161036
-3.58976e-05
-3.51097e-05
-0.000111663
-4.74509e-05
-3.67214e-05
-6.13785e-05
-4.96609e-05
-3.54695e-05
-1.99684e-05
-3.8462e-05
-3.02329e-05
-1.2786e-05
-1.71388e-05
-1.52439e-05
3.75799e-05
-5.89729e-06
-4.18638e-05
6.77653e-05
-7.81582e-06
-7.28945e-05
7.90194e-05
-8.01417e-06
-0.000105489
8.29933e-05
-8.03212e-06
-0.000138459
8.44427e-05
-8.17355e-06
-0.000171166
8.48877e-05
-8.54791e-06
-0.000202994
8.44505e-05
-9.24194e-06
-0.000233104
8.26663e-05
-1.03742e-05
-0.0002603
7.878e-05
-1.20963e-05
-0.000282948
7.18496e-05
-1.45814e-05
-0.000298943
6.08426e-05
-1.79982e-05
-0.000305761
4.48217e-05
-2.24591e-05
-0.000300691
2.33056e-05
-2.79418e-05
-0.000281294
-3.21578e-06
-3.41845e-05
-0.000246049
-3.33647e-05
-4.03941e-05
-0.000195869
-6.22145e-05
-4.54009e-05
-0.000135307
-8.30616e-05
-4.76587e-05
-7.34164e-05
-8.74886e-05
-4.56644e-05
-2.31333e-05
-6.81417e-05
-3.79802e-05
-2.3559e-05
-2.0512e-05
-1.6417e-05
5.65968e-05
-6.98588e-06
-4.51624e-05
0.000100754
-9.41764e-06
-7.85729e-05
0.000116986
-9.75074e-06
-0.000113613
0.000122649
-9.79632e-06
-0.000149098
0.000124661
-9.9416e-06
-0.000184454
0.000125252
-1.03378e-05
-0.000219152
0.00012466
-1.1105e-05
-0.000252445
0.000122295
-1.24045e-05
-0.000283219
0.000117138
-1.44491e-05
-0.000309858
0.000107871
-1.74993e-05
-0.000330128
9.29661e-05
-2.18401e-05
-0.00034113
7.09019e-05
-2.77189e-05
-0.000339349
4.06063e-05
-3.52499e-05
-0.00032155
2.81436e-06
-4.42864e-05
-0.000284266
-4.23786e-05
-5.36025e-05
-0.00022754
-8.6813e-05
-6.15224e-05
-0.000156169
-0.000120493
-6.52888e-05
-8.21224e-05
-0.000129099
-6.21269e-05
-2.36412e-05
-9.97467e-05
-5.01584e-05
-3.19548e-05
-2.57307e-05
-1.66412e-05
7.6212e-05
-7.86226e-06
-4.61102e-05
0.000135071
-1.07525e-05
-8.04678e-05
0.000156564
-1.12153e-05
-0.000116609
0.000164089
-1.13076e-05
-0.000153432
0.00016692
-1.15018e-05
-0.000190526
0.000168099
-1.19942e-05
-0.000227569
0.000168049
-1.29466e-05
-0.000264051
0.000166113
-1.4579e-05
-0.000299096
0.00016106
-1.71937e-05
-0.000331253
0.000151196
-2.11869e-05
-0.000358276
0.000134413
-2.70392e-05
-0.000376888
0.000108371
-3.52503e-05
-0.000382669
7.09811e-05
-4.62007e-05
-0.000370139
2.17671e-05
-5.9803e-05
-0.000334216
-3.91053e-05
-7.50794e-05
-0.000271696
-0.000103759
-8.8655e-05
-0.000186521
-0.000156978
-9.55099e-05
-9.44533e-05
-0.000175162
-9.03397e-05
-2.34409e-05
-0.000134132
-7.04578e-05
-3.61258e-05
-3.37314e-05
-1.63971e-05
9.59463e-05
-8.61796e-06
-4.58896e-05
0.000169998
-1.19481e-05
-8.04898e-05
0.000197035
-1.25449e-05
-0.000117084
0.000206661
-1.27042e-05
-0.000154697
0.000210682
-1.29881e-05
-0.000193141
0.000213075
-1.36447e-05
-0.000232396
0.000214555
-1.48892e-05
-0.000272325
0.000214509
-1.70207e-05
-0.000312462
0.0002116
-2.04676e-05
-0.000351745
0.000203841
-2.58288e-05
-0.000388152
0.00018855
-3.39032e-05
-0.000418229
0.000162395
-4.56572e-05
-0.000436619
0.000121743
-6.19975e-05
-0.000435685
6.37889e-05
-8.31587e-05
-0.000407204
-1.20684e-05
-0.000108338
-0.000342134
-0.000103173
-0.000131349
-0.000240132
-0.000189042
-0.000143133
-0.000119424
-0.000231134
-0.000134474
-2.48062e-05
-0.000179064
-0.000101777
-3.69379e-05
-4.46203e-05
-1.58741e-05
0.000115527
-9.33199e-06
-4.49775e-05
0.000205136
-1.31084e-05
-7.93722e-05
0.000237968
-1.38412e-05
-0.000115948
0.00024991
-1.40711e-05
-0.000153867
0.000255484
-1.44579e-05
-0.000193205
0.000259752
-1.53092e-05
-0.00023432
0.00026387
-1.69059e-05
-0.000277578
0.000267444
-1.96473e-05
-0.000323137
0.000269238
-2.41291e-05
-0.000370646
0.000267211
-3.12367e-05
-0.000418779
0.000258335
-4.22483e-05
-0.000464564
0.000238432
-5.88625e-05
-0.000502517
0.000202079
-8.28599e-05
-0.00052338
0.000142723
-0.000115052
-0.000514607
5.47793e-05
-0.00015307
-0.000459207
-6.9659e-05
-0.000187232
-0.000343161
-0.000215752
-0.000201802
-0.000178917
-0.000317005
-0.000187267
-3.57828e-05
-0.000262671
-0.000141086
-4.50827e-05
-5.70317e-05
-1.51402e-05
0.000134771
-1.0065e-05
-4.35397e-05
0.000240212
-1.43146e-05
-7.73215e-05
0.000278996
-1.51746e-05
-0.000113347
0.000293337
-1.54516e-05
-0.000150899
0.000300671
-1.59132e-05
-0.000190321
0.000307327
-1.69334e-05
-0.000232399
0.000315086
-1.88678e-05
-0.000278106
0.000324014
-2.22311e-05
-0.00032844
0.000333309
-2.78196e-05
-0.000384168
0.000341331
-3.6876e-05
-0.000445382
0.000345311
-5.12829e-05
-0.000510808
0.000340886
-7.36015e-05
-0.000576716
0.000321055
-0.000106392
-0.000634869
0.000273494
-0.000149616
-0.000667776
0.000176531
-0.000195135
-0.000651937
8.03006e-06
-0.000227538
-0.000539382
-0.000253472
-0.00022823
-0.000318094
-0.000483667
-0.000208302
-7.9818e-05
-0.00045516
-0.000167203
-9.99912e-05
-6.87644e-05
-1.42511e-05
0.000153575
-1.087e-05
-4.16896e-05
0.000275048
-1.56375e-05
-7.44319e-05
0.000319763
-1.6601e-05
-0.000109237
0.000336322
-1.68687e-05
-0.00014546
0.0003453
-1.73282e-05
-0.000183681
0.000354486
-1.84242e-05
-0.000225094
0.000366491
-2.05867e-05
-0.000271311
0.000382114
-2.44432e-05
-0.0003243
0.000401418
-3.0987e-05
-0.000386296
0.000423824
-4.18075e-05
-0.000459601
0.000447794
-5.92923e-05
-0.000546282
0.000469885
-8.62881e-05
-0.000647455
0.000481575
-0.000123876
-0.000760456
0.000460213
-0.000165518
-0.000870318
0.000355307
-0.000190778
-0.000929942
9.54994e-05
-0.000175555
-0.000859542
-0.000346767
-0.000140335
-0.000583894
-0.000793129
-0.000135806
-0.000199529
-0.000845511
-0.000146724
-0.000288773
-8.37342e-05
-1.33256e-05
0.000171985
-1.1812e-05
-3.9665e-05
0.000309627
-1.71629e-05
-7.09584e-05
0.00035997
-1.81896e-05
-0.000103755
0.000378149
-1.83576e-05
-0.000137404
0.000388148
-1.86882e-05
-0.000172647
0.0003994
-1.96956e-05
-0.00021098
0.000415513
-2.18701e-05
-0.000254535
0.000438256
-2.59151e-05
-0.000306159
0.000468953
-3.29335e-05
-0.000369591
0.000508753
-4.46271e-05
-0.000449771
0.000558259
-6.31503e-05
-0.00055342
0.000615482
-8.92458e-05
-0.000689328
0.000668265
-0.000116438
-0.000864653
0.000675558
-0.000122762
-0.00106963
0.000545766
-7.53134e-05
-0.00123708
0.000150956
2.62188e-05
-0.00123157
-0.000526755
9.42965e-05
-0.00093227
-0.00122553
3.74762e-05
-0.000409047
-0.00143355
-7.02205e-05
-0.000718723
-0.000101927
-1.26082e-05
0.000190344
-1.29929e-05
-3.79656e-05
0.000344254
-1.90216e-05
-6.75188e-05
0.000399494
-2.00538e-05
-9.74777e-05
0.00041811
-2.00003e-05
-0.000127118
0.00042783
-2.00318e-05
-0.000157224
0.000439868
-2.0725e-05
-0.000189403
0.000458885
-2.25999e-05
-0.000225986
0.000487698
-2.63547e-05
-0.000270255
0.000529047
-3.29949e-05
-0.000326893
0.000586034
-4.377e-05
-0.000402932
0.000661467
-5.90286e-05
-0.000509626
0.00075363
-7.35014e-05
-0.000664048
0.000842332
-6.66036e-05
-0.000884122
0.000862783
1.14978e-07
-0.00116533
0.000682318
0.000153072
-0.00141602
0.000140254
0.000339783
-0.00147176
-0.000751963
0.000407679
-0.00119615
-0.00166847
0.000257723
-0.000624668
-0.00207646
4.88653e-05
-0.0014099
-7.5214e-05
-1.25449e-05
0.000209513
-1.45878e-05
-3.74953e-05
0.000379799
-2.144e-05
-6.52658e-05
0.000438562
-2.24076e-05
-9.1628e-05
0.000455657
-2.1984e-05
-0.000115779
0.000462992
-2.15125e-05
-0.000138459
0.000473611
-2.16281e-05
-0.000161131
0.000493103
-2.28435e-05
-0.000185854
0.000525127
-2.57444e-05
-0.000215582
0.000573557
-3.09654e-05
-0.000254761
0.000642911
-3.86091e-05
-0.000310923
0.000737085
-4.56865e-05
-0.000398147
0.000852554
-3.85821e-05
-0.000539591
0.000960598
1.45052e-05
-0.00076587
0.000974298
0.000165567
-0.00107634
0.000742604
0.000416528
-0.00138576
0.000102332
0.000660484
-0.00150187
-0.000925138
0.000694372
-0.00126704
-0.0019989
0.000433892
-0.000725389
-0.00263075
0.000163179
-0.00219708
-4.11123e-06
-1.3859e-05
0.000231186
-1.68826e-05
-3.97062e-05
0.000418001
-2.47439e-05
-6.60664e-05
0.000477943
-2.55361e-05
-8.82474e-05
0.000490532
-2.45808e-05
-0.000105544
0.000492516
-2.34088e-05
-0.000118695
0.000498665
-2.27025e-05
-0.000128829
0.000515126
-2.2944e-05
-0.00013727
0.000545884
-2.453e-05
-0.000145889
0.000595289
-2.75613e-05
-0.000157678
0.000668236
-3.06812e-05
-0.000179219
0.000768328
-2.74727e-05
-0.000224675
0.000890106
5.55826e-07
-0.000326251
0.000999208
9.83512e-05
-0.000527164
0.00100425
0.00031039
-0.00084426
0.000753356
0.000623116
-0.00119614
9.50828e-05
0.000885087
-0.00136163
-0.000974378
0.000847997
-0.00119386
-0.00212972
0.000479536
-0.000723373
-0.00299941
0.000169411
-0.00291025
9.78954e-07
-1.78961e-05
0.000258568
-2.04449e-05
-4.69718e-05
0.000461882
-2.97197e-05
-7.25596e-05
0.000518943
-3.02785e-05
-9.00273e-05
0.00052279
-2.85643e-05
-9.93301e-05
0.00051575
-2.64081e-05
-0.000101395
0.000513857
-2.46086e-05
-9.69738e-05
0.000523196
-2.36374e-05
-8.63262e-05
0.000547484
-2.36813e-05
-6.98651e-05
0.000590632
-2.44078e-05
-4.84784e-05
0.000656659
-2.33575e-05
-2.66938e-05
0.000748397
-1.23628e-05
-1.9169e-05
0.000859992
3.01305e-05
-6.21436e-05
0.000959006
0.000148369
-0.000212027
0.000964662
0.00038525
-0.000499368
0.000737856
0.000714138
-0.000844018
0.000129359
0.000952634
-0.00104212
-0.000899784
0.000838218
-0.00100369
-0.00206741
0.000409173
-0.000653898
-0.00319465
9.46073e-05
-0.00350438
-8.19731e-05
-2.63998e-05
0.000296814
-2.59761e-05
-6.26165e-05
0.000516269
-3.68044e-05
-8.90038e-05
0.000563945
-3.66488e-05
-0.000101234
0.000552643
-3.40481e-05
-0.000101288
0.000532132
-3.08767e-05
-9.10858e-05
0.000518672
-2.79327e-05
-7.11438e-05
0.000517093
-2.57378e-05
-4.07168e-05
0.00052991
-2.44429e-05
1.65119e-06
0.000559806
-2.35258e-05
5.63514e-05
0.000609774
-1.99529e-05
0.000121252
0.000681679
-6.12131e-06
0.000186031
0.000769058
3.75767e-05
0.000217395
0.00084731
0.000149429
0.000157689
0.000854539
0.000368692
-4.0421e-05
0.000679256
0.00066878
-0.000311258
0.00015735
0.000863313
-0.000548738
-0.000744946
0.000716097
-0.000660355
-0.00186859
0.000321303
-0.000494363
-0.00321823
3.99544e-05
-0.00392843
-0.000189282
-4.467e-05
0.0003564
-3.53199e-05
-9.29033e-05
0.000586944
-4.90565e-05
-0.000118382
0.000612311
-4.89309e-05
-0.000123508
0.00057945
-4.48802e-05
-0.000113407
0.000542024
-3.97439e-05
-9.0827e-05
0.000514262
-3.49222e-05
-5.60856e-05
0.000498775
-3.11512e-05
-7.58814e-06
0.00049626
-2.86232e-05
5.71286e-05
0.000507828
-2.67264e-05
0.000139813
0.000535428
-2.28553e-05
0.000241904
0.000579516
-1.14724e-05
0.000357228
0.000634346
2.28393e-05
0.000462211
0.000681714
0.000107962
0.000514223
0.000677907
0.000273901
0.000457267
0.000549951
0.000508553
0.000267267
0.000172584
0.000666785
1.9784e-05
-0.000556361
0.000547236
-0.000235588
-0.00154487
0.000253818
-0.000254522
-0.00307343
6.49931e-06
-0.0041409
-0.000278186
-7.65551e-05
0.000450771
-5.4077e-05
-0.000153833
0.000693861
-6.8529e-05
-0.000178114
0.000666808
-6.37326e-05
-0.000168135
0.000597554
-5.7784e-05
-0.000142246
0.000541817
-5.12445e-05
-0.000105222
0.000500459
-4.48825e-05
-5.60701e-05
0.000470512
-3.9817e-05
8.57392e-06
0.000450499
-3.65831e-05
9.07759e-05
0.000441651
-3.45273e-05
0.000195291
0.000443623
-3.31931e-05
0.000323077
0.000457747
-2.68834e-05
0.000471556
0.000478316
-6.26985e-06
0.000623009
0.000496532
4.56345e-05
0.000747151
0.000480943
0.000147201
0.000791117
0.000394356
0.000299708
0.000698908
0.00015395
0.000421586
0.000453995
-0.000345691
0.0003637
0.000163448
-0.00117911
0.000177067
6.39899e-05
-0.00285779
-4.43578e-05
-0.00410949
-0.000333345
-9.11369e-05
0.000563783
-6.54112e-05
-0.000187718
0.000818344
-8.96273e-05
-0.000224675
0.000733158
-9.50344e-05
-0.000220247
0.000623882
-8.8396e-05
-0.000185415
0.000537667
-7.70687e-05
-0.000128873
0.000473299
-6.63551e-05
-5.43643e-05
0.00042349
-5.84046e-05
3.79172e-05
0.000383846
-5.39139e-05
0.000146852
0.000356246
-5.25325e-05
0.000275914
0.000335804
-5.38793e-05
0.000424178
0.000326795
-5.41677e-05
0.000591938
0.000320075
-4.7555e-05
0.000765724
0.000318526
-2.40604e-05
0.0009241
0.000298968
2.55333e-05
0.00102937
0.000248354
0.000105732
0.00102834
0.000116004
0.000189147
0.000911275
-0.000216639
0.000175656
0.000715051
-0.000892507
9.04782e-05
0.000409878
-0.00248755
-8.05068e-05
-0.00381703
-0.000393562
-0.000770097
0.00132537
-0.000163104
-0.000706328
0.000792565
-0.000165318
-0.000467939
0.00053562
-0.000151178
-0.000232057
0.000432631
-0.000135966
-1.12173e-05
0.000362663
-0.000120272
0.000202565
0.000305028
-0.000106745
0.000408585
0.000261246
-9.63511e-05
0.000608645
0.000225657
-9.02285e-05
0.00080368
0.000201538
-8.7512e-05
0.000998048
0.000180186
-8.88798e-05
0.00119283
0.000169002
-9.16235e-05
0.00139041
0.000156586
-9.5203e-05
0.00158575
0.000153054
-9.13163e-05
0.00176978
0.000140177
-7.90121e-05
0.00192677
0.000113446
-5.06278e-05
0.00201908
4.56469e-05
-1.0745e-05
0.00200778
-0.000163249
1.61764e-05
0.00186239
-0.000679552
3.84495e-06
0.00116837
-0.00177538
-0.000111842
-0.00285167
-0.000446597
0.00129832
-0.000145321
0.0020903
-0.000164819
0.00263422
-0.000164626
0.00308277
-0.000159603
0.00346777
-0.000150391
0.00379917
-0.000141159
0.00408894
-0.000130886
0.00434433
-0.00012421
0.00457603
-0.00011645
0.00478698
-0.000114485
0.00498625
-0.00010906
0.0051739
-0.000111748
0.00535667
-0.000104638
0.00552932
-0.00010788
0.00567609
-9.02114e-05
0.00576287
-9.45916e-05
0.00564458
-7.44923e-05
0.00500889
-0.000116293
0.0031955
-0.000114805
-0.000424183
-5.84545e-06
6.5554e-06
-2.9599e-06
-1.90383e-05
1.45333e-05
-3.86903e-06
-3.50465e-05
1.75922e-05
-3.92695e-06
-5.19135e-05
1.85702e-05
-3.98554e-06
-6.90353e-05
1.89355e-05
-4.21442e-06
-8.61996e-05
1.91257e-05
-4.65947e-06
-0.00010318
1.91501e-05
-5.36346e-06
-0.000119575
1.88485e-05
-6.39002e-06
-0.000134733
1.79821e-05
-7.81872e-06
-0.000147703
1.62586e-05
-9.73187e-06
-0.000157215
1.33568e-05
-1.21931e-05
-0.000161729
8.98612e-06