/*--------------------------------*- C++ -*----------------------------------*\
  =========                 |
  \\      /  F ield         | OpenFOAM: The Open Source CFD Toolbox
   \\    /   O peration     | Website:  https://openfoam.org
    \\  /    A nd           | Version:  10
     \\/     M anipulation  |
\*---------------------------------------------------------------------------*/
FoamFile
{
    format      ascii;
    class       volVectorField;
    location    "10";
    object      U;
}
// * * * * * * * * * * * * * * * * * * * * * * * * * * * * * * * * * * * * * //

dimensions      [0 1 -1 0 0 0 0];

internalField   nonuniform List<vector> 
8000
(
(-0.000103491 0.000144762 -5.21246e-05)
(-0.000560245 0.000279536 -2.61494e-05)
(-0.00131749 0.000325695 -4.28218e-06)
(-0.00214459 0.000344325 4.12509e-06)
(-0.00300656 0.000360158 3.80159e-06)
(-0.00389451 0.000378571 -2.58962e-06)
(-0.00480021 0.000398455 -1.44062e-05)
(-0.00570883 0.000416185 -3.26329e-05)
(-0.00659262 0.000426683 -5.92372e-05)
(-0.00740673 0.000423623 -9.67111e-05)
(-0.00808642 0.000399769 -0.000147589)
(-0.0085472 0.000348097 -0.000213602)
(-0.00869079 0.000264014 -0.000294404)
(-0.00841989 0.000148518 -0.000385847)
(-0.00766262 1.17464e-05 -0.000478129)
(-0.00641061 -0.000125702 -0.00055363)
(-0.00475948 -0.000226948 -0.000591691)
(-0.00291626 -0.000254322 -0.000572984)
(-0.00117316 -0.00017226 -0.000477931)
(-0.000183742 2.2451e-05 -0.000252001)
(-0.000231714 0.000757334 -0.000141059)
(-0.00106464 0.00131043 -0.000144506)
(-0.00234655 0.00150694 -0.000130914)
(-0.00373896 0.00158963 -0.000125556)
(-0.00518423 0.0016469 -0.00012628)
(-0.00666212 0.00170156 -0.000132232)
(-0.00815209 0.00175175 -0.000143782)
(-0.00962518 0.00178508 -0.000162721)
(-0.0110345 0.00178317 -0.000191923)
(-0.0123089 0.00172309 -0.000235067)
(-0.0133486 0.00157922 -0.000296133)
(-0.0140263 0.00132759 -0.000378225)
(-0.0141951 0.000953977 -0.000481835)
(-0.013711 0.000465798 -0.000602752)
(-0.0124691 -9.48034e-05 -0.000727657)
(-0.0104536 -0.000644036 -0.000827658)
(-0.00780588 -0.00105048 -0.000873807)
(-0.00484191 -0.00117261 -0.000835506)
(-0.00201724 -0.000889683 -0.000677237)
(-0.00035253 -0.00017792 -0.000315694)
(-0.000278666 0.00177724 -0.000198173)
(-0.00125933 0.00294356 -0.000222101)
(-0.00274665 0.00335881 -0.000214919)
(-0.00434962 0.00353397 -0.000211374)
(-0.00600792 0.00364163 -0.000211325)
(-0.00770144 0.00373042 -0.000215297)
(-0.00940831 0.00380011 -0.000224427)
(-0.0110984 0.00382891 -0.000241192)
(-0.0127231 0.00378265 -0.00026934)
(-0.0142068 0.00361806 -0.000313843)
(-0.0154413 0.00328648 -0.000380568)
(-0.0162825 0.0027418 -0.000475062)
(-0.0165559 0.00195566 -0.000600043)
(-0.0160778 0.000941052 -0.000751825)
(-0.0146985 -0.000222474 -0.000915145)
(-0.0123653 -0.00137013 -0.0010493)
(-0.00922292 -0.00223776 -0.00111114)
(-0.00566001 -0.00252752 -0.00105439)
(-0.00226841 -0.00199641 -0.00083362)
(-0.000351476 -0.000584538 -0.000363557)
(-0.000285514 0.00292153 -0.000236162)
(-0.001308 0.00477107 -0.000274468)
(-0.00286536 0.00542084 -0.000271285)
(-0.00453989 0.00569207 -0.000268783)
(-0.00627432 0.00585317 -0.000268649)
(-0.00805439 0.0059819 -0.000272465)
(-0.00986446 0.00608172 -0.000282088)
(-0.011682 0.00612347 -0.000300856)
(-0.0134663 0.00605893 -0.000333804)
(-0.0151483 0.00582489 -0.000387888)
(-0.0166204 0.00534716 -0.000471896)
(-0.0177267 0.00455061 -0.000595088)
(-0.0182597 0.00337957 -0.000763426)
(-0.0179771 0.00183262 -0.000973746)
(-0.0166515 1.19074e-05 -0.00121907)
(-0.0141394 -0.00182186 -0.00142562)
(-0.0105459 -0.00327268 -0.00152681)
(-0.0063469 -0.00381593 -0.00144481)
(-0.00234264 -0.00301935 -0.00111836)
(-0.00025702 -0.000809465 -0.000472909)
(-0.000274273 0.00412055 -0.000262742)
(-0.00128652 0.00669413 -0.000313542)
(-0.00284707 0.00759132 -0.000313991)
(-0.00452968 0.0079663 -0.000313043)
(-0.00628206 0.00819325 -0.000314457)
(-0.0080983 0.00838368 -0.000320946)
(-0.00997362 0.00854845 -0.000335288)
(-0.0118992 0.00865493 -0.000362045)
(-0.0138502 0.0086445 -0.000408115)
(-0.0157732 0.00843597 -0.000483389)
(-0.0175704 0.00792763 -0.000601176)
(-0.0190807 0.0070058 -0.000777113)
(-0.0200629 0.00556727 -0.00102513)
(-0.0201928 0.00356459 -0.00135048)
(-0.0190986 0.00108702 -0.00172453)
(-0.0165074 -0.00154526 -0.00208731)
(-0.0124184 -0.0037666 -0.00228097)
(-0.00734769 -0.00474997 -0.00216587)
(-0.00241098 -0.00372785 -0.00164323)
(-8.30303e-05 -0.000648331 -0.000670951)
(-0.00025272 0.00533448 -0.000282843)
(-0.00122492 0.00865908 -0.000345226)
(-0.00275024 0.00981811 -0.000349305)
(-0.00440404 0.0103096 -0.000350539)
(-0.00613929 0.0106228 -0.000354961)
(-0.0079595 0.0109092 -0.000366607)
(-0.00987363 0.0111932 -0.000389507)
(-0.0118915 0.0114452 -0.000429958)
(-0.0140117 0.0116035 -0.000497547)
(-0.016207 0.0115754 -0.000606516)
(-0.0184043 0.0112347 -0.000777247)
(-0.0204537 0.0104245 -0.00103644)
(-0.0220916 0.00897419 -0.00141275)
(-0.0229065 0.00674722 -0.00192211)
(-0.0223583 0.00373726 -0.00254172)
(-0.0199335 0.000218476 -0.00319593)
(-0.0153839 -0.00303139 -0.00360363)
(-0.00914917 -0.0048477 -0.00346814)
(-0.00268821 -0.00384132 -0.00259537)
(0.000155979 8.18328e-05 -0.000997171)
(-0.00022324 0.00653593 -0.000300088)
(-0.00113358 0.0106279 -0.000373907)
(-0.00259472 0.0120615 -0.000381543)
(-0.00418801 0.0126822 -0.000385056)
(-0.00587052 0.0131031 -0.000393011)
(-0.00765476 0.0135239 -0.000411041)
(-0.00956461 0.0139907 -0.000444836)
(-0.0116317 0.0144877 -0.000503026)
(-0.0138844 0.0149626 -0.00059889)
(-0.0163342 0.0153262 -0.000752859)
(-0.0189529 0.0154444 -0.000995876)
(-0.0216336 0.0151287 -0.00137213)
(-0.0241324 0.0141373 -0.00193587)
(-0.0259986 0.0121991 -0.00273186)
(-0.026526 0.0090951 -0.00375227)
(-0.0248177 0.00485971 -0.00486657)
(-0.0202025 0.000130214 -0.00573076)
(-0.0127059 -0.00333115 -0.00568332)
(-0.00385427 -0.00304001 -0.00427531)
(0.000281997 0.00149238 -0.00151216)
(-0.00018679 0.00770603 -0.00031674)
(-0.00101651 0.0125738 -0.000402446)
(-0.00238664 0.0142895 -0.000413213)
(-0.00388464 0.0150454 -0.000418187)
(-0.00546885 0.0155874 -0.00042883)
(-0.00715845 0.0161733 -0.000452698)
(-0.00899068 0.0168815 -0.000497535)
(-0.0110186 0.0177237 -0.00057484)
(-0.0133033 0.0186767 -0.00070248)
(-0.0159034 0.0196826 -0.000908726)
(-0.0188567 0.0206352 -0.00123809)
(-0.0221421 0.0213592 -0.0017573)
(-0.0256167 0.0215795 -0.00255592)
(-0.0289089 0.0208743 -0.0037253)
(-0.0312743 0.0186316 -0.00527508)
(-0.0315313 0.0141749 -0.00699426)
(-0.0281024 0.00746742 -0.00852696)
(-0.0198154 0.000645005 -0.00888545)
(-0.00761571 -0.00137504 -0.00695836)
(-0.000278417 0.00316202 -0.00246431)
(-0.000145267 0.00883173 -0.000334365)
(-0.000879839 0.0144773 -0.000432801)
(-0.00213439 0.0164725 -0.000445734)
(-0.00349856 0.0173544 -0.000450241)
(-0.00492734 0.0180121 -0.000461116)
(-0.00644214 0.0187716 -0.000488175)
(-0.00808839 0.0197553 -0.000541456)
(-0.00993449 0.0210182 -0.00063551)
(-0.0120676 0.0225906 -0.00079289)
(-0.0145908 0.0244834 -0.00104956)
(-0.0176152 0.0266767 -0.00146222)
(-0.0212429 0.0290876 -0.00211357)
(-0.0255389 0.0314873 -0.00310735)
(-0.0304614 0.033289 -0.00454311)
(-0.0356229 0.0331825 -0.00646563)
(-0.0397182 0.0290637 -0.00878344)
(-0.0400307 0.0194608 -0.0109676)
(-0.0328971 0.00668165 -0.0120559)
(-0.0172221 -0.00047546 -0.0102154)
(-0.00293473 0.00363052 -0.00445426)
(-0.000103346 0.00990875 -0.00035474)
(-0.000738162 0.0163282 -0.000467114)
(-0.00186032 0.0185843 -0.000480641)
(-0.00305252 0.0195585 -0.000481595)
(-0.00426091 0.0202955 -0.000488564)
(-0.0055032 0.0211994 -0.0005139)
(-0.00682417 0.0224462 -0.000569916)
(-0.00829383 0.024147 -0.000673648)
(-0.0100063 0.0264078 -0.000850617)
(-0.0120849 0.0293462 -0.00113974)
(-0.0146921 0.0330887 -0.00159659)
(-0.0180603 0.0377233 -0.00228153)
(-0.0225764 0.0431104 -0.0032195)
(-0.0288695 0.048364 -0.00437797)
(-0.0374811 0.0510247 -0.00579066)
(-0.0474762 0.0469229 -0.00775932)
(-0.0546938 0.0323164 -0.010265)
(-0.0520657 0.0102077 -0.0122037)
(-0.0348182 -0.00546151 -0.0117793)
(-0.00907419 -0.000296368 -0.00806774)
(-7.03412e-05 0.0109499 -0.000380831)
(-0.000620515 0.0181358 -0.000508909)
(-0.00161069 0.02061 -0.000520848)
(-0.00260063 0.0216082 -0.000514086)
(-0.00352337 0.0223462 -0.000511484)
(-0.00438814 0.0233136 -0.000528142)
(-0.0052285 0.0247432 -0.000578305)
(-0.00609637 0.0268061 -0.00067995)
(-0.00706132 0.0296918 -0.000857335)
(-0.00822074 0.0336386 -0.00114085)
(-0.00973467 0.0389418 -0.00155481)
(-0.0119409 0.0458614 -0.00206139)
(-0.0156396 0.0542487 -0.00245044)
(-0.0224289 0.0626591 -0.00236855)
(-0.0342401 0.0672165 -0.00186344)
(-0.0512533 0.0613177 -0.00218939)
(-0.0682317 0.0393277 -0.00365857)
(-0.0733267 0.00473233 -0.00495938)
(-0.0554233 -0.0226466 -0.00701273)
(-0.0166933 -0.0151719 -0.0105466)
(-6.29168e-05 0.0119995 -0.000418195)
(-0.000577696 0.0199457 -0.000565041)
(-0.00146579 0.0225608 -0.000572797)
(-0.00223918 0.0234687 -0.000553248)
(-0.00281946 0.0240783 -0.000534175)
(-0.00320897 0.0249687 -0.000533844)
(-0.00342284 0.0264226 -0.000568038)
(-0.00347514 0.0286573 -0.000653514)
(-0.00337754 0.0319289 -0.000807739)
(-0.00314942 0.0365601 -0.00103697)
(-0.00288687 0.0429655 -0.00130022)
(-0.00300039 0.0514552 -0.00139096)
(-0.0047235 0.0616661 -0.000760488)
(-0.0106939 0.0714345 0.00135358)
(-0.0250201 0.0758063 0.00468991)
(-0.0505577 0.066733 0.00749092)
(-0.0806662 0.0360804 0.00964177)
(-0.0934943 -0.0165457 0.0123503)
(-0.0723714 -0.0587383 0.00683069)
(-0.0220021 -0.0468324 -0.00634877)
(-0.000109303 0.0131552 -0.000476811)
(-0.000692209 0.0218578 -0.000646867)
(-0.00155167 0.024481 -0.000646585)
(-0.00211564 0.0251255 -0.000608587)
(-0.00231025 0.0254255 -0.000566069)
(-0.00214698 0.0260445 -0.000540856)
(-0.00162661 0.0272956 -0.000550505)
(-0.000713985 0.0294001 -0.00060825)
(0.000652799 0.0326513 -0.000722486)
(0.00256719 0.0373927 -0.000862185)
(0.00502811 0.0440273 -0.000917961)
(0.00755379 0.052784 -0.000510716)
(0.00846598 0.0630101 0.00126549)
(0.00404694 0.0720299 0.00545087)
(-0.0128438 0.0746637 0.0118963)
(-0.0492612 0.0620119 0.0191417)
(-0.0935714 0.0156571 0.0274994)
(-0.110028 -0.0676588 0.0310543)
(-0.0884447 -0.122024 0.0182862)
(-0.0257237 -0.0996321 0.00118726)
(-0.000262066 0.0146224 -0.00057954)
(-0.00110426 0.0240968 -0.000785648)
(-0.00205951 0.0265137 -0.000774843)
(-0.00243138 0.0266373 -0.000709906)
(-0.00220273 0.0263849 -0.000633082)
(-0.00143404 0.0264928 -0.000573263)
(-0.000138981 0.0272661 -0.000551714)
(0.00177961 0.028907 -0.000566863)
(0.00447508 0.0316629 -0.000634048)
(0.00811676 0.0358287 -0.000700797)
(0.0128025 0.0417011 -0.000598712)
(0.0180319 0.0493624 0.000148113)
(0.0217856 0.0580487 0.00265629)
(0.0195464 0.0652351 0.00834952)
(0.00183912 0.0658646 0.017593)
(-0.0429736 0.0464454 0.0288937)
(-0.0947382 -0.0253269 0.038319)
(-0.113993 -0.135368 0.0320971)
(-0.103762 -0.195913 0.0155509)
(-0.0276328 -0.173812 -0.000539836)
(-0.00060898 0.0167306 -0.000758091)
(-0.00203288 0.0269126 -0.00100237)
(-0.00327772 0.0286984 -0.00096145)
(-0.00346906 0.0279627 -0.000864032)
(-0.00275739 0.026918 -0.000750102)
(-0.00133949 0.0263018 -0.00065151)
(0.000747299 0.0263607 -0.000592164)
(0.00362722 0.0272397 -0.000577368)
(0.00751089 0.0290859 -0.000612739)
(0.0126582 0.0320838 -0.00065498)
(0.019252 0.0364045 -0.000518194)
(0.0268957 0.0419624 0.000288001)
(0.0336932 0.0480756 0.00285945)
(0.0353655 0.0529678 0.00880938)
(0.0231144 0.0521464 0.0190218)
(-0.0173251 0.0267271 0.0306816)
(-0.0671973 -0.0564788 0.0346446)
(-0.0964167 -0.169372 0.022154)
(-0.107174 -0.249256 0.00771839)
(-0.0247853 -0.249604 -0.0131404)
(-0.00136503 0.0202035 -0.00112617)
(-0.00395893 0.0312459 -0.00148355)
(-0.00565189 0.0318424 -0.00143651)
(-0.00549956 0.0296321 -0.001263)
(-0.00415029 0.027361 -0.00105256)
(-0.00201497 0.0257277 -0.000869495)
(0.000839843 0.0248389 -0.000749501)
(0.00456521 0.0246998 -0.000699953)
(0.00941311 0.0253507 -0.000733147)
(0.0157014 0.0268447 -0.000809201)
(0.0236647 0.0292128 -0.000762004)
(0.033067 0.0322175 -0.000193446)
(0.042509 0.0352665 0.00181808)
(0.0487624 0.037081 0.00663298)
(0.0456151 0.0351519 0.0153843)
(0.0207242 0.0116715 0.0252064)
(-0.0220737 -0.0627878 0.0263539)
(-0.0637041 -0.170591 0.0167533)
(-0.0987581 -0.279561 0.00312007)
(-0.0172382 -0.313765 -0.0263133)
(-0.00264057 0.0275731 -0.00203082)
(-0.00740573 0.036968 -0.00222675)
(-0.0099978 0.0340592 -0.00192777)
(-0.00913569 0.0300973 -0.00168697)
(-0.00666984 0.0268527 -0.00141645)
(-0.00347347 0.0244023 -0.00116337)
(0.000349314 0.0226486 -0.0009909)
(0.0049914 0.0214966 -0.000922628)
(0.0107208 0.0209376 -0.000992644)
(0.0178805 0.0209143 -0.00115965)
(0.0266756 0.0214071 -0.00130189)
(0.037005 0.0220565 -0.0011367)
(0.0478045 0.0224008 -1.72628e-05)
(0.0568094 0.0211025 0.00298493)
(0.0598952 0.0169457 0.00892507)
(0.0486858 -0.000659753 0.0161256)
(0.0148907 -0.0576707 0.0180806)
(-0.0275016 -0.161067 0.013616)
(-0.0862878 -0.292496 -0.00155233)
(-0.00557903 -0.362728 -0.0369676)
(-0.00540012 0.0314355 -0.00254228)
(-0.0144207 0.0502353 -0.00374112)
(-0.0168753 0.0436975 -0.0039862)
(-0.0131589 0.0351347 -0.0034665)
(-0.00801525 0.0289788 -0.00275669)
(-0.0023316 0.0245716 -0.00215411)
(0.00383556 0.0212846 -0.00174811)
(0.010659 0.0187443 -0.00156463)
(0.0181808 0.0168959 -0.00160238)
(0.0268554 0.0154757 -0.00183756)
(0.0365524 0.0145386 -0.00216353)
(0.0476641 0.0135287 -0.00240426)
(0.0586956 0.0124025 -0.00210606)
(0.0691119 0.0095388 -0.000691961)
(0.0737358 0.00425773 0.00270735)
(0.0714895 -0.00991581 0.0078)
(0.0455906 -0.0502089 0.0109008)
(0.0159948 -0.143536 0.010284)
(-0.0622911 -0.281867 -0.00720203)
(0.0153589 -0.371875 -0.0448251)
(-0.0574044 0.0837304 -0.0106027)
(-0.0390808 0.0499596 -0.00796386)
(-0.0222611 0.0305477 -0.00697915)
(-0.000705922 0.0230051 -0.00580694)
(0.0180539 0.0181076 -0.00473815)
(0.034783 0.0141725 -0.00383339)
(0.049457 0.0112331 -0.00319219)
(0.0633064 0.00899357 -0.00284866)
(0.0756169 0.00754983 -0.00271565)
(0.0884952 0.00632059 -0.00285369)
(0.0998737 0.00570508 -0.00310265)
(0.113358 0.00482396 -0.0035065)
(0.123521 0.00436455 -0.00365858)
(0.136653 0.0026361 -0.00341605)
(0.139105 -0.000462303 -0.00206455)
(0.145221 -0.0096963 0.000963935)
(0.121813 -0.0351742 0.00396103)
(0.114882 -0.100332 0.00543081)
(0.0179065 -0.213472 -0.00925773)
(0.0685979 -0.297423 -0.0508777)
(0.133929 0.0889482 -0.0110185)
(0.161313 0.0610669 -0.0107485)
(0.216582 0.0399323 -0.0101614)
(0.262696 0.0277349 -0.00935499)
(0.296059 0.0202837 -0.00834025)
(0.322668 0.0150571 -0.00740931)
(0.343049 0.0113512 -0.00652539)
(0.361988 0.00850066 -0.00588816)
(0.375795 0.00657652 -0.0053007)
(0.391405 0.00495997 -0.00498532)
(0.40076 0.00402001 -0.00467693)
(0.415988 0.0030449 -0.00462894)
(0.420923 0.00261973 -0.00444503)
(0.437272 0.00186622 -0.00436178)
(0.432691 0.00115936 -0.00374993)
(0.446043 -0.000923905 -0.00314687)
(0.411629 -0.00660417 -0.00198473)
(0.401313 -0.0216495 -0.00273075)
(0.26394 -0.0529428 -0.00781228)
(0.218396 -0.0970712 -0.0523953)
(-0.00017572 0.000220567 -0.000168072)
(-0.000967778 0.000498456 -0.000156388)
(-0.00228764 0.000601381 -0.000124471)
(-0.00371875 0.000636377 -0.000112519)
(-0.00518952 0.00065713 -0.000118541)
(-0.00668204 0.00067793 -0.000139833)
(-0.00818031 0.00069809 -0.000176799)
(-0.00965788 0.000711338 -0.000233011)
(-0.0110684 0.000708698 -0.000314052)
(-0.0123402 0.000679108 -0.000426424)
(-0.0133728 0.000610096 -0.00057615)
(-0.014038 0.000489797 -0.00076643)
(-0.0141895 0.000310634 -0.000994368)
(-0.0136846 7.42655e-05 -0.00124706)
(-0.0124175 -0.000200381 -0.00149407)
(-0.010378 -0.00046817 -0.00169146)
(-0.00771164 -0.000660446 -0.0017871)
(-0.00473534 -0.000696507 -0.00173498)
(-0.00192187 -0.000495925 -0.00148689)
(-0.000312091 -4.925e-05 -0.000864707)
(-0.00046968 0.0011921 -0.000373359)
(-0.00210783 0.00231243 -0.000441965)
(-0.00459536 0.00273659 -0.000428313)
(-0.00727556 0.00288818 -0.000421154)
(-0.010018 0.00295843 -0.000428961)
(-0.0127734 0.00300452 -0.000453958)
(-0.0154945 0.00302759 -0.000499416)
(-0.0181206 0.00300596 -0.000571677)
(-0.0205624 0.00290689 -0.000679511)
(-0.0226931 0.00269047 -0.000833038)
(-0.0243448 0.0023135 -0.00104184)
(-0.0253127 0.0017375 -0.0013114)
(-0.0253719 0.000942961 -0.00163857)
(-0.0243102 -5.04105e-05 -0.00200617)
(-0.0219768 -0.00115998 -0.00236766)
(-0.0183707 -0.00221389 -0.0026519)
(-0.0137354 -0.00295762 -0.00277904)
(-0.00858127 -0.00309427 -0.00267106)
(-0.00368163 -0.00235164 -0.00223528)
(-0.000705245 -0.000666007 -0.00119279)
(-0.000603265 0.0028376 -0.000507052)
(-0.0026403 0.00517737 -0.000631995)
(-0.00567124 0.00605811 -0.00063374)
(-0.00890804 0.00637285 -0.000629654)
(-0.0122037 0.00649409 -0.000635539)
(-0.0155017 0.00654001 -0.00065751)
(-0.0187455 0.00651836 -0.000701256)
(-0.0218654 0.00639042 -0.00077561)
(-0.0247615 0.0060948 -0.000892505)
(-0.0272931 0.0055561 -0.00106627)
(-0.0292718 0.00469305 -0.00131185)
(-0.0304627 0.00343386 -0.00164078)
(-0.0305968 0.0017439 -0.00205456)
(-0.0294054 -0.000333599 -0.00253504)
(-0.0266729 -0.00264609 -0.00302394)
(-0.0223494 -0.00484317 -0.00341907)
(-0.0166952 -0.00640682 -0.00359592)
(-0.0103467 -0.00671744 -0.00342941)
(-0.00432481 -0.0052315 -0.00280022)
(-0.000778088 -0.00180277 -0.00141767)
(-0.000646102 0.00469 -0.000603198)
(-0.00284496 0.00838784 -0.000770414)
(-0.00611648 0.00975555 -0.000783283)
(-0.00959773 0.010235 -0.000781496)
(-0.0131406 0.0104049 -0.000787171)
(-0.0166956 0.0104511 -0.000809721)
(-0.0202139 0.0103906 -0.000857339)
(-0.0236352 0.0101699 -0.000942047)
(-0.0268693 0.00970024 -0.0010804)
(-0.0297813 0.00886925 -0.00129349)
(-0.0321792 0.00755137 -0.00160555)
(-0.0338039 0.00562801 -0.00203924)
(-0.0343299 0.00302553 -0.00260678)
(-0.0334066 -0.000224965 -0.00329575)
(-0.0306761 -0.00388986 -0.00403472)
(-0.0259337 -0.00746671 -0.00465959)
(-0.0193899 -0.010097 -0.00495872)
(-0.0118151 -0.0106949 -0.00470531)
(-0.00462033 -0.00831107 -0.00373846)
(-0.000681922 -0.00279859 -0.00180518)
(-0.000647584 0.0066313 -0.000676526)
(-0.00289164 0.0117689 -0.000881039)
(-0.00625485 0.0136484 -0.000904433)
(-0.00983876 0.0143033 -0.000906562)
(-0.0135006 0.014539 -0.000916162)
(-0.0172057 0.0146169 -0.000946183)
(-0.0209236 0.0145685 -0.00100798)
(-0.0246171 0.0143302 -0.00111798)
(-0.0282206 0.0137888 -0.00129944)
(-0.0316216 0.0127938 -0.00158384)
(-0.0346385 0.011166 -0.00201073)
(-0.036996 0.00871716 -0.00262309)
(-0.0383077 0.0052947 -0.00345518)
(-0.0380654 0.0008687 -0.00450855)
(-0.035715 -0.00431187 -0.00570275)
(-0.0307908 -0.0096235 -0.00679825)
(-0.0232621 -0.013778 -0.00736877)
(-0.0139771 -0.0149683 -0.0069791)
(-0.0049502 -0.0115102 -0.00537648)
(-0.000457076 -0.0034227 -0.00243748)
(-0.000628818 0.0086037 -0.00073681)
(-0.00285974 0.0152388 -0.000976491)
(-0.00624041 0.0176587 -0.00101065)
(-0.00985804 0.0185109 -0.00101847)
(-0.0135779 0.0188455 -0.00103575)
(-0.0173841 0.0190106 -0.00107952)
(-0.0212729 0.0190609 -0.00116525)
(-0.0252413 0.0189307 -0.00131535)
(-0.029264 0.0184895 -0.00156265)
(-0.0332709 0.0175518 -0.00195415)
(-0.0371151 0.015879 -0.00255413)
(-0.0405296 0.013191 -0.0034425)
(-0.0430745 0.00920969 -0.00469835)
(-0.0440957 0.0037601 -0.00635621)
(-0.0427779 -0.00305936 -0.00835673)
(-0.0381986 -0.0105679 -0.0103014)
(-0.0297707 -0.0171101 -0.0114084)
(-0.0180748 -0.0197229 -0.0108212)
(-0.00581493 -0.0151115 -0.00811037)
(-0.000115307 -0.00357075 -0.00337272)
(-0.000597649 0.0105721 -0.000791911)
(-0.00278117 0.0187465 -0.00106678)
(-0.00613476 0.0217342 -0.00111172)
(-0.00973966 0.0228081 -0.00112563)
(-0.0134689 0.0232805 -0.001152)
(-0.0173277 0.0236 -0.0012126)
(-0.0213443 0.0238567 -0.00132812)
(-0.0255599 0.0239969 -0.00152872)
(-0.0300062 0.0238877 -0.00186015)
(-0.0346817 0.0233232 -0.00239151)
(-0.0395144 0.0220142 -0.00322464)
(-0.0443024 0.0195848 -0.00449898)
(-0.0486306 0.0155898 -0.00637344)
(-0.0517796 0.00957958 -0.00895868)
(-0.05265 0.00127653 -0.0121551)
(-0.0497437 -0.00897854 -0.015341)
(-0.0413655 -0.0196465 -0.0172236)
(-0.0267545 -0.0258238 -0.0163727)
(-0.00878029 -0.0203911 -0.0121712)
(0.00012173 -0.00363979 -0.00461944)
(-0.000556857 0.0125148 -0.000847358)
(-0.0026676 0.0222598 -0.00115916)
(-0.00595814 0.0258368 -0.00121402)
(-0.00950359 0.0271495 -0.00123209)
(-0.0131817 0.027791 -0.00126541)
(-0.0170177 0.0283268 -0.00134126)
(-0.0210743 0.0288996 -0.0014864)
(-0.0254435 0.0294878 -0.00174022)
(-0.0302288 0.0299829 -0.00216428)
(-0.0355263 0.0301915 -0.00285588)
(-0.0413916 0.0298131 -0.00396608)
(-0.0477846 0.0284126 -0.00571228)
(-0.0544836 0.0253821 -0.00835273)
(-0.0609231 0.0198575 -0.0120432)
(-0.0659184 0.0106148 -0.0164816)
(-0.0674489 -0.00358736 -0.0206095)
(-0.0617509 -0.0216931 -0.0225768)
(-0.0447422 -0.0362364 -0.0213678)
(-0.017951 -0.0315095 -0.0165332)
(-0.000682358 -0.00572221 -0.00630469)
(-0.000509238 0.014417 -0.000907529)
(-0.00252818 0.0257563 -0.00125939)
(-0.00572299 0.0299312 -0.00132198)
(-0.00915513 0.0314802 -0.00133944)
(-0.0127008 0.0322985 -0.00137344)
(-0.0164013 0.0330875 -0.00145731)
(-0.0203506 0.0340622 -0.00162424)
(-0.0246911 0.0352597 -0.00192303)
(-0.0296036 0.0366337 -0.0024313)
(-0.0353014 0.0380591 -0.00327493)
(-0.0420168 0.0393027 -0.00465125)
(-0.0499821 0.0399635 -0.00683047)
(-0.0594139 0.0393054 -0.0100658)
(-0.070408 0.0357548 -0.0142917)
(-0.0823269 0.0260382 -0.0186003)
(-0.0920506 0.00552149 -0.0211385)
(-0.0928329 -0.0265423 -0.0208148)
(-0.0756121 -0.0577629 -0.0192342)
(-0.0392999 -0.0578395 -0.0176588)
(-0.00471455 -0.0150995 -0.00915616)
(-0.00046118 0.0162744 -0.000977592)
(-0.00238187 0.0292245 -0.00137404)
(-0.00545643 0.0339833 -0.0014407)
(-0.00871691 0.0357329 -0.00144983)
(-0.0120296 0.0366946 -0.00147392)
(-0.0154443 0.0377254 -0.0015526)
(-0.0190772 0.0391322 -0.00172478)
(-0.0231085 0.0410378 -0.00204633)
(-0.027783 0.043502 -0.00260504)
(-0.0334224 0.046538 -0.00353994)
(-0.0404464 0.0500808 -0.0050485)
(-0.049432 0.0538577 -0.00730958)
(-0.0612794 0.0569023 -0.0101962)
(-0.0772443 0.0562094 -0.0127774)
(-0.097684 0.0449196 -0.0131084)
(-0.1184 0.0132898 -0.00943872)
(-0.127971 -0.0416134 -0.00351604)
(-0.112488 -0.0982923 -0.00302113)
(-0.0711285 -0.108985 -0.0111506)
(-0.0135833 -0.0416264 -0.0135476)
(-0.000425807 0.0181038 -0.00106576)
(-0.00226739 0.0326754 -0.00151329)
(-0.00521739 0.0379692 -0.00157876)
(-0.00825222 0.0398339 -0.00156909)
(-0.0112201 0.0408467 -0.00156883)
(-0.0141718 0.0420367 -0.00162377)
(-0.0172303 0.0438155 -0.0017766)
(-0.0205876 0.0464102 -0.00208455)
(-0.0245127 0.050019 -0.00263073)
(-0.0293822 0.0548469 -0.00352727)
(-0.0357412 0.0610589 -0.00486289)
(-0.0444783 0.0684798 -0.00644732)
(-0.0572411 0.0755244 -0.00723717)
(-0.076568 0.0768587 -0.00492675)
(-0.103898 0.0610772 0.00312455)
(-0.133503 0.0137544 0.0170349)
(-0.149923 -0.0674472 0.029873)
(-0.137268 -0.149647 0.0252416)
(-0.0972949 -0.177093 0.00455524)
(-0.0227304 -0.0993332 -0.0129473)
(-0.000427269 0.019962 -0.0011866)
(-0.00225456 0.036166 -0.00169544)
(-0.00511261 0.0418956 -0.00175334)
(-0.00788329 0.0437222 -0.00171199)
(-0.0103957 0.0446176 -0.00166983)
(-0.0126993 0.0457943 -0.00167894)
(-0.0149083 0.0477675 -0.00178338)
(-0.0171914 0.0508645 -0.0020338)
(-0.0197818 0.0554205 -0.00248824)
(-0.0230169 0.0618231 -0.00317849)
(-0.0274386 0.0704175 -0.00396247)
(-0.0340934 0.0809393 -0.00405122)
(-0.0451365 0.090864 -0.00125091)
(-0.0641357 0.0923636 0.00789392)
(-0.0935639 0.0708343 0.025985)
(-0.128399 0.0102241 0.0503367)
(-0.150804 -0.0884786 0.0654161)
(-0.141042 -0.188683 0.0510489)
(-0.107796 -0.240131 0.022411)
(-0.0244184 -0.181438 -0.00297007)
(-0.000505727 0.0219664 -0.00136461)
(-0.00245543 0.0398041 -0.00194751)
(-0.00531318 0.0457833 -0.0019876)
(-0.00780921 0.0473338 -0.0019005)
(-0.00976753 0.0478672 -0.00179932)
(-0.0112524 0.0487725 -0.00174187)
(-0.0123641 0.0506445 -0.00177234)
(-0.0132167 0.0538768 -0.00192842)
(-0.0139515 0.0588948 -0.00223078)
(-0.014777 0.0661874 -0.00259594)
(-0.0161047 0.0761446 -0.00262646)
(-0.0189246 0.0882917 -0.00096795)
(-0.0257501 0.0993334 0.00540466)
(-0.0409119 0.100082 0.020662)
(-0.0689258 0.0750556 0.0466787)
(-0.107665 0.00872308 0.0762267)
(-0.135191 -0.0977536 0.0856913)
(-0.128457 -0.211609 0.0598815)
(-0.108061 -0.287679 0.0279474)
(-0.0181575 -0.260234 0.00149078)
(-0.000738689 0.0243784 -0.00165187)
(-0.00306707 0.043905 -0.0023417)
(-0.00607805 0.0498608 -0.00235893)
(-0.00829766 0.0507597 -0.0022053)
(-0.00961305 0.0505645 -0.0020187)
(-0.0101449 0.0508395 -0.00187012)
(-0.00998745 0.0522101 -0.00180652)
(-0.00918347 0.0550738 -0.00183917)
(-0.00775102 0.0598605 -0.00197141)
(-0.0057296 0.0670368 -0.00203504)
(-0.0033219 0.0769401 -0.00145375)
(-0.00135608 0.0889749 0.00139018)
(-0.00237331 0.0996551 0.00991414)
(-0.0111426 0.100032 0.0285408)
(-0.0342047 0.0750788 0.058093)
(-0.0729115 0.00941278 0.0863871)
(-0.101569 -0.0999108 0.0869094)
(-0.100804 -0.220705 0.0536247)
(-0.100219 -0.318967 0.0224925)
(-0.0079993 -0.328756 -0.0066814)
(-0.00123269 0.0275233 -0.00211243)
(-0.00434416 0.0485281 -0.00290823)
(-0.00780073 0.0537875 -0.00285259)
(-0.00978589 0.0536184 -0.00262364)
(-0.0103487 0.0524221 -0.00235237)
(-0.00979842 0.0517853 -0.00210924)
(-0.0082669 0.0522882 -0.00194563)
(-0.00573214 0.0542733 -0.0018772)
(-0.00210326 0.0580943 -0.00188485)
(0.00276453 0.0641247 -0.00177311)
(0.00892519 0.0726119 -0.000948918)
(0.0158336 0.0829425 0.00210812)
(0.021356 0.092202 0.0105907)
(0.0212684 0.0930185 0.028728)
(0.00917215 0.0722489 0.0567628)
(-0.0207979 0.0139153 0.080329)
(-0.0480627 -0.0863209 0.0752363)
(-0.0569414 -0.202481 0.0442396)
(-0.0810703 -0.327249 0.0168354)
(0.00686002 -0.381224 -0.018342)
(-0.00233001 0.0320353 -0.00294698)
(-0.00693888 0.0553706 -0.00399959)
(-0.0109502 0.0596714 -0.00395418)
(-0.0124875 0.0573629 -0.00357471)
(-0.0121431 0.0542666 -0.00310466)
(-0.0104536 0.0520969 -0.00268099)
(-0.00757615 0.0512211 -0.00237532)
(-0.0034339 0.0517824 -0.00220516)
(0.00217072 0.0539628 -0.00214985)
(0.00954777 0.0580083 -0.0020337)
(0.0189159 0.0640356 -0.00138977)
(0.0300654 0.071447 0.00101471)
(0.0415228 0.0781306 0.00760239)
(0.0501212 0.078894 0.0216683)
(0.0507792 0.0645183 0.0440298)
(0.0359294 0.019439 0.063083)
(0.0106591 -0.0625347 0.0583758)
(-0.00497844 -0.169276 0.035833)
(-0.0547743 -0.322082 0.0122401)
(0.0273724 -0.417422 -0.0302062)
(-0.00401689 0.0421095 -0.0048264)
(-0.0121073 0.0619097 -0.00568963)
(-0.0173603 0.0609437 -0.00509133)
(-0.0177976 0.0569896 -0.00456371)
(-0.0158156 0.0531549 -0.00399373)
(-0.0126268 0.0501782 -0.00344532)
(-0.00833799 0.048232 -0.00303633)
(-0.0027174 0.0473518 -0.00281799)
(0.00456163 0.047677 -0.00279142)
(0.0139054 0.0493194 -0.00287908)
(0.0255733 0.0523682 -0.00266865)
(0.0395318 0.056294 -0.0013554)
(0.054785 0.0597399 0.00260929)
(0.0689271 0.0591374 0.0112643)
(0.0779262 0.0492281 0.0259184)
(0.0761232 0.01941 0.0401803)
(0.0556475 -0.0414831 0.0394046)
(0.0422447 -0.138158 0.0270945)
(-0.0248088 -0.313179 0.00688286)
(0.0566243 -0.438123 -0.0411766)
(-0.00301918 0.0399881 -0.00573821)
(-0.0132047 0.0801113 -0.00801076)
(-0.0222913 0.0774213 -0.00850991)
(-0.0235672 0.0664923 -0.00773397)
(-0.0209717 0.0580643 -0.00652395)
(-0.0161959 0.0520463 -0.00544359)
(-0.0095446 0.0475189 -0.00468882)
(-0.00115204 0.0440867 -0.00431899)
(0.00888279 0.041836 -0.00431775)
(0.0208649 0.0405419 -0.00463538)
(0.0346419 0.0404171 -0.00496998)
(0.0506223 0.0407595 -0.00482367)
(0.0674295 0.0412945 -0.00321962)
(0.0847097 0.039135 0.000946733)
(0.0966082 0.0320384 0.0088055)
(0.105248 0.0129699 0.018667)
(0.0907594 -0.0292728 0.0208524)
(0.0872744 -0.111199 0.0174774)
(0.0244327 -0.288777 0.000175404)
(0.104285 -0.424204 -0.0513865)
(-0.0942761 0.100064 -0.0184701)
(-0.0716567 0.0750123 -0.0155889)
(-0.0591331 0.056014 -0.0140938)
(-0.0348405 0.0476289 -0.0122452)
(-0.0123297 0.041077 -0.0105073)
(0.00981215 0.0355557 -0.00903937)
(0.0305884 0.0312091 -0.00798291)
(0.0513711 0.0276922 -0.00741546)
(0.0704205 0.0252994 -0.00720345)
(0.0908611 0.0232842 -0.00746071)
(0.108826 0.0222985 -0.00786115)
(0.130343 0.0212941 -0.00848601)
(0.146685 0.0209988 -0.00841799)
(0.16938 0.0198735 -0.00761542)
(0.178701 0.0162222 -0.00475415)
(0.199079 0.00719621 -9.63503e-05)
(0.184841 -0.020281 0.00426534)
(0.196036 -0.0781582 0.00452306)
(0.139421 -0.212858 -0.00706042)
(0.18725 -0.328383 -0.0604408)
(0.133706 0.112382 -0.0182099)
(0.168767 0.0870254 -0.0187627)
(0.230555 0.064429 -0.018236)
(0.286026 0.0500951 -0.0172396)
(0.328443 0.0406227 -0.0158354)
(0.365458 0.0334172 -0.0145588)
(0.394291 0.0279844 -0.0132184)
(0.423795 0.0234385 -0.0123639)
(0.444858 0.020133 -0.0113555)
(0.471046 0.0171235 -0.0110891)
(0.486118 0.0151717 -0.0103421)
(0.511829 0.0130636 -0.0107101)
(0.521253 0.0120477 -0.0098044)
(0.547861 0.0103304 -0.0105082)
(0.548409 0.00965888 -0.0082976)
(0.571562 0.00635097 -0.00904988)
(0.547601 0.00156515 -0.0051312)
(0.543969 -0.0147928 -0.00991039)
(0.442598 -0.044654 -0.0105969)
(0.361622 -0.0951603 -0.0627666)
(-0.00019435 0.000213221 -0.00026762)
(-0.00111525 0.000543149 -0.000330253)
(-0.0026677 0.000670166 -0.000323859)
(-0.00434121 0.000710405 -0.000323276)
(-0.0060482 0.00072983 -0.00034043)
(-0.00776781 0.00074715 -0.000377801)
(-0.00948212 0.000762132 -0.000438662)
(-0.0111616 0.000767423 -0.000528853)
(-0.0127545 0.00075233 -0.000656052)
(-0.0141811 0.000703577 -0.000828474)
(-0.0153297 0.000606078 -0.00105287)
(-0.0160577 0.000445393 -0.00133132)
(-0.0162013 0.000211944 -0.00165693)
(-0.0155954 -9.30095e-05 -0.00200951)
(-0.0141168 -0.000443021 -0.00234563)
(-0.0117525 -0.000779165 -0.00260937)
(-0.00866846 -0.00101101 -0.00273667)
(-0.00524061 -0.0010313 -0.00267388)
(-0.00203402 -0.000737922 -0.00235654)
(-0.000283968 -0.000123771 -0.00147599)
(-0.000565864 0.00126556 -0.000495944)
(-0.00256516 0.00259851 -0.000674146)
(-0.00560742 0.00311806 -0.00069261)
(-0.00886243 0.00329075 -0.000697659)
(-0.0121652 0.00335133 -0.000721078)
(-0.0154534 0.00337361 -0.00077279)