/*--------------------------------*- C++ -*----------------------------------*\
  =========                 |
  \\      /  F ield         | OpenFOAM: The Open Source CFD Toolbox
   \\    /   O peration     | Website:  https://openfoam.org
    \\  /    A nd           | Version:  10
     \\/     M anipulation  |
\*---------------------------------------------------------------------------*/
FoamFile
{
    format      ascii;
    class       surfaceScalarField;
    location    "0.45";
    object      phi;
}
// * * * * * * * * * * * * * * * * * * * * * * * * * * * * * * * * * * * * * //

dimensions      [0 3 -1 0 0 0 0];

internalField   nonuniform List<scalar> 
760
(
-7.69909e-06
7.69909e-06
-1.59193e-05
8.22021e-06
-2.3744e-05
7.82466e-06
-3.09526e-05
7.20863e-06
-3.73664e-05
6.41385e-06
-4.2832e-05
5.46553e-06
-4.72227e-05
4.39076e-06
-5.04401e-05
3.21741e-06
-5.24134e-05
1.97325e-06
-5.3099e-05
6.85558e-07
-5.24802e-05
-6.18776e-07
-5.05674e-05
-1.91282e-06
-4.73982e-05
-3.16916e-06
-4.30387e-05
-4.35947e-06
-3.75842e-05
-5.4545e-06
-3.11598e-05
-6.42447e-06
-2.39196e-05
-7.24016e-06
-1.60455e-05
-7.87413e-06
-7.76322e-06
-8.28224e-06
-7.76322e-06
-8.61649e-06
1.63156e-05
-1.77831e-05
1.73868e-05
-2.65053e-05
1.6547e-05
-3.45363e-05
1.52396e-05
-4.16766e-05
1.35542e-05
-4.77566e-05
1.15455e-05
-5.26375e-05
9.27171e-06
-5.62121e-05
6.79195e-06
-5.84035e-05
4.16469e-06
-5.91649e-05
1.44692e-06
-5.84782e-05
-1.30548e-06
-5.63544e-05
-4.03662e-06
-5.2834e-05
-6.68957e-06
-4.79883e-05
-9.20517e-06
-4.19209e-05
-1.15219e-05
-3.47689e-05
-1.35764e-05
-2.67028e-05
-1.53063e-05
-1.7925e-05
-1.66519e-05
-8.68869e-06
-1.75186e-05
-1.64519e-05
-9.06595e-06
2.53815e-05
-1.87078e-05
2.70286e-05
-2.78722e-05
2.57113e-05
-3.62986e-05
2.3666e-05
-4.37791e-05
2.10347e-05
-5.01391e-05
1.79055e-05
-5.52381e-05
1.43708e-05
-5.89692e-05
1.0523e-05
-6.12565e-05
6.45206e-06
-6.20542e-05
2.24457e-06
-6.13441e-05
-2.01556e-06
-5.91362e-05
-6.24451e-06
-5.54691e-05
-1.03567e-05
-5.04121e-05
-1.42622e-05
-4.40677e-05
-1.78663e-05
-3.65741e-05
-2.107e-05
-2.81065e-05
-2.37739e-05
-1.88765e-05
-2.58819e-05
-9.15189e-06
-2.72432e-05
-2.56038e-05
-9.73819e-06
3.51197e-05
-2.00873e-05
3.73777e-05
-2.99077e-05
3.55317e-05
-3.89172e-05
3.26756e-05
-4.68954e-05
2.90128e-05
-5.36617e-05
2.46719e-05
-5.9075e-05
1.9784e-05
-6.30303e-05
1.44783e-05
-6.54551e-05
8.87682e-06
-6.63055e-05
3.09498e-06
-6.55639e-05
-2.75716e-06
-6.32382e-05
-8.57019e-06
-5.93631e-05
-1.42318e-05
-5.40033e-05
-1.96221e-05
-4.72576e-05
-2.46119e-05
-3.92642e-05
-2.90634e-05
-3.02038e-05
-3.28343e-05
-2.03011e-05
-3.57845e-05
-9.84726e-06
-3.76971e-05
-3.54511e-05
-1.06801e-05
4.57998e-05
-2.20162e-05
4.87139e-05
-3.27465e-05
4.6262e-05
-4.25582e-05
4.24873e-05
-5.12144e-05
3.7669e-05
-5.85288e-05
3.19863e-05
-6.43619e-05
2.56171e-05
-6.86146e-05
1.8731e-05
-7.1221e-05
1.14832e-05
-7.2142e-05
4.01592e-06
-7.13608e-05
-3.53836e-06
-6.88821e-05
-1.10488e-05
-6.47338e-05
-1.83801e-05
-5.89713e-05
-2.53845e-05
-5.16859e-05
-3.18974e-05
-4.3012e-05
-3.77373e-05
-3.31355e-05
-4.27109e-05
-2.22981e-05
-4.66219e-05
-1.08242e-05
-4.9171e-05
-4.62752e-05
-1.19316e-05
5.77314e-05
-2.45729e-05
6.13552e-05
-3.64956e-05
5.81847e-05
-4.73457e-05
5.33374e-05
-5.68672e-05
4.71905e-05
-6.48706e-05
3.99897e-05
-7.12242e-05
3.19707e-05
-7.58416e-05
2.33484e-05
-7.86696e-05
1.43113e-05
-7.9678e-05
5.02429e-06
-7.88522e-05
-4.36409e-06
-7.6192e-05
-1.37091e-05
-7.17132e-05
-2.2859e-05
-6.54555e-05
-3.16421e-05
-5.7494e-05
-3.98589e-05
-4.79527e-05
-4.72786e-05
-3.70189e-05
-5.36446e-05
-2.49541e-05
-5.86868e-05
-1.2127e-05
-6.19981e-05
-5.84023e-05
-1.35511e-05
7.12825e-05
-2.78698e-05
7.5674e-05
-4.13051e-05
7.16199e-05
-5.34496e-05
6.54819e-05
-6.40279e-05
5.77689e-05
-7.28549e-05
4.88167e-05
-7.98178e-05
3.89336e-05
-8.48551e-05
2.83856e-05
-8.79364e-05
1.73926e-05
-8.90469e-05
6.13483e-06
-8.81767e-05
-5.23432e-06
-8.53176e-05
-1.65682e-05
-8.04664e-05
-2.77102e-05
-7.36357e-05
-3.84728e-05
-6.4871e-05
-4.86236e-05
-5.42726e-05
-5.78769e-05
-4.20203e-05
-6.5897e-05
-2.83942e-05
-7.23128e-05
-1.38211e-05
-7.65712e-05
-7.22234e-05
-1.56242e-05
8.69067e-05
-3.20695e-05
9.21193e-05
-4.73868e-05
8.69372e-05
-6.11027e-05
7.91978e-05
-7.29272e-05
6.95934e-05
-8.26952e-05
5.85847e-05
-9.0333e-05
4.65713e-05
-9.58232e-05
3.38759e-05
-9.91746e-05
2.07439e-05
-0.000100398
7.35795e-06
-9.94906e-05
-6.14136e-06
-9.6434e-05
-1.96248e-05
-9.11948e-05
-3.29494e-05
-8.37414e-05
-4.59262e-05
-7.40679e-05
-5.82971e-05
-6.22281e-05
-6.97167e-05
-4.83751e-05
-7.975e-05
-3.28007e-05
-8.78872e-05
-1.60032e-05
-9.33687e-05
-8.82265e-05
-1.82797e-05
0.000105186
-3.74097e-05
0.000111249
-5.50412e-05
0.000104569
-7.0623e-05
9.47796e-05
-8.38667e-05
8.28371e-05
-9.4657e-05
6.9375e-05
-0.000102993
5.49071e-05
-0.000108932
3.98147e-05
-0.000112544
2.43568e-05
-0.000113883
8.69617e-06
-0.000112958
-7.06618e-06
-0.000109734
-2.28483e-05
-0.000104135
-3.85491e-05
-9.60579e-05
-5.4003e-05
-8.54137e-05
-6.89413e-05
-7.21707e-05
-8.29597e-05
-5.64196e-05
-9.55012e-05
-3.84427e-05
-0.000105864
-1.882e-05
-0.000112991
-0.000107047
-2.1717e-05
0.000126903
-4.42465e-05
0.000133779
-6.47001e-05
0.000125022
-8.24473e-05
0.000112527
-9.72394e-05
9.76292e-05
-0.000109065
8.12006e-05
-0.00011805
6.38917e-05
-0.000124371
4.61363e-05
-0.000128197
2.81823e-05
-0.000129639
1.01385e-05
-0.000128732
-7.97353e-06
-0.000125416
-2.61636e-05
-0.000119552
-4.44136e-05
-0.000110934
-6.26213e-05
-9.9337e-05
-8.05379e-05
-8.45844e-05
-9.77123e-05
-6.66395e-05
-0.000113446
-4.57261e-05
-0.000126777
-2.25024e-05
-0.000136215
-0.000129549
-2.62605e-05
0.000153164
-5.31261e-05
0.000160644
-7.69937e-05
0.00014889
-9.71794e-05
0.000132712
-0.000113556
0.000114005
-0.000126309
9.39538e-05
-0.000135775
7.33576e-05
-0.000142317
5.26786e-05
-0.000146244
3.21097e-05
-0.000147758
1.16525e-05
-0.000146925
-8.80695e-06
-0.000143659
-2.94298e-05
-0.000137729
-5.03431e-05
-0.000128783
-7.15675e-05
-0.000116393
-9.29284e-05
-0.000100139
-0.000113966
-7.97482e-05
-0.000133837
-5.52807e-05
-0.000151245
-2.74322e-05
-0.000164064
-0.000156981
-3.24709e-05
0.000185635
-6.49117e-05
0.000193085
-9.28577e-05
0.000176836
-0.000115659
0.000155514
-0.000133474
0.00013182
-0.000146843
0.000107323
-0.000156437
8.29507e-05
-0.000162894
5.91356e-05
-0.000166723
3.59395e-05
-0.000168246
1.31751e-05
-0.00016757
-9.4833e-06
-0.000164579
-3.242e-05
-0.000158935
-5.59871e-05
-0.000150082
-8.04208e-05
-0.000137291
-0.00010572
-0.000119766
-0.00013149
-9.68092e-05
-0.000156794
-6.81114e-05
-0.000179943
-3.42863e-05
-0.000197889
-0.000191267
-4.13744e-05
0.000227009
-8.10023e-05
0.000232713
-0.000113699
0.000209532
-0.000139055
0.00018087
-0.000157831
0.000150596
-0.000171164
0.000120656
-0.000180251
9.20377e-05
-0.000186122
6.50074e-05
-0.000189539
3.93559e-05
-0.000190963
1.45995e-05
-0.000190558
-9.88819e-06
-0.000188181
-3.47974e-05
-0.000183369
-6.07991e-05
-0.000175325
-8.8465e-05
-0.000162917
-0.000118127
-0.000144754
-0.000149653
-0.000119426
-0.000182123
-8.58598e-05
-0.000213509
-4.43107e-05
-0.000239438
-0.000235578
-5.48578e-05
0.000281867
-0.00010371
0.000281565
-0.000141647
0.00024747
-0.000168981
0.000208204
-0.000187622
0.000169237
-0.000199745
0.00013278
-0.000207316
9.96089e-05
-0.000211849
6.95403e-05
-0.00021439
4.18961e-05
-0.000215554
1.57635e-05
-0.000215565
-9.87685e-06
-0.000214264
-3.60985e-05
-0.000211077
-6.3986e-05
-0.000204954
-9.45883e-05
-0.000194284
-0.000128797
-0.000176859
-0.000167079
-0.000150027
-0.000208954
-0.000111265
-0.000252271
-5.98452e-05
-0.000290858
-0.000295423
-7.66255e-05
0.000358492
-0.000136955
0.000341895
-0.000179933
0.000290448
-0.000207551
0.000235822
-0.000223941
0.000185627
-0.000232942
0.00014178
-0.000237492
0.000104159
-0.000239633
7.16817e-05
-0.000240673
4.29358e-05
-0.00024135
1.64407e-05
-0.000241942
-9.28442e-06
-0.000242302
-3.57388e-05
-0.000241803
-6.44849e-05
-0.000239208
-9.7184e-05
-0.000232437
-0.000135567
-0.000218298
-0.000181217
-0.000192286
-0.000234966
-0.000149018
-0.000295539
-8.5632e-05
-0.000354243
-0.000381055
-0.000114945
0.000473438
-0.000187574
0.000414523
-0.000233303
0.000336177
-0.000257323
0.000259842
-0.000267781
0.000196084
-0.000270735
0.000144735
-0.00027019
0.000103613
-0.000268602
7.00943e-05
-0.000267396
4.17293e-05
-0.00026731
1.63547e-05
-0.000268636
-7.95848e-06
-0.000271293
-3.30819e-05
-0.000274755
-6.10228e-05
-0.000277812
-9.41269e-05
-0.000278139
-0.00013524
-0.000271629
-0.000187727
-0.000251424
-0.000255171
-0.000207083
-0.00033988
-0.000131742
-0.000429585
-0.000512797
-0.000179776
0.000653213
-0.000264787
0.000499535
-0.000307873
0.000379262
-0.000320903
0.000272872
-0.000319422
0.000194603
-0.000312216
0.000137529
-0.000304034
9.54315e-05
-0.000297266
6.33264e-05
-0.000293039
3.7503e-05
-0.000291883
1.51983e-05
-0.000294037
-5.80407e-06
-0.000299555
-2.75639e-05
-0.000308225
-5.23534e-05
-0.000319334
-8.30178e-05
-0.000331021
-0.000123553
-0.000339005
-0.000179744
-0.000334248
-0.000259928
-0.000297257
-0.000376871
-0.000217188
-0.000509654
-0.000729985
-0.00034632
0.000999534
-0.00040137
0.000554585
-0.000412572
0.000390464
-0.000397753
0.000258052
-0.000374337
0.000171188
-0.000351613
0.000114804
-0.000333049
7.68681e-05
-0.000319691
4.99686e-05
-0.000311735
2.9546e-05
-0.000309152
1.2616e-05
-0.000312031
-2.92572e-06
-0.000320623
-1.89712e-05
-0.000335292
-3.76846e-05
-0.000356444
-6.18659e-05
-0.000383974
-9.60233e-05
-0.00041621
-0.000147508
-0.000446745
-0.000229392
-0.000445977
-0.00037764
-0.000393587
-0.000562044
-0.00112357
-0.000471413
0.00147095
-0.000473028
0.0005562
-0.000428406
0.000345843
-0.000364486
0.000194132
-0.000305831
0.000112533
-0.000260606
6.95787e-05
-0.000228032
4.42949e-05
-0.000206099
2.80355e-05
-0.000193118
1.65643e-05
-0.00018803
7.52858e-06
-0.000190368
-5.879e-07
-0.000200504
-8.83537e-06
-0.000219334
-1.88542e-05
-0.000248357
-3.28427e-05
-0.000289179
-5.52019e-05
-0.00034104
-9.56469e-05
-0.000397934
-0.000172498
-0.000433742
-0.000341832
-0.0004113
-0.000584485
-0.00153487
0.00147095
0.00202715
0.00237299
0.00256712
0.00267965
0.00274923
0.00279353
0.00282156
0.00283813
0.00284566
0.00284507
0.00283623
0.00281738
0.00278454
0.00272933
0.00263369
0.00246119
0.00211936
0.00153487
)
;

boundaryField
{
    movingWall
    {
        type            calculated;
        value           uniform 0;
    }
    fixedWalls
    {
        type            calculated;
        value           uniform 0;
    }
    frontAndBack
    {
        type            empty;
        value           nonuniform List<scalar> 0();
    }
}


// ************************************************************************* //
