/*--------------------------------*- C++ -*----------------------------------*\
  =========                 |
  \\      /  F ield         | OpenFOAM: The Open Source CFD Toolbox
   \\    /   O peration     | Website:  https://openfoam.org
    \\  /    A nd           | Version:  10
     \\/     M anipulation  |
\*---------------------------------------------------------------------------*/
FoamFile
{
    format      ascii;
    class       volVectorField;
    location    "2.475";
    object      U;
}
// * * * * * * * * * * * * * * * * * * * * * * * * * * * * * * * * * * * * * //

dimensions      [0 1 -1 0 0 0 0];

internalField   nonuniform List<vector> 
400
(
(-0.00024908 0.000246969 0)
(-0.00110924 0.000423676 0)
(-0.00225554 0.000437521 0)
(-0.00330093 0.000416132 0)
(-0.00428045 0.000383013 0)
(-0.00516445 0.000340934 0)
(-0.00593002 0.000290333 0)
(-0.00655737 0.000231558 0)
(-0.00702806 0.000165135 0)
(-0.0073256 9.18597e-05 0)
(-0.00743601 1.30014e-05 0)
(-0.00734791 -7.09564e-05 0)
(-0.00705394 -0.000157411 0)
(-0.00655248 -0.000243901 0)
(-0.00584813 -0.000327374 0)
(-0.00495289 -0.000404211 0)
(-0.00388908 -0.000470055 0)
(-0.0026981 -0.000517523 0)
(-0.0013551 -0.000516428 0)
(-0.000316147 -0.000317587 0)
(-0.000439652 0.00111145 0)
(-0.0017859 0.00173511 0)
(-0.00349756 0.00177436 0)
(-0.00506609 0.00168147 0)
(-0.00652861 0.00153946 0)
(-0.0078413 0.00136012 0)
(-0.00896997 0.00114662 0)
(-0.00988593 0.000901667 0)
(-0.0105634 0.000628356 0)
(-0.0109798 0.000330385 0)
(-0.0111179 1.19903e-05 0)
(-0.0109634 -0.000321002 0)
(-0.010507 -0.000660484 0)
(-0.00974917 -0.000997189 0)
(-0.00869825 -0.00131973 0)
(-0.00737276 -0.00161464 0)
(-0.00580582 -0.00186573 0)
(-0.00405504 -0.00204534 0)
(-0.002097 -0.00204733 0)
(-0.000525297 -0.00134969 0)
(-0.000486336 0.00232215 0)
(-0.00196485 0.00348962 0)
(-0.00383632 0.00355197 0)
(-0.00554882 0.00336029 0)
(-0.0071444 0.00306997 0)
(-0.00857611 0.0027047 0)
(-0.00980754 0.00227192 0)
(-0.0108082 0.00177797 0)
(-0.0115509 0.00122971 0)
(-0.0120122 0.000634879 0)
(-0.0121724 2.34162e-06 0)
(-0.0120146 -0.00065645 0)
(-0.0115289 -0.00132686 0)
(-0.0107136 -0.00199079 0)
(-0.00957534 -0.00262628 0)
(-0.00813159 -0.0032073 0)
(-0.00641627 -0.00370229 0)
(-0.00449135 -0.00405738 0)
(-0.00232998 -0.00407304 0)
(-0.000586404 -0.00276886 0)
(-0.000515634 0.00354469 0)
(-0.00208895 0.00527676 0)
(-0.00408231 0.00536185 0)
(-0.00590458 0.0050695 0)
(-0.00760361 0.0046299 0)
(-0.00913057 0.00407836 0)
(-0.010448 0.00342638 0)
(-0.0115246 0.00268366 0)
(-0.0123321 0.00186037 0)
(-0.0128456 0.00096774 0)
(-0.0130442 1.90114e-05 0)
(-0.0129078 -0.000970253 0)
(-0.0124214 -0.00197998 0)
(-0.0115793 -0.00298386 0)
(-0.0103833 -0.00394921 0)
(-0.00884695 -0.00483652 0)
(-0.00700204 -0.00559704 0)
(-0.00491433 -0.00614747 0)
(-0.00255364 -0.00618696 0)
(-0.000642638 -0.00424281 0)
(-0.000553412 0.00485151 0)
(-0.00224755 0.00719008 0)
(-0.00439659 0.00729916 0)
(-0.0063599 0.0068998 0)
(-0.00819202 0.00630244 0)
(-0.00984197 0.00555501 0)
(-0.0112712 0.00467338 0)
(-0.012448 0.00367064 0)
(-0.0133433 0.00255992 0)
(-0.0139307 0.00135518 0)
(-0.0141861 7.22342e-05 0)
(-0.014086 -0.00126916 0)
(-0.0136099 -0.00264473 0)
(-0.0127438 -0.0040212 0)
(-0.0114817 -0.0053552 0)
(-0.00982956 -0.00659217 0)
(-0.00781428 -0.00766251 0)
(-0.00550545 -0.00844643 0)
(-0.00286937 -0.00852605 0)
(-0.00072322 -0.00587779 0)
(-0.000603492 0.00626922 0)
(-0.0024559 0.00926957 0)
(-0.00480777 0.0094042 0)
(-0.0069542 0.00888917 0)
(-0.00895824 0.00812277 0)
(-0.0107664 0.00716704 0)
(-0.0123395 0.00604273 0)
(-0.0136456 0.00476634 0)
(-0.0146552 0.00335356 0)
(-0.0153409 0.00182008 0)
(-0.0156758 0.00018302 0)
(-0.0156316 -0.00153683 0)
(-0.0151798 -0.00331235 0)
(-0.0142954 -0.00510486 0)
(-0.0129599 -0.00686115 0)
(-0.0111662 -0.00851006 0)
(-0.00893128 -0.00995623 0)
(-0.00632666 -0.0110327 0)
(-0.00331305 -0.0111803 0)
(-0.000838066 -0.00774191 0)
(-0.000667261 0.00782843 0)
(-0.00272014 0.0115599 0)
(-0.00532751 0.011721 0)
(-0.00770269 0.0110782 0)
(-0.00991991 0.0101277 0)
(-0.011923 0.0089476 0)
(-0.0136727 0.00756458 0)
(-0.0151379 0.00599873 0)
(-0.0162903 0.00426767 0)
(-0.0171019 0.00238745 0)
(-0.0175435 0.000374257 0)
(-0.017582 -0.00175261 0)
(-0.0171785 -0.00396733 0)
(-0.0162932 -0.00622923 0)
(-0.0148884 -0.00847756 0)
(-0.0129357 -0.0106241 0)
(-0.0104324 -0.0125415 0)
(-0.00744609 -0.0140005 0)
(-0.00392712 -0.0142633 0)
(-0.000999742 -0.0099241 0)
(-0.000746421 0.00956487 0)
(-0.0030474 0.0141131 0)
(-0.00596898 0.0142997 0)
(-0.00862194 0.013512 0)
(-0.0110952 0.0123569 0)
(-0.0133301 0.0109318 0)
(-0.0152886 0.00927055 0)
(-0.0169426 0.00739736 0)
(-0.0182667 0.00533128 0)
(-0.0192344 0.00308697 0)
(-0.0198159 0.000676722 0)
(-0.0199733 -0.00188582 0)
(-0.0196565 -0.00458183 0)
(-0.0188058 -0.00737481 0)
(-0.0173562 -0.0102022 0)
(-0.0152444 -0.0129611 0)
(-0.0124316 -0.0154866 0)
(-0.0089668 -0.017466 0)
(-0.00478026 -0.0179248 0)
(-0.00123031 -0.0125484 0)
(-0.000843669 0.0115193 0)
(-0.00344811 0.016988 0)
(-0.0067506 0.0171955 0)
(-0.00973427 0.0162383 0)
(-0.0125075 0.0148508 0)
(-0.01501 0.0131539 0)
(-0.0172073 0.0111909 0)
(-0.0190774 0.00899109 0)
(-0.0206009 0.00657439 0)
(-0.0217566 0.00395215 0)
(-0.0225164 0.00112912 0)
(-0.0228406 -0.00189245 0)
(-0.0226676 -0.00510904 0)
(-0.0219137 -0.00849846 0)
(-0.0204766 -0.0120076 0)
(-0.0182389 -0.0155281 0)
(-0.0150976 -0.0188564 0)
(-0.0110509 -0.02157 0)
(-0.00599021 -0.0223648 0)
(-0.00157148 -0.0157965 0)
(-0.000963467 0.0137404 0)
(-0.00393808 0.0202531 0)
(-0.00769897 0.0204699 0)
(-0.0110707 0.0193073 0)
(-0.014188 0.0176492 0)
(-0.0169907 0.0156457 0)
(-0.0194517 0.0133525 0)
(-0.0215595 0.0108056 0)
(-0.0233059 0.00802581 0)
(-0.0246799 0.0050191 0)
(-0.0256606 0.00177845 0)
(-0.0262116 -0.00171236 0)
(-0.0262626 -0.00547641 0)
(-0.0257047 -0.00952143 0)
(-0.0243883 -0.0138242 0)
(-0.0221183 -0.0182918 0)
(-0.0186823 -0.022695 0)
(-0.0139594 -0.0264787 0)
(-0.00776969 -0.0278561 0)
(-0.0021077 -0.0199548 0)
(-0.00111355 0.0162888 0)
(-0.00454205 0.0239907 0)
(-0.0088533 0.0241926 0)
(-0.0126752 0.0227718 0)
(-0.0161788 0.0207896 0)
(-0.0193077 0.0184331 0)
(-0.0220479 0.0157748 0)
(-0.0244046 0.0128594 0)
(-0.0263879 0.00970917 0)
(-0.0280043 0.00632302 0)
(-0.0292482 0.00267811 0)
(-0.0300957 -0.00126749 0)
(-0.0304769 -0.00557868 0)
(-0.0302619 -0.0103137 0)
(-0.0292504 -0.0155133 0)
(-0.0271438 -0.0211428 0)
(-0.0235608 -0.0269879 0)
(-0.0181233 -0.0323689 0)
(-0.0105264 -0.0347725 0)
(-0.00302192 -0.0255105 0)
(-0.00130806 0.0192459 0)
(-0.0053 0.0283024 0)
(-0.0102725 0.0284431 0)
(-0.0146108 0.0266853 0)
(-0.0185374 0.0243041 0)
(-0.0220068 0.0215323 0)
(-0.0250261 0.0184646 0)
(-0.0276258 0.0151578 0)
(-0.029843 0.0116365 0)
(-0.0317116 0.00789196 0)
(-0.0332518 0.00388176 0)
(-0.0344689 -0.000471878 0)
(-0.0353095 -0.00527396 0)
(-0.0356401 -0.0106763 0)
(-0.0352224 -0.0168295 0)
(-0.0336408 -0.0238321 0)
(-0.0302844 -0.0315841 0)
(-0.024271 -0.0393647 0)
(-0.0150875 -0.0436071 0)
(-0.00473301 -0.033359 0)
(-0.0015751 0.0227315 0)
(-0.00627974 0.0333239 0)
(-0.0120458 0.0333155 0)
(-0.0169687 0.0311007 0)
(-0.0213435 0.0282142 0)
(-0.0251488 0.0249426 0)
(-0.0284233 0.0214087 0)
(-0.0312336 0.0176843 0)
(-0.0336546 0.0137987 0)
(-0.03576 0.0097368 0)
(-0.037613 0.0054366 0)
(-0.0392524 0.000784381 0)
(-0.0406827 -0.0043816 0)
(-0.0418193 -0.0103205 0)
(-0.0424146 -0.0173632 0)
(-0.0419702 -0.0258594 0)
(-0.0396265 -0.0360288 0)
(-0.0336428 -0.0473572 0)
(-0.0231858 -0.0548467 0)
(-0.00824239 -0.0453995 0)
(-0.00197152 0.0268312 0)
(-0.00760698 0.0391776 0)
(-0.0143178 0.0388976 0)
(-0.0198835 0.0360606 0)
(-0.0247079 0.032523 0)
(-0.0288143 0.0286379 0)
(-0.0322857 0.0245636 0)
(-0.0352367 0.0203898 0)
(-0.0377912 0.0161522 0)
(-0.0400743 0.0118336 0)
(-0.0422048 0.00736049 0)
(-0.0442877 0.00259835 0)
(-0.0464153 -0.00267896 0)
(-0.0486239 -0.00886299 0)
(-0.0507745 -0.0164907 0)
(-0.0524181 -0.0263228 0)
(-0.0525656 -0.0392605 0)
(-0.0482027 -0.0555922 0)
(-0.0383763 -0.0686304 0)
(-0.0160127 -0.0653202 0)
(-0.00253086 0.0324285 0)
(-0.00934855 0.0462356 0)
(-0.0172472 0.0453119 0)
(-0.0235295 0.0415363 0)
(-0.0287791 0.0371641 0)
(-0.0331102 0.0325427 0)
(-0.0366715 0.0278463 0)
(-0.0396432 0.0231835 0)
(-0.0422065 0.0186047 0)
(-0.0445444 0.0140969 0)
(-0.0468372 0.00957865 0)
(-0.0492758 0.00487928 0)
(-0.052121 -0.00027622 0)
(-0.0556011 -0.00629358 0)
(-0.0598486 -0.0138545 0)
(-0.0648452 -0.0242593 0)
(-0.0699043 -0.039343 0)
(-0.0702936 -0.0617762 0)
(-0.0654632 -0.0836689 0)
(-0.0310465 -0.0999041 0)
(-0.00425014 0.0371958 0)
(-0.0130019 0.0548778 0)
(-0.0214221 0.0530705 0)
(-0.0282351 0.0482234 0)
(-0.0337122 0.0426016 0)
(-0.0381253 0.0368282 0)
(-0.0416208 0.0312318 0)
(-0.0444317 0.0259511 0)
(-0.046804 0.0210234 0)
(-0.0489959 0.0164242 0)
(-0.0512836 0.0121025 0)
(-0.0539636 0.00795506 0)
(-0.0573578 0.00381368 0)
(-0.061897 -0.00069165 0)
(-0.0683127 -0.00645445 0)
(-0.0773385 -0.0153725 0)
(-0.0897197 -0.0306145 0)
(-0.097883 -0.0616897 0)
(-0.10309 -0.100669 0)
(-0.0466543 -0.163901 0)
(-0.00325362 0.0523396 0)
(-0.0135334 0.0613115 0)
(-0.0264023 0.0582252 0)
(-0.0341092 0.0514461 0)
(-0.0400727 0.0451535 0)
(-0.0442484 0.0390203 0)
(-0.0471138 0.0331984 0)
(-0.0491684 0.0277568 0)
(-0.0507777 0.0227503 0)
(-0.0522254 0.0181921 0)
(-0.053773 0.014094 0)
(-0.0557163 0.0103876 0)
(-0.058547 0.00705474 0)
(-0.0630851 0.00378333 0)
(-0.070693 0.000164258 0)
(-0.0826103 -0.00625664 0)
(-0.10367 -0.0192456 0)
(-0.115861 -0.059625 0)
(-0.130173 -0.129531 0)
(-0.0356548 -0.263031 0)
(-0.0119087 0.0470377 0)
(-0.0307064 0.0852543 0)
(-0.0337796 0.0770069 0)
(-0.0421297 0.0676732 0)
(-0.0452504 0.0572603 0)
(-0.0468575 0.0473616 0)
(-0.0471494 0.0386823 0)
(-0.046778 0.0313513 0)
(-0.0461363 0.0252764 0)
(-0.0455235 0.0202787 0)
(-0.045288 0.0163591 0)
(-0.0456356 0.0134372 0)
(-0.0471152 0.0118984 0)
(-0.0498098 0.0120032 0)
(-0.055547 0.0146393 0)
(-0.0616131 0.0159912 0)
(-0.0785157 0.0123174 0)
(-0.071985 -0.0444357 0)
(-0.0977743 -0.158305 0)
(0.0149468 -0.349876 0)
(-0.0720203 0.111386 0)
(-0.0556791 0.0691922 0)
(-0.054861 0.0631055 0)
(-0.0374969 0.0526868 0)
(-0.0223529 0.042595 0)
(-0.00779338 0.0345208 0)
(0.00526715 0.0281585 0)
(0.0165668 0.0229449 0)
(0.0259587 0.0186754 0)
(0.0338436 0.0151248 0)
(0.0400211 0.0126052 0)
(0.0456792 0.0105253 0)
(0.049699 0.0100918 0)
(0.0558522 0.00958857 0)
(0.0580274 0.011471 0)
(0.0756666 0.00818924 0)
(0.0649625 -0.00405637 0)
(0.111375 -0.0643953 0)
(0.0444647 -0.216713 0)
(0.0934511 -0.38094 0)
(0.125095 0.14287 0)
(0.16351 0.0885001 0)
(0.244734 0.0645038 0)
(0.300145 0.0482273 0)
(0.341643 0.0362563 0)
(0.374181 0.0270768 0)
(0.399873 0.0202211 0)
(0.420402 0.0151544 0)
(0.435918 0.0115711 0)
(0.449565 0.00880859 0)
(0.457701 0.00694374 0)
(0.469918 0.00555085 0)
(0.470048 0.00401904 0)
(0.487746 0.00442736 0)
(0.475333 0.000930586 0)
(0.505135 0.00383441 0)
(0.46872 -0.00765358 0)
(0.492035 -0.0193389 0)
(0.362718 -0.055587 0)
(0.260568 -0.142344 0)
)
;

boundaryField
{
    movingWall
    {
        type            fixedValue;
        value           uniform (1 0 0);
    }
    fixedWalls
    {
        type            noSlip;
    }
    frontAndBack
    {
        type            empty;
    }
}


// ************************************************************************* //
