/*--------------------------------*- C++ -*----------------------------------*\
  =========                 |
  \\      /  F ield         | OpenFOAM: The Open Source CFD Toolbox
   \\    /   O peration     | Website:  https://openfoam.org
    \\  /    A nd           | Version:  10
     \\/     M anipulation  |
\*---------------------------------------------------------------------------*/
FoamFile
{
    format      ascii;
    class       surfaceScalarField;
    location    "0.7";
    object      phi;
}
// * * * * * * * * * * * * * * * * * * * * * * * * * * * * * * * * * * * * * //

dimensions      [0 3 -1 0 0 0 0];

internalField   nonuniform List<scalar> 
890
(
0.00970675
0.00029325
0.0100059
-0.000299139
0.009516
0.000489893
0.0100083
-0.000492277
-0.000360453
0.0103687
0.0102585
3.47728e-05
0.0100911
-0.000131792
0.0105624
1.86628e-05
0.0104383
-0.000368226
-0.000598376
0.0106762
0.0100567
-2.1881e-05
0.0101244
-0.000199588
0.0103813
-0.000238231
0.0103929
-0.000379774
-0.000610847
0.0104054
0.0101137
-0.000135617
0.0101898
-0.000275675
0.0102176
-0.000266032
0.0102282
-0.000390369
-0.000543472
0.0101608
0.00986438
0.00958871
0.00932268
0.00893231
0.00838884
0.0108066
-0.00100113
0.000563296
0.0109572
-0.00266289
0.00251222
0.0110016
-0.00417776
0.00413339
0.0106109
-0.00397588
0.00436661
0.00958823
-0.00266862
0.00369126
0.00827549
-0.00153336
0.0028461
0.00712373
-0.000917705
0.00206946
0.00632652
-0.000656222
0.00145343
0.00584662
-0.00052762
0.00100752
0.00557894
-0.000430877
0.000698555
0.00543494
-0.000342955
0.000486954
0.005358
-0.000264697
0.000341639
0.00531604
-0.000199087
0.000241046
0.00529223
-0.000146926
0.000170733
0.0052781
-0.000107054
0.000121188
0.00526936
-7.73565e-05
8.60995e-05
0.00526376
-5.55893e-05
6.11832e-05
0.00526009
-3.97942e-05
4.34671e-05
0.00525763
-2.84089e-05
3.08654e-05
0.00525597
-2.02406e-05
2.19035e-05
0.00525484
-1.43987e-05
1.55339e-05
0.00525405
-1.02288e-05
1.101e-05
0.00525351
-7.2556e-06
7.79859e-06
0.00525313
-5.13848e-06
5.51942e-06
0.00525286
-3.63405e-06
3.90242e-06
0.00525267
-2.56779e-06
2.7561e-06
0.00525254
-1.81382e-06
1.94483e-06
0.00525245
-1.28116e-06
1.37197e-06
0.00525239
-9.04402e-07
9.67731e-07
0.00525234
-6.37185e-07
6.82209e-07
0.00525231
-4.47347e-07
4.80284e-07
0.00525229
-3.12832e-07
3.37333e-07
0.00525227
-2.18057e-07
2.3588e-07
0.00525226
-1.51866e-07
1.63778e-07
0.00525225
-1.06129e-07
1.13877e-07
0.00525224
-7.46555e-08
7.93967e-08
0.00525224
-5.29135e-08
5.57512e-08
0.00525224
-3.75405e-08
3.94994e-08
0.00525224
-2.68396e-08
2.87112e-08
0.00525224
-1.93538e-08
2.12799e-08
0.00525223
-1.45446e-08
1.61928e-08
0.00525223
-1.23532e-08
1.38506e-08
0.00525223
-9.50695e-09
1.05323e-08
0.00525223
-1.12894e-08
1.1336e-08
-1.46878e-08
1.38456e-08
0.0106406
-0.000965502
0.0096614
-0.00168369
0.00761525
-0.00213161
0.00592782
-0.00228844
0.00530728
-0.00204808
0.00530077
-0.00152685
0.0054311
-0.00104803
0.00551016
-0.000735282
0.00552206
-0.000539527
0.00549302
-0.000401837
0.00544758
-0.000297514
0.00540129
-0.0002184
0.0053617
-0.000159506
0.00533092
-0.000116139
0.00530818
-8.43142e-05
0.00529182
-6.09968e-05
0.00528019
-4.39586e-05
0.00527196
-3.15668e-05
0.00526615
-2.25988e-05
0.00526205
-1.61372e-05
0.00525914
-1.14974e-05
0.00525709
-8.17433e-06
0.00525563
-5.7998e-06
0.0052546
-4.10739e-06
0.00525387
-2.90464e-06
0.00525336
-2.05214e-06
0.00525299
-1.44885e-06
0.00525273
-1.02194e-06
0.00525255
-7.19631e-07
0.00525242
-5.05548e-07
0.00525232
-3.54077e-07
0.00525226
-2.47241e-07
0.00525221
-1.724e-07
0.00525218
-1.20283e-07
0.00525216
-8.40415e-08
0.00525214
-5.88896e-08
0.00525213
-4.11962e-08
0.00525212
-2.90653e-08
0.00525212
-2.05817e-08
0.00525211
-1.47775e-08
0.00525211
-1.13228e-08
0.00525211
-9.77042e-09
0.00525211
-8.1588e-09
0.0052521
-1.02122e-08
-1.369e-08
0.0104102
-0.000970346
0.0100336
-0.0013071
0.00925001
-0.00134801
0.0082368
-0.00127522
0.00734444
-0.00115573
0.00675331
-0.000935717
0.00637293
-0.000667648
0.00609086
-0.000453217
0.00586472
-0.000313382
0.00568933
-0.000226448
0.00556073
-0.000168915
0.00546966
-0.00012733
0.00540569
-9.55362e-05
0.00536052
-7.09713e-05
0.00532841
-5.22088e-05
0.00530551
-3.80894e-05
0.00528915
-2.7598e-05
0.00527746
-1.98842e-05
0.00526913
-1.42614e-05
0.00526318
-1.0191e-05
0.00525894
-7.25977e-06
0.00525593
-5.15684e-06
0.00525378
-3.65296e-06
0.00525225
-2.58112e-06
0.00525117
-1.82013e-06
0.0052504
-1.28176e-06
0.00524985
-9.01751e-07
0.00524946
-6.33699e-07
0.00524919
-4.44442e-07
0.00524899
-3.1063e-07
0.00524885
-2.16108e-07
0.00524876
-1.4974e-07
0.00524869
-1.03619e-07
0.00524864
-7.188e-08
0.00524861
-4.99007e-08
0.00524858
-3.49888e-08
0.00524856
-2.41936e-08
0.00524855
-1.72843e-08
0.00524854
-1.14967e-08
0.00524854
-8.47631e-09
0.00524853
-6.72645e-09
0.00524853
-4.97173e-09
0.00524853
-5.65924e-09
0.00524852
-7.64838e-09
-1.09479e-08
0.00973757
-0.000547076
0.00907846
-0.000647985
0.00849125
-0.000760798
0.00791452
-0.000698494
0.00727309
-0.000514295
0.00666974
-0.000332368
0.00622091
-0.000218822
0.00592186
-0.000154164
0.00572182
-0.000113343
0.00557984
-8.44707e-05
0.00547403
-6.31015e-05
0.00539423
-4.7528e-05
0.00533431
-3.56217e-05
0.00528981
-2.64701e-05
0.0052571
-1.94961e-05
0.00523325
-1.42375e-05
0.00521596
-1.03152e-05
0.0052035
-7.42122e-06
0.00519455
-5.30739e-06
0.00518813
-3.77625e-06
0.00518355
-2.6742e-06
0.00518028
-1.88498e-06
0.00517795
-1.32268e-06
0.00517629
-9.24497e-07
0.00517511
-6.44341e-07
0.00517428
-4.48192e-07
0.00517369
-3.11093e-07
0.00517327
-2.15136e-07
0.00517297
-1.47853e-07
0.00517276
-1.00792e-07
0.00517262
-6.82219e-08
0.00517251
-4.60713e-08
0.00517244
-3.11694e-08
0.00517239
-2.12491e-08
0.00517235
-1.43976e-08
0.00517233
-9.91906e-09
0.00517231
-5.92425e-09
0.0051723
-4.43251e-09
0.00517229
-1.62399e-09
0.00517228
-1.87469e-09
0.00517228
-2.07559e-09
0.00517227
1.61311e-10
0.00517227
-3.53273e-09
0.00517227
-5.03676e-09
-5.94708e-09
0.00784176
0.00719378
0.00643298
0.00573448
0.00522019
0.00488782
0.004669
0.00451484
0.00440149
0.00431702
0.00425392
0.00420639
0.00417077
0.0041443
0.0041248
0.00411057
0.00410025
0.00409283
0.00408752
0.00408375
0.00408107
0.00407919
0.00407786
0.00407694
0.0040763
0.00407585
0.00407554
0.00407532
0.00407517
0.00407507
0.004075
0.00407496
0.00407493
0.00407491
0.00407489
0.00407488
0.00407488
0.00407487
0.00407487
0.00407487
0.00407487
0.00407487
0.00407486
0.00407486
-0.000535083
0.000535083
-0.000492477
-4.26059e-05
-4.49197e-05
-0.000447557
0.000700157
-0.000745076
0.00149156
-0.0007914
0.00219404
-0.000702483
0.00275145
-0.000557411
0.0031633
-0.000411853
0.0034543
-0.000291
0.00365453
-0.000200226
0.00379036
-0.000135834
0.00388197
-9.16035e-05
0.00394369
-6.17243e-05
0.00398537
-4.16747e-05
0.0040136
-2.8233e-05
0.0040328
-1.92054e-05
0.00404593
-1.31226e-05
0.00405493
-9.00264e-06
0.00406112
-6.19309e-06
0.00406539
-4.26583e-06
0.00406833
-2.94082e-06
0.00407036
-2.03078e-06
0.00407177
-1.40572e-06
0.00407274
-9.74176e-07
0.00407341
-6.73572e-07
0.00407388
-4.63017e-07
0.00407419
-3.16247e-07
0.00407441
-2.1553e-07
0.00407456
-1.47708e-07
0.00407466
-1.02286e-07
0.00407473
-7.11873e-08
0.00407478
-4.91449e-08
0.00407481
-3.30841e-08
0.00407483
-2.12173e-08
0.00407485
-1.30763e-08
0.00407485
-7.69318e-09
0.00407486
-5.4956e-09
0.00407486
-3.28657e-09
0.00407487
-4.00229e-09
0.00407487
-2.49128e-09
0.00407487
-1.59864e-09
0.00407487
-3.93611e-09
0.00407487
-8.2916e-11
0.00407487
6.63539e-10
-1.04089e-09
-0.000534111
0.00106919
-0.000504177
-7.25404e-05
4.67081e-05
-0.000998442
0.000983365
-0.00168173
0.00199157
-0.00179961
0.0028649
-0.00157581
0.00353967
-0.00123218
0.00403068
-0.000902859
0.00437742
-0.00063774
0.00461902
-0.00044183
0.00478659
-0.000303407
0.0049028
-0.000207809
0.00498353
-0.000142459
0.00503978
-9.79195e-05
0.00507908
-6.75342e-05
0.00510662
-4.67469e-05
0.00512597
-3.24705e-05
0.00513959
-2.26197e-05
0.00514918
-1.57902e-05
0.00515596
-1.10384e-05
0.00516074
-7.72607e-06
0.00516412
-5.41472e-06
0.00516652
-3.79892e-06
0.00516821
-2.66567e-06
0.0051694
-1.86823e-06
0.00517025
-1.30669e-06
0.00517084
-9.12528e-07
0.00517127
-6.37437e-07
0.00517156
-4.46245e-07
0.00517178
-3.13187e-07
0.00517192
-2.19755e-07
0.00517203
-1.53291e-07
0.0051721
-1.05726e-07
0.00517215
-7.18715e-08
0.00517219
-4.84946e-08
0.00517221
-3.27879e-08
0.00517223
-2.32187e-08
0.00517224
-1.63876e-08
0.00517225
-1.30722e-08
0.00517226
-9.41146e-09
0.00517226
-6.98536e-09
0.00517227
-6.89456e-09
0.00517227
-3.65213e-09
0.00517227
-3.48987e-09
-5.35497e-09
-0.00140723
0.00247642
-0.00109771
-0.000382061
-5.67258e-05
-0.00203942
0.00109875
-0.00283721
0.00225182
-0.00295267
0.00318478
-0.00250877
0.00385134
-0.00189874
0.00429924
-0.00135076
0.00459585
-0.000934355
0.00479436
-0.000640342
0.0049296
-0.000438639
0.0050232
-0.00030141
0.00508874
-0.000208001
0.00513498
-0.000144163
0.00516776
-0.000100314
0.00519106
-7.00426e-05
0.00520764
-4.90471e-05
0.00521944
-3.44205e-05
0.00522784
-2.4192e-05
0.00523382
-1.70203e-05
0.00523808
-1.19844e-05
0.00524111
-8.44463e-06
0.00524326
-5.95306e-06
0.00524479
-4.19582e-06
0.00524588
-2.95449e-06
0.00524665
-2.07777e-06
0.0052472
-1.46005e-06
0.00524759
-1.02626e-06
0.00524786
-7.22116e-07
0.00524806
-5.08554e-07
0.0052482
-3.57911e-07
0.00524829
-2.5084e-07
0.00524836
-1.74401e-07
0.00524841
-1.20158e-07
0.00524844
-8.2459e-08
0.00524847
-5.68452e-08
0.00524849
-4.00479e-08
0.0052485
-2.86225e-08
0.00524851
-2.13877e-08
0.00524851
-1.58495e-08
0.00524852
-1.20117e-08
0.00524852
-1.02106e-08
0.00524852
-7.12998e-09
0.00524853
-7.09171e-09
-9.58191e-09
-0.000246995
0.00272342
0.000553066
-0.00118212
0.00153614
-0.0030225
0.0025179
-0.00381897
0.00336386
-0.00379864
0.00401556
-0.00316047
0.00445777
-0.00234095
0.0047335
-0.0016265
0.00490109
-0.00110194
0.00500607
-0.000745315
0.00507552
-0.000508092
0.00512385
-0.000349739
0.0051586
-0.000242758
0.005184
-0.00016956
0.00520264
-0.000118956
0.00521631
-8.37075e-05
0.00522628
-5.90231e-05
0.00523353
-4.16699e-05
0.00523878
-2.94391e-05
0.00524257
-2.08065e-05
0.00524529
-1.47092e-05
0.00524725
-1.04001e-05
0.00524865
-7.35188e-06
0.00524964
-5.19358e-06
0.00525035
-3.66521e-06
0.00525086
-2.58428e-06
0.00525122
-1.82158e-06
0.00525148
-1.28446e-06
0.00525166
-9.0604e-07
0.00525179
-6.38693e-07
0.00525189
-4.49291e-07
0.00525195
-3.14761e-07
0.00525199
-2.19189e-07
0.00525203
-1.51916e-07
0.00525205
-1.05428e-07
0.00525207
-7.37105e-08
0.00525208
-5.22624e-08
0.00525209
-3.72798e-08
0.00525209
-2.71126e-08
0.0052521
-1.98883e-08
0.0052521
-1.4934e-08
0.0052521
-1.24481e-08
0.0052521
-9.17986e-09
0.00525211
-9.83755e-09
-1.24665e-08
0.00328671
0.00461682
0.00572771
0.00627535
0.00616797
0.0058536
0.00558211
0.00540905
0.00531462
0.00526786
0.00524673
0.00523863
0.00523691
0.00523809
0.00524032
0.00524271
0.00524487
0.00524667
0.00524809
0.00524919
0.00525002
0.00525063
0.00525107
0.0052514
0.00525164
0.00525181
0.00525193
0.00525202
0.00525208
0.00525212
0.00525215
0.00525218
0.00525219
0.00525221
0.00525221
0.00525222
0.00525222
0.00525223
0.00525223
0.00525223
0.00525223
0.00525223
0.00525223
0.00525223
)
;

boundaryField
{
    inlet
    {
        type            calculated;
        value           nonuniform List<scalar> 5(-0.01 -0.01 -0.01 -0.01 -0.01);
    }
    outlet
    {
        type            calculated;
        value           nonuniform List<scalar> 10(0.00525223 0.0052521 0.00524852 0.00517226 0.00407485 0.00407487 0.00517228 0.00524853 0.00525211 0.00525224);
    }
    upperWall
    {
        type            calculated;
        value           uniform 0;
    }
    lowerWall
    {
        type            calculated;
        value           uniform 0;
    }
    frontAndBack
    {
        type            empty;
        value           nonuniform List<scalar> 0();
    }
}


// ************************************************************************* //
