/*--------------------------------*- C++ -*----------------------------------*\
  =========                 |
  \\      /  F ield         | OpenFOAM: The Open Source CFD Toolbox
   \\    /   O peration     | Website:  https://openfoam.org
    \\  /    A nd           | Version:  10
     \\/     M anipulation  |
\*---------------------------------------------------------------------------*/
FoamFile
{
    format      ascii;
    class       volVectorField;
    location    "1.225";
    object      U;
}
// * * * * * * * * * * * * * * * * * * * * * * * * * * * * * * * * * * * * * //

dimensions      [0 1 -1 0 0 0 0];

internalField   nonuniform List<vector> 
400
(
(-0.000316443 0.00031182 0)
(-0.00108146 0.000391171 0)
(-0.00194137 0.000380004 0)
(-0.00273448 0.000352939 0)
(-0.00345905 0.000316911 0)
(-0.00409694 0.000273191 0)
(-0.00463256 0.00022286 0)
(-0.00505301 0.000167061 0)
(-0.00534794 0.000106984 0)
(-0.00550959 4.38545e-05 0)
(-0.00553292 -2.10349e-05 0)
(-0.00541563 -8.63766e-05 0)
(-0.00515846 -0.000150671 0)
(-0.00476536 -0.000212329 0)
(-0.00424383 -0.000269631 0)
(-0.00360513 -0.000320762 0)
(-0.00286471 -0.00036388 0)
(-0.0020422 -0.000396896 0)
(-0.00114251 -0.000411806 0)
(-0.000335927 -0.00033074 0)
(-0.000411984 0.00108648 0)
(-0.00138914 0.00134336 0)
(-0.00247396 0.00130385 0)
(-0.00347546 0.00121029 0)
(-0.00438945 0.00108573 0)
(-0.00519297 0.000934795 0)
(-0.00586652 0.000761387 0)
(-0.00639416 0.000569542 0)
(-0.00676322 0.000363389 0)
(-0.00696433 0.000147121 0)
(-0.00699149 -7.50045e-05 0)
(-0.00684207 -0.000298271 0)
(-0.00651704 -0.000517833 0)
(-0.00602142 -0.000728352 0)
(-0.0053645 -0.000924023 0)
(-0.00456024 -0.00109869 0)
(-0.00362789 -0.00124601 0)
(-0.00259209 -0.0013587 0)
(-0.00146076 -0.00141015 0)
(-0.000434869 -0.00114773 0)
(-0.000437497 0.00201507 0)
(-0.00147529 0.00247084 0)
(-0.00262661 0.00239641 0)
(-0.00368811 0.00222336 0)
(-0.004656 0.00199325 0)
(-0.00550624 0.00171491 0)
(-0.00621865 0.00139574 0)
(-0.00677689 0.00104326 0)
(-0.00716809 0.000665055 0)
(-0.00738274 0.00026873 0)
(-0.00741439 -0.000138012 0)
(-0.00726004 -0.00054692 0)
(-0.00692042 -0.000949255 0)
(-0.00639993 -0.00133541 0)
(-0.00570746 -0.00169486 0)
(-0.00485688 -0.00201628 0)
(-0.00386785 -0.00228787 0)
(-0.0027662 -0.00249589 0)
(-0.00155999 -0.00259224 0)
(-0.000464537 -0.00212652 0)
(-0.000467665 0.00297709 0)
(-0.00157751 0.00364126 0)
(-0.00280834 0.0035294 0)
(-0.00394148 0.00327285 0)
(-0.00497334 0.00293258 0)
(-0.00587878 0.00252197 0)
(-0.00663709 0.00205218 0)
(-0.0072318 0.00153436 0)
(-0.00765 0.000979513 0)
(-0.00788212 0.000398499 0)
(-0.00792148 -0.00019772 0)
(-0.00776445 -0.00079785 0)
(-0.00741074 -0.00138938 0)
(-0.00686373 -0.00195856 0)
(-0.0061312 -0.00249005 0)
(-0.00522627 -0.00296701 0)
(-0.00416861 -0.00337155 0)
(-0.00298531 -0.00368262 0)
(-0.00168512 -0.00382882 0)
(-0.000501973 -0.00314949 0)
(-0.00050991 0.00401462 0)
(-0.00171994 0.00490378 0)
(-0.00306068 0.00474995 0)
(-0.00429244 0.00440162 0)
(-0.00541179 0.00394128 0)
(-0.00639217 0.0033877 0)
(-0.00721242 0.00275634 0)
(-0.00785618 0.00206229 0)
(-0.00831085 0.00132001 0)
(-0.00856697 0.000543391 0)
(-0.00861767 -0.000253849 0)
(-0.00845839 -0.00105755 0)
(-0.00808742 -0.00185195 0)
(-0.00750635 -0.00261936 0)
(-0.00672099 -0.00333946 0)
(-0.0057429 -0.00398927 0)
(-0.00459126 -0.00454363 0)
(-0.00329454 -0.00497239 0)
(-0.00186259 -0.00517736 0)
(-0.000555364 -0.00426655 0)
(-0.000566163 0.00515658 0)
(-0.00190904 0.00629264 0)
(-0.00339462 0.00608998 0)
(-0.00475523 0.00563782 0)
(-0.00598773 0.00504324 0)
(-0.00706402 0.00433167 0)
(-0.00796282 0.00352375 0)
(-0.00866847 0.00263893 0)
(-0.00916925 0.00169512 0)
(-0.00945632 0.000708888 0)
(-0.00952276 -0.000303899 0)
(-0.00936287 -0.00132707 0)
(-0.00897286 -0.00234229 0)
(-0.00835152 -0.00332834 0)
(-0.00750137 -0.00425987 0)
(-0.00643096 -0.00510699 0)
(-0.00515782 -0.00583563 0)
(-0.00371157 -0.00640385 0)
(-0.00210325 -0.00668127 0)
(-0.000628096 -0.00551554 0)
(-0.000638767 0.00643438 0)
(-0.00215237 0.00784496 0)
(-0.00382256 0.00758328 0)
(-0.00534537 0.00701032 0)
(-0.00671824 0.00626203 0)
(-0.00791169 0.00537247 0)
(-0.00890518 0.00436872 0)
(-0.00968484 0.00327514 0)
(-0.0102409 0.00211302 0)
(-0.010566 0.000900946 0)
(-0.0106536 -0.000344088 0)
(-0.0104968 -0.00160523 0)
(-0.0100887 -0.00286281 0)
(-0.00942393 -0.00409297 0)
(-0.00849968 -0.00526563 0)
(-0.0073191 -0.00634321 0)
(-0.00589581 -0.00728049 0)
(-0.00425937 -0.00801982 0)
(-0.00242176 -0.00839062 0)
(-0.000724901 -0.00694062 0)
(-0.000731186 0.00788548 0)
(-0.00246084 0.00960449 0)
(-0.00436199 0.00926854 0)
(-0.00608409 0.00855081 0)
(-0.00762593 0.00762228 0)
(-0.00895735 0.0065285 0)
(-0.0100602 0.00530474 0)
(-0.0109242 0.00398096 0)
(-0.0115435 0.00258154 0)
(-0.0119134 0.00112609 0)
(-0.0120289 -0.000368919 0)
(-0.0118816 -0.00188799 0)
(-0.0114606 -0.00341226 0)
(-0.0107543 -0.004917 0)
(-0.00975163 -0.0063683 0)
(-0.00844636 -0.00772039 0)
(-0.00684418 -0.00891425 0)
(-0.00497164 -0.00987079 0)
(-0.00284034 -0.0103673 0)
(-0.000853165 -0.00859793 0)
(-0.000848675 0.00955582 0)
(-0.00285052 0.0116237 0)
(-0.00503785 0.0111903 0)
(-0.0070008 0.0102937 0)
(-0.00874097 0.00914868 0)
(-0.0102293 0.00781645 0)
(-0.0114528 0.00634282 0)
(-0.0124081 0.00476412 0)
(-0.0130958 0.00310724 0)
(-0.0135165 0.0013911 0)
(-0.0136677 -0.000370697 0)
(-0.0135402 -0.0021671 0)
(-0.0131177 -0.00398346 0)
(-0.01238 -0.00579743 0)
(-0.0113031 -0.00757342 0)
(-0.00986573 -0.00925782 0)
(-0.00805844 -0.010775 0)
(-0.00589849 -0.0120167 0)
(-0.00339354 -0.0126898 0)
(-0.00102483 -0.0105617 0)
(-0.000999501 0.011504 0)
(-0.00334568 0.0139672 0)
(-0.00588639 0.0134005 0)
(-0.00813659 0.0122759 0)
(-0.0101037 0.0108645 0)
(-0.0117633 0.00924916 0)
(-0.0131125 0.00748925 0)
(-0.0141598 0.00562809 0)
(-0.0149165 0.00369391 0)
(-0.0153914 0.00170244 0)
(-0.0155872 -0.000339136 0)
(-0.0154944 -0.00242855 0)
(-0.015091 -0.00456039 0)
(-0.0143443 -0.00672017 0)
(-0.0132121 -0.00887546 0)
(-0.0116488 -0.010967 0)
(-0.00961827 -0.0129005 0)
(-0.00711581 -0.0145287 0)
(-0.0041369 -0.0154603 0)
(-0.00126019 -0.0129351 0)
(-0.0011973 0.0138084 0)
(-0.00398419 0.0167173 0)
(-0.00696124 0.0159608 0)
(-0.00954967 0.0145359 0)
(-0.0117683 0.0127887 0)
(-0.0136046 0.0108319 0)
(-0.0150739 0.00874174 0)
(-0.0162035 0.00656868 0)
(-0.0170215 0.00434022 0)
(-0.0175496 0.00206498 0)
(-0.0177988 -0.000261224 0)
(-0.0177614 -0.00265082 0)
(-0.0174094 -0.00511454 0)
(-0.0166951 -0.00765415 0)
(-0.01555 -0.0102494 0)
(-0.0138918 -0.0128428 0)
(-0.0116392 -0.0153219 0)
(-0.00874105 -0.0174905 0)
(-0.00516351 -0.0188154 0)
(-0.00159585 -0.01587 0)
(-0.00146584 0.0165794 0)
(-0.00482728 0.019981 0)
(-0.00834346 0.0189441 0)
(-0.0113236 0.0171108 0)
(-0.0138084 0.014931 0)
(-0.0158104 0.0125563 0)
(-0.0173759 0.0100836 0)
(-0.0185614 0.00756942 0)
(-0.0194203 0.0050363 0)
(-0.0199929 0.00247999 0)
(-0.020303 -0.000122149 0)
(-0.0203478 -0.00280302 0)
(-0.0200943 -0.00560039 0)
(-0.0194792 -0.00854361 0)
(-0.0184007 -0.0116391 0)
(-0.0167226 -0.0148475 0)
(-0.0142901 -0.01805 0)
(-0.0109597 -0.0209956 0)
(-0.00663668 -0.0229396 0)
(-0.00210235 -0.0196035 0)
(-0.00184906 0.0199827 0)
(-0.005978 0.0239015 0)
(-0.0101578 0.022436 0)
(-0.0135801 0.0200306 0)
(-0.0163237 0.0172819 0)
(-0.0184523 0.0143908 0)
(-0.020061 0.0114763 0)
(-0.0212509 0.00859593 0)
(-0.022111 0.00575956 0)
(-0.0227081 0.00294258 0)
(-0.0230818 9.54475e-05 0)
(-0.0232398 -0.0028431 0)
(-0.02315 -0.00594989 0)
(-0.0227338 -0.00929727 0)
(-0.0218539 -0.01294 0)
(-0.0203044 -0.0168858 0)
(-0.0178179 -0.0210442 0)
(-0.0140703 -0.0251343 0)
(-0.00885641 -0.0280779 0)
(-0.00292418 -0.0245326 0)
(-0.00243381 0.0242532 0)
(-0.00761849 0.0286593 0)
(-0.0125999 0.0265303 0)
(-0.0164977 0.0233037 0)
(-0.0194493 0.0197977 0)
(-0.0216164 0.0162681 0)
(-0.023171 0.01285 0)
(-0.0242784 0.00958847 0)
(-0.0250738 0.00646916 0)
(-0.0256571 0.00343726 0)
(-0.0260888 0.000409029 0)
(-0.0263932 -0.00271826 0)
(-0.0265486 -0.00606845 0)
(-0.0264694 -0.00977584 0)
(-0.0259893 -0.0139741 0)
(-0.024829 -0.0187656 0)
(-0.0225779 -0.0241545 0)
(-0.0185587 -0.0299414 0)
(-0.0124002 -0.0344979 0)
(-0.00437981 -0.0314203 0)
(-0.00337687 0.030063 0)
(-0.0100505 0.0345816 0)
(-0.0159672 0.0313417 0)
(-0.0203362 0.0268919 0)
(-0.0233606 0.0223763 0)
(-0.0254004 0.0180659 0)
(-0.0267408 0.0140879 0)
(-0.0276317 0.0104514 0)
(-0.0282621 0.00709843 0)
(-0.028768 0.00393161 0)
(-0.0292371 0.000825766 0)
(-0.029717 -0.00237025 0)
(-0.0302073 -0.0058356 0)
(-0.0306391 -0.00978243 0)
(-0.030843 -0.0144575 0)
(-0.0304868 -0.020125 0)
(-0.0290425 -0.0269926 0)
(-0.0251711 -0.0352247 0)
(-0.0184816 -0.0423186 0)
(-0.007292 -0.0416792 0)
(-0.00526162 0.0362625 0)
(-0.0141801 0.0413552 0)
(-0.0208194 0.036749 0)
(-0.0254906 0.030628 0)
(-0.0282752 0.0248086 0)
(-0.0299024 0.0195734 0)
(-0.0307814 0.0150075 0)
(-0.0312623 0.011042 0)
(-0.0315866 0.00754874 0)
(-0.0319216 0.00437181 0)
(-0.0323812 0.00133813 0)
(-0.0330437 -0.00174676 0)
(-0.0339482 -0.00511632 0)
(-0.0350764 -0.00905991 0)
(-0.0363131 -0.0139612 0)
(-0.037343 -0.0203488 0)
(-0.0376974 -0.0287706 0)
(-0.0349094 -0.040563 0)
(-0.0294157 -0.0514403 0)
(-0.0134587 -0.0581761 0)
(-0.0071101 0.0527483 0)
(-0.0190222 0.0511393 0)
(-0.0272876 0.0434029 0)
(-0.0322983 0.0343315 0)
(-0.0343655 0.0267288 0)
(-0.0351189 0.0204369 0)
(-0.0351611 0.0153219 0)
(-0.0349552 0.0111483 0)
(-0.0347758 0.00767202 0)
(-0.0348028 0.00466036 0)
(-0.035161 0.00189171 0)
(-0.0359565 -0.000866558 0)
(-0.0372811 -0.00386029 0)
(-0.0392107 -0.0074852 0)
(-0.0418036 -0.0123076 0)
(-0.0448762 -0.0193541 0)
(-0.0486827 -0.0295004 0)
(-0.0484277 -0.0464259 0)
(-0.0481495 -0.0635705 0)
(-0.0245925 -0.0868738 0)
(-0.0179471 0.0555331 0)
(-0.0368422 0.0619264 0)
(-0.0378644 0.0500598 0)
(-0.0414197 0.0380678 0)
(-0.0407644 0.028252 0)
(-0.0394095 0.0206434 0)
(-0.037784 0.0149664 0)
(-0.0363279 0.0107072 0)
(-0.0352536 0.00742212 0)
(-0.0346823 0.0047766 0)
(-0.0347071 0.00251877 0)
(-0.0354104 0.000416625 0)
(-0.0369729 -0.00172612 0)
(-0.0396477 -0.00424499 0)
(-0.0438752 -0.00734052 0)
(-0.0494135 -0.0127986 0)
(-0.0580665 -0.0193917 0)
(-0.0603645 -0.0412548 0)
(-0.0689003 -0.0611507 0)
(-0.0285564 -0.129276 0)
(-0.0501252 0.123474 0)
(-0.0474756 0.0614614 0)
(-0.0410522 0.0475196 0)
(-0.0327543 0.0326528 0)
(-0.023453 0.0221242 0)
(-0.0159359 0.0155238 0)
(-0.00993573 0.011069 0)
(-0.00544733 0.00788157 0)
(-0.00225519 0.00554114 0)
(-0.000144895 0.00376417 0)
(0.00101043 0.00234654 0)
(0.00129346 0.0011222 0)
(0.000638494 -8.05894e-05 0)
(-0.000652214 -0.00162431 0)
(-0.00368774 -0.00392683 0)
(-0.00455447 -0.00957177 0)
(-0.0151279 -0.0202414 0)
(-0.00526626 -0.0512618 0)
(-0.0379065 -0.10335 0)
(0.0149148 -0.212756 0)
(0.131103 0.125157 0)
(0.150776 0.0629112 0)
(0.221795 0.0389238 0)
(0.254329 0.0244708 0)
(0.274373 0.0147985 0)
(0.28864 0.00915887 0)
(0.298516 0.00598411 0)
(0.305323 0.00406998 0)
(0.310116 0.00283557 0)
(0.313485 0.00200081 0)
(0.315747 0.00140335 0)
(0.317165 0.000947032 0)
(0.317536 0.000590876 0)
(0.317708 0.000138372 0)
(0.314094 -0.00047033 0)
(0.315171 -0.00206509 0)
(0.292553 -0.00654496 0)
(0.29979 -0.0162237 0)
(0.195411 -0.0415709 0)
(0.1853 -0.112285 0)
)
;

boundaryField
{
    movingWall
    {
        type            fixedValue;
        value           uniform (1 0 0);
    }
    fixedWalls
    {
        type            noSlip;
    }
    frontAndBack
    {
        type            empty;
    }
}


// ************************************************************************* //
