/*--------------------------------*- C++ -*----------------------------------*\
  =========                 |
  \\      /  F ield         | OpenFOAM: The Open Source CFD Toolbox
   \\    /   O peration     | Website:  https://openfoam.org
    \\  /    A nd           | Version:  10
     \\/     M anipulation  |
\*---------------------------------------------------------------------------*/
FoamFile
{
    format      ascii;
    class       surfaceScalarField;
    location    "6.8";
    object      phi;
}
// * * * * * * * * * * * * * * * * * * * * * * * * * * * * * * * * * * * * * //

dimensions      [0 3 -1 0 0 0 0];

internalField   nonuniform List<scalar> 
760
(
-1.03002e-05
1.03002e-05
-3.36032e-05
2.33029e-05
-6.14467e-05
2.78435e-05
-9.0343e-05
2.88964e-05
-0.000119148
2.88054e-05
-0.000147434
2.82859e-05
-0.000174785
2.7351e-05
-0.000200579
2.57935e-05
-0.000223914
2.33353e-05
-0.000243576
1.96617e-05
-0.000258017
1.44414e-05
-0.000265386
7.36908e-06
-0.000263628
-1.75805e-06
-0.000250707
-1.29209e-05
-0.000225064
-2.56432e-05
-0.000186228
-3.8836e-05
-0.000135809
-5.04192e-05
-7.89278e-05
-5.68811e-05
-2.6324e-05
-5.26038e-05
-2.6324e-05
-2.4675e-05
3.49753e-05
-6.99113e-05
6.85392e-05
-0.000122156
8.00887e-05
-0.000175717
8.24566e-05
-0.000228385
8.1474e-05
-0.000279055
7.89556e-05
-0.000326734
7.503e-05
-0.000370219
6.92788e-05
-0.000407977
6.10934e-05
-0.000438088
4.97719e-05
-0.000458213
3.45667e-05
-0.000465666
1.48223e-05
-0.000457715
-9.70898e-06
-0.000431467
-3.91692e-05
-0.000384967
-7.21431e-05
-0.000317887
-0.000105915
-0.000232948
-0.000135358
-0.000138124
-0.000151705
-4.96048e-05
-0.000141123
-7.59288e-05
-3.09276e-05
6.59029e-05
-8.59296e-05
0.000123541
-0.000148727
0.000142886
-0.000212635
0.000146365
-0.000275112
0.000143951
-0.00033488
0.000138724
-0.000390817
0.000130967
-0.000441607
0.000120069
-0.000485603
0.000105089
-0.000520738
8.49069e-05
-0.000544503
5.83318e-05
-0.000553978
2.42973e-05
-0.000545634
-1.80525e-05
-0.000516054
-6.87495e-05
-0.000462449
-0.000125749
-0.000383761
-0.000184603
-0.000282545
-0.000236575
-0.000168047
-0.000266203
-6.02543e-05
-0.000248916
-0.000136183
-3.32998e-05
9.92027e-05
-9.25974e-05
0.000182839
-0.000160098
0.000210386
-0.000228698
0.000214965
-0.000295842
0.000211096
-0.000360341
0.000203222
-0.000421186
0.000191811
-0.000477185
0.000176069
-0.000526803
0.000154708
-0.000568016
0.00012612
-0.000598184
8.84993e-05
-0.000613992
4.01053e-05
-0.000611405
-2.06399e-05
-0.000585452
-9.47016e-05
-0.000531575
-0.000179626
-0.000446673
-0.000269505
-0.000332044
-0.000351203
-0.000198145
-0.000400102
-7.00337e-05
-0.000377027
-0.000206217
-3.43055e-05
0.000133508
-9.6039e-05
0.000244572
-0.000166432
0.000280779
-0.000238146
0.000286679
-0.000308731
0.000281681
-0.000377211
0.000271702
-0.000442841
0.000257441
-0.000504712
0.00023794
-0.000561555
0.000211551
-0.000611532
0.000176096
-0.000651966
0.000128934
-0.000679066
6.72053e-05
-0.000687892
-1.18142e-05
-0.000671521
-0.000111073
-0.000622392
-0.000228755
-0.00053372
-0.000358177
-0.000403594
-0.000481329
-0.000242819
-0.000560877
-8.44409e-05
-0.000535406
-0.000290658
-3.50065e-05
0.000168515
-9.88127e-05
0.000308379
-0.000171828
0.000353794
-0.000246506
0.000361357
-0.000320544
0.000355719
-0.000393272
0.000344431
-0.000464331
0.000328499
-0.000533257
0.000306866
-0.000599248
0.000277543
-0.000660878
0.000237725
-0.00071569
0.000183746
-0.000759626
0.000111142
-0.000786839
1.53986e-05
-0.000787959
-0.000109953
-0.000751042
-0.000265672
-0.00066318
-0.00044604
-0.000515662
-0.000628846
-0.000316138
-0.000760402
-0.000108937
-0.000742606
-0.000399594
-3.5715e-05
0.00020423
-0.000101695
0.000374359
-0.000177467
0.000429566
-0.000255231
0.000439121
-0.000332869
0.000433356
-0.00041009
0.000421652
-0.000487055
0.000405464
-0.000563944
0.000383755
-0.000640712
0.00035431
-0.000716741
0.000313754
-0.000790305
0.000257311
-0.00085774
0.000178576
-0.000912078
6.97369e-05
-0.000942983
-7.90477e-05
-0.000932361
-0.000276294
-0.000858109
-0.000520292
-0.000697875
-0.00078908
-0.00044567
-0.00101261
-0.000156334
-0.00103194
-0.000555928
-3.64849e-05
0.000240714
-0.000104832
0.000442706
-0.000183493
0.000508227
-0.000264341
0.000519969
-0.000345449
0.000514464
-0.000426982
0.000503185
-0.000509752
0.000488234
-0.000594811
0.000468814
-0.00068323
0.000442729
-0.000775761
0.000406285
-0.000872213
0.000353763
-0.000970361
0.000276724
-0.00106404
0.000163417
-0.00114392
8.31799e-07
-0.00118545
-0.000234769
-0.00115605
-0.000549685
-0.00100733
-0.000937806
-0.000692558
-0.00132738
-0.000260182
-0.00146432
-0.00081611
-3.73505e-05
0.000278065
-0.00010828
0.000513636
-0.000189867
0.000589814
-0.000273541
0.000603642
-0.00035756
0.000598484
-0.00044259
0.000588215
-0.000530198
0.000575842
-0.000622519
0.000561135
-0.00072214
0.000542351
-0.000831894
0.000516039
-0.000954391
0.00047626
-0.001091
0.000413336
-0.00124002
0.000312433
-0.00139214
0.000152955
-0.00153275
-9.41636e-05
-0.00161315
-0.000469283
-0.00153698
-0.00101397
-0.0011596
-0.00170476
-0.000484632
-0.00213929
-0.00130074
-3.84409e-05
0.000316506
-0.00011227
0.000587465
-0.000196739
0.000674283
-0.000282697
0.000689601
-0.000368571
0.000684357
-0.000455527
0.000675171
-0.000545921
0.000666236
-0.000643067
0.000658281
-0.000751355
0.000650639
-0.000876397
0.000641081
-0.00102498
0.000624847
-0.00120466
0.000593007
-0.0014228
0.000530578
-0.00168422
0.000414374
-0.00198487
0.000206482
-0.00227196
-0.000182193
-0.00234913
-0.000936797
-0.00189668
-0.00215721
-0.000874159
-0.00316181
-0.0021749
-4.00735e-05
0.000356579
-0.000117389
0.000664781
-0.000204702
0.000761596
-0.000292148
0.000777047
-0.000378298
0.000770507
-0.00046479
0.000761663
-0.000554686
0.000756131
-0.000652369
0.000755964
-0.000763979
0.000762249
-0.000898107
0.00077521
-0.00106679
0.000793532
-0.00128692
0.000813135
-0.00158174
0.000825396
-0.00198009
0.000812728
-0.00249146
0.000717848
-0.00301898
0.000345333
-0.00323946
-0.00071632
-0.00268165
-0.00271502
-0.00137676
-0.0044667
-0.00355166
-4.2899e-05
0.000399478
-0.000124833
0.000746715
-0.000215054
0.000851816
-0.000302972
0.000864965
-0.000387346
0.000854881
-0.000470235
0.000844552
-0.000555181
0.000841077
-0.000647224
0.000848008
-0.000753692
0.000868716
-0.000885525
0.000907043
-0.00105947
0.000967477
-0.00130161
0.00105527
-0.00165095
0.00117474
-0.00215125
0.00131304
-0.00280482
0.00137141
-0.00343189
0.000972403
-0.0036463
-0.000501916
-0.00308586
-0.00327546
-0.00183583
-0.00571673
-0.00538749
-4.79651e-05
0.000447443
-0.00013647
0.00083522
-0.000229985
0.000945332
-0.000317366
0.000952346
-0.000397599
0.000935114
-0.000473116
0.000920068
-0.000547726
0.000915687
-0.000626282
0.000926564
-0.000715907
0.00095834
-0.00082774
0.00101888
-0.000979671
0.00111941
-0.00120003
0.00127563
-0.00152958
0.00150428
-0.00199944
0.0017829
-0.00257426
0.00194623
-0.00306399
0.00146214
-0.00321411
-0.000351801
-0.00287587
-0.00361369
-0.001927
-0.00666561
-0.00731448
-5.8393e-05
0.000505836
-0.000157007
0.000933833
-0.000253449
0.00104177
-0.00033777
0.00103667
-0.000410852
0.0010082
-0.000475614
0.000984831
-0.000534915
0.000974988
-0.000592448
0.000984097
-0.000653281
0.00101917
-0.000725054
0.00109065
-0.000819882
0.00121424
-0.000954793
0.00141054
-0.00115168
0.00170117
-0.00141228
0.0020435
-0.00170317
0.00223712
-0.00192384
0.00168281
-0.00203775
-0.000237887
-0.00204697
-0.00360448
-0.00153633
-0.00717625
-0.00885081
-7.11665e-05
0.000577003
-0.000183416
0.00104608
-0.000286655
0.00114501
-0.000371622
0.00112163
-0.00043726
0.00107383
-0.000487559
0.00103513
-0.000525797
0.00101323
-0.000554254
0.00101255
-0.000574457
0.00103938
-0.000587691
0.00110388
-0.000595933
0.00122248
-0.00059812
0.00141273
-0.000592709
0.00169576
-0.000558909
0.0020097
-0.000507057
0.00218527
-0.000471127
0.00164688
-0.00055739
-0.000151624
-0.000899155
-0.00326271
-0.000935453
-0.00713995
-0.00978626
-0.000138412
0.000715415
-0.000265302
0.00117297
-0.000355434
0.00123515
-0.000417533
0.00118373
-0.000462653
0.00111895
-0.0004946
0.00106708
-0.000512889
0.00103151
-0.00051486
0.00101453
-0.000496559
0.00102107
-0.000451423
0.00105875
-0.000370765
0.00114182
-0.000239446
0.00128141
-3.54177e-05
0.00149173
0.000244926
0.00172936
0.000586102
0.00184409
0.000828108
0.00140487
0.00075214
-7.56557e-05
7.19043e-05
-0.00258248
-0.000391065
-0.00667698
-0.0101773
-9.01047e-05
0.000805519
-0.000281136
0.001364
-0.000413046
0.00136706
-0.000493805
0.00126449
-0.000537209
0.00116236
-0.000553168
0.00108304
-0.000545083
0.00102343
-0.000511884
0.000981328
-0.000448912
0.000958102
-0.000344929
0.000954765
-0.000185427
0.000982319
5.18496e-05
0.00104413
0.000387102
0.00115648
0.000836628
0.00127983
0.00134506
0.00133566
0.00171364
0.0010363
0.00161704
2.0938e-05
0.00085704
-0.00182247
0.000177072
-0.00599701
-0.0100003
-0.000384704
0.00119022
-0.000457986
0.00143729
-0.000528042
0.00143711
-0.000589227
0.00132567
-0.00060452
0.00117765
-0.000580046
0.00105856
-0.000520897
0.00096428
-0.000426854
0.000887285
-0.000299103
0.000830352
-0.000129208
0.00078487
9.07082e-05
0.000762402
0.000377303
0.000757539
0.000748617
0.000785166
0.00120389
0.000824557
0.0017159
0.000823648
0.0021013
0.0006509
0.00222295
-0.000100716
0.00178271
-0.00138224
0.000952615
-0.00516691
-0.00904764
-0.00136004
0.00255026
-0.00132634
0.00140358
-0.00107688
0.00118765
-0.000716399
0.000965198
-0.0003342
0.000795452
5.21334e-05
0.000672229
0.000430578
0.000585835
0.000799503
0.00051836
0.00116014
0.000469712
0.00151678
0.000428232
0.00187829
0.000400891
0.00225317
0.000382663
0.00266869
0.000369646
0.0031287
0.000364549
0.00365054
0.0003018
0.00412067
0.000180773
0.00429618
-0.000276229
0.00410541
-0.00119147
0.00257982
-0.00364132
-0.00646782
0.00255026
0.00395385
0.0051415
0.0061067
0.00690215
0.00757438
0.00816021
0.00867857
0.00914828
0.00957652
0.00997741
0.0103601
0.0107297
0.0110943
0.0113961
0.0115768
0.0113006
0.0101091
0.00646782
)
;

boundaryField
{
    movingWall
    {
        type            calculated;
        value           uniform 0;
    }
    fixedWalls
    {
        type            calculated;
        value           uniform 0;
    }
    frontAndBack
    {
        type            empty;
        value           nonuniform List<scalar> 0();
    }
}


// ************************************************************************* //
