/*--------------------------------*- C++ -*----------------------------------*\
  =========                 |
  \\      /  F ield         | OpenFOAM: The Open Source CFD Toolbox
   \\    /   O peration     | Website:  https://openfoam.org
    \\  /    A nd           | Version:  10
     \\/     M anipulation  |
\*---------------------------------------------------------------------------*/
FoamFile
{
    format      ascii;
    class       volVectorField;
    location    "6.8";
    object      U;
}
// * * * * * * * * * * * * * * * * * * * * * * * * * * * * * * * * * * * * * //

dimensions      [0 1 -1 0 0 0 0];

internalField   nonuniform List<vector> 
400
(
(-0.000120789 0.000110161 0)
(-0.000954716 0.000360451 0)
(-0.00236866 0.000449385 0)
(-0.00379541 0.000472962 0)
(-0.00524509 0.000479278 0)
(-0.006678 0.000482551 0)
(-0.00807433 0.000481988 0)
(-0.00940965 0.000472306 0)
(-0.0106465 0.000446883 0)
(-0.0117324 0.000398268 0)
(-0.0125985 0.000318548 0)
(-0.0131596 0.00020041 0)
(-0.0133167 3.8701e-05 0)
(-0.012965 -0.000170239 0)
(-0.0120103 -0.000417665 0)
(-0.0103934 -0.0006819 0)
(-0.0081326 -0.000919238 0)
(-0.00541864 -0.00105601 0)
(-0.00237324 -0.000972565 0)
(-0.000378965 -0.000432878 0)
(-0.000401656 0.000967983 0)
(-0.00213749 0.00204339 0)
(-0.00479022 0.00241942 0)
(-0.00745555 0.00250445 0)
(-0.0101271 0.002489 0)
(-0.0127234 0.00243188 0)
(-0.015194 0.00233537 0)
(-0.0174868 0.00218366 0)
(-0.0195341 0.00195497 0)
(-0.0212499 0.00162458 0)
(-0.0225276 0.0011667 0)
(-0.023241 0.000557457 0)
(-0.0232528 -0.000219479 0)
(-0.0224179 -0.00115673 0)
(-0.020609 -0.00221428 0)
(-0.0177561 -0.00330207 0)
(-0.0139084 -0.00425138 0)
(-0.00935664 -0.00477728 0)
(-0.0043064 -0.00442804 0)
(-0.000824689 -0.00229745 0)
(-0.000520184 0.00249671 0)
(-0.00265752 0.00475463 0)
(-0.00585798 0.00552354 0)
(-0.00904873 0.00567196 0)
(-0.0122272 0.00558955 0)
(-0.0152987 0.00539756 0)
(-0.0182054 0.00510625 0)
(-0.0208894 0.00468989 0)
(-0.0232772 0.00410998 0)
(-0.0252765 0.0033216 0)
(-0.0267735 0.00227775 0)
(-0.0276321 0.00093596 0)
(-0.0276893 -0.000729926 0)
(-0.0267673 -0.00270865 0)
(-0.024704 -0.0049217 0)
(-0.021387 -0.00718951 0)
(-0.0168371 -0.00917061 0)
(-0.0113778 -0.0102754 0)
(-0.00523978 -0.00957877 0)
(-0.00099535 -0.00522222 0)
(-0.000557466 0.00411235 0)
(-0.00286349 0.00762844 0)
(-0.00631118 0.00879602 0)
(-0.00973595 0.00899651 0)
(-0.0131486 0.00883825 0)
(-0.0164547 0.00850813 0)
(-0.0196018 0.00802453 0)
(-0.0225384 0.00735203 0)
(-0.0251971 0.00643496 0)
(-0.0274895 0.00520553 0)
(-0.0293003 0.00359007 0)
(-0.030482 0.00151971 0)
(-0.0308506 -0.00105185 0)
(-0.0301774 -0.00413203 0)
(-0.0282165 -0.00762307 0)
(-0.0247547 -0.0112635 0)
(-0.0197162 -0.014517 0)
(-0.0134308 -0.0164078 0)
(-0.006146 -0.0153924 0)
(-0.00111673 -0.00843824 0)
(-0.000565887 0.00580506 0)
(-0.00295885 0.0106568 0)
(-0.00655528 0.0122446 0)
(-0.0101284 0.0125043 0)
(-0.0137039 0.0122798 0)
(-0.0171935 0.0118285 0)
(-0.0205576 0.0111787 0)
(-0.0237587 0.010286 0)
(-0.026744 0.00907653 0)
(-0.0294367 0.00745585 0)
(-0.0317256 0.00531386 0)
(-0.0334517 0.00253732 0)
(-0.0344009 -0.000969993 0)
(-0.0342754 -0.00525587 0)
(-0.0327052 -0.0102419 0)
(-0.029305 -0.0156014 0)
(-0.0238033 -0.0205699 0)
(-0.0164605 -0.0236495 0)
(-0.00749998 -0.0224025 0)
(-0.0012832 -0.0122232 0)
(-0.000567404 0.00753799 0)
(-0.0030298 0.0137944 0)
(-0.00675782 0.0158284 0)
(-0.0104685 0.0161622 0)
(-0.0142026 0.0158927 0)
(-0.0178816 0.0153544 0)
(-0.0214838 0.0145888 0)
(-0.0249934 0.0135443 0)
(-0.0283808 0.012129 0)
(-0.0315928 0.0102177 0)
(-0.0345341 0.00765284 0)
(-0.037047 0.00425211 0)
(-0.038891 -0.000168464 0)
(-0.0396916 -0.00573721 0)
(-0.0389134 -0.0124793 0)
(-0.0359057 -0.0200545 0)
(-0.0300494 -0.0274525 0)
(-0.0213475 -0.0324659 0)
(-0.00979718 -0.0312668 0)
(-0.00157251 -0.0168978 0)
(-0.000567824 0.00930423 0)
(-0.00310247 0.0170352 0)
(-0.00696924 0.0195439 0)
(-0.0108237 0.0199695 0)
(-0.0147223 0.0196809 0)
(-0.0185992 0.0190989 0)
(-0.0224559 0.0182834 0)
(-0.0263059 0.0171802 0)
(-0.0301553 0.0156819 0)
(-0.0339914 0.0136318 0)
(-0.0377608 0.0108166 0)
(-0.0413341 0.00696314 0)
(-0.0444542 0.00175693 0)
(-0.0467083 -0.00509863 0)
(-0.047396 -0.0138487 0)
(-0.0454926 -0.0242603 0)
(-0.0398137 -0.0351689 0)
(-0.0296684 -0.0434992 0)
(-0.0141586 -0.0431468 0)
(-0.00219874 -0.0231544 0)
(-0.000567705 0.0111069 0)
(-0.00318196 0.0203888 0)
(-0.00719838 0.0234006 0)
(-0.0111993 0.023932 0)
(-0.0152586 0.0236478 0)
(-0.0193244 0.0230665 0)
(-0.0234263 0.0222749 0)
(-0.0276158 0.0212245 0)
(-0.0319489 0.0198015 0)
(-0.0364762 0.017824 0)
(-0.0412197 0.0150242 0)
(-0.0461276 0.0110245 0)
(-0.0510036 0.00532581 0)
(-0.0554817 -0.00266755 0)
(-0.0587495 -0.0134457 0)
(-0.0594178 -0.0272724 0)
(-0.0555052 -0.0431665 0)
(-0.0446542 -0.0573736 0)
(-0.0233746 -0.060035 0)
(-0.00382641 -0.0326238 0)
(-0.000567651 0.0129499 0)
(-0.00327128 0.023866 0)
(-0.00744755 0.0274036 0)
(-0.0115887 0.0280445 0)
(-0.0157875 0.0277779 0)
(-0.0200067 0.0272342 0)
(-0.0243071 0.0265385 0)
(-0.0287856 0.0256618 0)
(-0.0335621 0.0245008 0)
(-0.0387759 0.0228694 0)
(-0.0445717 0.0204637 0)
(-0.0510626 0.0168129 0)
(-0.0582562 0.0112234 0)
(-0.065897 0.00276638 0)
(-0.0734475 -0.0095715 0)
(-0.079535 -0.026852 0)
(-0.0809762 -0.0494196 0)
(-0.0715508 -0.0741518 0)
(-0.042426 -0.0854815 0)
(-0.00796977 -0.0490267 0)
(-0.000570872 0.0148404 0)
(-0.00338057 0.0274793 0)
(-0.00772878 0.0315524 0)
(-0.0119943 0.0322873 0)
(-0.0162923 0.0320318 0)
(-0.0205985 0.0315445 0)
(-0.0250052 0.0310022 0)
(-0.0296572 0.0304135 0)
(-0.0347458 0.0297118 0)
(-0.040521 0.0287446 0)
(-0.0472963 0.0272265 0)
(-0.0554393 0.0246625 0)
(-0.0653269 0.0202481 0)
(-0.0772857 0.0127865 0)
(-0.0915348 0.000560439 0)
(-0.107339 -0.0189436 0)
(-0.11944 -0.0499112 0)
(-0.113137 -0.0934298 0)
(-0.0736347 -0.125505 0)
(-0.0164695 -0.0798962 0)
(-0.000585536 0.0167965 0)
(-0.0035343 0.03125 0)
(-0.00807515 0.0358438 0)
(-0.0124418 0.0366263 0)
(-0.0167791 0.0363435 0)
(-0.0210732 0.0358991 0)
(-0.0254444 0.0355355 0)
(-0.0300796 0.0353178 0)
(-0.0352355 0.0352486 0)
(-0.0412713 0.0352629 0)
(-0.0486909 0.0351827 0)
(-0.0582007 0.034637 0)
(-0.0707743 0.032954 0)
(-0.0877546 0.029019 0)
(-0.110822 0.0205975 0)
(-0.139804 0.00160765 0)
(-0.163892 -0.041224 0)
(-0.156548 -0.117997 0)
(-0.108145 -0.185634 0)
(-0.0310208 -0.133543 0)
(-0.00062897 0.0188598 0)
(-0.00378184 0.0352251 0)
(-0.0085543 0.0402916 0)
(-0.0129934 0.041032 0)
(-0.0172923 0.0406351 0)
(-0.0214456 0.040169 0)
(-0.0255933 0.039953 0)
(-0.0299484 0.0401251 0)
(-0.0348073 0.0407908 0)
(-0.0406046 0.0420388 0)
(-0.0479956 0.0439209 0)
(-0.0579859 0.0464151 0)
(-0.0721035 0.0493591 0)
(-0.0926856 0.0520603 0)
(-0.122688 0.0510432 0)
(-0.160467 0.0324937 0)
(-0.187607 -0.0304085 0)
(-0.173347 -0.152903 0)
(-0.131132 -0.258465 0)
(-0.0475419 -0.218072 0)
(-0.000731608 0.0210883 0)
(-0.00420007 0.0394063 0)
(-0.0092735 0.0447915 0)
(-0.0137626 0.0453312 0)
(-0.0179373 0.0447026 0)
(-0.0217966 0.0441211 0)
(-0.0254959 0.043963 0)
(-0.0292475 0.0444441 0)
(-0.0333313 0.0457908 0)
(-0.0381691 0.048289 0)
(-0.0444277 0.0523226 0)
(-0.0531809 0.0584116 0)
(-0.0660906 0.067119 0)
(-0.0853827 0.0777299 0)
(-0.113755 0.083668 0)
(-0.147063 0.0615614 0)
(-0.16695 -0.0227225 0)
(-0.15043 -0.181492 0)
(-0.133143 -0.320358 0)
(-0.0514251 -0.324701 0)
(-0.000982165 0.0237636 0)
(-0.00501471 0.0443166 0)
(-0.0104686 0.0499603 0)
(-0.0149085 0.0501299 0)
(-0.0188165 0.0489831 0)
(-0.0222266 0.0479687 0)
(-0.025277 0.0475598 0)
(-0.0281274 0.0480515 0)
(-0.0309783 0.0497769 0)
(-0.0341178 0.0532058 0)
(-0.0379971 0.0590413 0)
(-0.0433105 0.0682591 0)
(-0.0511318 0.0819049 0)
(-0.0621653 0.0983319 0)
(-0.0782434 0.107649 0)
(-0.094763 0.0807199 0)
(-0.105207 -0.0148712 0)
(-0.0948822 -0.188778 0)
(-0.107362 -0.358376 0)
(-0.0372606 -0.418371 0)
(-0.00134682 0.027036 0)
(-0.00596879 0.0486579 0)
(-0.0120859 0.0536776 0)
(-0.0166615 0.0528877 0)
(-0.0204001 0.0512056 0)
(-0.0232487 0.0499485 0)
(-0.0254145 0.0494481 0)
(-0.0270362 0.0499233 0)
(-0.028196 0.051718 0)
(-0.028949 0.0553848 0)
(-0.0293819 0.0617866 0)
(-0.0294632 0.0720033 0)
(-0.0294675 0.087123 0)
(-0.0282545 0.104493 0)
(-0.0278855 0.114111 0)
(-0.0236067 0.085976 0)
(-0.0277349 -0.00977119 0)
(-0.0251581 -0.175232 0)
(-0.0666343 -0.365523 0)
(-0.0192717 -0.477018 0)
(-0.00342103 0.0299663 0)
(-0.01037 0.0568196 0)
(-0.0158811 0.0617723 0)
(-0.0195638 0.0604591 0)
(-0.0221755 0.0572894 0)
(-0.0240825 0.0545273 0)
(-0.0253273 0.0526456 0)
(-0.0258389 0.0519047 0)
(-0.0254513 0.0526027 0)
(-0.0238987 0.0552003 0)
(-0.0208686 0.0604849 0)
(-0.0155535 0.0693062 0)
(-0.00794985 0.0825497 0)
(0.00486337 0.0974803 0)
(0.0188858 0.105966 0)
(0.038496 0.0814022 0)
(0.0398682 -0.00390553 0)
(0.0382319 -0.144883 0)
(-0.03222 -0.346707 0)
(-0.00124635 -0.507034 0)
(-0.00109508 0.0438037 0)
(-0.00840484 0.0590462 0)
(-0.0189141 0.0601601 0)
(-0.0228897 0.0558128 0)
(-0.0261463 0.0526335 0)
(-0.0275046 0.0504437 0)
(-0.0276908 0.0490612 0)
(-0.0266811 0.0483906 0)
(-0.0243414 0.0486133 0)
(-0.0202665 0.0500192 0)
(-0.0139715 0.0532988 0)
(-0.00412911 0.0588134 0)
(0.00939602 0.0673684 0)
(0.0302128 0.0768712 0)
(0.0519212 0.0810206 0)
(0.0814968 0.0623208 0)
(0.0841845 -0.0029729 0)
(0.080949 -0.108812 0)
(-0.00100268 -0.316167 0)
(0.0232941 -0.514381 0)
(-0.0124935 0.0325571 0)
(-0.0240034 0.0799273 0)
(-0.0231578 0.0791717 0)
(-0.0289668 0.0740557 0)
(-0.0304635 0.0667355 0)
(-0.0301877 0.0606063 0)
(-0.0279605 0.0555945 0)
(-0.0240593 0.0516621 0)
(-0.0185545 0.0488026 0)
(-0.0110908 0.0468592 0)
(-0.00175287 0.0462329 0)
(0.011061 0.0469543 0)
(0.0267338 0.0499044 0)
(0.0490524 0.0532358 0)
(0.0693433 0.0555959 0)
(0.101587 0.0447255 0)
(0.102796 0.0057244 0)
(0.118856 -0.0699304 0)
(0.0493141 -0.282672 0)
(0.0592168 -0.497899 0)
(-0.0774409 0.096402 0)
(-0.0631651 0.0591194 0)
(-0.0655995 0.059887 0)
(-0.0439243 0.0532147 0)
(-0.0267436 0.0462967 0)
(-0.00678103 0.0411476 0)
(0.0120544 0.037391 0)
(0.0311282 0.0342014 0)
(0.0487299 0.0318568 0)
(0.0676465 0.0296354 0)
(0.0840697 0.0283697 0)
(0.104823 0.0274108 0)
(0.11996 0.0272105 0)
(0.149048 0.0274707 0)
(0.159923 0.0236442 0)
(0.204265 0.0162633 0)
(0.196996 -0.0180801 0)
(0.231927 -0.0778385 0)
(0.160104 -0.257215 0)
(0.126063 -0.438404 0)
(0.119595 0.140811 0)
(0.152341 0.0861961 0)
(0.228996 0.0635962 0)
(0.284445 0.0481186 0)
(0.325698 0.037439 0)
(0.364009 0.0296516 0)
(0.392624 0.0241897 0)
(0.423778 0.0201578 0)
(0.443663 0.0172433 0)
(0.472239 0.015014 0)
(0.484788 0.0132509 0)
(0.514589 0.0121679 0)
(0.519657 0.0109649 0)
(0.553383 0.0103688 0)
(0.548582 0.00865202 0)
(0.583582 0.00434948 0)
(0.554056 -0.00484183 0)
(0.561136 -0.0276624 0)
(0.425282 -0.072972 0)
(0.276145 -0.152 0)
)
;

boundaryField
{
    movingWall
    {
        type            fixedValue;
        value           uniform (1 0 0);
    }
    fixedWalls
    {
        type            noSlip;
    }
    frontAndBack
    {
        type            empty;
    }
}


// ************************************************************************* //
