/*--------------------------------*- C++ -*----------------------------------*\
  =========                 |
  \\      /  F ield         | OpenFOAM: The Open Source CFD Toolbox
   \\    /   O peration     | Website:  https://openfoam.org
    \\  /    A nd           | Version:  10
     \\/     M anipulation  |
\*---------------------------------------------------------------------------*/
FoamFile
{
    format      ascii;
    class       volScalarField;
    location    "2.7";
    object      p;
}
// * * * * * * * * * * * * * * * * * * * * * * * * * * * * * * * * * * * * * //

dimensions      [0 2 -2 0 0 0 0];

internalField   nonuniform List<scalar> 
8000
(
-1.04701e-08
-1.61275e-05
2.13836e-05
9.21944e-05
0.000199595
0.000342934
0.000520565
0.000730064
0.000967952
0.00122951
0.00150878
0.00179825
0.00208906
0.00237107
0.00263323
0.00286411
0.00305255
0.00318875
0.00327119
0.00327105
7.46339e-06
-7.52688e-06
3.03685e-05
9.95959e-05
0.000204592
0.000345068
0.000519644
0.00072614
0.000961304
0.00122065
0.00149827
0.00178678
0.00207755
0.00236036
0.00262399
0.00285679
0.00304726
0.00318536
0.00327012
0.00326939
-3.89999e-05
-5.59805e-05
-1.82505e-05
5.06638e-05
0.000155804
0.000297125
0.000473515
0.000683085
0.000922856
0.00118856
0.00147452
0.0017736
0.00207661
0.00237303
0.00265103
0.00289801
0.00310125
0.00324929
0.00334068
0.00333904
-0.000123763
-0.000143057
-0.000105598
-3.67171e-05
6.93115e-05
0.000212809
0.000393085
0.000608691
0.000857074
0.00113433
0.00143499
0.00175192
0.00207604
0.00239605
0.00269895
0.00297055
0.00319611
0.00336178
0.00346504
0.00346419
-0.000252771
-0.000275032
-0.000237904
-0.00016874
-6.09642e-05
8.62263e-05
0.000272701
0.000497615
0.000758999
0.00105348
0.00137596
0.0017194
0.00207458
0.00242947
0.00276962
0.0030785
0.00333829
0.00353136
0.00365323
0.00365467
-0.000428879
-0.000454984
-0.000418382
-0.000348926
-0.00023895
-8.70304e-05
0.000107441
0.000344414
0.000622719
0.000939719
0.00129092
0.00166961
0.00206663
0.0024691
0.00286084
0.00322233
0.00353139
0.00376471
0.00391441
0.00392031
-0.000655299
-0.000686346
-0.000650725
-0.000581426
-0.000469388
-0.000312402
-0.000108908
0.000142081
0.000440462
0.000784639
0.00117105
0.00159363
0.00204375
0.00250787
0.00296803
0.00340111
0.00377903
0.00407025
0.00426094
0.00427507
-0.000936058
-0.000973424
-0.000939593
-0.000871472
-0.000758251
-0.000596741
-0.000384185
-0.000118283
0.000202244
0.000577224
0.00100448
0.00147908
0.00199379
0.00253486
0.00308301
0.0036113
0.0040842
0.00445835
0.00470957
0.0047391
-0.00127604
-0.00132143
-0.0012906
-0.00122536
-0.00111272
-0.00094829
-0.000727855
-0.000447504
-0.000104235
0.000303639
0.000775917
0.00130942
0.0018995
0.00253336
0.00319169
0.00384426
0.00444713
0.0049406
0.00528212
0.00534038
-0.00168119
-0.00173667
-0.00171046
-0.00165053
-0.00154122
-0.0013767
-0.001151
-0.000858305
-0.000493596
-5.2905e-05
0.000466336
0.001065
0.00173719
0.00247845
0.00327059
0.0040821
0.00486097
0.00552773
0.00600638
0.00612357
-0.00215896
-0.00222689
-0.00220722
-0.00215573
-0.00205353
-0.00189301
-0.00166616
-0.00136505
-0.000982466
-0.000512
5.18702e-05
0.000713253
0.00147419
0.002334
0.00328192
0.00429081
0.00530419
0.00622389
0.00691433
0.00715498
-0.00271918
-0.00280191
-0.00279067
-0.00275123
-0.00266078
-0.00250952
-0.00228705
-0.00198318
-0.0015886
-0.00109458
-0.000492455
0.00022673
0.00107145
0.00205015
0.00316714
0.00440936
0.00572625
0.00701203
0.0080367
0.00853848
-0.00337605
-0.00347468
-0.00347303
-0.00344919
-0.00337563
-0.00323964
-0.003028
-0.00272825
-0.00232941
-0.0018213
-0.00119313
-0.000431826
0.00047986
0.00156017
0.00284017
0.00433502
0.00602372
0.00782646
0.00937611
0.0104381
-0.00415526
-0.00426537
-0.00427086
-0.00426455
-0.00421258
-0.00409773
-0.00390324
-0.00361438
-0.00321941
-0.00270842
-0.00207084
-0.00129128
-0.000344939
0.0008041
0.00219362
0.00390698
0.00599857
0.00848994
0.0108326
0.0131515
-0.00507749
-0.005197
-0.00520541
-0.00521678
-0.00518869
-0.00509816
-0.00492488
-0.00465142
-0.00426625
-0.00376249
-0.00313503
-0.00237618
-0.00146843
-0.000370763
0.00100117
0.00281563
0.0052226
0.00859547
0.012099
0.016887
-0.00633036
-0.00629537
-0.00627045
-0.00627683
-0.00628147
-0.00623307
-0.00609455
-0.00584075
-0.00546501
-0.00496846
-0.00435765
-0.00363448
-0.00279053
-0.00178154
-0.000495529
0.00125834
0.00356431
0.00755239
0.0120279
0.0211294
-0.00760171
-0.00788074
-0.0077831
-0.00783498
-0.00781424
-0.00771802
-0.00752902
-0.00723359
-0.00682969
-0.0063239
-0.00573835
-0.00509792
-0.00444064
-0.00378545
-0.00313258
-0.0023146
-0.00114887
0.0033651
0.00836818
0.0250318
-0.0113654
-0.00885051
-0.00871117
-0.00851902
-0.00858193
-0.00863648
-0.00859973
-0.00841329
-0.00806815
-0.00757873
-0.00700048
-0.00637776
-0.00581584
-0.00537842
-0.00523658
-0.00514718
-0.0057823
-0.00129936
0.00384892
0.0311013
-0.011813
-0.0129546
-0.0121154
-0.0121633
-0.0118618
-0.0114938
-0.0110355
-0.0104827
-0.00985462
-0.00915002
-0.00844609
-0.00777955
-0.00732957
-0.00723857
-0.00792331
-0.0089961
-0.0128258
-0.00792783
-0.00396869
0.0478128
-0.035108
-0.0106122
-0.0100814
-0.00962008
-0.00953271
-0.00971055
-0.00983086
-0.00974279
-0.00945922
-0.00895381
-0.00842756
-0.00777522
-0.00741214
-0.00700852
-0.00721287
-0.00629199
-0.00446699
0.0108724
0.0416893
0.132865
-3.67589e-07
-2.25799e-05
1.46802e-05
8.52177e-05
0.000193029
0.000337173
0.000515876
0.000726687
0.000966177
0.0012296
0.00151085
0.00180243
0.00209547
0.00237978
0.00264415
0.00287697
0.0030667
0.00320288
0.00328432
0.00327414
1.82402e-05
-4.59933e-06
3.28526e-05
0.000101235
0.000205826
0.000346098
0.000520569
0.00072707
0.000962375
0.00122202
0.00150011
0.00178927
0.00208082
0.00236452
0.00262909
0.00286272
0.00305359
0.00319108
0.00327487
0.00326342
-2.53015e-05
-5.13118e-05
-1.42198e-05
5.36666e-05
0.000158246
0.000299198
0.000475317
0.000684731
0.000924489
0.00119035
0.00147664
0.00177626
0.00207998
0.00237728
0.00265623
0.00290408
0.00310774
0.00325508
0.00334539
0.00333164
-0.000107516
-0.000136576
-9.98362e-05
-3.21246e-05
7.32114e-05
0.000216198
0.000396051
0.000611346
0.000859563
0.00113683
0.00143771
0.00175512
0.00207991
0.00240077
0.00270464
0.00297716
0.00320318
0.00336805
0.00347005
0.00345565
-0.000234291
-0.000267092
-0.000230706
-0.0001628
-5.57871e-05
9.08287e-05
0.000276824
0.000501377
0.000762558
0.00105703
0.00137975
0.00172372
0.00207965
0.00243553
0.00277682
0.00308682
0.00334721
0.0035394
0.0036598
0.00364572
-0.000407912
-0.000445504
-0.000409634
-0.000341508
-0.000232344
-8.10342e-05
0.000112935
0.000349542
0.000627662
0.000944707
0.00129623
0.00167562
0.00207358
0.00247731
0.00287055
0.00323354
0.00354351
0.00377596
0.00392393
0.00391183
-0.000631248
-0.000674946
-0.000640029
-0.000572143
-0.000460978
-0.000304644
-0.000101674
0.000148954
0.00044719
0.000791502
0.0011784
0.00160194
0.00205333
0.00251918
0.00298143
0.0034167
0.00379618
0.00408671
0.00427539
0.0042679
-0.000908077
-0.000959519
-0.000926351
-0.000859761
-0.00074751
-0.000586731
-0.00037475
-0.000109218
0.000211211
0.000586443
0.00101441
0.0014904
0.00200686
0.00255041
0.00310169
0.00363341
0.00410911
0.00448324
0.00473224
0.00473523
-0.00124299
-0.00130419
-0.00127398
-0.00121046
-0.00109896
-0.000935425
-0.000715683
-0.000435755
-9.25569e-05
0.000315694
0.000788933
0.00132442
0.00191699
0.00255457
0.00321773
0.00387597
0.00448402
0.00497927
0.00531889
0.00534647
-0.0016415
-0.00171492
-0.00168932
-0.00163142
-0.00152358
-0.00136026
-0.0011355
-0.000843375
-0.000478765
-3.75984e-05
0.000482701
0.00108235
0.00175991
0.00250695
0.00330671
0.00412773
0.00491642
0.00558913
0.00606715
0.00614944
-0.00211036
-0.0021989
-0.0021799
-0.00213101
-0.00203089
-0.00187217
-0.00164674
-0.00134653
-0.000964172
-0.000493083
7.2365e-05
0.0007357
0.00150346
0.00237154
0.00333133
0.00435615
0.00538791
0.00632302
0.00701661
0.00722501
-0.00265818
-0.00276506
-0.00275476
-0.00271899
-0.00263177
-0.00248339
-0.00226324
-0.00196093
-0.00156691
-0.00107217
-0.000467427
0.000258062
0.00110764
0.00209774
0.00323286
0.00450111
0.00585142
0.00717289
0.00821093
0.00871305
-0.00329675
-0.00342451
-0.00342469
-0.00340669
-0.00333855
-0.00320745
-0.00299979
-0.00270281
-0.00230528
-0.00179676
-0.00116596
-0.000399086
0.000520854
0.00161812
0.00292371
0.00445808
0.00620354
0.00807884
0.0096732
0.0108556
-0.00404744
-0.00419465
-0.00420375
-0.00420765
-0.00416544
-0.00405931
-0.00387182
-0.0035879
-0.00319558
-0.00268478
-0.00204418
-0.00125688
-0.000291554
0.000858894
0.0022813
0.00404929
0.0062239
0.00884253
0.0113087
0.014128
-0.00491618
-0.0050952
-0.00511172
-0.00514331
-0.00513268
-0.00505696
-0.00489521
-0.00463023
-0.00424998
-0.00374778
-0.00311904
-0.00235691
-0.00144999
-0.000331992
0.00108994
0.00293424
0.00542306
0.0089838
0.0126502
0.0186366
-0.00607668
-0.0060956
-0.00610315
-0.00614906
-0.00619562
-0.00618349
-0.00607232
-0.00583855
-0.00547322
-0.0049799
-0.00436672
-0.00363608
-0.00277992
-0.00174224
-0.00043783
0.00117285
0.00337037
0.00733579
0.0113486
0.022557
-0.00711821
-0.00766103
-0.00759137
-0.00774981
-0.00779211
-0.00774453
-0.00758591
-0.00730796
-0.00691116
-0.00640387
-0.0058124
-0.00516389
-0.00450646
-0.00388237
-0.00336939
-0.00280757
-0.00254202
0.00113582
0.00396528
0.0240567
-0.0105578
-0.00823627
-0.00824639
-0.00822558
-0.00846224
-0.00864413
-0.00869732
-0.00856235
-0.00824129
-0.00775072
-0.00716
-0.00651198
-0.0059453
-0.00555529
-0.0056733
-0.0062019
-0.00869763
-0.00631053
-0.00410412
0.028437
-0.00891741
-0.0118691
-0.0115716
-0.0122186
-0.012225
-0.0120386
-0.0116567
-0.0111079
-0.0104408
-0.00965842
-0.00887272
-0.00812402
-0.00760645
-0.00753767
-0.00850782
-0.0101876
-0.016328
-0.0142228
-0.0081375
0.0490689
-0.0322971
-0.00855484
-0.00858185
-0.00884963
-0.00923198
-0.00966412
-0.00997476
-0.00997585
-0.00974651
-0.00920894
-0.00869175
-0.00794787
-0.00764375
-0.00722303
-0.0077725
-0.00731828
-0.00583866
0.0101043
0.0517742
0.156717
2.09128e-06
-2.19471e-05
1.51553e-05
8.53417e-05
0.000193058
0.000337309
0.000516293
0.000727552
0.000967548
0.00123164
0.00151377
0.00180641
0.00210059
0.00238604
0.00265149
0.0028852
0.00307545
0.00321149
0.0032924
0.00327896
2.43989e-05
-9.73979e-07
3.61556e-05
0.000103984
0.00020822
0.000348264
0.000522624
0.000729133
0.000964566
0.00122448
0.00150299
0.00179271
0.00208494
0.00236938
0.00263468
0.00286891
0.00306007
0.00319727
0.00328054
0.003266
-1.73806e-05
-4.63494e-05
-9.74362e-06
5.74366e-05
0.000161547
0.000302166
0.000478066
0.000687382
0.000927177
0.00119323
0.00147986
0.00178
0.00208437
0.00238243
0.00266215
0.00291065
0.00311464
0.00326169
0.00335148
0.00333444
-9.77219e-05
-0.000130044
-9.38845e-05
-2.70109e-05
7.77324e-05
0.000220264
0.000399777
0.000614859
0.00086301
0.00114039
0.00144155
0.00175946
0.00208491
0.00240658
0.0027113
0.00298458
0.00321101
0.00337561
0.0034771
0.0034591
-0.000222613
-0.00025899
-0.000223252
-0.000156294
-4.99739e-05
9.60907e-05
0.000281655
0.000505917
0.000766978
0.00106153
0.00138455
0.00172909
0.00208579
0.00244264
0.002785
0.00309599
0.00335702
0.00354904
0.00366892
0.00365085
-0.000394057
-0.000435596
-0.000400435
-0.000333375
-0.00022501
-7.43516e-05
0.000119099
0.000355349
0.000633312
0.000950442
0.00130234
0.00168242
0.00208137
0.00248637
0.00288106
0.00324549
0.00355651
0.00378902
0.0039365
0.00391945
-0.000614686
-0.000662784
-0.000628648
-0.000561979
-0.000451756
-0.000296211
-9.38813e-05
0.0001563
0.000454334
0.000798747
0.00118611
0.00161056
0.00206326
0.00253086
0.00299519
0.00343265
0.00381393
0.00410505
0.00429347
0.00428021
-0.000888032
-0.000944436
-0.000912152
-0.000846995
-0.000735907
-0.000576134
-0.000364988
-0.000100055
0.000220084
0.000595416
0.00102397
0.00150114
0.00201937
0.00256538
0.00311972
0.00365487
0.00413372
0.00450952
0.00475891
0.00475534
-0.00121837
-0.00128524
-0.00125608
-0.00119432
-0.00108434
-0.000922167
-0.000703587
-0.000424525
-8.17943e-05
0.000326496
0.000800413
0.00133741
0.00193236
0.00257339
0.0032411
0.00390473
0.00451825
0.00501736
0.0053588
0.00537858
-0.00161076
-0.00169074
-0.00166646
-0.00161086
-0.00150513
-0.00134377
-0.00112071
-0.000829917
-0.00046611
-2.50792e-05
0.000495908
0.00109729
0.00177804
0.00252986
0.00333623
0.00416567
0.00496371
0.00564449
0.00612739
0.00620281
-0.00207123
-0.0021675
-0.00215031
-0.00210462
-0.00200757
-0.00185179
-0.00162899
-0.00133088
-0.000949917
-0.000479317
8.6849e-05
0.000752898
0.00152374
0.00239795
0.00336703
0.00440457
0.00545186
0.00640285
0.00710749
0.00731611
-0.00260725
-0.00272347
-0.00271585
-0.00268478
-0.00260227
-0.00245846
-0.00224244
-0.00194351
-0.0015519
-0.0010584
-0.00045363
0.000272919
0.00112737
0.00212533
0.00327277
0.00455923
0.00593416
0.007285
0.00834646
0.00887159
-0.00322861
-0.00336804
-0.00337251
-0.00336184
-0.00330118
-0.00317737
-0.00297627
-0.00268472
-0.00229123
-0.00178523
-0.00115548
-0.000387545
0.000536205
0.0016422
0.00296216
0.00451997
0.00630147
0.00822682
0.00986755
0.0111322
-0.00395316
-0.00411574
-0.00413195
-0.00414785
-0.00411794
-0.00402368
-0.00384675
-0.00357147
-0.00318569
-0.0026793
-0.00204171
-0.00125504
-0.000290385
0.000869392
0.00230432
0.00409647
0.00631588
0.00901085
0.0115675
0.0146041
-0.00478107
-0.00498304
-0.00501137
-0.00506355
-0.00507328
-0.00501668
-0.00487164
-0.00461995
-0.00424977
-0.00375433
-0.00312977
-0.00236976
-0.00146068
-0.000347125
0.00107477
0.00292459
0.00544441
0.00910415
0.0129122
0.0193202
-0.00587417
-0.00591667
-0.00594731
-0.00602686
-0.00611049
-0.00613312
-0.00605211
-0.00584068
-0.00549109
-0.00500716
-0.00439922
-0.00367188
-0.00281998
-0.00179166
-0.000507833
0.00105586
0.00318273
0.00714702
0.0111753
0.022986
-0.00679726
-0.00741053
-0.00737602
-0.00760426
-0.00770636
-0.00771194
-0.00759764
-0.00735036
-0.0069727
-0.0064751
-0.00588827
-0.00524361
-0.00459802
-0.00400806
-0.00357824
-0.00318806
-0.00330612
-1.88436e-06
0.00268741
0.0235424
-0.01012
-0.00785316
-0.00790309
-0.00796994
-0.00830969
-0.00858297
-0.00871069
-0.00862935
-0.008342
-0.00786638
-0.00728117
-0.0066325
-0.00608016
-0.00573496
-0.00600273
-0.00681509
-0.0100348
-0.00849136
-0.00602541
0.0277696
-0.00789087
-0.0111084
-0.0109862
-0.0118344
-0.0120505
-0.0120473
-0.0117946
-0.0113186
-0.0106864
-0.00990279
-0.00910133
-0.00833107
-0.00780814
-0.0077866
-0.00895211
-0.0109703
-0.0179293
-0.016399
-0.00753236
0.0512035
-0.0314202
-0.00772421
-0.00786249
-0.00835728
-0.00896687
-0.00957244
-0.00999864
-0.0100739
-0.00989571
-0.00936116
-0.00884903
-0.00808364
-0.00781751
-0.00744789
-0.00815397
-0.00785759
-0.00604626
0.0107
0.0574015
0.165992
5.6068e-06
-1.98276e-05
1.6922e-05
8.67472e-05
0.000194298
0.000338545
0.000517668
0.000729205
0.000969663
0.00123435
0.00151718
0.00181062
0.00210568
0.00239205
0.00265837
0.00289277
0.0030834
0.00321933
0.00329987
0.00328463
2.98895e-05
3.09943e-06
3.98216e-05
0.000107149
0.000211048
0.000350883
0.000525152
0.000731694
0.000967298
0.00122752
0.00150649
0.00179677
0.00208966
0.00237482
0.0026408
0.00287558
0.003067
0.00320402
0.00328691
0.00327039
-1.05279e-05
-4.1087e-05
-4.97388e-06
6.16066e-05
0.000165283
0.000305596
0.000481309
0.000690565
0.000930441
0.00119673
0.00148375
0.00178442
0.00208945
0.00238824
0.00266868
0.00291779
0.00312209
0.00326897
0.00335836
0.00333907
-8.92373e-05
-0.000123295
-8.77099e-05
-2.15445e-05
8.26555e-05
0.000224769
0.000403983
0.000618899
0.000867038
0.00114457
0.00144608
0.00176453
0.00209068
0.00241315
0.00271871
0.00299273
0.00321959
0.00338409
0.00348519
0.00346469
-0.000212355
-0.000250617
-0.000215533
-0.000149396
-4.37304e-05
0.000101806
0.000286969
0.000510978
0.000771963
0.00106665
0.00139002
0.00173516
0.00209269
0.00245053
0.00279398
0.00310599
0.00336771
0.0035598
0.00367936
0.00365846
-0.000381701
-0.000425301
-0.000390882
-0.000324774
-0.000217197
-6.71972e-05
0.000125733
0.000361635
0.000639462
0.000956708
0.00130901
0.00168983
0.00208983
0.00249616
0.00289236
0.00325829
0.00357049
0.00380341
0.0039508
0.00393071
-0.000599706
-0.000650081
-0.000616803
-0.000551263
-0.000442011
-0.000287307
-8.56621e-05
0.000164038
0.000461853
0.00080637
0.00119422
0.0016196
0.00207368
0.0025431
0.00300961
0.00344937
0.00383268
0.00412489
0.00431371
0.00429711
-0.000869672
-0.000928623
-0.000897364
-0.000833594
-0.000723751
-0.000565095
-0.000354888
-9.06438e-05
0.000229136
0.000604527
0.00103365
0.00151199
0.00203204
0.00258058
0.00313809
0.00367682
0.00415912
0.00453733
0.00478808
0.00478115
-0.00119556
-0.00126532
-0.00123744
-0.00117746
-0.00106916
-0.000908533
-0.000691297
-0.000413266
-7.11413e-05
0.000337087
0.000811612
0.00135003
0.00194736
0.00259185
0.00326415
0.0039333
0.00455265
0.00505659
0.00540127
0.00541847
-0.00158199
-0.00166531
-0.00164272
-0.00158952
-0.00148613
-0.00132701
-0.00110595
-0.000816738
-0.000453961
-1.32528e-05
0.000508286
0.0011113
0.00179501
0.00255143
0.00336428
0.00420207
0.00500974
0.00569973
0.00618959
0.00626532
-0.00203432
-0.00213454
-0.00211969
-0.00207738
-0.00198376
-0.00183131
-0.00161153
-0.0013159
-0.000936672
-0.00046688
9.96117e-05
0.000767393
0.00154159
0.00242153
0.00339936
0.00444909
0.00551178
0.00647972
0.00719854
0.00741563
-0.00255895
-0.00267999
-0.0026758
-0.0026497
-0.00257235
-0.00243364
-0.00222226
-0.0019272
-0.00153845
-0.00104661
-0.000442083
0.000285789
0.00114362
0.00214803
0.00330636
0.0046096
0.00600804
0.00738861
0.00847867
0.00903227
-0.00316403
-0.00330959
-0.00331929
-0.00331621
-0.00326354
-0.00314759
-0.00295366
-0.00266812
-0.00227921
-0.00177621
-0.00114758
-0.000379418
0.000546549
0.00165827
0.0029897
0.0045681
0.00638281
0.00835698
0.0100524
0.0113976
-0.00386435
-0.00403547
-0.00405988
-0.00408777
-0.00407045
-0.0039885
-0.00382267
-0.00355665
-0.003178
-0.00267682
-0.00204226
-0.00125716
-0.000292387
0.000868411
0.00231105
0.00412328
0.00638231
0.00914825
0.0118066
0.0150404
-0.0046565
-0.00487125
-0.0049125
-0.00498414
-0.00501386
-0.00497645
-0.0048484
-0.00461074
-0.00425147
-0.00376426
-0.00314592
-0.00239139
-0.00148909
-0.000384149
0.00103156
0.00288517
0.00543017
0.0091773
0.0131547
0.0199623
-0.00569253
-0.00575036
-0.00580229
-0.00591207
-0.00602886
-0.00608365
-0.00603105
-0.00584211
-0.00550921
-0.00503701
-0.0044378
-0.00371879
-0.00287867
-0.00186773
-0.000603714
0.000906654
0.0029844
0.00695422
0.0111351
0.0235717
-0.00652998
-0.00719091
-0.00718647
-0.00747237
-0.00762445
-0.00767656
-0.00759923
-0.00738022
-0.00702274
-0.00653858
-0.00596206
-0.00532869
-0.00470386
-0.00415683
-0.00382236
-0.00357402
-0.00393457
-0.000932125
0.00182201
0.0236138
-0.00973775
-0.00750905
-0.00760473
-0.00774461
-0.00816389
-0.00851301
-0.0087046
-0.00867175
-0.00841726
-0.00796045
-0.00738727
-0.00674883
-0.00622241
-0.00593364
-0.00634078
-0.00741922
-0.0112369
-0.010218
-0.00768327
0.0276463
-0.00725645
-0.0106487
-0.0105834
-0.0115896
-0.0119242
-0.0120289
-0.0118602
-0.0114429
-0.0108443
-0.0100712
-0.00927098
-0.00849872
-0.00799014
-0.00802952
-0.00935851
-0.0116843
-0.0192707
-0.0181818
-0.00829997
0.0530156
-0.0306517
-0.00699858
-0.00724509
-0.00790594
-0.00869013
-0.0094427
-0.00998301
-0.0101433
-0.01001
-0.00949201
-0.00899313
-0.00822725
-0.00799017
-0.00767365
-0.00848762
-0.00833677
-0.00657776
0.0104596
0.0589735
0.17151
9.44568e-06
-1.64816e-05
2.00242e-05
8.95615e-05
0.000196908
0.000341043
0.000520153
0.000731786
0.000972458
0.00123748
0.00152076
0.00181475
0.00211044
0.00239746
0.00266439
0.0028993
0.00309023
0.00322619
0.0033066
0.0032907
3.45982e-05
7.24011e-06
4.36846e-05
0.000110664
0.00021429
0.000353937
0.000528111
0.00073466
0.000970384
0.00123085
0.00151018
0.00180093
0.00209437
0.00238012
0.00264668
0.00288193
0.00307365
0.00321069
0.00329347
0.0032763
-4.8845e-06
-3.60814e-05
-2.99115e-07
6.58671e-05
0.000169205
0.000309262
0.000484812
0.000694013
0.000933957
0.00120044
0.0014878
0.00178894
0.00209455
0.00239397
0.00267506
0.00292472
0.00312938
0.00327634
0.00336564
0.00334565
-8.23247e-05
-0.000117089
-8.18971e-05
-1.62304e-05
8.75423e-05
0.000229309
0.000408271
0.000623052
0.000871193
0.00114889
0.00145072
0.00176966
0.00209644
0.00241966
0.00272599
0.00300072
0.0032281
0.00339278
0.00349387
0.00347262
-0.000203922
-0.000242969
-0.000208348
-0.000142808
-3.76745e-05
0.000107408
0.000292219
0.000516008
0.000776933
0.00107174
0.00139545
0.00174115
0.00209945
0.00245823
0.0028027
0.00311571
0.00337823
0.00357073
0.00369045
0.00366876
-0.000371396
-0.000415875
-0.000382006
-0.000316621
-0.000209711
-6.03031e-05
0.000132146
0.000367719
0.00064541
0.000962758
0.00131543
0.00169692
0.00209789
0.00250547
0.00290309
0.0032705
0.00358399
0.00381774
0.00396559
0.00394473
-0.000587036
-0.000638405
-0.000605796
-0.000541152
-0.00043276
-0.000278845
-7.78684e-05
0.000171344
0.000468912
0.000813484
0.00120175
0.00162795
0.00208329
0.00255438
0.00302293
0.00346491
0.00385031
0.00414409
0.00433392
0.00431667
-0.00085395
-0.000914043
-0.000883626
-0.000821008
-0.000712309
-0.000554739
-0.000345485
-8.19747e-05
0.000237374
0.000612723
0.00104227
0.0015216
0.00204326
0.00259408
0.00315448
0.00369655
0.00418226
0.00456331
0.0048161
0.00480887
-0.00117584
-0.00124694
-0.00122016
-0.00116171
-0.00105499
-0.000895905
-0.000680062
-0.000403153
-6.17683e-05
0.000346216
0.000821114
0.00136065
0.00195998
0.00260749
0.00328384
0.00395797
0.00458279
0.00509175
0.00544032
0.0054582
-0.00155694
-0.00164186
-0.00162077
-0.00156969
-0.00146855
-0.00131167
-0.00109268
-0.00080521
-0.000443689
-3.60699e-06
0.000518092
0.00112222
0.0018083
0.00256852
0.00338687
0.00423191
0.00504818
0.00574692
0.00624403
0.0063229
-0.00200208
-0.00210427
-0.00209155
-0.00205226
-0.00196191
-0.00181278
-0.0015961
-0.00130317
-0.00092602
-0.000457519
0.000108661
0.000777283
0.00155398
0.00243834
0.00342318
0.00448304
0.00555884
0.00654171
0.00727394
0.00749998
-0.00251685
-0.00264039
-0.0026393
-0.00261762
-0.00254511
-0.00241135
-0.00220465
-0.00191374
-0.00152835
-0.0010389
-0.000435582
0.000292572
0.00115227
0.00216098
0.00332739
0.00464386
0.00606141
0.00746649
0.00858146
0.00915689
-0.00310824
-0.0032571
-0.00327139
-0.00327488
-0.00322946
-0.00312093
-0.00293405
-0.0026548
-0.00227111
-0.00177229
-0.00114651
-0.000379629
0.000546746
0.00166089
0.00299976
0.00459371
0.0064345
0.0084468
0.0101862
0.011583
-0.00378916
-0.00396492
-0.0039962
-0.00403399
-0.00402759
-0.00395676
-0.00380147
-0.00354486
-0.00317416
-0.00267929
-0.00204965
-0.00126809
-0.000304596
0.000852231
0.00229572
0.00412297
0.00641347
0.0092331
0.0119684
0.0153118
-0.00455457
-0.00477581
-0.00482714
-0.00491382
-0.00495986
-0.00493897
-0.00482641
-0.00460246
-0.00425465
-0.00377687
-0.00316671
-0.00242057
-0.00153017
-0.0004399
0.000954973
0.00282428
0.00539489
0.00920757
0.0133157
0.0203294
-0.00555103
-0.00561627
-0.00568296
-0.00581464
-0.00595638
-0.00603656
-0.00600749
-0.00583919
-0.00552277
-0.00506359
-0.00447553
-0.00376811
-0.00294386
-0.00196141
-0.000798212
0.000763594
0.00282913
0.00683112
0.0111681
0.02392
-0.00634112
-0.00702085
-0.00703415
-0.00735564
-0.00754208
-0.00762848
-0.00758264
-0.00739022
-0.00705368
-0.00658555
-0.00602259
-0.00540355
-0.00479828
-0.00427505
-0.00392451
-0.00384969
-0.00435122
-0.00146161
0.00148547
0.023727
-0.00948121
-0.00726514
-0.00738547
-0.00756704
-0.00803626
-0.00843661
-0.0086755
-0.00868248
-0.00845851
-0.0080232
-0.00746671
-0.0068441
-0.00634291
-0.00609596
-0.0065826
-0.00783465
-0.0119685
-0.0111955
-0.00840362
0.0275767
-0.00694681
-0.0103675
-0.0103074
-0.0113773
-0.0117734
-0.0119485
-0.0118453
-0.0114778
-0.0109146
-0.0101632
-0.00937762
-0.00861813
-0.00813292
-0.00822609
-0.00966675
-0.0121947
-0.0201223
-0.0192514
-0.00874783
0.0537579
-0.0302482
-0.0065862
-0.00687294
-0.00760569
-0.00848096
-0.00932479
-0.00994139
-0.0101569
-0.0100665
-0.00957353
-0.00909276
-0.00833973
-0.00813054
-0.00786378
-0.00876063
-0.00872564
-0.00702975
0.010148
0.0595886
0.173594
1.31395e-05
-1.30273e-05
2.32867e-05
9.26009e-05
0.000199768
0.000343785
0.000522853
0.000734531
0.000975345
0.0012406
0.00152421
0.00181862
0.00211479
0.00240231
0.00266973
0.00290505
0.00309625
0.00323232
0.00331271
0.00329656
3.87433e-05
1.11373e-05
4.73755e-05
0.000114105
0.000217518
0.000357007
0.000531094
0.000737643
0.000973462
0.00123413
0.00151376
0.0018049
0.0020988
0.00238505
0.00265209
0.00288777
0.00307978
0.00321694
0.00329972
0.00328229
-4.30508e-08
-3.1515e-05
4.02842e-06
6.99e-05
0.000172975
0.000312823
0.000488237
0.000697392
0.000937393
0.00120405
0.0014917
0.00179324
0.00209934
0.00239931
0.00268096
0.00293112
0.00313615
0.00328329
0.00337264
0.00335237
-7.64804e-05
-0.000111551
-7.66439e-05
-1.13354e-05
9.21036e-05
0.000233587
0.000412341
0.000627011
0.000875158
0.00115299
0.00145511
0.00177448
0.00210183
0.0024257
0.00273273
0.00300811
0.00323602
0.00340101
0.00350223
0.0034807
-0.000196803
-0.000236195
-0.000201916
-0.000136818
-3.2111e-05
0.000112592
0.000297102
0.0005207
0.000781574
0.0010765
0.00140051
0.0017467
0.00210568
0.00246529
0.00281069
0.00312463
0.00338795
0.00358098
0.003701
0.00367907
-0.000362668
-0.000407535
-0.000374088
-0.000309257
-0.000202901
-5.40055e-05
0.000138016
0.000373288
0.00065085
0.000968275
0.00132126
0.00170335
0.00210517
0.00251385
0.00291276
0.00328151
0.00359625
0.00383093
0.00397939
0.00395837
-0.000576252
-0.000628069
-0.000595993
-0.000532062
-0.000424406
-0.000271196
-7.08334e-05
0.000177917
0.000475232
0.000819818
0.00120842
0.00163531
0.00209173
0.0025643
0.00303465
0.00347862
0.00386599
0.00416137
0.00435233
0.00433512
-0.000840514
-0.000901134
-0.000871413
-0.00080974
-0.000702047
-0.000545468
-0.000337107
-7.43104e-05
0.000244587
0.000619825
0.00104968
0.00152981
0.00205283
0.00260559
0.0031685
0.0037135
0.00420229
0.00458606
0.00484089
0.00483414
-0.00115894
-0.00123067
-0.00120484
-0.00114768
-0.00104236
-0.0008847
-0.000670175
-0.000394369
-5.37604e-05
0.000353882
0.00082898
0.00136936
0.00197033
0.00262033
0.0033001
0.00397848
0.00460806
0.00512156
0.00547377
0.00549304
-0.00153547
-0.00162119
-0.0016014
-0.00155212
-0.00145299
-0.00129817
-0.00108114
-0.000795372
-0.000435139
4.19827e-06
0.000525831
0.00113072
0.00181862
0.00258189
0.00340472
0.00425575
0.00507921
0.00578548
0.00628896
0.00637119
-0.00197451
-0.00207772
-0.00206684
-0.00203012
-0.00194268
-0.00179658
-0.00158282
-0.00129247
-0.000917406
-0.00045031
0.000115279
0.000784263
0.00156281
0.00245052
0.00344087
0.00450881
0.00559521
0.00659027
0.00733367
0.00756715
-0.00248109
-0.00260598
-0.00260753
-0.00258956
-0.00252129
-0.00239196
-0.00218958
-0.00190257
-0.00152045
-0.00103341
-0.000431532
0.000296525
0.0011573
0.00216894
0.00334133
0.00466802
0.00610052
0.00752477
0.00865944
0.00925048
-0.00306143
-0.00321211
-0.00323021
-0.00323908
-0.00319983
-0.00309778
-0.00291722
-0.00264376
-0.00226515
-0.00177018
-0.00114729
-0.000381978
0.000544394
0.00165953
0.00300345
0.00460907
0.00646963
0.00851083
0.0102836
0.0117144
-0.00372734
-0.00390568
-0.00394242
-0.00398802
-0.00399056
-0.00392912
-0.00378299
-0.00353477
-0.00317141
-0.00268273
-0.00205814
-0.00128013
-0.000316642
0.00083488
0.0022793
0.0041167
0.00643067
0.00929019
0.012082
0.015494
-0.00447307
-0.00469774
-0.00475667
-0.00485461
-0.00491343
-0.00490593
-0.00480641
-0.00459438
-0.00425704
-0.0037884
-0.00318665
-0.00244947
-0.00157171
-0.000489477
0.000899638
0.00277151
0.00536119
0.00922391
0.0134265
0.0205674
-0.00544198
-0.00551118
-0.0055883
-0.00573553
-0.00589571
-0.00599536
-0.00598521
-0.00583376
-0.00553187
-0.00508507
-0.00450842
-0.00381309
-0.00300389
-0.00204078
-0.000906388
0.000650717
0.00271253
0.00674931
0.0112075
0.0241571
-0.00620383
-0.00689213
-0.00691672
-0.00726073
-0.00747125
-0.00758308
-0.00756148
-0.00739042
-0.00707212
-0.00661939
-0.00607053
-0.00546642
-0.00488004
-0.00438113
-0.00406471
-0.00405998
-0.00463777
-0.00178779
0.0013019
0.0238441
-0.0092975
-0.00708669
-0.00722406
-0.00743165
-0.00793365
-0.00836959
-0.00864313
-0.0086805
-0.00848153
-0.00806592
-0.00752638
-0.00692088
-0.00644363
-0.00623312
-0.00678438
-0.00813699
-0.012449
-0.0117936
-0.00884509
0.027553
-0.00675775
-0.0101825
-0.0101183
-0.0112196
-0.011653
-0.0118735
-0.0118124
-0.011482
-0.0109484
-0.0102186
-0.00945038
-0.00870772
-0.00824704
-0.00838412
-0.00990436
-0.0125605
-0.0207
-0.0199353
-0.0091806
0.0540663
-0.029987
-0.00631395
-0.00661972
-0.00739024
-0.00831829
-0.00921956
-0.00989
-0.0101501
-0.0100955
-0.00962637
-0.00916492
-0.00842859
-0.00824597
-0.00801807
-0.00898049
-0.00902105
-0.00741167
0.00982307
0.0595904
0.174514
1.64113e-05
-9.85697e-06
2.63269e-05
9.54838e-05
0.000202508
0.000346419
0.000525434
0.000737124
0.000978023
0.00124344
0.0015273
0.00182202
0.00211855
0.00240647
0.00267427
0.00290993
0.00310137
0.00323758
0.00331803
0.00330181
4.22723e-05
1.45558e-05
5.0653e-05
0.00011721
0.000220463
0.000359826
0.00053384
0.000740379
0.000976266
0.00123708
0.00151695
0.00180839
0.00210267
0.00238932
0.00265677
0.00289281
0.00308508
0.00322241
0.00330526
0.00328776
3.99936e-06
-2.75945e-05
7.78496e-06
7.34522e-05
0.000176332
0.000316016
0.000491319
0.000700432
0.000940475
0.00120727
0.00149515
0.00179701
0.00210352
0.00240395
0.00268606
0.00293666
0.00314204
0.00328941
0.00337887
0.00335855
-7.1663e-05
-0.000106872
-7.21635e-05
-7.10799e-06
9.60795e-05
0.000237341
0.000415927
0.000630505
0.000878657
0.0011566
0.00145896
0.00177868
0.00210649
0.00243092
0.00273854
0.0030145
0.00324289
0.00340823
0.00350965
0.0034881
-0.000190959
-0.00023051
-0.000196478
-0.0001317
-2.73231e-05
0.000117076
0.000301338
0.000524776
0.000785602
0.00108062
0.00140487
0.00175147
0.00211101
0.00247133
0.00281751
0.00313225
0.0033963
0.00358988
0.00371026
0.00368835
-0.000355498
-0.000400554
-0.000367421
-0.000303005
-0.000197089
-4.86147e-05
0.000143046
0.000378058
0.000655497
0.000972972
0.00132621
0.00170877
0.0021113
0.00252089
0.00292089
0.0032908
0.00360663
0.00384221
0.00399129
0.00397039
-0.000567381
-0.000619425
-0.000587759
-0.000524379
-0.000417322
-0.000264704
-6.48699e-05
0.000183469
0.000480545
0.00082511
0.00121395
0.00164139
0.0020987
0.00257248
0.00304431
0.00348996
0.003879