/*--------------------------------*- C++ -*----------------------------------*\
  =========                 |
  \\      /  F ield         | OpenFOAM: The Open Source CFD Toolbox
   \\    /   O peration     | Website:  https://openfoam.org
    \\  /    A nd           | Version:  10
     \\/     M anipulation  |
\*---------------------------------------------------------------------------*/
FoamFile
{
    format      ascii;
    class       surfaceScalarField;
    location    "2.7";
    object      phi;
}
// * * * * * * * * * * * * * * * * * * * * * * * * * * * * * * * * * * * * * //

dimensions      [0 3 -1 0 0 0 0];

internalField   nonuniform List<scalar> 
22800
(
-4.00751e-06
4.16946e-06
-1.61931e-07
-1.07411e-05
6.59144e-06
1.42177e-07
-1.77507e-05
6.78864e-06
2.20978e-07
-2.45003e-05
6.49336e-06
2.56188e-07
-3.07704e-05
6.01874e-06
2.51317e-07
-3.63983e-05
5.40635e-06
2.21598e-07
-4.12352e-05
4.66197e-06
1.7493e-07
-4.51385e-05
3.78902e-06
1.1422e-07
-4.79719e-05
2.79295e-06
4.05052e-08
-4.96127e-05
1.68209e-06
-4.1328e-08
-4.99482e-05
4.71888e-07
-1.36357e-07
-4.88869e-05
-8.23238e-07
-2.38085e-07
-4.63734e-05
-2.16952e-06
-3.43993e-07
-4.23946e-05
-3.52903e-06
-4.49695e-07
-3.69944e-05
-4.85173e-06
-5.48532e-07
-3.02868e-05
-6.07694e-06
-6.30619e-07
-2.24773e-05
-7.13063e-06
-6.78924e-07
-1.3918e-05
-7.89276e-06
-6.66534e-07
-5.39127e-06
-7.94817e-06
-5.78537e-07
-5.24073e-06
-1.50539e-07
-6.53742e-06
1.12848e-05
-5.7796e-07
-1.65646e-05
1.68932e-05
-2.74569e-07
-2.68952e-05
1.72939e-05
-1.74739e-07
-3.67958e-05
1.64961e-05
-1.02061e-07
-4.59453e-05
1.52331e-05
-6.49182e-08
-5.4103e-05
1.3613e-05
-4.89241e-08
-6.10541e-05
1.16595e-05
-4.64428e-08
-6.65997e-05
9.38983e-06
-5.51935e-08
-7.05564e-05
6.82478e-06
-7.50779e-08
-7.27568e-05
3.9891e-06
-1.06656e-07
-7.30662e-05
9.29816e-07
-1.48479e-07
-7.13699e-05
-2.31739e-06
-2.02167e-07
-6.75989e-05
-5.67845e-06
-2.6213e-07
-6.175e-05
-9.05212e-06
-3.25716e-07
-5.38948e-05
-1.23204e-05
-3.8662e-07
-4.41997e-05
-1.53376e-05
-4.34412e-07
-3.29547e-05
-1.79258e-05
-4.49806e-07
-2.06484e-05
-1.97955e-05
-4.03585e-07
-8.33143e-06
-1.9978e-05
-2.87182e-07
-1.37489e-05
1.767e-07
-7.17318e-06
1.91982e-05
-7.40182e-07
-1.81174e-05
2.82749e-05
-4.37439e-07
-2.93654e-05
2.88708e-05
-3.28873e-07
-4.01343e-05
2.75069e-05
-2.41884e-07
-5.00846e-05
2.53732e-05
-1.89711e-07
-5.89619e-05
2.26475e-05
-1.57196e-07
-6.65386e-05
1.9373e-05
-1.36881e-07
-7.26039e-05
1.55825e-05
-1.27442e-07
-7.69626e-05
1.13127e-05
-1.29244e-07
-7.94402e-05
6.60961e-06
-1.42929e-07
-7.988e-05
1.53794e-06
-1.68295e-07
-7.8138e-05
-3.8538e-06
-2.05566e-07
-7.41414e-05
-9.42254e-06
-2.5255e-07
-6.78661e-05
-1.50215e-05
-3.05942e-07
-5.93668e-05
-2.04608e-05
-3.5884e-07
-4.88038e-05
-2.55006e-05
-4.00038e-07
-3.64779e-05
-2.98434e-05
-4.08348e-07
-2.29167e-05
-3.3005e-05
-3.51602e-07
-9.27726e-06
-3.33951e-05
-2.22302e-07
-2.32999e-05
2.73803e-07
-7.58162e-06
2.76617e-05
-8.81839e-07
-1.9191e-05
4.04622e-05
-5.77978e-07
-3.11209e-05
4.12631e-05
-4.62417e-07
-4.25519e-05
3.93021e-05
-3.64215e-07
-5.31337e-05
3.62555e-05
-3.00394e-07
-6.26057e-05
3.2375e-05
-2.55594e-07
-7.07345e-05
2.77244e-05
-2.22504e-07
-7.73026e-05
2.23508e-05
-2.00202e-07
-8.21048e-05
1.63044e-05
-1.8946e-07
-8.49498e-05
9.64581e-06
-1.91251e-07
-8.56658e-05
2.45997e-06
-2.06016e-07
-8.40815e-05
-5.20169e-06
-2.36362e-07
-8.00745e-05
-1.31523e-05
-2.77244e-07
-7.35832e-05
-2.11863e-05
-3.26506e-07
-6.46259e-05
-2.90405e-05
-3.77656e-07
-5.33334e-05
-3.63747e-05
-4.18374e-07
-4.00017e-05
-4.27504e-05
-4.24681e-07
-2.52006e-05
-4.74462e-05
-3.59894e-07
-1.02172e-05
-4.81622e-05
-2.1622e-07
-3.38435e-05
3.26332e-07
-8.09868e-06
3.67827e-05
-1.02237e-06
-2.05499e-05
5.36239e-05
-7.10391e-07
-3.33508e-05
5.46512e-05
-5.87289e-07
-4.5631e-05
5.20611e-05
-4.7877e-07
-5.70267e-05
4.80567e-05
-4.05555e-07
-6.72709e-05
4.2971e-05
-3.51825e-07
-7.61258e-05
3.68896e-05
-3.10221e-07
-8.33677e-05
2.98728e-05
-2.80139e-07
-8.87814e-05
2.19809e-05
-2.62762e-07
-9.21578e-05
1.32818e-05
-2.59596e-07
-9.32941e-05
3.86809e-06
-2.71844e-07
-9.19864e-05
-6.20858e-06
-3.00827e-07
-8.80516e-05
-1.67439e-05
-3.43171e-07
-8.13609e-05
-2.74801e-05
-3.96891e-07
-7.18635e-05
-3.8083e-05
-4.54925e-07
-5.9636e-05
-4.80986e-05
-5.03514e-07
-4.49534e-05
-5.69186e-05
-5.14452e-07
-2.84373e-05
-6.35186e-05
-4.43746e-07
-1.15663e-05
-6.47522e-05
-2.80966e-07
-4.57471e-05
3.3728e-07
-8.77831e-06
4.67465e-05
-1.18552e-06
-2.23259e-05
6.8031e-05
-8.59492e-07
-3.62582e-05
6.93108e-05
-7.27281e-07
-4.96372e-05
6.60472e-05
-6.07108e-07
-6.20822e-05
6.10256e-05
-5.23964e-07
-7.33207e-05
5.46709e-05
-4.61504e-07
-8.31125e-05
4.70937e-05
-4.12314e-07
-9.12305e-05
3.83671e-05
-3.76139e-07
-9.74515e-05
2.85565e-05
-3.54582e-07
-0.000101548
1.77282e-05
-3.49629e-07
-0.000103286
5.96874e-06
-3.63083e-07
-0.000102413
-6.68391e-06
-3.97099e-07
-9.86652e-05
-2.00444e-05
-4.4772e-07
-9.18167e-05
-3.38145e-05
-5.14146e-07
-8.17067e-05
-4.76042e-05
-5.88777e-07
-6.8312e-05
-6.08377e-05
-6.55677e-07
-5.18515e-05
-7.26984e-05
-6.80669e-07
-3.2996e-05
-8.17658e-05
-6.08295e-07
-1.34925e-05
-8.38337e-05
-4.21941e-07
-5.95478e-05
3.08128e-07
-9.63686e-06
5.77742e-05
-1.39083e-06
-2.4563e-05
8.4004e-05
-1.04691e-06
-3.99095e-05
8.55603e-05
-9.02979e-07
-5.46526e-05
8.15577e-05
-7.67474e-07
-6.83925e-05
7.54366e-05
-6.71021e-07
-8.0854e-05
6.77294e-05
-5.96975e-07
-9.18e-05
5.85777e-05
-5.38094e-07
-0.000101007
4.80684e-05
-4.9467e-07
-0.000108249
3.62677e-05
-4.68892e-07
-0.000113286
2.32289e-05
-4.63445e-07
-0.00011585
9.01409e-06
-4.81106e-07
-0.000115641
-6.36867e-06
-5.25151e-07
-0.000112281
-2.28133e-05
-5.91109e-07
-0.000105412
-4.00025e-05
-6.80389e-07
-9.47043e-05
-5.7527e-05
-7.85108e-07
-7.9957e-05
-7.46986e-05
-8.86463e-07
-6.12632e-05
-9.04501e-05
-9.42026e-07
-3.93101e-05
-0.00010284
-8.78567e-07
-1.62071e-05
-0.000106271
-6.66064e-07
-7.59772e-05
2.22244e-07
-1.06924e-05
7.01235e-05
-1.65687e-06
-2.7309e-05
0.000101913
-1.29264e-06
-4.43738e-05
0.000103758
-1.13278e-06
-6.07572e-05
9.89165e-05
-9.75361e-07
-7.60406e-05
9.15789e-05
-8.58937e-07
-8.99517e-05
8.24077e-05
-7.6718e-07
-0.000102266
7.15854e-05
-6.93514e-07
-0.000112775
5.92166e-05
-6.39133e-07
-0.000121265
4.53647e-05
-6.07063e-07
-0.000127493
3.00583e-05
-6.00974e-07
-0.000131166
1.33119e-05
-6.25156e-07
-0.000131936
-4.91369e-06
-6.85077e-07
-0.00012929
-2.46837e-05
-7.75278e-07
-0.000122694
-4.56969e-05
-9.01841e-07
-0.000111562
-6.76012e-05
-1.05755e-06
-9.53947e-05
-8.96455e-05
-1.22064e-06
-7.40221e-05
-0.000110486
-1.33711e-06
-4.80509e-05
-0.000127504
-1.30743e-06
-2.00621e-05
-0.000133187
-1.07244e-06
-9.6066e-05
2.67456e-08
-1.19747e-05
8.41057e-05
-2.00752e-06
-3.06354e-05
0.000122196
-1.62175e-06
-4.97501e-05
0.000124311
-1.43883e-06
-6.8061e-05
0.000118476
-1.24827e-06
-8.5133e-05
0.000109751
-1.10021e-06
-0.000100708
9.89623e-05
-9.79883e-07
-0.000114589
8.63485e-05
-8.82258e-07
-0.000126602
7.20396e-05
-8.09922e-07
-0.000136566
5.60957e-05
-7.67013e-07
-0.000144259
3.85098e-05
-7.58488e-07
-0.000149379
1.92228e-05
-7.90667e-07
-0.000151552
-1.86804e-06
-8.7254e-07
-0.000150115
-2.51215e-05
-9.99254e-07
-0.000144311
-5.03162e-05
-1.18407e-06
-0.000133197
-7.72921e-05
-1.42334e-06
-0.000115786
-0.000105363
-1.69427e-06
-9.13898e-05
-0.000132954
-1.92788e-06
-6.03003e-05
-0.000156606
-1.98729e-06
-2.56727e-05
-0.000166064
-1.75045e-06
-0.000121406
-3.33064e-07
-1.35352e-05
0.000100119
-2.4781e-06
-3.46559e-05
0.000145387
-2.07021e-06
-5.61885e-05
0.000147696
-1.85152e-06
-7.67226e-05
0.000140618
-1.6084e-06
-9.58154e-05
0.000130253
-1.40868e-06
-0.000113239
0.000117628
-1.24135e-06
-0.000128849
0.000103062
-1.10438e-06
-0.000142532
8.67248e-05
-1.00228e-06
-0.000154172
6.86767e-05
-9.40438e-07
-0.000163606
4.88682e-05
-9.25136e-07
-0.000170559
2.71414e-05
-9.65048e-07
-0.000174668
3.31239e-06
-1.07135e-06
-0.000175145
-2.33908e-05
-1.25365e-06
-0.000170981
-5.29547e-05
-1.52573e-06
-0.000160756
-8.56196e-05
-1.89738e-06
-0.000142742
-0.000121025
-2.35191e-06
-0.000115297
-0.000157592
-2.80636e-06
-7.78624e-05
-0.00019097
-3.07142e-06
-3.42104e-05
-0.000206825
-2.8911e-06
-0.000154514
-1.10154e-06
-1.54666e-05
0.00011871
-3.12473e-06
-3.95568e-05
0.00017217
-2.69319e-06
-6.39226e-05
0.000174476
-2.41483e-06
-8.69785e-05
0.000165759
-2.08486e-06
-0.000108294
0.000153368
-1.79894e-06
-0.000127701
0.000138588
-1.55384e-06
-0.000145135
0.000121849
-1.35252e-06
-0.000160583
0.000103375
-1.20184e-06
-0.00017404
8.32413e-05
-1.10792e-06
-0.000185454
6.13597e-05
-1.07766e-06
-0.000194661
3.74681e-05
-1.11929e-06
-0.000201269
1.11579e-05
-1.2381e-06
-0.000204626
-1.85245e-05
-1.50926e-06
-0.000203385
-5.2289e-05
-1.90619e-06
-0.000195585
-9.09424e-05
-2.47779e-06
-0.000178448
-0.000134929
-3.23286e-06
-0.00014871
-0.000183239
-4.09026e-06
-0.00010384
-0.000231036
-4.80331e-06
-4.79879e-05
-0.000257845
-4.83218e-06
-0.000199693
-2.80927e-06
-1.79418e-05
0.000140694
-4.04175e-06
-4.56508e-05
0.000203457
-3.57841e-06
-7.33228e-05
0.000205342
-3.19405e-06
-9.91875e-05
0.000194339
-2.71523e-06
-0.000122873
0.000179336
-2.28309e-06
-0.000144308
0.000161933
-1.90917e-06
-0.000163553
0.000142698
-1.6039e-06
-0.00018074
0.000121938
-1.37605e-06
-0.000196027
9.97586e-05
-1.2308e-06
-0.000209543
7.60497e-05
-1.17415e-06
-0.000221314
5.04544e-05
-1.2154e-06
-0.000231125
2.23424e-05
-1.37266e-06
-0.000238486
-9.44877e-06
-1.71522e-06
-0.000241962
-4.65491e-05
-2.26422e-06
-0.000239075
-9.0717e-05
-3.11212e-06
-0.000225731
-0.000143947
-4.32613e-06
-0.000196125
-0.000206965
-5.87977e-06
-0.000143745
-0.000275898
-7.51857e-06
-7.1874e-05
-0.000321559
-8.15687e-06
-0.000265029
-6.53787e-06
-2.13041e-05
0.000167397
-5.39925e-06
-5.34774e-05
0.000240508
-4.87738e-06
-8.49825e-05
0.000241138
-4.2907e-06
-0.000113899
0.000226801
-3.54578e-06
-0.000139998
0.000208296
-2.86106e-06
-0.00016337
0.000187578
-2.27369e-06
-0.00018425
0.000165382
-1.80316e-06
-0.000202964
0.000142109
-1.45708e-06
-0.000219891
0.00011792
-1.23425e-06
-0.00023542
9.27125e-05
-1.13405e-06
-0.000249881
6.60811e-05
-1.1652e-06
-0.000263401
3.72218e-05
-1.3602e-06
-0.000276048
4.97128e-06
-1.77313e-06
-0.000286491
-3.36497e-05
-2.45587e-06
-0.00029224
-8.13508e-05
-3.61713e-06
-0.000287907
-0.000142846
-5.43443e-06
-0.000264195
-0.000222615
-8.06228e-06
-0.000207458
-0.000321208
-1.14264e-05
-0.000117059
-0.000398197
-1.3761e-05
-0.000367103
-1.49853e-05
-2.62899e-05
0.000201177
-7.48974e-06
-6.4051e-05
0.00028508
-6.81086e-06
-9.98939e-05
0.000282826
-5.84545e-06
-0.000131963
0.000263489
-4.6196e-06
-0.000160343
0.000240169
-3.49312e-06
-0.000185346
0.000215134
-2.5519e-06
-0.000207448
0.000189308
-1.82402e-06
-0.000227214
0.00016318
-1.30522e-06
-0.000245295
0.000136975
-9.7424e-07
-0.000262413
0.000110641
-8.10232e-07
-0.000279353
8.38271e-05
-8.06954e-07
-0.000296928
5.5773e-05
-9.75391e-07
-0.000315399
2.47746e-05
-1.33251e-06
-0.00033517
-1.18582e-05
-2.02092e-06
-0.000354648
-5.84588e-05
-3.41379e-06
-0.000367856
-0.000123882
-5.75583e-06
-0.000362069
-0.000218768
-9.63376e-06
-0.000311463
-0.000356153
-1.56615e-05
-0.000203276
-0.000484398
-2.19868e-05
-0.000536658
-3.37208e-05
-3.36366e-05
0.000245999
-1.11855e-05
-7.85248e-05
0.000339826
-9.85806e-06
-0.000119384
0.000331747
-8.0613e-06
-0.000154611
0.000304599
-5.88316e-06
-0.000184883
0.000274426
-3.98406e-06
-0.000210891
0.000243623
-2.48125e-06
-0.00023347
0.000213262
-1.37555e-06
-0.000253465
0.000183796
-6.20358e-07
-0.000271806
0.000155462
-1.45939e-07
-0.000289535
0.000128275
9.5054e-08
-0.00030787
0.000101996
1.66741e-07
-0.000328262
7.60344e-05
1.29918e-07
-0.000352987
4.95278e-05
-2.77464e-08
-0.000384301
2.0112e-05
-6.56445e-07
-0.000422913
-1.82095e-05
-1.63753e-06
-0.000465171
-7.83853e-05
-3.2383e-06
-0.000500014
-0.000176828
-7.09765e-06
-0.00047766
-0.000363332
-1.51745e-05
-0.000362283
-0.00057352
-2.62547e-05
-0.000836361
-6.25803e-05
-5.25596e-05
0.000315251
-1.66924e-05
-0.000103378
0.000406177
-1.55332e-05
-0.000147265
0.000387497
-1.18626e-05
-0.00018368
0.000348967
-7.95274e-06
-0.000214534
0.000309705
-4.42542e-06
-0.000240502
0.000271331
-1.74048e-06
-0.000262474
0.000235145
8.96003e-08
-0.000281437
0.000201595
1.16328e-06
-0.000298663
0.000170938
1.7502e-06
-0.000315596
0.000143235
1.97245e-06
-0.000334176
0.000118567
2.00855e-06
-0.000356782
9.66732e-05
1.96732e-06
-0.000386721
7.74135e-05
2.0532e-06
-0.000428104
5.88731e-05
2.62249e-06
-0.000487579
3.70761e-05
4.18938e-06
-0.000567592
-6.11684e-06
7.74444e-06
-0.000666784
-8.94636e-05
1.18274e-05
-0.000707865
-0.000334229
1.19789e-05
-0.000598434
-0.000690905
7.95341e-06
-0.00136022
-7.45704e-05
-5.45326e-05
0.000398621
-2.88369e-05
-0.000126893
0.000497807
-1.92684e-05
-0.000181087
0.000455364
-1.36737e-05
-0.00022248
0.000396269
-5.90907e-06
-0.000253154
0.000341
-6.21245e-07
-0.000275624
0.000290937
2.86469e-06
-0.000292786
0.000247432
4.87468e-06
-0.000306706
0.000209684
5.83074e-06
-0.000318978
0.000177066
6.14348e-06
-0.000330834
0.000148961
6.13051e-06
-0.000344027
0.000125619
6.14086e-06
-0.000360769
0.000106916
6.49826e-06
-0.000386232
9.49871e-05
7.89015e-06
-0.000428588
8.98212e-05
1.14081e-05
-0.00050453
9.37419e-05
1.92755e-05
-0.000628793
8.23348e-05
3.58111e-05
-0.000817211
3.24123e-05
6.65419e-05
-0.000929622
-0.000321889
0.000100071
-0.00080551
-0.000933889
0.000118872
-0.00210571
-6.00222e-05
-0.000185529
0.000629639
-4.54889e-05
-0.000220341
0.000575886
-4.32678e-05
-0.000240549
0.000503011
-2.74391e-05
-0.000257696
0.000426231
-1.28151e-05
-0.000266518
0.000350495
-6.72934e-07
-0.00027084
0.000288378
6.88084e-06
-0.000272894
0.000238388
1.10977e-05
-0.00027355
0.000197475
1.28651e-05
-0.000273901
0.000164266
1.31509e-05
-0.000274714
0.000137183
1.25919e-05
-0.00027833
0.000117244
1.19906e-05
-0.000285778
0.000102549
1.18152e-05
-0.000303012
9.8407e-05
1.38141e-05
-0.00033431
0.000100753
2.03668e-05
-0.000398506
0.000119435
3.85026e-05
-0.000505497
0.000112274
7.70511e-05
-0.000672875
4.51536e-05
0.000154637
-0.000822118
-0.000401676
0.00022903
-0.000706396
-0.00128057
0.000230958
-0.00269756
-0.000114552
-0.000385816
0.00112153
-0.00010608
-0.000304944
0.000537989
-4.29748e-05
-0.000192233
0.000404368
-1.40679e-05
-7.97542e-05
0.000298972
1.47805e-05
1.96688e-05
0.000221393
2.96789e-05
0.00010221
0.000168876
3.69614e-05
0.000169274
0.000133069
3.82546e-05
0.000223189
0.00010733
3.62311e-05
0.000266148
8.86241e-05
3.26834e-05
0.000301557
7.35008e-05
2.82722e-05
0.000330734
6.33992e-05
2.46684e-05
0.00035728
5.43794e-05
2.16239e-05
0.000383812
5.02882e-05
2.15862e-05
0.000410658
4.80329e-05
2.58746e-05
0.000446304
4.09743e-05
4.2814e-05
0.000450365
2.8655e-05
7.95589e-05
0.000422591
-9.12737e-05
0.000164201
0.00017541
-0.000429178
0.000274683
-7.85792e-06
-0.00126429
0.000166984
-0.00240641
-0.000299001
0.00124898
-0.00012744
0.00190328
-0.000116311
0.00240529
-9.76453e-05
0.00277201
-6.77465e-05
0.00303197
-3.85674e-05
0.00321613
-1.52851e-05
0.0033479
1.29598e-06
0.00344316
1.20708e-05
0.00351283
1.89537e-05
0.00356682
1.95108e-05
0.0036088
2.14201e-05
0.00364677
1.64128e-05
0.00367884
1.82135e-05
0.0037114
1.54713e-05
0.00373536
1.70143e-05
0.00372642
3.75996e-05
0.00359834
3.68064e-05
0.00307845
9.07136e-05
0.00180891
5.25119e-06
-0.000597504
-6.16476e-06
6.24859e-06
-2.45762e-07
-1.62132e-05
1.02246e-05
-3.39173e-08
-2.65941e-05
1.05593e-05
4.25528e-08
-3.64773e-05
1.00525e-05
8.68245e-08
-4.55717e-05
9.24773e-06
9.79776e-08
-5.3659e-05
8.2233e-06
8.5665e-08
-6.05349e-05
6.99484e-06
5.60017e-08
-6.60066e-05
5.57355e-06
1.23348e-08
-6.9892e-05
3.97435e-06
-4.84504e-08
-7.20278e-05
2.21527e-06
-1.2078e-07
-7.22818e-05
3.19492e-07
-2.01912e-07
-7.05452e-05
-1.68476e-06
-2.89937e-07
-6.67593e-05
-3.74583e-06
-3.84033e-07
-6.09242e-05
-5.80694e-06
-4.77871e-07
-5.31129e-05
-7.79571e-06
-5.64094e-07
-4.34856e-05
-9.62541e-06
-6.32524e-07
-3.23082e-05
-1.11886e-05
-6.6775e-07
-2.00311e-05
-1.22947e-05
-6.48895e-07
-7.80689e-06
-1.22356e-05
-5.67218e-07
-7.72211e-06
-2.35313e-07
-1.04495e-05
1.67061e-05
-5.85977e-07
-2.59538e-05
2.58536e-05
-3.99274e-07
-4.18096e-05
2.65393e-05
-2.99002e-07
-5.68514e-05
2.52095e-05
-2.17246e-07
-7.06242e-05
2.3124e-05
-1.68339e-07
-8.27867e-05
2.04792e-05
-1.42362e-07
-9.30313e-05
1.73262e-05
-1.33193e-07
-0.000101078
1.37037e-05
-1.38729e-07
-0.000106676
9.65536e-06
-1.58092e-07
-0.000109607
5.23051e-06
-1.90955e-07
-0.000109706
5.06798e-07
-2.36615e-07
-0.000106831
-4.46663e-06
-2.95007e-07
-0.000100925
-9.55392e-06
-3.60084e-07
-9.20113e-05
-1.46188e-05
-4.27773e-07
-8.02136e-05
-1.94896e-05
-4.90336e-07
-6.57786e-05
-2.39586e-05
-5.36248e-07
-4.91011e-05
-2.77683e-05
-5.47544e-07
-3.0835e-05
-3.04631e-05
-5.01332e-07
-1.25573e-05
-3.04072e-05
-3.93201e-07
-2.0092e-05
-1.06921e-08
-1.15852e-05
2.82987e-05
-7.47564e-07
-2.86565e-05
4.30594e-05
-5.71956e-07
-4.60678e-05
4.40846e-05
-4.62915e-07
-6.2563e-05
4.18301e-05
-3.67342e-07
-7.76578e-05
3.83313e-05
-3.02202e-07
-9.0987e-05
3.391e-05
-2.58702e-07
-0.000102222
2.86557e-05
-2.31111e-07
-0.000111066
2.2638e-05
-2.17975e-07
-0.000117252
1.59312e-05
-2.19223e-07
-0.00012055
8.62108e-06
-2.35137e-07
-0.000120768
8.21079e-07
-2.6545e-07
-0.000117736
-7.39452e-06
-3.08894e-07
-0.000111388
-1.57923e-05
-3.62432e-07
-0.000101724
-2.41679e-05
-4.21201e-07
-8.88511e-05
-3.2244e-05
-4.77078e-07
-7.30131e-05
-3.96791e-05
-5.17617e-07
-5.46226e-05
-4.60442e-05
-5.22963e-07
-3.43886e-05
-5.05809e-05
-4.67819e-07
-1.40535e-05
-5.06153e-05
-3.49339e-07
-3.39246e-05
5.28608e-08
-1.2311e-05
4.06318e-05
-9.03958e-07
-3.04876e-05
6.13981e-05
-7.4011e-07
-4.9016e-05
6.27733e-05
-6.2266e-07
-6.65754e-05
5.95384e-05
-5.13092e-07
-8.26642e-05
5.45536e-05
-4.33959e-07
-9.69073e-05
4.82731e-05
-3.75617e-07
-0.000108968
4.08268e-05
-3.32795e-07
-0.00011854
3.23142e-05
-3.04574e-07
-0.000125344
2.28373e-05
-2.91497e-07
-0.00012913
1.25101e-05
-2.94312e-07
-0.000129687
1.48511e-06
-3.13125e-07
-0.000126804
-1.01646e-05
-3.49458e-07
-0.000120356
-2.2119e-05
-3.97884e-07
-0.000110297
-3.40997e-05
-4.54233e-07
-9.66846e-05
-4.57235e-05
-5.10236e-07
-7.97254e-05
-5.65044e-05
-5.52214e-07
-5.98267e-05
-6.581e-05
-5.57572e-07
-3.77532e-05
-7.2517e-05
-4.97345e-07
-1.54422e-05
-7.27748e-05
-3.67682e-07
-4.91111e-05
7.06267e-08
-1.3218e-05
5.38974e-05
-1.06993e-06
-3.27763e-05
8.11613e-05
-9.15261e-07
-5.27119e-05
8.29098e-05
-7.88182e-07
-7.16165e-05
7.86285e-05
-6.64298e-07
-8.89674e-05
7.207e-05
-5.70984e-07
-0.00010438
6.38331e-05
-4.988e-07
-0.000117513
5.40917e-05
-4.42801e-07
-0.000128051
4.29746e-05
-4.0269e-07
-0.000135703
3.06068e-05
-3.79622e-07
-0.000140199
1.71208e-05
-3.74993e-07
-0.000141282
2.68707e-06
-3.89873e-07
-0.000138704
-1.26193e-05
-4.24433e-07
-0.000132258
-2.84328e-05
-4.75464e-07
-0.000121809
-4.44074e-05
-5.38715e-07
-0.000107326
-6.00563e-05
-6.05053e-07
-8.89434e-05
-7.47314e-05
-6.58737e-07
-6.70413e-05
-8.75537e-05
-6.72844e-07
-4.24528e-05
-9.69374e-05
-6.11885e-07
-1.74009e-05
-9.76385e-05
-4.69197e-07
-6.62095e-05
3.4801e-08
-1.44097e-05
6.83884e-05
-1.26693e-06
-3.57669e-05
0.000102779
-1.12028e-06
-5.75289e-05
0.000104925
-9.80805e-07
-7.81716e-05
9.95036e-05
-8.39508e-07
-9.71466e-05
9.12506e-05
-7.29477e-07
-0.000114062
8.09284e-05
-6.41585e-07
-0.000128572
6.87612e-05
-5.7138e-07
-0.000140362
5.49078e-05
-5.19293e-07
-0.000149133
3.951e-05
-4.87256e-07
-0.00015459
2.27057e-05
-4.77439e-07
-0.000156438
4.66368e-06
-4.91707e-07
-0.00015436
-1.45628e-05
-5.3123e-07
-0.000148046
-3.46024e-05
-5.9283e-07
-0.00013723
-5.50642e-05
-6.73013e-07
-0.000121738
-7.53749e-05
-7.61846e-07
-0.000101573
-9.47119e-05
-8.40823e-07
-7.70366e-05
-0.000111894
-8.76649e-07
-4.90291e-05
-0.00012473
-8.23087e-07
-2.01746e-05
-0.000126248
-6.67289e-07
-8.60078e-05
-6.82191e-08
-1.59231e-05
8.44366e-05
-1.51591e-06
-3.95499e-05
0.000126738
-1.37877e-06
-6.36005e-05
0.000129295
-1.22239e-06
-8.64042e-05
0.000122597
-1.05736e-06
-0.000107384
0.000112484
-9.2437e-07
-0.000126145
9.99076e-05
-8.15104e-07
-0.00014235
8.51537e-05
-7.26044e-07
-0.000155691
6.84134e-05
-6.5869e-07
-0.000165873
4.9839e-05
-6.15984e-07
-0.000172587
2.95574e-05
-6.01145e-07
-0.000175495
7.7076e-06
-6.17204e-07
-0.000174207
-1.57088e-05
-6.66806e-07
-0.000168271
-4.03826e-05
-7.47218e-07
-0.000157241
-6.59186e-05
-8.5665e-07
-0.000140714
-9.17017e-05
-9.84787e-07
-0.00011846
-0.000116743
-1.10977e-06
-9.06093e-05
-0.000139497
-1.18934e-06
-5.80838e-05
-0.000156974
-1.16019e-06
-2.40525e-05
-0.000159949
-9.96085e-07
-0.000109569
-2.68839e-07
-1.77996e-05
0.000102419
-1.83973e-06
-4.42236e-05
0.000153586
-1.71611e-06
-7.10664e-05
0.000156541
-1.53559e-06
-9.64766e-05
0.000148368
-1.33616e-06
-0.000119849
0.000136167
-1.16917e-06
-0.000140797
0.000121116
-1.0281e-06
-0.000159005
0.00010358
-9.11186e-07
-0.000174198
8.37884e-05
-8.21508e-07
-0.000186101
6.18986e-05
-7.63363e-07
-0.00019441
3.80066e-05
-7.41332e-07
-0.000198754
1.21866e-05
-7.60175e-07
-0.000198671
-1.56521e-05
-8.24841e-07
-0.000193533
-4.53619e-05
-9.33788e-07
-0.000182648
-7.66162e-05
-1.0889e-06
-0.000165274
-0.000108853
-1.28093e-06
-0.000140777
-0.000140976
-1.48499e-06
-0.000108932
-0.000171032
-1.64685e-06
-7.05489e-05
-0.000194987
-1.67732e-06
-2.95151e-05
-0.000200535
-1.52021e-06
-0.00013844
-6.17693e-07
-2.01021e-05
0.000122782
-2.26878e-06
-4.99296e-05
0.000183957
-2.16533e-06
-8.01205e-05
0.000187242
-1.94862e-06
-0.000108605
0.000177301
-1.6972e-06
-0.000134754
0.000162694
-1.47781e-06
-0.000158209
0.000144878
-1.28757e-06
-0.000178706
0.000124322
-1.12773e-06
-0.000196029
0.000101306
-1.00368e-06
-0.000209964
7.59873e-05
-9.21392e-07
-0.00022024
4.84115e-05
-8.87068e-07
-0.000226482
1.8546e-05
-9.07687e-07
-0.000228175
-1.38398e-05
-9.91622e-07
-0.000224496
-4.89006e-05
-1.14033e-06
-0.000214438
-8.64952e-05
-1.36262e-06
-0.000196769
-0.000126291
-1.65394e-06
-0.000170198
-0.000167252
-1.98921e-06
-0.000133798
-0.000207059
-2.30048e-06
-8.79473e-05
-0.000240364
-2.46118e-06
-3.74326e-05
-0.000250449
-2.35069e-06
-0.000174982
-1.22314e-06
-2.29307e-05
0.000146083
-2.84755e-06
-5.68803e-05
0.000218609
-2.77338e-06
-9.10425e-05
0.000222052
-2.49982e-06
-0.000123087
0.000209904
-2.16713e-06
-0.000152378
0.000192442
-1.86506e-06
-0.000178615
0.000171471
-1.59753e-06
-0.000201628
0.000147601
-1.37078e-06
-0.000221309
0.000121178
-1.19331e-06
-0.000237552
9.23629e-05
-1.07283e-06
-0.000250179
6.11297e-05
-1.0169e-06
-0.000258859
2.72962e-05
-1.03495e-06
-0.000263078
-9.55192e-06
-1.14031e-06
-0.000261827
-5.00653e-05
-1.33953e-06
-0.000253746
-9.44477e-05
-1.65457e-06
-0.00023694
-0.000142901
-2.09303e-06
-0.000209102
-0.000194804
-2.63844e-06
-0.000167999
-0.000247755
-3.21333e-06
-0.00011286
-0.000294931
-3.64314e-06
-4.94491e-05
-0.000313077
-3.67485e-06
-0.000223226
-2.30666e-06
-2.64505e-05
0.000173053
-3.64482e-06
-6.54034e-05
0.000258479
-3.61034e-06
-0.000104244
0.000261722
-3.24338e-06
-0.000140343
0.000246698
-2.77997e-06
-0.000173094
0.000225739
-2.34531e-06
-0.000202304
0.000201083
-1.95554e-06
-0.000227956
0.000173525
-1.62475e-06
-0.000250117
0.000143503
-1.36514e-06
-0.000268862
0.000111184
-1.18518e-06
-0.000284181
7.64638e-05
-1.09232e-06
-0.000295878
3.89705e-05
-1.09625e-06
-0.00030354
-1.91504e-06
-1.21314e-06
-0.000306063
-4.75761e-05
-1.47546e-06
-0.000301757
-9.87513e-05
-1.9085e-06
-0.000287933
-0.000156653
-2.55079e-06
-0.000260824
-0.00022173
-3.41606e-06
-0.000215946
-0.000292284
-4.43918e-06
-0.000149869
-0.000360408
-5.40381e-06
-6.8962e-05
-0.000393023
-5.7919e-06
-0.000290683
-4.31478e-06
-3.09429e-05
0.000204726
-4.77147e-06
-7.6016e-05
0.000304758
-4.7838e-06
-0.000120344
0.000307113
-4.25733e-06
-0.000160975
0.000288192
-3.57832e-06
-0.00019741
0.000262819
-2.92839e-06
-0.000229641
0.000233751
-2.34511e-06
-0.000257887
0.00020202
-1.85411e-06
-0.000282472
0.000168183
-1.47082e-06
-0.000303743
0.000132426
-1.20167e-06
-0.000321971
9.45682e-05
-1.05009e-06
-0.000337235
5.404e-05
-1.02129e-06
-0.000349326
9.92779e-06
-1.12441e-06
-0.000357362
-3.98056e-05
-1.45018e-06
-0.000359458
-9.69107e-05
-2.00813e-06
-0.000352177
-0.000164146
-2.89974e-06
-0.000329912
-0.000244111
-4.21089e-06
-0.000284634
-0.000337489
-5.95215e-06
-0.000207528
-0.000437105
-7.92734e-06
-0.000103589
-0.000495956
-9.16344e-06
-0.000392677
-8.13319e-06
-3.69165e-05
0.000242657
-6.41399e-06
-8.95462e-05
0.000358977
-6.46633e-06
-0.000140269
0.000359202
-5.65676e-06
-0.000185848
0.000334838
-4.61271e-06
-0.000226026
0.000303746
-3.6092e-06
-0.000261103
0.000269275
-2.71995e-06
-0.000291639
0.000232738
-1.98569e-06
-0.000318318
0.000194826
-1.42184e-06
-0.000341864
0.000155763
-1.02547e-06
-0.000362954
0.000115312
-7.87385e-07
-0.000382124
7.27487e-05
-7.04364e-07
-0.000399566
2.68081e-05
-7.97979e-07
-0.000415103
-2.49291e-05
-1.11308e-06
-0.000427106
-8.56299e-05
-1.73379e-06
-0.00043191
-0.00016011
-2.8483e-06
-0.000422135
-0.000254649
-4.67168e-06
-0.000384982
-0.00037527
-7.43424e-06
-0.000302123
-0.000520232
-1.11584e-05
-0.000171664
-0.000625815
-1.43609e-05
-0.000563437
-1.58886e-05
-4.53961e-05
0.000289446
-8.88261e-06
-0.000107487
0.000423168
-8.91198e-06
-0.000165492
0.000418962
-7.60042e-06
-0.000216217
0.000386875
-5.93207e-06
-0.000259912
0.000348291
-4.34333e-06
-0.00029732
0.000307102
-2.97127e-06
-0.000329475
0.000264944
-1.87434e-06
-0.000357527
0.000222631
-1.05812e-06
-0.000382679
0.000180436
-4.94754e-07
-0.000406137
0.000138106
-1.46114e-07
-0.00042909
9.48705e-05
2.42024e-08
-0.000452569
4.92797e-05
3.22565e-08
-0.000477088
-1.6183e-06
-1.24322e-07
-0.000503089
-6.10191e-05
-6.30964e-07
-0.000527782
-0.000137085
-1.74512e-06
-0.000543323
-0.000241013
-3.85144e-06
-0.000532655
-0.0003879
-7.67234e-06
-0.000460827
-0.000593779
-1.39426e-05
-0.000306096
-0.000781241
-2.12907e-05
-0.000871628
-3.1627e-05
-5.67331e-05
0.00034788
-1.28865e-05
-0.000130984
0.000500126
-1.25652e-05
-0.0001977
0.000487918
-1.03008e-05
-0.000253766
0.000444572
-7.51429e-06
-0.000300399
0.0003959
-4.95997e-06
-0.000339119
0.000346187
-2.84643e-06
-0.000371701
0.000297383
-1.23213e-06
-0.000399871
0.000250277
-9.59414e-08
-0.000425368
0.000205083
7.0268e-07
-0.000449953
0.000161571
1.21504e-06
-0.00047548
0.000119016
1.54823e-06
-0.000504081
7.62218e-05
1.78818e-06
-0.000539082
3.141e-05
1.94515e-06
-0.000582535
-2.01138e-05
1.89098e-06
-0.000635484
-8.73225e-05
1.54954e-06
-0.000694062
-0.000185997
3.23975e-07
-0.000742163
-0.000343714
-3.18385e-06
-0.000713722
-0.000626011
-1.13834e-05
-0.000541266
-0.000955719
-2.42335e-05
-0.00142071
-5.47667e-05
-8.56049e-05
0.000435567
-1.87741e-05
-0.000170304
0.000587908
-1.86149e-05
-0.000242211
0.000562475
-1.45127e-05
-0.000300595
0.000504853
-9.8504e-06
-0.000348272
0.000444681
-5.52899e-06
-0.000386792
0.000385044
-2.07737e-06
-0.000418182
0.000328446
4.16122e-07
-0.000444645
0.000275845
2.0574e-06
-0.000468509
0.000227636
3.06155e-06
-0.000492263
0.000183639
3.65838e-06
-0.000518875
0.000143564
4.07397e-06
-0.000551617
0.000106421
4.50932e-06
-0.000594756
7.135e-05
5.25274e-06
-0.000653824
3.48725e-05
6.70368e-06
-0.000737367
-8.77111e-06
9.18131e-06
-0.000848622
-7.97209e-05
1.27233e-05
-0.00097835
-0.000218166
1.60072e-05
-0.00101578
-0.000590894
1.42947e-05
-0.000804097
-0.00116232
2.8685e-06
-0.00223294
-6.64299e-05
-8.13251e-05
0.000517781
-2.97264e-05
-0.000201725
0.000713166
-2.41274e-05
-0.000294214
0.000658958
-1.76687e-05
-0.000361966
0.000575886
-9.18971e-06
-0.000410011
0.00049477
-2.66465e-06
-0.000443249
0.000419184
1.96191e-06
-0.000466969
0.000352133
4.90896e-06
-0.000485278
0.000293361
6.62403e-06
-0.000501268
0.000242238
7.53058e-06
-0.000517271
0.000197753
8.01959e-06
-0.000536244
0.000160132
8.54485e-06
-0.00056146
0.000128585
9.55073e-06
-0.000599821
0.000105791
1.18106e-05
-0.000661216
9.1319e-05
1.63568e-05
-0.000763708
8.80244e-05
2.49721e-05
-0.000910628
6.23219e-05
4.06884e-05
-0.00110236
-2.56914e-05
6.58032e-05
-0.00115727
-0.000525524
8.96088e-05
-0.000840165
-0.00144679
8.62305e-05
-0.00306674
-6.63947e-05
-0.000225584
0.00074212
-4.42432e-05
-0.000312946
0.000801208
-4.39474e-05
-0.000377735
0.000726273
-2.99655e-05
-0.000424324
0.000625387
-1.57273e-05
-0.000445434
0.000518637
-3.43019e-06
-0.000451299
0.000426934
4.99653e-06
-0.000448883
0.000350662
1.01528e-05
-0.000442596
0.000287115
1.28229e-05
-0.000436017
0.00023493
1.38811e-05
-0.000431278
0.000191581
1.40255e-05
-0.000432411
0.000159121
1.41347e-05
-0.0004404
0.000133493
1.48955e-05
-0.000462162
0.000123331
1.8036e-05
-0.000497237
0.00012107
2.56915e-05
-0.000558011
0.000143844
4.34577e-05
-0.000629441
0.000133448
7.73545e-05
-0.000691543
5.24228e-05
0.000138626
-0.00070366
-0.000478502
0.000194124
-0.000381218
-0.00170847
0.000170204
-0.00344078
-0.000121727
-0.000631457
0.00135181
-8.43154e-05
-0.000583922
0.000757742
-4.70435e-05
-0.000461375
0.00061329
-2.36308e-05
-0.00030215
0.000478687
2.25588e-06
-0.000142421
0.000371613
1.6974e-05
4.35813e-06
0.000290987
2.61295e-05
0.000132156
0.000230886
3.02328e-05
0.000240934
0.000183876
3.06923e-05
0.000331026
0.00014823
2.92907e-05
0.000405541
0.000118674
2.66638e-05
0.000466349
9.85501e-05
2.44322e-05
0.000517476
8.13078e-05
2.26811e-05
0.000567233
7.12242e-05
2.39364e-05
0.000616702
6.81321e-05
2.93432e-05
0.000700676
5.68689e-05
4.58144e-05
0.000786241
4.91751e-05
7.82671e-05
0.000927427
-6.83027e-05
0.000143741
0.000945099
-0.000449687
0.000228196
0.000699136
-0.00143387
0.000138342
-0.00278676
-0.000253884
0.00132361
-9.92364e-05
0.00206308
-9.80395e-05
0.00266596
-8.72356e-05
0.00314359
-6.66937e-05
0.00352027
-4.36334e-05
0.00381859
-2.26143e-05
0.00405618
-5.41154e-06
0.00424574
6.38853e-06
0.00439812
1.48038e-05
0.00451898
1.73251e-05
0.00461864
2.03067e-05
0.00469911
1.72539e-05
0.00476971
1.88366e-05
0.004835
1.83109e-05
0.00489075
1.81336e-05
0.00494228
3.5241e-05
0.00487723
3.35603e-05
0.00445667
6.15834e-05
0.0029968
3.12544e-05
-0.000387463
-6.49681e-06
6.52573e-06
-2.74678e-07
-1.71171e-05
1.07942e-05
-2.07829e-07
-2.80803e-05
1.11596e-05
-1.53842e-07
-3.85006e-05
1.06168e-05
-1.09687e-07
-4.80719e-05
9.75458e-06