/*--------------------------------*- C++ -*----------------------------------*\
  =========                 |
  \\      /  F ield         | OpenFOAM: The Open Source CFD Toolbox
   \\    /   O peration     | Website:  https://openfoam.org
    \\  /    A nd           | Version:  10
     \\/     M anipulation  |
\*---------------------------------------------------------------------------*/
FoamFile
{
    format      ascii;
    class       volVectorField;
    location    "7.075";
    object      U;
}
// * * * * * * * * * * * * * * * * * * * * * * * * * * * * * * * * * * * * * //

dimensions      [0 1 -1 0 0 0 0];

internalField   nonuniform List<vector> 
400
(
(-0.000127427 0.000115813 0)
(-0.000989435 0.000372671 0)
(-0.00244931 0.000464716 0)
(-0.00392813 0.000490377 0)
(-0.00543577 0.000498676 0)
(-0.00693249 0.000504405 0)
(-0.00839907 0.000506762 0)
(-0.00981105 0.000500098 0)
(-0.0111295 0.00047718 0)
(-0.012299 0.000429727 0)
(-0.0132453 0.000348745 0)
(-0.0138749 0.000225684 0)
(-0.0140786 5.45295e-05 0)
(-0.0137383 -0.000169732 0)
(-0.012747 -0.000437629 0)
(-0.0110367 -0.00072479 0)
(-0.00862694 -0.000981639 0)
(-0.0057302 -0.00112615 0)
(-0.00248867 -0.00103124 0)
(-0.000386358 -0.000450115 0)
(-0.000417548 0.00100394 0)
(-0.00221122 0.00211041 0)
(-0.00495418 0.0025036 0)
(-0.00772193 0.00260042 0)
(-0.0105064 0.00259491 0)
(-0.0132247 0.00254803 0)
(-0.0158261 0.00246197 0)
(-0.0182568 0.00231929 0)
(-0.0204459 0.00209558 0)
(-0.0223012 0.00176279 0)
(-0.0237067 0.00129113 0)
(-0.0245231 0.000652537 0)
(-0.024597 -0.000173353 0)
(-0.0237647 -0.0011809 0)
(-0.0218796 -0.00232635 0)
(-0.0188602 -0.00350812 0)
(-0.0147592 -0.00453485 0)
(-0.00990041 -0.00509007 0)
(-0.004522 -0.00469404 0)
(-0.000848743 -0.00239977 0)
(-0.000541277 0.00258715 0)
(-0.00275432 0.00491536 0)
(-0.00607108 0.00572384 0)
(-0.00939177 0.00589855 0)
(-0.0127116 0.00583685 0)
(-0.0159337 0.0056645 0)
(-0.0189995 0.00539162 0)
(-0.0218494 0.00498927 0)
(-0.0244064 0.00441379 0)
(-0.0265714 0.00361361 0)
(-0.0282205 0.00253397 0)
(-0.0292037 0.00112434 0)
(-0.0293395 -0.00064872 0)
(-0.0284265 -0.00277696 0)
(-0.0262782 -0.00517508 0)
(-0.0227632 -0.00764081 0)
(-0.0179016 -0.00978684 0)
(-0.0120557 -0.0109555 0)
(-0.00549469 -0.0101608 0)
(-0.00101379 -0.00545612 0)
(-0.000580426 0.0042646 0)
(-0.00296948 0.0078952 0)
(-0.00654434 0.00912594 0)
(-0.0101103 0.00936685 0)
(-0.0136759 0.00923945 0)
(-0.0171451 0.00893796 0)
(-0.0204654 0.00848084 0)
(-0.0235845 0.00782813 0)
(-0.0264328 0.00691668 0)
(-0.0289163 0.00566874 0)
(-0.0309105 0.00399852 0)
(-0.0322533 0.00182414 0)
(-0.032741 -0.000912181 0)
(-0.032116 -0.00422711 0)
(-0.030096 -0.00801472 0)
(-0.0264334 -0.0119817 0)
(-0.0210348 -0.0155182 0)
(-0.0142708 -0.0175284 0)
(-0.00642978 -0.016354 0)
(-0.0011112 -0.00879873 0)
(-0.000587913 0.00602026 0)
(-0.00306234 0.0110325 0)
(-0.00678501 0.0127081 0)
(-0.0104993 0.0130232 0)
(-0.0142292 0.012841 0)
(-0.0178857 0.0124297 0)
(-0.0214306 0.0118181 0)
(-0.024828 0.0109562 0)
(-0.028025 0.00976077 0)
(-0.0309424 0.00812389 0)
(-0.0334616 0.0059182 0)
(-0.03541 0.0030095 0)
(-0.0365534 -0.000720404 0)
(-0.0365567 -0.0053284 0)
(-0.0349964 -0.0107448 0)
(-0.0314273 -0.0166044 0)
(-0.0255251 -0.0220355 0)
(-0.0175777 -0.0253415 0)
(-0.00782834 -0.0238663 0)
(-0.00122666 -0.0127036 0)
(-0.000586714 0.00781192 0)
(-0.00312302 0.0142736 0)
(-0.00696842 0.0164209 0)
(-0.0108132 0.0168267 0)
(-0.0146966 0.0166134 0)
(-0.0185409 0.0161304 0)
(-0.022328 0.0154207 0)
(-0.0260463 0.0144271 0)
(-0.0296701 0.0130463 0)
(-0.0331484 0.0111369 0)
(-0.0363843 0.00851849 0)
(-0.0392114 0.00497833 0)
(-0.0413603 0.000297171 0)
(-0.0424222 -0.00568471 0)
(-0.0417975 -0.0130137 0)
(-0.038726 -0.0213254 0)
(-0.0324734 -0.0294735 0)
(-0.0230086 -0.034939 0)
(-0.0102455 -0.0334568 0)
(-0.00142165 -0.0174856 0)
(-0.000583184 0.00962879 0)
(-0.00317991 0.0176067 0)
(-0.00714945 0.0202548 0)
(-0.0111254 0.0207706 0)
(-0.0151629 0.0205551 0)
(-0.0191983 0.0200484 0)
(-0.0232391 0.0193143 0)
(-0.0273068 0.0182932 0)
(-0.0314162 0.0168664 0)
(-0.0355637 0.0148587 0)
(-0.0397031 0.0120296 0)
(-0.0437048 0.00806579 0)
(-0.0472977 0.00259907 0)
(-0.0500307 -0.0047432 0)
(-0.0511321 -0.0142357 0)
(-0.0494365 -0.0256864 0)
(-0.0435318 -0.0378029 0)
(-0.0324922 -0.047088 0)
(-0.0150062 -0.0464869 0)
(-0.00190324 -0.023875 0)
(-0.000578019 0.011471 0)
(-0.00323881 0.0210366 0)
(-0.00733826 0.0242141 0)
(-0.0114429 0.0248554 0)
(-0.0156244 0.0246638 0)
(-0.0198349 0.0241824 0)
(-0.0241123 0.0235052 0)
(-0.0285202 0.0225806 0)
(-0.0331291 0.0212851 0)
(-0.0380078 0.0194191 0)
(-0.0431992 0.0166849 0)
(-0.0486714 0.0126575 0)
(-0.0542456 0.00676368 0)
(-0.059527 -0.00168568 0)
(-0.0636811 -0.0133058 0)
(-0.0651884 -0.0284899 0)
(-0.0616417 -0.0462842 0)
(-0.0498595 -0.0625661 0)
(-0.0253234 -0.0653681 0)
(-0.00338472 -0.0336702 0)
(-0.000571837 0.0133396 0)
(-0.00330291 0.0245695 0)
(-0.00753735 0.0282986 0)
(-0.0117585 0.02907 0)
(-0.0160557 0.028917 0)
(-0.0203965 0.028501 0)
(-0.0248521 0.0279587 0)
(-0.0295348 0.0272624 0)
(-0.0345856 0.026304 0)
(-0.0401732 0.0248852 0)
(-0.0464813 0.0226775 0)
(-0.0536734 0.0191633 0)
(-0.0618124 0.0135707 0)
(-0.0707277 0.00485489 0)
(-0.0799903 -0.00821534 0)
(-0.0881164 -0.0269804 0)
(-0.0910707 -0.0525006 0)
(-0.0803778 -0.0816897 0)
(-0.0461607 -0.0944678 0)
(-0.00751019 -0.0510416 0)
(-0.000567946 0.0152392 0)
(-0.00338273 0.0282137 0)
(-0.00775928 0.0325027 0)
(-0.0120749 0.0333879 0)
(-0.016439 0.0332663 0)
(-0.0208324 0.0329348 0)
(-0.0253585 0.0325878 0)
(-0.0301792 0.0322413 0)
(-0.0355116 0.0318324 0)
(-0.0416444 0.0312088 0)
(-0.0489506 0.0300774 0)
(-0.0578893 0.027922 0)
(-0.0689834 0.0238985 0)
(-0.0828023 0.0167299 0)
(-0.0998126 0.00445084 0)
(-0.119163 -0.0164612 0)
(-0.133432 -0.0523611 0)
(-0.123715 -0.104957 0)
(-0.0783839 -0.140405 0)
(-0.0168309 -0.083887 0)
(-0.000574777 0.0171854 0)
(-0.00350376 0.0319863 0)
(-0.00803895 0.0368173 0)
(-0.0124198 0.0377669 0)
(-0.0167823 0.0376349 0)
(-0.0211167 0.0373708 0)
(-0.0255529 0.0372412 0)
(-0.0302942 0.0373267 0)
(-0.0356236 0.0376451 0)
(-0.0419423 0.0381508 0)
(-0.0498244 0.0386905 0)
(-0.0600969 0.0389296 0)
(-0.0739458 0.0382577 0)
(-0.0930883 0.0355786 0)
(-0.119573 0.0280492 0)
(-0.15211 0.00688135 0)
(-0.175798 -0.0454797 0)
(-0.162081 -0.136647 0)
(-0.113017 -0.205279 0)
(-0.0337548 -0.140776 0)
(-0.000610269 0.0192187 0)
(-0.00371767 0.0359332 0)
(-0.00844791 0.0412548 0)
(-0.0128604 0.0421748 0)
(-0.0171359 0.041938 0)
(-0.0212705 0.0416672 0)
(-0.0254105 0.0417126 0)
(-0.0297804 0.0422355 0)
(-0.0346959 0.0433706 0)
(-0.040625 0.0452501 0)
(-0.0482822 0.0479965 0)
(-0.0587757 0.0517075 0)
(-0.073801 0.056378 0)
(-0.0959337 0.0611775 0)
(-0.127942 0.0609575 0)
(-0.166012 0.037345 0)
(-0.188522 -0.0392296 0)
(-0.169557 -0.174427 0)
(-0.134911 -0.275955 0)
(-0.0497906 -0.23138 0)
(-0.000704946 0.0213955 0)
(-0.00410226 0.0400486 0)
(-0.00909698 0.045697 0)
(-0.0135178 0.0464195 0)
(-0.0176164 0.0459505 0)
(-0.0213894 0.0455663 0)
(-0.0249936 0.0456784 0)
(-0.0286437 0.046531 0)
(-0.0326231 0.0483884 0)
(-0.0373596 0.0515971 0)
(-0.0435293 0.0566422 0)
(-0.0522119 0.0641966 0)
(-0.0650346 0.0749236 0)
(-0.0839639 0.0874377 0)
(-0.111062 0.0925401 0)
(-0.140597 0.0628456 0)
(-0.155249 -0.0339918 0)
(-0.139495 -0.198025 0)
(-0.131066 -0.333196 0)
(-0.0490169 -0.33992 0)
(-0.000950184 0.0240045 0)
(-0.0048928 0.0448746 0)
(-0.0102351 0.0507889 0)
(-0.0145622 0.051138 0)
(-0.0183374 0.0501362 0)
(-0.0215902 0.0493003 0)
(-0.0244538 0.0491403 0)
(-0.0270792 0.0499794 0)
(-0.0296518 0.0521857 0)
(-0.0324319 0.0562812 0)
(-0.0358184 0.0630473 0)
(-0.0403747 0.0735243 0)
(-0.0469528 0.0886676 0)
(-0.0557801 0.105813 0)
(-0.0684392 0.11266 0)
(-0.079925 0.0779017 0)
(-0.0865663 -0.0264787 0)
(-0.0793572 -0.199421 0)
(-0.098521 -0.365077 0)
(-0.0335799 -0.425513 0)
(-0.00131109 0.027195 0)
(-0.00582276 0.0490965 0)
(-0.0118012 0.0543687 0)
(-0.0162311 0.0537329 0)
(-0.0197912 0.0521677 0)
(-0.0224202 0.0510564 0)
(-0.024318 0.0507637 0)
(-0.0256084 0.0515283 0)
(-0.0263496 0.0537164 0)
(-0.0265529 0.0579056 0)
(-0.0262366 0.0649797 0)
(-0.0251712 0.0759432 0)
(-0.0234237 0.0916673 0)
(-0.0194748 0.108619 0)
(-0.0157774 0.115161 0)
(-0.00746697 0.0804029 0)
(-0.0106026 -0.0213001 0)
(-0.0120241 -0.18071 0)
(-0.0595065 -0.364907 0)
(-0.0170197 -0.477218 0)
(-0.00338692 0.030024 0)
(-0.0102352 0.0571146 0)
(-0.0155952 0.0623185 0)
(-0.019096 0.0611448 0)
(-0.021477 0.0580487 0)
(-0.0231042 0.0553785 0)
(-0.0240123 0.0536355 0)
(-0.024114 0.0530925 0)
(-0.0232174 0.0540569 0)
(-0.0210132 0.0569865 0)
(-0.0171642 0.062644 0)
(-0.0106988 0.071724 0)
(-0.00153721 0.0848444 0)
(0.0132859 0.0986269 0)
(0.0291736 0.104053 0)
(0.0496553 0.074811 0)
(0.0500206 -0.0138334 0)
(0.0451371 -0.147166 0)
(-0.029624 -0.343278 0)
(0.000649414 -0.504858 0)
(-0.00107082 0.043805 0)
(-0.00830064 0.0592432 0)
(-0.0186623 0.0605339 0)
(-0.0224125 0.0562444 0)
(-0.0253932 0.0530833 0)
(-0.0264345 0.0509331 0)
(-0.0262613 0.0496257 0)
(-0.0248276 0.0490683 0)
(-0.0219796 0.0494411 0)
(-0.0172805 0.0510149 0)
(-0.0102679 0.0544429 0)
(0.00047009 0.0600169 0)
(0.0149562 0.0681844 0)
(0.0366072 0.0765174 0)
(0.0584215 0.0783187 0)
(0.0870799 0.0565281 0)
(0.0871695 -0.0098003 0)
(0.080696 -0.109533 0)
(-0.00168754 -0.313492 0)
(0.0233868 -0.511536 0)
(-0.0125113 0.032482 0)
(-0.0238866 0.0799712 0)
(-0.0228683 0.0793391 0)
(-0.0284699 0.0742422 0)
(-0.0297423 0.0669065 0)
(-0.0292331 0.0607884 0)
(-0.0267437 0.0558065 0)
(-0.0225327 0.0519161 0)
(-0.0166638 0.0491206 0)
(-0.00876259 0.0472564 0)
(0.00111276 0.0467044 0)
(0.0144895 0.0474631 0)
(0.0306185 0.0502146 0)
(0.0532269 0.0529251 0)
(0.0728848 0.0541089 0)
(0.103479 0.0418545 0)
(0.102351 0.00227728 0)
(0.115462 -0.070013 0)
(0.0468962 -0.280743 0)
(0.0587905 -0.496223 0)
(-0.0774909 0.0963025 0)
(-0.0632051 0.0590395 0)
(-0.0656111 0.0598865 0)
(-0.043815 0.0532179 0)
(-0.0265676 0.0462911 0)
(-0.00651749 0.041144 0)
(0.0124054 0.0373854 0)
(0.0315975 0.0341902 0)
(0.0493266 0.0318629 0)
(0.0684386 0.0296647 0)
(0.0850646 0.0284231 0)
(0.106119 0.0274812 0)
(0.121423 0.0272162 0)
(0.150784 0.0273223 0)
(0.16151 0.0232111 0)
(0.204327 0.0154515 0)
(0.196571 -0.0188873 0)
(0.230061 -0.0772974 0)
(0.158465 -0.255547 0)
(0.126191 -0.437287 0)
(0.119549 0.140818 0)
(0.152296 0.0861927 0)
(0.228888 0.0635933 0)
(0.284345 0.0481143 0)
(0.325634 0.0374335 0)
(0.363905 0.0296508 0)
(0.392565 0.024199 0)
(0.423713 0.0201465 0)
(0.443549 0.0172331 0)
(0.472193 0.0150073 0)
(0.484712 0.0132178 0)
(0.514458 0.0121344 0)
(0.519642 0.0109281 0)
(0.553048 0.0101729 0)
(0.548303 0.00848832 0)
(0.582768 0.00404523 0)
(0.55287 -0.00519242 0)
(0.559442 -0.0276093 0)
(0.423924 -0.0732338 0)
(0.276037 -0.151965 0)
)
;

boundaryField
{
    movingWall
    {
        type            fixedValue;
        value           uniform (1 0 0);
    }
    fixedWalls
    {
        type            noSlip;
    }
    frontAndBack
    {
        type            empty;
    }
}


// ************************************************************************* //
