/*--------------------------------*- C++ -*----------------------------------*\
  =========                 |
  \\      /  F ield         | OpenFOAM: The Open Source CFD Toolbox
   \\    /   O peration     | Website:  https://openfoam.org
    \\  /    A nd           | Version:  10
     \\/     M anipulation  |
\*---------------------------------------------------------------------------*/
FoamFile
{
    format      ascii;
    class       volScalarField;
    location    "6.725";
    object      p;
}
// * * * * * * * * * * * * * * * * * * * * * * * * * * * * * * * * * * * * * //

dimensions      [0 2 -2 0 0 0 0];

internalField   nonuniform List<scalar> 
400
(
4.05155e-07
-1.97049e-05
3.01273e-05
0.000125779
0.000273901
0.000476361
0.000735744
0.00105497
0.00143624
0.00188011
0.00238426
0.00294203
0.00354066
0.00415971
0.00476964
0.00533252
0.00580434
0.0061414
0.00633439
0.00630869
2.28329e-05
1.85463e-06
5.6614e-05
0.000152817
0.00029863
0.000496705
0.000750132
0.00106218
0.00143538
0.00187073
0.00236655
0.00291694
0.00350953
0.00412589
0.0047367
0.00530389
0.0057819
0.00612552
0.00632768
0.00629516
-3.36491e-05
-6.19691e-05
-9.00708e-06
8.34162e-05
0.000224275
0.000416507
0.000663793
0.000970309
0.00133982
0.00177487
0.00227558
0.00283808
0.00345325
0.0041024
0.00475549
0.0053706
0.0058946
0.00627147
0.00649194
0.00643644
-0.000149664
-0.000183225
-0.000133419
-4.67625e-05
8.66358e-05
0.000270178
0.000508453
0.000806998
0.00117147
0.00160693
0.00211654
0.0026998
0.00335016
0.00405288
0.00477703
0.00547524
0.00608151
0.0065191
0.00677444
0.00668628
-0.000331402
-0.000369716
-0.000324834
-0.000246298
-0.000123261
4.82703e-05
0.000274024
0.000561263
0.000918104
0.00135301
0.00187363
0.00248465
0.00318434
0.00396283
0.00479032
0.00561331
0.00634832
0.0068856
0.00719987
0.00705528
-0.000577895
-0.0006213
-0.000583211
-0.000515587
-0.000406706
-0.000251975
-4.44617e-05
0.000224997
0.000567349
0.000995174
0.00152197
0.00216003
0.00291695
0.00378736
0.00475243
0.00575273
0.00668213
0.00737986
0.00779363
0.0075461
-0.000886499
-0.000935847
-0.00090661
-0.000853319
-0.000763546
-0.000632293
-0.000451606
-0.000210561
0.00010465
0.000511071
0.00102894
0.00168066
0.00248652
0.00345681
0.00458765
0.00582511
0.00704104
0.00800004
0.00858987
0.00815871
-0.0012539
-0.00131033
-0.00129218
-0.00125718
-0.0011925
-0.00109319
-0.000950881
-0.000753509
-0.000485058
-0.000124506
0.000355131
0.000987349
0.00180927
0.00285104
0.00415769
0.00568597
0.00731004
0.0087074
0.00961697
0.00889989
-0.00167584
-0.00174064
-0.00173567
-0.00172301
-0.00168989
-0.00163217
-0.0015421
-0.00140791
-0.00121308
-0.00093451
-0.000540379
1.28732e-05
0.000783913
0.00184543
0.00323184
0.00503155
0.00717389
0.00931661
0.0107887
0.00980539
-0.00214708
-0.00222147
-0.00223104
-0.00224406
-0.0022485
-0.00224204
-0.00221901
-0.00217001
-0.00208117
-0.00193216
-0.00169287
-0.00131876
-0.000744953
0.000117456
0.00137655
0.00316105
0.0057317
0.00903997
0.0115013
0.0108012
-0.00266171
-0.00274668
-0.00277047
-0.00281057
-0.00285652
-0.0029091
-0.00296654
-0.00302442
-0.00307564
-0.00310917
-0.00310841
-0.00304868
-0.00289299
-0.00259415
-0.00209549
-0.00120725
0.000869768
0.0052209
0.00939108
0.0111126
-0.00321418
-0.00330997
-0.00334425
-0.00340914
-0.00349651
-0.00361145
-0.0037578
-0.00393879
-0.00415866
-0.00442389
-0.00474605
-0.00514811
-0.00568232
-0.00649132
-0.00786937
-0.00983747
-0.0106486
-0.00641056
0.000299861
0.0067849
-0.00380174
-0.00390811
-0.00394529
-0.00402774
-0.00414949
-0.00432196
-0.00455615
-0.00486453
-0.00526639
-0.00579323
-0.00650016
-0.00749083
-0.00897151
-0.0113682
-0.0156502
-0.0220996
-0.028164
-0.0250797
-0.0160864
-0.00404144
-0.00442119
-0.00452901
-0.00454762
-0.00463037
-0.00477352
-0.00499282
-0.00530328
-0.00572672
-0.00629684
-0.00706982
-0.00814556
-0.00970871
-0.0121401
-0.0160874
-0.0230669
-0.0332145
-0.0442468
-0.0434084
-0.0341997
-0.0182937
-0.0051037
-0.00522327
-0.0052058
-0.00527433
-0.00540882
-0.00563898
-0.00598707
-0.00648199
-0.0071665
-0.00811006
-0.0094371
-0.011356
-0.01436
-0.0190717
-0.0272345
-0.0382728
-0.0511319
-0.0509236
-0.0430751
-0.0259863
-0.00592992
-0.005855
-0.00572198
-0.0056921
-0.00579507
-0.00603822
-0.00642845
-0.00698293
-0.00773947
-0.00876349
-0.0101819
-0.0121689
-0.0152538
-0.0197588
-0.0274072
-0.0369704
-0.0470106
-0.0465897
-0.0406703
-0.020921
-0.00642047
-0.00685036
-0.00656112
-0.00657497
-0.00657306
-0.00670601
-0.0069894
-0.00745624
-0.00814475
-0.00910255
-0.0104431
-0.0122695
-0.0150303
-0.0188781
-0.0249048
-0.0316411
-0.0383198
-0.036267
-0.0294444
-0.00169157
-0.00979795
-0.00728423
-0.00666013
-0.00609026
-0.0060315
-0.00622955
-0.00662669
-0.00718814
-0.00793305
-0.00887518
-0.0101425
-0.0117811
-0.014146
-0.0172256
-0.0216402
-0.0256761
-0.028843
-0.0238518
-0.011263
0.0332736
-0.00650546
-0.00950869
-0.00845819
-0.00848928
-0.00805508
-0.00783948
-0.00780652
-0.00799444
-0.00844521
-0.0091391
-0.0101887
-0.0116058
-0.0137899
-0.0165413
-0.0208338
-0.0240492
-0.025607
-0.012473
0.0149129
0.0927811
-0.0316998
-0.00667397
-0.0051836
-0.00445415
-0.00427333
-0.00451602
-0.00505858
-0.00571308
-0.00657864
-0.00754773
-0.00890339
-0.0104993
-0.0127114
-0.0150306
-0.017296
-0.0159571
-0.00758649
0.0256533
0.0943263
0.227085
)
;

boundaryField
{
    movingWall
    {
        type            zeroGradient;
    }
    fixedWalls
    {
        type            zeroGradient;
    }
    frontAndBack
    {
        type            empty;
    }
}


// ************************************************************************* //
