/*--------------------------------*- C++ -*----------------------------------*\
  =========                 |
  \\      /  F ield         | OpenFOAM: The Open Source CFD Toolbox
   \\    /   O peration     | Website:  https://openfoam.org
    \\  /    A nd           | Version:  10
     \\/     M anipulation  |
\*---------------------------------------------------------------------------*/
FoamFile
{
    format      ascii;
    class       surfaceScalarField;
    location    "9";
    object      phi;
}
// * * * * * * * * * * * * * * * * * * * * * * * * * * * * * * * * * * * * * //

dimensions      [0 3 -1 0 0 0 0];

internalField   nonuniform List<scalar> 
760
(
-1.34425e-05
1.34425e-05
-4.33804e-05
2.99379e-05
-7.94705e-05
3.60901e-05
-0.000117685
3.82149e-05
-0.000156821
3.91354e-05
-0.000196588
3.97671e-05
-0.000236688
4.01004e-05
-0.000276442
3.97536e-05
-0.000314594
3.81524e-05
-0.000349148
3.45537e-05
-0.00037723
2.80818e-05
-0.000395048
1.78179e-05
-0.000398063
3.01528e-06
-0.000381394
-1.66687e-05
-0.000341305
-4.00891e-05
-0.000277057
-6.42488e-05
-0.000193607
-8.34494e-05
-0.000103842
-8.97648e-05
-2.88592e-05
-7.49832e-05
-2.88592e-05
-3.24843e-05
4.59268e-05
-9.16062e-05
8.90597e-05
-0.000160847
0.000105331
-0.000233524
0.000110892
-0.000307124
0.000112736
-0.00038051
0.000113153
-0.0004526
0.000112191
-0.0005218
0.000108953
-0.000585699
0.000102052
-0.00064085
8.97043e-05
-0.000682619
6.98504e-05
-0.000705071
4.02707e-05
-0.000702116
5.95137e-08
-0.000666362
-5.24219e-05
-0.00059298
-0.000113471
-0.000481442
-0.000175787
-0.000339601
-0.000225291
-0.000187683
-0.000241683
-5.86788e-05
-0.000203987
-8.7538e-05
-4.13513e-05
8.72781e-05
-0.000114361
0.000162069
-0.000198959
0.000189929
-0.000287123
0.000199056
-0.000375854
0.000201466
-0.000463762
0.000201061
-0.000549572
0.000198001
-0.000631511
0.000190892
-0.000706973
0.000177514
-0.000772246
0.000154978
-0.000822267
0.000119872
-0.000850686
6.86897e-05
-0.000849504
-1.12286e-06
-0.000809877
-9.20487e-05
-0.000724376
-0.000198972
-0.000590196
-0.000309966
-0.000415214
-0.000400273
-0.000225428
-0.000431469
-6.69656e-05
-0.00036245
-0.000154504
-4.47816e-05
0.00013206
-0.000123836
0.000241123
-0.000215165
0.000281258
-0.000310177
0.000294069
-0.000405871
0.00029716
-0.000501037
0.000296227
-0.000594675
0.000291639
-0.000685363
0.00028158
-0.000770891
0.000263041
-0.000847888
0.000231975
-0.000911373
0.000183357
-0.000954272
0.000111588
-0.000967305
1.19101e-05
-0.000938272
-0.000121082
-0.000854143
-0.000283101
-0.000705575
-0.000458534
-0.00049623
-0.000609619
-0.000259409
-0.00066829
-6.71715e-05
-0.000554687
-0.000221675
-4.55637e-05
0.000177623
-0.000126884
0.000322444
-0.000221073
0.000375447
-0.000319354
0.00039235
-0.00041896
0.000396766
-0.000519138
0.000396405
-0.000619506
0.000392006
-0.000719411
0.000381485
-0.00081752
0.000361151
-0.000911327
0.000325782
-0.000996428
0.000268458
-0.00106552
0.000180677
-0.00110718
5.35699e-05
-0.00110548
-0.000122781
-0.0010382
-0.000350379
-0.00088275
-0.000613984
-0.000629332
-0.000863036
-0.000315358
-0.000982264
-6.58072e-05
-0.000804238
-0.000287482
-4.51272e-05
0.000222751
-0.000126956
0.000404272
-0.000222288
0.000470779
-0.000322311
0.000492373
-0.000424606
0.00049906
-0.000529057
0.000500856
-0.000636168
0.000499118
-0.000746444
0.000491761
-0.000859977
0.000474684
-0.000975867
0.000441671
-0.00109126
0.000383854
-0.00119986
0.000289272
-0.00128955
0.000143264
-0.00134141
-7.09244e-05
-0.00132098
-0.000370806
-0.00118094
-0.000754022
-0.000875674
-0.00116831
-0.00043351
-0.00142443
-7.47958e-05
-0.00116295
-0.000362278
-4.40366e-05
0.000266787
-0.000125432
0.000485668
-0.000220927
0.000566275
-0.000321695
0.000593141
-0.000425693
0.000603058
-0.000533537
0.000608701
-0.000646842
0.000612423
-0.000767653
0.000612571
-0.000898137
0.000605169
-0.0010401
0.000583634
-0.00119403
0.000537786
-0.00135748
0.000452719
-0.00152199
0.000307776
-0.00166945
7.65359e-05
-0.00175334
-0.00028692
-0.00168041
-0.000826944
-0.00132833
-0.00152039
-0.000697907
-0.00205485
-0.000137227
-0.00172363
-0.000499505
-4.2459e-05
0.000309246
-0.000122728
0.000565936
-0.000217515
0.000661062
-0.000317894
0.00069352
-0.00042215
0.000707314
-0.000531644
0.000718194
-0.000649193
0.000729972
-0.000778694
0.000742072
-0.000925093
0.000751568
-0.00109426
0.000752802
-0.00129258
0.000736105
-0.00152612
0.000686256
-0.00179824
0.000579902
-0.0020966
0.00037489
-0.00236922
-1.42964e-05
-0.0024307
-0.000765463
-0.00205238
-0.00189871
-0.00122667
-0.00288056
-0.000360678
-0.00258963
-0.000860182
-4.04879e-05
0.000349734
-0.000119035
0.000644483
-0.000212161
0.000754188
-0.000310667
0.000792026
-0.000413032
0.000809679
-0.000521247
0.000826409
-0.000639257
0.000847982
-0.000772815
0.00087563
-0.000929942
0.000908695
-0.00112176
0.000944616
-0.00136361
0.000977961
-0.00167609
0.000998731
-0.00208226
0.000986079
-0.00258082
0.000873445
-0.00306525
0.000470137
-0.00328433
-0.000546387
-0.00293702
-0.00224602
-0.00205622
-0.00376136
-0.000865877
-0.00377997
-0.00172606
-3.83382e-05
0.000388072
-0.000114772
0.000720917
-0.000205261
0.000844677
-0.000300098
0.000886864
-0.000397728
0.000907308
-0.000500528
0.00092921
-0.000613232
0.000960686
-0.000743016
0.00100541
-0.000900531
0.00106621
-0.00110183
0.00114592
-0.00137149
0.00124762
-0.00174469
0.00137193
-0.00225727
0.00149867
-0.00290055
0.00151672
-0.00351616
0.00108574
-0.0038056
-0.000256941
-0.00360103
-0.00245059
-0.00289966
-0.00446273
-0.00154966
-0.00512997
-0.00327572
-3.64705e-05
0.000424543
-0.000110868
0.000795315
-0.000197922
0.000931731
-0.000287171
0.000976113
-0.000376761
0.000996898
-0.000469078
0.00102153
-0.000568981
0.00106059
-0.000683962
0.0011204
-0.000825501
0.00120775
-0.00101155
0.00133197
-0.00127002
0.00150609
-0.00163895
0.00174086
-0.00214558
0.0020053
-0.00274864
0.00211978
-0.00329113
0.00162823
-0.00354493
-3.14216e-06
-0.0035063
-0.00248921
-0.00307506
-0.00489398
-0.00190989
-0.00629513
-0.00518561
-3.58267e-05
0.00046037
-0.000109175
0.000868663
-0.000192405
0.00101496
-0.000274179
0.00105789
-0.00035231
0.00107503
-0.000428803
0.00109802
-0.00050775
0.00113954
-0.000595235
0.00120788
-0.000700311
0.00131283
-0.000836475
0.00146813
-0.00102276
0.00169238
-0.00127981
0.0019979
-0.00161249
0.00233798
-0.00197034
0.00247763
-0.00227468
0.00193257
-0.00246339
0.000185568
-0.00255218
-0.00240043
-0.00245303
-0.00499312
-0.00171664
-0.00703153
-0.00690225
-3.75424e-05
0.000497912
-0.000112003
0.000943124
-0.000191957
0.00109492
-0.000265174
0.0011311
-0.000329027
0.00113888
-0.000384963
0.00115396
-0.000435781
0.00119035
-0.000484698
0.0012568
-0.000535707
0.00136383
-0.000593353
0.00152578
-0.000661747
0.00176077
-0.00073861
0.00207476
-0.000818645
0.00241801
-0.000876765
0.00253575
-0.000939172
0.00199498
-0.00104014
0.000286532
-0.00125555
-0.00218501
-0.00151105
-0.00473762
-0.00125073
-0.00729185
-0.00815298
-4.56393e-05
0.000543551
-0.000125855
0.00102334
-0.000202652
0.00117171
-0.000264823
0.00119327
-0.000311561
0.00118562
-0.000344197
0.00118659
-0.000363483
0.00120964
-0.000369564
0.00126288
-0.000361179
0.00135545
-0.000334016
0.00149861
-0.000279123
0.00170588
-0.000178281
0.00197392
-2.02034e-05
0.00225993
0.000162451
0.0023531
0.000295015
0.00186242
0.000217226
0.000364321
-0.000130746
-0.00183704
-0.000716406
-0.00415196
-0.000855563
-0.0071527
-0.00900854
-5.65034e-05
0.000600055
-0.000146686
0.00111352
-0.000225627
0.00125065
-0.000282426
0.00125007
-0.000313973
0.00121717
-0.000322511
0.00119513
-0.000309011
0.00119614
-0.000272031
0.0012259
-0.000206963
0.00129038
-0.000104319
0.00139597
5.2139e-05
0.00154942
0.000278993
0.00174707
0.000592743
0.00194618
0.000953007
0.00199284
0.00120771
0.00160771
0.00114288
0.000429157
0.000670986
-0.00136515
-0.000131121
-0.00334985
-0.00053897
-0.00674485
-0.00954751
-0.000124278
0.000724332
-0.000228687
0.00121793
-0.000291218
0.00131318
-0.000319999
0.00127885
-0.000324032
0.0012212
-0.000306364
0.00117746
-0.000264883
0.00115466
-0.000194446
0.00115546
-8.76271e-05
0.00118356
6.72667e-05
0.00124107
0.000283219
0.00133347
0.000579766
0.00145052
0.000961004
0.00156495
0.00138286
0.00157098
0.0016935
0.00129707
0.00165278
0.000469878
0.00114426
-0.00085663
0.000251033
-0.00245663
-0.000290371
-0.00620344
-0.00983788
-8.00971e-05
0.000804429
-0.000250651
0.00138849
-0.00035236
0.00141489
-0.000392399
0.00131889
-0.000388396
0.00121719
-0.00035081
0.00113988
-0.000281951
0.0010858
-0.000178666
0.00105218
-3.48836e-05
0.00103978
0.000159716
0.00104648
0.000415828
0.00107735
0.000745036
0.00112131
0.00114151
0.00116848
0.00156423
0.00114826
0.00188214
0.00097916
0.00186239
0.000489629
0.0014016
-0.000395849
0.000606632
-0.00166165
8.16904e-05
-0.0056785
-0.00975619
-0.000376452
0.00118088
-0.000426639
0.00143867
-0.000464195
0.00145245
-0.000488968
0.00134367
-0.000465705
0.00119393
-0.000400698
0.00107487
-0.000297111
0.000982212
-0.00015271
0.000907775
3.21396e-05
0.000854929
0.000263466
0.000815149
0.000544061
0.000796758
0.000879954
0.000785418
0.00125888
0.000789549
0.0016377
0.000769443
0.00194598
0.000670884
0.00201616
0.000419443
0.00186411
-0.000243796
0.00149327
-0.00129081
0.000842106
-0.00502734
-0.00891408
-0.00136296
0.00254384
-0.00132304
0.00139876
-0.0010585
0.00118791
-0.000681169
0.000966334
-0.000283968
0.000796731
0.000117196
0.000673707
0.000511688
0.00058772
0.000899428
0.000520036
0.00128227
0.00047209
0.00166601
0.000431402
0.00205722
0.00040555
0.0024598
0.000382844
0.00288465
0.000364697
0.00331691
0.000337184
0.00372935
0.000258446
0.0040246
0.000124186
0.00410331
-0.000322504
0.00395439
-0.00114189
0.00250931
-0.00358226
-0.00640477
0.00254384
0.0039426
0.0051305
0.00609684
0.00689357
0.00756728
0.008155
0.00867503
0.00914712
0.00957852
0.00998407
0.0103669
0.0107316
0.0110688
0.0113272
0.0114514
0.0111289
0.00998703
0.00640477
)
;

boundaryField
{
    movingWall
    {
        type            calculated;
        value           uniform 0;
    }
    fixedWalls
    {
        type            calculated;
        value           uniform 0;
    }
    frontAndBack
    {
        type            empty;
        value           nonuniform List<scalar> 0();
    }
}


// ************************************************************************* //
