/*--------------------------------*- C++ -*----------------------------------*\
  =========                 |
  \\      /  F ield         | OpenFOAM: The Open Source CFD Toolbox
   \\    /   O peration     | Website:  https://openfoam.org
    \\  /    A nd           | Version:  10
     \\/     M anipulation  |
\*---------------------------------------------------------------------------*/
FoamFile
{
    format      ascii;
    class       volVectorField;
    location    "0.5";
    object      U;
}
// * * * * * * * * * * * * * * * * * * * * * * * * * * * * * * * * * * * * * //

dimensions      [0 1 -1 0 0 0 0];

internalField   nonuniform List<vector> 
400
(
(-0.000206659 0.000204267 0)
(-0.000639786 0.000220328 0)
(-0.00108053 0.000209925 0)
(-0.00149212 0.000193494 0)
(-0.00186506 0.00017226 0)
(-0.00219039 0.00014689 0)
(-0.00246042 0.000118102 0)
(-0.00266899 8.66375e-05 0)
(-0.00281145 5.32415e-05 0)
(-0.00288464 1.8648e-05 0)
(-0.00288689 -1.64163e-05 0)
(-0.00281797 -5.12207e-05 0)
(-0.00267915 -8.50209e-05 0)
(-0.00247325 -0.000117048 0)
(-0.00220463 -0.000146508 0)
(-0.00187932 -0.000172596 0)
(-0.00150496 -0.000194522 0)
(-0.00109063 -0.000211545 0)
(-0.000646158 -0.000222363 0)
(-0.000208812 -0.000206357 0)
(-0.000233494 0.00064632 0)
(-0.000721818 0.000695871 0)
(-0.00121762 0.000662907 0)
(-0.00168038 0.000610858 0)
(-0.0020994 0.000543633 0)
(-0.00246465 0.000463395 0)
(-0.0027676 0.000372441 0)
(-0.00300144 0.000273126 0)
(-0.00316107 0.000167792 0)
(-0.00324306 5.87327e-05 0)
(-0.00324557 -5.17885e-05 0)
(-0.00316838 -0.000161505 0)
(-0.00301284 -0.000268101 0)
(-0.00278201 -0.000369174 0)
(-0.00248067 -0.000462229 0)
(-0.00211545 -0.000544715 0)
(-0.00169484 -0.000614112 0)
(-0.00122902 -0.000668025 0)
(-0.000729009 -0.000702287 0)
(-0.000235923 -0.00065291 0)
(-0.000245757 0.001131 0)
(-0.000759674 0.00121606 0)
(-0.00128111 0.00115806 0)
(-0.00176717 0.00106665 0)
(-0.00220666 0.000948748 0)
(-0.00258918 0.000808274 0)
(-0.00290601 0.000649311 0)
(-0.00315031 0.000475997 0)
(-0.00331702 0.000292392 0)
(-0.00340275 0.000102432 0)
(-0.0034057 -9.00326e-05 0)
(-0.00332559 -0.000281157 0)
(-0.00316371 -0.000467 0)
(-0.00292297 -0.00064344 0)
(-0.00260808 -0.000806151 0)
(-0.00222564 -0.000950648 0)
(-0.00178431 -0.00107245 0)
(-0.00129465 -0.00116722 0)
(-0.000768227 -0.00122757 0)
(-0.000248647 -0.00114283 0)
(-0.000263955 0.0016429 0)
(-0.000815699 0.00176528 0)
(-0.00137486 0.00168014 0)
(-0.00189507 0.00154639 0)
(-0.00236435 0.00137435 0)
(-0.00277178 0.00116992 0)
(-0.00310849 0.000939181 0)
(-0.00336768 0.00068819 0)
(-0.00354443 0.000422757 0)
(-0.00363551 0.000148425 0)
(-0.00363917 -0.000129451 0)
(-0.00355509 -0.000405544 0)
(-0.00338438 -0.000674366 0)
(-0.00312969 -0.000930111 0)
(-0.00279548 -0.00116657 0)
(-0.00238822 -0.00137718 0)
(-0.00191672 -0.00155525 0)
(-0.001392 -0.00169421 0)
(-0.000826552 -0.001783 0)
(-0.00026762 -0.00166115 0)
(-0.000289482 0.00219847 0)
(-0.000894153 0.00236078 0)
(-0.00150582 0.00224509 0)
(-0.00207325 0.00206413 0)
(-0.00258332 0.00183226 0)
(-0.00302455 0.00155786 0)
(-0.00338796 0.00124935 0)
(-0.00366698 0.000914874 0)
(-0.00385704 0.000562057 0)
(-0.00395522 0.000197972 0)
(-0.00395992 -0.000170671 0)
(-0.00387075 -0.000537244 0)
(-0.00368851 -0.000894866 0)
(-0.00341539 -0.00123611 0)
(-0.00305534 -0.00155284 0)
(-0.00261448 -0.00183617 0)
(-0.00210163 -0.00207683 0)
(-0.0015284 -0.00226545 0)
(-0.000908485 -0.00238656 0)
(-0.000294323 -0.00222506 0)
(-0.000323437 0.00281347 0)
(-0.000998314 0.00301902 0)
(-0.00167915 0.0028677 0)
(-0.00230809 0.00263247 0)
(-0.00287063 0.00233273 0)
(-0.0033547 0.00198002 0)
(-0.00375148 0.00158563 0)
(-0.00405497 0.00116005 0)
(-0.00426134 0.000712723 0)
(-0.00436824 0.000252111 0)
(-0.00437439 -0.000214004 0)
(-0.00427929 -0.000678004 0)
(-0.00408325 -0.0011319 0)
(-0.00378766 -0.00156681 0)
(-0.00339554 -0.00197262 0)
(-0.00291222 -0.00233787 0)
(-0.0023462 -0.0026501 0)
(-0.00170962 -0.00289634 0)
(-0.00101773 -0.00305553 0)
(-0.000330004 -0.00285125 0)
(-0.000367425 0.00350621 0)
(-0.0011329 0.00375884 0)
(-0.0019021 0.00356449 0)
(-0.00260846 0.00326498 0)
(-0.00323577 0.00288624 0)
(-0.00377165 0.00244409 0)
(-0.00420793 0.00195336 0)
(-0.00453988 0.00142719 0)
(-0.00476497 0.000876833 0)
(-0.00488195 0.000311802 0)
(-0.00489004 -0.000259509 0)
(-0.00478865 -0.000829034 0)
(-0.00457731 -0.00138816 0)
(-0.00425611 -0.00192689 0)
(-0.0038264 -0.00243319 0)
(-0.00329198 -0.00289269 0)
(-0.00266036 -0.00328897 0)
(-0.00194391 -0.0036042 0)
(-0.0011597 -0.00380994 0)
(-0.000376501 -0.00355931 0)
(-0.000423814 0.00429882 0)
(-0.00130481 0.00460262 0)
(-0.0021851 0.00435439 0)
(-0.00298665 0.00397636 0)
(-0.00369152 0.0035034 0)
(-0.00428759 0.00295717 0)
(-0.00476838 0.00235695 0)
(-0.0051315 0.0017189 0)
(-0.00537673 0.00105585 0)
(-0.00550458 0.000377851 0)
(-0.00551523 -0.000306882 0)
(-0.00540794 -0.000990709 0)
(-0.00518111 -0.00166521 0)
(-0.00483269 -0.00231987 0)
(-0.00436134 -0.002941 0)
(-0.00376801 -0.00351102 0)
(-0.00305804 -0.0040085 0)
(-0.00224318 -0.00440898 0)
(-0.00134232 -0.00467382 0)
(-0.00043656 -0.00437327 0)
(-0.000496175 0.00521913 0)
(-0.00152427 0.00557777 0)
(-0.00254314 0.00525936 0)
(-0.00345981 0.00478246 0)
(-0.00425498 0.0041944 0)
(-0.0049181 0.00352495 0)
(-0.0054462 0.00279908 0)
(-0.00584098 0.00203616 0)
(-0.00610603 0.00125017 0)
(-0.00624468 0.000450749 0)
(-0.0062586 -0.000355274 0)
(-0.00614697 -0.00116205 0)
(-0.00590648 -0.00196265 0)
(-0.0055319 -0.00274713 0)
(-0.00501754 -0.00350072 0)
(-0.00435949 -0.00420249 0)
(-0.00355874 -0.0048248 0)
(-0.00262472 -0.00533396 0)
(-0.00157753 -0.00567694 0)
(-0.00051437 -0.00532375 0)
(-0.00059008 0.00630354 0)
(-0.00180688 0.00671883 0)
(-0.00299828 0.00630522 0)
(-0.00405205 0.00569983 0)
(-0.00494904 0.00496788 0)
(-0.00568291 0.00415038 0)
(-0.00625718 0.0032793 0)
(-0.00668041 0.00237723 0)
(-0.00696214 0.00145836 0)
(-0.00711003 0.000530403 0)
(-0.00712803 -0.000403073 0)
(-0.00701532 -0.00134 0)
(-0.00676618 -0.00227696 0)
(-0.00637076 -0.00320635 0)
(-0.0058167 -0.00411359 0)
(-0.0050921 -0.00497464 0)
(-0.00419002 -0.00575443 0)
(-0.0031142 -0.00640658 0)
(-0.00188376 -0.00685725 0)
(-0.000616567 -0.00645157 0)
(-0.000714636 0.0076021 0)
(-0.00217723 0.00807056 0)
(-0.00358362 0.00752232 0)
(-0.00479767 0.0067447 0)
(-0.00580444 0.00582893 0)
(-0.00660669 0.00483127 0)
(-0.00721936 0.00379188 0)
(-0.00766192 0.00273599 0)
(-0.00795285 0.00167619 0)
(-0.00810612 0.000615749 0)
(-0.008129 -0.000447682 0)
(-0.00802086 -0.00151854 0)
(-0.00777283 -0.00259982 0)
(-0.00736853 -0.00368916 0)
(-0.00678582 -0.00477462 0)
(-0.00600034 -0.00583028 0)
(-0.0049913 -0.00681281 0)
(-0.00375049 -0.00765893 0)
(-0.0022905 -0.0082644 0)
(-0.000754224 -0.0078139 0)
(-0.000885701 0.00918753 0)
(-0.00267575 0.00969204 0)
(-0.00434991 0.00894564 0)
(-0.00574606 0.00793035 0)
(-0.00686249 0.00677528 0)
(-0.00771997 0.00555645 0)
(-0.00835246 0.0043229 0)
(-0.00879611 0.0031001 0)
(-0.00908239 0.00189549 0)
(-0.0092339 0.000704327 0)
(-0.00926232 -0.00048523 0)
(-0.00916746 -0.00168772 0)
(-0.0089368 -0.00291631 0)
(-0.00854556 -0.00417807 0)
(-0.00795782 -0.00546823 0)
(-0.0071303 -0.00676282 0)
(-0.00601942 -0.00801065 0)
(-0.0045937 -0.00912731 0)
(-0.00284714 -0.00996406 0)
(-0.000947144 -0.00949599 0)
(-0.00113333 0.0111731 0)
(-0.00337222 0.0116608 0)
(-0.00537622 0.0106132 0)
(-0.00696877 0.00926151 0)
(-0.00817836 0.00779053 0)
(-0.00905909 0.00630059 0)
(-0.00967573 0.0048466 0)
(-0.0100893 0.00344843 0)
(-0.0103486 0.00210269 0)
(-0.0104868 0.000791697 0)
(-0.0105211 -0.000510287 0)
(-0.0104519 -0.00183225 0)
(-0.0102632 -0.00320229 0)
(-0.00992045 -0.00464258 0)
(-0.00937057 -0.00616243 0)
(-0.00854277 -0.00774787 0)
(-0.00735672 -0.00934629 0)
(-0.00573802 -0.0108492 0)
(-0.0036409 -0.0120418 0)
(-0.00123437 -0.0116342 0)
(-0.00152026 0.0137448 0)
(-0.0043938 0.0140768 0)
(-0.00678641 0.0125603 0)
(-0.00856966 0.0107226 0)
(-0.00982346 0.00883407 0)
(-0.0106639 0.0070167 0)
(-0.0112046 0.00531996 0)
(-0.01154 0.00374757 0)
(-0.0117391 0.00227683 0)
(-0.0118469 0.00087059 0)
(-0.0118863 -0.000515788 0)
(-0.0118595 -0.00193032 0)
(-0.0117471 -0.00342134 0)
(-0.0115057 -0.0050334 0)
(-0.0110631 -0.00680019 0)
(-0.0103142 -0.00873135 0)
(-0.00912187 -0.0107896 0)
(-0.00733139 -0.0128535 0)
(-0.00483399 -0.014606 0)
(-0.00169991 -0.0144593 0)
(-0.00218082 0.0172564 0)
(-0.00597995 0.017065 0)
(-0.00877536 0.0148012 0)
(-0.0106962 0.0122561 0)
(-0.0118843 0.00982506 0)
(-0.0125732 0.00762456 0)
(-0.0129449 0.0056759 0)
(-0.0131325 0.00394855 0)
(-0.0132256 0.00238802 0)
(-0.0132795 0.000930141 0)
(-0.013322 -0.000493348 0)
(-0.0133575 -0.00195315 0)
(-0.0133663 -0.0035226 0)
(-0.0132993 -0.0052765 0)
(-0.0130685 -0.0072869 0)
(-0.0125321 -0.00960972 0)
(-0.0114802 -0.0122549 0)
(-0.0096077 -0.0151313 0)
(-0.00673856 -0.0177752 0)
(-0.00252809 -0.0183856 0)
(-0.00343855 0.0219621 0)
(-0.00863268 0.0206826 0)
(-0.0116496 0.0172763 0)
(-0.0135474 0.0137259 0)
(-0.014455 0.0106154 0)
(-0.014813 0.00799611 0)
(-0.0148805 0.00581727 0)
(-0.0148278 0.00398522 0)
(-0.0147574 0.00239782 0)
(-0.0147281 0.000955925 0)
(-0.0147694 -0.000434531 0)
(-0.0148886 -0.00186695 0)
(-0.0150703 -0.00344123 0)
(-0.0152698 -0.00526895 0)
(-0.0153961 -0.00747661 0)
(-0.0152819 -0.0101989 0)
(-0.0146446 -0.0135539 0)
(-0.0129212 -0.0175801 0)
(-0.00997945 -0.0216187 0)
(-0.00414167 -0.0240871 0)
(-0.00564911 0.0311965 0)
(-0.0129555 0.0253884 0)
(-0.0157946 0.0199242 0)
(-0.0173563 0.0148923 0)
(-0.0176097 0.0109621 0)
(-0.0173659 0.00794157 0)
(-0.0169497 0.00561483 0)
(-0.0165454 0.00377791 0)
(-0.0162481 0.00226202 0)
(-0.0161046 0.000930281 0)
(-0.0161374 -0.000333324 0)
(-0.0163564 -0.0016383 0)
(-0.0167601 -0.00310686 0)
(-0.017326 -0.00488533 0)
(-0.0179891 -0.00716733 0)
(-0.0185988 -0.0102132 0)
(-0.0188497 -0.0143664 0)
(-0.0177549 -0.0200773 0)
(-0.0156823 -0.0264342 0)
(-0.00738795 -0.0341228 0)
(-0.0122525 0.0365747 0)
(-0.0230498 0.0284536 0)
(-0.0220654 0.0213814 0)
(-0.0223266 0.0149638 0)
(-0.0211858 0.010408 0)
(-0.019918 0.00720848 0)
(-0.0187867 0.00493337 0)
(-0.0179121 0.00325563 0)
(-0.017328 0.0019459 0)
(-0.0170393 0.000841401 0)
(-0.0170471 -0.000184199 0)
(-0.0173641 -0.00124124 0)
(-0.0180107 -0.00245377 0)
(-0.0190122 -0.00398326 0)
(-0.020389 -0.00606427 0)
(-0.0221191 -0.00905585 0)
(-0.0241002 -0.0134593 0)
(-0.0246486 -0.0204238 0)
(-0.026656 -0.0277166 0)
(-0.0141862 -0.0441201 0)
(-0.0194645 0.0798454 0)
(-0.0289273 0.0338221 0)
(-0.0236304 0.0225293 0)
(-0.0213398 0.0134273 0)
(-0.017712 0.00827007 0)
(-0.014831 0.00533267 0)
(-0.0126801 0.00349099 0)
(-0.0111708 0.00224901 0)
(-0.0101988 0.00134193 0)
(-0.00968859 0.000611908 0)
(-0.00959682 -4.7797e-05 0)
(-0.00992087 -0.000731075 0)
(-0.0106958 -0.00153536 0)
(-0.0119879 -0.00262389 0)
(-0.0138875 -0.00429754 0)
(-0.016417 -0.00718317 0)
(-0.019897 -0.0124147 0)
(-0.020264 -0.0232183 0)
(-0.0287581 -0.0384966 0)
(-0.00998478 -0.0898608 0)
(0.0896111 0.0656913 0)
(0.0838772 0.024105 0)
(0.125898 0.0136854 0)
(0.135796 0.00729183 0)
(0.143577 0.00394152 0)
(0.148645 0.00231125 0)
(0.151782 0.00142926 0)
(0.153788 0.000899516 0)
(0.155042 0.000546414 0)
(0.155736 0.000282121 0)
(0.155961 5.79883e-05 0)
(0.15574 -0.000167964 0)
(0.155028 -0.000430523 0)
(0.153671 -0.000797849 0)
(0.151318 -0.00141464 0)
(0.147518 -0.00264294 0)
(0.139399 -0.00514129 0)
(0.134582 -0.0115675 0)
(0.0869358 -0.0207384 0)
(0.0968703 -0.0626151 0)
)
;

boundaryField
{
    movingWall
    {
        type            fixedValue;
        value           uniform (1 0 0);
    }
    fixedWalls
    {
        type            noSlip;
    }
    frontAndBack
    {
        type            empty;
    }
}


// ************************************************************************* //
