/*--------------------------------*- C++ -*----------------------------------*\
  =========                 |
  \\      /  F ield         | OpenFOAM: The Open Source CFD Toolbox
   \\    /   O peration     | Website:  https://openfoam.org
    \\  /    A nd           | Version:  10
     \\/     M anipulation  |
\*---------------------------------------------------------------------------*/
FoamFile
{
    format      ascii;
    class       volScalarField;
    location    "8.975";
    object      p;
}
// * * * * * * * * * * * * * * * * * * * * * * * * * * * * * * * * * * * * * //

dimensions      [0 2 -2 0 0 0 0];

internalField   nonuniform List<scalar> 
400
(
-4.82058e-09
-2.88224e-05
2.91114e-05
0.000141425
0.000316515
0.000557515
0.000869372
0.00125846
0.00173121
0.00229255
0.00294385
0.00368008
0.00448568
0.00533086
0.00616442
0.0069173
0.00750861
0.00787441
0.00802284
0.00790209
3.19719e-05
2.7062e-06
6.87977e-05
0.000184041
0.000358365
0.000595732
0.000901486
0.00128204
0.00174382
0.00229203
0.00292887
0.00365049
0.00444109
0.00527884
0.0061096
0.00686402
0.00745586
0.00781604
0.00795787
0.00781735
-3.95422e-05
-7.81557e-05
-1.38815e-05
9.64442e-05
0.000263472
0.000491348
0.00078598
0.00115477
0.00160575
0.00214666
0.00278313
0.0035158
0.00433721
0.00521977
0.0061146
0.00693979
0.00758554
0.00795557
0.00806535
0.00785717
-0.000192458
-0.000237546
-0.000177628
-7.58928e-05
7.91042e-05
0.000291836
0.000569042
0.000919573
0.00135382
0.00188335
0.0025195
0.00326993
0.00413343
0.00509026
0.00609174
0.00704032
0.00778777
0.00817813
0.00822154
0.00789559
-0.000436259
-0.000486651
-0.000434332
-0.00034558
-0.000208203
-1.73317e-05
0.000234709
0.00055844
0.000967093
0.00147684
0.00210627
0.00287376
0.00379027
0.00484715
0.00600192
0.00714081
0.00805702
0.00848388
0.00840352
0.00788039
-0.000769246
-0.00082474
-0.000783265
-0.000712251
-0.000599071
-0.000438715
-0.000222887
6.02817e-05
0.00042656
0.000896643
0.00149694
0.00225896
0.00321211
0.00436734
0.00571152
0.00712489
0.00831952
0.00881774
0.00852813
0.00767339
-0.00118543
-0.00124644
-0.00121907
-0.00117109
-0.00108995
-0.000971053
-0.000806488
-0.000584345
-0.000287879
0.000106264
0.000630522
0.00132868
0.00225419
0.00345655
0.00495625
0.00669547
0.00832109
0.00897644
0.00839811
0.00706225
-0.00167653
-0.00174379
-0.00173365
-0.00171423
-0.00167372
-0.00160896
-0.00151397
-0.00137939
-0.00119144
-0.000929371
-0.000562348
-4.64292e-05
0.000679667
0.00169508
0.00308748
0.00502889
0.00721813
0.00829979
0.0076045
0.00598253
-0.00223205
-0.00230627
-0.00231581
-0.00232972
-0.00233788
-0.00233995
-0.00233414
-0.00231705
-0.00228362
-0.00222611
-0.00213273
-0.00198793
-0.00178287
-0.00149359
-0.000929236
0.000386348
0.00284261
0.00513357
0.00562644
0.00505794
-0.00283949
-0.00292112
-0.00295107
-0.00300081
-0.00306298
-0.0031416
-0.0032417
-0.00337011
-0.0035378
-0.0037633
-0.0040797
-0.00455499
-0.00535644
-0.00675623
-0.00868342
-0.00974132
-0.00783213
-0.00310973
0.00142843
0.00452866
-0.00348515
-0.0035742
-0.00362234
-0.00370647
-0.00382252
-0.00398064
-0.00419483
-0.00448587
-0.00488794
-0.00546014
-0.00631047
-0.00764354
-0.00989176
-0.0138697
-0.0196558
-0.0247326
-0.0244232
-0.0169858
-0.00764976
0.000365797
-0.00415544
-0.00425069
-0.00430942
-0.00442
-0.00458161
-0.00481154
-0.00513303
-0.0055815
-0.00621607
-0.0071401
-0.00854549
-0.0107927
-0.0145622
-0.0210475
-0.0304225
-0.039699
-0.0408201
-0.0323054
-0.0207483
-0.00903541
-0.0048414
-0.00494189
-0.00499894
-0.00512112
-0.0053098
-0.00558986
-0.00599206
-0.00656184
-0.00737489
-0.00856075
-0.0103567
-0.0131887
-0.0178283
-0.0253562
-0.0360688
-0.0459631
-0.048123
-0.0401072
-0.0301536
-0.0180007
-0.00553392
-0.00562928
-0.00565634
-0.00576259
-0.0059516
-0.00625214
-0.00669534
-0.00732955
-0.0082325
-0.00953163
-0.0114661
-0.014416
-0.0191276
-0.0262332
-0.0361486
-0.0442435
-0.0466229
-0.039487
-0.0327218
-0.0215308
-0.00625936
-0.00635636
-0.00632843
-0.00639434
-0.00654275
-0.00681425
-0.0072405
-0.00786625
-0.00876086
-0.0100253
-0.0118618
-0.014565
-0.0186549
-0.0244084
-0.0319289
-0.0376773
-0.0393478
-0.0332143
-0.029743
-0.0187777
-0.007103
-0.00700187
-0.00683718
-0.00677369
-0.00685321
-0.00708894
-0.00749273
-0.00808841
-0.00892688
-0.0100697
-0.0116919
-0.013949
-0.0171483
-0.0212871
-0.0264181
-0.0298822
-0.0306904
-0.0252081
-0.0238414
-0.00941994
-0.0075563
-0.00794942
-0.0075971
-0.00754657
-0.00748185
-0.00756764
-0.00781613
-0.00826057
-0.00894737
-0.00990308
-0.0112744
-0.0131199
-0.015608
-0.0185843
-0.022083
-0.0239937
-0.0239927
-0.0185981
-0.0159614
0.00876049
-0.0109305
-0.00836953
-0.00765877
-0.00698156
-0.00683455
-0.00695041
-0.00727346
-0.00776582
-0.00845338
-0.00935029
-0.0105748
-0.0121442
-0.0142052
-0.0164861
-0.0189581
-0.0198031
-0.0188679
-0.0118812
-0.00254868
0.0406105
-0.00753882
-0.0104858
-0.00929913
-0.00921427
-0.00867358
-0.00837371
-0.0082685
-0.00838203
-0.00876833
-0.00941431
-0.0104364
-0.0117938
-0.0137602
-0.0159451
-0.0185551
-0.0191401
-0.01734
-0.00352099
0.0213329
0.0978162
-0.0327835
-0.00765008
-0.00600642
-0.00517781
-0.00491848
-0.00507872
-0.00554158
-0.00611776
-0.00689854
-0.00780806
-0.00907947
-0.0105486
-0.0124228
-0.0139756
-0.0148929
-0.0114791
-0.000862157
0.0331419
0.0988725
0.229188
)
;

boundaryField
{
    movingWall
    {
        type            zeroGradient;
    }
    fixedWalls
    {
        type            zeroGradient;
    }
    frontAndBack
    {
        type            empty;
    }
}


// ************************************************************************* //
