/*--------------------------------*- C++ -*----------------------------------*\
  =========                 |
  \\      /  F ield         | OpenFOAM: The Open Source CFD Toolbox
   \\    /   O peration     | Website:  https://openfoam.org
    \\  /    A nd           | Version:  10
     \\/     M anipulation  |
\*---------------------------------------------------------------------------*/
FoamFile
{
    format      ascii;
    class       surfaceScalarField;
    location    "4";
    object      phi;
}
// * * * * * * * * * * * * * * * * * * * * * * * * * * * * * * * * * * * * * //

dimensions      [0 3 -1 0 0 0 0];

internalField   nonuniform List<scalar> 
760
(
-9.18977e-06
9.18976e-06
-2.8836e-05
1.96463e-05
-5.07337e-05
2.18977e-05
-7.22679e-05
2.15342e-05
-9.26416e-05
2.03737e-05
-0.000111405
1.87637e-05
-0.000128123
1.67172e-05
-0.000142316
1.41939e-05
-0.000153469
1.11521e-05
-0.000161028
7.5598e-06
-0.00016443
3.4016e-06
-0.00016312
-1.30974e-06
-0.000156614
-6.50623e-06
-0.00014457
-1.20437e-05
-0.000126873
-1.76969e-05
-0.000103736
-2.31376e-05
-7.58772e-05
-2.78587e-05
-4.50051e-05
-3.08721e-05
-1.55793e-05
-2.94258e-05
-1.55793e-05
-2.03709e-05
2.95607e-05
-5.57906e-05
5.50659e-05
-9.41471e-05
6.02541e-05
-0.000131519
5.89061e-05
-0.00016651
5.5365e-05
-0.000198261
5.05144e-05
-0.000225991
4.44474e-05
-0.000248922
3.71247e-05
-0.000266265
2.84955e-05
-0.000277229
1.85238e-05
-0.00028102
7.19263e-06
-0.000276987
-5.34344e-06
-0.00026447
-1.90228e-05
-0.000243114
-3.34e-05
-0.00021289
-4.79206e-05
-0.000174254
-6.17734e-05
-0.000128392
-7.37211e-05
-7.79322e-05
-8.13317e-05
-2.92811e-05
-7.80769e-05
-4.48604e-05
-2.405e-05
5.36106e-05
-6.4899e-05
9.5915e-05
-0.000108819
0.000104174
-0.000151458
0.000101546
-0.000191291
9.51974e-05
-0.000227371
8.65944e-05
-0.000258844
7.59207e-05
-0.000284865
6.31459e-05
-0.000304583
4.82136e-05
-0.000317146
3.10864e-05
-0.000321744
1.17906e-05
-0.000317466
-9.62106e-06
-0.000303632
-3.28568e-05
-0.000279755
-5.72771e-05
-0.00024568
-8.19959e-05
-0.00020178
-0.000105673
-0.000149275
-0.000126225
-9.10834e-05
-0.000139524
-3.45362e-05
-0.000134624
-7.93966e-05
-2.56205e-05
7.92311e-05
-6.92345e-05
0.000139529
-0.000116065
0.000151004
-0.00016154
0.000147021
-0.000204109
0.000137767
-0.000242827
0.000125312
-0.000276838
0.000109932
-0.000305287
9.15954e-05
-0.000327298
7.02237e-05
-0.000341959
4.57475e-05
-0.000348341
1.81731e-05
-0.000345468
-1.24946e-05
-0.00033231
-4.60146e-05
-0.000308083
-8.15041e-05
-0.000272303
-0.000117775
-0.000225067
-0.00015291
-0.000167464
-0.000183829
-0.000102651
-0.000204336
-3.9016e-05
-0.000198259
-0.000118413
-2.70922e-05
0.000106323
-7.3464e-05
0.000185901
-0.000123285
0.000200825
-0.00017175
0.000195486
-0.000217295
0.000183311
-0.000258997
0.000167014
-0.000296026
0.000146961
-0.00032754
0.000123109
-0.000352645
9.5329e-05
-0.000370369
6.34716e-05
-0.00037964
2.7444e-05
-0.000379283
-1.28521e-05
-0.000367899
-5.73985e-05
-0.000344226
-0.000105178
-0.000307195
-0.000154806
-0.000256317
-0.000203787
-0.000192353
-0.000247793
-0.000118726
-0.000277963
-4.53653e-05
-0.00027162
-0.000163778
-2.89422e-05
0.000135266
-7.87311e-05
0.00023569
-0.000132267
0.00025436
-0.000184448
0.000247668
-0.000233696
0.000232559
-0.000279133
0.000212451
-0.000319979
0.000187807
-0.000355432
0.000158563
-0.000384612
0.000124509
-0.000406499
8.5358e-05
-0.00041988
4.08255e-05
-0.000423376
-9.35652e-06
-0.000415041
-6.57336e-05
-0.000392963
-0.000127256
-0.000355181
-0.000192588
-0.000300205
-0.000258762
-0.000228032
-0.000319966
-0.000142227
-0.000363768
-5.49205e-05
-0.000358927
-0.000218698
-3.12663e-05
0.000166532
-8.52804e-05
0.000289704
-0.000143373
0.000312453
-0.000200077
0.000304371
-0.000253806
0.000286288
-0.000303751
0.000262397
-0.000349225
0.000233281
-0.000389519
0.000198856
-0.000423817
0.000158807
-0.000451106
0.000112647
-0.00047005
5.97691e-05
-0.000479152
-2.54176e-07
-0.000475737
-6.91483e-05
-0.000457084
-0.000145909
-0.000419899
-0.000229774
-0.000361031
-0.00031763
-0.000278887
-0.00040211
-0.000176671
-0.000465984
-6.95186e-05
-0.000466079
-0.000288217
-3.40998e-05
0.000200632
-9.32068e-05
0.000348811
-0.000156722
0.000375968
-0.000218735
0.000366384
-0.000277669
0.000345222
-0.000332825
0.000317553
-0.000383664
0.000284121
-0.000429645
0.000244837
-0.000470114
0.000199277
-0.000504181
0.000146714
-0.000530548
8.61357e-05
-0.000547266
1.64636e-05
-0.000551645
-6.47687e-05
-0.000539525
-0.000158029
-0.000505825
-0.000263473
-0.000444768
-0.000378687
-0.00035171
-0.000495168
-0.000228079
-0.000589614
-9.27495e-05
-0.000601409
-0.000380967
-3.75012e-05
0.000238133
-0.000102641
0.00041395
-0.000172456
0.000445784
-0.000240516
0.000434445
-0.000305277
0.000409983
-0.000366209
0.000378485
-0.000422998
0.000340909
-0.000475368
0.000297207
-0.000522963
0.000246872
-0.000565176
0.000188927
-0.000600916
0.000121876
-0.000628204
4.37515e-05
-0.000644229
-4.87432e-05
-0.000643537
-0.000158722
-0.000618745
-0.000288265
-0.000560135
-0.000437298
-0.000457614
-0.00059769
-0.000307672
-0.000739556
-0.000132372
-0.00077671
-0.000513338
-4.1591e-05
0.000279724
-0.000113823
0.000486183
-0.000190837
0.000522797
-0.000265605
0.000509213
-0.000336664
0.000481042
-0.000403724
0.000445544
-0.000466788
0.000403974
-0.000525976
0.000356395
-0.000581391
0.000302287
-0.000632949
0.000240485
-0.000680099
0.000169026
-0.000721332
8.49849e-05
-0.000754089
-1.5986e-05
-0.000772156
-0.000140655
-0.000765701
-0.00029472
-0.000719697
-0.000483301
-0.00061511
-0.000702277
-0.000437809
-0.000916858
-0.000206456
-0.00100806
-0.000719794
-4.66036e-05
0.000326327
-0.000127195
0.000566773
-0.000212338
0.000607941
-0.000294362
0.000591237
-0.000371967
0.000558647
-0.0004452
0.000518777
-0.000514488
0.000473262
-0.000580471
0.000422377
-0.000643902
0.000365718
-0.00070552
0.000302102
-0.00076579
0.000229295
-0.000824391
0.000143586
-0.000879864
3.94872e-05
-0.000926947
-9.35725e-05
-0.000954156
-0.00026751
-0.000940905
-0.000496553
-0.000855543
-0.000787638
-0.000664222
-0.00110818
-0.000360559
-0.00131173
-0.00108035
-5.29841e-05
0.000379311
-0.000143535
0.000657325
-0.000237773
0.000702179
-0.000327426
0.00068089
-0.000411517
0.000642738
-0.000490558
0.000597817
-0.0005655
0.000548205
-0.000637611
0.000494488
-0.000708461
0.000436568
-0.000779919
0.00037356
-0.000854058
0.000303435
-0.000932806
0.000222333
-0.00101675
0.000123432
-0.00110518
-5.14694e-06
-0.0011889
-0.000183785
-0.00124519
-0.00044026
-0.00122881
-0.000804024
-0.00106989
-0.0012671
-0.000681076
-0.00170054
-0.00176143
-6.15954e-05
0.000440907
-0.000164214
0.000759944
-0.000268491
0.000806455
-0.00036586
0.000778259
-0.00045595
0.000732827
-0.000539911
0.000681779
-0.0006193
0.000627594
-0.000696033
0.000571221
-0.000772524
0.00051306
-0.0008519
0.000452936
-0.000938261
0.000389796
-0.00103685
0.000320922
-0.0011539
0.00024048
-0.00129549
0.000136441
-0.00146561
-1.36554e-05
-0.00164848
-0.000257392
-0.00179147
-0.000661041
-0.00174683
-0.00131174
-0.00124742
-0.00219994
-0.00300885
-7.42781e-05
0.000515185
-0.000191898
0.000877564
-0.000306699
0.000921257
-0.000411139
0.000882699
-0.000506162
0.000827851
-0.000593649
0.000769266
-0.000675662
0.000709607
-0.000754644
0.000650202
-0.000833735
0.000592151
-0.000917215
0.000536416
-0.00101132
0.000483903
-0.00112549
0.000435085
-0.00127381
0.000388809
-0.00147574
0.000338371
-0.00175307
0.000263673
-0.00211648
0.000106012
-0.00250379
-0.000273723
-0.00260433
-0.00121121
-0.00187325
-0.00293102
-0.0048821
-9.0499e-05
0.000605684
-0.000226968
0.00101403
-0.000354371
0.00104866
-0.000466919
0.000995246
-0.000565611
0.000926543
-0.000653892
0.000857547
-0.000735228
0.000790943
-0.000812677
0.000727652
-0.000889412
0.000668886
-0.000969593
0.000616596
-0.00106017
0.000574484
-0.00117352
0.000548427
-0.00133178
0.000547077
-0.00157089
0.000577475
-0.00193932
0.000632109
-0.00245795
0.000624643
-0.00301929
0.000287617
-0.00310358
-0.00112692
-0.00204634
-0.00398826
-0.00692844
-0.000151872
0.000757556
-0.000300765
0.00116293
-0.000424432
0.00117233
-0.000529855
0.00110067
-0.00062493
0.00102162
-0.000711907
0.000944524
-0.000792176
0.000871211
-0.000866848
0.000802325
-0.000937863
0.0007399
-0.00100807
0.000686804
-0.00108343
0.000649845
-0.00117469
0.000639682
-0.0013048
0.000677194
-0.00150843
0.000781105
-0.00184205
0.000965722
-0.00228109
0.00106369
-0.00274229
0.000748811
-0.00273749
-0.00113172
-0.00170519
-0.00502055
-0.00863364
-0.000105616
0.000863172
-0.000320778
0.00137809
-0.000490658
0.00134221
-0.000621903
0.00123191
-0.000722679
0.00112239
-0.000801562
0.00102341
-0.000865297
0.000934946
-0.000917648
0.000854676
-0.000961179
0.000783432
-0.000996025
0.00072165
-0.00102277
0.000676589
-0.00104202
0.000658932
-0.00106221
0.000697385
-0.00108861
0.000807504
-0.00116721
0.00104433
-0.00127461
0.00117109
-0.00144752
0.000921716
-0.00151668
-0.00106255
-0.0010078
-0.00552943
-0.00964144
-0.000390789
0.00125396
-0.000507736
0.00149503
-0.000616641
0.00145111
-0.000716223
0.0013315
-0.000773179
0.00117935
-0.000797263
0.00104749
-0.000798491
0.000936175
-0.000781368
0.000837552
-0.000752271
0.000754335
-0.000709049
0.000678428
-0.000653837
0.000621378
-0.000574875
0.000579969
-0.000464357
0.000586868
-0.000290692
0.000633839
-1.90245e-05
0.000772657
0.000302383
0.000849686
0.000733031
0.000491068
0.000717286
-0.00104681
0.00043689
-0.00524904
-0.00920455
-0.00131785
0.00257181
-0.00126091
0.00143809
-0.00101696
0.00120717
-0.000672183
0.000986715
-0.000309002
0.000816169
4.91975e-05
0.000689292
0.000387457
0.000597915
0.000701839
0.00052317
0.000993708
0.000462466
0.00125998
0.000412154
0.00151535
0.000366009
0.0017588
0.000336516
0.00203091
0.000314762
0.00235254
0.000312203
0.00282165
0.000303548
0.0034369
0.000234435
0.00404402
-0.000116052
0.00408619
-0.00108897
0.00260993
-0.00377278
-0.00659462
0.00257181
0.0040099
0.00521707
0.00620379
0.00701995
0.00770925
0.00830716
0.00883033
0.0092928
0.00970495
0.010071
0.0104075
0.0107222
0.0110344
0.011338
0.0115724
0.0114564
0.0103674
0.00659462
)
;

boundaryField
{
    movingWall
    {
        type            calculated;
        value           uniform 0;
    }
    fixedWalls
    {
        type            calculated;
        value           uniform 0;
    }
    frontAndBack
    {
        type            empty;
        value           nonuniform List<scalar> 0();
    }
}


// ************************************************************************* //
