/*--------------------------------*- C++ -*----------------------------------*\
  =========                 |
  \\      /  F ield         | OpenFOAM: The Open Source CFD Toolbox
   \\    /   O peration     | Website:  https://openfoam.org
    \\  /    A nd           | Version:  10
     \\/     M anipulation  |
\*---------------------------------------------------------------------------*/
FoamFile
{
    format      ascii;
    class       volVectorField;
    location    "4";
    object      U;
}
// * * * * * * * * * * * * * * * * * * * * * * * * * * * * * * * * * * * * * //

dimensions      [0 1 -1 0 0 0 0];

internalField   nonuniform List<vector> 
400
(
(-0.00011577 0.00011211 0)
(-0.00084431 0.000328754 0)
(-0.00200265 0.000379041 0)
(-0.0030873 0.000376885 0)
(-0.00413892 0.000361173 0)
(-0.00512222 0.000338682 0)
(-0.00601349 0.000308927 0)
(-0.00679047 0.00027034 0)
(-0.00742836 0.000221405 0)
(-0.00790034 0.000160861 0)
(-0.00817837 8.79323e-05 0)
(-0.0082342 2.91075e-06 0)
(-0.0080414 -9.42816e-05 0)
(-0.00757878 -0.000200654 0)
(-0.00683431 -0.000311593 0)
(-0.00580853 -0.000420302 0)
(-0.00452474 -0.000516072 0)
(-0.00305537 -0.000578232 0)
(-0.00138445 -0.00054691 0)
(-0.000240316 -0.00025369 0)
(-0.000346528 0.000849044 0)
(-0.00175216 0.00169777 0)
(-0.0037712 0.00187732 0)
(-0.00566761 0.001842 0)
(-0.00748485 0.00173805 0)
(-0.00916257 0.00159431 0)
(-0.0106574 0.00141273 0)
(-0.0119312 0.00119087 0)
(-0.0129449 0.000926094 0)
(-0.0136589 0.000616465 0)
(-0.0140335 0.000261284 0)
(-0.0140321 -0.000138666 0)
(-0.0136211 -0.000575963 0)
(-0.0127746 -0.00103863 0)
(-0.0114819 -0.00150823 0)
(-0.009751 -0.0019579 0)
(-0.00762434 -0.00234645 0)
(-0.00520911 -0.00259338 0)
(-0.00249804 -0.00247863 0)
(-0.000523407 -0.0013648 0)
(-0.000419372 0.00207133 0)
(-0.00205549 0.00375611 0)
(-0.00437067 0.00409132 0)
(-0.00653806 0.00399291 0)
(-0.0086093 0.00374646 0)
(-0.0105175 0.00341061 0)
(-0.012215 0.00299244 0)
(-0.0136604 0.00249035 0)
(-0.0148114 0.00190186 0)
(-0.0156254 0.00122545 0)
(-0.0160609 0.000461826 0)
(-0.0160744 -0.000384875 0)
(-0.0156251 -0.00130147 0)
(-0.0146833 -0.00226401 0)
(-0.0132319 -0.00323536 0)
(-0.0112727 -0.0041616 0)
(-0.00884679 -0.00496096 0)
(-0.00607176 -0.00547237 0)
(-0.00293569 -0.00526597 0)
(-0.000625958 -0.0030777 0)
(-0.000445027 0.00330707 0)
(-0.0021915 0.00586023 0)
(-0.00466306 0.0063515 0)
(-0.0069732 0.00618686 0)
(-0.00918411 0.00579777 0)
(-0.011227 0.00527227 0)
(-0.013054 0.00462173 0)
(-0.0146238 0.00384466 0)
(-0.0158932 0.00293775 0)
(-0.0168175 0.00189844 0)
(-0.0173512 0.000727237 0)
(-0.0174461 -0.00056876 0)
(-0.0170511 -0.00197575 0)
(-0.0161202 -0.00346087 0)
(-0.01462 -0.0049706 0)
(-0.0125367 -0.00642346 0)
(-0.00989902 -0.00769136 0)
(-0.00683151 -0.00852016 0)
(-0.00331644 -0.00824276 0)
(-0.00070803 -0.00489834 0)
(-0.000467283 0.00462046 0)
(-0.00232096 0.00810152 0)
(-0.0049515 0.00875861 0)
(-0.00741024 0.00852644 0)
(-0.00977053 0.00799209 0)
(-0.0119624 0.00727457 0)
(-0.0139395 0.00638967 0)
(-0.0156614 0.0053355 0)
(-0.0170851 0.00410688 0)
(-0.0181642 0.00269834 0)
(-0.0188481 0.0011071 0)
(-0.0190807 -0.00066272 0)
(-0.0187966 -0.00259766 0)
(-0.0179284 -0.0046605 0)
(-0.016416 -0.00678514 0)
(-0.0142145 -0.00886209 0)
(-0.0113267 -0.0107074 0)
(-0.00788036 -0.0119485 0)
(-0.00385254 -0.0116315 0)
(-0.00082716 -0.0069848 0)
(-0.000495929 0.00601702 0)
(-0.00248283 0.0104977 0)
(-0.00531027 0.0113343 0)
(-0.00795377 0.0110348 0)
(-0.0104998 0.0103545 0)
(-0.0128775 0.00944586 0)
(-0.0150431 0.00832925 0)
(-0.0169588 0.00700187 0)
(-0.0185831 0.00545521 0)
(-0.0198689 0.00367832 0)
(-0.0207612 0.0016611 0)
(-0.021196 -0.000600526 0)
(-0.0210896 -0.00310358 0)
(-0.0203442 -0.00581272 0)
(-0.0188615 -0.00865579 0)
(-0.0165471 -0.0114966 0)
(-0.0133542 -0.014085 0)
(-0.00939962 -0.0158929 0)
(-0.00465068 -0.0155985 0)
(-0.00101305 -0.00945714 0)
(-0.000532598 0.00751695 0)
(-0.0026853 0.0130835 0)
(-0.00575521 0.0141156 0)
(-0.00862439 0.0137483 0)
(-0.0113956 0.0129211 0)
(-0.0139977 0.011823 0)
(-0.0163912 0.0104798 0)
(-0.018543 0.00888748 0)
(-0.0204161 0.0070327 0)
(-0.0219653 0.0048959 0)
(-0.0231333 0.00245411 0)
(-0.0238508 -0.000314566 0)
(-0.0240138 -0.00341852 0)
(-0.0234866 -0.00684858 0)
(-0.0221179 -0.0105388 0)
(-0.0197367 -0.0143352 0)
(-0.0162064 -0.0179128 0)
(-0.0115967 -0.0205387 0)
(-0.00585135 -0.0203877 0)
(-0.00131089 -0.0125106 0)
(-0.00057774 0.00914518 0)
(-0.00293158 0.0159015 0)
(-0.00629229 0.0171459 0)
(-0.0094279 0.0167076 0)
(-0.0124619 0.0157303 0)
(-0.0153236 0.0144439 0)
(-0.0179802 0.0128811 0)
(-0.0204072 0.0110369 0)
(-0.0225758 0.0088925 0)
(-0.0244485 0.00641692 0)
(-0.0259724 0.00356858 0)
(-0.027069 0.000299221 0)
(-0.0276242 -0.00342866 0)
(-0.0274677 -0.00765162 0)
(-0.0263693 -0.0123376 0)
(-0.0240478 -0.0173399 0)
(-0.0202147 -0.0222633 0)
(-0.0148078 -0.0261145 0)
(-0.00771647 -0.0263429 0)
(-0.00181735 -0.0164629 0)
(-0.00063249 0.0109284 0)
(-0.00322652 0.0189966 0)
(-0.00692926 0.020469 0)
(-0.0103708 0.0199514 0)
(-0.0137014 0.0188163 0)
(-0.0168516 0.0173409 0)
(-0.0197991 0.0155667 0)
(-0.0225322 0.0134897 0)
(-0.0250366 0.0110857 0)
(-0.0272897 0.00831099 0)
(-0.0292512 0.00510104 0)
(-0.030848 0.00137272 0)
(-0.031965 -0.00297015 0)
(-0.0323998 -0.00803013 0)
(-0.0318367 -0.0138584 0)
(-0.0298429 -0.0203717 0)
(-0.0258906 -0.027142 0)
(-0.0196154 -0.0328691 0)
(-0.0107844 -0.0339501 0)
(-0.00275715 -0.0218763 0)
(-0.000699647 0.0128974 0)
(-0.00357963 0.0224183 0)
(-0.00768016 0.0241293 0)
(-0.0114654 0.0235149 0)
(-0.01512 0.0222071 0)
(-0.0185783 0.0205377 0)
(-0.0218325 0.0185606 0)
(-0.0248891 0.0162754 0)
(-0.0277554 0.013655 0)
(-0.0304339 0.0106442 0)
(-0.0329114 0.00715386 0)
(-0.0351409 0.00305586 0)
(-0.0370284 -0.00182184 0)
(-0.0383632 -0.00768745 0)
(-0.0387582 -0.0147521 0)
(-0.0376009 -0.0230985 0)
(-0.0340199 -0.0323789 0)
(-0.0270716 -0.0409886 0)
(-0.0162413 -0.0438873 0)
(-0.00467902 -0.0298463 0)
(-0.000785209 0.0150914 0)
(-0.00400881 0.0262242 0)
(-0.00857006 0.0281726 0)
(-0.0127337 0.0274288 0)
(-0.0167314 0.0259215 0)
(-0.0205037 0.0240452 0)
(-0.0240628 0.0218707 0)
(-0.0274391 0.0194054 0)
(-0.0306691 0.0166245 0)
(-0.0337922 0.0134667 0)
(-0.0368411 0.00982219 0)
(-0.0398258 0.0055159 0)
(-0.0427121 0.000287257 0)
(-0.0453452 -0.00620539 0)
(-0.0473304 -0.0144368 0)
(-0.0479059 -0.024832 0)
(-0.0457908 -0.0373737 0)
(-0.0391219 -0.050302 0)
(-0.0267347 -0.0569078 0)
(-0.00895892 -0.0428031 0)
(-0.000901563 0.0175663 0)
(-0.00454701 0.0304846 0)
(-0.00964235 0.0326464 0)
(-0.0142142 0.0317172 0)
(-0.0185612 0.0299652 0)
(-0.0226352 0.0278565 0)
(-0.026474 0.0254827 0)
(-0.0301369 0.0228644 0)
(-0.0336959 0.0199868 0)
(-0.0372385 0.016795 0)
(-0.0408652 0.013176 0)
(-0.0446806 0.00892884 0)
(-0.0487597 0.00371981 0)
(-0.0531233 -0.00297213 0)
(-0.0575522 -0.011933 0)
(-0.0613289 -0.024212 0)
(-0.0628618 -0.0405329 0)
(-0.0591048 -0.0595148 0)
(-0.0475826 -0.0735839 0)
(-0.0187906 -0.0656656 0)
(-0.00107504 0.0204073 0)
(-0.00525535 0.0352895 0)
(-0.0109699 0.0375916 0)
(-0.0159694 0.0363848 0)
(-0.0206534 0.0343223 0)
(-0.0249926 0.0319415 0)
(-0.029057 0.0293546 0)
(-0.0329369 0.0266001 0)
(-0.0367406 0.0236845 0)
(-0.0406054 0.0205768 0)
(-0.0447103 0.0171899 0)
(-0.0492879 0.0133402 0)
(-0.0546313 0.00866984 0)
(-0.0610749 0.002513 0)
(-0.0689261 -0.00621674 0)
(-0.0780383 -0.0192113 0)
(-0.0869122 -0.038655 0)
(-0.0912034 -0.0652836 0)
(-0.084458 -0.0939482 0)
(-0.0362997 -0.108476 0)
(-0.00136104 0.023744 0)
(-0.00626304 0.0408262 0)
(-0.0126839 0.0431745 0)
(-0.0180926 0.0415673 0)
(-0.0230681 0.0390537 0)
(-0.0276092 0.0362876 0)
(-0.0318174 0.0334228 0)
(-0.0358085 0.030518 0)
(-0.0397203 0.0276014 0)
(-0.0437337 0.0246848 0)
(-0.0481029 0.0217601 0)
(-0.053206 0.0187595 0)
(-0.0596143 0.0154588 0)
(-0.0681523 0.0112858 0)
(-0.0799413 0.00503726 0)
(-0.0963016 -0.00565884 0)
(-0.116575 -0.0255323 0)
(-0.133069 -0.0625375 0)
(-0.130401 -0.120933 0)
(-0.0495802 -0.186413 0)
(-0.00177247 0.0280048 0)
(-0.00751628 0.046555 0)
(-0.0148635 0.0484891 0)
(-0.0207322 0.0461545 0)
(-0.0259917 0.0432466 0)
(-0.0306262 0.0402734 0)
(-0.0348244 0.0373003 0)
(-0.0387517 0.0343551 0)
(-0.0425581 0.031493 0)
(-0.0464159 0.0287976 0)
(-0.0505819 0.0263916 0)
(-0.0555039 0.0244178 0)
(-0.061988 0.0230032 0)
(-0.071407 0.0220472 0)
(-0.0860297 0.0207766 0)
(-0.108915 0.0159046 0)
(-0.139704 -0.00179065 0)
(-0.161805 -0.057591 0)
(-0.15486 -0.170485 0)
(-0.039183 -0.299302 0)
(-0.00370272 0.031936 0)
(-0.0114141 0.0558498 0)
(-0.018414 0.0574077 0)
(-0.0240878 0.0545757 0)
(-0.0290436 0.0505107 0)
(-0.0335751 0.0464047 0)
(-0.0377198 0.0425076 0)
(-0.0415491 0.038916 0)
(-0.0451372 0.0357123 0)
(-0.0485969 0.0330162 0)
(-0.0521217 0.0310788 0)
(-0.0560725 0.0303356 0)
(-0.0611927 0.0315251 0)
(-0.0688416 0.0353904 0)
(-0.08162 0.0420264 0)
(-0.101969 0.0453434 0)
(-0.130812 0.0293039 0)
(-0.144966 -0.0572016 0)
(-0.137393 -0.234951 0)
(-0.0207692 -0.404558 0)
(-0.00145998 0.0460072 0)
(-0.0096154 0.05874 0)
(-0.0216409 0.0580499 0)
(-0.0279853 0.0533255 0)
(-0.0339619 0.0496339 0)
(-0.0383584 0.0462885 0)
(-0.0418493 0.0431511 0)
(-0.0446954 0.0401285 0)
(-0.0470456 0.0373175 0)
(-0.0489519 0.0348522 0)
(-0.0504201 0.0331589 0)
(-0.0514221 0.0328163 0)
(-0.0521722 0.0351974 0)
(-0.0527763 0.0412613 0)
(-0.055466 0.0524196 0)
(-0.0581506 0.0580989 0)
(-0.0744209 0.0415667 0)
(-0.0754671 -0.0626461 0)
(-0.0841498 -0.280831 0)
(-0.00443742 -0.478744 0)
(-0.0114471 0.0360813 0)
(-0.0255962 0.0819038 0)
(-0.0266589 0.0789884 0)
(-0.0343743 0.073329 0)
(-0.0378273 0.0657735 0)
(-0.0397717 0.0588031 0)
(-0.0402153 0.052638 0)
(-0.039689 0.047216 0)
(-0.0384687 0.042534 0)
(-0.03655 0.0385358 0)
(-0.0341433 0.0354671 0)
(-0.0306393 0.0339013 0)
(-0.0264385 0.0352608 0)
(-0.0185976 0.0403233 0)
(-0.0112852 0.0526476 0)
(0.00999001 0.0604828 0)
(0.0176436 0.0514351 0)
(0.0517299 -0.0454981 0)
(0.0127518 -0.284454 0)
(0.0411404 -0.502434 0)
(-0.0755357 0.0993462 0)
(-0.0605963 0.0625923 0)
(-0.0618646 0.0612666 0)
(-0.041586 0.0543964 0)
(-0.0247926 0.0472634 0)
(-0.00622171 0.0416739 0)
(0.0110845 0.037347 0)
(0.0276456 0.0334501 0)
(0.0424847 0.0302922 0)
(0.0569509 0.0270667 0)
(0.0694121 0.0248287 0)
(0.0829346 0.0225777 0)
(0.0933207 0.0222384 0)
(0.112752 0.022417 0)
(0.119987 0.0232104 0)
(0.16624 0.0216742 0)
(0.167366 -0.00573694 0)
(0.226091 -0.0658932 0)
(0.163501 -0.258785 0)
(0.127937 -0.44466 0)
(0.120373 0.140209 0)
(0.153818 0.0865131 0)
(0.23288 0.0643537 0)
(0.288335 0.0492429 0)
(0.331509 0.0387223 0)
(0.369797 0.0310032 0)
(0.400156 0.0256083 0)
(0.430901 0.021561 0)
(0.4515 0.0182316 0)
(0.478936 0.016134 0)
(0.490709 0.0134118 0)
(0.518654 0.0124888 0)
(0.520718 0.0104182 0)
(0.554008 0.00977517 0)
(0.54422 0.00900535 0)
(0.583551 0.00448703 0)
(0.554165 -0.00271207 0)
(0.570834 -0.0288558 0)
(0.438968 -0.0827522 0)
(0.277866 -0.157097 0)
)
;

boundaryField
{
    movingWall
    {
        type            fixedValue;
        value           uniform (1 0 0);
    }
    fixedWalls
    {
        type            noSlip;
    }
    frontAndBack
    {
        type            empty;
    }
}


// ************************************************************************* //
