/*--------------------------------*- C++ -*----------------------------------*\
  =========                 |
  \\      /  F ield         | OpenFOAM: The Open Source CFD Toolbox
   \\    /   O peration     | Website:  https://openfoam.org
    \\  /    A nd           | Version:  10
     \\/     M anipulation  |
\*---------------------------------------------------------------------------*/
FoamFile
{
    format      ascii;
    class       volScalarField;
    location    "6.975";
    object      p;
}
// * * * * * * * * * * * * * * * * * * * * * * * * * * * * * * * * * * * * * //

dimensions      [0 2 -2 0 0 0 0];

internalField   nonuniform List<scalar> 
400
(
-9.7949e-09
-2.13578e-05
2.94691e-05
0.000127562
0.000279665
0.000487778
0.000754724
0.00108376
0.00147749
0.00193682
0.00245978
0.0030398
0.00366385
0.00431059
0.00494868
0.00553758
0.00602999
0.00637937
0.00657678
0.00654452
2.23188e-05
5.65221e-07
5.67879e-05
0.000155721
0.000305678
0.000509469
0.000770426
0.00109214
0.00147752
0.00192793
0.00244204
0.0030141
0.00363146
0.00427503
0.00491372
0.0055068
0.00600528
0.00636084
0.00656712
0.00652655
-3.66126e-05
-6.57643e-05
-1.12543e-05
8.38268e-05
0.000228613
0.000426212
0.000680558
0.000996175
0.00137726
0.00182681
0.00234544
0.0029296
0.0035702
0.00424801
0.00493118
0.00557474
0.00612116
0.00651019
0.00673371
0.00666551
-0.000157341
-0.0001918
-0.000140515
-5.14446e-05
8.54537e-05
0.000273752
0.000518309
0.000825035
0.00120009
0.00164914
0.00217607
0.00278102
0.00345772
0.00419127
0.00494902
0.00568008
0.00631263
0.00676293
0.00701955
0.00690952
-0.000346342
-0.000385578
-0.000339448
-0.000258948
-0.000133095
4.22666e-05
0.000273137
0.00056718
0.000933083
0.00138009
0.00191684
0.00254899
0.00327546
0.00408823
0.00495444
0.00581707
0.00658474
0.00713606
0.00744874
0.00726438
-0.000602586
-0.000646894
-0.000607926
-0.000538977
-0.000428235
-0.000270967
-5.99917e-05
0.000214249
0.000563315
0.00100072
0.00154128
0.00219919
0.00298403
0.00388996
0.00489907
0.0059486
0.00692157
0.00763694
0.00804453
0.0077229
-0.000923123
-0.000973318
-0.000943691
-0.000889901
-0.000799501
-0.000667419
-0.000485535
-0.000242618
7.56872e-05
0.000487361
0.00101419
0.00168104
0.00251155
0.00351809
0.00469631
0.00599455
0.00727205
0.00825923
0.00883512
0.00826848
-0.00130419
-0.00136138
-0.00134343
-0.00130891
-0.00124509
-0.00114708
-0.00100651
-0.000811253
-0.000545014
-0.000186136
0.000293732
0.000930816
0.00176768
0.00284543
0.00418494
0.00578085
0.00749271
0.00894889
0.00982067
0.00888654
-0.00174096
-0.00180639
-0.00180225
-0.00179115
-0.00176059
-0.00170662
-0.0016218
-0.00149472
-0.00130927
-0.00104256
-0.000662631
-0.000125302
0.000629527
0.00167359
0.00307564
0.00493188
0.00718066
0.00945498
0.0108362
0.0095832
-0.00222753
-0.00230234
-0.00231335
-0.00232899
-0.00233768
-0.00233754
-0.0023236
-0.00228744
-0.00221656
-0.00209251
-0.00188775
-0.00156061
-0.00104851
-0.000263002
0.00091677
0.00261586
0.00520544
0.00871353
0.0109995
0.010257
-0.00275719
-0.00284231
-0.002868
-0.00291156
-0.0029632
-0.00302438
-0.00309453
-0.00317101
-0.00324942
-0.00332297
-0.00338173
-0.00341195
-0.00339675
-0.00332882
-0.00321312
-0.0028452
-0.00117319
0.00337768
0.00764874
0.00994088
-0.00332359
-0.00341911
-0.00345543
-0.00352414
-0.00361795
-0.00374295
-0.00390456
-0.00410858
-0.00436345
-0.00468267
-0.00509
-0.00563091
-0.00640174
-0.00763539
-0.00977089
-0.0128312
-0.0143819
-0.00985026
-0.00271013
0.00465668
-0.00392326
-0.00402894
-0.00406792
-0.0041539
-0.00428182
-0.00446432
-0.00471428
-0.00504721
-0.00548771
-0.00607669
-0.00688656
-0.00805447
-0.00985437
-0.0128295
-0.018117
-0.0258595
-0.0327149
-0.0292337
-0.0195924
-0.00686596
-0.00455224
-0.00465882
-0.00467825
-0.00476319
-0.00491083
-0.00513821
-0.00546209
-0.00590725
-0.0065124
-0.00734258
-0.00851402
-0.01024
-0.0129714
-0.0174428
-0.0252218
-0.0361613
-0.0471612
-0.0454928
-0.0359851
-0.0202779
-0.00524103
-0.0053584
-0.00533997
-0.00540826
-0.00554423
-0.00577877
-0.00613524
-0.00664441
-0.00735226
-0.00833345
-0.00972303
-0.0117391
-0.0149288
-0.0199633
-0.0284681
-0.039582
-0.0515424
-0.0499073
-0.0421628
-0.0258465
-0.00607062
-0.00599341
-0.00585727
-0.00582399
-0.00592455
-0.00616685
-0.00655835
-0.00711705
-0.00788238
-0.00892144
-0.0103671
-0.0123768
-0.0154926
-0.0201819
-0.0277029
-0.0367375
-0.0452665
-0.0435876
-0.0381997
-0.0193955
-0.0065581
-0.00698496
-0.00668935
-0.00669668
-0.00668764
-0.00681463
-0.00709278
-0.00755498
-0.00824035
-0.00919631
-0.0105407
-0.0123513
-0.0150983
-0.0189089
-0.0246582
-0.0307268
-0.0361889
-0.0331732
-0.0269183
3.42263e-05
-0.0099367
-0.00741919
-0.00678531
-0.00620349
-0.00613424
-0.00632172
-0.00670816
-0.00725774
-0.00799109
-0.00892165
-0.0101752
-0.0118003
-0.0141294
-0.0171282
-0.0213123
-0.0248901
-0.0273405
-0.0217151
-0.00940743
0.0344913
-0.00663178
-0.00963231
-0.00856798
-0.00858727
-0.00813932
-0.0079119
-0.00786854
-0.00804163
-0.00847714
-0.00915892
-0.0101956
-0.0115989
-0.0137648
-0.0164559
-0.0205525
-0.02341
-0.0243795
-0.0109731
0.0161127
0.0935606
-0.0318382
-0.00680201
-0.00529152
-0.00455215
-0.00436142
-0.00459194
-0.00512444
-0.00576164
-0.00661001
-0.00756766
-0.00890079
-0.0104796
-0.0126479
-0.0148656
-0.0169617
-0.0153299
-0.00657597
0.0269156
0.0951477
0.227329
)
;

boundaryField
{
    movingWall
    {
        type            zeroGradient;
    }
    fixedWalls
    {
        type            zeroGradient;
    }
    frontAndBack
    {
        type            empty;
    }
}


// ************************************************************************* //
