/*--------------------------------*- C++ -*----------------------------------*\
  =========                 |
  \\      /  F ield         | OpenFOAM: The Open Source CFD Toolbox
   \\    /   O peration     | Website:  https://openfoam.org
    \\  /    A nd           | Version:  10
     \\/     M anipulation  |
\*---------------------------------------------------------------------------*/
FoamFile
{
    format      ascii;
    class       volScalarField;
    location    "9.25";
    object      p;
}
// * * * * * * * * * * * * * * * * * * * * * * * * * * * * * * * * * * * * * //

dimensions      [0 2 -2 0 0 0 0];

internalField   nonuniform List<scalar> 
400
(
2.06583e-08
-3.07842e-05
2.67239e-05
0.000138879
0.000314283
0.000556178
0.000869797
0.00126198
0.00173979
0.00230889
0.0029713
0.00372236
0.00454601
0.00541004
0.0062604
0.00702299
0.00761114
0.00796089
0.00808556
0.00794941
3.37626e-05
2.6732e-06
6.88384e-05
0.000184292
0.000359192
0.000597609
0.000905144
0.00128861
0.00175497
0.00231015
0.00295708
0.00369266
0.00450179
0.00535556
0.00620209
0.00696552
0.00755263
0.00789348
0.00800763
0.00785154
-3.86087e-05
-7.92728e-05
-1.48521e-05
9.55928e-05
0.000262924
0.000491365
0.000787047
0.00115775
0.00161205
0.00215848
0.00280357
0.00354863
0.00438592
0.00528953
0.00620421
0.00704118
0.0076807
0.00802314
0.00809275
0.00786532
-0.000194781
-0.000242066
-0.000182109
-8.05901e-05
7.41164e-05
0.000286513
0.000563515
0.000914311
0.00134987
0.00188265
0.00252522
0.00328661
0.00416623
0.00514673
0.00617298
0.00713767
0.00787669
0.00822368
0.00820265
0.00785326
-0.000444858
-0.000497509
-0.000445484
-0.000357581
-0.000221477
-3.23363e-05
0.000217614
0.000539155
0.000946058
0.00145547
0.00208761
0.00286318
0.0037955
0.00487768
0.0060631
0.00722511
0.00813135
0.00848616
0.00830445
0.00775272
-0.000787096
-0.000844841
-0.000804197
-0.00073495
-0.000624415
-0.000467724
-0.000256655
2.07374e-05
0.000380547
0.000844289
0.00144001
0.00220207
0.00316376
0.00433923
0.0057179
0.00716443
0.00835142
0.00873242
0.00828496
0.00740426
-0.00121505
-0.00127824
-0.0012524
-0.00120736
-0.00113062
-0.00101791
-0.000861666
-0.000650375
-0.000367523
1.03464e-05
0.000516476
0.00119661
0.00210837
0.00330843
0.00482376
0.00659317
0.00821294
0.00868502
0.00791895
0.0065912
-0.00171974
-0.00178902
-0.00178122
-0.00176608
-0.00173205
-0.00167652
-0.00159434
-0.00147728
-0.00131309
-0.0010829
-0.00075789
-0.000296589
0.000359835
0.00129727
0.00263511
0.00451672
0.0066718
0.00755799
0.00682699
0.00530107
-0.00228975
-0.00236575
-0.00237843
-0.00239799
-0.00241481
-0.00242942
-0.00244152
-0.00244996
-0.00245309
-0.00244857
-0.00243349
-0.00240952
-0.00240279
-0.00242818
-0.00225749
-0.00118336
0.0012322
0.00365271
0.00460098
0.00441912
-0.00291157
-0.00299458
-0.00302832
-0.00308485
-0.00315754
-0.00325174
-0.00337466
-0.00353676
-0.00375498
-0.00405822
-0.0044983
-0.00517949
-0.0063466
-0.00835209
-0.0110602
-0.012544
-0.0105474
-0.00531234
4.25227e-05
0.00390813
-0.00357045
-0.00366034
-0.00371256
-0.00380409
-0.00393173
-0.00410737
-0.00434787
-0.00467884
-0.00514283
-0.00581424
-0.00683075
-0.00845457
-0.0112314
-0.016067
-0.0229068
-0.0285667
-0.0275956
-0.0193822
-0.009299
-0.000771772
-0.00425182
-0.00434715
-0.00440962
-0.00452727
-0.00470014
-0.00494751
-0.00529573
-0.00578542
-0.00648473
-0.00751306
-0.00909282
-0.0116395
-0.0159235
-0.0231013
-0.0330813
-0.041656
-0.042146
-0.033278
-0.0218556
-0.0101828
-0.00494609
-0.00504573
-0.00510544
-0.00523316
-0.00543102
-0.00572585
-0.00615105
-0.0067565
-0.00762515
-0.00889798
-0.0108333
-0.0138933
-0.0188901
-0.026814
-0.037651
-0.0466014
-0.0476406
-0.0394119
-0.0298357
-0.0182081
-0.00564362
-0.00573708
-0.00576486
-0.00587382
-0.00606827
-0.00637873
-0.00683822
-0.00749812
-0.00844123
-0.00980055
-0.0118216
-0.0149141
-0.0197626
-0.0270099
-0.0365845
-0.0435456
-0.0450417
-0.037691
-0.0315812
-0.0209303
-0.00637049
-0.00646414
-0.00643416
-0.00649885
-0.00664795
-0.00692344
-0.00735802
-0.00799823
-0.00891719
-0.0102181
-0.012086
-0.0148426
-0.0189486
-0.0245907
-0.031667
-0.0365383
-0.0374611
-0.0312773
-0.0283225
-0.0177856
-0.00721285
-0.0071076
-0.006938
-0.00686907
-0.00694432
-0.00717777
-0.00758181
-0.00818091
-0.00903082
-0.0101827
-0.0118168
-0.0140766
-0.0172338
-0.0212188
-0.0259808
-0.0288203
-0.0291027
-0.0236225
-0.0226245
-0.00847566
-0.00765892
-0.00804638
-0.0076849
-0.0076249
-0.00755133
-0.00763069
-0.00787463
-0.00831543
-0.00900077
-0.0099699
-0.0113363
-0.0131655
-0.0156032
-0.0184438
-0.0216625
-0.023171
-0.0228434
-0.0175509
-0.0151544
0.00953526
-0.01103
-0.00846173
-0.00773963
-0.00704829
-0.00688981
-0.00699561
-0.00731055
-0.00779624
-0.00848031
-0.00938166
-0.0106014
-0.0121556
-0.0141764
-0.016353
-0.0186302
-0.0192157
-0.0180531
-0.011127
-0.00198557
0.0412108
-0.00762658
-0.0105634
-0.00935787
-0.00925739
-0.00870383
-0.00839446
-0.008283
-0.00839254
-0.00877744
-0.00942303
-0.0104465
-0.0117975
-0.0137303
-0.0158333
-0.0182813
-0.018635
-0.0166281
-0.00288426
0.0217404
0.0982109
-0.0328716
-0.00772315
-0.00606189
-0.00521993
-0.00495037
-0.00510186
-0.00555713
-0.0061283
-0.00690611
-0.00781374
-0.00908138
-0.0105367
-0.0123729
-0.0138449
-0.0146284
-0.0110419
-0.000273351
0.0336985
0.0992257
0.229459
)
;

boundaryField
{
    movingWall
    {
        type            zeroGradient;
    }
    fixedWalls
    {
        type            zeroGradient;
    }
    frontAndBack
    {
        type            empty;
    }
}


// ************************************************************************* //
