/*--------------------------------*- C++ -*----------------------------------*\
  =========                 |
  \\      /  F ield         | OpenFOAM: The Open Source CFD Toolbox
   \\    /   O peration     | Website:  https://openfoam.org
    \\  /    A nd           | Version:  10
     \\/     M anipulation  |
\*---------------------------------------------------------------------------*/
FoamFile
{
    format      ascii;
    class       surfaceScalarField;
    location    "3.275";
    object      phi;
}
// * * * * * * * * * * * * * * * * * * * * * * * * * * * * * * * * * * * * * //

dimensions      [0 3 -1 0 0 0 0];

internalField   nonuniform List<scalar> 
760
(
-1.07864e-05
1.07864e-05
-3.11592e-05
2.03728e-05
-5.29871e-05
2.1828e-05
-7.40672e-05
2.10801e-05
-9.37046e-05
1.96373e-05
-0.000111443
1.77383e-05
-0.000126846
1.54031e-05
-0.000139472
1.26265e-05
-0.000148881
9.40817e-06
-0.000154639
5.75854e-06
-0.000156343
1.70341e-06
-0.00015363
-2.71246e-06
-0.000146237
-7.39343e-06
-0.000134032
-1.22048e-05
-0.000117069
-1.69625e-05
-9.56427e-05
-2.14267e-05
-7.03759e-05
-2.52668e-05
-4.25241e-05
-2.78518e-05
-1.5433e-05
-2.7091e-05
-1.5433e-05
-2.10357e-05
3.18221e-05
-5.52041e-05
5.45412e-05
-9.11151e-05
5.7739e-05
-0.000125582
5.55473e-05
-0.000157448
5.15027e-05
-0.000185923
4.62142e-05
-0.000210296
3.97756e-05
-0.000229887
3.22172e-05
-0.000244052
2.35737e-05
-0.00025219
1.38965e-05
-0.000253769
3.28225e-06
-0.000248352
-8.1296e-06
-0.000235612
-2.01334e-05
-0.000215453
-3.23635e-05
-0.000188043
-4.43731e-05
-0.000153892
-5.55773e-05
-0.000113985
-6.51743e-05
-7.02093e-05
-7.1627e-05
-2.72524e-05
-7.0048e-05
-4.26854e-05
-2.40162e-05
5.58383e-05
-6.24568e-05
9.29817e-05
-0.000102672
9.79541e-05
-0.000141186
9.40614e-05
-0.000176751
8.70671e-05
-0.000208512
7.79756e-05
-0.000235698
6.6962e-05
-0.00025758
5.40986e-05
-0.000273465
3.94592e-05
-0.000282714
2.31455e-05
-0.000284754
5.3221e-06
-0.000278997
-1.38872e-05
-0.000265105
-3.40248e-05
-0.000242909
-5.45593e-05
-0.000212508
-7.47744e-05
-0.000174385
-9.37008e-05
-0.000129563
-0.000109996
-8.0116e-05
-0.000121074
-3.13031e-05
-0.000118861
-7.39885e-05
-2.55169e-05
8.13552e-05
-6.64643e-05
0.000133929
-0.00010927
0.00014076
-0.000150283
0.000135075
-0.000188226
0.00012501
-0.000222231
0.000111981
-0.000251513
9.62442e-05
-0.000275323
7.79087e-05
-0.000292939
5.70752e-05
-0.000303666
3.38723e-05
-0.000306857
8.51272e-06
-0.000301838
-1.89058e-05
-0.000288059
-4.78036e-05
-0.00026517
-7.74485e-05
-0.000233097
-0.000106847
-0.000192177
-0.000134621
-0.00014338
-0.000158793
-8.89477e-05
-0.000175506
-3.48026e-05
-0.000173006
-0.000108791
-2.71934e-05
0.000108549
-7.09974e-05
0.000177733
-0.000116805
0.000186567
-0.000160754
0.000179024
-0.000201533
0.000165789
-0.00023827
0.000148718
-0.000270179
0.000128152
-0.000296498
0.000104228
-0.000316478
7.70551e-05
-0.000329362
4.67561e-05
-0.000334383
1.35339e-05
-0.000330734
-2.25547e-05
-0.000317613
-6.09252e-05
-0.000294367
-0.000100694
-0.000260585
-0.000140629
-0.000216314
-0.000178892
-0.00016238
-0.000212727
-0.000101226
-0.00023666
-3.97379e-05
-0.000234494
-0.000148529
-2.93669e-05
0.000137916
-7.68263e-05
0.000225192
-0.000126472
0.000236212
-0.000174165
0.000226718
-0.000218557
0.00021018
-0.000258778
0.00018894
-0.000294053
0.000163427
-0.000323627
0.000133802
-0.000346731
0.000100159
-0.000362551
6.25763e-05
-0.000370202
2.11848e-05
-0.000368692
-2.40648e-05
-0.000356871
-7.2746e-05
-0.000333664
-0.000123902
-0.000298134
-0.000176159
-0.000249797
-0.000227228
-0.000189139
-0.000273385
-0.000118761
-0.000307039
-4.69197e-05
-0.000306335
-0.000195449
-3.21097e-05
0.000170025
-8.41382e-05
0.000277221
-0.000138549
0.000290624
-0.000190861
0.000279029
-0.000239684
0.000259003
-0.000284169
0.000233425
-0.000323577
0.000202835
-0.000357187
0.000167412
-0.000384245
0.000127217
-0.000403904
8.22349e-05
-0.000415165
3.24461e-05
-0.000416852
-2.23776e-05
-0.000407368
-8.22299e-05
-0.000385056
-0.000146215
-0.000348184
-0.000213031
-0.000295356
-0.000280056
-0.000226313
-0.000342429
-0.000143603
-0.000389749
-5.73583e-05
-0.000392579
-0.000252807
-3.54724e-05
0.000205498
-9.3065e-05
0.000334814
-0.000153221
0.00035078
-0.000211042
0.00033685
-0.000265105
0.000313066
-0.000314609
0.00028293
-0.000358892
0.000247117
-0.000397318
0.000205838
-0.000429203
0.000159103
-0.000453723
0.000106755
-0.000469811
4.85342e-05
-0.000476148
-1.60411e-05
-0.000470608
-8.77697e-05
-0.000450794
-0.000166029
-0.000413822
-0.000250002
-0.000356789
-0.00033709
-0.000277899
-0.000421318
-0.000179068
-0.000488579
-7.28693e-05
-0.000498778
-0.000325676
-3.9535e-05
0.000245033
-0.000103794
0.000399073
-0.000170733
0.000417719
-0.000234958
0.000401075
-0.000295031
0.00037314
-0.000350244
0.000338142
-0.000400068
0.000296942
-0.000444032
0.000249802
-0.000481611
0.000196681
-0.000512102
0.000137247
-0.000534462
7.08941e-05
-0.000547359
-3.14444e-06
-0.000548131
-8.69971e-05
-0.000533532
-0.000180628
-0.000499102
-0.000284432
-0.000439574
-0.000396618
-0.000350232
-0.000510661
-0.000230906
-0.000607906
-9.70189e-05
-0.000632665
-0.000422695
-4.44364e-05
0.000289469
-0.000116623
0.000471259
-0.000191457
0.000492553
-0.000262969
0.000472587
-0.000329746
0.000439916
-0.000391232
0.000399628
-0.000447119
0.000352829
-0.000497197
0.00029988
-0.00054123
0.000240714
-0.000578803
0.00017482
-0.000609109
0.000101199
-0.000630786
1.85327e-05
-0.000641232
-7.65506e-05
-0.000636133
-0.000185728
-0.000609141
-0.000311424
-0.000551547
-0.000454212
-0.000453503
-0.000608704
-0.00030959
-0.000751819
-0.000137355
-0.0008049
-0.00056005
-5.04203e-05
0.000339889
-0.000132034
0.000552873
-0.000215965
0.000576484
-0.00029561
0.000552232
-0.000369649
0.000513955
-0.000437772
0.000467751
-0.000499995
0.000415052
-0.000556495
0.00035638
-0.000607484
0.000291703
-0.000653049
0.000220385
-0.000692919
0.000141069
-0.000725996
5.16101e-05
-0.000750416
-5.21308e-05
-0.000761111
-0.000175032
-0.000749913
-0.000322622
-0.000703646
-0.000500479
-0.000604208
-0.000708142
-0.00043534
-0.000920687
-0.000211118
-0.00102912
-0.000771168
-5.79254e-05
0.000397815
-0.000150824
0.000645772
-0.000245151
0.000670811
-0.00033368
0.000640761
-0.000415326
0.0005956
-0.000490148
0.000542574
-0.000558608
0.000483512
-0.000621403
0.000419175
-0.000679362
0.000349661
-0.000733323
0.000274346
-0.000783933
0.00019168
-0.000831187
9.88633e-05
-0.000874372
-8.94577e-06
-0.000909374
-0.00014003
-0.00092724
-0.000304756
-0.000910332
-0.000517387
-0.000829026
-0.000789448
-0.000647995
-0.00110172
-0.000361079
-0.00131604
-0.00113225
-6.77885e-05
0.000465603
-0.000174325
0.000752308
-0.000280391
0.000776877
-0.000378368
0.000738738
-0.000467639
0.000684871
-0.000548801
0.000623735
-0.000622888
0.000557599
-0.000691237
0.000487524
-0.00075543
0.000413854
-0.000817285
0.000336201
-0.000878813
0.000253208
-0.000941931
0.000161982
-0.00100858
5.77008e-05
-0.00107805
-7.05542e-05
-0.00114388
-0.000238934
-0.00118784
-0.000473424
-0.00116809
-0.000809195
-0.00101691
-0.0012529
-0.000666097
-0.00166685
-0.00179834
-8.1673e-05
0.000547276
-0.000205004
0.000875639
-0.000323876
0.00089575
-0.00043139
0.000846252
-0.000527818
0.000781299
-0.000614419
0.000710337
-0.000692893
0.000636073
-0.000765287
0.000559918
-0.000833994
0.000482562
-0.000901956
0.000404163
-0.000972998
0.00032425
-0.00105201
0.000240997
-0.00114414
0.000149826
-0.00125525
4.05625e-05
-0.00139141
-0.000102774
-0.00154337
-0.000321465
-0.00166365
-0.000688921
-0.00162369
-0.00129286
-0.00121226
-0.00207827
-0.00301061
-9.97438e-05
0.00064702
-0.000244174
0.00102007
-0.000377933
0.00102951
-0.000495467
0.000963786
-0.000598041
0.000883873
-0.000688239
0.000800534
-0.000768919
0.000716753
-0.000842841
0.00063384
-0.000912958
0.000552679
-0.00098284
0.000474044
-0.00105752
0.00039893
-0.00114477
0.000328243
-0.00125741
0.000262466
-0.0014144
0.000197554
-0.00163682
0.000119648
-0.00194014
-1.81436e-05
-0.00228794
-0.000341119
-0.00240409
-0.00117672
-0.00183827
-0.00264409
-0.00484888
-0.000156651
0.000803671
-0.000315767
0.00117919
-0.00045248
0.00116622
-0.000570311
0.00108162
-0.00067462
0.000988182
-0.000766841
0.000892755
-0.000848605
0.000798517
-0.000921905
0.00070714
-0.00098981
0.000620585
-0.00105634
0.000540575
-0.00112808
0.00047067
-0.00121445
0.000414611
-0.00133262
0.00038064
-0.00151047
0.000375398
-0.00179012
0.000399298
-0.00219127
0.000383014
-0.00267433
0.000141942
-0.00283232
-0.00101873
-0.00199534
-0.00348106
-0.00684423
-0.000120344
0.000924015
-0.000349154
0.00140799
-0.00053147
0.00134854
-0.000674461
0.00122461
-0.000785069
0.00109879
-0.000870602
0.000978287
-0.000938279
0.000866194
-0.000993649
0.00076251
-0.00104129
0.000668225
-0.00108376
0.000583042
-0.00112599
0.000512907
-0.00117406
0.000462681
-0.00124332
0.000449894
-0.00135914
0.000491218
-0.00157259
0.00061275
-0.00188435
0.000694775
-0.00231771
0.000575301
-0.0023943
-0.000942142
-0.00148457
-0.00439079
-0.0083288
-0.000401151
0.00132517
-0.00054404
0.00155088
-0.000667564
0.00147206
-0.000775532
0.00133258
-0.000839118
0.00116238
-0.00087028
0.00100945
-0.000880102
0.000876016
-0.000875076
0.000757483
-0.000862516
0.000655666
-0.000843299
0.000563824
-0.000824442
0.000494051
-0.000802633
0.000440872
-0.000783798
0.000431059
-0.000755368
0.000462788
-0.000721619
0.000579002
-0.00066123
0.000634386
-0.000530212
0.000444283
-0.000533711
-0.000938643
-0.000183741
-0.00474076
-0.00851254
-0.00128686
0.00261203
-0.00121141
0.00147543
-0.000968229
0.00122888
-0.000634424
0.000998772
-0.000289365
0.000817318
4.16379e-05
0.000678446
0.000345083
0.000572571
0.000619311
0.000483256
0.000862464
0.000412513
0.00107789
0.000348402
0.00127431
0.00029763
0.00145171
0.000263469
0.00165137
0.000231395
0.00187442
0.000239742
0.0022344
0.000219022
0.00268856
0.000180224
0.00320022
-6.73749e-05
0.00328647
-0.00102489
0.00211265
-0.00356694
-0.0063999
0.00261203
0.00408746
0.00531634
0.00631511
0.00713243
0.00781088
0.00838345
0.0088667
0.00927922
0.00962762
0.00992525
0.0101887
0.0104201
0.0106599
0.0108789
0.0110591
0.0109917
0.00996684
0.0063999
)
;

boundaryField
{
    movingWall
    {
        type            calculated;
        value           uniform 0;
    }
    fixedWalls
    {
        type            calculated;
        value           uniform 0;
    }
    frontAndBack
    {
        type            empty;
        value           nonuniform List<scalar> 0();
    }
}


// ************************************************************************* //
