/*--------------------------------*- C++ -*----------------------------------*\
  =========                 |
  \\      /  F ield         | OpenFOAM: The Open Source CFD Toolbox
   \\    /   O peration     | Website:  https://openfoam.org
    \\  /    A nd           | Version:  10
     \\/     M anipulation  |
\*---------------------------------------------------------------------------*/
FoamFile
{
    format      ascii;
    class       volScalarField;
    location    "3";
    object      p;
}
// * * * * * * * * * * * * * * * * * * * * * * * * * * * * * * * * * * * * * //

dimensions      [0 2 -2 0 0 0 0];

internalField   nonuniform List<scalar> 
496
(
22.9457
23.159
19.3186
12.7942
23.7307
24.1182
19.4652
13.0887
28.7516
26.1035
17.2354
6.61845
36.9452
33.4035
29.6047
12.8163
4.38629
-4.7463
4.18329
-4.79038
-9.09463
-14.1007
-39.8056
-64.9775
-12.1292
-17.0271
-19.355
-19.7975
-12.4777
-18.5786
-22.023
-22.9442
-7.61388
-8.58773
-13.5288
-19.2122
-34.9919
-20.6668
-13.2769
-14.3251
-19.732
-19.8519
-19.7439
-19.7387
-19.3859
-18.0158
-15.2924
-12.5952
-10.8517
-10.0485
-9.71735
-8.97787
-8.16131
-7.58628
-8.15881
-9.17123
-10.0593
-10.0744
-9.45007
-8.85335
-8.4901
-8.54562
-8.27203
-8.00812
-7.4752
-6.89893
-6.23497
-5.45369
-4.86615
-3.87792
-3.04046
-1.79387
-0.674617
0.246179
0.944146
0.981982
0.824649
0.437522
0.332856
0.155183
-22.7095
-21.7208
-20.7527
-20.6577
-19.8969
-17.8934
-15.0455
-12.4738
-10.5297
-9.46868
-8.8189
-8.12387
-7.62702
-7.60258
-8.37845
-9.30104
-10.0506
-10.1184
-9.58696
-9.18928
-8.82897
-8.75549
-8.3848
-8.1121
-7.5639
-6.97168
-6.27816
-5.51095
-4.93993
-4.10586
-3.20539
-1.7586
-0.386418
0.517551
1.12229
1.17338
1.01424
0.585333
0.285484
0.183736
-23.2753
-24.1079
-23.4587
-23.1429
-21.6713
-18.7629
-15.6801
-12.8966
-10.5339
-9.30134
-8.20261
-7.12975
-6.72278
-7.74958
-8.94989
-9.79885
-10.315
-10.2411
-10.0602
-9.45001
-9.10978
-8.67768
-8.47449
-8.44776
-8.25545
-7.95776
-6.97943
-6.13313
-4.90768
-4.04072
-2.6258
-1.42293
-0.293964
0.835329
0.931939
0.866513
0.115767
-0.465371
-0.633887
-0.563847
-19.0173
-21.6326
-21.3885
-22.8242
-23.0492
-20.2464
-17.294
-13.1522
-9.54499
-6.86921
-4.39788
-4.12644
-5.43378
-7.57118
-8.98666
-10.2649
-11.0305
-11.0499
-11.1677
-10.0398
-9.64872
-8.65937
-8.64373
-8.52365
-8.57305
-8.7485
-7.78409
-7.20779
-5.98809
-4.90362
-2.38379
0.19291
2.58915
3.8057
3.49649
2.4745
0.573892
-0.203066
-0.745111
-1.14059
41.8465
43.3083
57.5191
69.3926
42.5914
44.7346
58.5628
70.9176
-31.925
-37.8355
-34.7236
-30.7433
-28.0978
-43.2629
-34.6861
-21.9937
-23.1061
-22.6637
-24.1599
-22.866
-21.0868
-19.8881
-18.0775
-13.7678
-10.5473
-9.29234
-7.46978
-6.92896
-6.82947
-7.81283
-8.87123
-9.64954
-10.1292
-10.4644
-10.1617
-9.58131
-9.18575
-8.57695
-8.61084
-8.65257
-8.70981
-8.73606
-7.73841
-6.92144
-5.73051
-4.02986
-2.84734
-1.77808
-0.534433
0.0312447
0.137002
-0.147786
-0.578043
-0.29485
-0.822828
-1.02036
-27.2789
-28.5516
-22.9833
-20.2917
-23.378
-18.9417
-15.172
-13.4326
-12.5628
-12.2955
-10.283
-8.32473
-7.89909
-8.73223
-9.55598
-9.84037
-9.80021
-9.6792
-9.4268
-9.14911
-8.93391
-8.49604
-7.83981
-7.21603
-6.52087
-5.64423
-5.24182
-4.68538
-4.01823
-3.12091
-3.16731
-3.26673
-3.41682
-3.36705
-3.65312
-2.87562
-1.65763
-0.943745
-0.0847709
0.319443
38.5592
36.0339
32.6963
18.265
31.2642
29.1054
21.3259
11.2381
26.3262
26.67
22.4262
15.9838
25.5275
25.4832
21.9597
15.736
-30.6514
-54.4335
-3.46402
-9.62261
7.25466
-2.08176
7.46084
-1.89044
-26.0389
-16.9569
-24.7421
-24.2333
-5.77717
-9.16335
-16.0549
-20.1925
-10.3272
-16.7755
-20.9665
-22.862
-9.75624
-15.3117
-18.2644
-19.4291
-18.1488
-19.936
-20.8917
-18.5887
-16.4866
-16.604
-15.9983
-13.8994
-12.1576
-11.496
-11.1916
-10.1972
-9.91189
-10.0275
-10.7764
-10.6264
-10.1904
-9.24621
-8.7498
-8.40847
-7.68263
-7.41474
-6.32811
-5.60714
-4.2406
-3.55372
-2.65732
-2.44805
-2.90414
-2.55778
-3.57709
-4.10733
-4.85831
-5.05641
-4.38546
-4.07368
-2.0612
-0.0878747
2.07165
2.40958
-21.4051
-20.7901
-20.1343
-19.9112
-18.7899
-17.2411
-15.9367
-14.4528
-12.7275
-11.5731
-11.3872
-11.167
-11.0065
-10.5645
-10.0491
-9.66137
-9.51352
-9.563
-8.89582
-8.46974
-7.83036
-7.71189
-7.22717
-6.62928
-5.54048
-4.40916
-3.61888
-2.84759
-3.03768
-3.03639
-3.46719
-3.79363
-4.04094
-4.26371
-3.57867
-2.903
-1.86785
-0.990555
-0.642527
-0.0275257
-22.8681
-21.6672
-20.2271
-18.9743
-17.8389
-16.4323
-15.1669
-13.8817
-12.4665
-11.422
-11.3488
-11.5093
-11.1533
-10.3976
-9.58766
-9.32271
-9.41518
-9.39711
-9.01141
-8.27585
-7.54019
-6.81423
-6.43022
-5.81708
-5.18479
-4.19721
-3.45885
-3.10964
-2.91363
-3.06875
-2.90815
-2.90312
-2.81371
-2.90892
-2.88783
-2.72922
-2.59428
-2.07493
-1.13803
-0.277433
-19.7273
-19.5969
-19.0105
-18.1092
-17.3217
-16.4153
-15.3321
-14.0415
-12.7463
-11.67
-11.3835
-11.6636
-11.3337
-10.4854
-9.54039
-9.39372
-9.58879
-9.67685
-9.12185
-8.14338
-7.48798
-6.94183
-6.6034
-6.06049
-5.4052
-4.62858
-3.82697
-3.45739
-3.20195
-3.10021
-2.77633
-2.75997
-2.84239
-2.9458
-2.99426
-2.71152
-2.43301
-1.78446
-1.09529
-0.354721
)
;

boundaryField
{
    inlet
    {
        type            zeroGradient;
    }
    outlet
    {
        type            fixedValue;
        value           uniform 0;
    }
    obstacle
    {
        type            zeroGradient;
    }
    upperWall
    {
        type            zeroGradient;
    }
    lowerWall
    {
        type            zeroGradient;
    }
    frontAndBack
    {
        type            empty;
    }
}


// ************************************************************************* //
