/*--------------------------------*- C++ -*----------------------------------*\
  =========                 |
  \\      /  F ield         | OpenFOAM: The Open Source CFD Toolbox
   \\    /   O peration     | Website:  https://openfoam.org
    \\  /    A nd           | Version:  10
     \\/     M anipulation  |
\*---------------------------------------------------------------------------*/
FoamFile
{
    format      ascii;
    class       surfaceScalarField;
    location    "3";
    object      phi;
}
// * * * * * * * * * * * * * * * * * * * * * * * * * * * * * * * * * * * * * //

dimensions      [0 3 -1 0 0 0 0];

internalField   nonuniform List<scalar> 
928
(
0.0961255
0.00387449
0.10394
-0.00781452
0.106923
-0.00298262
-0.0100768
0.116999
0.0948752
0.00899924
0.106419
-0.0193584
0.103386
5.04341e-05
-0.0205227
0.113832
0.0961196
0.0128796
0.109306
-0.0325449
0.104805
0.00455188
-0.0418189
0.126101
0.102749
0.0101302
0.0922804
-0.0220758
0.0984369
-0.00160468
0.147235
-0.0906172
0.111982
0.00501698
-0.0167933
0.128776
0.11027
0.00857853
-0.042218
0.135695
0.128264
0.00641558
-0.0483302
0.134376
0.153651
0.105321
0.128229
0.000547022
0.128517
-0.000288247
0.129239
-0.000721731
-0.00163708
0.130876
0.136674
-0.000431476
0.136179
0.000206568
0.136311
-0.000853581
-0.00279966
0.137473
0.136633
-0.00268842
0.139323
-0.0024834
0.142267
-0.00379785
-0.000437194
0.139905
0.112819
-0.010187
0.0942737
0.0160621
0.0947949
-0.00431903
0.095289
-0.000931326
0.131559
-0.000682861
0.13164
-8.11083e-05
0.131041
0.000598788
0.129422
0.00161907
0.127504
0.0019183
0.124968
0.00253553
0.123306
0.00166219
0.12062
0.00268572
0.11929
0.00133048
0.11749
0.0017992
0.117481
9.27894e-06
0.117531
-4.99003e-05
0.118928
-0.00139684
0.120298
-0.00137049
0.120979
-0.000680546
0.121698
-0.000719396
0.121141
0.000557051
0.121274
-0.000132307
0.119894
0.00137982
0.119275
0.000619253
0.117353
0.00192199
0.116076
0.00127675
0.114571
0.00150461
0.112759
0.00181185
0.111198
0.00156129
0.108151
0.0030471
0.105949
0.00220239
0.102157
0.003792
0.0999141
0.00224245
0.0972643
0.00264977
0.0959442
0.00132017
0.0963687
-0.000424525
0.0972212
-0.000852509
0.100416
-0.00319479
0.102619
-0.00220272
0.105841
-0.00322207
0.107162
-0.00132169
0.107737
-0.00057492
0.106242
0.00149495
0.00326131
0.137761
-0.000970476
0.138187
-0.000506966
0.138104
0.000681462
0.137518
0.00220556
0.136694
0.00274201
0.135038
0.00419152
0.133292
0.00340844
0.130461
0.00551613
0.129208
0.00258382
0.127217
0.0037898
0.127333
-0.000106033
0.128302
-0.00101922
0.129955
-0.00305008
0.131726
-0.00314145
0.132414
-0.00136884
0.133899
-0.00220351
0.13389
0.000565618
0.134389
-0.00063143
0.133617
0.00215208
0.13309
0.00114573
0.132046
0.00296664
0.130859
0.00246358
0.129999
0.00236478
0.128075
0.00373519
0.126775
0.00286217
0.124079
0.00574214
0.122279
0.00400287
0.119369
0.00670246
0.116936
0.00467488
0.114314
0.00527234
0.111883
0.00375059
0.111755
-0.000296831
0.111689
-0.000785889
0.114372
-0.0058776
0.11618
-0.0040114
0.119341
-0.00638275
0.121683
-0.00366401
0.123135
-0.00202712
0.124397
0.000233672
0.00419313
0.137721
0.00121358
0.137664
-0.000450347
0.138968
-0.00062284
0.139516
0.00165785
0.139584
0.00267407
0.139619
0.00415653
0.138072
0.00495554
0.136906
0.00668183
0.134847
0.00464299
0.134251
0.00438578
0.132977
0.00116801
0.132546
-0.000588613
0.132598
-0.00310225
0.13263
-0.00317281
0.133808
-0.0025465
0.134673
-0.00306924
0.136039
-0.00079981
0.137058
-0.00165062
0.137066
0.00214402
0.137721
0.000490323
0.137901
0.00278721
0.138469
0.00189484
0.138602
0.00223224
0.138459
0.00387773
0.137793
0.00352867
0.136058
0.00747701
0.13307
0.00699077
0.129439
0.0103334
0.124545
0.00956934
0.120677
0.00914024
0.117925
0.00650272
0.115444
0.00218413
0.113585
0.00107246
0.11353
-0.00582213
0.113116
-0.00359787
0.114984
-0.00825071
0.116792
-0.00547198
0.119215
-0.00444937
0.123252
-0.00380373
0.00321877
0.0947437
0.00175888
0.0882663
0.00602707
0.0966944
-0.00905093
0.0946444
0.0037078
0.0907802
0.00653825
0.093754
0.00118278
0.0912699
0.00743957
0.0861701
0.0117817
0.0820533
0.0087598
0.0782254
0.0082137
0.0754032
0.00399019
0.0747424
7.21875e-05
0.074366
-0.00272583
0.0765486
-0.00535541
0.0797687
-0.00576665
0.0833202
-0.00662074
0.0877774
-0.00525698
0.0905062
-0.00437943
0.0947832
-0.00213297
0.0978048
-0.00253125
0.101951
-0.00135888
0.104913
-0.00106752
0.108509
-0.00136362
0.112691
-0.000304256
0.116444
-0.000224279
0.120513
0.00340838
0.123818
0.00368515
0.127567
0.00658426
0.12848
0.00865645
0.128571
0.00904996
0.124524
0.0105491
0.115826
0.0108825
0.107028
0.00987064
0.095657
0.00554846
0.0902016
0.00185755
0.0856664
-0.00371545
0.0867658
-0.00657144
0.0908072
-0.00849069
0.0962849
-0.00928148
-0.00216612
0.111012
-0.000882063
0.0891903
-0.000253871
0.0899331
-0.00234747
-0.000684119
0.108622
-0.00950429
0.0880493
0.020319
0.0850678
0.000634071
0.0843837
-0.00977735
-0.000409621
-0.033874
0.0401588
-0.0193919
-0.0188012
-0.0358351
0.0155119
-0.0116804
0.0112707
0.0145451
0.0139333
0.00840234
-0.0126585
-0.0149917
-0.012441
-0.0051908
0.0224616
-0.00906369
0.00989996
0.0060313
-0.0241459
0.00539598
0.00434312
-0.00502183
0.0169561
-0.00248177
-0.00135727
0.00418361
0.000774196
0.00805476
0.0079105
0.00778096
0.00903361
0.0105407
0.00545398
0.0145272
3.67354e-06
0.0178237
-0.00322437
0.0190459
-0.00394802
0.018143
-0.00445244
0.0181968
-0.00582047
0.0189758
-0.00739973
0.0208648
-0.00714596
0.0231399
-0.00665452
0.0257359
-0.00472899
0.0281949
-0.00499028
0.0310482
-0.00421217
0.0349605
-0.00497987
0.0397565
-0.00615959
0.0441426
-0.00469036
0.048202
-0.00428362
0.0524582
-0.000847855
0.0548466
0.00129678
0.0558802
0.00555061
0.0555386
0.00899805
0.0526596
0.011929
0.0496287
0.01358
0.046865
0.0136463
0.0459147
0.0108209
0.0462646
0.00519856
0.047235
0.000887155
0.0507202
-0.00720064
0.0537252
-0.00957638
0.0577619
-0.0125274
0.0630721
-0.0145917
-0.00491971
-0.00637844
0.0138483
0.00598588
-0.00246436
-0.00850037
-0.00965967
-0.00862911
0.00447186
0.00786153
0.000465417
0.0104043
-0.00390007
0.0123142
-0.00113566
0.0196216
0.000603071
0.027038
0.0016172
0.0337443
-0.00125231
0.0362034
-0.00245545
0.0350512
-0.00207209
0.03282
-0.00171686
0.0308867
-0.00251909
0.0282076
-0.00314138
0.0251153
-0.00430745
0.0224053
-0.00443601
0.0208871
-0.00513624
0.0205697
-0.00441164
0.0201807
-0.00460127
0.0206739
-0.00470533
0.0214972
-0.00580324
0.0220115
-0.00667383
0.0234161
-0.00609501
0.0250507
-0.00591815
0.027779
-0.0035762
0.0299954
-0.000919598
0.0331602
0.00238578
0.0367171
0.00544115
0.0403631
0.00828301
0.0443441
0.00959897
0.0503796
0.00761074
0.0550765
0.00612404
0.0589558
0.0013192
0.0617844
-0.00194143
0.0609825
-0.00639877
0.059713
-0.0083068
0.0572418
-0.0100562
0.0542011
-0.011551
-0.0041034
0.102081
-0.011585
0.0935137
0.028886
0.0971433
-0.00299552
0.0377792
0.143748
0.0964206
-0.00800559
0.107892
0.0174147
0.104097
0.000799479
0.0187942
0.123082
0.0954003
-0.0034059
0.105999
0.00681576
0.103435
0.003364
0.00943192
0.112797
0.0965941
0.10341
0.106774
0.116206
0.149444
-0.0056958
0.0460469
0.103397
0.125262
-0.00787632
0.0418161
0.129493
0.109786
-0.00486567
0.0168119
0.134791
0.11134
0.128152
0.107402
0.00726505
0.11308
0.00825607
0.101927
-0.0015061
-0.00514406
0.0946304
0.135528
0.00122998
0.141735
0.00204893
0.137212
0.0030173
-0.000267941
0.132336
0.135628
0.000392847
0.136671
0.00100548
0.138264
0.00142482
0.000756775
0.137239
0.128545
0.12955
0.130975
0.131732
0.106263
0.00221581
0.102467
0.00133188
0.0949373
-0.00213035
0.0998007
-0.000391537
0.100269
-2.95444e-06
0.0974804
-0.0011114
0.0997883
-0.00344348
0.103021
-0.00263013
0.1073
-0.0026609
0.110093
-0.00404564
0.114271
-0.0066336
0.118361
-0.00616165
0.122119
-0.00547568
0.124125
-0.00452514
0.125316
-0.00433237
0.124786
-0.00377667
0.121868
-0.00151872
0.116988
-0.000256246
0.110316
0.00226042
0.103979
0.00173565
0.0966938
0.0025803
0.0902557
0.000634839
0.0834935
8.84165e-05
0.0778537
-0.000455249
0.0731196
-0.00118402
0.0695712
-2.78364e-05
0.0694787
-0.000827091
0.0692538
0.00261066
0.0733039
0.00139112
0.0781051
0.00348182
0.0852252
0.00247879
0.0929533
-0.000117337
0.101056
-0.00197887
0.109649
-0.00727355
0.115207
-0.00749985
0.119306
-0.0104974
0.118763
-0.00776336
0.113393
-0.00468684
0.104117
-0.00227455
0.00215634
0.134898
-0.000346737
0.136118
0.000112498
0.133883
0.000104685
0.134728
-0.0012364
0.136109
-0.00138416
0.135793
-0.000795946
0.134423
-0.00207324
0.133888
-0.00209502
0.134403
-0.00317568
0.132814
-0.00245684
0.130763
-0.00458251
0.128223
-0.00362183
0.126505
-0.00375774
0.124774
-0.00279379
0.122442
-0.00200078
0.121043
-0.00237709
0.119654
-0.000130332
0.119768
-0.000369788
0.119485
0.00254361
0.119945
0.00127566
0.120443
0.00208206
0.120316
0.000761523
0.120487
-8.28464e-05
0.119864
0.000167963
0.12019
-0.00150998
0.119257
0.000905649
0.119184
-0.00075394
0.119882
0.00191207
0.120902
0.000370855
0.123476
0.000908565
0.126741
-0.000786187
0.130352
-0.00372829
0.132705
-0.0043318
0.133594
-0.008163
0.132491
-0.00639642
0.130283
-0.00829019
0.127539
-0.0050194
0.126076
-0.00322298
0.123596
0.000204546
0.00424066
0.136626
0.000265906
0.137142
-0.000402857
0.13735
-0.00010422
0.136742
-0.000627915
0.136269
-0.000910985
0.136189
-0.000716209
0.135079
-0.000963346
0.133955
-0.000970355
0.132619
-0.0018399
0.131597
-0.00143485
0.129445
-0.0024311
0.127644
-0.00182047
0.125712
-0.00182568
0.12444
-0.00152219
0.123564
-0.00112478
0.122593
-0.00140583
0.122242
0.00022107
0.122307
-0.00043506
0.123456
0.00139431
0.124451
0.000280487
0.125645
0.000888646
0.126265
0.000141781
0.126467
-0.000285763
0.126802
-0.000166499
0.126294
-0.00100155
0.127098
0.000101652
0.12695
-0.000605965
0.128382
0.000479866
0.128979
-0.000226065
0.130116
-0.00022873
0.130487
-0.00115718
0.129037
-0.00227817
0.127643
-0.00293838
0.124098
-0.004618
0.121525
-0.00382264
0.117732
-0.00449779
0.114582
-0.0018691
0.112575
-0.00121617
0.111811
0.000968486
0.00255988
0.131998
0.131595
0.131491
0.130863
0.129952
0.129236
0.128272
0.127302
0.125462
0.124027
0.121596
0.119776
0.11795
0.116428
0.115303
0.113897
0.114118
0.113683
0.115077
0.115358
0.116247
0.116388
0.116103
0.115936
0.114935
0.115036
0.11443
0.11491
0.114684
0.114455
0.113298
0.11102
0.108082
0.103464
0.0996409
0.0951431
0.0932741
0.0920579
0.0930264
)
;

boundaryField
{
    inlet
    {
        type            calculated;
        value           nonuniform List<scalar> 10(-0.1 -0.1 -0.1 -0.1 -0.1 -0.1 -0.1 -0.1 -0.1 -0.1);
    }
    outlet
    {
        type            calculated;
        value           nonuniform List<scalar> 10(0.102981 0.123465 0.124226 0.10167 0.0658257 0.0533847 0.097857 0.121512 0.113492 0.0955862);
    }
    obstacle
    {
        type            calculated;
        value           uniform 0;
    }
    upperWall
    {
        type            calculated;
        value           uniform 0;
    }
    lowerWall
    {
        type            calculated;
        value           uniform 0;
    }
    frontAndBack
    {
        type            empty;
        value           nonuniform List<scalar> 0();
    }
}


// ************************************************************************* //
