/*--------------------------------*- C++ -*----------------------------------*\
  =========                 |
  \\      /  F ield         | OpenFOAM: The Open Source CFD Toolbox
   \\    /   O peration     | Website:  https://openfoam.org
    \\  /    A nd           | Version:  10
     \\/     M anipulation  |
\*---------------------------------------------------------------------------*/
FoamFile
{
    format      ascii;
    class       volVectorField;
    location    "3";
    object      U;
}
// * * * * * * * * * * * * * * * * * * * * * * * * * * * * * * * * * * * * * //

dimensions      [0 1 -1 0 0 0 0];

internalField   nonuniform List<vector> 
496
(
(9.93893 0.0964576 0)
(9.94558 -0.216444 0)
(10.2421 -0.103703 0)
(10.9031 -0.22655 0)
(9.99289 0.50523 0)
(9.82519 -1.35822 0)
(10.3146 -0.300312 0)
(10.9214 -1.19515 0)
(10.8242 1.38356 0)
(9.10632 -3.12406 0)
(11.3746 -0.112306 0)
(10.8465 -4.31694 0)
(11.6144 1.58154 0)
(8.4893 -2.76906 0)
(12.3409 0.853307 0)
(10.6787 -6.8709 0)
(11.5313 -0.243147 1.22176e-18)
(12.2559 -0.201538 1.35161e-18)
(11.7348 -0.500261 -2.62483e-18)
(12.605 0.139248 4.00682e-18)
(13.2394 -2.15685 1.40219e-18)
(13.3978 -0.527549 -5.35963e-18)
(12.7282 -5.40059 -4.54148e-17)
(16.2411 -4.64461 7.36846e-17)
(12.8076 -0.176784 0)
(13.1345 -0.176644 0)
(13.3283 -0.0344836 0)
(13.2539 0.02939 0)
(13.2153 0.148155 0)
(13.6463 -0.207007 0)
(13.9601 -0.454174 0)
(13.9858 -0.642985 0)
(13.0108 0.695314 0)
(12.9643 1.08528 0)
(13.3928 0.766638 0)
(13.6316 0.36032 0)
(9.83473 -2.79019 0)
(10.7738 -2.04739 0)
(8.6514 -1.00743 0)
(8.75429 0.115262 0)
(13.285 0.201838 0)
(13.1569 0.278924 0)
(13.2068 0.3249 0)
(13.0133 0.359554 0)
(13.0589 0.384511 0)
(12.7057 0.420256 0)
(12.508 0.341073 0)
(12.0228 0.402965 0)
(11.9319 0.276848 0)
(11.7485 0.311014 0)
(11.8138 0.138811 0)
(11.7936 0.153038 0)
(11.7819 0.0385901 0)
(11.9117 0.0737645 0)
(11.9339 0.0929156 0)
(12.2395 0.100068 0)
(12.166 0.182933 0)
(12.301 0.128024 0)
(12.0096 0.264412 0)
(11.959 0.20378 0)
(11.7642 0.368709 0)
(11.6531 0.345121 0)
(11.6025 0.450237 0)
(11.3168 0.473411 0)
(11.3222 0.49732 0)
(10.8835 0.593804 0)
(10.7962 0.554123 0)
(10.3284 0.710647 0)
(10.1184 0.634356 0)
(9.8621 0.696268 0)
(9.5752 0.571687 0)
(9.68772 0.421392 0)
(9.53698 0.349244 0)
(9.95449 0.135992 0)
(10.0747 0.196291 0)
(10.4339 0.0783348 0)
(10.7586 0.181564 0)
(10.6529 0.200041 0)
(10.943 0.296663 0)
(10.2955 0.42155 0)
(14.0532 -0.472527 0)
(13.9267 -0.328731 0)
(13.9304 -0.173384 0)
(13.8708 -0.0236843 0)
(13.8708 0.0851399 0)
(13.6117 0.197637 0)
(13.3839 0.0880491 0)
(13.0499 0.226883 0)
(12.8493 0.0488647 0)
(12.7596 0.128565 0)
(12.7374 -0.092924 0)
(12.8322 -0.136858 0)
(12.8504 -0.303628 0)
(13.0659 -0.32928 0)
(13.1466 -0.21352 0)
(13.4035 -0.22729 0)
(13.428 -0.0554787 0)
(13.5055 -0.157577 0)
(13.3887 -0.00782368 0)
(13.3106 -0.118613 0)
(13.2449 -0.0200017 0)
(13.1267 -0.107384 0)
(13.0776 -0.109072 0)
(12.9018 -0.0645154 0)
(12.7783 -0.115604 0)
(12.5597 0.0730342 0)
(12.2942 -0.105968 0)
(12.1224 0.0328021 0)
(11.75 -0.227613 0)
(11.6342 -0.22851 0)
(11.2269 -0.336037 0)
(11.1945 -0.486575 0)
(11.1333 -0.455085 0)
(11.231 -0.702423 0)
(11.5904 -0.570451 0)
(11.6506 -0.650053 0)
(12.1796 -0.385909 0)
(12.1731 -0.281505 0)
(12.5239 0.0859276 0)
(12.3414 0.260824 0)
(14.0929 0.175638 0)
(14.1681 0.0933579 0)
(14.0192 0.136028 0)
(14.2985 0.241991 0)
(13.9766 0.315769 0)
(14.1364 0.550315 0)
(13.5731 0.494939 0)
(13.855 0.718215 0)
(13.2968 0.353085 0)
(13.6427 0.439655 0)
(13.2616 -0.0364016 0)
(13.2986 -0.145334 0)
(13.1848 -0.312733 0)
(13.1465 -0.364407 0)
(13.5059 -0.12319 0)
(13.2685 -0.229472 0)
(13.785 0.215497 0)
(13.4335 0.0555441 0)
(13.9037 0.503326 0)
(13.6032 0.386887 0)
(13.8911 0.607444 0)
(13.7624 0.587543 0)
(13.8333 0.538514 0)
(13.9187 0.765674 0)
(13.7514 0.622773 0)
(13.8664 1.08447 0)
(13.3482 0.956722 0)
(13.2937 1.39372 0)
(12.5642 1.29643 0)
(12.3263 1.34639 0)
(11.9113 1.09801 0)
(11.5388 0.33845 0)
(11.6294 0.13417 0)
(11.0767 -0.754252 0)
(11.5688 -0.462174 0)
(11.1078 -0.863469 0)
(11.739 -0.503764 0)
(11.6699 -0.237202 0)
(12.1791 -0.122629 0)
(12.4427 0.562926 0)
(9.03486 0.395035 0)
(9.53793 0.0249597 0)
(9.46844 -0.0211059 0)
(8.95772 0.257512 0)
(9.75618 0.019564 0)
(9.44623 0.188957 0)
(8.98603 0.564759 0)
(9.18062 0.842681 0)
(8.00587 0.832739 0)
(8.59189 0.806095 0)
(6.93862 0.520628 0)
(7.9035 0.23824 0)
(6.94832 -0.149311 0)
(7.74725 -0.301589 0)
(7.88621 -0.438151 0)
(7.9074 -0.502142 0)
(8.95773 -0.435859 0)
(8.37995 -0.493372 0)
(9.85565 -0.263828 0)
(9.22997 -0.35524 0)
(10.2936 -0.177704 0)
(10.2058 -0.237818 0)
(10.5712 -0.18115 0)
(11.2937 -0.0633889 0)
(11.094 -0.0430548 0)
(12.3071 0.215265 0)
(11.8087 0.250944 0)
(12.9422 0.503511 0)
(12.5936 0.500981 0)
(13.1369 0.503819 0)
(12.7169 0.350924 0)
(11.9764 0.219566 0)
(11.4417 0.299378 0)
(9.66965 0.150654 0)
(9.5682 0.1561 0)
(8.36069 -0.375172 0)
(8.66758 -0.42945 0)
(8.97928 -0.56457 0)
(9.01914 -0.652008 0)
(10.2199 0.00557596 0)
(12.5895 0.485245 -9.59285e-18)
(7.74349 -0.763023 -1.65717e-17)
(11.8774 -0.314336 2.86976e-17)
(4.8064 -4.68461 -7.87189e-17)
(12.1293 -0.641303 9.83731e-18)
(7.93071 0.753054 1.69662e-17)
(11.3789 -0.138451 -2.94013e-17)
(4.58373 4.47816 8.0461e-17)
(-2.64506 1.86868 0)
(1.51062 4.02116 0)
(-8.32127 -0.888603 0)
(3.63039 -1.4141 0)
(-2.62101 -1.82402 3.1935e-17)
(-1.73552 2.88497 0)
(5.55438 -2.26196 0)
(-2.29724 -3.91443 0)
(0.329624 -0.313807 0)
(-1.78933 1.32434 0)
(-0.226041 -2.37533 0)
(1.73011 0.293976 0)
(-0.742339 1.79059 0)
(-0.184708 0.0412476 0)
(-0.294098 0.572936 0)
(1.36536 1.22919 0)
(0.226576 0.790659 0)
(1.02687 0.486545 0)
(1.36739 -0.00819943 0)
(1.51486 -0.403399 0)
(1.87191 -0.497905 0)
(1.77063 -0.587089 0)
(1.85248 -0.513736 0)
(1.86942 -0.569093 0)
(1.893 -0.40834 0)
(2.21601 -0.243829 0)
(2.63731 -0.0339358 0)
(2.4704 -0.0647862 0)
(3.12947 -0.0235577 0)
(3.10945 -0.00598227 0)
(3.78794 -0.13738 0)
(4.28973 -0.0377638 0)
(4.4269 -0.0800415 0)
(5.27339 0.251678 0)
(5.27455 0.323146 0)
(5.5707 0.666621 0)
(5.81556 1.05681 0)
(5.25095 1.16363 0)
(5.13745 1.38278 0)
(4.94601 1.47575 0)
(4.34988 1.19372 0)
(4.80231 0.656009 0)
(4.49549 0.078621 0)
(4.76385 -0.67672 0)
(5.52987 -0.935283 0)
(5.23628 -1.17892 0)
(6.04469 -1.31861 0)
(6.63034 -0.462753 0)
(-1.98375 3.52689 0)
(0.415664 -0.29862 0)
(1.32951 -1.77648 0)
(-2.67653 0.869152 0)
(0.230914 0.523103 0)
(1.94727 -0.365895 0)
(0.48075 -0.206081 0)
(1.62218 0.247501 0)
(2.04329 0.62067 0)
(3.37047 0.349487 0)
(3.75473 0.0408446 0)
(3.4715 -0.022359 0)
(3.18955 -0.106216 0)
(3.25936 -0.39071 0)
(3.00714 -0.695671 0)
(2.69005 -0.925831 0)
(2.23929 -0.943424 0)
(2.21461 -1.02031 0)
(2.08139 -0.943326 0)
(2.01402 -0.967069 0)
(1.94551 -0.889267 0)
(2.29176 -0.942807 0)
(1.9919 -0.962102 0)
(2.40738 -0.742684 0)
(2.2465 -0.626688 0)
(2.83283 -0.319637 0)
(2.70508 0.11301 0)
(3.13764 0.524355 0)
(3.70757 0.802377 0)
(3.5678 1.09706 0)
(4.35876 1.23048 0)
(4.61636 1.0712 0)
(5.45617 0.818543 0)
(5.58016 0.305841 0)
(6.09602 -0.0626451 0)
(6.38157 -0.755529 0)
(5.83935 -1.08097 0)
(5.99013 -1.40804 0)
(5.41915 -1.48063 0)
(5.3155 -0.485288 0)
(12.1522 -1.37175 0)
(8.10369 2.41094 0)
(12.7286 -0.560775 0)
(10.0726 6.24639 0)
(10.866 -1.28574 0)
(9.13983 2.78012 0)
(11.1387 0.147857 0)
(10.7658 3.85177 0)
(10.0998 -0.446594 0)
(9.80467 1.2177 0)
(10.2965 0.361576 0)
(10.8883 1.16421 0)
(9.9963 -0.0699899 0)
(9.91841 0.170561 0)
(10.264 0.129773 0)
(10.8001 0.225157 0)
(12.8288 5.3968 3.49678e-17)
(15.3694 4.20736 -6.17303e-17)
(12.801 2.09803 0)
(13.183 0.494158 0)
(11.6519 0.586658 0)
(12.5513 0.0350793 0)
(11.4924 0.237475 0)
(12.1644 0.200338 0)
(10.4376 3.22082 0)
(10.1898 1.78328 0)
(8.74912 0.436872 0)
(11.4909 0.386425 0)
(12.7068 -0.525286 0)
(12.9632 -0.512283 0)
(13.2958 -0.431048 0)
(13.7312 -0.82761 0)
(13.1743 0.0281648 0)
(13.6412 0.312464 0)
(13.9465 0.471789 0)
(14.0612 0.454981 0)
(12.8142 0.191685 0)
(13.1463 0.151041 0)
(13.3876 0.0828665 0)
(13.3718 -0.0662801 0)
(9.90084 0.58492 0)
(9.24449 0.402695 0)
(10.3314 -0.10292 0)
(10.1894 0.205928 0)
(9.24197 0.0275826 0)
(9.89932 -0.139235 0)
(10.0561 -0.174689 0)
(10.1991 -0.137528 0)
(10.3663 -0.151891 0)
(10.6625 -0.366687 0)
(11.4707 -0.552341 0)
(11.4905 -0.537105 0)
(12.1366 -0.381607 0)
(12.1288 -0.23063 0)
(12.6215 -0.106667 0)
(12.5762 -0.0425317 0)
(12.349 0.0375149 0)
(12.1529 0.129906 0)
(11.1226 0.184038 0)
(11.1509 0.215145 0)
(9.53537 0.175368 0)
(9.85154 0.0360735 0)
(8.23646 -0.0789815 0)
(8.42634 -0.232223 0)
(7.30567 -0.292459 0)
(7.01959 -0.291529 0)
(7.22754 -0.206442 0)
(6.33722 0.078547 0)
(7.64511 0.206161 0)
(7.0835 0.503393 0)
(8.32203 0.584231 0)
(8.90689 0.476257 0)
(9.50192 0.344803 0)
(10.9514 -0.0216778 0)
(10.8652 -0.14749 0)
(12.2318 -0.346089 0)
(11.7879 -0.266152 0)
(11.8654 -0.102089 0)
(11.1077 -0.263085 0)
(9.68135 -0.131981 0)
(13.8192 -0.559202 0)
(13.6103 -0.395675 0)
(13.708 -0.387768 0)
(13.5934 -0.415833 0)
(13.7002 -0.338158 0)
(13.3802 -0.245884 0)
(13.5938 -0.394459 0)
(13.3646 -0.381059 0)
(13.4294 -0.542524 0)
(13.2087 -0.545848 0)
(13.1833 -0.810856 0)
(13.0297 -0.71167 0)
(12.731 -0.737116 0)
(12.701 -0.631573 0)
(12.1554 -0.589242 0)
(12.305 -0.598837 0)
(11.8104 -0.309474 0)
(12.2001 -0.247569 0)
(11.8187 0.163378 0)
(12.11 0.0368041 0)
(11.9401 0.207597 0)
(12.0037 0.026819 0)
(12.1317 -0.00559577 0)
(11.9084 0.024597 0)
(12.1979 -0.114993 0)
(11.7531 0.186028 0)
(12.1143 -0.075202 0)
(11.7405 0.262417 0)
(12.1214 -0.0123902 0)
(12.1669 0.109335 0)
(12.4604 -0.0516318 0)
(12.9036 -0.418364 0)
(13.1065 -0.513429 0)
(13.506 -1.19354 0)
(13.2657 -1.18892 0)
(13.2319 -1.65868 0)
(12.8349 -1.36318 0)
(12.6389 -1.01563 0)
(12.5648 -0.36835 0)
(12.1405 0.307802 0)
(14.0446 0.419869 0)
(13.9551 0.344209 0)
(13.839 0.354926 0)
(13.7747 0.289954 0)
(13.6931 0.211838 0)
(13.6139 0.189073 0)
(13.5404 0.121655 0)
(13.4349 0.116488 0)
(13.2831 0.000299702 0)
(13.079 0.0659739 0)
(13.0508 -0.0264787 0)
(12.881 0.0839061 0)
(12.7837 0.117185 0)
(12.5076 0.149099 0)
(12.3668 0.192744 0)
(12.2212 0.115517 0)
(12.2163 0.296456 0)
(12.2937 0.199125 0)
(12.2965 0.397512 0)
(12.4547 0.26064 0)
(12.4321 0.28021 0)
(12.6334 0.180766 0)
(12.5809 0.0554147 0)
(12.7245 0.0809563 0)
(12.6372 -0.0723148 0)
(12.6721 0.0866737 0)
(12.6928 -0.00357375 0)
(12.7157 0.146392 0)
(12.9256 0.103243 0)
(12.9062 0.107021 0)
(13.1135 0.00375637 0)
(12.9324 -0.179123 0)
(12.8969 -0.278022 0)
(12.6051 -0.43916 0)
(12.29 -0.197541 0)
(12.0222 -0.16825 0)
(11.5116 0.250957 0)
(11.4407 0.324359 0)
(11.0624 0.542192 0)
(11.3433 0.660102 0)
(13.3843 -0.173919 0)
(13.3151 -0.299884 0)
(13.2564 -0.312898 0)
(13.1641 -0.364677 0)
(13.0815 -0.37455 0)
(13.027 -0.387187 0)
(12.8953 -0.38973 0)
(12.7905 -0.387078 0)
(12.597 -0.444585 0)
(12.4049 -0.385244 0)
(12.2517 -0.488385 0)
(12.1056 -0.479437 0)
(11.9902 -0.532262 0)
(11.6667 -0.49152 0)
(11.5607 -0.453512 0)
(11.3325 -0.43286 0)
(11.46 -0.286899 0)
(11.3975 -0.304192 0)
(11.5299 -0.133419 0)
(11.4957 -0.20413 0)
(11.5631 -0.116149 0)
(11.6371 -0.181114 0)
(11.5825 -0.157157 0)
(11.672 -0.153783 0)
(11.4871 -0.18607 0)
(11.5679 -0.0951371 0)
(11.3997 -0.167031 0)
(11.4984 -0.0700954 0)
(11.4895 -0.189089 0)
(11.4443 -0.175859 0)
(11.4568 -0.309861 0)
(11.1325 -0.38339 0)
(11.101 -0.427605 0)
(10.499 -0.533931 0)
(10.2574 -0.544638 0)
(9.69178 -0.654956 0)
(9.34194 -0.561068 0)
(9.32069 -0.499001 0)
(9.05626 -0.344182 0)
(9.558 -0.164475 0)
)
;

boundaryField
{
    inlet
    {
        type            fixedValue;
        value           uniform (10 0 0);
    }
    outlet
    {
        type            zeroGradient;
    }
    obstacle
    {
        type            noSlip;
    }
    upperWall
    {
        type            noSlip;
    }
    lowerWall
    {
        type            noSlip;
    }
    frontAndBack
    {
        type            empty;
    }
}


// ************************************************************************* //
