/*--------------------------------*- C++ -*----------------------------------*\
  =========                 |
  \\      /  F ield         | OpenFOAM: The Open Source CFD Toolbox
   \\    /   O peration     | Website:  https://openfoam.org
    \\  /    A nd           | Version:  10
     \\/     M anipulation  |
\*---------------------------------------------------------------------------*/
FoamFile
{
    format      ascii;
    class       volVectorField;
    location    "8.05";
    object      U;
}
// * * * * * * * * * * * * * * * * * * * * * * * * * * * * * * * * * * * * * //

dimensions      [0 1 -1 0 0 0 0];

internalField   nonuniform List<vector> 
8000
(
(-7.70932e-05 0.000102386 -3.62474e-05)
(-0.000530967 0.00021419 8.00834e-07)
(-0.00127867 0.000249773 1.86512e-05)
(-0.00204818 0.000265149 2.79085e-05)
(-0.00285653 0.000277645 2.85302e-05)
(-0.00368247 0.00029212 2.34927e-05)
(-0.00451702 0.000307697 1.41265e-05)
(-0.00534655 0.000321406 2.35074e-08)
(-0.00614779 0.000329345 -2.00271e-05)
(-0.00688549 0.000326857 -4.7589e-05)
(-0.00751033 0.000308625 -8.43269e-05)
(-0.00795835 0.000269328 -0.000131583)
(-0.00815374 0.000205494 -0.000189679)
(-0.00801602 0.000115871 -0.000257052)
(-0.0074734 2.29949e-06 -0.000328305)
(-0.0064839 -0.000124148 -0.000393505)
(-0.00506886 -0.000239551 -0.000437572)
(-0.00337766 -0.000309241 -0.000442025)
(-0.0014928 -0.000291904 -0.000392061)
(-0.00024639 -9.30451e-05 -0.000205571)
(-0.000184537 0.000664215 -0.000115868)
(-0.000990211 0.0011557 -9.76154e-05)
(-0.00222713 0.00132004 -8.56287e-05)
(-0.00349877 0.00138516 -7.61528e-05)
(-0.00482345 0.00142319 -7.32066e-05)
(-0.00616294 0.00145493 -7.4805e-05)
(-0.00749715 0.00147912 -8.02322e-05)
(-0.008801 0.00148591 -9.03629e-05)
(-0.0100365 0.00146137 -0.000106859)
(-0.0111495 0.00138875 -0.000131883)
(-0.0120667 0.00124953 -0.000167878)
(-0.0126942 0.00102564 -0.000217043)
(-0.0129231 0.000702873 -0.000280394)
(-0.0126417 0.000278744 -0.000357372)
(-0.0117493 -0.000227579 -0.00044184)
(-0.0101842 -0.000766576 -0.000519451)
(-0.00797984 -0.00124777 -0.000570021)
(-0.00535314 -0.00153638 -0.00056774)
(-0.00242937 -0.00146973 -0.000490201)
(-0.000440939 -0.00070159 -0.000219674)
(-0.000217921 0.00159698 -0.000160049)
(-0.00115143 0.00263723 -0.000152204)
(-0.00257036 0.00298592 -0.000143253)
(-0.00402031 0.00311459 -0.000132892)
(-0.00552574 0.00317471 -0.000127725)
(-0.00704437 0.00321005 -0.000126388)
(-0.00855535 0.00322079 -0.000128528)
(-0.0100331 0.0031899 -0.00013541)
(-0.0114385 0.00309176 -0.000149207)
(-0.0127148 0.00289487 -0.000172837)
(-0.0137839 0.0025641 -0.000209683)
(-0.0145446 0.00206499 -0.000263098)
(-0.014873 0.00137098 -0.000335701)
(-0.0146292 0.000477918 -0.000427675)
(-0.0136789 -0.000577062 -0.000531355)
(-0.0119288 -0.00170076 -0.000630322)
(-0.00939145 -0.00271301 -0.000697054)
(-0.00631203 -0.00333484 -0.00069605)
(-0.00283308 -0.00322267 -0.000597111)
(-0.000489254 -0.0016814 -0.000255026)
(-0.000221282 0.00258143 -0.000191363)
(-0.00119165 0.00420665 -0.000192592)
(-0.00267165 0.00474393 -0.000186352)
(-0.00418047 0.00493331 -0.000175743)
(-0.00575084 0.00501429 -0.000169496)
(-0.00734213 0.00505585 -0.000166793)
(-0.00893846 0.00506071 -0.000167651)
(-0.0105199 0.00500594 -0.000173767)
(-0.0120533 0.00485528 -0.000187912)
(-0.0134865 0.00456228 -0.000213942)
(-0.0147427 0.00407314 -0.000256639)
(-0.0157143 0.00333249 -0.000321138)
(-0.0162599 0.00229542 -0.000411864)
(-0.0162075 0.000946311 -0.00053067)
(-0.0153744 -0.00067477 -0.000673955)
(-0.0135981 -0.00244255 -0.00081508)
(-0.0108244 -0.00407978 -0.000916637)
(-0.00731415 -0.00512958 -0.000925791)
(-0.00321824 -0.00501372 -0.0007972)
(-0.000500283 -0.0026102 -0.000342451)
(-0.000211292 0.00361697 -0.000213434)
(-0.00117929 0.00586552 -0.000222553)
(-0.00267183 0.00660362 -0.000218678)
(-0.00419581 0.00686032 -0.000208397)
(-0.00579168 0.00697107 -0.000202383)
(-0.00742323 0.00703348 -0.000200361)
(-0.00908303 0.0070552 -0.000202795)
(-0.0107612 0.0070095 -0.000211964)
(-0.0124356 0.00685111 -0.000231469)
(-0.0140649 0.0065191 -0.000266443)
(-0.0155788 0.0059384 -0.000323713)
(-0.0168676 0.00502554 -0.000411333)
(-0.0177701 0.00370169 -0.000536713)
(-0.0180694 0.00191717 -0.00070354)
(-0.0175127 -0.000306614 -0.000916936)
(-0.0158276 -0.00280754 -0.00113585)
(-0.0128346 -0.00523143 -0.00130764)
(-0.00877829 -0.0068884 -0.00134805)
(-0.00379194 -0.00686421 -0.00117682)
(-0.000512789 -0.00348792 -0.000517526)
(-0.000194868 0.00466936 -0.000231298)
(-0.00114213 0.00756858 -0.000247838)
(-0.00262525 0.00851971 -0.000246299)
(-0.00414476 0.0088535 -0.000236868)
(-0.00574788 0.00900877 -0.000232071)
(-0.00740419 0.00911635 -0.000232258)
(-0.00911721 0.00919246 -0.000238475)
(-0.0108907 0.00921012 -0.000253803)
(-0.0127191 0.00911843 -0.000283014)
(-0.014579 0.00884425 -0.000333073)
(-0.0164163 0.00829077 -0.000413767)
(-0.0181283 0.00733947 -0.000537908)
(-0.0195428 0.00586224 -0.000719675)
(-0.0203972 0.0037488 -0.000970761)
(-0.0203282 0.000962189 -0.00128863)
(-0.0189239 -0.00235502 -0.00165932)
(-0.0158026 -0.00577638 -0.00197942)
(-0.0110765 -0.00834088 -0.00211076)
(-0.00476945 -0.00862966 -0.0018895)
(-0.00056649 -0.00422252 -0.000851702)
(-0.000173843 0.00572427 -0.000248777)
(-0.00108872 0.00929743 -0.000273074)
(-0.00254789 0.0104736 -0.000273947)
(-0.00404687 0.0108944 -0.000265466)
(-0.00563872 0.0111099 -0.000262118)
(-0.00729929 0.0112901 -0.000265058)
(-0.00904465 0.0114651 -0.000276115)
(-0.0108956 0.0116135 -0.000299432)
(-0.0128684 0.011685 -0.000341407)
(-0.0149667 0.0116008 -0.000411651)
(-0.0171666 0.0112471 -0.000524392)
(-0.0193911 0.0104702 -0.00069987)
(-0.0214754 0.00907962 -0.000963901)
(-0.0231261 0.00687309 -0.00134133)
(-0.0238841 0.0036997 -0.00184462)
(-0.0231393 -0.000415573 -0.00248435)
(-0.0201781 -0.00500225 -0.00311367)
(-0.0147904 -0.00892284 -0.00349495)
(-0.0066242 -0.0099983 -0.00326103)
(-0.000807082 -0.00474671 -0.00152975)
(-0.000148494 0.00677491 -0.000267957)
(-0.00102134 0.0110442 -0.000300858)
(-0.00244311 0.0124548 -0.000304036)
(-0.0039022 0.012968 -0.000295963)
(-0.00545655 0.0132546 -0.000293385)
(-0.00708744 0.0135305 -0.000298494)
(-0.00882382 0.0138468 -0.000314132)
(-0.0107054 0.0141961 -0.000345819)
(-0.0127751 0.0145397 -0.000402043)
(-0.0150727 0.0148064 -0.000495932)
(-0.0176204 0.0148808 -0.000647986)
(-0.0203964 0.0145884 -0.000889601)
(-0.0232862 0.013684 -0.00126582)
(-0.0260152 0.0118551 -0.00183196)
(-0.0280683 0.00877421 -0.00263982)
(-0.0286055 0.0042344 -0.00370189)
(-0.0265378 -0.00155566 -0.004951)
(-0.0209494 -0.00736471 -0.00593791)
(-0.0105033 -0.010198 -0.00587946)
(-0.00170782 -0.00499959 -0.0029989)
(-0.000119848 0.00781853 -0.000290368)
(-0.000943977 0.0128058 -0.00033309)
(-0.00231593 0.014454 -0.000338155)
(-0.00371154 0.0150546 -0.000329177)
(-0.00519263 0.0154106 -0.000325661)
(-0.00674391 0.0157922 -0.000331089)
(-0.00840548 0.0162795 -0.000349522)
(-0.0102348 0.0168892 -0.000388059)
(-0.0123018 0.0176089 -0.000457638)
(-0.0146874 0.0183965 -0.000575649)
(-0.0174743 0.0191654 -0.000770275)
(-0.0207245 0.0197612 -0.00108723)
(-0.0244333 0.0199312 -0.00159796)
(-0.0284461 0.0192941 -0.00240277)
(-0.0323333 0.0173348 -0.00361596)
(-0.0352226 0.0134459 -0.0053264)
(-0.035483 0.00706756 -0.00750039)
(-0.0309875 -0.00140006 -0.00971883)
(-0.0186592 -0.0081552 -0.0103599)
(-0.00442975 -0.00521657 -0.00619019)
(-9.11344e-05 0.00885963 -0.000317934)
(-0.000867359 0.0145869 -0.000372016)
(-0.00218202 0.016464 -0.000378175)
(-0.00348849 0.01713 -0.000366086)
(-0.00485245 0.0175329 -0.000358745)
(-0.00625879 0.0180069 -0.000361192)
(-0.00775492 0.0186686 -0.000378878)
(-0.00941088 0.0195696 -0.000420516)
(-0.0113169 0.0207401 -0.000499405)
(-0.0135885 0.0221934 -0.000636898)
(-0.0163674 0.023915 -0.000868518)
(-0.019816 0.0258383 -0.00125384)
(-0.0240932 0.0278058 -0.00188849)
(-0.0292952 0.0294915 -0.0029103)
(-0.0353403 0.03025 -0.00448612)
(-0.0417093 0.0288029 -0.00677712)
(-0.0466421 0.0228033 -0.00987843)
(-0.0460294 0.0101685 -0.0133659)
(-0.0337522 -0.00493457 -0.0151718)
(-0.0106919 -0.00707261 -0.011303)
(-6.95422e-05 0.00991733 -0.000354016)
(-0.000814085 0.0164072 -0.000421208)
(-0.0020753 0.0184859 -0.000427125)
(-0.00326914 0.0191693 -0.000408626)
(-0.00446761 0.0195664 -0.000393192)
(-0.00565226 0.0200847 -0.000387789)
(-0.0068723 0.0208828 -0.000399273)
(-0.00820006 0.0220539 -0.000437664)
(-0.00973053 0.0236844 -0.000517793)
(-0.011592 0.0258678 -0.000662855)
(-0.013958 0.0287054 -0.000910597)
(-0.0170616 0.032296 -0.00132178)
(-0.0212249 0.0366999 -0.00197894)
(-0.0269035 0.0417729 -0.0029534)
(-0.0347009 0.0466614 -0.00426395)
(-0.0451359 0.0486972 -0.00590828)
(-0.0568173 0.0420004 -0.00829665)
(-0.0637543 0.0201691 -0.0114409)
(-0.0545568 -0.0105446 -0.0133778)
(-0.0199703 -0.0192249 -0.0137057)
(-6.95504e-05 0.0110396 -0.000405183)
(-0.000826471 0.018319 -0.000488269)
(-0.00205755 0.0205453 -0.000492758)
(-0.00312187 0.0211636 -0.000463521)
(-0.00410668 0.021463 -0.000433807)
(-0.00498853 0.0219329 -0.0004137)
(-0.00581424 0.0227745 -0.000411624)
(-0.00664419 0.024122 -0.000438322)
(-0.00755363 0.026121 -0.000508757)
(-0.00864549 0.0289557 -0.000643621)
(-0.0100682 0.0328677 -0.000871247)
(-0.0120476 0.0381546 -0.00122267)
(-0.0150014 0.0451168 -0.00167396)
(-0.0197857 0.0536413 -0.00198645)
(-0.0280088 0.0621511 -0.0016555)
(-0.0422051 0.0652108 -0.000196802)
(-0.0637736 0.0528292 0.00133952)
(-0.08402 0.0137749 0.00257419)
(-0.0768699 -0.0390316 0.00476702)
(-0.0276869 -0.0533116 -0.00614401)
(-0.000117487 0.0123081 -0.000481474)
(-0.000973835 0.0203851 -0.000579912)
(-0.00222523 0.0226458 -0.000576501)
(-0.00315412 0.0230632 -0.000528321)
(-0.00388295 0.0231342 -0.000477115)
(-0.00438521 0.0234252 -0.000436265)
(-0.00470606 0.0241639 -0.000414424)
(-0.00488046 0.0255127 -0.000421105)
(-0.00493636 0.0276606 -0.000469756)
(-0.00490617 0.0308579 -0.00057217)
(-0.00485024 0.0354469 -0.000730669)
(-0.00490652 0.0418681 -0.000903406)
(-0.00557886 0.0505303 -0.000863554)
(-0.00823645 0.0610033 0.000184437)
(-0.0164285 0.070751 0.0034369)
(-0.0365752 0.0714611 0.0100268)
(-0.0748473 0.0487949 0.0192238)
(-0.108263 -0.0199266 0.0300858)
(-0.0963622 -0.104992 0.0298679)
(-0.0341715 -0.115524 0.00483966)
(-0.000278819 0.0139375 -0.00061835)
(-0.001408 0.0228961 -0.000750918)
(-0.00275273 0.0250842 -0.00074657)
(-0.00352508 0.0251439 -0.000671829)
(-0.00394134 0.0247874 -0.000581004)
(-0.00399725 0.0246752 -0.000498495)
(-0.00373715 0.0250653 -0.000438461)
(-0.00315683 0.0261318 -0.000412835)
(-0.00222293 0.0280722 -0.000430663)
(-0.000876567 0.0311459 -0.000492007)
(0.000954494 0.0357605 -0.000559712)
(0.00327739 0.042336 -0.000518246)
(0.00545048 0.0512943 0.000100021)
(0.00566441 0.0619157 0.00267519)
(-0.00226657 0.0711293 0.00918722)
(-0.0296988 0.0678568 0.021556)
(-0.0844172 0.0265395 0.0390284)
(-0.121905 -0.0882533 0.0483992)
(-0.113117 -0.192648 0.0302727)
(-0.0434593 -0.199678 0.00209439)
(-0.000600067 0.0164291 -0.000828673)
(-0.0021809 0.0256948 -0.000943304)
(-0.00373475 0.0272641 -0.000905829)
(-0.00440648 0.0265063 -0.000775152)
(-0.00453768 0.0255281 -0.000640727)
(-0.00412014 0.0249459 -0.000521733)
(-0.00322888 0.0249355 -0.000432074)
(-0.00184539 0.0255904 -0.000380942)
(0.000111997 0.0270518 -0.000374522)
(0.00284038 0.0295474 -0.000399648)
(0.0065131 0.0334586 -0.000421535)
(0.0113197 0.0390925 -0.000267359)
(0.0166753 0.0468603 0.000717713)
(0.0207939 0.0560471 0.00407884)
(0.0162687 0.0641417 0.0128661)
(-0.00946422 0.0559759 0.0284128)
(-0.0669934 -0.00496683 0.0456959)
(-0.103705 -0.145526 0.0401589)
(-0.120391 -0.250904 0.0158812)
(-0.0473266 -0.283466 -0.0133303)
(-0.00195971 0.0188823 -0.00134109)
(-0.00486766 0.0303574 -0.00157304)
(-0.00617726 0.0314794 -0.00147962)
(-0.00632032 0.0301282 -0.00125892)
(-0.00570302 0.0281304 -0.00100143)
(-0.00457875 0.0264807 -0.000765299)
(-0.00300867 0.0254138 -0.000579995)
(-0.000905551 0.0250215 -0.000459628)
(0.00192115 0.0254113 -0.000405126)
(0.00579437 0.0267011 -0.000420744)
(0.0109702 0.0291477 -0.000449297)
(0.0178902 0.0328765 -0.00037776)
(0.0261123 0.0382003 0.000561402)
(0.0349968 0.0442411 0.00352554)
(0.0374296 0.0502846 0.0117868)
(0.0276811 0.0410587 0.0258623)
(-0.0194276 -0.0235764 0.0379926)
(-0.0603527 -0.156728 0.0283464)
(-0.110448 -0.279217 0.00999698)
(-0.0425154 -0.348652 -0.0304965)
(-0.00131637 0.0303451 -0.0023592)
(-0.0049363 0.0341047 -0.00225642)
(-0.00831168 0.0325748 -0.00202033)
(-0.00861706 0.0286397 -0.00151765)
(-0.00808087 0.0257489 -0.0011347)
(-0.00638248 0.0236985 -0.000802819)
(-0.00397094 0.0223677 -0.000555291)
(-0.000857361 0.0215604 -0.000402857)
(0.003045 0.0213196 -0.000357741)
(0.00808069 0.0215601 -0.000436223)
(0.0144851 0.0225266 -0.000601327)
(0.0229158 0.0240416 -0.000757518)
(0.0328099 0.0263014 -0.000283016)
(0.045076 0.0279749 0.00150037)
(0.0524196 0.0290678 0.00709675)
(0.0582945 0.0200539 0.0172425)
(0.0251008 -0.0309454 0.0256431)
(-0.0111514 -0.141654 0.0232823)
(-0.0887548 -0.280984 0.00459861)
(-0.0334165 -0.387681 -0.0448709)
(-0.0127873 0.0277263 -0.00312292)
(-0.0214204 0.0486442 -0.00393554)
(-0.0153495 0.0443833 -0.00377694)
(-0.0134674 0.0394007 -0.00318754)
(-0.00908836 0.0334562 -0.00234343)
(-0.00435319 0.0285858 -0.00158874)
(0.00065165 0.0247966 -0.00102164)
(0.00601804 0.0218712 -0.000658598)
(0.0117314 0.0197995 -0.000513908)
(0.0184014 0.0182486 -0.000630015)
(0.0258226 0.0173892 -0.000902417)
(0.0352066 0.0166923 -0.00132581)
(0.0448394 0.0166497 -0.00145712)
(0.0580319 0.0154252 -0.000792675)
(0.0640774 0.0137945 0.00199698)
(0.0781497 0.00508664 0.008578)
(0.0545713 -0.0264263 0.0137424)
(0.045788 -0.114077 0.0181364)
(-0.0519284 -0.262454 -0.00103685)
(-0.0126854 -0.398943 -0.0559036)
(-0.0466116 0.0876805 -0.0125202)
(-0.0298541 0.0397598 -0.00894372)
(-0.0205292 0.0334304 -0.00681586)
(-0.00121455 0.026354 -0.00481222)
(0.0150323 0.0199526 -0.00347366)
(0.0312564 0.015647 -0.00244666)
(0.0453419 0.0128898 -0.00170758)
(0.0586563 0.0107551 -0.00124541)
(0.0699756 0.0093824 -0.000996726)
(0.0819851 0.00809165 -0.00101497)
(0.0915918 0.00758686 -0.00123135)
(0.104658 0.0066545 -0.0016985)
(0.11274 0.00642918 -0.00214247)
(0.130655 0.00452783 -0.00232468)
(0.131862 0.00114308 -0.00171093)
(0.156632 -0.00886167 0.00172909)
(0.130694 -0.0347239 0.00545343)
(0.153864 -0.100001 0.0109206)
(0.0315072 -0.235911 -0.00337444)
(0.0356767 -0.365996 -0.0659422)
(0.117535 0.112284 -0.0111969)
(0.144137 0.0598863 -0.0118684)
(0.216007 0.0394983 -0.0117625)
(0.260819 0.0262057 -0.0106011)
(0.293407 0.0173721 -0.00917088)
(0.321012 0.0113985 -0.00795767)
(0.341496 0.00768703 -0.00683346)
(0.36114 0.00513855 -0.00597361)
(0.373732 0.00365356 -0.00518293)
(0.390264 0.0024584 -0.00464727)
(0.396994 0.0019086 -0.00421678)
(0.414382 0.0013205 -0.00395028)
(0.414559 0.00105367 -0.00386262)
(0.436397 0.000358957 -0.00358562)
(0.424507 -0.00103213 -0.00346615)
(0.450445 -0.00466559 -0.00258014)
(0.406195 -0.0132731 -0.00178736)
(0.417174 -0.0324934 -0.0016621)
(0.250115 -0.072362 -0.0096584)
(0.166926 -0.138035 -0.075949)
(-0.000128876 0.000153159 -0.000119633)
(-0.00090036 0.000383969 -8.17491e-05)
(-0.00217867 0.000463544 -5.5144e-05)
(-0.00348496 0.000489546 -4.04428e-05)
(-0.00483346 0.000502507 -4.21668e-05)
(-0.00618695 0.00051517 -5.66698e-05)
(-0.00752921 0.000526988 -8.28699e-05)
(-0.00883744 0.000533109 -0.000122592)
(-0.0100741 0.000527136 -0.000179077)
(-0.0111846 0.000501527 -0.00025615)
(-0.0120948 0.000447804 -0.000357555)
(-0.0127109 0.000357651 -0.000485843)
(-0.0129242 0.000225584 -0.000640687)
(-0.0126204 4.91955e-05 -0.000816928)
(-0.0116984 -0.000166819 -0.000999935)
(-0.0101015 -0.000399274 -0.00116571)
(-0.00786495 -0.000603413 -0.00127895)
(-0.0052078 -0.000708905 -0.00129811)
(-0.00227753 -0.000624626 -0.00118395)
(-0.000368713 -0.00019117 -0.000720544)
(-0.000376029 0.00104092 -0.000286888)
(-0.00192269 0.00203126 -0.000297549)
(-0.00426362 0.00238097 -0.00028155)
(-0.00665517 0.00249002 -0.000263748)
(-0.00909882 0.00252 -0.00026026)
(-0.0115196 0.00252268 -0.000270048)
(-0.0138752 0.00250013 -0.000293416)
(-0.0161164 0.00243659 -0.000333628)
(-0.0181745 0.00230932 -0.00039553)
(-0.0199578 0.00209138 -0.000484805)
(-0.0213483 0.00175378 -0.000607148)
(-0.0222016 0.00126938 -0.000766675)
(-0.0223574 0.000618709 -0.000963521)
(-0.0216553 -0.000197177 -0.00119392)
(-0.0199536 -0.0011387 -0.00143588)
(-0.0171776 -0.00211151 -0.00165515)
(-0.0133981 -0.00294317 -0.00180166)
(-0.00895099 -0.00336592 -0.00181474)
(-0.0040805 -0.00303123 -0.0016278)
(-0.000767786 -0.00133765 -0.000915962)
(-0.000475777 0.00254328 -0.000384442)
(-0.00235979 0.00462185 -0.000425505)
(-0.00516485 0.0053509 -0.000416539)
(-0.00801158 0.00556314 -0.000395885)
(-0.0109045 0.00559116 -0.000387024)
(-0.0137563 0.00554126 -0.000390764)
(-0.0165186 0.00542232 -0.000408566)
(-0.0191369 0.00520753 -0.000445011)
(-0.0215365 0.00485518 -0.000506622)
(-0.023618 0.00431491 -0.000601302)
(-0.0252524 0.00353243 -0.000737364)
(-0.0262821 0.00245723 -0.000921995)
(-0.0265225 0.00105524 -0.00115918)
(-0.0257721 -0.000667195 -0.00144408)
(-0.0238445 -0.00263556 -0.00175239)
(-0.0206227 -0.00466284 -0.00204145)
(-0.0161515 -0.00640367 -0.00224166)
(-0.0108142 -0.00730804 -0.00226579)
(-0.00489941 -0.00665102 -0.00202044)
(-0.000896883 -0.00320975 -0.00110051)
(-0.000505659 0.00413725 -0.000458949)
(-0.00252347 0.00737829 -0.000526553)
(-0.00552542 0.0084957 -0.00052428)
(-0.00856242 0.00880267 -0.000502486)
(-0.0116497 0.00882158 -0.000490705)
(-0.0147006 0.00871746 -0.000491417)
(-0.0176728 0.00850729 -0.000507355)
(-0.0205189 0.00815449 -0.000544665)
(-0.0231715 0.00759928 -0.000612016)
(-0.025536 0.0067668 -0.000720414)
(-0.0274833 0.00557314 -0.000882408)
(-0.0288431 0.00393617 -0.00111029)
(-0.0294024 0.00179664 -0.00141328)
(-0.0289127 -0.000850474 -0.00179274)
(-0.0271044 -0.0039222 -0.0022247)
(-0.0237494 -0.00714563 -0.00264727)
(-0.0187989 -0.00998194 -0.00295998)
(-0.0126534 -0.0115262 -0.00302327)
(-0.00563954 -0.0105631 -0.00269257)
(-0.000954341 -0.00510761 -0.00143694)
(-0.000505968 0.00581198 -0.000517569)
(-0.00257221 0.0102892 -0.000609347)
(-0.00566548 0.0118172 -0.000613454)
(-0.00879703 0.0122277 -0.000592118)
(-0.0119938 0.0122488 -0.00058047)
(-0.0151762 0.0121104 -0.000582731)
(-0.0183153 0.0118406 -0.000603162)
(-0.0213792 0.0113955 -0.000649959)
(-0.0243169 0.0106982 -0.000734763)
(-0.0270487 0.00964777 -0.00087302)
(-0.0294527 0.00812382 -0.00108389)
(-0.0313502 0.00599775 -0.00138855)
(-0.0324912 0.00315674 -0.0018061)
(-0.0325603 -0.000453287 -0.00234554)
(-0.0311633 -0.00474864 -0.00299238)
(-0.0278882 -0.00941405 -0.00365982)
(-0.0224968 -0.0136895 -0.00419705)
(-0.0153391 -0.0161966 -0.00436481)
(-0.00673642 -0.0150103 -0.0038977)
(-0.00102407 -0.0071338 -0.00202655)
(-0.000495367 0.00752017 -0.000569775)
(-0.00257851 0.0132906 -0.000685316)
(-0.00572583 0.0152524 -0.000696)
(-0.00892038 0.0157818 -0.000676378)
(-0.0122002 0.0158274 -0.000667096)
(-0.0154961 0.0156916 -0.000674348)
(-0.0187978 0.0154188 -0.000704314)
(-0.0220963 0.0149618 -0.000767872)
(-0.0253665 0.0142297 -0.000880709)
(-0.0285556 0.0130953 -0.00106457)
(-0.0315635 0.0113958 -0.0013484)
(-0.034217 0.00893924 -0.00176808)
(-0.0362409 0.00552729 -0.0023614)
(-0.037226 0.00100974 -0.00315566)
(-0.036634 -0.00460259 -0.00415746)
(-0.033801 -0.0110159 -0.00528088)
(-0.0281252 -0.0172533 -0.00627235)
(-0.0197182 -0.0213358 -0.00670785)
(-0.00868989 -0.0202202 -0.00603821)
(-0.00119494 -0.00938906 -0.00302728)
(-0.000479747 0.00924713 -0.000623387)
(-0.00256774 0.0163631 -0.000764369)
(-0.00575491 0.018783 -0.000781931)
(-0.00899709 0.019448 -0.000764154)
(-0.0123428 0.0195437 -0.000757607)
(-0.0157352 0.0194546 -0.00077086)
(-0.0191869 0.0192489 -0.0008125)
(-0.0227187 0.0188835 -0.000896819)
(-0.0263428 0.0182603 -0.00104487)
(-0.0300497 0.0172309 -0.0012872)
(-0.0337847 0.0155896 -0.00166732)
(-0.03741 0.0130687 -0.00224452)
(-0.040652 0.00935099 -0.00309076)
(-0.0430441 0.004124 -0.00427875)
(-0.0439104 -0.00279725 -0.00586729)
(-0.0422602 -0.0112019 -0.00778964)
(-0.0369248 -0.0200968 -0.00967501)
(-0.0273292 -0.026901 -0.0107538)
(-0.012718 -0.0267432 -0.00983873)
(-0.00177234 -0.012364 -0.0047848)
(-0.000460317 0.0109894 -0.000683497)
(-0.00254705 0.0195048 -0.000853186)
(-0.00576527 0.0224042 -0.00087746)
(-0.00903777 0.0232163 -0.000860062)
(-0.0124228 0.0233822 -0.000854323)
(-0.0158761 0.0233805 -0.000871659)
(-0.019436 0.0233138 -0.000923554)
(-0.0231596 0.0231545 -0.00102844)
(-0.0271078 0.0228109 -0.00121399)
(-0.0313342 0.022128 -0.00152221)
(-0.035862 0.0208698 -0.00201695)
(-0.0406413 0.0186979 -0.00279302)
(-0.0454778 0.0151612 -0.00398227)
(-0.0499408 0.00972337 -0.00574331)
(-0.053258 0.00188924 -0.0082099)
(-0.0542236 -0.00850704 -0.0114144)
(-0.0509712 -0.0209104 -0.01486)
(-0.0412311 -0.0326776 -0.0171372)
(-0.0218687 -0.0360508 -0.0159922)
(-0.00370669 -0.0177105 -0.00799042)
(-0.000438535 0.0127477 -0.000754484)
(-0.00252244 0.0227186 -0.000957564)
(-0.00576469 0.0261112 -0.000987632)
(-0.00904328 0.0270679 -0.000967245)
(-0.0124254 0.0273085 -0.000957769)
(-0.0158778 0.0274203 -0.000973945)
(-0.0194651 0.0275525 -0.00103048)
(-0.0232835 0.0277085 -0.00115022)
(-0.0274505 0.0278239 -0.00136821)
(-0.0321017 0.0277649 -0.00173976)
(-0.0373745 0.0273002 -0.00235357)
(-0.0433735 0.0260611 -0.00335065)
(-0.0501047 0.0234995 -0.00494419)
(-0.0573726 0.0188693 -0.0074147)
(-0.0646475 0.0112467 -0.0110337)
(-0.0707807 -0.000486948 -0.0157929)
(-0.0730599 -0.0175373 -0.0207981)
(-0.0658891 -0.038955 -0.0239036)
(-0.0413819 -0.0525171 -0.0224623)
(-0.00898379 -0.030019 -0.0133626)
(-0.000418768 0.0145307 -0.000841915)
(-0.00250826 0.0260164 -0.00108461)
(-0.00577318 0.0298999 -0.00111863)
(-0.00902792 0.0309753 -0.00108971)
(-0.0123489 0.0312677 -0.00106901)
(-0.0157106 0.0314896 -0.00107505)
(-0.0192009 0.0318507 -0.00112583)
(-0.0229526 0.0324035 -0.0012483)
(-0.0271394 0.0331371 -0.00148399)
(-0.0319849 0.0339796 -0.00190037)
(-0.0377665 0.0347662 -0.00260995)
(-0.0448107 0.0351885 -0.00379914)
(-0.0534738 0.0347323 -0.00575352)
(-0.0641089 0.0325702 -0.00881993)
(-0.0769577 0.0271818 -0.013151)
(-0.0914542 0.0152864 -0.0180337)
(-0.103478 -0.00946666 -0.0212136)
(-0.101718 -0.0507002 -0.0205501)
(-0.0724702 -0.0873234 -0.019161)
(-0.0189363 -0.0597681 -0.0185193)
(-0.000410747 0.0163644 -0.000954674)
(-0.00253472 0.0294262 -0.00124483)
(-0.00583523 0.0337704 -0.00127947)
(-0.00903521 0.0349016 -0.00123386)
(-0.0122242 0.0351822 -0.0011912)
(-0.0153798 0.0354661 -0.00117426)
(-0.0186069 0.0360347 -0.00120394)
(-0.0220643 0.037005 -0.00130978)
(-0.025967 0.0384471 -0.00153663)
(-0.0306108 0.0403978 -0.00195711)
(-0.0364033 0.0428395 -0.00269202)
(-0.0439023 0.0456566 -0.00393166)
(-0.0538872 0.0485621 -0.00590109)
(-0.0674995 0.0507337 -0.00860082)
(-0.0861339 0.0492863 -0.0110944)
(-0.109888 0.0360512 -0.0104187)
(-0.131929 -0.00453909 -0.00280395)
(-0.1348 -0.0809515 0.00810252)
(-0.101548 -0.150955 0.00428462)
(-0.0296516 -0.121704 -0.014684)
(-0.000434773 0.0183124 -0.00110879)
(-0.00266063 0.0330245 -0.00145855)
(-0.00603519 0.0377665 -0.00149103)
(-0.00915282 0.0388434 -0.00141818)
(-0.0121307 0.0389912 -0.00133832)
(-0.0149471 0.0392234 -0.00128063)
(-0.0177167 0.0399009 -0.00126893)
(-0.0206047 0.0412142 -0.0013332)
(-0.0238353 0.0433329 -0.00151609)
(-0.027729 0.0464423 -0.00188116)
(-0.0327571 0.0507463 -0.00251973)
(-0.0396077 0.0564264 -0.00351846)
(-0.0493329 0.0634517 -0.00472734)
(-0.0636796 0.0705402 -0.00499233)
(-0.0847607 0.0717165 -0.00100899)
(-0.11323 0.0516524 0.0128649)
(-0.142306 -0.0123145 0.0379609)
(-0.149074 -0.125874 0.0553607)
(-0.115478 -0.221071 0.0344068)
(-0.0354458 -0.20583 -0.000338002)
(-0.000522989 0.0204578 -0.00132715)
(-0.00296891 0.0368363 -0.00174078)
(-0.00649573 0.0417997 -0.00175575)
(-0.00952331 0.0426283 -0.00163773)
(-0.0122187 0.04248 -0.00150486)
(-0.0145578 0.0425116 -0.0013914)
(-0.0166629 0.0431377 -0.00132078)
(-0.0186845 0.0446089 -0.00131873)
(-0.020809 0.0471897 -0.00141916)
(-0.023301 0.0512084 -0.00165678)
(-0.0265744 0.057086 -0.00204167)
(-0.0312651 0.0652438 -0.00242349)
(-0.0384253 0.0756875 -0.00197968)
(-0.0501509 0.0860131 0.00209007)
(-0.0694085 0.0869932 0.0154253)
(-0.0986062 0.0580879 0.044574)
(-0.134522 -0.0238485 0.082114)
(-0.14372 -0.160388 0.0882472)
(-0.116106 -0.270368 0.0434932)
(-0.034226 -0.286875 0.00630078)
(-0.000777627 0.0231024 -0.00168224)
(-0.00371311 0.0414089 -0.00221038)
(-0.00749337 0.0465122 -0.00221919)
(-0.0103599 0.0468961 -0.00203853)
(-0.0126464 0.0461403 -0.0018139)
(-0.0143702 0.0456151 -0.00160037)
(-0.0156483 0.0458161 -0.00143053)
(-0.0165771 0.0470468 -0.00133122)
(-0.0172623 0.0496304 -0.00132163)
(-0.0178448 0.0539786 -0.00139807)
(-0.0185792 0.0606505 -0.00146015)
(-0.019861 0.0701237 -0.00108867)
(-0.0225808 0.0823312 0.00119088)
(-0.0288351 0.0937815 0.00952003)
(-0.0430881 0.0941165 0.0307581)
(-0.0698307 0.0603881 0.0689224)
(-0.110033 -0.0298066 0.104556)
(-0.116163 -0.180938 0.0875421)
(-0.108119 -0.304029 0.033809)
(-0.0267687 -0.360366 -0.00371306)
(-0.00115837 0.0266562 -0.00218674)
(-0.00466013 0.0458506 -0.00274322)
(-0.00897794 0.050211 -0.00269193)
(-0.0118775 0.049482 -0.00239878)
(-0.0138683 0.0479768 -0.00207743)
(-0.0149178 0.0469453 -0.0017719)
(-0.0152139 0.0467576 -0.00151486)
(-0.0148425 0.0476309 -0.00132739)
(-0.0138314 0.0498627 -0.00121859)
(-0.0121453 0.0538666 -0.00114897)
(-0.00983868 0.0602537 -0.000978758)
(-0.00688553 0.0694003 -0.000106783)
(-0.00396464 0.0813506 0.00322189)
(-0.00236216 0.0923669 0.0133867)
(-0.00766509 0.0933419 0.037479)
(-0.0238158 0.0606647 0.0749167)
(-0.0600483 -0.0280925 0.0999366)
(-0.0627141 -0.178625 0.06906)
(-0.0882319 -0.316348 0.025187)
(-0.0127017 -0.418589 -0.0187534)
(-0.00325194 0.0298498 -0.00320451)
(-0.00897491 0.0536971 -0.00401977)
(-0.0127728 0.0578513 -0.00389012)
(-0.014828 0.0564148 -0.00345624)
(-0.015656 0.0533014 -0.00291328)
(-0.0156682 0.0506223 -0.00238247)
(-0.0149291 0.0488724 -0.00192562)
(-0.0133657 0.0482868 -0.00157525)
(-0.0108264 0.0491121 -0.00133589)
(-0.00703469 0.05164 -0.00117415)
(-0.00186984 0.05638 -0.000929957)
(0.00524437 0.0635868 -5.77142e-05)
(0.0138216 0.0733327 0.0030819)
(0.0240579 0.0823471 0.0116958)
(0.0295023 0.0847115 0.0322355)
(0.0325566 0.0592524 0.0622356)
(0.0050738 -0.0184698 0.0774606)
(0.000822914 -0.148497 0.051988)
(-0.0565485 -0.307484 0.0190732)
(0.00673671 -0.455518 -0.0321805)
(-0.0013426 0.0444283 -0.00517051)
(-0.00760469 0.0572085 -0.00568316)
(-0.0159292 0.0576416 -0.00520253)
(-0.0182988 0.0528929 -0.00425669)
(-0.0195607 0.0493013 -0.00348915)
(-0.0189014 0.0466778 -0.00277331)
(-0.0170314 0.0449571 -0.0021753)
(-0.0139595 0.0440187 -0.0017245)
(-0.00962438 0.0440274 -0.00145148)
(-0.00368324 0.0450591 -0.0013384)
(0.00410347 0.0476875 -0.00126541)
(0.0146553 0.0518955 -0.000876709)
(0.0273888 0.0577373 0.00112356)
(0.0442229 0.0626188 0.00650461)
(0.0569364 0.0630077 0.0196799)
(0.0754744 0.0458563 0.0401472)
(0.0571974 -0.0132219 0.0498507)
(0.0576736 -0.111427 0.0388993)
(-0.0196273 -0.283011 0.013183)
(0.0337303 -0.469579 -0.0441855)
(-0.0124308 0.0350632 -0.00607376)
(-0.0237029 0.0782526 -0.00796299)
(-0.0210727 0.0763875 -0.00806935)
(-0.0247839 0.0704791 -0.00716834)
(-0.0237053 0.0625462 -0.00573154)
(-0.0209042 0.0558268 -0.00435238)
(-0.01636 0.0504082 -0.00324308)
(-0.0103724 0.046146 -0.00245404)
(-0.00317138 0.043103 -0.00203618)
(0.0057435 0.0409883 -0.00196706)
(0.0160555 0.0401902 -0.00218621)
(0.0290348 0.0402924 -0.00246787)
(0.0430431 0.0419346 -0.00199926)
(0.0623306 0.0426085 0.000448944)
(0.0748345 0.0419771 0.00653584)
(0.100871 0.0314337 0.0192904)
(0.0890789 -0.00401018 0.0233947)
(0.112584 -0.0722451 0.0241803)
(0.0380087 -0.253086 0.00777062)
(0.0777627 -0.461124 -0.0550812)
(-0.0763038 0.0993389 -0.0199825)
(-0.0611762 0.0601631 -0.0161002)
(-0.0603668 0.0593052 -0.0129294)
(-0.0374544 0.0513685 -0.0101328)
(-0.0180954 0.0433909 -0.00817595)
(0.00342362 0.0375099 -0.0065118)
(0.0233897 0.0332957 -0.00524597)
(0.0434319 0.0297064 -0.00434246)
(0.0613893 0.0271806 -0.00377595)
(0.0807656 0.0247946 -0.00359943)
(0.0968131 0.0235871 -0.00377296)
(0.117671 0.0221986 -0.00427725)
(0.131135 0.0218357 -0.00486705)
(0.158914 0.0209275 -0.00458557)
(0.165271 0.0167907 -0.00341984)
(0.205404 0.00935898 0.00143753)
(0.190027 -0.0216138 0.00655035)
(0.232783 -0.0731384 0.00790938)
(0.155426 -0.233543 0.00272554)
(0.15045 -0.413564 -0.0658714)
(0.119092 0.140167 -0.0171142)
(0.151449 0.0855575 -0.0189019)
(0.228659 0.0631203 -0.0190948)
(0.28343 0.0476337 -0.0178027)
(0.324573 0.0367326 -0.0160431)
(0.362573 0.0286624 -0.014495)
(0.391019 0.0230424 -0.012969)
(0.421826 0.0187808 -0.011828)
(0.441055 0.0157459 -0.010604)
(0.469194 0.0133437 -0.00997239)
(0.480686 0.0115234 -0.00901167)
(0.50994 0.0102329 -0.00902097)
(0.513321 0.0089511 -0.00812697)
(0.546691 0.0080208 -0.00873115)
(0.538851 0.00612499 -0.00699651)
(0.574607 0.00231192 -0.00803668)
(0.541801 -0.0061005 -0.00439268)
(0.555215 -0.0256111 -0.00961346)
(0.425009 -0.066927 -0.0110922)
(0.302615 -0.144314 -0.079035)
(-0.000141263 0.000146526 -0.000184613)
(-0.00102754 0.00042168 -0.000206493)
(-0.00250672 0.000519368 -0.000197069)
(-0.00400991 0.000548973 -0.000189987)
(-0.00555049 0.000560002 -0.000197474)
(-0.00708495 0.000568977 -0.000219962)
(-0.00859545 0.00057579 -0.000258657)
(-0.0100568 0.000574968 -0.000316727)
(-0.0114277 0.000559203 -0.000398475)
(-0.0126484 0.000519835 -0.000508575)
(-0.0136384 0.000447121 -0.000651203)
(-0.0142958 0.000331539 -0.00082858)
(-0.0145023 0.000166798 -0.00103892)
(-0.0141315 -5.17302e-05 -0.00127396)
(-0.013071 -0.000314925 -0.00151464)
(-0.0112559 -0.000594848 -0.00173199)
(-0.00872396 -0.000835674 -0.00188589)
(-0.00572441 -0.00094915 -0.00193066)
(-0.00243718 -0.000819935 -0.0018102)
(-0.000358351 -0.000260837 -0.00121576)
(-0.000448799 0.00111278 -0.0003492)
(-0.00230261 0.00228853 -0.000437979)