/*--------------------------------*- C++ -*----------------------------------*\
  =========                 |
  \\      /  F ield         | OpenFOAM: The Open Source CFD Toolbox
   \\    /   O peration     | Website:  https://openfoam.org
    \\  /    A nd           | Version:  10
     \\/     M anipulation  |
\*---------------------------------------------------------------------------*/
FoamFile
{
    format      ascii;
    class       volScalarField;
    location    "2.85";
    object      p;
}
// * * * * * * * * * * * * * * * * * * * * * * * * * * * * * * * * * * * * * //

dimensions      [0 2 -2 0 0 0 0];

internalField   nonuniform List<scalar> 
475
(
-0.040423
-0.0643714
-0.0958447
-0.12058
-0.14505
-0.0646887
-0.0784185
-0.0939911
-0.112424
-0.128671
-0.062272
-0.0720029
-0.0865401
-0.103333
-0.119052
-0.0611506
-0.0718622
-0.0866296
-0.100919
-0.113126
-0.0311081
-0.057973
-0.0812972
-0.0976766
-0.109121
-0.160382
-0.151035
-0.155707
-0.184962
-0.228516
-0.265864
-0.282088
-0.265478
-0.219793
-0.158827
-0.0948293
-0.0430051
-0.0102427
0.00988047
0.020603
0.0255438
0.0310407
0.0380209
0.0437474
0.0470642
0.0483134
0.0481188
0.0470363
0.0454512
0.0435942
0.0415929
0.0395158
0.0374
0.0352657
0.0331234
0.0309785
0.0288339
0.0266907
0.0245493
0.0224098
0.0202718
0.0181354
0.0159998
0.0138652
0.0117312
0.00959752
0.00746439
0.00533148
0.00319872
0.00106622
-0.143911
-0.153473
-0.162079
-0.174548
-0.191046
-0.205926
-0.210153
-0.192825
-0.16159
-0.125888
-0.0861147
-0.0509102
-0.0260292
-0.0061899
0.00916147
0.0186899
0.0264371
0.0340422
0.040232
0.0442427
0.0462739
0.0468135
0.0463005
0.0451011
0.0434824
0.0416166
0.0396084
0.0375205
0.0353904
0.0332397
0.0310807
0.02892
0.0267611
0.0246055
0.0224537
0.0203056
0.0181609
0.0160189
0.0138793
0.0117414
0.00960481
0.00746936
0.00533462
0.00320045
0.00106676
-0.131713
-0.139564
-0.144219
-0.148171
-0.151652
-0.155168
-0.15393
-0.141267
-0.126977
-0.115068
-0.0961558
-0.0733277
-0.0542502
-0.0355781
-0.0163146
0.00221163
0.0184786
0.0310653
0.0390835
0.0435735
0.0458492
0.0466202
0.0463143
0.0452645
0.0437272
0.0418873
0.0398696
0.0377537
0.0355882
0.0334016
0.0312096
0.0290205
0.0268382
0.024664
0.0224976
0.0203383
0.018185
0.0160365
0.013892
0.0117504
0.00961116
0.00747367
0.0053374
0.00320199
0.00106721
-0.123534
-0.128767
-0.130966
-0.132308
-0.128505
-0.12352
-0.115899
-0.102933
-0.100212
-0.106724
-0.101549
-0.0862096
-0.0711854
-0.0530488
-0.0281807
-0.00416636
0.0146114
0.0273365
0.0358187
0.0413613
0.0445849
0.0459903
0.0460644
0.0452259
0.0437965
0.0420039
0.0399995
0.0378789
0.0357001
0.033497
0.0312885
0.0290844
0.0268888
0.0247032
0.0225275
0.0203607
0.0182018
0.0160488
0.0139008
0.0117566
0.0096154
0.00747642
0.00533908
0.00320286
0.0010674
-0.117693
-0.122107
-0.123432
-0.121816
-0.115699
-0.106076
-0.0926603
-0.0823159
-0.0838133
-0.0953752
-0.100345
-0.092109
-0.0757715
-0.0541894
-0.0290525
-0.00502532
0.0146922
0.0286942
0.0377131
0.0430742
0.0458838
0.0469194
0.0467274
0.0457084
0.0441555
0.0422748
0.0402049
0.0380343
0.035817
0.0335844
0.0313532
0.0291319
0.0269235
0.0247286
0.022546
0.0203741
0.0182109
0.0160552
0.0139052
0.0117597
0.00961751
0.00747779
0.00533993
0.0032033
0.0010675
-0.183301
-0.186296
-0.197457
-0.221652
-0.260182
-0.294985
-0.300671
-0.266622
-0.193322
-0.0935372
0.00848167
0.0879162
0.132717
0.144979
0.137233
0.121341
0.104283
0.0892267
0.0768736
0.0671489
0.0596681
0.0539711
0.0496054
0.0461711
0.0433487
0.0409054
0.0386823
0.036577
0.034527
0.0324964
0.0304656
0.0284252
0.0263714
0.0243037
0.0222233
0.0201318
0.0180314
0.0159235
0.0138097
0.0116915
0.00956984
0.00744564
0.00531966
0.00319246
0.00106439
-0.173473
-0.17748
-0.194478
-0.22937
-0.279554
-0.325044
-0.339688
-0.312202
-0.240863
-0.137628
-0.0255593
0.063564
0.117039
0.135604
0.130804
0.115848
0.0994389
0.0852583
0.0741216
0.0655059
0.0588422
0.0536754
0.0496119
0.046321
0.0435463
0.0411004
0.0388528
0.0367166
0.0346367
0.0325803
0.0305286
0.0284719
0.0264057
0.0243288
0.0222415
0.020145
0.0180405
0.0159299
0.0138142
0.0116946
0.00957195
0.00744703
0.00532047
0.00319287
0.0010645
-0.183666
-0.179484
-0.200958
-0.245245
-0.30658
-0.361522
-0.3885
-0.364826
-0.295192
-0.191127
-0.0735675
0.0240563
0.0855161
0.110103
0.110477
0.0997224
0.087014
0.0763241
0.0683528
0.0620831
0.0569795
0.0528012
0.0493187
0.0463335
0.0436972
0.0412972
0.0390491
0.0368919
0.0347846
0.0327007
0.0306242
0.0285463
0.0264627
0.0243719
0.0222737
0.0201687
0.0180581
0.0159426
0.0138233
0.0117009
0.0095762
0.00744983
0.0053221
0.00319367
0.00106469
-0.172477
-0.169459
-0.189297
-0.23206
-0.291556
-0.347333
-0.377014
-0.364258
-0.3029
-0.20866
-0.102911
-0.0115183
0.0476453
0.0727814
0.0765462
0.0716235
0.0667711
0.0629379
0.0602153
0.0573991
0.0544104
0.0514961
0.0487573
0.0461941
0.0437796
0.0414802
0.0392627
0.037099
0.0349678
0.0328541
0.030748
0.0286437
0.026538
0.0244292
0.0223169
0.020201
0.0180819
0.01596
0.0138359
0.0117099
0.00958252
0.00745417
0.00532504
0.00319519
0.00106511
-0.203426
-0.158832
-0.176891
-0.21187
-0.26466
-0.314391
-0.340537
-0.328994
-0.275693
-0.195102
-0.10738
-0.0331247
0.0140231
0.036363
0.0428071
0.0425796
0.0430603
0.0470904
0.0502604
0.0514418
0.0510409
0.0496839
0.0478396
0.0457858
0.0436577
0.0415119
0.0393686
0.0372326
0.0351034
0.0329787
0.0308561
0.0287339
0.026611
0.024487
0.0223618
0.0202353
0.0181078
0.0159793
0.0138501
0.0117203
0.00958984
0.00745916
0.00532816
0.00319691
0.00106565
)
;

boundaryField
{
    inlet
    {
        type            zeroGradient;
    }
    outlet
    {
        type            fixedValue;
        value           uniform 0;
    }
    upperWall
    {
        type            zeroGradient;
    }
    lowerWall
    {
        type            zeroGradient;
    }
    frontAndBack
    {
        type            empty;
    }
}


// ************************************************************************* //
