/*--------------------------------*- C++ -*----------------------------------*\
  =========                 |
  \\      /  F ield         | OpenFOAM: The Open Source CFD Toolbox
   \\    /   O peration     | Website:  https://openfoam.org
    \\  /    A nd           | Version:  10
     \\/     M anipulation  |
\*---------------------------------------------------------------------------*/
FoamFile
{
    format      ascii;
    class       surfaceScalarField;
    location    "2.85";
    object      phi;
}
// * * * * * * * * * * * * * * * * * * * * * * * * * * * * * * * * * * * * * //

dimensions      [0 3 -1 0 0 0 0];

internalField   nonuniform List<scalar> 
890
(
0.00984036
0.000159644
0.00973218
0.000108181
0.00947871
0.000253463
0.0095043
-2.55826e-05
0.000114868
0.00938943
0.0101191
4.05352e-05
0.0101843
4.30371e-05
0.0104114
2.63345e-05
0.0104439
-5.80522e-05
-0.000105127
0.0106638
0.0100736
-3.30767e-05
0.0102193
-0.000102649
0.0103857
-0.000140029
0.0104888
-0.000161218
-0.000242117
0.0106258
0.0100904
-0.00012344
0.0102211
-0.000233377
0.0103233
-0.00024221
0.0103979
-0.000235823
-0.000284184
0.0104399
0.00987656
0.00964318
0.00940097
0.00916515
0.00888097
0.00917071
-0.000227537
0.000446254
0.00921816
-0.000244351
0.0001969
0.0094555
-0.000259443
2.21015e-05
0.00982411
-0.000327559
-4.10463e-05
0.0102351
-0.000607699
0.000196713
0.0106302
-0.00120354
0.000808443
0.010926
-0.00193568
0.00163988
0.010955
-0.00267462
0.00264561
0.0107254
-0.00336751
0.00359715
0.010238
-0.00369425
0.00418162
0.00942508
-0.00360456
0.00441748
0.0084437
-0.00307658
0.00405796
0.00739214
-0.00195157
0.00300314
0.00629986
-0.000799149
0.00189142
0.0054382
-0.000235317
0.00109698
0.00505179
-8.5592e-05
0.000472007
0.00507594
3.93172e-05
-6.34691e-05
0.00528983
0.000222858
-0.000436751
0.0055054
0.000387457
-0.00060302
0.00565573
0.000453754
-0.000604092
0.00573923
0.000434273
-0.00051777
0.00577799
0.000366932
-0.000405691
0.00579329
0.00028585
-0.00030115
0.00579857
0.000211107
-0.000216389
0.00580046
0.000150588
-0.000152472
0.00580154
0.000105061
-0.000106143
0.00580256
7.22651e-05
-7.32872e-05
0.0058036
4.92307e-05
-5.02719e-05
0.00580459
3.32893e-05
-3.42737e-05
0.00580545
2.23561e-05
-2.32169e-05
0.00580616
1.49049e-05
-1.5615e-05
0.00580672
9.85586e-06
-1.04166e-05
0.00580715
6.45498e-06
-6.88397e-06
0.00580747
4.18024e-06
-4.49954e-06
0.0058077
2.67055e-06
-2.90236e-06
0.00580786
1.67837e-06
-1.84438e-06
0.00580798
1.03169e-06
-1.14762e-06
0.00580806
6.20906e-07
-7.00847e-07
0.00580811
3.5735e-07
-4.11857e-07
0.00580815
2.01896e-07
-2.37607e-07
0.00580817
1.0329e-07
-1.27046e-07
0.00580819
5.46067e-08
-7.08278e-08
0.0058082
2.78041e-08
-3.76646e-08
0.00580821
2.0347e-08
-2.80359e-08
3.09313e-08
-3.6574e-08
0.0106721
-0.000235805
0.0107349
-0.00030714
0.0109187
-0.000443228
0.011163
-0.000571906
0.0113194
-0.000764069
0.0113448
-0.00122895
0.01118
-0.00177086
0.0108059
-0.00230052
0.0102527
-0.00281435
0.00947216
-0.00291367
0.00838974
-0.00252214
0.00725919
-0.00194604
0.00639161
-0.00108399
0.00575231
-0.000159851
0.00520898
0.000308011
0.00484519
0.000278199
0.00473139
0.000153112
0.00481883
0.000135427
0.00500701
0.000199273
0.00520678
0.000253982
0.00537636
0.000264697
0.00550482
0.000238464
0.00559625
0.00019442
0.00565931
0.000148053
0.00570223
0.000107671
0.00573134
7.59433e-05
0.00575112
5.24879e-05
0.00576458
3.57755e-05
0.00577373
2.41329e-05
0.00577995
1.61353e-05
0.00578416
1.06925e-05
0.005787
7.01712e-06
0.00578891
4.55068e-06
0.00579018
2.90969e-06
0.00579102
1.82702e-06
0.00579158
1.12017e-06
0.00579195
6.66009e-07
0.00579219
3.80497e-07
0.00579234
2.01194e-07
0.00579244
1.01413e-07
0.00579251
3.82287e-08
0.00579255
1.19237e-08
0.00579258
1.40872e-09
0.0057926
3.53935e-10
1.64646e-08
0.010687
-0.00029697
0.0107239
-0.000344098
0.0107851
-0.000504408
0.010847
-0.000633814
0.0108711
-0.000788166
0.0107409
-0.00109874
0.0104679
-0.00149787
0.0100925
-0.00192509
0.00949231
-0.00221416
0.00875165
-0.00217301
0.00795305
-0.00172354
0.00717689
-0.00116988
0.00671008
-0.000617174
0.0065887
-3.84666e-05
0.00654327
0.000353433
0.00633143
0.000490047
0.0060028
0.000481738
0.00570983
0.000428401
0.00553291
0.000376195
0.0054637
0.000323191
0.00546254
0.000265857
0.00549321
0.000207793
0.00553269
0.000154936
0.00556954
0.000111209
0.00559964
7.75709e-05
0.00562258
5.29945e-05
0.00563941
3.566e-05
0.00565148
2.37106e-05
0.00566001
1.55968e-05
0.005666
1.01451e-05
0.00567018
6.51258e-06
0.00567308
4.11545e-06
0.00567509
2.54614e-06
0.00567646
1.53704e-06
0.00567739
8.96204e-07
0.00567802
4.95606e-07
0.00567843
2.5395e-07
0.0056787
1.08828e-07
0.00567887
2.73994e-08
0.00567898
-8.61489e-09
0.00567905
-3.17973e-08
0.0056791
-3.22599e-08
0.00567913
-2.59757e-08
0.00567915
-2.02245e-08
4.77245e-10
0.010445
-0.000302033
0.010444
-0.000343078
0.010359
-0.000419381
0.0102105
-0.000485312
0.0100286
-0.000606345
0.00965836
-0.000728463
0.00913921
-0.000978725
0.00853781
-0.0013237
0.00765908
-0.00133542
0.00650311
-0.00101703
0.00539243
-0.000612856
0.00449564
-0.000273097
0.00391786
-3.93943e-05
0.00373161
0.00014778
0.00378501
0.000300037
0.00390489
0.000370168
0.00403158
0.000355045
0.00416537
0.000294608
0.00431514
0.000226426
0.00447049
0.000167838
0.00461453
0.000121822
0.00473567
8.66502e-05
0.00483025
6.03562e-05
0.00490023
4.123e-05
0.00495011
2.76887e-05
0.00498479
1.83197e-05
0.00500849
1.19557e-05
0.00502451
7.69174e-06
0.00503524
4.86739e-06
0.00504237
3.01628e-06
0.00504707
1.8173e-06
0.00505013
1.05361e-06
0.0050521
5.72699e-07
0.00505336
2.80849e-07
0.00505415
1.06723e-07
0.00505463
1.02333e-08
0.00505492
-3.90576e-08
0.0050551
-6.32502e-08
0.00505519
-6.63943e-08
0.00505524
-6.05052e-08
0.00505527
-5.48329e-08
0.00505527
-4.15516e-08
0.00505528
-3.09205e-08
0.00505528
-2.2777e-08
-6.18026e-09
0.00857893
0.00823586
0.00781647
0.00733116
0.00672482
0.00599635
0.00501763
0.00369393
0.00235851
0.00134148
0.00072862
0.000455523
0.000416128
0.000563909
0.000863946
0.00123411
0.00158916
0.00188377
0.00211019
0.00227803
0.00239985
0.0024865
0.00254686
0.00258809
0.00261578
0.0026341
0.00264605
0.00265375
0.00265861
0.00266163
0.00266345
0.0026645
0.00266507
0.00266535
0.00266546
0.00266547
0.00266543
0.00266537
0.0026653
0.00266524
0.00266519
0.00266515
0.00266511
0.00266509
-0.000270344
0.000270344
-0.000786199
0.000515855
-0.00172153
0.000935329
-0.00291046
0.00118893
-0.00402259
0.00111213
-0.00480053
0.000777939
-0.005058
0.000257469
-0.00473393
-0.000324067
-0.00387646
-0.000857474
-0.00257182
-0.00130464
-0.00100738
-0.00156444
0.000564643
-0.00157202
0.0019068
-0.00134215
0.00285197
-0.000945172
0.0033768
-0.000524833
0.00356459
-0.000187783
0.00353842
2.617e-05
0.00340897
0.000129441
0.00324793
0.000161048
0.00309609
0.000151835
0.00297029
0.000125799
0.0028739
9.63941e-05
0.00280396
6.99398e-05
0.00275521
4.8746e-05
0.00272226
3.29525e-05
0.00270052
2.17429e-05
0.00268646
1.40569e-05
0.00267754
8.92297e-06
0.00267198
5.56025e-06
0.00266859
3.39144e-06
0.00266657
2.01253e-06
0.00266543
1.1474e-06
0.00266481
6.17655e-07
0.00266451
2.97599e-07
0.0026644
1.13497e-07
0.00266438
1.34347e-08
0.00266442
-4.1181e-08
0.00266448
-6.03513e-08
0.00266455
-6.72673e-08
0.00266462
-6.31373e-08
0.00266467
-5.28268e-08
0.00266471
-4.38233e-08
0.00266474
-3.22355e-08
0.00266477
-2.13012e-08
-5.61696e-09
-0.000571452
0.000841796
-0.00131237
0.00125677
-0.00215917
0.00178213
-0.00293326
0.00196302
-0.00350817
0.00168704
-0.00380021
0.00106998
-0.00369043
0.000147694
-0.00317582
-0.000838674
-0.00223998
-0.00179332
-0.000947421
-0.0025972
0.000548326
-0.00306019
0.00206822
-0.00309191
0.0034232
-0.00269714
0.00447161
-0.00199358
0.00513516
-0.00118838
0.00546376
-0.000516386
0.00557838
-8.84479e-05
0.00557481
0.000133008
0.00551935
0.000216511
0.00544394
0.000227241
0.00536533
0.000204409
0.00529309
0.000168637
0.00523183
0.000131194
0.00518282
9.77652e-05
0.00514529
7.04813e-05
0.00511754
4.94874e-05
0.0050976
3.39967e-05
0.00508359
2.29323e-05
0.00507393
1.5225e-05
0.00506737
9.9544e-06
0.00506297
6.40822e-06
0.00506006
4.05272e-06
0.00505817
2.51286e-06
0.00505695
1.51612e-06
0.00505618
8.83032e-07
0.0050557
4.90828e-07
0.00505542
2.45944e-07
0.00505525
1.07903e-07
0.00505515
2.72377e-08
0.0050551
-1.41285e-08
0.00505508
-3.02724e-08
0.00505507
-3.29516e-08
0.00505507
-2.90016e-08
0.00505507
-1.91187e-08
1.49755e-09
-0.000160203
0.001002
-0.000261162
0.00135773
-0.000413159
0.00193413
-0.000494257
0.00204412
-0.000456205
0.00164899
-0.000271847
0.00088562
7.76459e-05
-0.000201799
0.00068505
-0.00144608
0.00148188
-0.00259015
0.00239
-0.00350532
0.00340218
-0.00407237
0.00435142
-0.00404116
0.00513207
-0.00347778
0.00575836
-0.00261987
0.00618028
-0.00161031
0.00634666
-0.000682762
0.00632159
-6.33747e-05
0.00621367
0.000240926
0.00610107
0.000329114
0.00600806
0.00032025
0.00593534
0.000277128
0.00587747
0.000226509
0.00583047
0.000178194
0.00579243
0.000135799
0.00576231
0.000100608
0.00573909
7.27036e-05
0.00572167
5.14218e-05
0.00570888
3.57127e-05
0.00569969
2.44189e-05
0.00569318
1.64668e-05
0.00568862
1.09618e-05
0.00568548
7.20209e-06
0.00568332
4.66829e-06
0.00568186
2.97826e-06
0.00568088
1.86421e-06
0.00568023
1.14241e-06
0.0056798
6.75018e-07
0.00567952
3.8607e-07
0.00567934
2.05291e-07
0.00567923
9.96492e-08
0.00567916
3.92937e-08
0.00567911
1.24888e-08
0.00567908
-3.13934e-10
0.00567906
7.45867e-10
1.73663e-08
0.000412324
0.000589675
0.00105667
0.000713385
0.00171141
0.00127939
0.00240747
0.00134806
0.00305457
0.00100189
0.00368208
0.00025811
0.00430648
-0.000826203
0.00493676
-0.00207636
0.00556045
-0.00321383
0.00610586
-0.00405073
0.00658891
-0.00455541
0.00692631
-0.00437856
0.00699336
-0.00354483
0.00693851
-0.00256502
0.00692756
-0.00159935
0.00691633
-0.000671532
0.00681486
3.80893e-05
0.00662078
0.000435006
0.00640587
0.000544025
0.00622211
0.000504009
0.00608665
0.00041259
0.00599397
0.000319192
0.00593194
0.000240224
0.00589007
0.000177663
0.00586124
0.00012944
0.005841
9.29466e-05
0.00582661
6.58079e-05
0.00581635
4.59729e-05
0.00580905
3.1715e-05
0.0058039
2.16201e-05
0.00580029
1.457e-05
0.00579779
9.70578e-06
0.00579607
6.38934e-06
0.0057949
4.15183e-06
0.0057941
2.65763e-06
0.00579357
1.6738e-06
0.00579322
1.02942e-06
0.00579298
6.20055e-07
0.00579283
3.57963e-07
0.00579273
2.00546e-07
0.00579266
1.03126e-07
0.00579262
5.49401e-08
0.00579259
2.69437e-08
0.00579258
2.03804e-08
3.1386e-08
0.00103593
0.00194621
0.0032477
0.00455472
0.00575332
0.00681987
0.00763354
0.00820279
0.00858611
0.00871699
0.00857906
0.00825846
0.00771677
0.00704317
0.00654079
0.00634126
0.00631588
0.00631414
0.00625514
0.00615506
0.00604988
0.00596338
0.00590246
0.00586373
0.0058407
0.0058275
0.00582002
0.00581572
0.00581316
0.00581157
0.00581052
0.00580981
0.00580932
0.00580897
0.00580872
0.00580855
0.00580844
0.00580835
0.0058083
0.00580826
0.00580824
0.00580822
0.00580821
0.00580821
)
;

boundaryField
{
    inlet
    {
        type            calculated;
        value           nonuniform List<scalar> 5(-0.01 -0.01 -0.01 -0.01 -0.01);
    }
    outlet
    {
        type            calculated;
        value           nonuniform List<scalar> 10(0.00580821 0.00579261 0.00567916 0.00505529 0.00266509 0.00266477 0.00505506 0.00567905 0.00579256 0.0058082);
    }
    upperWall
    {
        type            calculated;
        value           uniform 0;
    }
    lowerWall
    {
        type            calculated;
        value           uniform 0;
    }
    frontAndBack
    {
        type            empty;
        value           nonuniform List<scalar> 0();
    }
}


// ************************************************************************* //
