/*--------------------------------*- C++ -*----------------------------------*\
  =========                 |
  \\      /  F ield         | OpenFOAM: The Open Source CFD Toolbox
   \\    /   O peration     | Website:  https://openfoam.org
    \\  /    A nd           | Version:  10
     \\/     M anipulation  |
\*---------------------------------------------------------------------------*/
FoamFile
{
    format      ascii;
    class       volVectorField;
    location    "2.85";
    object      U;
}
// * * * * * * * * * * * * * * * * * * * * * * * * * * * * * * * * * * * * * //

dimensions      [0 1 -1 0 0 0 0];

internalField   nonuniform List<vector> 
475
(
(0.966539 0.0166266 0)
(0.986425 0.00373365 0)
(0.937431 0.0340204 0)
(0.973305 -0.00590485 0)
(0.910036 0.0292587 0)
(0.996979 0.00938418 0)
(1.01491 0.0136314 0)
(1.02381 0.0147532 0)
(1.04342 0.00173882 0)
(1.05337 -0.00267474 0)
(0.998938 0.00100552 0)
(1.0102 -0.00266267 0)
(1.02647 -0.00821186 0)
(1.03876 -0.0118975 0)
(1.05396 -0.019484 0)
(0.999469 -0.00975063 0)
(1.01029 -0.0210475 0)
(1.02411 -0.022752 0)
(1.0337 -0.0227175 0)
(1.04056 -0.0303638 0)
(0.981244 -0.00926524 0)
(0.969134 -0.0200481 0)
(0.951963 -0.0221938 0)
(0.9327 -0.0224006 0)
(0.904124 -0.0248284 0)
(0.945866 -0.0302349 0)
(0.929137 -0.0289475 0)
(0.919231 -0.0321682 0)
(0.945708 -0.0367947 0)
(0.989878 -0.0630592 0)
(1.03589 -0.122036 0)
(1.08958 -0.19101 0)
(1.11558 -0.266106 0)
(1.10053 -0.345355 0)
(1.06787 -0.392914 0)
(0.991744 -0.400394 0)
(0.886871 -0.358764 0)
(0.789665 -0.253126 0)
(0.67945 -0.14234 0)
(0.573316 -0.0737004 0)
(0.512517 -0.0314412 0)
(0.500152 0.00663494 0)
(0.516334 0.0396682 0)
(0.540225 0.0585911 0)
(0.559213 0.0624874 0)
(0.570628 0.0561669 0)
(0.576309 0.0453144 0)
(0.578717 0.0340503 0)
(0.579605 0.0244429 0)
(0.579917 0.0170613 0)
(0.580063 0.0117159 0)
(0.58018 0.00797044 0)
(0.580295 0.00539095 0)
(0.580405 0.0036297 0)
(0.5805 0.00243257 0)
(0.580582 0.00162148 0)
(0.580645 0.00107379 0)
(0.580696 0.00070553 0)
(0.580733 0.000459165 0)
(0.58076 0.000295344 0)
(0.58078 0.000187385 0)
(0.580793 0.000116592 0)
(0.580803 7.12519e-05 0)
(0.580809 4.19171e-05 0)
(0.580813 2.42797e-05 0)
(0.580817 1.30243e-05 0)
(0.580818 7.274e-06 0)
(0.58082 3.91045e-06 0)
(0.580821 2.88118e-06 0)
(0.580821 3.67005e-06 0)
(1.0697 -0.0202265 0)
(1.07405 -0.0256365 0)
(1.07883 -0.0278943 0)
(1.0976 -0.0358708 0)
(1.11646 -0.0558978 0)
(1.1304 -0.107152 0)
(1.14061 -0.179268 0)
(1.11566 -0.249122 0)
(1.0607 -0.30837 0)
(1.00059 -0.328405 0)
(0.90119 -0.304644 0)
(0.772061 -0.241446 0)
(0.67334 -0.123988 0)
(0.602723 -0.00829305 0)
(0.542344 0.032004 0)
(0.496451 0.0173357 0)
(0.473104 0.00267973 0)
(0.473632 0.00667348 0)
(0.489587 0.0185271 0)
(0.510524 0.0272118 0)
(0.529674 0.0295666 0)
(0.544691 0.0271149 0)
(0.555596 0.0223684 0)
(0.56319 0.0172092 0)
(0.56837 0.0126351 0)
(0.571882 0.00899127 0)
(0.574264 0.00626606 0)
(0.575882 0.00430481 0)
(0.576985 0.00292642 0)
(0.577732 0.00197196 0)
(0.57824 0.00131744 0)
(0.578581 0.000872078 0)
(0.578812 0.000571156 0)
(0.578966 0.000369513 0)
(0.579068 0.000235586 0)
(0.579136 0.000147532 0)
(0.57918 9.02145e-05 0)
(0.57921 5.37747e-05 0)
(0.579228 3.0407e-05 0)
(0.57924 1.68143e-05 0)
(0.579249 8.15086e-06 0)
(0.579253 4.00532e-06 0)
(0.579257 1.87333e-06 0)
(0.579259 1.34378e-06 0)
(0.579261 2.59117e-06 0)
(1.06732 -0.0262185 0)
(1.07276 -0.030329 0)
(1.07629 -0.0526892 0)
(1.07873 -0.0699902 0)
(1.08116 -0.0888024 0)
(1.08268 -0.132499 0)
(1.07293 -0.17823 0)
(1.0368 -0.221427 0)
(0.980007 -0.269291 0)
(0.917936 -0.27095 0)
(0.841959 -0.21614 0)
(0.747577 -0.161737 0)
(0.680413 -0.103139 0)
(0.662002 -0.0276652 0)
(0.662378 0.0232498 0)
(0.649473 0.0335969 0)
(0.616249 0.0260475 0)
(0.581144 0.0216891 0)
(0.55778 0.0234168 0)
(0.546905 0.0256053 0)
(0.544641 0.024974 0)
(0.546981 0.0217434 0)
(0.550995 0.0173495 0)
(0.555059 0.0130054 0)
(0.558507 0.00933892 0)
(0.561189 0.00651573 0)
(0.563177 0.00445939 0)
(0.564609 0.00301114 0)
(0.565626 0.00201184 0)
(0.566339 0.00133122 0)
(0.566839 0.000871918 0)
(0.567184 0.000564693 0)
(0.567425 0.000360539 0)
(0.567589 0.000226245 0)
(0.567701 0.000138626 0)
(0.567777 8.21313e-05 0)
(0.567826 4.65646e-05 0)
(0.56786 2.4564e-05 0)
(0.567881 1.11878e-05 0)
(0.567894 4.25117e-06 0)
(0.567903 -3.99305e-08 0)
(0.567908 -1.3595e-06 0)
(0.567912 -1.48186e-06 0)
(0.567914 -1.20886e-06 0)
(0.567916 7.57759e-07 0)
(1.04558 -0.0346208 0)
(1.0457 -0.0380701 0)
(1.0404 -0.0496306 0)
(1.03139 -0.0610198 0)
(1.01235 -0.0736153 0)
(0.989286 -0.0925995 0)
(0.954843 -0.123979 0)
(0.886179 -0.158083 0)
(0.805226 -0.174169 0)
(0.713251 -0.169322 0)
(0.597192 -0.130872 0)
(0.48447 -0.0722699 0)
(0.410137 -0.0213773 0)
(0.37874 0.0194467 0)
(0.37569 0.0502769 0)
(0.383779 0.0661929 0)
(0.39497 0.0680605 0)
(0.408027 0.0603028 0)
(0.422694 0.0482564 0)
(0.43853 0.0362788 0)
(0.454034 0.0262872 0)
(0.467642 0.0185545 0)
(0.478578 0.0128173 0)
(0.486826 0.00869815 0)
(0.49278 0.00581807 0)
(0.496951 0.00384503 0)
(0.499818 0.00251423 0)
(0.50176 0.00162675 0)
(0.503066 0.00104032 0)
(0.503935 0.000655985 0)
(0.504511 0.000406259 0)
(0.504886 0.000246 0)
(0.50513 0.000143909 0)
(0.505286 8.04115e-05 0)
(0.505384 4.1333e-05 0)
(0.505445 1.79374e-05 0)
(0.505482 5.14693e-06 0)
(0.505504 -2.07923e-06 0)
(0.505516 -5.30308e-06 0)
(0.505523 -5.92817e-06 0)
(0.505526 -6.22381e-06 0)
(0.505527 -5.07372e-06 0)
(0.505529 -3.72628e-06 0)
(0.505528 -2.86711e-06 0)
(0.505529 -6.92004e-07 0)
(0.87357 -0.0236421 0)
(0.842385 -0.0287102 0)
(0.802171 -0.0320341 0)
(0.761966 -0.032645 0)
(0.706686 -0.0453019 0)
(0.642723 -0.0492613 0)
(0.569175 -0.0660088 0)
(0.440792 -0.102786 0)
(0.288506 -0.086207 0)
(0.171398 -0.0261704 0)
(0.0958033 0.0122232 0)
(0.0536734 0.0190234 0)
(0.0393407 0.0146566 0)
(0.0460857 0.013379 0)
(0.0704341 0.0131322 0)
(0.10488 0.0104218 0)
(0.14132 0.00569394 0)
(0.174041 0.00165371 0)
(0.200185 -0.000279262 0)
(0.21988 -0.000677693 0)
(0.234295 -0.000506859 0)
(0.244638 -0.000274396 0)
(0.251913 -0.000118538 0)
(0.256929 -3.91905e-05 0)
(0.260324 -8.13868e-06 0)
(0.262587 -1.49181e-06 0)
(0.264073 -4.82146e-06 0)
(0.265036 -1.10057e-05 0)
(0.26565 -1.67274e-05 0)
(0.266034 -2.08051e-05 0)
(0.266269 -2.29119e-05 0)
(0.266408 -2.32361e-05 0)
(0.266486 -2.23171e-05 0)
(0.266526 -2.02777e-05 0)
(0.266544 -1.79718e-05 0)
(0.266549 -1.52757e-05 0)
(0.266547 -1.25888e-05 0)
(0.266541 -1.02849e-05 0)
(0.266534 -7.87859e-06 0)
(0.266528 -6.20481e-06 0)
(0.266521 -4.78298e-06 0)
(0.266517 -3.26269e-06 0)
(0.266513 -2.44195e-06 0)
(0.26651 -1.69085e-06 0)
(0.266509 -5.42664e-07 0)
(-0.0106996 -0.0214486 0)
(-0.0407121 -0.00427624 0)
(-0.112719 0.03409 0)
(-0.234702 0.0629039 0)
(-0.363573 0.0638872 0)
(-0.461441 0.0484378 0)
(-0.506146 0.0221143 0)
(-0.496304 -0.00689911 0)
(-0.432965 -0.037199 0)
(-0.322207 -0.0608245 0)
(-0.176935 -0.0734652 0)
(-0.0191273 -0.0698054 0)
(0.127629 -0.0549407 0)
(0.24291 -0.0337099 0)
(0.316759 -0.0126116 0)
(0.351844 0.00307288 0)
(0.358631 0.0112379 0)
(0.349252 0.0133796 0)
(0.3335 0.012039 0)
(0.317221 0.00937937 0)
(0.303092 0.00667507 0)
(0.291931 0.00445856 0)
(0.283643 0.00283892 0)
(0.277759 0.00174011 0)
(0.273724 0.001032 0)
(0.27103 0.000591934 0)
(0.269272 0.000325648 0)
(0.268147 0.000168556 0)
(0.267439 7.85599e-05 0)
(0.267003 2.87381e-05 0)
(0.266741 2.29801e-06 0)
(0.266588 -1.07574e-05 0)
(0.266504 -1.61168e-05 0)
(0.26646 -1.74807e-05 0)
(0.266442 -1.64563e-05 0)
(0.266437 -1.46028e-05 0)
(0.266439 -1.23441e-05 0)
(0.266444 -9.87396e-06 0)
(0.266451 -8.0767e-06 0)
(0.266458 -6.15995e-06 0)
(0.266464 -4.63478e-06 0)
(0.266469 -3.62796e-06 0)
(0.266473 -2.42332e-06 0)
(0.266476 -1.50639e-06 0)
(0.266477 -5.32179e-07 0)
(-0.0239852 0.0817873 0)
(-0.0852804 0.114423 0)
(-0.173525 0.160323 0)
(-0.265021 0.17535 0)
(-0.338957 0.150852 0)
(-0.382815 0.0980865 0)
(-0.385355 0.0236345 0)
(-0.348254 -0.0659155 0)
(-0.272679 -0.147275 0)
(-0.159605 -0.214384 0)
(-0.018787 -0.249949 0)
(0.132023 -0.24766 0)
(0.274247 -0.209677 0)
(0.396062 -0.150242 0)
(0.484102 -0.0886143 0)
(0.534613 -0.0388004 0)
(0.555971 -0.00538312 0)
(0.560161 0.0131624 0)
(0.556213 0.0205284 0)
(0.549013 0.0212775 0)
(0.540898 0.0187951 0)
(0.533095 0.0151257 0)
(0.526263 0.0114197 0)
(0.520665 0.00823019 0)
(0.516304 0.00572817 0)
(0.513036 0.00388083 0)
(0.510663 0.00257335 0)
(0.508982 0.00167592 0)
(0.507816 0.00107314 0)
(0.507019 0.000675053 0)
(0.506484 0.000416189 0)
(0.506127 0.00024998 0)
(0.505895 0.00014538 0)
(0.505744 8.01956e-05 0)
(0.505648 4.07747e-05 0)
(0.505589 1.78266e-05 0)
(0.505552 4.32635e-06 0)
(0.505531 -2.08315e-06 0)
(0.505518 -5.38552e-06 0)
(0.505512 -6.57017e-06 0)
(0.505508 -6.00737e-06 0)
(0.505507 -5.17388e-06 0)
(0.505506 -4.05424e-06 0)
(0.505507 -2.74533e-06 0)
(0.505506 -5.86197e-07 0)
(-0.00720789 0.0737226 0)
(-0.020069 0.125235 0)
(-0.0342793 0.180667 0)
(-0.0520458 0.198451 0)
(-0.0545026 0.166552 0)
(-0.0438167 0.0988652 0)
(-0.0161848 -0.000811369 0)
(0.0331338 -0.117947 0)
(0.109719 -0.233451 0)
(0.199955 -0.328572 0)
(0.297082 -0.382483 0)
(0.389567 -0.383457 0)
(0.469831 -0.334213 0)
(0.539414 -0.2479 0)
(0.596608 -0.147418 0)
(0.630131 -0.0637411 0)
(0.637411 -0.0121618 0)
(0.628585 0.0127736 0)
(0.615853 0.0219794 0)
(0.605197 0.0235277 0)
(0.597045 0.0216492 0)
(0.590602 0.0183577 0)
(0.585362 0.0147053 0)
(0.581091 0.0112738 0)
(0.577667 0.00834604 0)
(0.574993 0.0060071 0)
(0.572965 0.00422624 0)
(0.571464 0.00291834 0)
(0.570377 0.00198299 0)
(0.569602 0.00132761 0)
(0.569059 0.000876168 0)
(0.56868 0.000569451 0)
(0.568422 0.000364128 0)
(0.568246 0.000228167 0)
(0.568127 0.000139446 0)
(0.568049 8.27609e-05 0)
(0.567996 4.64651e-05 0)
(0.567963 2.46737e-05 0)
(0.56794 1.13481e-05 0)
(0.567927 3.84472e-06 0)
(0.567918 6.48475e-08 0)
(0.567913 -1.34789e-06 0)
(0.567909 -1.75858e-06 0)
(0.567908 -1.14029e-06 0)
(0.567905 8.55765e-07 0)
(0.0171822 0.143992 0)
(0.0725983 0.154329 0)
(0.135428 0.218515 0)
(0.199342 0.22462 0)
(0.266785 0.178081 0)
(0.325857 0.0893541 0)
(0.396605 -0.0331871 0)
(0.469982 -0.160886 0)
(0.536972 -0.28037 0)
(0.599974 -0.37925 0)
(0.645946 -0.444465 0)
(0.678635 -0.437835 0)
(0.692869 -0.373623 0)
(0.686862 -0.287267 0)
(0.685879 -0.18319 0)
(0.69268 -0.0776905 0)
(0.690291 -0.0013903 0)
(0.673804 0.0349447 0)
(0.650987 0.0440089 0)
(0.630116 0.0407363 0)
(0.614249 0.0339321 0)
(0.603192 0.0270853 0)
(0.595759 0.0210962 0)
(0.590771 0.0160642 0)
(0.587363 0.0119487 0)
(0.584981 0.00868599 0)
(0.583292 0.00618295 0)
(0.582085 0.00432077 0)
(0.581224 0.0029718 0)
(0.580612 0.00201588 0)
(0.580184 0.00135052 0)
(0.579884 0.000893979 0)
(0.579679 0.000584768 0)
(0.579538 0.00037754 0)
(0.579442 0.000240065 0)
(0.579379 0.000150171 0)
(0.579335 9.1481e-05 0)
(0.579308 5.44405e-05 0)
(0.579289 3.08772e-05 0)
(0.579276 1.6791e-05 0)
(0.579269 8.226e-06 0)
(0.579264 4.09423e-06 0)
(0.57926 1.7504e-06 0)
(0.579259 1.36241e-06 0)
(0.579256 2.6566e-06 0)
(0.12391 -0.0441816 0)
(0.106481 -0.0076169 0)
(0.261696 0.0295543 0)
(0.382506 0.0472918 0)
(0.506995 0.0265509 0)
(0.62061 -0.0356574 0)
(0.72898 -0.127851 0)
(0.808399 -0.246253 0)
(0.857319 -0.352383 0)
(0.888561 -0.421101 0)
(0.876498 -0.464897 0)
(0.839623 -0.444385 0)
(0.797017 -0.345694 0)
(0.730338 -0.236312 0)
(0.666721 -0.145541 0)
(0.637592 -0.0623141 0)
(0.63265 0.00693438 0)
(0.632761 0.0479383 0)
(0.62918 0.0616542 0)
(0.620425 0.0580464 0)
(0.609567 0.0473653 0)
(0.599811 0.0359706 0)
(0.592562 0.0263926 0)
(0.587794 0.0190528 0)
(0.5849 0.0136275 0)
(0.583225 0.00967356 0)
(0.582277 0.00681324 0)
(0.581735 0.00475811 0)
(0.581418 0.00329302 0)
(0.581221 0.00225757 0)
(0.581096 0.00153244 0)
(0.581011 0.00102937 0)
(0.580953 0.000683827 0)
(0.580912 0.00044878 0)
(0.580882 0.000290457 0)
(0.580863 0.000185194 0)
(0.580848 0.000115554 0)
(0.580839 7.07573e-05 0)
(0.580832 4.17275e-05 0)
(0.580828 2.41109e-05 0)
(0.580825 1.2956e-05 0)
(0.580823 7.26653e-06 0)
(0.580822 3.85791e-06 0)
(0.580821 2.87407e-06 0)
(0.58082 3.69122e-06 0)
)
;

boundaryField
{
    inlet
    {
        type            fixedValue;
        value           uniform (1 0 0);
    }
    outlet
    {
        type            zeroGradient;
    }
    upperWall
    {
        type            noSlip;
    }
    lowerWall
    {
        type            noSlip;
    }
    frontAndBack
    {
        type            empty;
    }
}


// ************************************************************************* //
