/*--------------------------------*- C++ -*----------------------------------*\
  =========                 |
  \\      /  F ield         | OpenFOAM: The Open Source CFD Toolbox
   \\    /   O peration     | Website:  https://openfoam.org
    \\  /    A nd           | Version:  10
     \\/     M anipulation  |
\*---------------------------------------------------------------------------*/
FoamFile
{
    format      ascii;
    class       volScalarField;
    location    "4.975";
    object      p;
}
// * * * * * * * * * * * * * * * * * * * * * * * * * * * * * * * * * * * * * //

dimensions      [0 2 -2 0 0 0 0];

internalField   nonuniform List<scalar> 
496
(
28.0861
28.2894
25.1852
18.7045
28.7975
29.5005
25.4183
18.8498
33.8467
31.7662
23.6941
13.2983
41.2995
38.7912
35.3058
20.5127
10.076
1.07178
10.0824
1.03312
-1.27889
-6.64984
-28.8453
-54.3143
-6.23196
-11.1674
-14.2692
-15.8241
-6.83999
-12.6453
-16.691
-18.979
-1.45093
-3.61585
-11.8505
-17.2796
-23.741
-8.58858
-15.8642
-20.9626
-16.3044
-16.0682
-15.4749
-14.7245
-13.9152
-13.1049
-11.9762
-10.978
-10.0349
-9.46972
-9.28588
-9.51475
-10.0348
-10.3678
-10.3018
-9.69813
-9.86536
-10.4945
-10.5961
-9.66616
-8.34454
-7.33108
-6.55994
-6.12182
-5.68664
-5.47705
-5.35314
-5.23755
-4.94424
-4.14254
-3.17645
-2.1962
-1.638
-1.22785
-0.915138
-0.632455
-0.376189
-0.260569
-0.139011
-0.0976656
-19.2926
-18.0623
-16.4943
-15.316
-14.3698
-13.2388
-11.8632
-10.4435
-9.34591
-8.88803
-8.87744
-9.03357
-9.56622
-10.4704
-10.6173
-10.1829
-10.0992
-10.4201
-10.5711
-9.91246
-8.82027
-7.352
-6.3432
-5.70937
-5.39388
-5.44004
-5.47201
-5.51267
-5.15748
-4.32716
-3.19601
-2.05732
-1.31402
-0.820167
-0.656478
-0.623491
-0.494773
-0.415152
-0.170012
-0.0967645
-18.353
-17.4456
-16.7633
-16.1704
-15.5062
-14.1548
-12.4723
-10.6248
-9.16134
-8.74022
-8.74859
-9.19949
-10.0548
-11.2419
-11.5803
-11.5353
-11.1618
-10.8391
-10.5058
-9.88768
-9.02626
-7.90155
-6.35337
-5.44654
-5.73434
-6.38746
-6.69558
-6.49885
-5.59298
-4.38263
-2.94961
-1.98045
-1.21195
-0.514154
-0.521352
-0.622728
-1.03884
-1.31489
-1.195
-0.569545
-15.5869
-15.2899
-16.6208
-16.7568
-16.8075
-14.6667
-11.8221
-8.73634
-7.34969
-6.75002
-6.93685
-7.69764
-9.34005
-11.0183
-11.5973
-12.4106
-12.2821
-12.5133
-12.2585
-12.0429
-10.7215
-7.16214
-3.98434
-2.31004
-3.51597
-5.11574
-6.50159
-7.11221
-6.34525
-4.84095
-2.80501
-1.39683
0.333322
0.477613
0.193373
-0.0605831
-1.09069
-1.52188
-2.17055
-1.47307
45.8122
47.4937
61.5715
73.5935
45.1434
46.4627
60.6964
72.8608
-30.5121
-38.6161
-28.711
-19.3708
-34.7487
-34.4359
-25.4863
-29.685
-20.1752
-19.5559
-21.0748
-19.5575
-17.2128
-15.3273
-14.2601
-11.4129
-9.36475
-8.63975
-7.72015
-8.036
-8.96103
-9.61381
-10.0126
-10.5156
-11.3788
-11.4339
-11.1096
-10.7178
-9.7218
-8.13934
-6.48807
-5.71288
-5.54097
-5.6526
-6.21426
-6.19018
-5.41145
-4.63715
-3.84029
-2.85834
-2.04939
-1.86516
-1.4124
-0.978852
-1.06953
-1.07494
-1.12411
-0.723774
-14.9832
-20.1815
-19.4783
-14.5168
-17.8417
-16.8921
-15.5615
-14.999
-14.9949
-12.8448
-9.68636
-7.73781
-6.75394
-6.23601
-6.39421
-6.80536
-7.67554
-8.71293
-9.37054
-9.97258
-10.4525
-10.5029
-10.0746
-9.44537
-8.44061
-6.93398
-5.35061
-4.48899
-4.06253
-3.62285
-4.33851
-4.69937
-4.53737
-4.60851
-3.73237
-2.21808
-1.19749
-0.3048
0.793761
0.454846
40.2305
36.8003
33.0903
16.805
32.0995
29.6657
20.8565
10.1931
27.0749
27.6547
23.3755
16.8325
26.307
26.7423
23.2795
16.6258
-35.0702
-61.2735
-5.33483
-9.9297
7.98043
-1.00093
8.0031
-1.17472
-30.3489
-15.7762
-7.1988
-7.04618
-3.23897
-4.09029
-8.51225
-12.7027
-8.416
-13.916
-17.1559
-17.71
-8.1139
-12.4122
-14.2579
-14.7477
-13.1597
-15.5264
-17.507
-16.7247
-15.6699
-17.4113
-18.3134
-18.3303
-16.2992
-13.5639
-9.75254
-6.29789
-4.0367
-1.85457
-1.97092
-3.60729
-5.74568
-6.96533
-8.22805
-9.93813
-11.3949
-13.0541
-12.5082
-11.5647
-9.62289
-7.28919
-4.97626
-3.13973
-2.75875
-2.90151
-4.16575
-4.9089
-5.4631
-5.18086
-4.42277
-3.22296
-0.80698
0.860387
2.7854
2.35323
-16.7857
-18.9929
-18.9392
-17.5289
-15.7668
-16.0138
-16.3298
-15.7099
-14.0643
-11.8194
-9.90995
-8.08356
-7.01947
-5.78179
-4.89365
-4.57218
-5.69391
-7.01344
-8.05067
-9.22879
-10.1346
-10.745
-10.8653
-9.92812
-8.28076
-6.50953
-5.38376
-4.60963
-4.50589
-4.45463
-4.6698
-4.79241
-4.69929
-4.19958
-3.26954
-2.45848
-1.25892
-0.403411
-0.284796
0.1774
-17.1237
-16.9364
-16.8067
-16.2173
-15.4879
-15.0769
-14.9771
-14.0537
-12.8744
-11.6645
-10.485
-9.03444
-7.62656
-6.45111
-5.43978
-5.25707
-5.94342
-7.1085
-8.01354
-8.62595
-9.10585
-9.35987
-9.50007
-8.93682
-8.10575
-7.10426
-6.28513
-5.65002
-4.98813
-4.63012
-4.06132
-3.8191
-3.44521
-3.20764
-3.00731
-2.7381
-2.4346
-1.62595
-0.901257
-0.0970835
-14.685
-14.8488
-15.4062
-15.7592
-15.7527
-15.2061
-14.6634
-13.8455
-12.714
-11.5059
-10.4256
-9.32499
-7.97788
-6.84112
-5.96105
-5.75712
-6.142
-7.03397
-7.79131
-8.22931
-8.6231
-8.91615
-9.07052
-8.57231
-7.78855
-6.87975
-6.14051
-5.58626
-5.10181
-4.72445
-4.1995
-3.85602
-3.48848
-3.33169
-3.10062
-2.66154
-2.17758
-1.52558
-0.86301
-0.194924
)
;

boundaryField
{
    inlet
    {
        type            zeroGradient;
    }
    outlet
    {
        type            fixedValue;
        value           uniform 0;
    }
    obstacle
    {
        type            zeroGradient;
    }
    upperWall
    {
        type            zeroGradient;
    }
    lowerWall
    {
        type            zeroGradient;
    }
    frontAndBack
    {
        type            empty;
    }
}


// ************************************************************************* //
