/*--------------------------------*- C++ -*----------------------------------*\
  =========                 |
  \\      /  F ield         | OpenFOAM: The Open Source CFD Toolbox
   \\    /   O peration     | Website:  https://openfoam.org
    \\  /    A nd           | Version:  10
     \\/     M anipulation  |
\*---------------------------------------------------------------------------*/
FoamFile
{
    format      ascii;
    class       volScalarField;
    location    "1.55";
    object      p;
}
// * * * * * * * * * * * * * * * * * * * * * * * * * * * * * * * * * * * * * //

dimensions      [0 2 -2 0 0 0 0];

internalField   nonuniform List<scalar> 
400
(
3.129e-09
7.33251e-06
9.34767e-05
0.000236805
0.000436748
0.000689307
0.000989067
0.00132942
0.00170257
0.00209955
0.00251035
0.00292401
0.00332883
0.00371268
0.00406332
0.0043689
0.00461839
0.00480243
0.00491647
0.00493447
-8.58358e-06
-2.18586e-06
8.41102e-05
0.000227048
0.000426575
0.000678889
0.000978698
0.0013195
0.00169358
0.00209203
0.00250477
0.00292099
0.00332882
0.00371598
0.00407007
0.004379
0.00463148
0.00481795
0.00493408
0.00495177
-9.65297e-05
-9.14096e-05
-3.05924e-06
0.000143535
0.000348522
0.000608121
0.000917037
0.00126874
0.00165544
0.00206811
0.00249663
0.00292967
0.00335499
0.00375981
0.00413105
0.00445582
0.00472192
0.00491886
0.00504178
0.00505988
-0.00024918
-0.000244992
-0.000152854
3.58968e-07
0.000215051
0.000487453
0.000812237
0.0011828
0.0015912
0.00202819
0.00248327
0.0029448
0.00339977
0.00383454
0.0042349
0.00458663
0.00487599
0.00509094
0.00522558
0.00524572
-0.000470772
-0.000467562
-0.000369885
-0.000207027
2.1739e-05
0.000312651
0.000660316
0.00105801
0.00149758
0.00196948
0.00246277
0.00296527
0.00346303
0.0039412
0.00438402
0.00477532
0.00509912
0.00534092
0.00549319
0.00551691
-0.000766564
-0.000764633
-0.000659683
-0.000484162
-0.000236907
7.83243e-05
0.000456055
0.000889404
0.00136999
0.0018879
0.00243168
0.00298857
0.0035435
0.0040801
0.00458064
0.00502632
0.00539796
0.00567754
0.00585488
0.00588415
-0.0011431
-0.00114298
-0.00102908
-0.000837923
-0.000567757
-0.000222323
0.000192809
0.000670587
0.00120237
0.00177788
0.00238515
0.00301086
0.00363875
0.00425078
0.00482678
0.00534462
0.0057808
0.00611214
0.00632439
0.00636201
-0.0016087
-0.00161124
-0.00148681
-0.00127711
-0.000979602
-0.000597984
-0.000137931
0.000393312
0.000986852
0.00163208
0.00231655
0.00302659
0.00374481
0.0044516
0.00512399
0.00573581
0.00625782
0.00665956
0.00692027
0.0069706
-0.00217362
-0.00218013
-0.00204373
-0.00181267
-0.00148336
-0.00105944
-0.000546724
4.73076e-05
0.000713512
0.00144107
0.00221721
0.00302787
0.00385532
0.00467867
0.00547228
0.00620517
0.00684086
0.00733863
0.00766721
0.00773759
-0.00285032
-0.00286273
-0.00271312
-0.002458
-0.00209236
-0.0016198
-0.00104638
-0.000379916
0.000370125
0.00119288
0.00207614
0.00300366
0.00396041
0.00492457
0.00586846
0.00675622
0.00754249
0.00817257
0.00859786
0.00870154
-0.00365383
-0.00367498
-0.00351124
-0.00322949
-0.00282282
-0.00229485
-0.00165212
-0.000903143
-5.79319e-05
0.000872429
0.00187582
0.00293853
0.00404547
0.00517637
0.00630357
0.00738787
0.00837392
0.009189
0.00975501
0.00991784
-0.00460253
-0.00463646
-0.0044582
-0.00414727
-0.00369442
-0.0031034
-0.00238177
-0.00153933
-0.000587171
0.000463275
0.00160059
0.00281356
0.00408989
0.0054132
0.00675929
0.00808936
0.00934028
0.0104183
0.0111937
0.0114695
-0.00571949
-0.0057716
-0.0055793
-0.00523651
-0.00473132
-0.00406782
-0.00325567
-0.00230717
-0.00123548
-5.28801e-05
0.0012301
0.00260509
0.00406559
0.00560302
0.00720236
0.00883262
0.01043
0.011888
0.0129816
0.0134867
-0.00703772
-0.00711315
-0.00690781
-0.00652955
-0.00596368
-0.00521464
-0.00429635
-0.00322593
-0.00202052
-0.000694415
0.000742554
0.00228564
0.00393658
0.0056994
0.00757685
0.00955929
0.011597
0.0136098
0.0151978
0.0161781
-0.00857262
-0.00869329
-0.00848458
-0.00806868
-0.00743007
-0.00657518
-0.00552759
-0.00431339
-0.00295673
-0.0014758
0.000119269
0.00182705
0.00366141
0.00564088
0.00779706
0.0101635
0.0127315
0.0155401
0.0178673
0.0199296
-0.0105885
-0.0106131
-0.010391
-0.00991948
-0.00918348
-0.00818707
-0.00697352
-0.00558379
-0.00405225
-0.00240293
-0.000647924
0.00121508
0.00320188
0.00535484
0.00774245
0.0104685
0.0135894
0.0174682
0.0207588
0.0252247
-0.0123846
-0.0128866
-0.0126845
-0.0121731
-0.0112974
-0.0100942
-0.00865455
-0.00704205
-0.00530343
-0.0034702
-0.00156092
0.000419088
0.00247821
0.00469476
0.00710928
0.00998388
0.0131837
0.0186675
0.0228777
0.032542
-0.0169641
-0.0151924
-0.0152741
-0.0145588
-0.013559
-0.0121699
-0.0105022
-0.00864035
-0.00666154
-0.00462042
-0.00254151
-0.000415485
0.00179253
0.00417831
0.00666594
0.00964352
0.0130809
0.0196997
0.0255728
0.0415561
-0.01805
-0.0210078
-0.0203612
-0.0195573
-0.0178515
-0.015562
-0.0131204
-0.0106654
-0.0082611
-0.00592595
-0.00367605
-0.00152079
0.000482485
0.00234998
0.00366391
0.00612908
0.00580901
0.0154256
0.013373
0.0522597
-0.0409156
-0.0190214
-0.0196035
-0.0188814
-0.0172448
-0.0152889
-0.0131626
-0.0108841
-0.00854592
-0.00622879
-0.00398689
-0.00179453
0.000220532
0.00236671
0.00410507
0.00736652
0.0110961
0.0259472
0.0516727
0.120928
)
;

boundaryField
{
    movingWall
    {
        type            zeroGradient;
    }
    fixedWalls
    {
        type            zeroGradient;
    }
    frontAndBack
    {
        type            empty;
    }
}


// ************************************************************************* //
