/*--------------------------------*- C++ -*----------------------------------*\
  =========                 |
  \\      /  F ield         | OpenFOAM: The Open Source CFD Toolbox
   \\    /   O peration     | Website:  https://openfoam.org
    \\  /    A nd           | Version:  10
     \\/     M anipulation  |
\*---------------------------------------------------------------------------*/
FoamFile
{
    format      ascii;
    class       volScalarField;
    location    "7.625";
    object      p;
}
// * * * * * * * * * * * * * * * * * * * * * * * * * * * * * * * * * * * * * //

dimensions      [0 2 -2 0 0 0 0];

internalField   nonuniform List<scalar> 
400
(
-6.01188e-09
-2.27131e-05
3.18778e-05
0.000136869
0.000299526
0.000522274
0.000808639
0.00116285
0.00158866
0.00208809
0.00266011
0.00329851
0.00398947
0.00470896
0.00542054
0.00607588
0.00661819
0.00699351
0.00719554
0.00714147
2.47206e-05
1.47107e-06
6.22329e-05
0.00016865
0.000329517
0.000548081
0.000828355
0.00117484
0.00159152
0.00208086
0.00264251
0.00327124
0.00395355
0.00466856
0.00537988
0.00603898
0.00658663
0.00696627
0.00717517
0.00710844
-3.92361e-05
-7.05337e-05
-1.16012e-05
9.05634e-05
0.000245547
0.000456872
0.000729164
0.0010679
0.00147847
0.00196528
0.00253028
0.00317094
0.0038783
0.0046316
0.00539365
0.00611021
0.00671027
0.0071215
0.00734092
0.0072329
-0.000171554
-0.000208544
-0.000153243
-5.79372e-05
8.78457e-05
0.000288074
0.0005483
0.000875451
0.00127706
0.00176056
0.00233193
0.00299319
0.00373879
0.00455406
0.00540072
0.00621687
0.00691217
0.00738178
0.00762118
0.00744413
-0.00037942
-0.000421364
-0.000372002
-0.00028665
-0.000153944
3.06442e-05
0.000273792
0.000584218
0.000972154
0.00144903
0.00202646
0.00271361
0.00351328
0.0044132
0.00538237
0.0063491
0.00719563
0.00776331
0.00803384
0.0077313
-0.000661547
-0.000708585
-0.000667523
-0.00059563
-0.000480818
-0.000318072
-9.9621e-05
0.000185085
0.000549193
0.00100865
0.00158185
0.00228792
0.00314132
0.00414309
0.00527197
0.00645321
0.00753454
0.00826771
0.00858585
0.00805385
-0.00101405
-0.00106689
-0.00103663
-0.000982318
-0.000891424
-0.000758787
-0.000575971
-0.000331052
-8.37955e-06
0.000412324
0.000956661
0.00165552
0.00254073
0.00363274
0.00494394
0.00640841
0.00784503
0.0088712
0.00925969
0.00833976
-0.00143185
-0.0014915
-0.00147463
-0.00144247
-0.00138248
-0.00129
-0.00115691
-0.000971168
-0.000716069
-0.000368632
0.000102491
0.000739475
0.00159632
0.00273111
0.00417299
0.0059417
0.00787359
0.00944528
0.00993923
0.00851785
-0.00190845
-0.001976
-0.00197481
-0.00196921
-0.00194731
-0.00190591
-0.00183863
-0.00173548
-0.00158199
-0.00135697
-0.00102932
-0.000554114
0.000132645
0.00111522
0.0024913
0.0043702
0.00683376
0.00940239
0.0101421
0.008564
-0.00243597
-0.00251239
-0.0025281
-0.00255224
-0.00257443
-0.00259416
-0.00260872
-0.00261296
-0.00259907
-0.00255526
-0.00246382
-0.00229784
-0.002019
-0.00157793
-0.000886313
0.000319198
0.00274877
0.00663823
0.00845765
0.00842743
-0.00300554
-0.0030915
-0.00312321
-0.00317762
-0.00324672
-0.00333412
-0.0034429
-0.00357607
-0.00373808
-0.00393622
-0.00418371
-0.0045068
-0.00497204
-0.00574939
-0.00703573
-0.00849525
-0.00781754
-0.00278874
0.00240133
0.00665893
-0.00360849
-0.00370372
-0.00374641
-0.00382692
-0.00394008
-0.00409504
-0.00430204
-0.0045747
-0.00493455
-0.00541757
-0.006088
-0.00706694
-0.00860105
-0.0112422
-0.0157358
-0.0218242
-0.0247942
-0.0192223
-0.00998227
-0.00050667
-0.00423951
-0.00434361
-0.00438812
-0.0044849
-0.00463115
-0.00484313
-0.00513914
-0.00554362
-0.00609668
-0.00686646
-0.00797555
-0.00965342
-0.0123583
-0.0169651
-0.0246978
-0.0350848
-0.0422455
-0.0374027
-0.0264084
-0.0128613
-0.00489269
-0.00499606
-0.00501821
-0.00511005
-0.00527106
-0.00552197
-0.00588436
-0.00639105
-0.00709412
-0.00808156
-0.00951252
-0.0116651
-0.0151269
-0.0207914
-0.0300233
-0.041774
-0.0506318
-0.0465016
-0.0370652
-0.0226763
-0.00559693
-0.00570837
-0.00568761
-0.00575594
-0.00589685
-0.00614438
-0.00652489
-0.00707425
-0.00784701
-0.00893112
-0.0104921
-0.012771
-0.0164092
-0.0219544
-0.0308243
-0.0411187
-0.0487872
-0.0448257
-0.0382321
-0.0239339
-0.00643421
-0.00635037
-0.00620599
-0.00616413
-0.00625909
-0.00650035
-0.00689694
-0.00746912
-0.00826055
-0.0093415
-0.0108637
-0.0129691
-0.016218
-0.0208829
-0.0277529
-0.034971
-0.0400838
-0.0360601
-0.0320773
-0.0154247
-0.00691292
-0.00733047
-0.00701784
-0.00700802
-0.00698151
-0.00709482
-0.00736221
-0.00781645
-0.00849768
-0.00945035
-0.0107987
-0.0126427
-0.0153309
-0.0188919
-0.023871
-0.0283752
-0.0313496
-0.0265464
-0.0217532
0.00386961
-0.010293
-0.0077635
-0.00710466
-0.00649242
-0.00639768
-0.00656005
-0.00692265
-0.00744833
-0.00815827
-0.00906699
-0.0102984
-0.0119131
-0.0141495
-0.0169121
-0.0204721
-0.0229758
-0.023813
-0.0171357
-0.00602113
0.0371259
-0.00695807
-0.00994628
-0.008844
-0.0088314
-0.00835235
-0.0080969
-0.00802878
-0.00817634
-0.00858174
-0.00923827
-0.0102615
-0.0116331
-0.0137423
-0.0162764
-0.0198134
-0.0218318
-0.0215871
-0.00777691
0.018602
0.0953782
-0.0321862
-0.00712127
-0.00556275
-0.00479591
-0.00458367
-0.00478533
-0.00529147
-0.00590247
-0.00671256
-0.00764469
-0.00894359
-0.0104714
-0.0125322
-0.0145091
-0.0161609
-0.0138293
-0.00426717
0.0296347
0.0968811
0.228002
)
;

boundaryField
{
    movingWall
    {
        type            zeroGradient;
    }
    fixedWalls
    {
        type            zeroGradient;
    }
    frontAndBack
    {
        type            empty;
    }
}


// ************************************************************************* //
