/*--------------------------------*- C++ -*----------------------------------*\
  =========                 |
  \\      /  F ield         | OpenFOAM: The Open Source CFD Toolbox
   \\    /   O peration     | Website:  https://openfoam.org
    \\  /    A nd           | Version:  10
     \\/     M anipulation  |
\*---------------------------------------------------------------------------*/
FoamFile
{
    format      ascii;
    class       surfaceScalarField;
    location    "7.625";
    object      phi;
}
// * * * * * * * * * * * * * * * * * * * * * * * * * * * * * * * * * * * * * //

dimensions      [0 3 -1 0 0 0 0];

internalField   nonuniform List<scalar> 
760
(
-1.15165e-05
1.15165e-05
-3.72116e-05
2.56951e-05
-6.80412e-05
3.08296e-05
-0.000100327
3.22858e-05
-0.000132878
3.25515e-05
-0.000165298
3.24198e-05
-0.000197197
3.1899e-05
-0.000227919
3.07216e-05
-0.00025643
2.85109e-05
-0.000281249
2.48194e-05
-0.000300403
1.91542e-05
-0.000311435
1.10318e-05
-0.000311532
9.69688e-08
-0.000297782
-1.37504e-05
-0.000267913
-2.98686e-05
-0.000221217
-4.66957e-05
-0.000160019
-6.11981e-05
-9.14466e-05
-6.85726e-05
-2.93039e-05
-6.21427e-05
-2.93039e-05
-2.74161e-05
3.89326e-05
-7.74486e-05
7.57276e-05
-0.000135624
8.90046e-05
-0.000195878
9.25405e-05
-0.000255853
9.25262e-05
-0.000314402
9.09689e-05
-0.000370486
8.79829e-05
-0.000422759
8.29947e-05
-0.000469394
7.51458e-05
-0.000507979
6.34036e-05
-0.000535463
4.66385e-05
-0.000548154
2.37235e-05
-0.000542289
-5.76842e-06
-0.000513632
-4.24078e-05
-0.000459252
-8.42485e-05
-0.000378545
-0.000127403
-0.000275358
-0.000164385
-0.000160798
-0.000183133
-5.58503e-05
-0.00016709
-8.51542e-05
-3.45363e-05
7.34689e-05
-9.57317e-05
0.000136923
-0.000166096
0.000159369
-0.000238436
0.000164881
-0.000309997
0.000164087
-0.000379433
0.000160405
-0.000445554
0.000154105
-0.000506886
0.000144327
-0.000561466
0.000129725
-0.000606701
0.000108639
-0.000639285
7.92226e-05
-0.00065527
3.97089e-05
-0.000649777
-1.12616e-05
-0.000617733
-7.44518e-05
-0.000554939
-0.000147042
-0.000459632
-0.00022271
-0.000335465
-0.000288552
-0.000195677
-0.000322921
-6.70059e-05
-0.000295762
-0.00015216
-3.72507e-05
0.00011072
-0.000103324
0.000202996
-0.000179069
0.000235114
-0.000256817
0.000242629
-0.000333803
0.000241073
-0.0004088
0.000235402
-0.000480787
0.000226092
-0.000548483
0.000212023
-0.000610121
0.000191364
-0.000663237
0.000161754
-0.000704439
0.000120425
-0.000729246
6.45157e-05
-0.000732139
-8.36841e-06
-0.000705894
-0.000100697
-0.000643595
-0.000209342
-0.000540301
-0.000326004
-0.000397588
-0.000431265
-0.000230979
-0.000489529
-7.59187e-05
-0.000450822
-0.000228079
-3.81598e-05
0.000148879
-0.000106591
0.000271427
-0.000185203
0.000313725
-0.000266108
0.000323534
-0.00034669
0.000321655
-0.00042602
0.000314732
-0.00050345
0.000303522
-0.000578128
0.000286701
-0.000648729
0.000261964
-0.000713152
0.000226177
-0.000768126
0.000175399
-0.000808694
0.000105083
-0.000828113
1.10507e-05
-0.000816517
-0.000112292
-0.000762444
-0.000263416
-0.000655074
-0.000433374
-0.00049056
-0.000595779
-0.000284731
-0.000695359
-8.83729e-05
-0.00064718
-0.000316452
-3.84672e-05
0.000187347
-0.000108437
0.000341397
-0.000189177
0.000394465
-0.000272649
0.000407007
-0.000356458
0.000405464
-0.000440088
0.000398361
-0.000523434
0.000386868
-0.000606307
0.000369574
-0.000688121
0.000343778
-0.000767516
0.000305572
-0.00084178
0.000249663
-0.000905996
0.0001693
-0.000951811
5.68656e-05
-0.000967327
-9.67759e-05
-0.00093424
-0.000296503
-0.000831882
-0.000535732
-0.000643872
-0.000783788
-0.000378313
-0.000960918
-0.000111022
-0.000914471
-0.000427474
-3.85713e-05
0.000225918
-0.000109849
0.000412674
-0.000192498
0.000477114
-0.000278311
0.00049282
-0.000365145
0.000492298
-0.000452989
0.000486206
-0.000542448
0.000476328
-0.00063425
0.000461376
-0.000728952
0.00043848
-0.000826515
0.000403134
-0.000925574
0.000348722
-0.00102225
0.000265979
-0.00110825
0.000142863
-0.00117038
-3.46513e-05
-0.00118303
-0.000283852
-0.00111103
-0.000607726
-0.000910422
-0.000984399
-0.000557556
-0.00131378
-0.000162925
-0.0013091
-0.000590399
-3.85555e-05
0.000264473
-0.000111043
0.000485161
-0.000195409
0.00056148
-0.000283198
0.000580609
-0.000372513
0.000581613
-0.000463909
0.000577602
-0.000558842
0.000571261
-0.00065923
0.000561764
-0.000767241
0.000546492
-0.000884966
0.000520859
-0.00101373
0.000477481
-0.0011528
0.000405055
-0.00129716
0.000287223
-0.00143468
0.000102868
-0.0015398
-0.000178731
-0.0015558
-0.000591729
-0.00138066
-0.00115953
-0.000909374
-0.00178507
-0.00029177
-0.00192671
-0.000882169
-3.8463e-05
0.000302936
-0.000112098
0.000558797
-0.000197882
0.000647265
-0.000286977
0.000669704
-0.000377696
0.000672331
-0.000471163
0.000671069
-0.000569747
0.000669845
-0.000676745
0.000668761
-0.000796392
0.00066614
-0.000933818
0.000658285
-0.00109472
0.000638382
-0.00128463
0.000594969
-0.00150751
0.0005101
-0.00176158
0.000356939
-0.00203147
9.11537e-05
-0.00222599
-0.000397202
-0.00213138
-0.00125415
-0.00151365
-0.0024028
-0.000570791
-0.00286956
-0.00145296
-3.84411e-05
0.000341377
-0.000113283
0.000633639
-0.000200108
0.000734089
-0.000289524
0.00075912
-0.000379975
0.000762783
-0.000473098
0.000764191
-0.000572114
0.000768861
-0.000681677
0.000778325
-0.000808225
0.000792687
-0.000960552
0.000810612
-0.0011506
0.000828431
-0.00139436
0.000838729
-0.00171255
0.000828286
-0.00212569
0.000770079
-0.00261391
0.000579371
-0.00303622
2.51142e-05
-0.00302921
-0.00126117
-0.00228916
-0.00314285
-0.00105527
-0.00410345
-0.00250823
-3.88481e-05
0.000380226
-0.000115281
0.000710071
-0.000202813
0.000821621
-0.000291327
0.000847634
-0.000379294
0.00085075
-0.000468731
0.000853628
-0.000563477
0.000863607
-0.000669189
0.000884036
-0.000794095
0.000917593
-0.000950341
0.000966858
-0.00115623
0.00103432
-0.00143967
0.00112216
-0.00183995
0.00122857
-0.00239253
0.00132266
-0.00305692
0.00124376
-0.00358734
0.000555531
-0.00361924
-0.00122926
-0.00294541
-0.00381668
-0.00167577
-0.00537309
-0.004184
-4.04267e-05
0.000420652
-0.000119492
0.000789137
-0.000207586
0.000909716
-0.00029382
0.000933867
-0.000376691
0.000933621
-0.000458431
0.000935368
-0.000543076
0.000948252
-0.00063652
0.00097748
-0.000747579
0.00102865
-0.00088986
0.00110914
-0.00108481
0.00122928
-0.0013655
0.00140285
-0.00177462
0.00163769
-0.00233048
0.00187852
-0.00295456
0.00186784
-0.00340568
0.00100666
-0.00345446
-0.00118048
-0.00303851
-0.00423263
-0.00196404
-0.00644756
-0.00614804
-4.42504e-05
0.000464903
-0.000127924
0.000872811
-0.000216957
0.000998749
-0.000299761
0.00101667
-0.000374835
0.00100869
-0.00044448
0.00100501
-0.000512521
0.00101629
-0.000583812
0.00104877
-0.000665453
0.00111029
-0.000768322
0.00121201
-0.000909152
0.00137011
-0.0011109
0.0016046
-0.00139821
0.00192499
-0.00176286
0.00224318
-0.00213562
0.00224059
-0.00238702
0.00125806
-0.00248481
-0.00108269
-0.00240354
-0.0043139
-0.00170825
-0.00714285
-0.00785629
-5.3795e-05
0.000518698
-0.000145973
0.000964989
-0.000235641
0.00108842
-0.000312339
0.00109337
-0.000376422
0.00107278
-0.000430421
0.00105901
-0.000476658
0.00106253
-0.000517942
0.00109005
-0.000557667
0.00115002
-0.000600223
0.00125456
-0.000651408
0.00142129
-0.000714465
0.00166766
-0.000789859
0.00200039
-0.000854413
0.00230773
-0.000912812
0.00229899
-0.000955648
0.00130089
-0.00107874
-0.000959595
-0.00134539
-0.00404726
-0.00117213
-0.00731612
-0.00902841
-6.57717e-05
0.000584469
-0.000170145
0.00106936
-0.00026481
0.00118308
-0.000339779
0.00116834
-0.000393227
0.00112623
-0.000428601
0.00109439
-0.000448406
0.00108234
-0.000453651
0.0010953
-0.000443716
0.00114008
-0.000415799
0.00122665
-0.000364456
0.00136995
-0.000275729
0.00157893
-0.000130398
0.00185506
7.1967e-05
0.00210537
0.000304039
0.00206692
0.000394182
0.00121075
0.000209425
-0.000774838
-0.000410654
-0.00342718
-0.000697073
-0.0070297
-0.00972549
-0.000133286
0.000717756
-0.00025226
0.00118834
-0.000332388
0.00126321
-0.000382104
0.00121805
-0.000411862
0.00115598
-0.000425229
0.00110775
-0.000420969
0.00107808
-0.000395227
0.00106956
-0.000342265
0.00108712
-0.000252819
0.0011372
-0.000114186
0.00123132
9.35524e-05
0.00137119
0.000388134
0.00156047
0.000774966
0.00171854
0.00116794
0.00167394
0.00135138
0.00102731
0.00110304
-0.000526503
0.000282338
-0.00260647
-0.000285027
-0.00646233
-0.0100105
-8.6337e-05
0.000804093
-0.000270121
0.00137212
-0.000390911
0.001384
-0.000456454
0.0012836
-0.000482028
0.00118156
-0.000477718
0.00110344
-0.00044626
0.00104662
-0.000385361
0.00100866
-0.000289283
0.000991043
-0.000146183
0.0009941
5.92181e-05
0.00102592
0.000342094
0.00108832
0.000721677
0.00118089
0.00119033
0.00124988
0.00165663
0.00120764
0.00188621
0.000797737
0.0016036
-0.000243892
0.000789394
-0.00179227
0.000143432
-0.00581637
-0.00986708
-0.000381592
0.00118568
-0.000446076
0.0014366
-0.000504286
0.00144221
-0.000552323
0.00133163
-0.000553618
0.00118285
-0.000514145
0.00106397
-0.000438079
0.000970551
-0.000324046
0.000894627
-0.0001727
0.000839696
2.43305e-05
0.00079707
0.000272742
0.000777505
0.000588147
0.00077291
0.000975068
0.000793971
0.00141454
0.000810408
0.00185663
0.000765557
0.00210805
0.000546314
0.00205776
-0.000193598
0.00162268
-0.00135719
0.000889765
-0.00508346
-0.00897732
-0.00136201
0.0025477
-0.00132695
0.00140154
-0.0010724
0.00118767
-0.00070618
0.00096541
-0.000318938
0.00079561
7.26662e-05
0.000672367
0.000456927
0.00058629
0.000833028
0.000518527
0.00120287
0.000469856
0.00157071
0.000429224
0.00194605
0.000402168
0.00233605
0.000382907
0.00276145
0.000368576
0.00321869
0.000353168
0.00370072
0.000283526
0.00409325
0.000153789
0.00420543
-0.000305779
0.00402031
-0.00117207
0.00254338
-0.00360653
-0.00643394
0.0025477
0.00394923
0.0051369
0.00610231
0.00689792
0.00757029
0.00815658
0.00867511
0.00914496
0.00957418
0.00997635
0.0103593
0.0107278
0.011081
0.0113645
0.0115183
0.0112125
0.0100405
0.00643394
)
;

boundaryField
{
    movingWall
    {
        type            calculated;
        value           uniform 0;
    }
    fixedWalls
    {
        type            calculated;
        value           uniform 0;
    }
    frontAndBack
    {
        type            empty;
        value           nonuniform List<scalar> 0();
    }
}


// ************************************************************************* //
