/*--------------------------------*- C++ -*----------------------------------*\
  =========                 |
  \\      /  F ield         | OpenFOAM: The Open Source CFD Toolbox
   \\    /   O peration     | Website:  https://openfoam.org
    \\  /    A nd           | Version:  10
     \\/     M anipulation  |
\*---------------------------------------------------------------------------*/
FoamFile
{
    format      ascii;
    class       volVectorField;
    location    "7.825";
    object      U;
}
// * * * * * * * * * * * * * * * * * * * * * * * * * * * * * * * * * * * * * //

dimensions      [0 1 -1 0 0 0 0];

internalField   nonuniform List<vector> 
8000
(
(-7.52719e-05 9.96114e-05 -3.44528e-05)
(-0.000520999 0.000209176 2.50722e-06)
(-0.00125566 0.000244125 2.02642e-05)
(-0.00201055 0.000258989 2.94647e-05)
(-0.002802 0.000270728 3.00647e-05)
(-0.00360871 0.000284093 2.5008e-05)
(-0.00442135 0.000298252 1.57664e-05)
(-0.00522608 0.000310305 2.01267e-06)
(-0.00600003 0.000316494 -1.73463e-05)
(-0.00670906 0.000312386 -4.37229e-05)
(-0.0073059 0.000292974 -7.86055e-05)
(-0.00772984 0.000253338 -0.000123163)
(-0.00790942 0.000190437 -0.000177608)
(-0.0077692 0.000103053 -0.000240442)
(-0.00724181 -7.2253e-06 -0.000306511)
(-0.00628755 -0.000129572 -0.000366924)
(-0.00492521 -0.000242004 -0.000408066)
(-0.00329421 -0.000311689 -0.000412592)
(-0.00146893 -0.000297717 -0.000366574)
(-0.000249136 -0.000104783 -0.000192034)
(-0.000180465 0.000647532 -0.00011198)
(-0.000971402 0.0011286 -9.26736e-05)
(-0.00218604 0.0012886 -8.02763e-05)
(-0.00343249 0.00135002 -7.05619e-05)
(-0.00472811 0.00138375 -6.73044e-05)
(-0.00603451 0.00141018 -6.84926e-05)
(-0.00733132 0.00142817 -7.33511e-05)
(-0.00859351 0.00142821 -8.26568e-05)
(-0.00978397 0.00139704 -9.7925e-05)
(-0.0108505 0.00131888 -0.000121118)
(-0.0117231 0.00117644 -0.000154437)
(-0.012313 0.000953064 -0.000199836)
(-0.0125181 0.000635796 -0.000258159)
(-0.0122343 0.000222933 -0.000329124)
(-0.0113668 -0.000267118 -0.000406234)
(-0.00985802 -0.000787933 -0.000477365)
(-0.00773843 -0.00125539 -0.000523939)
(-0.00520976 -0.00154166 -0.000522101)
(-0.00238529 -0.00148574 -0.000451307)
(-0.000443682 -0.00073671 -0.000200596)
(-0.000213159 0.00155713 -0.000154811)
(-0.00112961 0.0025744 -0.000145226)
(-0.00252289 0.00291252 -0.000135535)
(-0.00394393 0.00303225 -0.000124778)
(-0.00541607 0.00308268 -0.000119188)
(-0.00689685 0.00310674 -0.000117333)
(-0.00836508 0.00310464 -0.000118796)
(-0.00979515 0.00306009 -0.000124724)
(-0.0111487 0.00294879 -0.000137115)
(-0.0123712 0.00274115 -0.000158621)
(-0.0133878 0.0024045 -0.000192287)
(-0.0141029 0.00190716 -0.000241081)
(-0.0144002 0.00122511 -0.000307366)
(-0.0141488 0.000355727 -0.0003912)
(-0.0132234 -0.00066552 -0.000485206)
(-0.0115377 -0.00175158 -0.000575249)
(-0.00910208 -0.0027337 -0.000636245)
(-0.00614318 -0.00334783 -0.000635844)
(-0.00278856 -0.00325458 -0.000546562)
(-0.000498299 -0.00174985 -0.000231672)
(-0.000216578 0.00251671 -0.000185239)
(-0.00117002 0.00410531 -0.0001842)
(-0.00262455 0.00462546 -0.000176968)
(-0.00410458 0.00480063 -0.000165841)
(-0.00564161 0.00486647 -0.000159085)
(-0.00719467 0.00489055 -0.000155773)
(-0.00874727 0.00487547 -0.000155828)
(-0.0102791 0.00479922 -0.000160801)
(-0.0117572 0.00462732 -0.000173237)
(-0.013131 0.00431602 -0.000196648)
(-0.0143266 0.00381513 -0.000235326)
(-0.0152419 0.00307361 -0.000293823)
(-0.0157439 0.00205091 -0.000376078)
(-0.0156721 0.000734043 -0.000483854)
(-0.0148564 -0.000837198 -0.00061301)
(-0.0131451 -0.00254681 -0.0007401)
(-0.0104872 -0.00413362 -0.000831892)
(-0.00712202 -0.00516723 -0.000840863)
(-0.00318365 -0.00507842 -0.000726371)
(-0.000523885 -0.00273386 -0.000311666)
(-0.00020728 0.00352708 -0.000206955)
(-0.00116068 0.00572509 -0.000213404)
(-0.00263097 0.00643921 -0.00020835)
(-0.00412925 0.00667614 -0.000197444)
(-0.00569474 0.00676583 -0.000190806)
(-0.00729059 0.00680373 -0.000188006)
(-0.00890837 0.00679703 -0.000189373)
(-0.0105372 0.0067198 -0.000196993)
(-0.0121543 0.00652875 -0.000214161)
(-0.0137187 0.00616608 -0.000245534)
(-0.0151624 0.00556136 -0.00029723)
(-0.0163801 0.00463717 -0.000376352)
(-0.0172198 0.00332155 -0.000489467)
(-0.0174773 0.00157105 -0.000639827)
(-0.0169189 -0.000591418 -0.000831207)
(-0.0152912 -0.00301451 -0.00102613)
(-0.0124264 -0.0053624 -0.00117968)
(-0.00854764 -0.00698713 -0.00121684)
(-0.00377262 -0.00699392 -0.00106692)
(-0.000560849 -0.00370319 -0.000473205)
(-0.000192042 0.0045563 -0.00022494)
(-0.00112885 0.00739183 -0.000238505)
(-0.00259543 0.00831214 -0.000235641)
(-0.00409479 0.00862037 -0.00022548)
(-0.005673 0.00874817 -0.000219908)
(-0.00729875 0.00882319 -0.000219061)
(-0.00897406 0.00886054 -0.000223806)
(-0.010701 0.00883356 -0.000236958)
(-0.0124722 0.00869294 -0.000262869)
(-0.0142632 0.00836854 -0.000307829)
(-0.01602 0.00776849 -0.000380575)
(-0.0176429 0.0067817 -0.000492368)
(-0.0189673 0.00528981 -0.000655226)
(-0.0197465 0.00319319 -0.000878907)
(-0.0196438 0.000462271 -0.00116486)
(-0.0182725 -0.00275781 -0.00149201)
(-0.0152801 -0.00607908 -0.00177437)
(-0.0107682 -0.0085823 -0.00189094)
(-0.00476052 -0.0088902 -0.00170114)
(-0.000651219 -0.0045907 -0.000781802)
(-0.000172584 0.00559199 -0.000242927)
(-0.00108262 0.00908999 -0.000264014)
(-0.00253311 0.0102287 -0.000263453)
(-0.00401967 0.0106181 -0.000254152)
(-0.00559457 0.0107994 -0.000249877)
(-0.00723257 0.0109381 -0.000251499)
(-0.00894791 0.0110622 -0.000260598)
(-0.010759 0.0111495 -0.000280969)
(-0.0126791 0.0111502 -0.000318443)
(-0.014709 0.0109873 -0.000381692)
(-0.0168222 0.0105508 -0.000483424)
(-0.0189412 0.00969449 -0.000641485)
(-0.0209061 0.00823923 -0.00087833)
(-0.0224364 0.00599868 -0.0012155)
(-0.0230956 0.00283916 -0.00166447)
(-0.0223296 -0.00120363 -0.00223063)
(-0.0194729 -0.00566417 -0.0027761)
(-0.0143162 -0.00947967 -0.00310821)
(-0.00657879 -0.0105149 -0.00291508)
(-0.000930679 -0.00535057 -0.00140698)
(-0.000149105 0.00662891 -0.00026296)
(-0.00102398 0.0108142 -0.000292491)
(-0.00244681 0.0121814 -0.000294177)
(-0.00390333 0.0126574 -0.000285242)
(-0.00545131 0.012903 -0.000281635)
(-0.00707098 0.0131282 -0.000285182)
(-0.00878948 0.0133805 -0.000298407)
(-0.0106437 0.0136499 -0.000326371)
(-0.0126727 0.0138961 -0.000376816)
(-0.0149114 0.0140466 -0.000461637)
(-0.0173763 0.0139863 -0.000599216)
(-0.0200399 0.0135448 -0.000817379)
(-0.022785 0.0124857 -0.00115543)
(-0.0253424 0.0105136 -0.00166012)
(-0.02722 0.00732796 -0.00237315)
(-0.0276123 0.00275412 -0.00331528)
(-0.0255348 -0.00294896 -0.00441623)
(-0.020134 -0.0085408 -0.00527414)
(-0.0102524 -0.0111822 -0.00525484)
(-0.0018228 -0.00593041 -0.00276593)
(-0.000122541 0.00766572 -0.000286559)
(-0.000956543 0.0125634 -0.000325855)
(-0.00234093 0.0141631 -0.00032944)
(-0.0037458 0.0147217 -0.000319642)
(-0.00523381 0.0150309 -0.000315093)
(-0.00678898 0.0153537 -0.000318829)
(-0.00845009 0.0157644 -0.00033452)
(-0.0102721 0.0162752 -0.000368712)
(-0.0123213 0.0168687 -0.000431448)
(-0.0146728 0.0174968 -0.000538591)
(-0.0174012 0.0180664 -0.000715655)
(-0.0205575 0.0184169 -0.00100372)
(-0.0241238 0.0182917 -0.00146647)
(-0.0279306 0.017313 -0.00219193)
(-0.0315398 0.0149903 -0.00327824)
(-0.0341034 0.0107955 -0.00480346)
(-0.0340741 0.00435395 -0.00676912)
(-0.0295647 -0.00370629 -0.00879635)
(-0.0178725 -0.00974207 -0.00943367)
(-0.00438063 -0.00647039 -0.00578335)
(-9.59672e-05 0.00870803 -0.00031566)
(-0.00089048 0.014344 -0.0003664)
(-0.00223008 0.0161694 -0.000371171)
(-0.00355924 0.01679 -0.000358404)
(-0.00494583 0.0171426 -0.000350155)
(-0.00637489 0.017552 -0.000350944)
(-0.00789361 0.0181278 -0.000365777)
(-0.00957095 0.0189141 -0.000402751)
(-0.011495 0.0199324 -0.00047421)
(-0.0137772 0.0211842 -0.000599941)
(-0.0165527 0.0226387 -0.000812827)
(-0.0199721 0.024208 -0.00116814)
(-0.024173 0.0257083 -0.0017553)
(-0.0292146 0.026794 -0.00270601)
(-0.0349537 0.0268469 -0.00418521)
(-0.0407864 0.0247726 -0.00635879)
(-0.0450226 0.0187404 -0.00930667)
(-0.0438936 0.00715013 -0.0126485)
(-0.0320301 -0.0062881 -0.0145169)
(-0.0102763 -0.00817717 -0.0108792)
(-7.63528e-05 0.00977566 -0.000353624)
(-0.000847538 0.0161774 -0.000417774)
(-0.00214656 0.0182032 -0.000422484)
(-0.00337729 0.0188402 -0.000403534)
(-0.00461572 0.0191869 -0.000387448)
(-0.0058448 0.0196397 -0.000380588)
(-0.00711525 0.0203486 -0.000389357)
(-0.00850094 0.0213974 -0.00042319)
(-0.0100983 0.0228605 -0.000496105)
(-0.0120366 0.0248137 -0.000630229)
(-0.0144891 0.0273328 -0.000862091)
(-0.0176835 0.030478 -0.00125234)
(-0.0219211 0.0342614 -0.00189023)
(-0.0275973 0.0385151 -0.00287502)
(-0.0351893 0.042512 -0.00428199)
(-0.0450091 0.0440508 -0.00615863)
(-0.0556271 0.0382463 -0.00877855)
(-0.0614451 0.0189465 -0.0119495)
(-0.0524661 -0.00916957 -0.0142203)
(-0.0195483 -0.0186994 -0.0140126)
(-7.78202e-05 0.0109168 -0.000406973)
(-0.000868701 0.0181158 -0.000487514)
(-0.00214975 0.0202903 -0.000490948)
(-0.00326489 0.0208643 -0.000461441)
(-0.00430719 0.0211175 -0.000431376)
(-0.00525622 0.0215274 -0.000410118)
(-0.0061623 0.0222855 -0.000405649)
(-0.00709087 0.0235162 -0.000428233)
(-0.00812402 0.025352 -0.000492415)
(-0.00937385 0.0279575 -0.000619159)
(-0.0110016 0.0315476 -0.000839565)
(-0.0132451 0.0363748 -0.0011943)
(-0.0165084 0.0427076 -0.00169414)
(-0.021549 0.0504949 -0.00219435)
(-0.0297449 0.0584766 -0.00231481)
(-0.0430789 0.0620114 -0.00152869)
(-0.0627005 0.0518194 -0.000580277)
(-0.081068 0.0169243 0.000129813)
(-0.0754107 -0.0332392 0.00166529)
(-0.0280217 -0.0504343 -0.00735784)
(-0.000126601 0.0122125 -0.000486099)
(-0.00102247 0.0202221 -0.000582698)
(-0.00233389 0.0224355 -0.000578474)
(-0.00332565 0.0228146 -0.000530161)
(-0.00412778 0.0228488 -0.000478789)
(-0.00471832 0.0230921 -0.000436912)
(-0.00514755 0.023763 -0.000412819)
(-0.00545885 0.0250159 -0.000415738)
(-0.00569216 0.0270292 -0.00045922)
(-0.00589471 0.0300362 -0.000556971)
(-0.00615445 0.0343795 -0.000720508)
(-0.00662842 0.0404423 -0.000925277)
(-0.00777696 0.0486772 -0.00100661)
(-0.010819 0.0588237 -0.000320608)
(-0.018821 0.0687163 0.00224517)
(-0.0373686 0.070747 0.00790923)
(-0.0723221 0.0514803 0.0161553)
(-0.105506 -0.0106789 0.0260374)
(-0.0964943 -0.0944918 0.0280241)
(-0.0341964 -0.110995 0.00424232)
(-0.00028759 0.0138767 -0.000626089)
(-0.00145846 0.0227844 -0.000757482)
(-0.0028694 0.0249321 -0.000751973)
(-0.0037137 0.0249624 -0.000676678)
(-0.00421624 0.0245823 -0.000585401)
(-0.00437757 0.0244405 -0.000501603)
(-0.00424763 0.0247872 -0.000439065)
(-0.0038322 0.025792 -0.000409527)
(-0.00311527 0.0276516 -0.000422551)
(-0.00203856 0.0306089 -0.000478288)
(-0.000591403 0.0350825 -0.000567206)
(0.00122345 0.0414991 -0.000562794)
(0.00287287 0.0503344 -9.5195e-05)
(0.00268392 0.0610338 0.00206628)
(-0.00494236 0.0708385 0.00784586)
(-0.0303333 0.0694152 0.0193553)
(-0.0828277 0.033338 0.0362328)
(-0.122456 -0.0749871 0.0478002)
(-0.113498 -0.184789 0.0326592)
(-0.0431791 -0.195236 0.00272924)
(-0.000607395 0.0164035 -0.000840224)
(-0.00222855 0.0256363 -0.000953641)
(-0.00385033 0.0271753 -0.000914412)
(-0.00459927 0.0264025 -0.00078221)
(-0.00482509 0.0254181 -0.000646382)
(-0.00452359 0.0248283 -0.000525179)
(-0.00377441 0.0248028 -0.000431958)
(-0.00256466 0.0254334 -0.000375696)
(-0.000838748 0.0268682 -0.000366707)
(0.00159338 0.0293299 -0.000382616)
(0.00488751 0.0332075 -0.000412002)
(0.00920899 0.0388828 -0.000285206)
(0.0140352 0.0468162 0.000573876)
(0.0176884 0.056397 0.00365265)
(0.0130536 0.0653627 0.0118951)
(-0.0121434 0.0592909 0.0272121)
(-0.0696249 0.00344448 0.045516)
(-0.1079 -0.13727 0.0428706)
(-0.121631 -0.248401 0.0175609)
(-0.0482105 -0.280594 -0.0125854)
(-0.00196434 0.0189046 -0.00135641)
(-0.0049053 0.0303711 -0.0015868)
(-0.00627624 0.0314723 -0.00148994)
(-0.00649724 0.0301154 -0.00126562)
(-0.00598018 0.0281261 -0.00100447)
(-0.00497825 0.0264873 -0.00076389)
(-0.00355611 0.0254294 -0.000572459)
(-0.00162789 0.0250459 -0.000443418)
(0.000973579 0.0254424 -0.000383846)
(0.00456768 0.0267623 -0.0003834)
(0.00941328 0.0292776 -0.000408201)
(0.0159432 0.0331678 -0.000333364)
(0.0237567 0.0388455 0.000540892)
(0.0322854 0.0455449 0.0033688)
(0.0343927 0.0526763 0.0115092)
(0.0246281 0.0452147 0.0258358)
(-0.0234056 -0.0168735 0.0391591)
(-0.064557 -0.15433 0.0301996)
(-0.112841 -0.278728 0.0103094)
(-0.0434876 -0.348283 -0.0302432)
(-0.00131421 0.0303868 -0.00237698)
(-0.00495452 0.0341466 -0.00226935)
(-0.0083863 0.0326137 -0.00202568)
(-0.00877113 0.0286958 -0.00151511)
(-0.00833802 0.0258316 -0.00112314)
(-0.00676268 0.0238099 -0.000782088)
(-0.00449314 0.0225048 -0.000524133)
(-0.00154941 0.0217253 -0.000360178)
(0.00215073 0.0215153 -0.000300886)
(0.00695652 0.0218159 -0.000361499)
(0.0131019 0.0228825 -0.000503522)
(0.021273 0.0245873 -0.000658357)
(0.0309819 0.0272125 -0.000195413)
(0.0432267 0.0295533 0.00156427)
(0.0507857 0.0316904 0.00722289)
(0.0573429 0.0241201 0.0177071)
(0.0241853 -0.0266644 0.0269613)
(-0.0120494 -0.14112 0.0244445)
(-0.0898406 -0.282362 0.00531504)
(-0.0338245 -0.38841 -0.0450563)
(-0.0127643 0.0277971 -0.00314325)
(-0.0214121 0.0487543 -0.00394745)
(-0.0153926 0.0445039 -0.00377216)
(-0.0135926 0.0395399 -0.00316176)
(-0.00931384 0.03362 -0.00229944)
(-0.00469278 0.0287735 -0.00153044)
(0.000182695 0.0250067 -0.000947684)
(0.00540137 0.0221056 -0.000567117)
(0.0109495 0.0200645 -0.000404705)
(0.0174315 0.0185564 -0.000497468)
(0.0246625 0.0177556 -0.000754304)
(0.0338755 0.0171744 -0.00117588)
(0.0434776 0.0173175 -0.00131948)
(0.0567822 0.016437 -0.000680809)
(0.0633104 0.015329 0.00213746)
(0.0783452 0.00745465 0.00887864)
(0.0558365 -0.0241364 0.0144139)
(0.0475015 -0.113983 0.0187506)
(-0.051524 -0.263239 -0.000839321)
(-0.0130913 -0.399504 -0.0560994)
(-0.046596 0.087735 -0.0125178)
(-0.0298414 0.0398594 -0.00891327)
(-0.0205355 0.0335381 -0.00676041)
(-0.00128213 0.0264663 -0.00473583)
(0.0149015 0.0200716 -0.0033788)
(0.031044 0.0157742 -0.00233644)
(0.045044 0.0130261 -0.00158144)
(0.058249 0.0109026 -0.00110034)
(0.0694546 0.00954409 -0.000831506)
(0.0813141 0.00827241 -0.000827804)
(0.0907879 0.00779294 -0.00103014)
(0.103675 0.00690528 -0.00149129)
(0.11171 0.00676188 -0.00194892)
(0.129622 0.0049645 -0.00217349)
(0.131112 0.00173925 -0.00159421)
(0.156644 -0.00815509 0.00178295)
(0.131152 -0.0340755 0.00564782)
(0.154841 -0.100413 0.0110515)
(0.0317203 -0.236344 -0.00321459)
(0.0356278 -0.366368 -0.0660424)
(0.117544 0.112275 -0.0112013)
(0.144153 0.059881 -0.0118632)
(0.216035 0.0394981 -0.0117426)
(0.260831 0.0262099 -0.0105679)
(0.293406 0.0173763 -0.00913313)
(0.320981 0.0114026 -0.00791102)
(0.341445 0.00769391 -0.00677864)
(0.361047 0.00514391 -0.0059135)
(0.373606 0.0036622 -0.00511162)
(0.390096 0.00246942 -0.0045635)
(0.396767 0.00192958 -0.00412338)
(0.414148 0.00135306 -0.00384703)
(0.414255 0.00110956 -0.00376027)
(0.436237 0.000468317 -0.00349241)
(0.424337 -0.000881754 -0.00340406)
(0.450674 -0.00451718 -0.00252031)
(0.40652 -0.0130999 -0.00178224)
(0.417821 -0.0324674 -0.00159671)
(0.250277 -0.0723918 -0.00953097)
(0.166781 -0.138076 -0.0761042)
(-0.000126093 0.000149041 -0.000113191)
(-0.00088376 0.000375512 -7.40301e-05)
(-0.00213901 0.000453315 -4.72868e-05)
(-0.00341934 0.000477997 -3.24706e-05)
(-0.00473819 0.000489489 -3.37365e-05)
(-0.00605809 0.000500271 -4.73873e-05)
(-0.0073624 0.00050974 -7.21431e-05)
(-0.00862841 0.000513197 -0.000109575)
(-0.00981945 0.000504537 -0.000162574)
(-0.0108828 0.000476648 -0.000234551)
(-0.0117479 0.000421636 -0.000328813)
(-0.0123261 0.000331895 -0.000447555)
(-0.0125154 0.000202649 -0.000590358)
(-0.0122089 3.14357e-05 -0.000752471)
(-0.0113126 -0.000176746 -0.000920501)
(-0.00977364 -0.000400452 -0.00107298)
(-0.00762334 -0.000598036 -0.00117796)
(-0.00506514 -0.000703089 -0.0011971)
(-0.00223249 -0.000625912 -0.00109421)
(-0.000369992 -0.000204943 -0.000667198)
(-0.000368292 0.00101607 -0.00027458)
(-0.00188631 0.00198648 -0.00028063)
(-0.00418266 0.00232642 -0.000263125)
(-0.00652304 0.00242783 -0.000244459)
(-0.00890829 0.00245007 -0.000239767)
(-0.0112639 0.00244397 -0.000247752)
(-0.0135475 0.00241154 -0.000268446)
(-0.0157105 0.00233786 -0.000304731)
(-0.0176867 0.0022015 -0.000360947)
(-0.0193882 0.00197743 -0.000442165)
(-0.0207031 0.00163894 -0.000553432)
(-0.0214959 0.00116136 -0.000698328)
(-0.0216175 0.000527259 -0.000876837)
(-0.0209182 -0.000261259 -0.00108596)
(-0.0192664 -0.00116647 -0.00130492)
(-0.0165932 -0.00210101 -0.00150401)
(-0.0129627 -0.00290451 -0.00163799)
(-0.0086871 -0.00332368 -0.00165181)
(-0.00398806 -0.00301541 -0.00148541)
(-0.000763562 -0.00136998 -0.000837318)
(-0.000465702 0.00248301 -0.000368404)
(-0.00231339 0.00451754 -0.000402834)
(-0.00506264 0.00522397 -0.000391506)
(-0.00784574 0.00541874 -0.000369644)
(-0.0106667 0.00542987 -0.000359363)
(-0.0134389 0.00536163 -0.000361058)
(-0.0161141 0.00522297 -0.00037583)
(-0.0186387 0.00498869 -0.000407764)
(-0.0209406 0.00461985 -0.000462729)
(-0.0229244 0.00406983 -0.000547784)
(-0.0244684 0.00328885 -0.000670293)
(-0.0254246 0.00223119 -0.00083655)
(-0.0256209 0.000866739 -0.00105)
(-0.0248693 -0.000796528 -0.00130613)
(-0.0229979 -0.00268821 -0.001583)
(-0.0198988 -0.00463438 -0.00184333)
(-0.0156115 -0.00631394 -0.00202506)
(-0.0104904 -0.00720731 -0.00205019)
(-0.00479526 -0.00660264 -0.00183513)
(-0.000898795 -0.00326316 -0.00100376)
(-0.000494971 0.00403792 -0.000440278)
(-0.00247417 0.00720822 -0.000499717)
(-0.00541686 0.00828929 -0.000494428)
(-0.00838637 0.0085689 -0.000471168)
(-0.0113974 0.00856181 -0.000457793)
(-0.0143638 0.00842976 -0.000456233)
(-0.017243 0.00818956 -0.000468747)
(-0.019988 0.00780689 -0.000500845)
(-0.022533 0.00722589 -0.000560325)
(-0.0247872 0.00637715 -0.000657011)
(-0.0266278 0.00518357 -0.000801982)
(-0.0278948 0.00357057 -0.00100598)
(-0.028389 0.00148568 -0.00127707)
(-0.027879 -0.00107326 -0.00161634)
(-0.026115 -0.00402572 -0.00200149)
(-0.0228871 -0.00711824 -0.00237847)
(-0.0181488 -0.00985007 -0.00265928)
(-0.0122682 -0.0113694 -0.00272136)
(-0.00553776 -0.0104883 -0.00243718)
(-0.000974745 -0.00520644 -0.00131252)
(-0.00049625 0.00567281 -0.000497398)
(-0.00252657 0.0100517 -0.000579777)
(-0.00556379 0.011529 -0.000580334)
(-0.00863062 0.0119016 -0.000557273)
(-0.0117534 0.0118869 -0.000543762)
(-0.0148523 0.0117095 -0.000543314)
(-0.0178975 0.0113971 -0.000559575)
(-0.0208563 0.0109082 -0.000599905)
(-0.023678 0.0101706 -0.00067475)
(-0.0262848 0.0090903 -0.000797857)
(-0.0285599 0.00755613 -0.000986096)
(-0.0303342 0.00545063 -0.00125783)
(-0.0313732 0.0026728 -0.00162946)
(-0.0313811 -0.000822417 -0.0021087)
(-0.0299932 -0.00495849 -0.00268207)
(-0.0268317 -0.00943378 -0.00327178)
(-0.0216761 -0.0135422 -0.00374884)
(-0.0148472 -0.0159911 -0.00390651)
(-0.00663553 -0.0149145 -0.00351477)
(-0.00107727 -0.00731522 -0.00185745)
(-0.000487799 0.00734412 -0.00054912)
(-0.0025416 0.0129897 -0.000654248)
(-0.00564132 0.0148862 -0.000660914)
(-0.00877887 0.0153665 -0.000639276)
(-0.0119917 0.0153652 -0.000627747)
(-0.0152097 0.0151773 -0.000631635)
(-0.0184206 0.0148458 -0.000656326)
(-0.021613 0.0143256 -0.000711603)
(-0.02476 0.0135306 -0.000811516)
(-0.0278082 0.0123414 -0.000975372)
(-0.0306595 0.0106065 -0.0012286)
(-0.0331474 0.00814863 -0.00160234)
(-0.035011 0.00478745 -0.00212902)
(-0.0358721 0.000388975 -0.00283193)
(-0.0352237 -0.00503207 -0.00371442)
(-0.0324487 -0.0111857 -0.00469771)
(-0.0270037 -0.0171635 -0.00556782)
(-0.0189973 -0.0211056 -0.00596432)
(-0.00855082 -0.0201009 -0.00542026)
(-0.001298 -0.00970372 -0.00278595)
(-0.000475206 0.00904004 -0.00060308)
(-0.00254346 0.0160073 -0.000732803)
(-0.00569564 0.0183472 -0.000745932)
(-0.00889265 0.0189514 -0.000725858)
(-0.0121827 0.0189877 -0.000716658)
(-0.0155073 0.0188311 -0.00072581)
(-0.0188761 0.0185467 -0.000760899)
(-0.0223056 0.0180922 -0.000834805)
(-0.0258036 0.0173735 -0.000966395)
(-0.0293565 0.0162497 -0.00118278)
(-0.0329069 0.0145269 -0.00152218)
(-0.0363186 0.0119549 -0.00203599)
(-0.0393285 0.00824057 -0.00278542)
(-0.0414945 0.00310036 -0.00382988)
(-0.0421712 -0.00362019 -0.00522541)
(-0.0404405 -0.0117263 -0.00690762)
(-0.0352405 -0.0202311 -0.00855036)
(-0.0260779 -0.0266923 -0.00952433)
(-0.0123695 -0.026535 -0.00882039)
(-0.00192454 -0.0128325 -0.00442474)
(-0.000459537 0.0107594 -0.000664277)
(-0.00253871 0.0191062 -0.000822016)
(-0.00573819 0.0219116 -0.000841527)
(-0.00898124 0.0226505 -0.000821642)
(-0.0123265 0.0227438 -0.00081295)
(-0.0157276 0.0226576 -0.000825565)
(-0.019219 0.0224888 -0.000869753)
(-0.0228519 0.0222085 -0.000962178)
(-0.02668 0.0217268 -0.00112771)
(-0.0307484 0.0208932 -0.00140375)
(-0.0350709 0.0194812 -0.00184655)
(-0.0395892 0.0171694 -0.00253865)
(-0.0441044 0.0135327 -0.00359343)
(-0.048191 0.00807326 -0.00514724)
(-0.0511154 0.000347613 -0.00731381)
(-0.0517052 -0.00975111 -0.010124)
(-0.048249 -0.0215868 -0.0131967)
(-0.0388248 -0.0324844 -0.0153289)
(-0.0208255 -0.0353949 -0.0145497)
(-0.00383773 -0.0181923 -0.00746245)
(-0.000442165 0.0125049 -0.000737074)
(-0.00253295 0.0222927 -0.000927684)
(-0.00577604 0.0255781 -0.000952784)
(-0.00904478 0.0264498 -0.000929895)
(-0.0124079 0.0266048 -0.000917408)
(-0.0158302 0.0266147 -0.000928557)
(-0.0193719 0.0266199 -0.000976639)
(-0.0231225 0.0266195 -0.00108247)
(-0.0271903 0.0265463 -0.00127772)
(-0.0316981 0.0262655 -0.001612)
(-0.0367666 0.025548 -0.00216406)
(-0.0424784 0.0240316 -0.00305805)
(-0.0488114 0.0211823 -0.00448059)
(-0.0555297 0.0162805 -0.00667686)
(-0.0620593 0.00847555 -0.00989799)
(-0.0672897 -0.00310211 -0.0142363)
(-0.0687369 -0.0191123 -0.0190349)
(-0.0615787 -0.0382486 -0.0224555)
(-0.038974 -0.050049 -0.0215636)
(-0.00895137 -0.0298573 -0.0127848)
(-0.000427313 0.014287 -0.000827056)
(-0.00253993 0.0255814 -0.00105696)
(-0.00582812 0.0293462 -0.00108594)
(-0.00909622 0.0303261 -0.00105472)
(-0.0124241 0.030522 -0.00103128)
(-0.0157847 0.0306267 -0.00103245)
(-0.0192623 0.0308379 -0.00107472)
(-0.0229833 0.0311992 -0.00118286)
(-0.0271118 0.0316914 -0.00139484)
(-0.0318571 0.0322329 -0.00177198)
(-0.0374752 0.0326474 -0.00241608)
(-0.044259 0.0326121 -0.00349588)
(-0.0525091 0.0315964 -0.00527471)
(-0.0624804 0.0287804 -0.00809724)
(-0.0742658 0.022823 -0.0122147)
(-0.0872129 0.0111669 -0.0172532)
(-0.0977796 -0.0109814 -0.0215277)
(-0.0960772 -0.046732 -0.0224796)
(-0.0692141 -0.0799365 -0.0210964)
(-0.0186718 -0.0575006 -0.0185273)
(-0.000424503 0.0161329 -0.000943128)
(-0.00258894 0.0290027 -0.00122042)
(-0.00593707 0.0332196 -0.00125013)
(-0.00917644 0.0342476 -0.00120263)
(-0.0124025 0.0344245 -0.00115782)
(-0.0155927 0.0345813 -0.00113666)
(-0.0188502 0.0349832 -0.00115857)
(-0.0223295 0.0357346 -0.00125108)
(-0.0262388 0.0368906 -0.00145593)
(-0.0308624 0.0384676 -0.00184085)
(-0.0365886 0.0404182 -0.00251928)
(-0.0439419 0.0425834 -0.00367558)
(-0.0536341 0.0446269 -0.0055584)
(-0.0666656 0.0457838 -0.00831164)
(-0.0842516 0.0437566 -0.0114177)
(-0.10652 0.0320721 -0.0126247)
(-0.127391 -0.00268749 -0.00811239)
(-0.130951 -0.0704697 0.00101692)
(-0.0999942 -0.138587 2.64098e-05)
(-0.0293312 -0.116629 -0.0160864)
(-0.000453555 0.0181062 -0.00110116)
(-0.00273695 0.0326329 -0.00143807)
(-0.006184 0.0372421 -0.00146559)
(-0.00936868 0.0382116 -0.0013912)
(-0.0124167 0.0382545 -0.00130998)
(-0.0153084 0.0383577 -0.00124909)
(-0.0181591 0.0388634 -0.001231)
(-0.0211342 0.039946 -0.00128418)
(-0.0244575 0.0417555 -0.0014495)
(-0.0284478 0.0444488 -0.00178949)
(-0.033573 0.0481872 -0.00239955)
(-0.040514 0.0530965 -0.00339358)
(-0.0502915 0.0591368 -0.00474459)
(-0.0645401 0.0653193 -0.00567334)
(-0.0852044 0.0668382 -0.00352211)
(-0.112807 0.050377 0.00697604)
(-0.140875 -0.00596487 0.0287714)
(-0.148443 -0.112491 0.0479265)
(-0.116082 -0.211091 0.0329188)
(-0.0351563 -0.200453 -0.00215771)
(-0.000546392 0.0202901 -0.00132435)
(-0.003066 0.0364993 -0.00172564)
(-0.00668901 0.0413299 -0.00173585)
(-0.00981032 0.0420532 -0.0016166)
(-0.0126088 0.0418063 -0.00148293)
(-0.015065 0.0417171 -0.00136697)
(-0.0173048 0.0421804 -0.00129113)
(-0.0194841 0.0434308 -0.00128033)
(-0.0217971 0.0457135 -0.00136859)
(-0.02452 0.0493297 -0.00159489)
(-0.0280854 0.0546665 -0.0019902)
(-0.0331516 0.0621204 -0.00246532)
(-0.0407762 0.0717899 -0.00240977)
(-0.0529263 0.0817923 0.000502835)
(-0.0722868 0.0841061 0.0114379)
(-0.100745 0.0595602 0.0373862)
(-0.135215 -0.0158834 0.0744398)
(-0.146107 -0.149001 0.0869188)
(-0.117618 -0.264602 0.0463141)
(-0.0343914 -0.282394 0.00608533)
(-0.000804217 0.022984 -0.00168428)
(-0.00382506 0.0411429 -0.00219995)
(-0.00772093 0.0461151 -0.00220303)
(-0.0107062 0.0463991 -0.00202037)
(-0.0131279 0.045558 -0.00179465)
(-0.0150085 0.0449313 -0.00157859)
(-0.0164712 0.0449953 -0.00140388)
(-0.0176217 0.0460401 -0.00129699)
(-0.01858 0.0483758 -0.00127861)
(-0.0195069 0.0523986 -0.00134987)
(-0.0206908 0.058655 -0.00145803)
(-0.0225746 0.067656 -0.00122633)
(-0.0260489 0.0794699 0.000583839)
(-0.0330919 0.0911425 0.00771079)
(-0.0476871 0.0930931 0.0269056)
(-0.0737609 0.0633232 0.0635578)
(-0.113122 -0.0219297 0.101886)
(-0.121957 -0.172289 0.0920073)
(-0.109974 -0.300345 0.0363272)
(-0.0277343 -0.357233 -0.0026936)
(-0.00118657 0.0265887 -0.00219442)
(-0.00478396 0.0456625 -0.00273746)
(-0.00923309 0.0499041 -0.00267886)
(-0.0122699 0.049094 -0.00238194)
(-0.0144201 0.0475262 -0.0020578)
(-0.0156574 0.0464215 -0.00174809)
(-0.0161759 0.0461329 -0.0014844)
(-0.0160721 0.046869 -0.00128746)
(-0.0153898 0.0489226 -0.00117165)
(-0.0141174 0.0527078 -0.00109315)
(-0.0123336 0.0588446 -0.000951772)
(-0.0100793 0.0677932 -0.000197079)
(-0.00802072 0.0797192 0.00277231)
(-0.00744336 0.0912395 0.0121388)
(-0.0134867 0.0937922 0.0350954)
(-0.0299192 0.0640259 0.0728002)
(-0.0663832 -0.0212424 0.101683)
(-0.0700241 -0.174888 0.0743885)
(-0.0910395 -0.315502 0.0264787)
(-0.0138274 -0.417832 -0.0182329)
(-0.00327923 0.0298523 -0.0032159)
(-0.00909566 0.0536156 -0.00401739)
(-0.0130284 0.0576564 -0.00387661)
(-0.0152342 0.0561467 -0.00343443)
(-0.0162446 0.0529936 -0.00288404)
(-0.0164715 0.0502729 -0.00234448)
(-0.015984 0.0484633 -0.00187586)
(-0.0147178 0.0477954 -0.00150946)
(-0.0125335 0.0485155 -0.00125622)
(-0.00917457 0.0509274 -0.00107287)
(-0.00451818 0.0555868 -0.000831994)
(0.00194979 0.062791 -2.77541e-06)
(0.00974137 0.0728136 0.00297995)
(0.0191822 0.0825668 0.0112621)
(0.0239278 0.0864126 0.0315954)
(0.0267022 0.0628498 0.0625307)
(-0.000689607 -0.0129345 0.0806732)
(-0.00433771 -0.147734 0.0556514)
(-0.0593814 -0.308926 0.0203121)
(0.0061529 -0.45634 -0.0322792)
(-0.00136242 0.0444631 -0.00518081)
(-0.00770596 0.0571727 -0.00566965)
(-0.0161639 0.0575247 -0.00517312)
(-0.0187015 0.0527498 -0.00421343)
(-0.0201656 0.0491571 -0.00342974)
(-0.0197345 0.0465269 -0.00269591)
(-0.0181199 0.0447837 -0.00207694)
(-0.0153413 0.0438086 -0.0016018)
(-0.0113455 0.0437706 -0.00129846)
(-0.00578381 0.044765 -0.00115041)
(0.0015556 0.047392 -0.00105921)
(0.011621 0.0516857 -0.000646535)
(0.0239068 0.0578839 0.00131026)
(0.0404261 0.0635591 0.00665435)
(0.0532031 0.0651929 0.0199782)
(0.0723781 0.0495033 0.0412402)
(0.0551334 -0.00904152 0.0527134)
(0.0564544 -0.111054 0.0413384)
(-0.0202617 -0.284905 0.0139537)
(0.0334034 -0.470816 -0.0444207)
(-0.01242 0.0351401 -0.00609605)
(-0.0237878 0.0783215 -0.00795854)
(-0.021307 0.0764051 -0.00802578)
(-0.0251884 0.0704868 -0.00708315)
(-0.024289 0.0625626 -0.00560996)
(-0.0216722 0.0558461 -0.00419897)
(-0.0173259 0.0504217 -0.00305533)
(-0.0115611 0.0461486 -0.00222802)
(-0.00460826 0.0430898 -0.00176815)
(0.00401995 0.0409629 -0.00165214)
(0.0140096 0.0401502 -0.00183086)
(0.0266706 0.0403244 -0.00209963)
(0.0404773 0.042138 -0.00164107)
(0.0596644 0.0432496 0.000793098)
(0.0726139 0.0433152 0.00699187)
(0.0994647 0.0335028 0.0200747)
(0.0890926 -0.00161351 0.024994)
(0.11398 -0.0719783 0.025327)
(0.0388774 -0.25364 0.00784815)
(0.0777521 -0.461744 -0.0555099)
(-0.0762999 0.0994151 -0.0199286)
(-0.0612163 0.0602706 -0.0159741)
(-0.0604626 0.0593823 -0.0127624)
(-0.0376432 0.0514345 -0.00992712)
(-0.01836 0.0434553 -0.00793774)
(0.00307063 0.0375745 -0.0062442)
(0.022949 0.0333588 -0.0049446)
(0.0428791 0.0297673 -0.00400137)
(0.0607181 0.0272409 -0.00338857)
(0.0799296 0.0248489 -0.00316034)
(0.0958285 0.0236386 -0.00328944)
(0.11643 0.0222692 -0.00376538)
(0.129798 0.0219781 -0.00435614)
(0.157413 0.0211819 -0.00409353)
(0.163797 0.0172688 -0.00299446)
(0.20477 0.00994748 0.00185772)
(0.189706 -0.0208379 0.00725463)
(0.233331 -0.0735562 0.00819755)
(0.155667 -0.234344 0.00283621)
(0.150483 -0.41399 -0.0661407)
(0.119097 0.140172 -0.0170893)
(0.151457 0.0855727 -0.0188443)
(0.228679 0.0631384 -0.0190105)
(0.283436 0.0476518 -0.0176952)
(0.324566 0.0367448 -0.0159286)
(0.362532 0.0286719 -0.0143682)
(0.390976 0.0230506 -0.0128263)
(0.421748 0.0187841 -0.0116715)
(0.440948 0.0157468 -0.0104352)
(0.46907 0.0133508 -0.00976981)
(0.480496 0.0115231 -0.00879117)
(0.509759 0.010261 -0.00878058)
(0.513046 0.00895683 -0.00786296)
(0.546542 0.00812198 -0.00849089)
(0.538615 0.00623063 -0.00674882)
(0.574739 0.00249681 -0.00785921)
(0.541988 -0.00593395 -0.00420865)
(0.555812 -0.0255733 -0.00953499)
(0.425352 -0.066813 -0.0109845)
(0.302623 -0.144319 -0.0793289)
(-0.000138188 0.000142984 -0.000174044)
(-0.00100788 0.000412974 -0.000192232)
(-0.00245874 0.000508412 -0.000181906)
(-0.00393008 0.000536466 -0.00017413)
(-0.00543461 0.000545885 -0.000180263)
(-0.00692882 0.000552814 -0.000200495)
(-0.00839445 0.00055711 -0.000235836)
(-0.00980638 0.000553506 -0.000289075)
(-0.0111243 0.000535068 -0.000364015)
(-0.0122908 0.000493692 -0.000464781)
(-0.0132291 0.000420382 -0.000595021)
(-0.0138434 0.00030651 -0.000756616)
(-0.0140229 0.000146659 -0.000947887)
(-0.0136503 -6.37368e-05 -0.00116131)
(-0.0126211 -0.000315451 -0.00138003)
(-0.0108752 -0.000582872 -0.00157826)
(-0.00844577 -0.0008146 -0.00172002)
(-0.00556364 -0.000927808 -0.00176399)
(-0.00239049 -0.000809649 -0.00165939)
(-0.000362413 -0.00027102 -0.00112118)
(-0.000439013 0.00108747 -0.00033079)