/*--------------------------------*- C++ -*----------------------------------*\
  =========                 |
  \\      /  F ield         | OpenFOAM: The Open Source CFD Toolbox
   \\    /   O peration     | Website:  https://openfoam.org
    \\  /    A nd           | Version:  10
     \\/     M anipulation  |
\*---------------------------------------------------------------------------*/
FoamFile
{
    format      ascii;
    class       volScalarField;
    location    "5.6";
    object      p;
}
// * * * * * * * * * * * * * * * * * * * * * * * * * * * * * * * * * * * * * //

dimensions      [0 2 -2 0 0 0 0];

internalField   nonuniform List<scalar> 
400
(
1.38839e-09
-2.14638e-05
1.77741e-05
9.50144e-05
0.000216457
0.000383281
0.000597036
0.0008593
0.00117085
0.00153092
0.00193632
0.00238046
0.0028523
0.00333548
0.00380782
0.00424204
0.00460707
0.00487175
0.00502829
0.00501672
2.24455e-05
2.52075e-07
4.3117e-05
0.000119934
0.00023848
0.000400666
0.000608534
0.000864051
0.00116837
0.00152118
0.00191984
0.00235822
0.0028258
0.00330734
0.00378083
0.00421877
0.00458917
0.00486014
0.00502534
0.00501128
-2.19236e-05
-5.04467e-05
-9.20983e-06
6.44003e-05
0.000178983
0.000336729
0.000540208
0.000792168
0.00109473
0.00144871
0.00185272
0.0023022
0.00278839
0.00329556
0.00380104
0.00427486
0.00468049
0.00497918
0.00516224
0.0051386
-0.000113771
-0.00014698
-0.000108347
-3.93503e-05
6.9543e-05
0.000220967
0.000418318
0.000665518
0.000966215
0.00132309
0.00173691
0.00220522
0.00272101
0.00327069
0.00383055
0.0043668
0.0048347
0.00518356
0.00539968
0.00536842
-0.000258771
-0.000296524
-0.000261745
-0.000198981
-9.76957e-05
4.53156e-05
0.0002345
0.000475303
0.000773409
0.00113412
0.00156134
0.00205604
0.00261427
0.00322507
0.0038645
0.00449434
0.00505941
0.00548947
0.00575994
0.00572089
-0.000456387
-0.000499275
-0.000469722
-0.000415234
-0.000324262
-0.000192982
-1.57567e-05
0.000214635
0.000506361
0.000868095
0.00130806
0.00183223
0.00244176
0.00313136
0.00387865
0.00464138
0.00535069
0.00590824
0.00626639
0.00621953
-0.000705291
-0.000754314
-0.00073156
-0.000687989
-0.000611074
-0.000496448
-0.000337291
-0.000124502
0.000152877
0.000507548
0.00095334
0.00150329
0.00216568
0.00294789
0.0038313
0.004774
0.00569231
0.00644994
0.00695223
0.00690357
-0.001004
-0.00106042
-0.00104625
-0.0010168
-0.000958697
-0.0008673
-0.000734859
-0.00055058
-0.000300727
3.17688e-05
0.000467405
0.00102941
0.00174142
0.00261142
0.00365108
0.00482494
0.00603894
0.00711107
0.00786093
0.00783894
-0.00135063
-0.00141583
-0.00141201
-0.00140014
-0.00136632
-0.00130612
-0.00121146
-0.00107051
-0.000867373
-0.00058112
-0.000184782
0.000355223
0.00107722
0.00201733
0.00321462
0.00466093
0.00627705
0.00784551
0.00904011
0.00914662
-0.00174279
-0.00181817
-0.00182599
-0.00183489
-0.00183086
-0.00181049
-0.0017664
-0.00168695
-0.00155566
-0.00134944
-0.00103646
-0.000573419
9.7132e-05
0.00104566
0.00232934
0.00402579
0.0061293
0.00846192
0.0104713
0.0110242
-0.00217795
-0.0022647
-0.0022842
-0.00231581
-0.00234609
-0.00237367
-0.00239319
-0.00239505
-0.00236484
-0.00228121
-0.00211275
-0.00181331
-0.00131621
-0.000529437
0.000660267
0.00238285
0.00488173
0.00826215
0.0117871
0.0133223
-0.00265421
-0.00275291
-0.00278155
-0.00283521
-0.0029018
-0.00298309
-0.00307738
-0.00317927
-0.00327977
-0.0033646
-0.00341172
-0.00338776
-0.00324104
-0.00289207
-0.00223114
-0.0010893
0.00101154
0.00512793
0.0107166
0.0144874
-0.00317226
-0.00328261
-0.00331392
-0.00338476
-0.00348458
-0.00362005
-0.00379499
-0.00401028
-0.00426617
-0.00456235
-0.00489806
-0.00527351
-0.00569387
-0.00619089
-0.00689327
-0.00792567
-0.00858172
-0.00560425
0.00129789
0.00937782
-0.00373341
-0.00384659
-0.0038624
-0.0039376
-0.00406358
-0.00425047
-0.00450555
-0.00483756
-0.00525856
-0.00578685
-0.00645348
-0.00731575
-0.0084888
-0.0102138
-0.0130963
-0.0177855
-0.0240838
-0.0240079
-0.0168298
-0.00325316
-0.00437149
-0.00449958
-0.00448582
-0.00455544
-0.00468332
-0.00489333
-0.00520179
-0.00562714
-0.00619432
-0.0069421
-0.00793684
-0.00929663
-0.0112703
-0.014296
-0.0194796
-0.0278399
-0.0401897
-0.0437961
-0.0374676
-0.0188685
-0.00516609
-0.00509738
-0.00497637
-0.00496022
-0.00507253
-0.00531788
-0.00569838
-0.00622461
-0.00692288
-0.00784074
-0.00906641
-0.0107541
-0.0132527
-0.0170001
-0.0235773
-0.0332409
-0.0482523
-0.0535069
-0.048465
-0.0248817
-0.00565778
-0.00609323
-0.00583002
-0.00587012
-0.00590013
-0.00606103
-0.00637005
-0.00685583
-0.00755146
-0.00849987
-0.00978924
-0.0115446
-0.014182
-0.0179167
-0.0244964
-0.0335222
-0.0465025
-0.0504884
-0.0435773
-0.0107461
-0.00901532
-0.00650635
-0.00592472
-0.00540924
-0.00539881
-0.00564905
-0.0061054
-0.00672836
-0.00753435
-0.00854464
-0.00985859
-0.0115365
-0.0139801
-0.0173556
-0.0227216
-0.0292448
-0.0372971
-0.0370452
-0.0243513
0.0250493
-0.00577876
-0.00876307
-0.00776755
-0.00784952
-0.00748095
-0.00732886
-0.00737623
-0.00765132
-0.00819229
-0.00898119
-0.0100966
-0.0115654
-0.0138135
-0.0167784
-0.021768
-0.0268534
-0.0323719
-0.0223397
0.00583516
0.087147
-0.0308688
-0.0058784
-0.00448863
-0.00380413
-0.00367178
-0.0039701
-0.00460452
-0.00535823
-0.00630497
-0.00740082
-0.00884
-0.0105487
-0.0129873
-0.0156906
-0.0188763
-0.0192132
-0.0134876
0.0176929
0.0882711
0.224714
)
;

boundaryField
{
    movingWall
    {
        type            zeroGradient;
    }
    fixedWalls
    {
        type            zeroGradient;
    }
    frontAndBack
    {
        type            empty;
    }
}


// ************************************************************************* //
