/*--------------------------------*- C++ -*----------------------------------*\
  =========                 |
  \\      /  F ield         | OpenFOAM: The Open Source CFD Toolbox
   \\    /   O peration     | Website:  https://openfoam.org
    \\  /    A nd           | Version:  10
     \\/     M anipulation  |
\*---------------------------------------------------------------------------*/
FoamFile
{
    format      ascii;
    class       surfaceScalarField;
    location    "5.6";
    object      phi;
}
// * * * * * * * * * * * * * * * * * * * * * * * * * * * * * * * * * * * * * //

dimensions      [0 3 -1 0 0 0 0];

internalField   nonuniform List<scalar> 
760
(
-8.84019e-06
8.84019e-06
-2.9383e-05
2.05428e-05
-5.35875e-05
2.42045e-05
-7.82553e-05
2.46678e-05
-0.000102364
2.41085e-05
-0.000125471
2.31067e-05
-0.000147146
2.16758e-05
-0.000166833
1.9687e-05
-0.000183814
1.69808e-05
-0.000197204
1.33897e-05
-0.000205959
8.75506e-06
-0.000208912
2.95277e-06
-0.000204839
-4.07274e-06
-0.000192638
-1.2201e-05
-0.000171542
-2.10956e-05
-0.000141436
-3.01062e-05
-0.000103385
-3.80508e-05
-6.06136e-05
-4.27717e-05
-2.05828e-05
-4.00308e-05
-2.05828e-05
-2.1554e-05
3.03942e-05
-6.11917e-05
6.01805e-05
-0.000106188
6.9201e-05
-0.000151453
6.99327e-05
-0.000195083
6.77386e-05
-0.000236067
6.40905e-05
-0.0002735
5.91087e-05
-0.000306375
5.25621e-05
-0.000333526
4.41315e-05
-0.000353609
3.34726e-05
-0.000365078
2.02247e-05
-0.000366403
4.27719e-06
-0.000355896
-1.45793e-05
-0.000332118
-3.59796e-05
-0.00029419
-5.90229e-05
-0.000242213
-8.20834e-05
-0.000178007
-0.000102257
-0.000106598
-0.00011418
-3.90843e-05
-0.000107544
-5.96671e-05
-2.66877e-05
5.70819e-05
-7.42261e-05
0.000107719
-0.000127592
0.000122566
-0.000180932
0.000123273
-0.0002321
0.000118907
-0.000279952
0.000111943
-0.000323479
0.000102635
-0.00036158
9.0663e-05
-0.000392996
7.55476e-05
-0.000416277
5.67541e-05
-0.000429821
3.37682e-05
-0.000431786
6.24239e-06
-0.000420151
-2.62139e-05
-0.000393188
-6.29433e-05
-0.000349605
-0.000102606
-0.000289159
-0.000142529
-0.000213607
-0.000177809
-0.000128647
-0.000199141
-4.7531e-05
-0.000188661
-0.000107198
-2.86415e-05
8.57233e-05
-7.97319e-05
0.000158809
-0.000136934
0.000179768
-0.000194062
0.000180401
-0.000248953
0.000173798
-0.000300508
0.000163499
-0.000347771
0.000149898
-0.00038969
0.000132582
-0.000425033
0.00011089
-0.000452321
8.40427e-05
-0.000469793
5.12393e-05
-0.000475414
1.18639e-05
-0.000466698
-3.49296e-05
-0.000441073
-8.85692e-05
-0.000396301
-0.000147378
-0.000331148
-0.000207682
-0.000246846
-0.000262111
-0.000149627
-0.00029636
-5.53496e-05
-0.000282938
-0.000162548
-2.98063e-05
0.00011553
-8.34524e-05
0.000212456
-0.000143583
0.000239899
-0.000203766
0.000240584
-0.000261883
0.000231914
-0.000316953
0.000218569
-0.000368155
0.0002011
-0.000414569
0.000178995
-0.00045506
0.000151382
-0.000488172
0.000117154
-0.000512003
7.50703e-05
-0.000524109
2.397e-05
-0.000521461
-3.75771e-05
-0.000500268
-0.000109762
-0.000456728
-0.000190918
-0.000387792
-0.000276618
-0.000293233
-0.00035667
-0.00017967
-0.000409923
-6.68643e-05
-0.000395744
-0.000229412
-3.10144e-05
0.000146544
-8.73876e-05
0.000268829
-0.000150714
0.000303226
-0.000214286
0.000304155
-0.00027605
0.000293678
-0.000335199
0.000277718
-0.000391118
0.000257019
-0.000443106
0.000230984
-0.000490231
0.000198506
-0.000531158
0.000158081
-0.000563942
0.000107854
-0.000585788
4.58158e-05
-0.000592978
-3.03868e-05
-0.000580066
-0.000122674
-0.00054094
-0.000230043
-0.000469512
-0.000348046
-0.000362607
-0.000463575
-0.00022618
-0.000546349
-8.55533e-05
-0.00053637
-0.000314965
-3.2469e-05
0.000179013
-9.20448e-05
0.000328405
-0.000159087
0.000370269
-0.00022655
0.000371619
-0.00029247
0.000359597
-0.000356265
0.000341513
-0.000417619
0.000318373
-0.000476172
0.000289537
-0.00053135
0.000253685
-0.000582142
0.000208873
-0.000626779
0.000152492
-0.000662276
8.13125e-05
-0.000684415
-8.24775e-06
-0.000685751
-0.000121338
-0.000657025
-0.000258769
-0.000587312
-0.00041776
-0.000467749
-0.000583138
-0.000300623
-0.000713476
-0.000117748
-0.000719245
-0.000432713
-3.42034e-05
0.000213216
-9.75151e-05
0.000391716
-0.000168785
0.000441539
-0.000240553
0.000443386
-0.000310962
0.000430006
-0.000379727
0.000410279
-0.000446931
0.000385576
-0.000512713
0.000355319
-0.000577083
0.000318055
-0.000639665
0.000271455
-0.000699288
0.000212114
-0.000753335
0.00013536
-0.000797028
3.54458e-05
-0.000822033
-9.63335e-05
-0.000814739
-0.000266064
-0.00075735
-0.000475148
-0.000630805
-0.000709683
-0.000426756
-0.000917525
-0.000178606
-0.000967395
-0.000611319
-3.62563e-05
0.000249473
-0.000103869
0.000459329
-0.000179816
0.000517486
-0.000256129
0.000519699
-0.000331083
0.000504961
-0.000404756
0.000483952
-0.000477741
0.000458561
-0.000550853
0.000428431
-0.000624969
0.000392171
-0.000700783
0.000347269
-0.000778354
0.000289686
-0.000856301
0.000213307
-0.00093029
0.000109434
-0.000992754
-3.38691e-05
-0.0010262
-0.000232615
-0.00100474
-0.000496609
-0.000892973
-0.000821453
-0.000656591
-0.00115391
-0.000305478
-0.00131851
-0.000916797
-3.87477e-05
0.00028822
-0.00011132
0.000531901
-0.000192342
0.000598508
-0.000273236
0.000600593
-0.000352438
0.000584163
-0.000430449
0.000561963
-0.000508471
0.000536584
-0.000588158
0.000508117
-0.000671539
0.000475553
-0.000760888
0.000436617
-0.00085837
0.000387168
-0.000965275
0.000320213
-0.00108042
0.000224579
-0.0011982
8.39139e-05
-0.00130413
-0.000126692
-0.00136638
-0.000434356
-0.00132607
-0.000861766
-0.00108881
-0.00139117
-0.000574547
-0.00183277
-0.00149134
-4.19525e-05
0.000330173
-0.000120366
0.000610315
-0.000206848
0.000684989
-0.000292134
0.000685879
-0.000374873
0.000666902
-0.000456047
0.000643136
-0.000537517
0.000618053
-0.000621846
0.000592446
-0.000712408
0.000566115
-0.000813522
0.000537732
-0.000930461
0.000504106
-0.00106909
0.000458843
-0.00123489
0.000390375
-0.00143028
0.000279306
-0.0016544
9.74275e-05
-0.00188027
-0.000208487
-0.00201228
-0.000729759
-0.00182243
-0.00158101
-0.00104962
-0.00260557
-0.00254097
-4.64182e-05
0.000376591
-0.000131975
0.000695871
-0.000224338
0.000777352
-0.00031358
0.000775121
-0.000398684
0.000752006
-0.000481175
0.000725627
-0.000563557
0.000700436
-0.000649228
0.000678117
-0.000742843
0.00065973
-0.000850892
0.00064578
-0.000982455
0.000635669
-0.0011501
0.000626484
-0.00137061
0.000610885
-0.00166508
0.000573777
-0.00205161
0.00048396
-0.00251502
0.000254926
-0.00288918
-0.000355603
-0.00271247
-0.00175772
-0.00158274
-0.0037353
-0.00412371
-5.3138e-05
0.000429729
-0.000147823
0.000790557
-0.000246581
0.00087611
-0.000339108
0.000867648
-0.000424899
0.000837797
-0.000506141
0.000806869
-0.00058594
0.000780235
-0.000668165
0.000760342
-0.000758211
0.000749775
-0.000864122
0.000751692
-0.000998295
0.000769842
-0.00118016
0.000808352
-0.00143998
0.000870697
-0.00182049
0.000954291
-0.0023614
0.00102487
-0.00301174
0.000905266
-0.00347906
0.000111719
-0.00320127
-0.00203552
-0.00187601
-0.00506055
-0.00599972
-6.46958e-05
0.000494425
-0.000171635
0.000897496
-0.000276575
0.00098105
-0.000370423
0.000961496
-0.000454534
0.000921908
-0.000531819
0.000884155
-0.000605234
0.00085365
-0.000678509
0.000833617
-0.000756886
0.000828153
-0.000848443
0.000843249
-0.000966535
0.000887934
-0.0011335
0.000975312
-0.00138556
0.00112276
-0.00176715
0.00133588
-0.00230274
0.00156047
-0.00289318
0.0014957
-0.00325539
0.00047393
-0.0029491
-0.00234181
-0.00186762
-0.00614203
-0.00786734
-7.87506e-05
0.000573176
-0.000201451
0.0010202
-0.000315737
0.00109534
-0.00041367
0.00105943
-0.000495212
0.00100345
-0.00056473
0.000953673
-0.000626172
0.000915093
-0.00068297
0.000890415
-0.000738623
0.000883806
-0.000798064
0.000902689
-0.000870395
0.000960266
-0.000970482
0.0010754
-0.00112472
0.00127699
-0.00135681
0.00156798
-0.00167926
0.00188291
-0.00198544
0.00180189
-0.00218377
0.000672255
-0.00210141
-0.00242417
-0.00153401
-0.00670944
-0.00940135
-0.000145055
0.000718231
-0.00028175
0.00115689
-0.000385542
0.00119913
-0.000465392
0.00113928
-0.000532352
0.00107041
-0.000590201
0.00101152
-0.000639655
0.000964547
-0.000679998
0.000930758
-0.000710426
0.000914234
-0.000729366
0.000921628
-0.000735957
0.000966857
-0.0007293
0.00106874
-0.000713112
0.00126081
-0.000677264
0.00153213
-0.000634101
0.00183975
-0.000585824
0.00175361
-0.000602499
0.000688931
-0.000854885
-0.00217178
-0.000848749
-0.00671557
-0.0102501
-9.54962e-05
0.000813727
-0.00029584
0.00135724
-0.00044334
0.00134663
-0.00054574
0.00124168
-0.000614485
0.00113916
-0.000659367
0.0010564
-0.000685283
0.000990464
-0.000693366
0.00093884
-0.00068189
0.000902758
-0.000643535
0.000883273
-0.000568449
0.00089177
-0.000437497
0.00093779
-0.000228097
0.00105141
7.86446e-05
0.00122539
0.000490808
0.00142759
0.000877765
0.00136665
0.000992788
0.000573908
0.00046664
-0.00164564
2.32244e-05
-0.00627216
-0.0102269
-0.000388442
0.00120217
-0.000475715
0.00144451
-0.000561874
0.00143279
-0.000640487
0.00132029
-0.00067462
0.00117329
-0.000671332
0.00105311
-0.000638018
0.00095715
-0.000575788
0.000876611
-0.000488094
0.000815063
-0.000367728
0.000762908
-0.000208083
0.000732125
1.07395e-05
0.000718967
0.000314875
0.000747271
0.000732829
0.000807435
0.00127922
0.000881196
0.00181535
0.000830519
0.00221386
0.0001754
0.00191288
-0.00134466
0.00099961
-0.00535888
-0.00922726
-0.00135211
0.00255428
-0.00131612
0.00140851
-0.00107173
0.0011884
-0.000718335
0.000966898
-0.000342407
0.000797361
3.63363e-05
0.000674371
0.000404806
0.00058868
0.000760529
0.000520888
0.00110357
0.000472021
0.00143686
0.000429618
0.0017686
0.000400384
0.00210643
0.000381142
0.00248368
0.00037002
0.00291603
0.000375082
0.00346582
0.000331405
0.0040574
0.000238938
0.00443463
-0.000201823
0.00430355
-0.00121359
0.00267834
-0.00373366
-0.00654893
0.00255428
0.0039628
0.00515119
0.00611809
0.00691545
0.00758982
0.0081785
0.00869939
0.00917141
0.00960103
0.0100014
0.0103826
0.0107526
0.0111277
0.0114591
0.011698
0.0114962
0.0102826
0.00654893
)
;

boundaryField
{
    movingWall
    {
        type            calculated;
        value           uniform 0;
    }
    fixedWalls
    {
        type            calculated;
        value           uniform 0;
    }
    frontAndBack
    {
        type            empty;
        value           nonuniform List<scalar> 0();
    }
}


// ************************************************************************* //
