/*--------------------------------*- C++ -*----------------------------------*\
  =========                 |
  \\      /  F ield         | OpenFOAM: The Open Source CFD Toolbox
   \\    /   O peration     | Website:  https://openfoam.org
    \\  /    A nd           | Version:  10
     \\/     M anipulation  |
\*---------------------------------------------------------------------------*/
FoamFile
{
    format      ascii;
    class       volScalarField;
    location    "9.125";
    object      p;
}
// * * * * * * * * * * * * * * * * * * * * * * * * * * * * * * * * * * * * * //

dimensions      [0 2 -2 0 0 0 0];

internalField   nonuniform List<scalar> 
400
(
3.21007e-08
-3.01112e-05
2.71463e-05
0.000138715
0.000313096
0.000553469
0.000864934
0.00125411
0.00172779
0.00229134
0.00294654
0.0036887
0.00450214
0.00535565
0.00619695
0.00695435
0.00754379
0.00790111
0.00803693
0.00790774
3.31586e-05
2.67704e-06
6.83741e-05
0.000183083
0.000356848
0.000593679
0.000899048
0.00127958
0.00174199
0.0022919
0.00293197
0.00365893
0.00445798
0.00530189
0.00613974
0.00689836
0.0074876
0.00783768
0.00796489
0.00781583
-3.84152e-05
-7.83532e-05
-1.44166e-05
9.5346e-05
0.000261688
0.000488783
0.00078264
0.00115085
0.00160172
0.00214342
0.00278204
0.00351846
0.00434422
0.00523764
0.00614205
0.00697312
0.00761582
0.00797171
0.00806038
0.00784167
-0.000192482
-0.000238958
-0.00017941
-7.83857e-05
7.56429e-05
0.000287143
0.00056292
0.000911978
0.00134499
0.00187397
0.00251095
0.00326444
0.00413426
0.00510025
0.00611305
0.00706999
0.00781385
0.0081824
0.00819192
0.00785313
-0.000438872
-0.000490667
-0.000438862
-0.000351111
-0.000215173
-2.62212e-05
0.000223432
0.000544404
0.000950155
0.00145731
0.00208529
0.00285371
0.00377491
0.00484114
0.00600943
0.00716114
0.00807425
0.00846527
0.0083315
0.00779251
-0.000775883
-0.000832749
-0.000792029
-0.000722441
-0.000611349
-0.00045385
-0.000241733
3.68505e-05
0.000397754
0.000861981
0.00145664
0.00221456
0.003167
0.00432674
0.00568413
0.0071179
0.00831331
0.00875261
0.00838133
0.0075104
-0.0011973
-0.00125962
-0.00123331
-0.0011873
-0.00110907
-0.00099423
-0.000835107
-0.000620069
-0.000332607
5.05118e-05
0.000561873
0.00124586
0.00215744
0.00334899
0.00484457
0.00660901
0.00824193
0.0088051
0.00812375
0.00678993
-0.0016945
-0.00176294
-0.00175423
-0.00173739
-0.00170075
-0.00164147
-0.00155407
-0.00142984
-0.00125593
-0.00101276
-0.000670867
-0.000188238
0.000493384
0.00144864
0.00275085
0.00471737
0.00691032
0.0078893
0.00716201
0.0055922
-0.00225653
-0.00233176
-0.00234308
-0.00236017
-0.00237318
-0.00238226
-0.00238643
-0.00238354
-0.0023704
-0.00234222
-0.00229194
-0.00221272
-0.00211272
-0.00198187
-0.0015759
-0.000452715
0.00197573
0.00431839
0.00504465
0.00468761
-0.00287038
-0.00295276
-0.00298475
-0.00303814
-0.00310597
-0.00319295
-0.00330528
-0.00345175
-0.00364652
-0.00391365
-0.00429614
-0.00488112
-0.00587654
-0.00759939
-0.0099472
-0.0112716
-0.0093315
-0.00433285
0.000659888
0.00418688
-0.00352183
-0.00361129
-0.00366154
-0.00374952
-0.0038716
-0.00403885
-0.00426676
-0.00457869
-0.00501324
-0.00563767
-0.00657579
-0.00806317
-0.010594
-0.0150451
-0.0214468
-0.0269959
-0.0262238
-0.0183309
-0.00856322
-0.00025434
-0.0041968
-0.00429201
-0.00435259
-0.00446671
-0.004634
-0.00487277
-0.00520788
-0.00567748
-0.00634546
-0.00732375
-0.00882079
-0.0112272
-0.0152738
-0.0221417
-0.0318404
-0.0406613
-0.0415623
-0.0328689
-0.0213802
-0.00967583
-0.00488602
-0.00498594
-0.00504419
-0.00516899
-0.00536208
-0.00564935
-0.0060629
-0.00665045
-0.00749143
-0.00872138
-0.010589
-0.0135393
-0.0183718
-0.026126
-0.0369063
-0.0462673
-0.0478411
-0.0397104
-0.0299718
-0.0181083
-0.00558013
-0.00567432
-0.00570149
-0.00580876
-0.00600007
-0.00630509
-0.00675585
-0.00740219
-0.00832429
-0.00965221
-0.011629
-0.0146463
-0.0194247
-0.0266456
-0.0363706
-0.043843
-0.0457033
-0.0384691
-0.0320656
-0.0211785
-0.00630534
-0.00640037
-0.00637102
-0.00643577
-0.00658387
-0.00685661
-0.00728612
-0.00791794
-0.00882297
-0.0101027
-0.0119527
-0.0146783
-0.0187753
-0.02448
-0.0317544
-0.037015
-0.038262
-0.0321002
-0.02892
-0.0181961
-0.00714743
-0.0070439
-0.00687621
-0.00680926
-0.00688577
-0.0071194
-0.00752229
-0.00811855
-0.00896072
-0.0101014
-0.0117262
-0.0139817
-0.0171571
-0.0212134
-0.0261411
-0.0292577
-0.029767
-0.0242822
-0.0231249
-0.008859
-0.00759609
-0.00798596
-0.00762833
-0.00757211
-0.00750188
-0.00758336
-0.00782861
-0.00827099
-0.00895934
-0.00990221
-0.0112726
-0.0131084
-0.0155678
-0.0184695
-0.021813
-0.0234971
-0.0233082
-0.0179712
-0.015474
0.00922663
-0.0109681
-0.00840296
-0.00768566
-0.00700021
-0.0068462
-0.00695565
-0.0072732
-0.00776065
-0.00844414
-0.00933594
-0.0105552
-0.0121146
-0.0141523
-0.0163751
-0.0187388
-0.0194387
-0.0183752
-0.0114224
-0.00219897
0.0409819
-0.00756962
-0.0105109
-0.0093136
-0.00921967
-0.00867112
-0.00836499
-0.00825505
-0.00836457
-0.00874743
-0.00938905
-0.0104089
-0.0117607
-0.0137072
-0.0158462
-0.0183659
-0.0188213
-0.0169042
-0.00312508
0.0215992
0.098074
-0.0328144
-0.00767258
-0.00601894
-0.00518246
-0.00491669
-0.005071
-0.00552824
-0.00609973
-0.00687623
-0.00778162
-0.00904813
-0.0105074
-0.012359
-0.0138663
-0.0147089
-0.0111988
-0.000496965
0.0334901
0.0991064
0.229376
)
;

boundaryField
{
    movingWall
    {
        type            zeroGradient;
    }
    fixedWalls
    {
        type            zeroGradient;
    }
    frontAndBack
    {
        type            empty;
    }
}


// ************************************************************************* //
