/*--------------------------------*- C++ -*----------------------------------*\
  =========                 |
  \\      /  F ield         | OpenFOAM: The Open Source CFD Toolbox
   \\    /   O peration     | Website:  https://openfoam.org
    \\  /    A nd           | Version:  10
     \\/     M anipulation  |
\*---------------------------------------------------------------------------*/
FoamFile
{
    format      ascii;
    class       volScalarField;
    location    "3.6";
    object      p;
}
// * * * * * * * * * * * * * * * * * * * * * * * * * * * * * * * * * * * * * //

dimensions      [0 2 -2 0 0 0 0];

internalField   nonuniform List<scalar> 
475
(
-0.0468972
-0.071775
-0.10186
-0.126061
-0.14944
-0.0717304
-0.0856419
-0.101943
-0.12058
-0.136781
-0.0699031
-0.0794294
-0.094292
-0.1115
-0.127743
-0.0689888
-0.0799733
-0.0947101
-0.109533
-0.123038
-0.0391099
-0.0661308
-0.089503
-0.106646
-0.118959
-0.167327
-0.174864
-0.17747
-0.186481
-0.20568
-0.229245
-0.247428
-0.253931
-0.244693
-0.218644
-0.181952
-0.141216
-0.100985
-0.0657283
-0.0426617
-0.0275485
-0.00977615
0.00662112
0.0152575
0.020277
0.0256979
0.0315315
0.0359034
0.0380934
0.0384557
0.0376268
0.036138
0.0343299
0.0323868
0.0303963
0.0283958
0.0263992
0.024411
0.0224318
0.020461
0.0184974
0.0165398
0.0145863
0.0126347
0.0106865
0.00874092
0.00679702
0.00485425
0.00291221
0.000970632
-0.153037
-0.164825
-0.171519
-0.17649
-0.184023
-0.194011
-0.199915
-0.199854
-0.190895
-0.172753
-0.151354
-0.128986
-0.105939
-0.0827754
-0.063899
-0.0483107
-0.0288937
-0.00886668
0.00504687
0.0143799
0.022352
0.0291999
0.034097
0.0368792
0.037875
0.0375665
0.0364139
0.0347713
0.0328723
0.0308544
0.0287924
0.0267238
0.0246663
0.0226262
0.0206049
0.0186009
0.0166122
0.0146375
0.0126716
0.0107123
0.00875824
0.00680805
0.00486078
0.0029155
0.00097151
-0.140691
-0.150042
-0.156148
-0.158438
-0.159614
-0.160145
-0.158504
-0.155575
-0.147344
-0.138966
-0.135311
-0.128423
-0.117113
-0.104839
-0.0905289
-0.0714266
-0.0460336
-0.0204216
-0.00119044
0.011878
0.021579
0.0287652
0.0336195
0.0365017
0.0377614
0.037743
0.0368069
0.0352763
0.0333987
0.0313422
0.0292112
0.0270653
0.0249343
0.022831
0.0207581
0.0187127
0.0166923
0.014691
0.0127069
0.0107354
0.00877299
0.0068171
0.00486589
0.0029179
0.000972032
-0.133017
-0.139877
-0.144263
-0.144008
-0.141755
-0.136477
-0.129101
-0.122242
-0.111411
-0.111336
-0.125844
-0.13005
-0.121772
-0.111336
-0.100672
-0.0841581
-0.0567941
-0.0270956
-0.00347565
0.0119945
0.0219527
0.0287387
0.0334533
0.0364304
0.0378525
0.0379798
0.0371363
0.0356391
0.0337476
0.0316489
0.0294639
0.0272634
0.0250839
0.0229402
0.0208354
0.0187679
0.0167309
0.0147185
0.0127257
0.0107477
0.00878073
0.00682167
0.00486824
0.00291877
0.00097199
-0.127649
-0.133626
-0.136397
-0.135751
-0.131951
-0.123717
-0.113529
-0.101872
-0.0919126
-0.0952784
-0.112893
-0.126757
-0.127082
-0.116599
-0.0998239
-0.0779988
-0.0511963
-0.0242546
-0.00247994
0.0128147
0.0231007
0.0300293
0.0345852
0.0372894
0.0384756
0.0384431
0.0374981
0.0359311
0.0339851
0.0318398
0.0296143
0.027379
0.0251703
0.0230036
0.0208813
0.0187999
0.0167529
0.0147334
0.0127355
0.0107539
0.00878451
0.0068238
0.00486932
0.00291915
0.000971949
-0.190929
-0.193077
-0.197654
-0.209977
-0.233844
-0.265324
-0.290285
-0.294872
-0.273819
-0.226304
-0.157414
-0.0786551
-0.0020724
0.0611913
0.103366
0.122451
0.123108
0.112918
0.0979669
0.0830921
0.0691821
0.0574529
0.0484393
0.042002
0.0376191
0.0346488
0.0325274
0.030849
0.0293577
0.027908
0.0264261
0.0248804
0.0232677
0.0215857
0.0198442
0.0180541
0.0162254
0.0143669
0.0124857
0.0105875
0.00867688
0.00675738
0.00483152
0.00290136
0.000968231
-0.181065
-0.185174
-0.193833
-0.21312
-0.244252
-0.281079
-0.310556
-0.3196
-0.303054
-0.258946
-0.190103
-0.109912
-0.0300972
0.0373162
0.0850724
0.10888
0.113739
0.106539
0.0935014
0.078637
0.065652
0.0553106
0.0475032
0.041888
0.0379531
0.0351515
0.0330346
0.0312868
0.0297055
0.0281712
0.0266198
0.0250221
0.0233646
0.0216527
0.0198904
0.0180856
0.0162467
0.0143812
0.0124951
0.0105934
0.00868045
0.00675937
0.00483252
0.00290168
0.000968164
-0.191948
-0.188009
-0.196173
-0.218774
-0.255768
-0.297241
-0.330277
-0.34348
-0.329622
-0.287521
-0.219884
-0.140938
-0.0639168
0.00344732
0.0542425
0.0816316
0.089858
0.0864439
0.0770422
0.0666085
0.0576831
0.0509647
0.0457371
0.0416363
0.0384534
0.0359322
0.0338383
0.0319972
0.030286
0.0286237
0.0269615
0.0252733
0.0235474
0.0217825
0.0199814
0.0181484
0.016289
0.0144108
0.0125149
0.0106064
0.00868853
0.00676408
0.00483496
0.00290258
0.000968118
-0.181179
-0.181084
-0.187846
-0.208278
-0.241337
-0.278752
-0.309618
-0.325017
-0.317449
-0.283311
-0.225186
-0.154599
-0.0857001
-0.0263374
0.0193713
0.0461093
0.0564176
0.0568035
0.0525148
0.0477184
0.0451084
0.0438273
0.0425141
0.0408009
0.0388384
0.0368128
0.0348305
0.0329218
0.0310738
0.0292608
0.0274593
0.0256527
0.0238316
0.0219921
0.020134
0.0182585
0.0163682
0.0144633
0.0125495
0.010629
0.00870304
0.00677293
0.00483994
0.00290492
0.00096861
-0.213916
-0.18234
-0.185193
-0.198654
-0.22544
-0.25776
-0.284608
-0.297426
-0.290761
-0.261229
-0.21278
-0.154692
-0.0976042
-0.0492704
-0.0146743
0.00808631
0.0222231
0.0283959
0.0291483
0.0292938
0.0322573
0.035916
0.0384478
0.039241
0.0386678
0.0372988
0.0355531
0.0336662
0.0317452
0.0298265
0.0279164
0.0260111
0.0241061
0.0221979
0.0202851
0.0183669
0.0164437
0.0145165
0.0125874
0.0106552
0.0087205
0.00678403
0.00484651
0.00290824
0.000969498
)
;

boundaryField
{
    inlet
    {
        type            zeroGradient;
    }
    outlet
    {
        type            fixedValue;
        value           uniform 0;
    }
    upperWall
    {
        type            zeroGradient;
    }
    lowerWall
    {
        type            zeroGradient;
    }
    frontAndBack
    {
        type            empty;
    }
}


// ************************************************************************* //
