/*--------------------------------*- C++ -*----------------------------------*\
  =========                 |
  \\      /  F ield         | OpenFOAM: The Open Source CFD Toolbox
   \\    /   O peration     | Website:  https://openfoam.org
    \\  /    A nd           | Version:  10
     \\/     M anipulation  |
\*---------------------------------------------------------------------------*/
FoamFile
{
    format      ascii;
    class       volScalarField;
    location    "9.725";
    object      p;
}
// * * * * * * * * * * * * * * * * * * * * * * * * * * * * * * * * * * * * * //

dimensions      [0 2 -2 0 0 0 0];

internalField   nonuniform List<scalar> 
496
(
28.2846
28.6448
25.3208
18.8082
28.8753
29.6614
25.4242
18.8408
33.8807
31.4677
22.8581
12.0785
41.2281
38.4124
34.9819
19.7074
9.948
0.783648
9.87369
0.787313
-2.95713
-7.45157
-31.154
-57.8287
-6.15996
-10.4049
-12.4289
-13.3961
-6.64122
-11.9969
-15.2461
-16.596
-0.648333
-1.43669
-6.36615
-11.3074
-27.6018
-8.14034
-8.20216
-13.9002
-13.9345
-14.4579
-14.9465
-15.6117
-16.0402
-16.3466
-16.6617
-16.6298
-16.2321
-15.2503
-14.0249
-12.4298
-11.0362
-9.77302
-8.2147
-6.68526
-5.36858
-4.89037
-4.59425
-4.45431
-4.45844
-4.45128
-4.32204
-3.89953
-3.60798
-3.05561
-2.28651
-1.32677
-0.527613
-0.0714661
0.261185
0.423474
0.344764
-0.00475677
-0.62137
-0.852872
-0.85569
-0.537964
-0.249037
-0.143595
-16.9599
-16.9634
-16.728
-16.5237
-16.4003
-16.6533
-16.8745
-16.8242
-16.5277
-15.7383
-14.391
-12.765
-11.3834
-9.84244
-7.81397
-5.86386
-4.73002
-4.41119
-4.24681
-4.18691
-4.31927
-4.45237
-4.31953
-4.01153
-3.75507
-3.22281
-2.4324
-1.24314
-0.360642
0.191064
0.505679
0.492116
0.296642
-0.131597
-0.687987
-1.2389
-1.2907
-0.866315
-0.392892
-0.106874
-15.3039
-17.1623
-17.0876
-16.7358
-16.6302
-16.8403
-16.7623
-17.1843
-17.543
-17.0953
-15.4306
-13.3987
-11.3893
-9.13885
-7.20972
-5.94631
-5.16584
-4.42085
-4.298
-4.78525
-5.08721
-5.52362
-5.31593
-4.98083
-4.20208
-3.25808
-1.97813
-0.731239
0.1226
0.696627
0.74112
0.348075
-0.242206
-0.830731
-1.70199
-2.38669
-2.31448
-2.04944
-1.3828
-0.487269
-15.9361
-16.2523
-15.7941
-16.6368
-16.9561
-16.2319
-16.0366
-17.3908
-18.7956
-18.5601
-16.6366
-14.8439
-12.4868
-9.11716
-5.91099
-3.3016
-2.07092
-1.99738
-3.01926
-4.05951
-5.15736
-5.95356
-5.96147
-6.14312
-5.31375
-4.34456
-2.5739
-0.157475
2.29241
3.60339
2.98657
1.62716
0.206089
-0.812318
-1.91007
-2.62064
-3.04268
-2.95701
-2.20888
-0.972262
46.3016
47.9305
62.4537
74.479
46.0846
47.5877
61.8616
74.3249
-29.4699
-20.1466
-14.2818
-18.4941
-26.6093
-23.3652
-12.5664
-30.1877
-25.6315
-19.5118
-17.9035
-20.4172
-16.3347
-17.0798
-18.9877
-19.6331
-18.1011
-16.7572
-15.642
-14.5708
-12.8167
-10.2006
-7.85372
-5.8324
-4.39338
-4.1921
-3.95277
-3.83299
-4.44014
-4.9024
-5.1275
-5.17211
-4.31922
-3.46543
-2.85925
-1.7768
-0.725598
-0.302707
-0.633754
-1.25163
-1.6843
-1.99664
-2.24115
-1.97425
-2.18415
-2.1759
-1.64589
-0.86438
-21.0803
-16.577
-15.743
-17.9869
-19.0516
-18.6045
-17.7146
-17.2917
-16.3035
-14.745
-13.5306
-12.7305
-11.7408
-10.7229
-10.0136
-8.96567
-7.7577
-6.66833
-5.22831
-3.693
-2.82067
-2.06498
-1.77404
-1.96734
-1.50621
-1.65333
-2.17489
-2.45285
-3.21037
-4.05825
-4.8211
-5.34409
-4.69966
-3.70798
-2.81844
-1.5737
-0.397078
-0.0492861
0.155694
0.123283
41.423
38.1047
34.5182
18.7979
33.5764
31.1656
22.6616
12.1546
28.6933
29.2618
25.2359
18.9716
28.0098
28.3567
25.0298
18.5986
-31.9902
-58.3727
-3.04974
-7.30563
10.1073
1.36187
10.1052
0.992861
-28.7223
-11.6125
-4.01042
-6.90022
-0.128983
0.0471582
-3.75792
-10.3056
-5.88367
-11.1199
-14.0967
-15.6154
-5.78317
-9.95354
-11.9577
-12.9922
-14.8573
-19.3736
-19.047
-18.0624
-17.6426
-18.574
-18.5063
-16.7916
-14.544
-11.9666
-11.4461
-11.9809
-12.1319
-11.5442
-11.0539
-10.8823
-9.32439
-7.65209
-5.28765
-2.8029
-0.772334
1.23713
1.69351
1.57695
0.435109
-0.236265
-1.50501
-3.06421
-4.6024
-5.88189
-6.18594
-6.41085
-5.70698
-4.75757
-2.77519
0.0630239
2.44652
3.31818
2.36812
0.884827
-16.9382
-20.1908
-19.51
-17.9517
-17.1693
-16.8809
-16.4868
-15.7976
-15.0048
-13.7764
-12.5103
-12.1662
-12.1396
-11.7237
-10.8576
-10.0062
-8.49306
-6.60218
-4.83231
-3.35451
-2.48458
-1.59109
-0.784692
-0.155924
-0.337693
-0.825908
-1.64524
-2.95677
-3.79756
-4.89688
-5.06955
-4.83068
-4.1304
-3.30757
-2.38959
-1.17141
-0.354867
0.270058
0.172159
-0.194581
-16.9205
-17.7526
-17.5708
-16.9532
-16.6909
-16.676
-16.3814
-15.7866
-14.8637
-13.7311
-12.4687
-11.7878
-11.5901
-11.1373
-10.1527
-8.83987
-7.72181
-6.47204
-5.20965
-3.93292
-2.92154
-2.1981
-1.51081
-0.981286
-0.636884
-0.781707
-1.26502
-1.85465
-2.77717
-3.31265
-3.51188
-3.5652
-3.64754
-3.65881
-3.33424
-2.39774
-1.31899
-0.273453
0.28472
0.305504
-14.0595
-15.1619
-16.0768
-16.334
-16.3258
-16.4047
-16.393
-15.9849
-14.7825
-13.4402
-12.2533
-11.6665
-11.4043
-10.9572
-10.085
-8.73868
-7.70037
-6.57339
-5.31335
-3.92593
-2.91566
-2.4779
-1.97046
-1.3948
-0.814205
-0.775609
-1.14321
-1.86775
-2.63485
-3.14532
-3.45053
-3.44325
-3.44014
-3.31694
-2.94697
-2.2557
-1.25203
-0.375841
0.0627155
0.110071
)
;

boundaryField
{
    inlet
    {
        type            zeroGradient;
    }
    outlet
    {
        type            fixedValue;
        value           uniform 0;
    }
    obstacle
    {
        type            zeroGradient;
    }
    upperWall
    {
        type            zeroGradient;
    }
    lowerWall
    {
        type            zeroGradient;
    }
    frontAndBack
    {
        type            empty;
    }
}


// ************************************************************************* //
