/*--------------------------------*- C++ -*----------------------------------*\
  =========                 |
  \\      /  F ield         | OpenFOAM: The Open Source CFD Toolbox
   \\    /   O peration     | Website:  https://openfoam.org
    \\  /    A nd           | Version:  10
     \\/     M anipulation  |
\*---------------------------------------------------------------------------*/
FoamFile
{
    format      ascii;
    class       surfaceScalarField;
    location    "9.725";
    object      phi;
}
// * * * * * * * * * * * * * * * * * * * * * * * * * * * * * * * * * * * * * //

dimensions      [0 3 -1 0 0 0 0];

internalField   nonuniform List<scalar> 
928
(
0.095704
0.00429598
0.10326
-0.00755645
0.106761
-0.00350005
-0.00953473
0.116295
0.0943659
0.00993009
0.105812
-0.0190023
0.101828
0.000483947
-0.0194066
0.1117
0.0954915
0.0144386
0.107904
-0.031415
0.103088
0.00530035
-0.0400979
0.123779
0.104443
0.00999518
0.0952234
-0.022195
0.100358
0.000165933
0.148207
-0.0879472
0.110953
0.00534272
-0.016247
0.1272
0.107768
0.00927412
-0.0412906
0.132812
0.124267
0.00878628
-0.0447458
0.127722
0.156993
0.112248
0.12637
0.000829929
0.126915
-0.000545487
0.127928
-0.00101249
-0.00166025
0.129588
0.132579
0.00106231
0.131761
0.000272593
0.132636
-0.00188746
-0.00337894
0.134355
0.13004
-0.00125537
0.132608
-0.00229521
0.131629
-0.000909032
-0.00185326
0.130104
0.106598
0.00439377
0.11643
-0.0121268
0.116122
-0.000600845
0.105976
0.00829249
0.130918
-0.00132994
0.131716
-0.000798299
0.132251
-0.000535135
0.132214
3.71423e-05
0.132685
-0.000470582
0.132437
0.00024809
0.132538
-0.000101103
0.132164
0.000373556
0.131632
0.000532236
0.13035
0.00128197
0.127971
0.00237863
0.125689
0.00228224
0.122607
0.00308178
0.120657
0.00194981
0.119077
0.0015805
0.118761
0.0003156
0.118694
6.74995e-05
0.1187
-6.50375e-06
0.118937
-0.000236373
0.118378
0.000559194
0.117698
0.000679716
0.115482
0.00221534
0.1131
0.00238269
0.109643
0.00345697
0.106511
0.00313151
0.103708
0.00280365
0.101854
0.00185394
0.101553
0.000300985
0.102493
-0.000940254
0.104772
-0.00227919
0.107605
-0.00283284
0.110793
-0.00318766
0.11331
-0.00251776
0.115231
-0.00192071
0.115578
-0.000347052
0.114977
0.000600849
0.112438
0.00253951
0.109404
0.00303335
0.104818
0.00458675
0.00398135
0.135079
-0.00205383
0.135227
-0.000946504
0.135414
-0.000722415
0.13618
-0.000728377
0.136824
-0.00111465
0.137089
-1.70092e-05
0.137799
-0.000810782
0.138252
-8.0108e-05
0.137984
0.000800406
0.136712
0.00255408
0.134937
0.0041539
0.133146
0.00407325
0.130982
0.00524592
0.129437
0.00349436
0.127821
0.0031963
0.127406
0.000730804
0.127828
-0.00035402
0.128618
-0.00079662
0.130164
-0.00178255
0.130474
0.00024873
0.130677
0.000476958
0.129189
0.003704
0.127641
0.0039301
0.125178
0.00592017
0.122435
0.00587476
0.119831
0.00540741
0.117462
0.00422251
0.116886
0.00087764
0.116821
-0.00087554
0.118803
-0.00426077
0.12094
-0.0049702
0.123999
-0.00624652
0.126337
-0.00485618
0.12883
-0.00441336
0.13058
-0.00209748
0.131384
-0.000202442
0.130811
0.00311191
0.129187
0.00465735
0.126641
0.0071331
0.00685032
0.129684
-0.00163398
0.128697
4.0382e-05
0.130321
-0.00234685
0.130809
-0.00121611
0.130092
-0.000397156
0.131626
-0.00155146
0.133555
-0.0027395
0.134142
-0.000667238
0.133119
0.0018234
0.132014
0.00365876
0.131119
0.00504923
0.129566
0.00562568
0.12829
0.00652186
0.12662
0.00516466
0.126183
0.00363389
0.125144
0.00176936
0.125304
-0.000514119
0.126643
-0.00213597
0.128039
-0.0031777
0.129865
-0.00157718
0.13164
-0.0012983
0.132683
0.00266084
0.132334
0.00427935
0.13083
0.00742362
0.128404
0.00830064
0.125944
0.00786821
0.123933
0.00623322
0.121915
0.00289501
0.119989
0.00105136
0.119099
-0.00337147
0.118102
-0.00397304
0.11809
-0.00623421
0.118204
-0.00497075
0.120223
-0.00643234
0.122219
-0.00409313
0.125435
-0.00341806
0.128872
-0.000325372
0.130817
0.0027121
0.132329
0.00562113
0.00744486
0.112627
-0.0082851
0.107608
0.00505945
0.110883
-0.00562217
0.106454
0.00321298
0.103523
0.00253455
0.107011
-0.00503959
0.106645
-0.00237388
0.10568
0.000297614
0.106624
0.000880093
0.10848
0.00180202
0.110843
0.00268656
0.111951
0.00451812
0.111231
0.00724121
0.108336
0.00806001
0.104019
0.00795038
0.099448
0.00634071
0.0974515
0.00148237
0.0958796
-0.000564036
0.0954019
-0.00270001
0.0984955
-0.00467076
0.1018
-0.00460309
0.107249
-0.00278821
0.112012
-0.000483782
0.116583
0.00285335
0.119918
0.00496552
0.120989
0.00679719
0.11755
0.00967162
0.109671
0.0107748
0.0998491
0.0108729
0.0880093
0.00846831
0.0799613
0.00407495
0.0737071
1.99652e-05
0.0733155
-0.00457909
0.0755
-0.00861691
0.080248
-0.00884109
0.086652
-0.0098221
0.0935131
-0.00718644
0.100198
-0.00397272
0.107165
-0.00134578
0.00267024
0.109555
0.000440046
0.0875688
-0.00020867
0.087206
0.000528722
-0.000741179
0.111133
-0.0106933
0.0885662
0.0223585
0.0895772
-0.000482324
0.0888361
-0.00135663
0.0057504
0.0174233
-0.0309067
0.0150752
0.0017473
0.0432237
-0.0198561
0.000198409
0.00555199
-0.00635322
-0.0243551
-0.0100245
0.00541856
0.0228133
0.0103859
-0.0160104
-0.0121308
-0.00585978
-0.00509114
0.000126362
-0.0116083
0.000201927
0.00313742
-0.00522527
0.00796175
-0.00282453
-0.00744034
0.00774401
-0.0129424
0.0126019
-0.00456024
0.0133985
8.34125e-05
0.0125444
0.00265614
0.0128429
0.0023881
0.0151684
0.00219259
0.0179651
0.00444449
0.0189402
0.00708498
0.0197025
0.00718799
0.0222939
0.0037493
0.0235581
0.000218215
0.0267215
-0.00372744
0.0313353
-0.0073138
0.0350818
-0.00841722
0.039866
-0.0093873
0.0435855
-0.00650776
0.0460565
-0.00295475
0.048416
0.000493842
0.0483285
0.005053
0.0455713
0.00955439
0.0425106
0.0127323
0.0393025
0.0139829
0.0362572
0.0139183
0.0350176
0.00970789
0.0344194
0.00467321
0.0346877
-0.000248406
0.0358599
-0.00575127
0.0384615
-0.0112185
0.0416151
-0.0119947
0.0456504
-0.0138574
0.0507091
-0.0122451
0.0552458
-0.00850949
0.0593671
-0.00546705
3.45754e-05
0.0100098
0.00067266
0.00931639
-0.0043977
-0.00250229
0.000210376
-0.00388955
0.00452467
0.00336297
0.000709236
-7.85031e-05
-0.00399886
-0.00713442
-0.00588649
-0.00856051
-0.00313416
-0.00520276
-0.00327434
0.000559327
-0.00310595
0.0039377
-0.000990266
0.00621231
-8.20242e-05
0.0088124
0.0018444
0.0126304
0.00326698
0.0178807
0.00193764
0.0221312
-0.00050119
0.0245575
-0.00220807
0.026312
-0.00548196
0.0273489
-0.00835068
0.0271953
-0.00826364
0.0269394
-0.00913133
0.027569
-0.00713743
0.0285108
-0.00389647
0.0300162
-0.00101164
0.0309534
0.00411587
0.0335347
0.00697302
0.0368537
0.00941335
0.0405608
0.0102758
0.0448251
0.009654
0.0483705
0.0061625
0.0501713
0.00287236
0.0519072
-0.0019843
0.0515144
-0.00535849
0.0478203
-0.00752435
0.0451241
-0.00929848
0.0420791
-0.0108124
0.0395563
-0.00972233
0.0393321
-0.00828534
0.0396862
-0.0058211
-0.00122214
0.103139
-0.0138322
0.093624
0.0318733
0.0982183
-0.0050766
0.0402404
0.146814
0.0957756
-0.00960775
0.10897
0.0186787
0.10376
0.000133943
0.0190112
0.124989
0.094745
-0.00435278
0.105527
0.00789649
0.102552
0.0031089
0.00944513
0.112118
0.0956472
0.103544
0.106653
0.116098
0.154825
-0.00801065
0.0453988
0.109426
0.125951
-0.0089732
0.0404481
0.130902
0.108347
-0.00520182
0.0158509
0.132944
0.110896
0.126747
0.114483
0.000494267
0.0901726
-4.41833e-05
0.088673
0.00691816
0.00598104
0.0930779
0.131364
3.26784e-05
0.132251
-0.000931562
0.137064
0.00210513
0.00493864
0.138106
0.133471
-0.000494133
0.132655
-0.000115495
0.133046
0.00171458
0.00216383
0.13582
0.126253
0.126137
0.127852
0.130016
0.0931271
0.000623456
0.0888011
-7.17159e-05
0.0879637
0.00104779
0.0904889
0.00199948
0.090435
0.000763143
0.0873774
-0.000941328
0.0832837
-0.00179276
0.0818004
-0.00165086
0.0797842
-0.00125818
0.0772056
-0.00052732
0.0760833
0.00013202
0.0765141
-0.00051278
0.0791366
-0.000778155
0.0838024
-0.00139881
0.0883276
-0.00258753
0.0927332
-0.00490676
0.0969915
-0.00646642
0.0981528
-0.00664321
0.0965597
-0.00675765
0.0930406
-0.00474454
0.087739
-0.00382974
0.0821839
-0.00158231
0.0783468
-5.93872e-05
0.0748769
0.00245826
0.0753163
0.00367648
0.0776872
0.00460212
0.0823504
0.00475013
0.0896393
0.00298688
0.0971039
0.00218945
0.105715
-0.00244892
0.113495
-0.00490743
0.120416
-0.00890549
0.125249
-0.010191
0.127483
-0.00975842
0.12489
-0.00670573
0.117071
-0.00299325
0.106806
0.000542298
0.0956939
0.00282712
0.0861547
0.00371811
0.00227634
0.135025
0.00370455
0.133691
0.00126268
0.134644
9.49829e-05
0.136479
0.000164397
0.137938
-0.000695733
0.137094
-9.77361e-05
0.136135
-0.000834038
0.135114
-0.000628966
0.134925
-0.00106921
0.135255
-0.000857779
0.135067
0.000320092
0.135516
-0.000961458
0.13566
-0.000922129
0.137318
-0.00305722
0.138061
-0.00333014
0.138155
-0.00500138
0.137501
-0.00581214
0.136142
-0.00528386
0.135166
-0.00578191
0.133577
-0.0031555
0.132881
-0.00313423
0.131231
6.8185e-05
0.129717
0.00145432
0.128718
0.0034575
0.128386
0.00400828
0.129779
0.00320941
0.13139
0.00313898
0.134002
0.000374723
0.13729
-0.00109844
0.139434
-0.00459248
0.140373
-0.00584721
0.138766
-0.00729859
0.135933
-0.00735793
0.132323
-0.00614809
0.12982
-0.00420264
0.127853
-0.00102662
0.126284
0.00211181
0.12574
0.00337075
0.124641
0.0048168
0.00324574
0.137488
0.00203735
0.137719
0.00103162
0.137883
-6.95025e-05
0.138184
-0.000136018
0.138427
-0.000939227
0.13898
-0.000650759
0.138929
-0.000782697
0.138617
-0.000316814
0.137832
-0.000284739
0.137663
-0.000688466
0.138403
-0.000420365
0.13825
-0.000808058
0.138058
-0.000730809
0.136842
-0.00184083
0.135466
-0.00195417
0.133278
-0.00281293
0.130787
-0.0033217
0.128414
-0.00291063
0.125495
-0.00286246
0.123925
-0.00158552
0.122333
-0.00154266
0.122459
-5.75191e-05
0.123319
0.000593823
0.125069
0.00170743
0.127163
0.0019147
0.128865
0.00150693
0.13097
0.00103417
0.131538
-0.000193467
0.131458
-0.00101833
0.12946
-0.00259458
0.127124
-0.00351099
0.123983
-0.00415726
0.120607
-0.00398205
0.117339
-0.00288058
0.114787
-0.0016504
0.113902
-0.000141578
0.114468
0.0015463
0.115934
0.00190436
0.118128
0.00262328
0.00129693
0.132053
0.133085
0.133015
0.132879
0.13194
0.131289
0.130506
0.13019
0.129905
0.129216
0.128796
0.127988
0.127257
0.125416
0.123462
0.120649
0.117327
0.114417
0.111554
0.109969
0.108426
0.108369
0.108962
0.11067
0.112585
0.114092
0.115126
0.114932
0.113914
0.111319
0.107808
0.103651
0.099669
0.0967885
0.0951381
0.0949965
0.0965428
0.0984471
0.10107
)
;

boundaryField
{
    inlet
    {
        type            calculated;
        value           nonuniform List<scalar> 10(-0.1 -0.1 -0.1 -0.1 -0.1 -0.1 -0.1 -0.1 -0.1 -0.1);
    }
    outlet
    {
        type            calculated;
        value           nonuniform List<scalar> 10(0.100836 0.123772 0.131735 0.111939 0.0620028 0.0409429 0.0826562 0.123672 0.120076 0.102367);
    }
    obstacle
    {
        type            calculated;
        value           uniform 0;
    }
    upperWall
    {
        type            calculated;
        value           uniform 0;
    }
    lowerWall
    {
        type            calculated;
        value           uniform 0;
    }
    frontAndBack
    {
        type            empty;
        value           nonuniform List<scalar> 0();
    }
}


// ************************************************************************* //
