/*--------------------------------*- C++ -*----------------------------------*\
  =========                 |
  \\      /  F ield         | OpenFOAM: The Open Source CFD Toolbox
   \\    /   O peration     | Website:  https://openfoam.org
    \\  /    A nd           | Version:  10
     \\/     M anipulation  |
\*---------------------------------------------------------------------------*/
FoamFile
{
    format      ascii;
    class       volVectorField;
    location    "9.725";
    object      U;
}
// * * * * * * * * * * * * * * * * * * * * * * * * * * * * * * * * * * * * * //

dimensions      [0 1 -1 0 0 0 0];

internalField   nonuniform List<vector> 
496
(
(9.99301 0.0837957 0)
(9.89484 -0.157392 0)
(10.1388 -0.136639 0)
(10.7542 -0.19075 0)
(10.1882 0.57758 0)
(9.64753 -1.34149 0)
(10.2444 -0.347994 0)
(10.7134 -1.14559 0)
(10.9945 1.56066 0)
(8.87292 -3.10386 0)
(11.2399 0.0125275 0)
(10.4952 -4.17248 0)
(12.8361 1.64075 0)
(7.66557 -2.60466 0)
(13.6759 0.910652 0)
(9.84641 -6.42449 0)
(11.4503 -0.2039 2.82592e-18)
(12.1696 -0.199229 -2.22657e-19)
(11.6253 -0.440447 -8.54607e-19)
(12.3856 0.149595 2.11375e-18)
(12.9374 -2.03102 -1.97457e-18)
(12.7566 -0.489635 -1.89104e-18)
(13.8576 -5.33287 -3.55452e-17)
(15.3235 -4.28133 6.55665e-17)
(12.6937 -0.144509 0)
(12.9725 -0.169106 0)
(13.121 -0.0202211 0)
(13.1345 0.0621177 0)
(12.9625 0.137839 0)
(13.3229 -0.282187 0)
(13.6111 -0.543622 0)
(13.6442 -0.706363 0)
(12.3457 1.05333 0)
(12.2367 1.06918 0)
(12.684 0.724226 0)
(12.9067 0.554498 0)
(12.1839 -2.74507 0)
(11.3266 -1.89599 0)
(9.0551 -1.06581 0)
(11.8759 -1.14743 0)
(13.1807 0.202708 0)
(13.1452 0.289085 0)
(13.2079 0.336683 0)
(13.2065 0.405697 0)
(13.2981 0.360176 0)
(13.2763 0.410234 0)
(13.3615 0.384267 0)
(13.3046 0.424236 0)
(13.2833 0.428456 0)
(13.1015 0.458683 0)
(12.9308 0.512891 0)
(12.6328 0.491856 0)
(12.4226 0.563047 0)
(12.1792 0.532433 0)
(12.048 0.541638 0)
(11.8304 0.417386 0)
(11.8553 0.346749 0)
(11.7739 0.315658 0)
(11.9487 0.267198 0)
(11.7918 0.335915 0)
(11.9002 0.309023 0)
(11.6184 0.413044 0)
(11.5166 0.37525 0)
(11.081 0.45793 0)
(10.8328 0.456455 0)
(10.5023 0.463309 0)
(10.243 0.42341 0)
(10.1472 0.298715 0)
(10.1152 0.232045 0)
(10.3848 0.093932 0)
(10.5959 0.0788532 0)
(10.9462 0.0028776 0)
(11.1945 0.0739195 0)
(11.4235 0.0618784 0)
(11.6008 0.17232 0)
(11.5429 0.223275 0)
(11.499 0.345953 0)
(11.0121 0.395599 0)
(10.8521 0.463626 0)
(10.0873 0.519815 0)
(13.6972 -0.693734 0)
(13.6233 -0.592703 0)
(13.6543 -0.537157 0)
(13.6142 -0.438382 0)
(13.6791 -0.489072 0)
(13.7139 -0.387448 0)
(13.8128 -0.417875 0)
(13.8076 -0.341517 0)
(13.8458 -0.284757 0)
(13.733 -0.176298 0)
(13.6259 -0.0584674 0)
(13.3801 -0.0953156 0)
(13.2775 -0.0250069 0)
(13.0334 -0.170086 0)
(12.8823 -0.17676 0)
(12.6664 -0.311327 0)
(12.7391 -0.290611 0)
(12.7813 -0.292867 0)
(12.9556 -0.295904 0)
(13.0091 -0.151598 0)
(13.0746 -0.0928964 0)
(13.0188 0.129575 0)
(12.8438 0.148904 0)
(12.681 0.224677 0)
(12.3599 0.128847 0)
(12.1678 0.0404088 0)
(11.8089 -0.0982942 0)
(11.6879 -0.236124 0)
(11.6262 -0.385167 0)
(11.7551 -0.49665 0)
(12.0156 -0.595968 0)
(12.2044 -0.592814 0)
(12.563 -0.528838 0)
(12.678 -0.416804 0)
(13.0564 -0.219797 0)
(13.0802 -0.058212 0)
(13.2615 0.220286 0)
(12.926 0.273824 0)
(12.9163 0.495019 0)
(12.3758 0.285375 0)
(13.1978 0.548343 0)
(13.2535 0.488406 0)
(13.1986 0.393815 0)
(13.1467 0.34551 0)
(13.1177 0.291522 0)
(13.21 0.367217 0)
(13.2077 0.247218 0)
(13.2406 0.33043 0)
(13.4242 0.451305 0)
(13.328 0.672936 0)
(13.3266 0.90534 0)
(12.991 0.953951 0)
(12.9526 1.13186 0)
(12.6585 0.892209 0)
(12.603 0.722574 0)
(12.5563 0.367074 0)
(12.4891 0.105138 0)
(12.6551 0.0159718 0)
(12.5774 -0.159546 0)
(12.9821 0.0965458 0)
(12.9462 0.0843196 0)
(13.3603 0.540437 0)
(13.1878 0.646202 0)
(13.2948 1.03214 0)
(12.9401 1.15705 0)
(12.7558 1.15656 0)
(12.4804 1.02854 0)
(12.2106 0.420776 0)
(12.1629 0.0720527 0)
(11.8554 -0.585702 0)
(11.9663 -0.598994 0)
(11.6301 -0.846513 0)
(11.9764 -0.594745 0)
(11.6686 -0.593679 0)
(12.3218 -0.287282 0)
(12.1874 -0.0815555 0)
(12.9252 0.279084 0)
(12.8371 0.55561 0)
(13.3192 0.900964 0)
(13.1749 1.08972 0)
(10.8054 -0.637823 0)
(11.0557 -0.348893 0)
(10.9377 -0.607071 0)
(10.4471 -0.40747 0)
(11.0013 -0.421365 0)
(10.7143 -0.545334 0)
(10.1295 -0.566908 0)
(10.593 -0.409356 0)
(10.6619 -0.259555 0)
(11.0987 -0.213222 0)
(10.9789 -0.104836 0)
(11.1888 0.069143 0)
(11.2126 0.235436 0)
(10.9537 0.300435 0)
(10.608 0.240577 0)
(10.1353 0.183577 0)
(9.82914 0.0148496 0)
(9.58138 -0.148527 0)
(9.38803 -0.287616 0)
(9.82851 -0.355199 0)
(9.7457 -0.346209 0)
(10.6773 -0.171445 0)
(10.759 0.00199812 0)
(11.6227 0.205089 0)
(11.8619 0.328112 0)
(12.0648 0.355424 0)
(12.2044 0.294815 0)
(11.2296 0.290891 0)
(10.8643 0.309394 0)
(8.95354 0.355948 0)
(8.61015 0.225849 0)
(7.27995 -0.0279198 0)
(7.51135 -0.214246 0)
(7.20646 -0.620785 0)
(7.79331 -0.527905 0)
(8.42045 -0.647683 0)
(8.85725 -0.439725 0)
(9.91574 -0.181414 0)
(10.1979 0.0508556 0)
(11.2077 0.354843 0)
(11.72 0.557939 -1.06154e-17)
(8.35283 -0.865091 -1.79992e-17)
(11.1133 0.000575426 3.1419e-17)
(5.08235 -4.80681 -8.44943e-17)
(12.2981 -0.494476 1.05525e-17)
(8.06024 0.786588 1.78128e-17)
(11.4662 0.0572972 -3.11532e-17)
(5.21765 4.69576 8.43178e-17)
(3.43667 4.27805 0)
(-2.56447 -1.30688 0)
(5.63625 0.656745 0)
(-3.03621 3.21393 0)
(-9.56125 -2.39028 3.02473e-17)
(11.8281 -5.44753 0)
(-10.758 -0.358613 0)
(6.68279 3.27347 0)
(-2.1329 -2.00878 0)
(0.0870476 0.871984 0)
(-1.28959 -0.980546 0)
(1.04797 0.669776 0)
(-0.723133 1.14753 0)
(-0.612151 -0.571958 0)
(-0.122355 -0.215453 0)
(1.73016 0.304046 0)
(1.21627 0.520559 0)
(1.30647 0.769455 0)
(1.15314 0.687529 0)
(1.26498 0.737082 0)
(1.89342 0.977836 0)
(1.85147 1.02312 0)
(1.76474 1.03375 0)
(2.31982 0.795378 0)
(2.18044 0.172673 0)
(2.2305 -0.1509 0)
(3.23474 -0.383126 0)
(3.12342 -0.612129 0)
(3.68122 -0.622471 0)
(4.39819 -0.427132 0)
(4.25613 -0.176118 0)
(5.02422 0.271752 0)
(4.80737 0.542443 0)
(4.66243 0.838812 0)
(4.48128 1.28367 0)
(4.19742 1.403 0)
(3.56607 1.36668 0)
(3.64613 0.933178 0)
(3.3018 0.387252 0)
(3.54719 -0.105245 0)
(3.53231 -0.635893 0)
(3.49947 -1.09785 0)
(4.29903 -1.11511 0)
(4.0523 -1.19633 0)
(4.90366 -1.02095 0)
(5.38305 -0.609082 0)
(5.60541 -0.326111 0)
(6.22068 0.158704 0)
(-0.367608 0.4641 0)
(2.0801 -1.31897 0)
(-0.231515 -0.588724 0)
(-0.522665 0.334228 0)
(-0.157288 -0.0690157 0)
(0.941459 -1.00811 0)
(-0.904959 -1.72954 0)
(-0.656142 -0.86048 0)
(-0.967747 -0.438926 0)
(-0.0158953 -0.361373 0)
(0.157315 -0.144024 0)
(0.544647 -0.12849 0)
(0.787493 0.11422 0)
(0.902827 0.332294 0)
(1.43972 0.228242 0)
(2.35392 -0.153449 0)
(2.09925 -0.260651 0)
(2.52636 -0.676868 0)
(2.97902 -1.05994 0)
(2.48597 -0.967531 0)
(2.75357 -1.07527 0)
(2.7543 -0.732469 0)
(2.64459 -0.309899 0)
(3.15487 -0.0174484 0)
(2.934 0.616326 0)
(3.03239 0.995411 0)
(3.70731 1.17625 0)
(3.80392 1.25187 0)
(4.17922 1.18838 0)
(4.82668 0.802532 0)
(4.7497 0.383247 0)
(5.3578 -0.190775 0)
(5.16539 -0.726267 0)
(5.04983 -1.10455 0)
(4.55587 -1.3206 0)
(4.54466 -1.55475 0)
(3.73701 -1.27938 0)
(4.17079 -1.00354 0)
(3.79137 -0.678648 0)
(4.08945 -0.0869765 0)
(11.9494 -1.74447 0)
(8.12648 2.75254 0)
(12.9493 -1.00319 0)
(10.0302 6.61749 0)
(10.8238 -1.41605 0)
(9.08487 3.01372 0)
(11.2493 0.158873 0)
(10.7029 4.11398 0)
(10.0284 -0.595879 0)
(9.80918 1.34102 0)
(10.2014 0.29648 0)
(10.7766 1.09247 0)
(9.95788 -0.0861148 0)
(9.90784 0.189988 0)
(10.1604 0.115315 0)
(10.7589 0.196239 0)
(13.4724 5.28844 3.64978e-17)
(15.3913 4.42435 -6.61885e-17)
(13.025 2.12896 0)
(13.017 0.433508 0)
(11.5993 0.426119 0)
(12.4037 -0.279682 0)
(11.4379 0.237844 0)
(12.1308 0.175188 0)
(11.5119 2.54952 0)
(9.82639 1.76059 0)
(8.5023 2.07789 0)
(7.80829 0.584284 0)
(12.4968 -0.834853 0)
(12.4671 -1.20604 0)
(12.8757 -0.734447 0)
(13.0159 -0.230426 0)
(12.9743 -0.156689 0)
(13.3475 0.144223 0)
(13.5959 0.581043 0)
(13.7119 0.73323 0)
(12.668 0.205709 0)
(12.9248 0.168802 0)
(13.0904 0.125782 0)
(13.1267 0.0352572 0)
(8.96805 -0.0812294 0)
(9.35145 0.0290128 0)
(9.46091 0.423994 0)
(9.04489 0.459601 0)
(8.56896 0.336896 0)
(8.65227 0.127966 0)
(8.85982 0.182027 0)
(8.47922 0.0603122 0)
(8.34583 -0.0429568 0)
(7.40176 -0.0204763 0)
(7.59125 0.0237109 0)
(7.53667 0.0824729 0)
(7.91586 0.118271 0)
(8.20562 0.237175 0)
(8.32193 0.159577 0)
(9.33393 0.0156403 0)
(9.38723 -0.115084 0)
(9.8542 -0.253739 0)
(9.88046 -0.321741 0)
(9.35131 -0.358258 0)
(9.32605 -0.344301 0)
(8.13712 -0.299581 0)
(8.21861 -0.224424 0)
(7.40747 -0.0450222 0)
(7.58483 0.181754 0)
(7.5448 0.516053 0)
(7.74308 0.649764 0)
(8.90363 0.679651 0)
(8.94923 0.667712 0)
(10.5836 0.396266 0)
(10.5612 0.233862 0)
(12.1058 -0.102357 0)
(12.0477 -0.221568 0)
(13.0354 -0.252057 0)
(12.5864 -0.185603 0)
(12.3164 -0.0842456 0)
(11.1834 -0.149822 0)
(10.0378 -0.181255 0)
(9.06753 -0.240695 0)
(8.25968 -0.1079 0)
(13.731 -0.0531055 0)
(13.8157 -0.0751249 0)
(13.9516 -0.158184 0)
(13.6096 -0.147049 0)
(13.7287 -0.240236 0)
(13.5753 -0.199683 0)
(13.6713 -0.340581 0)
(13.5908 -0.311168 0)
(13.574 -0.330077 0)
(13.5606 -0.245429 0)
(13.389 -0.10325 0)
(13.5027 -0.213887 0)
(13.6042 -0.222405 0)
(13.6706 -0.435613 0)
(13.8528 -0.526523 0)
(13.7393 -0.76432 0)
(13.9461 -1.02905 0)
(13.4941 -1.02076 0)
(13.7113 -1.14546 0)
(13.2257 -0.786861 0)
(13.518 -0.701888 0)
(13.0822 -0.224839 0)
(13.1104 0.0208672 0)
(12.8482 0.228867 0)
(12.8194 0.345093 0)
(12.9308 0.239646 0)
(12.9157 0.292328 0)
(13.3522 -0.0361322 0)
(13.4779 -0.180486 0)
(13.9927 -0.639383 0)
(13.989 -0.917612 0)
(14.0711 -1.32967 0)
(13.716 -1.51398 0)
(13.4267 -1.53872 0)
(13.1091 -1.21974 0)
(12.8476 -0.650214 0)
(12.7052 0.023222 0)
(12.5346 0.366357 0)
(12.5147 0.6564 0)
(12.3816 0.440456 0)
(13.8324 0.696232 0)
(13.9361 0.463718 0)
(13.9121 0.248086 0)
(13.8783 0.211481 0)
(13.865 0.11172 0)
(13.8799 0.141424 0)
(13.8957 0.0917258 0)
(13.8534 0.148865 0)
(13.8702 0.180779 0)
(13.7769 0.142526 0)
(13.799 0.198785 0)
(13.7653 0.101894 0)
(13.8723 0.129974 0)
(13.7932 -0.0389742 0)
(13.6857 -0.035594 0)
(13.4457 -0.164204 0)
(13.2083 -0.185834 0)
(12.9485 -0.102019 0)
(12.6742 -0.0322983 0)
(12.4076 0.171703 0)
(12.2764 0.155468 0)
(12.193 0.333977 0)
(12.3287 0.378353 0)
(12.368 0.540085 0)
(12.651 0.546962 0)
(12.7122 0.493051 0)
(13.0452 0.413917 0)
(13.0728 0.202341 0)
(13.2686 0.0554507 0)
(13.0562 -0.189289 0)
(12.9013 -0.286814 0)
(12.5398 -0.266512 0)
(12.2255 -0.155016 0)
(11.8825 0.0902083 0)
(11.6013 0.244299 0)
(11.4214 0.41954 0)
(11.3789 0.54826 0)
(11.531 0.510674 0)
(11.6335 0.525733 0)
(11.9955 0.303128 0)
(13.2186 -0.0497251 0)
(13.2687 -0.143942 0)
(13.3161 -0.235912 0)
(13.2788 -0.226192 0)
(13.2449 -0.261856 0)
(13.2065 -0.237323 0)
(13.2011 -0.269431 0)
(13.1331 -0.230325 0)
(13.0677 -0.22923 0)
(12.9028 -0.242317 0)
(12.8812 -0.252063 0)
(12.7712 -0.291157 0)
(12.8246 -0.317439 0)
(12.6488 -0.393549 0)
(12.5421 -0.420731 0)
(12.1838 -0.448832 0)
(11.9332 -0.480984 0)
(11.5816 -0.482085 0)
(11.2833 -0.513748 0)
(10.9982 -0.462986 0)
(10.8396 -0.451416 0)
(10.8203 -0.354731 0)
(10.9128 -0.289389 0)
(10.9627 -0.216707 0)
(11.1948 -0.191611 0)
(11.2325 -0.209697 0)
(11.5282 -0.223682 0)
(11.4368 -0.305079 0)
(11.5837 -0.344813 0)
(11.247 -0.436124 0)
(11.0746 -0.452641 0)
(10.5068 -0.531623 0)
(10.1931 -0.561533 0)
(9.73846 -0.56559 0)
(9.61948 -0.492344 0)
(9.45498 -0.38414 0)
(9.58803 -0.232746 0)
(9.71303 -0.170293 0)
(9.96253 -0.079457 0)
(10.2314 -0.0810856 0)
)
;

boundaryField
{
    inlet
    {
        type            fixedValue;
        value           uniform (10 0 0);
    }
    outlet
    {
        type            zeroGradient;
    }
    obstacle
    {
        type            noSlip;
    }
    upperWall
    {
        type            noSlip;
    }
    lowerWall
    {
        type            noSlip;
    }
    frontAndBack
    {
        type            empty;
    }
}


// ************************************************************************* //
