/*--------------------------------*- C++ -*----------------------------------*\
  =========                 |
  \\      /  F ield         | OpenFOAM: The Open Source CFD Toolbox
   \\    /   O peration     | Website:  https://openfoam.org
    \\  /    A nd           | Version:  10
     \\/     M anipulation  |
\*---------------------------------------------------------------------------*/
FoamFile
{
    format      ascii;
    class       surfaceScalarField;
    location    "9.45";
    object      phi;
}
// * * * * * * * * * * * * * * * * * * * * * * * * * * * * * * * * * * * * * //

dimensions      [0 3 -1 0 0 0 0];

internalField   nonuniform List<scalar> 
928
(
0.0975742
0.00242582
0.10372
-0.00614578
0.106996
-0.00327592
-0.00963661
0.116632
0.0962799
0.00614593
0.106277
-0.0161433
0.104891
-0.00188921
-0.0186804
0.113934
0.0962895
0.00985645
0.107328
-0.0271818
0.105234
0.000205189
-0.0364472
0.123
0.100315
0.00954183
0.0933395
-0.0202067
0.0952664
-0.0017217
0.143325
-0.0845062
0.111735
0.00489719
-0.0171231
0.128858
0.111045
0.00778677
-0.0417652
0.135687
0.126856
0.00393088
-0.0452937
0.130385
0.147256
0.101962
0.129252
-0.000394036
0.130272
-0.00101985
0.131637
-0.0013651
-0.00131022
0.132948
0.136435
-0.001142
0.1377
-0.00228469
0.138988
-0.00265356
-0.00138665
0.139065
0.137899
-0.00865599
0.141433
-0.00581862
0.139307
-0.000527657
0.000250419
0.13767
0.107957
-0.0146508
0.105289
-0.0031499
0.0921609
0.0126
0.0927724
-0.000361088
0.133759
-0.000811784
0.133147
0.000612555
0.132725
0.000421429
0.131351
0.00137451
0.130856
0.000495015
0.129036
0.00181957
0.128409
0.000626838
0.127467
0.000942256
0.126083
0.00138403
0.124358
0.0017253
0.121942
0.00241623
0.120454
0.00148791
0.118217
0.00223694
0.11728
0.000936622
0.115342
0.00193808
0.113938
0.00140414
0.11277
0.00116765
0.112223
0.000547466
0.113424
-0.00120168
0.114032
-0.000607692
0.115752
-0.00172021
0.115952
-0.000200078
0.11635
-0.000397781
0.116139
0.000211039
0.115468
0.000671174
0.115192
0.000276378
0.114175
0.00101658
0.114118
5.67498e-05
0.113432
0.000686528
0.113268
0.000164153
0.112368
0.000899993
0.11083
0.00153716
0.108708
0.00212248
0.105226
0.00348191
0.102067
0.00315927
0.0982434
0.00382341
0.0959996
0.00224382
0.0941546
0.00184501
0.0938565
0.000298107
-0.000815702
0.138782
-0.000529079
0.138678
0.000716617
0.138809
0.000290229
0.138368
0.0018152
0.137317
0.00154649
0.136841
0.00229521
0.136869
0.000599382
0.135571
0.00223973
0.13372
0.0032354
0.132508
0.00293705
0.131315
0.00360903
0.130082
0.00272127
0.127835
0.00448446
0.126491
0.00227966
0.124302
0.00412772
0.122935
0.00277136
0.121842
0.00225985
0.121333
0.00105687
0.122084
-0.00195234
0.122798
-0.00132164
0.124673
-0.00359566
0.125566
-0.00109312
0.126786
-0.00161739
0.127154
-0.0001571
0.126846
0.000979014
0.127524
-0.0004019
0.126516
0.00202445
0.12761
-0.00103677
0.127342
0.000954062
0.12835
-0.000843678
0.128627
0.000622804
0.127722
0.00244256
0.127202
0.00264225
0.124554
0.00613006
0.122872
0.00484126
0.119658
0.00703775
0.117116
0.00478566
0.115151
0.00381019
0.113793
0.00165555
-0.00131313
0.137998
-0.000857039
0.138226
0.000488646
0.136853
0.00166335
0.135544
0.0031233
0.136372
0.000718512
0.138401
0.000266662
0.138085
0.000914952
0.135832
0.00449353
0.135198
0.00386869
0.135256
0.0028797
0.134609
0.00425591
0.131632
0.00569847
0.129509
0.0066075
0.126161
0.00562698
0.123907
0.0063818
0.121853
0.00482601
0.119822
0.00429083
0.118962
0.0019163
0.118259
-0.00124948
0.119279
-0.00234102
0.119332
-0.00364855
0.120142
-0.00190391
0.120522
-0.00199696
0.120773
-0.000407733
0.121116
0.000635523
0.120621
9.32783e-05
0.121004
0.00164134
0.121435
-0.00146761
0.121985
0.000403421
0.123362
-0.00221999
0.125062
-0.00107714
0.127424
8.05557e-05
0.129491
0.000574579
0.13017
0.00545129
0.130013
0.00499843
0.128888
0.00816228
0.127573
0.00610116
0.126898
0.00448545
0.125402
0.00315082
0.00012675
0.101134
-0.00921815
0.0980113
0.00361084
0.0924007
0.00727395
0.0910563
0.00446773
0.0944074
-0.00263258
0.0964834
-0.00180935
0.0957602
0.00163819
0.0986137
0.00163998
0.103856
-0.00137316
0.108526
-0.00179065
0.112472
0.000309774
0.116499
0.00167193
0.121019
0.00208691
0.123919
0.00272722
0.127112
0.00318884
0.127587
0.00435105
0.126181
0.0056967
0.122463
0.00563477
0.116672
0.0045415
0.110072
0.00425873
0.103451
0.00297197
0.0987926
0.00275479
0.0946853
0.00211038
0.0907584
0.00351916
0.0864736
0.00492033
0.0829557
0.00361112
0.0805568
0.00404029
0.0782088
0.000880331
0.0793828
-0.000770586
0.0801874
-0.00302456
0.0847901
-0.00567984
0.0901601
-0.00528942
0.0956262
-0.00489151
0.102507
-0.0014294
0.106597
0.000908655
0.110011
0.004748
0.110126
0.00598584
0.106777
0.00783444
0.101512
0.00841602
0.00298763
0.108793
0.000748809
0.0885471
3.92188e-05
0.0849982
0.00182726
0.000492002
0.110658
-0.00990922
0.0890811
0.0216162
0.0894781
0.00143029
0.0899701
-0.0123971
-0.00225365
0.0111683
-0.0267153
-0.0222112
0.0459795
0.00083058
-0.0234029
-0.010758
0.00850437
-0.0217187
-0.0157547
0.00471958
0.0195413
0.0155039
-0.00995371
-0.0108839
-0.0217372
0.00192857
-0.00920161
0.00653802
0.0026645
-0.00729369
0.0182994
-0.00410022
-0.00582605
0.0101303
-0.0160399
0.0161493
-0.00438086
0.0168505
0.000938806
0.0190278
-0.0035504
0.0254669
-0.00822977
0.0305919
-0.00481521
0.0326922
-0.000428373
0.031147
0.00363213
0.0287015
0.00517271
0.0251937
0.00669662
0.0230392
0.00650549
0.0216323
0.00710366
0.0202448
0.00702225
0.0192289
0.00555739
0.0193824
0.0041052
0.0198684
0.00248602
0.0207622
0.00186098
0.021788
0.00108459
0.0230018
0.00230533
0.0242151
0.00370707
0.025705
0.00212117
0.0277256
0.00201967
0.0292742
-0.000668256
0.0323172
-0.00381354
0.0356083
-0.00631571
0.0387152
-0.00878676
0.0435104
-0.0100846
0.0470235
-0.00840456
0.0507272
-0.00513314
0.0541224
-0.00248653
0.0546315
0.00423891
0.0552417
0.00537566
0.0552025
0.00787358
0.0540639
0.00955467
0.0024869
-0.00684708
0.000613793
-0.0112344
-0.00481434
-0.00962974
0.00105988
0.0036301
0.0050396
0.00616595
-0.0083619
-0.00175771
-0.00811621
-0.00116165
-0.00497692
0.00657928
-0.00680212
0.0121031
-0.00907419
0.0120935
-0.00822017
0.0113946
-0.00411629
0.0116987
-0.000732485
0.0136955
0.00163528
0.0154801
0.00338817
0.0166406
0.00553609
0.0170447
0.00610135
0.0191788
0.00496962
0.0207305
0.00547054
0.022855
0.00343285
0.0252875
0.00167275
0.0280594
-0.000285879
0.030837
-0.000916681
0.0324467
-0.000525082
0.0353363
-0.000584264
0.0392114
-0.000168032
0.0423876
-0.00105502
0.0452531
-0.000845851
0.0476386
-0.00305376
0.0483043
-0.00447926
0.0486091
-0.00662043
0.0480752
-0.00825292
0.046167
-0.00817643
0.0458039
-0.00804142
0.0462757
-0.00560489
0.0474164
-0.00362726
0.0509497
0.000705567
0.0541112
0.00221422
0.0580323
0.00395242
0.0629046
0.0046824
2.06178e-05
0.102396
-0.0123052
0.0917518
0.0322603
0.0973966
-0.0042145
0.0408879
0.146479
0.0964735
-0.00877873
0.110241
0.0184926
0.104858
0.00116885
0.0194141
0.126332
0.0950243
-0.00380298
0.106604
0.00691314
0.103737
0.0040359
0.00908612
0.114065
0.096197
0.10311
0.107146
0.116232
0.150672
-0.00419341
0.0491906
0.101482
0.129319
-0.00718061
0.0423654
0.136144
0.111264
-0.00438044
0.0167169
0.136913
0.111852
0.128569
0.105809
0.00417688
0.0873988
0.00265559
0.0977967
0.00914335
-0.000636168
0.0884792
0.138327
0.00199416
0.141398
-0.000415477
0.146205
0.00433577
0.00362047
0.141949
0.138392
0.000514724
0.137613
0.000363645
0.140024
0.00192503
0.00196182
0.141683
0.129083
0.129447
0.131372
0.133334
0.0918819
-0.00278895
0.0902641
-0.00319654
0.0930047
-0.00168067
0.0999153
-0.00187103
0.0968554
-0.00530194
0.094322
-0.00558289
0.0952224
-0.00587725
0.0935729
-0.00515269
0.0889381
-0.00443932
0.0837541
-0.00303626
0.0807187
-0.0010808
0.0797727
0.000213525
0.0776303
0.00377762
0.0781237
0.00289475
0.0800963
0.00356354
0.0839138
0.00228381
0.0878855
0.000997906
0.0921895
0.00116655
0.0978294
-0.00220709
0.100633
-0.00113032
0.104892
-0.00454512
0.106834
-0.00285875
0.109853
-0.00354432
0.111449
-0.00217974
0.112692
-0.00141177
0.115338
-0.00370061
0.116881
-0.00238949
0.120026
-0.00619819
0.12112
-0.00557314
0.121796
-0.00729615
0.120274
-0.00673155
0.116267
-0.00416943
0.111896
-0.00367049
0.104822
0.00146939
0.101395
-0.00019985
0.097461
0.00463911
0.0971766
0.00249857
0.0991142
0.00201486
0.102623
0.00117383
-0.00391318
0.139373
-0.000213082
0.137637
-0.00146028
0.139979
-0.00402279
0.140951
-0.00284361
0.140333
-0.00468381
0.137909
-0.00315885
0.136941
-0.00490925
0.135727
-0.00393837
0.134433
-0.00314593
0.13353
-0.0021332
0.131596
0.000853392
0.131479
0.000330754
0.131782
0.00347424
0.132601
0.00207637
0.13328
0.00288478
0.134049
0.00151387
0.135238
-0.000190617
0.136508
-0.00010361
0.1374
-0.00309913
0.138003
-0.00173316
0.137499
-0.0040413
0.136962
-0.00232109
0.136405
-0.00298805
0.136542
-0.00231656
0.136171
-0.00104044
0.135321
-0.00285111
0.134455
-0.0015228
0.132448
-0.00419188
0.129647
-0.00277195
0.126846
-0.00449487
0.123846
-0.00373197
0.12166
-0.0019828
0.119911
-0.00192229
0.119388
0.00199324
0.118151
0.00103698
0.119381
0.00340847
0.120277
0.00160297
0.121586
0.000706134
0.123844
-0.00108435
-0.00389911
0.140879
0.000590195
0.140135
-0.00071637
0.138519
-0.00240587
0.13731
-0.0016351
0.13571
-0.00308353
0.134391
-0.00184056
0.131589
-0.00210726
0.129418
-0.0017665
0.127781
-0.00150978
0.126886
-0.00123798
0.127186
0.000553471
0.127483
3.36148e-05
0.129619
0.00133885
0.131114
0.000580828
0.132681
0.0013184
0.133789
0.000405674
0.133696
-9.79016e-05
0.134119
-0.000526623
0.132832
-0.00181197
0.132462
-0.00136298
0.130797
-0.00237637
0.129755
-0.00127888
0.128483
-0.00171596
0.127297
-0.0011307
0.127046
-0.000789456
0.125548
-0.00135318
0.124888
-0.000862873
0.122964
-0.00226819
0.121804
-0.00161182
0.119761
-0.00245222
0.117581
-0.00155153
0.116611
-0.00101239
0.115313
-0.000624832
0.116245
0.00106165
0.116632
0.00064981
0.11832
0.00171981
0.119627
0.000296668
0.120276
5.67713e-05
0.120879
-0.00168706
-0.00290616
0.133924
0.133208
0.130802
0.129167
0.126083
0.124243
0.122135
0.120369
0.118859
0.117621
0.118175
0.118208
0.119547
0.120128
0.121446
0.121852
0.121754
0.121227
0.119415
0.118052
0.115676
0.114397
0.112681
0.111551
0.110761
0.109408
0.108545
0.106277
0.104665
0.102213
0.100661
0.0996489
0.0990241
0.100086
0.100736
0.102455
0.102752
0.102809
0.101122
)
;

boundaryField
{
    inlet
    {
        type            calculated;
        value           nonuniform List<scalar> 10(-0.1 -0.1 -0.1 -0.1 -0.1 -0.1 -0.1 -0.1 -0.1 -0.1);
    }
    outlet
    {
        type            calculated;
        value           nonuniform List<scalar> 10(0.0946722 0.114291 0.123963 0.0986512 0.0545646 0.0653709 0.106557 0.12383 0.119886 0.0982156);
    }
    obstacle
    {
        type            calculated;
        value           uniform 0;
    }
    upperWall
    {
        type            calculated;
        value           uniform 0;
    }
    lowerWall
    {
        type            calculated;
        value           uniform 0;
    }
    frontAndBack
    {
        type            empty;
        value           nonuniform List<scalar> 0();
    }
}


// ************************************************************************* //
