/*--------------------------------*- C++ -*----------------------------------*\
  =========                 |
  \\      /  F ield         | OpenFOAM: The Open Source CFD Toolbox
   \\    /   O peration     | Website:  https://openfoam.org
    \\  /    A nd           | Version:  10
     \\/     M anipulation  |
\*---------------------------------------------------------------------------*/
FoamFile
{
    format      ascii;
    class       volVectorField;
    location    "9.45";
    object      U;
}
// * * * * * * * * * * * * * * * * * * * * * * * * * * * * * * * * * * * * * //

dimensions      [0 1 -1 0 0 0 0];

internalField   nonuniform List<vector> 
496
(
(9.91061 0.0552685 0)
(10.0709 -0.211642 0)
(10.2929 -0.0961088 0)
(10.9035 -0.296889 0)
(10.0008 0.305251 0)
(9.94235 -1.08712 0)
(10.3813 -0.403594 0)
(10.979 -1.19101 0)
(10.8339 1.03859 0)
(9.06476 -2.54398 0)
(11.3564 -0.30896 0)
(10.6554 -3.6916 0)
(11.725 1.26559 0)
(8.28917 -2.3506 0)
(12.4213 0.243937 0)
(10.0429 -6.17317 0)
(11.4785 -0.202128 1.91344e-18)
(12.2567 -0.217208 7.67571e-19)
(11.7478 -0.648548 -1.18474e-18)
(12.6288 -0.0826518 3.01301e-18)
(13.0697 -2.0736 -7.3079e-19)
(13.2671 -0.417223 -3.7816e-18)
(12.6745 -5.72182 -3.62996e-17)
(15.316 -4.08622 6.24824e-17)
(12.8296 -0.155592 0)
(13.2123 -0.149059 0)
(13.4534 -0.0344762 0)
(13.4579 0.0333783 0)
(13.247 -0.0690627 0)
(13.7197 -0.325747 0)
(14.0027 -0.500958 0)
(14.1189 -0.531753 0)
(12.9373 0.570204 0)
(13.1652 0.492979 0)
(13.3886 0.46856 0)
(13.978 0.505371 0)
(10.1542 -3.65488 0)
(9.19313 -1.56281 0)
(9.12892 -0.762545 0)
(10.3885 -0.54977 0)
(13.5214 0.1504 0)
(13.4672 0.276208 0)
(13.4499 0.289934 0)
(13.2826 0.38433 0)
(13.1547 0.303202 0)
(13.0122 0.422905 0)
(12.888 0.346043 0)
(12.8141 0.40906 0)
(12.6188 0.398895 0)
(12.5051 0.433037 0)
(12.2328 0.495892 0)
(12.2246 0.508051 0)
(12.0099 0.636762 0)
(11.8207 0.55817 0)
(11.4913 0.63401 0)
(11.3544 0.549995 0)
(11.3569 0.506977 0)
(11.3068 0.387854 0)
(11.3875 0.251975 0)
(11.2973 0.221837 0)
(11.4772 0.127026 0)
(11.502 0.165922 0)
(11.676 0.142434 0)
(11.6676 0.169089 0)
(11.5854 0.203904 0)
(11.5613 0.167769 0)
(11.4015 0.218531 0)
(11.4614 0.139453 0)
(11.3375 0.203789 0)
(11.3543 0.169714 0)
(11.3214 0.252384 0)
(11.1239 0.299566 0)
(11.0944 0.346853 0)
(10.5926 0.428763 0)
(10.4767 0.433618 0)
(9.93721 0.528403 0)
(9.72476 0.489256 0)
(9.5201 0.474412 0)
(9.30304 0.385196 0)
(9.46897 0.259174 0)
(14.1992 -0.461689 0)
(14.1756 -0.252242 0)
(14.0773 -0.274266 0)
(13.9513 -0.169067 0)
(13.8078 -0.238816 0)
(13.7581 -0.133084 0)
(13.5781 -0.204764 0)
(13.5898 -0.17496 0)
(13.4143 -0.126018 0)
(13.3223 -0.148209 0)
(13.1368 -0.0830561 0)
(13.1078 -0.223493 0)
(12.9783 -0.163941 0)
(12.7239 -0.362169 0)
(12.5192 -0.23888 0)
(12.2884 -0.257977 0)
(12.2421 -0.243517 0)
(12.1754 -0.255598 0)
(12.1864 -0.447754 0)
(12.2444 -0.321699 0)
(12.3084 -0.449349 0)
(12.5247 -0.194911 0)
(12.6074 -0.220706 0)
(12.7637 -0.0939473 0)
(12.7053 -0.0494577 0)
(12.7162 -0.0785766 0)
(12.6896 0.0279629 0)
(12.6831 -0.120164 0)
(12.7657 -0.0147065 0)
(12.7445 -0.120374 0)
(12.906 0.000866742 0)
(12.7963 0.0694175 0)
(12.8246 0.172599 0)
(12.5558 0.327396 0)
(12.3954 0.195215 0)
(12.1393 0.211739 0)
(11.8167 -0.0950897 0)
(11.671 -0.163105 0)
(11.3666 -0.321342 0)
(11.4296 -0.413881 0)
(14.0374 0.410785 0)
(14.2097 0.441838 0)
(13.8661 0.382132 0)
(13.9501 0.513443 0)
(13.7619 0.429196 0)
(13.6845 0.476139 0)
(13.6016 0.33718 0)
(13.5783 0.550455 0)
(13.7694 0.645028 0)
(13.4006 0.702674 0)
(13.5441 0.871524 0)
(13.1488 0.814004 0)
(13.2411 1.00714 0)
(12.7123 0.767745 0)
(12.6284 0.972738 0)
(12.2331 0.798593 0)
(12.0135 0.716723 0)
(11.9824 0.453657 0)
(11.7247 -0.0166227 0)
(12.0155 -0.0450884 0)
(11.7926 -0.382609 0)
(12.0862 -0.0849962 0)
(12.0292 -0.130466 0)
(11.9979 0.012183 0)
(12.2413 0.192625 0)
(11.8674 -0.0306942 0)
(12.3572 0.282004 0)
(11.8567 -0.158967 0)
(12.3412 0.117051 0)
(12.1107 -0.0950877 0)
(12.451 0.0258799 0)
(12.6662 0.313625 0)
(12.7917 0.284031 0)
(13.1244 0.901945 0)
(12.9326 0.850365 0)
(13.038 1.27361 0)
(12.7867 1.12516 0)
(12.7027 0.931721 0)
(12.6799 0.625037 0)
(12.3994 0.0665046 0)
(9.24287 -0.321324 0)
(9.61996 -0.237609 0)
(9.30794 -0.096717 0)
(10.0421 -0.0235608 0)
(9.25216 -0.152117 0)
(9.26678 -0.206341 0)
(9.058 -0.0024248 0)
(10.2788 0.111968 0)
(10.0928 0.0212503 0)
(10.5181 0.00126398 0)
(10.9263 0.168969 0)
(11.3647 0.310969 0)
(12.1359 0.309614 0)
(11.9718 0.237553 0)
(12.9481 0.180276 0)
(12.4523 0.0899992 0)
(13.0652 0.084495 0)
(12.3116 -0.042748 0)
(12.0028 -0.0822253 0)
(11.4234 -0.200145 0)
(10.3907 -0.217348 0)
(10.5355 -0.222914 0)
(9.24303 -0.197545 0)
(9.58079 -0.0717363 0)
(8.71697 0.0170464 0)
(8.40105 0.100153 0)
(8.46459 0.185533 0)
(7.4288 0.0424218 0)
(8.27985 0.0330705 0)
(7.52002 -0.213511 0)
(8.44676 -0.258547 0)
(8.75193 -0.33001 0)
(9.0123 -0.31791 0)
(10.3521 -0.0560266 0)
(10.0249 -0.0161842 0)
(11.3511 0.245214 0)
(10.8341 0.162804 0)
(11.0423 0.135416 0)
(10.5722 0.197433 0)
(9.78069 0.0687578 0)
(12.5078 0.69407 -9.82662e-18)
(7.62993 -0.809292 -1.68568e-17)
(11.6331 0.224842 2.92776e-17)
(4.43278 -4.54281 -8.04413e-17)
(12.7156 -0.524216 9.62441e-18)
(7.50945 0.763269 1.65365e-17)
(12.1578 0.257756 -2.87022e-17)
(4.4146 4.62777 7.86704e-17)
(-4.3994 1.67043 0)
(0.643691 -0.255765 0)
(3.34586 3.03452 0)
(-6.46386 0.687838 0)
(-0.884492 -2.2396 3.47642e-17)
(-0.253715 -3.94754 0)
(-5.36005 4.76836 0)
(6.02058 -1.16723 0)
(0.267953 -2.51141 0)
(-1.71991 0.571427 0)
(1.94699 1.124 0)
(-0.189168 1.25319 0)
(-1.54534 -0.575721 0)
(0.534217 -0.488773 0)
(1.71628 0.0950975 0)
(2.10126 0.406137 0)
(1.11213 -0.186665 0)
(2.26071 -0.47395 0)
(2.89262 -0.291658 0)
(3.44002 -0.0947907 0)
(2.98715 0.196756 0)
(3.13227 0.475839 0)
(2.5778 0.660303 0)
(2.34347 0.817658 0)
(2.38937 1.02616 0)
(2.09143 1.01498 0)
(1.7699 0.848166 0)
(2.04716 0.862696 0)
(1.95194 0.737348 0)
(2.08211 0.706923 0)
(2.00884 0.497965 0)
(2.17661 0.631943 0)
(2.60274 0.762756 0)
(2.27297 0.513035 0)
(2.80565 0.493214 0)
(2.69629 0.0769702 0)
(3.07846 -0.257354 0)
(3.48211 -0.385674 0)
(3.66055 -0.674815 0)
(4.03701 -0.693848 0)
(4.62772 -0.533882 0)
(4.80578 -0.185252 0)
(5.31409 0.0872123 0)
(5.60175 0.647464 0)
(5.25572 0.828677 0)
(5.76945 1.07557 0)
(5.25323 1.13901 0)
(5.43848 0.381099 0)
(-2.36474 -0.448414 0)
(0.529442 -1.69828 0)
(-2.24442 -0.297872 0)
(-0.284073 1.36793 0)
(1.25501 -1.0188 0)
(0.185876 -1.97527 0)
(-0.710787 -0.69252 0)
(0.444994 -0.398702 0)
(1.16574 -0.717781 0)
(1.2042 -0.869813 0)
(1.04562 -0.367949 0)
(1.03986 0.115847 0)
(1.23981 0.427747 0)
(1.52759 0.402342 0)
(1.63041 0.544948 0)
(1.61195 0.539766 0)
(1.91119 0.372427 0)
(2.04848 0.407189 0)
(1.95186 0.206889 0)
(2.52225 -0.087414 0)
(2.75137 -0.264254 0)
(2.92361 -0.359548 0)
(3.2214 -0.216327 0)
(3.09765 -0.217949 0)
(3.97508 -0.135593 0)
(4.05962 -0.168696 0)
(4.28404 -0.179062 0)
(4.78029 -0.369327 0)
(4.72661 -0.610279 0)
(4.96456 -0.887802 0)
(4.87624 -1.09913 0)
(4.69765 -1.16465 0)
(4.43892 -1.06888 0)
(4.74476 -0.776891 0)
(4.56129 -0.490313 0)
(4.78769 0.146942 0)
(5.47048 0.324751 0)
(5.36686 0.53788 0)
(6.04159 0.674794 0)
(6.57203 0.0987316 0)
(11.473 -1.5059 0)
(8.71651 2.75923 0)
(11.8341 -0.846419 0)
(11.1246 6.85895 0)
(10.4953 -1.35884 0)
(9.60562 3.02776 0)
(10.9266 0.213232 0)
(11.395 4.12572 0)
(9.90698 -0.488536 0)
(9.9909 1.25656 0)
(10.1724 0.427954 0)
(11.0927 1.08537 0)
(9.98255 -0.0866057 0)
(9.91092 0.164811 0)
(10.2002 0.157596 0)
(10.8315 0.178729 0)
(11.9686 5.35985 4.52002e-17)
(16.8237 4.58959 -7.14717e-17)
(12.9121 2.22353 0)
(13.9246 0.413302 0)
(11.6704 0.628292 0)
(12.8022 -0.123095 0)
(11.4973 0.287181 0)
(12.2605 0.155652 0)
(8.19428 2.86439 0)
(11.6663 2.03089 0)
(6.73949 1.35034 0)
(9.40269 0.269578 0)
(12.9748 -0.501034 0)
(13.3649 -1.08184 0)
(13.4644 -0.371695 0)
(13.9245 -0.345418 0)
(13.3119 -0.00965465 0)
(13.8684 0.230438 0)
(14.0837 0.61421 0)
(14.3707 0.661994 0)
(12.8007 0.239835 0)
(13.2348 0.148208 0)
(13.39 0.117663 0)
(13.5483 0.00675242 0)
(9.37086 0.297918 0)
(9.69979 0.265338 0)
(9.83879 0.436149 0)
(8.97226 0.142129 0)
(9.85975 -0.191221 0)
(9.36843 -0.0214953 0)
(10.3337 -0.21834 0)
(8.89816 -0.478384 0)
(9.21263 -0.607918 0)
(8.40596 -0.449968 0)
(8.28496 -0.357956 0)
(8.25528 -0.12797 0)
(7.29934 0.106004 0)
(8.12583 0.26877 0)
(7.45053 0.42941 0)
(8.45049 0.405593 0)
(8.62877 0.400921 0)
(8.91427 0.433865 0)
(9.78436 0.336691 0)
(9.51084 0.369721 0)
(10.698 0.139907 0)
(10.3466 0.185489 0)
(11.0335 0.0769975 0)
(11.0125 0.143259 0)
(10.9851 0.155229 0)
(11.7444 0.0408075 0)
(11.2619 0.101776 0)
(12.205 -0.140407 0)
(11.7915 -0.16181 0)
(12.3659 -0.330499 0)
(12.1768 -0.345793 0)
(11.7721 -0.252715 0)
(11.6681 -0.236396 0)
(10.46 -0.0578753 0)
(10.5886 -0.103777 0)
(9.62654 0.188646 0)
(9.76517 0.205195 0)
(9.88018 0.295969 0)
(9.84588 0.331065 0)
(10.6941 -0.0868575 0)
(14.5379 -0.572252 0)
(14.2864 -0.655592 0)
(14.405 -0.889904 0)
(13.9491 -0.724766 0)
(14.2164 -0.99472 0)
(13.8145 -0.818832 0)
(13.7483 -0.988724 0)
(13.5039 -0.837756 0)
(13.4095 -0.615302 0)
(13.421 -0.436518 0)
(13.167 -0.01519 0)
(13.372 -0.0376421 0)
(13.0074 0.358114 0)
(13.2303 0.195657 0)
(13.1929 0.31617 0)
(13.301 0.148373 0)
(13.6227 -0.137342 0)
(13.5175 -0.132388 0)
(13.9175 -0.599231 0)
(13.5998 -0.449533 0)
(13.8943 -0.846733 0)
(13.6036 -0.660914 0)
(13.7453 -0.721765 0)
(13.6408 -0.667524 0)
(13.5696 -0.426974 0)
(13.6827 -0.69981 0)
(13.4174 -0.470528 0)
(13.4876 -0.912531 0)
(13.0256 -0.816577 0)
(12.8834 -1.06224 0)
(12.5061 -1.06041 0)
(12.2191 -0.714117 0)
(12.1986 -0.696017 0)
(11.7553 0.0753912 0)
(12.0233 -0.0797902 0)
(11.6666 0.388181 0)
(12.1137 0.142437 0)
(11.9672 0.00312119 0)
(12.3617 -0.0835605 0)
(12.3952 -0.626676 0)
(14.3621 0.445059 0)
(14.3769 0.283296 0)
(14.0528 0.0940216 0)
(13.9761 0.176467 0)
(13.717 0.0150195 0)
(13.5226 0.0860796 0)
(13.1714 0.0515991 0)
(12.9504 0.129174 0)
(12.7893 0.136448 0)
(12.6919 0.106332 0)
(12.6968 0.30497 0)
(12.7596 0.203323 0)
(12.893 0.410732 0)
(13.0277 0.281449 0)
(13.129 0.334007 0)
(13.2973 0.206707 0)
(13.4014 0.111802 0)
(13.5019 0.0762894 0)
(13.3706 -0.0769784 0)
(13.2956 0.00805062 0)
(13.1159 -0.082239 0)
(13.0151 0.101247 0)
(12.9038 0.107696 0)
(12.798 0.209101 0)
(12.7304 0.257868 0)
(12.6214 0.165477 0)
(12.5321 0.216354 0)
(12.4179 0.0414407 0)
(12.2262 0.179319 0)
(12.1045 0.1114 0)
(11.8351 0.262075 0)
(11.7279 0.326496 0)
(11.5657 0.343415 0)
(11.5283 0.478219 0)
(11.672 0.407441 0)
(11.6489 0.479988 0)
(12.0128 0.289967 0)
(11.9281 0.217554 0)
(12.1837 -0.0679783 0)
(11.9826 -0.148244 0)
(13.4463 -0.176512 0)
(13.5107 -0.298613 0)
(13.2517 -0.430268 0)
(13.1442 -0.386446 0)
(12.8245 -0.526144 0)
(12.6517 -0.472437 0)
(12.2801 -0.524048 0)
(12.0002 -0.446983 0)
(11.8783 -0.464426 0)
(11.807 -0.395914 0)
(11.8661 -0.259614 0)
(11.7796 -0.230968 0)
(11.9326 -0.117176 0)
(11.923 -0.172113 0)
(12.072 -0.117705 0)
(12.1466 -0.156155 0)
(12.2165 -0.161893 0)
(12.2425 -0.184046 0)
(12.0207 -0.262677 0)
(11.9256 -0.238879 0)
(11.625 -0.357761 0)
(11.5359 -0.308785 0)
(11.3197 -0.409904 0)
(11.2059 -0.390425 0)
(11.146 -0.431009 0)
(10.9497 -0.465099 0)
(10.9926 -0.442583 0)
(10.6832 -0.533289 0)
(10.6239 -0.493022 0)
(10.294 -0.599712 0)
(10.1376 -0.549636 0)
(10.0309 -0.515617 0)
(9.85281 -0.460631 0)
(10.0017 -0.304987 0)
(9.97414 -0.327454 0)
(10.1744 -0.191327 0)
(10.3325 -0.275806 0)
(10.2029 -0.26302 0)
(10.4032 -0.353935 0)
(9.81962 -0.45897 0)
)
;

boundaryField
{
    inlet
    {
        type            fixedValue;
        value           uniform (10 0 0);
    }
    outlet
    {
        type            zeroGradient;
    }
    obstacle
    {
        type            noSlip;
    }
    upperWall
    {
        type            noSlip;
    }
    lowerWall
    {
        type            noSlip;
    }
    frontAndBack
    {
        type            empty;
    }
}


// ************************************************************************* //
