/*--------------------------------*- C++ -*----------------------------------*\
  =========                 |
  \\      /  F ield         | OpenFOAM: The Open Source CFD Toolbox
   \\    /   O peration     | Website:  https://openfoam.org
    \\  /    A nd           | Version:  10
     \\/     M anipulation  |
\*---------------------------------------------------------------------------*/
FoamFile
{
    format      ascii;
    class       volVectorField;
    location    "4.475";
    object      U;
}
// * * * * * * * * * * * * * * * * * * * * * * * * * * * * * * * * * * * * * //

dimensions      [0 1 -1 0 0 0 0];

internalField   nonuniform List<vector> 
400
(
(-9.77037e-05 9.30883e-05 0)
(-0.000806774 0.000313029 0)
(-0.00197247 0.000371965 0)
(-0.0030806 0.000375157 0)
(-0.00416576 0.000364034 0)
(-0.0051913 0.000346845 0)
(-0.00613421 0.000322969 0)
(-0.00697192 0.000290222 0)
(-0.0076778 0.000246351 0)
(-0.00822159 0.000189275 0)
(-0.00856999 0.000117395 0)
(-0.00868794 3.04666e-05 0)
(-0.00854058 -7.28441e-05 0)
(-0.00809748 -0.000189444 0)
(-0.00733813 -0.000314273 0)
(-0.00625671 -0.000439096 0)
(-0.0048756 -0.00054999 0)
(-0.00327934 -0.000620382 0)
(-0.00146736 -0.000581647 0)
(-0.000245286 -0.000262249 0)
(-0.000333319 0.000812644 0)
(-0.00175594 0.00169789 0)
(-0.00384819 0.00191663 0)
(-0.00583855 0.00190197 0)
(-0.00776194 0.00181231 0)
(-0.00955357 0.00168249 0)
(-0.0111686 0.00151446 0)
(-0.0125668 0.0013039 0)
(-0.0137049 0.00104574 0)
(-0.0145372 0.000735409 0)
(-0.0150156 0.000369529 0)
(-0.015094 -5.37203e-05 0)
(-0.014727 -0.000528806 0)
(-0.0138755 -0.00104339 0)
(-0.012518 -0.00157654 0)
(-0.0106549 -0.00209529 0)
(-0.00832989 -0.00254589 0)
(-0.00566926 -0.00282438 0)
(-0.0026882 -0.0026763 0)
(-0.000548678 -0.00144315 0)
(-0.000413844 0.00204679 0)
(-0.00209673 0.0038307 0)
(-0.00452814 0.00424788 0)
(-0.00683105 0.00418811 0)
(-0.00904859 0.00396426 0)
(-0.0111082 0.00364737 0)
(-0.0129604 0.0032451 0)
(-0.0145609 0.00275271 0)
(-0.0158629 0.00216344 0)
(-0.0168173 0.001471 0)
(-0.0173741 0.000671285 0)
(-0.0174787 -0.000236043 0)
(-0.0170766 -0.00124104 0)
(-0.016123 -0.00231934 0)
(-0.014587 -0.00342887 0)
(-0.0124599 -0.00450307 0)
(-0.00978169 -0.0054347 0)
(-0.00669143 -0.00601444 0)
(-0.00320131 -0.00574022 0)
(-0.000665998 -0.00329065 0)
(-0.000440151 0.00330438 0)
(-0.00224074 0.0060247 0)
(-0.00484101 0.0066408 0)
(-0.00729892 0.0065312 0)
(-0.00966895 0.0061718 0)
(-0.0118768 0.00566968 0)
(-0.0138734 0.00503734 0)
(-0.0156153 0.00426885 0)
(-0.0170552 0.00335468 0)
(-0.0181424 0.00228513 0)
(-0.0188221 0.00105327 0)
(-0.0190353 -0.000340429 0)
(-0.0187149 -0.0018879 0)
(-0.0177945 -0.00355725 0)
(-0.0162216 -0.00528895 0)
(-0.0139636 -0.00698327 0)
(-0.0110422 -0.00847236 0)
(-0.00760358 -0.00942317 0)
(-0.0036554 -0.00904822 0)
(-0.000761706 -0.0052779 0)
(-0.000458989 0.00463801 0)
(-0.00236229 0.00835781 0)
(-0.00511965 0.0091848 0)
(-0.00772595 0.00902549 0)
(-0.0102476 0.00852977 0)
(-0.0126099 0.00784277 0)
(-0.0147666 0.00698201 0)
(-0.0166764 0.00593984 0)
(-0.0182936 0.00470269 0)
(-0.0195663 0.00325518 0)
(-0.020435 0.00158366 0)
(-0.0208314 -0.000318421 0)
(-0.0206714 -0.0024473 0)
(-0.0198615 -0.00477012 0)
(-0.0183129 -0.00721586 0)
(-0.0159495 -0.00965243 0)
(-0.0127524 -0.0118398 0)
(-0.00886758 -0.0132861 0)
(-0.00429991 -0.0128507 0)
(-0.000902755 -0.00758031 0)
(-0.000482392 0.00604674 0)
(-0.00250912 0.010839 0)
(-0.00545535 0.0118933 0)
(-0.00824137 0.011687 0)
(-0.0109471 0.0110576 0)
(-0.0134983 0.0101914 0)
(-0.0158528 0.00911119 0)
(-0.0179743 0.00780721 0)
(-0.0198202 0.00626023 0)
(-0.0213399 0.00444592 0)
(-0.0224698 0.00233834 0)
(-0.0231343 -8.47291e-05 0)
(-0.0232274 -0.00282891 0)
(-0.0226181 -0.00587934 0)
(-0.0211661 -0.00916226 0)
(-0.0187264 -0.0125166 0)
(-0.0152054 -0.0156178 0)
(-0.0107243 -0.0177657 0)
(-0.00527939 -0.0173529 0)
(-0.00113034 -0.0103483 0)
(-0.000512484 0.00754732 0)
(-0.00269155 0.0134982 0)
(-0.00586793 0.014799 0)
(-0.00887095 0.0145483 0)
(-0.0117971 0.0137885 0)
(-0.0145731 0.0127508 0)
(-0.0171638 0.0114646 0)
(-0.0195402 0.00991778 0)
(-0.0216674 0.00808408 0)
(-0.0235 0.00592692 0)
(-0.0249763 0.00340176 0)
(-0.0260078 0.000462017 0)
(-0.0264743 -0.00292517 0)
(-0.0262056 -0.00678023 0)
(-0.0249828 -0.0110498 0)
(-0.0225578 -0.0155609 0)
(-0.0187066 -0.0198971 0)
(-0.0134644 -0.0230868 0)
(-0.00679936 -0.0228644 0)
(-0.00151306 -0.0138382 0)
(-0.000549611 0.00916172 0)
(-0.0029125 0.0163739 0)
(-0.0063626 0.0179416 0)
(-0.00961877 0.0176465 0)
(-0.0127983 0.0167576 0)
(-0.01583 0.0155565 0)
(-0.0186886 0.0140808 0)
(-0.021357 0.0123173 0)
(-0.0238131 0.0102323 0)
(-0.0260239 0.00777463 0)
(-0.0279361 0.00487531 0)
(-0.029462 0.00145243 0)
(-0.030471 -0.00258074 0)
(-0.0307494 -0.00730268 0)
(-0.0299871 -0.0127222 0)
(-0.0277874 -0.0186967 0)
(-0.0237114 -0.0247327 0)
(-0.0175749 -0.0295186 0)
(-0.00926558 -0.0298296 0)
(-0.00220597 -0.018489 0)
(-0.000594784 0.0109132 0)
(-0.00317617 0.0195065 0)
(-0.00694538 0.0213598 0)
(-0.0104881 0.0210148 0)
(-0.0139478 0.0199936 0)
(-0.0172572 0.0186352 0)
(-0.0204044 0.016989 0)
(-0.0233897 0.0150427 0)
(-0.026211 0.012757 0)
(-0.0288578 0.0100655 0)
(-0.031299 0.00687044 0)
(-0.0334642 0.00304129 0)
(-0.0352307 -0.00158334 0)
(-0.0363568 -0.00717616 0)
(-0.0364375 -0.0138838 0)
(-0.0348843 -0.0216769 0)
(-0.0309326 -0.0300565 0)
(-0.0239362 -0.0373225 0)
(-0.0135671 -0.0388923 0)
(-0.00358753 -0.0251285 0)
(-0.000650847 0.0128289 0)
(-0.00349181 0.0229398 0)
(-0.00762897 0.0250914 0)
(-0.0114879 0.0246809 0)
(-0.0152464 0.023516 0)
(-0.0188425 0.0220017 0)
(-0.0222827 0.0202038 0)
(-0.0255901 0.0181152 0)
(-0.0287915 0.0156955 0)
(-0.0319117 0.0128669 0)
(-0.0349615 0.00950413 0)
(-0.0379174 0.00542139 0)
(-0.040692 0.000361336 0)
(-0.0430684 -0.0059855 0)
(-0.0445896 -0.0140138 0)
(-0.0444611 -0.0239522 0)
(-0.0414867 -0.035484 0)
(-0.0342141 -0.0465758 0)
(-0.0217392 -0.0509267 0)
(-0.00661036 -0.0354857 0)
(-0.000724131 0.0149444 0)
(-0.0038779 0.0267252 0)
(-0.0084383 0.0291747 0)
(-0.0126387 0.0286663 0)
(-0.0167031 0.0273322 0)
(-0.020578 0.0256539 0)
(-0.0242928 0.0237184 0)
(-0.0278994 0.0215306 0)
(-0.031461 0.0190566 0)
(-0.0350512 0.0162179 0)
(-0.038747 0.012873 0)
(-0.0426109 0.00878851 0)
(-0.0466471 0.00360432 0)
(-0.0507726 -0.00319542 0)
(-0.0545996 -0.0122866 0)
(-0.0572387 -0.0244314 0)
(-0.0570776 -0.0398613 0)
(-0.0514938 -0.0565798 0)
(-0.0381304 -0.0668319 0)
(-0.0135619 -0.0533677 0)
(-0.000827806 0.0173127 0)
(-0.00436932 0.0309278 0)
(-0.00941859 0.033649 0)
(-0.013979 0.0329835 0)
(-0.0183416 0.0314337 0)
(-0.0224654 0.0295672 0)
(-0.0264082 0.0274975 0)
(-0.0302539 0.0252479 0)
(-0.0341065 0.0228029 0)
(-0.0380982 0.0201025 0)
(-0.0423954 0.0170183 0)
(-0.0471952 0.0133096 0)
(-0.0527016 0.00855207 0)
(-0.0590584 0.00203494 0)
(-0.0662527 -0.00728429 0)
(-0.0737727 -0.0208861 0)
(-0.0798642 -0.0402965 0)
(-0.0803908 -0.0647248 0)
(-0.0692222 -0.0874109 0)
(-0.0276706 -0.0865785 0)
(-0.000989234 0.0200153 0)
(-0.00503064 0.0356236 0)
(-0.0106477 0.0385342 0)
(-0.0155754 0.0376133 0)
(-0.0202077 0.035781 0)
(-0.0245235 0.0336883 0)
(-0.0286146 0.0314722 0)
(-0.0325963 0.0291803 0)
(-0.0366086 0.0268308 0)
(-0.0408383 0.0244072 0)
(-0.0455439 0.0218368 0)
(-0.0510882 0.0189412 0)
(-0.0579679 0.0153356 0)
(-0.0668196 0.0102541 0)
(-0.0784241 0.00234005 0)
(-0.0935533 -0.0106186 0)
(-0.110798 -0.0320275 0)
(-0.122905 -0.0664677 0)
(-0.114164 -0.114628 0)
(-0.0437949 -0.148878 0)
(-0.00126981 0.0232162 0)
(-0.0060054 0.0410688 0)
(-0.0122684 0.0440838 0)
(-0.017524 0.0427816 0)
(-0.0223584 0.0405018 0)
(-0.0267833 0.0380368 0)
(-0.0309184 0.0355784 0)
(-0.0348968 0.0332063 0)
(-0.0388807 0.0309749 0)
(-0.0430931 0.0289351 0)
(-0.0478638 0.0271373 0)
(-0.0537103 0.0255931 0)
(-0.061467 0.0241806 0)
(-0.0724293 0.0224351 0)
(-0.0885639 0.0191807 0)
(-0.112083 0.0112703 0)
(-0.141616 -0.00948382 0)
(-0.16277 -0.0629674 0)
(-0.148591 -0.161082 0)
(-0.0442635 -0.249079 0)
(-0.00167008 0.0272373 0)
(-0.00719209 0.0464739 0)
(-0.0143323 0.0490426 0)
(-0.0199888 0.0469849 0)
(-0.0250363 0.0443291 0)
(-0.02945 0.0417178 0)
(-0.0334417 0.0392352 0)
(-0.0371918 0.0369211 0)
(-0.0408618 0.0348591 0)
(-0.0446406 0.0331909 0)
(-0.0488245 0.0321458 0)
(-0.0539489 0.0320511 0)
(-0.061001 0.0333238 0)
(-0.0716842 0.0362011 0)
(-0.0889139 0.0401065 0)
(-0.115834 0.039755 0)
(-0.1505 0.0177454 0)
(-0.167731 -0.0672838 0)
(-0.146082 -0.229817 0)
(-0.0331359 -0.359446 0)
(-0.00365876 0.0309874 0)
(-0.0112477 0.0556539 0)
(-0.017939 0.0579687 0)
(-0.023213 0.0554485 0)
(-0.0277609 0.0516143 0)
(-0.0319079 0.0478487 0)
(-0.0357059 0.0444193 0)
(-0.0392107 0.0414366 0)
(-0.0424707 0.0390105 0)
(-0.045562 0.0373277 0)
(-0.0486264 0.0367706 0)
(-0.0519613 0.0380184 0)
(-0.0562798 0.0422308 0)
(-0.0626933 0.0503835 0)
(-0.0735631 0.0623558 0)
(-0.0903607 0.067622 0)
(-0.11495 0.0420832 0)
(-0.120436 -0.0729404 0)
(-0.111917 -0.286503 0)
(-0.0250987 -0.450219 0)
(-0.00135096 0.0450725 0)
(-0.00927843 0.0583792 0)
(-0.0209791 0.0580087 0)
(-0.0268734 0.0533764 0)
(-0.0324113 0.0499081 0)
(-0.0363571 0.0469661 0)
(-0.0394149 0.0443632 0)
(-0.0418035 0.0419835 0)
(-0.0436243 0.0399402 0)
(-0.0448534 0.0384147 0)
(-0.0453788 0.0379428 0)
(-0.0449337 0.0392501 0)
(-0.0435319 0.044075 0)
(-0.0402611 0.0531037 0)
(-0.0372878 0.0675386 0)
(-0.0306817 0.0735444 0)
(-0.037203 0.048125 0)
(-0.0312784 -0.0730217 0)
(-0.0546201 -0.310008 0)
(2.15193e-05 -0.510727 0)
(-0.0117953 0.0346993 0)
(-0.0251531 0.0809083 0)
(-0.0257926 0.0786556 0)
(-0.033164 0.07325 0)
(-0.0363295 0.0659213 0)
(-0.0379282 0.0593448 0)
(-0.0379555 0.053646 0)
(-0.0368886 0.0487774 0)
(-0.0349581 0.044686 0)
(-0.0320941 0.0413106 0)
(-0.0284563 0.038956 0)
(-0.0231059 0.0380512 0)
(-0.016589 0.0404029 0)
(-0.00458094 0.0460716 0)
(0.00876626 0.0586081 0)
(0.036741 0.0652007 0)
(0.0493734 0.0498855 0)
(0.0869884 -0.0494982 0)
(0.0375875 -0.292902 0)
(0.0532359 -0.511474 0)
(-0.076111 0.0982436 0)
(-0.0615357 0.0613202 0)
(-0.0632186 0.0606444 0)
(-0.0426511 0.0539378 0)
(-0.025764 0.0469949 0)
(-0.00675316 0.041672 0)
(0.0110851 0.0376837 0)
(0.0284195 0.034129 0)
(0.0442118 0.0313395 0)
(0.0599479 0.0284728 0)
(0.0735694 0.026589 0)
(0.0892465 0.02466 0)
(0.100431 0.0243862 0)
(0.123172 0.0251122 0)
(0.132054 0.0248216 0)
(0.179323 0.0225228 0)
(0.182691 -0.00873943 0)
(0.238537 -0.0747463 0)
(0.171564 -0.2651 0)
(0.128079 -0.445913 0)
(0.120171 0.140242 0)
(0.15298 0.0861697 0)
(0.231313 0.0638807 0)
(0.286534 0.0486959 0)
(0.328895 0.0381708 0)
(0.367276 0.0305022 0)
(0.397005 0.0250916 0)
(0.428317 0.0212986 0)
(0.448705 0.0181288 0)
(0.477385 0.0161146 0)
(0.489252 0.0140379 0)
(0.519365 0.0127709 0)
(0.522103 0.0116688 0)
(0.557024 0.01068 0)
(0.549985 0.0100545 0)
(0.588296 0.00663323 0)
(0.562476 -0.00281653 0)
(0.574728 -0.026408 0)
(0.441249 -0.079317 0)
(0.277978 -0.158761 0)
)
;

boundaryField
{
    movingWall
    {
        type            fixedValue;
        value           uniform (1 0 0);
    }
    fixedWalls
    {
        type            noSlip;
    }
    frontAndBack
    {
        type            empty;
    }
}


// ************************************************************************* //
