/*--------------------------------*- C++ -*----------------------------------*\
  =========                 |
  \\      /  F ield         | OpenFOAM: The Open Source CFD Toolbox
   \\    /   O peration     | Website:  https://openfoam.org
    \\  /    A nd           | Version:  10
     \\/     M anipulation  |
\*---------------------------------------------------------------------------*/
FoamFile
{
    format      ascii;
    class       volVectorField;
    location    "7.25";
    object      U;
}
// * * * * * * * * * * * * * * * * * * * * * * * * * * * * * * * * * * * * * //

dimensions      [0 1 -1 0 0 0 0];

internalField   nonuniform List<vector> 
400
(
(-0.00013155 0.000119264 0)
(-0.00101191 0.000380569 0)
(-0.00250194 0.000474596 0)
(-0.00401458 0.000501561 0)
(-0.00555988 0.000511134 0)
(-0.0070981 0.000518464 0)
(-0.00861048 0.000522746 0)
(-0.0100725 0.000518099 0)
(-0.0114445 0.000496896 0)
(-0.012669 0.000450304 0)
(-0.0136681 0.000368599 0)
(-0.0143431 0.000242389 0)
(-0.0145775 6.5017e-05 0)
(-0.0142446 -0.00016949 0)
(-0.0132283 -0.000451111 0)
(-0.0114548 -0.000753559 0)
(-0.00894518 -0.00102312 0)
(-0.0059272 -0.00117204 0)
(-0.00255742 -0.00106841 0)
(-0.000388085 -0.000459065 0)
(-0.000427959 0.00102725 0)
(-0.00225993 0.0021545 0)
(-0.0050624 0.00255863 0)
(-0.00789721 0.00266297 0)
(-0.0107557 0.00266394 0)
(-0.013554 0.00262385 0)
(-0.0162413 0.00254478 0)
(-0.018763 0.00240821 0)
(-0.0210458 0.00218804 0)
(-0.0229934 0.00185392 0)
(-0.0244838 0.00137339 0)
(-0.0253685 0.000715474 0)
(-0.0254836 -0.000142996 0)
(-0.0246525 -0.00119779 0)
(-0.0227156 -0.00240233 0)
(-0.0195834 -0.0036469 0)
(-0.0153119 -0.00472421 0)
(-0.0102485 -0.00529613 0)
(-0.00465401 -0.00486492 0)
(-0.000860024 -0.00245912 0)
(-0.000555136 0.0026465 0)
(-0.00281817 0.00502137 0)
(-0.00621141 0.00585512 0)
(-0.00961712 0.00604676 0)
(-0.0130296 0.00599871 0)
(-0.0163505 0.0058395 0)
(-0.019521 0.00557909 0)
(-0.0224805 0.0051864 0)
(-0.0251494 0.00461435 0)
(-0.0274244 0.00380684 0)
(-0.0291746 0.00270385 0)
(-0.0302408 0.00124928 0)
(-0.030429 -0.000595328 0)
(-0.0295218 -0.00282423 0)
(-0.0273155 -0.00534701 0)
(-0.023666 -0.00794532 0)
(-0.0185936 -0.0101996 0)
(-0.0124886 -0.011405 0)
(-0.0056478 -0.0105364 0)
(-0.00101891 -0.00559352 0)
(-0.000595539 0.00436464 0)
(-0.0030394 0.00807101 0)
(-0.00669786 0.00934214 0)
(-0.0103562 0.00960917 0)
(-0.0140221 0.00950223 0)
(-0.0175984 0.00922002 0)
(-0.0210326 0.00878096 0)
(-0.0242723 0.00814203 0)
(-0.027246 0.00723509 0)
(-0.0298564 0.00597568 0)
(-0.0319726 0.00426976 0)
(-0.0334229 0.00202674 0)
(-0.0339908 -0.00081862 0)
(-0.0333984 -0.00429277 0)
(-0.0313379 -0.00828081 0)
(-0.0275383 -0.0124676 0)
(-0.0218941 -0.0161913 0)
(-0.014806 -0.018272 0)
(-0.00659291 -0.0169747 0)
(-0.00109537 -0.00900541 0)
(-0.000602451 0.00616186 0)
(-0.00313073 0.01128 0)
(-0.00693641 0.0130119 0)
(-0.0107431 0.0133629 0)
(-0.0145741 0.0132089 0)
(-0.0183402 0.0128245 0)
(-0.0220042 0.0122389 0)
(-0.0255311 0.0113984 0)
(-0.028868 0.0102133 0)
(-0.0319344 0.00856686 0)
(-0.0346068 0.00631976 0)
(-0.036703 0.00332315 0)
(-0.0379792 -0.000556811 0)
(-0.038072 -0.00538005 0)
(-0.036518 -0.0110872 0)
(-0.0328334 -0.0172853 0)
(-0.0266558 -0.0230263 0)
(-0.0182926 -0.0264719 0)
(-0.00800573 -0.024813 0)
(-0.00116739 -0.0129659 0)
(-0.000599487 0.00799234 0)
(-0.00318468 0.0145895 0)
(-0.00710724 0.0168093 0)
(-0.0110397 0.0172617 0)
(-0.0150207 0.0170858 0)
(-0.0189734 0.0166399 0)
(-0.022882 0.0159683 0)
(-0.0267378 0.0150096 0)
(-0.0305179 0.0136533 0)
(-0.0341729 0.0117469 0)
(-0.037606 0.00909475 0)
(-0.0406452 0.00546296 0)
(-0.042999 0.00060766 0)
(-0.0442392 -0.00564872 0)
(-0.0437248 -0.0133758 0)
(-0.0406146 -0.0221901 0)
(-0.0340906 -0.0308488 0)
(-0.024091 -0.0366098 0)
(-0.0104811 -0.0348794 0)
(-0.00128293 -0.0177808 0)
(-0.000593366 0.00984272 0)
(-0.00323116 0.0179833 0)
(-0.00726813 0.0207207 0)
(-0.0113234 0.0212948 0)
(-0.0154514 0.0211279 0)
(-0.0195903 0.0206717 0)
(-0.0237518 0.0199926 0)
(-0.0279624 0.0190275 0)
(-0.0322433 0.0176503 0)
(-0.0365972 0.0156737 0)
(-0.0409833 0.0128387 0)
(-0.0452729 0.00880525 0)
(-0.0491859 0.0031681 0)
(-0.0522525 -0.00449847 0)
(-0.0536527 -0.014491 0)
(-0.0521187 -0.0266518 0)
(-0.0460708 -0.0396041 0)
(-0.0343801 -0.0495521 0)
(-0.0154825 -0.048673 0)
(-0.00164413 -0.0242014 0)
(-0.000584887 0.0117111 0)
(-0.00327647 0.0214634 0)
(-0.0074302 0.0247468 0)
(-0.0116021 0.0254594 0)
(-0.015863 0.0253291 0)
(-0.0201675 0.0249144 0)
(-0.0245593 0.0243139 0)
(-0.0291097 0.0234746 0)
(-0.0338997 0.0222664 0)
(-0.0390106 0.0204788 0)
(-0.0445002 0.0177941 0)
(-0.0503527 0.0137558 0)
(-0.0564016 0.00774187 0)
(-0.0622425 -0.000999725 0)
(-0.0670387 -0.01316 0)
(-0.0691751 -0.0292778 0)
(-0.0659017 -0.0484222 0)
(-0.0533441 -0.0662148 0)
(-0.0264721 -0.0689127 0)
(-0.00300813 -0.0341347 0)
(-0.000574694 0.0135968 0)
(-0.00332395 0.025033 0)
(-0.00759614 0.0288843 0)
(-0.0118687 0.02974 0)
(-0.0162292 0.029662 0)
(-0.0206484 0.0293308 0)
(-0.0252042 0.028891 0)
(-0.0300189 0.0283161 0)
(-0.0352482 0.0274953 0)
(-0.0410806 0.0262232 0)
(-0.0477272 0.024156 0)
(-0.0553876 0.0207469 0)
(-0.0641679 0.0151738 0)
(-0.0739619 0.00631171 0)
(-0.08447 -0.00723007 0)
(-0.0940773 -0.0270041 0)
(-0.0979601 -0.0547113 0)
(-0.0859554 -0.0871764 0)
(-0.0483238 -0.100498 0)
(-0.00717664 -0.052036 0)
(-0.00056617 0.0155025 0)
(-0.00338443 0.0286973 0)
(-0.007779 0.0331238 0)
(-0.0121261 0.0341059 0)
(-0.016532 0.0340724 0)
(-0.0209807 0.0338439 0)
(-0.0255823 0.0336265 0)
(-0.0305103 0.0334417 0)
(-0.0359986 0.03323 0)
(-0.0423619 0.0328409 0)
(-0.0500144 0.0319791 0)
(-0.0594816 0.0301196 0)
(-0.0713978 0.0264021 0)
(-0.0865181 0.0195047 0)
(-0.105428 0.0072333 0)
(-0.127051 -0.014775 0)
(-0.142175 -0.0545776 0)
(-0.129478 -0.113565 0)
(-0.0813201 -0.149993 0)
(-0.0173284 -0.0860148 0)
(-0.000567929 0.0174424 0)
(-0.00348409 0.0324709 0)
(-0.00801491 0.0374526 0)
(-0.0124037 0.0385098 0)
(-0.0167809 0.0384763 0)
(-0.0211392 0.0383306 0)
(-0.0256142 0.0383551 0)
(-0.0304198 0.0386411 0)
(-0.0358553 0.0392181 0)
(-0.0423491 0.0400555 0)
(-0.050522 0.0410215 0)
(-0.0612811 0.0418168 0)
(-0.0759544 0.0418865 0)
(-0.0965033 0.040125 0)
(-0.125098 0.0330839 0)
(-0.159356 0.00979846 0)
(-0.181746 -0.0497534 0)
(-0.164222 -0.149489 0)
(-0.116634 -0.216519 0)
(-0.035624 -0.145447 0)
(-0.000598322 0.0194565 0)
(-0.00367616 0.0363991 0)
(-0.0083781 0.0418822 0)
(-0.0127719 0.0429175 0)
(-0.0170303 0.0427848 0)
(-0.0211499 0.042641 0)
(-0.0252804 0.0428568 0)
(-0.029653 0.0436091 0)
(-0.0345944 0.045053 0)
(-0.0405918 0.0473523 0)
(-0.0483945 0.0506815 0)
(-0.0591698 0.0552257 0)
(-0.0747012 0.061073 0)
(-0.0976519 0.0671768 0)
(-0.130458 0.0669529 0)
(-0.167835 0.039135 0)
(-0.187049 -0.0462331 0)
(-0.166697 -0.187096 0)
(-0.137115 -0.285393 0)
(-0.0505146 -0.240347 0)
(-0.00068791 0.0215999 0)
(-0.00403902 0.0404716 0)
(-0.00898173 0.0462861 0)
(-0.0133568 0.0471255 0)
(-0.0174043 0.0467595 0)
(-0.0211186 0.0465023 0)
(-0.0246563 0.0467881 0)
(-0.0282325 0.0478797 0)
(-0.0321301 0.0500664 0)
(-0.0367767 0.0537346 0)
(-0.0428455 0.0594363 0)
(-0.0513986 0.0679337 0)
(-0.0639934 0.0798998 0)
(-0.082386 0.0933609 0)
(-0.108163 0.0972601 0)
(-0.134856 0.062189 0)
(-0.146586 -0.0417375 0)
(-0.13245 -0.207051 0)
(-0.128337 -0.340323 0)
(-0.0471757 -0.348583 0)
(-0.000929742 0.024166 0)
(-0.00481398 0.0452417 0)
(-0.0100831 0.0513259 0)
(-0.0143363 0.0517895 0)
(-0.0180242 0.0508805 0)
(-0.0211732 0.0501581 0)
(-0.0239121 0.0501555 0)
(-0.0263851 0.0512132 0)
(-0.0287659 0.0537205 0)
(-0.0312928 0.0582299 0)
(-0.0343249 0.0655661 0)
(-0.0383256 0.0767865 0)
(-0.0439722 0.0927201 0)
(-0.0512471 0.109977 0)
(-0.0616076 0.114813 0)
(-0.0699279 0.0749494 0)
(-0.0749072 -0.0338517 0)
(-0.0700625 -0.204954 0)
(-0.0926893 -0.36777 0)
(-0.0317056 -0.428499 0)
(-0.00128837 0.027304 0)
(-0.00572893 0.0493865 0)
(-0.011617 0.0548172 0)
(-0.0159521 0.0542794 0)
(-0.0193962 0.0527885 0)
(-0.0218827 0.0517683 0)
(-0.0236061 0.0516041 0)
(-0.0246803 0.0525462 0)
(-0.0251475 0.0549725 0)
(-0.0249887 0.0594714 0)
(-0.0241787 0.0669316 0)
(-0.0223676 0.0782901 0)
(-0.0194777 0.0942126 0)
(-0.0137887 0.110684 0)
(-0.00813192 0.115 0)
(0.00255539 0.0760771 0)
(-0.000915916 -0.0285289 0)
(-0.00524776 -0.183279 0)
(-0.0558787 -0.363684 0)
(-0.0157562 -0.476941 0)
(-0.00336505 0.0300679 0)
(-0.0101472 0.0573114 0)
(-0.0154089 0.0626717 0)
(-0.0187934 0.0615864 0)
(-0.0210272 0.0585371 0)
(-0.0224755 0.0559235 0)
(-0.0231682 0.0542647 0)
(-0.0230081 0.0538406 0)
(-0.0217877 0.054962 0)
(-0.019171 0.0580807 0)
(-0.0148086 0.0639369 0)
(-0.00766878 0.0731076 0)
(0.00247087 0.0860442 0)
(0.0184455 0.0989766 0)
(0.0352366 0.102331 0)
(0.0560434 0.0702762 0)
(0.0551643 -0.0200793 0)
(0.0481542 -0.148093 0)
(-0.0284127 -0.341113 0)
(0.00154748 -0.503344 0)
(-0.00105613 0.0438118 0)
(-0.00823347 0.0593744 0)
(-0.0184992 0.0607774 0)
(-0.0221056 0.0565269 0)
(-0.0249104 0.0533769 0)
(-0.0257493 0.0512489 0)
(-0.0253474 0.0499852 0)
(-0.0236455 0.0494937 0)
(-0.0204789 0.0499526 0)
(-0.0153916 0.051619 0)
(-0.00795089 0.0551144 0)
(0.00329964 0.0606838 0)
(0.0183405 0.0685881 0)
(0.040412 0.0760964 0)
(0.0621322 0.0764575 0)
(0.0900244 0.0529013 0)
(0.0882189 -0.0136856 0)
(0.0798708 -0.109583 0)
(-0.00237112 -0.311928 0)
(0.023185 -0.509919 0)
(-0.0125203 0.032441 0)
(-0.0238135 0.0800048 0)
(-0.0226844 0.0794489 0)
(-0.0281515 0.0743646 0)
(-0.0292787 0.0670191 0)
(-0.028619 0.0609059 0)
(-0.0259628 0.0559422 0)
(-0.0215573 0.0520762 0)
(-0.0154617 0.0493166 0)
(-0.00729419 0.0474983 0)
(0.00290079 0.0469818 0)
(0.0165989 0.0477542 0)
(0.0329729 0.0503797 0)
(0.0557 0.052683 0)
(0.0749105 0.0531493 0)
(0.1044 0.0401579 0)
(0.101796 0.000462887 0)
(0.113329 -0.0698503 0)
(0.0454342 -0.279681 0)
(0.05875 -0.495335 0)
(-0.0775174 0.0962447 0)
(-0.063224 0.0589963 0)
(-0.0656041 0.0598889 0)
(-0.0437322 0.0532232 0)
(-0.0264388 0.0462912 0)
(-0.00633113 0.0411436 0)
(0.0126466 0.0373855 0)
(0.0319123 0.0341868 0)
(0.04972 0.031866 0)
(0.0689469 0.029684 0)
(0.0856932 0.028455 0)
(0.106924 0.0275205 0)
(0.122317 0.0272204 0)
(0.151794 0.0272108 0)
(0.162443 0.0229406 0)
(0.204279 0.0149777 0)
(0.19623 -0.0193121 0)
(0.229045 -0.0769802 0)
(0.157598 -0.254707 0)
(0.126237 -0.436583 0)
(0.119523 0.140819 0)
(0.152265 0.0861872 0)
(0.228826 0.0635885 0)
(0.284283 0.0481108 0)
(0.325597 0.0374317 0)
(0.363853 0.0296485 0)
(0.392522 0.0242061 0)
(0.423689 0.0201473 0)
(0.443497 0.0172259 0)
(0.472159 0.0150084 0)
(0.484704 0.0132075 0)
(0.514381 0.0121054 0)
(0.519644 0.0109296 0)
(0.552895 0.0100639 0)
(0.548138 0.00837503 0)
(0.582303 0.0039184 0)
(0.552214 -0.00537066 0)
(0.558515 -0.0275515 0)
(0.423207 -0.0733835 0)
(0.275912 -0.152004 0)
)
;

boundaryField
{
    movingWall
    {
        type            fixedValue;
        value           uniform (1 0 0);
    }
    fixedWalls
    {
        type            noSlip;
    }
    frontAndBack
    {
        type            empty;
    }
}


// ************************************************************************* //
