/*--------------------------------*- C++ -*----------------------------------*\
  =========                 |
  \\      /  F ield         | OpenFOAM: The Open Source CFD Toolbox
   \\    /   O peration     | Website:  https://openfoam.org
    \\  /    A nd           | Version:  10
     \\/     M anipulation  |
\*---------------------------------------------------------------------------*/
FoamFile
{
    format      ascii;
    class       volScalarField;
    location    "7";
    object      p;
}
// * * * * * * * * * * * * * * * * * * * * * * * * * * * * * * * * * * * * * //

dimensions      [0 2 -2 0 0 0 0];

internalField   nonuniform List<scalar> 
475
(
-0.0591786
-0.0845672
-0.113946
-0.137639
-0.160445
-0.0849268
-0.0982516
-0.114508
-0.133543
-0.150428
-0.0830146
-0.0923734
-0.107343
-0.124774
-0.141117
-0.0822867
-0.0931749
-0.108027
-0.12338
-0.136892
-0.0524935
-0.0794106
-0.103002
-0.120636
-0.133317
-0.178665
-0.188941
-0.192686
-0.195074
-0.198742
-0.204158
-0.210269
-0.214676
-0.215538
-0.212114
-0.204145
-0.191923
-0.176902
-0.16084
-0.145107
-0.130194
-0.116759
-0.107338
-0.103408
-0.103745
-0.10564
-0.106436
-0.104334
-0.0990988
-0.0916043
-0.0828827
-0.0730575
-0.0630936
-0.0535322
-0.044624
-0.036287
-0.0283584
-0.021055
-0.0149228
-0.0104065
-0.00741819
-0.00535031
-0.00355037
-0.00175814
-5.05835e-05
0.00127
0.00202478
0.00212299
0.00163232
0.00067859
-0.166963
-0.178439
-0.184317
-0.186431
-0.187385
-0.188237
-0.188836
-0.188348
-0.186017
-0.181582
-0.175102
-0.166989
-0.158078
-0.149151
-0.140701
-0.131878
-0.123791
-0.11894
-0.118526
-0.1212
-0.124323
-0.125355
-0.122589
-0.115911
-0.105848
-0.0943976
-0.0823741
-0.0702472
-0.058571
-0.0475839
-0.0373514
-0.027946
-0.0196429
-0.0129607
-0.00821993
-0.00514149
-0.00302183
-0.00119905
0.000568165
0.00216801
0.00328305
0.00372327
0.00344341
0.00249051
0.00108468
-0.154426
-0.163901
-0.169448
-0.171647
-0.171559
-0.169987
-0.16731
-0.16367
-0.159177
-0.154176
-0.149823
-0.147269
-0.146743
-0.145346
-0.139532
-0.131587
-0.12827
-0.128736
-0.129965
-0.131826
-0.133356
-0.132074
-0.127022
-0.118497
-0.108123
-0.0959963
-0.0832427
-0.0706433
-0.0585793
-0.0471718
-0.0364816
-0.0267264
-0.018302
-0.0116006
-0.00673847
-0.00339712
-0.00100043
0.000956413
0.00266914
0.00405592
0.00488105
0.00500607
0.00439501
0.00310427
0.00132221
-0.147565
-0.155305
-0.1599
-0.161581
-0.160453
-0.157066
-0.151748
-0.145074
-0.13752
-0.1307
-0.126897
-0.129007
-0.140275
-0.149934
-0.142508
-0.12332
-0.114466
-0.118723
-0.127784
-0.134724
-0.137492
-0.135642
-0.129763
-0.120081
-0.108254
-0.0953268
-0.0820753
-0.069089
-0.0567503
-0.0452412
-0.0346812
-0.0252341
-0.0171568
-0.0107013
-0.00586463
-0.00236534
0.000225532
0.00226632
0.00390856
0.00510234
0.00569262
0.00559568
0.00477344
0.00332457
0.00135833
-0.142854
-0.149787
-0.154047
-0.15538
-0.153727
-0.149355
-0.142702
-0.134549
-0.125671
-0.118196
-0.113821
-0.118029
-0.132696
-0.146223
-0.146788
-0.138852
-0.130679
-0.127195
-0.128114
-0.130894
-0.131831
-0.12966
-0.123888
-0.115234
-0.104406
-0.0922741
-0.0796627
-0.067176
-0.0551819
-0.0439138
-0.0335819
-0.0243884
-0.0165598
-0.0102532
-0.0054281
-0.00184717
0.000829512
0.00288327
0.00444726
0.00548991
0.00591489
0.00565149
0.00470929
0.00319885
0.00121918
-0.204391
-0.205147
-0.206399
-0.20792
-0.211062
-0.21709
-0.224976
-0.23236
-0.236429
-0.234633
-0.225696
-0.209233
-0.186021
-0.157486
-0.126129
-0.0949082
-0.066533
-0.0427567
-0.0246046
-0.0125269
-0.0060311
-0.0040447
-0.00522109
-0.00822513
-0.0119116
-0.015443
-0.0183714
-0.0206159
-0.0223222
-0.0235729
-0.0243724
-0.0246981
-0.0243291
-0.0232223
-0.0214024
-0.0189717
-0.0163858
-0.0138954
-0.0115866
-0.00939858
-0.00723135
-0.00507699
-0.00309693
-0.00143549
-0.000188074
-0.198229
-0.200408
-0.202331
-0.205779
-0.211374
-0.219531
-0.228962
-0.23741
-0.242322
-0.241356
-0.233289
-0.217669
-0.194628
-0.16579
-0.133683
-0.101522
-0.0724816
-0.0481801
-0.0295662
-0.0169774
-0.0100069
-0.00756369
-0.00830068
-0.0109112
-0.0142314
-0.017363
-0.0198111
-0.0215835
-0.022827
-0.0237898
-0.0246816
-0.0252701
-0.0250428
-0.0235018
-0.020781
-0.0176895
-0.0148386
-0.0126565
-0.0109922
-0.00934613
-0.00746577
-0.00536879
-0.00331216
-0.00158253
-0.000263674
-0.207152
-0.205562
-0.205541
-0.207539
-0.213404
-0.222767
-0.233231
-0.24239
-0.248038
-0.247125
-0.238979
-0.223268
-0.200547
-0.172357
-0.141095
-0.110021
-0.0819575
-0.0585766
-0.0407536
-0.0288028
-0.0222099
-0.0198175
-0.0201706
-0.0219622
-0.024148
-0.025993
-0.0272068
-0.02773
-0.0276035
-0.0270966
-0.0262824
-0.0250468
-0.0232949
-0.0210839
-0.0185696
-0.0159043
-0.0135416
-0.0115044
-0.00975028
-0.00810027
-0.00638547
-0.00455986
-0.00281912
-0.00136555
-0.000310094
-0.19435
-0.196519
-0.19804
-0.201679
-0.208391
-0.218045
-0.228492
-0.237589
-0.243084
-0.243124
-0.236115
-0.221582
-0.200445
-0.17473
-0.146631
-0.119044
-0.0944323
-0.0741735
-0.0592382
-0.0498158
-0.044862
-0.0429086
-0.0425935
-0.0428082
-0.0426485
-0.0417629
-0.0402047
-0.0379709
-0.0350113
-0.031664
-0.0283947
-0.0253612
-0.0225203
-0.0196452
-0.0165702
-0.0135309
-0.0107932
-0.00860662
-0.006928
-0.00549147
-0.00411802
-0.00275925
-0.00157952
-0.000667256
-0.000198231
-0.230209
-0.208606
-0.205175
-0.204242
-0.207868
-0.215986
-0.225192
-0.232389
-0.235952
-0.234369
-0.226752
-0.212827
-0.193882
-0.171907
-0.14882
-0.126645
-0.107398
-0.0926263
-0.0830689
-0.0782022
-0.0762806
-0.0753374
-0.0741083
-0.0719026
-0.0682428
-0.0632967
-0.0577115
-0.0514548
-0.04484
-0.0383353
-0.0323079
-0.0267676
-0.0216453
-0.0170785
-0.0133209
-0.0103753
-0.00808233
-0.00616293
-0.00441755
-0.00276911
-0.00136061
-0.000287123
0.000317324
0.000496678
0.000185047
)
;

boundaryField
{
    inlet
    {
        type            zeroGradient;
    }
    outlet
    {
        type            fixedValue;
        value           uniform 0;
    }
    upperWall
    {
        type            zeroGradient;
    }
    lowerWall
    {
        type            zeroGradient;
    }
    frontAndBack
    {
        type            empty;
    }
}


// ************************************************************************* //
