/*--------------------------------*- C++ -*----------------------------------*\
  =========                 |
  \\      /  F ield         | OpenFOAM: The Open Source CFD Toolbox
   \\    /   O peration     | Website:  https://openfoam.org
    \\  /    A nd           | Version:  10
     \\/     M anipulation  |
\*---------------------------------------------------------------------------*/
FoamFile
{
    format      ascii;
    class       surfaceScalarField;
    location    "7";
    object      phi;
}
// * * * * * * * * * * * * * * * * * * * * * * * * * * * * * * * * * * * * * //

dimensions      [0 3 -1 0 0 0 0];

internalField   nonuniform List<scalar> 
890
(
0.00984589
0.000154114
0.0097177
0.000128188
0.00946997
0.000247733
0.00942037
4.95992e-05
0.000144999
0.00927537
0.0101192
3.49623e-05
0.010202
4.53175e-05
0.0104078
4.1909e-05
0.0104651
-7.60786e-06
-6.99547e-05
0.01068
0.0100718
-3.68077e-05
0.0102156
-9.85477e-05
0.0103778
-0.000120278
0.0105215
-0.000151236
-0.000190249
0.0106417
0.0100914
-0.000128222
0.0102129
-0.000220029
0.0103304
-0.000237737
0.0104173
-0.000238164
-0.000251666
0.0104787
0.00987178
0.00965175
0.00941401
0.00917585
0.00892418
0.00926468
-0.000107978
0.000118661
0.00929105
-0.000269616
0.000243251
0.00936964
-0.000381839
0.000303252
0.00949249
-0.000483174
0.000360318
0.0096511
-0.000591244
0.00043264
0.00984177
-0.00074534
0.000554669
0.010043
-0.000934931
0.000733656
0.0102502
-0.00116497
0.000957849
0.0104462
-0.00142973
0.00123368
0.0106147
-0.00170989
0.00154137
0.0107439
-0.00199118
0.001862
0.0108184
-0.00224478
0.00217026
0.0108333
-0.00243957
0.00242467
0.0107726
-0.00254954
0.00261026
0.0106134
-0.00254118
0.00270037
0.0103751
-0.00244613
0.00268446
0.0101144
-0.00233685
0.00259751
0.00983737
-0.00215413
0.00243121
0.00954044
-0.0018898
0.00218672
0.00923955
-0.00158357
0.00188446
0.00894518
-0.00124524
0.00153961
0.00865907
-0.000883378
0.00116949
0.00840523
-0.000546991
0.000800826
0.0081937
-0.000246678
0.000458213
0.00801934
1.58246e-05
0.000158533
0.00787601
0.000244109
-0.000100782
0.00776922
0.000421588
-0.000314796
0.00769659
0.000550618
-0.000477991
0.00765214
0.000640317
-0.000595866
0.00761784
0.00070668
-0.000672383
0.00757811
0.000755689
-0.000715951
0.00752542
0.000783419
-0.000730737
0.00745913
0.000777341
-0.000711047
0.00738154
0.000730535
-0.000652945
0.00729293
0.000659893
-0.000571286
0.00719542
0.000595094
-0.000497579
0.00709609
0.00055907
-0.00045974
0.00700227
0.000548781
-0.000454961
0.00691741
0.000543716
-0.00045886
0.00683898
0.000525714
-0.000447282
0.00676651
0.000474904
-0.000402438
0.00669767
0.000414319
-0.000345471
0.00664034
0.000316059
-0.00025873
0.00658875
0.000260275
-0.000208691
0.000149544
-0.000118011
0.0107421
-0.000170047
0.0107671
-0.00029463
0.0107955
-0.000410252
0.0108373
-0.000525008
0.0108847
-0.000638624
0.0109176
-0.000778256
0.0109265
-0.000943777
0.0109107
-0.0011492
0.0108571
-0.00137608
0.0107633
-0.00161612
0.0106124
-0.00184027
0.0104084
-0.00204078
0.0101504
-0.00218162
0.00980752
-0.00220664
0.00936585
-0.00209951
0.00888344
-0.00196372
0.00837993
-0.00183333
0.00787753
-0.00165173
0.00739004
-0.00140231
0.0069347
-0.00112824
0.00651847
-0.000829009
0.00615044
-0.000515342
0.00584313
-0.000239679
0.00559321
3.23841e-06
0.00541598
0.000193059
0.00530538
0.000354703
0.00525203
0.000474943
0.00524046
0.000562182
0.00525163
0.000629153
0.00527507
0.000683234
0.0053091
0.000721661
0.00535778
0.000734741
0.00542058
0.000714537
0.00548767
0.000663446
0.00554764
0.000599924
0.00559802
0.000544711
0.00564602
0.000511071
0.00570208
0.000492727
0.00576994
0.00047585
0.00585073
0.000444927
0.0059345
0.000391136
0.00602204
0.00032678
0.00609689
0.000241211
0.00617082
0.00018634
9.7416e-05
0.010727
-0.000255293
0.0107689
-0.000336538
0.0107868
-0.000428112
0.0107833
-0.000521597
0.0107622
-0.000617507
0.0107105
-0.000726531
0.0106249
-0.000858125
0.0104952
-0.00101956
0.0103174
-0.00119824
0.0101042
-0.001403
0.0098497
-0.00158571
0.00955697
-0.00174805
0.00912481
-0.00174946
0.008527
-0.00160883
0.00788982
-0.00146233
0.00723831
-0.00131222
0.00648033
-0.00107536
0.00569544
-0.000866842
0.00498407
-0.000690928
0.00435263
-0.000496804
0.00381893
-0.000295305
0.00340559
-0.000102
0.00309582
7.00832e-05
0.00288337
0.000215691
0.00274991
0.000326516
0.00270188
0.000402737
0.0027225
0.000454321
0.00279831
0.000486371
0.00292078
0.00050669
0.00308445
0.00051956
0.00328286
0.00052325
0.00350459
0.000513012
0.00373368
0.000485442
0.0039535
0.000443626
0.00415471
0.000398722
0.00433921
0.000360212
0.00451729
0.000332983
0.00469889
0.00031113
0.00488683
0.00028791
0.0050778
0.000253954
0.00525859
0.00021035
0.00542545
0.000159917
0.00555819
0.000108472
0.00567388
7.06511e-05
2.79437e-05
0.0105072
-0.000283762
0.0104909
-0.000320231
0.0104321
-0.000369311
0.0103217
-0.000411259
0.0101712
-0.000467015
0.00996102
-0.000516315
0.00969692
-0.000594032
0.0093462
-0.000668833
0.00892681
-0.000778851
0.00841033
-0.000886517
0.00783158
-0.00100696
0.00723814
-0.00115461
0.00648715
-0.000998476
0.00548795
-0.000609623
0.00428258
-0.000256961
0.00301635
-4.59797e-05
0.00191628
2.47102e-05
0.00110118
-5.17487e-05
0.000567868
-0.000157611
0.000271898
-0.000200834
0.00012765
-0.000151057
8.51601e-05
-5.95093e-05
0.000123316
3.19269e-05
0.000234655
0.000104352
0.000402566
0.000158605
0.000612114
0.000193188
0.000854271
0.000212164
0.00111936
0.000221286
0.00140116
0.000224887
0.00169503
0.000225687
0.0019959
0.000222386
0.00229558
0.00021333
0.00258318
0.000197844
0.00284935
0.000177452
0.00309197
0.000156102
0.00331536
0.000136818
0.00352721
0.000121137
0.00373133
0.00010701
0.00392665
9.25895e-05
0.00410533
7.52721e-05
0.00425886
5.68269e-05
0.00438115
3.76244e-05
0.00446751
2.21083e-05
0.00452842
9.74684e-06
3.2094e-07
0.00864042
0.00832019
0.00795088
0.00753962
0.0070726
0.00655629
0.00596226
0.00529342
0.00451457
0.00362805
0.00262109
0.00146648
0.000468001
-0.000141622
-0.000398584
-0.000444563
-0.000419853
-0.000471602
-0.000629213
-0.000830046
-0.000981103
-0.00104061
-0.00100869
-0.000904333
-0.000745728
-0.00055254
-0.000340376
-0.00011909
0.000105798
0.000331485
0.000553871
0.0007672
0.000965045
0.0011425
0.0012986
0.00143542
0.00155655
0.00166356
0.00175615
0.00183142
0.00188825
0.00192588
0.00194798
0.00195773
5.50922e-05
-5.50922e-05
1.44602e-05
4.0632e-05
-0.000195176
0.000209637
-0.000633395
0.000438219
-0.00121549
0.000582095
-0.00181763
0.000602136
-0.00235419
0.00053656
-0.00279008
0.000435893
-0.00309946
0.000309386
-0.0032664
0.000166939
-0.00327317
6.76871e-06
-0.00313464
-0.000138532
-0.00285321
-0.000281427
-0.00244149
-0.000411728
-0.00192635
-0.000515139
-0.00134238
-0.000583964
-0.000724158
-0.000618224
-9.73549e-05
-0.000626804
0.000509775
-0.00060713
0.00106617
-0.00055639
0.00154797
-0.000481801
0.0019386
-0.000390632
0.00223046
-0.000291863
0.00242511
-0.000194647
0.00253123
-0.000106123
0.00256262
-3.13882e-05
0.00253342
2.92007e-05
0.00244983
8.35924e-05
0.00231825
0.000131573
0.00215523
0.000163022
0.00198015
0.000175082
0.00181671
0.000163434
0.00168144
0.000135271
0.00158158
9.98606e-05
0.00151949
6.20968e-05
0.00148908
3.04078e-05
0.00148133
7.74939e-06
0.00149116
-9.8299e-06
0.00151312
-2.19613e-05
0.00154725
-3.41319e-05
0.00159024
-4.2991e-05
0.00164053
-5.0286e-05
0.00168862
-4.80942e-05
0.00173626
-4.76318e-05
-3.28215e-05
-0.0001571
0.000102008
-0.000552417
0.000435949
-0.00100692
0.000664141
-0.00141531
0.000846602
-0.00174427
0.000911057
-0.00199664
0.000854505
-0.00216651
0.00070643
-0.00224384
0.000513228
-0.00221732
0.000282866
-0.00207224
2.18515e-05
-0.00182754
-0.000237928
-0.00145564
-0.000510428
-0.000968511
-0.000768558
-0.000381838
-0.000998402
0.00027736
-0.00117434
0.000977913
-0.00128452
0.00169382
-0.00133413
0.00239996
-0.00133295
0.00306636
-0.00127352
0.00367228
-0.00116231
0.00419901
-0.00100852
0.00463342
-0.000825047
0.00496899
-0.000627434
0.00520746
-0.000433115
0.00535604
-0.000254702
0.00542433
-9.96737e-05
0.00542237
3.11563e-05
0.00536868
0.000137285
0.00529256
0.000207688
0.00520906
0.000246527
0.00512324
0.000260902
0.0050274
0.000259276
0.00492369
0.000238978
0.00481814
0.000205407
0.00470677
0.000173474
0.00458448
0.000152691
0.00445509
0.000137139
0.00433122
0.000114039
0.00423222
7.7038e-05
0.00417422
2.38738e-05
0.00415609
-2.48602e-05
0.00417537
-6.9566e-05
0.00421112
-8.38508e-05
0.0042615
-9.80062e-05
-7.43171e-05
-0.000502153
0.000604161
-0.000672445
0.000606241
-0.000689294
0.00068099
-0.00060782
0.000765129
-0.000467411
0.000770648
-0.000290042
0.000677136
-8.16693e-05
0.000498058
0.000169395
0.000262164
0.000473447
-2.11859e-05
0.000850097
-0.000354799
0.00130939
-0.000697216
0.00183592
-0.00103696
0.00241573
-0.00134837
0.00303854
-0.00162121
0.00368613
-0.00182193
0.00433665
-0.00193503
0.00496898
-0.00196646
0.00556051
-0.00192448
0.00609801
-0.00181103
0.00656691
-0.00163121
0.0069548
-0.00139642
0.0072562
-0.00112644
0.0074733
-0.000844528
0.00760844
-0.000568258
0.00767013
-0.000316391
0.00767133
-0.000100874
0.0076202
8.22885e-05
0.00753002
0.000227463
0.00741476
0.000322942
0.00728476
0.000376531
0.00713932
0.000406343
0.00698438
0.000414216
0.00683506
0.000388301
0.00670988
0.00033058
0.00661707
0.000266288
0.00654314
0.00022662
0.00645682
0.00022346
0.00634128
0.000229577
0.00619873
0.000219589
0.00605099
0.000171616
0.00592016
0.000105968
0.00582205
2.85426e-05
0.00575959
-2.1391e-05
0.00572419
-6.26045e-05
-6.37696e-05
-0.000217218
0.000821379
-8.63011e-05
0.000475324
0.000195052
0.000399637
0.000607899
0.000352282
0.00109831
0.000280239
0.00162391
0.000151534
0.00216626
-4.42914e-05
0.00271165
-0.000283225
0.00327696
-0.000586494
0.00385026
-0.000928101
0.00443957
-0.00128653
0.00504408
-0.00164146
0.00565047
-0.00195476
0.00624118
-0.00221191
0.0068061
-0.00238686
0.00732704
-0.00245597
0.00779352
-0.00243294
0.00819913
-0.00233009
0.00853745
-0.00214935
0.00880683
-0.00190059
0.0090056
-0.00159519
0.0091346
-0.00125544
0.00919981
-0.000909738
0.00920904
-0.00057749
0.00917282
-0.000280169
0.0091035
-3.15567e-05
0.00899853
0.000187262
0.00887278
0.000353208
0.00872723
0.000468497
0.00856595
0.00053781
0.00839975
0.000572539
0.00823468
0.000579282
0.00806601
0.000556977
0.00789715
0.000499439
0.00774069
0.00042275
0.007608
0.00035931
0.00749735
0.000334106
0.00739106
0.000335871
0.00727165
0.000339
0.00712898
0.000314286
0.00697396
0.000260987
0.00681282
0.000189683
0.00667386
0.000117563
0.0065446
6.66632e-05
1.98014e-05
0.00094004
0.00165862
0.0023615
0.0030741
0.00378698
0.00449319
0.00518255
0.00585718
0.00650436
0.00711762
0.00769309
0.00822189
0.00869179
0.00909013
0.00940365
0.00963214
0.00979671
0.00989783
0.0099352
0.00991908
0.00986349
0.00977754
0.00966863
0.00954935
0.00942772
0.00929538
0.00916784
0.00904306
0.00891569
0.00878112
0.00863771
0.00848625
0.00833218
0.00817868
0.00803014
0.00789187
0.00776624
0.00764715
0.00752729
0.00739429
0.00725284
0.00709705
0.00695589
0.00681386
)
;

boundaryField
{
    inlet
    {
        type            calculated;
        value           nonuniform List<scalar> 5(-0.01 -0.01 -0.01 -0.01 -0.01);
    }
    outlet
    {
        type            calculated;
        value           nonuniform List<scalar> 10(0.00655722 0.00622295 0.00574335 0.00455604 0.00195805 0.00176908 0.00430299 0.00571364 0.00646103 0.00671565);
    }
    upperWall
    {
        type            calculated;
        value           uniform 0;
    }
    lowerWall
    {
        type            calculated;
        value           uniform 0;
    }
    frontAndBack
    {
        type            empty;
        value           nonuniform List<scalar> 0();
    }
}


// ************************************************************************* //
