/*--------------------------------*- C++ -*----------------------------------*\
  =========                 |
  \\      /  F ield         | OpenFOAM: The Open Source CFD Toolbox
   \\    /   O peration     | Website:  https://openfoam.org
    \\  /    A nd           | Version:  10
     \\/     M anipulation  |
\*---------------------------------------------------------------------------*/
FoamFile
{
    format      ascii;
    class       volVectorField;
    location    "7";
    object      U;
}
// * * * * * * * * * * * * * * * * * * * * * * * * * * * * * * * * * * * * * //

dimensions      [0 1 -1 0 0 0 0];

internalField   nonuniform List<vector> 
475
(
(0.974203 0.0161267 0)
(0.975921 0.00633591 0)
(0.950184 0.0314836 0)
(0.954855 0.000940848 0)
(0.920079 0.030049 0)
(0.998502 0.0087331 0)
(1.01399 0.0147437 0)
(1.02546 0.0149659 0)
(1.04372 0.00862303 0)
(1.05564 0.00167328 0)
(1.00007 0.000402913 0)
(1.00958 -0.00326204 0)
(1.02442 -0.0047921 0)
(1.04113 -0.00947244 0)
(1.05644 -0.0144526 0)
(1.00045 -0.0100161 0)
(1.00966 -0.0196459 0)
(1.02342 -0.0220693 0)
(1.03467 -0.0232834 0)
(1.045 -0.025579 0)
(0.981081 -0.00986364 0)
(0.968614 -0.0188748 0)
(0.954161 -0.022012 0)
(0.932382 -0.0222484 0)
(0.908353 -0.0229427 0)
(0.925739 -0.0170464 0)
(0.933185 -0.0359616 0)
(0.937588 -0.0475023 0)
(0.944276 -0.0562267 0)
(0.954442 -0.0648316 0)
(0.969787 -0.0764009 0)
(0.99004 -0.0932351 0)
(1.01232 -0.114456 0)
(1.0348 -0.139994 0)
(1.05503 -0.167962 0)
(1.07221 -0.196532 0)
(1.08307 -0.223309 0)
(1.0874 -0.244938 0)
(1.08426 -0.260189 0)
(1.07292 -0.266094 0)
(1.05423 -0.262516 0)
(1.02729 -0.25183 0)
(0.995984 -0.234485 0)
(0.964807 -0.209781 0)
(0.93475 -0.179549 0)
(0.906659 -0.145216 0)
(0.880155 -0.10832 0)
(0.854263 -0.0713475 0)
(0.830745 -0.0370551 0)
(0.810999 -0.0072 0)
(0.794899 0.0177539 0)
(0.781977 0.0379312 0)
(0.772728 0.0536828 0)
(0.767098 0.06497 0)
(0.763619 0.0719456 0)
(0.760243 0.0757506 0)
(0.755545 0.0772242 0)
(0.749233 0.0758447 0)
(0.741702 0.0707081 0)
(0.733387 0.0632384 0)
(0.724254 0.0565208 0)
(0.714467 0.0530409 0)
(0.704854 0.0525926 0)
(0.695715 0.0528673 0)
(0.687758 0.0519564 0)
(0.679717 0.0474835 0)
(0.673234 0.0420707 0)
(0.66587 0.0324962 0)
(0.661905 0.0273012 0)
(0.655712 0.016144 0)
(1.06828 -0.00919271 0)
(1.07779 -0.0220669 0)
(1.08252 -0.0332155 0)
(1.08484 -0.0442311 0)
(1.0862 -0.0557617 0)
(1.08834 -0.070292 0)
(1.09045 -0.0885463 0)
(1.09137 -0.111175 0)
(1.08974 -0.137254 0)
(1.08361 -0.164685 0)
(1.07269 -0.192253 0)
(1.05442 -0.216233 0)
(1.03052 -0.233181 0)
(0.99904 -0.24036 0)
(0.961595 -0.236957 0)
(0.917013 -0.228219 0)
(0.864827 -0.214679 0)
(0.810368 -0.193423 0)
(0.759076 -0.165256 0)
(0.71171 -0.134489 0)
(0.669246 -0.101934 0)
(0.632559 -0.0691777 0)
(0.600523 -0.039821 0)
(0.572514 -0.0139975 0)
(0.55009 0.00982317 0)
(0.535344 0.0295153 0)
(0.527231 0.0442282 0)
(0.524198 0.0548708 0)
(0.524457 0.0633179 0)
(0.526292 0.0707722 0)
(0.529007 0.0770588 0)
(0.53281 0.0806178 0)
(0.538199 0.079977 0)
(0.544763 0.0751967 0)
(0.551414 0.0684214 0)
(0.557117 0.0622849 0)
(0.562089 0.058607 0)
(0.567149 0.0569313 0)
(0.573313 0.0555616 0)
(0.580569 0.0528561 0)
(0.589182 0.047244 0)
(0.597253 0.0406808 0)
(0.606753 0.0307774 0)
(0.612205 0.0248991 0)
(0.622276 0.0138685 0)
(1.06845 -0.0225306 0)
(1.07635 -0.0331436 0)
(1.0806 -0.0440713 0)
(1.08088 -0.0556314 0)
(1.07906 -0.0667869 0)
(1.07423 -0.0801904 0)
(1.06794 -0.0952205 0)
(1.05748 -0.114043 0)
(1.0443 -0.134359 0)
(1.02451 -0.157411 0)
(1.00056 -0.179172 0)
(0.969352 -0.197411 0)
(0.9323 -0.20704 0)
(0.885432 -0.200086 0)
(0.829898 -0.183083 0)
(0.758696 -0.172037 0)
(0.682405 -0.163543 0)
(0.607308 -0.148452 0)
(0.530695 -0.122868 0)
(0.461882 -0.0919937 0)
(0.405026 -0.0597811 0)
(0.359234 -0.0293715 0)
(0.324183 -0.00454622 0)
(0.29845 0.0151878 0)
(0.280793 0.0318247 0)
(0.271414 0.0450269 0)
(0.270076 0.0544994 0)
(0.275047 0.0609473 0)
(0.285099 0.0652854 0)
(0.2995 0.0680083 0)
(0.317679 0.068908 0)
(0.338778 0.067494 0)
(0.361506 0.0636974 0)
(0.384161 0.0581656 0)
(0.405382 0.0523795 0)
(0.424682 0.0476469 0)
(0.442736 0.0446642 0)
(0.460608 0.0425908 0)
(0.479091 0.0404073 0)
(0.498063 0.036732 0)
(0.517067 0.031434 0)
(0.534181 0.0250258 0)
(0.550465 0.0177042 0)
(0.56079 0.012504 0)
(0.574314 0.00561344 0)
(1.04954 -0.0305512 0)
(1.05137 -0.0362222 0)
(1.0474 -0.043233 0)
(1.03967 -0.0499484 0)
(1.02694 -0.0573552 0)
(1.00861 -0.0654516 0)
(0.986581 -0.0750741 0)
(0.955406 -0.0870099 0)
(0.920659 -0.100384 0)
(0.871646 -0.116658 0)
(0.819649 -0.130776 0)
(0.751575 -0.145869 0)
(0.677317 -0.149994 0)
(0.601679 -0.132587 0)
(0.508036 -0.107937 0)
(0.368238 -0.0762966 0)
(0.23453 -0.0358112 0)
(0.140267 -0.0124475 0)
(0.0745543 -0.00823873 0)
(0.0369054 -0.00729681 0)
(0.0174443 -0.00180755 0)
(0.00868868 0.00728638 0)
(0.0088111 0.0169793 0)
(0.0168435 0.0257178 0)
(0.0312931 0.0320103 0)
(0.0503434 0.0359437 0)
(0.0729367 0.0377651 0)
(0.0982878 0.0383076 0)
(0.125703 0.0382763 0)
(0.154585 0.0380085 0)
(0.184417 0.0372769 0)
(0.214536 0.0357394 0)
(0.244004 0.0332851 0)
(0.271754 0.0301382 0)
(0.297212 0.0268577 0)
(0.320469 0.0239091 0)
(0.342202 0.0215018 0)
(0.36302 0.0192546 0)
(0.383065 0.0168368 0)
(0.401968 0.013776 0)
(0.418656 0.0104262 0)
(0.432668 0.00685145 0)
(0.443058 0.00393879 0)
(0.450191 0.00165553 0)
(0.455585 -1.41029e-05 0)
(0.878583 -0.0244193 0)
(0.849252 -0.0259821 0)
(0.813295 -0.0287936 0)
(0.776686 -0.0302812 0)
(0.731878 -0.0339167 0)
(0.684678 -0.0354863 0)
(0.629098 -0.0412385 0)
(0.566771 -0.0441497 0)
(0.497288 -0.052911 0)
(0.410591 -0.0582562 0)
(0.323532 -0.0669508 0)
(0.201497 -0.0808091 0)
(0.0831281 -0.0434184 0)
(0.0056054 0.0163537 0)
(-0.0321375 0.0538418 0)
(-0.043682 0.0641125 0)
(-0.0422228 0.0384003 0)
(-0.0425416 -0.000546829 0)
(-0.0542341 -0.0241786 0)
(-0.0746969 -0.0296826 0)
(-0.0929012 -0.0250789 0)
(-0.102843 -0.0171116 0)
(-0.103689 -0.00904505 0)
(-0.09637 -0.00243588 0)
(-0.0828302 0.00215856 0)
(-0.0650259 0.00491558 0)
(-0.0446829 0.006534 0)
(-0.0230111 0.0073824 0)
(-0.000630404 0.00772557 0)
(0.0220006 0.00781139 0)
(0.0444368 0.00764403 0)
(0.0662479 0.0071897 0)
(0.0868261 0.00642513 0)
(0.105591 0.00541878 0)
(0.122271 0.00434618 0)
(0.13692 0.00336488 0)
(0.149847 0.00256356 0)
(0.161275 0.00192074 0)
(0.17129 0.00140506 0)
(0.179677 0.000974443 0)
(0.186265 0.000639852 0)
(0.19095 0.00040109 0)
(0.193811 0.0002702 0)
(0.195498 0.000159529 0)
(0.195794 6.41189e-05 0)
(0.00431845 -0.028716 0)
(0.00645526 -0.0286747 0)
(-0.00368828 -0.0138838 0)
(-0.0342238 0.0131035 0)
(-0.090755 0.0319201 0)
(-0.154656 0.0363518 0)
(-0.213039 0.0341753 0)
(-0.262826 0.0295893 0)
(-0.299955 0.0235798 0)
(-0.322652 0.0166632 0)
(-0.329741 0.00908173 0)
(-0.322388 0.000357801 0)
(-0.300537 -0.0081306 0)
(-0.265084 -0.0158433 0)
(-0.218175 -0.0219 0)
(-0.162919 -0.0256175 0)
(-0.102876 -0.0274371 0)
(-0.040497 -0.0274081 0)
(0.0212949 -0.0259 0)
(0.0795384 -0.0230896 0)
(0.131564 -0.0191933 0)
(0.175322 -0.0146032 0)
(0.209582 -0.00979751 0)
(0.234021 -0.00520621 0)
(0.249311 -0.00121713 0)
(0.256314 0.00168771 0)
(0.256507 0.0043119 0)
(0.250633 0.008294 0)
(0.239333 0.0130643 0)
(0.223927 0.0161912 0)
(0.206385 0.0156244 0)
(0.189169 0.0115382 0)
(0.174197 0.00547077 0)
(0.162544 -0.000349334 0)
(0.154592 -0.0041115 0)
(0.150078 -0.00548369 0)
(0.14821 -0.00507527 0)
(0.148382 -0.00380358 0)
(0.149994 -0.00265517 0)
(0.152888 -0.00203981 0)
(0.156789 -0.0018105 0)
(0.161512 -0.00176225 0)
(0.166597 -0.00159678 0)
(0.170999 -0.0014282 0)
(0.176886 -0.000901803 0)
(-0.00315452 0.0200905 0)
(-0.0295846 0.0385104 0)
(-0.0788618 0.0591849 0)
(-0.120909 0.0779876 0)
(-0.161119 0.0856881 0)
(-0.190971 0.0818768 0)
(-0.212672 0.0701148 0)
(-0.225314 0.0543943 0)
(-0.227757 0.0353467 0)
(-0.218186 0.0142613 0)
(-0.197798 -0.00826116 0)
(-0.16578 -0.0308357 0)
(-0.122269 -0.0520617 0)
(-0.0682315 -0.0709062 0)
(-0.00584118 -0.0853715 0)
(0.0633746 -0.0946304 0)
(0.134691 -0.0986183 0)
(0.205699 -0.0981577 0)
(0.273758 -0.0936903 0)
(0.337078 -0.0855296 0)
(0.393696 -0.0741571 0)
(0.441935 -0.0605038 0)
(0.480749 -0.0458343 0)
(0.509772 -0.0314776 0)
(0.529807 -0.0183917 0)
(0.541047 -0.00711626 0)
(0.544131 0.00233348 0)
(0.54056 0.00972494 0)
(0.533071 0.0147796 0)
(0.524448 0.0178223 0)
(0.516189 0.0193507 0)
(0.507926 0.0200094 0)
(0.498386 0.0201566 0)
(0.487972 0.0192036 0)
(0.477011 0.0164158 0)
(0.465019 0.0119317 0)
(0.4519 0.00688284 0)
(0.438834 0.002082 0)
(0.427406 -0.00191845 0)
(0.419452 -0.00524047 0)
(0.415847 -0.00735499 0)
(0.415742 -0.00885292 0)
(0.419459 -0.00844453 0)
(0.422495 -0.00837817 0)
(0.43028 -0.00569995 0)
(-0.0334226 -0.00398106 0)
(-0.0643839 0.0415851 0)
(-0.0689174 0.0661499 0)
(-0.0666442 0.0846521 0)
(-0.0560154 0.0904963 0)
(-0.0397122 0.0831647 0)
(-0.0200387 0.065662 0)
(0.00280929 0.0434244 0)
(0.0295063 0.017498 0)
(0.0639528 -0.0108248 0)
(0.10638 -0.0420513 0)
(0.157333 -0.0744613 0)
(0.213272 -0.104994 0)
(0.274785 -0.131954 0)
(0.339063 -0.152343 0)
(0.404005 -0.164669 0)
(0.467415 -0.169318 0)
(0.527685 -0.167232 0)
(0.58322 -0.158688 0)
(0.632972 -0.144049 0)
(0.675692 -0.124643 0)
(0.710341 -0.10197 0)
(0.736645 -0.0776088 0)
(0.754899 -0.053675 0)
(0.765154 -0.0318461 0)
(0.768323 -0.0128865 0)
(0.766003 0.00360916 0)
(0.758798 0.0168387 0)
(0.747692 0.0254555 0)
(0.735002 0.0302664 0)
(0.721468 0.0331683 0)
(0.706473 0.0333386 0)
(0.690857 0.0296423 0)
(0.676714 0.0236993 0)
(0.665709 0.019093 0)
(0.657979 0.0179697 0)
(0.650698 0.0194755 0)
(0.640841 0.0198204 0)
(0.627556 0.0168885 0)
(0.612483 0.0099653 0)
(0.598018 0.0023953 0)
(0.586281 -0.00516954 0)
(0.578199 -0.00851554 0)
(0.573488 -0.011447 0)
(0.571353 -0.00928163 0)
(-0.0267809 0.1391 0)
(-0.0182945 0.0897829 0)
(0.00207531 0.079087 0)
(0.0378838 0.0759343 0)
(0.082847 0.0700487 0)
(0.133512 0.058056 0)
(0.187521 0.0388972 0)
(0.241365 0.0124226 0)
(0.296766 -0.0207659 0)
(0.355038 -0.0572147 0)
(0.415163 -0.0949029 0)
(0.476643 -0.132123 0)
(0.5381 -0.166003 0)
(0.598817 -0.194643 0)
(0.656922 -0.215222 0)
(0.710697 -0.226209 0)
(0.758961 -0.228192 0)
(0.800736 -0.221573 0)
(0.836418 -0.20705 0)
(0.866281 -0.185338 0)
(0.889799 -0.157332 0)
(0.906524 -0.125671 0)
(0.916653 -0.0934357 0)
(0.921222 -0.0618225 0)
(0.92038 -0.0327427 0)
(0.914757 -0.00799003 0)
(0.906025 0.0122463 0)
(0.894858 0.0282624 0)
(0.880886 0.0395991 0)
(0.864725 0.0459042 0)
(0.847941 0.0484211 0)
(0.831611 0.0486861 0)
(0.815244 0.0464118 0)
(0.798272 0.0407518 0)
(0.78155 0.0335507 0)
(0.766837 0.0280625 0)
(0.754747 0.0266 0)
(0.744547 0.0276306 0)
(0.733501 0.0283206 0)
(0.720908 0.025222 0)
(0.704989 0.0192647 0)
(0.689995 0.0110123 0)
(0.672448 0.00431037 0)
(0.662293 -0.00111285 0)
(0.646101 -0.00357464 0)
(0.084001 0.0019513 0)
(0.117271 -0.00573684 0)
(0.203686 -0.00727837 0)
(0.272906 -0.0113029 0)
(0.340082 -0.0181861 0)
(0.410044 -0.0307755 0)
(0.48164 -0.0494361 0)
(0.549917 -0.0731167 0)
(0.616834 -0.102044 0)
(0.681775 -0.134482 0)
(0.743688 -0.168538 0)
(0.800313 -0.20205 0)
(0.850906 -0.230555 0)
(0.894761 -0.252843 0)
(0.930211 -0.266809 0)
(0.956441 -0.270016 0)
(0.97411 -0.264924 0)
(0.984747 -0.252533 0)
(0.989822 -0.231782 0)
(0.990525 -0.203899 0)
(0.987752 -0.170336 0)
(0.981726 -0.133038 0)
(0.972644 -0.0949434 0)
(0.961785 -0.0587629 0)
(0.949431 -0.0267149 0)
(0.936601 0.000639909 0)
(0.923946 0.0227471 0)
(0.911348 0.0395376 0)
(0.89837 0.0514619 0)
(0.884887 0.0594137 0)
(0.87096 0.064451 0)
(0.856268 0.0669768 0)
(0.840853 0.0660308 0)
(0.825276 0.0604807 0)
(0.809982 0.0518439 0)
(0.795628 0.0437615 0)
(0.78248 0.0396732 0)
(0.770746 0.0392349 0)
(0.758722 0.0397828 0)
(0.746801 0.0383563 0)
(0.731908 0.0337863 0)
(0.718568 0.0276776 0)
(0.700478 0.0197485 0)
(0.69062 0.014758 0)
(0.671563 0.00760206 0)
)
;

boundaryField
{
    inlet
    {
        type            fixedValue;
        value           uniform (1 0 0);
    }
    outlet
    {
        type            zeroGradient;
    }
    upperWall
    {
        type            noSlip;
    }
    lowerWall
    {
        type            noSlip;
    }
    frontAndBack
    {
        type            empty;
    }
}


// ************************************************************************* //
