/*--------------------------------*- C++ -*----------------------------------*\
  =========                 |
  \\      /  F ield         | OpenFOAM: The Open Source CFD Toolbox
   \\    /   O peration     | Website:  https://openfoam.org
    \\  /    A nd           | Version:  10
     \\/     M anipulation  |
\*---------------------------------------------------------------------------*/
FoamFile
{
    format      ascii;
    class       volScalarField;
    location    "1.5";
    object      p;
}
// * * * * * * * * * * * * * * * * * * * * * * * * * * * * * * * * * * * * * //

dimensions      [0 2 -2 0 0 0 0];

internalField   nonuniform List<scalar> 
496
(
24.8337
24.161
21.2746
15.4641
25.751
25.8141
22.058
15.5955
30.9802
29.2977
21.9447
10.8456
39.6255
36.7292
31.7091
16.271
6.32275
-3.72706
5.89932
-3.5874
-4.97606
-11.474
-37.8581
-60.6755
-10.9964
-15.6321
-18.2925
-19.3762
-11.524
-17.1623
-20.0517
-21.5731
-6.26015
-7.9472
-13.8056
-20.2197
-32.3032
-15.7247
-11.5288
-23.3545
-19.9211
-20.2228
-19.318
-16.8691
-14.325
-12.7522
-11.6247
-11.0861
-11.3432
-11.912
-11.7211
-10.9495
-10.7295
-11.2211
-11.9467
-11.9882
-11.4523
-10.5946
-9.86473
-9.25666
-8.57367
-7.90272
-7.22482
-6.77441
-6.36077
-6.03171
-5.70458
-5.27566
-4.87501
-4.23025
-3.58559
-2.76879
-1.995
-1.31111
-0.754941
-0.490796
-0.353954
-0.251339
-0.0763928
0.0161604
-23.4591
-23.6914
-21.211
-17.5348
-14.4315
-12.5
-11.2755
-10.9679
-11.3297
-11.7478
-11.4779
-11.0198
-10.897
-11.2884
-11.9159
-11.9844
-11.5611
-10.7891
-10.0326
-9.26033
-8.41194
-7.6793
-6.90136
-6.56788
-6.1574
-5.98661
-5.62044
-5.21862
-4.82566
-4.18908
-3.5727
-2.75639
-1.98211
-1.14559
-0.46182
-0.211997
0.0267957
0.0822325
0.0340869
0.0831747
-23.7876
-23.9047
-21.1498
-17.6643
-14.9517
-12.3947
-10.6149
-10.0192
-10.3766
-11.0545
-11.375
-11.457
-11.4138
-11.7214
-12.0202
-11.9527
-11.5732
-10.7642
-10.0921
-9.30786
-8.69157
-8.0253
-7.59566
-7.14383
-6.76882
-6.57725
-6.23208
-5.90166
-5.19581
-4.37579
-3.43794
-2.51165
-1.70524
-1.22127
-0.64238
-0.2435
-0.348128
-0.544744
-0.413465
-0.287291
-26.7913
-23.4274
-17.7185
-16.6144
-16.0444
-12.3995
-10.1499
-8.94736
-8.98744
-9.76414
-10.5521
-11.608
-12.2431
-13.0273
-12.9789
-13.059
-12.5056
-11.5401
-10.432
-8.87112
-7.80018
-6.68461
-6.27482
-6.03239
-6.24215
-6.33933
-6.17179
-6.27655
-5.63715
-5.00805
-3.89352
-2.56738
-1.10998
0.331456
0.756715
1.19795
0.38236
-0.0162515
-0.391772
-0.652509
44.4079
44.901
58.3629
70.7592
44.745
46.242
60.1856
72.2179
-27.3252
-37.5139
-35.7978
-28.2012
-27.4054
-53.3391
-33.7591
-20.3283
-23.2838
-26.3626
-23.8496
-16.7767
-16.2436
-12.7617
-10.6333
-9.18193
-8.95321
-9.18728
-9.276
-10.338
-11.1144
-11.7108
-12.2733
-12.5961
-12.4493
-12.0447
-11.2398
-10.1262
-9.10464
-8.05098
-7.28031
-6.8024
-6.41452
-6.17427
-6.02605
-5.73193
-5.1154
-4.52732
-3.66984
-2.7132
-1.88834
-1.12184
-0.529318
-0.57942
-0.387461
-0.218228
-0.489182
-0.515507
-27.7114
-32.504
-21.9821
-16.3549
-19.8883
-13.2751
-10.6764
-9.1327
-8.61853
-8.81958
-8.75806
-9.44876
-9.92587
-10.402
-11.1278
-11.6953
-11.9126
-11.8897
-11.5984
-10.9835
-10.2033
-9.36453
-8.37889
-7.42839
-6.45966
-5.63788
-4.87882
-4.18816
-3.81155
-3.32464
-3.18681
-2.9986
-2.85466
-2.73278
-2.51378
-1.95165
-1.28909
-0.751573
-0.161324
0.140943
39.9669
38.3987
33.8535
20.9801
33.1883
31.4753
23.6785
13.3572
28.1274
28.1745
24.0026
17.2246
27.0604
26.605
23.4799
17.3116
-30.2458
-51.9393
-1.28286
-8.36579
7.98313
-1.59443
8.35128
-1.54668
-24.0625
-20.5369
-26.0108
-26.9448
-5.22365
-9.90476
-18.0883
-21.8838
-9.76658
-16.7385
-21.8167
-24.3539
-9.30507
-14.9664
-18.7026
-20.534
-23.0447
-22.8679
-20.4931
-16.3544
-14.5162
-12.9078
-10.781
-9.16787
-8.244
-8.63307
-8.81683
-8.85938
-9.29953
-9.7653
-10.638
-10.9717
-11.615
-11.8371
-11.852
-11.6923
-10.8679
-10.2513
-8.91327
-7.87703
-6.37514
-5.0058
-4.07115
-2.93907
-2.80177
-2.52534
-2.98974
-3.25747
-3.60954
-3.70752
-3.21206
-2.89405
-1.62451
-0.569093
0.43696
1.06933
-21.5641
-20.1343
-19.0674
-17.4871
-15.5939
-13.3207
-11.1092
-10.277
-10.4215
-10.4645
-9.91796
-9.34636
-9.35449
-9.73631
-10.5132
-11.0429
-11.4333
-11.6929
-11.5754
-11.3004
-10.5632
-9.73566
-8.57991
-7.42243
-6.3495
-5.3513
-4.74454
-4.13219
-3.83628
-3.59132
-3.39958
-3.39341
-3.26673
-3.16725
-2.66101
-2.15956
-1.45551
-0.88255
-0.468795
-0.178615
-23.9302
-21.5339
-18.8309
-17.1708
-15.7476
-13.6889
-11.279
-9.78013
-9.84552
-10.4412
-10.6558
-9.88681
-9.12637
-9.31561
-10.1723
-11.038
-11.2809
-11.1781
-10.9328
-10.6345
-10.1182
-9.26412
-8.36855
-7.29716
-6.41393
-5.55214
-4.80683
-4.26218
-3.68166
-3.41986
-3.03233
-2.87405
-2.55533
-2.28198
-2.1353
-1.93013
-1.82109
-1.46451
-1.00003
-0.341369
-20.5836
-19.2465
-17.2409
-15.7678
-15.1037
-13.911
-11.857
-9.93153
-9.90433
-11.1306
-11.5805
-10.4376
-9.12711
-9.10689
-10.0297
-11.0425
-11.2252
-10.9041
-10.5512
-10.2478
-9.88978
-9.14408
-8.30044
-7.29354
-6.44347
-5.67929
-5.02893
-4.55094
-4.04657
-3.70267
-3.24886
-2.90527
-2.5645
-2.29002
-2.19146
-1.98881
-1.82271
-1.41475
-0.884367
-0.301214
)
;

boundaryField
{
    inlet
    {
        type            zeroGradient;
    }
    outlet
    {
        type            fixedValue;
        value           uniform 0;
    }
    obstacle
    {
        type            zeroGradient;
    }
    upperWall
    {
        type            zeroGradient;
    }
    lowerWall
    {
        type            zeroGradient;
    }
    frontAndBack
    {
        type            empty;
    }
}


// ************************************************************************* //
