/*--------------------------------*- C++ -*----------------------------------*\
  =========                 |
  \\      /  F ield         | OpenFOAM: The Open Source CFD Toolbox
   \\    /   O peration     | Website:  https://openfoam.org
    \\  /    A nd           | Version:  10
     \\/     M anipulation  |
\*---------------------------------------------------------------------------*/
FoamFile
{
    format      ascii;
    class       volScalarField;
    location    "7.875";
    object      p;
}
// * * * * * * * * * * * * * * * * * * * * * * * * * * * * * * * * * * * * * //

dimensions      [0 2 -2 0 0 0 0];

internalField   nonuniform List<scalar> 
496
(
25.2665
24.3083
20.8915
15.3065
26.328
25.9665
21.8639
15.349
31.2613
29.5397
22.7431
12.281
38.2337
36.3981
32.3895
18.725
6.95669
-2.82436
6.22208
-3.21682
-2.90801
-10.341
-30.9167
-53.2175
-11.0343
-16.7278
-19.8594
-21.4819
-11.6639
-17.9581
-22.2353
-24.9125
-8.06246
-11.5762
-17.832
-22.497
-25.1826
-21.887
-26.4748
-25.4167
-22.2754
-22.1875
-21.0294
-19.2137
-17.4064
-16.4495
-15.4704
-13.9399
-12.0437
-11.0167
-11.3486
-11.6316
-11.0724
-9.66735
-9.22501
-9.47035
-9.99211
-10.0425
-9.36701
-8.79972
-8.25496
-8.00805
-7.3332
-6.39909
-5.67148
-5.19997
-5.14136
-4.82401
-4.66538
-4.37639
-4.00905
-3.65888
-3.02747
-2.60417
-1.89661
-1.27637
-0.654049
-0.108307
0.121751
0.120904
-25.7454
-24.5698
-22.1766
-19.7726
-18.1301
-16.8161
-15.4899
-13.9171
-12.2368
-11.3553
-11.2316
-11.058
-10.3448
-9.6236
-9.11026
-9.1915
-9.55317
-9.72474
-9.51176
-9.2047
-8.61728
-8.13343
-7.1318
-6.1906
-5.46144
-4.86305
-5.01998
-4.7969
-4.8429
-4.45227
-4.07222
-3.68231
-3.06398
-2.65931
-1.91163
-1.1548
-0.509425
0.176701
0.375747
0.413089
-24.7086
-23.9637
-22.296
-20.6545
-18.6254
-16.6208
-15.2352
-13.9793
-12.1525
-11.0374
-10.598
-10.6927
-10.6148
-10.4597
-9.93695
-9.40968
-9.81447
-9.99202
-10.2108
-9.69442
-9.19159
-8.20699
-7.08346
-6.22854
-5.29821
-5.23702
-5.06875
-5.4799
-5.68797
-5.53988
-5.32515
-4.16675
-3.25681
-1.97849
-1.10463
-0.444737
0.0524834
0.278205
0.516373
0.132322
-23.238
-23.1981
-23.5008
-21.7822
-18.122
-15.5159
-15.2393
-13.9872
-12.2216
-10.7687
-9.62494
-9.59251
-9.55484
-9.77916
-9.03522
-8.83178
-9.26553
-9.85856
-10.7601
-10.3531
-10.0361
-8.1958
-6.76806
-5.43756
-3.93504
-4.45264
-4.2928
-5.32385
-5.91877
-6.48259
-6.33498
-5.23531
-4.59785
-2.18168
-0.361241
1.58229
2.96055
2.24854
1.80748
0.608022
42.1384
43.963
57.4927
70.3251
41.0458
42.4623
56.2648
68.6724
-27.5441
-46.6936
-34.9025
-25.1654
-29.395
-40.1984
-41.7797
-31.4522
-26.7753
-28.4235
-28.7732
-18.6633
-18.4202
-19.9183
-16.6112
-12.7166
-10.9761
-10.5101
-9.69432
-9.00668
-9.0228
-9.47041
-9.81281
-10.0195
-10.13
-10.31
-10.5287
-10.5233
-10.1329
-9.37322
-8.27264
-7.15113
-6.70811
-6.05584
-5.22616
-5.04506
-5.015
-4.80474
-4.5492
-4.15964
-3.17211
-2.28465
-1.49095
-0.498391
-0.126578
-0.0313075
0.139959
-0.0195774
-26.1083
-26.3819
-21.9994
-21.8995
-19.0592
-16.5882
-14.8418
-12.3666
-9.65333
-8.32492
-8.28972
-8.77095
-9.69246
-10.6544
-11.1756
-11.0928
-10.9173
-10.5572
-10.1456
-9.79388
-9.50321
-9.71355
-9.70262
-9.41123
-9.1934
-8.28172
-6.90196
-5.15952
-3.73346
-2.42367
-1.38982
-1.24124
-0.98178
-1.19087
-1.41782
-2.0829
-2.14297
-2.06145
-1.78739
-0.553962
36.5619
33.3324
28.826
12.3942
28.4979
25.9574
17.547
7.18165
23.2554
23.2334
18.5882
12.0687
22.2616
21.9976
18.1312
11.9023
-41.4721
-64.9077
-8.97958
-14.9512
3.0609
-6.31612
3.66643
-6.0325
-34.5766
-20.8661
-19.1161
-27.6462
-9.78745
-11.5883
-18.0327
-23.5826
-14.6712
-20.8745
-24.4603
-25.6998
-14.0254
-19.2597
-21.4454
-22.159
-28.6026
-25.9162
-19.17
-15.0984
-16.3077
-16.6447
-12.8844
-9.68799
-8.28951
-7.87909
-8.64908
-8.85637
-10.1601
-11.3634
-12.7459
-12.9472
-12.0928
-11.4417
-10.0028
-9.5213
-8.81778
-9.3182
-9.96242
-9.79114
-9.75556
-8.5479
-7.38099
-4.87191
-2.3446
-0.20511
1.61937
1.56172
0.995239
-0.453117
-1.41203
-2.4073
-2.65872
-2.00594
-1.90239
-0.816753
-25.5641
-24.3277
-21.3153
-19.0369
-16.8953
-15.1598
-13.4675
-11.547
-10.1294
-9.58178
-10.1244
-10.2005
-10.5037
-10.8039
-11.0838
-11.6655
-11.1992
-10.7009
-9.7507
-9.319
-9.20925
-9.41482
-9.62063
-9.17719
-8.5631
-7.20659
-5.93643
-4.41531
-2.95977
-1.76412
-0.995453
-0.686544
-0.577695
-1.04176
-1.70621
-1.69052
-2.01479
-1.58672
-0.95485
-0.234168
-24.9358
-23.3517
-21.8197
-19.7732
-17.1369
-14.4533
-12.7648
-11.5437
-10.7062
-10.2061
-10.0964
-10.528
-10.3665
-10.3648
-10.5922
-11.1587
-11.2564
-10.7465
-10.1796
-9.50018
-9.32668
-8.95493
-8.872
-8.31388
-7.58837
-6.88931
-5.7787
-4.78179
-3.46906
-2.27776
-1.48346
-0.726683
-0.430675
-0.175715
-0.35394
-0.591448
-0.723694
-0.73053
-0.574245
-0.41378
-22.1353
-21.3784
-20.3155
-18.858
-17.1
-14.6588
-12.6918
-11.6464
-11.1905
-10.8981
-10.638
-10.644
-10.3279
-10.3253
-10.6685
-11.2183
-11.2837
-10.6516
-10.0298
-9.3992
-9.2555
-8.97779
-8.71078
-8.21803
-7.48488
-6.7991
-5.70572
-4.77952
-3.63103
-2.77617
-1.80928
-1.01896
-0.692838
-0.488374
-0.471423
-0.505317
-0.541846
-0.666907
-0.484525
-0.224397
)
;

boundaryField
{
    inlet
    {
        type            zeroGradient;
    }
    outlet
    {
        type            fixedValue;
        value           uniform 0;
    }
    obstacle
    {
        type            zeroGradient;
    }
    upperWall
    {
        type            zeroGradient;
    }
    lowerWall
    {
        type            zeroGradient;
    }
    frontAndBack
    {
        type            empty;
    }
}


// ************************************************************************* //
