/*--------------------------------*- C++ -*----------------------------------*\
  =========                 |
  \\      /  F ield         | OpenFOAM: The Open Source CFD Toolbox
   \\    /   O peration     | Website:  https://openfoam.org
    \\  /    A nd           | Version:  10
     \\/     M anipulation  |
\*---------------------------------------------------------------------------*/
FoamFile
{
    format      ascii;
    class       surfaceScalarField;
    location    "0.875";
    object      phi;
}
// * * * * * * * * * * * * * * * * * * * * * * * * * * * * * * * * * * * * * //

dimensions      [0 3 -1 0 0 0 0];

internalField   nonuniform List<scalar> 
760
(
-1.18207e-05
1.18207e-05
-2.55518e-05
1.37311e-05
-3.87433e-05
1.31915e-05
-5.09396e-05
1.21963e-05
-6.18343e-05
1.08947e-05
-7.11642e-05
9.32986e-06
-7.87087e-05
7.54457e-06
-8.42918e-05
5.58309e-06
-8.77819e-05
3.49008e-06
-8.9092e-05
1.31011e-06
-8.81799e-05
-9.12109e-07
-8.50495e-05
-3.13044e-06
-7.97526e-05
-5.29691e-06
-7.23919e-05
-7.36071e-06
-6.31238e-05
-9.26803e-06
-5.21608e-05
-1.0963e-05
-3.97709e-05
-1.23899e-05
-2.62794e-05
-1.34915e-05
-1.21782e-05
-1.41012e-05
-1.21782e-05
-1.4318e-05
2.61387e-05
-3.07539e-05
3.01669e-05
-4.65347e-05
2.89724e-05
-6.11166e-05
2.67782e-05
-7.41312e-05
2.39092e-05
-8.52655e-05
2.04642e-05
-9.42598e-05
1.65389e-05
-0.000100908
1.22314e-05
-0.000105058
7.63985e-06
-0.000106609
2.86116e-06
-0.000105513
-2.00834e-06
-0.000101774
-6.86895e-06
-9.54539e-05
-1.16172e-05
-8.66714e-05
-1.61432e-05
-7.56096e-05
-2.03298e-05
-6.25184e-05
-2.40543e-05
-4.77156e-05
-2.71927e-05
-3.15909e-05
-2.96162e-05
-1.47299e-05
-3.09622e-05
-2.69081e-05
-1.51233e-05
4.12621e-05
-3.24816e-05
4.75252e-05
-4.91292e-05
4.562e-05
-6.44942e-05
4.21432e-05
-7.81914e-05
3.76065e-05
-8.98974e-05
3.21702e-05
-9.93471e-05
2.59886e-05
-0.000106333
1.92171e-05
-0.000110701
1.20083e-05
-0.000112352
4.51176e-06
-0.000111232
-3.12776e-06
-0.000107346
-1.07554e-05
-0.000100747
-1.82165e-05
-9.15487e-05
-2.53412e-05
-7.99322e-05
-3.19464e-05
-6.61488e-05
-3.78376e-05
-5.05263e-05
-4.28152e-05
-3.34736e-05
-4.66689e-05
-1.56118e-05
-4.8824e-05
-4.25199e-05
-1.62061e-05
5.74682e-05
-3.48016e-05
6.61207e-05
-5.2611e-05
6.34294e-05
-6.9019e-05
5.85512e-05
-8.36183e-05
5.22058e-05
-9.60743e-05
4.46262e-05
-0.000106119
3.60331e-05
-0.000113546
2.66439e-05
-0.000118205
1.66674e-05
-0.000119996
6.30308e-06
-0.000118865
-4.25873e-06
-0.000114807
-1.48137e-05
-0.000107865
-2.51586e-05
-9.81405e-05
-3.50653e-05
-8.58041e-05
-4.42827e-05
-7.11042e-05
-5.25375e-05
-5.43777e-05
-5.95417e-05
-3.60594e-05
-6.49872e-05
-1.68264e-05
-6.8057e-05
-5.93463e-05
-1.77244e-05
7.51925e-05
-3.80453e-05
8.64416e-05
-5.74669e-05
8.2851e-05
-7.53118e-05
7.6396e-05
-9.11432e-05
6.80372e-05
-0.000104615
5.80978e-05
-0.000115459
4.68774e-05
-0.000123477
3.4662e-05
-0.000128527
2.17169e-05
-0.000130512
8.28858e-06
-0.000129376
-5.395e-06
-0.000125102
-1.90879e-05
-0.000117715
-3.25453e-05
-0.000107295
-4.5485e-05
-9.39921e-05
-5.75861e-05
-7.80427e-05
-6.84869e-05
-5.97913e-05
-7.77932e-05
-3.97065e-05
-8.5072e-05
-1.85456e-05
-8.92179e-05
-7.78919e-05
-1.97434e-05
9.49359e-05
-4.23473e-05
0.000109046
-6.38848e-05
0.000104388
-8.35951e-05
9.61063e-05
-0.000101007
8.54488e-05
-0.000115765
7.28559e-05
-0.000127611
5.87241e-05
-0.000136366
4.34164e-05
-0.000141904
2.72548e-05
-0.00014414
1.05249e-05
-0.000143015
-6.51982e-06
-0.000138497
-2.36062e-05
-0.000130582
-4.04601e-05
-0.000119313
-5.67544e-05
-0.0001048
-7.20989e-05
-8.72545e-05
-8.60323e-05
-6.70182e-05
-9.80294e-05
-4.45981e-05
-0.000107492
-2.08598e-05
-0.000112956
-9.87518e-05
-2.23515e-05
0.000117287
-4.78858e-05
0.00013458
-7.21074e-05
0.00012861
-9.41478e-05
0.000118147
-0.000113498
0.000104799
-0.000129807
8.91644e-05
-0.000142843
7.17602e-05
-0.000152463
5.30368e-05
-0.000158578
3.33696e-05
-0.000161124
1.30708e-05
-0.000160043
-7.60065e-06
-0.00015528
-2.83692e-05
-0.000146789
-4.89514e-05
-0.00013455
-6.89929e-05
-0.000118609
-8.80403e-05
-9.91186e-05
-0.000105522
-7.63982e-05
-0.00012075
-5.09893e-05
-0.000132901
-2.38984e-05
-0.000140047
-0.00012265
-2.56784e-05
0.000142966
-5.49168e-05
0.000163818
-8.24754e-05
0.000156169
-0.00010735
0.000143021
-0.000129
0.000126449
-0.0001471
0.000107264
-0.000161478
8.61387e-05
-0.000172062
6.36203e-05
-0.000178822
4.01297e-05
-0.000181735
1.59838e-05
-0.000180752
-8.58314e-06
-0.000175787
-3.33349e-05
-0.000166729
-5.80091e-05
-0.000153465
-8.2257e-05
-0.000135926
-0.000105579
-0.00011416
-0.000127289
-8.84169e-05
-0.000146493
-5.92552e-05
-0.000162063
-2.7856e-05
-0.000171446
-0.000150506
-2.99179e-05
0.000172884
-6.3813e-05
0.000197713
-9.54698e-05
0.000187825
-0.00012372
0.000171271
-0.000148011
0.000150741
-0.00016809
0.000127343
-0.0001839
0.000101948
-0.000195486
7.52064e-05
-0.000202922
4.75663e-05
-0.000206253
1.93142e-05
-0.000205451
-9.38445e-06
-0.000200389
-3.83971e-05
-0.000190867
-6.75311e-05
-0.000176628
-9.64966e-05
-0.00015742
-0.000124787
-0.000133102
-0.000151607
-0.000103774
-0.000175821
-6.99561e-05
-0.000195881
-3.30337e-05
-0.000208369
-0.00018354
-3.53679e-05
0.000208252
-7.51269e-05
0.000237472
-0.000111778
0.000224477
-0.000143967
0.00020346
-0.000171183
0.000177956
-0.000193327
0.000149488
-0.000210542
0.000119163
-0.000223071
8.77354e-05
-0.00023115
5.56455e-05
-0.000234929
2.30929e-05
-0.000234426
-9.88719e-06
-0.000229467
-4.33563e-05
-0.000219725
-7.72733e-05
-0.000204734
-0.000111487
-0.000183964
-0.000145556
-0.000156949
-0.000178623
-0.000123489
-0.00020928
-8.39479e-05
-0.000235422
-3.99143e-05
-0.000252402
-0.000223454
-4.25049e-05
0.000250756
-8.96982e-05
0.000284666
-0.000132402
0.00026718
-0.000169074
0.000240132
-0.000199365
0.000208247
-0.000223474
0.000173596
-0.000241878
0.000137568
-0.000255131
0.000100988
-0.000263713
6.42273e-05
-0.000267934
2.73135e-05
-0.000267886
-9.93511e-06
-0.000263353
-4.78889e-05
-0.000253848
-8.67784e-05
-0.000238609
-0.000126726
-0.000216687
-0.000167479
-0.000187094
-0.000208216
-0.000149076
-0.000247298
-0.000102574
-0.000281924
-4.93105e-05
-0.000305666
-0.000272765
-5.21276e-05
0.000302884
-0.000108839
0.000341377
-0.00015882
0.000317162
-0.000200411
0.000281724
-0.000233664
0.0002415
-0.000259321
0.000199253
-0.000278397
0.000156643
-0.000291905
0.000114497
-0.000300687
7.30093e-05
-0.000305281
3.19071e-05
-0.000305885
-9.33155e-06
-0.000302259
-5.15149e-05
-0.000293734
-9.53028e-05
-0.000279178
-0.000141282
-0.000257028
-0.000189629
-0.00022548
-0.000239763
-0.000182812
-0.000289967
-0.000128008
-0.000336727
-6.26779e-05
-0.000370996
-0.000335443
-6.5655e-05
0.000368539
-0.000134658
0.000410379
-0.000193264
0.000375768
-0.000239903
0.000328363
-0.000275519
0.000277116
-0.000301776
0.000225511
-0.000320528
0.000175395
-0.000333473
0.000127441
-0.000341922
8.14589e-05
-0.00034672
3.67047e-05
-0.000348204
-7.84752e-06
-0.000346151
-5.35676e-05
-0.00033972
-0.000101734
-0.000327359
-0.000153644
-0.00030674
-0.000210247
-0.000274801
-0.000271702
-0.000228175
-0.000336593
-0.000163887
-0.000401015
-8.28856e-05
-0.000451998
-0.000418328
-8.58246e-05
0.000454364
-0.00017066
0.000495215
-0.000239133
0.000444241
-0.000290248
0.000379478
-0.000326724
0.000313591
-0.000351774
0.000250561
-0.000368556
0.000192177
-0.000379645
0.000138531
-0.000386924
8.87384e-05
-0.000391597
4.13776e-05
-0.000394194
-5.25038e-06
-0.000394571
-5.31909e-05
-0.000391783
-0.000104522
-0.000383902
-0.000161525
-0.000367751
-0.000226398
-0.000338663
-0.00030079
-0.000290495
-0.000384761
-0.000216444
-0.000475066
-0.000115944
-0.000552498
-0.000534272
-0.000117932
0.000572296
-0.000222681
0.000599964
-0.000301605
0.000523165
-0.000355131
0.000433003
-0.000389361
0.000347822
-0.00041017
0.00027137
-0.000422443
0.000204449
-0.000429786
0.000145874
-0.000434682
9.36343e-05
-0.000438689
4.53844e-05
-0.000442573
-1.36668e-06
-0.000446366
-4.93974e-05
-0.000449206
-0.000101682
-0.000449005
-0.000161727
-0.000441895
-0.000233507
-0.000421445
-0.000321241
-0.000377764
-0.000428442
-0.000296376
-0.000556454
-0.000172959
-0.000675914
-0.000707231
-0.000175487
0.000747783
-0.00030188
0.000726357
-0.000388743
0.000610028
-0.000439243
0.000483503
-0.000465637
0.000374215
-0.000477404
0.000283138
-0.000481505
0.00020855
-0.000482552
0.000146921
-0.000483486
9.45681e-05
-0.000486071
4.79694e-05
-0.000491232
3.79462e-06
-0.00049936
-4.12697e-05
-0.000510015
-9.10268e-05
-0.000521526
-0.000150216
-0.000529974
-0.000225059
-0.000527595
-0.00032362
-0.000500641
-0.000455395
-0.000420756
-0.000636339
-0.000279226
-0.000817445
-0.000986457
-0.00025181
0.000999593
-0.000412509
0.000887056
-0.000508342
0.000705861
-0.000547401
0.000522562
-0.000556644
0.000383459
-0.000552182
0.000278676
-0.00054321
0.000199579
-0.000534868
0.000138578
-0.000529944
8.96442e-05
-0.000530023
4.80481e-05
-0.000536179
9.95062e-06
-0.000549077
-2.83717e-05
-0.000569284
-7.08198e-05
-0.000596465
-0.000123035
-0.000628416
-0.000193108
-0.000657771
-0.000294264
-0.000671643
-0.000441524
-0.000613071
-0.00069491
-0.000477278
-0.000953239
-0.00146373
-0.000526842
0.00152644
-0.000642623
0.00100284
-0.000683541
0.000746778
-0.000677069
0.00051609
-0.000647252
0.000353642
-0.00061371
0.000245133
-0.000584294
0.000170163
-0.000562099
0.000116383
-0.000548453
7.59984e-05
-0.000544045
4.36401e-05
-0.000549341
1.5246e-05
-0.000565822
-1.18903e-05
-0.000595481
-4.1161e-05
-0.00064076
-7.77557e-05
-0.000704753
-0.000129115
-0.000784632
-0.000214385
-0.000874824
-0.000351332
-0.000890638
-0.000679097
-0.000768349
-0.00107553
-0.00223208
-0.000777726
0.00230416
-0.000742495
0.000967606
-0.000639587
0.00064387
-0.00051368
0.000390183
-0.000394439
0.000234401
-0.000300652
0.000151346
-0.000231804
0.000101314
-0.000183604
6.81832e-05
-0.00015261
4.50046e-05
-0.000136586
2.76164e-05
-0.000134556
1.3216e-05
-0.000146064
-3.82813e-07
-0.000172524
-1.47007e-05
-0.000215206
-3.50736e-05
-0.000276294
-6.80269e-05
-0.000353177
-0.000137503
-0.000435811
-0.000268698
-0.000517964
-0.000596944
-0.000462869
-0.00113062
-0.00269495
0.00230416
0.00327177
0.00391564
0.00430582
0.00454022
0.00469157
0.00479288
0.00486107
0.00490607
0.00493369
0.0049469
0.00494652
0.00493182
0.00489675
0.00482872
0.00469122
0.00442252
0.00382557
0.00269495
)
;

boundaryField
{
    movingWall
    {
        type            calculated;
        value           uniform 0;
    }
    fixedWalls
    {
        type            calculated;
        value           uniform 0;
    }
    frontAndBack
    {
        type            empty;
        value           nonuniform List<scalar> 0();
    }
}


// ************************************************************************* //
