/*--------------------------------*- C++ -*----------------------------------*\
  =========                 |
  \\      /  F ield         | OpenFOAM: The Open Source CFD Toolbox
   \\    /   O peration     | Website:  https://openfoam.org
    \\  /    A nd           | Version:  10
     \\/     M anipulation  |
\*---------------------------------------------------------------------------*/
FoamFile
{
    format      ascii;
    class       surfaceScalarField;
    location    "8.425";
    object      phi;
}
// * * * * * * * * * * * * * * * * * * * * * * * * * * * * * * * * * * * * * //

dimensions      [0 3 -1 0 0 0 0];

internalField   nonuniform List<scalar> 
760
(
-1.26667e-05
1.26667e-05
-4.08202e-05
2.81535e-05
-7.46958e-05
3.38756e-05
-0.000110418
3.5722e-05
-0.000146779
3.63607e-05
-0.000183434
3.66559e-05
-0.000220041
3.66068e-05
-0.000255923
3.58818e-05
-0.000289918
3.39953e-05
-0.000320259
3.03401e-05
-0.000344481
2.4222e-05
-0.000359409
1.49288e-05
-0.000361306
1.8965e-06
-0.000346208
-1.5098e-05
-0.000311021
-3.51872e-05
-0.00025492
-5.61009e-05
-0.000181454
-7.34653e-05
-0.000100626
-8.08282e-05
-3.01087e-05
-7.05174e-05
-3.01087e-05
-3.03138e-05
4.29805e-05
-8.55045e-05
8.33443e-05
-0.000149971
9.83424e-05
-0.000217295
0.000103045
-0.000285011
0.000104077
-0.000351966
0.000103612
-0.000417091
0.000101732
-0.000478897
9.76878e-05
-0.000535235
9.03327e-05
-0.000583127
7.82321e-05
-0.000618672
5.97679e-05
-0.000636978
3.3234e-05
-0.00063303
-2.05097e-06
-0.000600911
-4.72171e-05
-0.000536611
-9.94869e-05
-0.00043943
-0.000153282
-0.000315088
-0.000197807
-0.000179214
-0.000216703
-5.9062e-05
-0.000190669
-8.91707e-05
-3.83975e-05
8.1378e-05
-0.000106264
0.000151211
-0.000184684
0.000176762
-0.000265982
0.000184343
-0.000347244
0.000185339
-0.000427088
0.000183455
-0.00050427
0.000178914
-0.000577147
0.000170565
-0.000643406
0.000156591
-0.000699847
0.000134673
-0.000742221
0.000102142
-0.000765308
5.63203e-05
-0.00076253
-4.82821e-06
-0.000726862
-8.28854e-05
-0.000652322
-0.000174027
-0.000536478
-0.000269126
-0.000384916
-0.00034937
-0.000216998
-0.000384621
-6.92368e-05
-0.00033843
-0.000158408
-4.15016e-05
0.00012288
-0.000114888
0.000224597
-0.000199432
0.000261307
-0.000286931
0.000271842
-0.000374461
0.00027287
-0.000460797
0.00026979
-0.00054492
0.000263037
-0.000625468
0.000251113
-0.000700426
0.00023155
-0.000766833
0.000201081
-0.000820431
0.000155739
-0.000855324
9.12138e-05
-0.000864214
4.06173e-06
-0.000836903
-0.000110196
-0.000763477
-0.000247453
-0.000636671
-0.000395932
-0.000458848
-0.000527193
-0.000253694
-0.000589775
-7.42865e-05
-0.000517837
-0.000232694
-4.23297e-05
0.000165209
-0.000118011
0.000300279
-0.000205408
0.000348704
-0.000296117
0.00036255
-0.000387415
0.000364167
-0.000478457
0.000360833
-0.000568735
0.000353315
-0.000657496
0.000339874
-0.000743396
0.00031745
-0.000824098
0.000281783
-0.000895703
0.000227343
-0.000951976
0.000147487
-0.000983465
3.55505e-05
-0.000977485
-0.000116176
-0.000916792
-0.000308146
-0.000784896
-0.000527827
-0.00057495
-0.000737139
-0.000311404
-0.000853321
-8.02035e-05
-0.000749038
-0.000312898
-4.22175e-05
0.000207427
-0.000118857
0.000376919
-0.000207831
0.000437677
-0.000300649
0.000455368
-0.000394881
0.0004584
-0.000490221
0.000456173
-0.000586889
0.000449982
-0.000685056
0.000438041
-0.000784476
0.00041687
-0.000883991
0.000381298
-0.000980746
0.000324098
-0.00106897
0.000235707
-0.00113814
0.000104729
-0.0011723
-8.20181e-05
-0.00114548
-0.000334964
-0.00102474
-0.000648575
-0.000779533
-0.000982343
-0.00042107
-0.00121178
-9.55682e-05
-0.00107454
-0.000408466
-4.16562e-05
0.000249083
-0.000118635
0.000453898
-0.000208552
0.000527594
-0.000302835
0.000549651
-0.000399377
0.000554942
-0.000498509
0.000555305
-0.000601377
0.00055285
-0.000709401
0.000546065
-0.000823969
0.000531437
-0.000945934
0.000503264
-0.00107474
0.000452907
-0.00120693
0.000367893
-0.00133353
0.000231331
-0.00143948
2.39361e-05
-0.00148849
-0.000285957
-0.00142124
-0.000715827
-0.00115247
-0.00125111
-0.000648362
-0.00171589
-0.000149059
-0.00157384
-0.000557524
-4.07723e-05
0.000289855
-0.000117665
0.000530791
-0.00020796
0.000617888
-0.000302922
0.000644613
-0.000400744
0.000652764
-0.000502422
0.000656983
-0.000610157
0.000660585
-0.000726932
0.00066284
-0.000856368
0.000660873
-0.00100246
0.00064936
-0.001169
0.000619442
-0.00135827
0.00055716
-0.00156891
0.000441976
-0.001789
0.000244027
-0.00198724
-8.77193e-05
-0.00204862
-0.000654445
-0.00178466
-0.00151508
-0.00109249
-0.00240806
-0.000314216
-0.00235212
-0.00087174
-3.9632e-05
0.000329487
-0.000116077
0.000607236
-0.000206086
0.000707897
-0.000300606
0.000739133
-0.000398038
0.000750196
-0.000499997
0.000758942
-0.00060973
0.000770319
-0.000731877
0.000784987
-0.000872691
0.000801687
-0.0010404
0.00081707
-0.00124549
0.000824536
-0.00150093
0.000812592
-0.0018216
0.000762651
-0.0022132
0.000635623
-0.00262572
0.000324804
-0.00287911
-0.00040106
-0.0026421
-0.00175208
-0.00180134
-0.00324882
-0.000705841
-0.00344762
-0.00157758
-3.84151e-05
0.000367902
-0.000114212
0.000683033
-0.000203214
0.000796899
-0.000295844
0.000831763
-0.000390557
0.000844908
-0.00048943
0.000857815
-0.000596559
0.000877448
-0.000718027
0.000906455
-0.000862599
0.000946259
-0.00104299
0.000997458
-0.00127791
0.00105946
-0.00159475
0.00112943
-0.0020282
0.0011961
-0.00259647
0.00120389
-0.00321168
0.000940015
-0.00358962
-2.31263e-05
-0.00342248
-0.00191921
-0.00263956
-0.00403175
-0.00134584
-0.00474134
-0.00292342
-3.75336e-05
0.000405436
-0.000112881
0.00075838
-0.000200269
0.000884287
-0.000289381
0.000920875
-0.000378525
0.000934053
-0.000469985
0.000949274
-0.000568255
0.000975718
-0.000680139
0.00101834
-0.000815881
0.001082
-0.000991268
0.00117284
-0.00123111
0.00129931
-0.00157252
0.00147084
-0.00205649
0.00168007
-0.00268345
0.00183085
-0.00332239
0.00157896
-0.00370214
0.000356626
-0.00363785
-0.0019835
-0.00311054
-0.00455905
-0.00188472
-0.00596716
-0.00480814
-3.78384e-05
0.000443274
-0.000113728
0.00083427
-0.000199195
0.000969754
-0.000283092
0.00100477
-0.000363568
0.00101453
-0.00044281
0.00102852
-0.000525032
0.00105794
-0.000616482
0.00110979
-0.000726578
0.0011921
-0.000869827
0.00131609
-0.0010684
0.00149788
-0.00135218
0.00175462
-0.00174534
0.00207323
-0.00222007
0.00230558
-0.00266634
0.00202522
-0.00292982
0.000620114
-0.0029834
-0.00192992
-0.00276613
-0.00477633
-0.00185791
-0.00687538
-0.00666605
-4.04346e-05
0.000483709
-0.000118926
0.000912761
-0.000202914
0.00105374
-0.000280431
0.00108229
-0.00034937
0.00108347
-0.000411635
0.00109078
-0.000470608
0.00111691
-0.000530429
0.00116961
-0.000596826
0.00125849
-0.000677776
0.00139704
-0.000783859
0.00160396
-0.000924336
0.0018951
-0.00110091
0.00224981
-0.00128397
0.00248864
-0.00144851
0.00218977
-0.00156337
0.00073497
-0.00170464
-0.00178865
-0.00183329
-0.00464768
-0.00141955
-0.00728912
-0.0080856
-4.91236e-05
0.000532833
-0.000134521
0.000998159
-0.000216926
0.00113615
-0.000285429
0.00115079
-0.000339745
0.00113778
-0.000381776
0.00113281
-0.000413015
0.00114815
-0.000434865
0.00119146
-0.000448226
0.00127186
-0.000452743
0.00140156
-0.000445721
0.00159694
-0.000416734
0.00186611
-0.000352895
0.00218597
-0.000250763
0.0023865
-0.000161668
0.00210067
-0.000183774
0.000757076
-0.000420279
-0.00155215
-0.000899261
-0.0041687
-0.000951411
-0.00723697
-0.00903701
-6.04175e-05
0.00059325
-0.000156681
0.00109442
-0.000242393
0.00122186
-0.000306989
0.00121539
-0.00034789
0.00117869
-0.000367876
0.0011528
-0.000368578
0.00114885
-0.000349596
0.00117248
-0.000307976
0.00123024
-0.00023675
0.00133033
-0.00012332
0.00148351
5.25056e-05
0.00169028
0.000306229
0.00193225
0.000625009
0.00206772
0.000901365
0.00182432
0.000922
0.00073644
0.000557669
-0.00118781
-0.000199487
-0.00341155
-0.000581477
-0.00685498
-0.00961849
-0.000128097
0.000721347
-0.000238762
0.00120509
-0.000308775
0.00129187
-0.000346346
0.00125296
-0.000361127
0.00119347
-0.000356382
0.00114805
-0.000330307
0.00112278
-0.000278188
0.00112036
-0.00019307
0.00114512
-6.43393e-05
0.0012016
0.000123083
0.00129609
0.000386158
0.00142721
0.000742376
0.00157603
0.00116501
0.00164509
0.00152928
0.00146005
0.0015865
0.00067922
0.00116991
-0.000771224
0.000293024
-0.00253466
-0.000274782
-0.00628717
-0.00989327
-8.2701e-05
0.000804048
-0.000258931
0.00138132
-0.000368685
0.00140162
-0.000419381
0.00130366
-0.000427691
0.00120178
-0.000403887
0.00112425
-0.000350355
0.00106925
-0.000264178
0.00103418
-0.000139238
0.00102018
3.62937e-05
0.00102607
0.000273292
0.00105909
0.000587927
0.00111257
0.000984251
0.00117971
0.00143403
0.00119531
0.00182078
0.0010733
0.00189682
0.000603179
0.00148722
-0.000361622
0.000668033
-0.00171548
0.000101232
-0.00572037
-0.00979204
-0.000378577
0.00118262
-0.000434732
0.00143747
-0.000481039
0.00144793
-0.000515689
0.00133831
-0.000502862
0.00118895
-0.000448606
0.00106999
-0.000356415
0.000977055
-0.000224344
0.000902113
-5.2708e-05
0.000848542
0.000165516
0.000807846
0.000435057
0.000789547
0.000765874
0.000781758
0.00115202
0.000793555
0.00155918
0.000788145
0.00192339
0.000709093
0.00206043
0.000466148
0.00193151
-0.000232708
0.00153245
-0.00131642
0.000857295
-0.00504521
-0.00893474
-0.00136278
0.0025454
-0.00132517
0.00139987
-0.00106501
0.00118776
-0.000692523
0.000965824
-0.000299761
0.000796188
9.71898e-05
0.000673042
0.000487378
0.000586867
0.000870153
0.000519338
0.00124764
0.000471058
0.00162529
0.000430194
0.00201056
0.000404278
0.00240938
0.000382941
0.00283659
0.000366343
0.00328108
0.000343654
0.00372239
0.000267778
0.00405364
0.000134905
0.00413967
-0.000318745
0.00397587
-0.00115261
0.00251943
-0.00358877
-0.00641531
0.0025454
0.00394527
0.00513303
0.00609886
0.00689505
0.00756809
0.00815495
0.00867429
0.00914535
0.00957554
0.00997982
0.0103628
0.0107291
0.0110728
0.0113405
0.0114754
0.0111567
0.0100041
0.00641531
)
;

boundaryField
{
    movingWall
    {
        type            calculated;
        value           uniform 0;
    }
    fixedWalls
    {
        type            calculated;
        value           uniform 0;
    }
    frontAndBack
    {
        type            empty;
        value           nonuniform List<scalar> 0();
    }
}


// ************************************************************************* //
