/*--------------------------------*- C++ -*----------------------------------*\
  =========                 |
  \\      /  F ield         | OpenFOAM: The Open Source CFD Toolbox
   \\    /   O peration     | Website:  https://openfoam.org
    \\  /    A nd           | Version:  10
     \\/     M anipulation  |
\*---------------------------------------------------------------------------*/
FoamFile
{
    format      ascii;
    class       volScalarField;
    location    "6.85";
    object      p;
}
// * * * * * * * * * * * * * * * * * * * * * * * * * * * * * * * * * * * * * //

dimensions      [0 2 -2 0 0 0 0];

internalField   nonuniform List<scalar> 
475
(
-0.0595518
-0.0849165
-0.114311
-0.138036
-0.160805
-0.0852916
-0.0986129
-0.114871
-0.133916
-0.150777
-0.0833624
-0.0927331
-0.107703
-0.125112
-0.141463
-0.0826286
-0.093548
-0.108367
-0.123721
-0.137245
-0.0528558
-0.0797574
-0.103351
-0.120986
-0.133666
-0.179019
-0.189285
-0.193035
-0.195562
-0.199582
-0.205518
-0.212089
-0.216671
-0.217466
-0.213841
-0.205368
-0.192541
-0.177053
-0.160663
-0.144711
-0.12968
-0.116489
-0.107552
-0.104013
-0.104494
-0.106038
-0.105894
-0.102692
-0.096531
-0.088192
-0.0785552
-0.0684313
-0.0585083
-0.0490928
-0.0402183
-0.0316866
-0.0236413
-0.0166951
-0.0114137
-0.00788428
-0.00552061
-0.00356275
-0.00159239
0.000321468
0.00189375
0.00284598
0.00311741
0.00275393
0.00190924
0.000722494
-0.167303
-0.178807
-0.184726
-0.18692
-0.188068
-0.18916
-0.189966
-0.189572
-0.187204
-0.182601
-0.175844
-0.167467
-0.158369
-0.149363
-0.140936
-0.132152
-0.124424
-0.120138
-0.120094
-0.122715
-0.125248
-0.125111
-0.120829
-0.112645
-0.101784
-0.0897492
-0.0773323
-0.0650715
-0.0534038
-0.0424211
-0.0321838
-0.0229274
-0.0152294
-0.00958106
-0.00584466
-0.00330871
-0.00120711
0.000832763
0.00271003
0.00412609
0.00481464
0.00473204
0.00397638
0.00269001
0.00107714
-0.154776
-0.164278
-0.169835
-0.172062
-0.17204
-0.170539
-0.167919
-0.164284
-0.159741
-0.154664
-0.150295
-0.147785
-0.147301
-0.14567
-0.139623
-0.132362
-0.129938
-0.130788
-0.132094
-0.133801
-0.134476
-0.13194
-0.12561
-0.115979
-0.104201
-0.0912077
-0.0780893
-0.065381
-0.0532164
-0.0417378
-0.0310897
-0.0216718
-0.013968
-0.0082203
-0.0041955
-0.0013134
0.00100385
0.00304144
0.00474203
0.00588548
0.00627788
0.00589843
0.00483291
0.00322656
0.00127119
-0.14792
-0.15566
-0.16024
-0.161919
-0.160757
-0.157352
-0.151986
-0.145232
-0.137557
-0.130755
-0.127036
-0.129668
-0.141683
-0.150319
-0.141716
-0.122978
-0.115719
-0.121467
-0.130496
-0.136903
-0.138651
-0.135432
-0.128033
-0.117163
-0.104214
-0.0905298
-0.0768646
-0.0636951
-0.0510839
-0.0396683
-0.0293667
-0.0203854
-0.0130214
-0.00737697
-0.00321902
-0.000118037
0.00233653
0.00434615
0.00588539
0.00680693
0.00698547
0.00642025
0.00518004
0.00342607
0.00130638
-0.143209
-0.150119
-0.154363
-0.155661
-0.153956
-0.149502
-0.142747
-0.134449
-0.125466
-0.117951
-0.113756
-0.118648
-0.13408
-0.147056
-0.147036
-0.139156
-0.131774
-0.128904
-0.130239
-0.132596
-0.132675
-0.129333
-0.122284
-0.112382
-0.100486
-0.0876313
-0.0746764
-0.0622172
-0.0492145
-0.0382974
-0.0283464
-0.0196797
-0.0125318
-0.00694358
-0.00271534
0.000486467
0.00298017
0.00492994
0.0063333
0.00708455
0.00710855
0.00640899
0.0050899
0.0033131
0.00118369
-0.204916
-0.205721
-0.20706
-0.208665
-0.212135
-0.218707
-0.227158
-0.23488
-0.238858
-0.236541
-0.226713
-0.209393
-0.18512
-0.15554
-0.123363
-0.0916781
-0.0631863
-0.0395829
-0.0218441
-0.0102759
-0.00427637
-0.00267957
-0.00407348
-0.00709407
-0.0106162
-0.0138794
-0.0165069
-0.0184547
-0.0198707
-0.0208616
-0.0215566
-0.0217912
-0.0214128
-0.020364
-0.018574
-0.0164117
-0.0141739
-0.0119915
-0.00990371
-0.00778766
-0.00567002
-0.00366512
-0.00197674
-0.000729641
3.64848e-05
-0.198646
-0.200865
-0.202933
-0.206632
-0.212677
-0.221481
-0.231498
-0.240267
-0.245074
-0.243496
-0.234945
-0.21825
-0.194038
-0.164053
-0.131039
-0.0983988
-0.0692217
-0.0451006
-0.0268699
-0.0147826
-0.00828645
-0.00621976
-0.00718689
-0.00980838
-0.0129256
-0.015747
-0.0178649
-0.0193221
-0.0202695
-0.0211668
-0.0220564
-0.022632
-0.022093
-0.0201649
-0.0174775
-0.0148053
-0.0126882
-0.0111316
-0.00965753
-0.00791751
-0.00591603
-0.00387272
-0.00209025
-0.000796881
-3.744e-06
-0.207554
-0.205953
-0.206026
-0.208334
-0.214819
-0.224952
-0.236041
-0.245592
-0.251198
-0.250039
-0.240917
-0.224133
-0.200266
-0.170925
-0.138792
-0.107249
-0.0790402
-0.055827
-0.0383811
-0.0268783
-0.0207102
-0.0185969
-0.0190425
-0.0207516
-0.0227041
-0.0242978
-0.0252039
-0.025374
-0.0249145
-0.0240855
-0.0231114
-0.0217638
-0.0199672
-0.0177711
-0.0154177
-0.0132386
-0.0114257
-0.0098228
-0.0082868
-0.00664986
-0.00488727
-0.00315762
-0.00166657
-0.000624182
-4.69813e-05
-0.194726
-0.196875
-0.198462
-0.202366
-0.209635
-0.220022
-0.231064
-0.240519
-0.246045
-0.245726
-0.237969
-0.222498
-0.200411
-0.17368
-0.144826
-0.116935
-0.0922072
-0.0720664
-0.057551
-0.0485056
-0.0437259
-0.0417868
-0.0413609
-0.0412788
-0.0406667
-0.0394823
-0.0375699
-0.0349642
-0.0316075
-0.0280869
-0.0248795
-0.0220071
-0.0192434
-0.0163476
-0.0134342
-0.0107517
-0.00854432
-0.00682177
-0.00538549
-0.00400946
-0.0026711
-0.00144864
-0.00057026
-4.80995e-05
2.4413e-05
-0.230441
-0.208745
-0.205389
-0.20466
-0.208821
-0.217719
-0.227504
-0.234974
-0.238526
-0.236646
-0.228353
-0.213647
-0.19402
-0.171317
-0.147638
-0.125305
-0.106204
-0.0916567
-0.0824221
-0.0778227
-0.0757983
-0.0744306
-0.0726705
-0.069817
-0.0655182
-0.0600444
-0.0541529
-0.0475898
-0.0407582
-0.0341997
-0.028192
-0.0227276
-0.0178267
-0.013756
-0.0105775
-0.00813076
-0.00612102
-0.00427978
-0.00253203
-0.000979808
0.000190358
0.000914526
0.00112674
0.000928256
0.000317863
)
;

boundaryField
{
    inlet
    {
        type            zeroGradient;
    }
    outlet
    {
        type            fixedValue;
        value           uniform 0;
    }
    upperWall
    {
        type            zeroGradient;
    }
    lowerWall
    {
        type            zeroGradient;
    }
    frontAndBack
    {
        type            empty;
    }
}


// ************************************************************************* //
