/*--------------------------------*- C++ -*----------------------------------*\
  =========                 |
  \\      /  F ield         | OpenFOAM: The Open Source CFD Toolbox
   \\    /   O peration     | Website:  https://openfoam.org
    \\  /    A nd           | Version:  10
     \\/     M anipulation  |
\*---------------------------------------------------------------------------*/
FoamFile
{
    format      ascii;
    class       surfaceScalarField;
    location    "6.85";
    object      phi;
}
// * * * * * * * * * * * * * * * * * * * * * * * * * * * * * * * * * * * * * //

dimensions      [0 3 -1 0 0 0 0];

internalField   nonuniform List<scalar> 
890
(
0.00984561
0.000154387
0.00971815
0.000127459
0.00946979
0.000248365
0.00942026
4.95262e-05
0.000144018
0.00927624
0.0101194
3.49847e-05
0.0102025
4.43335e-05
0.0104072
4.37163e-05
0.0104645
-7.81533e-06
-7.13191e-05
0.0106799
0.0100721
-3.71534e-05
0.0102155
-9.9043e-05
0.010378
-0.00011875
0.0105213
-0.000151157
-0.000191305
0.0106413
0.0100915
-0.000128632
0.010212
-0.000219602
0.0103309
-0.000237658
0.0104173
-0.000237513
-0.00025279
0.0104788
0.00987137
0.00965177
0.00941411
0.00917659
0.0089238
0.00926421
-0.000107886
0.000119922
0.00929017
-0.000268387
0.000242429
0.00936916
-0.000380234
0.000301243
0.00949481
-0.000482224
0.000356572
0.00965735
-0.00058888
0.000426337
0.00985158
-0.00074662
0.000552394
0.0100551
-0.000941273
0.000737741
0.0102642
-0.0011791
0.000969993
0.0104606
-0.00145118
0.00125478
0.010629
-0.00173851
0.00157016
0.010756
-0.00202658
0.00189957
0.0108262
-0.00228007
0.00220988
0.0108359
-0.00247525
0.00246551
0.0107664
-0.00258054
0.00265005
0.0105975
-0.00255974
0.00272859
0.0103538
-0.00245944
0.00270318
0.0100904
-0.00234333
0.00260675
0.00980867
-0.00213957
0.00242129
0.00950712
-0.00186073
0.00216228
0.00920256
-0.00154398
0.00184855
0.00890165
-0.0011891
0.00149
0.00861046
-0.000819777
0.00111097
0.00835699
-0.000486591
0.000740064
0.00814414
-0.000188827
0.000401676
0.00796084
7.22983e-05
0.000111002
0.00781356
0.000288478
-0.0001412
0.00770681
0.000452322
-0.000345566
0.00763675
0.000568596
-0.000498543
0.00758693
0.000656234
-0.000606415
0.00753896
0.000727041
-0.000679072
0.00748274
0.000778813
-0.000722589
0.00741487
0.000796006
-0.000728132
0.00733651
0.000767093
-0.000688732
0.0072485
0.000703459
-0.000615451
0.00715263
0.000638077
-0.00054221
0.00705538
0.000597538
-0.00050029
0.00696477
0.000586264
-0.000495647
0.00688404
0.000583414
-0.00050269
0.00681145
0.000566055
-0.000493466
0.00674317
0.000521091
-0.000452805
0.00667957
0.000446002
-0.000382409
0.00662123
0.000362684
-0.000304335
0.00657432
0.000261534
-0.000214624
0.00653477
0.000199005
-0.00015946
0.000104334
-8.1403e-05
0.0107425
-0.000170544
0.0107672
-0.000293045
0.0107963
-0.00040937
0.0108396
-0.000525545
0.0108901
-0.000639386
0.0109258
-0.000782257
0.0109354
-0.000950866
0.0109189
-0.00116265
0.0108624
-0.00139462
0.010764
-0.00164018
0.010607
-0.00186959
0.0103987
-0.00207169
0.0101338
-0.00221038
0.00977653
-0.00222328
0.00932785
-0.00211106
0.00884113
-0.00197272
0.00833413
-0.00183634
0.00783166
-0.00163709
0.00734377
-0.00137284
0.006889
-0.00108922
0.0064728
-0.000772899
0.0061062
-0.000453173
0.00579895
-0.000179338
0.00555349
5.66269e-05
0.00537723
0.000248559
0.00526601
0.000399699
0.00520906
0.000509279
0.00518582
0.000591829
0.00518248
0.000659582
0.0051963
0.000713217
0.00523207
0.000743041
0.00529056
0.000737521
0.00536165
0.000695998
0.005431
0.000634114
0.00549225
0.000576824
0.00555067
0.000539115
0.00561602
0.00052092
0.00569429
0.000505146
0.00578351
0.000476834
0.00587934
0.000425252
0.0059717
0.000353644
0.0060599
0.000274489
0.0061315
0.000189928
0.0061974
0.000133106
6.14044e-05
0.0107267
-0.00025595
0.010769
-0.000335296
0.0107879
-0.000428332
0.0107845
-0.000522151
0.0107646
-0.000619439
0.0107126
-0.000730275
0.0106269
-0.000865196
0.0104948
-0.00103048
0.0103143
-0.0012142
0.0100978
-0.00142367
0.00983689
-0.00160864
0.00953753
-0.00177234
0.00908674
-0.00175958
0.00847651
-0.00161306
0.0078416
-0.00147615
0.00717806
-0.00130918
0.00640913
-0.00106741
0.00562944
-0.000857396
0.0049292
-0.000672602
0.00430602
-0.000466044
0.00378769
-0.000254566
0.00339021
-5.56904e-05
0.00309035
0.00012052
0.00288275
0.000264225
0.0027596
0.000371713
0.00271883
0.000440473
0.002744
0.000484102
0.00282612
0.000509713
0.00296033
0.000525373
0.0031409
0.000532638
0.00335656
0.00052739
0.00358933
0.000504742
0.00381954
0.000465789
0.00403335
0.000420304
0.00422973
0.00038045
0.00441754
0.000351297
0.00460791
0.000330555
0.00480532
0.000307739
0.00500582
0.00027633
0.00519993
0.000231139
0.00537457
0.000179009
0.00552487
0.000124191
0.00563843
7.63699e-05
0.00573016
4.13706e-05
1.06911e-05
0.010506
-0.000283119
0.0104911
-0.000320485
0.0104323
-0.000369504
0.0103219
-0.000411728
0.0101707
-0.00046827
0.00995909
-0.000518642
0.00969285
-0.000598949
0.00933717
-0.000674801
0.00891352
-0.000790548
0.0083869
-0.000897061
0.00780577
-0.00102751
0.0072015
-0.00116807
0.00642572
-0.000983792
0.0054005
-0.000587842
0.00416665
-0.000242297
0.00290368
-4.62143e-05
0.00182975
6.51921e-06
0.00104245
-7.00958e-05
0.000538943
-0.000169094
0.000264548
-0.000191649
0.000138599
-0.000128617
0.000112414
-2.95062e-05
0.000173428
5.95069e-05
0.000306112
0.00013154
0.000495089
0.000182736
0.000723321
0.000212242
0.00098127
0.000226153
0.00125967
0.000231315
0.00155346
0.000231579
0.00185707
0.000229026
0.00216319
0.000221279
0.00246075
0.000207174
0.00273891
0.000187635
0.00299306
0.000166147
0.00322684
0.000146671
0.00344764
0.0001305
0.00366147
0.00011673
0.00386716
0.000102042
0.00405853
8.49659e-05
0.00422499
6.46718e-05
0.00435948
4.45192e-05
0.0044582
2.54738e-05
0.0045226
1.19683e-05
0.00456251
1.46293e-06
-3.59454e-06
0.00864068
0.0083202
0.0079507
0.00753897
0.0070707
0.00655206
0.00595311
0.00527831
0.00448776
0.0035907
0.00256319
0.00139512
0.00041133
-0.000176512
-0.000418808
-0.000465023
-0.000458503
-0.000528599
-0.000697693
-0.000889342
-0.00101796
-0.00104747
-0.000987959
-0.000856419
-0.000673683
-0.000461442
-0.000235288
-3.97274e-06
0.000227606
0.000456632
0.000677911
0.000885085
0.00107272
0.00123887
0.00138554
0.00151604
0.00163277
0.00173481
0.00181977
0.00188445
0.00192897
0.00195444
0.00196641
0.00196787
5.68792e-05
-5.68792e-05
1.43895e-05
4.24896e-05
-0.000206898
0.000221288
-0.000666676
0.000459777
-0.00127176
0.000605085
-0.00188948
0.000617717
-0.00243327
0.00054379
-0.0028693
0.000436031
-0.00317174
0.000302443
-0.003326
0.000154256
-0.00331711
-8.8882e-06
-0.00316019
-0.00015692
-0.00285843
-0.000301756
-0.00242616
-0.000432268
-0.00189229
-0.000533871
-0.00129359
-0.000598707
-0.000664436
-0.000629151
-3.00371e-05
-0.000634399
0.000579761
-0.000609798
0.00113415
-0.00055439
0.00160986
-0.000475711
0.00199182
-0.00038196
0.00227465
-0.000282823
0.00246198
-0.000187334
0.00256368
-0.000101698
0.00259251
-2.88369e-05
0.00256007
3.24464e-05
0.00247113
8.89421e-05
0.0023339
0.000137227
0.00216673
0.000167168
0.00199025
0.000176477
0.00182949
0.000160768
0.00169884
0.000130647
0.00160528
9.35569e-05
0.00154903
5.62508e-05
0.00152209
2.69458e-05
0.00151699
5.09937e-06
0.00152976
-1.27715e-05
0.00155667
-2.69116e-05
0.0015964
-3.97266e-05
0.00164373
-4.7336e-05
0.001695
-5.12668e-05
0.00174127
-4.6274e-05
0.00178412
-4.28426e-05
-2.80428e-05
-0.000165074
0.000108195
-0.000571079
0.000448495
-0.00103462
0.000684831
-0.00144882
0.000873974
-0.00178062
0.000936882
-0.00203509
0.000872188
-0.00220371
0.000712417
-0.00227679
0.000509109
-0.00224312
0.000268771
-0.00208646
-2.40601e-06
-0.0018293
-0.000266049
-0.00144254
-0.000543677
-0.000939528
-0.00080477
-0.000336975
-0.00103482
0.000334951
-0.0012058
0.00104634
-0.0013101
0.00176953
-0.00135234
0.00247818
-0.00134305
0.00314328
-0.00127489
0.0037442
-0.00115532
0.00426253
-0.00099404
0.00468537
-0.000804794
0.00500829
-0.000605744
0.00523522
-0.000414272
0.00537223
-0.000238703
0.00542986
-8.64652e-05
0.00542288
3.94245e-05
0.00537628
0.000135538
0.00531431
0.000199205
0.00524388
0.000237593
0.00516465
0.000255709
0.00507238
0.000253037
0.00497184
0.000231188
0.00486182
0.000203574
0.00473253
0.000185543
0.00458803
0.000171451
0.00444228
0.000150846
0.00431796
0.000111548
0.00423379
5.72553e-05
0.00419743
-3.36247e-06
0.00419992
-4.98305e-05
0.00423245
-8.37955e-05
0.00427417
-8.79955e-05
0.00432355
-9.22183e-05
-6.53002e-05
-0.00049938
0.000607574
-0.00066767
0.000616785
-0.000679776
0.000696936
-0.000593178
0.000787377
-0.000449747
0.000793451
-0.000270098
0.00069254
-6.06923e-05
0.000503011
0.000192847
0.00025557
0.000501255
-3.9637e-05
0.00088163
-0.000382781
0.00134848
-0.000732894
0.00188159
-0.00107679
0.00246893
-0.00139211
0.00309922
-0.00166511
0.00375184
-0.00185841
0.00440509
-0.00196335
0.00503794
-0.0019852
0.00562635
-0.00193145
0.00615753
-0.00180607
0.00661647
-0.00161426
0.00699218
-0.00136975
0.0072813
-0.00109391
0.00748426
-0.000808704
0.00760389
-0.000533898
0.00765375
-0.000288566
0.00764664
-7.9353e-05
0.00758783
9.82262e-05
0.0074941
0.000229275
0.00737944
0.000313862
0.00724764
0.000369392
0.00709937
0.000403976
0.00694935
0.000403065
0.00681836
0.000362171
0.00671847
0.000303471
0.00664227
0.000261742
0.00655794
0.000255773
0.00644126
0.000267528
0.00629239
0.000260426
0.0061305
0.000219139
0.00598349
0.000143654
0.00586815
6.55013e-05
0.00579181
-7.45263e-06
0.00574854
-4.47279e-05
0.00572876
-7.24329e-05
-6.27215e-05
-0.000211247
0.000818821
-7.21755e-05
0.000477714
0.000218653
0.000406107
0.000642287
0.000363743
0.00114108
0.000294661
0.00167194
0.00016168
0.0022175
-4.25497e-05
0.00276437
-0.000291299
0.00332933
-0.000604599
0.00390279
-0.000956241
0.00449462
-0.00132472
0.0051001
-0.00168228
0.00570592
-0.00199793
0.00629744
-0.00225663
0.00686127
-0.00242224
0.00737838
-0.00248046
0.00784031
-0.00244713
0.00823843
-0.00232957
0.00856788
-0.00213553
0.00882644
-0.00187282
0.00901127
-0.00155458
0.00912613
-0.00120877
0.00917739
-0.000859968
0.00917238
-0.000528883
0.00912309
-0.000239273
0.00904636
-2.62445e-06
0.00893314
0.000211446
0.00879763
0.000364786
0.00864385
0.000467642
0.00848096
0.000532278
0.00831609
0.000568844
0.00814786
0.0005713
0.00797663
0.000533402
0.00781551
0.000464584
0.00767632
0.000400933
0.00756044
0.000371654
0.00745169
0.000376279
0.00733008
0.000382039
0.00718579
0.000363426
0.00702221
0.000307231
0.00685705
0.000230661
0.0067004
0.000149204
0.00657409
8.15773e-05
0.00646562
3.60417e-05
2.30412e-06
0.000938743
0.00165889
0.00236624
0.00308655
0.00380755
0.00452162
0.00521682
0.00589551
0.00654569
0.00715961
0.00773446
0.00826206
0.00872964
0.00912305
0.0094294
0.00965212
0.00981174
0.00990346
0.00993021
0.00990594
0.00984136
0.00974356
0.00962366
0.00949645
0.00936818
0.00922435
0.00909023
0.00895648
0.0088177
0.00867091
0.00851716
0.00836033
0.008205
0.00805414
0.00791286
0.00778422
0.00766485
0.0075442
0.00741416
0.00726859
0.00711684
0.00696171
0.00682866
0.00670524
)
;

boundaryField
{
    inlet
    {
        type            calculated;
        value           nonuniform List<scalar> 5(-0.01 -0.01 -0.01 -0.01 -0.01);
    }
    outlet
    {
        type            calculated;
        value           nonuniform List<scalar> 10(0.00651184 0.00624033 0.00578088 0.0045768 0.00196428 0.00181216 0.00436081 0.00572618 0.00640059 0.00662615);
    }
    upperWall
    {
        type            calculated;
        value           uniform 0;
    }
    lowerWall
    {
        type            calculated;
        value           uniform 0;
    }
    frontAndBack
    {
        type            empty;
        value           nonuniform List<scalar> 0();
    }
}


// ************************************************************************* //
