/*--------------------------------*- C++ -*----------------------------------*\
  =========                 |
  \\      /  F ield         | OpenFOAM: The Open Source CFD Toolbox
   \\    /   O peration     | Website:  https://openfoam.org
    \\  /    A nd           | Version:  10
     \\/     M anipulation  |
\*---------------------------------------------------------------------------*/
FoamFile
{
    format      ascii;
    class       volScalarField;
    location    "6.35";
    object      p;
}
// * * * * * * * * * * * * * * * * * * * * * * * * * * * * * * * * * * * * * //

dimensions      [0 2 -2 0 0 0 0];

internalField   nonuniform List<scalar> 
475
(
-0.0589045
-0.0842286
-0.113697
-0.137338
-0.160134
-0.0846483
-0.0979562
-0.114204
-0.133192
-0.150136
-0.0826908
-0.0921437
-0.107064
-0.124481
-0.140862
-0.0820361
-0.0929354
-0.107641
-0.123115
-0.13661
-0.0522538
-0.0790906
-0.102735
-0.120365
-0.133032
-0.178412
-0.188367
-0.192333
-0.195876
-0.2013
-0.208979
-0.216989
-0.222202
-0.222787
-0.217798
-0.207344
-0.192685
-0.175422
-0.157728
-0.141052
-0.125975
-0.11352
-0.105809
-0.103456
-0.103208
-0.102164
-0.0988758
-0.091992
-0.0821513
-0.0716732
-0.0611519
-0.0510213
-0.0409276
-0.0307101
-0.0211855
-0.0135531
-0.00828511
-0.00490322
-0.00233606
0.000223916
0.00285352
0.00514006
0.00665933
0.00726345
0.00706543
0.00628498
0.00514065
0.00378121
0.00231435
0.000780836
-0.166675
-0.178173
-0.184307
-0.187109
-0.189017
-0.190849
-0.192381
-0.192212
-0.18958
-0.184285
-0.176585
-0.167285
-0.157574
-0.148458
-0.139792
-0.131288
-0.124872
-0.122018
-0.122503
-0.123531
-0.122669
-0.118243
-0.109373
-0.0971738
-0.083662
-0.0702114
-0.0571961
-0.0446447
-0.0326857
-0.0219462
-0.0134526
-0.00753899
-0.0035499
-0.000407721
0.00257858
0.00541086
0.00769144
0.0090565
0.00940625
0.0088857
0.00774881
0.00624409
0.00454631
0.00275904
0.000947348
-0.154178
-0.163729
-0.169371
-0.171853
-0.172053
-0.170789
-0.168363
-0.164717
-0.159963
-0.154624
-0.15023
-0.147774
-0.147745
-0.145631
-0.138869
-0.133829
-0.133935
-0.135332
-0.136241
-0.135731
-0.132103
-0.124702
-0.113388
-0.0996715
-0.0851345
-0.0709447
-0.0572692
-0.0440492
-0.0316885
-0.0209502
-0.0124688
-0.00627383
-0.00178314
0.00177554
0.00489715
0.00761148
0.00965368
0.0107662
0.0108879
0.0101472
0.00877795
0.00702584
0.0050758
0.00305286
0.00102638
-0.147325
-0.155067
-0.159607
-0.161314
-0.160109
-0.15664
-0.150989
-0.143963
-0.135875
-0.129204
-0.126086
-0.130544
-0.144677
-0.149558
-0.137203
-0.122429
-0.120945
-0.129196
-0.137032
-0.139913
-0.136798
-0.128479
-0.115757
-0.100468
-0.0846358
-0.0693009
-0.0549135
-0.0417062
-0.0298855
-0.0197766
-0.0116696
-0.00548067
-0.000755391
0.00303565
0.00622727
0.0088412
0.0107043
0.0116423
0.0116258
0.0107708
0.009289
0.00741862
0.00533269
0.0031905
0.00104576
-0.142586
-0.149445
-0.153656
-0.15483
-0.152982
-0.148218
-0.141073
-0.132225
-0.122866
-0.115273
-0.112138
-0.119654
-0.13706
-0.148018
-0.146369
-0.13941
-0.13426
-0.132921
-0.134188
-0.133773
-0.129743
-0.121476
-0.109829
-0.0959282
-0.0811949
-0.0666719
-0.0528847
-0.0401698
-0.0288086
-0.0191009
-0.0112077
-0.00501707
-0.00017977
0.00370316
0.0068798
0.00937834
0.0110808
0.0118656
0.0117276
0.0107866
0.00925193
0.00732889
0.00524372
0.00311151
0.000996056
-0.204986
-0.206003
-0.207674
-0.209704
-0.214586
-0.223252
-0.233805
-0.242691
-0.246204
-0.241986
-0.229105
-0.207752
-0.179168
-0.145746
-0.110741
-0.0776239
-0.0489488
-0.026107
-0.00985601
-6.061e-05
0.00435167
0.00492827
0.00320933
0.000503058
-0.00220804
-0.00435757
-0.00586727
-0.00696149
-0.00799076
-0.00921196
-0.0103522
-0.0112225
-0.0114182
-0.0109825
-0.00999036
-0.00857409
-0.00680824
-0.00482518
-0.00281653
-0.00103271
0.000311305
0.00111572
0.00136795
0.0011469
0.000544701
-0.198292
-0.200704
-0.203346
-0.208115
-0.215945
-0.227285
-0.23945
-0.249309
-0.253645
-0.250371
-0.238598
-0.217706
-0.188966
-0.154938
-0.118813
-0.0847488
-0.0553909
-0.0320243
-0.0151759
-0.00480882
7.58713e-05
0.00112326
-7.69012e-05
-0.00232564
-0.00450684
-0.00590506
-0.00663406
-0.0074739
-0.00890914
-0.0105272
-0.0115598
-0.0113214
-0.010293
-0.00922787
-0.00842222
-0.00763435
-0.00647946
-0.00481588
-0.00287605
-0.00104529
0.000346061
0.00116811
0.00141838
0.00117048
0.000547181
-0.20713
-0.205506
-0.206027
-0.209689
-0.218606
-0.231573
-0.244766
-0.255757
-0.260552
-0.257322
-0.245303
-0.224415
-0.196084
-0.162882
-0.127858
-0.0948095
-0.0665003
-0.0440159
-0.0278037
-0.0178492
-0.0129894
-0.0115364
-0.0119299
-0.0130154
-0.0140479
-0.0144769
-0.0140658
-0.0131374
-0.0122492
-0.0114741
-0.01053
-0.00938647
-0.00830029
-0.0074374
-0.00680628
-0.00599258
-0.00480482
-0.00327362
-0.00161566
-0.000106632
0.0009819
0.00155287
0.00161007
0.00122714
0.000515171
-0.194219
-0.196286
-0.198239
-0.203419
-0.21286
-0.225849
-0.238972
-0.249594
-0.254779
-0.252673
-0.242323
-0.223288
-0.197086
-0.167047
-0.136026
-0.106749
-0.0819214
-0.0627665
-0.0492635
-0.0410276
-0.0368225
-0.0347934
-0.0334652
-0.0320105
-0.0301822
-0.0277621
-0.0245456
-0.0207846
-0.017284
-0.0143877
-0.0118797
-0.00954806
-0.00741929
-0.00559639
-0.00406359
-0.00270577
-0.00140261
-0.000103019
0.00106393
0.00192212
0.00238988
0.00244381
0.00210852
0.00144139
0.000519199
-0.229384
-0.207171
-0.204269
-0.20483
-0.21115
-0.22255
-0.234224
-0.242712
-0.245976
-0.242461
-0.231862
-0.214438
-0.191556
-0.166269
-0.14136
-0.118473
-0.0993624
-0.0858603
-0.0778005
-0.0731115
-0.0700707
-0.0672131
-0.0633073
-0.058018
-0.0519405
-0.0455915
-0.0384833
-0.0310171
-0.0239426
-0.0177943
-0.0128036
-0.00908886
-0.00635359
-0.00412772
-0.00201532
7.62872e-05
0.00199284
0.00346223
0.00432593
0.00459415
0.00438023
0.00379033
0.0029025
0.00183244
0.000612307
)
;

boundaryField
{
    inlet
    {
        type            zeroGradient;
    }
    outlet
    {
        type            fixedValue;
        value           uniform 0;
    }
    upperWall
    {
        type            zeroGradient;
    }
    lowerWall
    {
        type            zeroGradient;
    }
    frontAndBack
    {
        type            empty;
    }
}


// ************************************************************************* //
