/*--------------------------------*- C++ -*----------------------------------*\
  =========                 |
  \\      /  F ield         | OpenFOAM: The Open Source CFD Toolbox
   \\    /   O peration     | Website:  https://openfoam.org
    \\  /    A nd           | Version:  10
     \\/     M anipulation  |
\*---------------------------------------------------------------------------*/
FoamFile
{
    format      ascii;
    class       volScalarField;
    location    "9.175";
    object      p;
}
// * * * * * * * * * * * * * * * * * * * * * * * * * * * * * * * * * * * * * //

dimensions      [0 2 -2 0 0 0 0];

internalField   nonuniform List<scalar> 
400
(
4.8234e-08
-3.00601e-05
2.762e-05
0.000139808
0.000315068
0.000556616
0.000869614
0.00126077
0.00173698
0.00230371
0.0029628
0.00370952
0.004528
0.00538665
0.00623232
0.00699227
0.00758145
0.00793585
0.00806723
0.0079352
3.35237e-05
2.97713e-06
6.91378e-05
0.000184508
0.000359183
0.000597208
0.000904115
0.00128661
0.0017515
0.00230452
0.00294839
0.00367982
0.00448384
0.00533282
0.00617496
0.00693594
0.0075245
0.00787092
0.00799285
0.00784086
-3.84385e-05
-7.85363e-05
-1.41673e-05
9.62054e-05
0.000263381
0.000491563
0.00078682
0.00115683
0.00161001
0.00215469
0.00279707
0.00353808
0.00436903
0.00526841
0.00617787
0.00701163
0.00765301
0.00800336
0.00808421
0.00786178
-0.000193548
-0.000240239
-0.000180318
-7.87852e-05
7.5929e-05
0.000288317
0.000565244
0.000915808
0.00135082
0.00188252
0.00252318
0.00328159
0.00415775
0.00513036
0.00614933
0.00710934
0.00785079
0.0082102
0.00820703
0.00786359
-0.000441719
-0.000493764
-0.000441685
-0.000353593
-0.000217205
-2.76805e-05
0.000222723
0.000544717
0.000951929
0.00146126
0.00209253
0.00286589
0.00379404
0.00486885
0.00604545
0.00720061
0.00810963
0.00848504
0.0083313
0.00778648
-0.000781216
-0.000838355
-0.000797504
-0.000727805
-0.000616595
-0.000458972
-0.0002467
3.21422e-05
0.000393559
0.000858856
0.00145567
0.00221768
0.00317715
0.00434724
0.00571665
0.00715303
0.00834202
0.00875582
0.0083529
0.00747679
-0.00120572
-0.00126832
-0.00124206
-0.00119624
-0.00111831
-0.00100395
-0.000845491
-0.000631332
-0.000344901
3.72308e-05
0.000548131
0.00123318
0.00214936
0.00335235
0.0048671
0.00662346
0.0082446
0.00876797
0.0080498
0.00671709
-0.00170644
-0.00177516
-0.00176671
-0.00175039
-0.00171457
-0.0016565
-0.00157082
-0.00144901
-0.00127841
-0.00103967
-0.000703429
-0.000227453
0.000448249
0.00140866
0.00277046
0.00465943
0.00682719
0.00776462
0.00703124
0.00547822
-0.00227223
-0.00234773
-0.00235953
-0.00237749
-0.00239187
-0.00240297
-0.00241008
-0.00241144
-0.00240451
-0.0023855
-0.0023491
-0.00229214
-0.00223113
-0.00217171
-0.0019018
-0.0007544
0.00168056
0.00405261
0.00486499
0.00457817
-0.00288987
-0.00297248
-0.00300513
-0.00305972
-0.00312941
-0.00321918
-0.00333564
-0.00348824
-0.00369231
-0.00397392
-0.00437974
-0.00500403
-0.00607004
-0.0079109
-0.0104115
-0.0117896
-0.00982499
-0.00473172
0.000407818
0.00407308
-0.00354491
-0.00363454
-0.00368557
-0.00377496
-0.00389926
-0.00406985
-0.00430278
-0.00462232
-0.00506871
-0.0057121
-0.006682
-0.0082247
-0.0108551
-0.0154635
-0.0220455
-0.0276419
-0.0267911
-0.018766
-0.00886626
-0.000467317
-0.00422305
-0.00431832
-0.00437969
-0.00449527
-0.00466486
-0.00490713
-0.00524756
-0.00572525
-0.00640587
-0.0074044
-0.00893504
-0.0113985
-0.0155414
-0.0225373
-0.032354
-0.0410816
-0.0418201
-0.0330519
-0.0215864
-0.00989122
-0.00491489
-0.00501473
-0.00507364
-0.00519971
-0.00539485
-0.00568529
-0.00610364
-0.00669845
-0.00755053
-0.00879771
-0.0106929
-0.0136879
-0.0185872
-0.0264132
-0.0372209
-0.0464187
-0.0477772
-0.0396033
-0.0299293
-0.0181597
-0.00561093
-0.00570488
-0.00573241
-0.00584053
-0.00603331
-0.00634077
-0.00679526
-0.00744716
-0.0083775
-0.00971752
-0.0117124
-0.0147608
-0.019568
-0.0268033
-0.0364705
-0.0437417
-0.0454445
-0.038169
-0.0318806
-0.0210889
-0.00633733
-0.00643188
-0.00640242
-0.00646739
-0.00661621
-0.00689045
-0.00732243
-0.00795792
-0.00886817
-0.0101544
-0.0120119
-0.0147505
-0.0188521
-0.0245337
-0.0317294
-0.0368339
-0.0379476
-0.031777
-0.0286874
-0.0180393
-0.00717998
-0.00707584
-0.00690757
-0.00684012
-0.00691654
-0.00715068
-0.00755485
-0.00815328
-0.00899887
-0.0101373
-0.0117664
-0.0140249
-0.0171941
-0.0212231
-0.026085
-0.0290906
-0.0295065
-0.0240228
-0.0229303
-0.00871234
-0.00762797
-0.00801697
-0.007658
-0.00760058
-0.00752947
-0.00761081
-0.00785675
-0.00830114
-0.00899568
-0.00992318
-0.0112995
-0.0131354
-0.0155876
-0.0184657
-0.0217596
-0.0233723
-0.0231267
-0.0178082
-0.0153526
0.00934305
-0.0109998
-0.00843358
-0.00771456
-0.00702705
-0.00687166
-0.0069802
-0.00729744
-0.00778505
-0.00846891
-0.00935759
-0.0105773
-0.0121356
-0.0141674
-0.0163724
-0.0187018
-0.0193558
-0.0182522
-0.0113104
-0.00212066
0.0410667
-0.0075996
-0.0105392
-0.00933879
-0.0092425
-0.00869226
-0.00838519
-0.00827497
-0.00838456
-0.00876749
-0.00940826
-0.0104289
-0.0117805
-0.013722
-0.0158471
-0.0183384
-0.0187529
-0.0167994
-0.00303447
0.021649
0.0981218
-0.0328445
-0.0077002
-0.00604368
-0.00520524
-0.00493821
-0.00509164
-0.00554823
-0.00611943
-0.00689571
-0.00780065
-0.00906693
-0.0105245
-0.0123702
-0.0138637
-0.014683
-0.0111423
-0.000413753
0.0335671
0.099147
0.229402
)
;

boundaryField
{
    movingWall
    {
        type            zeroGradient;
    }
    fixedWalls
    {
        type            zeroGradient;
    }
    frontAndBack
    {
        type            empty;
    }
}


// ************************************************************************* //
