/*--------------------------------*- C++ -*----------------------------------*\
  =========                 |
  \\      /  F ield         | OpenFOAM: The Open Source CFD Toolbox
   \\    /   O peration     | Website:  https://openfoam.org
    \\  /    A nd           | Version:  10
     \\/     M anipulation  |
\*---------------------------------------------------------------------------*/
FoamFile
{
    format      ascii;
    class       volVectorField;
    location    "8.6";
    object      U;
}
// * * * * * * * * * * * * * * * * * * * * * * * * * * * * * * * * * * * * * //

dimensions      [0 1 -1 0 0 0 0];

internalField   nonuniform List<vector> 
400
(
(-0.000159151 0.0001403 0)
(-0.00118763 0.000440985 0)
(-0.00292644 0.000550506 0)
(-0.0047118 0.000586995 0)
(-0.00656141 0.000606681 0)
(-0.0084369 0.000627456 0)
(-0.0103246 0.000648522 0)
(-0.0122016 0.000662227 0)
(-0.0140221 0.0006577 0)
(-0.0157113 0.000620965 0)
(-0.0171605 0.000535253 0)
(-0.0182208 0.000382858 0)
(-0.0187079 0.000149915 0)
(-0.0184106 -0.000178896 0)
(-0.0171292 -0.000586537 0)
(-0.014741 -0.00102413 0)
(-0.0113072 -0.00139152 0)
(-0.00723036 -0.00154325 0)
(-0.00285158 -0.00131184 0)
(-0.00029716 -0.000447488 0)
(-0.000513073 0.00121103 0)
(-0.00267231 0.00252066 0)
(-0.00598147 0.00301111 0)
(-0.00937708 0.00317407 0)
(-0.0128558 0.00322941 0)
(-0.0163292 0.003249 0)
(-0.0197466 0.00323345 0)
(-0.0230474 0.00315496 0)
(-0.0261394 0.002972 0)
(-0.0288901 0.00263241 0)
(-0.0311188 0.00207682 0)
(-0.0325925 0.00124432 0)
(-0.0330451 8.41709e-05 0)
(-0.0321747 -0.00140986 0)
(-0.0296986 -0.00316043 0)
(-0.0254648 -0.00496296 0)
(-0.0195953 -0.00643377 0)
(-0.0127041 -0.00701671 0)
(-0.00535459 -0.0060797 0)
(-0.000798306 -0.00265868 0)
(-0.000671177 0.00313788 0)
(-0.00336275 0.00591892 0)
(-0.00740709 0.00695335 0)
(-0.0115271 0.00728058 0)
(-0.0157208 0.00735062 0)
(-0.019882 0.00731097 0)
(-0.0239501 0.00716808 0)
(-0.0278569 0.0068713 0)
(-0.0315019 0.00634174 0)
(-0.0347422 0.0054798 0)
(-0.0373832 0.00417228 0)
(-0.0391742 0.00230596 0)
(-0.0397996 -0.000208687 0)
(-0.0388876 -0.00338016 0)
(-0.0360697 -0.00706414 0)
(-0.0310835 -0.0108547 0)
(-0.0239837 -0.0139725 0)
(-0.0154876 -0.0152229 0)
(-0.00633795 -0.0132542 0)
(-0.00083613 -0.0061199 0)
(-0.000723213 0.00520196 0)
(-0.00363806 0.00956392 0)
(-0.00800918 0.0111572 0)
(-0.0124457 0.0116366 0)
(-0.0169607 0.0117099 0)
(-0.0214501 0.0116065 0)
(-0.025864 0.011341 0)
(-0.0301485 0.010842 0)
(-0.0342196 0.00999504 0)
(-0.03795 0.00865096 0)
(-0.0411518 0.00663315 0)
(-0.0435622 0.00375659 0)
(-0.0448305 -0.000131687 0)
(-0.0444863 -0.00508761 0)
(-0.0419727 -0.0109647 0)
(-0.0367704 -0.0171732 0)
(-0.0286712 -0.0224579 0)
(-0.0184094 -0.0247102 0)
(-0.00700815 -0.0214319 0)
(-0.000598712 -0.00961613 0)
(-0.000726114 0.00735519 0)
(-0.00371891 0.0133879 0)
(-0.00823351 0.015569 0)
(-0.0128194 0.0162137 0)
(-0.0175073 0.0163093 0)
(-0.0222071 0.0161758 0)
(-0.0268932 0.0158406 0)
(-0.0315421 0.015216 0)
(-0.0361059 0.0141536 0)
(-0.0404949 0.0124516 0)
(-0.0445516 0.00985595 0)
(-0.0480153 0.0060732 0)
(-0.0504809 0.000820749 0)
(-0.05137 -0.00607955 0)
(-0.0498648 -0.0145824 0)
(-0.044987 -0.0239944 0)
(-0.0359542 -0.0324994 0)
(-0.0231666 -0.0365883 0)
(-0.00798057 -0.0315525 0)
(-9.58914e-05 -0.0132766 0)
(-0.000708305 0.0095196 0)
(-0.00371576 0.0172837 0)
(-0.00829623 0.0200833 0)
(-0.012965 0.020918 0)
(-0.01777 0.0210734 0)
(-0.0226415 0.0209718 0)
(-0.0275882 0.0206623 0)
(-0.0326309 0.0200488 0)
(-0.0377771 0.018955 0)
(-0.0430023 0.0171274 0)
(-0.0482159 0.014223 0)
(-0.053203 0.0098061 0)
(-0.0575514 0.00338372 0)
(-0.0606 -0.00550308 0)
(-0.0612477 -0.0170817 0)
(-0.0578541 -0.0308101 0)
(-0.048467 -0.0444197 0)
(-0.03212 -0.0523329 0)
(-0.0102508 -0.0450193 0)
(0.000700116 -0.0171717 0)
(-0.000679689 0.0116579 0)
(-0.00367112 0.0211984 0)
(-0.00827924 0.0246476 0)
(-0.0129938 0.025701 0)
(-0.0178778 0.0259617 0)
(-0.0228854 0.0259682 0)
(-0.0280665 0.0258047 0)
(-0.0334995 0.0253813 0)
(-0.0392687 0.0245088 0)
(-0.0454502 0.0228927 0)
(-0.0520771 0.0201029 0)
(-0.0590708 0.0155397 0)
(-0.0661498 0.00842234 0)
(-0.0727326 -0.00213348 0)
(-0.0775823 -0.0168758 0)
(-0.0782149 -0.0361854 0)
(-0.0703587 -0.0580915 0)
(-0.0494561 -0.074297 0)
(-0.0167399 -0.0647966 0)
(0.00139125 -0.022305 0)
(-0.000642403 0.0137501 0)
(-0.00359708 0.0251047 0)
(-0.0082043 0.0292309 0)
(-0.0129259 0.0305261 0)
(-0.0178375 0.0309318 0)
(-0.0229163 0.0311204 0)
(-0.0282562 0.031229 0)
(-0.0340027 0.0311959 0)
(-0.0403387 0.0308487 0)
(-0.047482 0.029889 0)
(-0.0556682 0.0278379 0)
(-0.0651064 0.0239659 0)
(-0.0758865 0.0172278 0)
(-0.087831 0.00620364 0)
(-0.100132 -0.0110403 0)
(-0.109086 -0.03699 0)
(-0.105669 -0.072445 0)
(-0.0793897 -0.105305 0)
(-0.0338765 -0.096276 0)
(-9.62498e-07 -0.0321906 0)
(-0.000597799 0.0157797 0)
(-0.00349998 0.0289803 0)
(-0.00807911 0.0337996 0)
(-0.0127584 0.0353424 0)
(-0.0176216 0.0359125 0)
(-0.0226645 0.0363365 0)
(-0.0280216 0.0368255 0)
(-0.0339049 0.0373755 0)
(-0.0406034 0.0378749 0)
(-0.0485078 0.0380894 0)
(-0.0581337 0.037597 0)
(-0.070144 0.0357009 0)
(-0.0853986 0.0313137 0)
(-0.104851 0.0225197 0)
(-0.128047 0.00507915 0)
(-0.148682 -0.0290499 0)
(-0.150483 -0.086401 0)
(-0.119833 -0.146489 0)
(-0.0686832 -0.144572 0)
(-0.00825074 -0.054838 0)
(-0.000550399 0.0177352 0)
(-0.0033949 0.0328069 0)
(-0.00792388 0.038315 0)
(-0.0125019 0.0400812 0)
(-0.0172165 0.0407979 0)
(-0.0220728 0.0414678 0)
(-0.0272344 0.0423985 0)
(-0.0329657 0.0436768 0)
(-0.0396461 0.0453069 0)
(-0.0478273 0.0472148 0)
(-0.0583192 0.0492074 0)
(-0.0723156 0.050905 0)
(-0.0916149 0.0515078 0)
(-0.11852 0.0484238 0)
(-0.152519 0.0327336 0)
(-0.182058 -0.0131074 0)
(-0.185713 -0.101162 0)
(-0.158026 -0.192211 0)
(-0.114225 -0.206683 0)
(-0.0270289 -0.103805 0)
(-0.000510716 0.0196198 0)
(-0.00331521 0.0365776 0)
(-0.00778822 0.0427338 0)
(-0.0122041 0.0446527 0)
(-0.0166535 0.0454436 0)
(-0.0211375 0.0463036 0)
(-0.0258282 0.0476525 0)
(-0.0310088 0.0496934 0)
(-0.037096 0.0525981 0)
(-0.0447234 0.0565549 0)
(-0.0548777 0.0617929 0)
(-0.0690672 0.0685232 0)
(-0.0895013 0.0762278 0)
(-0.118887 0.0804329 0)
(-0.154929 0.0651058 0)
(-0.183835 0.00462123 0)
(-0.186678 -0.111046 0)
(-0.168735 -0.228954 0)
(-0.139161 -0.277443 0)
(-0.0460849 -0.195056 0)
(-0.00050094 0.0214717 0)
(-0.00332866 0.0403363 0)
(-0.00777169 0.0470659 0)
(-0.0119703 0.0490135 0)
(-0.0160327 0.049733 0)
(-0.0199445 0.0506348 0)
(-0.0238627 0.0522571 0)
(-0.0280396 0.0549232 0)
(-0.0328383 0.058991 0)
(-0.0388081 0.0649546 0)
(-0.0468018 0.073527 0)
(-0.0580506 0.0854594 0)
(-0.0739451 0.099926 0)
(-0.0962441 0.109367 0)
(-0.121712 0.0920555 0)
(-0.140609 0.0194254 0)
(-0.143216 -0.110279 0)
(-0.136247 -0.248035 0)
(-0.126607 -0.338511 0)
(-0.0482916 -0.302968 0)
(-0.000551933 0.0233423 0)
(-0.00351915 0.0440452 0)
(-0.00800884 0.0511277 0)
(-0.0119706 0.0528796 0)
(-0.0155496 0.053334 0)
(-0.0187037 0.0540789 0)
(-0.0215647 0.0557248 0)
(-0.0243086 0.0586815 0)
(-0.0271476 0.0634317 0)
(-0.0303702 0.0706592 0)
(-0.0343737 0.081326 0)
(-0.039592 0.0962669 0)
(-0.046121 0.114104 0)
(-0.0547031 0.125099 0)
(-0.0639969 0.106333 0)
(-0.0697814 0.0288029 0)
(-0.0734207 -0.101211 0)
(-0.076553 -0.243935 0)
(-0.0938054 -0.364584 0)
(-0.0356386 -0.381388 0)
(-0.000768769 0.025554 0)
(-0.00417244 0.0483295 0)
(-0.008822 0.0556915 0)
(-0.0124477 0.0570365 0)
(-0.0153955 0.0568491 0)
(-0.0176467 0.0569819 0)
(-0.0192811 0.0581371 0)
(-0.020361 0.0607686 0)
(-0.0209205 0.0653824 0)
(-0.0209318 0.0726603 0)
(-0.0203005 0.0835132 0)
(-0.0185966 0.0984872 0)
(-0.0151196 0.116061 0)
(-0.00948384 0.126336 0)
(-0.00391898 0.108305 0)
(0.00136815 0.0328361 0)
(-0.00747689 -0.0886215 0)
(-0.0216804 -0.222282 0)
(-0.0641605 -0.365369 0)
(-0.0217228 -0.434659 0)
(-0.00111353 0.0282762 0)
(-0.00498203 0.0518464 0)
(-0.0101219 0.0584642 0)
(-0.0136721 0.0586771 0)
(-0.0161704 0.0577483 0)
(-0.0174962 0.0573743 0)
(-0.0177948 0.0580854 0)
(-0.0170925 0.0601918 0)
(-0.0152991 0.0640975 0)
(-0.0121314 0.0703357 0)
(-0.00719785 0.0795633 0)
(0.000554985 0.0919319 0)
(0.0119326 0.106116 0)
(0.0281688 0.113762 0)
(0.0427617 0.0981166 0)
(0.0551946 0.0330887 0)
(0.0416723 -0.0723075 0)
(0.022276 -0.188553 0)
(-0.0415367 -0.350416 0)
(-0.00995751 -0.47071 0)
(-0.00319573 0.0305251 0)
(-0.00942558 0.0590109 0)
(-0.0138783 0.0655141 0)
(-0.0163507 0.0651004 0)
(-0.0174428 0.0624089 0)
(-0.0175048 0.0601785 0)
(-0.016532 0.0590588 0)
(-0.0143658 0.0593554 0)
(-0.0107246 0.0613461 0)
(-0.00513429 0.0653233 0)
(0.00290318 0.0716595 0)
(0.014678 0.0801841 0)
(0.0303277 0.0896237 0)
(0.0514227 0.0937579 0)
(0.0697944 0.0814652 0)
(0.0866655 0.0330767 0)
(0.0707684 -0.0496361 0)
(0.0511736 -0.145897 0)
(-0.0263147 -0.327217 0)
(0.00276709 -0.492909 0)
(-0.000959976 0.0439623 0)
(-0.00769696 0.0605036 0)
(-0.0171769 0.0627783 0)
(-0.0196701 0.0588675 0)
(-0.0211137 0.0557999 0)
(-0.020398 0.0537828 0)
(-0.0182539 0.052759 0)
(-0.014558 0.0526334 0)
(-0.00911871 0.0535329 0)
(-0.0014297 0.0555481 0)
(0.00895475 0.0590665 0)
(0.0231465 0.063775 0)
(0.0405464 0.0686709 0)
(0.0634855 0.0698035 0)
(0.0817953 0.0606709 0)
(0.101093 0.0286696 0)
(0.0836758 -0.0302879 0)
(0.0676136 -0.105867 0)
(-0.00908686 -0.303468 0)
(0.0218039 -0.502582 0)
(-0.0125601 0.0322395 0)
(-0.023275 0.0803669 0)
(-0.0212714 0.0803652 0)
(-0.0256472 0.0753899 0)
(-0.0256028 0.067986 0)
(-0.0237446 0.061879 0)
(-0.0197992 0.0570084 0)
(-0.0139516 0.053292 0)
(-0.00626467 0.0507407 0)
(0.00371044 0.0491455 0)
(0.0159326 0.0487678 0)
(0.0313281 0.0491165 0)
(0.0484241 0.0504813 0)
(0.0705548 0.0499314 0)
(0.0855768 0.0457233 0)
(0.106606 0.0296119 0)
(0.0935731 -0.00583047 0)
(0.101337 -0.0656654 0)
(0.0400945 -0.274401 0)
(0.0577113 -0.490102 0)
(-0.0776446 0.0958998 0)
(-0.0632563 0.0587914 0)
(-0.0653023 0.0599667 0)
(-0.0428424 0.0533341 0)
(-0.0251107 0.0463666 0)
(-0.00452876 0.0412022 0)
(0.0149035 0.0374399 0)
(0.034712 0.0342502 0)
(0.0531018 0.0319462 0)
(0.0731095 0.0298639 0)
(0.0905665 0.02871 0)
(0.112864 0.027663 0)
(0.128623 0.0270693 0)
(0.15769 0.0261122 0)
(0.167709 0.0209084 0)
(0.203089 0.0120809 0)
(0.192038 -0.021207 0)
(0.223357 -0.0743218 0)
(0.154396 -0.251909 0)
(0.124991 -0.433518 0)
(0.119391 0.140767 0)
(0.152001 0.0860798 0)
(0.22844 0.0635032 0)
(0.283903 0.048046 0)
(0.325322 0.0374158 0)
(0.363634 0.0296565 0)
(0.392345 0.0242262 0)
(0.42356 0.0201812 0)
(0.443501 0.0172828 0)
(0.472089 0.0149823 0)
(0.484909 0.013284 0)
(0.514321 0.0119713 0)
(0.519828 0.0108466 0)
(0.552171 0.00965572 0)
(0.547258 0.00764678 0)
(0.579502 0.00323175 0)
(0.54819 -0.00585277 0)
(0.553752 -0.0271598 0)
(0.420087 -0.0732268 0)
(0.275259 -0.151993 0)
)
;

boundaryField
{
    movingWall
    {
        type            fixedValue;
        value           uniform (1 0 0);
    }
    fixedWalls
    {
        type            noSlip;
    }
    frontAndBack
    {
        type            empty;
    }
}


// ************************************************************************* //
