/*--------------------------------*- C++ -*----------------------------------*\
  =========                 |
  \\      /  F ield         | OpenFOAM: The Open Source CFD Toolbox
   \\    /   O peration     | Website:  https://openfoam.org
    \\  /    A nd           | Version:  10
     \\/     M anipulation  |
\*---------------------------------------------------------------------------*/
FoamFile
{
    format      ascii;
    class       volVectorField;
    location    "7.175";
    object      U;
}
// * * * * * * * * * * * * * * * * * * * * * * * * * * * * * * * * * * * * * //

dimensions      [0 1 -1 0 0 0 0];

internalField   nonuniform List<vector> 
496
(
(9.9145 0.0928457 0)
(9.96551 -0.23243 0)
(10.2755 -0.07155 0)
(10.911 -0.250648 0)
(9.97083 0.50793 0)
(9.83437 -1.39467 0)
(10.3175 -0.22064 0)
(10.9119 -1.24485 0)
(10.8328 1.37165 0)
(9.02454 -3.15169 0)
(11.4005 -0.0635436 0)
(10.786 -4.40158 0)
(11.612 1.64042 0)
(8.42506 -2.79232 0)
(12.4512 0.897082 0)
(10.4915 -6.88853 0)
(11.5124 -0.227068 1.95148e-18)
(12.2525 -0.197171 6.48761e-19)
(11.7123 -0.447927 -2.02681e-18)
(12.6082 0.175448 3.27188e-18)
(13.173 -2.11009 7.33744e-20)
(13.3976 -0.573911 -3.92126e-18)
(12.9068 -5.33956 -4.23298e-17)
(15.9884 -4.67804 7.1007e-17)
(12.8159 -0.183364 0)
(13.1389 -0.178686 0)
(13.3406 -0.0770555 0)
(13.297 0.00170053 0)
(13.1915 0.139096 0)
(13.6616 -0.179096 0)
(13.9378 -0.534029 0)
(14.0334 -0.649605 0)
(12.7794 0.696413 0)
(13.0685 1.0871 0)
(13.1427 0.570669 0)
(13.7556 0.233948 0)
(10.1199 -2.69443 0)
(10.4547 -1.9151 0)
(8.50582 -1.20148 0)
(7.75187 0.0389405 0)
(13.3741 0.131836 0)
(13.299 0.254359 0)
(13.3316 0.274168 0)
(13.1664 0.403566 0)
(13.0542 0.375471 0)
(12.6624 0.410209 0)
(12.2956 0.395372 0)
(11.9329 0.395335 0)
(11.7848 0.329413 0)
(11.7945 0.22768 0)
(11.8355 0.166851 0)
(11.943 0.0353099 0)
(12.0249 0.0415692 0)
(12.2131 0.00385795 0)
(12.4317 0.0956361 0)
(12.608 0.0944802 0)
(12.7444 0.165853 0)
(12.5877 0.210441 0)
(12.4485 0.266347 0)
(11.9302 0.365609 0)
(11.6409 0.405247 0)
(11.128 0.553402 0)
(10.9197 0.49906 0)
(10.6466 0.530076 0)
(10.577 0.374201 0)
(10.7587 0.320526 0)
(10.8878 0.260286 0)
(11.3055 0.212357 0)
(11.3195 0.302935 0)
(11.532 0.300131 0)
(11.3156 0.481085 0)
(11.0796 0.479792 0)
(10.7295 0.59086 0)
(10.1329 0.616147 0)
(9.98752 0.567893 0)
(9.46457 0.544296 0)
(9.56678 0.316555 0)
(9.54042 0.253998 0)
(9.70753 0.0900414 0)
(10.2285 0.0631188 0)
(14.1557 -0.553816 0)
(14.097 -0.322156 0)
(14.1533 -0.180428 0)
(14.05 0.122802 0)
(13.8782 0.144919 0)
(13.6034 0.195167 0)
(13.2604 0.0968017 0)
(12.9114 0.0808932 0)
(12.7136 0.0159184 0)
(12.6992 -0.0755813 0)
(12.772 -0.156534 0)
(12.8776 -0.416946 0)
(13.0814 -0.428239 0)
(13.3042 -0.500002 0)
(13.5668 -0.302849 0)
(13.7561 -0.242501 0)
(13.9356 -0.082408 0)
(13.9016 0.0913915 0)
(13.7684 0.23761 0)
(13.4204 0.412824 0)
(13.0843 0.254407 0)
(12.7374 0.211124 0)
(12.3672 -0.174012 0)
(12.1662 -0.287952 0)
(11.9614 -0.55835 0)
(12.1246 -0.660549 0)
(12.2414 -0.665364 0)
(12.5582 -0.672606 0)
(12.7679 -0.366083 0)
(12.9292 -0.25524 0)
(12.9988 0.122625 0)
(12.7456 0.171863 0)
(12.6504 0.311063 0)
(12.2466 0.160639 0)
(12.0186 -0.0428101 0)
(11.6831 -0.10085 0)
(11.3674 -0.465145 0)
(11.4588 -0.361198 0)
(11.3113 -0.680319 0)
(11.807 -0.559098 0)
(14.0279 0.0279793 0)
(14.3281 0.0544461 0)
(14.2676 0.207489 0)
(14.4994 0.511857 0)
(14.1055 0.633576 0)
(14.0054 0.924264 0)
(13.7699 0.792641 0)
(13.5359 0.698356 0)
(13.5651 0.532906 0)
(13.2965 0.188886 0)
(13.3348 -0.0683184 0)
(12.8269 -0.432558 0)
(13.0989 -0.365662 0)
(12.9795 -0.527978 0)
(13.3503 -0.318351 0)
(13.4297 -0.293734 0)
(13.7286 -0.0521266 0)
(14.1688 0.385383 0)
(14.2846 0.680633 0)
(14.5005 1.30689 0)
(14.0482 1.41125 0)
(13.9317 1.79516 0)
(13.3086 1.4099 0)
(13.2001 1.05727 0)
(12.8635 0.32709 0)
(12.6655 -0.251673 0)
(12.7723 -0.370665 0)
(12.5923 -0.670912 0)
(13.0497 -0.143421 0)
(12.8799 -0.198824 0)
(13.3607 0.478552 0)
(13.2174 0.695177 0)
(13.2845 1.13782 0)
(12.9386 1.51285 0)
(12.4825 1.31475 0)
(12.3316 1.38128 0)
(11.7422 0.431797 0)
(11.8575 0.154417 0)
(11.4407 -0.581142 0)
(11.5423 -0.671746 0)
(9.50254 0.0168368 0)
(8.55954 -0.193645 0)
(9.46507 0.0674563 0)
(9.52632 -0.172685 0)
(9.478 -0.0950957 0)
(9.58362 0.562307 0)
(8.67517 0.65235 0)
(8.92784 0.849415 0)
(7.82383 0.910995 0)
(7.44985 0.730395 0)
(6.94525 0.424847 0)
(6.55868 -0.00509907 0)
(6.91226 -0.285109 0)
(6.88972 -0.52201 0)
(7.60764 -0.755091 0)
(7.60268 -0.92197 0)
(8.77487 -0.813252 0)
(9.61298 -0.695264 0)
(10.2068 -0.473403 0)
(11.4207 -0.128215 0)
(11.5145 0.125897 0)
(12.7264 0.376026 0)
(12.0754 0.342859 0)
(12.2806 0.332423 0)
(11.0027 0.222081 0)
(10.3628 0.127634 0)
(9.71104 -0.00213915 0)
(9.0031 -0.286055 0)
(9.566 -0.348551 0)
(9.1228 -0.506147 0)
(10.3012 -0.191419 0)
(10.4494 -0.021839 0)
(11.2685 0.281086 0)
(11.885 0.520152 0)
(11.9066 0.47003 0)
(12.4411 0.51141 0)
(11.3849 0.28496 0)
(11.2731 0.345658 0)
(9.82328 0.205976 0)
(9.27114 -0.158908 0)
(12.613 0.476195 -1.00825e-17)
(7.77728 -0.720357 -1.72406e-17)
(11.8033 -0.321198 2.99854e-17)
(4.92809 -4.62512 -8.14613e-17)
(11.952 -0.624415 1.03035e-17)
(8.18393 0.740705 1.76742e-17)
(11.1573 -0.0705863 -3.06985e-17)
(4.82631 4.48684 8.29503e-17)
(-3.50004 1.91844 0)
(3.20877 4.45579 0)
(-8.72372 -1.6992 0)
(4.20243 -1.02979 0)
(-2.03426 -1.97879 3.04582e-17)
(-2.28938 2.91844 0)
(6.94697 -2.03202 0)
(-3.70157 -3.4376 0)
(-0.581559 0.0934028 0)
(-1.85954 -1.3518 0)
(1.0473 0.423305 0)
(0.16797 1.11303 0)
(-2.19114 0.196369 0)
(1.37368 0.619876 0)
(0.617172 1.25376 0)
(0.453161 1.22979 0)
(0.907524 0.901358 0)
(1.04225 0.44638 0)
(1.26623 -0.105735 0)
(1.46958 -0.682147 0)
(1.90928 -0.536668 0)
(1.85127 -0.834076 0)
(1.22542 -1.28921 0)
(1.85779 -1.30604 0)
(2.59943 -1.13461 0)
(2.77029 -0.862815 0)
(3.14963 -0.511873 0)
(3.44582 0.108414 0)
(3.56163 0.729559 0)
(3.8505 1.30846 0)
(3.1931 1.51576 0)
(3.16906 1.51347 0)
(2.95051 1.22127 0)
(2.7761 0.643886 0)
(3.14111 0.141162 0)
(3.55857 -0.432104 0)
(3.51095 -0.747442 0)
(4.16953 -0.816669 0)
(4.76426 -0.637709 0)
(4.96032 -0.228978 0)
(5.50253 0.213929 0)
(5.4586 0.660147 0)
(5.40106 0.907873 0)
(5.14215 1.25805 0)
(5.02827 1.21213 0)
(4.67999 1.12804 0)
(4.48826 0.326236 0)
(4.93904 -0.359548 0)
(-0.630397 3.18646 0)
(0.61437 -1.16477 0)
(-1.27823 -1.54313 0)
(-0.0504853 0.924509 0)
(0.660033 -0.146627 0)
(1.26208 -1.17879 0)
(-0.0107677 0.795111 0)
(1.66194 0.869979 0)
(3.138 0.384385 0)
(3.21669 0.203457 0)
(3.60425 0.178705 0)
(3.38352 0.061553 0)
(3.26243 -0.327424 0)
(3.59242 -0.720282 0)
(2.75804 -1.04708 0)
(2.4157 -1.50324 0)
(1.85364 -1.64096 0)
(1.57234 -1.45151 0)
(1.19611 -0.946543 0)
(1.32267 -0.240423 0)
(1.35843 0.266013 0)
(1.76272 0.81018 0)
(1.89944 0.990677 0)
(2.37084 0.861873 0)
(2.71217 0.677639 0)
(3.09466 0.174525 0)
(3.66528 -0.500068 0)
(3.57576 -0.935979 0)
(3.45395 -1.02997 0)
(3.54572 -1.27694 0)
(3.41395 -0.952406 0)
(3.46597 -0.491059 0)
(3.73004 -0.0744695 0)
(3.76821 0.553154 0)
(3.97635 0.992375 0)
(4.59901 1.0963 0)
(5.00621 0.906795 0)
(5.10496 0.895341 0)
(6.08053 0.250242 0)
(5.88561 -0.385243 0)
(12.4 -1.43101 0)
(7.87598 2.42127 0)
(13.0302 -0.6269 0)
(9.99276 6.29783 0)
(11.0196 -1.37764 0)
(8.96119 2.93617 0)
(11.2165 0.00111953 0)
(10.643 4.02899 0)
(10.1316 -0.501217 0)
(9.72666 1.30102 0)
(10.338 0.334763 0)
(10.8376 1.17022 0)
(10.0057 -0.100936 0)
(9.87336 0.203638 0)
(10.2543 0.143047 0)
(10.8165 0.195879 0)
(13.0686 5.3411 3.30987e-17)
(15.3793 4.26755 -6.03415e-17)
(12.7862 2.05233 0)
(13.0562 0.54712 0)
(11.6351 0.600509 0)
(12.5438 9.72028e-05 0)
(11.4864 0.285094 0)
(12.1847 0.173396 0)
(10.7219 3.11831 0)
(10.5592 1.82107 0)
(8.66476 0.283495 0)
(11.8747 0.64942 0)
(12.6112 -0.573106 0)
(12.8188 -0.571227 0)
(13.2519 -0.427253 0)
(13.6363 -0.76456 0)
(13.1298 0.0355294 0)
(13.648 0.327019 0)
(13.9065 0.474082 0)
(14.0304 0.493083 0)
(12.8197 0.21774 0)
(13.1716 0.141707 0)
(13.3682 0.0652812 0)
(13.3866 -0.0642331 0)
(9.7228 0.555591 0)
(10.1009 0.296588 0)
(10.3249 0.116509 0)
(10.0885 0.262307 0)
(9.2731 0.082677 0)
(10.1255 -0.0671795 0)
(9.79927 0.25707 0)
(9.71486 0.225318 0)
(10.4717 -0.0647854 0)
(11.0031 -0.358411 0)
(11.6169 -0.527844 0)
(11.8911 -0.554244 0)
(12.4611 -0.49732 0)
(13.0693 -0.404406 0)
(13.0654 -0.369711 0)
(13.2478 -0.279584 0)
(12.1969 -0.24544 0)
(11.2147 -0.232759 0)
(9.2784 -0.180064 0)
(8.17792 0.00460952 0)
(7.47653 0.250256 0)
(6.95975 0.550986 0)
(7.82503 0.644522 0)
(7.65 0.685483 0)
(8.99129 0.444021 0)
(9.17097 0.165399 0)
(9.97036 -0.118127 0)
(10.459 -0.338602 0)
(9.85603 -0.344144 0)
(10.1173 -0.434197 0)
(8.64984 -0.324928 0)
(8.73147 -0.297267 0)
(7.86998 -0.136635 0)
(7.78162 0.225858 0)
(8.19549 0.361744 0)
(8.0244 0.621069 0)
(9.4467 0.374045 0)
(9.57163 0.333295 0)
(10.5999 -0.0419623 0)
(11.4149 -0.294454 0)
(13.759 -0.557518 0)
(13.5673 -0.455082 0)
(13.697 -0.510579 0)
(13.4948 -0.336142 0)
(13.4723 -0.25415 0)
(13.4115 -0.244514 0)
(13.5005 -0.314293 0)
(13.4844 -0.2765 0)
(13.4842 -0.491502 0)
(13.5505 -0.750014 0)
(13.2596 -0.93883 0)
(13.2433 -0.963897 0)
(12.8035 -0.869818 0)
(12.6122 -1.03613 0)
(11.9273 -0.85775 0)
(11.7837 -0.721875 0)
(11.5332 -0.127175 0)
(11.4745 0.404749 0)
(11.5878 0.817234 0)
(11.4302 1.09338 0)
(11.8798 0.859823 0)
(11.714 0.902765 0)
(12.308 0.357525 0)
(12.3757 0.155349 0)
(12.8115 -0.450556 0)
(12.9398 -0.852931 0)
(12.8033 -1.04281 0)
(12.9248 -1.36672 0)
(12.532 -0.946596 0)
(12.813 -0.929414 0)
(12.4161 -0.231656 0)
(12.4612 -0.028199 0)
(12.314 0.217011 0)
(12.2502 0.405548 0)
(12.5435 0.029815 0)
(12.4772 0.310904 0)
(13.0526 -0.469228 0)
(13.0604 -0.365952 0)
(13.4613 -1.05555 0)
(13.1297 -1.27526 0)
(14.0035 0.39418 0)
(13.903 0.386556 0)
(13.8168 0.302258 0)
(13.7213 0.310202 0)
(13.6414 0.222668 0)
(13.5933 0.266243 0)
(13.6549 0.156761 0)
(13.5311 0.132809 0)
(13.4274 0.0338543 0)
(13.266 -0.0401857 0)
(13.1859 -0.0358474 0)
(13.0105 -0.0369442 0)
(12.7568 0.0814202 0)
(12.5011 -0.0147307 0)
(12.1369 0.124828 0)
(11.9987 0.108622 0)
(11.9025 0.299092 0)
(12.0792 0.43213 0)
(12.2483 0.586529 0)
(12.5566 0.681622 0)
(12.8832 0.537521 0)
(13.1948 0.475841 0)
(13.5187 0.179794 0)
(13.6324 0.0292011 0)
(13.6868 -0.261021 0)
(13.4891 -0.384423 0)
(13.3015 -0.379554 0)
(12.9767 -0.333276 0)
(12.6342 -0.0566671 0)
(12.4129 -0.0555879 0)
(12.1595 0.235523 0)
(12.2818 0.235586 0)
(12.2008 0.423844 0)
(12.5085 0.411909 0)
(12.5444 0.308775 0)
(12.7804 0.220596 0)
(12.8279 -0.0890835 0)
(12.5957 -0.186597 0)
(12.6371 -0.429483 0)
(12.0452 -0.168188 0)
(13.3669 -0.209987 0)
(13.3287 -0.274033 0)
(13.2504 -0.341369 0)
(13.1769 -0.335419 0)
(13.1213 -0.382944 0)
(13.0582 -0.302655 0)
(13.0223 -0.373189 0)
(12.9145 -0.370288 0)
(12.8067 -0.387765 0)
(12.5072 -0.402004 0)
(12.3766 -0.473537 0)
(12.1063 -0.579424 0)
(11.9537 -0.548136 0)
(11.555 -0.5815 0)
(11.3157 -0.45773 0)
(11.0844 -0.407168 0)
(11.126 -0.257634 0)
(11.3093 -0.164954 0)
(11.5219 -0.0750393 0)
(11.8597 0.00494555 0)
(12.1044 -0.0407566 0)
(12.4725 -0.0151878 0)
(12.6032 -0.128804 0)
(12.6461 -0.154768 0)
(12.4522 -0.275463 0)
(12.0836 -0.327426 0)
(11.7605 -0.392202 0)
(11.2286 -0.455877 0)
(10.9935 -0.403839 0)
(10.6205 -0.414367 0)
(10.5866 -0.26095 0)
(10.576 -0.235881 0)
(10.6074 -0.164957 0)
(10.9014 -0.150877 0)
(10.8466 -0.231132 0)
(11.1105 -0.216981 0)
(10.8651 -0.404238 0)
(10.7123 -0.362977 0)
(10.4039 -0.517707 0)
(9.70854 -0.523999 0)
)
;

boundaryField
{
    inlet
    {
        type            fixedValue;
        value           uniform (10 0 0);
    }
    outlet
    {
        type            zeroGradient;
    }
    obstacle
    {
        type            noSlip;
    }
    upperWall
    {
        type            noSlip;
    }
    lowerWall
    {
        type            noSlip;
    }
    frontAndBack
    {
        type            empty;
    }
}


// ************************************************************************* //
