/*--------------------------------*- C++ -*----------------------------------*\
  =========                 |
  \\      /  F ield         | OpenFOAM: The Open Source CFD Toolbox
   \\    /   O peration     | Website:  https://openfoam.org
    \\  /    A nd           | Version:  10
     \\/     M anipulation  |
\*---------------------------------------------------------------------------*/
FoamFile
{
    format      ascii;
    class       surfaceScalarField;
    location    "9.925";
    object      phi;
}
// * * * * * * * * * * * * * * * * * * * * * * * * * * * * * * * * * * * * * //

dimensions      [0 3 -1 0 0 0 0];

internalField   nonuniform List<scalar> 
22800
(
-3.2178e-06
4.38989e-06
-1.16481e-06
-1.02609e-05
7.89866e-06
-8.55576e-07
-1.86914e-05
9.08494e-06
-6.54418e-07
-2.779e-05
9.64767e-06
-5.49083e-07
-3.73132e-05
1.01075e-05
-5.84306e-07
-4.71962e-05
1.06143e-05
-7.31242e-07
-5.73655e-05
1.11581e-05
-9.88794e-07
-6.76395e-05
1.16607e-05
-1.38666e-06
-7.76683e-05
1.20023e-05
-1.9735e-06
-8.68819e-05
1.20238e-05
-2.81019e-06
-9.44555e-05
1.15341e-05
-3.9605e-06
-9.93069e-05
1.03277e-05
-5.47634e-06
-0.000100172
8.23407e-06
-7.36886e-06
-9.58082e-05
5.20456e-06
-9.56844e-06
-8.53655e-05
1.42234e-06
-1.18651e-05
-6.88833e-05
-2.61593e-06
-1.38663e-05
-4.79481e-05
-5.89284e-06
-1.50424e-05
-2.59226e-05
-7.17268e-06
-1.48528e-05
-7.4377e-06
-5.57194e-06
-1.29129e-05
-1.69473e-07
-7.26822e-06
-6.50069e-06
1.37864e-05
-2.89582e-06
-1.85886e-05
2.30603e-05
-3.07371e-06
-3.27755e-05
2.63282e-05
-3.05633e-06
-4.79976e-05
2.78683e-05
-2.99855e-06
-6.38307e-05
2.90059e-05
-3.06534e-06
-8.00877e-05
3.01272e-05
-3.25599e-06
-9.65732e-05
3.12289e-05
-3.5854e-06
-0.000112945
3.21334e-05
-4.10067e-06
-0.000128626
3.25545e-05
-4.87121e-06
-0.000142729
3.21109e-05
-5.98457e-06
-0.000154006
3.03467e-05
-7.53562e-06
-0.000160846
2.67734e-05
-9.60507e-06
-0.000161384
2.09882e-05
-1.22161e-05
-0.000153853
1.29529e-05
-1.52795e-05
-0.000137044
3.15266e-06
-1.854e-05
-0.000110963
-7.31523e-06
-2.13809e-05
-7.78479e-05
-1.60378e-05
-2.29705e-05
-4.27499e-05
-1.98078e-05
-2.24629e-05
-1.29318e-05
-1.63e-05
-1.909e-05
-3.29172e-06
-9.80958e-06
-7.63827e-06
2.53021e-05
-3.87741e-06
-2.16067e-05
4.1399e-05
-4.37028e-06
-3.78851e-05
4.70758e-05
-4.46919e-06
-5.52757e-05
4.96877e-05
-4.42875e-06
-7.3317e-05
5.15348e-05
-4.48759e-06
-9.18124e-05
5.32883e-05
-4.66566e-06
-0.000110565
5.49736e-05
-4.99176e-06
-0.000129233
5.63302e-05
-5.52909e-06
-0.000147228
5.69192e-05
-6.36953e-06
-0.000163624
5.61406e-05
-7.63411e-06
-0.000177072
5.32589e-05
-9.46395e-06
-0.000185778
4.74747e-05
-1.19953e-05
-0.000187571
3.80927e-05
-1.53112e-05
-0.000180097
2.48381e-05
-1.93593e-05
-0.00016147
8.31819e-06
-2.37931e-05
-0.000131277
-9.68132e-06
-2.78269e-05
-9.18558e-05
-2.52725e-05
-3.01862e-05
-4.95637e-05
-3.26332e-05
-2.94667e-05
-1.40877e-05
-2.72733e-05
-2.45026e-05
-5.46468e-06
-1.19147e-05
-7.84955e-06
3.77425e-05
-4.59082e-06
-2.23179e-05
6.12142e-05
-5.34688e-06
-3.91607e-05
6.94595e-05
-5.54084e-06
-5.71616e-05
7.32076e-05
-5.51912e-06
-7.58892e-05
7.58432e-05
-5.58082e-06
-9.52046e-05
7.83688e-05
-5.76505e-06
-0.00011499
8.08747e-05
-6.11558e-06
-0.000135003
8.30588e-05
-6.71536e-06
-0.00015477
8.43721e-05
-7.6867e-06
-0.000173462
8.40318e-05
-9.19907e-06
-0.000189755
8.10215e-05
-1.14692e-05
-0.000201706
7.41611e-05
-1.47354e-05
-0.000206715
6.22966e-05
-1.91952e-05
-0.000201688
4.46943e-05
-2.48835e-05
-0.000183615
2.1715e-05
-3.14698e-05
-0.000151026
-4.33431e-06
-3.79354e-05
-0.000105604
-2.86164e-05
-4.20789e-05
-5.52913e-05
-4.16149e-05
-4.13306e-05
-1.37061e-05
-3.52714e-05
-3.35872e-05
-3.71763e-06
-1.54531e-05
-7.58071e-06
5.04076e-05
-5.08448e-06
-2.18482e-05
8.15462e-05
-6.06443e-06
-3.85322e-05
9.248e-05
-6.3366e-06
-5.64433e-05
9.74587e-05
-6.33993e-06
-7.52077e-05
0.000101036
-6.42885e-06
-9.47806e-05
0.000104606
-6.66441e-06
-0.000115177
0.000108381
-7.10954e-06
-0.00013633
0.000112086
-7.87444e-06
-0.000157971
0.000115138
-9.12544e-06
-0.000179485
0.000116651
-1.11045e-05
-0.000199701
0.000115383
-1.41452e-05
-0.00021662
0.000109744
-1.86642e-05
-0.000227198
9.7953e-05
-2.50785e-05
-0.00022734
7.84563e-05
-3.36204e-05
-0.000212334
5.0765e-05
-4.40554e-05
-0.000178434
1.68703e-05
-5.51053e-05
-0.000126092
-1.78292e-05
-6.31287e-05
-6.43308e-05
-4.04916e-05
-6.28846e-05
-1.32677e-05
-3.63192e-05
-5.00152e-05
4.49409e-06
-2.14794e-05
-7.03256e-06
6.288e-05
-5.43977e-06
-2.06828e-05
0.000101818
-6.62127e-06
-3.67794e-05
0.00011554
-6.96309e-06
-5.4173e-05
0.000121851
-6.99838e-06
-7.25503e-05
0.000126549
-7.13493e-06
-9.19753e-05
0.000131491
-7.45984e-06
-0.00011263
0.000137097
-8.061e-06
-0.000134675
0.000143215
-9.0845e-06
-0.00015814
0.000149359
-1.07561e-05
-0.000182755
0.000154686
-1.34201e-05
-0.000207689
0.000157902
-1.75843e-05
-0.000231152
0.000157159
-2.39517e-05
-0.000249876
0.000150047
-3.33702e-05
-0.000258736
0.0001339
-4.65836e-05
-0.000250835
0.000106496
-6.36327e-05
-0.000218918
6.74715e-05
-8.25179e-05
-0.0001602
2.12464e-05
-9.77936e-05
-8.25031e-05
-1.88335e-05
-9.93549e-05
-1.5224e-05
-2.54365e-05
-7.81618e-05
2.03089e-05
-3.10389e-05
-6.28382e-06
7.48925e-05
-5.72871e-06
-1.90108e-05
0.000121652
-7.10712e-06
-3.4176e-05
0.000138217
-7.51239e-06
-5.06607e-05
0.000145912
-7.57698e-06
-6.81972e-05
0.000151848
-7.76299e-06
-8.69487e-05
0.00015843
-8.18798e-06
-0.000107266
0.000166385
-8.97056e-06
-0.000129569
0.000175821
-1.03018e-05
-0.000154258
0.000186529
-1.24818e-05
-0.000181551
0.000197965
-1.5986e-05
-0.00021121
0.000209121
-2.15611e-05
-0.000242045
0.000218319
-3.03253e-05
-0.000271192
0.000222974
-4.37793e-05
-0.000293176
0.00021935
-6.34669e-05
-0.000299363
0.000202476
-8.97919e-05
-0.000278144
0.000166142
-0.000119889
-0.000218553
0.000105973
-0.000144318
-0.000122238
3.38741e-05
-0.000149023
-2.69648e-05
-1.15592e-06
-0.000119554
3.99395e-05
-4.65953e-05
-5.37136e-06
8.62585e-05
-5.99461e-06
-1.69185e-05
0.000140776
-7.57662e-06
-3.08215e-05
0.000160154
-8.03406e-06
-4.59621e-05
0.000169162
-8.1088e-06
-6.20832e-05
0.00017629
-8.32099e-06
-7.94122e-05
0.000184582
-8.82215e-06
-9.84326e-05
0.00019517
-9.76452e-06
-0.000119791
0.000208566
-1.13873e-05
-0.000144255
0.000225065
-1.40712e-05
-0.000172629
0.000244779
-1.84399e-05
-0.000205522
0.000267528
-2.55141e-05
-0.000242892
0.00029258
-3.68898e-05
-0.000283304
0.000318141
-5.47561e-05
-0.000322707
0.00033997
-8.12166e-05
-0.000352689
0.00034847
-0.000116013
-0.00035833
0.000324446
-0.000152663
-0.000317093
0.000243432
-0.000178696
-0.000208271
0.000111759
-0.000186707
-6.72754e-05
1.68991e-05
-0.00015905
4.62646e-05
-7.36005e-05
-4.34876e-06
9.68748e-05
-6.26755e-06
-1.45198e-05
0.000159017
-8.07034e-06
-2.68473e-05
0.000181043
-8.56085e-06
-4.01687e-05
0.000191091
-8.60806e-06
-5.41775e-05
0.000199095
-8.7961e-06
-6.91065e-05
0.000208822
-9.31176e-06
-8.54884e-05
0.000221891
-1.03391e-05
-0.000104087
0.000239323
-1.21581e-05
-0.00012591
0.0002621
-1.52129e-05
-0.000152209
0.000291311
-2.0233e-05
-0.000184418
0.000328145
-2.84084e-05
-0.000224022
0.00037367
-4.14862e-05
-0.000272372
0.000427799
-6.13076e-05
-0.000329796
0.0004853
-8.79052e-05
-0.000393632
0.000528393
-0.000116087
-0.000450823
0.000517235
-0.000135599
-0.000460975
0.000397119
-0.000143535
-0.000363707
0.000164451
-0.00014996
-0.00016341
-2.61407e-05
-0.000157257
-1.39194e-06
-0.000115754
-3.32416e-06
0.000106773
-6.5743e-06
-1.20441e-05
0.000176372
-8.63485e-06
-2.25524e-05
0.000200684
-9.13333e-06
-3.35867e-05
0.000211225
-9.1e-06
-4.47287e-05
0.000219425
-9.18841e-06
-5.61354e-05
0.000229851
-9.62218e-06
-6.82606e-05
0.000244624
-1.06086e-05
-8.17896e-05
0.000265299
-1.24463e-05
-9.76884e-05
0.000293589
-1.55892e-05
-0.000117298
0.000331658
-2.07384e-05
-0.000142514
0.000382245
-2.88835e-05
-0.000176241
0.000448237
-4.08405e-05
-0.000224015
0.000530795
-5.52223e-05
-0.000294824
0.000621157
-6.50485e-05
-0.000397628
0.000688008
-5.68107e-05
-0.000523922
0.000666018
-2.2489e-05
-0.000621789
0.000474251
2.07353e-05
-0.000564746
9.58992e-05
1.15089e-05
-0.000308833
-0.000208687
-7.3367e-05
-0.000172892
-0.000137333
-2.4868e-06
0.000116255
-6.99488e-06
-9.90118e-06
0.000193119
-9.33306e-06
-1.84974e-05
0.000219085
-9.80496e-06
-2.6853e-05
0.000229206
-9.62467e-06
-3.44067e-05
0.000236498
-9.51872e-06
-4.11633e-05
0.00024636
-9.75172e-06
-4.73449e-05
0.000261343
-1.05372e-05
-5.32962e-05
0.000283403
-1.21532e-05
-5.95355e-05
0.000314799
-1.49712e-05
-6.69047e-05
0.000358444
-1.94161e-05
-7.70818e-05
0.000418039
-2.56167e-05
-9.41697e-05
0.00049714
-3.18152e-05
-0.000128592
0.000595514
-3.02964e-05
-0.000202057
0.000699107
-4.48525e-06
-0.000343367
0.000760601
6.87163e-05
-0.000561157
0.000696048
0.000187761
-0.000776266
0.000397106
0.000292254
-0.000751031
-0.0001837
0.000254364
-0.000436287
-0.000623913
0.000100481
-0.000541939
-6.72395e-05
-2.18453e-06
0.000126093
-7.65389e-06
-8.79e-06
0.000210049
-1.03245e-05
-1.56172e-05
0.000236672
-1.07596e-05
-2.10551e-05
0.000245013
-1.03692e-05
-2.44558e-05
0.000249859
-9.9607e-06
-2.56513e-05
0.000257414
-9.85901e-06
-2.45291e-05
0.000270496
-1.02746e-05
-2.08655e-05
0.000291171
-1.14315e-05
-1.44048e-05
0.000321883
-1.35445e-05
-5.07517e-06
0.000365669
-1.65551e-05
5.93063e-06
0.000426278
-1.92453e-05
1.26353e-05
0.000506892
-1.64564e-05
-2.64821e-06
0.000604439
6.35862e-06
-7.6689e-05
0.000697238
7.59106e-05
-0.000268968
0.000733766
0.000219114
-0.000607299
0.000614854
0.000419525
-0.000935529
0.000159341
0.000565995
-0.000900191
-0.000710791
0.000491753
-0.000544434
-0.00125025
0.000270579
-0.00111916
3.27842e-05
-2.93616e-06
0.000137737
-8.70732e-06
-9.68929e-06
0.000228481
-1.16792e-05
-1.51928e-05
0.000254141
-1.19652e-05
-1.77195e-05
0.000258783
-1.12436e-05
-1.66759e-05
0.000259259
-1.04435e-05
-1.18061e-05
0.000262483
-9.93886e-06
-2.65545e-06
0.00027125
-9.90535e-06
1.13629e-05
0.000287616
-1.0463e-05
3.12741e-05
0.000313653
-1.1681e-05
5.8246e-05
0.000351734
-1.30369e-05
9.17544e-05
0.000404957
-1.21871e-05
0.000125194
0.000474882
-1.43008e-06
0.000132529
0.000557545
3.95592e-05
5.35604e-05
0.000632395
0.000143811
-0.000203099
0.000649568
0.000340858
-0.00065309
0.00047257
0.000592275
-0.00103907
-0.000191541
0.00073686
-0.00103053
-0.00127368
0.000554348
-0.000682814
-0.00188454
0.000286573
-0.0018406
3.86288e-05
-5.91997e-06
0.00015441
-1.07536e-05
-1.44682e-05
0.00025139
-1.43601e-05
-1.92105e-05
0.000273546
-1.4663e-05
-1.87523e-05
0.00027188
-1.35553e-05
-1.30508e-05
0.000265713
-1.2155e-05
-2.0291e-06
0.000262459
-1.09971e-05
1.4798e-05
0.000264669
-1.02458e-05
3.86385e-05
0.000273929
-1.01541e-05
7.12972e-05
0.000291601
-1.06067e-05
0.000114717
0.000319121
-1.08065e-05
0.000169091
0.000358382
-7.79912e-06
0.000227979
0.000409105
6.8896e-06
0.000262614
0.000467716
5.51934e-05
0.000204747
0.000518038
0.000172224
-5.78747e-05
0.000521488
0.000390702
-0.000514494
0.000291196
0.000637993
-0.000934528
-0.000482755
0.000711248
-0.0010502
-0.00159963
0.000441621
-0.000781952
-0.00236871
0.000215926
-0.00256878
-5.37659e-05
-1.16188e-05
0.000179941
-1.39122e-05
-2.39185e-05
0.00028114
-1.74501e-05
-2.89449e-05
0.000295947
-1.73748e-05
-2.64047e-05
0.000284903
-1.5563e-05
-1.65151e-05
0.000269438
-1.36155e-05
4.24534e-07
0.000257503
-1.19839e-05
2.44241e-05
0.000251437
-1.07672e-05
5.70764e-05
0.000251607
-1.03304e-05
0.000100427
0.000258767
-1.05169e-05
0.000157128
0.000273064
-1.06436e-05
0.000228021
0.000294953
-7.46455e-06
0.000308904
0.000322237
5.98576e-06
0.000376775
0.000351
4.88444e-05
0.000378048
0.000365817
0.000150948
0.000210289
0.000345156
0.000344091
-0.000161129
0.000116685
0.000545929
-0.000613757
-0.000601508
0.000571381
-0.000899429
-0.0016533
0.000339346
-0.000781102
-0.00264791
0.000160874
-0.00317687
-0.00017302
-3.36165e-05
0.000235182
-2.16246e-05
-5.06132e-05
0.000324793
-2.66571e-05
-5.28409e-05
0.000324253
-2.60778e-05
-4.34953e-05
0.000298936
-2.33789e-05
-2.63507e-05
0.000272275
-1.99808e-05
-2.68317e-06
0.000250743
-1.69076e-05
2.78763e-05
0.000235479
-1.46018e-05
6.71673e-05
0.000225698
-1.33815e-05
0.000117721
0.000221637
-1.34243e-05
0.000182552
0.000222207
-1.3974e-05
0.000262705
0.00022732
-1.25197e-05
0.000356009
0.000232686
-3.75217e-06
0.000445832
0.000235836
2.53409e-05
0.000497362
0.000219207
9.50799e-05
0.000432701
0.000175756
0.000234062
0.000175051
-1.25535e-05
0.000386889
-0.000274756
-0.00055633
0.000404629
-0.000697652
-0.00150996
0.000279555
-0.000736743
-0.00272955
0.000120726
-0.00362112
-0.000292487
-2.97272e-05
0.000302082
-3.71719e-05
-6.54157e-05
0.000398898
-3.84165e-05
-7.58986e-05
0.00037061
-3.58741e-05
-6.98217e-05
0.000322403
-2.9543e-05
-4.97153e-05
0.00027719
-2.50214e-05
-1.9371e-05
0.00024154
-2.11409e-05
1.95584e-05
0.000214996
-1.84462e-05
6.7486e-05
0.000194879
-1.71084e-05
0.000125977
0.000180772
-1.76265e-05
0.000197757
0.000169902
-1.94741e-05
0.000283145
0.000162962
-2.10301e-05
0.00038069
0.000153761
-1.86205e-05
0.000475993
0.00014367
-3.13721e-06
0.000546626
0.000113607
3.49671e-05
0.000538059
6.56205e-05
0.000118703
0.000370419
-7.48671e-05
0.000229953
1.59135e-06
-0.000440997
0.000253496
-0.000477639
-0.00126738
0.000236647
-0.000644342
-0.00264783
8.498e-05
-0.00384935
-0.000416118
-0.000182524
0.000530467
-4.58618e-05
-0.000176854
0.000453229
-6.0001e-05
-0.000141588
0.000396713
-6.13683e-05
-9.97049e-05
0.000336663
-5.61434e-05
-4.74342e-05
0.000271025
-4.61063e-05
1.00276e-05
0.000221225
-3.71469e-05
7.11666e-05
0.000184728
-3.08715e-05
0.000137565
0.000155974
-2.74942e-05
0.00021014
0.000135346
-2.71487e-05
0.000292479
0.000117364
-2.98011e-05
0.000383186
0.000106014
-3.37594e-05
0.000482416
9.12697e-05
-3.67393e-05
0.000577689
8.09413e-05
-3.25444e-05
0.000652325
5.30112e-05
-1.40403e-05
0.000679034
1.24882e-05
2.64235e-05
0.000592643
-9.22416e-05
0.000103765
0.000372331
-0.000343954
0.000123269
-6.82591e-05
-0.00100337
0.000176581
-0.000380126
-0.00237187
3.59103e-05
-0.00368157
-0.000547903
-0.00037268
0.00107572
-0.000172575
-0.000262434
0.000476995
-0.000134011
-0.000102962
0.000345887
-0.000108647
7.38942e-05
0.000243656
-8.3849e-05
0.000243778
0.00016985
-6.87088e-05
0.000400903
0.000120888
-5.67883e-05
0.00054389
9.03906e-05
-4.86498e-05
0.000675644
6.82796e-05
-4.40595e-05
0.00079868
5.46344e-05
-4.23237e-05
0.000917778
4.22635e-05
-4.3998e-05
0.00103495
3.64321e-05
-4.75939e-05
0.00115202
2.70073e-05
-5.28046e-05
0.0012669
2.18967e-05
-5.5835e-05
0.00136549
5.10482e-06
-5.0682e-05
0.00143846
-2.30969e-05
-3.73859e-05
0.00144292
-0.0001018
5.09915e-06
0.00134668
-0.000285946
3.82291e-05
0.000971006
-0.000713558
8.58674e-05
0.000274847
-0.00166467
-1.10416e-05
-0.00272696
-0.000679761
0.00122552
-0.000149802
0.00186577
-0.000163255
0.00237624
-0.000164579
0.00277167
-0.000151777
0.00307673
-0.000135208
0.00331883
-0.00012121
0.00351718
-0.000107961
0.00368386
-9.84006e-05
0.00382745
-8.89492e-05
0.00395372
-8.40103e-05
0.00406821
-7.80549e-05
0.00417224
-7.70288e-05
0.00426586
-7.17224e-05
0.00434166
-7.06888e-05
0.00437742
-5.88595e-05
0.00433263
-5.7017e-05
0.00407955
-3.28591e-05
0.00343038
-6.43943e-05
0.00189245
-0.000126732
-0.000834514
-5.5771e-06
6.86486e-06
-2.45257e-06
-1.77281e-05
1.39769e-05
-2.68155e-06
-3.23547e-05
1.65616e-05
-2.58933e-06
-4.79342e-05
1.75786e-05
-2.54818e-06
-6.39917e-05
1.81822e-05
-2.70898e-06
-8.03913e-05
1.87435e-05
-3.07512e-06
-9.69789e-05
1.92699e-05
-3.67116e-06
-0.000113429
1.96233e-05
-4.55982e-06
-0.000129162
1.95901e-05
-5.83018e-06
-0.000143279
1.8893e-05
-7.58634e-06
-0.000154516
1.7205e-05
-9.92902e-06
-0.000161252
1.41862e-05
-1.29262e-05
-0.00016163
9.57148e-06
-1.65621e-05
-0.000153844
3.32185e-06
-2.06768e-05
-0.000136645
-4.21792e-06
-2.48463e-05
-0.000110144
-1.19604e-05
-2.84068e-05
-7.67114e-05
-1.79987e-05
-3.04758e-05
-4.15307e-05
-1.98203e-05
-3.02132e-05
-1.22419e-05
-1.53587e-05
-2.6843e-05
-2.94583e-06
-1.65643e-05
-1.29865e-05
2.17937e-05
-4.83814e-06
-3.62863e-05
4.02858e-05
-6.08277e-06
-6.36531e-05
4.71582e-05
-6.28624e-06
-9.26278e-05
4.98755e-05
-6.32067e-06
-0.000122264
5.1309e-05
-6.55616e-06
-0.0001521
5.23839e-05
-7.05986e-06
-0.000181668
5.31485e-05
-7.89671e-06
-0.000210253
5.32817e-05
-9.17323e-06
-0.000236771
5.22662e-05
-1.10296e-05
-0.000259669
4.94336e-05
-1.36277e-05
-0.000276886
4.40115e-05
-1.71253e-05
-0.000285892
3.5216e-05
-2.16281e-05
-0.000283877
2.24513e-05
-2.71117e-05
-0.000268356
5.88176e-06
-3.33604e-05
-0.000237583
-1.37597e-05
-3.97709e-05
-0.000191857
-3.38324e-05
-4.52351e-05
-0.000134914
-4.95735e-05
-4.83384e-05
-7.48775e-05
-5.47332e-05
-4.75866e-05
-2.40249e-05
-4.39441e-05
-4.13571e-05
-1.31397e-05
-2.36407e-05
-1.62089e-05
4.03805e-05
-6.25535e-06
-4.45354e-05
7.23629e-05
-8.12091e-06
-7.75137e-05
8.41838e-05
-8.51639e-06
-0.000112227
8.87377e-05
-8.57731e-06
-0.000147565
9.09687e-05
-8.80945e-06
-0.000182978
9.24552e-05
-9.3245e-06
-0.000217921
9.33192e-05
-1.02192e-05
-0.000251603
9.30716e-05
-1.1637e-05
-0.000282835
9.08957e-05
-1.37674e-05
-0.000309915
8.57199e-05
-1.68397e-05
-0.000330555
7.62845e-05
-2.10969e-05
-0.000341889
6.12981e-05
-2.67433e-05
-0.00034065
3.97607e-05
-3.38598e-05
-0.000323457
1.157e-05
-4.22409e-05
-0.000287721
-2.21773e-05
-5.11109e-05
-0.000233133
-5.726e-05
-5.89875e-05
-0.000163663
-8.5614e-05
-6.36162e-05
-8.96206e-05
-9.58336e-05
-6.24085e-05
-2.75999e-05
-7.75142e-05
-5.29533e-05
-2.39122e-05
-2.87421e-05
-1.73301e-05
6.04714e-05
-7.35163e-06
-4.76395e-05
0.000107041
-9.71588e-06
-8.28483e-05
0.00012412
-1.02679e-05
-0.000119865
0.000130591
-1.03556e-05
-0.000157585
0.000133701
-1.05935e-05
-0.000195529
0.000135767
-1.11334e-05
-0.000233257
0.000137038
-1.21062e-05
-0.000270109
0.000136909
-1.37013e-05
-0.000305031
0.000134308
-1.61764e-05
-0.000336424
0.000127779
-1.98647e-05
-0.000361976
0.000115528
-2.51607e-05
-0.00037854
9.55897e-05
-3.24634e-05
-0.000382132
6.62196e-05
-4.20617e-05
-0.000368216
2.66922e-05
-5.39217e-05
-0.000332552
-2.20234e-05
-6.72882e-05
-0.000272689
-7.5137e-05
-7.99214e-05
-0.000191681
-0.000120758
-8.79424e-05
-0.000102292
-0.000140207
-8.63467e-05
-2.84411e-05
-0.000113863
-7.10886e-05
-3.15524e-05
-3.6254e-05
-1.73772e-05
8.09652e-05
-8.20103e-06
-4.8141e-05
0.000142742
-1.10013e-05
-8.39887e-05
0.000165322
-1.16918e-05
-0.000121789
0.000173871
-1.18193e-05
-0.000160523
0.000178106
-1.20993e-05
-0.000199883
0.00018119
-1.27272e-05
-0.00023966
0.000183582
-1.38763e-05
-0.000279478
0.000184651
-1.57974e-05
-0.000318608
0.000183158
-1.88468e-05
-0.000355743
0.000177324
-2.3515e-05
-0.000388732
0.000164813
-3.04413e-05
-0.00041424
0.000142815
-4.03808e-05
-0.00042748
0.000108424
-5.40423e-05
-0.000422161
5.95192e-05
-7.17668e-05
-0.000391688
-3.46504e-06
-9.30867e-05
-0.000329354
-7.81238e-05
-0.000114452
-0.00023508
-0.000149162
-0.000128999
-0.000122937
-0.000188312
-0.000126922
-2.9827e-05
-0.000155909
-0.00010108
-3.52045e-05
-4.76542e-05
-1.68739e-05
0.000101295
-8.89577e-06
-4.72934e-05
0.000178642
-1.21014e-05
-8.29669e-05
0.000206956
-1.29232e-05
-0.000120779
0.000217787
-1.31026e-05
-0.00015983
0.000223478
-1.34551e-05
-0.000200036
0.00022816
-1.42248e-05
-0.000241511
0.000232633
-1.56368e-05
-0.000284299
0.000236375
-1.80204e-05
-0.000328173
0.000238138
-2.18626e-05
-0.000372371
0.000235979
-2.78761e-05
-0.000415215
0.000227143
-3.70703e-05
-0.000453575
0.000208006
-5.07831e-05
-0.000482232
0.000174251
-7.05402e-05
-0.000493338
0.000121545
-9.75032e-05
-0.00047626
4.69309e-05
-0.000131106
-0.000419539
-5.10725e-05
-0.000166291
-0.000313551
-0.000163094
-0.00018985
-0.000167028
-0.000248637
-0.000185553
-3.74536e-05
-0.000219385
-0.00014426
-4.0808e-05
-6.2889e-05
-1.60409e-05
0.000121131
-9.52383e-06
-4.56275e-05
0.000214253
-1.31318e-05
-8.05916e-05
0.000248487
-1.40788e-05
-0.000117837
0.000261761
-1.43056e-05
-0.000156584
0.000269191
-1.47301e-05
-0.00019699
0.000276029
-1.56509e-05
-0.000239546
0.000283571
-1.73518e-05
-0.000284825
0.000291606
-2.02539e-05
-0.000333298
0.000299133
-2.50034e-05
-0.000385068
0.000304362
-3.25988e-05
-0.000439437
0.000304509
-4.45592e-05
-0.000494233
0.000295547
-6.30708e-05
-0.000544947
0.000272036
-9.08501e-05
-0.000583609
0.000226723
-0.000129984
-0.000597079
0.000149061
-0.000178452
-0.00056643
2.3921e-05
-0.000225532
-0.000462047
-0.0001637
-0.000248095
-0.000269285
-0.000356111
-0.00023431
-6.90075e-05
-0.000354215
-0.000185001
-7.61159e-05
-8.02949e-05
-1.4964e-05
0.00014025
-1.01499e-05
-4.33517e-05
0.000249242
-1.41776e-05
-7.71356e-05
0.000289472
-1.52351e-05
-0.000113202
0.000305196
-1.54777e-05
-0.000150852
0.000314452
-1.59318e-05
-0.000190468
0.000323776
-1.69532e-05
-0.000232919
0.000335142
-1.8885e-05
-0.000279352
0.000348891
-2.22394e-05
-0.000331082
0.00036462
-2.78291e-05
-0.000389416
0.000381229
-3.69716e-05
-0.000455305
0.000396661
-5.17762e-05
-0.000528815
0.000407526
-7.53588e-05
-0.000608445
0.000408191
-0.000111281
-0.000689687
0.000387053
-0.000160304
-0.000761166
0.000316786
-0.000212259
-0.000793289
0.000142908
-0.000239526
-0.000724206
-0.00018743
-0.000224049
-0.000482735
-0.000584907
-0.000199382
-0.000161707
-0.000651276
-0.000183019
-0.000213659
-9.7764e-05
-1.37172e-05
0.000158531
-1.08314e-05
-4.06281e-05
0.000283397
-1.53151e-05
-7.27754e-05
0.000329514
-1.64561e-05
-0.000106955
0.00034742
-1.66526e-05
-0.000142477
0.000358226
-1.70483e-05
-0.000179885
0.000369927
-1.80548e-05
-0.000220358
0.00038534
-2.00637e-05
-0.000265557
0.000405588
-2.36559e-05
-0.000317623
0.00043124
-2.97659e-05
-0.000379177
0.00046249
-3.99413e-05
-0.000453272
0.000498993
-5.66451e-05
-0.000543485
0.000539279
-8.3026e-05
-0.000654337
0.000577931
-0.000120196
-0.000790216
0.00059386
-0.000158833
-0.000948069
0.000526995
-0.000168444
-0.00108806
0.000261823
-0.000114524
-0.00108952
-0.000297573
-3.19325e-05
-0.000809976
-0.000975897
-3.85128e-05
-0.000346064
-0.00115616
-0.000116289
-0.000564953
-0.000110524
-1.24409e-05
0.000176039
-1.16406e-05
-3.77508e-05
0.000316712
-1.664e-05
-6.78646e-05
0.000368322
-1.7827e-05
-9.93929e-05
0.000387737
-1.78893e-05
-0.000131564
0.000399306
-1.8097e-05
-0.000164974
0.000412629
-1.89138e-05
-0.000200957
0.000431472
-2.07567e-05
-0.000241475
0.000457881
-2.42213e-05
-0.000289227
0.000493646
-3.02435e-05
-0.000347871
0.000540701
-4.03047e-05
-0.000422437
0.000601045
-5.63704e-05
-0.000520371
0.000675322
-7.895e-05
-0.000654228
0.000756117
-9.95508e-05
-0.000841903
0.000804525
-8.80384e-05
-0.00108848
0.00071609
6.70126e-07
-0.00133202
0.00031335
0.000169528
-0.00139711
-0.000501614
0.000289862
-0.00111708
-0.00143768
0.000193256
-0.000578116
-0.00176797
-5.08349e-07
-0.0011962
-8.42024e-05
-1.13978e-05
0.000193129
-1.26878e-05
-3.5259e-05
0.000349525
-1.82842e-05
-6.3107e-05
0.000405827
-1.94623e-05
-9.12606e-05
0.000425544
-1.92775e-05
-0.000118785
0.000436449
-1.91378e-05
-0.000146201
0.000449846
-1.95532e-05
-0.000174764
0.000470428
-2.09306e-05
-0.000206352
0.000501111
-2.3796e-05
-0.000243619
0.000544826
-2.88839e-05
-0.000290348
0.000605087
-3.70731e-05
-0.000352302
0.000685777
-4.83937e-05
-0.000439466
0.000787933
-5.7262e-05
-0.000571061
0.000898721
-4.13057e-05
-0.000776355
0.000958587
4.67463e-05
-0.00106853
0.000824631
0.000252347
-0.00137228
0.000287705
0.000517156
-0.00149953
-0.000717336
0.000635225
-0.00126229
-0.00183603
0.000415475
-0.000723775
-0.00235346
0.00014746
-0.00198889
1.68086e-06
-1.10867e-05
0.000210738
-1.41757e-05
-3.41353e-05
0.000382779
-2.05303e-05
-5.976e-05
0.000442367
-2.16753e-05
-8.39405e-05
0.000460486
-2.11304e-05
-0.000105609
0.000468619
-2.0462e-05
-0.000125136
0.000479758
-2.02436e-05
-0.00014347
0.000499341
-2.08532e-05
-0.000161968
0.000530856
-2.26793e-05
-0.000182543
0.000577934
-2.60779e-05
-0.000208027
0.000644893
-3.08775e-05
-0.000243462
0.000736258
-3.42907e-05
-0.000299123
0.000851958
-2.482e-05
-0.000399037
0.000973497
3.14964e-05
-0.000585305
0.00102754
0.000193227
-0.000887126
0.000855497
0.00049007
-0.00123678
0.000241577
0.000815307
-0.00141895
-0.000848221
0.000879054
-0.00122924
-0.00205814
0.000524157
-0.000742673
-0.00277832
0.000208868
-0.00274664
4.78546e-05
-1.2111e-05
0.000230497
-1.63556e-05
-3.55791e-05
0.00041811
-2.35415e-05
-5.95061e-05
0.000478829
-2.44996e-05
-7.95341e-05
0.000492691
-2.34211e-05
-9.45103e-05
0.00049523
-2.20787e-05
-0.000104687
0.000501089
-2.10929e-05
-0.000110644
0.000516172
-2.078e-05
-0.000112997
0.0005441
-2.13544e-05
-0.000112504
0.000588523
-2.27622e-05
-0.000110469
0.000653593
-2.3772e-05
-0.000110191
0.0007435
-1.97079e-05
-0.000121308
0.000856925
4.72019e-06
-0.000172335
0.000973026
9.1056e-05
-0.000316773
0.00101884
0.000296947
-0.000608115
0.00084578
0.000641916
-0.000975124
0.000230351
0.00097051
-0.00117873
-0.000849676
0.000941921
-0.00107519
-0.0020812
0.000473864
-0.000702655
-0.0030174
0.000153116
-0.00339524
-1.54279e-05
-1.6428e-05
0.000256171
-1.99995e-05
-4.27315e-05
0.000458668
-2.86152e-05
-6.54485e-05
0.000516414
-2.95308e-05
-8.0579e-05
0.000522077
-2.7811e-05
-8.7897e-05
0.000515909
-2.55159e-05
-8.78543e-05
0.000513495
-2.34458e-05
-8.05324e-05
0.00052055
-2.19451e-05
-6.5693e-05
0.000540286
-2.11795e-05
-4.28182e-05
0.000575883
-2.08419e-05
-1.14188e-05
0.00063043
-1.90424e-05
2.7132e-05
0.00070754
-1.03904e-05
6.49911e-05
0.000804535
2.14203e-05
7.52888e-05
0.000902708
0.000115213
-7.36502e-07
0.000941696
0.000325393
-0.00022162
0.000793024
0.000664342
-0.00053527
0.000239421
0.000942573
-0.000751341
-0.00075897
0.000836613
-0.000805557
-0.00194654
0.000361182
-0.000592038
-0.00309535
8.03529e-05
-0.00392448
-0.000116564
-2.2528e-05
0.000290032
-2.52451e-05
-5.40173e-05
0.00050758
-3.4873e-05
-7.80251e-05
0.000558442
-3.53954e-05
-9.07459e-05
0.000551912
-3.26763e-05
-9.14442e-05
0.000532433
-2.94419e-05
-8.11557e-05
0.000517663
-2.64407e-05
-6.02684e-05
0.000512915
-2.40193e-05
-2.83375e-05
0.000520363
-2.23379e-05
1.61286e-05
0.000541918
-2.10175e-05
7.41742e-05
0.000579805
-1.80647e-05
0.00014758
0.000635477
-8.80711e-06
0.000232966
0.000704822
2.0313e-05
0.000311019
0.000773023
0.000100476
0.000338683
0.000791833
0.000273148
0.000242581
0.000676658
0.000556559
8.90588e-06
0.000243316
0.000775709
-0.000228693
-0.000609867
0.000659876
-0.000455836
-0.00167127
0.000291216
-0.000414482
-0.0030165
4.06679e-05
-0.00430381
-0.000208171
-5.61969e-05
0.000359858
-3.52538e-05
-9.46147e-05
0.00056706
-4.77193e-05
-0.000112418
0.000598042
-4.78737e-05
-0.000113198
0.000573485
-4.4172e-05
-0.00010177
0.000540311
-3.92865e-05
-7.98355e-05
0.000513351
-3.45301e-05
-4.68925e-05
0.000495954
-3.05837e-05
-1.02682e-06
0.000488866
-2.77503e-05
5.96342e-05
0.000493531
-2.56986e-05
0.000138615
0.00051021
-2.33595e-05
0.000237778
0.000540196
-1.64014e-05
0.000356945
0.000577887
4.01565e-06
0.000482259
0.000613618
5.94324e-05
0.000585365
0.000608884
0.000174922
0.000603896
0.000519502
0.000372687
0.000476784
0.000213397
0.00054392
0.000223477
-0.000420254
0.000468323
-0.000127274
-0.00128252
0.000241563
-0.000219118
-0.00282421
2.02795e-05
-0.00453142
-0.000283991
-3.82725e-05
0.000414728
-5.37692e-05
-0.000107993
0.000665436
-6.70717e-05
-0.000144867
0.000663547
-6.45057e-05
-0.00015178
0.000607617
-5.67623e-05
-0.000137099
0.00055071
-5.01016e-05
-0.000105919
0.000505011
-4.3981e-05
-6.04052e-05
0.000471111
-3.91178e-05
1.90251e-07
0.000446953
-3.57911e-05
7.6726e-05
0.000433381
-3.40128e-05
0.000173121
0.000427834
-3.34931e-05
0.000290364
0.000432737
-3.08148e-05
0.000429016
0.000440753
-2.01391e-05
0.000577452
0.000451203
1.08426e-05
0.000714149
0.000431674
7.54801e-05
0.000795368
0.00036568
0.000191306
0.000741815
0.000176552
0.000320351
0.000536139
-0.000245715
0.000284633
0.000198102
-0.000894513
0.000186674
5.03048e-05
-0.00260019
8.76448e-06
-0.00454804
-0.000349195
-0.000188135
0.000617841
-6.08394e-05
-0.000205747
0.000709416
-8.63688e-05
-0.000209109
0.000697495
-9.19541e-05
-0.000202966
0.000631846
-8.6515e-05
-0.000170861
0.00054877
-7.62705e-05
-0.000119127
0.000482027
-6.58964e-05
-5.14156e-05
0.000430328
-5.77999e-05
3.24129e-05
0.000388198
-5.25675e-05
0.000131195
0.000358089
-5.06385e-05
0.000247744
0.000333134
-5.16507e-05
0.000380178
0.000319875
-5.33311e-05
0.000529581
0.000306584
-5.19726e-05
0.000687152
0.000301749
-4.06618e-05
0.000831969
0.000282564
-9.74688e-06
0.000947411
0.000234276
4.23849e-05
0.00096932
0.000128281
0.000130127
0.000915954
-0.000180301
0.000111221
0.000758372
-0.000665904
0.000105553
0.000496838
-0.00229682
-5.92524e-06
-0.00419708
-0.000402028
-0.000664839
0.00128222
-0.000172117
-0.000619225
0.000700694
-0.000170903
-0.000469241
0.000586777
-0.000147914
-0.0002625
0.000469562
-0.000128307
-4.70593e-05
0.000378304
-0.000113683
0.000167092
0.000311673
-0.000100586
0.000374284
0.000265428
-9.09415e-05
0.000574444
0.000228454
-8.44753e-05
0.00076879
0.000202742
-8.13231e-05
0.000959738
0.000179665
-8.14759e-05
0.00115075
0.000165566
-8.42927e-05
0.00134115
0.000150749
-8.73706e-05
0.00153709
0.000139557
-8.95829e-05
0.00172629
0.000123421
-8.07374e-05
0.00190563
8.45094e-05
-6.69598e-05
0.00203574
2.74716e-05
-2.42046e-05
0.00207876
-0.000186332
1.24476e-06
0.002028
-0.00054308
1.37978e-05
0.00138714
-0.00163674
-3.02665e-05
-0.00303689
-0.000452801
0.00126893
-0.000136513
0.00196827
-0.000161901
0.00255954
-0.000169071
0.00304192
-0.000164592
0.00344035
-0.000155335
0.00377612
-0.000145308
0.00406847
-0.000134887
0.00432556
-0.000127032
0.00455801
-0.000118654
0.00476815
-0.000114487
0.00496421
-0.000108551
0.00514647
-0.000108537
0.00531682
-0.000102516
0.00547445
-0.000104903
0.00559211
-9.20026e-05
0.00565907
-9.65115e-05
0.00551326
-7.33741e-05
0.00501232
-0.000106538
0.00336125
-0.000112403
-0.000510158
-6.41518e-06
7.15609e-06
-3.19349e-06
-2.05932e-05
1.56036e-05
-4.10719e-06
-3.76798e-05
1.87519e-05
-4.2546e-06
-5.57749e-05
1.9906e-05
-4.35915e-06
-7.42933e-05
2.04726e-05
-4.66318e-06
-9.30761e-05
2.09283e-05
-5.22054e-06
-0.00011195
2.12882e-05
-6.08558e-06
-0.000130551
2.1384e-05
-7.34224e-06
-0.000148239
2.09555e-05
-9.09846e-06
-0.000164016
1.9664e-05
-1.14735e-05
-0.00017648
1.71092e-05
-1.45737e-05
-0.000183824
1.28747e-05
-1.84566e-05