/*--------------------------------*- C++ -*----------------------------------*\
  =========                 |
  \\      /  F ield         | OpenFOAM: The Open Source CFD Toolbox
   \\    /   O peration     | Website:  https://openfoam.org
    \\  /    A nd           | Version:  10
     \\/     M anipulation  |
\*---------------------------------------------------------------------------*/
FoamFile
{
    format      ascii;
    class       surfaceScalarField;
    location    "8.15";
    object      phi;
}
// * * * * * * * * * * * * * * * * * * * * * * * * * * * * * * * * * * * * * //

dimensions      [0 3 -1 0 0 0 0];

internalField   nonuniform List<scalar> 
928
(
0.0955776
0.00442238
0.103562
-0.0079844
0.106503
-0.00294142
-0.00993952
0.116443
0.0944722
0.00995022
0.106025
-0.019537
0.101741
0.0013419
-0.0202836
0.112086
0.0956884
0.0142618
0.107219
-0.0310671
0.102623
0.00593754
-0.0411348
0.123474
0.104253
0.0100092
0.0951677
-0.0219823
0.101192
-8.63543e-05
0.147461
-0.0874039
0.11134
0.00510273
-0.0164563
0.127797
0.107523
0.00966554
-0.0420749
0.133141
0.12275
0.0103897
-0.0460211
0.126696
0.15785
0.111829
0.127723
7.31803e-05
0.128377
-0.000653734
0.129677
-0.0012998
-0.0016481
0.131325
0.132661
0.000553073
0.132863
-0.000855426
0.134469
-0.00290603
-0.00229194
0.135113
0.128679
-0.0014301
0.134892
-0.00706818
0.131556
0.000429935
0.000288822
0.128975
0.109495
0.000903892
0.118909
-0.0164815
0.115627
0.00371119
0.103161
0.0127549
0.132203
-0.000878137
0.13292
-0.000716902
0.132752
0.000167934
0.132752
2.44487e-07
0.131997
0.00075527
0.130904
0.00109264
0.130128
0.000776311
0.128781
0.00134648
0.12807
0.000711613
0.126869
0.00120093
0.126188
0.000680495
0.12514
0.00104803
0.124455
0.000684861
0.124143
0.000312603
0.12324
0.000903062
0.122387
0.000852852
0.1201
0.00228659
0.118151
0.00194925
0.115281
0.00286973
0.112876
0.00240506
0.110845
0.00203119
0.109142
0.00170238
0.108612
0.000530334
0.107866
0.00074584
0.108894
-0.00102727
0.109688
-0.000794517
0.111585
-0.00189653
0.112956
-0.00137176
0.114162
-0.00120596
0.114805
-0.000642689
0.114583
0.000221781
0.113587
0.000996282
0.111429
0.00215839
0.108691
0.00273763
0.105315
0.00337597
0.102062
0.0032534
0.0990849
0.00297665
0.096839
0.00224598
0.0951065
0.00173247
0.000975238
0.135459
-0.00122441
0.136304
-0.00156106
0.136635
-0.000163534
0.137132
-0.000496317
0.137074
0.000812846
0.136581
0.00158551
0.136157
0.00120088
0.135535
0.00196781
0.134898
0.00134868
0.133688
0.00241104
0.133053
0.00131526
0.132487
0.00161473
0.132829
0.000342646
0.133412
-0.000270472
0.132996
0.00131874
0.132615
0.0012338
0.131189
0.00371287
0.12985
0.00328818
0.12779
0.00492972
0.125886
0.00430904
0.124019
0.00389817
0.122092
0.00362996
0.121563
0.00105913
0.121172
0.00113664
0.122256
-0.00211077
0.123315
-0.00185375
0.125128
-0.00370972
0.126822
-0.00306549
0.128279
-0.00266284
0.129979
-0.00234331
0.130437
-0.000235672
0.13082
0.000612641
0.129198
0.00378061
0.127679
0.00425632
0.125047
0.00600838
0.122765
0.00553513
0.120354
0.00538741
0.118143
0.00445761
0.116543
0.00333205
0.00248379
0.129653
-0.00190196
0.130641
-0.0025496
0.132711
-0.00223329
0.132831
-0.000616626
0.131981
0.00166361
0.133323
0.000242949
0.133512
0.00101222
0.13272
0.00275917
0.13089
0.00317882
0.130391
0.00291003
0.129972
0.00173507
0.130657
0.000929292
0.130953
4.67047e-05
0.131154
-0.000471938
0.131996
0.000477508
0.132315
0.000914677
0.132965
0.00306294
0.132526
0.0037267
0.131665
0.00579084
0.130028
0.00594618
0.128699
0.00522678
0.127676
0.00465292
0.126439
0.00229612
0.125683
0.00189265
0.124971
-0.00139806
0.124401
-0.0012842
0.12462
-0.00392906
0.125089
-0.00353359
0.126031
-0.00360542
0.12731
-0.00362194
0.12911
-0.00203624
0.131349
-0.00162637
0.132885
0.00224465
0.134129
0.00301214
0.133707
0.00643079
0.1332
0.00604228
0.130915
0.00767218
0.128485
0.00688794
0.125084
0.00673279
0.00569071
0.112507
-0.0112481
0.106895
0.00306282
0.110499
-0.00583786
0.107599
0.00228427
0.104397
0.00486558
0.109711
-0.00507192
0.109066
0.00165753
0.104448
0.00737706
0.104087
0.00353994
0.102123
0.00487428
0.1003
0.00355781
0.0989764
0.00225303
0.0975522
0.00147089
0.0977239
-0.000643617
0.099347
-0.00114561
0.101352
-0.00109008
0.105469
-0.00105462
0.108119
0.00107738
0.110704
0.00320543
0.112348
0.00430254
0.112127
0.00544763
0.110086
0.00669411
0.106219
0.00616267
0.101382
0.00672939
0.0943836
0.0056007
0.0894403
0.00365912
0.0845961
0.000915143
0.082668
-0.00160545
0.0823699
-0.00330739
0.0848479
-0.00609985
0.0893409
-0.00652931
0.0933766
-0.00566204
0.0998966
-0.00427532
0.104971
-0.00206227
0.110546
0.000855437
0.114771
0.00181762
0.118663
0.0037802
0.121857
0.00369369
0.125039
0.00355063
0.00356755
0.109512
0.000496888
0.0879027
-0.00037264
0.0868713
0.00094506
-0.000532559
0.111086
-0.0105895
0.0884204
0.0222934
0.089762
-0.000396515
0.0892294
-0.00464882
0.00555271
0.0177336
-0.0388639
0.0124661
0.00897866
0.0378255
-0.0126044
-0.00367905
0.00923176
-0.0240157
-0.0185272
-0.0203936
0.00535649
0.0155512
0.00188067
-0.00440472
-0.0194478
-0.00492382
0.00358192
0.00474871
-0.0155104
0.00290438
0.0041286
-0.0034973
0.0112672
-0.00157725
-0.00699196
0.00701715
-0.00693687
0.0114072
0.00298701
0.00925931
0.00568784
0.00739387
0.00673972
0.00915646
0.00179521
0.0127776
-0.00136816
0.0166676
-0.00241908
0.0201739
-0.00414986
0.0240819
-0.0050537
0.0279099
-0.00491806
0.030515
-0.00365967
0.0331457
-0.00155332
0.0351433
0.0012078
0.0360431
0.00340275
0.0357547
0.00573603
0.0346054
0.00784341
0.0329133
0.00785471
0.0310821
0.0085606
0.0300491
0.00663376
0.0298506
0.00385757
0.0296739
0.00109182
0.0297176
-0.00164914
0.0319181
-0.00550783
0.0344113
-0.0085931
0.0369122
-0.00903024
0.0409363
-0.00968607
0.0450352
-0.00837426
0.0487996
-0.00582669
0.0514281
-0.00177308
0.0548185
-0.00157279
0.0572368
0.00136196
0.0590482
0.00188225
0.0621567
0.000442089
0.00222125
0.000690963
-0.00458752
0.00294472
0.00132817
-0.00863423
-0.00393144
-0.00902185
0.00451621
0.00176721
0.000478193
-0.00254953
-0.00267523
-0.00675159
-0.00273482
-0.0040586
0.000294035
-0.000429054
0.00205829
0.00627413
3.65274e-05
0.00964964
-0.0015803
0.0114999
-0.00321846
0.0131005
-0.00401965
0.0143521
-0.00540146
0.0156317
-0.0063333
0.0174285
-0.00671484
0.0185189
-0.00475012
0.0204337
-0.0034681
0.0229503
-0.00130879
0.0245236
0.00182947
0.0273023
0.00295729
0.0298112
0.00533453
0.0322264
0.00543956
0.0350193
0.0057677
0.0376702
0.00398283
0.0389189
0.00260886
0.0392172
0.00079353
0.0398174
-0.00224935
0.0391232
-0.00481364
0.0368402
-0.00631007
0.0348935
-0.00708352
0.0340906
-0.00888323
0.0330729
-0.00735649
0.0330816
-0.0058354
0.0349287
-0.00362017
0.0358557
-0.00249984
0.0378156
-0.000597863
0.040707
-0.00100914
0.0427014
-0.00155232
-0.000170038
0.103349
-0.0139386
0.0927894
0.032853
0.0979214
-0.00552852
0.0413235
0.145827
0.095686
-0.00962463
0.109575
0.0189641
0.1042
-0.000153814
0.0199058
0.125618
0.0946317
-0.00425632
0.105587
0.00800915
0.102662
0.00277104
0.00995492
0.112613
0.0957437
0.103753
0.106524
0.116479
0.153317
-0.00748943
0.0476713
0.105645
0.127219
-0.00909096
0.0416265
0.133264
0.108999
-0.00547683
0.0166245
0.134001
0.111002
0.127626
0.112006
0.0028708
0.090774
0.00270532
0.0904662
0.00566429
0.000621088
0.0917258
0.135525
0.000609896
0.137769
0.000461399
0.141622
0.00181173
0.00293072
0.139312
0.13488
-0.00026973
0.135061
0.000280807
0.135252
0.00162042
0.00148302
0.1367
0.127357
0.127638
0.129258
0.130741
0.087536
-0.000397752
0.0880285
0.00083564
0.0839477
0.000149344
0.0868574
0.00160658
0.0857139
0.00162162
0.0831579
-0.000119207
0.0811731
-0.000750045
0.0828094
-0.00134218
0.0860268
-0.00115912
0.0876312
-0.0015679
0.0899788
-0.00392788
0.0913705
-0.00461016
0.0926015
-0.00525071
0.0924637
-0.0052636
0.0903146
-0.00418422
0.0871916
-0.00359179
0.0842683
-0.00182689
0.0821329
-0.00133264
0.0807951
2.90392e-05
0.0818241
0.00080045
0.0833929
0.00138849
0.0865228
0.00220457
0.0913491
0.000613279
0.0957521
0.00136472
0.101882
-0.00214705
0.107066
-0.00257475
0.113082
-0.00522289
0.116838
-0.00600539
0.118435
-0.00641036
0.118354
-0.00622939
0.114664
-0.00339372
0.108401
-0.00262013
0.100598
0.000446238
0.0945676
0.000195426
0.0888817
0.00206577
0.0854576
0.000924223
0.0847985
6.12867e-05
0.0837201
6.92646e-05
0.0838933
-0.00172555
-0.00134103
0.136384
0.00253067
0.136334
0.000885175
0.135948
0.000535856
0.137774
-0.000219751
0.139442
-4.64166e-05
0.138829
0.000493993
0.138442
-0.000363552
0.137464
-0.000364157
0.138597
-0.00229216
0.13907
-0.00204066
0.138963
-0.0038205
0.138305
-0.00395248
0.137181
-0.00412706
0.136336
-0.00441866
0.13501
-0.0028581
0.134865
-0.00344639
0.133537
-0.00049884
0.132835
-0.000631059
0.132104
0.000760709
0.131818
0.00108617
0.132692
0.000514707
0.133516
0.00138007
0.135279
-0.00114944
0.136816
-0.000172788
0.138076
-0.00340624
0.138725
-0.00322427
0.13845
-0.00494732
0.137536
-0.00509171
0.135325
-0.00419945
0.133575
-0.00447998
0.131847
-0.00166493
0.13054
-0.00131372
0.129561
0.00142584
0.128201
0.00155533
0.128209
0.00205765
0.127278
0.00185487
0.127052
0.000287945
0.126925
0.00019577
0.126517
-0.00131743
-0.00125764
0.137883
0.00134792
0.138344
0.000423778
0.138516
0.000363818
0.138678
-0.000381565
0.139429
-0.000797853
0.140411
-0.00048743
0.140474
-0.000426554
0.140189
-7.97615e-05
0.138999
-0.00110195
0.138253
-0.00129458
0.136755
-0.0023222
0.135116
-0.00231366
0.133108
-0.00211927
0.131015
-0.00232517
0.129624
-0.00146729
0.127932
-0.0017543
0.12791
-0.000477072
0.127748
-0.000469642
0.128076
0.000432943
0.128935
0.000227031
0.129412
3.81036e-05
0.13068
0.000112323
0.130257
-0.000726251
0.130664
-0.000579984
0.129004
-0.00174608
0.12763
-0.00185088
0.125452
-0.00276957
0.123104
-0.0027436
0.121366
-0.00246146
0.119006
-0.00211998
0.118061
-0.000719947
0.117365
-0.000616996
0.11786
0.000930338
0.118657
0.00075798
0.119707
0.00100787
0.120844
0.000717651
0.121222
-8.92611e-05
0.121712
-0.000294594
0.121354
-0.0009591
-0.000969057
0.132089
0.132513
0.132876
0.132495
0.131697
0.13121
0.130783
0.130703
0.129601
0.128307
0.125985
0.123671
0.121552
0.119226
0.117759
0.116005
0.115528
0.115058
0.115491
0.115718
0.115756
0.115869
0.115142
0.114562
0.112816
0.110965
0.108196
0.105452
0.102991
0.100871
0.100151
0.0995338
0.100464
0.101222
0.10223
0.102948
0.102858
0.102564
0.101605
)
;

boundaryField
{
    inlet
    {
        type            calculated;
        value           nonuniform List<scalar> 10(-0.1 -0.1 -0.1 -0.1 -0.1 -0.1 -0.1 -0.1 -0.1 -0.1);
    }
    outlet
    {
        type            calculated;
        value           nonuniform List<scalar> 10(0.0941313 0.115035 0.121877 0.127163 0.0635031 0.0450926 0.0850643 0.126434 0.121065 0.100636);
    }
    obstacle
    {
        type            calculated;
        value           uniform 0;
    }
    upperWall
    {
        type            calculated;
        value           uniform 0;
    }
    lowerWall
    {
        type            calculated;
        value           uniform 0;
    }
    frontAndBack
    {
        type            empty;
        value           nonuniform List<scalar> 0();
    }
}


// ************************************************************************* //
