/*--------------------------------*- C++ -*----------------------------------*\
  =========                 |
  \\      /  F ield         | OpenFOAM: The Open Source CFD Toolbox
   \\    /   O peration     | Website:  https://openfoam.org
    \\  /    A nd           | Version:  10
     \\/     M anipulation  |
\*---------------------------------------------------------------------------*/
FoamFile
{
    format      ascii;
    class       surfaceScalarField;
    location    "3.375";
    object      phi;
}
// * * * * * * * * * * * * * * * * * * * * * * * * * * * * * * * * * * * * * //

dimensions      [0 3 -1 0 0 0 0];

internalField   nonuniform List<scalar> 
890
(
0.00983235
0.000167653
0.00973765
9.46954e-05
0.0094805
0.000257152
0.00947721
3.28626e-06
0.000124636
0.00935258
0.0101277
3.99466e-05
0.0101957
2.67112e-05
0.0104075
4.53907e-05
0.0104549
-4.42017e-05
-9.14789e-05
0.0106711
0.010079
-3.90899e-05
0.0102121
-0.000106397
0.0103718
-0.000114296
0.010505
-0.000177335
-0.000216417
0.0106299
0.0100935
-0.000132582
0.0102063
-0.000219243
0.0103258
-0.000233792
0.0104017
-0.000253164
-0.000266639
0.0104519
0.00986742
0.00964818
0.00941438
0.00916122
0.00889458
0.00925091
-0.00018357
0.000285237
0.00929606
-0.000321846
0.000276692
0.00947359
-0.000388008
0.000210486
0.00971381
-0.000432723
0.000192503
0.0100063
-0.000606188
0.000313736
0.0103671
-0.000964014
0.000603207
0.0106518
-0.00140392
0.00111922
0.0108383
-0.00198312
0.00179664
0.0109086
-0.00260136
0.00253105
0.0107587
-0.00309596
0.00324583
0.0104111
-0.00345369
0.00380126
0.00991516
-0.00343805
0.00393402
0.00923375
-0.00308633
0.00376774
0.00843976
-0.00250864
0.00330263
0.00754465
-0.00151083
0.00240594
0.00655233
-0.000424805
0.00141712
0.0056777
0.000174196
0.000700436
0.00517412
0.000317385
0.000186196
0.00506118
0.000357364
-0.000244425
0.0051981
0.000455956
-0.000592872
0.00541492
0.000564026
-0.00078085
0.00560794
0.000609645
-0.000802663
0.00574252
0.000579264
-0.00071384
0.00582285
0.000496551
-0.000576882
0.00586576
0.000393191
-0.000436101
0.00588708
0.000292888
-0.000314209
0.00589749
0.000208082
-0.000218493
0.0059029
0.000142471
-0.000147885
0.00590613
9.47314e-05
-9.79592e-05
0.00590834
6.14863e-05
-6.36983e-05
0.00590998
3.90639e-05
-4.07026e-05
0.00591122
2.4302e-05
-2.55368e-05
0.00591213
1.47697e-05
-1.56862e-05
0.0059128
8.72086e-06
-9.38557e-06
0.00591327
4.94911e-06
-5.41739e-06
0.00591359
2.64968e-06
-2.97138e-06
0.0059138
1.28049e-06
-1.49526e-06
0.00591394
5.0042e-07
-6.39985e-07
0.00591403
6.85601e-08
-1.61812e-07
0.00591409
-1.38075e-07
7.99325e-08
0.00591412
-2.20654e-07
1.90273e-07
0.00591414
-2.36813e-07
2.19372e-07
0.00591415
-1.98452e-07
1.89318e-07
0.00591415
-1.7118e-07
1.66323e-07
-7.7866e-08
7.36066e-08
0.0106749
-0.000187419
0.0107142
-0.000361128
0.010832
-0.000505793
0.0109749
-0.000575672
0.0110939
-0.000725166
0.0111708
-0.00104097
0.0111606
-0.00139371
0.0110142
-0.00183665
0.0107502
-0.00233737
0.0102984
-0.00264423
0.00964986
-0.00280511
0.00887112
-0.00265931
0.00793533
-0.00215054
0.00695561
-0.00152892
0.00613193
-0.000687142
0.0054774
0.000229718
0.00494469
0.000706906
0.00459842
0.000663658
0.00449518
0.000460602
0.00459863
0.000352511
0.00481701
0.000345642
0.00506294
0.000363716
0.00528468
0.000357519
0.00546244
0.000318793
0.00559526
0.000260377
0.00569015
0.000197998
0.005756
0.000142234
0.00580084
9.76309e-05
0.005831
6.45711e-05
0.00585111
4.13757e-05
0.00586442
2.57498e-05
0.00587317
1.55506e-05
0.00587888
9.06442e-06
0.00588256
5.03395e-06
0.00588492
2.59398e-06
0.0058864
1.16437e-06
0.00588732
3.63501e-07
0.00588787
-4.74881e-08
0.0058882
-2.63537e-07
0.00588839
-3.30531e-07
0.0058885
-3.25067e-07
0.00588855
-2.91504e-07
0.00588858
-2.24704e-07
0.00588859
-1.83555e-07
-8.73824e-08
0.0107084
-0.000265903
0.0107332
-0.000385921
0.0107499
-0.000522533
0.0107877
-0.000613478
0.0107797
-0.000717177
0.0107032
-0.000964443
0.0105299
-0.00122039
0.010255
-0.00156175
0.00992517
-0.00200754
0.0094403
-0.00215936
0.00873648
-0.00210129
0.00792756
-0.00185039
0.00707278
-0.00129577
0.00624877
-0.000704913
0.00571178
-0.000150148
0.00555072
0.000390773
0.00556689
0.000690736
0.00553558
0.000694972
0.00541882
0.000577357
0.00530229
0.000469047
0.00524971
0.000398221
0.00526807
0.000345353
0.00533277
0.00029282
0.00541502
0.00023654
0.00549475
0.000180645
0.00556204
0.000130714
0.00561413
9.01422e-05
0.00565216
5.96008e-05
0.00567878
3.79461e-05
0.00569686
2.33007e-05
0.00570885
1.37607e-05
0.00571665
7.74592e-06
0.00572165
4.06406e-06
0.00572481
1.8761e-06
0.00572677
6.37341e-07
0.00572797
-3.8958e-08
0.00572867
-3.34557e-07
0.00572907
-4.49316e-07
0.00572928
-4.68078e-07
0.00572937
-4.25736e-07
0.00572941
-3.59206e-07
0.00572941
-2.93294e-07
0.0057294
-2.14068e-07
0.00572938
-1.67688e-07
-8.26542e-08
0.0104864
-0.000300437
0.0104434
-0.000342889
0.0103424
-0.000421566
0.0102053
-0.000476355
0.0100151
-0.000526982
0.00973489
-0.000684229
0.00931867
-0.000804178
0.00877403
-0.00101711
0.00812579
-0.0013593
0.00730288
-0.00133645
0.00616904
-0.000967446
0.00490145
-0.000582793
0.00386133
-0.000255643
0.00317928
-2.28617e-05
0.00287725
0.00015188
0.00295752
0.000310504
0.00323741
0.000410842
0.00352161
0.000410768
0.00374802
0.000350952
0.00393666
0.000280402
0.00411571
0.000219171
0.00429202
0.000169047
0.0044571
0.000127737
0.00460019
9.34542e-05
0.00471524
6.55896e-05
0.004802
4.39579e-05
0.00486406
2.8081e-05
0.00490661
1.70537e-05
0.00493479
9.7684e-06
0.00495291
5.17215e-06
0.00496428
2.39782e-06
0.00497121
8.10459e-07
0.0049753
-2.19186e-08
0.00497764
-4.67817e-07
0.0049789
-6.23306e-07
0.0049795
-6.39729e-07
0.00497975
-5.80493e-07
0.0049798
-4.95577e-07
0.00497974
-4.08443e-07
0.00497963
-3.23719e-07
0.00497953
-2.50229e-07
0.00497942
-1.89838e-07
0.00497934
-1.33604e-07
0.00497927
-9.97391e-08
-4.83223e-08
0.00859414
0.00825125
0.00782969
0.00735333
0.00682635
0.00614212
0.00533794
0.00432083
0.00296153
0.00162508
0.000657637
7.48435e-05
-0.0001808
-0.000203661
-5.17811e-05
0.000258723
0.000669565
0.00108033
0.00143129
0.00171169
0.00193086
0.00209991
0.00222764
0.0023211
0.00238669
0.00243064
0.00245873
0.00247578
0.00248555
0.00249072
0.00249312
0.00249393
0.00249391
0.00249344
0.00249281
0.00249218
0.00249159
0.0024911
0.00249069
0.00249037
0.00249012
0.00248993
0.00248979
0.00248969
-0.00014061
0.00014061
-0.000494484
0.000353875
-0.00127518
0.000780699
-0.00236156
0.00108637
-0.00346904
0.00110749
-0.00435873
0.000889682
-0.00491385
0.000555119
-0.00502247
0.000108622
-0.0046969
-0.00032557
-0.00395286
-0.000744033
-0.00286464
-0.00108823
-0.0015268
-0.00133783
-7.3505e-05
-0.0014533
0.00132675
-0.00140026
0.00250055
-0.0011738
0.00331453
-0.000813985
0.00372602
-0.000411485
0.00379165
-6.5631e-05
0.00364275
0.000148894
0.0033989
0.000243858
0.00314989
0.00024901
0.00293979
0.000210096
0.00278072
0.00015907
0.00266886
0.000111859
0.00259441
7.4448e-05
0.00254702
4.73948e-05
0.00251805
2.89658e-05
0.00250111
1.69455e-05
0.00249172
9.38521e-06
0.00248693
4.78775e-06
0.00248484
2.09519e-06
0.00248425
5.91554e-07
0.00248444
-1.91773e-07
0.002485
-5.6516e-07
0.00248569
-6.86233e-07
0.00248636
-6.74332e-07
0.00248697
-6.04078e-07
0.00248748
-5.11191e-07
0.0024879
-4.16323e-07
0.00248823
-3.30798e-07
0.00248848
-2.54128e-07
0.00248867
-1.91538e-07
0.00248881
-1.35347e-07
0.00248891
-1.00076e-07
-4.78914e-08
-0.000514205
0.000654815
-0.00120561
0.00104528
-0.0019375
0.00151259
-0.00258923
0.0017381
-0.00310986
0.00162812
-0.00344114
0.00122096
-0.00353028
0.000644265
-0.00332493
-9.67317e-05
-0.00282019
-0.000830304
-0.00199135
-0.00157288
-0.000910726
-0.00216885
0.00033539
-0.00258395
0.00167526
-0.00279316
0.00297484
-0.00269983
0.00411284
-0.0023118
0.00502509
-0.00172624
0.00564348
-0.00102988
0.00594181
-0.000363959
0.00598159
0.000109106
0.00587409
0.000351363
0.00571086
0.00041224
0.00554418
0.000376774
0.00539783
0.000305419
0.00527932
0.000230376
0.00518813
0.000165633
0.00512062
0.000114903
0.00507225
7.73345e-05
0.00503861
5.05863e-05
0.00501586
3.21354e-05
0.0050009
1.97532e-05
0.00499133
1.16667e-05
0.00498539
6.52767e-06
0.00498184
3.35726e-06
0.0049798
1.47128e-06
0.00497872
4.01891e-07
0.0049782
-1.56388e-07
0.00497801
-4.12455e-07
0.00497799
-4.98985e-07
0.00497807
-4.93035e-07
0.00497818
-4.41925e-07
0.0049783
-3.70091e-07
0.0049784
-2.96991e-07
0.00497849
-2.17163e-07
0.00497855
-1.69438e-07
-8.23988e-08
-0.000308602
0.000963417
-0.000315678
0.00105235
-0.000311294
0.00150821
-0.000271666
0.00169847
-0.000154588
0.00151104
1.30585e-05
0.00105331
0.000291066
0.000366258
0.000682187
-0.000487854
0.00126998
-0.00141809
0.00201343
-0.00231633
0.00282739
-0.00298281
0.00363502
-0.00339158
0.00446148
-0.00361963
0.00521284
-0.00345119
0.00578514
-0.00288411
0.00622629
-0.00216738
0.00657676
-0.00138036
0.00677991
-0.000567107
0.00679326
9.57545e-05
0.00666394
0.000480685
0.00648186
0.000594327
0.00630565
0.000552977
0.00615897
0.000452105
0.00604432
0.000345023
0.0059569
0.000253049
0.00589108
0.000180723
0.00584218
0.000126242
0.00580647
8.62877e-05
0.00578096
5.76477e-05
0.00576314
3.75804e-05
0.00575095
2.38493e-05
0.0057428
1.46765e-05
0.00573746
8.69646e-06
0.00573404
4.90068e-06
0.00573188
2.55488e-06
0.00573056
1.16124e-06
0.00572978
3.68154e-07
0.00572933
-4.65842e-08
0.0057291
-2.58243e-07
0.00572898
-3.27846e-07
0.00572894
-3.26137e-07
0.00572893
-2.90357e-07
0.00572894
-2.24399e-07
0.00572895
-1.84068e-07
-8.69339e-08
0.000181649
0.000781768
0.000746878
0.000487125
0.00141262
0.000842468
0.00215371
0.000957378
0.00287377
0.00079098
0.00351442
0.000412669
0.00414027
-0.000259595
0.00473053
-0.00107812
0.0052762
-0.00196376
0.00583081
-0.00287094
0.00640769
-0.00355968
0.00688015
-0.00386404
0.00720802
-0.0039475
0.00742693
-0.00367011
0.00745361
-0.00291078
0.00731296
-0.00202673
0.00717899
-0.00124638
0.00712406
-0.000512177
0.0070711
0.000148717
0.00694993
0.000601848
0.00676345
0.000780815
0.00655897
0.000757456
0.00637637
0.000634699
0.00623197
0.000489429
0.00612559
0.000359429
0.00605027
0.000256045
0.00599802
0.000178489
0.00596214
0.000122164
0.00593765
8.21433e-05
0.005921
5.42263e-05
0.00590976
3.50948e-05
0.00590222
2.2216e-05
0.00589721
1.3703e-05
0.00589392
8.18722e-06
0.00589179
4.6839e-06
0.00589044
2.51842e-06
0.00588959
1.21585e-06
0.00588908
4.66995e-07
0.00588876
5.34088e-08
0.00588858
-1.45993e-07
0.00588848
-2.26545e-07
0.00588843
-2.38984e-07
0.00588841
-1.99454e-07
0.00588839
-1.72186e-07
-7.79503e-08
0.001067
0.00183082
0.00288378
0.00403366
0.00513837
0.00615425
0.00701387
0.00773239
0.00829967
0.00867456
0.00891613
0.00898612
0.00880636
0.00843889
0.00793405
0.00732444
0.00677849
0.00645251
0.0063568
0.00636578
0.00636574
0.00632053
0.00624139
0.00615394
0.00607727
0.0060191
0.0059791
0.00595338
0.00593756
0.00592809
0.00592248
0.00591916
0.00591718
0.00591598
0.00591525
0.00591479
0.00591451
0.00591434
0.00591423
0.00591417
0.00591413
0.00591411
0.0059141
0.00591409
)
;

boundaryField
{
    inlet
    {
        type            calculated;
        value           nonuniform List<scalar> 5(-0.01 -0.01 -0.01 -0.01 -0.01);
    }
    outlet
    {
        type            calculated;
        value           nonuniform List<scalar> 10(0.00591416 0.0058886 0.00572938 0.00497924 0.00248965 0.00248896 0.00497859 0.00572896 0.00588838 0.00591409);
    }
    upperWall
    {
        type            calculated;
        value           uniform 0;
    }
    lowerWall
    {
        type            calculated;
        value           uniform 0;
    }
    frontAndBack
    {
        type            empty;
        value           nonuniform List<scalar> 0();
    }
}


// ************************************************************************* //
