/*--------------------------------*- C++ -*----------------------------------*\
  =========                 |
  \\      /  F ield         | OpenFOAM: The Open Source CFD Toolbox
   \\    /   O peration     | Website:  https://openfoam.org
    \\  /    A nd           | Version:  10
     \\/     M anipulation  |
\*---------------------------------------------------------------------------*/
FoamFile
{
    format      ascii;
    class       volScalarField;
    location    "9.8";
    object      p;
}
// * * * * * * * * * * * * * * * * * * * * * * * * * * * * * * * * * * * * * //

dimensions      [0 2 -2 0 0 0 0];

internalField   nonuniform List<scalar> 
496
(
29.4416
29.4897
25.9848
19.6589
30.2656
30.5754
26.1984
19.8273
35.4135
32.8373
24.2575
13.4075
42.8168
39.9814
36.2286
20.4735
11.1024
1.75218
10.724
1.64239
-2.011
-6.44527
-32.0714
-58.6253
-4.91231
-8.77351
-10.2964
-10.9235
-5.64405
-10.5279
-12.5937
-13.4532
0.91804
1.01669
-2.64698
-8.13235
-29.6632
-6.09968
-0.859454
-9.7533
-11.7669
-12.769
-13.8485
-14.546
-14.8723
-14.7148
-14.1787
-13.5894
-12.8454
-12.0903
-11.0923
-10.5168
-10.1874
-9.84173
-9.57769
-9.19075
-8.52803
-7.07976
-5.53421
-4.267
-3.20756
-2.08875
-1.00075
-0.375738
-0.138577
-0.184856
-0.575712
-0.806071
-1.08603
-1.27108
-1.42071
-1.5784
-1.36587
-0.853985
-0.0626395
0.696052
1.26572
1.46532
1.15994
0.536508
-14.3867
-15.3459
-16.115
-16.0553
-15.4686
-14.8471
-14.275
-13.6618
-12.7846
-11.8336
-10.9937
-10.5431
-10.1759
-9.77182
-9.55312
-9.32036
-8.6488
-7.34922
-5.96988
-4.53894
-3.1282
-1.57902
-0.362566
0.0604745
0.251744
0.0555996
-0.236844
-0.68356
-1.23084
-1.43646
-1.5388
-1.6825
-1.54769
-1.10374
-0.183855
0.881567
1.5277
1.81069
1.46422
0.729881
-12.6907
-15.7288
-16.6264
-16.7579
-16.3435
-15.3399
-14.3981
-13.6193
-12.6838
-11.7704
-11.332
-10.827
-9.9827
-9.90374
-10.2706
-10.5833
-9.67501
-8.04517
-6.12199
-4.32888
-2.74505
-1.48559
-0.477921
0.387686
0.299854
-0.248604
-1.01979
-1.90273
-2.45322
-2.87319
-2.86933
-2.35554
-1.5909
-0.773479
0.523523
1.6276
2.32651
2.11364
1.51403
0.469811
-14.7897
-16.5896
-15.9812
-16.4848
-17.3465
-16.2658
-14.8424
-13.8892
-13.0482
-11.6594
-10.3953
-9.17077
-8.76378
-9.45945
-10.551
-11.441
-10.8643
-9.51482
-7.61806
-5.2779
-2.32991
0.68418
2.37741
3.20388
2.25797
1.19156
-0.126821
-1.60384
-3.04347
-3.68533
-4.01317
-3.43958
-2.95568
-1.96046
0.556323
3.57043
5.58227
5.2051
3.70932
1.36676
47.5423
49.4893
63.6327
76.0834
47.8783
49.3488
63.9284
76.1547
-29.254
-11.1936
-5.39014
-15.3594
-29.8743
-29.2795
-3.54449
-20.8581
-22.2764
-17.1248
-18.6525
-20.6327
-16.3484
-16.4252
-16.9297
-16.045
-13.8451
-12.0624
-10.6909
-10.2988
-9.9575
-9.97714
-10.3114
-10.6372
-10.1378
-8.6525
-7.31542
-5.24173
-3.12926
-1.63576
-0.466401
0.071577
0.243115
0.325998
-0.264471
-1.25878
-2.07025
-2.81679
-3.41403
-2.79115
-2.38552
-1.02741
-0.0572087
0.987471
2.02948
1.58683
1.13881
0.313078
-19.3793
-16.8801
-16.3295
-15.1189
-17.1124
-17.75
-15.2025
-13.9472
-14.4617
-14.1375
-13.6729
-12.3984
-10.8624
-9.56542
-8.73836
-7.35076
-5.70635
-5.63324
-5.32124
-4.53751
-4.30998
-4.1756
-3.75687
-3.49444
-2.58506
-1.33749
-0.686217
-0.177443
0.49401
0.63363
0.423937
0.278549
0.109447
0.19743
0.174246
-0.468299
-1.03377
-1.73296
-2.44838
-1.15583
43.1175
40.2458
36.7806
21.6021
35.7685
33.6171
25.1181
14.8634
31.0907
31.6194
27.4971
21.3295
30.4618
30.5169
27.1081
21.0739
-27.8217
-53.6162
-0.125345
-4.71999
12.5514
3.51861
12.5247
3.21339
-24.7649
-16.3752
-10.5992
-6.38012
1.26683
-0.305411
-3.09918
-6.303
-4.12478
-10.1377
-13.9444
-15.0332
-4.00401
-8.68502
-10.8134
-11.46
-11.9087
-16.7956
-18.3508
-16.7879
-14.4135
-14.894
-16.1149
-15.8056
-14.5941
-14.3579
-14.036
-12.919
-10.9947
-9.06434
-6.99551
-4.64456
-3.61949
-3.18962
-3.9956
-4.70613
-5.51399
-5.96214
-5.70483
-5.07042
-3.77489
-2.12671
0.480142
2.4805
3.94142
4.6807
4.38592
3.148
2.39201
1.30921
0.273589
-1.07348
-2.52022
-2.75067
-2.95367
-1.56449
-11.423
-16.1088
-18.1206
-17.2774
-15.1749
-14.1149
-14.3467
-14.6986
-14.5523
-14.0567
-13.3695
-11.9411
-10.1871
-8.73868
-7.85107
-6.7067
-5.39177
-4.55886
-4.45007
-4.93384
-5.06472
-5.25593
-4.7384
-3.93747
-2.66207
-1.46242
-0.201661
0.813456
1.27705
2.03887
2.57554
2.57937
2.28878
1.46884
0.476646
-0.740393
-1.42837
-1.72219
-1.37014
-0.373004
-14.8593
-15.2193
-16.1557
-16.4183
-15.6957
-14.6248
-14.1365
-14.2147
-14.2554
-13.746
-12.8793
-11.6678
-10.205
-8.98484
-8.03405
-7.06869
-5.78298
-4.81432
-4.34846
-4.33525
-4.34593
-4.05412
-3.59142
-3.13463
-2.58764
-1.81974
-0.87957
0.0669013
0.930559
1.51957
2.0241
2.23462
2.10853
1.85946
1.29801
0.71971
0.162705
-0.0183829
0.0730864
-0.139373
-11.7071
-12.4428
-13.5991
-14.7944
-15.3018
-14.8361
-14.2693
-14.0301
-14.0983
-13.6368
-12.6467
-11.2947
-9.95294
-8.87281
-7.99272
-7.32199
-6.27592
-5.20151
-4.49574
-4.29339
-4.20277
-3.84426
-3.49733
-3.16405
-2.70293
-1.7666
-0.745055
0.0948874
0.76286
1.21029
1.69552
2.00998
2.09327
1.99783
1.46678
1.01943
0.534922
0.216064
0.126525
-0.00745408
)
;

boundaryField
{
    inlet
    {
        type            zeroGradient;
    }
    outlet
    {
        type            fixedValue;
        value           uniform 0;
    }
    obstacle
    {
        type            zeroGradient;
    }
    upperWall
    {
        type            zeroGradient;
    }
    lowerWall
    {
        type            zeroGradient;
    }
    frontAndBack
    {
        type            empty;
    }
}


// ************************************************************************* //
