/*--------------------------------*- C++ -*----------------------------------*\
  =========                 |
  \\      /  F ield         | OpenFOAM: The Open Source CFD Toolbox
   \\    /   O peration     | Website:  https://openfoam.org
    \\  /    A nd           | Version:  10
     \\/     M anipulation  |
\*---------------------------------------------------------------------------*/
FoamFile
{
    format      ascii;
    class       volVectorField;
    location    "9.8";
    object      U;
}
// * * * * * * * * * * * * * * * * * * * * * * * * * * * * * * * * * * * * * //

dimensions      [0 1 -1 0 0 0 0];

internalField   nonuniform List<vector> 
496
(
(9.9824 0.0917293 0)
(9.91335 -0.204567 0)
(10.2304 -0.117789 0)
(10.763 -0.20675 0)
(10.1281 0.502343 0)
(9.74589 -1.28267 0)
(10.3068 -0.358379 0)
(10.7628 -1.12001 0)
(10.9698 1.41128 0)
(8.9095 -2.96443 0)
(11.2788 -0.0671841 0)
(10.6064 -4.07902 0)
(12.5151 1.51202 0)
(7.72454 -2.52483 0)
(13.4162 0.635433 0)
(9.83925 -6.39147 0)
(11.454 -0.233097 3.11174e-18)
(12.1474 -0.135893 -4.8113e-19)
(11.6589 -0.475844 -6.27975e-19)
(12.4414 0.245576 1.8443e-18)
(12.9611 -1.9526 -2.48744e-18)
(12.9739 -0.288419 -1.36284e-18)
(13.7222 -5.62119 -3.65915e-17)
(15.4355 -4.10266 6.64699e-17)
(12.676 -0.177406 0)
(12.9048 -0.0794048 0)
(13.0418 -0.0457708 0)
(13.0431 0.0587317 0)
(13.0047 0.123265 0)
(13.3516 -0.223916 0)
(13.531 -0.644388 0)
(13.5872 -0.774279 0)
(12.2325 1.24426 0)
(12.4189 1.45425 0)
(12.5368 0.652391 0)
(13.0312 0.445886 0)
(11.7634 -3.06091 0)
(11.3896 -1.86187 0)
(7.97129 -1.55202 0)
(11.5196 -1.56081 0)
(13.1401 0.148109 0)
(13.158 0.231974 0)
(13.2506 0.362915 0)
(13.2081 0.407592 0)
(13.2177 0.489618 0)
(13.0736 0.454606 0)
(13.0329 0.485944 0)
(12.8551 0.467589 0)
(12.8639 0.458115 0)
(12.6955 0.443724 0)
(12.752 0.377129 0)
(12.6346 0.412718 0)
(12.779 0.360322 0)
(12.6631 0.433437 0)
(12.7314 0.406306 0)
(12.5615 0.483606 0)
(12.4326 0.486552 0)
(12.0538 0.533597 0)
(11.6911 0.600899 0)
(11.4064 0.609067 0)
(11.1649 0.605018 0)
(11.0706 0.441308 0)
(10.9638 0.373511 0)
(11.0912 0.246934 0)
(11.207 0.233151 0)
(11.3753 0.178958 0)
(11.4956 0.23003 0)
(11.4565 0.249995 0)
(11.4402 0.34468 0)
(11.064 0.376653 0)
(10.8997 0.435771 0)
(10.2881 0.474622 0)
(10.1783 0.469167 0)
(9.54802 0.440447 0)
(9.69056 0.29036 0)
(9.44315 0.218747 0)
(9.8658 0.0241324 0)
(10.1317 0.0373047 0)
(10.4732 -0.0749646 0)
(10.9952 0.0102684 0)
(13.7203 -0.766284 0)
(13.7643 -0.655334 0)
(13.8771 -0.470943 0)
(13.7901 -0.418916 0)
(13.7667 -0.270266 0)
(13.617 -0.299832 0)
(13.6038 -0.26471 0)
(13.4714 -0.323558 0)
(13.4406 -0.320585 0)
(13.3346 -0.366314 0)
(13.3458 -0.415928 0)
(13.3629 -0.344035 0)
(13.4297 -0.384402 0)
(13.4718 -0.287426 0)
(13.4754 -0.27241 0)
(13.4707 -0.0773834 0)
(13.3105 -0.021617 0)
(13.1363 0.0405862 0)
(12.8428 -0.0216087 0)
(12.5871 -0.0806576 0)
(12.3107 -0.179207 0)
(12.1045 -0.270568 0)
(12.1256 -0.342067 0)
(12.1485 -0.436739 0)
(12.41 -0.440175 0)
(12.5072 -0.425321 0)
(12.8282 -0.234929 0)
(12.845 -0.134835 0)
(13.0174 0.1428 0)
(12.7368 0.220455 0)
(12.7144 0.380075 0)
(12.2885 0.256009 0)
(12.1388 0.148173 0)
(11.6549 -0.0219089 0)
(11.4548 -0.270255 0)
(11.323 -0.318409 0)
(11.3446 -0.669803 0)
(11.7165 -0.542454 0)
(11.7924 -0.736146 0)
(12.3488 -0.524344 0)
(13.3108 0.341493 0)
(13.5229 0.462732 0)
(13.6466 0.494673 0)
(13.5212 0.440637 0)
(13.5594 0.595357 0)
(13.3731 0.635789 0)
(13.2547 0.692623 0)
(13.2296 0.633263 0)
(13.0036 0.547769 0)
(13.069 0.50938 0)
(12.842 0.301428 0)
(13.0619 0.344495 0)
(12.8004 0.11661 0)
(13.0686 0.279514 0)
(13.0228 0.281764 0)
(13.2715 0.632461 0)
(13.1013 0.884722 0)
(12.8793 1.1134 0)
(12.6139 1.34055 0)
(12.2078 1.15961 0)
(12.2319 1.09612 0)
(11.8254 0.461424 0)
(12.0716 0.224452 0)
(11.6828 -0.313766 0)
(12.2062 -0.329521 0)
(11.9991 -0.46345 0)
(12.6319 -0.258485 0)
(12.5188 -0.104788 0)
(13.1283 0.249263 0)
(13.0934 0.583805 0)
(13.2735 0.935001 0)
(13.0577 1.28872 0)
(12.614 1.30799 0)
(12.466 1.36046 0)
(11.8365 0.658781 0)
(12.0159 0.202827 0)
(11.4365 -0.664814 0)
(11.7041 -0.718277 0)
(11.311 -1.00871 0)
(11.4019 -0.707717 0)
(9.71249 -1.00872 0)
(11.3192 -0.541487 0)
(10.2986 -0.770336 0)
(10.374 -0.299906 0)
(10.8743 -0.318369 0)
(10.9669 -0.270228 0)
(10.6408 -0.134497 0)
(10.7888 0.000741994 0)
(10.7368 -0.00839739 0)
(10.8487 -0.0119009 0)
(10.464 -0.151632 0)
(10.5466 -0.25607 0)
(9.99129 -0.386023 0)
(10.4412 -0.40168 0)
(10.2538 -0.356529 0)
(11.0012 -0.208797 0)
(11.1485 -0.0432648 0)
(11.4628 0.17708 0)
(11.8781 0.343724 0)
(11.6106 0.411922 0)
(11.8225 0.342116 0)
(10.7046 0.219547 0)
(10.8102 0.145518 0)
(9.54026 -0.00154429 0)
(9.77632 -0.152281 0)
(9.04282 -0.444753 0)
(9.48309 -0.524043 0)
(9.57764 -0.586155 0)
(10.245 -0.336193 0)
(10.8727 -0.147137 0)
(11.3133 0.165564 0)
(12.2346 0.382507 0)
(12.1966 0.433294 0)
(13.1371 0.46437 0)
(12.0314 0.200961 0)
(11.9362 0.376759 0)
(9.66581 0.285781 0)
(9.13084 0.406604 0)
(7.48551 0.0894664 0)
(7.4228 -0.307176 0)
(11.9966 0.657982 -1.09308e-17)
(8.21817 -0.934753 -1.838e-17)
(11.2357 0.0824993 3.21977e-17)
(5.07727 -4.85599 -8.6314e-17)
(12.0075 -0.580875 1.09529e-17)
(8.23671 0.779816 1.83963e-17)
(11.2932 0.045592 -3.22426e-17)
(5.20439 4.54392 8.6395e-17)
(5.07752 5.96724 0)
(-4.08734 1.88042 0)
(2.86713 -0.703519 0)
(-1.93505 2.1741 0)
(-13.3007 -0.867979 3.39535e-17)
(15.9065 -5.58851 0)
(-5.06855 -3.66149 0)
(5.16648 2.4259 0)
(-2.03188 -1.22902 0)
(0.555265 1.02912 0)
(-2.72605 -1.40566 0)
(1.86934 0.22015 0)
(-0.3785 1.31705 0)
(-0.713873 0.200396 0)
(-0.423765 -0.047848 0)
(1.3139 0.495079 0)
(0.994809 0.851118 0)
(1.05928 0.894033 0)
(0.798747 0.504005 0)
(0.859647 0.169669 0)
(1.43805 -0.0519773 0)
(2.07038 -0.184702 0)
(2.14253 -0.142613 0)
(2.93476 0.160233 0)
(3.31548 0.293296 0)
(3.0625 0.519662 0)
(3.50991 1.02971 0)
(3.57541 1.18144 0)
(2.98891 1.21753 0)
(3.36038 1.09205 0)
(3.09635 0.706366 0)
(3.2296 0.237616 0)
(3.56714 -0.225984 0)
(3.78877 -0.715253 0)
(4.0585 -0.982344 0)
(4.6719 -0.947478 0)
(5.17128 -0.86347 0)
(5.48008 -0.516185 0)
(6.06063 -0.106839 0)
(5.81679 0.242751 0)
(6.33174 0.786771 0)
(5.58722 1.19537 0)
(5.15456 1.38653 0)
(5.0336 1.65919 0)
(4.10693 1.12227 0)
(4.47562 0.835115 0)
(4.097 -0.113498 0)
(4.39039 -0.672487 0)
(1.22713 -0.172664 0)
(1.55052 -1.24048 0)
(1.05773 -0.524229 0)
(-0.77713 -0.818072 0)
(-0.578489 0.623112 0)
(1.03485 -0.346809 0)
(0.0334535 -1.2858 0)
(-0.394675 -0.548713 0)
(-0.401926 -0.0688241 0)
(0.41718 -0.168491 0)
(0.45979 -0.360283 0)
(0.979267 -0.84288 0)
(0.999494 -1.10513 0)
(0.762422 -0.945255 0)
(0.731344 -0.869019 0)
(1.33762 -0.851634 0)
(1.24738 -0.310719 0)
(1.18925 0.220305 0)
(2.15014 0.411767 0)
(2.17431 0.65175 0)
(2.45616 0.768555 0)
(3.31343 0.419462 0)
(3.30772 0.24513 0)
(3.8955 -0.22712 0)
(4.14024 -0.752285 0)
(3.91679 -0.977015 0)
(3.79 -1.20451 0)
(3.94945 -1.31747 0)
(3.44457 -1.10204 0)
(3.69104 -0.661595 0)
(3.55857 -0.0615573 0)
(3.83257 0.474232 0)
(3.77756 0.968352 0)
(4.37446 1.36671 0)
(4.24928 1.49521 0)
(4.79793 1.54272 0)
(5.5314 1.08868 0)
(5.38953 0.779592 0)
(6.3558 0.0627797 0)
(5.9459 -0.599714 0)
(12.2321 -1.67419 0)
(8.00816 2.7338 0)
(13.0434 -0.998669 0)
(10.09 6.66171 0)
(10.9375 -1.37415 0)
(8.90536 2.93399 0)
(11.2862 0.143249 0)
(10.5431 4.08111 0)
(10.0957 -0.496021 0)
(9.74437 1.22562 0)
(10.2609 0.313776 0)
(10.7549 1.10189 0)
(9.96871 -0.063706 0)
(9.94579 0.150242 0)
(10.2063 0.133232 0)
(10.7582 0.20389 0)
(13.3687 5.14828 3.17418e-17)
(15.4878 4.61026 -6.07961e-17)
(12.994 2.14057 0)
(12.9205 0.481868 0)
(11.6086 0.397796 0)
(12.4117 -0.202031 0)
(11.4256 0.223013 0)
(12.148 0.201632 0)
(11.4453 2.60902 0)
(9.58009 1.31227 0)
(9.0176 2.36502 0)
(8.02643 1.6049 0)
(12.6065 -0.670812 0)
(12.5405 -1.14343 0)
(12.8363 -1.3314 0)
(12.8707 -0.75363 0)
(13.004 -0.166032 0)
(13.4064 0.155756 0)
(13.703 0.484182 0)
(13.7029 0.776032 0)
(12.697 0.181634 0)
(12.9781 0.189861 0)
(13.11 0.0597384 0)
(13.0559 -0.0654276 0)
(8.42089 0.756486 0)
(9.13516 0.449338 0)
(9.57066 0.436201 0)
(9.30667 0.538892 0)
(8.82988 0.638197 0)
(8.44998 0.341606 0)
(9.04281 0.218443 0)
(9.24099 0.341781 0)
(8.92064 0.356116 0)
(9.14689 0.32909 0)
(9.23918 0.170805 0)
(9.33259 0.0612533 0)
(9.25443 -0.0480067 0)
(8.81057 -0.198182 0)
(8.72668 -0.232882 0)
(7.67017 -0.216003 0)
(7.82046 -0.144533 0)
(7.10773 0.0215541 0)
(7.40053 0.123824 0)
(7.8874 0.296943 0)
(7.95291 0.346717 0)
(9.20835 0.269374 0)
(9.13604 0.123469 0)
(10.5046 -0.0988462 0)
(10.0624 -0.1788 0)
(10.9867 -0.268936 0)
(9.85669 -0.198549 0)
(9.81685 -0.317692 0)
(8.60441 -0.381918 0)
(7.92842 -0.361681 0)
(7.3301 -0.228087 0)
(6.83906 0.110289 0)
(7.15402 0.439136 0)
(7.02525 0.711784 0)
(8.32396 0.832723 0)
(8.31916 0.855891 0)
(9.96158 0.50833 0)
(10.3279 0.340146 0)
(11.3346 -0.163969 0)
(12.2486 -0.338982 0)
(13.1425 -0.467849 0)
(13.5631 -0.477188 0)
(13.6993 -0.50072 0)
(13.6423 -0.553828 0)
(13.4711 -0.383867 0)
(13.2257 -0.310021 0)
(13.4714 -0.330001 0)
(13.3186 -0.41973 0)
(13.632 -0.480276 0)
(13.3533 -0.451891 0)
(13.6379 -0.624422 0)
(13.2715 -0.605499 0)
(13.3692 -0.711011 0)
(13.119 -0.53376 0)
(13.205 -0.486497 0)
(13.1196 -0.235188 0)
(12.9507 -0.0229542 0)
(13.0079 0.0296905 0)
(12.8797 0.123617 0)
(13.2193 -0.0959291 0)
(13.2156 -0.1584 0)
(13.6139 -0.533409 0)
(13.5484 -0.725359 0)
(13.701 -1.07855 0)
(13.4641 -1.12501 0)
(13.4386 -1.18323 0)
(13.275 -0.900759 0)
(13.185 -0.584749 0)
(13.0844 -0.13196 0)
(12.8049 0.164439 0)
(12.6411 0.393233 0)
(12.4095 0.430003 0)
(12.4016 0.393777 0)
(12.3829 0.479614 0)
(12.7308 0.0521673 0)
(12.9288 0.169832 0)
(13.5277 -0.660698 0)
(13.6286 -0.635294 0)
(14.0287 -1.36161 0)
(13.6074 -1.51739 0)
(13.6984 0.885291 0)
(13.6887 0.729049 0)
(13.8095 0.576783 0)
(13.7988 0.329192 0)
(13.7649 0.341982 0)
(13.672 0.305799 0)
(13.6675 0.329204 0)
(13.7115 0.249909 0)
(13.7375 0.181638 0)
(13.705 0.16399 0)
(13.629 0.0585258 0)
(13.4948 0.0839858 0)
(13.3822 0.00468655 0)
(13.2138 0.109422 0)
(13.2189 0.0755419 0)
(13.0989 0.137922 0)
(13.1836 0.180179 0)
(13.0869 0.21199 0)
(13.2999 0.221124 0)
(13.2766 0.0968405 0)
(13.4371 0.0201335 0)
(13.2276 -0.170684 0)
(13.1301 -0.250877 0)
(12.8362 -0.275472 0)
(12.5983 -0.171904 0)
(12.3033 0.00242596 0)
(12.007 0.108456 0)
(11.8593 0.240904 0)
(11.7894 0.351064 0)
(11.9313 0.437342 0)
(12.0307 0.611506 0)
(12.35 0.580955 0)
(12.473 0.658417 0)
(12.8076 0.484556 0)
(12.9465 0.359279 0)
(13.1411 0.0763969 0)
(13.1564 -0.217032 0)
(12.8143 -0.34046 0)
(12.7657 -0.537777 0)
(12.0388 -0.171648 0)
(13.0817 -0.185551 0)
(13.0607 -0.271607 0)
(13.1808 -0.343233 0)
(13.1883 -0.43091 0)
(13.2561 -0.42409 0)
(13.1248 -0.399331 0)
(13.1058 -0.352906 0)
(13.0271 -0.33702 0)
(13.051 -0.347036 0)
(12.9464 -0.318091 0)
(12.8186 -0.331418 0)
(12.6084 -0.308828 0)
(12.4299 -0.342312 0)
(12.2603 -0.312571 0)
(12.2083 -0.307312 0)
(12.123 -0.271701 0)
(12.145 -0.22024 0)
(12.0045 -0.202865 0)
(12.1128 -0.191195 0)
(11.987 -0.260818 0)
(12.0815 -0.297321 0)
(11.7604 -0.377124 0)
(11.6352 -0.384806 0)
(11.1953 -0.453006 0)
(10.9788 -0.454901 0)
(10.5261 -0.485669 0)
(10.3285 -0.45979 0)
(10.1009 -0.397535 0)
(10.1532 -0.299683 0)
(10.2322 -0.221125 0)
(10.4481 -0.13567 0)
(10.7098 -0.122283 0)
(10.9104 -0.129519 0)
(11.1984 -0.156325 0)
(11.2262 -0.266807 0)
(11.359 -0.293095 0)
(11.1091 -0.464141 0)
(10.8148 -0.423048 0)
(10.4027 -0.575433 0)
(9.639 -0.578087 0)
)
;

boundaryField
{
    inlet
    {
        type            fixedValue;
        value           uniform (10 0 0);
    }
    outlet
    {
        type            zeroGradient;
    }
    obstacle
    {
        type            noSlip;
    }
    upperWall
    {
        type            noSlip;
    }
    lowerWall
    {
        type            noSlip;
    }
    frontAndBack
    {
        type            empty;
    }
}


// ************************************************************************* //
