/*--------------------------------*- C++ -*----------------------------------*\
  =========                 |
  \\      /  F ield         | OpenFOAM: The Open Source CFD Toolbox
   \\    /   O peration     | Website:  https://openfoam.org
    \\  /    A nd           | Version:  10
     \\/     M anipulation  |
\*---------------------------------------------------------------------------*/
FoamFile
{
    format      ascii;
    class       surfaceScalarField;
    location    "9.05";
    object      phi;
}
// * * * * * * * * * * * * * * * * * * * * * * * * * * * * * * * * * * * * * //

dimensions      [0 3 -1 0 0 0 0];

internalField   nonuniform List<scalar> 
760
(
-1.35053e-05
1.35045e-05
-4.35951e-05
3.00898e-05
-7.98747e-05
3.62797e-05
-0.000118303
3.84286e-05
-0.000157677
3.93741e-05
-0.000197714
4.00362e-05
-0.000238118
4.04047e-05
-0.000278212
4.00933e-05
-0.000316731
3.85195e-05
-0.000351659
3.49277e-05
-0.000380084
2.84246e-05
-0.000398154
1.80708e-05
-0.000401253
3.09846e-06
-0.000384419
-1.68336e-05
-0.000343855
-4.05639e-05
-0.000278838
-6.50169e-05
-0.000194478
-8.43608e-05
-0.000103949
-9.05289e-05
-2.86675e-05
-7.52814e-05
-2.86674e-05
-3.26731e-05
4.61776e-05
-9.21413e-05
8.9558e-05
-0.000161802
0.000105941
-0.000234951
0.000111578
-0.000309072
0.000113494
-0.000383028
0.000113993
-0.000455738
0.000113115
-0.000525598
0.000109953
-0.000590175
0.000103096
-0.000645976
9.07287e-05
-0.0006883
7.07483e-05
-0.000711118
4.08887e-05
-0.000708211
1.91809e-07
-0.000672091
-5.29533e-05
-0.000597831
-0.000114825
-0.000484934
-0.000177913
-0.000341481
-0.000227814
-0.000188166
-0.000243844
-5.85209e-05
-0.000204926
-8.71884e-05
-4.1612e-05
8.77896e-05
-0.000115079
0.000163025
-0.000200226
0.000191088
-0.000289
0.000200352
-0.000378396
0.00020289
-0.000467025
0.000202621
-0.000553608
0.000199699
-0.000636362
0.000192707
-0.000712652
0.000179387
-0.00077872
0.000156796
-0.000829424
0.000121453
-0.000858304
6.97681e-05
-0.000857253
-8.5834e-07
-0.00081721
-9.2997e-05
-0.000730636
-0.000201398
-0.0005947
-0.00031385
-0.000417524
-0.000404989
-0.000225806
-0.000435562
-6.65952e-05
-0.000364138
-0.000153784
-4.50729e-05
0.000132863
-0.000124633
0.000242585
-0.000216567
0.000283022
-0.00031225
0.000296035
-0.000408673
0.000299313
-0.000504631
0.000298579
-0.000599124
0.000294192
-0.000690727
0.000284309
-0.000777209
0.000265869
-0.000855164
0.000234751
-0.000919543
0.000185831
-0.000963159
0.000113384
-0.000976551
1.25338e-05
-0.000947317
-0.000122231
-0.000862128
-0.000286587
-0.000711439
-0.000464539
-0.000499067
-0.000617361
-0.000259384
-0.000675245
-6.63109e-05
-0.000557211
-0.000220094
-4.58516e-05
0.000178714
-0.000127676
0.000324409
-0.000222472
0.000377818
-0.00032143
0.000394992
-0.000421779
0.000399663
-0.000522777
0.000399577
-0.000624053
0.000395468
-0.000724964
0.00038522
-0.000824181
0.000365086
-0.000919181
0.000329751
-0.00100552
0.000272167
-0.00107579
0.000183653
-0.00111838
5.51308e-05
-0.00111707
-0.000123539
-0.00104914
-0.000354519
-0.000891351
-0.000622331
-0.000633628
-0.000875084
-0.000315004
-0.000993868
-6.42543e-05
-0.000807961
-0.000284349
-4.53863e-05
0.0002241
-0.000127679
0.000406702
-0.00022358
0.000473718
-0.000324246
0.000495659
-0.000427262
0.000502678
-0.000532529
0.000504845
-0.00064058
0.000503519
-0.00075195
0.00049659
-0.000866766
0.000479902
-0.000984154
0.000447139
-0.00110127
0.000389285
-0.00121178
0.000294156
-0.00130343
0.00014679
-0.00135704
-6.99296e-05
-0.00133725
-0.000374311
-0.00119515
-0.000764431
-0.000883718
-0.00118652
-0.000433865
-0.00144372
-7.28079e-05
-0.00116902
-0.000357157
-4.42478e-05
0.000268348
-0.000126037
0.000488492
-0.00022203
0.000569711
-0.000323375
0.000597004
-0.000428037
0.00060734
-0.00053666
0.000613467
-0.000650901
0.00061776
-0.000772865
0.000618554
-0.000904797
0.000611833
-0.0010486
0.00059094
-0.00120487
0.00054556
-0.00137129
0.000460576
-0.00153949
0.000314992
-0.00169106
8.16399e-05
-0.00177819
-0.000287185
-0.00170397
-0.000838652
-0.00134325
-0.00154724
-0.000702239
-0.00208473
-0.000136799
-0.00173446
-0.000493956
-4.26072e-05
0.000310955
-0.000123175
0.00056906
-0.00021836
0.000664896
-0.000319219
0.000697862
-0.000424045
0.000712167
-0.000534232
0.000723655
-0.000652655
0.000736183
-0.000783296
0.000749195
-0.000931229
0.000759766
-0.00110251
0.000762222
-0.0013038
0.000746844
-0.00154156
0.000698341
-0.00181965
0.000593083
-0.00212533
0.000387322
-0.00240401
-8.50667e-06
-0.0024635
-0.000779161
-0.0020747
-0.00193604
-0.00124062
-0.00291881
-0.000366802
-0.00260828
-0.000860757
-4.0561e-05
0.000351517
-0.000119292
0.000647791
-0.000212691
0.000758295
-0.000311546
0.000796717
-0.000414341
0.000814962
-0.000523102
0.000832416
-0.000641838
0.000854919
-0.000776403
0.000883761
-0.000934987
0.00091835
-0.00112898
0.00095622
-0.00137423
0.000992089
-0.001692
0.00101611
-0.0021059
0.00100699
-0.00261315
0.00089457
-0.0031014
0.00047974
-0.0033155
-0.00056506
-0.00296168
-0.00228986
-0.00208135
-0.00379914
-0.000881279
-0.00380835
-0.00174204
-3.83275e-05
0.000389844
-0.000114813
0.000724277
-0.000205427
0.000848909
-0.000300451
0.000891741
-0.000398326
0.000912837
-0.000501456
0.000935547
-0.00061463
0.000968093
-0.000745121
0.00101425
-0.000903749
0.00107698
-0.00110688
0.00115935
-0.00137959
0.0012648
-0.0017576
0.00139412
-0.00227624
0.00152563
-0.00292341
0.00154174
-0.00353551
0.00109183
-0.00381783
-0.000282742
-0.00361342
-0.00249427
-0.00291852
-0.00449404
-0.00156449
-0.00516238
-0.00330652
-3.63722e-05
0.000426216
-0.00011068
0.000798584
-0.000197695
0.000935924
-0.000286942
0.000980989
-0.000376553
0.00100245
-0.000468916
0.00102791
-0.000568919
0.00106809
-0.000684101
0.00112943
-0.000826037
0.00121891
-0.00101282
0.00134614
-0.00127253
0.0015245
-0.00164293
0.00176453
-0.0021495
0.00203219
-0.00274718
0.00213942
-0.00327798
0.00162264
-0.00352594
-3.47783e-05
-0.00348927
-0.00253094
-0.00306541
-0.00491789
-0.00190868
-0.00631912
-0.0052152
-3.56453e-05
0.000461862
-0.000108762
0.000871701
-0.000191784
0.00101895
-0.000273355
0.00106256
-0.000351256
0.00108035
-0.000427471
0.00110412
-0.000506068
0.00114669
-0.000593099
0.00121646
-0.00069755
0.00132336
-0.000832757
0.00148134
-0.00101735
0.0017091
-0.00127101
0.00201818
-0.00159713
0.00235831
-0.00194446
0.00248675
-0.00223894
0.00191712
-0.00241984
0.000146115
-0.00251354
-0.00243725
-0.00242508
-0.00500635
-0.00170355
-0.00704065
-0.00691875
-3.72853e-05
0.000499147
-0.000111384
0.0009458
-0.000190973
0.00109853
-0.000263797
0.00113538
-0.000327183
0.00114373
-0.000382529
0.00115947
-0.000432576
0.00119674
-0.000480445
0.00126433
-0.000529952
0.00137287
-0.000585294
0.00153669
-0.000649982
0.00177379
-0.000720898
0.0020891
-0.000792602
0.00243002
-0.000841308
0.00253546
-0.000897136
0.00197295
-0.00099911
0.000248089
-0.00122259
-0.00221377
-0.00148774
-0.00474119
-0.00123803
-0.00729036
-0.00815678
-4.53326e-05
0.00054448
-0.000125088
0.00102555
-0.000201383
0.00117483
-0.000262989
0.00119699
-0.000309049
0.00118979
-0.000340842
0.00119126
-0.000359049
0.00121495
-0.000363699
0.00126898
-0.000353331
0.0013625
-0.000323263
0.00150662
-0.000263913
0.00171444
-0.000156931
0.00198212
9.15965e-06
0.00226392
0.000197536
0.00234708
0.000330549
0.00183994
0.000246811
0.000331827
-0.000110588
-0.00185637
-0.000703635
-0.00414815
-0.000848864
-0.00714513
-0.00900564
-5.61625e-05
0.000600642
-0.000145809
0.0011152
-0.000224151
0.00125317
-0.000280262
0.0012531
-0.000310986
0.00122052
-0.00031852
0.0011988
-0.000303775
0.0012002
-0.000265222
0.00123043
-0.000198123
0.0012954
-9.2758e-05
0.00140125
6.69595e-05
0.00155472
0.000298235
0.00175084
0.000616218
0.00194594
0.000978471
0.00198483
0.00123016
0.00158825
0.00115736
0.000404633
0.000677296
-0.00137631
-0.000127456
-0.00334339
-0.000536358
-0.00673623
-0.009542
-0.000123945
0.000724587
-0.000227804
0.00121906
-0.000289679
0.00131505
-0.000317697
0.00128112
-0.000320799
0.00122362
-0.000302018
0.00118002
-0.000259215
0.0011574
-0.000187216
0.00115843
-7.8569e-05
0.00118676
7.83724e-05
0.00124431
0.000296826
0.00133627
0.000595778
0.00145189
0.000978529
0.00156319
0.00139938
0.00156398
0.00170467
0.00128296
0.0016557
0.0004536
0.00114059
-0.000861194
0.000247024
-0.00244983
-0.000291835
-0.00619737
-0.00983384
-7.98739e-05
0.000804461
-0.00024993
0.00138912
-0.000350938
0.00141606
-0.000390056
0.00132024
-0.000384991
0.00121856
-0.000346221
0.00114125
-0.000276054
0.00108723
-0.000171321
0.0010537
-2.59335e-05
0.00104137
0.000170194
0.00104818
0.000427734
0.00107873
0.000757873
0.00112175
0.00115394
0.00116712
0.00157392
0.001144
0.00188568
0.000971205
0.00185847
0.000480816
0.0013948
-0.000397525
0.000602426
-0.00165746
8.03988e-05
-0.00567534
-0.00975344
-0.000376272
0.00118073
-0.000425944
0.00143879
-0.000462735
0.00145285
-0.000486646
0.00134415
-0.000462472
0.00119438
-0.000396533
0.00107531
-0.000291975
0.000982673
-0.000146559
0.000908283
3.93117e-05
0.000855499
0.000271757
0.000815739
0.000553176
0.000797306
0.000889307
0.000785619
0.00126737
0.000789051
0.00164361
0.000767762
0.0019471
0.000667711
0.0020121
0.000415818
0.00185886
-0.000244287
0.0014902
-0.0012888
0.00084093
-0.00502607
-0.00891251
-0.00136297
0.0025437
-0.00132284
0.00139866
-0.00105791
0.00118792
-0.000680147
0.000966383
-0.00028255
0.000796784
0.000118995
0.000673763
0.000513868
0.0005878
0.000902035
0.000520115
0.00128534
0.000472191
0.00166958
0.000431498
0.00206123
0.000405658
0.00246404
0.000382809
0.00288856
0.000364533
0.00331968
0.000336645
0.00372969
0.000257697
0.00402214
0.000123374
0.00410054
-0.00032269
0.00395283
-0.00114109
0.00250857
-0.00358181
-0.00640393
0.0025437
0.00394236
0.00513028
0.00609666
0.00689345
0.00756721
0.00815501
0.00867512
0.00914732
0.00957881
0.00998447
0.0103673
0.0107318
0.0110685
0.0113262
0.0114495
0.0111268
0.00998574
0.00640393
)
;

boundaryField
{
    movingWall
    {
        type            calculated;
        value           uniform 0;
    }
    fixedWalls
    {
        type            calculated;
        value           uniform 0;
    }
    frontAndBack
    {
        type            empty;
        value           nonuniform List<scalar> 0();
    }
}


// ************************************************************************* //
