/*--------------------------------*- C++ -*----------------------------------*\
  =========                 |
  \\      /  F ield         | OpenFOAM: The Open Source CFD Toolbox
   \\    /   O peration     | Website:  https://openfoam.org
    \\  /    A nd           | Version:  10
     \\/     M anipulation  |
\*---------------------------------------------------------------------------*/
FoamFile
{
    format      ascii;
    class       surfaceScalarField;
    location    "8.55";
    object      phi;
}
// * * * * * * * * * * * * * * * * * * * * * * * * * * * * * * * * * * * * * //

dimensions      [0 3 -1 0 0 0 0];

internalField   nonuniform List<scalar> 
928
(
0.094561
0.005439
0.103982
-0.00942144
0.105729
-0.00174665
-0.0106015
0.116331
0.0935683
0.0118707
0.1053
-0.021153
0.101692
0.00186133
-0.0207009
0.111791
0.0956117
0.016259
0.110357
-0.0358985
0.104474
0.00774484
-0.0422344
0.126007
0.104551
0.0117082
0.0911898
-0.0225376
0.097947
0.000987698
0.144396
-0.0886832
0.111259
0.00507122
-0.0171666
0.128426
0.109298
0.00756492
-0.0423978
0.134529
0.128884
0.00468767
-0.051749
0.138236
0.149083
0.0973345
0.129244
-0.000818151
0.130323
-0.001079
0.13174
-0.00141699
-0.000662582
0.132403
0.138272
-0.00456159
0.138694
-0.00150086
0.139008
-0.00173086
-0.000519837
0.138865
0.143187
-0.0095128
0.143681
-0.00199445
0.148853
-0.00690335
0.00353398
0.144799
0.110321
-0.022499
0.0864816
0.0218445
0.101504
-0.0219254
0.0963303
0.00870742
0.131898
0.00050471
0.129124
0.00277427
0.126204
0.00292005
0.123619
0.00258413
0.121912
0.00170774
0.120718
0.00119402
0.12107
-0.000352246
0.121773
-0.000703486
0.123552
-0.00177868
0.125659
-0.00210733
0.127437
-0.00177737
0.128477
-0.00103989
0.128171
0.000305613
0.127512
0.000659493
0.125737
0.00177438
0.124097
0.00164033
0.121652
0.00244462
0.119533
0.00211957
0.117415
0.00211751
0.115535
0.00188028
0.114418
0.00111691
0.113277
0.00114104
0.113288
-1.1381e-05
0.112867
0.000421067
0.113189
-0.000321228
0.112722
0.000466717
0.112199
0.00052279
0.110763
0.00143629
0.108569
0.00219367
0.106248
0.00232103
0.103334
0.00291353
0.101828
0.00150637
0.100103
0.00172482
0.100597
-0.000494023
0.101451
-0.000853495
0.103603
-0.00215267
0.106125
-0.0025213
0.107987
-0.00186204
0.109778
-0.00179093
0.000463807
0.138031
0.00133899
0.136409
0.00439583
0.135136
0.00419334
0.132002
0.00571856
0.130443
0.00326606
0.129934
0.00170351
0.129987
-0.000405615
0.130756
-0.00147267
0.132919
-0.00394131
0.13488
-0.00406823
0.136136
-0.00303313
0.137163
-0.00206713
0.137013
0.000455484
0.137089
0.000583647
0.135882
0.00298084
0.134887
0.00263614
0.132968
0.00436317
0.131343
0.00374506
0.129319
0.00414092
0.127576
0.00362378
0.126755
0.00193753
0.125707
0.00218887
0.126172
-0.000475821
0.126068
0.000524463
0.127043
-0.00129564
0.127248
0.000261742
0.12717
0.0006003
0.126775
0.00183152
0.125129
0.00383993
0.124031
0.00341885
0.121462
0.00548251
0.119846
0.00312225
0.117883
0.00368799
0.117351
3.79897e-05
0.117739
-0.00124205
0.118837
-0.00325042
0.121247
-0.00493133
0.122791
-0.00340547
0.125286
-0.00428641
-0.000545266
0.139701
0.00643691
0.1388
0.00529695
0.138019
0.00497479
0.137744
0.00599319
0.137562
0.00344854
0.135143
0.00412186
0.13361
0.00112746
0.134685
-0.0025475
0.135139
-0.00439553
0.134207
-0.00313653
0.133941
-0.00276661
0.133764
-0.00189019
0.134181
3.87437e-05
0.134242
0.000522754
0.134117
0.00310542
0.133532
0.00322095
0.132373
0.00552196
0.130904
0.00521465
0.129698
0.00534645
0.12873
0.00459212
0.127868
0.00279958
0.127416
0.0026409
0.127017
-7.72477e-05
0.12699
0.000551904
0.127777
-0.00208265
0.128557
-0.00051838
0.129638
-0.00048073
0.130443
0.00102688
0.12991
0.0043728
0.128723
0.00460574
0.126386
0.00781968
0.12409
0.00541772
0.122351
0.00542754
0.120526
0.00186304
0.118892
0.000392035
0.118945
-0.00330382
0.119664
-0.00565038
0.120089
-0.00383074
0.122473
-0.00667008
-0.00194374
0.0960989
0.00666831
0.104542
-0.00314577
0.102836
0.00668074
0.106494
0.00233476
0.111187
-0.00124418
0.105246
0.0100631
0.106643
-0.000270183
0.106749
-0.00265304
0.10181
0.000543203
0.0984626
0.000210915
0.0965256
-0.000829657
0.0952127
-0.000577303
0.0952543
-2.84066e-06
0.0959265
-0.000149411
0.098431
0.000600922
0.100516
0.00113612
0.102624
0.00341386
0.103548
0.00429079
0.105259
0.00363483
0.105443
0.00440862
0.103207
0.00503576
0.101688
0.00415933
0.0997728
0.00183824
0.099527
0.000797729
0.0985156
-0.0010713
0.10012
-0.0021232
0.10259
-0.00295
0.105868
-0.00225116
0.110287
-4.67432e-05
0.113333
0.00156002
0.116089
0.00506352
0.115681
0.00582588
0.11387
0.00723814
0.10778
0.00795324
0.10222
0.00595188
0.097138
0.00177861
0.09229
-0.000802376
0.0918144
-0.00335519
0.0933754
-0.0082311
-0.0048462
0.113125
-0.00141682
0.0886771
0.00191033
0.0904488
-0.000783964
0.00176556
0.10896
-0.010377
0.0891967
0.0216738
0.0853449
0.0030678
0.0871105
-0.00888243
-0.0136165
-0.0255177
0.0384798
-0.00442809
-0.0430151
-0.000997272
0.0052766
-0.0210233
0.00740674
0.00987838
0.00757819
-0.0174659
-0.0156708
-0.0176691
-0.000794109
-0.00193954
0.0138845
0.010706
-0.0157913
0.00735862
0.0100281
0.0121143
-0.00242091
0.0185614
-0.00769125
0.0127857
0.0158388
0.00215899
0.0103566
0.00719375
-0.0076878
0.00900977
-0.00127282
0.00715221
0.00206846
0.00610246
0.000220093
0.0058324
-0.000307237
0.00709562
-0.00126606
0.0106233
-0.00367708
0.014597
-0.00337276
0.0177887
-0.00205562
0.0203898
0.000812723
0.0229983
0.00168236
0.0239787
0.0026544
0.0248163
0.00357103
0.0255465
0.00430556
0.0267535
0.00295229
0.0280695
0.000522269
0.0290375
-0.000170291
0.032022
-0.00405579
0.0349302
-0.00503141
0.0376565
-0.00567633
0.0413537
-0.00594829
0.0432704
-0.00196343
0.0444249
0.000405485
0.0458231
0.00366528
0.0445176
0.00713144
0.0431679
0.0085878
0.0432187
0.00790247
0.0433191
0.00585148
0.0442849
0.000812767
0.0462809
-0.00279834
0.0491298
-0.00620406
0.0532016
-0.012303
-0.007203
0.007231
-0.0110156
-0.000765034
-0.00779527
0.00866632
0.000596747
0.0101169
-0.00387144
0.00219229
0.00023331
0.0123165
0.0057145
0.016756
0.00591712
0.00782344
0.00124476
0.00328558
0.00326503
0.00146245
0.00389159
0.00134639
0.000336149
0.00287077
-0.00183161
0.00550147
-0.00389676
0.00730361
-0.00547922
0.00815507
-0.00422422
0.00957267
-0.00347322
0.0128239
-0.00243846
0.0162778
-0.00177162
0.0185691
0.000363145
0.0209446
0.00119549
0.0244816
0.000768621
0.0272213
0.000212582
0.0285383
-0.000794777
0.0302446
-0.00187651
0.0308503
-0.00466152
0.0313073
-0.00548842
0.0314576
-0.00582667
0.0315778
-0.00606847
0.0326285
-0.00301407
0.0345205
-0.00148657
0.0365177
0.00166806
0.0395736
0.00407558
0.0430451
0.00511629
0.0471504
0.00379721
0.0505671
0.00243478
0.0515034
-0.000123576
0.0528132
-0.00410813
0.0524281
-0.00581897
0.0489867
-0.00886159
-0.00557205
0.100541
-0.0109181
0.0937197
0.0284952
0.0999511
-0.00316359
0.0414108
0.145651
0.0955668
-0.00648487
0.104842
0.0192204
0.103527
-0.00184891
0.0218649
0.123073
0.0960457
-0.00253058
0.107506
0.00775972
0.103573
0.00208487
0.0105292
0.114908
0.0974694
0.105229
0.107314
0.117843
0.15611
-0.0104592
0.0435927
0.112517
0.12198
-0.00936643
0.0408633
0.12471
0.110095
-0.00455268
0.0157066
0.135251
0.113291
0.128997
0.113043
0.00688135
0.121301
-0.000680027
0.108883
-0.00325336
-0.0030663
0.111156
0.131969
-0.000377926
0.13309
-0.00180106
0.1311
-0.00126332
-0.0010864
0.12912
0.135107
-0.000234104
0.133765
-0.00045869
0.133421
-0.000919132
9.75601e-06
0.132325
0.128763
0.128304
0.127385
0.127395
0.10496
-0.00482047
0.0984319
-0.00126671
0.0966149
0.00241374
0.0896255
0.00311797
0.0872401
0.00261872
0.0881622
0.00479235
0.0903258
0.00375359
0.0882374
0.00333312
0.0884756
0.00302683
0.089871
0.00249623
0.0892106
0.000996518
0.0887191
-0.00134011
0.0873567
-0.00253439
0.0858908
-0.0040133
0.0850807
-0.00341416
0.0853957
-0.00378813
0.0851519
-0.00219473
0.0859572
-0.00257693
0.0879762
-0.00165584
0.0909979
-0.00182617
0.0940331
-0.00226662
0.0973339
-0.00308819
0.101291
-0.00475181
0.103818
-0.00440385
0.105025
-0.00586831
0.103817
-0.00428051
0.101885
-0.00389496
0.0977424
-0.00192539
0.094846
-0.000117753
0.0922962
0.00106323
0.0909826
0.00298172
0.0933978
0.0016604
0.0959148
0.00259925
0.100855
-0.0011428
0.105918
-0.00262857
0.111065
-0.00527043
0.113461
-0.006504
0.112881
-0.00523955
0.108459
-0.00443896
-0.000905094
0.126007
-0.00170799
0.125523
-0.000782314
0.127662
0.000275075
0.127956
0.0028234
0.128629
0.00194636
0.131212
0.00220909
0.132908
0.00205697
0.133038
0.0032032
0.13365
0.00241482
0.134784
0.00136222
0.135622
0.000159136
0.136264
-0.00198243
0.135792
-0.00206217
0.135389
-0.00361068
0.134208
-0.00223325
0.134138
-0.0037173
0.133866
-0.00192316
0.133804
-0.0025151
0.133908
-0.00175958
0.134159
-0.00207776
0.134802
-0.00290926
0.134214
-0.0025005
0.133967
-0.00450427
0.132599
-0.00303552
0.131503
-0.00477304
0.129781
-0.00255809
0.128514
-0.00262818
0.127249
-0.000660029
0.126239
0.000892428
0.126128
0.00117424
0.126312
0.00279746
0.127405
0.000567629
0.128872
0.00113142
0.129946
-0.00221668
0.129898
-0.0025807
0.129156
-0.00452791
0.12732
-0.00466816
0.125651
-0.0035707
0.124304
-0.00309193
0.000655215
0.130373
0.000243207
0.129733
-0.00014154
0.130878
-0.0008705
0.132834
0.000867735
0.133532
0.00124783
0.134783
0.000958969
0.136391
0.000448131
0.138744
0.000850969
0.140071
0.00108771
0.140749
0.000683593
0.140926
-1.75206e-05
0.140384
-0.00144025
0.139734
-0.00141262
0.138106
-0.00198287
0.137131
-0.00125742
0.135256
-0.00184283
0.134599
-0.00126553
0.13357
-0.0014869
0.132962
-0.00115114
0.132158
-0.00127355
0.130962
-0.00171346
0.129924
-0.00146222
0.127871
-0.00245171
0.126686
-0.00185003
0.12451
-0.00259752
0.123343
-0.00139099
0.122066
-0.00135104
0.121643
-0.000236976
0.12212
0.000415655
0.122708
0.00058593
0.124278
0.00122779
0.124812
3.29075e-05
0.125823
0.000120787
0.125236
-0.00162948
0.12446
-0.00180509
0.122874
-0.00294232
0.120776
-0.00256928
0.118951
-0.00174582
0.116895
-0.0010365
0.000663186
0.127638
0.127497
0.126626
0.127494
0.128742
0.129701
0.130149
0.131
0.132087
0.132771
0.132754
0.131313
0.129901
0.127918
0.12666
0.124818
0.123552
0.122065
0.120914
0.11964
0.117927
0.116465
0.114013
0.112163
0.109566
0.108175
0.106823
0.106587
0.107002
0.107588
0.108816
0.108849
0.10897
0.10734
0.105535
0.102593
0.100023
0.0982776
0.0972411
)
;

boundaryField
{
    inlet
    {
        type            calculated;
        value           nonuniform List<scalar> 10(-0.1 -0.1 -0.1 -0.1 -0.1 -0.1 -0.1 -0.1 -0.1 -0.1);
    }
    outlet
    {
        type            calculated;
        value           nonuniform List<scalar> 10(0.109314 0.126295 0.123871 0.0962779 0.0555584 0.0473558 0.103792 0.122744 0.116887 0.0979043);
    }
    obstacle
    {
        type            calculated;
        value           uniform 0;
    }
    upperWall
    {
        type            calculated;
        value           uniform 0;
    }
    lowerWall
    {
        type            calculated;
        value           uniform 0;
    }
    frontAndBack
    {
        type            empty;
        value           nonuniform List<scalar> 0();
    }
}


// ************************************************************************* //
