/*--------------------------------*- C++ -*----------------------------------*\
  =========                 |
  \\      /  F ield         | OpenFOAM: The Open Source CFD Toolbox
   \\    /   O peration     | Website:  https://openfoam.org
    \\  /    A nd           | Version:  10
     \\/     M anipulation  |
\*---------------------------------------------------------------------------*/
FoamFile
{
    format      ascii;
    class       surfaceScalarField;
    location    "7.925";
    object      phi;
}
// * * * * * * * * * * * * * * * * * * * * * * * * * * * * * * * * * * * * * //

dimensions      [0 3 -1 0 0 0 0];

internalField   nonuniform List<scalar> 
890
(
0.00984623
0.000153765
0.00971773
0.000128506
0.00946869
0.000249039
0.00941902
4.96704e-05
0.000147427
0.00927159
0.0101198
3.39164e-05
0.0102013
4.70581e-05
0.0104075
4.27934e-05
0.0104654
-8.1623e-06
-6.94002e-05
0.0106822
0.0100714
-3.75148e-05
0.0102154
-9.68825e-05
0.0103782
-0.00012008
0.0105209
-0.000150849
-0.000191056
0.0106426
0.0100896
-0.000127129
0.0102141
-0.000221377
0.01033
-0.000235956
0.0104184
-0.000239273
-0.000251001
0.0104784
0.00987287
0.00965149
0.00941554
0.00917627
0.00892526
0.00926971
-0.000104339
0.000106223
0.00929376
-0.000266931
0.000242883
0.00936838
-0.000388062
0.00031344
0.00948063
-0.000490454
0.000378202
0.00962165
-0.000596966
0.000455947
0.00979328
-0.000737085
0.000565454
0.00997963
-0.000899819
0.00071347
0.0101738
-0.00109663
0.000902415
0.0103651
-0.00132132
0.00113004
0.0105365
-0.00156741
0.00139607
0.0106752
-0.00181315
0.00167445
0.0107701
-0.00204958
0.00195468
0.0108099
-0.00223962
0.00219978
0.0107893
-0.00237315
0.00239376
0.0106832
-0.00240936
0.00251549
0.010486
-0.00234957
0.00254672
0.0102402
-0.00226241
0.00250825
0.00997923
-0.00215482
0.00241578
0.00970156
-0.00197588
0.00225355
0.0094128
-0.00174677
0.00203553
0.00912746
-0.00148269
0.00176802
0.00885233
-0.00118614
0.00146127
0.00860216
-0.000885351
0.00113552
0.00839127
-0.000594998
0.000805894
0.00822469
-0.000320875
0.000487453
0.00809864
-7.09625e-05
0.00019701
0.00800762
0.000152783
-6.17652e-05
0.00795506
0.000345254
-0.000292689
0.00792818
0.00050627
-0.000479397
0.00791674
0.000630121
-0.000618673
0.0079139
0.000715025
-0.000712194
0.00791524
0.000764037
-0.000765375
0.00791699
0.000779489
-0.000781235
0.00791142
0.000768283
-0.000762714
0.00789225
0.000733296
-0.000714126
0.00785363
0.000695507
-0.000656885
0.00779829
0.000640083
-0.000584749
0.00772647
0.000593107
-0.000521282
0.00764675
0.000507511
-0.00042779
0.00755209
0.000460385
-0.000365733
0.00745547
0.0003755
-0.000278878
0.00734537
0.000380894
-0.000270789
0.00724639
0.00033868
-0.000239703
0.00714067
0.000378548
-0.000272829
0.000363127
-0.000274939
0.0107459
-0.000168001
0.0107695
-0.000290585
0.0107924
-0.00041092
0.0108252
-0.000523229
0.0108618
-0.000633573
0.0108833
-0.000758652
0.0108892
-0.000905649
0.0108729
-0.00108037
0.0108313
-0.00127972
0.0107546
-0.00149075
0.0106345
-0.00169304
0.0104612
-0.0018763
0.0102398
-0.00201823
0.00995554
-0.00208886
0.00957046
-0.00202428
0.00912006
-0.00189916
0.0086391
-0.00178146
0.00814324
-0.00165896
0.00765627
-0.00148891
0.00718573
-0.00127623
0.00675297
-0.00104993
0.00636177
-0.000794927
0.00602819
-0.000551771
0.00576043
-0.00032724
0.00556066
-0.000121105
0.00542684
6.28531e-05
0.00536247
0.000217154
0.0053568
0.000350924
0.00539907
0.000464
0.00547516
0.000554029
0.00557137
0.000618816
0.00567599
0.00065942
0.00577684
0.000678641
0.00586407
0.00068105
0.00592978
0.000667582
0.00597972
0.000645568
0.00601534
0.000604471
0.00604735
0.000561096
0.0060657
0.000489158
0.00607898
0.000447106
0.00607772
0.000376757
0.00607654
0.000382076
0.00608249
0.000332729
0.00609445
0.000366586
0.000326983
0.0107273
-0.000252696
0.0107715
-0.000334811
0.0107858
-0.000425255
0.0107803
-0.000517682
0.0107539
-0.000607152
0.0107024
-0.000707156
0.01062
-0.000823277
0.0105025
-0.000962818
0.0103414
-0.0011187
0.0101433
-0.00129257
0.00991535
-0.00146513
0.00964915
-0.00161009
0.00930553
-0.00167461
0.00880291
-0.00158623
0.0081857
-0.00140707
0.00756988
-0.00128335
0.0068966
-0.00110817
0.00613409
-0.000896455
0.00537794
-0.000732752
0.00469504
-0.00059333
0.00408156
-0.000436452
0.00357904
-0.000292405
0.0031872
-0.000159938
0.00290218
-4.22138e-05
0.00271404
6.70358e-05
0.00261417
0.000162722
0.00259021
0.000241115
0.00263194
0.000309191
0.00272881
0.000367133
0.00286821
0.000414628
0.00303679
0.000450239
0.00322281
0.000473401
0.00341634
0.000485108
0.00361161
0.00048578
0.00380335
0.000475837
0.00399295
0.000455968
0.00417403
0.000423392
0.00434948
0.000385646
0.0045014
0.000337241
0.00464609
0.000302422
0.00476409
0.000258752
0.00489413
0.000252041
0.00501209
0.000214765
0.00515075
0.000227923
0.000184179
0.0105087
-0.000283007
0.0104935
-0.000319689
0.0104347
-0.000366397
0.0103265
-0.000409452
0.0101771
-0.000457819
0.00997753
-0.000507566
0.00972191
-0.000567652
0.00940065
-0.000641566
0.0090025
-0.000720539
0.00853694
-0.000827016
0.00798294
-0.000911132
0.00741992
-0.00104707
0.00678438
-0.00103907
0.00594132
-0.000743174
0.00491542
-0.000381166
0.00371172
-7.96503e-05
0.002536
6.75516e-05
0.00155782
8.17218e-05
0.000866111
-4.10401e-05
0.000436204
-0.000163423
0.000203259
-0.000203507
7.90834e-05
-0.00016823
2.44353e-05
-0.00010529
2.24522e-05
-4.02307e-05
7.11836e-05
1.83044e-05
0.000169859
6.40469e-05
0.000309361
0.000101613
0.0004861
0.000132451
0.000694963
0.000158271
0.00093042
0.000179171
0.00118596
0.000194699
0.00145527
0.000204091
0.00173164
0.000208736
0.00200971
0.000207711
0.00228423
0.000201313
0.00255041
0.000189793
0.00280098
0.000172823
0.00303366
0.000152966
0.0032404
0.000130496
0.00343135
0.000111475
0.00359719
9.29079e-05
0.00376564
8.3597e-05
0.00391048
6.99231e-05
0.00406898
6.94213e-05
5.22163e-05
0.00864226
0.00832257
0.00795617
0.00754672
0.0070889
0.00658133
0.00601368
0.00537212
0.00465158
0.00382456
0.00291343
0.00186636
0.000827292
8.41185e-05
-0.000297047
-0.000376698
-0.000309146
-0.000227424
-0.000268464
-0.000431888
-0.000635395
-0.000803625
-0.000908915
-0.000949145
-0.000930841
-0.000866794
-0.000765181
-0.000632729
-0.000474459
-0.000295288
-0.000100589
0.000103502
0.000312238
0.000519949
0.000721262
0.000911055
0.00108388
0.00123684
0.00136734
0.00147882
0.00157172
0.00165532
0.00172524
0.00179467
4.1252e-05
-4.1252e-05
3.91421e-06
3.73378e-05
-0.000151417
0.000155331
-0.000477513
0.000326096
-0.000938077
0.000460563
-0.00144659
0.00050851
-0.00193483
0.000488239
-0.00236111
0.000426286
-0.00269761
0.000336494
-0.00291922
0.000221619
-0.00301145
9.22268e-05
-0.00296671
-4.47372e-05
-0.00279122
-0.000175491
-0.00249055
-0.000300679
-0.00208049
-0.000410051
-0.00158369
-0.000496803
-0.00103536
-0.000548326
-0.000460894
-0.000574471
0.000119036
-0.000579929
0.000676837
-0.000557801
0.00118682
-0.000509987
0.00162732
-0.000440495
0.00198258
-0.000355264
0.00224438
-0.000261795
0.00241083
-0.000166449
0.00248444
-7.36151e-05
0.00247634
8.0998e-06
0.00240936
6.698e-05
0.00229555
0.000113814
0.00214815
0.000147403
0.00197879
0.000169357
0.00179858
0.000180212
0.00162101
0.000177567
0.00146695
0.000154059
0.00135116
0.000115786
0.00127615
7.50141e-05
0.00123564
4.05069e-05
0.00122461
1.10319e-05
0.00123431
-9.69415e-06
0.00126153
-2.72266e-05
0.00129501
-3.34782e-05
0.00133371
-3.87028e-05
0.00136754
-3.3825e-05
0.00140529
-3.77523e-05
-3.61585e-05
-0.000118171
7.69194e-05
-0.00046077
0.000379937
-0.000866822
0.000561383
-0.00124306
0.000702336
-0.00155323
0.000770726
-0.0017953
0.000750585
-0.00196902
0.000661963
-0.00206637
0.000523632
-0.00207826
0.000348387
-0.0019905
0.000133854
-0.00180148
-9.67954e-05
-0.00150963
-0.000336586
-0.00110713
-0.000577991
-0.000606336
-0.00080147
-2.15131e-05
-0.000994874
0.000610508
-0.00112882
0.00127751
-0.00121533
0.00195465
-0.00125161
0.00261553
-0.00124081
0.00323988
-0.00118215
0.00380776
-0.00107786
0.0043023
-0.000935039
0.00471158
-0.000764537
0.00502892
-0.000579142
0.00525405
-0.000391579
0.00539167
-0.000211234
0.00544899
-4.92209e-05
0.00543101
8.49602e-05
0.00535085
0.000193975
0.00522658
0.000271672
0.00507436
0.000321582
0.00490862
0.00034595
0.00474522
0.000340962
0.00459518
0.000304101
0.00445919
0.000251775
0.00433889
0.000195314
0.00423414
0.000145257
0.00415075
9.4421e-05
0.00408619
5.48644e-05
0.00404136
1.7607e-05
0.00400171
6.1699e-06
0.00396672
-3.70796e-06
0.0039377
-4.80751e-06
0.0039146
-1.46542e-05
-3.95727e-05
-0.000514742
0.000591661
-0.000699024
0.000564218
-0.000742364
0.000604724
-0.000692231
0.000652204
-0.000573753
0.000652248
-0.000411697
0.000588529
-0.000211097
0.000461363
2.76611e-05
0.000284874
0.0003185
5.75479e-05
0.000673008
-0.000220653
0.00109527
-0.000519053
0.00158342
-0.000824745
0.00212297
-0.00111754
0.00270768
-0.00138618
0.00332014
-0.00160733
0.00394748
-0.00175616
0.00456789
-0.00183574
0.00516392
-0.00184764
0.00572204
-0.00179893
0.00623074
-0.00169085
0.00667666
-0.00152378
0.00704988
-0.00130826
0.0073457
-0.00106036
0.00756362
-0.000797068
0.00770481
-0.000532763
0.00777752
-0.000283944
0.00779004
-6.17454e-05
0.00774176
0.000133248
0.00764664
0.000289088
0.00751757
0.000400741
0.00736533
0.000473821
0.00719986
0.000511424
0.00702793
0.000512889
0.0068563
0.000475731
0.00668802
0.000420054
0.00652787
0.000355466
0.00638147
0.000291664
0.00625881
0.000217082
0.00616825
0.000145421
0.00610164
8.4213e-05
0.00605501
5.28001e-05
0.00599759
5.37199e-05
0.0059391
5.36783e-05
0.00584858
7.58683e-05
4.47051e-05
-0.000246977
0.000838639
-0.000156085
0.000473326
7.77936e-05
0.000370846
0.000432262
0.000297735
0.000872224
0.000212287
0.00136415
9.66e-05
0.00188546
-5.99437e-05
0.00242257
-0.000252234
0.00297941
-0.000499297
0.00355012
-0.000791356
0.00413388
-0.00110282
0.0047301
-0.00142096
0.00533035
-0.00171778
0.00591927
-0.00197511
0.00648488
-0.00217294
0.00701561
-0.00228689
0.00749897
-0.0023191
0.00793138
-0.00228005
0.00830835
-0.0021759
0.0086266
-0.0020091
0.00888456
-0.00178174
0.00908129
-0.00150498
0.00921989
-0.00119897
0.00930479
-0.00088196
0.00933948
-0.000567453
0.00933314
-0.000277605
0.00929665
-2.52564e-05
0.00922038
0.000209514
0.00911521
0.000394263
0.0089869
0.000529052
0.00884161
0.000619104
0.00868554
0.000667497
0.0085211
0.000677326
0.00834961
0.000647222
0.00817998
0.000589687
0.00801511
0.000520332
0.00785996
0.00044682
0.0077034
0.000373635
0.00755984
0.000288985
0.00742264
0.000221414
0.00732105
0.000154386
0.00722784
0.00014693
0.00715156
0.000129964
0.00706242
0.000165
0.000156559
0.000944861
0.00166107
0.00234536
0.00302129
0.00368953
0.00435158
0.00500511
0.00565529
0.00628603
0.00689074
0.00746237
0.00799609
0.00847808
0.00889674
0.00923928
0.00949911
0.00968825
0.00982398
0.00990163
0.00992806
0.00991434
0.00987062
0.00980718
0.00973111
0.00965111
0.00957052
0.00948349
0.00940032
0.00931519
0.00922556
0.00913248
0.0090346
0.00893069
0.0088152
0.00869076
0.0085542
0.00841628
0.00826863
0.00812982
0.0079855
0.00786101
0.00773715
0.00762741
0.00751959
)
;

boundaryField
{
    inlet
    {
        type            calculated;
        value           nonuniform List<scalar> 5(-0.01 -0.01 -0.01 -0.01 -0.01);
    }
    outlet
    {
        type            calculated;
        value           nonuniform List<scalar> 10(0.00705248 0.0061306 0.00529356 0.00420094 0.00184688 0.00144145 0.00391802 0.0057643 0.00695057 0.00740121);
    }
    upperWall
    {
        type            calculated;
        value           uniform 0;
    }
    lowerWall
    {
        type            calculated;
        value           uniform 0;
    }
    frontAndBack
    {
        type            empty;
        value           nonuniform List<scalar> 0();
    }
}


// ************************************************************************* //
