/*--------------------------------*- C++ -*----------------------------------*\
  =========                 |
  \\      /  F ield         | OpenFOAM: The Open Source CFD Toolbox
   \\    /   O peration     | Website:  https://openfoam.org
    \\  /    A nd           | Version:  10
     \\/     M anipulation  |
\*---------------------------------------------------------------------------*/
FoamFile
{
    format      ascii;
    class       volScalarField;
    location    "0.5";
    object      p;
}
// * * * * * * * * * * * * * * * * * * * * * * * * * * * * * * * * * * * * * //

dimensions      [0 2 -2 0 0 0 0];

internalField   nonuniform List<scalar> 
400
(
-9.67163e-12
7.25654e-05
0.0002399
0.000494935
0.000830987
0.00123947
0.00171004
0.00223085
0.00278892
0.00337035
0.00396067
0.00454511
0.00510891
0.00563764
0.00611751
0.0065358
0.00688115
0.00714405
0.00731699
0.00739237
-7.10963e-05
2.81389e-06
0.000173446
0.00043342
0.000775927
0.00119221
0.00167169
0.00220234
0.00277092
0.00336333
0.00396486
0.00456051
0.00513526
0.00567442
0.00616394
0.00659079
0.00694335
0.00721183
0.00738853
0.00746547
-0.000241874
-0.000164626
1.39168e-05
0.000285873
0.000644027
0.00107914
0.00158012
0.00213439
0.00272818
0.00334684
0.00397516
0.00459755
0.00519845
0.00576255
0.00627513
0.0067225
0.00709232
0.00737418
0.00755979
0.00764058
-0.000512617
-0.000429908
-0.000238734
5.2313e-05
0.000435348
0.000900345
0.00143537
0.00202699
0.00266059
0.0033207
0.00399127
0.00465589
0.00529811
0.00590166
0.00645082
0.0069308
0.00732815
0.00763137
0.00783127
0.00791836
-0.000890481
-0.000800019
-0.000591027
-0.000273128
0.000144797
0.000651571
0.00123405
0.0018776
0.00256644
0.00328401
0.00401314
0.00473635
0.00543601
0.00609458
0.00669492
0.0072207
0.00765688
0.00799038
0.00821059
0.00830669
-0.00138559
-0.00128477
-0.00105208
-0.000698602
-0.000234656
0.000326981
0.00097152
0.00168273
0.00244338
0.00323551
0.00404066
0.00484001
0.00561452
0.00634506
0.00701271
0.00759908
0.00808693
0.00846095
0.00870849
0.00881681
-0.00201137
-0.00189711
-0.00163384
-0.0012347
-0.000712033
-8.08286e-05
0.000641947
0.00143805
0.00228845
0.0031736
0.00407356
0.00496804
0.00583641
0.00665769
0.00741077
0.00807466
0.00862918
0.00905593
0.00933929
0.00946374
-0.00278524
-0.00265373
-0.00235152
-0.0018947
-0.00129847
-0.000580845
0.000238355
0.00113839
0.00209812
0.00309625
0.00411131
0.00512154
0.00610465
0.00703766
0.00789687
0.00865808
0.00929727
0.00979173
0.0101216
0.0102672
-0.00372941
-0.00357575
-0.00322412
-0.00269484
-0.00200726
-0.00118355
-0.000247227
0.00077791
0.00186836
0.00300102
0.00415303
0.00530133
0.00642212
0.0074904
0.00847964
0.00936178
0.0101077
0.0106889
0.0110792
0.0112528
-0.00487226
-0.00468983
-0.00427506
-0.0036546
-0.00285385
-0.00190068
-0.00082344
0.000350417
0.00159484
0.0028851
0.00419728
0.00550754
0.00679104
0.00802103
0.00916808
0.0101996
0.0110802
0.0117729
0.0122426
0.0124538
-0.00625033
-0.00602966
-0.00553307
-0.00479695
-0.00385555
-0.00274473
-0.001499
-0.000150113
0.00127333
0.00274541
0.0042419
0.00573912
0.00721216
0.0086333
0.00997049
0.0111862
0.012237
0.0130749
0.0136508
0.013914
-0.00791149
-0.00763826
-0.00703337
-0.00614845
-0.00503104
-0.00372798
-0.00228163
-0.000728562
0.000900318
0.00257884
0.00428384
0.00599325
0.00768367
0.00932801
0.0108927
0.0123353
0.013603
0.0146325
0.0153542
0.0156925
-0.00992022
-0.00957144
-0.00881903
-0.00773901
-0.00639902
-0.00486073
-0.0031763
-0.00138741
0.000473862
0.0023827
0.00431898
0.00626448
0.0081998
0.010101
0.0119353
0.0136572
0.0152031
0.0164904
0.0174184
0.0178716
-0.0123686
-0.0119017
-0.0109425
-0.00960064
-0.00797553
-0.00614851
-0.00418312
-0.00212488
-5.09816e-06
0.0021553
0.00434203
0.00654382
0.00874877
0.0109398
0.0130895
0.0151528
0.0170581
0.018699
0.0199253
0.0205752
-0.0153963
-0.0147208
-0.0134662
-0.0117641
-0.00976958
-0.00758814
-0.00529341
-0.00293199
-0.000530737
0.00189705
0.00434668
0.00681777
0.00931042
0.01182
0.014331
0.0168066
0.0191747
0.0213106
0.0229761
0.0239982
-0.0192842
-0.0181564
-0.0164628
-0.0142513
-0.011776
-0.00916049
-0.00648435
-0.00378871
-0.00108977
0.001612
0.00432615
0.00706761
0.00985385
0.0126995
0.0156105
0.0185723
0.0215288
0.0243601
0.0266783
0.0284716
-0.0239561
-0.0222676
-0.0199928
-0.0170612
-0.0139608
-0.0108199
-0.00771165
-0.0046593
-0.00165898
0.00130936
0.00427444
0.00726996
0.0103359
0.0135134
0.0168423
0.0203508
0.0240312
0.0278398
0.0310742
0.0343766
-0.0325837
-0.0276861
-0.0243002
-0.0202018
-0.0162518
-0.0124788
-0.00889907
-0.00548745
-0.00220196
0.00100624
0.00418959
0.00739906
0.0107046
0.0141765
0.017902
0.0219953
0.0265961
0.031982
0.0368067
0.0439823
-0.0387326
-0.0332435
-0.0287042
-0.0233309
-0.0184519
-0.0140079
-0.00995885
-0.00621405
-0.00268365
0.00071516
0.00406033
0.00742902
0.0108983
0.014568
0.0185544
0.0230055
0.028
0.034665
0.039235
0.0519759
-0.0690463
-0.0392941
-0.0333118
-0.0257951
-0.0197833
-0.0148485
-0.0105141
-0.0065858
-0.0029307
0.000559627
0.00397847
0.00741795
0.0109722
0.0147724
0.0190249
0.0241405
0.0305616
0.0409473
0.0512707
0.088775
)
;

boundaryField
{
    movingWall
    {
        type            zeroGradient;
    }
    fixedWalls
    {
        type            zeroGradient;
    }
    frontAndBack
    {
        type            empty;
    }
}


// ************************************************************************* //
