/*--------------------------------*- C++ -*----------------------------------*\
  =========                 |
  \\      /  F ield         | OpenFOAM: The Open Source CFD Toolbox
   \\    /   O peration     | Website:  https://openfoam.org
    \\  /    A nd           | Version:  10
     \\/     M anipulation  |
\*---------------------------------------------------------------------------*/
FoamFile
{
    format      ascii;
    class       volVectorField;
    location    "10";
    object      U;
}
// * * * * * * * * * * * * * * * * * * * * * * * * * * * * * * * * * * * * * //

dimensions      [0 1 -1 0 0 0 0];

internalField   nonuniform List<vector> 
400
(
(-0.000175961 0.000147411 0)
(-0.00135171 0.000492693 0)
(-0.00335297 0.000618031 0)
(-0.00541959 0.000662876 0)
(-0.00758561 0.000692889 0)
(-0.00981693 0.000729184 0)
(-0.012109 0.00077113 0)
(-0.0144442 0.000809405 0)
(-0.016772 0.000829357 0)
(-0.0189967 0.000809818 0)
(-0.0209663 0.000722641 0)
(-0.0224597 0.000536042 0)
(-0.0231884 0.00022258 0)
(-0.0228119 -0.000243012 0)
(-0.0210122 -0.00082907 0)
(-0.0176301 -0.00143418 0)
(-0.0128882 -0.00186529 0)
(-0.00754406 -0.00188761 0)
(-0.00239936 -0.00134209 0)
(2.33532e-05 -0.000223908 0)
(-0.00060201 0.00138684 0)
(-0.00313429 0.00291089 0)
(-0.0070267 0.00349426 0)
(-0.0110572 0.00371824 0)
(-0.0152427 0.00383665 0)
(-0.0194945 0.00393147 0)
(-0.0237662 0.00400044 0)
(-0.0279929 0.00400387 0)
(-0.0320591 0.00387913 0)
(-0.0357817 0.00354146 0)
(-0.0388942 0.00288739 0)
(-0.0410365 0.0018065 0)
(-0.0417814 0.000204096 0)
(-0.0406397 -0.00193634 0)
(-0.0371613 -0.00445758 0)
(-0.0311506 -0.00694766 0)
(-0.0229677 -0.00867883 0)
(-0.0137805 -0.00875949 0)
(-0.00495233 -0.00659171 0)
(-0.000399278 -0.0021099 0)
(-0.000802044 0.00366762 0)
(-0.00399906 0.00693275 0)
(-0.00881118 0.00818803 0)
(-0.0137623 0.00866461 0)
(-0.0188725 0.0088794 0)
(-0.0240312 0.00899796 0)
(-0.0291797 0.00901827 0)
(-0.0342423 0.00886194 0)
(-0.039091 0.0084041 0)
(-0.043526 0.00747864 0)
(-0.0472572 0.00588586 0)
(-0.0498938 0.00341709 0)
(-0.0509333 -9.47345e-05 0)
(-0.0497623 -0.00465898 0)
(-0.0457616 -0.00999996 0)
(-0.0385272 -0.0152996 0)
(-0.0283069 -0.0190524 0)
(-0.016561 -0.0192441 0)
(-0.00543883 -0.0145176 0)
(-0.000204388 -0.00509619 0)
(-0.000871334 0.00613785 0)
(-0.00435059 0.0112845 0)
(-0.00957232 0.013236 0)
(-0.0149265 0.0139554 0)
(-0.0204503 0.0142561 0)
(-0.0260376 0.0143957 0)
(-0.031645 0.0143762 0)
(-0.0372193 0.0140855 0)
(-0.0426614 0.013341 0)
(-0.0478037 0.0118946 0)
(-0.0523781 0.00943781 0)
(-0.0559844 0.00563132 0)
(-0.0580556 0.000186295 0)
(-0.057827 -0.0070036 0)
(-0.054333 -0.0156582 0)
(-0.0466219 -0.0245929 0)
(-0.0343946 -0.0312748 0)
(-0.0192755 -0.0317705 0)
(-0.00502986 -0.0232693 0)
(0.000487824 -0.00753159 0)
(-0.000871462 0.00871629 0)
(-0.00442644 0.0158477 0)
(-0.0097934 0.0185312 0)
(-0.0153035 0.0195123 0)
(-0.0210148 0.0199265 0)
(-0.0268419 0.0201361 0)
(-0.0327782 0.0201571 0)
(-0.0388199 0.0198525 0)
(-0.0449313 0.0189893 0)
(-0.0510196 0.017238 0)
(-0.0568896 0.0141654 0)
(-0.0621758 0.0092485 0)
(-0.0662661 0.0019555 0)
(-0.068234 -0.00809281 0)
(-0.0666314 -0.0208607 0)
(-0.0594926 -0.0350058 0)
(-0.0451181 -0.0466819 0)
(-0.024716 -0.0484082 0)
(-0.00471994 -0.0340434 0)
(0.00162555 -0.00926785 0)
(-0.000835927 0.0112821 0)
(-0.00435555 0.0204521 0)
(-0.00972732 0.0239021 0)
(-0.0152676 0.0251772 0)
(-0.0210532 0.0257562 0)
(-0.0270291 0.0261232 0)
(-0.0332402 0.0263245 0)
(-0.0397546 0.0262169 0)
(-0.046633 0.0255337 0)
(-0.0539067 0.0238754 0)
(-0.061528 0.0206787 0)
(-0.0692792 0.0151969 0)
(-0.0766574 0.00652271 0)
(-0.0827371 -0.00629097 0)
(-0.0855041 -0.0238712 0)
(-0.0811906 -0.0456209 0)
(-0.065163 -0.0663195 0)
(-0.0374263 -0.0720824 0)
(-0.00723435 -0.0491198 0)
(0.00298423 -0.0104384 0)
(-0.000778751 0.0137648 0)
(-0.00419579 0.0249941 0)
(-0.00948465 0.0292421 0)
(-0.0149695 0.030848 0)
(-0.0207408 0.0316527 0)
(-0.0267769 0.0322822 0)
(-0.0331813 0.0328363 0)
(-0.0401113 0.0331948 0)
(-0.0477578 0.0330947 0)
(-0.0563365 0.0321067 0)
(-0.06606 0.0295761 0)
(-0.077078 0.0245601 0)
(-0.0893496 0.0157323 0)
(-0.102208 0.00119172 0)
(-0.113076 -0.0215746 0)
(-0.115006 -0.054354 0)
(-0.0986958 -0.0907669 0)
(-0.0639448 -0.106222 0)
(-0.0202145 -0.0737776 0)
(0.0031257 -0.0137188 0)
(-0.000704668 0.0161196 0)
(-0.00396921 0.0294067 0)
(-0.00910509 0.0344762 0)
(-0.0144514 0.0364407 0)
(-0.0201048 0.0375209 0)
(-0.0260718 0.0385088 0)
(-0.0325123 0.0395868 0)
(-0.0396764 0.0406976 0)
(-0.0479058 0.0416422 0)
(-0.0576589 0.042054 0)
(-0.0695351 0.0413267 0)
(-0.0843162 0.0385136 0)
(-0.102923 0.0319782 0)
(-0.125411 0.0181696 0)
(-0.147621 -0.00979664 0)
(-0.157599 -0.0585273 0)
(-0.143134 -0.118432 0)
(-0.107169 -0.149945 0)
(-0.053385 -0.115553 0)
(-0.00154877 -0.0274822 0)
(-0.000617055 0.01831 0)
(-0.00368973 0.0336342 0)
(-0.00860952 0.0395311 0)
(-0.0137257 0.0418564 0)
(-0.0191291 0.0432278 0)
(-0.0248425 0.044629 0)
(-0.0310666 0.046357 0)
(-0.0381284 0.0484654 0)
(-0.046505 0.0508991 0)
(-0.0568988 0.0534956 0)
(-0.0703384 0.0559294 0)
(-0.088352 0.0575185 0)
(-0.113022 0.0562601 0)
(-0.144866 0.0454928 0)
(-0.176712 0.0114246 0)
(-0.192148 -0.0583984 0)
(-0.182867 -0.144887 0)
(-0.154552 -0.196771 0)
(-0.100576 -0.178315 0)
(-0.0166641 -0.0647999 0)
(-0.000523018 0.0203096 0)
(-0.00338168 0.0376314 0)
(-0.00803455 0.0443335 0)
(-0.0128243 0.0469811 0)
(-0.0178235 0.0486024 0)
(-0.0230501 0.0503971 0)
(-0.0287163 0.0528046 0)
(-0.0351809 0.0560347 0)
(-0.0429882 0.0602609 0)
(-0.0529834 0.0656802 0)
(-0.0664619 0.0724811 0)
(-0.0852934 0.0803252 0)
(-0.111973 0.0861079 0)
(-0.146234 0.0783951 0)
(-0.17904 0.0365164 0)
(-0.193796 -0.0527888 0)
(-0.190193 -0.161649 0)
(-0.172982 -0.239321 0)
(-0.131248 -0.254724 0)
(-0.0400354 -0.140455 0)
(-0.000436219 0.0221118 0)
(-0.00309025 0.041369 0)
(-0.0074525 0.0488056 0)
(-0.0118298 0.0516749 0)
(-0.0162672 0.0534267 0)
(-0.0207514 0.0554894 0)
(-0.025466 0.0584518 0)
(-0.030727 0.0626922 0)
(-0.0370107 0.0686418 0)
(-0.0450525 0.0769023 0)
(-0.0559559 0.0881756 0)
(-0.0710458 0.102142 0)
(-0.0918902 0.113739 0)
(-0.117452 0.106973 0)
(-0.140406 0.0578924 0)
(-0.150031 -0.0436705 0)
(-0.151578 -0.164874 0)
(-0.145847 -0.264608 0)
(-0.126815 -0.320032 0)
(-0.0502445 -0.244818 0)
(-0.000384248 0.0237592 0)
(-0.00290369 0.0448965 0)
(-0.0070005 0.0529635 0)
(-0.0109013 0.0558934 0)
(-0.0146377 0.0575645 0)
(-0.0181487 0.0596401 0)
(-0.0215558 0.0628415 0)
(-0.0250598 0.0676726 0)
(-0.0289313 0.0747417 0)
(-0.03353 0.0848845 0)
(-0.0393189 0.098993 0)
(-0.0465584 0.116406 0)
(-0.0558445 0.130613 0)
(-0.0664902 0.123333 0)
(-0.0760747 0.0708301 0)
(-0.0799765 -0.0346721 0)
(-0.0870965 -0.155434 0)
(-0.0936059 -0.263846 0)
(-0.0996703 -0.352485 0)
(-0.0400963 -0.329836 0)
(-0.000398911 0.0253087 0)
(-0.0029145 0.0481613 0)
(-0.0068423 0.0565822 0)
(-0.0102692 0.0592908 0)
(-0.0132336 0.0606161 0)
(-0.0156184 0.0624009 0)
(-0.0174866 0.0654231 0)
(-0.0189039 0.0702221 0)
(-0.0198952 0.0774232 0)
(-0.0203837 0.0878164 0)
(-0.0201861 0.102178 0)
(-0.0185833 0.119502 0)
(-0.0156765 0.133483 0)
(-0.0113931 0.126313 0)
(-0.00984482 0.0754337 0)
(-0.0114227 -0.0262514 0)
(-0.0274153 -0.13935 0)
(-0.0452425 -0.248331 0)
(-0.0726451 -0.362915 0)
(-0.0282226 -0.388236 0)
(-0.000595649 0.0271121 0)
(-0.00344989 0.0518543 0)
(-0.00736512 0.0605374 0)
(-0.0102456 0.0627883 0)
(-0.0123201 0.0633344 0)
(-0.0134946 0.0642838 0)
(-0.0137751 0.0664835 0)
(-0.013097 0.0704503 0)
(-0.0113015 0.0767058 0)
(-0.00796191 0.0857937 0)
(-0.00256953 0.0981743 0)
(0.00623289 0.112832 0)
(0.0183391 0.12442 0)
(0.0332654 0.118127 0)
(0.0419462 0.0738325 0)
(0.0436859 -0.0158163 0)
(0.0202894 -0.116845 0)
(-0.00421325 -0.219454 0)
(-0.0517509 -0.356471 0)
(-0.0188275 -0.432404 0)
(-0.000934609 0.0293833 0)
(-0.00417353 0.0546595 0)
(-0.00845947 0.0624974 0)
(-0.0111152 0.0634756 0)
(-0.0125613 0.063094 0)
(-0.0126084 0.0632749 0)
(-0.0113457 0.0646676 0)
(-0.00869871 0.0675878 0)
(-0.00447428 0.0723571 0)
(0.00187753 0.079254 0)
(0.0110192 0.0884075 0)
(0.0241687 0.0988528 0)
(0.0409296 0.106449 0)
(0.0615068 0.100809 0)
(0.074351 0.0662782 0)
(0.0793417 -0.00493042 0)
(0.0513624 -0.0890287 0)
(0.0256435 -0.180208 0)
(-0.0373839 -0.338652 0)
(-0.0087672 -0.463689 0)
(-0.00302567 0.0310846 0)
(-0.00863274 0.0609783 0)
(-0.0121747 0.0686175 0)
(-0.0136761 0.0688878 0)
(-0.0135855 0.0665554 0)
(-0.0122283 0.0646304 0)
(-0.00957776 0.063875 0)
(-0.00543969 0.0645764 0)
(0.00048011 0.066897 0)
(0.0087835 0.070887 0)
(0.0199738 0.0764302 0)
(0.0349363 0.0824931 0)
(0.05281 0.0863238 0)
(0.0747151 0.0811679 0)
(0.088018 0.0568752 0)
(0.095901 0.00594414 0)
(0.0671081 -0.0583863 0)
(0.0436102 -0.137755 0)
(-0.0285037 -0.319646 0)
(0.00141238 -0.488051 0)
(-0.000884867 0.0441803 0)
(-0.00712202 0.0618049 0)
(-0.0157278 0.0650134 0)
(-0.01707 0.0615126 0)
(-0.0171197 0.0585373 0)
(-0.0148326 0.0565617 0)
(-0.0109709 0.055646 0)
(-0.00539369 0.0556738 0)
(0.00206579 0.0566739 0)
(0.0119049 0.0585798 0)
(0.0243868 0.0613416 0)
(0.0400712 0.0641221 0)
(0.0574893 0.0654029 0)
(0.0787119 0.0609808 0)
(0.0910709 0.0451494 0)
(0.100786 0.0124542 0)
(0.0735507 -0.0332876 0)
(0.0591121 -0.0992437 0)
(-0.0112669 -0.297725 0)
(0.0200091 -0.497891 0)
(-0.0125904 0.0321221 0)
(-0.0227502 0.0808519 0)
(-0.0198079 0.0814121 0)
(-0.0229957 0.0766001 0)
(-0.0216738 0.069169 0)
(-0.0185231 0.0630379 0)
(-0.0132526 0.0582172 0)
(-0.00601913 0.0545838 0)
(0.00313596 0.0521334 0)
(0.0145571 0.0505522 0)
(0.0280432 0.0499302 0)
(0.0441639 0.0494216 0)
(0.0605294 0.0491577 0)
(0.0804854 0.0462385 0)
(0.0907767 0.0391474 0)
(0.104409 0.0226446 0)
(0.0852296 -0.0063296 0)
(0.0952807 -0.0617165 0)
(0.038164 -0.272112 0)
(0.0563516 -0.487716 0)
(-0.0777239 0.0956306 0)
(-0.0631826 0.0586993 0)
(-0.064744 0.0601272 0)
(-0.0416516 0.0535627 0)
(-0.0233252 0.0465612 0)
(-0.00216833 0.0413796 0)
(0.017801 0.0376183 0)
(0.0382124 0.0344535 0)
(0.0571875 0.0321925 0)
(0.0779139 0.0301147 0)
(0.0958754 0.0289645 0)
(0.118765 0.0276912 0)
(0.134412 0.0266819 0)
(0.16223 0.0249845 0)
(0.170671 0.0191757 0)
(0.202063 0.0101255 0)
(0.187577 -0.0216506 0)
(0.220254 -0.0729899 0)
(0.153415 -0.25108 0)
(0.124141 -0.43202 0)
(0.119296 0.140661 0)
(0.151717 0.085897 0)
(0.228106 0.0633592 0)
(0.283609 0.0479508 0)
(0.32514 0.0373767 0)
(0.363543 0.0296449 0)
(0.392391 0.0242715 0)
(0.423698 0.0202105 0)
(0.443813 0.0173568 0)
(0.472488 0.0150155 0)
(0.485476 0.0133594 0)
(0.514845 0.0119161 0)
(0.520339 0.0107907 0)
(0.5522 0.00936634 0)
(0.54667 0.00733331 0)
(0.577938 0.00284306 0)
(0.545548 -0.00579933 0)
(0.551279 -0.0267097 0)
(0.418732 -0.072901 0)
(0.274488 -0.151565 0)
)
;

boundaryField
{
    movingWall
    {
        type            fixedValue;
        value           uniform (1 0 0);
    }
    fixedWalls
    {
        type            noSlip;
    }
    frontAndBack
    {
        type            empty;
    }
}


// ************************************************************************* //
