/*--------------------------------*- C++ -*----------------------------------*\
  =========                 |
  \\      /  F ield         | OpenFOAM: The Open Source CFD Toolbox
   \\    /   O peration     | Website:  https://openfoam.org
    \\  /    A nd           | Version:  10
     \\/     M anipulation  |
\*---------------------------------------------------------------------------*/
FoamFile
{
    format      ascii;
    class       volVectorField;
    location    "8.225";
    object      U;
}
// * * * * * * * * * * * * * * * * * * * * * * * * * * * * * * * * * * * * * //

dimensions      [0 1 -1 0 0 0 0];

internalField   nonuniform List<vector> 
400
(
(-0.000152592 0.000135847 0)
(-0.00113991 0.000424936 0)
(-0.00280817 0.000530131 0)
(-0.00451704 0.000564093 0)
(-0.00628108 0.000580953 0)
(-0.00806131 0.000597824 0)
(-0.0098423 0.000613896 0)
(-0.0116005 0.000621996 0)
(-0.0132915 0.000612189 0)
(-0.0148457 0.000572076 0)
(-0.0161636 0.000487133 0)
(-0.0171121 0.000342335 0)
(-0.017528 0.000126299 0)
(-0.017227 -0.000173369 0)
(-0.0160352 -0.000542201 0)
(-0.0138436 -0.000939388 0)
(-0.0106956 -0.00128079 0)
(-0.00693296 -0.00143963 0)
(-0.002827 -0.00125756 0)
(-0.000343907 -0.00046861 0)
(-0.00048913 0.0011608 0)
(-0.00255321 0.00241647 0)
(-0.00571472 0.00288257 0)
(-0.00894829 0.00302919 0)
(-0.0122474 0.00306873 0)
(-0.0155247 0.00307048 0)
(-0.0187288 0.00303558 0)
(-0.0218009 0.00293898 0)
(-0.0246542 0.00274386 0)
(-0.0271673 0.0024049 0)
(-0.0291778 0.00187144 0)
(-0.0304791 0.00109235 0)
(-0.0308376 2.56368e-05 0)
(-0.0299911 -0.00133176 0)
(-0.027695 -0.00291384 0)
(-0.0238144 -0.00454925 0)
(-0.018443 -0.00591468 0)
(-0.0121029 -0.00652466 0)
(-0.00524059 -0.00578181 0)
(-0.000846588 -0.00266311 0)
(-0.000637793 0.00299812 0)
(-0.00320381 0.005659 0)
(-0.00705759 0.00663651 0)
(-0.0109699 0.00692524 0)
(-0.0149358 0.00696033 0)
(-0.0188509 0.0068843 0)
(-0.0226549 0.00670498 0)
(-0.0262816 0.00637774 0)
(-0.0296367 0.00583354 0)
(-0.0325894 0.00498653 0)
(-0.034965 0.00374073 0)
(-0.0365421 0.00200184 0)
(-0.0370437 -0.000302156 0)
(-0.036147 -0.003181 0)
(-0.0335356 -0.00650511 0)
(-0.0289832 -0.00993557 0)
(-0.0225263 -0.012817 0)
(-0.0147689 -0.0141168 0)
(-0.00626632 -0.0125763 0)
(-0.000931087 -0.00609756 0)
(-0.000686187 0.00496129 0)
(-0.00346256 0.00912952 0)
(-0.0076246 0.0106312 0)
(-0.0118342 0.0110498 0)
(-0.0161008 0.0110692 0)
(-0.020322 0.0109108 0)
(-0.0244469 0.010591 0)
(-0.0284216 0.0100472 0)
(-0.0321658 0.00917931 0)
(-0.0355611 0.00785853 0)
(-0.0384369 0.00593474 0)
(-0.0405578 0.00325341 0)
(-0.0416215 -0.000311404 0)
(-0.0412154 -0.00479987 0)
(-0.0388593 -0.0100853 0)
(-0.0341201 -0.0156731 0)
(-0.0268186 -0.0205143 0)
(-0.017577 -0.0228189 0)
(-0.00708972 -0.0203339 0)
(-0.000805592 -0.00966731 0)
(-0.000690095 0.00701011 0)
(-0.00354593 0.0127727 0)
(-0.0078522 0.0148258 0)
(-0.0122105 0.0153861 0)
(-0.0166476 0.0154067 0)
(-0.0210731 0.0151959 0)
(-0.0254575 0.0147824 0)
(-0.0297736 0.0140889 0)
(-0.0339713 0.0129851 0)
(-0.0379631 0.0112961 0)
(-0.0416013 0.00880433 0)
(-0.0446507 0.00526289 0)
(-0.0467495 0.000437398 0)
(-0.047393 -0.00580757 0)
(-0.0458839 -0.0134271 0)
(-0.0414036 -0.0218313 0)
(-0.0333213 -0.0295088 0)
(-0.0220288 -0.0335491 0)
(-0.00829758 -0.0299164 0)
(-0.000492991 -0.0135604 0)
(-0.000676611 0.00907637 0)
(-0.00355948 0.0164958 0)
(-0.0079467 0.0191302 0)
(-0.0124008 0.0198547 0)
(-0.016965 0.0199108 0)
(-0.0215673 0.0197034 0)
(-0.0262082 0.0192811 0)
(-0.0308994 0.0185582 0)
(-0.0356379 0.0173786 0)
(-0.0403901 0.01552 0)
(-0.0450611 0.0126859 0)
(-0.0494458 0.00850619 0)
(-0.0531673 0.00257302 0)
(-0.0556329 -0.00548286 0)
(-0.0558859 -0.0158507 0)
(-0.0525677 -0.0280073 0)
(-0.0441656 -0.040043 0)
(-0.030086 -0.0474618 0)
(-0.010742 -0.0425555 0)
(3.05277e-05 -0.017939 0)
(-0.000654683 0.0111301 0)
(-0.00354201 0.0202572 0)
(-0.00798296 0.0235038 0)
(-0.0125062 0.0244191 0)
(-0.0171706 0.0245518 0)
(-0.0219251 0.0244169 0)
(-0.0268078 0.0240939 0)
(-0.0318806 0.0235005 0)
(-0.0372072 0.0224658 0)
(-0.0428383 0.0207274 0)
(-0.0487795 0.0179076 0)
(-0.0549264 0.0134864 0)
(-0.0609808 0.00679751 0)
(-0.0664023 -0.00289725 0)
(-0.0700574 -0.0161428 0)
(-0.069922 -0.0330846 0)
(-0.0628713 -0.051943 0)
(-0.0454424 -0.0663722 0)
(-0.0167873 -0.0607472 0)
(0.000482746 -0.0236822 0)
(-0.000625974 0.013157 0)
(-0.00350366 0.0240389 0)
(-0.00797919 0.0279254 0)
(-0.012543 0.029053 0)
(-0.0172675 0.0292989 0)
(-0.0221231 0.0293044 0)
(-0.0271887 0.0291954 0)
(-0.0325868 0.0289115 0)
(-0.0384676 0.0282912 0)
(-0.0450036 0.0270597 0)
(-0.0523692 0.0247835 0)
(-0.0606913 0.0208101 0)
(-0.0699519 0.0142133 0)
(-0.0798198 0.0037934 0)
(-0.0895205 -0.0118429 0)
(-0.0964185 -0.0342992 0)
(-0.0940348 -0.0638985 0)
(-0.0728095 -0.0925694 0)
(-0.0315377 -0.089214 0)
(-0.00058476 -0.0335992 0)
(-0.000591536 0.015145 0)
(-0.00344958 0.0278258 0)
(-0.00794104 0.0323706 0)
(-0.0125059 0.0337163 0)
(-0.0172274 0.0340944 0)
(-0.0220944 0.0342911 0)
(-0.0272247 0.0344977 0)
(-0.0328037 0.0347013 0)
(-0.0390791 0.0347866 0)
(-0.0463766 0.0345213 0)
(-0.0551085 0.033495 0)
(-0.0657705 0.0310328 0)
(-0.0789354 0.0260989 0)
(-0.095203 0.0170993 0)
(-0.11447 0.00111018 0)
(-0.132871 -0.0272446 0)
(-0.137701 -0.0739812 0)
(-0.111819 -0.128149 0)
(-0.0611317 -0.134017 0)
(-0.00710358 -0.05432 0)
(-0.000555466 0.0170868 0)
(-0.00339327 0.0316065 0)
(-0.00788601 0.0368091 0)
(-0.0124023 0.0383514 0)
(-0.017034 0.0388478 0)
(-0.0217811 0.0392503 0)
(-0.0267925 0.0398364 0)
(-0.0323071 0.04067 0)
(-0.0386616 0.0417303 0)
(-0.0463357 0.0429079 0)
(-0.0560157 0.0439546 0)
(-0.0686876 0.0444084 0)
(-0.0857868 0.0434661 0)
(-0.109265 0.039286 0)
(-0.139782 0.0260311 0)
(-0.169893 -0.0097949 0)
(-0.178826 -0.0833245 0)
(-0.15081 -0.172085 0)
(-0.103985 -0.194324 0)
(-0.0238592 -0.0973028 0)
(-0.000527654 0.0189885 0)
(-0.0033658 0.0353804 0)
(-0.00785926 0.0412064 0)
(-0.0122737 0.0428808 0)
(-0.0167107 0.0434323 0)
(-0.0211707 0.0439975 0)
(-0.0258178 0.0449557 0)
(-0.0309184 0.0464734 0)
(-0.0368597 0.0486728 0)
(-0.0442222 0.0516612 0)
(-0.0538958 0.0555314 0)
(-0.0672433 0.0603352 0)
(-0.0863385 0.0657614 0)
(-0.114054 0.0691388 0)
(-0.150234 0.0589806 0)
(-0.183656 0.011567 0)
(-0.191069 -0.0920969 0)
(-0.168839 -0.212787 0)
(-0.136939 -0.262403 0)
(-0.0439238 -0.179194 0)
(-0.000529104 0.0208881 0)
(-0.00343038 0.0391908 0)
(-0.00795241 0.0455722 0)
(-0.0122141 0.0472629 0)
(-0.0163422 0.0477382 0)
(-0.0203284 0.0483397 0)
(-0.0243313 0.0495575 0)
(-0.0286034 0.0516703 0)
(-0.0335083 0.0549728 0)
(-0.0395982 0.0598553 0)
(-0.0477383 0.0668735 0)
(-0.0592381 0.076705 0)
(-0.0758226 0.089229 0)
(-0.0997046 0.0995154 0)
(-0.129278 0.0897463 0)
(-0.154295 0.0300224 0)
(-0.158846 -0.0931471 0)
(-0.147186 -0.236609 0)
(-0.133839 -0.327144 0)
(-0.0492771 -0.289108 0)
(-0.000590553 0.0228375 0)
(-0.00366915 0.0430066 0)
(-0.00829344 0.0497371 0)
(-0.0123802 0.0512343 0)
(-0.0161018 0.0514576 0)
(-0.0194297 0.0519223 0)
(-0.0225069 0.0531903 0)
(-0.025527 0.0556314 0)
(-0.0287341 0.0596769 0)
(-0.0324793 0.0659379 0)
(-0.0372831 0.0753032 0)
(-0.0438129 0.0887324 0)
(-0.052654 0.105824 0)
(-0.0646684 0.119329 0)
(-0.0788008 0.108534 0)
(-0.0893351 0.0419178 0)
(-0.092421 -0.0863856 0)
(-0.0909611 -0.238805 0)
(-0.102671 -0.363205 0)
(-0.0386799 -0.377047 0)
(-0.000813924 0.0251514 0)
(-0.00435594 0.0474346 0)
(-0.00918665 0.054445 0)
(-0.012996 0.0555459 0)
(-0.0161601 0.0551584 0)
(-0.0186758 0.0550589 0)
(-0.020639 0.0559052 0)
(-0.0221395 0.0581241 0)
(-0.0232561 0.0621983 0)
(-0.0240477 0.0687958 0)
(-0.0245754 0.0788626 0)
(-0.0246364 0.0931856 0)
(-0.0238574 0.111111 0)
(-0.0217693 0.124523 0)
(-0.0197656 0.113786 0)
(-0.0162998 0.0469094 0)
(-0.0214343 -0.0756792 0)
(-0.0302845 -0.22067 0)
(-0.069318 -0.367532 0)
(-0.0238694 -0.434254 0)
(-0.0011618 0.0279907 0)
(-0.00519279 0.0511315 0)
(-0.0105485 0.0574234 0)
(-0.014325 0.0574291 0)
(-0.0170936 0.056347 0)
(-0.0187503 0.0558041 0)
(-0.0194552 0.0562934 0)
(-0.0192602 0.0581135 0)
(-0.0181116 0.0616725 0)
(-0.0157926 0.0675391 0)
(-0.0120325 0.0765 0)
(-0.00589137 0.0888813 0)
(0.00328432 0.104092 0)
(0.0172883 0.11484 0)
(0.0307737 0.104968 0)
(0.0438959 0.0456204 0)
(0.0344537 -0.0627993 0)
(0.0185856 -0.188969 0)
(-0.0443271 -0.354095 0)
(-0.0106552 -0.473037 0)
(-0.00324238 0.0303843 0)
(-0.00963159 0.0585134 0)
(-0.0143167 0.0647072 0)
(-0.0170447 0.0641087 0)
(-0.0184539 0.0613186 0)
(-0.0189002 0.0589907 0)
(-0.0183873 0.0577402 0)
(-0.0167711 0.0578703 0)
(-0.0137846 0.0596771 0)
(-0.00895492 0.0635136 0)
(-0.00192216 0.0698656 0)
(0.00871001 0.0787733 0)
(0.0232035 0.0894352 0)
(0.0433909 0.0962588 0)
(0.0621874 0.0879344 0)
(0.0808222 0.0426204 0)
(0.0694845 -0.044064 0)
(0.0526088 -0.147754 0)
(-0.0257762 -0.33052 0)
(0.00289869 -0.495121 0)
(-0.000983781 0.0439094 0)
(-0.00784828 0.0601736 0)
(-0.0175533 0.0622042 0)
(-0.0203555 0.0581928 0)
(-0.0221765 0.0551023 0)
(-0.0218898 0.0530628 0)
(-0.020223 0.0519871 0)
(-0.0170653 0.0517821 0)
(-0.0122221 0.0525935 0)
(-0.00519124 0.054575 0)
(0.00444761 0.0581355 0)
(0.0179925 0.0632453 0)
(0.0350148 0.0690428 0)
(0.0580398 0.0719128 0)
(0.0776715 0.0650911 0)
(0.0995669 0.0345743 0)
(0.0861465 -0.0275888 0)
(0.071075 -0.107277 0)
(-0.0076479 -0.305172 0)
(0.0222567 -0.504037 0)
(-0.0125517 0.0322812 0)
(-0.0234206 0.0802522 0)
(-0.021663 0.0800999 0)
(-0.0263489 0.0750911 0)
(-0.0266378 0.0677006 0)
(-0.0251183 0.0615949 0)
(-0.021531 0.0567047 0)
(-0.0160756 0.0529547 0)
(-0.00880079 0.050354 0)
(0.000710992 0.0487175 0)
(0.0124399 0.0483301 0)
(0.0274864 0.0488598 0)
(0.0445516 0.0506139 0)
(0.0670502 0.0508129 0)
(0.0833225 0.0477136 0)
(0.106569 0.0321327 0)
(0.0960499 -0.00504219 0)
(0.10383 -0.0670367 0)
(0.0406653 -0.275551 0)
(0.0583358 -0.491264 0)
(-0.0776178 0.0959823 0)
(-0.0632626 0.0588317 0)
(-0.0654189 0.0599356 0)
(-0.0431233 0.0532918 0)
(-0.0255291 0.0463343 0)
(-0.00508364 0.041174 0)
(0.0142155 0.0374146 0)
(0.0338711 0.0342204 0)
(0.0521059 0.0319105 0)
(0.0719053 0.0298015 0)
(0.0891892 0.0286358 0)
(0.111245 0.0276349 0)
(0.126937 0.0271298 0)
(0.156273 0.0264305 0)
(0.166544 0.0214496 0)
(0.203441 0.0127571 0)
(0.193344 -0.0208355 0)
(0.224605 -0.0749197 0)
(0.154947 -0.252293 0)
(0.12526 -0.433977 0)
(0.11942 0.140788 0)
(0.152076 0.0861191 0)
(0.228537 0.0635328 0)
(0.283992 0.0480679 0)
(0.32539 0.0374263 0)
(0.363683 0.029651 0)
(0.392359 0.0242155 0)
(0.423576 0.0201829 0)
(0.443471 0.0172542 0)
(0.47205 0.0149805 0)
(0.484814 0.0132706 0)
(0.51428 0.0119766 0)
(0.519709 0.0108713 0)
(0.552284 0.00974776 0)
(0.547454 0.00777727 0)
(0.580097 0.00340564 0)
(0.549139 -0.00585852 0)
(0.554716 -0.0272847 0)
(0.420703 -0.0733609 0)
(0.275405 -0.15219 0)
)
;

boundaryField
{
    movingWall
    {
        type            fixedValue;
        value           uniform (1 0 0);
    }
    fixedWalls
    {
        type            noSlip;
    }
    frontAndBack
    {
        type            empty;
    }
}


// ************************************************************************* //
