/*--------------------------------*- C++ -*----------------------------------*\
  =========                 |
  \\      /  F ield         | OpenFOAM: The Open Source CFD Toolbox
   \\    /   O peration     | Website:  https://openfoam.org
    \\  /    A nd           | Version:  10
     \\/     M anipulation  |
\*---------------------------------------------------------------------------*/
FoamFile
{
    format      ascii;
    class       volVectorField;
    location    "6.525";
    object      U;
}
// * * * * * * * * * * * * * * * * * * * * * * * * * * * * * * * * * * * * * //

dimensions      [0 1 -1 0 0 0 0];

internalField   nonuniform List<vector> 
475
(
(0.97403 0.0161063 0)
(0.97612 0.00623841 0)
(0.95001 0.0315785 0)
(0.955177 0.000939493 0)
(0.919945 0.0299449 0)
(0.998501 0.00882294 0)
(1.01411 0.0145581 0)
(1.02513 0.0152477 0)
(1.04386 0.00825 0)
(1.05563 0.00188176 0)
(1.00019 0.000294505 0)
(1.00949 -0.00312687 0)
(1.02456 -0.0045608 0)
(1.04096 -0.00996942 0)
(1.05645 -0.014166 0)
(1.00019 -0.0101725 0)
(1.00979 -0.0193369 0)
(1.02336 -0.0221801 0)
(1.03454 -0.0233866 0)
(1.04502 -0.0255669 0)
(0.980594 -0.0098248 0)
(0.96907 -0.018747 0)
(0.953826 -0.0222716 0)
(0.932886 -0.0219188 0)
(0.907934 -0.0233007 0)
(0.925883 -0.0169022 0)
(0.933383 -0.0356894 0)
(0.93703 -0.0466457 0)
(0.944542 -0.0548145 0)
(0.954979 -0.0632607 0)
(0.971701 -0.0764162 0)
(0.993394 -0.0951035 0)
(1.01685 -0.118797 0)
(1.0402 -0.14683 0)
(1.06123 -0.177016 0)
(1.07693 -0.207809 0)
(1.08672 -0.235353 0)
(1.08933 -0.257504 0)
(1.08311 -0.271059 0)
(1.06936 -0.273471 0)
(1.04719 -0.267073 0)
(1.01807 -0.252591 0)
(0.985111 -0.230057 0)
(0.953271 -0.200839 0)
(0.923377 -0.165575 0)
(0.893019 -0.126895 0)
(0.864353 -0.0879153 0)
(0.837894 -0.0510021 0)
(0.812398 -0.0186352 0)
(0.789773 0.00915371 0)
(0.772391 0.0316008 0)
(0.760526 0.0481996 0)
(0.751754 0.060012 0)
(0.743486 0.0691149 0)
(0.73471 0.075497 0)
(0.725394 0.0772389 0)
(0.715822 0.0738842 0)
(0.706274 0.0685525 0)
(0.696961 0.0652673 0)
(0.688383 0.065433 0)
(0.680982 0.0669519 0)
(0.674791 0.0667789 0)
(0.669327 0.0627787 0)
(0.664111 0.0551056 0)
(0.659111 0.0449426 0)
(0.654446 0.0341405 0)
(0.650673 0.0242719 0)
(0.647481 0.0155914 0)
(0.645659 0.0100683 0)
(0.643708 0.00424586 0)
(1.06839 -0.0089743 0)
(1.07779 -0.0220679 0)
(1.08256 -0.0330104 0)
(1.08531 -0.0439507 0)
(1.08751 -0.0554612 0)
(1.09049 -0.0712661 0)
(1.09293 -0.0910449 0)
(1.09448 -0.116244 0)
(1.09203 -0.144237 0)
(1.08558 -0.174433 0)
(1.07209 -0.203505 0)
(1.05248 -0.227276 0)
(1.02535 -0.244214 0)
(0.990695 -0.248382 0)
(0.951006 -0.242777 0)
(0.902446 -0.232065 0)
(0.848413 -0.213615 0)
(0.79429 -0.186448 0)
(0.743365 -0.154488 0)
(0.696627 -0.118408 0)
(0.654931 -0.0819885 0)
(0.618412 -0.0497444 0)
(0.585636 -0.0204552 0)
(0.556393 0.00618549 0)
(0.53452 0.0262892 0)
(0.519823 0.0409002 0)
(0.509892 0.0537213 0)
(0.502897 0.0664917 0)
(0.499008 0.0778699 0)
(0.499302 0.0846455 0)
(0.503979 0.0848931 0)
(0.511593 0.0800243 0)
(0.520152 0.0737241 0)
(0.528568 0.0691678 0)
(0.537168 0.0672302 0)
(0.546748 0.0662875 0)
(0.557675 0.0640801 0)
(0.569497 0.0588754 0)
(0.581416 0.0507997 0)
(0.592547 0.0406784 0)
(0.602406 0.0302698 0)
(0.610373 0.0207387 0)
(0.617055 0.0127661 0)
(0.621108 0.00754333 0)
(0.625736 0.00267571 0)
(1.06837 -0.0224717 0)
(1.0766 -0.0327912 0)
(1.08058 -0.0442791 0)
(1.08116 -0.0555495 0)
(1.07955 -0.0672714 0)
(1.07506 -0.0816683 0)
(1.06877 -0.0976543 0)
(1.05831 -0.118555 0)
(1.0439 -0.140471 0)
(1.02336 -0.165467 0)
(0.996495 -0.187644 0)
(0.963988 -0.20642 0)
(0.922402 -0.213638 0)
(0.873576 -0.2029 0)
(0.813187 -0.186594 0)
(0.737361 -0.175812 0)
(0.661357 -0.164228 0)
(0.585839 -0.14208 0)
(0.511424 -0.111583 0)
(0.447692 -0.0767845 0)
(0.394839 -0.0407057 0)
(0.353084 -0.0101703 0)
(0.321379 0.0138817 0)
(0.297581 0.0339018 0)
(0.28202 0.0497135 0)
(0.275057 0.0608447 0)
(0.275972 0.0678868 0)
(0.284281 0.0718271 0)
(0.299509 0.0728906 0)
(0.320195 0.0708543 0)
(0.343903 0.0660102 0)
(0.367993 0.0597684 0)
(0.390753 0.0541454 0)
(0.411992 0.0504661 0)
(0.432703 0.0486147 0)
(0.453951 0.0471077 0)
(0.476015 0.0443723 0)
(0.498208 0.0393614 0)
(0.519226 0.0324561 0)
(0.537884 0.024342 0)
(0.553186 0.0166112 0)
(0.564939 0.00973851 0)
(0.573285 0.00482234 0)
(0.57844 0.00144236 0)
(0.582463 -0.000570786 0)
(1.04916 -0.0304017 0)
(1.05189 -0.0362049 0)
(1.04695 -0.0434302 0)
(1.04017 -0.0499209 0)
(1.02629 -0.0581169 0)
(1.00913 -0.0663511 0)
(0.985305 -0.0772495 0)
(0.954369 -0.0898918 0)
(0.916786 -0.104726 0)
(0.86608 -0.122147 0)
(0.810558 -0.137062 0)
(0.738291 -0.153036 0)
(0.661309 -0.152123 0)
(0.582283 -0.131743 0)
(0.473471 -0.105402 0)
(0.325705 -0.0678016 0)
(0.202865 -0.0288561 0)
(0.119518 -0.0115544 0)
(0.0636018 -0.00652866 0)
(0.0344407 -0.0011549 0)
(0.0205661 0.00876497 0)
(0.0180035 0.0201436 0)
(0.0253627 0.0308898 0)
(0.0407818 0.0387631 0)
(0.0618528 0.0430553 0)
(0.0869348 0.0442498 0)
(0.11505 0.0436724 0)
(0.145369 0.042417 0)
(0.176968 0.0406459 0)
(0.208808 0.0381332 0)
(0.239634 0.0348789 0)
(0.268344 0.0313328 0)
(0.294615 0.0281328 0)
(0.318958 0.0256243 0)
(0.342265 0.0236284 0)
(0.365066 0.021504 0)
(0.387141 0.0186881 0)
(0.407556 0.0149732 0)
(0.425163 0.0107894 0)
(0.439153 0.00665019 0)
(0.449113 0.00329499 0)
(0.455674 0.0007531 0)
(0.458935 -0.000581646 0)
(0.460751 -0.00147841 0)
(0.460372 -0.0013727 0)
(0.878922 -0.0239986 0)
(0.849276 -0.026491 0)
(0.812997 -0.0284135 0)
(0.777091 -0.0307522 0)
(0.730773 -0.0340485 0)
(0.68477 -0.0361839 0)
(0.625837 -0.0422433 0)
(0.564691 -0.04534 0)
(0.489064 -0.0561963 0)
(0.401932 -0.0595225 0)
(0.307117 -0.074375 0)
(0.175044 -0.0799902 0)
(0.0630155 -0.0300173 0)
(-0.00799429 0.0272205 0)
(-0.0400344 0.057749 0)
(-0.0503671 0.0535466 0)
(-0.0526898 0.0209328 0)
(-0.0595709 -0.0126356 0)
(-0.0758182 -0.0270297 0)
(-0.0940158 -0.026928 0)
(-0.104796 -0.0197515 0)
(-0.105764 -0.010824 0)
(-0.0970288 -0.00283634 0)
(-0.0806076 0.00285081 0)
(-0.0590706 0.00607598 0)
(-0.0349163 0.00763855 0)
(-0.00979288 0.00820656 0)
(0.0153228 0.00823696 0)
(0.0397897 0.00795076 0)
(0.0630896 0.00741118 0)
(0.084666 0.00661288 0)
(0.104119 0.00563364 0)
(0.121439 0.00464125 0)
(0.136948 0.00376092 0)
(0.151027 0.0030188 0)
(0.163791 0.00234844 0)
(0.175033 0.00170346 0)
(0.184314 0.00109202 0)
(0.191317 0.000580163 0)
(0.195958 0.000203982 0)
(0.198542 -2.09934e-05 0)
(0.199522 -0.000137089 0)
(0.19943 -0.000181116 0)
(0.198977 -0.000212468 0)
(0.197731 -0.000165438 0)
(0.00475872 -0.030317 0)
(0.00692038 -0.0298281 0)
(-0.00474993 -0.0121457 0)
(-0.0413724 0.0183208 0)
(-0.10675 0.0369649 0)
(-0.177276 0.0399148 0)
(-0.239097 0.0360386 0)
(-0.289659 0.0300148 0)
(-0.324795 0.0228457 0)
(-0.343728 0.0148581 0)
(-0.346219 0.00625235 0)
(-0.332918 -0.0030301 0)
(-0.304546 -0.0118264 0)
(-0.262423 -0.0194912 0)
(-0.209103 -0.0253303 0)
(-0.148581 -0.0280438 0)
(-0.0845331 -0.029163 0)
(-0.0192824 -0.0284626 0)
(0.0441054 -0.026174 0)
(0.10233 -0.0226102 0)
(0.152977 -0.0181781 0)
(0.194486 -0.0133745 0)
(0.226285 -0.00866085 0)
(0.248743 -0.004373 0)
(0.26274 -0.00078997 0)
(0.268861 0.00275268 0)
(0.267877 0.00822477 0)
(0.259845 0.0151398 0)
(0.245823 0.0194459 0)
(0.227975 0.018169 0)
(0.209236 0.0122478 0)
(0.192203 0.00460957 0)
(0.178433 -0.0013967 0)
(0.168513 -0.00428426 0)
(0.162328 -0.00463254 0)
(0.15935 -0.00378442 0)
(0.159008 -0.00287147 0)
(0.16083 -0.00236033 0)
(0.16428 -0.00215575 0)
(0.168795 -0.00203881 0)
(0.173669 -0.00183207 0)
(0.178346 -0.00153763 0)
(0.182445 -0.00117029 0)
(0.185523 -0.000868936 0)
(0.188867 -0.000483524 0)
(-0.00398323 0.020884 0)
(-0.0342082 0.0414006 0)
(-0.0866923 0.0658066 0)
(-0.131314 0.086996 0)
(-0.173471 0.0936578 0)
(-0.20402 0.0872758 0)
(-0.225888 0.0719693 0)
(-0.237075 0.0533211 0)
(-0.237093 0.0310446 0)
(-0.224593 0.0076464 0)
(-0.19997 -0.0168244 0)
(-0.163406 -0.0407659 0)
(-0.114621 -0.0625296 0)
(-0.0556727 -0.0810415 0)
(0.0116031 -0.0942207 0)
(0.0848472 -0.101588 0)
(0.158434 -0.103526 0)
(0.230488 -0.101134 0)
(0.298791 -0.0946606 0)
(0.361164 -0.0843167 0)
(0.41548 -0.0712628 0)
(0.460409 -0.0568695 0)
(0.49555 -0.042367 0)
(0.521192 -0.0288597 0)
(0.537322 -0.0168065 0)
(0.544502 -0.00660191 0)
(0.546272 0.00150144 0)
(0.544884 0.00781908 0)
(0.541408 0.0130871 0)
(0.537076 0.0178915 0)
(0.531845 0.0223771 0)
(0.524464 0.0254204 0)
(0.513764 0.0252237 0)
(0.498692 0.0210043 0)
(0.480202 0.014325 0)
(0.461213 0.00729923 0)
(0.445021 0.00124139 0)
(0.433942 -0.00342484 0)
(0.428442 -0.00651085 0)
(0.427592 -0.00812123 0)
(0.429956 -0.00826497 0)
(0.433666 -0.00764864 0)
(0.438306 -0.00612664 0)
(0.441481 -0.00508548 0)
(0.446398 -0.00306403 0)
(-0.0325458 -0.000776886 0)
(-0.0631822 0.0470998 0)
(-0.0665416 0.0732207 0)
(-0.062751 0.0934765 0)
(-0.0510812 0.0988301 0)
(-0.0337291 0.088311 0)
(-0.0131999 0.0667114 0)
(0.00967674 0.0407008 0)
(0.0374883 0.0116959 0)
(0.073481 -0.0195911 0)
(0.118677 -0.0533912 0)
(0.171701 -0.0876519 0)
(0.23017 -0.119033 0)
(0.29424 -0.14565 0)
(0.360044 -0.164025 0)
(0.425764 -0.17373 0)
(0.489315 -0.175249 0)
(0.548783 -0.169874 0)
(0.602538 -0.158095 0)
(0.649696 -0.140345 0)
(0.689203 -0.117902 0)
(0.720011 -0.0934893 0)
(0.741661 -0.0694579 0)
(0.755023 -0.0461479 0)
(0.761261 -0.0248482 0)
(0.761375 -0.00785293 0)
(0.7562 0.00524287 0)
(0.747106 0.016164 0)
(0.73578 0.0253792 0)
(0.722441 0.030671 0)
(0.708385 0.0301174 0)
(0.696407 0.0267567 0)
(0.687676 0.0256117 0)
(0.680651 0.0281112 0)
(0.671717 0.0311778 0)
(0.657849 0.0304406 0)
(0.639675 0.0243003 0)
(0.620435 0.0144632 0)
(0.603414 0.00442187 0)
(0.590445 -0.00356752 0)
(0.582014 -0.00793395 0)
(0.577135 -0.00993472 0)
(0.575303 -0.0091304 0)
(0.574479 -0.00859142 0)
(0.575577 -0.00570394 0)
(-0.0256103 0.138559 0)
(-0.0152555 0.091932 0)
(0.0084286 0.0831844 0)
(0.0476629 0.0823083 0)
(0.0952792 0.0771336 0)
(0.148376 0.0631466 0)
(0.203686 0.0409417 0)
(0.258088 0.0101974 0)
(0.314062 -0.0268365 0)
(0.372576 -0.0665341 0)
(0.433586 -0.106928 0)
(0.495446 -0.146274 0)
(0.556732 -0.181529 0)
(0.617366 -0.209055 0)
(0.675073 -0.227314 0)
(0.727374 -0.235272 0)
(0.773387 -0.232971 0)
(0.813164 -0.222403 0)
(0.8466 -0.203431 0)
(0.872858 -0.177107 0)
(0.892047 -0.146251 0)
(0.90454 -0.11272 0)
(0.910323 -0.0792744 0)
(0.909821 -0.0488972 0)
(0.904639 -0.022781 0)
(0.896297 -0.000459649 0)
(0.884431 0.0167776 0)
(0.869157 0.0289223 0)
(0.852749 0.037696 0)
(0.836492 0.0434782 0)
(0.819675 0.0448225 0)
(0.802351 0.0417527 0)
(0.78636 0.0379053 0)
(0.773112 0.0373007 0)
(0.76194 0.0399879 0)
(0.750596 0.0423655 0)
(0.736882 0.0407948 0)
(0.720188 0.0339807 0)
(0.701568 0.0240319 0)
(0.683193 0.0134823 0)
(0.666694 0.00523155 0)
(0.653526 -0.0006943 0)
(0.643049 -0.00331794 0)
(0.636889 -0.00493261 0)
(0.63082 -0.00414334 0)
(0.0836892 0.00126285 0)
(0.116929 -0.00598293 0)
(0.204742 -0.00668729 0)
(0.275649 -0.00963052 0)
(0.344626 -0.0158964 0)
(0.418388 -0.0299572 0)
(0.492198 -0.0506413 0)
(0.562089 -0.0768303 0)
(0.630799 -0.10923 0)
(0.696243 -0.145113 0)
(0.757786 -0.181319 0)
(0.814704 -0.21548 0)
(0.864554 -0.245323 0)
(0.906012 -0.266406 0)
(0.939072 -0.276596 0)
(0.963158 -0.277476 0)
(0.978194 -0.268227 0)
(0.98546 -0.250263 0)
(0.988499 -0.225305 0)
(0.987074 -0.192462 0)
(0.980559 -0.154357 0)
(0.970524 -0.114865 0)
(0.958244 -0.0765497 0)
(0.94369 -0.0420482 0)
(0.928039 -0.0123329 0)
(0.912932 0.0116945 0)
(0.897352 0.0298211 0)
(0.880838 0.0439451 0)
(0.863809 0.0556837 0)
(0.846788 0.0639759 0)
(0.830161 0.0662772 0)
(0.814172 0.0621441 0)
(0.798983 0.0553591 0)
(0.785063 0.0510403 0)
(0.772708 0.0513044 0)
(0.761152 0.0535581 0)
(0.748986 0.0537878 0)
(0.735265 0.0495545 0)
(0.719907 0.0416138 0)
(0.703963 0.031694 0)
(0.688331 0.0221195 0)
(0.675064 0.0138856 0)
(0.663346 0.00768725 0)
(0.656385 0.00374909 0)
(0.648274 0.000658532 0)
)
;

boundaryField
{
    inlet
    {
        type            fixedValue;
        value           uniform (1 0 0);
    }
    outlet
    {
        type            zeroGradient;
    }
    upperWall
    {
        type            noSlip;
    }
    lowerWall
    {
        type            noSlip;
    }
    frontAndBack
    {
        type            empty;
    }
}


// ************************************************************************* //
