/*--------------------------------*- C++ -*----------------------------------*\
  =========                 |
  \\      /  F ield         | OpenFOAM: The Open Source CFD Toolbox
   \\    /   O peration     | Website:  https://openfoam.org
    \\  /    A nd           | Version:  10
     \\/     M anipulation  |
\*---------------------------------------------------------------------------*/
FoamFile
{
    format      ascii;
    class       surfaceScalarField;
    location    "8.15";
    object      phi;
}
// * * * * * * * * * * * * * * * * * * * * * * * * * * * * * * * * * * * * * //

dimensions      [0 3 -1 0 0 0 0];

internalField   nonuniform List<scalar> 
760
(
-1.22789e-05
1.2279e-05
-3.95803e-05
2.73013e-05
-7.24002e-05
3.28199e-05
-0.000106933
3.45324e-05
-0.000141973
3.50402e-05
-0.000177156
3.5183e-05
-0.00021212
3.4964e-05
-0.000246194
3.40739e-05
-0.00027826
3.20666e-05
-0.000306654
2.83937e-05
-0.00032909
2.24363e-05
-0.000342659
1.35688e-05
-0.000343963
1.30388e-06
-0.000329422
-1.45415e-05
-0.000296234
-3.31871e-05
-0.000243595
-5.26392e-05
-0.000174553
-6.90421e-05
-9.79925e-05
-7.65607e-05
-3.014e-05
-6.78525e-05
-3.014e-05
-2.92983e-05
4.15773e-05
-8.26696e-05
8.06727e-05
-0.000144923
9.50728e-05
-0.000209761
9.93709e-05
-0.000274752
0.000100031
-0.000338742
9.91728e-05
-0.000400669
9.68907e-05
-0.000459094
9.2499e-05
-0.000511983
8.49559e-05
-0.000556565
7.29755e-05
-0.000589252
5.51236e-05
-0.000605595
2.99112e-05
-0.000601045
-3.24542e-06
-0.000570293
-4.52933e-05
-0.000509717
-9.37635e-05
-0.000418616
-0.00014374
-0.00030195
-0.000185707
-0.000173585
-0.000204926
-5.83982e-05
-0.000183039
-8.85381e-05
-3.70353e-05
7.86126e-05
-0.000102542
0.000146179
-0.000178118
0.000170649
-0.000256256
0.000177508
-0.000334089
0.000177865
-0.000410246
0.000175329
-0.000483499
0.000170144
-0.000552265
0.000161265
-0.000614357
0.000147048
-0.000666796
0.000125415
-0.000705679
9.40065e-05
-0.000726264
5.04956e-05
-0.000722623
-6.88559e-06
-0.000688406
-7.9511e-05
-0.000618299
-0.00016387
-0.000510096
-0.000251944
-0.000368585
-0.000327218
-0.000210695
-0.000362817
-6.91124e-05
-0.000324622
-0.000157651
-3.99978e-05
0.00011861
-0.000110793
0.000216974
-0.000192227
0.000252083
-0.000276279
0.000261561
-0.000360077
0.000261663
-0.000442389
0.000257642
-0.000522195
0.00024995
-0.00059816
0.00023723
-0.000668356
0.000217244
-0.000730001
0.00018706
-0.000779145
0.000143151
-0.000810382
8.17322e-05
-0.000817327
5.96771e-08
-0.000790487
-0.000106352
-0.000721305
-0.000233052
-0.000603354
-0.000369894
-0.000438628
-0.000491944
-0.000247505
-0.000553939
-7.58782e-05
-0.000496249
-0.000233529
-4.08519e-05
0.000159462
-0.000113961
0.000290083
-0.00019825
0.000336372
-0.000285493
0.000348803
-0.000372996
0.000349166
-0.000459881
0.000344527
-0.000545587
0.000335656
-0.000629322
0.000320964
-0.000709743
0.000297666
-0.000784598
0.000261914
-0.000850217
0.00020877
-0.000900864
0.000132379
-0.000927827
2.70234e-05
-0.000919936
-0.000114243
-0.00086182
-0.000291167
-0.000739264
-0.000492451
-0.000546612
-0.000684596
-0.000304637
-0.000795914
-8.45766e-05
-0.000716309
-0.000318105
-4.08881e-05
0.00020035
-0.000115162
0.000364357
-0.000201224
0.000422435
-0.00029074
0.000438319
-0.000381286
0.000439712
-0.000472475
0.000435716
-0.000564407
0.000427588
-0.000657117
0.000413674
-0.000750226
0.000390775
-0.000842486
0.000354175
-0.000931073
0.000297356
-0.00101049
0.000211801
-0.001071
8.7531e-05
-0.0010982
-8.70464e-05
-0.00106889
-0.000320477
-0.000955199
-0.000606141
-0.000732419
-0.000907377
-0.00040943
-0.0011189
-0.000102938
-0.0010228
-0.000421043
-4.05646e-05
0.000240915
-0.000115525
0.000439317
-0.000202878
0.000509788
-0.000294177
0.000529619
-0.000387296
0.00053283
-0.000482439
0.000530859
-0.000580554
0.000525704
-0.000682803
0.000515923
-0.000790256
0.000498227
-0.000903411
0.00046733
-0.00102136
0.000415305
-0.00114036
0.000330803
-0.00125143
0.000198603
-0.00134116
2.68509e-06
-0.00137572
-0.000285926
-0.00130731
-0.000674552
-0.00106718
-0.0011475
-0.000620466
-0.00156562
-0.000155531
-0.00148774
-0.000576574
-3.99914e-05
0.000280906
-0.00011533
0.000514655
-0.000203544
0.000598002
-0.000295993
0.000622067
-0.000390832
0.000627669
-0.000488898
0.000628926
-0.000592123
0.000628928
-0.000703097
0.000626897
-0.000824893
0.000620023
-0.000960777
0.000603214
-0.00111356
0.000568087
-0.00128429
0.000501534
-0.00147009
0.0003844
-0.00165777
0.00019037
-0.00182121
-0.000122483
-0.00187026
-0.000625504
-0.00164743
-0.00137033
-0.00103297
-0.00218008
-0.000303961
-0.00221674
-0.000880535
-3.92249e-05
0.000320131
-0.000114687
0.000590118
-0.000203228
0.000686543
-0.000295867
0.000714706
-0.00039097
0.000722773
-0.000489981
0.000727937
-0.000595833
0.00073478
-0.000712677
0.000743741
-0.000846023
0.000753369
-0.00100292
0.000760112
-0.00119197
0.000757131
-0.00142311
0.000732681
-0.00170704
0.00066833
-0.00204786
0.000531188
-0.00241338
0.000243036
-0.00265972
-0.000379169
-0.0024829
-0.00154714
-0.00170087
-0.00296212
-0.000647075
-0.00327054
-0.00152761
-3.84318e-05
0.000358563
-0.000113907
0.000665593
-0.000202174
0.00077481
-0.000293717
0.000806248
-0.00038699
0.000816045
-0.00048392
0.000824867
-0.000588301
0.000839162
-0.000705713
0.000861153
-0.000844083
0.000891739
-0.00101468
0.000930708
-0.00123368
0.000976132
-0.00152433
0.00102333
-0.00191727
0.00106127
-0.00243541
0.00104933
-0.00302152
0.000829146
-0.00343375
3.30524e-05
-0.00331266
-0.00166822
-0.00251028
-0.0037645
-0.00123869
-0.00454212
-0.0027663
-3.80042e-05
0.000396567
-0.000113753
0.000741342
-0.000201231
0.000862288
-0.000290189
0.000895206
-0.000378997
0.000904854
-0.000469863
0.000915732
-0.000567069
0.000936368
-0.000677045
0.000971129
-0.00080936
0.00102405
-0.000978579
0.00109993
-0.00120741
0.00120496
-0.0015305
0.00134642
-0.00199091
0.00152168
-0.00260568
0.00166411
-0.00327233
0.0014958
-0.0037095
0.000470221
-0.0036572
-0.00172052
-0.00307462
-0.00434709
-0.00183761
-0.00577913
-0.00460392
-3.8753e-05
0.00043532
-0.00011578
0.000818369
-0.000202212
0.000948721
-0.000286992
0.000979985
-0.0003684
0.000986263
-0.000448667
0.000995998
-0.000531985
0.00101969
-0.000624551
0.00106369
-0.000735708
0.00113521
-0.000879924
0.00124414
-0.00107973
0.00140477
-0.00136741
0.0016341
-0.00177585
0.00193012
-0.00229263
0.00218088
-0.00280782
0.00201099
-0.00312756
0.000789967
-0.00316853
-0.00167955
-0.00289087
-0.00462475
-0.00191266
-0.00675733
-0.00651658
-4.17717e-05
0.000477092
-0.000122099
0.000898697
-0.000207896
0.00103452
-0.000287322
0.00105941
-0.000358494
0.00105743
-0.000423482
0.00106099
-0.000485873
0.00108208
-0.00055013
0.00112795
-0.000622596
0.00120768
-0.000712533
0.00133408
-0.000833146
0.00152538
-0.000998733
0.00179969
-0.0012186
0.00214999
-0.00146591
0.0024282
-0.00169571
0.00224079
-0.00184345
0.000937705
-0.00196203
-0.00156097
-0.00202156
-0.00456523
-0.00151345
-0.00726544
-0.00803003
-5.0752e-05
0.000527844
-0.000138537
0.000986482
-0.000223511
0.00111949
-0.000294914
0.00113081
-0.000352692
0.00111521
-0.000398989
0.00110728
-0.000435609
0.0011187
-0.000464489
0.00115683
-0.000487457
0.00123065
-0.000505914
0.00135254
-0.000520386
0.00153985
-0.000524285
0.00180359
-0.000508651
0.00213435
-0.000457433
0.00237698
-0.000406255
0.00218961
-0.000419554
0.000951004
-0.000608025
-0.0013725
-0.00102271
-0.00415054
-0.00101336
-0.00727479
-0.00904339
-6.227e-05
0.000590114
-0.000161369
0.00108558
-0.000250222
0.00120834
-0.00031845
0.00119904
-0.000363729
0.00116049
-0.000389082
0.00113264
-0.000396448
0.00112606
-0.000385923
0.00114631
-0.000355356
0.00120008
-0.000299109
0.00129629
-0.000207095
0.00144784
-6.00319e-05
0.00165652
0.000161233
0.00191309
0.000447202
0.00209101
0.000719654
0.00191716
0.000773727
0.000896932
0.000469316
-0.00106809
-0.000252504
-0.00342872
-0.000612816
-0.00691448
-0.00965621
-0.000129899
0.000720013
-0.000243478
0.00119916
-0.000317008
0.00128187
-0.000358766
0.0012408
-0.000378695
0.00118042
-0.000380162
0.0011341
-0.000361542
0.00110744
-0.000318377
0.00110314
-0.000244065
0.00112577
-0.000128349
0.00118057
4.42289e-05
0.00127526
0.000288925
0.00141183
0.000627197
0.00157482
0.00104296
0.00167525
0.00142395
0.00153616
0.00152817
0.000792711
0.0011655
-0.000705419
0.000303345
-0.00256657
-0.000271593
-0.00633954
-0.0099278
-8.39492e-05
0.000803962
-0.000262826
0.00137804
-0.000376396
0.00139544
-0.000432198
0.0012966
-0.000446431
0.00119465
-0.000429291
0.00111696
-0.000383263
0.00106142
-0.000305591
0.00102547
-0.000190192
0.00101037
-2.52375e-05
0.00101562
0.00020147
0.00104855
0.000507242
0.00110606
0.00089996
0.0011821
0.00135925
0.00121596
0.00177604
0.00111937
0.00190331
0.000665443
0.00153028
-0.000332385
0.000707567
-0.00174386
0.000114297
-0.00574627
-0.0098135
-0.000379607
0.00118357
-0.000438618
0.00143705
-0.000489055
0.00144588
-0.000528362
0.00133591
-0.000520449
0.00118674
-0.000471297
0.00106781
-0.00038462
0.000974739
-0.000258647
0.000899495
-9.37631e-05
0.000845485
0.000117616
0.000804239
0.000380587
0.000785581
0.00070742
0.000779222
0.00109512
0.000794403
0.00151462
0.000796452
0.00190581
0.000728186
0.00207959
0.000491662
0.00197025
-0.000223044
0.00155658
-0.00133018
0.000866523
-0.00505622
-0.00894698
-0.0013626
0.00254617
-0.00132597
0.00140042
-0.0010678
0.00118771
-0.000697542
0.000965647
-0.000306775
0.000795974
8.82931e-05
0.000672745
0.000476437
0.000586595
0.000856854
0.000519078
0.0012318
0.000470539
0.00160627
0.000429772
0.00198824
0.00040361
0.00238463
0.000382834
0.0028119
0.000367133
0.00326146
0.000346886
0.00371685
0.000272798
0.00406765
0.000140866
0.00416016
-0.000315554
0.00398871
-0.00115873
0.00252605
-0.00359356
-0.00642093
0.00254617
0.00394659
0.0051343
0.00609995
0.00689592
0.00756867
0.00815526
0.00867434
0.00914488
0.00957465
0.00997826
0.0103611
0.0107282
0.0110751
0.0113479
0.0114888
0.0111732
0.0100145
0.00642093
)
;

boundaryField
{
    movingWall
    {
        type            calculated;
        value           uniform 0;
    }
    fixedWalls
    {
        type            calculated;
        value           uniform 0;
    }
    frontAndBack
    {
        type            empty;
        value           nonuniform List<scalar> 0();
    }
}


// ************************************************************************* //
