/*--------------------------------*- C++ -*----------------------------------*\
  =========                 |
  \\      /  F ield         | OpenFOAM: The Open Source CFD Toolbox
   \\    /   O peration     | Website:  https://openfoam.org
    \\  /    A nd           | Version:  10
     \\/     M anipulation  |
\*---------------------------------------------------------------------------*/
FoamFile
{
    format      ascii;
    class       volVectorField;
    location    "8.15";
    object      U;
}
// * * * * * * * * * * * * * * * * * * * * * * * * * * * * * * * * * * * * * //

dimensions      [0 1 -1 0 0 0 0];

internalField   nonuniform List<vector> 
400
(
(-0.000151162 0.000134807 0)
(-0.00113019 0.000421622 0)
(-0.00278438 0.000525952 0)
(-0.00447794 0.000559396 0)
(-0.00622487 0.00057569 0)
(-0.00798609 0.000591792 0)
(-0.00974587 0.000606893 0)
(-0.0114805 0.000613919 0)
(-0.0131459 0.000603117 0)
(-0.0146736 0.000562394 0)
(-0.0159658 0.000477649 0)
(-0.0168923 0.000334356 0)
(-0.017294 0.000121556 0)
(-0.0169916 -0.000172581 0)
(-0.015816 -0.000534047 0)
(-0.0136611 -0.000923423 0)
(-0.0105673 -0.00125944 0)
(-0.00686579 -0.0014188 0)
(-0.00281588 -0.00124509 0)
(-0.000351159 -0.000470998 0)
(-0.00048434 0.00115059 0)
(-0.00252969 0.00239573 0)
(-0.00566222 0.00285699 0)
(-0.00886386 0.00300034 0)
(-0.0121277 0.00303679 0)
(-0.0153664 0.00303508 0)
(-0.0185287 0.00299645 0)
(-0.0215561 0.00289642 0)
(-0.0243629 0.00269903 0)
(-0.0268297 0.00236028 0)
(-0.0287976 0.00183114 0)
(-0.0300651 0.00106234 0)
(-0.0304047 1.358e-05 0)
(-0.0295614 -0.00131817 0)
(-0.0272982 -0.00286829 0)
(-0.0234834 -0.00447138 0)
(-0.0182062 -0.00581503 0)
(-0.0119724 -0.00642692 0)
(-0.00520876 -0.00571708 0)
(-0.000853159 -0.00265765 0)
(-0.000631199 0.00297032 0)
(-0.00317264 0.00560777 0)
(-0.00698913 0.00657402 0)
(-0.0108607 0.00685512 0)
(-0.0147819 0.00688341 0)
(-0.018649 0.00680038 0)
(-0.0224014 0.00661412 0)
(-0.0259735 0.00628113 0)
(-0.0292723 0.00573425 0)
(-0.0321691 0.0048902 0)
(-0.0344932 0.00365622 0)
(-0.0360283 0.00194148 0)
(-0.0365054 -0.000322494 0)
(-0.0356105 -0.00314614 0)
(-0.0330364 -0.00640196 0)
(-0.0285641 -0.00976303 0)
(-0.0222277 -0.0125962 0)
(-0.0146107 -0.0138986 0)
(-0.00623872 -0.0124303 0)
(-0.000945831 -0.00607997 0)
(-0.000678907 0.00491371 0)
(-0.00342824 0.00904419 0)
(-0.00754944 0.0105277 0)
(-0.0117146 0.0109343 0)
(-0.0159326 0.0109433 0)
(-0.0201015 0.0107744 0)
(-0.0241701 0.0104443 0)
(-0.0280846 0.00989209 0)
(-0.0317654 0.00902033 0)
(-0.0350958 0.00770416 0)
(-0.0379085 0.00579833 0)
(-0.0399732 0.00315398 0)
(-0.0409971 -0.000350106 0)
(-0.040578 -0.00474996 0)
(-0.0382497 -0.00992366 0)
(-0.0335954 -0.0153929 0)
(-0.0264413 -0.0201455 0)
(-0.0173895 -0.0224484 0)
(-0.00708489 -0.0200953 0)
(-0.000840815 -0.00965443 0)
(-0.000683028 0.00694211 0)
(-0.00351217 0.012652 0)
(-0.00777778 0.0146799 0)
(-0.0120916 0.0152235 0)
(-0.0164796 0.0152297 0)
(-0.0208516 0.0150041 0)
(-0.0251773 0.0145757 0)
(-0.0294287 0.0138692 0)
(-0.0335555 0.0127579 0)
(-0.0374706 0.0110716 0)
(-0.0410282 0.0085997 0)
(-0.0439982 0.00510414 0)
(-0.0460267 0.000359265 0)
(-0.0466231 -0.00576143 0)
(-0.0451128 -0.0132156 0)
(-0.040705 -0.0214299 0)
(-0.0327955 -0.0289469 0)
(-0.0217739 -0.0329604 0)
(-0.00832884 -0.0295576 0)
(-0.000564548 -0.013579 0)
(-0.000670392 0.0089892 0)
(-0.00352899 0.0163415 0)
(-0.00787849 0.0189433 0)
(-0.0122906 0.0196462 0)
(-0.0168077 0.019683 0)
(-0.0213574 0.0194554 0)
(-0.0259388 0.0190116 0)
(-0.0305617 0.0182681 0)
(-0.0352213 0.0170725 0)
(-0.0398823 0.0152084 0)
(-0.0444492 0.0123881 0)
(-0.0487191 0.0082537 0)
(-0.0523217 0.00241317 0)
(-0.05468 -0.00548538 0)
(-0.0548631 -0.0156267 0)
(-0.0515594 -0.0274904 0)
(-0.0433304 -0.0392313 0)
(-0.0296511 -0.0465321 0)
(-0.0107992 -0.042016 0)
(-9.60871e-05 -0.0180325 0)
(-0.000649761 0.0110264 0)
(-0.00351678 0.0200731 0)
(-0.00792506 0.0232795 0)
(-0.0124108 0.0241677 0)
(-0.0170322 0.0242756 0)
(-0.0217371 0.0241136 0)
(-0.0265615 0.0237603 0)
(-0.0315642 0.0231347 0)
(-0.0368049 0.0220695 0)
(-0.0423301 0.0203087 0)
(-0.0481403 0.0174845 0)
(-0.0541274 0.0130922 0)
(-0.0599902 0.00648715 0)
(-0.0652005 -0.00304313 0)
(-0.0686432 -0.0160055 0)
(-0.068365 -0.032516 0)
(-0.0614275 -0.0508255 0)
(-0.0446052 -0.0648803 0)
(-0.0167733 -0.0598762 0)
(0.00029845 -0.0238787 0)
(-0.000622714 0.0130405 0)
(-0.00348533 0.0238303 0)
(-0.00793504 0.0276695 0)
(-0.0124677 0.0287641 0)
(-0.0171554 0.028979 0)
(-0.0219671 0.0289493 0)
(-0.0269788 0.0287987 0)
(-0.0323087 0.0284671 0)
(-0.0381009 0.0277954 0)
(-0.0445195 0.0265136 0)
(-0.0517279 0.0241972 0)
(-0.059839 0.0202094 0)
(-0.0688185 0.0136479 0)
(-0.0783092 0.00335088 0)
(-0.0875349 -0.0119868 0)
(-0.094014 -0.0338375 0)
(-0.0916978 -0.0624046 0)
(-0.0714181 -0.0901703 0)
(-0.0311569 -0.0877091 0)
(-0.000740375 -0.0338192 0)
(-0.000590252 0.0150203 0)
(-0.00343959 0.0275998 0)
(-0.00791373 0.0320903 0)
(-0.0124558 0.0333972 0)
(-0.0171492 0.033738 0)
(-0.0219812 0.0338908 0)
(-0.0270665 0.0340432 0)
(-0.0325853 0.0341807 0)
(-0.0387774 0.0341877 0)
(-0.0459565 0.0338329 0)
(-0.0545161 0.0327096 0)
(-0.0649224 0.0301495 0)
(-0.0776979 0.0251288 0)
(-0.0933716 0.0161013 0)
(-0.111863 0.00033456 0)
(-0.129675 -0.027079 0)
(-0.134878 -0.0718864 0)
(-0.110174 -0.12451 0)
(-0.0598484 -0.131685 0)
(-0.0069497 -0.054249 0)
(-0.000556399 0.0169593 0)
(-0.00339279 0.0313714 0)
(-0.00787817 0.0365134 0)
(-0.0123819 0.0380115 0)
(-0.0169968 0.0384649 0)
(-0.0217216 0.0388156 0)
(-0.0267024 0.0393351 0)
(-0.0321729 0.0400834 0)
(-0.0384616 0.0410352 0)
(-0.0460342 0.0420759 0)
(-0.0555535 0.042949 0)
(-0.0679653 0.0431796 0)
(-0.0846341 0.0419569 0)
(-0.10742 0.0375318 0)
(-0.137108 0.0245603 0)
(-0.16705 -0.0095915 0)
(-0.177007 -0.0800634 0)
(-0.149418 -0.167625 0)
(-0.101862 -0.191645 0)
(-0.0232342 -0.0962193 0)
(-0.00053093 0.0188642 0)
(-0.00337553 0.0351456 0)
(-0.00787269 0.0409061 0)
(-0.0122863 0.0425321 0)
(-0.01672 0.0430366 0)
(-0.0211743 0.0435442 0)
(-0.025811 0.0444263 0)
(-0.0308932 0.0458427 0)
(-0.0368017 0.0479065 0)
(-0.0441057 0.0507108 0)
(-0.0536748 0.0543244 0)
(-0.0668387 0.0587659 0)
(-0.0856279 0.0637317 0)
(-0.112905 0.0668156 0)
(-0.148892 0.057403 0)
(-0.182986 0.012472 0)
(-0.191543 -0.0882385 0)
(-0.168658 -0.209016 0)
(-0.135977 -0.259378 0)
(-0.043456 -0.176094 0)
(-0.000534621 0.0207732 0)
(-0.00345022 0.038966 0)
(-0.0079874 0.0452781 0)
(-0.0122609 0.0469176 0)
(-0.0164011 0.0473447 0)
(-0.0204006 0.047887 0)
(-0.024418 0.049025 0)
(-0.0287052 0.0510289 0)
(-0.0336248 0.0541813 0)
(-0.0397275 0.0588523 0)
(-0.0478758 0.0655651 0)
(-0.059385 0.07497 0)
(-0.0760283 0.0870371 0)
(-0.100096 0.0972961 0)
(-0.130347 0.0888254 0)
(-0.156591 0.0317722 0)
(-0.161799 -0.0895426 0)
(-0.149101 -0.233904 0)
(-0.135057 -0.324442 0)
(-0.0494454 -0.2859 0)
(-0.000598194 0.022738 0)
(-0.00369863 0.0428026 0)
(-0.00834905 0.0494629 0)
(-0.0124599 0.0509092 0)
(-0.0162089 0.0510865 0)
(-0.0195699 0.0514952 0)
(-0.0226878 0.0526874 0)
(-0.0257592 0.0550248 0)
(-0.0290333 0.058928 0)
(-0.032872 0.064992 0)
(-0.0378155 0.0740851 0)
(-0.0445743 0.087177 0)
(-0.0538377 0.104032 0)
(-0.0664928 0.11787 0)
(-0.0816166 0.108565 0)
(-0.0932594 0.0442674 0)
(-0.0965021 -0.0832113 0)
(-0.0940903 -0.23738 0)
(-0.104638 -0.362535 0)
(-0.039268 -0.375893 0)
(-0.000822918 0.025072 0)
(-0.00439218 0.0472586 0)
(-0.00925832 0.0541985 0)
(-0.0131036 0.0552505 0)
(-0.0163101 0.0548229 0)
(-0.0188773 0.0546764 0)
(-0.0209045 0.0554596 0)
(-0.0224862 0.0575935 0)
(-0.0237102 0.0615553 0)
(-0.0246522 0.0680083 0)
(-0.0254009 0.077898 0)
(-0.0257969 0.0920452 0)
(-0.025561 0.109989 0)
(-0.0242035 0.123917 0)
(-0.0230253 0.114592 0)
(-0.0201164 0.0496082 0)
(-0.0246849 -0.0728317 0)
(-0.0323973 -0.220134 0)
(-0.0704974 -0.367966 0)
(-0.0244005 -0.434099 0)
(-0.00117149 0.0279346 0)
(-0.00523468 0.050991 0)
(-0.0106329 0.0572175 0)
(-0.0144539 0.0571817 0)
(-0.017276 0.0560686 0)
(-0.0189982 0.0554909 0)
(-0.0197836 0.0559339 0)
(-0.019689 0.0576934 0)
(-0.018668 0.0611771 0)
(-0.0165199 0.0669607 0)
(-0.0130017 0.0758502 0)
(-0.00716756 0.0882045 0)
(0.00153434 0.103577 0)
(0.0150139 0.114904 0)
(0.0281847 0.106184 0)
(0.0413533 0.0481594 0)
(0.0326568 -0.0606136 0)
(0.0175953 -0.188896 0)
(-0.0449705 -0.354842 0)
(-0.0108735 -0.473468 0)
(-0.00325177 0.030357 0)
(-0.00967239 0.0584159 0)
(-0.0144033 0.0645473 0)
(-0.0171822 0.0639117 0)
(-0.018655 0.0611017 0)
(-0.0191783 0.0587535 0)
(-0.0187578 0.0574752 0)
(-0.0172524 0.0575689 0)
(-0.0143976 0.0593334 0)
(-0.00972542 0.063132 0)
(-0.00290192 0.0694812 0)
(0.00749276 0.0784542 0)
(0.0217242 0.0893226 0)
(0.0416865 0.0966924 0)
(0.0605026 0.0891967 0)
(0.0794369 0.0446364 0)
(0.0690207 -0.0427234 0)
(0.0527758 -0.148064 0)
(-0.0257493 -0.331254 0)
(0.00291589 -0.495653 0)
(-0.00098879 0.0438995 0)
(-0.00787838 0.0601088 0)
(-0.0176279 0.0620909 0)
(-0.0204919 0.0580599 0)
(-0.0223886 0.0549649 0)
(-0.0221879 0.0529203 0)
(-0.0206175 0.051833 0)
(-0.0175693 0.0516102 0)
(-0.0128496 0.0524011 0)
(-0.00595116 0.0543692 0)
(0.00353011 0.0579343 0)
(0.0169274 0.0631165 0)
(0.0338535 0.069086 0)
(0.0568718 0.0723127 0)
(0.0767407 0.0659809 0)
(0.0991462 0.0358362 0)
(0.086582 -0.0268984 0)
(0.0718184 -0.107534 0)
(-0.00727225 -0.305557 0)
(0.0223185 -0.504356 0)
(-0.0125499 0.0322905 0)
(-0.02345 0.0802303 0)
(-0.0217413 0.0800477 0)
(-0.0264887 0.0750327 0)
(-0.0268437 0.0676451 0)
(-0.0253915 0.0615394 0)
(-0.0218758 0.0566451 0)
(-0.0164995 0.0528876 0)
(-0.00930979 0.0502765 0)
(0.000106375 0.0486315 0)
(0.0117308 0.0482349 0)
(0.0266972 0.0487991 0)
(0.0437421 0.0506283 0)
(0.0663003 0.0509811 0)
(0.0828177 0.048122 0)
(0.106521 0.0326727 0)
(0.0965548 -0.00482101 0)
(0.104402 -0.0673056 0)
(0.0408276 -0.275802 0)
(0.0584534 -0.491529 0)
(-0.0776119 0.0959997 0)
(-0.0632627 0.058841 0)
(-0.0654398 0.0599301 0)
(-0.043177 0.0532844 0)
(-0.0256088 0.0463288 0)
(-0.00519001 0.0411694 0)
(0.014083 0.0374107 0)
(0.0337087 0.0342156 0)
(0.051912 0.0319047 0)
(0.0716694 0.0297908 0)
(0.0889176 0.0286212 0)
(0.11092 0.0276284 0)
(0.126595 0.0271409 0)
(0.155977 0.0264948 0)
(0.166287 0.0215605 0)
(0.203515 0.0129027 0)
(0.193601 -0.0207469 0)
(0.224885 -0.0750634 0)
(0.15507 -0.252397 0)
(0.125338 -0.43409 0)
(0.119426 0.140792 0)
(0.152091 0.0861262 0)
(0.228557 0.0635383 0)
(0.284011 0.0480722 0)
(0.325405 0.0374277 0)
(0.363693 0.0296496 0)
(0.392364 0.0242147 0)
(0.423583 0.0201825 0)
(0.443466 0.0172479 0)
(0.472047 0.0149826 0)
(0.484801 0.0132664 0)
(0.514276 0.0119781 0)
(0.51969 0.0108787 0)
(0.552318 0.00976619 0)
(0.547496 0.00781011 0)
(0.580234 0.00344192 0)
(0.549343 -0.00585197 0)
(0.554938 -0.0273017 0)
(0.420846 -0.0733894 0)
(0.275427 -0.152215 0)
)
;

boundaryField
{
    movingWall
    {
        type            fixedValue;
        value           uniform (1 0 0);
    }
    fixedWalls
    {
        type            noSlip;
    }
    frontAndBack
    {
        type            empty;
    }
}


// ************************************************************************* //
