/*--------------------------------*- C++ -*----------------------------------*\
  =========                 |
  \\      /  F ield         | OpenFOAM: The Open Source CFD Toolbox
   \\    /   O peration     | Website:  https://openfoam.org
    \\  /    A nd           | Version:  10
     \\/     M anipulation  |
\*---------------------------------------------------------------------------*/
FoamFile
{
    format      ascii;
    class       volVectorField;
    location    "8.975";
    object      U;
}
// * * * * * * * * * * * * * * * * * * * * * * * * * * * * * * * * * * * * * //

dimensions      [0 1 -1 0 0 0 0];

internalField   nonuniform List<vector> 
400
(
(-0.00016494 0.000143818 0)
(-0.00123433 0.000456352 0)
(-0.00304427 0.000570187 0)
(-0.00490629 0.000609098 0)
(-0.00684182 0.000631606 0)
(-0.00881331 0.000656411 0)
(-0.0108091 0.000682731 0)
(-0.0128074 0.000702447 0)
(-0.0147607 0.000703724 0)
(-0.0165893 0.000670873 0)
(-0.0181738 0.0005846 0)
(-0.0193489 0.000424164 0)
(-0.0199064 0.000172941 0)
(-0.0196052 -0.000188133 0)
(-0.0182169 -0.000638167 0)
(-0.0156062 -0.00111841 0)
(-0.0118608 -0.00150949 0)
(-0.00745484 -0.00164502 0)
(-0.00282125 -0.00135055 0)
(-0.000233837 -0.000411068 0)
(-0.000537164 0.00126055 0)
(-0.00279426 0.00262599 0)
(-0.00625556 0.00314108 0)
(-0.00981742 0.00332042 0)
(-0.0134807 0.00339206 0)
(-0.0171564 0.00343049 0)
(-0.0207943 0.00343568 0)
(-0.0243329 0.00337689 0)
(-0.0276738 0.00320752 0)
(-0.0306726 0.00286786 0)
(-0.0331286 0.00228868 0)
(-0.0347794 0.00139799 0)
(-0.0353233 0.000134974 0)
(-0.0344137 -0.0015094 0)
(-0.031726 -0.00344366 0)
(-0.0270931 -0.00542219 0)
(-0.020677 -0.00698944 0)
(-0.0132017 -0.00750997 0)
(-0.00538591 -0.0063253 0)
(-0.000725102 -0.00259937 0)
(-0.000705429 0.00327969 0)
(-0.00352725 0.00618553 0)
(-0.0077692 0.00727789 0)
(-0.0121038 0.00764431 0)
(-0.0165335 0.00775096 0)
(-0.0209502 0.00775024 0)
(-0.0252937 0.00764684 0)
(-0.0294937 0.00738353 0)
(-0.0334431 0.00687066 0)
(-0.0369855 0.00599331 0)
(-0.0399045 0.00461879 0)
(-0.0419172 0.00261225 0)
(-0.0426647 -0.000134533 0)
(-0.0417203 -0.00362875 0)
(-0.0386572 -0.007706 0)
(-0.0331753 -0.0118784 0)
(-0.025358 -0.0152176 0)
(-0.0160612 -0.0163429 0)
(-0.00628908 -0.013823 0)
(-0.000707772 -0.00602782 0)
(-0.000761474 0.00544835 0)
(-0.00382056 0.0100118 0)
(-0.00840915 0.0116986 0)
(-0.013081 0.0122403 0)
(-0.017854 0.0123705 0)
(-0.0226229 0.0123263 0)
(-0.0273391 0.01212 0)
(-0.0319488 0.0116705 0)
(-0.0363643 0.0108475 0)
(-0.0404486 0.00947925 0)
(-0.0439952 0.00735925 0)
(-0.0467097 0.00426782 0)
(-0.0481894 2.0923e-05 0)
(-0.0478986 -0.00545202 0)
(-0.0451913 -0.0119803 0)
(-0.039451 -0.0188583 0)
(-0.0304396 -0.0245778 0)
(-0.0190322 -0.0266457 0)
(-0.00674094 -0.0223323 0)
(-0.000347836 -0.00936439 0)
(-0.000763453 0.00771025 0)
(-0.00389926 0.0140243 0)
(-0.00863096 0.0163361 0)
(-0.0134531 0.0170677 0)
(-0.0184019 0.0172426 0)
(-0.023388 0.0171925 0)
(-0.0283899 0.0169428 0)
(-0.0333888 0.0163943 0)
(-0.0383391 0.0153786 0)
(-0.0431496 0.0136646 0)
(-0.0476527 0.010957 0)
(-0.0515616 0.00691055 0)
(-0.0544218 0.0011871 0)
(-0.0555734 -0.00643879 0)
(-0.0540637 -0.0159248 0)
(-0.0487203 -0.0264507 0)
(-0.038566 -0.0358199 0)
(-0.0240361 -0.0397539 0)
(-0.00739805 -0.0328658 0)
(0.000350597 -0.0126672 0)
(-0.00074113 0.00997697 0)
(-0.00387873 0.0181002 0)
(-0.00866058 0.0210688 0)
(-0.0135521 0.022017 0)
(-0.0186072 0.0222777 0)
(-0.0237594 0.0222901 0)
(-0.0290257 0.0221034 0)
(-0.0344379 0.0216102 0)
(-0.0400151 0.0206126 0)
(-0.0457442 0.0188225 0)
(-0.0515412 0.0158453 0)
(-0.0571832 0.0111723 0)
(-0.0622254 0.00421469 0)
(-0.0659421 -0.00558791 0)
(-0.0670626 -0.0185213 0)
(-0.0635755 -0.0340321 0)
(-0.0529318 -0.0493964 0)
(-0.0338766 -0.0575222 0)
(-0.00948255 -0.0469992 0)
(0.00139538 -0.0159185 0)
(-0.000705424 0.0122032 0)
(-0.00380535 0.0221745 0)
(-0.00858721 0.0258311 0)
(-0.0134994 0.0270267 0)
(-0.0186108 0.0274229 0)
(-0.0238811 0.0275814 0)
(-0.029373 0.0275911 0)
(-0.0351833 0.0273539 0)
(-0.0414199 0.0266619 0)
(-0.0481886 0.0251867 0)
(-0.0555576 0.022442 0)
(-0.0634862 0.0177424 0)
(-0.0717236 0.0101834 0)
(-0.0796688 -0.00129586 0)
(-0.0859402 -0.0177195 0)
(-0.0873494 -0.0398419 0)
(-0.0780998 -0.0653325 0)
(-0.0531659 -0.082874 0)
(-0.016773 -0.068178 0)
(0.00219848 -0.0203512 0)
(-0.000659034 0.0143631 0)
(-0.00369345 0.0262105 0)
(-0.00843668 0.0305815 0)
(-0.0133202 0.0320492 0)
(-0.0184239 0.0326235 0)
(-0.0237322 0.0330082 0)
(-0.0293552 0.0333518 0)
(-0.0354634 0.0335921 0)
(-0.0422761 0.0335471 0)
(-0.0500633 0.0328958 0)
(-0.0591342 0.0311163 0)
(-0.0698036 0.0274074 0)
(-0.0823205 0.0206056 0)
(-0.096688 0.00899465 0)
(-0.111886 -0.0101759 0)
(-0.122509 -0.0406306 0)
(-0.116756 -0.0829659 0)
(-0.0856914 -0.118722 0)
(-0.0373842 -0.102336 0)
(0.000172352 -0.0305238 0)
(-0.000603705 0.016435 0)
(-0.00355089 0.0301773 0)
(-0.00821932 0.0352766 0)
(-0.0130143 0.0370217 0)
(-0.0180206 0.0377935 0)
(-0.0232413 0.0384592 0)
(-0.0288279 0.0392512 0)
(-0.0350211 0.0401765 0)
(-0.0421549 0.0411312 0)
(-0.0506924 0.0418856 0)
(-0.0612682 0.0420194 0)
(-0.0747458 0.0408351 0)
(-0.0923237 0.0371829 0)
(-0.115247 0.028566 0)
(-0.142132 0.00873169 0)
(-0.163413 -0.0332062 0)
(-0.161028 -0.101634 0)
(-0.128394 -0.1636 0)
(-0.0776184 -0.153592 0)
(-0.00994668 -0.0560576 0)
(-0.000544486 0.0184037 0)
(-0.00339466 0.0340497 0)
(-0.00795871 0.039869 0)
(-0.0125964 0.0418642 0)
(-0.0173912 0.0428108 0)
(-0.022353 0.0437624 0)
(-0.0276593 0.0450592 0)
(-0.0336005 0.0468144 0)
(-0.0406001 0.0490652 0)
(-0.0492863 0.0517869 0)
(-0.0605994 0.054867 0)
(-0.0759465 0.0580211 0)
(-0.097474 0.0603104 0)
(-0.127517 0.0577499 0)
(-0.163542 0.0375734 0)
(-0.190411 -0.0203895 0)
(-0.189769 -0.119757 0)
(-0.165199 -0.208197 0)
(-0.122352 -0.218778 0)
(-0.0302854 -0.112188 0)
(-0.000492602 0.0202693 0)
(-0.00326081 0.037815 0)
(-0.00770954 0.0443062 0)
(-0.012122 0.046474 0)
(-0.0165773 0.0475123 0)
(-0.0210755 0.0486792 0)
(-0.0257951 0.050437 0)
(-0.0310334 0.0530301 0)
(-0.0372323 0.0566887 0)
(-0.0450721 0.0616989 0)
(-0.0556216 0.068444 0)
(-0.07048 0.0772357 0)
(-0.0918295 0.0869744 0)
(-0.121842 0.0906127 0)
(-0.15609 0.0679722 0)
(-0.17918 -0.00556186 0)
(-0.179542 -0.128393 0)
(-0.165952 -0.241749 0)
(-0.137784 -0.291946 0)
(-0.0480622 -0.210468 0)
(-0.000471538 0.0220706 0)
(-0.00322198 0.0415178 0)
(-0.00758014 0.0485992 0)
(-0.0117085 0.0508064 0)
(-0.0156959 0.0517753 0)
(-0.0195194 0.0529844 0)
(-0.023331 0.0550206 0)
(-0.0273773 0.0582544 0)
(-0.032011 0.0631107 0)
(-0.0377588 0.0701902 0)
(-0.0454189 0.0803386 0)
(-0.056055 0.0942254 0)
(-0.0706518 0.109925 0)
(-0.0904129 0.116865 0)
(-0.111177 0.0907995 0)
(-0.1246 0.00659849 0)
(-0.127138 -0.125494 0)
(-0.123878 -0.256074 0)
(-0.118798 -0.345859 0)
(-0.0467227 -0.313449 0)
(-0.000512333 0.0238595 0)
(-0.00336407 0.0451148 0)
(-0.00771223 0.0525512 0)
(-0.0115409 0.0545585 0)
(-0.0149676 0.0552455 0)
(-0.0179336 0.056271 0)
(-0.0205564 0.0582924 0)
(-0.0229886 0.0617582 0)
(-0.0254023 0.0671983 0)
(-0.0280076 0.0753558 0)
(-0.0310558 0.0872187 0)
(-0.0346993 0.103334 0)
(-0.0387101 0.121194 0)
(-0.0436039 0.128407 0)
(-0.0486914 0.101292 0)
(-0.0513898 0.0137364 0)
(-0.0573264 -0.11436 0)
(-0.064928 -0.246708 0)
(-0.0864908 -0.364277 0)
(-0.0327313 -0.384277 0)
(-0.000723063 0.0259659 0)
(-0.00398446 0.0492489 0)
(-0.00844593 0.0569624 0)
(-0.0118808 0.0585509 0)
(-0.0146043 0.0585624 0)
(-0.0165799 0.0589223 0)
(-0.0178695 0.0603748 0)
(-0.0185049 0.0633968 0)
(-0.0184699 0.0685094 0)
(-0.0176412 0.0763898 0)
(-0.0157864 0.0878871 0)
(-0.012178 0.103151 0)
(-0.00615249 0.119856 0)
(0.00292882 0.126229 0)
(0.0103622 0.100778 0)
(0.0158047 0.0184491 0)
(0.00312412 -0.0992962 0)
(-0.0153306 -0.22269 0)
(-0.0597223 -0.363327 0)
(-0.0205462 -0.434487 0)
(-0.00106534 0.0285693 0)
(-0.00476848 0.052581 0)
(-0.00968666 0.059524 0)
(-0.0130044 0.0599431 0)
(-0.0152269 0.0591648 0)
(-0.0162158 0.0589511 0)
(-0.0161015 0.0598672 0)
(-0.014884 0.0622303 0)
(-0.0124372 0.0664319 0)
(-0.00839933 0.0729512 0)
(-0.00234383 0.0823214 0)
(0.00700746 0.0944296 0)
(0.0202695 0.107201 0)
(0.0382691 0.111512 0)
(0.0530983 0.0899751 0)
(0.0640942 0.021504 0)
(0.0463603 -0.0792464 0)
(0.0244443 -0.186893 0)
(-0.0395648 -0.346766 0)
(-0.00958158 -0.468409 0)
(-0.00314941 0.0306723 0)
(-0.00921611 0.0595237 0)
(-0.0134309 0.066333 0)
(-0.0156458 0.066103 0)
(-0.0164205 0.0635091 0)
(-0.0160995 0.0613692 0)
(-0.0146701 0.0603654 0)
(-0.0119622 0.0608026 0)
(-0.00768633 0.0629354 0)
(-0.00134001 0.0669777 0)
(0.00762086 0.0731973 0)
(0.0204107 0.0812406 0)
(0.0369692 0.0892494 0)
(0.0586568 0.0907843 0)
(0.0760777 0.0747535 0)
(0.0907808 0.024517 0)
(0.0706921 -0.0535328 0)
(0.0491625 -0.143741 0)
(-0.027109 -0.324605 0)
(0.00253952 -0.491315 0)
(-0.000937874 0.0440198 0)
(-0.00754397 0.0608434 0)
(-0.0167944 0.0633645 0)
(-0.0189787 0.0595584 0)
(-0.0200461 0.056514 0)
(-0.0189043 0.0545139 0)
(-0.0162895 0.0535317 0)
(-0.0120681 0.0534687 0)
(-0.00606505 0.0544302 0)
(0.00225385 0.0564407 0)
(0.0133071 0.0598359 0)
(0.0280156 0.0640978 0)
(0.045617 0.0680392 0)
(0.0682933 0.0675398 0)
(0.0850813 0.056295 0)
(0.101739 0.0234671 0)
(0.0809156 -0.0319267 0)
(0.0647023 -0.10419 0)
(-0.00985804 -0.301886 0)
(0.0211833 -0.501202 0)
(-0.0125678 0.0322042 0)
(-0.0231315 0.0804896 0)
(-0.0208792 0.0806378 0)
(-0.024941 0.0757 0)
(-0.0245586 0.0682843 0)
(-0.0223575 0.0621734 0)
(-0.0180545 0.05732 0)
(-0.0118226 0.0536301 0)
(-0.00374185 0.0511151 0)
(0.0066624 0.0495522 0)
(0.0193178 0.0491404 0)
(0.0349857 0.0492849 0)
(0.0520011 0.0502382 0)
(0.0736569 0.0489848 0)
(0.0873969 0.0438137 0)
(0.106303 0.0273939 0)
(0.0911902 -0.0062171 0)
(0.0993309 -0.0643341 0)
(0.0395994 -0.273441 0)
(0.0572195 -0.489195 0)
(-0.0776681 0.0958234 0)
(-0.0632424 0.0587594 0)
(-0.0651682 0.0600039 0)
(-0.0425428 0.053385 0)
(-0.024663 0.0464069 0)
(-0.00393751 0.0412382 0)
(0.0156307 0.0374743 0)
(0.035596 0.034288 0)
(0.0541406 0.0319868 0)
(0.074344 0.0299281 0)
(0.0919608 0.0287797 0)
(0.114454 0.0276773 0)
(0.130239 0.0269887 0)
(0.158994 0.0257986 0)
(0.168665 0.0203894 0)
(0.202741 0.0114781 0)
(0.190712 -0.021446 0)
(0.222323 -0.0738818 0)
(0.15395 -0.251679 0)
(0.12481 -0.433118 0)
(0.119364 0.140742 0)
(0.151926 0.0860355 0)
(0.228348 0.0634695 0)
(0.283821 0.0480236 0)
(0.325266 0.0374041 0)
(0.363594 0.0296556 0)
(0.392342 0.0242428 0)
(0.423572 0.0201839 0)
(0.443554 0.017301 0)
(0.472144 0.0149929 0)
(0.485033 0.0132967 0)
(0.514391 0.0119547 0)
(0.519937 0.010833 0)
(0.552115 0.00956479 0)
(0.547055 0.00755378 0)
(0.578993 0.00309367 0)
(0.547336 -0.00583291 0)
(0.552939 -0.0269798 0)
(0.419614 -0.0730872 0)
(0.275034 -0.151767 0)
)
;

boundaryField
{
    movingWall
    {
        type            fixedValue;
        value           uniform (1 0 0);
    }
    fixedWalls
    {
        type            noSlip;
    }
    frontAndBack
    {
        type            empty;
    }
}


// ************************************************************************* //
