/*--------------------------------*- C++ -*----------------------------------*\
  =========                 |
  \\      /  F ield         | OpenFOAM: The Open Source CFD Toolbox
   \\    /   O peration     | Website:  https://openfoam.org
    \\  /    A nd           | Version:  10
     \\/     M anipulation  |
\*---------------------------------------------------------------------------*/
FoamFile
{
    format      ascii;
    class       surfaceScalarField;
    location    "4.725";
    object      phi;
}
// * * * * * * * * * * * * * * * * * * * * * * * * * * * * * * * * * * * * * //

dimensions      [0 3 -1 0 0 0 0];

internalField   nonuniform List<scalar> 
890
(
0.00984559
0.000154405
0.00972159
0.000124009
0.00946251
0.000259077
0.00941586
4.66526e-05
0.000147306
0.00926855
0.0101224
3.19932e-05
0.0102021
4.43054e-05
0.0104033
5.79346e-05
0.0104665
-1.65829e-05
-7.14481e-05
0.0106852
0.0100722
-4.0211e-05
0.0102125
-9.60005e-05
0.0103815
-0.000111077
0.0105207
-0.000155786
-0.000192005
0.0106413
0.0100893
-0.000129472
0.0102096
-0.000216294
0.0103367
-0.000238191
0.010418
-0.000237093
-0.000253263
0.0104792
0.00987053
0.00965423
0.00941604
0.00917895
0.00892569
0.0092652
-8.76683e-05
9.10173e-05
0.00928858
-0.000267329
0.000243954
0.00939798
-0.000351349
0.00024195
0.00959639
-0.000456621
0.00025821
0.00984119
-0.000618964
0.000374157
0.0100979
-0.000845541
0.000588831
0.0103488
-0.00117044
0.000919518
0.0105803
-0.00154558
0.00131413
0.010761
-0.00193418
0.00175343
0.0108524
-0.00231267
0.00222132
0.0108804
-0.00263217
0.00260419
0.0108187
-0.00286038
0.002922
0.0106366
-0.00296247
0.00314459
0.0103581
-0.00284871
0.0031272
0.0100065
-0.00264233
0.00299394
0.00959729
-0.00237434
0.00278358
0.009126
-0.00191444
0.00238573
0.00860944
-0.00139827
0.00191484
0.0081015
-0.000941848
0.00144978
0.00758858
-0.000422509
0.000935431
0.00704461
0.000137038
0.00040693
0.00650423
0.000552638
-1.22534e-05
0.00606261
0.000727204
-0.000285592
0.00578247
0.000750676
-0.00047053
0.00567682
0.000764644
-0.000658998
0.00570652
0.000823311
-0.000853014
0.00580932
0.00088439
-0.000987188
0.00592762
0.000891458
-0.00100975
0.00602589
0.000825634
-0.000923908
0.006092
0.000704145
-0.000770254
0.00612922
0.000557557
-0.000594773
0.00614669
0.0004129
-0.000430376
0.00615322
0.0002872
-0.000293728
0.00615482
0.000187714
-0.000189313
0.00615474
0.000114765
-0.000114684
0.00615437
6.47558e-05
-6.43894e-05
0.00615413
3.26393e-05
-3.23979e-05
0.00615407
1.33183e-05
-1.32613e-05
0.00615419
2.62658e-06
-2.74351e-06
0.00615416
-2.6435e-06
2.66946e-06
0.0061541
-4.62471e-06
4.68962e-06
0.00615398
-5.09526e-06
5.21504e-06
0.00615384
-4.3646e-06
4.50625e-06
0.00615368
-3.89607e-06
4.05257e-06
-2.51709e-06
2.61993e-06
0.0107516
-0.000154044
0.0107801
-0.000295762
0.0108403
-0.000411589
0.0109333
-0.00054962
0.0110096
-0.000695299
0.0110682
-0.000904122
0.0110625
-0.00116474
0.0109968
-0.00147985
0.0108658
-0.00180316
0.0106394
-0.00208631
0.010377
-0.00236974
0.0100293
-0.00251277
0.00955236
-0.00248549
0.00902331
-0.00231966
0.00844752
-0.00206654
0.00781806
-0.00174489
0.00717937
-0.00127575
0.00653821
-0.000757116
0.00589358
-0.000297213
0.00526999
0.000201084
0.00472629
0.00068073
0.0043517
0.000927229
0.00417611
0.000902796
0.0041688
0.000757989
0.00428795
0.000645495
0.00449908
0.000612181
0.00476268
0.000620787
0.00503792
0.000616218
0.00529242
0.000571132
0.00550811
0.000488451
0.00567982
0.000385853
0.00581021
0.000282512
0.00590542
0.000191983
0.00597254
0.000120598
0.00601826
6.90451e-05
0.00604831
3.47029e-05
0.00606731
1.36376e-05
0.00607876
1.87581e-06
0.00608538
-4.00099e-06
0.00608898
-6.23998e-06
0.00609074
-6.38482e-06
0.00609145
-5.80796e-06
0.00609164
-4.55005e-06
0.00609154
-3.79604e-06
-2.34268e-06
0.0107402
-0.000252931
0.0107781
-0.000333651
0.0108121
-0.000445667
0.0108209
-0.000558367
0.0108046
-0.000678987
0.0107546
-0.00085414
0.010617
-0.0010271
0.010425
-0.00128785
0.0101667
-0.00154489
0.00986311
-0.00178273
0.00951277
-0.0020194
0.00896968
-0.00196967
0.00832398
-0.00183979
0.00766778
-0.00166346
0.00688698
-0.00128575
0.00604208
-0.00089999
0.00528613
-0.000519792
0.0046447
-0.000115684
0.00409975
0.000247732
0.00371443
0.000586406
0.00356332
0.000831844
0.00361226
0.000878291
0.00375585
0.0007592
0.00391927
0.000594572
0.00408961
0.000475156
0.00428488
0.000416906
0.00451275
0.000392919
0.00475931
0.00036966
0.00500097
0.000329473
0.00521724
0.000272175
0.00539635
0.000206743
0.00553506
0.000143805
0.00563616
9.08869e-05
0.00570568
5.10739e-05
0.00575078
2.39512e-05
0.00577824
7.24177e-06
0.00579376
-1.88828e-06
0.00580174
-6.10265e-06
0.0058051
-7.35871e-06
0.00580593
-7.06669e-06
0.00580552
-5.98142e-06
0.00580456
-4.84315e-06
0.00580356
-3.54899e-06
0.00580255
-2.7892e-06
-1.65953e-06
0.0105131
-0.000286766
0.010496
-0.000316616
0.0104388
-0.000388401
0.0103111
-0.000430664
0.0101434
-0.00051133
0.009885
-0.000595735
0.00954428
-0.000686383
0.00910778
-0.000851351
0.00851992
-0.000957028
0.00791372
-0.00117653
0.00721288
-0.00131856
0.0062891
-0.00104589
0.00511916
-0.000669855
0.00381735
-0.000361647
0.00268841
-0.00015681
0.0018605
-7.20782e-05
0.00136122
-2.05124e-05
0.00116512
8.0417e-05
0.00120165
0.0002112
0.00144428
0.000343783
0.00185233
0.000423793
0.00230983
0.000420791
0.00271656
0.000352468
0.00303923
0.000271901
0.00330166
0.000212726
0.00353954
0.000179028
0.00377318
0.00015928
0.0040019
0.000140941
0.00421344
0.000117932
0.00439466
9.09515e-05
0.00453807
6.33385e-05
0.00464302
3.88457e-05
0.00471392
1.9994e-05
0.00475784
7.14969e-06
0.00478237
-5.79485e-07
0.00479387
-4.25459e-06
0.00479763
-5.65284e-06
0.0047972
-5.66833e-06
0.00479485
-5.01003e-06
0.0047919
-4.11251e-06
0.00478908
-3.16966e-06
0.00478662
-2.3798e-06
0.00478474
-1.66737e-06
0.00478319
-1.23527e-06
-6.99588e-07
0.00863892
0.0083223
0.0079339
0.00750324
0.00699191
0.00639617
0.00570979
0.00485844
0.00390141
0.00272488
0.00140632
0.00036043
-0.000309425
-0.000671072
-0.000827882
-0.00089996
-0.000920473
-0.000840056
-0.000628855
-0.000285072
0.00013872
0.000559511
0.000911979
0.00118388
0.00139661
0.00157563
0.00173491
0.00187586
0.00199379
0.00208474
0.00214808
0.00218692
0.00220692
0.00221407
0.00221349
0.00220923
0.00220358
0.00219791
0.0021929
0.00218879
0.00218562
0.00218324
0.00218157
0.00218034
1.33349e-05
-1.33349e-05
-0.000133327
0.000146662
-0.000626474
0.000493147
-0.00146038
0.000833903
-0.00239589
0.000935509
-0.00321684
0.000820953
-0.00382905
0.000612211
-0.00420584
0.000376788
-0.00432017
0.000114333
-0.00418969
-0.000130483
-0.0038349
-0.000354784
-0.00327552
-0.000559386
-0.00255494
-0.000720576
-0.0017277
-0.000827238
-0.000844865
-0.000882839
5.37072e-05
-0.000898572
0.000930602
-0.000876895
0.00175323
-0.000822625
0.00248196
-0.000728729
0.00306485
-0.000582894
0.00346358
-0.000398728
0.00364532
-0.000181737
0.00359849
4.68258e-05
0.00336649
0.000232003
0.00303598
0.000330503
0.00270592
0.000330063
0.00244046
0.000265464
0.00225853
0.00018193
0.00215105
0.000107479
0.00209866
5.23847e-05
0.00208177
1.68894e-05
0.00208468
-2.90738e-06
0.00209645
-1.17633e-05
0.00211107
-1.46285e-05
0.0021253
-1.42239e-05
0.00213773
-1.2432e-05
0.00214797
-1.0243e-05
0.00215609
-8.12111e-06
0.00216233
-6.234e-06
0.00216701
-4.67759e-06
0.00217042
-3.41061e-06
0.00217289
-2.47165e-06
0.00217458
-1.69419e-06
0.00217582
-1.23979e-06
-7.00609e-07
-0.00034472
0.000331385
-0.000956575
0.000758517
-0.00157381
0.00111038
-0.00207715
0.00133725
-0.0024794
0.00133775
-0.00275548
0.00109703
-0.00287572
0.000732458
-0.00283164
0.000332706
-0.00262225
-9.50625e-05
-0.00225303
-0.000499697
-0.00171114
-0.00089668
-0.00101505
-0.00125548
-0.000202921
-0.0015327
0.000661613
-0.00169177
0.00155247
-0.0017737
0.00242957
-0.00177567
0.00324862
-0.00169594
0.00399407
-0.00156807
0.00464538
-0.00138004
0.00517401
-0.00111152
0.00558556
-0.000810278
0.00592146
-0.000517645
0.00617765
-0.000209361
0.00628207
0.000127588
0.00619657
0.000415997
0.00595413
0.000572501
0.00564247
0.000577132
0.00534599
0.000478404
0.00511179
0.00034168
0.00494963
0.000214548
0.00484823
0.000118283
0.00479056
5.47655e-05
0.00476149
1.73107e-05
0.00474944
-2.58031e-06
0.00474659
-1.13742e-05
0.00474858
-1.44239e-05
0.00475274
-1.44073e-05
0.00475756
-1.29336e-05
0.00476217
-1.08506e-05
0.00476625
-8.75078e-06
0.00476959
-6.75164e-06
0.00477229
-5.1727e-06
0.00477427
-3.67659e-06
0.00477587
-2.83489e-06
-1.674e-06
-0.000452473
0.000783858
-0.000556664
0.000862709
-0.000498488
0.00105221
-0.000366923
0.00120568
-0.000188051
0.00115888
3.10286e-05
0.000877954
0.000291156
0.000472331
0.000601003
2.28598e-05
0.00101896
-0.000513019
0.00154773
-0.00102847
0.00215191
-0.00150086
0.00282701
-0.00193058
0.00353997
-0.00224566
0.0042366
-0.00238841
0.00491481
-0.00245191
0.00555784
-0.0024187
0.00609949
-0.00223759
0.00652363
-0.00199222
0.00685299
-0.0017094
0.00707423
-0.00133275
0.00717439
-0.000910444
0.00720796
-0.000551214
0.00725168
-0.000253082
0.00731165
6.76194e-05
0.00731196
0.000415684
0.00720182
0.000682645
0.00698984
0.000789114
0.00672771
0.00074053
0.00647135
0.00059804
0.00625589
0.000430009
0.00609283
0.000281344
0.00597819
0.000169405
0.00590183
9.36722e-05
0.00585308
4.61658e-05
0.00582353
1.81802e-05
0.00580637
2.73396e-06
0.00579736
-5.39831e-06
0.00579324
-8.81114e-06
0.0057919
-9.5127e-06
0.00579209
-8.94121e-06
0.00579296
-7.62147e-06
0.00579411
-6.32104e-06
0.00579517
-4.73545e-06
0.00579618
-3.84554e-06
-2.3488e-06
-9.5342e-05
0.0008792
0.000241409
0.000525958
0.000724747
0.000568867
0.00131204
0.000618389
0.00194295
0.000527973
0.00255857
0.000262336
0.00316131
-0.000130416
0.00376349
-0.000579314
0.00435035
-0.00109988
0.00495628
-0.00163441
0.00554771
-0.00209228
0.00612561
-0.00250848
0.00669939
-0.00281943
0.007215
-0.00290402
0.007645
-0.0028819
0.00800433
-0.00277804
0.00826311
-0.00249637
0.00839715
-0.00212626
0.00842905
-0.0017413
0.00838564
-0.00128935
0.00826237
-0.000787174
0.0080708
-0.000359644
0.00787626
-5.85412e-05
0.00773219
0.000211693
0.00764282
0.000505058
0.00754926
0.000776199
0.00740409
0.00093429
0.00720389
0.000940726
0.00697561
0.000826318
0.00675292
0.000652703
0.00655998
0.000474282
0.00640731
0.000322075
0.00629476
0.000206219
0.00621641
0.000124521
0.00616449
7.00949e-05
0.00613169
3.55348e-05
0.00611163
1.46688e-05
0.00609996
2.85394e-06
0.00609351
-3.06517e-06
0.00609023
-5.6601e-06
0.00608875
-6.14103e-06
0.00608826
-5.82758e-06
0.00608823
-4.70275e-06
0.00608843
-4.05267e-06
-2.57319e-06
0.000970217
0.00174013
0.00255095
0.00342754
0.00432967
0.00518084
0.00596994
0.00670476
0.00735831
0.00794523
0.00845714
0.00887065
0.00919581
0.00941899
0.00953103
0.00953657
0.00942593
0.00921451
0.00892299
0.00856908
0.00818883
0.00781693
0.0074728
0.00721396
0.00706002
0.00698321
0.00693031
0.00686128
0.00676369
0.00664614
0.00652565
0.00641735
0.00632984
0.00626505
0.00622046
0.00619161
0.00617388
0.00616347
0.00615766
0.00615467
0.00615322
0.00615261
0.00615241
0.00615241
)
;

boundaryField
{
    inlet
    {
        type            calculated;
        value           nonuniform List<scalar> 5(-0.01 -0.01 -0.01 -0.01 -0.01);
    }
    outlet
    {
        type            calculated;
        value           nonuniform List<scalar> 10(0.00615358 0.00609136 0.00580187 0.00478223 0.00217964 0.00217652 0.00477684 0.00579685 0.00608866 0.00615246);
    }
    upperWall
    {
        type            calculated;
        value           uniform 0;
    }
    lowerWall
    {
        type            calculated;
        value           uniform 0;
    }
    frontAndBack
    {
        type            empty;
        value           nonuniform List<scalar> 0();
    }
}


// ************************************************************************* //
