/*--------------------------------*- C++ -*----------------------------------*\
  =========                 |
  \\      /  F ield         | OpenFOAM: The Open Source CFD Toolbox
   \\    /   O peration     | Website:  https://openfoam.org
    \\  /    A nd           | Version:  10
     \\/     M anipulation  |
\*---------------------------------------------------------------------------*/
FoamFile
{
    format      ascii;
    class       volVectorField;
    location    "2.125";
    object      U;
}
// * * * * * * * * * * * * * * * * * * * * * * * * * * * * * * * * * * * * * //

dimensions      [0 1 -1 0 0 0 0];

internalField   nonuniform List<vector> 
8000
(
(-0.000200759 0.000203701 -6.09469e-06)
(-0.00081231 0.000301476 1.20259e-05)
(-0.00158779 0.000303343 1.57449e-05)
(-0.00230014 0.000286878 1.69984e-05)
(-0.00296674 0.000262992 1.62486e-05)
(-0.00356678 0.000232941 1.43055e-05)
(-0.00408435 0.000197131 1.1573e-05)
(-0.00450573 0.000155975 8.2186e-06)
(-0.00481855 0.000109989 4.32272e-06)
(-0.00501214 5.9834e-05 -7.75771e-08)
(-0.00507773 6.56278e-06 -4.76013e-06)
(-0.00500864 -4.95069e-05 -9.65456e-06)
(-0.00480108 -0.000106541 -1.46784e-05)
(-0.00445507 -0.00016297 -1.96333e-05)
(-0.00397484 -0.000216891 -2.42427e-05)
(-0.00336959 -0.000266117 -2.80972e-05)
(-0.00265501 -0.000308187 -3.04737e-05)
(-0.00185815 -0.000339565 -3.01568e-05)
(-0.000968264 -0.000346467 -2.62311e-05)
(-0.000246473 -0.000241713 -4.52293e-06)
(-0.000305993 0.00082917 -2.74103e-05)
(-0.00117811 0.00116641 -9.20959e-06)
(-0.00225082 0.00116821 -4.23378e-06)
(-0.00323856 0.00110202 -1.09803e-06)
(-0.0041597 0.00100642 2.81597e-07)
(-0.00498577 0.00088674 7.12602e-07)
(-0.005695 0.000745144 5.59958e-07)
(-0.00626895 0.000583757 -6.28394e-08)
(-0.00669136 0.000404985 -1.11132e-06)
(-0.00694822 0.000211571 -2.57031e-06)
(-0.00702924 6.56828e-06 -4.50677e-06)
(-0.00692598 -0.000206013 -6.57222e-06)
(-0.00663349 -0.000421032 -8.96169e-06)
(-0.00615295 -0.000632712 -1.1493e-05)
(-0.00549045 -0.000834118 -1.39089e-05)
(-0.00465867 -0.00101729 -1.58017e-05)
(-0.00367885 -0.00117327 -1.63875e-05)
(-0.0025868 -0.00128902 -1.43681e-05)
(-0.00137262 -0.00131613 -9.03743e-06)
(-0.000363347 -0.000955958 1.4372e-05)
(-0.000330362 0.00166218 -3.49829e-05)
(-0.00127071 0.00228464 -1.64905e-05)
(-0.00242528 0.00228236 -1.10503e-05)
(-0.00348692 0.00215034 -7.27791e-06)
(-0.00447665 0.00196058 -5.20973e-06)
(-0.00536435 0.00172381 -4.02915e-06)
(-0.00612711 0.00144473 -3.36185e-06)
(-0.00674561 0.00112792 -3.11564e-06)
(-0.00720281 0.000778339 -3.2801e-06)
(-0.00748437 0.000401453 -3.86318e-06)
(-0.00757827 3.28758e-06 -4.84729e-06)
(-0.00747479 -0.00040846 -6.19853e-06)
(-0.00716865 -0.000824624 -7.90672e-06)
(-0.0066596 -0.00123411 -9.82766e-06)
(-0.00595264 -0.00162379 -1.17119e-05)
(-0.00505984 -0.00197846 -1.31397e-05)
(-0.00400282 -0.00228083 -1.32732e-05)
(-0.00281976 -0.00250568 -1.07117e-05)
(-0.00149908 -0.00256235 -4.78129e-06)
(-0.000397545 -0.00189814 1.99663e-05)
(-0.000349885 0.00251224 -4.12658e-05)
(-0.00134925 0.00343193 -2.21614e-05)
(-0.00257768 0.00342485 -1.63237e-05)
(-0.00370628 0.0032254 -1.20531e-05)
(-0.00475898 0.00294006 -9.50373e-06)
(-0.00570434 0.00258488 -7.82483e-06)
(-0.00651876 0.00216713 -6.63271e-06)
(-0.0071824 0.00169372 -5.84481e-06)
(-0.00767764 0.00117192 -5.46476e-06)
(-0.00798917 0.00060965 -5.51975e-06)
(-0.00810437 1.59567e-05 -6.04303e-06)
(-0.00801173 -0.000599073 -6.98688e-06)
(-0.0077031 -0.00122244 -8.33673e-06)
(-0.00717607 -0.00183799 -9.97283e-06)
(-0.0064332 -0.00242626 -1.16453e-05)
(-0.00548443 -0.00296434 -1.29025e-05)
(-0.00435053 -0.00342557 -1.28224e-05)
(-0.00307199 -0.00377096 -9.84638e-06)
(-0.00163591 -0.00386417 -3.27129e-06)
(-0.000434073 -0.00288031 2.35606e-05)
(-0.000376345 0.00342663 -4.75093e-05)
(-0.00145461 0.00466737 -2.731e-05)
(-0.0027815 0.00465489 -2.10312e-05)
(-0.00399959 0.00438314 -1.63021e-05)
(-0.00513627 0.00399584 -1.3374e-05)
(-0.00615847 0.00351503 -1.1347e-05)
(-0.00704185 0.00295078 -9.81974e-06)
(-0.00776615 0.00231243 -8.71196e-06)
(-0.00831329 0.00160946 -8.0328e-06)
(-0.00866711 0.00085181 -7.8049e-06)
(-0.00881344 5.04502e-05 -8.01648e-06)
(-0.00873867 -0.000781669 -8.948e-06)
(-0.00843146 -0.00162867 -1.02629e-05)
(-0.00788519 -0.00246996 -1.19192e-05)
(-0.00709824 -0.00327959 -1.36797e-05)
(-0.00607677 -0.00402598 -1.50433e-05)
(-0.00483935 -0.00467119 -1.49558e-05)
(-0.00342892 -0.00515902 -1.16073e-05)
(-0.00183126 -0.00530037 -4.17655e-06)
(-0.00048692 -0.0039668 2.59575e-05)
(-0.000411472 0.00442519 -5.48246e-05)
(-0.00159367 0.00601799 -3.30615e-05)
(-0.00304963 0.00599914 -2.62446e-05)
(-0.00438447 0.00564839 -2.0992e-05)
(-0.00563004 0.00515064 -1.76669e-05)
(-0.00675135 0.00453482 -1.53074e-05)
(-0.00772344 0.00381424 -1.34911e-05)
(-0.00852592 0.00300079 -1.21382e-05)
(-0.00914053 0.00210597 -1.12618e-05)
(-0.00955044 0.00114122 -1.08706e-05)
(-0.00974004 0.000118749 -1.08416e-05)
(-0.00969295 -0.000947186 -1.20197e-05)
(-0.00939334 -0.00203868 -1.35119e-05)
(-0.00882874 -0.00313146 -1.54297e-05)
(-0.00799091 -0.00419338 -1.75503e-05)
(-0.00687942 -0.00518321 -1.93079e-05)
(-0.00550807 -0.00604906 -1.94517e-05)
(-0.00392158 -0.00671246 -1.5791e-05)
(-0.00210354 -0.00692065 -7.27079e-06)
(-0.000561404 -0.00519817 2.76488e-05)
(-0.000456247 0.0055313 -6.41133e-05)
(-0.00177054 0.0075153 -4.03538e-05)
(-0.00338971 0.00748812 -3.28492e-05)
(-0.00487083 0.007049 -2.6907e-05)
(-0.0062517 0.00642931 -2.3051e-05)
(-0.00749518 0.00566624 -2.02534e-05)
(-0.00857611 0.00477705 -1.80739e-05)
(-0.00947466 0.00377646 -1.64389e-05)
(-0.0101731 0.00267769 -1.53778e-05)
(-0.0106546 0.00149294 -1.4941e-05)
(-0.0109021 0.000234377 -1.52118e-05)
(-0.0108963 -0.00108387 -1.63111e-05)
(-0.0106159 -0.00244407 -1.80865e-05)
(-0.0100401 -0.00381998 -2.05112e-05)
(-0.00915036 -0.00517423 -2.33265e-05)
(-0.00793539 -0.00645525 -2.58846e-05)
(-0.00639949 -0.00759398 -2.66525e-05)
(-0.00458656 -0.0084823 -2.28666e-05)
(-0.00247576 -0.00878728 -1.3038e-05)
(-0.000664584 -0.00662659 2.85271e-05)
(-0.000512044 0.00677299 -7.62508e-05)
(-0.00199068 0.0091968 -5.00545e-05)
(-0.00381157 0.00915737 -4.16359e-05)
(-0.0054711 0.00861655 -3.47152e-05)
(-0.00701494 0.00785921 -3.00633e-05)
(-0.00840384 0.00693284 -2.65954e-05)
(-0.00961335 0.0058598 -2.38653e-05)
(-0.0106254 0.00465803 -2.18143e-05)
(-0.0114242 0.00334226 -2.04921e-05)
(-0.0119939 0.00192445 -1.99818e-05)
(-0.012317 0.000415018 -2.0399e-05)
(-0.0123715 -0.00117464 -2.17672e-05)
(-0.0121295 -0.00282986 -2.40717e-05)
(-0.011559 -0.00452565 -2.73654e-05)
(-0.0106266 -0.00622207 -3.13911e-05)
(-0.00930289 -0.00785778 -3.54168e-05)
(-0.00757468 -0.00934306 -3.7542e-05)
(-0.00547837 -0.0105302 -3.41453e-05)
(-0.0029841 -0.0109805 -2.29085e-05)
(-0.000808247 -0.00832236 2.76776e-05)
(-0.000581064 0.00818371 -9.23972e-05)
(-0.00226223 0.0111066 -6.32777e-05)
(-0.0043293 0.0110475 -5.35782e-05)
(-0.00620246 0.0103857 -4.5188e-05)
(-0.00793795 0.00946898 -3.92704e-05)
(-0.00949489 0.00835817 -3.47148e-05)
(-0.0108511 0.00708235 -3.10927e-05)
(-0.0119924 0.00566347 -2.83702e-05)
(-0.0129069 0.00411753 -2.66167e-05)
(-0.013582 0.00245497 -2.59406e-05)
(-0.0140013 0.000682212 -2.6482e-05)
(-0.0141413 -0.00119545 -2.83529e-05)
(-0.0139671 -0.00317107 -3.15275e-05)
(-0.0134324 -0.00522621 -3.62354e-05)
(-0.012483 -0.00732381 -4.22985e-05)
(-0.0110612 -0.0093964 -4.89226e-05)
(-0.00912217 -0.0113314 -5.37847e-05)
(-0.0066804 -0.0129288 -5.20206e-05)
(-0.00368775 -0.0136042 -3.96304e-05)
(-0.00101319 -0.0103834 2.26846e-05)
(-0.000666988 0.0098052 -0.000114324)
(-0.00259774 0.0132983 -8.16806e-05)
(-0.00496362 0.0132058 -7.00509e-05)
(-0.00708927 0.0123945 -5.93326e-05)
(-0.00904542 0.0112879 -5.1325e-05)
(-0.0107908 0.00996439 -4.49626e-05)
(-0.0123083 0.00846217 -3.98724e-05)
(-0.0135905 0.0068083 -3.60517e-05)
(-0.0146329 0.00501989 -3.35825e-05)
(-0.0154294 0.00310447 -3.25916e-05)
(-0.0159676 0.00106158 -3.32716e-05)
(-0.016225 -0.00111388 -3.58636e-05)
(-0.0161605 -0.00342921 -4.03381e-05)
(-0.0157119 -0.00588095 -4.72403e-05)
(-0.0147974 -0.00844486 -5.66275e-05)
(-0.0133166 -0.0110566 -6.77775e-05)
(-0.011171 -0.0135841 -7.79064e-05)
(-0.00832247 -0.0157623 -8.05617e-05)
(-0.00468732 -0.0167959 -6.80849e-05)
(-0.00131819 -0.0129545 8.84152e-06)
(-0.000776354 0.0116924 -0.000144943)
(-0.00301738 0.0158392 -0.000107897)
(-0.00574572 0.0156886 -9.30975e-05)
(-0.00816676 0.0146848 -7.84979e-05)
(-0.0103715 0.0133447 -6.69426e-05)
(-0.0123211 0.01177 -5.75519e-05)
(-0.0140075 0.0100113 -5.00533e-05)
(-0.015435 0.00810239 -4.4464e-05)
(-0.016611 0.00606132 -4.08438e-05)
(-0.0175406 0.00389118 -3.93116e-05)
(-0.0182199 0.00158149 -4.01211e-05)
(-0.0186324 -0.000888582 -4.36576e-05)
(-0.0187344 -0.00354868 -4.99258e-05)
(-0.0184483 -0.00642278 -6.00522e-05)
(-0.0176594 -0.00951617 -7.4636e-05)
(-0.0162084 -0.0127869 -9.34268e-05)
(-0.0139096 -0.0160987 -0.000113403)
(-0.0106105 -0.0191203 -0.000126444)
(-0.00616201 -0.0207377 -0.000116886)
(-0.0018002 -0.0162638 -2.49897e-05)
(-0.00092149 0.0139227 -0.000189338)
(-0.00355487 0.018817 -0.000146276)
(-0.00672376 0.0185641 -0.000125805)
(-0.00948693 0.0173016 -0.000104425)
(-0.0119641 0.0156648 -8.67172e-05)
(-0.0141248 0.0137857 -7.22406e-05)
(-0.0159763 0.0117317 -6.08469e-05)
(-0.0175409 0.00954484 -5.24984e-05)
(-0.0188445 0.00724424 -4.71149e-05)
(-0.0199096 0.00482695 -4.46978e-05)
(-0.0207477 0.00226919 -4.55106e-05)
(-0.0213555 -0.000471492 -5.01556e-05)
(-0.021695 -0.00345446 -5.87093e-05)
(-0.0216796 -0.00674948 -7.3206e-05)
(-0.0211623 -0.0104163 -9.53573e-05)
(-0.0199095 -0.0144708 -0.000126324)
(-0.0176104 -0.0188111 -0.000163985)
(-0.0138768 -0.0230779 -0.000199555)
(-0.00844728 -0.0256659 -0.000200266)
(-0.0026216 -0.0206904 -0.000103083)
(-0.0011274 0.0166175 -0.000257031)
(-0.00426948 0.0223532 -0.000204452)
(-0.00797355 0.0219173 -0.000172887)
(-0.0111278 0.0202917 -0.000139086)
(-0.0138916 0.0182653 -0.000110495)
(-0.0162547 0.0160078 -8.75163e-05)
(-0.0182488 0.0136075 -6.99973e-05)
(-0.0199228 0.0111161 -5.75716e-05)
(-0.0213292 0.00855356 -4.96966e-05)
(-0.0225159 0.00590943 -4.59735e-05)
(-0.0235186 0.00314366 -4.6492e-05)
(-0.0243563 0.000187345 -5.16339e-05)
(-0.0250126 -0.00305286 -6.31871e-05)
(-0.0254103 -0.00671526 -8.26449e-05)
(-0.0253816 -0.0109472 -0.00011431)
(-0.0246171 -0.0158812 -0.00016252)
(-0.0226565 -0.0215312 -0.000229292)
(-0.0186625 -0.0276383 -0.000311108)
(-0.0121924 -0.0318473 -0.000341737)
(-0.00413542 -0.0269258 -0.000288062)
(-0.00144891 0.0199057 -0.000364471)
(-0.00527518 0.0265807 -0.000293488)
(-0.00962047 0.0258383 -0.000240218)
(-0.0132088 0.0236939 -0.00018341)
(-0.0162524 0.0211445 -0.00013547)
(-0.0187829 0.0184061 -9.85383e-05)
(-0.0208681 0.0155931 -7.18347e-05)
(-0.0225948 0.0127663 -5.38832e-05)
(-0.024051 0.00994471 -4.29273e-05)
(-0.0253193 0.00710912 -3.75681e-05)
(-0.0264695 0.00420329 -3.73011e-05)
(-0.0275517 0.0011328 -4.21559e-05)
(-0.0285973 -0.00223627 -5.60863e-05)
(-0.0295737 -0.00613064 -7.86517e-05)
(-0.0303288 -0.010813 -0.000118011)
(-0.0305126 -0.0166241 -0.000184275)
(-0.0295544 -0.0238375 -0.000291607)
(-0.0258266 -0.032605 -0.000459889)
(-0.0187028 -0.0394426 -0.000574301)
(-0.00717614 -0.0363433 -0.000718341)
(-0.00195632 0.0245152 -0.000572709)
(-0.00670986 0.0318749 -0.000445698)
(-0.0118332 0.030497 -0.000339621)
(-0.0158994 0.027543 -0.000234885)
(-0.0191831 0.0242676 -0.000151279)
(-0.0218053 0.0209073 -9.19385e-05)
(-0.023887 0.017597 -5.24361e-05)
(-0.0255689 0.0144006 -2.81552e-05)
(-0.0269834 0.0113303 -1.43975e-05)
(-0.0282536 0.00835402 -7.75788e-06)
(-0.0294904 0.00539782 -6.77209e-06)
(-0.0307903 0.00233536 -1.05854e-05)
(-0.0322692 -0.00102474 -2.70592e-05)
(-0.0339784 -0.00491568 -4.16081e-05)
(-0.0358651 -0.00976231 -7.46815e-05)
(-0.037657 -0.016233 -0.000140276)
(-0.0388659 -0.0249851 -0.000276634)
(-0.036587 -0.037313 -0.00056522)
(-0.0304714 -0.0481163 -0.000842852)
(-0.0136283 -0.0514149 -0.00163067)
(-0.00328124 0.0289906 -0.000847132)
(-0.0095124 0.0380257 -0.000679505)
(-0.0150871 0.0358767 -0.000468278)
(-0.0195212 0.0318591 -0.000278977)
(-0.0228845 0.027588 -0.000129308)
(-0.025441 0.0233898 -3.30447e-05)
(-0.0273547 0.0194629 2.22995e-05)
(-0.0288337 0.0158601 4.89913e-05)
(-0.0300618 0.0125676 5.98084e-05)
(-0.0312075 0.00953187 6.28312e-05)
(-0.0324351 0.00667628 6.22334e-05)
(-0.0339113 0.0038949 5.95244e-05)
(-0.0357729 0.00102189 6.52881e-05)
(-0.0382184 -0.00224745 9.57253e-05)
(-0.0415253 -0.0064703 0.000119657)
(-0.0456041 -0.0128537 0.000146035)
(-0.0506334 -0.02236 0.000124952)
(-0.0518045 -0.0399962 -0.000202853)
(-0.0505932 -0.0571403 -0.000563034)
(-0.0257051 -0.0774944 -0.00284752)
(-0.00362556 0.0420789 -0.00164729)
(-0.0115424 0.0452402 -0.000946414)
(-0.0192241 0.0413544 -0.000564355)
(-0.0242366 0.0352558 -0.000167375)
(-0.0275436 0.0298352 7.50368e-05)
(-0.0297313 0.0249263 0.000190317)
(-0.0311222 0.0205628 0.000234297)
(-0.0320765 0.0167046 0.000238362)
(-0.0328352 0.0133071 0.000226348)
(-0.0335837 0.0103072 0.000212525)
(-0.0344825 0.0076218 0.000208203)
(-0.035711 0.00511833 0.000223212)
(-0.0375715 0.0026323 0.000277915)
(-0.0404747 -0.000254831 0.000366061)
(-0.0452121 -0.00394975 0.000538828)
(-0.0517736 -0.0101536 0.000930875)
(-0.0632941 -0.0198777 0.00151708)
(-0.0698304 -0.0427047 0.00178535)
(-0.0784043 -0.0706183 0.00183683)
(-0.0387211 -0.123838 -0.00326229)
(-0.0126268 0.043155 -0.00270581)
(-0.0262378 0.060386 -0.00227651)
(-0.0263365 0.0523102 -0.00107857)
(-0.0304737 0.0436582 -0.000274005)
(-0.0313643 0.0353931 0.000277318)
(-0.0316978 0.028154 0.000528085)
(-0.0315362 0.0222588 0.000610478)
(-0.0311917 0.0175523 0.000597975)
(-0.0308476 0.0138027 0.000546833)
(-0.0306765 0.0108083 0.000489136)
(-0.0308778 0.00844555 0.000449113)
(-0.0316516 0.00660077 0.000442904)
(-0.0333817 0.00531701 0.0005211)
(-0.0363078 0.00447103 0.000745462)
(-0.0417808 0.00461428 0.00136603)
(-0.0487406 0.00234582 0.0025165)
(-0.0638572 -0.000593888 0.00485219)
(-0.0694252 -0.0328795 0.00667598)
(-0.0897121 -0.0742756 0.00759392)
(-0.027879 -0.191207 -0.00402965)
(-0.0461411 0.102054 -0.00596755)
(-0.0352003 0.053831 -0.00122047)
(-0.0296251 0.0447478 0.00042666)
(-0.0188504 0.0344624 0.00188271)
(-0.0095868 0.0259877 0.0023616)
(-0.00185243 0.0200781 0.00230091)
(0.00460534 0.0158026 0.00202187)
(0.00974862 0.0125057 0.00167192)
(0.0137397 0.00992802 0.00136005)
(0.0168079 0.00791413 0.00111003)
(0.0190572 0.0064319 0.000951058)
(0.0207848 0.00529998 0.000872576)
(0.0216466 0.00481358 0.000973666)
(0.0230822 0.00424533 0.00130251)
(0.0211277 0.00428207 0.00223333)
(0.0252457 0.000112676 0.00412541)
(0.00958427 -0.0105794 0.00768479)
(0.0245416 -0.0532888 0.0118944)
(-0.0317551 -0.137326 0.0092863)
(0.0215702 -0.264448 -0.011486)
(0.120112 0.11358 -0.00820016)
(0.147694 0.061131 -0.00669317)
(0.217984 0.0403002 -0.00469553)
(0.25678 0.0272827 -0.00221207)
(0.281925 0.0182078 -0.000375528)
(0.299312 0.012235 0.000664299)
(0.311429 0.00853774 0.00113665)
(0.319933 0.00623524 0.00126042)
(0.326031 0.00473623 0.00120328)
(0.330762 0.00366548 0.00102994)
(0.334067 0.00292792 0.000932307)
(0.337517 0.00229052 0.000700608)
(0.338251 0.00174746 0.000863321)
(0.342893 0.00155136 0.000621561)
(0.337465 -0.000243394 0.00142245)
(0.347175 -0.00010887 0.00203972)
(0.319602 -0.0084753 0.00358146)
(0.328762 -0.0139605 0.00701723)
(0.205134 -0.0515938 -0.00211112)
(0.17356 -0.12221 -0.0308589)
(-0.000284228 0.000283775 -1.35846e-05)
(-0.00114029 0.00043255 9.45954e-06)
(-0.00221628 0.00043625 1.54366e-05)
(-0.00319782 0.000411333 1.81755e-05)
(-0.00411067 0.000375292 1.79899e-05)
(-0.00492758 0.00033031 1.59335e-05)
(-0.00562785 0.000277113 1.25743e-05)
(-0.00619355 0.000216442 8.16864e-06)
(-0.00660878 0.000149197 2.87809e-06)
(-0.00685989 7.64743e-05 -3.16799e-06)
(-0.00693615 -4.7274e-07 -9.87475e-06)
(-0.00682999 -8.05716e-05 -1.69972e-05)
(-0.0065375 -0.000161608 -2.43189e-05)
(-0.00605968 -0.000241362 -3.15055e-05)
(-0.00540298 -0.000317214 -3.80918e-05)
(-0.00457998 -0.000386201 -4.3414e-05)
(-0.00361102 -0.000444971 -4.63921e-05)
(-0.00253026 -0.000488338 -4.53628e-05)
(-0.00131994 -0.000494553 -3.9342e-05)
(-0.000336142 -0.000333109 -9.77006e-06)
(-0.000448016 0.00114965 -4.35345e-05)
(-0.00170404 0.00166125 -2.01819e-05)
(-0.0032319 0.00166725 -1.22961e-05)
(-0.00463105 0.00156855 -6.80102e-06)
(-0.00592799 0.0014264 -3.97329e-06)
(-0.00708423 0.00124963 -2.74943e-06)
(-0.00807045 0.00104187 -2.58737e-06)
(-0.00886185 0.000806615 -3.30017e-06)
(-0.00943697 0.000547725 -4.81331e-06)
(-0.00977793 0.000269487 -7.09279e-06)
(-0.00987159 -2.36057e-05 -1.02089e-05)
(-0.00970841 -0.000325691 -1.36722e-05)
(-0.00928386 -0.000629597 -1.76134e-05)
(-0.00860074 -0.000927299 -2.17019e-05)
(-0.00766875 -0.00120932 -2.54755e-05)
(-0.00650586 -0.0014649 -2.82427e-05)
(-0.00514066 -0.00168186 -2.88113e-05)
(-0.00361962 -0.00184118 -2.53857e-05)
(-0.00192615 -0.00186712 -1.73132e-05)
(-0.000512256 -0.00131436 1.44463e-05)
(-0.000487298 0.0022963 -5.55133e-05)
(-0.00184971 0.00323828 -3.20924e-05)
(-0.00350289 0.00324134 -2.34617e-05)
(-0.00501471 0.00304602 -1.68754e-05)
(-0.00641523 0.002766 -1.28901e-05)
(-0.00766347 0.00241874 -1.04299e-05)
(-0.00872847 0.00201197 -8.95332e-06)
(-0.0095842 0.001553 -8.3046e-06)
(-0.0102082 0.0010496 -8.44953e-06)
(-0.0105819 0.000510103 -9.38449e-06)
(-0.0106907 -5.63962e-05 -1.10762e-05)
(-0.0105232 -0.000639143 -1.34244e-05)
(-0.0100744 -0.00122498 -1.63366e-05)
(-0.00934562 -0.00179866 -1.95211e-05)
(-0.00834544 -0.00234228 -2.25168e-05)
(-0.00709128 -0.00283535 -2.46041e-05)
(-0.00561241 -0.00325437 -2.45021e-05)
(-0.00395855 -0.00356281 -2.02644e-05)
(-0.00211061 -0.0036195 -1.13083e-05)
(-0.000562509 -0.0026027 2.20703e-05)
(-0.000517951 0.00346171 -6.63484e-05)
(-0.00196939 0.00485105 -4.25082e-05)
(-0.00373159 0.00485004 -3.31903e-05)
(-0.00534146 0.00455559 -2.56956e-05)
(-0.00683307 0.00413544 -2.07856e-05)
(-0.00816356 0.0036157 -1.73665e-05)
(-0.00930104 0.00300815 -1.49001e-05)
(-0.0102189 0.00232385 -1.32543e-05)
(-0.0108939 0.00157419 -1.24222e-05)
(-0.0113067 0.000771217 -1.24311e-05)
(-0.0114415 -7.16689e-05 -1.33157e-05)
(-0.011285 -0.000940113 -1.49539e-05)
(-0.0108286 -0.00181542 -1.72773e-05)
(-0.010071 -0.00267545 -2.00144e-05)
(-0.00901758 -0.00349379 -2.26933e-05)
(-0.00768323 -0.00423953 -2.45338e-05)
(-0.00609617 -0.00487659 -2.41165e-05)
(-0.00430904 -0.00534872 -1.92592e-05)
(-0.00230066 -0.00544431 -9.3636e-06)
(-0.000613213 -0.00393928 2.66688e-05)
(-0.000559066 0.00471291 -7.76078e-05)
(-0.00212852 0.00658432 -5.2754e-05)
(-0.00403497 0.00657807 -4.26278e-05)
(-0.00577479 0.00617683 -3.42031e-05)
(-0.00738682 0.00560675 -2.84512e-05)
(-0.00882592 0.00490352 -2.4232e-05)
(-0.0100593 0.00408348 -2.09983e-05)
(-0.0110599 0.00316155 -1.86323e-05)
(-0.0118041 0.00215262 -1.71436e-05)
(-0.0122716 0.00107193 -1.65651e-05)
(-0.012445 -6.39838e-05 -1.68966e-05)
(-0.0123082 -0.00123731 -1.83861e-05)
(-0.0118483 -0.0024246 -2.06194e-05)
(-0.011059 -0.00359764 -2.34082e-05)
(-0.00994038 -0.00472126 -2.62777e-05)
(-0.00850246 -0.00575295 -2.83537e-05)
(-0.0067707 -0.0066414 -2.79993e-05)
(-0.00480082 -0.00730595 -2.26548e-05)
(-0.0025694 -0.00745406 -1.15814e-05)
(-0.00068569 -0.00541407 2.8829e-05)
(-0.000613663 0.0060785 -9.09685e-05)
(-0.00233862 0.00847752 -6.45558e-05)
(-0.00443411 0.00846396 -5.34065e-05)
(-0.00634331 0.00794517 -4.38549e-05)
(-0.00811126 0.0072117 -3.71317e-05)
(-0.00969014 0.00631031 -3.204e-05)
(-0.0110465 0.00526258 -2.80231e-05)
(-0.0121534 0.00408756 -2.49794e-05)
(-0.0129873 0.00280338 -2.29371e-05)
(-0.013527 0.0014277 -2.19326e-05)
(-0.0137543 -2.12033e-05 -2.19048e-05)
(-0.013649 -0.00152238 -2.35691e-05)
(-0.0131921 -0.0030504 -2.6073e-05)
(-0.0123705 -0.00457168 -2.93527e-05)
(-0.0111756 -0.00604248 -3.2924e-05)
(-0.00960911 -0.00740731 -3.57866e-05)
(-0.00769025 -0.00859609 -3.59812e-05)
(-0.0054769 -0.00949668 -3.03694e-05)
(-0.0029421 -0.00971966 -1.78966e-05)
(-0.000787145 -0.00708274 2.89308e-05)
(-0.000683526 0.0075913 -0.000107958)
(-0.00260658 0.0105754 -7.95246e-05)
(-0.00494141 0.0105507 -6.70222e-05)
(-0.00706301 0.0098992 -5.59494e-05)
(-0.00902461 0.00898407 -4.78994e-05)
(-0.0107755 0.00786521 -4.16285e-05)
(-0.0122824 0.00657061 -3.65857e-05)
(-0.0135195 0.00512387 -3.26995e-05)
(-0.0144644 0.00354602 -3.0031e-05)
(-0.0150965 0.00185605 -2.86473e-05)
(-0.0153954 7.23924e-05 -2.85498e-05)
(-0.0153378 -0.00178329 -3.04228e-05)
(-0.0148979 -0.00368609 -3.34906e-05)
(-0.0140514 -0.00559932 -3.77433e-05)
(-0.0127767 -0.00747195 -4.26701e-05)
(-0.0110612 -0.00923446 -4.71165e-05)
(-0.00891215 -0.0107935 -4.86631e-05)
(-0.00638596 -0.0119954 -4.32922e-05)
(-0.0034491 -0.0123296 -2.93212e-05)
(-0.000926697 -0.00901639 2.64224e-05)
(-0.000771111 0.00928991 -0.000130199)
(-0.00294145 0.0129303 -9.93107e-05)
(-0.00557274 0.0128873 -8.49429e-05)
(-0.00795371 0.0120817 -7.1685e-05)
(-0.0101486 0.01096 -6.16657e-05)
(-0.0121039 0.0095985 -5.36336e-05)
(-0.013788 0.0080332 -4.70784e-05)
(-0.0151782 0.00629296 -4.19808e-05)
(-0.0162553 0.00440133 -3.84519e-05)
(-0.0170008 0.00237728 -3.66352e-05)
(-0.0173938 0.000237259 -3.6713e-05)
(-0.0174077 -0.00200132 -3.87773e-05)
(-0.0170083 -0.00431657 -4.27505e-05)
(-0.0161565 -0.00667326 -4.86247e-05)
(-0.0148115 -0.00901641 -5.58759e-05)
(-0.0129373 -0.011263 -6.31847e-05)
(-0.0105182 -0.0132917 -6.75246e-05)
(-0.00760062 -0.0148929 -6.35487e-05)
(-0.00413811 -0.015398 -4.83005e-05)
(-0.0011196 -0.0113108 1.95463e-05)
(-0.000880225 0.0112198 -0.000159877)
(-0.00335655 0.0156029 -0.000126072)
(-0.0063506 0.0155288 -0.000109002)
(-0.00904262 0.0145386 -9.24539e-05)
(-0.0115117 0.0131764 -7.93753e-05)
(-0.0137028 0.0115394 -6.8596e-05)
(-0.0155882 0.00967414 -5.97044e-05)
(-0.0171516 0.00761576 -5.27563e-05)
(-0.0183803 0.00538986 -4.79108e-05)
(-0.0192608 0.00301348 -4.53589e-05)
(-0.0197742 0.000497531 -4.53305e-05)
(-0.0198918 -0.00214894 -4.80258e-05)
(-0.01957 -0.00491394 -5.34479e-05)
(-0.0187514 -0.0077706 -6.18697e-05)
(-0.0173673 -0.0106669 -7.29155e-05)
(-0.015345 -0.0135107 -8.51724e-05)
(-0.0126277 -0.016149 -9.49034e-05)
(-0.00923247 -0.0182987 -9.48198e-05)
(-0.00508787 -0.0190746 -7.92881e-05)
(-0.00139321 -0.0141 4.70992e-06)
(-0.00101699 0.0134371 -0.000200279)
(-0.003872 0.0186661 -0.00016296)
(-0.00730752 0.0185382 -0.000141738)
(-0.0103677 0.0173192 -0.000120023)
(-0.0131523 0.0156697 -0.00010205)
(-0.0156068 0.013714 -8.69009e-05)
(-0.0177121 0.011513 -7.43514e-05)
(-0.0194629 0.00910923 -6.45472e-05)
(-0.020858 0.00652997 -5.7672e-05)
(-0.0218935 0.00378784 -5.39361e-05)
(-0.0225565 0.000883956 -5.3635e-05)
(-0.0228194 -0.00218712 -5.71569e-05)
(-0.0226301 -0.00543235 -6.46111e-05)
(-0.0219098 -0.00884458 -7.67867e-05)
(-0.0205527 -0.0123878 -9.37608e-05)
(-0.0184306 -0.0159723 -0.000114318)
(-0.0154161 -0.0194166 -0.000134027)
(-0.0114566 -0.0223449 -0.000143079)
(-0.00643325 -0.0235612 -0.000130075)
(-0.00179873 -0.0175851 -2.63429e-05)
(-0.00119175 0.0160139 -0.000256662)
(-0.0045191 0.0222094 -0.000214831)
(-0.00849151 0.0219889 -0.000186812)
(-0.0119827 0.0204757 -0.000156661)
(-0.015122 0.0184735 -0.000130685)
(-0.0178603 0.0161421 -0.000108531)
(-0.0201936 0.013561 -9.02651e-05)
(-0.0221351 0.0107824 -7.61018e-05)
(-0.0237022 0.00783428 -6.61636e-05)
(-0.0249073 0.00472216 -6.05949e-05)
(-0.0257495 0.0014322 -5.97226e-05)
(-0.0262085 -0.00206337 -6.41247e-05)
(-0.0262278 -0.00580204 -7.41123e-05)
(-0.0257071 -0.00981321 -9.14082e-05)
(-0.0244963 -0.014099 -0.00011713)
(-0.0223885 -0.0185972 -0.000151051)
(-0.0191428 -0.0231171 -0.000188623)
(-0.0145542 -0.0271838 -0.000217478)
(-0.00841931 -0.029133 -0.000213764)
(-0.00244065 -0.0220906 -9.10902e-05)
(-0.0014229 0.0190488 -0.000337863)
(-0.00534831 0.0263465 -0.000289401)
(-0.00997484 0.0259667 -0.000249554)
(-0.0139652 0.0240617 -0.000205146)
(-0.0174918 0.0216145 -0.000165866)
(-0.0205202 0.0188309 -0.000132457)
(-0.0230724 0.0158149 -0.000105365)
(-0.0251902 0.01263 -8.47245e-05)
(-0.0269187 0.009304 -7.035e-05)
(-0.0282961 0.00583194 -6.20732e-05)
(-0.0293425 0.00217955 -6.00639e-05)
(-0.0300541 -0.00171195 -6.50749e-05)
(-0.0303803 -0.00592382 -7.77232e-05)
(-0.030207 -0.0105449 -0.000101174)
(-0.0293383 -0.01565 -0.000138656)
(-0.0274684 -0.0212515 -0.000192682)
(-0.0241903 -0.0272006 -0.000260771)
(-0.0189875 -0.0329671 -0.000330219)
(-0.0115162 -0.0361644 -0.00035119)
(-0.00354558 -0.0281826 -0.000227852)
(-0.00174545 0.022692 -0.000459641)
(-0.006444 0.0312319 -0.000399566)
(-0.0118676 0.0305747 -0.00033779)
(-0.0164278 0.0281288 -0.000268412)
(-0.0203593 0.0251057 -0.000206679)
(-0.0236609 0.0217674 -0.000155267)
(-0.0263952 0.0182485 -0.000114861)
(-0.0286466 0.0146242 -8.50298e-05)
(-0.0305007 0.0109206 -6.46685e-05)
(-0.0320321 0.0071188 -5.27416e-05)
(-0.0332938 0.00315859 -4.87358e-05)
(-0.0343122 -0.00105808 -5.28991e-05)
(-0.0350611 -0.00566555 -6.77842e-05)
(-0.0354336 -0.010842 -9.65626e-05)
(-0.0352049 -0.0167814 -0.000146928)
(-0.0339665 -0.0236507 -0.000227353)
(-0.0311117 -0.0314555 -0.000343151)
(-0.025531 -0.0397733 -0.000491277)
(-0.0166751 -0.0451205 -0.00057382)
(-0.00563559 -0.0369475 -0.000526433)
(-0.00223197 0.0270634 -0.000647959)
(-0.00796236 0.0370123 -0.000563464)
(-0.014347 0.0359112 -0.000461061)
(-0.0195379 0.0327129 -0.000347589)
(-0.0238599 0.0289337 -0.000247835)
(-0.0273784 0.0249055 -0.00016805)
(-0.030216 0.0208002 -0.000108356)
(-0.0325181 0.0167031 -6.6469e-05)
(-0.034424 0.0126347 -3.90608e-05)
(-0.0360578 0.00855859 -2.30772e-05)
(-0.0375191 0.00438615 -1.61607e-05)
(-0.0388778 -2.22816e-05 -1.72417e-05)
(-0.0401638 -0.00486604 -3.09815e-05)
(-0.0413222 -0.0104311 -5.87134e-05)
(-0.0421484 -0.0170839 -0.000115227)
(-0.0421807 -0.0252667 -0.000219144)
(-0.0406609 -0.0353409 -0.000397248)
(-0.0354601 -0.0473983 -0.000684048)
(-0.0258617 -0.0563443 -0.000915827)
(-0.00997649 -0.0506504 -0.00118086)
(-0.00294351 0.0331326 -0.000989539)
(-0.0100379 0.0441612 -0.000828507)
(-0.0176283 0.0421759 -0.00063725)
(-0.0235188 0.0378368 -0.00043864)
(-0.0281728 0.0330438 -0.000272953)
(-0.0317942 0.0281516 -0.000149402)
(-0.0345958 0.0233617 -6.35527e-05)
(-0.0368091 0.0187599 -8.15506e-06)
(-0.038641 0.0143538 2.54224e-05)
(-0.0402751 0.0100839 4.4752e-05)
(-0.0418676 0.00583103 5.51427e-05)
(-0.0435552 0.00140528 6.01734e-05)
(-0.0454582 -0.00345449 5.18092e-05)
(-0.0476358 -0.00907955 4.51292e-05)
(-0.0500215 -0.0160767 1.07096e-05)
(-0.0522515 -0.0253058 -7.96722e-05)
(-0.053668 -0.0376773 -0.000295334)
(-0.0505603 -0.0548282 -0.000766865)
(-0.0427241 -0.0694251 -0.00127851)
(-0.0192656 -0.0735576 -0.00251353)
(-0.00481565 0.0385377 -0.00144042)
(-0.0140581 0.0524146 -0.0012268)
(-0.022355 0.0493579 -0.000867144)
(-0.0287898 0.0436089 -0.000524461)
(-0.0335434 0.0374504 -0.000243293)
(-0.0370474 0.0314058 -5.04899e-05)
(-0.039583 0.0257767 6.80331e-05)
(-0.0414882 0.0206307 0.000132374)
(-0.0430475 0.0159348 0.000164487)
(-0.0445122 0.0115943 0.00018053)
(-0.0461119 0.00747988 0.000191085)
(-0.0480569 0.00341686 0.000202718)
(-0.0505153 -0.000840786 0.000231964)
(-0.0537716 -0.00578317 0.000300747)
(-0.0581354 -0.0121471 0.000369214)
(-0.0634839 -0.0214134 0.000431636)
(-0.0700455 -0.0350956 0.000397078)
(-0.0716019 -0.0594606 -0.000112561)
(-0.0704592 -0.0836829 -0.000836781)
(-0.0345054 -0.114677 -0.00427655)
(-0.00480147 0.0548527 -0.0025899)
(-0.0161945 0.0610593 -0.00165652)
(-0.0282102 0.056149 -0.00105178)
(-0.0355055 0.0478352 -0.000390585)
(-0.0402661 0.0403367 4.23781e-05)
(-0.0432383 0.0334334 0.000284528)
(-0.0449914 0.0272678 0.000401637)
(-0.0461123 0.0218116 0.000441319)
(-0.0469779 0.0170037 0.000444754)
(-0.0478709 0.0127379 0.000439633)
(-0.0490236 0.00887638 0.000449632)
(-0.0506777 0.00521079 0.000496164)
(-0.0532438 0.00149413 0.000614381)
(-0.057207 -0.00283949 0.000804958)
(-0.0633626 -0.0082473 0.00114423)
(-0.0717648 -0.0169925 0.0017715)
(-0.0859641 -0.0304997 0.0026059)
(-0.0926894 -0.0619967 0.00289028)
(-0.101975 -0.103054 0.00254061)
(-0.0408141 -0.185179 -0.00513461)
(-0.0140164 0.0524523 -0.00410923)
(-0.0343283 0.0822792 -0.00359987)
(-0.0374092 0.0716404 -0.00188916)
(-0.044626 0.0600852 -0.000635721)
(-0.0462453 0.0486355 0.000268531)
(-0.0465776 0.038471 0.000735875)
(-0.0459152 0.0301497 0.000934305)
(-0.0449326 0.0234668 0.000968181)
(-0.043991 0.0181388 0.000926613)
(-0.0433752 0.0138639 0.000866027)
(-0.0433648 0.0104528 0.000831981)
(-0.0441898 0.00771124 0.00085832)
(-0.0463133 0.00569332 0.00102608)
(-0.0498347 0.00425963 0.0014305)
(-0.0563379 0.00402045 0.00240242)
(-0.063525 0.000824073 0.00410022)
(-0.0794535 -0.00460002 0.00726909)
(-0.0776751 -0.0476089 0.00965293)
(-0.0974274 -0.112699 0.0103191)
(-0.00573237 -0.268698 -0.00667583)
(-0.0693003 0.118573 -0.00803447)
(-0.0554992 0.0701482 -0.0021437)
(-0.052603 0.0611384 3.00729e-05)
(-0.0370512 0.0479975 0.00214096)
(-0.0226081 0.0366128 0.00298101)
(-0.00963778 0.0283046 0.00309303)
(0.00158236 0.0221256 0.00285424)
(0.010744 0.0173147 0.00245941)
(0.0179825 0.013546 0.00207747)
(0.0236029 0.0105891 0.00175508)
(0.0277335 0.00841951 0.00155336)
(0.031006 0.0066833 0.00147071)
(0.0328235 0.00593233 0.00166171)
(0.0357937 0.00494021 0.00218681)
(0.0346148 0.00520233 0.00357077)
(0.0439399 0.00018082 0.00622318)
(0.0306705 -0.0118971 0.0110701)
(0.0656986 -0.0634646 0.0166491)
(0.0076267 -0.174649 0.013504)
(0.0737131 -0.326278 -0.0154233)
(0.126654 0.142447 -0.0110943)
(0.162672 0.0857785 -0.00940184)
(0.242391 0.060508 -0.00702446)
(0.293374 0.043465 -0.00382074)
(0.329779 0.0307444 -0.00120478)
(0.357267 0.021527 0.000459861)
(0.37815 0.0151859 0.00137229)
(0.393934 0.0109288 0.00174774)
(0.405714 0.00807172 0.00180664)
(0.415133 0.00602682 0.00162708)
(0.421446 0.00467721 0.0015359)
(0.428607 0.00355332 0.00118948)
(0.429438 0.00265069 0.0014568)
(0.439683 0.0025033 0.00110982)
(0.429978 8.20061e-05 0.00213876)
(0.451218 0.00132151 0.00313372)
(0.416019 -0.00806368 0.00452099)
(0.438804 -0.0130421 0.00881876)
(0.316681 -0.0478025 0.00085911)