/*--------------------------------*- C++ -*----------------------------------*\
  =========                 |
  \\      /  F ield         | OpenFOAM: The Open Source CFD Toolbox
   \\    /   O peration     | Website:  https://openfoam.org
    \\  /    A nd           | Version:  10
     \\/     M anipulation  |
\*---------------------------------------------------------------------------*/
FoamFile
{
    format      ascii;
    class       volScalarField;
    location    "4.35";
    object      p;
}
// * * * * * * * * * * * * * * * * * * * * * * * * * * * * * * * * * * * * * //

dimensions      [0 2 -2 0 0 0 0];

internalField   nonuniform List<scalar> 
8000
(
-3.62519e-06
-1.74093e-05
1.11831e-05
6.69397e-05
0.000155364
0.000277101
0.000432584
0.000621789
0.000843736
0.00109623
0.00137537
0.00167511
0.00198679
0.00229898
0.00259791
0.00286789
0.00309244
0.00325607
0.00335585
0.00335886
6.13759e-06
-7.53187e-06
2.20204e-05
7.64535e-05
0.000162419
0.000280869
0.000432518
0.00061763
0.000835562
0.0010844
0.00136052
0.00165791
0.00196835
0.00228098
0.00258169
0.00285453
0.0030825
0.00324958
0.00335357
0.00335584
-3.25093e-05
-4.91422e-05
-2.08176e-05
3.15201e-05
0.000115165
0.000231269
0.000380914
0.000564842
0.000782978
0.001034
0.00131485
0.00162045
0.00194286
0.00227057
0.00258904
0.00288103
0.00312743
0.00330933
0.00342357
0.00342413
-0.000106162
-0.000125391
-9.88626e-05
-4.94118e-05
3.10367e-05
0.000143974
0.000291068
0.000473812
0.000693011
0.000948337
0.00123775
0.00155686
0.00189851
0.00225168
0.00260065
0.00292591
0.00320468
0.0034131
0.00354593
0.00354737
-0.000220927
-0.000243137
-0.000219084
-0.000173341
-9.69316e-05
1.20704e-05
0.000156091
0.000337625
0.000558693
0.00082038
0.00112216
0.00146103
0.00183088
0.00222094
0.00261467
0.00298981
0.00331854
0.00356903
0.00373173
0.00373668
-0.000378124
-0.000403969
-0.000383172
-0.00034227
-0.000271269
-0.000167744
-2.83679e-05
0.000150588
0.000372722
0.000641023
0.00095717
0.00132049
0.00172603
0.00216434
0.00261901
0.00306431
0.00346567
0.00377965
0.00398851
0.00400152
-0.000579098
-0.000609398
-0.000592806
-0.000558297
-0.000494759
-0.000399267
-0.000267499
-9.43024e-05
0.000125826
0.00039831
0.000727722
0.00111658
0.00156384
0.00206094
0.00259397
0.00313371
0.00363747
0.00404588
0.00432569
0.0043564
-0.000825514
-0.000861219
-0.000849938
-0.000823786
-0.000770484
-0.000686704
-0.000567135
-0.000405098
-0.000192934
7.77147e-05
0.000415228
0.000826718
0.00131571
0.00188016
0.00250838
0.00317038
0.0038152
0.0043632
0.00475323
0.00482326
-0.0011194
-0.00116151
-0.00115666
-0.0011411
-0.00110142
-0.00103413
-0.00093309
-0.000790155
-0.000595446
-0.000337354
-2.93704e-06
0.000421025
0.000945575
0.00157692
0.0023131
0.003126
0.00396017
0.00471341
0.00527701
0.00543625
-0.00146339
-0.00151284
-0.00151526
-0.00151245
-0.00149009
-0.00144492
-0.00137033
-0.00125706
-0.00109325
-0.000864113
-0.000551762
-0.000135465
0.000407046
0.00109642
0.00193542
0.00291808
0.00399561
0.00504636
0.00588549
0.00624447
-0.00186139
-0.00191874
-0.00192839
-0.0019398
-0.00193813
-0.00192097
-0.00188185
-0.00181103
-0.00169546
-0.00151799
-0.00125655
-0.000883297
-0.000364614
0.000335969
0.00125542
0.00240289
0.00377252
0.00524107
0.00652176
0.00731485
-0.0023197
-0.00238459
-0.00239954
-0.00242489
-0.0024459
-0.00246186
-0.00246723
-0.00245277
-0.00240558
-0.00230805
-0.00213623
-0.0018575
-0.00142795
-0.000790864
0.000118809
0.00136226
0.00303127
0.00502597
0.0069718
0.00872297
-0.00284959
-0.00291924
-0.00293389
-0.00296937
-0.00301203
-0.00306386
-0.00312113
-0.00317609
-0.00321779
-0.00323112
-0.0031949
-0.00307858
-0.00283692
-0.0024021
-0.00167455
-0.000494962
0.00126521
0.00378561
0.00669076
0.0102838
-0.003472
-0.00353595
-0.00353659
-0.00357221
-0.00363158
-0.00371912
-0.0038324
-0.00396614
-0.00411349
-0.00426535
-0.00440919
-0.00452628
-0.00458692
-0.00453757
-0.00428499
-0.00364596
-0.0022705
0.000486835
0.00432458
0.0111919
-0.0042276
-0.00427894
-0.00425066
-0.0042743
-0.00433254
-0.00443823
-0.00459533
-0.00480363
-0.00506199
-0.00537051
-0.00573163
-0.00615086
-0.00663804
-0.00719215
-0.00779628
-0.00828552
-0.00825448
-0.00582008
-0.00088791
0.0107247
-0.00526381
-0.00509139
-0.00495479
-0.00489487
-0.00493617
-0.005075
-0.00530042
-0.00560367
-0.00598407
-0.00645032
-0.00702536
-0.00774894
-0.00869349
-0.00992907
-0.0116018
-0.0134613
-0.0154417
-0.0136254
-0.00870967
0.00884272
-0.00625135
-0.00637925
-0.00612318
-0.00606335
-0.00602432
-0.0060867
-0.00625933
-0.00655096
-0.00696651
-0.00751963
-0.0082493
-0.00921389
-0.0105713
-0.0124273
-0.0152145
-0.0184107
-0.0234204
-0.0236323
-0.0192952
0.0070116
-0.010061
-0.00725968
-0.00671716
-0.00615302
-0.00603242
-0.00614794
-0.00644843
-0.00688001
-0.00743901
-0.00812577
-0.00900811
-0.0101034
-0.0117267
-0.013802
-0.0174209
-0.0213227
-0.0288028
-0.030071
-0.0250515
0.0157371
-0.00988802
-0.0107352
-0.0094093
-0.00905127
-0.00848466
-0.00816867
-0.00808276
-0.0082147
-0.00855839
-0.00909182
-0.0098633
-0.0108935
-0.0124869
-0.0146023
-0.0184601
-0.0228289
-0.0305255
-0.0282811
-0.0150768
0.0537627
-0.0341459
-0.00879428
-0.0073815
-0.00611395
-0.00554857
-0.00562248
-0.00604805
-0.00659866
-0.00730602
-0.00809145
-0.00915749
-0.0103391
-0.0121304
-0.0139984
-0.0168343
-0.0178079
-0.0170009
0.00187323
0.044902
0.156229
-1.42622e-06
-2.41055e-05
3.3807e-06
5.85344e-05
0.000147256
0.000269938
0.000426663
0.000617462
0.000841492
0.00109652
0.00137857
0.00168142
0.00199675
0.00231287
0.00261578
0.00288942
0.00311659
0.00328051
0.00337853
0.00336839
1.91962e-05
-3.72935e-06
2.54392e-05
7.91243e-05
0.000164775
0.000283083
0.000434675
0.000619861
0.000838057
0.00108741
0.00136433
0.00166278
0.0019749
0.00228937
0.00259212
0.00286698
0.0030963
0.00326302
0.00336582
0.00335401
-1.60677e-05
-4.34945e-05
-1.5591e-05
3.58325e-05
0.000119032
0.000234835
0.000384255
0.000568094
0.000786338
0.00103774
0.00131929
0.00162606
0.00194998
0.00227968
0.00260049
0.00289489
0.00314299
0.00332459
0.00343756
0.0034214
-8.68635e-05
-0.00011782
-9.16832e-05
-4.32308e-05
3.66809e-05
0.000149197
0.000295922
0.000478422
0.00069759
0.000953192
0.00124324
0.00156331
0.00190704
0.00226257
0.00261436
0.00294255
0.00322349
0.00343174
0.00356316
0.00354533
-0.000199434
-0.000234249
-0.000210536
-0.000165802
-8.99185e-05
1.8676e-05
0.00016235
0.000343679
0.000564788
0.000826877
0.00112947
0.00146919
0.00184208
0.00223529
0.00263281
0.003012
0.00334385
0.00359448
0.00375554
0.00373804
-0.000354416
-0.000393867
-0.000373322
-0.000333388
-0.000262841
-0.000159635
-2.04921e-05
0.000158413
0.000380799
0.000649821
0.000967407
0.00133365
0.00174137
0.00218411
0.0026442
0.00309545
0.0035017
0.00381661
0.00402361
0.00401003
-0.000552772
-0.000597878
-0.000581409
-0.000547806
-0.000484626
-0.000389336
-0.000257645
-8.42843e-05
0.000136394
0.000410015
0.000741425
0.00113342
0.00158439
0.00208852
0.00262965
0.00317863
0.00369067
0.00410198
0.00437998
0.00437909
-0.000795987
-0.000847951
-0.000836631
-0.000811316
-0.000758278
-0.000674581
-0.000554919
-0.000392471
-0.000179398
9.29052e-05
0.000433155
0.000848804
0.00134385
0.00191844
0.00255919
0.00323626
0.00389586
0.00445181
0.00484087
0.00487509
-0.00108593
-0.00114604
-0.00114097
-0.00112619
-0.00108671
-0.00101942
-0.000918137
-0.00077455
-0.000578539
-0.000318154
2.00669e-05
0.000449965
0.000982879
0.00163004
0.00238525
0.00322333
0.00408452
0.00485751
0.00542426
0.00555064
-0.00142501
-0.00149457
-0.00149654
-0.00149452
-0.00147237
-0.00142719
-0.0013523
-0.0012382
-0.00107272
-0.000840605
-0.000523154
-9.83455e-05
0.000458401
0.00116256
0.00203409
0.00306082
0.00418834
0.0052849
0.00614433
0.00650771
-0.00181671
-0.0018968
-0.00190576
-0.00191807
-0.00191676
-0.00189976
-0.00186044
-0.00178879
-0.00167134
-0.00149033
-0.0012226
-0.000838489
-0.000302084
0.000423962
0.00138904
0.00261017
0.00406773
0.00563445
0.0069869
0.00793241
-0.00226658
-0.00235761
-0.00237161
-0.00239821
-0.00242001
-0.0024366
-0.00244219
-0.00242722
-0.0023783
-0.00227702
-0.00209807
-0.00180623
-0.00135277
-0.000672365
0.000297659
0.00164962
0.00344702
0.00563502
0.00779835
0.0101626
-0.0027843
-0.00288522
-0.00289887
-0.00293639
-0.0029806
-0.00303388
-0.00309219
-0.0031475
-0.00318825
-0.00319845
-0.00315535
-0.0030255
-0.00275836
-0.00227881
-0.00148284
-0.000231912
0.00173503
0.00458235
0.0078844
0.0129172
-0.00338606
-0.00348709
-0.00348568
-0.00352502
-0.00358887
-0.00368111
-0.00379833
-0.00393462
-0.00408276
-0.00423294
-0.00437103
-0.00447589
-0.00451393
-0.00442752
-0.00412638
-0.00345034
-0.00206614
0.000673831
0.00431428
0.0135124
-0.00410914
-0.00422177
-0.00419275
-0.00422553
-0.00428969
-0.00440071
-0.00456232
-0.00477415
-0.00503491
-0.00534373
-0.00570188
-0.00611582
-0.00659393
-0.00715156
-0.00783796
-0.00866953
-0.00937429
-0.00786176
-0.00519858
0.0091711
-0.00506589
-0.00495679
-0.0048296
-0.00478503
-0.00484732
-0.00500558
-0.00524813
-0.00556506
-0.00595634
-0.00642905
-0.00700638
-0.00772799
-0.00867627
-0.00996927
-0.0119023
-0.0146645
-0.0186119
-0.0193169
-0.0186643
0.0011073
-0.00585359
-0.00620843
-0.00596175
-0.00596472
-0.00595847
-0.00605056
-0.00624823
-0.0065549
-0.00698058
-0.00753903
-0.00826801
-0.00922796
-0.0105873
-0.0125142
-0.015691
-0.0200337
-0.0279233
-0.0320477
-0.0329304
-0.00352324
-0.00946442
-0.00682983
-0.00632792
-0.00583739
-0.00582656
-0.00603307
-0.00640729
-0.00688248
-0.00747122
-0.00816847
-0.00904415
-0.010118
-0.0117077
-0.0137461
-0.0177308
-0.0226031
-0.0321854
-0.0373286
-0.037003
0.0115381
-0.00707574
-0.00960862
-0.00870656
-0.00876145
-0.00842433
-0.00826297
-0.00826611
-0.0084447
-0.00880956
-0.009332
-0.0100754
-0.0109989
-0.0125185
-0.014466
-0.0185323
-0.023606
-0.0322005
-0.0322622
-0.017338
0.0615558
-0.0317396
-0.0068257
-0.00575708
-0.00506533
-0.00488199
-0.00516349
-0.00575543
-0.00640259
-0.00721177
-0.00800787
-0.00911545
-0.0102128
-0.0120007
-0.0139368
-0.0167771
-0.0181475
-0.0165467
0.0043868
0.0588768
0.187485
4.46273e-06
-2.17906e-05
4.96843e-06
5.95701e-05
0.000148431
0.00027138
0.000428797
0.000620632
0.000846022
0.00110281
0.0013871
0.00169278
0.00201119
0.00233072
0.00263708
0.00291387
0.00314328
0.00330774
0.0034049
0.00338858
3.02832e-05
3.09809e-06
3.18035e-05
8.47519e-05
0.000170073
0.000288257
0.00043995
0.000625492
0.000844347
0.00109472
0.00137309
0.00167347
0.00198799
0.00230515
0.00261072
0.00288821
0.00311942
0.00328656
0.00338882
0.00337107
-2.39275e-06
-3.47664e-05
-7.34623e-06
4.32351e-05
0.000125967
0.000241511
0.000390879
0.00057493
0.000793727
0.0010461
0.00132914
0.00163797
0.0019645
0.00229725
0.00262138
0.00291899
0.00316951
0.00335184
0.00346435
0.00344128
-7.05259e-05
-0.000106895
-8.12456e-05
-3.37271e-05
4.56206e-05
0.000157774
0.00030435
0.00048699
0.00070668
0.000963296
0.00125497
0.00157748
0.00192422
0.00228348
0.00263944
0.00297179
0.00325605
0.00346564
0.00359686
0.00357115
-0.000180607
-0.00022126
-0.000198016
-0.000154262
-7.89741e-05
2.92385e-05
0.00017277
0.000354295
0.000576059
0.000839408
0.00114407
0.0014872
0.00186353
0.00226163
0.00266484
0.00304991
0.00338675
0.00363985
0.00380127
0.00377463
-0.000332882
-0.000378618
-0.000358496
-0.000319565
-0.000249611
-0.000146766
-7.7012e-06
0.000171532
0.000394804
0.000665447
0.000985466
0.00135416
0.00176842
0.00221819
0.00268641
0.00314637
0.0035605
0.00388003
0.00408854
0.0040643
-0.000528011
-0.000579911
-0.0005638
-0.000531219
-0.000468638
-0.000373692
-0.000242013
-6.81683e-05
0.000153694
0.000429477
0.000764384
0.00116198
0.00161937
0.00213305
0.00268592
0.00324815
0.003773
0.00419304
0.00447493
0.00446209
-0.000767226
-0.000826584
-0.00081555
-0.000791312
-0.000738923
-0.000655609
-0.000535941
-0.000372888
-0.000158341
0.000116673
0.000461355
0.00088375
0.00138857
0.00197619
0.00263395
0.00333138
0.00401211
0.00458463
0.00498244
0.00500545
-0.00105207
-0.00112032
-0.00111547
-0.0011019
-0.00106322
-0.000996474
-0.000895294
-0.000751102
-0.000553432
-0.000289854
5.37517e-05
0.000492187
0.00103875
0.00170325
0.00248288
0.00335219
0.00424816
0.00505238
0.00563776
0.00576155
-0.00138453
-0.00146314
-0.00146533
-0.00146477
-0.00144376
-0.0013995
-0.00132505
-0.00121059
-0.00104351
-0.000807937
-0.000484309
-4.97076e-05
0.000519913
0.00125075
0.00215713
0.00323096
0.00441473
0.00556872
0.00646846
0.00685701
-0.0017674
-0.00185769
-0.00186695
-0.00188123
-0.00188169
-0.00186633
-0.00182819
-0.00175684
-0.00163829
-0.00145401
-0.00117962
-0.000783468
-0.00022588
0.000529954
0.00153817
0.00282536
0.00436939
0.0060382
0.00747965
0.00852725
-0.00220515
-0.00230785
-0.00232238
-0.00235185
-0.00237655
-0.00239607
-0.00240417
-0.00239083
-0.00234207
-0.00223863
-0.00205387
-0.00175042
-0.00127624
-0.000563055
0.00046391
0.00189531
0.00380935
0.00616597
0.00851644
0.0110901
-0.0027057
-0.00282043
-0.00283519
-0.00287713
-0.00292604
-0.00298429
-0.00304729
-0.00310651
-0.00314978
-0.00316026
-0.00311402
-0.00297571
-0.00269185
-0.00218361
-0.00134416
-2.98491e-05
0.0020563
0.0051273
0.00871805
0.0140241
-0.0032813
-0.00339795
-0.0033984
-0.00344472
-0.00351684
-0.00361804
-0.00374403
-0.00388825
-0.00404283
-0.00419726
-0.00433691
-0.0044397
-0.0044718
-0.004376
-0.00407174
-0.00343033
-0.0021213
0.000674875
0.00452224
0.0138869
-0.00396646
-0.00410238
-0.00407685
-0.00412232
-0.00419928
-0.00432373
-0.00449857
-0.0047232
-0.00499577
-0.00531485
-0.00568316
-0.00610524
-0.00659714
-0.00718816
-0.0079759
-0.00907872
-0.0102694
-0.00917579
-0.00640499
0.00764911
-0.00486017
-0.00477663
-0.00465681
-0.00462898
-0.00471273
-0.00489411
-0.00515997
-0.00549996
-0.0059129
-0.00640503
-0.00699994
-0.00773982
-0.00871852
-0.0100853
-0.0122364
-0.0155468
-0.0206301
-0.0224737
-0.0215254
-0.00229131
-0.00551375
-0.00592325
-0.00569522
-0.00574253
-0.00577291
-0.00590302
-0.00613695
-0.0064822
-0.00694471
-0.00753304
-0.00828484
-0.00926529
-0.0106558
-0.0126676
-0.0161297
-0.0209768
-0.0301336
-0.0353791
-0.0351933
-0.0056329
-0.00907081
-0.00646757
-0.00595149
-0.00549041
-0.00553456
-0.00580486
-0.00623692
-0.00678
-0.00742533
-0.0081639
-0.00906597
-0.0101535
-0.0117497
-0.0138867
-0.0182167
-0.0229796
-0.0328432
-0.0378406
-0.0336608
0.0133303
-0.005989
-0.0087684
-0.00798745
-0.00816826
-0.0079352
-0.00787874
-0.00798562
-0.00827735
-0.0087387
-0.0093326
-0.0101211
-0.0110487
-0.012564
-0.0145321
-0.0186671
-0.0239341
-0.0318244
-0.0298565
-0.0101578
0.0679507
-0.0309983
-0.00600708
-0.00493916
-0.0043666
-0.00432034
-0.00471458
-0.00541213
-0.00614983
-0.00704813
-0.00790314
-0.00905488
-0.010203
-0.0119632
-0.0140308
-0.0167312
-0.0180611
-0.0153554
0.00858901
0.0688993
0.199975
1.13183e-05
-1.70469e-05
9.13665e-06
6.3251e-05
0.000152019
0.000275312
0.000433356
0.000626168
0.000852917
0.00111148
0.00139799
0.00170633
0.00202775
0.00235054
0.00266018
0.00293995
0.00317158
0.00333696
0.00343404
0.0034147
3.98498e-05
1.05141e-05
3.8778e-05
9.11759e-05
0.000176271
0.000294492
0.000446478
0.000632613
0.000852417
0.00110415
0.00138433
0.00168699
0.00200422
0.00232441
0.00263312
0.00291352
0.00314694
0.00331507
0.00341741
0.00339653
9.06451e-06
-2.57295e-05
1.22166e-06
5.1174e-05
0.000133605
0.000249097
0.000398674
0.000583252
0.000802963
0.00105672
0.00134166
0.00165297
0.00198252
0.00231875
0.00264659
0.00294776
0.00320111
0.00338486
0.0034977
0.00347104
-5.68485e-05
-9.58405e-05
-7.06739e-05
-2.3849e-05
5.51327e-05
0.000167165
0.000313892
0.000497031
0.000717661
0.000975766
0.00126958
0.00159501
0.00194537
0.00230894
0.00266964
0.00300672
0.00329494
0.00350679
0.00363889
0.00360918
-0.000164644
-0.000208124
-0.000185371
-0.000142354
-6.7458e-05
4.06211e-05
0.000184323
0.00036642
0.000589285
0.000854416
0.00116171
0.00150852
0.00188943
0.0022932
0.0027029
0.00309469
0.0034375
0.00369446
0.00385776
0.00382678
-0.00031433
-0.000363124
-0.000343495
-0.000305333
-0.000235781
-0.000133054
6.24003e-06
0.00018618
0.000410804
0.000683653
0.00100697
0.00138044
0.0018007
0.00225823
0.00273563
0.00320551
0.00362898
0.00395521
0.00416752
0.00413883
-0.000506337
-0.000561572
-0.000545955
-0.000514191
-0.000452035
-0.000357207
-0.000225243
-5.05457e-05
0.000172962
0.000451471
0.000790507
0.00119387
0.00165964
0.00218405
0.00275005
0.00332716
0.00386691
0.00429876
0.00458812
0.00457155
-0.000741663
-0.000804698
-0.000794178
-0.000770844
-0.000718958
-0.000635822
-0.000515878
-0.000351879
-0.00013542
0.000142859
0.000492655
0.000922555
0.00143816
0.00204041
0.0027169
0.0034367
0.00414136
0.00473492
0.00514719
0.00516978
-0.00102157
-0.00109391
-0.00108963
-0.00107714
-0.00103914
-0.00097276
-0.000871455
-0.000726374
-0.000526678
-0.000259437
9.01235e-05
0.000537609
0.00109764
0.00178196
0.00258786
0.00349035
0.00442445
0.00526613
0.00587966
0.00601341
-0.00134764
-0.00143084
-0.00143373
-0.00143456
-0.00141458
-0.00137109
-0.00129692
-0.0011819
-0.00101299
-0.000773663
-0.000443499
1.52748e-06
0.000585985
0.00134312
0.00228479
0.00340615
0.00464915
0.00586856
0.00682474
0.0072505
-0.00172206
-0.00181757
-0.00182777
-0.00184395
-0.00184607
-0.00183221
-0.00179513
-0.00172401
-0.00160435
-0.00141686
-0.001136
-0.000728252
-0.000150669
0.000632328
0.00168333
0.00303348
0.00466456
0.00644364
0.00799926
0.00914961
-0.00214833
-0.00225705
-0.00227293
-0.00230514
-0.00233256
-0.0023548
-0.00236531
-0.00235364
-0.00230531
-0.00220028
-0.00201076
-0.00169746
-0.00120561
-0.000464389
0.000608814
0.00211143
0.00413807
0.00666612
0.00923991
0.0120233
-0.00263288
-0.00275476
-0.0027716
-0.00281767
-0.00287092
-0.00293376
-0.00300128
-0.00306453
-0.00311088
-0.00312287
-0.00307571
-0.00293284
-0.00263885
-0.00211255
-0.0012437
0.000117775
0.00230556
0.00558717
0.00956555
0.0152161
-0.00318509
-0.00331014
-0.00331361
-0.00336613
-0.00344531
-0.00355435
-0.00368837
-0.0038403
-0.00400194
-0.00416253
-0.00430717
-0.00441425
-0.00445057
-0.004362
-0.00407778
-0.00348485
-0.00224936
0.000574168
0.00487973
0.0146051
-0.00383729
-0.0039858
-0.00396538
-0.00402147
-0.0041093
-0.00424542
-0.0044322
-0.00466883
-0.00495333
-0.00528458
-0.00566584
-0.00610572
-0.00662525
-0.00727044
-0.00818223
-0.00956038
-0.011293
-0.0106587
-0.00750075
0.0068716
-0.00467916
-0.00460984
-0.00449768
-0.00448342
-0.00458373
-0.00478398
-0.00506991
-0.00543007
-0.00586297
-0.00637584
-0.00699298
-0.00776136
-0.00878879
-0.0102526
-0.0126376
-0.0165058
-0.0227432
-0.0256656
-0.0244706
-0.0045934
-0.00524576
-0.00569168
-0.005473
-0.00555064
-0.00560759
-0.00576637
-0.00602932
-0.00640285
-0.00689251
-0.00750789
-0.0082874
-0.00929989
-0.0107434
-0.0128522
-0.0165767
-0.0220667
-0.0323887
-0.0386557
-0.0384614
-0.00700913
-0.00872006
-0.00614903
-0.0056369
-0.00520271
-0.00528106
-0.00559422
-0.00607501
-0.00665907
-0.00734569
-0.00812172
-0.00905678
-0.010171
-0.0118014
-0.0139918
-0.0182435
-0.0240691
-0.0342578
-0.0393739
-0.0347163
0.0150152
-0.0053757
-0.00830585
-0.0075338
-0.00778258
-0.00760266
-0.00760589
-0.00777346
-0.00811967
-0.00863393
-0.00927507
-0.0101022
-0.011051
-0.0125964
-0.014589
-0.0188194
-0.0243454
-0.0322653
-0.029627
-0.00867906
0.0731016
-0.0303708
-0.00537004
-0.00431484
-0.00380431
-0.00384055
-0.0043153
-0.00509429
-0.00590541
-0.00687346
-0.00778724
-0.00898648
-0.0101814
-0.0119617
-0.0140889
-0.0168238
-0.0181625
-0.0152297
0.0102331
0.072952
0.208252
1.85283e-05
-1.05609e-05
1.53736e-05
6.92392e-05
0.00015799
0.000281524
0.000440072
0.000633693
0.000861604
0.00112173
0.00141022
0.00172096
0.00204515
0.00237096
0.00268367
0.00296627
0.00320016
0.00336689
0.00346452
0.00344415
4.82164e-05
1.80556e-05
4.60814e-05
9.81936e-05
0.000183223
0.000301599
0.000453989
0.000640826
0.000861681
0.00111486
0.00139694
0.00170195
0.00202193
0.00234516
0.00265702
0.0029404
0.00317625
0.00334589
0.00344898
0.00342715
1.86961e-05
-1.70232e-05
9.66816e-06
5.92909e-05
0.000141621
0.000257232
0.00040719
0.000592469
0.000813268
0.00106856
0.00135556
0.0016695
0.00200218
0.00234195
0.00267357
0.00297841
0.00323486
0.00342066
0.0035346
0.00350692
-4.55217e-05
-8.5523e-05
-6.0633e-05
-1.41788e-05
6.46666e-05
0.00017679
0.00032389
0.000507758
0.000729567
0.000989395
0.00128558
0.0016141
0.00196827
0.00233629
0.00270186
0.00304383
0.00333638
0.00355129
0.00368518
0.00365447
-0.000151371
-0.00019595
-0.000173489
-0.000130876
-5.61359e-05
5.20328e-05
0.000196139
0.000379058
0.000603281
0.000870449
0.00118061
0.00153129
0.00191703
0.00232665
0.00274297
0.00314169
0.00349089
0.00375267
0.00391902
0.00388716
-0.000298748
-0.000348741
-0.000329419
-0.000291697
-0.00022232
-0.000119499
2.02493e-05
0.000201133
0.000427356
0.000702659
0.00102954
0.00140798
0.00183443
0.00229983
0.00278648
0.0032664
0.00369963
0.00403368
0.00425123
0.00422213
-0.000487937
-0.000544484
-0.000529202
-0.000497935
-0.000435996
-0.000341096
-0.000208652
-3.28973e-05
0.000192461
0.000473888
0.000817214
0.00122656
0.00170068
0.00223576
0.00281474
0.00340657
0.00396143
0.0044062
0.0047047
0.00468902
-0.000719753
-0.000784234
-0.000774101
-0.000751367
-0.0006998
-0.000616684
-0.000496311
-0.000331217
-0.000112712
0.000168938
0.000523894
0.00096125
0.00148739
0.00210375
0.00279823
0.00353951
0.00426754
0.00488273
0.00531115
0.00533796
-0.000995212
-0.00106916
-0.00106537
-0.00105365
-0.00101618
-0.000950042
-0.000848512
-0.000702475
-0.000500736
-0.000229889
0.000125446
0.00058162
0.00115452
0.00185711
0.00268739
0.00362065
0.00459052
0.00546846
0.00611103
0.00625705
-0.00131555
-0.00140055
-0.00140409
-0.001406
-0.00138692
-0.0013441
-0.00127016
-0.00115462
-0.000984022
-0.000741262
-0.000405115
4.95112e-05
0.000648688
0.00142796
0.00240098
0.0035647
0.00486111
0.00614057
0.00715066
0.00760659
-0.00168244
-0.00177998
-0.00179111
-0.00180886
-0.00181248
-0.00180002
-0.00176398
-0.00169324
-0.00157282
-0.00138276
-0.00109659
-0.000679376
-8.64303e-05
0.000720363
0.00180809
0.00321241
0.00491945
0.0067958
0.00845324
0.00967258
-0.00209865
-0.0022097
-0.00222693
-0.00226145
-0.00229129
-0.00231606
-0.00232894
-0.00231917
-0.00227178
-0.00216615
-0.00197357
-0.00165337
-0.00114865
-0.000385717
0.000723113
0.00228546
0.00440796
0.00708366
0.00984644
0.0127536
-0.00256954
-0.00269415
-0.00271298
-0.00276246
-0.00281948
-0.00288648
-0.00295832
-0.00302577
-0.00307579
-0.00309056
-0.0030448
-0.00290111
-0.00260279
-0.00206647
-0.00117875
0.000219582
0.00249108
0.005955
0.0102732
0.0161047
-0.00310274
-0.00323098
-0.00323721
-0.00329458
-0.00337947
-0.00349513
-0.00363635
-0.00379579
-0.00396499
-0.00413319
-0.00428586
-0.00440161
-0.00444861
-0.00437509
-0.00411544
-0.0035601
-0.00236695
0.000519253
0.0053221
0.0152278
-0.00372974
-0.00388305
-0.00386664
-0.00393025
-0.00402637
-0.00417191
-0.00436907
-0.00461693
-0.00491366
-0.00525856
-0.00565585
-0.00611734
-0.00666923
-0.00736889
-0.00838562
-0.00997326
-0.0121231
-0.0117068
-0.00789105
0.00670377
-0.00453488
-0.00447082
-0.00436398
-0.00435883
-0.00447025
-0.00468407
-0.00498554
-0.00536276
-0.00581411
-0.0063476
-0.0069891
-0.00779038
-0.00887081
-0.010428
-0.013013
-0.0173013
-0.0244075
-0.0279702
-0.0260218
-0.00561106
-0.0050553
-0.00551344
-0.00529717
-0.00539058
-0.00546279
-0.00563977
-0.00592307
-0.00631897
-0.00683222
-0.00747391
-0.00828327
-0.00933368
-0.010839
-0.0130498
-0.0170228
-0.0229929
-0.034225
-0.0412282
-0.0400906
-0.00768416
-0.00846651
-0.00591111
-0.00540495
-0.00498442
-0.00507851
-0.00541432
-0.0059229
-0.00653735
-0.00725556
-0.00806476
-0.00903391
-0.0101843
-0.0118696
-0.0141409
-0.0185505
-0.0248662
-0.0355741
-0.0409069
-0.0347078
0.0159752
-0.00509519
-0.00804919
-0.00725189
-0.0075146
-0.00734831
-0.00737548
-0.00757423
-0.00795697
-0.00850801
-0.00919019
-0.0100558
-0.0110372
-0.0126335
-0.0146741
-0.0190394
-0.0247514
-0.0327596
-0.0297383
-0.00677173
0.076088
-0.0300399
-0.0050222
-0.00395668
-0.00345395
-0.00351595
-0.00402688
-0.00484918
-0.00570579
-0.00672027
-0.00768039
-0.00892143
-0.0101628
-0.0119886
-0.0141882
-0.0170024
-0.018398
-0.0152835
0.0109999
0.0757254
0.212218
2.537e-05
-3.98323e-06
2.18227e-05
7.55805e-05
0.000164395
0.000288192
0.000447239
0.000641634
0.00087064
0.00113221
0.00142254
0.00173549
0.00206222
0.0023908
0.00270634
0.0029916
0.00322771
0.00339595
0.00349442
0.00347377
5.55881e-05
2.51394e-05
5.30434e-05
0.000105041
0.00019012
0.000308732
0.000461588
0.000649169
0.000871094
0.00112572
0.00140964
0.00171691
0.00203951
0.00236564
0.0026805
0.00296674
0.00320502
0.00337636
0.00348043
0.00345842
2.69754e-05
-9.06084e-06
1.74997e-05
6.69894e-05
0.000149353
0.000265192
0.00041562
0.000601668
0.000823597
0.00108044
0.00136947
0.00168594
0.00202163
0.0023648
0.00270002
0.00300838
0.00326791
0.00345595
0.00357125
0.00354342
-3.59371e-05
-7.62815e-05
-5.15327e-05
-5.23207e-06
7.36325e-05
0.000185979
0.000333565
0.000518256
0.000741305
0.00100288
0.00130139
0.00163292
0.00199076
0.00236305
0.00273327
0.00307993
0.00337672
0.00359486
0.00373082
0.00370008
-0.000140178
-0.000185125
-0.000162818
-0.000120381
-4.56324e-05
6.27646e-05
0.000207396
0.000391229
0.000616866
0.000886068
0.00119902
0.00155339
0.00194378
0.00235899
0.00278159
0.00318686
0.00354224
0.00380893
0.00397856
0.00394698
-0.000285582
-0.000335969
-0.000316821
-0.000279305
-0.000209937
-0.000106887
3.34272e-05
0.000215335
0.000443183
0.000720882
0.00105113
0.00143422
0.00186662
0.00233945
0.00283473
0.00332402
0.00376646
0.00410819
0.0043311
0.00430288
-0.000472335
-0.000529306
-0.000514232
-0.000483222
-0.000421341
-0.00032624
-0.00019322
-1.63539e-05
0.000210843
0.000495069
0.000842404
0.0012573
0.00173922
0.00228417
0.00287503
0.0034803
0.00404904
0.00450603
0.00481343
0.00479991
-0.000701108
-0.000766048
-0.000756185
-0.000733805
-0.000682398
-0.000599183
-0.000478301
-0.000312089
-9.15931e-05
0.000193267
0.00055309
0.000997414
0.00153298
0.00216195
0.00287248
0.00363288
0.00438179
0.00501664
0.00546007
0.00549178
-0.000972715
-0.00104717
-0.00104375
-0.00103256
-0.000995447
-0.000929428
-0.000827607
-0.000680627
-0.000476969
-0.000202798
0.000157816
0.000621845
0.00120607
0.00192452
0.00277599
0.00373595
0.00473689
0.00564649
0.00631485
0.00647161
-0.00128811
-0.00137368
-0.00137777
-0.00138047
-0.00136208
-0.00131979
-0.001246
-0.00112999
-0.000957907
-0.000712155
-0.000370829
9.20532e-05
0.000703623
0.00150173
0.00250133
0.00370086
0.00504238
0.00637241
0.00742809
0.00790658
-0.0016486
-0.00174679
-0.00175872
-0.00177766
-0.0017825
-0.00177122
-0.00173611
-0.00166576
-0.00154483
-0.00135281
-0.00106243
-0.000637669
-3.21741e-05
0.000793698
0.00191161
0.00336062
0.00513027
0.00708612
0.0088256
0.0100911
-0.00205642
-0.00216821
-0.00218661
-0.0022229
-0.00225472
-0.00228163
-0.00229662
-0.00228866
-0.00224245
-0.00213687
-0.00194249
-0.00161754
-0.0011034
-0.000323698
0.000813016
0.00242377
0.00462395
0.00741798
0.0103258
0.0133126
-0.00251626
-0.00264173
-0.00266223
-0.00271429
-0.00277432
-0.00284477
-0.00292037
-0.00299166
-0.0030454
-0.00306344
-0.00302011
-0.00287745
-0.00257766
-0.00203526
-0.00113332
0.000294576
0.00263485
0.00624545
0.0108248
0.0167742
-0.00303479
-0.00316398
-0.00317243
-0.00323336
-0.00332261
-0.00344351
-0.00359071
-0.00375671
-0.00393302
-0.00410887
-0.0042699
-0.00439537
-0.00445408
-0.00439514
-0.00415469
-0.00362349
-0.00244482
0.000513688
0.00571733
0.0157541
-0.00364351
-0.0037983
-0.00378483
-0.0038535
-0.00395559
-0.00410829
-0.00431376
-0.00457115
-0.00487882
-0.00523661
-0.00564985
-0.00613265
-0.00671534
-0.00746287
-0.00856242
-0.0103006
-0.012742
-0.0124228
-0.00806533
0.0067424
-0.00442301
-0.00436043
-0.00425721
-0.00425795
-0.00437685
-0.00460027
-0.00491338
-0.00530414
-0.00577114
-0.00632301
-0.00698765
-0.00782084
-0.00895118
-0.0105901
-0.0133352
-0.0179272
-0.0256247
-0.0296415
-0.0270668
-0.00616341
-0.00491999
-0.00538175
-0.00516558
-0.00526671
-0.00534738
-0.00553582
-0.00583305
-0.00624525
-0.00677747
-0.00744141
-0.00827859
-0.00936667
-0.0109334
-0.0132394
-0.0174223
-0.0237517
-0.0356802
-0.043269
-0.0414404
-0.00821139
-0.00828449
-0.00573697
-0.00523679
-0.0048238
-0.00492541
-0.00527348
-0.00579914
-0.00643404
-0.00717598
-0.00801161
-0.00901222
-0.0102001
-0.0119479
-0.0143043
-0.0188958
-0.0255469
-0.0367686
-0.0423931
-0.0353344
0.0163395
-0.00494182
-0.00789539
-0.00707263
-0.0073367
-0.00717023
-0.0072061
-0.00741999
-0.00782363
-0.00840066
-0.00911073
-0.0100094
-0.0110245
-0.0126782
-0.0147779
-0.0192848
-0.0251452
-0.0333353
-0.0302034
-0.00612889
0.0777558
-0.0298311
-0.00480586
-0.00373002
-0.00322401
-0.00329301
-0.00381935
-0.0046644
-0.00554786
-0.00659403
-0.00758695
-0.00886719
-0.0101484
-0.0120327
-0.0142979
-0.0172194
-0.0186773
-0.0155513
0.0111381
0.0769557
0.214372
3.14001e-05
1.99112e-06
2.77606e-05
8.15126e-05
0.00017044
0.000294506
0.000454014
0.000649105
0.000879078
0.00114193
0.00143385
0.00174874
0.00207768
0.00240868
0.00272669
0.00301431
0.00325244
0.00342217
0.00352154
0.00350093
6.18798e-05
3.13524e-05
5.9218e-05
0.00011121
0.000196403
0.000315284
0.000468603
0.000656885
0.000879792
0.00113572
0.00142129
0.00173056
0.00205549
0.00238418
0.0027017
0.00299049
0.00323099
0.00340399
0.00350909
0.00348722
3.39179e-05
-2.20049e-06
2.43164e-05
7.37926e-05
0.000156268
0.000272378
0.000423285
0.000610071
0.000833047
0.00109131
0.00138215
0.00170087
0.00203923
0.00238542
0.00272382
0.00303532
0.00329765
0.00348782
0.0036045
0.00357689
-2.80064e-05
-6.84374e-05
-4.37393e-05
2.53792e-06
8.15096e-05
0.000194133
0.000342225
0.000527713
0.000751916
0.00101507
0.00131567
0.00164985
0.00201096
0.00238703
0.00276136
0.00311216
0.00341276
0.0036339
0.00377186
0.00374151
-0.000130963
-0.000176001
-0.000153755
-0.000111355
-3.65053e-05
7.21787e-05
0.000217353
0.000402064
0.000629
0.000900015
0.00121539
0.00157294
0.00196751
0.00238767
0.00281578
0.00322677
0.00358759
0.00385871
0.0040314
0.0040005
-0.000274753
-0.000325234
-0.000306165
-0.00026871
-0.000199258
-9.59209e-05
4.49683e-05
0.00022784
0.000457155
0.000736933
0.00106997
0.00145676
0.00189469
0.00237411
0.00287689
0.00337422
0.00382461
0.00417307
0.00440076
0.00437377
-0.000459493
-0.000516563
-0.000501601
-0.000470697
-0.000408774
-0.00031342
-0.000179823
-1.92788e-06
0.000226905