/*--------------------------------*- C++ -*----------------------------------*\
  =========                 |
  \\      /  F ield         | OpenFOAM: The Open Source CFD Toolbox
   \\    /   O peration     | Website:  https://openfoam.org
    \\  /    A nd           | Version:  10
     \\/     M anipulation  |
\*---------------------------------------------------------------------------*/
FoamFile
{
    format      ascii;
    class       volVectorField;
    location    "4.35";
    object      U;
}
// * * * * * * * * * * * * * * * * * * * * * * * * * * * * * * * * * * * * * //

dimensions      [0 1 -1 0 0 0 0];

internalField   nonuniform List<vector> 
8000
(
(-5.16083e-05 6.4562e-05 -1.72067e-05)
(-0.000429557 0.000164807 1.76054e-05)
(-0.0010499 0.000189385 2.87957e-05)
(-0.00164582 0.00019249 3.36678e-05)
(-0.00224137 0.000190346 3.30981e-05)
(-0.00281238 0.000185875 2.92566e-05)
(-0.00334516 0.000178422 2.31729e-05)
(-0.00382576 0.000166649 1.51282e-05)
(-0.00423779 0.000149107 4.95156e-06)
(-0.00456288 0.000124467 -7.4879e-06)
(-0.00478038 9.20116e-05 -2.16274e-05)
(-0.00486813 5.16458e-05 -3.72038e-05)
(-0.00480406 2.68641e-06 -5.40957e-05)
(-0.00456929 -5.41388e-05 -7.19466e-05)
(-0.00415166 -0.000115795 -8.95022e-05)
(-0.00354847 -0.000178069 -0.000104849)
(-0.00277401 -0.000234448 -0.000114526)
(-0.00188155 -0.000273563 -0.000113223)
(-0.000865781 -0.000268185 -9.7212e-05)
(-0.000157679 -0.000134674 -3.41685e-05)
(-0.000149248 0.000484072 -6.91015e-05)
(-0.000832133 0.000891575 -3.86103e-05)
(-0.00185244 0.000983918 -2.61192e-05)
(-0.00283122 0.000980994 -1.72467e-05)
(-0.00379667 0.000947614 -1.30037e-05)
(-0.00471073 0.000896758 -1.14553e-05)
(-0.00555001 0.000828053 -1.16191e-05)
(-0.00629232 0.000738476 -1.34227e-05)
(-0.00691312 0.000624583 -1.70593e-05)
(-0.00738564 0.000483228 -2.27627e-05)
(-0.00768076 0.00031233 -3.06081e-05)
(-0.00776982 0.000110449 -4.0551e-05)
(-0.00762483 -0.000120337 -5.28896e-05)
(-0.00722037 -0.000373908 -6.64023e-05)
(-0.00654128 -0.000639485 -8.02147e-05)
(-0.00558684 -0.000900518 -9.22055e-05)
(-0.00438056 -0.00113183 -9.81768e-05)
(-0.00299805 -0.00128892 -9.22003e-05)
(-0.00143782 -0.00126779 -7.1044e-05)
(-0.000299244 -0.000748243 3.0952e-06)
(-0.000176781 0.00118063 -9.24666e-05)
(-0.000957876 0.0020036 -6.38965e-05)
(-0.00211033 0.0021802 -5.08001e-05)
(-0.0032113 0.00215828 -3.9977e-05)
(-0.00429471 0.00206825 -3.34719e-05)
(-0.00531912 0.00193693 -2.9439e-05)
(-0.00625957 0.00176539 -2.69467e-05)
(-0.0070924 0.0015496 -2.60453e-05)
(-0.00779139 0.0012846 -2.70388e-05)
(-0.00832788 0.000965738 -3.02489e-05)
(-0.00867143 0.000589624 -3.59107e-05)
(-0.00878879 0.000154921 -4.44136e-05)
(-0.00864533 -0.000334274 -5.52702e-05)
(-0.00821132 -0.00086615 -6.8314e-05)
(-0.00746639 -0.00141932 -8.23294e-05)
(-0.00640376 -0.00196045 -9.48737e-05)
(-0.00504393 -0.00243923 -0.000101021)
(-0.00346955 -0.00276612 -9.38609e-05)
(-0.00167569 -0.00273351 -6.99908e-05)
(-0.000353123 -0.00170205 1.29813e-05)
(-0.000183372 0.00189413 -0.00011047)
(-0.001007 0.00315053 -8.38428e-05)
(-0.00222505 0.00341168 -7.05463e-05)
(-0.00338708 0.00336958 -5.85396e-05)
(-0.00453359 0.00322355 -5.06414e-05)
(-0.0056222 0.00301415 -4.50547e-05)
(-0.00662864 0.00274358 -4.09039e-05)
(-0.0075297 0.00240636 -3.8339e-05)
(-0.00829903 0.00199538 -3.77848e-05)
(-0.00890685 0.00150349 -3.97113e-05)
(-0.00931988 0.000925048 -4.45254e-05)
(-0.0095017 0.000258587 -5.2626e-05)
(-0.00941146 -0.000492132 -6.45011e-05)
(-0.00900762 -0.00131339 -7.88302e-05)
(-0.00825658 -0.0021745 -9.46789e-05)
(-0.00713911 -0.00302568 -0.000109362)
(-0.00566592 -0.00378871 -0.000117153)
(-0.00392476 -0.00432111 -0.000109673)
(-0.00190643 -0.00429651 -8.28304e-05)
(-0.00040328 -0.00271663 1.20297e-05)
(-0.000186922 0.00266084 -0.000126209)
(-0.00104886 0.00438445 -0.000100892)
(-0.00233122 0.00473665 -8.74647e-05)
(-0.00355514 0.00467525 -7.47091e-05)
(-0.00476807 0.00447362 -6.60732e-05)
(-0.00592716 0.00418722 -5.97746e-05)
(-0.00700986 0.00381954 -5.49813e-05)
(-0.00799431 0.00336349 -5.19264e-05)
(-0.00885485 0.0028092 -5.11453e-05)
(-0.00956111 0.00214589 -5.3254e-05)
(-0.010077 0.00136374 -5.8807e-05)
(-0.0103601 0.000456915 -6.81831e-05)
(-0.010361 -0.000572307 -8.30056e-05)
(-0.0100238 -0.001711 -0.00010101)
(-0.00929478 -0.00292222 -0.000121493)
(-0.00813251 -0.00414037 -0.00014124)
(-0.00652691 -0.00525471 -0.000153058)
(-0.00456733 -0.00605555 -0.000146291)
(-0.00223996 -0.00606976 -0.000115271)
(-0.000478872 -0.003877 -1.65648e-06)
(-0.000191505 0.00347747 -0.000143075)
(-0.00110019 0.00570588 -0.000118734)
(-0.00246113 0.0061579 -0.000105215)
(-0.00376101 0.00607992 -9.18813e-05)
(-0.00505531 0.00582578 -8.27964e-05)
(-0.00630102 0.00546736 -7.61922e-05)
(-0.00747818 0.00500975 -7.12937e-05)
(-0.00856741 0.00444404 -6.84309e-05)
(-0.00954483 0.00375688 -6.82653e-05)
(-0.0103805 0.00293236 -7.16034e-05)
(-0.0110363 0.00195399 -7.92403e-05)
(-0.0114636 0.000808186 -9.20511e-05)
(-0.0116032 -0.000509988 -0.000111892)
(-0.0113794 -0.00199609 -0.000136343)
(-0.010709 -0.00361022 -0.000165103)
(-0.00951671 -0.00527342 -0.000194222)
(-0.00775514 -0.00683746 -0.000214242)
(-0.00550453 -0.00800656 -0.000210551)
(-0.00274159 -0.00811525 -0.000174222)
(-0.000599044 -0.00523448 -3.18689e-05)
(-0.000197529 0.00435413 -0.000163476)
(-0.00116378 0.00713209 -0.000140287)
(-0.00262022 0.00769432 -0.000126703)
(-0.00401122 0.00760271 -0.000112704)
(-0.00540206 0.00729972 -0.0001031)
(-0.0067499 0.00687582 -9.61804e-05)
(-0.00803861 0.00633833 -9.12775e-05)
(-0.00925286 0.00567665 -8.88695e-05)
(-0.0103725 0.00487335 -8.98053e-05)
(-0.01137 0.00390583 -9.51688e-05)
(-0.0122072 0.00274784 -0.000106208)
(-0.0128299 0.00137279 -0.000124607)
(-0.0131709 -0.000240549 -0.000152581)
(-0.0131302 -0.00209498 -0.000187111)
(-0.0125836 -0.0041696 -0.000229973)
(-0.0114055 -0.00637774 -0.000275948)
(-0.00948445 -0.00853141 -0.000312216)
(-0.00686475 -0.0102253 -0.000317387)
(-0.00350156 -0.0105281 -0.000275588)
(-0.000794662 -0.00687906 -9.06553e-05)
(-0.000204869 0.00530506 -0.000189126)
(-0.00124012 0.00868638 -0.000167669)
(-0.00280933 0.00936981 -0.000153982)
(-0.00430514 0.00926617 -0.000138972)
(-0.00580514 0.00891697 -0.000128443)
(-0.00726704 0.00843422 -0.000120833)
(-0.00868019 0.00782874 -0.000115669)
(-0.0100354 0.00708892 -0.000113657)
(-0.011319 0.00619336 -0.000115921)
(-0.0125097 0.00511185 -0.000123943)
(-0.0135732 0.00380568 -0.000139552)
(-0.0144561 0.00222984 -0.000164997)
(-0.0150754 0.000338636 -0.000201836)
(-0.0153142 -0.00189566 -0.000256323)
(-0.0150056 -0.00448538 -0.000323405)
(-0.0139396 -0.00735656 -0.000399518)
(-0.0119037 -0.0102899 -0.000467754)
(-0.00884898 -0.012749 -0.000495775)
(-0.00468264 -0.0134242 -0.000451495)
(-0.00112954 -0.00894981 -0.000206585)
(-0.000213916 0.00634751 -0.000221891)
(-0.00133101 0.0103957 -0.00020317)
(-0.00303076 0.0112103 -0.000189209)
(-0.00464303 0.0110927 -0.000172466)
(-0.0062609 0.0106969 -0.000160146)
(-0.00784333 0.0101603 -0.000150991)
(-0.00938706 0.00949926 -0.000144851)
(-0.0108917 0.00870274 -0.000142761)
(-0.0123534 0.00774654 -0.000146238)
(-0.0137621 0.00659328 -0.000157334)
(-0.0150941 0.00519063 -0.000178766)
(-0.0163023 0.00347079 -0.000213907)
(-0.0173024 0.00135487 -0.000266376)
(-0.0179623 -0.00123901 -0.000348862)
(-0.0180642 -0.00436983 -0.000455412)
(-0.0172951 -0.00802199 -0.000584547)
(-0.0152851 -0.0119765 -0.000714938)
(-0.011785 -0.015559 -0.000798019)
(-0.00659914 -0.0169244 -0.000765217)
(-0.00174337 -0.0116676 -0.000446702)
(-0.000226316 0.0075043 -0.000264388)
(-0.00144175 0.0122934 -0.000249899)
(-0.00329155 0.0132449 -0.000235207)
(-0.00502955 0.0131046 -0.000215378)
(-0.00676895 0.0126554 -0.000199663)
(-0.00847084 0.0120656 -0.000187357)
(-0.0101416 0.0113595 -0.000178823)
(-0.0117924 0.0105294 -0.000175548)
(-0.0134333 0.00955101 -0.000179572)
(-0.0150712 0.00838257 -0.00019375)
(-0.0167021 0.00695997 -0.000222191)
(-0.0182992 0.00519124 -0.000270414)
(-0.0197936 0.002953 -0.000346204)
(-0.0210508 9.45333e-05 -0.000465968)
(-0.0218178 -0.00352594 -0.000636364)
(-0.0216686 -0.00803329 -0.000856652)
(-0.0200086 -0.0132777 -0.00110545)
(-0.0162111 -0.0184888 -0.00131373)
(-0.00987439 -0.0211042 -0.00134635)
(-0.00294567 -0.0154021 -0.000985391)
(-0.000246292 0.00880886 -0.000320764)
(-0.00158437 0.014423 -0.000312549)
(-0.00360756 0.0155084 -0.000296076)
(-0.00547795 0.0153243 -0.000270681)
(-0.00733595 0.0148041 -0.000248716)
(-0.00914638 0.0141527 -0.000230441)
(-0.0109278 0.0134062 -0.000216985)
(-0.0127052 0.012563 -0.000210417)
(-0.014506 0.0116038 -0.000213405)
(-0.0163597 0.0104886 -0.000229812)
(-0.0182931 0.00914878 -0.000265623)
(-0.0203185 0.00747409 -0.000330038)
(-0.0224105 0.00529718 -0.000436878)
(-0.0244586 0.00238149 -0.000603354)
(-0.0262377 -0.00156983 -0.000875484)
(-0.0272331 -0.00683569 -0.00124183)
(-0.0265683 -0.0135622 -0.00170471)
(-0.0230054 -0.0210125 -0.00217853)
(-0.0157544 -0.025797 -0.00244474)
(-0.00543412 -0.0208523 -0.00225512)
(-0.00028349 0.0103148 -0.000398122)
(-0.00178361 0.016846 -0.000398624)
(-0.00401 0.018044 -0.000378115)
(-0.00601597 0.0177745 -0.000342597)
(-0.00798091 0.0171478 -0.000309361)
(-0.00987651 0.0164121 -0.000280298)
(-0.0117361 0.0156175 -0.00025766)
(-0.0135998 0.0147726 -0.000244165)
(-0.0155134 0.0138689 -0.000243118)
(-0.0175327 0.0128787 -0.000259439)
(-0.0197245 0.0117446 -0.000301244)
(-0.0221609 0.0103601 -0.0003821)
(-0.0249006 0.00853766 -0.000523188)
(-0.0279434 0.00596484 -0.000754432)
(-0.0311106 0.00215768 -0.00112635)
(-0.0339678 -0.00349163 -0.00171887)
(-0.0354743 -0.0115699 -0.00252908)
(-0.0334658 -0.0218213 -0.00349909)
(-0.0266246 -0.0302656 -0.00440614)
(-0.0108132 -0.0290638 -0.00517925)
(-0.00035984 0.0121154 -0.000509559)
(-0.00208902 0.019654 -0.000520659)
(-0.00455611 0.0209059 -0.000490959)
(-0.0066946 0.020476 -0.000436775)
(-0.00874218 0.0196827 -0.000383619)
(-0.0106838 0.0188194 -0.000335809)
(-0.0125707 0.0179498 -0.000297036)
(-0.0144569 0.017095 -0.000270625)
(-0.0164031 0.0162639 -0.000260304)
(-0.0184874 0.0154535 -0.000271624)
(-0.0208157 0.0146395 -0.000314255)
(-0.0235309 0.0137535 -0.000405256)
(-0.026816 0.0126394 -0.000573404)
(-0.0308684 0.0109668 -0.00086359)
(-0.0358144 0.0081232 -0.00133877)
(-0.04148 0.00304506 -0.00212085)
(-0.0469674 -0.00563102 -0.00335279)
(-0.04918 -0.018695 -0.00493758)
(-0.0456774 -0.032977 -0.00683719)
(-0.0214127 -0.0423063 -0.00997385)
(-0.000525613 0.0143661 -0.000682437)
(-0.00260516 0.023016 -0.000708631)
(-0.00535096 0.0242314 -0.000663075)
(-0.00759813 0.0235309 -0.000573869)
(-0.00968229 0.022456 -0.000481205)
(-0.0116128 0.0213641 -0.000396617)
(-0.0134588 0.020344 -0.000327502)
(-0.0152823 0.0194315 -0.000277925)
(-0.0171499 0.0186547 -0.000250672)
(-0.0191506 0.018045 -0.000250408)
(-0.021416 0.0176395 -0.000286828)
(-0.0241506 0.0174631 -0.000378026)
(-0.0276775 0.0174857 -0.000555129)
(-0.0324712 0.0174951 -0.000863529)
(-0.0391767 0.0169041 -0.00134376)
(-0.0484495 0.0142631 -0.00197847)
(-0.0599755 0.0069311 -0.00282762)
(-0.0698597 -0.00953573 -0.00384378)
(-0.0739791 -0.0349759 -0.00481871)
(-0.0375716 -0.0690578 -0.0116061)
(-0.000841156 0.0175149 -0.000958194)
(-0.00342035 0.026822 -0.000953384)
(-0.00650514 0.027619 -0.000858935)
(-0.00885652 0.0263498 -0.000698176)
(-0.0109449 0.024912 -0.000549122)
(-0.0127859 0.0236155 -0.000418719)
(-0.0144849 0.0224878 -0.000312299)
(-0.0161211 0.0215324 -0.000232236)
(-0.017756 0.0207842 -0.000180031)
(-0.019458 0.0203146 -0.000158284)
(-0.0213375 0.0202507 -0.000171034)
(-0.0236001 0.020757 -0.000223487)
(-0.0266566 0.0220297 -0.000318196)
(-0.0312553 0.0241322 -0.000419592)
(-0.0388003 0.0267761 -0.000358835)
(-0.0513142 0.0279246 0.000352677)
(-0.0710086 0.0233196 0.00222863)
(-0.0921941 -0.000346467 0.0061541)
(-0.107354 -0.0500212 0.0108269)
(-0.0524593 -0.129514 -0.00358597)
(-0.0021132 0.0209169 -0.00149229)
(-0.00584287 0.0327814 -0.00159122)
(-0.00867798 0.0331879 -0.00138686)
(-0.0107433 0.0314334 -0.00109255)
(-0.012448 0.029204 -0.000782647)
(-0.0139977 0.0271286 -0.000510801)
(-0.0154631 0.0253388 -0.000291432)
(-0.016863 0.0238828 -0.000128221)
(-0.0181943 0.0228106 -1.74258e-05)
(-0.0194545 0.0222077 4.6155e-05)
(-0.0206802 0.0222649 6.44459e-05)
(-0.0219933 0.0232771 5.5923e-05)
(-0.0237714 0.0257652 9.69597e-05)
(-0.0268061 0.0301336 0.000429371)
(-0.033401 0.0367019 0.00172728)
(-0.0467032 0.0420623 0.00565888)
(-0.0743706 0.0391568 0.0139937)
(-0.107706 -0.00365693 0.0259781)
(-0.135367 -0.102709 0.0310722)
(-0.0551551 -0.231601 -0.00234004)
(-0.00141856 0.0324215 -0.00252127)
(-0.00579612 0.0366673 -0.00210149)
(-0.0107542 0.0350995 -0.00170432)
(-0.0130919 0.0314074 -0.00106596)
(-0.015041 0.0286969 -0.00056731)
(-0.0162369 0.0265885 -0.000156481)
(-0.0170734 0.0249386 0.000154451)
(-0.0177001 0.0236053 0.000367243)
(-0.018163 0.0226016 0.000503612)
(-0.0184084 0.0219755 0.000575045)
(-0.0183605 0.021982 0.00060001)
(-0.0178775 0.0228965 0.000632725)
(-0.0171537 0.0255919 0.000855442)
(-0.0164423 0.0301953 0.00178725)
(-0.0190205 0.0388164 0.00479714)
(-0.0271543 0.0441451 0.0125392)
(-0.0591671 0.0379639 0.0275768)
(-0.0989835 -0.036306 0.04116)
(-0.13898 -0.186127 0.0314311)
(-0.0453211 -0.330916 -0.025852)
(-0.012003 0.0306168 -0.00352406)
(-0.021414 0.0527865 -0.00392518)
(-0.0169583 0.0484658 -0.00323324)
(-0.017447 0.0435459 -0.00216042)
(-0.0158604 0.0378221 -0.00102417)
(-0.0142911 0.0330548 -0.000122149)
(-0.0127594 0.0292068 0.000536849)
(-0.0113306 0.0261435 0.000966719)
(-0.00995755 0.0237923 0.00122433)
(-0.00840473 0.0220188 0.00132096)
(-0.00664412 0.0209705 0.00130661)
(-0.00404701 0.0207851 0.00122525)
(-0.00121991 0.0222915 0.00133177)
(0.00406867 0.0257248 0.00228738)
(0.00600201 0.0335429 0.00551017)
(0.0118555 0.0392713 0.0136138)
(-0.0075781 0.0304677 0.0283968)
(-0.0254361 -0.0620796 0.038456)
(-0.0931707 -0.234106 0.0160252)
(-0.025199 -0.38296 -0.0532174)
(-0.0462932 0.089584 -0.0115511)
(-0.0302302 0.0433131 -0.00715371)
(-0.0214775 0.0370419 -0.00450494)
(-0.00436729 0.0300407 -0.00195434)
(0.0096171 0.0238602 -0.000149125)
(0.0228138 0.0198209 0.00111204)
(0.0337244 0.01723 0.00199113)
(0.0430457 0.0152665 0.0025422)
(0.0505714 0.0139006 0.00286717)
(0.0574248 0.0127082 0.0029421)
(0.0629315 0.0121457 0.00281913)
(0.0694006 0.0116162 0.00243744)
(0.074502 0.0120933 0.00208827)
(0.0852254 0.0124614 0.00158806)
(0.0899857 0.0129326 0.00284721)
(0.114966 0.00987786 0.00614599)
(0.103743 -0.00590994 0.0129882)
(0.134904 -0.079609 0.0243762)
(0.0171975 -0.232556 0.0018266)
(0.0262476 -0.368433 -0.0653286)
(0.117639 0.11164 -0.0112025)
(0.144363 0.0595586 -0.0115242)
(0.216861 0.0395224 -0.0109017)
(0.261185 0.0265407 -0.00933829)
(0.293762 0.0179009 -0.00751165)
(0.320229 0.0121549 -0.00593662)
(0.340497 0.00860052 -0.0043791)
(0.357934 0.00630162 -0.00315107)
(0.370046 0.00488539 -0.00193037)
(0.382797 0.00400921 -0.00100981)
(0.388826 0.00339852 -0.000266779)
(0.40098 0.00329477 0.000445289)
(0.40042 0.00290886 0.000307577)
(0.418031 0.00324817 0.00124999)
(0.40612 0.00228701 0.000352116)
(0.43555 -5.71323e-05 0.00182546)
(0.394474 -0.00772462 0.00188533)
(0.418882 -0.0297073 0.000823408)
(0.25626 -0.0725357 -0.00716534)
(0.166572 -0.139677 -0.0743192)
(-0.000109845 0.000117493 -4.67578e-05)
(-0.000773543 0.000314418 -6.66e-08)
(-0.00182463 0.000362116 1.83557e-05)
(-0.00281986 0.000362183 2.79729e-05)
(-0.00379363 0.000349363 2.87871e-05)
(-0.0047101 0.000330538 2.37374e-05)
(-0.00554829 0.000305326 1.44323e-05)
(-0.00628722 0.000272038 1.15172e-06)
(-0.00690277 0.000229116 -1.62449e-05)
(-0.00736802 0.000175171 -3.79208e-05)
(-0.00765446 0.000108983 -6.3535e-05)
(-0.00773359 3.07154e-05 -9.27418e-05)
(-0.00757768 -6.01235e-05 -0.000124777)
(-0.0071634 -0.000160647 -0.000158501)
(-0.00647684 -0.000266472 -0.000191418)
(-0.00551696 -0.000370924 -0.000219771)
(-0.00430471 -0.000463178 -0.000237368)
(-0.00291311 -0.000522262 -0.000235521)
(-0.00133517 -0.000493276 -0.000208295)
(-0.000241708 -0.000225418 -9.9757e-05)
(-0.000318082 0.000815732 -0.000135364)
(-0.0015958 0.00159643 -9.74041e-05)
(-0.0034315 0.00177227 -7.5676e-05)
(-0.00517303 0.0017498 -5.80441e-05)
(-0.00685666 0.00166262 -4.86446e-05)
(-0.00842116 0.00153935 -4.4733e-05)
(-0.0098275 0.00138188 -4.47925e-05)
(-0.0110395 0.00118713 -4.87439e-05)
(-0.0120187 0.000951804 -5.69314e-05)
(-0.0127254 0.000673137 -6.97789e-05)
(-0.0131187 0.000349246 -8.75444e-05)
(-0.0131608 -2.00348e-05 -0.000110179)
(-0.0128155 -0.000428686 -0.000137205)
(-0.0120528 -0.000865647 -0.000166643)
(-0.010859 -0.00131322 -0.000196127)
(-0.00923891 -0.00174483 -0.000221241)
(-0.00723122 -0.0021187 -0.000234312)
(-0.00494496 -0.00235375 -0.000225398)
(-0.00238216 -0.00224514 -0.000188963)
(-0.000505616 -0.00122373 -5.9655e-05)
(-0.000385493 0.00195654 -0.000178418)
(-0.00187824 0.00351461 -0.00014612)
(-0.00399171 0.00384825 -0.000123232)
(-0.00598908 0.00377868 -0.000101793)
(-0.00791427 0.00356993 -8.81174e-05)
(-0.0096991 0.00327974 -7.96108e-05)
(-0.0113007 0.00291468 -7.48865e-05)
(-0.0126796 0.00247183 -7.40992e-05)
(-0.0137943 0.00194704 -7.78437e-05)
(-0.0146019 0.00133685 -8.67701e-05)
(-0.0150595 0.000639938 -0.000101361)
(-0.0151223 -0.000141538 -0.000122111)
(-0.0147466 -0.000997053 -0.000147906)
(-0.0138981 -0.00190473 -0.000177838)
(-0.0125558 -0.00282919 -0.000209068)
(-0.0107178 -0.0037171 -0.000236503)
(-0.00842049 -0.00448546 -0.000251102)
(-0.00578409 -0.00497246 -0.00024114)
(-0.00280663 -0.0047743 -0.000200556)
(-0.000604172 -0.00276358 -5.59967e-05)
(-0.000409349 0.00311972 -0.000214406)
(-0.00200296 0.0054868 -0.000188024)
(-0.00425866 0.0059785 -0.000164754)
(-0.00638697 0.00585818 -0.000140788)
(-0.00844149 0.00552685 -0.000124197)
(-0.0103519 0.00507127 -0.000112529)
(-0.0120756 0.00450208 -0.000104558)
(-0.0135732 0.00381585 -0.000100674)
(-0.0148027 0.00300675 -0.000101736)
(-0.0157194 0.00206932 -0.000108696)
(-0.0162761 0.00100089 -0.000122407)
(-0.0164237 -0.000194553 -0.000143662)
(-0.0161083 -0.00150674 -0.000172312)
(-0.0152788 -0.00290597 -0.000206355)
(-0.0138976 -0.00434157 -0.000243069)
(-0.0119457 -0.00573337 -0.000276706)
(-0.00944629 -0.00695212 -0.000296527)
(-0.00652649 -0.00774225 -0.000287996)
(-0.00317975 -0.00747398 -0.000243316)
(-0.00068503 -0.00439619 -7.63749e-05)
(-0.000428442 0.00436163 -0.000248123)
(-0.00211543 0.007596 -0.000227073)
(-0.00451014 0.00825584 -0.000203565)
(-0.00676966 0.00808399 -0.000177721)
(-0.00895782 0.00762794 -0.000159212)
(-0.0110031 0.00700535 -0.000145702)
(-0.0128649 0.00623112 -0.000136125)
(-0.0145053 0.00530091 -0.000131105)
(-0.0158828 0.00420632 -0.000131794)
(-0.0169513 0.00293808 -0.000139502)
(-0.0176588 0.00148906 -0.000155472)
(-0.0179484 -0.000141394 -0.000180768)
(-0.0177518 -0.00194245 -0.000216549)
(-0.0169965 -0.00388357 -0.000260084)
(-0.0156174 -0.00590209 -0.000308722)
(-0.013564 -0.00789059 -0.000355486)
(-0.0108307 -0.00966444 -0.00038666)
(-0.0075471 -0.0108494 -0.000383124)
(-0.00370316 -0.0105404 -0.000333136)
(-0.000802027 -0.00625875 -0.000129052)
(-0.000452588 0.00568424 -0.000285294)
(-0.00225399 0.00985289 -0.000269661)
(-0.00481877 0.0106943 -0.000245944)
(-0.00723949 0.0104718 -0.000218351)
(-0.00959184 0.00989134 -0.000198243)
(-0.0118035 0.00910405 -0.000183427)
(-0.0138371 0.00812953 -0.000173039)
(-0.0156579 0.00696215 -0.000167994)
(-0.0172264 0.00558958 -0.000169805)
(-0.0184966 0.00399632 -0.000180257)
(-0.0194128 0.00216678 -0.000201158)
(-0.0199083 9.00577e-05 -0.000234157)
(-0.0198986 -0.00223045 -0.000282629)
(-0.0192822 -0.00477262 -0.000342374)
(-0.0179526 -0.00746812 -0.000411641)
(-0.0158092 -0.010184 -0.000481913)
(-0.0127946 -0.01267 -0.000534945)
(-0.00902491 -0.0143975 -0.000543652)
(-0.00448266 -0.0141064 -0.000488185)
(-0.000984929 -0.00844569 -0.000226204)
(-0.000483635 0.00710764 -0.000330447)
(-0.00242727 0.012291 -0.000321352)
(-0.00520085 0.0133295 -0.000297354)
(-0.00781755 0.0130564 -0.000267579)
(-0.0103677 0.0123514 -0.000245439)
(-0.0127786 0.0114025 -0.000228989)
(-0.0150181 0.0102349 -0.00021769)
(-0.0170569 0.00884177 -0.000212872)
(-0.0188604 0.00720562 -0.000216555)
(-0.0203857 0.00530192 -0.000231218)
(-0.0215762 0.00310168 -0.000259546)
(-0.022356 0.000576802 -0.000304581)
(-0.0226246 -0.00228909 -0.000372477)
(-0.0222457 -0.00549395 -0.000457452)
(-0.0210546 -0.00898052 -0.000560792)
(-0.0188744 -0.0126003 -0.000671963)
(-0.0155561 -0.0160293 -0.000766193)
(-0.011163 -0.0185377 -0.000802884)
(-0.0056572 -0.0183776 -0.000745249)
(-0.00127907 -0.0111217 -0.000396693)
(-0.000522191 0.00865695 -0.000387311)
(-0.00263879 0.0149518 -0.000386807)
(-0.00566262 0.0162034 -0.000362226)
(-0.00850975 0.0158767 -0.000329191)
(-0.011289 0.0150441 -0.000303775)
(-0.0139281 0.0139356 -0.000284481)
(-0.0164026 0.0125837 -0.000271292)
(-0.0186922 0.0109809 -0.000266136)
(-0.0207717 0.00910422 -0.000271763)
(-0.0226062 0.00691789 -0.00029168)
(-0.0241438 0.00437447 -0.000330133)
(-0.0253051 0.00141943 -0.000392448)
(-0.0259761 -0.00199917 -0.000482936)
(-0.025984 -0.00592058 -0.000610371)
(-0.025091 -0.0103251 -0.000769325)
(-0.0230072 -0.0150752 -0.000950833)
(-0.0194316 -0.019778 -0.00112221)
(-0.0142878 -0.0234489 -0.00122128)
(-0.00748632 -0.0236404 -0.00117396)
(-0.00178205 -0.0145588 -0.000702031)
(-0.000569706 0.0103605 -0.00046021)
(-0.00289405 0.0178807 -0.000471349)
(-0.00621247 0.0193594 -0.00044546)
(-0.00932306 0.0189697 -0.00040715)
(-0.0123583 0.0180012 -0.000376087)
(-0.0152476 0.0167321 -0.000351543)
(-0.0179776 0.015205 -0.000334309)
(-0.0205415 0.0134135 -0.000327146)
(-0.0229292 0.0113301 -0.000333783)
(-0.0251219 0.00890687 -0.000359115)
(-0.0270817 0.00607387 -0.000409509)
(-0.0287372 0.00274012 -0.000493075)
(-0.0299733 -0.00120081 -0.000619147)
(-0.0305863 -0.00585636 -0.000806708)
(-0.0302561 -0.0112939 -0.00105295)
(-0.0285423 -0.0174414 -0.00135338)
(-0.024906 -0.0238762 -0.00166787)
(-0.0189641 -0.0293129 -0.00190308)
(-0.0105085 -0.0302953 -0.00190527)
(-0.00272305 -0.0192589 -0.00127735)
(-0.000629595 0.0122533 -0.000555196)
(-0.00320396 0.0211303 -0.000582194)
(-0.00686615 0.0228435 -0.000553475)
(-0.0102714 0.0223707 -0.000506363)
(-0.0135832 0.0212486 -0.000465521)
(-0.0167344 0.0198115 -0.000431512)
(-0.0197272 0.018116 -0.000406333)
(-0.0225735 0.0161605 -0.000393841)
(-0.0252854 0.0139155 -0.000399004)
(-0.0278704 0.011323 -0.000428526)
(-0.0303195 0.00828982 -0.000491759)
(-0.03259 0.00468106 -0.00060127)
(-0.0345848 0.000316255 -0.000772701)
(-0.0360989 -0.0050108 -0.00104338)
(-0.0367483 -0.0115328 -0.00142366)
(-0.0359141 -0.0193445 -0.00191995)
(-0.0327225 -0.0281034 -0.00249493)
(-0.0262149 -0.0362282 -0.00301805)
(-0.015921 -0.0388874 -0.00319476)
(-0.00467355 -0.026248 -0.00244629)
(-0.000709034 0.0143827 -0.000681562)
(-0.00358927 0.0247654 -0.000729959)
(-0.00765249 0.0267066 -0.000695393)
(-0.0113812 0.0261125 -0.000633403)
(-0.0149811 0.0248036 -0.000575826)
(-0.0183916 0.0231798 -0.000525323)
(-0.0216357 0.0213165 -0.00048565)
(-0.0247495 0.0192215 -0.000462026)
(-0.027775 0.016869 -0.00046082)
(-0.0307569 0.0141972 -0.000490827)
(-0.0337343 0.0110957 -0.000565177)
(-0.0367234 0.00738743 -0.000703582)
(-0.0396817 0.0028088 -0.000936532)
(-0.0424691 -0.00299815 -0.00130373)
(-0.0447101 -0.0104927 -0.00188015)
(-0.0456414 -0.0201061 -0.00267752)
(-0.0439999 -0.0318234 -0.00370229)
(-0.0379228 -0.0439161 -0.00480067)
(-0.0263834 -0.0500003 -0.00550778)
(-0.00908023 -0.0379125 -0.00498978)
(-0.000822489 0.0168185 -0.000854434)
(-0.00408806 0.0288702 -0.000930997)
(-0.00862191 0.0310072 -0.000884834)
(-0.0126987 0.0302248 -0.000797509)
(-0.0165856 0.0286719 -0.000711578)
(-0.0202337 0.0268243 -0.000633124)
(-0.0236928 0.0247811 -0.000568427)
(-0.0270285 0.0225645 -0.000524254)
(-0.0303178 0.0201607 -0.000508297)
(-0.0336527 0.0175165 -0.000531294)
(-0.0371398 0.0145224 -0.000610247)
(-0.0408905 0.0109819 -0.000772998)
(-0.0449922 0.00656427 -0.00106305)
(-0.049456 0.000738034 -0.00154162)
(-0.0540757 -0.00725522 -0.00232234)
(-0.0581867 -0.0184158 -0.00354203)
(-0.0602425 -0.0334586 -0.00524243)
(-0.0572127 -0.05104 -0.0073193)
(-0.0469953 -0.0639577 -0.00928897)
(-0.019139 -0.0591757 -0.0103231)
(-0.000999664 0.0196711 -0.00109966)
(-0.00476901 0.0335521 -0.00121082)
(-0.00985873 0.0357949 -0.00114131)
(-0.0143012 0.0347124 -0.00101048)
(-0.0184553 0.032832 -0.000877449)
(-0.0222937 0.0307051 -0.000753127)
(-0.025901 0.028453 -0.000647064)
(-0.0293747 0.0261164 -0.000567631)
(-0.0328272 0.0237041 -0.00052332)
(-0.0363989 0.0211892 -0.000525527)
(-0.0402723 0.0184912 -0.000592975)
(-0.0446866 0.0154366 -0.00075837)
(-0.0499425 0.0116825 -0.00107729)
(-0.0563703 0.00658571 -0.00163876)
(-0.0642626 -0.000928712 -0.00256869)
(-0.0735347 -0.0124752 -0.0040974)
(-0.0827045 -0.0300782 -0.00640645)
(-0.0871561 -0.0544904 -0.00930557)
(-0.0818805 -0.080709 -0.0126233)
(-0.0360823 -0.10083 -0.017455)
(-0.00131049 0.023113 -0.00146736)
(-0.00578787 0.0390699 -0.00162782)
(-0.0115186 0.0413117 -0.00151986)
(-0.0163039 0.0397787 -0.00131327)
(-0.0206668 0.0373956 -0.00109401)
(-0.0246191 0.0348383 -0.000886854)
(-0.0282802 0.0322746 -0.000708891)
(-0.0317729 0.0297698 -0.000570355)
(-0.0352372 0.0273574 -0.000478223)
(-0.038854 0.025053 -0.000441177)
(-0.0428761 0.0228507 -0.000475039)
(-0.0476782 0.0206851 -0.000609656)
(-0.0538295 0.0183428 -0.000896375)
(-0.0621432 0.0152688 -0.00140707)
(-0.0736728 0.0102847 -0.00218861)
(-0.0894837 0.00100725 -0.0031263)
(-0.108433 -0.0172179 -0.00399223)
(-0.122145 -0.052083 -0.00417691)
(-0.121563 -0.10603 -0.00448174)
(-0.0469786 -0.179486 -0.0164568)
(-0.00175325 0.0276147 -0.00202171)
(-0.00707881 0.0448859 -0.00215514)
(-0.0136883 0.0466027 -0.00195366)
(-0.018884 0.0442363 -0.001608)
(-0.0234506 0.0413487 -0.00127197)
(-0.0274007 0.0384947 -0.00096182)
(-0.0309446 0.0357589 -0.000693503)
(-0.0342568 0.0331734 -0.000475761)
(-0.0374931 0.0307943 -0.000313885)
(-0.0408311 0.0287031 -0.000211)
(-0.0445289 0.0270163 -0.000166948)
(-0.0490236 0.0258641 -0.000178267)
(-0.055089 0.0253555 -0.000222823)
(-0.0640002 0.0253185 -0.000182669)
(-0.0777523 0.0248138 0.000388739)
(-0.0985464 0.0201062 0.00270304)
(-0.124844 0.00198618 0.00861589)
(-0.140878 -0.0513291 0.0195731)
(-0.141899 -0.149 0.0267389)
(-0.035526 -0.283831 -0.0046272)
(-0.00376549 0.0320281 -0.00299589)
(-0.0111088 0.0542881 -0.00334531)
(-0.0173957 0.0555527 -0.0029594)
(-0.0223395 0.0524875 -0.00238398)
(-0.0264926 0.0483117 -0.00175614)
(-0.0301915 0.0442373 -0.00117883)
(-0.0335282 0.0405047 -0.000685865)
(-0.0365942 0.0372025 -0.000291387)
(-0.0394721 0.0344134 5.63222e-06)
(-0.0422798 0.0322445 0.000214841)
(-0.0452121 0.0309257 0.000359221)
(-0.0486116 0.0308227 0.000504442)
(-0.0531893 0.0325556 0.000852037)
(-0.0601559 0.0364803 0.00197706)
(-0.0717454 0.042028 0.0054306)
(-0.0894479 0.0424618 0.0145954)
(-0.114201 0.0239981 0.0329548)
(-0.125252 -0.0523914 0.0566634)
(-0.134376 -0.196073 0.0585057)
(-0.013576 -0.373915 -0.00763185)
(-0.0019196 0.0467416 -0.00479905)
(-0.00985956 0.0581008 -0.00443292)
(-0.0208175 0.056923 -0.0036847)
(-0.0264346 0.0516749 -0.00254024)
(-0.0313852 0.0475672 -0.00159145)
(-0.0347673 0.0439506 -0.000748833)
(-0.037296 0.0407262 -5.30362e-05)
(-0.0392399 0.0377916 0.000491909)
(-0.0407653 0.0352475 0.000894669)
(-0.0419481 0.0331962 0.00117615)
(-0.0428345 0.0320215 0.00139748)
(-0.0434085 0.0321433 0.00171583)
(-0.0439835 0.0347174 0.00256764)
(-0.0446902 0.0399746 0.00507701)
(-0.047869 0.0488493 0.0119198)
(-0.0517805 0.0502414 0.0274788)
(-0.0692748 0.0329729 0.0552347)
(-0.0720991 -0.0575621 0.0798033)
(-0.096928 -0.235732 0.0598363)
(0.0119235 -0.440236 -0.0324882)
(-0.0118263 0.0386077 -0.0062431)
(-0.0260846 0.0814319 -0.00718312)
(-0.0265651 0.0777267 -0.00622436)
(-0.0332929 0.0711507 -0.00447769)
(-0.035317 0.0628844 -0.00254136)
(-0.0358624 0.0554555 -0.000901437)
(-0.0350872 0.049064 0.000392336)
(-0.0335383 0.0436697 0.00134623)
(-0.0314972 0.0392249 0.00200374)
(-0.0289568 0.0355923 0.00238607)
(-0.0262008 0.0330302 0.00259288)
(-0.0225752 0.0317715 0.00276639)
(-0.0188829 0.0331675 0.00344167)
(-0.0120022 0.0372278 0.00586829)
(-0.00741053 0.0470058 0.0123836)
(0.00909514 0.0518269 0.0270344)
(0.00869404 0.0423391 0.049896)
(0.0387065 -0.0433162 0.0701125)
(-0.00742263 -0.246998 0.0387971)
(0.0596788 -0.463709 -0.055317)
(-0.0752514 0.102247 -0.0171205)
(-0.0608114 0.0639049 -0.0116115)
(-0.0600921 0.0613645 -0.00776939)
(-0.0392439 0.0530045 -0.00410173)
(-0.0213237 0.0447888 -0.00147287)
(-0.0021307 0.0386118 0.000598002)
(0.0154613 0.0340107 0.00226194)
(0.0321201 0.0300696 0.00348077)
(0.0467407 0.0270354 0.00433546)
(0.0609329 0.0241097 0.00479049)
(0.072605 0.0222967 0.00487958)
(0.0857308 0.0203494 0.00456519)
(0.0945875 0.0203424 0.00430306)
(0.1126 0.0202187 0.0037567)
(0.11762 0.0209079 0.00592488)
(0.157799 0.0191914 0.0116828)
(0.153374 -0.00372973 0.0173447)
(0.213928 -0.0550708 0.0339381)
(0.14833 -0.233454 0.0133882)
(0.146589 -0.419236 -0.070823)
(0.119501 0.139878 -0.0162481)
(0.151959 0.0859506 -0.0172211)
(0.230666 0.0637894 -0.016649)
(0.285005 0.0484899 -0.0148229)
(0.327004 0.0375858 -0.0125294)
(0.364326 0.0294844 -0.0104812)
(0.393651 0.0237774 -0.00831527)
(0.42306 0.0195502 -0.00644573)
(0.442814 0.0162488 -0.00463272)
(0.468577 0.0139302 -0.00291053)
(0.479557 0.0117621 -0.00168471)
(0.505917 0.0104732 -0.000249815)
(0.50689 0.00907504 0.000319612)
(0.538697 0.0084953 0.00108034)
(0.527524 0.00724227 0.00201345)
(0.566096 0.00481929 0.00148383)
(0.53477 -0.00328105 0.00469117)
(0.556753 -0.0237634 -0.00163804)
(0.432215 -0.0725102 -0.00695378)
(0.301674 -0.148505 -0.082726)
(-0.000121897 0.000121946 -6.30624e-05)
(-0.000861537 0.000346555 -5.02369e-05)
(-0.00203097 0.000401203 -3.82525e-05)
(-0.00313225 0.000400624 -2.90443e-05)
(-0.0042044 0.00038465 -2.56372e-05)
(-0.00520824 0.000361654 -2.69721e-05)
(-0.00612145 0.000331309 -3.22729e-05)
(-0.00692168 0.000291967 -4.14897e-05)
(-0.00758323 0.000241977 -5.46503e-05)