/*--------------------------------*- C++ -*----------------------------------*\
  =========                 |
  \\      /  F ield         | OpenFOAM: The Open Source CFD Toolbox
   \\    /   O peration     | Website:  https://openfoam.org
    \\  /    A nd           | Version:  10
     \\/     M anipulation  |
\*---------------------------------------------------------------------------*/
FoamFile
{
    format      ascii;
    class       volVectorField;
    location    "8.6";
    object      U;
}
// * * * * * * * * * * * * * * * * * * * * * * * * * * * * * * * * * * * * * //

dimensions      [0 1 -1 0 0 0 0];

internalField   nonuniform List<vector> 
8000
(
(-8.02797e-05 0.000108805 -4.07018e-05)
(-0.000552788 0.000226062 -3.68576e-06)
(-0.00133187 0.000263221 1.43542e-05)
(-0.00213594 0.00027985 2.37907e-05)
(-0.00298424 0.000294192 2.44193e-05)
(-0.00385598 0.000311375 1.92552e-05)
(-0.00474317 0.000330508 9.46149e-06)
(-0.00563264 0.000348446 -5.60575e-06)
(-0.00650023 0.000360941 -2.7487e-05)
(-0.00730794 0.000362773 -5.81662e-05)
(-0.0080012 0.000347822 -9.97904e-05)
(-0.00850775 0.000309735 -0.000154173)
(-0.00874045 0.000243892 -0.00022191)
(-0.00860586 0.000148997 -0.000301194)
(-0.00802087 2.76811e-05 -0.000385947)
(-0.00693821 -0.000108486 -0.000463289)
(-0.00538848 -0.000230153 -0.000514571)
(-0.00354931 -0.000297573 -0.000517682)
(-0.00152642 -0.000269277 -0.000455778)
(-0.000230564 -5.65303e-05 -0.000238608)
(-0.000193695 0.000704869 -0.000126126)
(-0.001035 0.00122287 -0.000110748)
(-0.00232668 0.00139809 -9.9965e-05)
(-0.00365966 0.00147237 -9.12221e-05)
(-0.0050552 0.00152115 -8.91988e-05)
(-0.0064755 0.00156625 -9.19961e-05)
(-0.00790142 0.00160633 -9.90356e-05)
(-0.00930776 0.00163068 -0.000111453)
(-0.0106545 0.00162371 -0.000131306)
(-0.0118825 0.00156622 -0.000161302)
(-0.0129098 0.00143646 -0.000204551)
(-0.0136297 0.00121265 -0.000263946)
(-0.0139153 0.000877304 -0.000340929)
(-0.0136349 0.000425931 -0.000434235)
(-0.0126728 -0.000119791 -0.000538771)
(-0.0109581 -0.000701616 -0.000633394)
(-0.00853466 -0.00121255 -0.000693753)
(-0.00566247 -0.00149918 -0.000688655)
(-0.00250246 -0.00139773 -0.000590889)
(-0.000420609 -0.000585928 -0.000267576)
(-0.000229012 0.00169557 -0.000173873)
(-0.00120428 0.00279501 -0.000170649)
(-0.00268654 0.00317033 -0.000163791)
(-0.00420729 0.00332124 -0.000154645)
(-0.00579434 0.00340586 -0.000150754)
(-0.00740586 0.00347008 -0.000150943)
(-0.00902209 0.00351406 -0.000155047)
(-0.0106176 0.00351908 -0.00016464)
(-0.0121513 0.00345625 -0.00018237)
(-0.0135617 0.00328914 -0.000211872)
(-0.0147613 0.00297633 -0.000257491)
(-0.0156345 0.00247604 -0.000323659)
(-0.016038 0.00175515 -0.000413761)
(-0.0158077 0.000806057 -0.000528204)
(-0.0147855 -0.000329382 -0.000658413)
(-0.0128624 -0.00154367 -0.000781816)
(-0.0100594 -0.00262283 -0.000863165)
(-0.00667419 -0.0032491 -0.000858282)
(-0.00289614 -0.00307455 -0.000729661)
(-0.000448344 -0.00145136 -0.000314101)
(-0.000232306 0.00274245 -0.000207499)
(-0.00124419 0.0044621 -0.000214688)
(-0.00278707 0.00504261 -0.000211197)
(-0.00436631 0.00526751 -0.000202143)
(-0.00601828 0.00538696 -0.000197442)
(-0.00770322 0.0054735 -0.000196567)
(-0.00940696 0.00553025 -0.00019979)
(-0.0111107 0.00553219 -0.000209197)
(-0.0127806 0.00543872 -0.000228166)
(-0.0143614 0.00519663 -0.000261504)
(-0.0157682 0.00474277 -0.000315392)
(-0.0168793 0.00401045 -0.000396679)
(-0.0175308 0.00294293 -0.000511155)
(-0.0175204 0.00151644 -0.000660707)
(-0.0166364 -0.000227008 -0.000845678)
(-0.0146839 -0.00212787 -0.00102492)
(-0.0116019 -0.00387596 -0.0011521)
(-0.00771681 -0.00494335 -0.0011585)
(-0.00323739 -0.00473638 -0.00098529)
(-0.000414655 -0.00220184 -0.000420007)
(-0.000220605 0.00384147 -0.000230504)
(-0.00122433 0.00622046 -0.000246591)
(-0.00277168 0.00701903 -0.00024594)
(-0.00435814 0.00732522 -0.000237497)
(-0.00602791 0.0074895 -0.00023335)
(-0.00774625 0.00761501 -0.000233643)
(-0.00950841 0.00771074 -0.000239191)
(-0.0113071 0.0077482 -0.000252795)
(-0.013122 0.00767764 -0.000278886)
(-0.0149113 0.00743046 -0.000323928)
(-0.0165998 0.00692008 -0.000396792)
(-0.0180657 0.00604752 -0.000508375)
(-0.0191261 0.00471625 -0.000669509)
(-0.0195285 0.00286073 -0.000887258)
(-0.0189593 0.000498463 -0.00115396)
(-0.0171083 -0.00218059 -0.00144495)
(-0.0137748 -0.00477909 -0.00166942)
(-0.00925438 -0.0064885 -0.00171528)
(-0.00374558 -0.00635655 -0.00147309)
(-0.000353121 -0.00279492 -0.000629083)
(-0.000201201 0.00495231 -0.000248047)
(-0.00117381 0.00801599 -0.000272298)
(-0.00269731 0.00904472 -0.00027433)
(-0.00426514 0.00944241 -0.000267)
(-0.00592791 0.00966738 -0.000264468)
(-0.00765732 0.00985848 -0.000267663)
(-0.00946059 0.0100352 -0.000278114)
(-0.011346 0.0101702 -0.000299608)
(-0.0133122 0.0102094 -0.000338065)
(-0.0153397 0.010073 -0.000402331)
(-0.0173745 0.00965244 -0.000505184)
(-0.0193065 0.00881096 -0.000663894)
(-0.0209427 0.00739543 -0.000898429)
(-0.0219803 0.0052683 -0.00122469)
(-0.021991 0.00237112 -0.00164501)
(-0.0204972 -0.00116331 -0.00214432)
(-0.0170287 -0.00479036 -0.00257121)
(-0.011731 -0.00748232 -0.00273827)
(-0.00466835 -0.00769259 -0.00240402)
(-0.000299596 -0.00307145 -0.00102627)
(-0.000176235 0.00605567 -0.000264186)
(-0.00110235 0.00982286 -0.000296718)
(-0.00258209 0.0110929 -0.000301401)
(-0.00410966 0.0115921 -0.000295228)
(-0.00574056 0.0118942 -0.000294534)
(-0.00745302 0.0121802 -0.000301242)
(-0.0092675 0.0124864 -0.000317842)
(-0.0112108 0.0127941 -0.000349424)
(-0.0133066 0.0130537 -0.000403917)
(-0.0155668 0.0131834 -0.000493533)
(-0.0179749 0.0130614 -0.000636814)
(-0.0204566 0.0125183 -0.000860931)
(-0.0228371 0.0113358 -0.00120187)
(-0.0247912 0.00927269 -0.00169697)
(-0.0257941 0.00613355 -0.00236882)
(-0.0250797 0.00190311 -0.00321027)
(-0.0218524 -0.00295084 -0.00409275)
(-0.015871 -0.00709095 -0.00459496)
(-0.00660755 -0.0082813 -0.00419642)
(-0.000435273 -0.00292256 -0.00182673)
(-0.000146213 0.00714064 -0.00028113)
(-0.00101314 0.011627 -0.000322557)
(-0.00243097 0.0131462 -0.000329638)
(-0.00389366 0.0137514 -0.000323944)
(-0.00545982 0.0141407 -0.000324274)
(-0.00711282 0.0145448 -0.000333793)
(-0.00888564 0.0150247 -0.000356186)
(-0.0108245 0.0155804 -0.000398193)
(-0.0129815 0.0161802 -0.000470303)
(-0.015409 0.0167586 -0.000589031)
(-0.0181443 0.0172035 -0.000780674)
(-0.0211808 0.017337 -0.00108658)
(-0.0244142 0.0168978 -0.00156781)
(-0.0275601 0.0155369 -0.00230263)
(-0.0300647 0.0128594 -0.00336239)
(-0.0310039 0.00854579 -0.00475908)
(-0.0289699 0.00260116 -0.00641349)
(-0.022924 -0.00382314 -0.0077412)
(-0.0110876 -0.00724621 -0.00746597)
(-0.00138996 -0.00234583 -0.00353436)
(-0.000112444 0.00820107 -0.00030045)
(-0.000911202 0.0134199 -0.000351695)
(-0.00225088 0.0151883 -0.000360559)
(-0.00362031 0.0158922 -0.000353809)
(-0.00507938 0.0163642 -0.000353191)
(-0.0066136 0.0168932 -0.000363359)
(-0.00826542 0.0175738 -0.000389393)
(-0.0100972 0.018436 -0.000439829)
(-0.012187 0.0194828 -0.000527921)
(-0.0146285 0.0206913 -0.000674998)
(-0.0175243 0.0219981 -0.000916239)
(-0.0209652 0.0232749 -0.00130943)
(-0.0249851 0.0242944 -0.00194546)
(-0.0294775 0.024678 -0.00295314)
(-0.0340546 0.0238326 -0.00448396)
(-0.0378107 0.0208551 -0.00664421)
(-0.0389116 0.0144938 -0.00928382)
(-0.0345346 0.0045205 -0.011873)
(-0.0207249 -0.00425461 -0.0123558)
(-0.00462823 -0.00199375 -0.00703098)
(-7.85791e-05 0.00923872 -0.000324095)
(-0.000808857 0.0152016 -0.000386291)
(-0.00206042 0.0172066 -0.00039593)
(-0.00330738 0.0179828 -0.000385665)
(-0.00460989 0.0185089 -0.000380879)
(-0.00595125 0.0191417 -0.000387956)
(-0.00737773 0.0200168 -0.000413485)
(-0.00895998 0.0212053 -0.000467695)
(-0.0107909 0.0227623 -0.000566165)
(-0.0129922 0.0247359 -0.000733839)
(-0.0157184 0.0271599 -0.00101194)
(-0.019156 0.0300339 -0.00146775)
(-0.0235178 0.0332832 -0.00220246)
(-0.0290158 0.0366249 -0.0033436)
(-0.0357852 0.039251 -0.00502338)
(-0.0436061 0.0391573 -0.0073776)
(-0.0504546 0.0323941 -0.0105894)
(-0.0511719 0.0159367 -0.014316)
(-0.0379519 -0.00331249 -0.0158008)
(-0.0117441 -0.00494653 -0.0119487)
(-5.23664e-05 0.010271 -0.000355407)
(-0.000730903 0.0169889 -0.00042974)
(-0.00189777 0.0191973 -0.000438599)
(-0.00299753 0.0199916 -0.000421336)
(-0.00409208 0.0205099 -0.000407776)
(-0.00515776 0.0211857 -0.000406466)
(-0.00623793 0.0221999 -0.000425373)
(-0.00739803 0.0236695 -0.00047583)
(-0.00872499 0.0257129 -0.000574267)
(-0.0103382 0.0284708 -0.000745397)
(-0.0124047 0.0321156 -0.001027)
(-0.0151601 0.0368409 -0.00147041)
(-0.0189822 0.0428172 -0.00211374)
(-0.0245138 0.0498587 -0.00289688)
(-0.0327534 0.0565712 -0.0036526)
(-0.0448705 0.0587703 -0.00438216)
(-0.0597133 0.0484078 -0.00619185)
(-0.0696176 0.0194603 -0.00914184)
(-0.0589743 -0.0158649 -0.00995578)
(-0.0205644 -0.0213619 -0.0125864)
(-4.90034e-05 0.0113462 -0.000400705)
(-0.000722828 0.0188341 -0.00048979)
(-0.00183088 0.0211858 -0.000496805)
(-0.00276807 0.0219082 -0.000468377)
(-0.00360718 0.0223157 -0.000439809)
(-0.00431537 0.0229255 -0.000423076)
(-0.00492846 0.0239619 -0.000427596)
(-0.00549074 0.0255829 -0.00046499)
(-0.00605526 0.0279659 -0.000550355)
(-0.00669337 0.0313404 -0.000701393)
(-0.00751904 0.0360202 -0.000934581)
(-0.00872342 0.0423689 -0.0012375)
(-0.0107932 0.0507138 -0.00146653)
(-0.0149052 0.0606606 -0.00110163)
(-0.0234355 0.069609 0.000592121)
(-0.0404505 0.0703959 0.00370236)
(-0.0676909 0.0519178 0.00653165)
(-0.0907999 0.00295568 0.00976492)
(-0.0786616 -0.0540559 0.0118609)
(-0.0271433 -0.0603538 -0.00352687)
(-9.51713e-05 0.0125476 -0.000469478)
(-0.000856082 0.0208009 -0.000572363)
(-0.00196174 0.0231748 -0.000570943)
(-0.00273609 0.0236798 -0.000523315)
(-0.00328314 0.0238335 -0.000472864)
(-0.00356361 0.0242299 -0.000435158)
(-0.00360816 0.0251175 -0.000419594)
(-0.00342829 0.0266768 -0.000435984)
(-0.00301947 0.0291163 -0.000496283)
(-0.0023626 0.0327093 -0.000604326)
(-0.00147675 0.0378551 -0.000742381)
(-0.000468078 0.0449782 -0.000792859)
(5.07923e-05 0.0543785 -0.000354384)
(-0.00181983 0.0651474 0.00170636)
(-0.010908 0.0736882 0.00671653)
(-0.0357322 0.0705438 0.0152852)
(-0.0812348 0.0386727 0.0268013)
(-0.112627 -0.0453354 0.0383593)
(-0.095906 -0.127579 0.0308919)
(-0.0348727 -0.125735 0.00560089)
(-0.000257849 0.0140926 -0.000598549)
(-0.00128769 0.0231853 -0.000733661)
(-0.00247388 0.0254687 -0.000732103)
(-0.00307245 0.025593 -0.000658939)
(-0.00327912 0.0252852 -0.00056979)
(-0.00307691 0.0252317 -0.000491321)
(-0.00249567 0.0257068 -0.000438408)
(-0.00150657 0.0268922 -0.000422936)
(-4.4543e-05 0.0289897 -0.000450423)
(0.00202565 0.0322722 -0.000507541)
(0.00480502 0.0371162 -0.000551386)
(0.00829768 0.0439011 -0.00038004)
(0.011708 0.0528529 0.000662028)
(0.0125984 0.0628202 0.00423818)
(0.00358582 0.0700627 0.012523)
(-0.0287169 0.0616254 0.0264992)
(-0.086472 0.00742228 0.0442314)
(-0.117913 -0.117163 0.0465536)
(-0.112333 -0.206134 0.0244139)
(-0.0434509 -0.209215 0.000496718)
(-0.00058364 0.0164986 -0.000800394)
(-0.00207023 0.0258535 -0.000916732)
(-0.0034635 0.027493 -0.000883488)
(-0.00395177 0.0267656 -0.00075696)
(-0.00385729 0.0257939 -0.000626696)
(-0.00316185 0.0252163 -0.000514208)
(-0.00193044 0.0252221 -0.000434467)
(-0.000122229 0.0258985 -0.0003956)
(0.00238989 0.0273968 -0.000399562)
(0.00582898 0.0299141 -0.000441591)
(0.0103975 0.0337502 -0.000447163)
(0.0162887 0.039139 -0.000210197)
(0.0227649 0.0462483 0.00108535)
(0.0277472 0.0540985 0.00510682)
(0.0233281 0.0598113 0.0149445)
(-0.00322398 0.0464313 0.0304188)
(-0.0593319 -0.0243235 0.0443723)
(-0.0938901 -0.158949 0.0335113)
(-0.116705 -0.254817 0.0134878)
(-0.0450482 -0.288585 -0.0149388)
(-0.00195033 0.0188386 -0.00130326)
(-0.00478192 0.0303436 -0.00153723)
(-0.00594832 0.0315118 -0.00145219)
(-0.00591005 0.0301681 -0.0012409)
(-0.00505846 0.0281428 -0.00099328)
(-0.00364699 0.0264557 -0.000769231)
(-0.00173673 0.0253518 -0.000600507)
(0.000792503 0.0249132 -0.000495718)
(0.00414457 0.0252493 -0.000469851)
(0.0086397 0.0264155 -0.000516535)
(0.0145602 0.0286148 -0.000573852)
(0.0222884 0.031838 -0.000448489)
(0.0312574 0.0361461 0.000626084)
(0.0405991 0.0403996 0.00385861)
(0.043325 0.0436335 0.0122859)
(0.0334523 0.0302931 0.0254543)
(-0.0115129 -0.0378063 0.0345423)
(-0.0528935 -0.159795 0.0248889)
(-0.105383 -0.278531 0.00900194)
(-0.0409634 -0.348546 -0.030814)
(-0.00132429 0.0302517 -0.00231571)
(-0.0049002 0.034017 -0.00222219)
(-0.00814688 0.0324949 -0.00200447)
(-0.00826908 0.0285164 -0.00152159)
(-0.00749323 0.0255572 -0.00116121)
(-0.00550818 0.0234296 -0.00085271)
(-0.00277044 0.0220266 -0.000632601)
(0.00073613 0.0211442 -0.00050736)
(0.00509758 0.0207951 -0.000502069)
(0.0106449 0.0208758 -0.000631022)
(0.017603 0.0215666 -0.0008237)
(0.0265095 0.0225759 -0.000971374)
(0.0366177 0.0239335 -0.000467264)
(0.0485802 0.0240417 0.0013666)
(0.0549849 0.02278 0.00679613)
(0.0588691 0.0106037 0.0160482)
(0.0247679 -0.0396561 0.0226824)
(-0.0112961 -0.142032 0.0209361)
(-0.0872159 -0.277819 0.00334148)
(-0.0325835 -0.386174 -0.0444659)
(-0.0128415 0.0275692 -0.00307491)
(-0.0214465 0.0483986 -0.00390507)
(-0.0152612 0.0441101 -0.00378424)
(-0.0131921 0.0390806 -0.00324403)
(-0.00858288 0.0330747 -0.00244385)
(-0.00358543 0.0281445 -0.0017237)
(0.00171437 0.0242968 -0.00119625)
(0.00741518 0.0213114 -0.000877498)
(0.0135049 0.0191597 -0.000781945)
(0.0205865 0.0175017 -0.000937157)
(0.028401 0.016489 -0.0012408)
(0.038102 0.015508 -0.0016566)
(0.047692 0.0150386 -0.00174772)
(0.0603998 0.0130843 -0.00101105)
(0.0652511 0.0103728 0.0017401)
(0.0768713 0.000180353 0.00791761)
(0.0509403 -0.030611 0.0123442)
(0.0418098 -0.11366 0.0169554)
(-0.0526926 -0.261314 -0.0011865)
(-0.0121476 -0.397851 -0.0555649)
(-0.04665 0.0875585 -0.0125187)
(-0.0298924 0.039534 -0.00900746)
(-0.020521 0.0331849 -0.00693929)
(-0.00106812 0.026095 -0.00498447)
(0.0153258 0.0196759 -0.00368761)
(0.0317317 0.0153536 -0.0026943)
(0.0460103 0.0125743 -0.00199164)
(0.059565 0.0104156 -0.00157172)
(0.0711373 0.00901226 -0.00136727)
(0.0834692 0.00767559 -0.00143403)
(0.0933557 0.00710714 -0.00167762)
(0.106767 0.00607535 -0.00214937)
(0.114908 0.00567279 -0.00255332)
(0.132598 0.00355755 -0.00261597)
(0.133298 -4.1511e-05 -0.00186608)
(0.156337 -0.0103438 0.00168253)
(0.129451 -0.0359609 0.00506153)
(0.151935 -0.0990738 0.0106293)
(0.0313527 -0.234843 -0.00378188)
(0.035633 -0.365159 -0.0657766)
(0.117515 0.112299 -0.0111858)
(0.144095 0.0598924 -0.0118821)
(0.215943 0.0394937 -0.0118079)
(0.260786 0.0261926 -0.0106776)
(0.293407 0.0173572 -0.00926256)
(0.321079 0.0113866 -0.00806192)
(0.341615 0.00767022 -0.00695691)
(0.361341 0.00512198 -0.00611376)
(0.374028 0.00363131 -0.00534136)
(0.390632 0.00243308 -0.00483039)
(0.39751 0.0018657 -0.00442198)
(0.414888 0.00124304 -0.00416602)
(0.415222 0.00095105 -0.00407704)
(0.43673 0.000139732 -0.00378558)
(0.424841 -0.00125735 -0.00361156)
(0.449823 -0.00493525 -0.00271799)
(0.40534 -0.0135573 -0.00176009)
(0.415806 -0.0324793 -0.00178068)
(0.249718 -0.072417 -0.00994549)
(0.167269 -0.137957 -0.0756313)
(-0.000134622 0.000162668 -0.0001363)
(-0.000939317 0.000404652 -0.000102297)
(-0.00227438 0.000488593 -7.63549e-05)
(-0.00364389 0.000517726 -6.21129e-05)
(-0.00506479 0.000534292 -6.52098e-05)
(-0.00650032 0.000551707 -8.2192e-05)
(-0.00793551 0.000569519 -0.00011238)
(-0.00934764 0.000582533 -0.000158296)
(-0.0106971 0.000583657 -0.000224159)
(-0.0119242 0.00056425 -0.000314957)
(-0.0129461 0.000514319 -0.000435661)
(-0.0136556 0.000423675 -0.000589821)
(-0.0139262 0.000284934 -0.000777337)
(-0.0136243 9.57939e-05 -0.000991783)
(-0.0126309 -0.000139823 -0.00121483)
(-0.0108804 -0.000393629 -0.00141524)
(-0.00842185 -0.000612145 -0.00154845)
(-0.00551752 -0.000715259 -0.00156412)
(-0.00235669 -0.000609646 -0.00141542)
(-0.000354438 -0.000146411 -0.000854925)
(-0.000394759 0.00110231 -0.000319318)
(-0.00201331 0.00214424 -0.000342506)
(-0.00446643 0.00251818 -0.000330904)
(-0.00698543 0.00264592 -0.000315766)
(-0.0095745 0.0026953 -0.000315829)
(-0.012158 0.00272049 -0.000330784)
(-0.0146936 0.00272349 -0.000361667)
(-0.0171303 0.00268665 -0.000412798)
(-0.0193942 0.00258378 -0.00049044)
(-0.0213831 0.00238313 -0.000602)
(-0.0229627 0.00204968 -0.000755021)
(-0.0239659 0.00154965 -0.000955144)
(-0.0242032 0.000858173 -0.0012029)
(-0.0234858 -2.62938e-05 -0.00149232)
(-0.0216463 -0.00105845 -0.00179757)
(-0.0185962 -0.00212483 -0.00207088)
(-0.0144292 -0.00301997 -0.00224838)
(-0.00954818 -0.00343917 -0.00225386)
(-0.00426281 -0.00302544 -0.00200354)
(-0.000760679 -0.00121751 -0.00111775)
(-0.000500649 0.00269466 -0.000426619)
(-0.00247629 0.00488712 -0.000485463)
(-0.00542202 0.00567248 -0.000483227)
(-0.00842772 0.00592796 -0.000466299)
(-0.0115005 0.00599888 -0.000461737)
(-0.0145516 0.00599637 -0.00047147)
(-0.0175325 0.00592907 -0.000497973)
(-0.0203865 0.00576613 -0.000547193)
(-0.0230329 0.00545881 -0.0006275)
(-0.0253608 0.00494704 -0.00074919)
(-0.027223 0.00416467 -0.000923324)
(-0.0284357 0.00304842 -0.00115969)
(-0.0287824 0.00155398 -0.00146367)
(-0.028025 -0.000315538 -0.00182949)
(-0.0259407 -0.00247621 -0.002226)
(-0.0223897 -0.00470282 -0.0025945)
(-0.0174359 -0.00658434 -0.00284232)
(-0.0115452 -0.00749178 -0.00285547)
(-0.00509361 -0.00667725 -0.00251415)
(-0.000867062 -0.00299323 -0.00134967)
(-0.000532165 0.0043877 -0.000507952)
(-0.00264749 0.00781126 -0.000597281)
(-0.00579882 0.00901922 -0.000603474)
(-0.00900444 0.00939438 -0.000586168)
(-0.0122824 0.00947972 -0.000579254)
(-0.0155449 0.00944825 -0.000586704)
(-0.0187506 0.00931715 -0.000612564)
(-0.0218513 0.00904429 -0.000664743)
(-0.0247752 0.00855993 -0.000754381)
(-0.0274183 0.00777518 -0.00089586)
(-0.0296347 0.00658826 -0.00110605)
(-0.0312275 0.00489689 -0.00140191)
(-0.0319456 0.00262264 -0.00179643)
(-0.0314986 -0.000249929 -0.00229116)
(-0.0295638 -0.00361338 -0.00285866)
(-0.0258631 -0.00715683 -0.00340942)
(-0.0203486 -0.0102367 -0.00380783)
(-0.0135144 -0.0118068 -0.00386223)
(-0.00579716 -0.0105937 -0.00337887)
(-0.000864106 -0.00472011 -0.00175566)
(-0.000530102 0.00616378 -0.000570399)
(-0.00268725 0.0108944 -0.000687016)
(-0.00592179 0.0125488 -0.000700968)
(-0.00921489 0.0130537 -0.000684831)
(-0.0125966 0.0131668 -0.00067882)
(-0.0159874 0.0131297 -0.00068907)
(-0.0193614 0.0129723 -0.00072154)
(-0.0226889 0.0126444 -0.000786753)
(-0.0259184 0.0120575 -0.000899742)
(-0.0289652 0.011093 -0.00108085)
(-0.0316949 0.00960695 -0.00135595)
(-0.0339051 0.00744181 -0.00175457)
(-0.035308 0.00445427 -0.00230385)
(-0.0355179 0.000569053 -0.00301642)
(-0.0340756 -0.00412284 -0.00387419)
(-0.0304947 -0.00925648 -0.00477416)
(-0.0244736 -0.0139328 -0.00548349)
(-0.0164453 -0.0165439 -0.00566134)
(-0.00684839 -0.0150158 -0.00493518)
(-0.000829006 -0.00645982 -0.00245659)
(-0.000514105 0.00796594 -0.000623696)
(-0.00267158 0.0140578 -0.000766535)
(-0.00593873 0.0161824 -0.000788227)
(-0.00927494 0.016834 -0.000774552)
(-0.0127212 0.0169999 -0.000771941)
(-0.0162104 0.0169992 -0.000788981)
(-0.0197377 0.0168806 -0.000834032)
(-0.0233003 0.016592 -0.000921034)
(-0.026878 0.0160307 -0.00107033)
(-0.0304202 0.0150505 -0.00131072)
(-0.033822 0.0134607 -0.00168157)
(-0.0368931 0.0110312 -0.00223308)
(-0.0393187 0.00751816 -0.00301932)
(-0.0406255 0.00272866 -0.00408108)
(-0.0401813 -0.00336065 -0.00544577)
(-0.0371902 -0.0103944 -0.00698723)
(-0.0309027 -0.017265 -0.00832473)
(-0.0214156 -0.0216799 -0.00883288)
(-0.0088554 -0.0202015 -0.00770773)
(-0.000841564 -0.00827074 -0.00362877)
(-0.000490843 0.00977196 -0.000676119)
(-0.00262881 0.0172705 -0.000846321)
(-0.00590367 0.0198891 -0.000875863)
(-0.00925699 0.0207056 -0.000864729)
(-0.0127394 0.0209527 -0.000865919)
(-0.0162977 0.0210377 -0.000890938)
(-0.0199528 0.0210376 -0.000951128)
(-0.0237358 0.0209078 -0.00106472)
(-0.0276707 0.0205414 -0.00125895)
(-0.0317595 0.0197733 -0.00157431)
(-0.0359555 0.0183694 -0.00207003)
(-0.04012 0.0160195 -0.00282932)
(-0.0439581 0.0123463 -0.00395828)
(-0.0469509 0.00696432 -0.00557067)
(-0.0483095 -0.000370511 -0.00772849)
(-0.0468882 -0.00947955 -0.0103526)
(-0.041255 -0.0194003 -0.0129147)
(-0.0304855 -0.0271851 -0.014162)
(-0.0134181 -0.026961 -0.0124549)
(-0.00125641 -0.010749 -0.00563286)
(-0.000461931 0.0115724 -0.000733016)
(-0.00256784 0.020521 -0.000933336)
(-0.00583236 0.0236537 -0.000970297)
(-0.00917553 0.0246471 -0.000959972)
(-0.0126558 0.0249969 -0.000962726)
(-0.0162336 0.0252121 -0.000993465)
(-0.0199571 0.0254098 -0.00106699)
(-0.0238977 0.0255672 -0.00120656)
(-0.0281345 0.0255914 -0.00144776)
(-0.032744 0.025319 -0.00184577)
(-0.0377745 0.0244948 -0.00248647)
(-0.043201 0.0227449 -0.00350083)
(-0.0488469 0.0195605 -0.00507495)
(-0.0542759 0.0143185 -0.00743158)
(-0.0586828 0.00637613 -0.0107484)
(-0.0607908 -0.00473343 -0.014991)
(-0.0581986 -0.0188377 -0.0192176)
(-0.0475345 -0.033419 -0.0214802)
(-0.0244175 -0.0379034 -0.0190628)
(-0.00322365 -0.0160591 -0.00908728)
(-0.000429135 0.0133629 -0.000798846)
(-0.00249592 0.0238041 -0.00103341)
(-0.00573489 0.0274614 -0.00107651)
(-0.00903406 0.0286279 -0.00106314)
(-0.0124576 0.0290835 -0.00106226)
(-0.0159767 0.0294541 -0.00109259)
(-0.0196657 0.0299116 -0.00117262)
(-0.0236367 0.030473 -0.00133071)
(-0.0280299 0.0310842 -0.001611)
(-0.0330123 0.0316198 -0.00208468)
(-0.0387655 0.0318534 -0.00286845)
(-0.0454544 0.0314144 -0.00415071)
(-0.0531722 0.0297447 -0.00621431)
(-0.0618639 0.0260392 -0.0094115)
(-0.0711671 0.019072 -0.0139656)
(-0.0798223 0.00671708 -0.0193846)
(-0.0843347 -0.0141799 -0.0239246)
(-0.0767318 -0.0431155 -0.0252629)
(-0.0471239 -0.0604326 -0.0227683)
(-0.0089746 -0.0301865 -0.0142519)
(-0.00039724 0.015148 -0.000879182)
(-0.00242917 0.0271245 -0.00115361)
(-0.00563454 0.0312993 -0.0012006)
(-0.00885115 0.0326088 -0.00117808)
(-0.0121476 0.0331416 -0.0011652)
(-0.0155006 0.0336574 -0.00118488)
(-0.0190056 0.0343977 -0.00125911)
(-0.022809 0.0354391 -0.00142044)
(-0.0271061 0.0367969 -0.00171962)
(-0.0321531 0.0384316 -0.00223986)
(-0.0382778 0.0402214 -0.00312055)
(-0.0458863 0.0419169 -0.00458663)
(-0.0554831 0.0430711 -0.00694483)
(-0.0677195 0.0427756 -0.010422)
(-0.0832966 0.0386584 -0.0146367)
(-0.101739 0.0247345 -0.0177023)
(-0.117045 -0.00959731 -0.0164542)
(-0.114127 -0.0663589 -0.0119355)
(-0.0791472 -0.107378 -0.0129961)
(-0.0198575 -0.0652387 -0.0177934)
(-0.000376555 0.016951 -0.000982866)
(-0.00240029 0.0305046 -0.00130424)
(-0.00558082 0.0351588 -0.00135136)
(-0.00867783 0.0365412 -0.00131102)
(-0.0117665 0.0370766 -0.00127455)
(-0.0148227 0.037675 -0.00126948)
(-0.0179533 0.0386575 -0.0013204)
(-0.0213238 0.0401757 -0.00146167)
(-0.0251611 0.0423414 -0.00174519)
(-0.0297819 0.045251 -0.00225378)
(-0.0356304 0.0489755 -0.00311899)
(-0.0433303 0.05352 -0.00451426)
(-0.0538187 0.0586729 -0.00649716)
(-0.0686085 0.0631549 -0.00844466)
(-0.0895293 0.0618584 -0.0081133)
(-0.116602 0.041903 -0.00128858)
(-0.14103 -0.0156265 0.0137263)
(-0.141406 -0.110455 0.0254853)
(-0.103975 -0.176633 0.0120612)
(-0.0310649 -0.133143 -0.010962)
(-0.000388801 0.018836 -0.00112616)
(-0.00247306 0.0340213 -0.00150651)
(-0.00566672 0.0390848 -0.00155127)
(-0.00861361 0.0404203 -0.00148278)
(-0.0114098 0.0408223 -0.00140714)
(-0.0140263 0.041367 -0.00135871)
(-0.0165723 0.0424616 -0.00136445)
(-0.0192076 0.0443367 -0.00145747)
(-0.0221494 0.0472121 -0.00168268)
(-0.0257088 0.0513465 -0.00210035)
(-0.0303471 0.0570501 -0.00277465)
(-0.0367457 0.0646018 -0.00366325)
(-0.0460341 0.073841 -0.004171)
(-0.0602973 0.0823344 -0.00203819)
(-0.0822091 0.080872 0.00728748)
(-0.112898 0.0499926 0.029228)
(-0.144399 -0.0316031 0.0593149)
(-0.14818 -0.155291 0.0674201)
(-0.113942 -0.237891 0.034547)
(-0.0360251 -0.217693 0.00321471)
(-0.000466599 0.0208861 -0.00133145)
(-0.00273262 0.0376964 -0.00177385)
(-0.00602147 0.0429787 -0.00180047)
(-0.00881437 0.0440582 -0.00168608)
(-0.0112493 0.0441444 -0.00155607)
(-0.0132885 0.0444612 -0.00145018)
(-0.0150417 0.0454703 -0.00139405)
(-0.0166412 0.0474599 -0.00141436)
(-0.0182468 0.0507386 -0.00154179)
(-0.0200805 0.0556919 -0.00179255)
(-0.0225046 0.0628105 -0.00211496)
(-0.0260828 0.0724932 -0.0021278)
(-0.0318867 0.0843646 -0.000416118)
(-0.042424 0.0945282 0.00688543)
(-0.0616345 0.090991 0.0260633)
(-0.0931049 0.0510221 0.0610938)
(-0.131861 -0.0442219 0.0956282)
(-0.1359 -0.183228 0.0850078)
(-0.113125 -0.281228 0.0377036)
(-0.0330415 -0.296407 0.00562217)
(-0.00071422 0.0234083 -0.00167354)
(-0.00344279 0.0420904 -0.00222965)
(-0.00693976 0.0475051 -0.00225222)
(-0.00951383 0.048124 -0.0020771)
(-0.0114659 0.0475671 -0.00185637)
(-0.0127981 0.0472742 -0.00165098)
(-0.013611 0.0477858 -0.00149523)
(-0.0139744 0.049434 -0.00141565)
(-0.0139559 0.0525678 -0.00142392)
(-0.0136322 0.0576211 -0.00148478)
(-0.0131886 0.0651517 -0.0014421)
(-0.012909 0.0755117 -0.000622157)
(-0.0137206 0.0881793 0.0029571)
(-0.0181218 0.098398 0.0142052)
(-0.0318548 0.0940671 0.0399104)
(-0.0603725 0.0509149 0.0794921)
(-0.100788 -0.0488339 0.106213)
(-0.10144 -0.196519 0.0754459)
(-0.103466 -0.310343 0.0296348)
(-0.0244207 -0.365972 -0.00591028)
(-0.00109174 0.0268374 -0.00216399)
(-0.00436426 0.0463386 -0.00274941)
(-0.00836407 0.0509796 -0.0027156)
(-0.010929 0.0504394 -0.00243261)
(-0.0125314 0.0490758 -0.00211973)
(-0.0131221 0.0482038 -0.00182691)
(-0.0128726 0.048233 -0.001589)
(-0.0118411 0.0493952 -0.00142571)
(-0.0100181 0.0519948 -0.00133844)
(-0.00731171 0.0564272 -0.00127912)
(-0.0037157 0.0632192 -0.00102326)
(0.000912439 0.0726366 0.000174006)
(0.00586539 0.0841993 0.00440658)
(0.00971653 0.0934788 0.016293)
(0.0058306 0.0903719 0.0424844)
(-0.00986135 0.0511685 0.0777524)
(-0.0446705 -0.0434182 0.0931905)
(-0.0475178 -0.182849 0.0576183)
(-0.0812871 -0.315655 0.0221096)
(-0.0105903 -0.419262 -0.0194491)
(-0.0031877 0.0298629 -0.00317125)
(-0.008686 0.0539249 -0.00401535)
(-0.0121594 0.0583417 -0.00391227)
(-0.0138545 0.0570732 -0.00349969)
(-0.0142466 0.0540469 -0.00297683)
(-0.0137444 0.0514523 -0.00247035)
(-0.0124029 0.0498208 -0.00204607)
(-0.0101262 0.0493942 -0.00173095)
(-0.00674049 0.0504127 -0.00154301)
(-0.0019555 0.0531147 -0.00142553)
(0.00444697 0.0579337 -0.00116327)
(0.0130044 0.0649311 -0.000164423)
(0.0231701 0.0737021 0.00336273)
(0.0349546 0.0805731 0.0126097)
(0.041511 0.0791977 0.0332905)
(0.0443292 0.0495795 0.0604636)
(0.0168744 -0.0305208 0.0692035)
(0.00992969 -0.149169 0.0444523)
(-0.0516032 -0.302964 0.0167064)
(0.00780943 -0.453278 -0.0320336)
(-0.00129901 0.0443578 -0.00513879)
(-0.00736726 0.0573135 -0.00570206)
(-0.0153734 0.05794 -0.00526047)
(-0.0173452 0.0532537 -0.00435032)
(-0.0181266 0.049657 -0.00362417)
(-0.0169245 0.047034 -0.00295538)
(-0.014449 0.0453453 -0.00241315)
(-0.0106861 0.0444641 -0.0020226)
(-0.0055719 0.0445376 -0.00182886)
(0.00126425 0.0456173 -0.0017988)
(0.0100632 0.0481827 -0.00177649)
(0.0215894 0.0520011 -0.0013769)
(0.0351235 0.0568733 0.000715871)
(0.0523277 0.0597821 0.00616513)
(0.0644017 0.0572387 0.0189095)
(0.0809731 0.0369419 0.0373825)
(0.0599036 -0.021687 0.0433768)
(0.0582822 -0.111862 0.0341203)
(-0.0194273 -0.279711 0.0122369)
(0.0341528 -0.467211 -0.0435635)
(-0.0124557 0.0348977 -0.00601684)
(-0.0235122 0.0781093 -0.00796328)
(-0.0205322 0.0763605 -0.00815907)
(-0.0238376 0.0704715 -0.00735792)
(-0.0223293 0.0625126 -0.00601122)
(-0.0190876 0.0557769 -0.00471236)
(-0.0140762 0.0503596 -0.00369111)
(-0.00757045 0.0461103 -0.00299715)
(0.000227009 0.0430899 -0.00268238)
(0.00979771 0.0409918 -0.00272621)
(0.0207981 0.0401649 -0.0030274)
(0.034433 0.040038 -0.00331593)
(0.0487616 0.0412317 -0.00280788)
(0.0680479 0.0409025 -0.000313151)
(0.0793726 0.0387512 0.00552916)
(0.10315 0.0268788 0.0174248)
(0.0882848 -0.00852106 0.0199239)
(0.109267 -0.072112 0.0218124)
(0.036486 -0.252082 0.0076708)
(0.0776 -0.460053 -0.0542798)
(-0.076308 0.0991724 -0.0200906)
(-0.0610756 0.0599251 -0.0163782)
(-0.0601228 0.0591312 -0.0133083)
(-0.0369893 0.0512178 -0.0106044)
(-0.017441 0.0432399 -0.00872452)
(0.00428872 0.0373564 -0.00712914)
(0.0244656 0.0331408 -0.00594439)
(0.0447682 0.0295562 -0.00513463)
(0.0629987 0.0270378 -0.00467352)
(0.0827563 0.0246427 -0.00461591)
(0.099121 0.0234299 -0.00488571)
(0.120521 0.0219869 -0.00543881)
(0.134176 0.0214497 -0.00600359)
(0.162113 0.0202732 -0.00564184)
(0.168448 0.0156574 -0.00432394)
(0.206564 0.00804275 0.000550761)
(0.190525 -0.0231445 0.00502282)
(0.231673 -0.0723271 0.0072263)
(0.155294 -0.231735 0.00240746)
(0.150412 -0.412413 -0.0653606)
(0.119082 0.14015 -0.0171673)
(0.151429 0.0855161 -0.0190357)
(0.228618 0.063075 -0.0192896)
(0.283428 0.047589 -0.0180509)
(0.324599 0.0366995 -0.016319)
(0.362671 0.0286416 -0.0147918)
(0.391156 0.0230246 -0.0132954)
(0.422016 0.0187653 -0.0122)
(0.441338 0.0157447 -0.0110024)
(0.469514 0.0133233 -0.010425)
(0.481164 0.0115315 -0.00952842)
(0.510385 0.0101613 -0.00955328)
(0.513994 0.00892354 -0.00871891)
(0.547025 0.00783275 -0.00926337)
(0.53939 0.00588833 -0.00755662)
(0.574294 0.00196097 -0.00845355)
(0.541335 -0.00647438 -0.00474193)
(0.554017 -0.0255248 -0.00977425)
(0.424327 -0.0672869 -0.0112791)
(0.302563 -0.144526 -0.0783637)
(-0.000147907 0.000154505 -0.000212586)
(-0.00107467 0.00044292 -0.000244681)
(-0.00262399 0.000546101 -0.000238085)
(-0.00420528 0.000579385 -0.000233204)
(-0.00583441 0.000594391 -0.000244511)
(-0.00746791 0.000608559 -0.000273109)
(-0.00908919 0.000621845 -0.00032087)
(-0.0106731 0.000628288 -0.000392006)
(-0.012176 0.000619654 -0.00049221)
(-0.0135324 0.000585848 -0.000627719)
(-0.0146514 0.00051516 -0.000804205)
(-0.015416 0.000395659 -0.00102486)
(-0.0156875 0.000218625 -0.00128755)
(-0.0153165 -2.08232e-05 -0.00158183)
(-0.0141688 -0.000313621 -0.00188201)
(-0.012169 -0.000625116 -0.00214971)
(-0.00937051 -0.000887075 -0.0023326)
(-0.00607476 -0.000996865 -0.00237359)
(-0.00251565 -0.000834405 -0.00220298)
(-0.000335206 -0.000224546 -0.00145557)
(-0.000472893 0.00117527 -0.000397909)
(-0.00242072 0.00241252 -0.000510048)
(-0.00537144 0.00286651 -0.000520214)
(-0.00838361 0.00300956 -0.00051408)