/*--------------------------------*- C++ -*----------------------------------*\
  =========                 |
  \\      /  F ield         | OpenFOAM: The Open Source CFD Toolbox
   \\    /   O peration     | Website:  https://openfoam.org
    \\  /    A nd           | Version:  10
     \\/     M anipulation  |
\*---------------------------------------------------------------------------*/
FoamFile
{
    format      ascii;
    class       volVectorField;
    location    "6.35";
    object      U;
}
// * * * * * * * * * * * * * * * * * * * * * * * * * * * * * * * * * * * * * //

dimensions      [0 1 -1 0 0 0 0];

internalField   nonuniform List<vector> 
400
(
(-0.000110085 0.000100887 0)
(-0.000901353 0.000341708 0)
(-0.0022453 0.000425532 0)
(-0.00359101 0.000445613 0)
(-0.0049504 0.000448732 0)
(-0.00628394 0.000448134 0)
(-0.00757102 0.000443034 0)
(-0.00878749 0.000428757 0)
(-0.00989811 0.000399638 0)
(-0.0108554 0.000349475 0)
(-0.0115986 0.000271954 0)
(-0.0120547 0.000161599 0)
(-0.0121407 1.43334e-05 0)
(-0.0117704 -0.000171531 0)
(-0.0108689 -0.000388226 0)
(-0.00939048 -0.000617816 0)
(-0.00735249 -0.000824807 0)
(-0.00491615 -0.000947643 0)
(-0.00217348 -0.000878352 0)
(-0.00035732 -0.000398677 0)
(-0.00037757 0.000912784 0)
(-0.00202623 0.00194178 0)
(-0.00454116 0.00228966 0)
(-0.00704786 0.00235548 0)
(-0.00954452 0.00232446 0)
(-0.0119523 0.00225161 0)
(-0.0142216 0.0021393 0)
(-0.0163026 0.00197425 0)
(-0.0181331 0.00173864 0)
(-0.0196363 0.00141273 0)
(-0.0207197 0.000976518 0)
(-0.0212774 0.000412144 0)
(-0.0211948 -0.000290908 0)
(-0.0203545 -0.00112296 0)
(-0.0186571 -0.00204915 0)
(-0.0160506 -0.00299543 0)
(-0.0125807 -0.00382481 0)
(-0.00849278 -0.00429822 0)
(-0.00394496 -0.00400819 0)
(-0.000773068 -0.00211487 0)
(-0.000488087 0.00235916 0)
(-0.00251007 0.00451024 0)
(-0.00553132 0.0052145 0)
(-0.00851998 0.00532066 0)
(-0.0114791 0.00520635 0)
(-0.0143177 0.00498485 0)
(-0.0169793 0.00466636 0)
(-0.0194086 0.00423004 0)
(-0.0215382 0.00364509 0)
(-0.0232856 0.00287641 0)
(-0.0245525 0.00188825 0)
(-0.0252235 0.000649623 0)
(-0.0251625 -0.000855238 0)
(-0.0242261 -0.00261071 0)
(-0.022288 -0.00454786 0)
(-0.0192632 -0.0065186 0)
(-0.015176 -0.00824575 0)
(-0.0102972 -0.00923786 0)
(-0.00480252 -0.00866488 0)
(-0.000943785 -0.00481042 0)
(-0.00052255 0.00388035 0)
(-0.00270185 0.00722106 0)
(-0.00595327 0.00828576 0)
(-0.00915845 0.00842178 0)
(-0.0123336 0.00821652 0)
(-0.0153874 0.00784392 0)
(-0.0182677 0.0073218 0)
(-0.0209242 0.00662167 0)
(-0.0232936 0.00569901 0)
(-0.0252958 0.00450077 0)
(-0.0268297 0.00297089 0)
(-0.0277695 0.00105935 0)
(-0.0279603 -0.00126373 0)
(-0.0272156 -0.00399513 0)
(-0.0253417 -0.00704548 0)
(-0.0221746 -0.0101985 0)
(-0.0176653 -0.0130205 0)
(-0.0120894 -0.0147052 0)
(-0.00563623 -0.0138854 0)
(-0.00108389 -0.007787 0)
(-0.000532575 0.0054772 0)
(-0.00280143 0.0100823 0)
(-0.00620312 0.0115272 0)
(-0.00955659 0.0116988 0)
(-0.0128923 0.01141 0)
(-0.0161236 0.0108996 0)
(-0.0192086 0.0101944 0)
(-0.0221083 0.00925832 0)
(-0.0247702 0.0080321 0)
(-0.0271219 0.00644085 0)
(-0.0290632 0.00439959 0)
(-0.0304562 0.00182422 0)
(-0.0311192 -0.00135048 0)
(-0.0308062 -0.00515403 0)
(-0.0292226 -0.00950112 0)
(-0.0260709 -0.01412 0)
(-0.0211514 -0.0183945 0)
(-0.0146899 -0.0211004 0)
(-0.00687518 -0.020119 0)
(-0.00129312 -0.0113124 0)
(-0.000538386 0.00712104 0)
(-0.00288841 0.0130611 0)
(-0.00643519 0.0149107 0)
(-0.00993686 0.0151304 0)
(-0.0134384 0.0147754 0)
(-0.0168607 0.0141551 0)
(-0.0201769 0.0133077 0)
(-0.023365 0.0121908 0)
(-0.0263905 0.0107295 0)
(-0.0291982 0.00882296 0)
(-0.0316974 0.0063473 0)
(-0.0337447 0.00316399 0)
(-0.0351365 -0.000861689 0)
(-0.0355548 -0.00581628 0)
(-0.0345653 -0.0116874 0)
(-0.0316658 -0.0181808 0)
(-0.0263905 -0.0244767 0)
(-0.0187806 -0.0287918 0)
(-0.00892556 -0.0278826 0)
(-0.00166133 -0.0156962 0)
(-0.000544952 0.00881075 0)
(-0.00298537 0.0161604 0)
(-0.00669295 0.0184421 0)
(-0.010357 0.0187246 0)
(-0.0140383 0.0183246 0)
(-0.0176678 0.0176301 0)
(-0.021238 0.0166947 0)
(-0.0247509 0.0154726 0)
(-0.0282004 0.0138744 0)
(-0.0315621 0.0117716 0)
(-0.0347737 0.00899231 0)
(-0.0377099 0.00532191 0)
(-0.0401435 0.000519656 0)
(-0.0417087 -0.00562154 0)
(-0.041824 -0.0132459 0)
(-0.039681 -0.0221353 0)
(-0.0343812 -0.0313095 0)
(-0.025484 -0.0382766 0)
(-0.0126213 -0.0380562 0)
(-0.00239863 -0.0215553 0)
(-0.00055267 0.0105539 0)
(-0.00309646 0.0193969 0)
(-0.00698355 0.0221383 0)
(-0.0108207 0.022495 0)
(-0.014687 0.0220692 0)
(-0.018525 0.0213376 0)
(-0.0223512 0.0203756 0)
(-0.0261997 0.0191405 0)
(-0.0301051 0.0175345 0)
(-0.0340927 0.0154045 0)
(-0.0381581 0.0125287 0)
(-0.0422292 0.00860293 0)
(-0.0461056 0.00324084 0)
(-0.0494192 -0.00399847 0)
(-0.0514713 -0.0135031 0)
(-0.0511188 -0.0253425 0)
(-0.0468311 -0.038583 0)
(-0.0370975 -0.0500416 0)
(-0.0200448 -0.0521004 0)
(-0.00409689 -0.0302455 0)
(-0.000562171 0.0123588 0)
(-0.00322466 0.0227881 0)
(-0.00730937 0.0260123 0)
(-0.0113224 0.0264456 0)
(-0.0153638 0.0260045 0)
(-0.0193887 0.025267 0)
(-0.0234417 0.0243403 0)
(-0.0275964 0.0231952 0)
(-0.0319408 0.021738 0)
(-0.0365725 0.0198046 0)
(-0.0415815 0.0171334 0)
(-0.0470119 0.0133308 0)
(-0.0527962 0.00783192 0)
(-0.0586615 -0.000101837 0)
(-0.063961 -0.0112487 0)
(-0.0673992 -0.0263141 0)
(-0.0666709 -0.0449688 0)
(-0.0579945 -0.064063 0)
(-0.0356466 -0.0724534 0)
(-0.00817129 -0.0447779 0)
(-0.000576562 0.014237 0)
(-0.00337965 0.0263535 0)
(-0.00768191 0.0300723 0)
(-0.0118648 0.0305674 0)
(-0.016054 0.0301046 0)
(-0.0202169 0.0293785 0)
(-0.0244281 0.028539 0)
(-0.0288049 0.0275853 0)
(-0.0334992 0.0264486 0)
(-0.0387025 0.0249823 0)
(-0.044643 0.0229219 0)
(-0.0515652 0.0198218 0)
(-0.0596683 0.0149705 0)
(-0.0690029 0.00732837 0)
(-0.0794516 -0.00445464 0)
(-0.0901048 -0.0219559 0)
(-0.0977065 -0.0470866 0)
(-0.093492 -0.0791439 0)
(-0.0642292 -0.103384 0)
(-0.0162913 -0.0716691 0)
(-0.000603632 0.0162102 0)
(-0.00358445 0.0301207 0)
(-0.00813179 0.0343237 0)
(-0.012471 0.0348383 0)
(-0.0167621 0.0343203 0)
(-0.0209839 0.0335966 0)
(-0.02524 0.0328719 0)
(-0.0296897 0.0321906 0)
(-0.0345474 0.0315356 0)
(-0.0401058 0.030821 0)
(-0.0467613 0.0298474 0)
(-0.0550398 0.028222 0)
(-0.0656067 0.0252436 0)
(-0.0792696 0.0197735 0)
(-0.0969467 0.0100296 0)
(-0.119022 -0.00735897 0)
(-0.139913 -0.0395926 0)
(-0.140537 -0.0946145 0)
(-0.100711 -0.151665 0)
(-0.0281785 -0.12034 0)
(-0.000659781 0.0183221 0)
(-0.00388493 0.0341394 0)
(-0.00872083 0.0387835 0)
(-0.0131962 0.039235 0)
(-0.0175248 0.0385861 0)
(-0.0216965 0.0378132 0)
(-0.0258395 0.0371873 0)
(-0.0301448 0.0368125 0)
(-0.0348734 0.0367537 0)
(-0.0404008 0.0370423 0)
(-0.0472791 0.037644 0)
(-0.0563327 0.0383953 0)
(-0.0687874 0.0389116 0)
(-0.0864578 0.0384164 0)
(-0.111895 0.0348151 0)
(-0.145791 0.0203869 0)
(-0.176829 -0.0235993 0)
(-0.174237 -0.118192 0)
(-0.126825 -0.221367 0)
(-0.0420894 -0.197477 0)
(-0.000775183 0.0206346 0)
(-0.00435646 0.0384243 0)
(-0.00955073 0.0433712 0)
(-0.0141425 0.0436151 0)
(-0.0184307 0.0427325 0)
(-0.0224152 0.0418354 0)
(-0.0262465 0.0412446 0)
(-0.0301274 0.0411321 0)
(-0.0343229 0.0416667 0)
(-0.0392282 0.0430448 0)
(-0.0454635 0.0455014 0)
(-0.0540242 0.0493143 0)
(-0.0664801 0.054764 0)
(-0.0851842 0.0615911 0)
(-0.113389 0.066377 0)
(-0.150099 0.0534856 0)
(-0.178694 -0.00847841 0)
(-0.16717 -0.148577 0)
(-0.13304 -0.293067 0)
(-0.0517703 -0.298033 0)
(-0.0010341 0.0234147 0)
(-0.00520887 0.0434628 0)
(-0.0108365 0.0486521 0)
(-0.0154516 0.0485293 0)
(-0.0195659 0.0471495 0)
(-0.0232168 0.0458444 0)
(-0.0265478 0.0450268 0)
(-0.029727 0.044945 0)
(-0.0329698 0.0458712 0)
(-0.0365908 0.0481824 0)
(-0.0410914 0.0524346 0)
(-0.0472927 0.0594213 0)
(-0.0565144 0.0701262 0)
(-0.0702559 0.0841201 0)
(-0.0907881 0.0951673 0)
(-0.114907 0.0798048 0)
(-0.134022 0.00184174 0)
(-0.12203 -0.165705 0)
(-0.118441 -0.341512 0)
(-0.0443385 -0.399385 0)
(-0.00140521 0.0268201 0)
(-0.00620366 0.0479957 0)
(-0.0125384 0.0525909 0)
(-0.0173427 0.0515499 0)
(-0.0213634 0.0496775 0)
(-0.0245581 0.0481762 0)
(-0.0271445 0.0473225 0)
(-0.0292826 0.0472994 0)
(-0.0310897 0.0484059 0)
(-0.032683 0.0511334 0)
(-0.0342511 0.0562714 0)
(-0.0360341 0.064919 0)
(-0.0386195 0.0783732 0)
(-0.041851 0.0954116 0)
(-0.047278 0.108546 0)
(-0.05105 0.0907506 0)
(-0.0595943 0.00819852 0)
(-0.0521149 -0.161913 0)
(-0.0813718 -0.36129 0)
(-0.0242799 -0.47299 0)
(-0.00347552 0.0299132 0)
(-0.0105789 0.056384 0)
(-0.0163276 0.060908 0)
(-0.0203063 0.0593657 0)
(-0.0232929 0.0560762 0)
(-0.0256533 0.0531558 0)
(-0.0274417 0.0510314 0)
(-0.0286151 0.0499374 0)
(-0.0290539 0.0501494 0)
(-0.0285671 0.052112 0)
(-0.0269134 0.0566165 0)
(-0.0235543 0.0646798 0)
(-0.0185136 0.0776657 0)
(-0.00962769 0.0936956 0)
(0.000115388 0.106561 0)
(0.0168756 0.0899409 0)
(0.0175272 0.0132441 0)
(0.020181 -0.138512 0)
(-0.0395871 -0.350938 0)
(-0.00477006 -0.509646 0)
(-0.00113763 0.0438364 0)
(-0.00857064 0.0587544 0)
(-0.0193126 0.0595787 0)
(-0.0236555 0.0551468 0)
(-0.02736 0.0519355 0)
(-0.0292341 0.0496677 0)
(-0.0300064 0.0481434 0)
(-0.0296941 0.0472588 0)
(-0.0282018 0.0471942 0)
(-0.0251888 0.0482586 0)
(-0.0201864 0.0511736 0)
(-0.0119189 0.0564575 0)
(-0.000266548 0.0653915 0)
(0.0185129 0.0763883 0)
(0.0392745 0.0845343 0)
(0.0696657 0.0716417 0)
(0.0749562 0.00984522 0)
(0.0766628 -0.105831 0)
(-0.00147752 -0.320819 0)
(0.0211369 -0.518921 0)
(-0.0124509 0.0327179 0)
(-0.0241992 0.0798862 0)
(-0.0236321 0.0789179 0)
(-0.0297682 0.0737711 0)
(-0.03162 0.0664754 0)
(-0.0317172 0.0603209 0)
(-0.0299213 0.0552561 0)
(-0.0265393 0.0512402 0)
(-0.0216566 0.0482596 0)
(-0.0149642 0.0461709 0)
(-0.00656043 0.0453845 0)
(0.00520006 0.0460236 0)
(0.0198455 0.0491652 0)
(0.0413681 0.0534986 0)
(0.0624281 0.0579436 0)
(0.0969273 0.0499715 0)
(0.101858 0.012787 0)
(0.1236 -0.0684781 0)
(0.0531684 -0.286002 0)
(0.060361 -0.501737 0)
(-0.0773299 0.0965933 0)
(-0.0630636 0.0592908 0)
(-0.0655046 0.0599034 0)
(-0.0440334 0.0532293 0)
(-0.0269425 0.0463247 0)
(-0.0071203 0.0411683 0)
(0.0115697 0.0374253 0)
(0.0304422 0.034234 0)
(0.0478147 0.0318551 0)
(0.0663775 0.0296077 0)
(0.0824286 0.028289 0)
(0.102625 0.0272812 0)
(0.117403 0.0271551 0)
(0.145769 0.0276117 0)
(0.15698 0.0243653 0)
(0.203632 0.0177475 0)
(0.197255 -0.016408 0)
(0.235597 -0.0788791 0)
(0.163229 -0.260516 0)
(0.126503 -0.44024 0)
(0.119685 0.140776 0)
(0.152403 0.0861847 0)
(0.229206 0.063589 0)
(0.284612 0.0481295 0)
(0.32585 0.0374528 0)
(0.364222 0.0296524 0)
(0.392729 0.0242067 0)
(0.424042 0.0202019 0)
(0.443891 0.0172698 0)
(0.472408 0.0150825 0)
(0.485158 0.0133292 0)
(0.514814 0.0122613 0)
(0.519981 0.0111373 0)
(0.55412 0.0106459 0)
(0.549109 0.00902259 0)
(0.585309 0.00507292 0)
(0.556303 -0.00442106 0)
(0.564499 -0.0276839 0)
(0.427901 -0.0727361 0)
(0.27611 -0.152145 0)
)
;

boundaryField
{
    movingWall
    {
        type            fixedValue;
        value           uniform (1 0 0);
    }
    fixedWalls
    {
        type            noSlip;
    }
    frontAndBack
    {
        type            empty;
    }
}


// ************************************************************************* //
