/*--------------------------------*- C++ -*----------------------------------*\
  =========                 |
  \\      /  F ield         | OpenFOAM: The Open Source CFD Toolbox
   \\    /   O peration     | Website:  https://openfoam.org
    \\  /    A nd           | Version:  10
     \\/     M anipulation  |
\*---------------------------------------------------------------------------*/
FoamFile
{
    format      ascii;
    class       volScalarField;
    location    "1.35";
    object      p;
}
// * * * * * * * * * * * * * * * * * * * * * * * * * * * * * * * * * * * * * //

dimensions      [0 2 -2 0 0 0 0];

internalField   nonuniform List<scalar> 
400
(
2.40333e-09
1.71139e-05
0.000116386
0.000278581
0.000501857
0.0007814
0.0011109
0.00148277
0.00188824
0.00231741
0.00275941
0.00320258
0.00363464
0.00404307
0.00441539
0.00473964
0.00500483
0.00520168
0.00532486
0.00535175
-1.80711e-05
-1.61989e-06
9.81705e-05
0.000260741
0.000484637
0.000765175
0.00109611
0.00146991
0.00187783
0.00230998
0.00275542
0.00320252
0.00363883
0.00405168
0.00442839
0.00475677
0.00502555
0.00522526
0.00535067
0.00537752
-0.000119134
-0.000103281
-5.63009e-07
0.00016697
0.000397959
0.000687658
0.00102973
0.00141655
0.00183918
0.00228755
0.00275058
0.00321609
0.00367126
0.00410287
0.00449759
0.00484243
0.00512529
0.00533583
0.00546827
0.00549613
-0.000291328
-0.0002755
-0.000167627
8.55849e-06
0.000251787
0.000557195
0.000918273
0.00132716
0.00177467
0.00225037
0.0027427
0.00323907
0.00372585
0.00418893
0.00461388
0.00498645
0.00529309
0.00552203
0.00566646
0.00569707
-0.000539
-0.000522937
-0.000407612
-0.000218963
4.18452e-05
0.000369757
0.000757999
0.00119839
0.00168135
0.00219598
0.00273016
0.00327059
0.00380267
0.00431104
0.00477975
0.00519269
0.00553421
0.00579031
0.00595259
0.00598768
-0.000868235
-0.000851847
-0.000726691
-0.000521619
-0.000237671
0.000119837
0.00054377
0.00102552
0.00155504
0.00212085
0.00271015
0.00330889
0.00390121
0.00447025
0.00499806
0.00546606
0.00585564
0.0061496
0.00633697
0.00637869
-0.00128674
-0.00127009
-0.00113263
-0.000907001
-0.000594083
-0.000199541
0.00026903
0.000802502
0.00139025
0.00202017
0.00267875
0.00335114
0.00402017
0.00466719
0.00527186
0.0058124
0.00626622
0.00661148
0.00683336
0.00688469
-0.00180437
-0.00178771
-0.00163534
-0.00138479
-0.00103671
-0.000597235
-7.45457e-05
0.000521586
0.00117988
0.00188759
0.0026305
0.00339317
0.00415708
0.00490173
0.00560408
0.00623842
0.00677689
0.0071911
0.00746023
0.00752556
-0.00243338
-0.00241724
-0.0022472
-0.00196702
-0.00157708
-0.00108416
-0.000497201
0.00017322
0.000915077
0.00171497
0.00255811
0.00342889
0.0043076
0.00517218
0.00599675
0.0067511
0.00740059
0.00790765
0.008242
0.00832832
-0.00318885
-0.00317412
-0.00298341
-0.00266843
-0.00222923
-0.00167349
-0.00101124
-0.000254074
0.000585087
0.00149218
0.00245196
0.00344973
0.00446465
0.00547399
0.00644963
0.0073565
0.00815167
0.00878494
0.00921075
0.00933006
-0.00408934
-0.0040774
-0.00386268
-0.00350698
-0.00301006
-0.00238093
-0.00163114
-0.000773732
0.000177277
0.00120711
0.00229933
0.00344406
0.00461731
0.00579816
0.00695795
0.00805753
0.00904435
0.00985166
0.0104086
0.010583
-0.00515803
-0.0051507
-0.0049082
-0.00450467
-0.00393995
-0.00322495
-0.00237358
-0.00140101
-0.000322642
0.000846811
0.00209433
0.0033976
0.00474943
0.00612899
0.00750918
0.00884978
0.0100892
0.0111406
0.0118901
0.0121638
-0.00642474
-0.00642386
-0.00614924
-0.00568877
-0.00504348
-0.00422708
-0.00325721
-0.00215251
-0.000930859
0.000391906
0.00180212
0.0032868
0.00483721
0.00644089
0.00807834
0.00971471
0.0112854
0.0126853
0.0137244
0.0141894
-0.00793182
-0.00793644
-0.00762394
-0.00709375
-0.00635066
-0.00541193
-0.0043016
-0.00304415
-0.00166148
-0.000170798
0.00141575
0.00309046
0.0048507
0.00669564
0.00862108
0.0106093
0.0126047
0.0145118
0.0159974
0.016843
-0.00971521
-0.00973194
-0.00938075
-0.00876425
-0.00789865
-0.00680703
-0.00552594
-0.00408949
-0.00252532
-0.000852732
0.000917957
0.00278478
0.00475352
0.00684019
0.00906576
0.0114502
0.0139679
0.0166093
0.0187729
0.0204607
-0.0120417
-0.0119251
-0.0115094
-0.0107661
-0.00973549
-0.00844271
-0.00694733
-0.00529696
-0.00352678
-0.00165853
0.000298847
0.00235005
0.00450647
0.00680723
0.00930289
0.0120828
0.0151669
0.01883
0.0219383
0.0255195
-0.0142462
-0.0144732
-0.014051
-0.0131758
-0.0119181
-0.0103481
-0.00857475
-0.00666374
-0.004658
-0.00258155
-0.000442708
0.0017669
0.00407255
0.00651512
0.00914105
0.012187
0.0155472
0.0207161
0.0248724
0.0327675
-0.0195646
-0.01757
-0.0172347
-0.0159666
-0.0143923
-0.0124819
-0.0103725
-0.00814914
-0.00587441
-0.00357636
-0.00125987
0.00110606
0.00359918
0.00617812
0.0090222
0.0122892
0.016069
0.0229837
0.028895
0.0425248
-0.0216987
-0.0235173
-0.022374
-0.0207616
-0.0183445
-0.0155132
-0.0126613
-0.00989226
-0.00723497
-0.00467331
-0.00220152
0.000184373
0.00243575
0.00484292
0.00652963
0.0102727
0.0092091
0.0202561
0.0198678
0.0524897
-0.0452844
-0.022883
-0.0228872
-0.0210342
-0.0183968
-0.0156894
-0.0129879
-0.0102733
-0.00760714
-0.00502344
-0.0025336
-0.000104062
0.00224239
0.00476161
0.00706113
0.0107014
0.0148131
0.0292533
0.0512527
0.112443
)
;

boundaryField
{
    movingWall
    {
        type            zeroGradient;
    }
    fixedWalls
    {
        type            zeroGradient;
    }
    frontAndBack
    {
        type            empty;
    }
}


// ************************************************************************* //
