/*--------------------------------*- C++ -*----------------------------------*\
  =========                 |
  \\      /  F ield         | OpenFOAM: The Open Source CFD Toolbox
   \\    /   O peration     | Website:  https://openfoam.org
    \\  /    A nd           | Version:  10
     \\/     M anipulation  |
\*---------------------------------------------------------------------------*/
FoamFile
{
    format      ascii;
    class       volVectorField;
    location    "1.35";
    object      U;
}
// * * * * * * * * * * * * * * * * * * * * * * * * * * * * * * * * * * * * * //

dimensions      [0 1 -1 0 0 0 0];

internalField   nonuniform List<vector> 
400
(
(-0.000319767 0.000315348 0)
(-0.00111596 0.000406544 0)
(-0.00202657 0.000396743 0)
(-0.00286464 0.000369147 0)
(-0.00363189 0.000332121 0)
(-0.00430877 0.000287034 0)
(-0.00487863 0.000234957 0)
(-0.0053276 0.000177025 0)
(-0.00564442 0.000114432 0)
(-0.00582048 4.84254e-05 0)
(-0.00584996 -1.96479e-05 0)
(-0.00572999 -8.84569e-05 0)
(-0.00546085 -0.000156387 0)
(-0.00504635 -0.000221731 0)
(-0.00449416 -0.00028262 0)
(-0.00381605 -0.00033707 0)
(-0.00302851 -0.000383039 0)
(-0.00215309 -0.000418109 0)
(-0.00119193 -0.000432516 0)
(-0.000343688 -0.000338709 0)
(-0.000427262 0.00112047 0)
(-0.00146555 0.00141819 0)
(-0.00263542 0.00138232 0)
(-0.00371355 0.00128527 0)
(-0.00469932 0.00115503 0)
(-0.00556756 0.000996685 0)
(-0.00629702 0.000814223 0)
(-0.00687028 0.000611755 0)
(-0.00727334 0.000393527 0)
(-0.00749561 0.000163886 0)
(-0.00753019 -7.27326e-05 0)
(-0.00737369 -0.000311279 0)
(-0.00702662 -0.00054653 0)
(-0.00649399 -0.000772687 0)
(-0.00578551 -0.000983379 0)
(-0.00491611 -0.00117179 0)
(-0.00390668 -0.00133083 0)
(-0.00278468 -0.00145197 0)
(-0.00155531 -0.00150256 0)
(-0.000455573 -0.00119635 0)
(-0.000454859 0.00210073 0)
(-0.0015602 0.0026319 0)
(-0.00280459 0.00256299 0)
(-0.00394988 0.00238178 0)
(-0.00499623 0.00213889 0)
(-0.00591721 0.00184415 0)
(-0.00669079 0.00150519 0)
(-0.00729903 0.0011298 0)
(-0.00772763 0.000725855 0)
(-0.00796585 0.000301323 0)
(-0.00800612 -0.000135664 0)
(-0.00784457 -0.000576233 0)
(-0.00748147 -0.00101089 0)
(-0.00692109 -0.00142912 0)
(-0.00617267 -0.00181927 0)
(-0.00525098 -0.00216875 0)
(-0.00417741 -0.00246426 0)
(-0.00298079 -0.00268965 0)
(-0.00166623 -0.00278565 0)
(-0.000488265 -0.0022392 0)
(-0.000485754 0.00311316 0)
(-0.001667 0.00388868 0)
(-0.00299663 0.00378436 0)
(-0.00421866 0.00351506 0)
(-0.00533393 0.00315508 0)
(-0.00631477 0.00271929 0)
(-0.00713854 0.00221921 0)
(-0.00778713 0.0016664 0)
(-0.00824612 0.00107234 0)
(-0.00850458 0.000448413 0)
(-0.00855466 -0.000193716 0)
(-0.00839165 -0.000841998 0)
(-0.00801457 -0.00148278 0)
(-0.00742647 -0.00210097 0)
(-0.00663523 -0.00267957 0)
(-0.00565471 -0.00319976 0)
(-0.00450622 -0.00364137 0)
(-0.00322007 -0.0039796 0)
(-0.00180174 -0.00412643 0)
(-0.000528142 -0.00332755 0)
(-0.000528904 0.00420369 0)
(-0.00181531 0.00524296 0)
(-0.00326233 0.00509896 0)
(-0.0045897 0.00473316 0)
(-0.00579898 0.00424597 0)
(-0.00686093 0.00365809 0)
(-0.00775239 0.00298556 0)
(-0.00845527 0.002244 0)
(-0.00895537 0.00144848 0)
(-0.00924179 0.000613576 0)
(-0.00930631 -0.000246149 0)
(-0.00914307 -0.00111556 0)
(-0.0087493 -0.00197749 0)
(-0.00812596 -0.00281248 0)
(-0.00727861 -0.00359798 0)
(-0.00621917 -0.0043083 0)
(-0.00496827 -0.00491499 0)
(-0.00355781 -0.00538257 0)
(-0.00199406 -0.00558993 0)
(-0.000585098 -0.00451714 0)
(-0.000586343 0.00540246 0)
(-0.00201211 0.00673118 0)
(-0.00361377 0.00654099 0)
(-0.00507878 0.00606646 0)
(-0.00640973 0.00543751 0)
(-0.00757563 0.00468209 0)
(-0.00855313 0.00382158 0)
(-0.00932474 0.00287609 0)
(-0.00987708 0.00186428 0)
(-0.0101997 0.000803513 0)
(-0.0102843 -0.000289413 0)
(-0.0101235 -0.00139726 0)
(-0.00971196 -0.00250007 0)
(-0.00904738 -0.0035745 0)
(-0.00813146 -0.00459244 0)
(-0.00697254 -0.00552044 0)
(-0.00558919 -0.00631987 0)
(-0.00401456 -0.00694141 0)
(-0.0022557 -0.00722436 0)
(-0.00066298 -0.00584931 0)
(-0.000660377 0.00674176 0)
(-0.00226501 0.00839243 0)
(-0.00406363 0.00814633 0)
(-0.00570184 0.00754581 0)
(-0.0071838 0.0067552 0)
(-0.00847691 0.00581168 0)
(-0.00955842 0.00474326 0)
(-0.0104126 0.00357512 0)
(-0.011028 0.00232941 0)
(-0.0113955 0.00102557 0)
(-0.0115071 -0.000318468 0)
(-0.0113538 -0.00168484 0)
(-0.0109266 -0.0030522 0)
(-0.0102184 -0.00439436 0)
(-0.0092246 -0.00567798 0)
(-0.00794727 -0.00686099 0)
(-0.00640024 -0.00789214 0)
(-0.00461648 -0.00870357 0)
(-0.00260326 -0.00908531 0)
(-0.000767088 -0.00737238 0)
(-0.000754397 0.00826004 0)
(-0.00258493 0.0102727 0)
(-0.00462963 0.00995601 0)
(-0.00648053 0.00920521 0)
(-0.0081444 0.00822582 0)
(-0.00958761 0.00706724 0)
(-0.0107897 0.00576593 0)
(-0.0117386 0.00435286 0)
(-0.0124267 0.00285336 0)
(-0.0128476 0.0012879 0)
(-0.0129947 -0.00032619 0)
(-0.0128572 -0.0019727 0)
(-0.0124215 -0.00363128 0)
(-0.0116732 -0.00527497 0)
(-0.0105981 -0.00686626 0)
(-0.00918755 -0.00835403 0)
(-0.00744573 -0.00967137 0)
(-0.00540201 -0.0107253 0)
(-0.00306205 -0.011242 0)
(-0.000905768 -0.00914825 0)
(-0.000873554 0.0100041 0)
(-0.00298792 0.0124269 0)
(-0.00533705 0.0120171 0)
(-0.00744481 0.0110815 0)
(-0.00932241 0.00987637 0)
(-0.0109369 0.0084676 0)
(-0.0122729 0.00690257 0)
(-0.0133252 0.00521888 0)
(-0.014093 0.00344451 0)
(-0.0145751 0.00159921 0)
(-0.0147677 -0.000302829 0)
(-0.0146589 -0.00225042 0)
(-0.0142288 -0.00422791 0)
(-0.0134534 -0.00621138 0)
(-0.0123037 -0.00816187 0)
(-0.0107535 -0.0100197 0)
(-0.00878905 -0.0116993 0)
(-0.00642861 -0.0130735 0)
(-0.00367172 -0.0137825 0)
(-0.00109269 -0.0112594 0)
(-0.00102595 0.0120334 0)
(-0.00349818 0.0149223 0)
(-0.00622249 0.0143846 0)
(-0.00863646 0.0132144 0)
(-0.0107591 0.0117326 0)
(-0.0125615 0.0100278 0)
(-0.0140385 0.0081614 0)
(-0.0151967 0.00617846 0)
(-0.0160464 0.0041085 0)
(-0.016595 0.00196799 0)
(-0.0168444 -0.000235617 0)
(-0.0167824 -0.002501 0)
(-0.0163825 -0.00482263 0)
(-0.0156071 -0.00718594 0)
(-0.0144065 -0.00955635 0)
(-0.0127263 -0.0118686 0)
(-0.0105215 -0.0140166 0)
(-0.00778376 -0.0158279 0)
(-0.00449658 -0.0168225 0)
(-0.00135139 -0.0138217 0)
(-0.00122498 0.0144269 0)
(-0.00415334 0.0178442 0)
(-0.00734002 0.0171232 0)
(-0.0101146 0.0156455 0)
(-0.01251 0.0138163 0)
(-0.0145082 0.0117555 0)
(-0.0161223 0.00954207 0)
(-0.0173782 0.00722916 0)
(-0.0183035 0.00484578 0)
(-0.0189193 0.00240116 0)
(-0.0192368 -0.000109566 0)
(-0.0192459 -0.00269908 0)
(-0.0189138 -0.00538185 0)
(-0.0181871 -0.00816164 0)
(-0.0169865 -0.0110187 0)
(-0.0152154 -0.0138917 0)
(-0.0127759 -0.0166556 0)
(-0.00960346 -0.019082 0)
(-0.00564551 -0.0205163 0)
(-0.00172509 -0.0170074 0)
(-0.00149399 0.0172949 0)
(-0.00501412 0.0213031 0)
(-0.0087711 0.02031 0)
(-0.011964 0.0184157 0)
(-0.0146502 0.0161403 0)
(-0.016836 0.0136446 0)
(-0.0185649 0.0110296 0)
(-0.0198932 0.00835571 0)
(-0.0208745 0.00564782 0)
(-0.0215505 0.00290225 0)
(-0.0219447 9.47263e-05 0)
(-0.0220547 -0.00280849 0)
(-0.0218451 -0.0058528 0)
(-0.0212441 -0.00907332 0)
(-0.0201367 -0.012482 0)
(-0.0183654 -0.0160413 0)
(-0.0157468 -0.019623 0)
(-0.0121036 -0.0229393 0)
(-0.00731179 -0.0250733 0)
(-0.00229856 -0.0210895 0)
(-0.00187626 0.0208031 0)
(-0.0061824 0.0254465 0)
(-0.0106408 0.0240356 0)
(-0.0143081 0.0215597 0)
(-0.0172824 0.0186991 0)
(-0.0196193 0.0156659 0)
(-0.0214113 0.0125863 0)
(-0.0227601 0.00952378 0)
(-0.0237571 0.0064921 0)
(-0.0244725 0.0034676 0)
(-0.0249476 0.000398841 0)
(-0.0251936 -0.00278141 0)
(-0.0251788 -0.00615808 0)
(-0.0248164 -0.00981574 0)
(-0.0239546 -0.0138234 0)
(-0.0223592 -0.018202 0)
(-0.0197188 -0.0228626 0)
(-0.0156336 -0.027497 0)
(-0.00985485 -0.0307713 0)
(-0.00324829 -0.0265303 0)
(-0.00245762 0.0251758 0)
(-0.0078384 0.0304564 0)
(-0.0131449 0.0283996 0)
(-0.017328 0.0250927 0)
(-0.0205456 0.0214539 0)
(-0.0229492 0.0177545 0)
(-0.0247074 0.0141421 0)
(-0.0259876 0.0106719 0)
(-0.0269308 0.0073355 0)
(-0.0276439 0.00407975 0)
(-0.0281938 0.000818171 0)
(-0.0286118 -0.00256097 0)
(-0.0288796 -0.00619256 0)
(-0.0289095 -0.0102307 0)
(-0.0285231 -0.014836 0)
(-0.0274082 -0.0201451 0)
(-0.0251 -0.0261863 0)
(-0.020765 -0.0327774 0)
(-0.0139732 -0.0379013 0)
(-0.00496701 -0.0342344 0)
(-0.00338592 0.0311344 0)
(-0.0102685 0.0366892 0)
(-0.0165755 0.0335355 0)
(-0.0212856 0.0289896 0)
(-0.0246225 0.0243101 0)
(-0.0269317 0.0197896 0)
(-0.0284941 0.0155782 0)
(-0.0295666 0.0117004 0)
(-0.030349 0.00810656 0)
(-0.0309895 0.00470172 0)
(-0.0315879 0.00135745 0)
(-0.0322038 -0.00208667 0)
(-0.0328478 -0.00582528 0)
(-0.0334591 -0.0100975 0)
(-0.033868 -0.0151911 0)
(-0.033713 -0.0214412 0)
(-0.0324232 -0.0291111 0)
(-0.0283696 -0.038516 0)
(-0.0211432 -0.0465402 0)
(-0.00847778 -0.0458866 0)
(-0.00529033 0.0372593 0)
(-0.0144379 0.0437699 0)
(-0.021509 0.0393078 0)
(-0.0265899 0.0330942 0)
(-0.0297456 0.0270661 0)
(-0.031678 0.0215598 0)
(-0.0327909 0.0167063 0)
(-0.0334513 0.012458 0)
(-0.0339193 0.00869739 0)
(-0.0343807 0.00527167 0)
(-0.0349678 0.00200453 0)
(-0.0357777 -0.00130588 0)
(-0.0368707 -0.00491532 0)
(-0.0382516 -0.00913555 0)
(-0.0398365 -0.0143939 0)
(-0.0412941 -0.0213728 0)
(-0.0421966 -0.0306407 0)
(-0.0395698 -0.0441638 0)
(-0.0340818 -0.0565317 0)
(-0.0159053 -0.0650146 0)
(-0.00687326 0.0540906 0)
(-0.0189429 0.0539044 0)
(-0.0279906 0.0464098 0)
(-0.0335597 0.0371877 0)
(-0.0360986 0.02932 0)
(-0.0371884 0.0226881 0)
(-0.0374519 0.0172203 0)
(-0.0373955 0.0127124 0)
(-0.0373235 0.00893835 0)
(-0.0374412 0.00567069 0)
(-0.0378955 0.00267908 0)
(-0.0388229 -0.000282227 0)
(-0.0403395 -0.00348087 0)
(-0.0425474 -0.00732052 0)
(-0.0456292 -0.0124282 0)
(-0.0493387 -0.0200794 0)
(-0.0543403 -0.0310269 0)
(-0.0548179 -0.0502103 0)
(-0.0556805 -0.0696819 0)
(-0.0283488 -0.098199 0)
(-0.017575 0.0560497 0)
(-0.0371132 0.0664055 0)
(-0.0386587 0.0543865 0)
(-0.0429419 0.0420742 0)
(-0.0426653 0.0316696 0)
(-0.0415361 0.0234091 0)
(-0.0399945 0.0171627 0)
(-0.0385451 0.0124411 0)
(-0.0374397 0.00879548 0)
(-0.0368389 0.00588525 0)
(-0.036866 0.00342978 0)
(-0.0376279 0.00120713 0)
(-0.0393127 -0.000951682 0)
(-0.0422169 -0.0034818 0)
(-0.0470237 -0.00608393 0)
(-0.0531347 -0.0122609 0)
(-0.0632517 -0.0179845 0)
(-0.0657402 -0.0436496 0)
(-0.0758946 -0.0670055 0)
(-0.0286631 -0.148607 0)
(-0.0545656 0.124736 0)
(-0.049167 0.0640575 0)
(-0.0431096 0.0507214 0)
(-0.0336368 0.0357357 0)
(-0.0234797 0.0246726 0)
(-0.0151457 0.0175613 0)
(-0.00838507 0.0127066 0)
(-0.00325251 0.00919381 0)
(0.000474397 0.00659715 0)
(0.00300812 0.00463335 0)
(0.00450276 0.00309721 0)
(0.00510793 0.00182179 0)
(0.0046433 0.00066819 0)
(0.00400843 -0.000827853 0)
(0.000407092 -0.00290723 0)
(0.00107174 -0.00877264 0)
(-0.0106456 -0.0199899 0)
(0.00207955 -0.0548498 0)
(-0.0352956 -0.115588 0)
(0.0219073 -0.233456 0)
(0.132372 0.130531 0)
(0.156328 0.0685164 0)
(0.229731 0.0433755 0)
(0.266174 0.0279507 0)
(0.288822 0.0173349 0)
(0.304968 0.010874 0)
(0.316344 0.00715784 0)
(0.324287 0.00491319 0)
(0.329952 0.00346613 0)
(0.334021 0.00248318 0)
(0.336841 0.00179711 0)
(0.338804 0.00127333 0)
(0.339484 0.000869917 0)
(0.340543 0.000453711 0)
(0.336458 -0.000506124 0)
(0.340087 -0.00127656 0)
(0.314749 -0.00690202 0)
(0.325179 -0.0152118 0)
(0.213955 -0.0442874 0)
(0.196779 -0.117059 0)
)
;

boundaryField
{
    movingWall
    {
        type            fixedValue;
        value           uniform (1 0 0);
    }
    fixedWalls
    {
        type            noSlip;
    }
    frontAndBack
    {
        type            empty;
    }
}


// ************************************************************************* //
