/*--------------------------------*- C++ -*----------------------------------*\
  =========                 |
  \\      /  F ield         | OpenFOAM: The Open Source CFD Toolbox
   \\    /   O peration     | Website:  https://openfoam.org
    \\  /    A nd           | Version:  10
     \\/     M anipulation  |
\*---------------------------------------------------------------------------*/
FoamFile
{
    format      ascii;
    class       volScalarField;
    location    "5.175";
    object      p;
}
// * * * * * * * * * * * * * * * * * * * * * * * * * * * * * * * * * * * * * //

dimensions      [0 2 -2 0 0 0 0];

internalField   nonuniform List<scalar> 
8000
(
-3.17461e-06
-1.44889e-05
2.03387e-05
8.72425e-05
0.000191382
0.000333588
0.0005147
0.000735169
0.000994313
0.00129049
0.0016198
0.0019757
0.00234851
0.00272523
0.00308862
0.00341922
0.00369611
0.00389919
0.00402373
0.00403312
-2.95703e-07
-9.7931e-06
2.70309e-05
9.32124e-05
0.000195296
0.000334493
0.000511956
0.000728428
0.000983725
0.00127632
0.00160268
0.0019565
0.00232808
0.0027055
0.00307135
0.0034058
0.00368722
0.00389472
0.00402437
0.00403258
-4.89579e-05
-6.10599e-05
-2.52612e-05
3.86669e-05
0.000138021
0.00027425
0.000448932
0.000663384
0.000918106
0.00121231
0.00154328
0.00190576
0.00229137
0.00268588
0.00307291
0.00343077
0.00373503
0.00396091
0.00410314
0.00410887
-0.000138227
-0.000152714
-0.000118791
-5.81677e-05
3.72214e-05
0.000169181
0.000339927
0.000551633
0.00080589
0.00110318
0.00144214
0.00181869
0.00222529
0.00264871
0.0030718
0.00347012
0.00381457
0.00407347
0.0042386
0.00424467
-0.000274418
-0.000291655
-0.000260569
-0.000204433
-0.000114351
1.19205e-05
0.00017741
0.000385416
0.000638965
0.000940299
0.00129006
0.0016862
0.00212253
0.00258785
0.00306338
0.00352167
0.00392747
0.00423874
0.00444076
0.00445004
-0.00045871
-0.000479274
-0.000452034
-0.000401875
-0.000319009
-0.000200725
-4.30696e-05
0.000158589
0.000409069
0.000712902
0.00107346
0.00149172
0.00196439
0.00248271
0.00302828
0.00357001
0.0040646
0.00445509
0.00471466
0.00473247
-0.00069192
-0.000716555
-0.000694305
-0.000652021
-0.000579005
-0.000472138
-0.000326525
-0.000136089
0.000106058
0.00040727
0.000774609
0.0012134
0.00172504
0.00230405
0.00293641
0.00358809
0.00420669
0.00471515
0.00506446
0.00510332
-0.000974888
-0.00100446
-0.000988459
-0.000956314
-0.000896487
-0.00080565
-0.000678114
-0.000506415
-0.00028151
7.14453e-06
0.000371105
0.000821791
0.00136802
0.00201196
0.00274011
0.00352884
0.00431541
0.00499822
0.00548834
0.00557957
-0.00130853
-0.00134394
-0.00133536
-0.00131576
-0.00127295
-0.00120377
-0.00110213
-0.000959526
-0.000765004
-0.000504889
-0.000162806
0.000279689
0.000841081
0.0015345
0.00236045
0.00331028
0.00431534
0.00525291
0.00596638
0.00618653
-0.0016941
-0.00173614
-0.00173569
-0.0017307
-0.00170871
-0.00166735
-0.00160079
-0.00150021
-0.00135355
-0.00114476
-0.000853157
-0.000453002
8.60003e-05
0.000796034
0.00170339
0.00279865
0.00406226
0.00535844
0.00643019
0.00694764
-0.00213382
-0.00218287
-0.00219012
-0.00220068
-0.00220244
-0.00219464
-0.00217269
-0.00212863
-0.00205081
-0.0019227
-0.00172148
-0.0014163
-0.000967001
-0.00032336
0.000571176
0.00177289
0.00327407
0.0050372
0.00667808
0.00784234
-0.00263217
-0.00268757
-0.00269982
-0.00272451
-0.00275072
-0.00278038
-0.00281136
-0.00283799
-0.00285111
-0.00283685
-0.00277484
-0.00263542
-0.00237538
-0.00193199
-0.00121784
-0.000123279
0.00150704
0.00371067
0.0061537
0.00866782
-0.00319865
-0.00325738
-0.00326776
-0.00330073
-0.00334783
-0.00341498
-0.00350373
-0.00361216
-0.00373608
-0.0038684
-0.00399775
-0.00410595
-0.00416445
-0.00412622
-0.0039144
-0.00338038
-0.00219534
0.00015732
0.00350692
0.00857949
-0.00385059
-0.00390104
-0.00389316
-0.00392123
-0.00398065
-0.00408136
-0.00422757
-0.00442232
-0.00466867
-0.0049702
-0.00533189
-0.00575959
-0.00626171
-0.00684143
-0.00749515
-0.00809283
-0.00818172
-0.00607327
-0.00121134
0.00760233
-0.00462952
-0.00466678
-0.0046257
-0.0046342
-0.0046836
-0.0047942
-0.00497758
-0.00524401
-0.00560564
-0.00607936
-0.00669296
-0.00748535
-0.00852571
-0.00989035
-0.0116938
-0.0137172
-0.0154463
-0.0132463
-0.00707096
0.00559938
-0.00569119
-0.00550224
-0.00534032
-0.00524811
-0.00526159
-0.00538587
-0.00561979
-0.00596671
-0.00644119
-0.00706843
-0.00790174
-0.00901164
-0.0105413
-0.0125797
-0.0154519
-0.0187382
-0.0226454
-0.0215967
-0.0160921
0.00189157
-0.00665296
-0.00676941
-0.00647995
-0.00637596
-0.00628984
-0.00631746
-0.00647582
-0.00678403
-0.00726854
-0.00795325
-0.00890989
-0.0102114
-0.0121093
-0.0145166
-0.0183898
-0.0226009
-0.0301704
-0.0314574
-0.0264971
0.00134584
-0.0105186
-0.00770465
-0.00710345
-0.00645875
-0.0062595
-0.00630544
-0.00655333
-0.00696484
-0.00755547
-0.00831735
-0.00937703
-0.0107578
-0.0127731
-0.0154097
-0.0195906
-0.0242917
-0.0326703
-0.0333352
-0.0258488
0.0166604
-0.0102596
-0.0111365
-0.00972801
-0.00928378
-0.00860886
-0.00819656
-0.00802308
-0.00810356
-0.00845148
-0.00903946
-0.00996188
-0.0112124
-0.0131406
-0.0156218
-0.0197199
-0.0239852
-0.0307621
-0.0255364
-0.0084015
0.0603836
-0.0347329
-0.00935022
-0.00780647
-0.00641254
-0.00571749
-0.00566568
-0.00598404
-0.00645246
-0.00713785
-0.00795462
-0.0091454
-0.0105229
-0.0126176
-0.0147865
-0.0177596
-0.0183751
-0.0162991
0.00561899
0.0518472
0.1631
-3.07604e-06
-2.20865e-05
1.19912e-05
7.83522e-05
0.000182858
0.000325913
0.000508199
0.000730194
0.000991715
0.00129072
0.00162341
0.00198329
0.00236054
0.00274202
0.00311054
0.00344603
0.00372654
0.00393027
0.00405275
0.00404765
1.24086e-05
-6.20195e-06
3.05575e-05
9.61807e-05
0.000198092
0.00033723
0.000514689
0.000731279
0.000986927
0.00128016
0.00160756
0.00196296
0.00233688
0.00271676
0.00308543
0.00342273
0.00370624
0.00391375
0.00404226
0.00403473
-3.20752e-05
-5.54026e-05
-1.98055e-05
4.34221e-05
0.000142498
0.000278544
0.000453077
0.000667477
0.00092236
0.00121705
0.00154895
0.00191287
0.00230044
0.00269817
0.00308864
0.00344999
0.00375693
0.00398301
0.00412402
0.00411068
-0.000118244
-0.000145096
-0.000111366
-5.15245e-05
4.35083e-05
0.000175181
0.000345671
0.000557254
0.000811604
0.00110933
0.00144921
0.00182732
0.00223628
0.00266366
0.00309102
0.0034938
0.00384175
0.00410117
0.00426496
0.00424865
-0.00025231
-0.000282837
-0.000251899
-0.000196547
-0.000106791
1.92381e-05
0.000184537
0.000392519
0.000646348
0.000948405
0.00129954
0.00169794
0.00213757
0.00260768
0.00308891
0.00355347
0.00396448
0.00427694
0.00447749
0.00446034
-0.000434673
-0.000469485
-0.00044231
-0.000392876
-0.000310238
-0.000192071
-3.44382e-05
0.000167419
0.000418479
0.00072348
0.00108607
0.0015075
0.00198472
0.00250997
0.00306376
0.00361489
0.00411775
0.00451108
0.004769
0.00475539
-0.000665735
-0.000705715
-0.000683411
-0.000641766
-0.000568858
-0.000461952
-0.00031615
-0.000125223
0.000117906
0.000420862
0.00079107
0.00123422
0.00175143
0.00234181
0.0029866
0.00365317
0.00428591
0.00480134
0.00514927
0.00515163
-0.00094617
-0.000992385
-0.000976191
-0.000944599
-0.000884769
-0.000793745
-0.000665802
-0.000493289
-0.000266917
2.42195e-05
0.000392238
0.000849385
0.00140616
0.00206112
0.0028111
0.00362465
0.00443663
0.00513642
0.0056288
0.00568217
-0.00127676
-0.00133036
-0.00132145
-0.00130234
-0.00125946
-0.00119
-0.00108779
-0.000944063
-0.000747571
-0.000484144
-0.00013662
0.000314716
0.000889871
0.00160249
0.00246273
0.00345214
0.00450379
0.00548142
0.00621274
0.00641181
-0.0016586
-0.00172067
-0.00171976
-0.00171528
-0.00169326
-0.00165164
-0.00158444
-0.00148255
-0.00133349
-0.0011206
-0.000822091
-0.000410426
0.000147387
0.000886978
0.00183157
0.00300255
0.00435317
0.00574175
0.00688258
0.00747762
-0.00209358
-0.00216496
-0.00217163
-0.00218283
-0.00218475
-0.0021769
-0.00215448
-0.00210916
-0.00202877
-0.00189597
-0.00168652
-0.00136716
-0.000893578
-0.000211408
0.000727852
0.00203811
0.00370583
0.00566444
0.00751678
0.00911631
-0.00258549
-0.00266631
-0.0026778
-0.00270347
-0.00273029
-0.00276043
-0.00279143
-0.00281722
-0.00282805
-0.00280905
-0.00273812
-0.00258259
-0.00229377
-0.00179837
-0.000988602
0.000185979
0.00200913
0.00457295
0.00753096
0.0111668
-0.00314265
-0.0032319
-0.00324166
-0.00327642
-0.0033247
-0.00339288
-0.00348227
-0.00359071
-0.00371325
-0.00384176
-0.00396307
-0.00405619
-0.00408827
-0.00400837
-0.00374296
-0.00315817
-0.00192422
0.000597754
0.00426344
0.0113169
-0.00377702
-0.00386361
-0.00385421
-0.00388537
-0.00394853
-0.00405309
-0.00420256
-0.00439931
-0.00464605
-0.00494547
-0.00530094
-0.00571703
-0.00620324
-0.00678088
-0.00751564
-0.00843982
-0.00912735
-0.0076847
-0.00401494
0.00724694
-0.00452909
-0.00462636
-0.00458469
-0.00460153
-0.0046558
-0.00477019
-0.00495632
-0.00522466
-0.0055872
-0.00606056
-0.00667118
-0.0074605
-0.00850777
-0.00994776
-0.0120621
-0.0150344
-0.0187223
-0.018843
-0.0156045
-0.000577403
-0.00551683
-0.0053946
-0.00524133
-0.00516257
-0.00519308
-0.00533237
-0.00557876
-0.00593537
-0.00641613
-0.00704681
-0.00787639
-0.00898371
-0.0105283
-0.0127083
-0.0160664
-0.0207651
-0.0276713
-0.0302531
-0.0292362
-0.00897091
-0.0062874
-0.00663111
-0.00634968
-0.00630282
-0.00624171
-0.00629006
-0.0064635
-0.00678256
-0.00726747
-0.00794648
-0.00888659
-0.0101642
-0.0120213
-0.0146231
-0.0189346
-0.024421
-0.034859
-0.0399804
-0.0408161
-0.00821392
-0.00996495
-0.00732155
-0.00675631
-0.00616919
-0.00606623
-0.00618813
-0.00649533
-0.00694335
-0.00754374
-0.00830712
-0.00933781
-0.0106491
-0.0125999
-0.0152286
-0.0196859
-0.0253548
-0.0351446
-0.0391393
-0.0350617
0.0150578
-0.00750813
-0.0100784
-0.00907379
-0.0090148
-0.0085373
-0.00825106
-0.00815797
-0.00826367
-0.00860434
-0.00915132
-0.0100088
-0.0111509
-0.0129494
-0.0153498
-0.0196041
-0.0245305
-0.0321348
-0.0285744
-0.00973926
0.0687825
-0.0324143
-0.0074336
-0.00619783
-0.00536895
-0.00503782
-0.00516948
-0.00563976
-0.00618615
-0.0069486
-0.00776975
-0.00895548
-0.0102898
-0.0123099
-0.0145346
-0.0175534
-0.0185669
-0.01603
0.00792673
0.0660025
0.19474
3.17347e-06
-1.93384e-05
1.41106e-05
8.00483e-05
0.000184744
0.000328432
0.000511774
0.000735305
0.000998709
0.00130026
0.00163621
0.00200014
0.00238229
0.00276908
0.00314306
0.00348358
0.0037678
0.00397277
0.00409428
0.00408154
2.49126e-05
1.79927e-06
3.8306e-05
0.000103371
0.000205112
0.000344332
0.000522145
0.000739438
0.000996214
0.00129111
0.00162081
0.00197919
0.00235706
0.00274143
0.00311491
0.00345678
0.00374372
0.00395242
0.00408041
0.00406553
-1.61672e-05
-4.49508e-05
-9.67324e-06
5.2832e-05
0.000151578
0.000287527
0.000462232
0.000677182
0.000933107
0.00122947
0.00156378
0.00193099
0.00232285
0.00272584
0.00312207
0.00348911
0.00380051
0.00402838
0.00416903
0.0041469
-9.91508e-05
-0.000132034
-9.86308e-05
-3.96098e-05
5.49974e-05
0.000186476
0.000357051
0.000569122
0.000824534
0.00112408
0.00146667
0.00184842
0.00226284
0.00269686
0.00313167
0.00354199
0.00389614
0.00415846
0.00432235
0.00429573
-0.000230413
-0.000267464
-0.000236829
-0.00018233
-9.30046e-05
3.28495e-05
0.000198304
0.000406931
0.000662098
0.000966474
0.00132125
0.00172498
0.00217123
0.00264986
0.00314123
0.00361652
0.00403687
0.00435437
0.00455591
0.00452638
-0.000409873
-0.000451733
-0.000424799
-0.000376205
-0.000293949
-0.000175868
-1.79187e-05
0.000184862
0.000437715
0.000745725
0.00111297
0.00154117
0.00202773
0.00256482
0.00313304
0.00370008
0.00421767
0.00462008
0.00488088
0.00485209
-0.000637582
-0.00068522
-0.00066307
-0.000622242
-0.000549661
-0.000442746
-0.000296447
-0.000104275
0.000141186
0.000448015
0.000824226
0.00127627
0.00180659
0.00241316
0.00307895
0.00376976
0.00442637
0.00495872
0.00531351
0.0052975
-0.000913959
-0.000968575
-0.000952437
-0.000921669
-0.000862158
-0.000771085
-0.000642519
-0.000468479
-0.000239242
5.66972e-05
0.000432256
0.000900439
0.0014708
0.00215182
0.00293309
0.00378383
0.00463495
0.00536643
0.00587422
0.00590796
-0.00123951
-0.00130242
-0.00129348
-0.00127528
-0.00123282
-0.00116341
-0.00106059
-0.00091521
-0.000715467
-0.000446397
-8.96429e-05
0.000376268
0.000974587
0.00171712
0.00262094
0.00366582
0.00478092
0.00581738
0.00658346
0.0067712
-0.00161493
-0.00168744
-0.00168646
-0.00168311
-0.00166179
-0.00162055
-0.00155304
-0.00144968
-0.00129734
-0.00107838
-0.000769543
-0.000341049
0.000242894
0.00101857
0.0020262
0.0032771
0.00472736
0.00622387
0.00744575
0.00806281
-0.0020415
-0.00212474
-0.00213137
-0.00214415
-0.00214736
-0.00214059
-0.00211857
-0.00207248
-0.00198942
-0.00185098
-0.00163119
-0.00129402
-0.000790505
-5.78807e-05
0.000961625
0.00236057
0.00416972
0.00631869
0.00835094
0.00999527
-0.00252197
-0.00261637
-0.00262799
-0.00265604
-0.00268525
-0.00271774
-0.00275048
-0.00277692
-0.00278659
-0.0027636
-0.00268428
-0.00251337
-0.00219794
-0.00165976
-0.000797938
0.00048821
0.00245227
0.00528611
0.00853062
0.0121664
-0.00306301
-0.00316841
-0.0031789
-0.00321756
-0.00326989
-0.00334223
-0.00343535
-0.00354669
-0.00367075
-0.00379865
-0.00391621
-0.00400125
-0.00401973
-0.0039226
-0.00365333
-0.00311745
-0.00194506
0.000739222
0.00475114
0.0117239
-0.00367224
-0.00377706
-0.00376876
-0.00380603
-0.00387653
-0.00398903
-0.00414613
-0.00434964
-0.00460201
-0.00490568
-0.00526416
-0.00568338
-0.00617823
-0.00679167
-0.0076527
-0.00890312
-0.0100594
-0.00882579
-0.0049471
0.00590605
-0.00438832
-0.00451118
-0.00447188
-0.00449986
-0.00456552
-0.00469184
-0.00488954
-0.00516896
-0.00554206
-0.00602545
-0.00664726
-0.00745418
-0.00854064
-0.0100833
-0.0124761
-0.0160897
-0.0209845
-0.0219325
-0.0187276
-0.00412584
-0.00531451
-0.00522031
-0.00507278
-0.00500881
-0.0050583
-0.00521806
-0.00548468
-0.00586025
-0.0063591
-0.00700675
-0.00785325
-0.00898351
-0.0105751
-0.0128898
-0.0165931
-0.0219849
-0.0302777
-0.0338577
-0.0324861
-0.0127362
-0.00595415
-0.00635451
-0.00608943
-0.00608257
-0.00605263
-0.00613255
-0.00633518
-0.00668149
-0.00719493
-0.00789933
-0.00885374
-0.0101444
-0.0120196
-0.0147187
-0.0192688
-0.0251541
-0.0359499
-0.0407012
-0.0398889
-0.00847629
-0.00958737
-0.00697631
-0.00638507
-0.00581613
-0.00575949
-0.00593758
-0.00629732
-0.0067889
-0.00743634
-0.00823502
-0.00927395
-0.0105881
-0.0125283
-0.0151345
-0.0196196
-0.0254294
-0.0342136
-0.0369232
-0.0294992
0.0177422
-0.00642424
-0.00925447
-0.00836944
-0.00842889
-0.00804197
-0.00784112
-0.00781778
-0.00798595
-0.00840972
-0.00901822
-0.00989471
-0.0110392
-0.0128003
-0.0152331
-0.0194868
-0.0244697
-0.0312002
-0.0255509
-0.00313832
0.0742332
-0.0317016
-0.00662896
-0.00538449
-0.00467074
-0.00446207
-0.00468484
-0.00523131
-0.00584408
-0.00666191
-0.00754049
-0.00872477
-0.0101021
-0.0120786
-0.0143547
-0.0172664
-0.0180847
-0.0143736
0.011983
0.0755181
0.206617
1.11945e-05
-1.35382e-05
1.94611e-05
8.50718e-05
0.000189955
0.000334259
0.000518653
0.00074373
0.00100926
0.00131358
0.001653
0.00202111
0.00240827
0.00280055
0.00318015
0.0035259
0.0038142
0.00402121
0.00414298
0.00412636
3.6176e-05
1.06585e-05
4.68922e-05
0.000111589
0.000213345
0.000352894
0.000531391
0.000749803
0.00100823
0.00130541
0.00163803
0.00199972
0.0023827
0.00277237
0.00315136
0.00349846
0.00378957
0.00400049
0.0041291
0.00411037
-2.53192e-06
-3.41441e-05
8.13957e-07
6.28551e-05
0.00016153
0.000297726
0.000473044
0.000689076
0.000946671
0.00124542
0.00158294
0.00195444
0.00235148
0.00276059
0.00316341
0.00353691
0.00385368
0.00408461
0.00422633
0.00419964
-8.29259e-05
-0.000118939
-8.58698e-05
-2.73778e-05
6.71069e-05
0.000198788
0.000369961
0.000583154
0.000840376
0.00114258
0.00148869
0.00187358
0.00229629
0.00273821
0.0031816
0.00360059
0.00396223
0.00422923
0.00439513
0.00436322
-0.000211676
-0.000252127
-0.000221822
-0.000167879
-7.86699e-05
4.74263e-05
0.000213576
0.000423522
0.000680856
0.000988548
0.0013483
0.00176047
0.00221286
0.00270132
0.00320437
0.00369203
0.00412364
0.00444874
0.00465404
0.00461836
-0.000388444
-0.000433976
-0.000407352
-0.000359317
-0.000277139
-0.00015873
7.98908e-08
0.000204471
0.000459973
0.000772052
0.00114527
0.00158186
0.00207913
0.00262995
0.0032147
0.00379995
0.00433507
0.00475034
0.00501821
0.00498232
-0.000613036
-0.000664657
-0.00064279
-0.000602528
-0.000529994
-0.000422672
-0.000275345
-8.12501e-05
0.000167402
0.000479184
0.000862738
0.00132526
0.0018701
0.0024955
0.00318488
0.00390291
0.00458732
0.00514208
0.00551029
0.00548665
-0.000885645
-0.000944616
-0.000928748
-0.000898595
-0.000839154
-0.000747662
-0.000617975
-0.000441772
-0.000208854
9.29366e-05
0.000477402
0.000958733
0.00154816
0.00225417
0.00306876
0.00396004
0.00485538
0.00562654
0.0061603
0.00618798
-0.00120651
-0.00127423
-0.00126558
-0.00124813
-0.00120588
-0.00113618
-0.00103231
-0.00088473
-0.000681038
-0.000405454
-3.84314e-05
0.000443043
0.00106365
0.00183986
0.00278949
0.00389322
0.00507765
0.0061841
0.00700237
0.00719244
-0.00157596
-0.00165383
-0.00165324
-0.0016509
-0.00163011
-0.00158895
-0.00152076
-0.00141551
-0.0012594
-0.00103382
-0.000714082
-0.000268266
0.000342284
0.00115819
0.0022239
0.00355517
0.00510974
0.00672808
0.00805823
0.00870418
-0.0019947
-0.00208398
-0.0020912
-0.00210547
-0.0021098
-0.00210381
-0.00208191
-0.00203478
-0.00194887
-0.00180476
-0.00157497
-0.00122104
-0.00069035
8.44954e-05
0.00117015
0.00266323
0.00461236
0.0069628
0.00921264
0.0109084
-0.00246454
-0.00256586
-0.00257838
-0.0026087
-0.00264003
-0.00267449
-0.00270869
-0.00273566
-0.00274437
-0.0027181
-0.00263198
-0.0024489
-0.00211292
-0.00154173
-0.000631906
0.000730499
0.00282521
0.00592984
0.00954203
0.0132771
-0.00299074
-0.00310433
-0.00311644
-0.00315867
-0.00321457
-0.00329054
-0.00338707
-0.00350131
-0.00362742
-0.00375615
-0.00387308
-0.00395598
-0.00397158
-0.0038746
-0.00362245
-0.00314199
-0.00205516
0.000769879
0.00529416
0.0124067
-0.00357791
-0.0036923
-0.00368635
-0.00372891
-0.00380534
-0.00392429
-0.00408792
-0.00429777
-0.00455624
-0.00486614
-0.00523213
-0.00566331
-0.00618256
-0.0068551
-0.00786568
-0.00943023
-0.0111396
-0.0102134
-0.00596403
0.00512699
-0.00426291
-0.00439925
-0.00436389
-0.00440104
-0.00447587
-0.00461185
-0.0048193
-0.00510862
-0.00549211
-0.00598744
-0.00662562
-0.00746068
-0.00860338
-0.0102702
-0.0129485
-0.0171935
-0.0233695
-0.0251112
-0.0218917
-0.00673398
-0.00513945
-0.00506129
-0.00492012
-0.00486801
-0.00493103
-0.00510589
-0.00538826
-0.00577964
-0.00629442
-0.00695913
-0.00782737
-0.00899177
-0.0106506
-0.0131142
-0.0171837
-0.0232234
-0.032888
-0.0371921
-0.0361279
-0.0153611
-0.00569491
-0.00613381
-0.00587541
-0.00589518
-0.00588643
-0.00598828
-0.00621217
-0.0065793
-0.00711226
-0.00783395
-0.00880757
-0.0101235
-0.0120453
-0.0148437
-0.0196913
-0.0259424
-0.0374139
-0.0419309
-0.0416699
-0.00854903
-0.00924917
-0.0066742
-0.00608312
-0.00553617
-0.0055055
-0.00571588
-0.00611007
-0.00663565
-0.00730934
-0.00813059
-0.00918591
-0.0105147
-0.0124675
-0.0151025
-0.0196815
-0.0256247
-0.0342574
-0.0363383
-0.0292991
0.020453
-0.00582973
-0.00881818
-0.0079437
-0.00806433
-0.00771463
-0.00755524
-0.00757256
-0.0077841
-0.00823435
-0.00886585
-0.00975821
-0.0109098
-0.0126786
-0.0151323
-0.0194511
-0.024462
-0.0310589
-0.0244964
-0.00183157
0.0789953
-0.0311138
-0.00603466
-0.0047944
-0.00413531
-0.00399336
-0.00427676
-0.00488106
-0.00554669
-0.00640797
-0.00732844
-0.00853339
-0.00993926
-0.011924
-0.014205
-0.0171203
-0.0177897
-0.0137538
0.0141722
0.0793984
0.214521
1.99222e-05
-5.56153e-06
2.73039e-05
9.28507e-05
0.000198008
0.000342929
0.000528337
0.000754906
0.00102248
0.00132951
0.00167235
0.00204463
0.00243661
0.00283421
0.00321931
0.00357024
0.00386281
0.00407252
0.00419551
0.00417744
4.6265e-05
1.98459e-05
5.5979e-05
0.000120581
0.000222551
0.000362629
0.000542032
0.000761815
0.00102217
0.00132195
0.00165794
0.00202396
0.0024116
0.00280668
0.00319136
0.00354394
0.00383964
0.00405357
0.00418369
0.0041637
9.07869e-06
-2.35905e-05
1.12444e-05
7.31452e-05
0.000172004
0.000308708
0.000484935
0.000702384
0.000962026
0.00126359
0.00160481
0.00198097
0.00238361
0.00279908
0.00320876
0.00358905
0.00391168
0.0041466
0.00429046
0.00426228
-6.93969e-05
-0.000106584
-7.36471e-05
-1.53266e-05
7.93279e-05
0.000211526
0.000383656
0.000598385
0.000857882
0.0011633
0.00151392
0.00190597
0.00233394
0.00278372
0.00323603
0.00366411
0.00403389
0.00430672
0.00447594
0.00444234
-0.000196052
-0.000237786
-0.000207613
-0.000153854
-6.44571e-05
6.2212e-05
0.000229441
0.000441144
0.000701123
0.00101259
0.00137734
0.00179478
0.00225758
0.00275693
0.0032722
0.00377272
0.00421637
0.0045505
0.00476122
0.0047236
-0.000370439
-0.000417366
-0.000390868
-0.000343022
-0.000260624
-0.000141564
1.84847e-05
0.000224922
0.00048356
0.000800216
0.00117984
0.001625
0.00213389
0.00269904
0.00330073
0.00390461
0.00445801
0.00488778
0.0051648
0.00512669
-0.000592226
-0.000645361
-0.000623623
-0.00058357
-0.000510804
-0.000402773
-0.000254068
-5.76467e-05
0.00019465
0.000511873
0.000903251
0.00137664
0.00193637
0.00258091
0.00329389
0.00403909
0.00475163
0.0053303
0.00571438
0.00568838
-0.000861432
-0.000922058
-0.000906346
-0.000876467
-0.000816844
-0.000724666
-0.000593552
-0.000414845
-0.000177879
0.000130135
0.000523841
0.00101853
0.00162678
0.00235759
0.00320448
0.00413503
0.00507363
0.00588493
0.00644693
0.00647284
-0.00117807
-0.00124761
-0.00123919
-0.00122216
-0.00117989
-0.00110967
-0.00100452
-0.000854486
-0.00064663
-0.000364389
1.28697e-05
0.000509579
0.00115206
0.00195983
0.00295233
0.00411127
0.00536125
0.00653509
0.00740572
0.00759665
-0.00154213
-0.00162203
-0.00162181
-0.00162017
-0.0015997
-0.0015584
-0.00148936
-0.0013821
-0.00122222
-0.000990232
-0.000660155
-0.00019822
0.000436757
0.001289
0.00240706
0.00381101
0.00546089
0.00719159
0.00862291
0.00927796
-0.00195384
-0.00204541
-0.00205325
-0.00206866
-0.00207388
-0.00206845
-0.00204653
-0.00199838
-0.00190988
-0.00176075
-0.00152224
-0.00115396
-0.000600335
0.00021021
0.0013506
0.00292699
0.00500009
0.00753071
0.00997981
0.0116703
-0.0024143
-0.00251824
-0.00253175
-0.00256388
-0.00259696
-0.00263307
-0.00266858
-0.00269618
-0.00270442
-0.00267598
-0.00258514
-0.00239345
-0.00204281
-0.00144737
-0.000498857
0.000923357
0.00313224
0.00647884
0.0104323
0.0141467
-0.00292773
-0.00304442
-0.00305816
-0.00310321
-0.00316205
-0.00324113
-0.00334078
-0.003458
-0.0035868
-0.00371786
-0.00383686
-0.00392215
-0.00394178
-0.00385338
-0.00362293
-0.00319255
-0.00217752
0.000799884
0.00584244
0.012962
-0.00349696
-0.003615
-0.00361132
-0.00365794
-0.00373892
-0.00386304
-0.00403228
-0.00424815
-0.00451329
-0.00483112
-0.00520781
-0.00565617
-0.00620693
-0.00694109
-0.00808451
-0.00992464
-0.0121177
-0.0113304
-0.00644743
0.00483375
-0.00415812
-0.00429954
-0.00426741
-0.00431092
-0.00439244
-0.00453586
-0.00475145
-0.00504983
-0.00544396
-0.00595302
-0.00661102
-0.0074788
-0.00868323
-0.010473
-0.0134172
-0.0182046
-0.0254053
-0.0275985
-0.0237477
-0.00802708
-0.0049995
-0.00492763
-0.00479109
-0.00474692
-0.00481863
-0.00500372
-0.00529764
-0.00570184
-0.00623119
-0.00691436
-0.00780753
-0.00901185
-0.010747
-0.0133584
-0.0177855
-0.0244205
-0.0351653
-0.0398611
-0.0379454
-0.0165577
-0.00551248
-0.00596466
-0.00570668
-0.00574009
-0.00574271
-0.00585756
-0.00609519
-0.00647699
-0.00702491
-0.00776734
-0.00876503
-0.0101145
-0.0121016
-0.015006
-0.0201894
-0.0270151
-0.0386573
-0.0434307
-0.0411152
-0.00828465
-0.00900107
-0.00644702
-0.00586185
-0.00532792
-0.00530777
-0.00553337
-0.00594542
-0.0064903
-0.00718241
-0.00802645
-0.00910326
-0.0104556
-0.0124508
-0.0151235
-0.0198481
-0.025954
-0.0345248
-0.0361018
-0.0272713
0.0222816
-0.00556434
-0.00858333
-0.00768583
-0.00781968
-0.0074757
-0.00733001
-0.00736347
-0.00759474
-0.0080664
-0.00871835
-0.00963265
-0.0108009
-0.0126007
-0.0150847
-0.0194957
-0.0245304
-0.0310064
-0.0235677
0.000837093
0.0819277
-0.0308058
-0.00571845
-0.00446645
-0.00381256
-0.00368857
-0.00399566
-0.00462657
-0.00531957
-0.00620742
-0.00715547
-0.00838418
-0.00981635
-0.011831
-0.0141381
-0.0170833
-0.017673
-0.0132813
0.0155242
0.0824818
0.218422
2.83202e-05
2.60483e-06
3.54667e-05
0.000101105
0.000206621
0.000352207
0.000538655
0.000766713
0.00103631
0.00134596
0.00169211
0.00206835
0.00246491
0.00286752
0.00325781
0.0036137
0.00391048
0.00412313
0.00424774
0.00422923
5.52526e-05
2.85514e-05
6.46926e-05
0.000129382
0.0002317
0.000372422
0.000552838
0.000774088
0.00103646
0.00133887
0.00167823
0.00204841
0.00244069
0.00284101
0.00323119
0.00358909
0.00388937
0.00410655
0.00423856
0.00421829
1.91025e-05
-1.38944e-05
2.09434e-05
8.29194e-05
0.000182124
0.000319486
0.000496766
0.000715762
0.00097756
0.001282
0.00162695
0.00200773
0.00241581
0.00283745
0.00325375
0.0036406
0.00396902
0.00420818
0.00435456
0.00432606
-5.79426e-05
-9.54942e-05
-6.25547e-05
-4.16447e-06
9.08478e-05
0.00022374
0.000397003
0.000613427
0.000875332
0.00118404
0.00153903
0.00193692
0.00237124
0.00282874
0.00328962
0.00372643
0.00410417
0.00438301
0.00455594
0.00452202
-0.0001829
-0.00022503
-0.000194853
-0.000141022
-5.12391e-05
7.61901e-05
0.000244678
0.000458301
0.000721051
0.00103634
0.00140614
0.00182981
0.00230163
0.00281132
0.00333818
0.00385091
0.00430608
0.00464925
0.00486572
0.00482776
-0.000355279
-0.000402628
-0.000376128
-0.000328209
-0.000245396
-0.000125503
3.59518e-05
0.000244575
0.000506441
0.000827692
0.00121366
0.00166731
0.00218703
0.00276561
0.00338314
0.00400437
0.00457492
0.00501872
0.00530497
0.00526652
-0.000574659
-0.000628247
-0.00060652
-0.000566414
-0.000493229
-0.000384322
-0.000234095
-3.52467e-05
0.000220721
0.000543297
0.000942238
0.00142597
0.00199955
0.00266177
0.0033964
0.0041664
0.00490469
0.00550569
0.00590504
0.00587872
-0.000840933
-0.000902048
-0.000886389
-0.000856521
-0.000796535
-0.000703517
-0.000570864
-0.000389607
-0.00014866
0.000165331
0.000567746
0.00107482
0.00170018
0.00245353
0.00332944
0.00429505
0.00527226
0.00611964
0.00670764
0.00673328
-0.00115393
-0.001224
-0.00121573
-0.00119885
-0.00115637
-0.00108549
-0.000978958
-0.000826486
-0.000614642
-0.000326183
6.04612e-05
0.00057095
0.00123309
0.00206861
0.00309862
0.00430572
0.00561278
0.00684517
0.00776176
0.00795266
-0.00151338
-0.00159388
-0.00159396
-0.00159271
-0.00157233
-0.00153074
-0.00146076
-0.00135154
-0.00118817
-0.000950414
-0.000611206
-0.00013523
0.00052081
0.00140403
0.0025669
0.0040329
0.00576389
0.00758924
0.00910514
0.00976138
-0.00191914
-0.00201141
-0.00201978
-0.00203596
-0.00204176
-0.00203667
-0.00201458
-0.00196546
-0.0018747
-0.00172134
-0.0014756
-0.00109552
-0.000523102
0.000316892
0.00150214
0.00314855
0.00532556
0.00800433
0.0106164
0.012289
-0.00237183
-0.00247657
-0.00249094
-0.00252438
-0.00255875
-0.00259611
-0.00263265
-0.00266084
-0.0026689
-0.00263912
-0.00254512
-0.00234746
-0.00198631
-0.00137263
-0.000393082
0.00107822
0.00338445
0.00693233
0.0111759
0.0148477
-0.00287499
-0.00299265
-0.00300774
-0.00305483
-0.0031159
-0.00319742
-0.00329965
-0.00341956
-0.00355114
-0.00368515
-0.00380754
-0.00389721
-0.00392317
-0.00384482
-0.0036328
-0.00323592
-0.00225428
0.000890741
0.00635443
0.0134754
-0.0034305
-0.00354965
-0.00354783
-0.00359734
-0.00368166
-0.00380969
-0.00398344
-0.00420452
-0.00447594
-0.00480186
-0.00519003
-0.00565638
-0.00623761
-0.00702752
-0.00828225
-0.0103361
-0.0128916
-0.012127
-0.00667624
0.00478576
-0.00407459
-0.00421761
-0.00418788
-0.00423555
-0.00432168
-0.00447052
-0.00469242
-0.00499839
-0.00540214
-0.00592432
-0.00660206
-0.00750211
-0.0087645
-0.010662
-0.013831
-0.0190532
-0.0270258
-0.0294969
-0.02505
-0.00880713
-0.00489162
-0.00482182
-0.00468858
-0.00464951
-0.00472684
-0.00491886
-0.00522112
-0.00563541
-0.00617741
-0.0068772
-0.00779486
-0.0090392
-0.0108487
-0.0135908
-0.0183212
-0.0254623
-0.0371526
-0.0421242
-0.039546
-0.0174157
-0.00538477
-0.00584113
-0.00558201
-0.00562181
-0.00563014
-0.0057525
-0.00599901
-0.00639152
-0.00695331
-0.00771162
-0.00873306
-0.0101185
-0.012177
-0.0151777
-0.0206347
-0.0278398
-0.0401166
-0.0449135
-0.0416147
-0.00831034
-0.0088242
-0.00628201
-0.00570376
-0.00517794
-0.00516244
-0.00539485
-0.00581641
-0.00637326
-0.00708057
-0.00793999
-0.00903885
-0.010419
-0.0124762
-0.0151809
-0.0200664
-0.0263317
-0.0351167
-0.0364243
-0.0266752
0.0233601
-0.00542654
-0.00844836
-0.00752684
-0.00766233
-0.00731483
-0.00717084
-0.00720943
-0.00744918
-0.00793377
-0.00859849
-0.00953408
-0.0107218
-0.0125645
-0.0150841
-0.0196013
-0.0246742
-0.0311682
-0.0232092
0.00205289
0.0838198
-0.0306144
-0.00552742
-0.00426617
-0.00360853
-0.00348799
-0.00380254
-0.00444531
-0.00515086
-0.00605598
-0.00702066
-0.00827423
-0.00972997
-0.0117887
-0.0141295
-0.0171394
-0.0176986
-0.0131759
0.016233
0.084192
0.220753
3.57752e-05
1.00541e-05
4.29993e-05
0.000108824
0.000214736
0.000360978
0.000548405
0.000777839
0.00104928
0.00136131
0.00171042
0.00209022
0.00249082
0.00289788
0.00329277
0.00365309
0.0039537
0.00416915
0.00429545
0.00427691
6.29752e-05
3.62278e-05
7.24505e-05
0.000137329
0.000240049
0.000381434
0.000562842
0.000785487
0.00104973
0.00135458
0.00169699
0.00207084
0.00246736
0.00287238
0.00326748
0.00363015
0.0039346
0.00415489
0.00428881
0.00426867
2.75381e-05
-5.51174e-06
2.94078e-05
9.15752e-05
0.000191195
0.000329248
0.000507572
0.000728055
0.000991876
0.00129897
0.00164728
0.0020322
0.00244519
0.00287237
0.00329458
0.00368727
0.00402093
0.00426405
0.00441291
0.00438457
-4.84535e-05
-8.60635e-05
-5.30398e-05
5.54835e-06
0.000100998
0.000234629
0.000409024
0.000627082
0.000891249
0.00120297
0.00156183
0.00196453
0.00240495
0.00286942
0.00333789
0.0037824
0.00416723
0.00445158
0.00462804
0.00459435
-0.00017208
-0.000214271
-0.000184007
-0.00012997
-3.97181e-05
8.85136e-05
0.000258252
0.000473712
0.000739049
0.00105784
0.00143209
0.00186034
0.00234112
0.00285999
0.00339698
0.00392032
0.00438557
0.00473681
0.00495854
0.0049209
-0.000342833
-0.000390244
-0.00036366
-0.000315531
-0.000232223
-0.000111465
5.13654e-05
0.000262053
0.0005269
0.000852339
0.00124415
0.00170655
0.00223444
0.00282448
0.00345559
0.00409166
0.00467688
0.00513283
0.00542721
0.00538919
-0.000560241
-0.000613892
-0.000592097
-0.000551797
-0.000478117
-0.000368315
-0.000216623
-1.55196e-05
0.000243785
0.000571154